/*--------------------------------*- C++ -*----------------------------------*\
| =========                 |                                                 |
| \\      /  F ield         | OpenFOAM: The Open Source CFD Toolbox           |
|  \\    /   O peration     | Version:  2212                                  |
|   \\  /    A nd           | Website:  www.openfoam.com                      |
|    \\/     M anipulation  |                                                 |
\*---------------------------------------------------------------------------*/
FoamFile
{
    version     2.0;
    format      ascii;
    arch        "LSB;label=32;scalar=64";
    class       surfaceScalarField;
    location    "1.5";
    object      phi;
}
// * * * * * * * * * * * * * * * * * * * * * * * * * * * * * * * * * * * * * //

dimensions      [0 3 -1 0 0 0 0];

oriented        oriented;

internalField   nonuniform List<scalar> 
1826
(
6.15154e-08
-3.40029e-08
3.47236e-08
6.0804e-08
-3.40185e-08
3.47299e-08
6.01025e-08
-3.4018e-08
3.47195e-08
5.94045e-08
-3.40082e-08
3.47062e-08
5.86988e-08
-3.39936e-08
3.46992e-08
-3.39894e-08
3.46736e-08
1.99094e-07
-6.38477e-08
3.19366e-08
1.97024e-07
-6.39119e-08
3.1964e-08
1.94979e-07
-6.39504e-08
3.19769e-08
1.92942e-07
-6.39627e-08
3.19921e-08
1.90879e-07
-6.39581e-08
3.20268e-08
-6.39401e-08
3.20002e-08
3.89006e-07
-8.87603e-08
2.88949e-08
3.85081e-07
-8.87683e-08
2.87816e-08
3.812e-07
-8.87635e-08
2.86939e-08
3.7736e-07
-8.8768e-08
2.86449e-08
3.73529e-07
-8.87721e-08
2.86456e-08
-8.87503e-08
2.86403e-08
5.55781e-07
-1.0677e-07
2.41569e-08
5.49774e-07
-1.06811e-07
2.40501e-08
5.43895e-07
-1.06848e-07
2.3963e-08
5.38128e-07
-1.06883e-07
2.38822e-08
5.32438e-07
-1.06924e-07
2.38412e-08
-1.06954e-07
2.38221e-08
6.67165e-07
-1.16777e-07
1.73542e-08
6.59949e-07
-1.16831e-07
1.72366e-08
6.52858e-07
-1.16866e-07
1.71095e-08
6.45884e-07
-1.16894e-07
1.69854e-08
6.39008e-07
-1.16939e-07
1.68911e-08
-1.17013e-07
1.6804e-08
6.94275e-07
-1.17885e-07
8.34619e-09
6.87163e-07
-1.17903e-07
8.18257e-09
6.80194e-07
-1.17943e-07
8.04577e-09
6.73381e-07
-1.18008e-07
7.92706e-09
6.66706e-07
-1.18089e-07
7.82509e-09
-1.18199e-07
7.72071e-09
6.36718e-07
-1.09653e-07
-2.06804e-09
6.30679e-07
-1.0966e-07
-2.20314e-09
6.2474e-07
-1.09638e-07
-2.36539e-09
6.18902e-07
-1.09648e-07
-2.52214e-09
6.13129e-07
-1.09684e-07
-2.63166e-09
-1.09742e-07
-2.74454e-09
5.1307e-07
-9.21938e-08
-1.27739e-08
5.0847e-07
-9.21283e-08
-1.29314e-08
5.04022e-07
-9.20131e-08
-1.31774e-08
4.99645e-07
-9.19276e-08
-1.33443e-08
4.95233e-07
-9.18813e-08
-1.33909e-08
-9.18454e-08
-1.34666e-08
3.52864e-07
-6.66757e-08
-2.22694e-08
3.49609e-07
-6.66156e-08
-2.22582e-08
3.46349e-07
-6.65283e-08
-2.22242e-08
3.43057e-07
-6.64571e-08
-2.21793e-08
3.39687e-07
-6.64212e-08
-2.20894e-08
-6.63718e-08
-2.20914e-08
1.86232e-07
-3.47125e-08
-3.00058e-08
1.84297e-07
-3.47177e-08
-2.99621e-08
1.82383e-07
-3.47109e-08
-2.99033e-08
1.80483e-07
-3.4697e-08
-2.98608e-08
1.78542e-07
-3.46929e-08
-2.97874e-08
-3.46682e-08
-2.97994e-08
6.15153e-08
-3.39963e-08
6.08123e-08
-3.40147e-08
6.01102e-08
-3.40088e-08
5.94126e-08
-3.39994e-08
5.87055e-08
-3.39857e-08
-3.3983e-08
1.86256e-07
-3.00116e-08
6.66992e-08
1.84306e-07
-2.99558e-08
6.66355e-08
1.82395e-07
-2.99113e-08
6.65415e-08
1.80496e-07
-2.98636e-08
6.64694e-08
1.78564e-07
-2.97944e-08
6.64249e-08
-2.98057e-08
6.63762e-08
4.98928e-07
-5.55695e-08
6.06322e-08
4.95719e-07
-5.54899e-08
6.07068e-08
4.92447e-07
-5.54219e-08
6.076e-08
4.89118e-07
-5.53585e-08
6.08154e-08
4.85697e-07
-5.5251e-08
6.09048e-08
-5.52106e-08
6.0881e-08
8.10284e-07
-7.76786e-08
5.2789e-08
8.08343e-07
-7.75853e-08
5.28175e-08
8.06274e-07
-7.74955e-08
5.28374e-08
8.04072e-07
-7.73954e-08
5.28837e-08
8.01737e-07
-7.72635e-08
5.29924e-08
-7.71729e-08
5.30184e-08
1.03458e-06
-9.36118e-08
4.13028e-08
1.03326e-06
-9.35062e-08
4.12935e-08
1.03184e-06
-9.34188e-08
4.1306e-08
1.03035e-06
-9.33416e-08
4.13193e-08
1.02879e-06
-9.3256e-08
4.13926e-08
-9.31873e-08
4.14286e-08
1.16828e-06
-1.02228e-07
2.70516e-08
1.1671e-06
-1.02129e-07
2.70337e-08
1.16584e-06
-1.02051e-07
2.70008e-08
1.16452e-06
-1.01991e-07
2.69605e-08
1.16315e-06
-1.01946e-07
2.69481e-08
-1.01927e-07
2.69001e-08
1.20304e-06
-1.03118e-07
1.01284e-08
1.20216e-06
-1.03103e-07
1.0041e-08
1.20123e-06
-1.03092e-07
1.00092e-08
1.20026e-06
-1.03092e-07
1.00066e-08
1.19924e-06
-1.03108e-07
1.0002e-08
-1.03094e-07
9.90985e-09
1.14343e-06
-9.63736e-08
-8.21617e-09
1.14286e-06
-9.64446e-08
-8.28822e-09
1.14228e-06
-9.65086e-08
-8.37051e-09
1.14168e-06
-9.65661e-08
-8.44563e-09
1.14107e-06
-9.66588e-08
-8.46984e-09
-9.66749e-08
-8.58635e-09
1.00221e-06
-8.22284e-08
-2.63572e-08
1.00161e-06
-8.23531e-08
-2.64243e-08
1.0009e-06
-8.25e-08
-2.6478e-08
1.00011e-06
-8.26478e-08
-2.64658e-08
9.99243e-07
-8.28208e-08
-2.6364e-08
-8.28346e-08
-2.64188e-08
7.85053e-07
-6.06164e-08
-4.22028e-08
7.83236e-07
-6.06745e-08
-4.21193e-08
7.81269e-07
-6.07376e-08
-4.20196e-08
7.7913e-07
-6.07925e-08
-4.18962e-08
7.76805e-07
-6.08959e-08
-4.16885e-08
-6.08707e-08
-4.16257e-08
4.98921e-07
-3.19285e-08
-5.55533e-08
4.95717e-07
-3.19449e-08
-5.54878e-08
4.92447e-07
-3.19715e-08
-5.53994e-08
4.8912e-07
-3.19823e-08
-5.53436e-08
4.85684e-07
-3.20206e-08
-5.52268e-08
-3.19957e-08
-5.51884e-08
1.99139e-07
-6.38471e-08
1.97086e-07
-6.39062e-08
1.95036e-07
-6.39301e-08
1.93e-07
-6.3946e-08
1.90936e-07
-6.39425e-08
-6.39284e-08
3.52952e-07
-2.22743e-08
9.22199e-08
3.49696e-07
-2.22549e-08
9.2146e-08
3.46438e-07
-2.22353e-08
9.20347e-08
3.43157e-07
-2.21863e-08
9.19372e-08
3.39819e-07
-2.21062e-08
9.18691e-08
-2.21012e-08
9.18413e-08
7.85099e-07
-4.22145e-08
8.22511e-08
7.83287e-07
-4.21222e-08
8.23863e-08
7.81339e-07
-4.20443e-08
8.2517e-08
7.79217e-07
-4.19158e-08
8.26663e-08
7.76906e-07
-4.17114e-08
8.28213e-08
-4.16493e-08
8.28511e-08
1.12471e-06
-6.04469e-08
6.95012e-08
1.12611e-06
-6.03244e-08
6.96201e-08
1.12738e-06
-6.01999e-08
6.97288e-08
1.12856e-06
-6.00662e-08
6.98472e-08
1.12971e-06
-5.98817e-08
7.00182e-08
-5.9797e-08
7.00823e-08
1.35928e-06
-7.41902e-08
5.2145e-08
1.36212e-06
-7.40864e-08
5.22136e-08
1.36488e-06
-7.39648e-08
5.23107e-08
1.36757e-06
-7.38443e-08
5.24071e-08
1.37023e-06
-7.36908e-08
5.25445e-08
-7.35759e-08
5.26088e-08
1.4978e-06
-8.20327e-08
3.16077e-08
1.50105e-06
-8.19345e-08
3.1635e-08
1.50429e-06
-8.18565e-08
3.16551e-08
1.50752e-06
-8.17916e-08
3.16733e-08
1.51078e-06
-8.17203e-08
3.17175e-08
-8.16481e-08
3.17157e-08
1.53856e-06
-8.3763e-08
8.45315e-09
1.54199e-06
-8.37365e-08
8.41833e-09
1.54545e-06
-8.37066e-08
8.40072e-09
1.54894e-06
-8.36844e-08
8.40762e-09
1.55247e-06
-8.36761e-08
8.42555e-09
-8.36529e-08
8.3512e-09
1.48522e-06
-7.95712e-08
-1.58503e-08
1.48872e-06
-7.96161e-08
-1.59001e-08
1.49224e-06
-7.96708e-08
-1.59351e-08
1.49584e-06
-7.97634e-08
-1.5962e-08
1.49954e-06
-7.98816e-08
-1.59653e-08
-7.99251e-08
-1.60303e-08
1.34617e-06
-6.94822e-08
-3.95578e-08
1.34931e-06
-6.95939e-08
-3.95839e-08
1.35246e-06
-6.97115e-08
-3.95869e-08
1.35559e-06
-6.98454e-08
-3.95157e-08
1.35876e-06
-7.00185e-08
-3.93988e-08
-7.00748e-08
-3.94134e-08
1.12462e-06
-5.27728e-08
-6.04375e-08
1.12602e-06
-5.27909e-08
-6.03193e-08
1.12731e-06
-5.28372e-08
-6.01843e-08
1.1285e-06
-5.28802e-08
-6.00558e-08
1.12966e-06
-5.29971e-08
-5.98642e-08
-5.30201e-08
-5.97718e-08
8.10266e-07
-2.88826e-08
-7.76626e-08
8.0833e-07
-2.87645e-08
-7.75783e-08
8.0625e-07
-2.87009e-08
-7.74555e-08
8.04045e-07
-2.86415e-08
-7.73765e-08
8.01706e-07
-2.86486e-08
-7.72363e-08
-2.86422e-08
-7.71505e-08
3.89148e-07
-8.8758e-08
3.85233e-07
-8.87561e-08
3.81352e-07
-8.875e-08
3.7752e-07
-8.87551e-08
3.73686e-07
-8.87575e-08
-8.87408e-08
5.13204e-07
-1.27792e-08
1.09698e-07
5.08611e-07
-1.29411e-08
1.0968e-07
5.0418e-07
-1.31793e-08
1.09646e-07
4.99824e-07
-1.33518e-08
1.09645e-07
4.95448e-07
-1.34262e-08
1.09671e-07
-1.34689e-08
1.09707e-07
1.00232e-06
-2.63859e-08
9.63953e-08
1.00173e-06
-2.64387e-08
9.64699e-08
1.00102e-06
-2.64796e-08
9.65301e-08
1.00022e-06
-2.64821e-08
9.6594e-08
9.99375e-07
-2.64127e-08
9.66566e-08
-2.64075e-08
9.66726e-08
1.34619e-06
-3.95691e-08
7.958e-08
1.34932e-06
-3.95821e-08
7.96381e-08
1.35243e-06
-3.95712e-08
7.97036e-08
1.35555e-06
-3.95313e-08
7.97752e-08
1.35869e-06
-3.94165e-08
7.98906e-08
-3.93825e-08
7.99649e-08
1.58233e-06
-5.02588e-08
5.79845e-08
1.58717e-06
-5.02327e-08
5.80241e-08
1.59201e-06
-5.01842e-08
5.80826e-08
1.59684e-06
-5.01147e-08
5.81639e-08
1.60171e-06
-5.00156e-08
5.82739e-08
-4.99745e-08
5.83274e-08
1.72313e-06
-5.70436e-08
3.28628e-08
1.72866e-06
-5.70081e-08
3.28822e-08
1.7342e-06
-5.69737e-08
3.29092e-08
1.73975e-06
-5.69375e-08
3.29445e-08
1.74535e-06
-5.68911e-08
3.29947e-08
-5.68536e-08
3.29981e-08
1.76817e-06
-5.95995e-08
5.30217e-09
1.77389e-06
-5.95922e-08
5.28141e-09
1.77963e-06
-5.95888e-08
5.27525e-09
1.78541e-06
-5.95912e-08
5.28314e-09
1.79125e-06
-5.96024e-08
5.30191e-09
-5.9601e-08
5.26316e-09
1.71943e-06
-5.79853e-08
-2.30122e-08
1.72499e-06
-5.80216e-08
-2.30343e-08
1.73059e-06
-5.8077e-08
-2.30414e-08
1.73623e-06
-5.81576e-08
-2.30362e-08
1.74194e-06
-5.82607e-08
-2.3016e-08
-5.83009e-08
-2.30477e-08
1.5823e-06
-5.2145e-08
-5.02535e-08
1.58714e-06
-5.22149e-08
-5.02311e-08
1.59198e-06
-5.23174e-08
-5.01853e-08
1.59682e-06
-5.24013e-08
-5.01139e-08
1.60172e-06
-5.25413e-08
-5.00159e-08
-5.26139e-08
-4.99817e-08
1.35916e-06
-4.12975e-08
-7.41792e-08
1.36198e-06
-4.12798e-08
-7.40768e-08
1.36475e-06
-4.1323e-08
-7.39504e-08
1.36745e-06
-4.1311e-08
-7.38368e-08
1.37012e-06
-4.13967e-08
-7.36817e-08
-4.14349e-08
-7.35609e-08
1.03451e-06
-2.4142e-08
-9.36026e-08
1.03319e-06
-2.40382e-08
-9.35017e-08
1.03177e-06
-2.39649e-08
-9.33962e-08
1.03029e-06
-2.38756e-08
-9.33284e-08
1.02873e-06
-2.38475e-08
-9.32329e-08
-2.38273e-08
-9.31712e-08
5.56041e-07
-1.06776e-07
5.5005e-07
-1.06804e-07
5.44181e-07
-1.06846e-07
5.38421e-07
-1.06871e-07
5.32725e-07
-1.06909e-07
-1.06945e-07
6.3699e-07
-2.0707e-09
1.17926e-07
6.30956e-07
-2.21756e-09
1.17931e-07
6.2503e-07
-2.38237e-09
1.17955e-07
6.19215e-07
-2.54329e-09
1.18003e-07
6.13474e-07
-2.66087e-09
1.18073e-07
-2.7832e-09
1.18163e-07
1.1435e-06
-8.23234e-09
1.03142e-07
1.14293e-06
-8.31022e-09
1.03125e-07
1.14235e-06
-8.38568e-09
1.03114e-07
1.14174e-06
-8.4554e-09
1.03114e-07
1.14111e-06
-8.49323e-09
1.03121e-07
-8.6135e-09
1.03107e-07
1.48517e-06
-1.58547e-08
8.37724e-08
1.48864e-06
-1.59004e-08
8.3752e-08
1.49216e-06
-1.59286e-08
8.37309e-08
1.49573e-06
-1.59609e-08
8.37101e-08
1.49939e-06
-1.59711e-08
8.37029e-08
-1.60399e-08
8.36933e-08
1.71938e-06
-2.30065e-08
5.96035e-08
1.72493e-06
-2.30269e-08
5.95995e-08
1.73052e-06
-2.30328e-08
5.96001e-08
1.73614e-06
-2.3029e-08
5.96053e-08
1.74184e-06
-2.30125e-08
5.9624e-08
-2.30484e-08
5.96353e-08
1.86012e-06
-2.84207e-08
3.17392e-08
1.86666e-06
-2.84223e-08
3.17447e-08
1.8732e-06
-2.84201e-08
3.17533e-08
1.87977e-06
-2.84149e-08
3.1764e-08
1.88637e-06
-2.84047e-08
3.17849e-08
-2.84115e-08
3.17957e-08
1.90689e-06
-3.17387e-08
1.78946e-09
1.9137e-06
-3.17431e-08
1.78471e-09
1.92052e-06
-3.17493e-08
1.78471e-09
1.92736e-06
-3.17571e-08
1.78798e-09
1.93423e-06
-3.17701e-08
1.79742e-09
-3.17675e-08
1.79047e-09
1.86013e-06
-3.28708e-08
-2.84227e-08
1.86667e-06
-3.2889e-08
-2.84247e-08
1.87321e-06
-3.29122e-08
-2.84229e-08
1.87978e-06
-3.29434e-08
-2.8418e-08
1.88639e-06
-3.29888e-08
-2.84066e-08
-3.29839e-08
-2.84107e-08
1.72303e-06
-3.1611e-08
-5.70367e-08
1.72856e-06
-3.1638e-08
-5.70023e-08
1.73408e-06
-3.16529e-08
-5.697e-08
1.73963e-06
-3.16694e-08
-5.69359e-08
1.74523e-06
-3.17157e-08
-5.68909e-08
-3.1708e-08
-5.68549e-08
1.49766e-06
-2.70413e-08
-8.20221e-08
1.50089e-06
-2.70254e-08
-8.19244e-08
1.50412e-06
-2.69848e-08
-8.18486e-08
1.50736e-06
-2.69535e-08
-8.17844e-08
1.51063e-06
-2.69551e-08
-8.17148e-08
-2.68832e-08
-8.16456e-08
1.16822e-06
-1.73331e-08
-1.02224e-07
1.16704e-06
-1.72239e-08
-1.02125e-07
1.1658e-06
-1.70928e-08
-1.02043e-07
1.16448e-06
-1.69805e-08
-1.01979e-07
1.16312e-06
-1.68986e-08
-1.0193e-07
-1.68061e-08
-1.01918e-07
6.67449e-07
-1.16788e-07
6.60256e-07
-1.16835e-07
6.53177e-07
-1.1686e-07
6.46209e-07
-1.16883e-07
6.39321e-07
-1.16919e-07
-1.16977e-07
6.9463e-07
8.32918e-09
1.16805e-07
6.87541e-07
8.16292e-09
1.16858e-07
6.80584e-07
8.02677e-09
1.16884e-07
6.73778e-07
7.90375e-09
1.16906e-07
6.67111e-07
7.80356e-09
1.16937e-07
7.69151e-09
1.20308e-06
1.01155e-08
1.02244e-07
1.2022e-06
1.00212e-08
1.02146e-07
1.20128e-06
9.9938e-09
1.02067e-07
1.20031e-06
9.98861e-09
1.02002e-07
1.19929e-06
9.98037e-09
1.01963e-07
9.8709e-09
1.53846e-06
8.45563e-09
8.20464e-08
1.54187e-06
8.41737e-09
8.19473e-08
1.54531e-06
8.40235e-09
8.18743e-08
1.54879e-06
8.40949e-09
8.18115e-08
1.55232e-06
8.40461e-09
8.17521e-08
8.31321e-09
1.76804e-06
5.31691e-09
5.70556e-08
1.77375e-06
5.29471e-09
5.70209e-08
1.77947e-06
5.28656e-09
5.69904e-08
1.78524e-06
5.2932e-09
5.69503e-08
1.79105e-06
5.29711e-09
5.692e-08
5.23985e-09
1.9068e-06
1.80323e-09
2.84342e-08
1.91361e-06
1.79732e-09
2.84353e-08
1.92042e-06
1.79452e-09
2.84335e-08
1.92726e-06
1.7949e-09
2.84231e-08
1.93412e-06
1.79224e-09
2.84344e-08
1.76936e-09
1.95352e-06
-1.78391e-09
-1.78393e-09
1.96066e-06
-1.77838e-09
-1.77861e-09
1.96779e-06
-1.77738e-09
-1.77722e-09
1.97493e-06
-1.78012e-09
-1.78044e-09
1.9821e-06
-1.78962e-09
-1.78257e-09
-1.78236e-09
-1.76495e-09
1.90685e-06
-5.30557e-09
-3.1728e-08
1.91367e-06
-5.28253e-09
-3.17343e-08
1.92048e-06
-5.2729e-09
-3.17429e-08
1.92732e-06
-5.2787e-09
-3.1754e-08
1.93419e-06
-5.29628e-09
-3.17693e-08
-5.25475e-09
-3.17669e-08
1.76808e-06
-8.45413e-09
-5.95849e-08
1.77379e-06
-8.4162e-09
-5.9579e-08
1.77952e-06
-8.3927e-09
-5.95787e-08
1.78529e-06
-8.40087e-09
-5.95844e-08
1.79112e-06
-8.42162e-09
-5.95982e-08
-8.34204e-09
-5.95996e-08
1.53846e-06
-1.01203e-08
-8.37504e-08
1.54187e-06
-1.00297e-08
-8.37241e-08
1.54532e-06
-9.99272e-09
-8.36962e-08
1.5488e-06
-9.98931e-09
-8.36793e-08
1.55234e-06
-9.99937e-09
-8.36749e-08
-9.89894e-09
-8.36549e-08
1.20301e-06
-8.33091e-09
-1.03121e-07
1.20213e-06
-8.1695e-09
-1.03102e-07
1.20121e-06
-8.03416e-09
-1.03082e-07
1.20024e-06
-7.91529e-09
-1.03081e-07
1.19923e-06
-7.82192e-09
-1.031e-07
-7.71967e-09
-1.03084e-07
6.94514e-07
-1.179e-07
6.87418e-07
-1.17908e-07
6.80462e-07
-1.17938e-07
6.7365e-07
-1.17986e-07
6.6696e-07
-1.18051e-07
-1.18148e-07
6.67492e-07
1.73204e-08
6.60309e-07
1.72202e-08
1.06821e-07
6.53261e-07
1.71047e-08
1.06827e-07
6.4631e-07
1.69753e-08
1.06881e-07
1.68683e-08
1.06936e-07
1.16832e-06
2.70264e-08
1.16714e-06
2.70225e-08
9.35174e-08
1.16587e-06
2.69988e-08
9.34475e-08
1.16454e-06
2.69646e-08
9.33463e-08
2.69182e-08
9.3265e-08
1.4977e-06
3.16073e-08
7.4197e-08
1.50094e-06
3.16388e-08
7.40981e-08
1.50415e-06
3.16571e-08
7.39987e-08
1.5074e-06
3.16807e-08
7.38506e-08
3.16787e-08
7.3723e-08
1.72301e-06
3.28761e-08
5.02749e-08
1.72853e-06
3.28954e-08
5.02507e-08
1.73405e-06
3.29188e-08
5.021e-08
1.7396e-06
3.29615e-08
5.01158e-08
3.2968e-08
5.00586e-08
1.86006e-06
3.1753e-08
2.30282e-08
1.86658e-06
3.17582e-08
2.3049e-08
1.87311e-06
3.17636e-08
2.30564e-08
1.87969e-06
3.17741e-08
2.30389e-08
3.17612e-08
2.30611e-08
1.90683e-06
2.84372e-08
-5.29051e-09
1.91364e-06
2.84383e-08
-5.26751e-09
1.92045e-06
2.8435e-08
-5.25885e-09
1.92728e-06
2.84276e-08
-5.26849e-09
1.93413e-06
2.84095e-08
-5.28362e-09
2.84031e-08
-5.23797e-09
1.86014e-06
2.30188e-08
-3.28494e-08
1.86667e-06
2.3041e-08
-3.28688e-08
1.87321e-06
2.30483e-08
-3.28955e-08
1.87978e-06
2.30417e-08
-3.29324e-08
1.88638e-06
2.30192e-08
-3.29808e-08
2.3048e-08
-3.29759e-08
1.71942e-06
1.58569e-08
-5.79656e-08
1.72498e-06
1.5908e-08
-5.80027e-08
1.73056e-06
1.59428e-08
-5.80584e-08
1.7362e-06
1.59644e-08
-5.81404e-08
1.7419e-06
1.59642e-08
-5.82462e-08
1.60281e-08
-5.82895e-08
1.48519e-06
8.22603e-09
-7.95573e-08
1.48868e-06
8.30259e-09
-7.96071e-08
1.49219e-06
8.39388e-09
-7.9663e-08
1.49577e-06
8.45677e-09
-7.97523e-08
1.49947e-06
8.46329e-09
-7.9866e-08
8.57808e-09
-7.99103e-08
1.14342e-06
2.07605e-09
-9.63756e-08
1.14285e-06
2.21243e-09
-9.64426e-08
1.14228e-06
2.38083e-09
-9.64983e-08
1.14168e-06
2.53507e-09
-9.65559e-08
1.14105e-06
2.63815e-09
-9.66492e-08
2.7517e-09
-9.666e-08
6.36855e-07
-1.09663e-07
6.30818e-07
-1.09658e-07
6.24886e-07
-1.09625e-07
6.19063e-07
-1.09628e-07
6.13311e-07
-1.0966e-07
-1.09712e-07
5.50038e-07
2.4042e-08
8.8777e-08
5.44162e-07
2.3953e-08
8.87503e-08
5.38388e-07
2.38972e-08
8.87573e-08
2.38364e-08
8.87758e-08
1.03328e-06
4.12817e-08
7.75875e-08
1.03189e-06
4.12506e-08
7.75353e-08
1.0304e-06
4.13437e-08
7.73876e-08
4.13886e-08
7.72715e-08
1.35925e-06
5.21473e-08
6.04562e-08
1.36209e-06
5.2216e-08
6.03245e-08
1.36483e-06
5.22899e-08
6.02218e-08
1.36754e-06
5.24322e-08
6.00539e-08
5.25172e-08
5.9921e-08
1.58228e-06
5.79878e-08
3.95845e-08
1.58713e-06
5.80273e-08
3.95964e-08
1.59194e-06
5.80773e-08
3.96059e-08
1.5968e-06
5.81774e-08
3.95147e-08
5.82414e-08
3.94651e-08
1.71935e-06
5.96062e-08
1.58744e-08
1.7249e-06
5.9602e-08
1.59223e-08
1.73048e-06
5.95994e-08
1.59547e-08
1.73612e-06
5.96053e-08
1.59734e-08
5.95978e-08
1.60356e-08
1.76808e-06
5.70512e-08
-8.43245e-09
1.77379e-06
5.7016e-08
-8.38983e-09
1.77951e-06
5.69813e-08
-8.36689e-09
1.78529e-06
5.6944e-08
-8.38359e-09
1.7911e-06
5.68927e-08
-8.38605e-09
5.68509e-08
-8.29247e-09
1.7231e-06
5.02639e-08
-3.15879e-08
1.72862e-06
5.02404e-08
-3.16124e-08
1.73414e-06
5.01952e-08
-3.16329e-08
1.73969e-06
5.01228e-08
-3.16572e-08
1.74528e-06
5.0021e-08
-3.16994e-08
4.99836e-08
-3.16838e-08
1.58235e-06
3.95695e-08
-5.21241e-08
1.5872e-06
3.95895e-08
-5.21942e-08
1.59203e-06
3.95927e-08
-5.22938e-08
1.59687e-06
3.95235e-08
-5.23809e-08
1.60177e-06
3.94066e-08
-5.25237e-08
3.94174e-08
-5.25938e-08
1.3462e-06
2.63706e-08
-6.94639e-08
1.34933e-06
2.64378e-08
-6.95893e-08
1.35247e-06
2.64927e-08
-6.96988e-08
1.35559e-06
2.64796e-08
-6.98314e-08
1.35876e-06
2.63764e-08
-7.00001e-08
2.64265e-08
-7.00513e-08
1.00221e-06
1.2782e-08
-8.22263e-08
1.00161e-06
1.29423e-08
-8.23502e-08
1.0009e-06
1.31866e-08
-8.24787e-08
1.00009e-06
1.33573e-08
-8.26313e-08
9.9922e-07
1.34044e-08
-8.28033e-08
1.34773e-08
-8.28127e-08
5.13145e-07
-9.21971e-08
5.08549e-07
-9.21204e-08
5.04114e-07
-9.20031e-08
4.9975e-07
-9.19074e-08
4.95349e-07
-9.18553e-08
-9.18171e-08
3.85225e-07
2.87813e-08
6.39161e-08
3.81343e-07
2.86844e-08
6.39484e-08
3.77486e-07
2.86659e-08
6.3948e-08
2.86634e-08
6.39313e-08
8.08348e-07
5.28143e-08
5.54878e-08
8.0632e-07
5.27969e-08
5.54517e-08
8.04132e-07
5.29071e-08
5.53336e-08
5.29902e-08
5.52655e-08
1.12472e-06
6.94914e-08
4.22309e-08
1.12612e-06
6.96123e-08
4.21279e-08
1.12739e-06
6.97072e-08
4.20418e-08
1.12859e-06
6.98652e-08
4.18924e-08
6.99786e-08
4.17904e-08
1.34616e-06
7.95686e-08
2.63993e-08
1.3493e-06
7.9627e-08
2.64374e-08
1.35241e-06
7.96758e-08
2.65309e-08
1.35554e-06
7.97763e-08
2.64729e-08
7.98565e-08
2.64465e-08
1.48512e-06
8.37628e-08
8.24642e-09
1.4886e-06
8.3741e-08
8.32605e-09
1.49211e-06
8.37157e-08
8.40279e-09
1.4957e-06
8.36948e-08
8.46629e-09
8.36767e-08
8.55657e-09
1.53846e-06
8.20325e-08
-1.00982e-08
1.54187e-06
8.19351e-08
-1.00011e-08
1.54533e-06
8.18562e-08
-9.96051e-09
1.54882e-06
8.17882e-08
-9.96907e-09
1.55235e-06
8.17102e-08
-9.94465e-09
8.16378e-08
-9.81962e-09
1.49775e-06
7.41902e-08
-2.70218e-08
1.50098e-06
7.40858e-08
-2.70006e-08
1.50421e-06
7.39583e-08
-2.69637e-08
1.50743e-06
7.3839e-08
-2.69302e-08
1.51069e-06
7.36793e-08
-2.69214e-08
7.35584e-08
-2.68412e-08
1.35926e-06
6.04546e-08
-4.12804e-08
1.36208e-06
6.03209e-08
-4.12545e-08
1.36485e-06
6.01912e-08
-4.12937e-08
1.36754e-06
6.00565e-08
-4.12826e-08
1.3702e-06
5.98629e-08
-4.13674e-08
5.97741e-08
-4.14017e-08
1.1247e-06
4.22217e-08
-5.27561e-08
1.12609e-06
4.21218e-08
-5.27819e-08
1.12736e-06
4.20407e-08
-5.28191e-08
1.12854e-06
4.19056e-08
-5.28591e-08
1.12967e-06
4.1696e-08
-5.29688e-08
4.16356e-08
-5.29828e-08
7.85036e-07
2.22816e-08
-6.06074e-08
7.83216e-07
2.22633e-08
-6.06712e-08
7.8126e-07
2.22416e-08
-6.07236e-08
7.79126e-07
2.2191e-08
-6.07828e-08
7.768e-07
2.2099e-08
-6.08804e-08
2.2101e-08
-6.08475e-08
3.52891e-07
-6.66728e-08
3.49644e-07
-6.66101e-08
3.46395e-07
-6.65123e-08
3.43117e-07
-6.64389e-08
3.39764e-07
-6.64029e-08
-6.63514e-08
1.97088e-07
3.19579e-08
3.40202e-08
1.9505e-07
3.19612e-08
3.40253e-08
1.92987e-07
3.20022e-08
3.40089e-08
3.20074e-08
3.39967e-08
4.95776e-07
6.06952e-08
2.99578e-08
4.92516e-07
6.07481e-08
2.99249e-08
4.89163e-07
6.0839e-08
2.98491e-08
6.08593e-08
2.98205e-08
7.85104e-07
8.22323e-08
2.22968e-08
7.833e-07
8.23685e-08
2.22585e-08
7.8137e-07
8.24935e-08
2.22264e-08
7.79275e-07
8.26695e-08
2.21568e-08
8.27673e-08
2.21164e-08
1.00228e-06
9.63755e-08
1.27897e-08
1.0017e-06
9.64574e-08
1.29295e-08
1.00104e-06
9.64983e-08
1.31934e-08
1.00026e-06
9.65788e-08
1.33357e-08
9.66352e-08
1.34165e-08
1.14344e-06
1.03123e-07
2.08386e-09
1.14289e-06
1.03106e-07
2.23069e-09
1.14231e-06
1.03093e-07
2.38786e-09
1.14171e-06
1.03099e-07
2.54942e-09
1.03107e-07
2.69839e-09
1.20305e-06
1.02225e-07
-8.31278e-09
1.20217e-06
1.02127e-07
-8.14381e-09
1.20126e-06
1.02048e-07
-8.00193e-09
1.20028e-06
1.01988e-07
-7.887e-09
1.19928e-06
1.0194e-07
-7.77559e-09
1.01929e-07
-7.65059e-09
1.16829e-06
9.36025e-08
-1.73151e-08
1.16711e-06
9.3503e-08
-1.71996e-08
1.16587e-06
9.33961e-08
-1.70667e-08
1.16455e-06
9.33262e-08
-1.69503e-08
1.16319e-06
9.32318e-08
-1.68591e-08
9.31714e-08
-1.67556e-08
1.03456e-06
7.76638e-08
-2.41246e-08
1.03324e-06
7.75796e-08
-2.40142e-08
1.03182e-06
7.74595e-08
-2.39381e-08
1.03034e-06
7.73759e-08
-2.38464e-08
1.02878e-06
7.7234e-08
-2.38147e-08
7.71494e-08
-2.37893e-08
8.10265e-07
5.55604e-08
-2.88682e-08
8.08325e-07
5.54895e-08
-2.87517e-08
8.06248e-07
5.54002e-08
-2.86818e-08
8.04044e-07
5.53413e-08
-2.8621e-08
8.01707e-07
5.52277e-08
-2.86257e-08
5.5193e-08
-2.86143e-08
4.98907e-07
3.00089e-08
-3.19247e-08
4.95709e-07
2.99595e-08
-3.19436e-08
4.92446e-07
2.9905e-08
-3.19654e-08
4.89127e-07
2.98575e-08
-3.19793e-08
4.85707e-07
2.97831e-08
-3.20164e-08
2.97964e-08
-3.19882e-08
1.86241e-07
-3.47112e-08
1.84307e-07
-3.47167e-08
1.82406e-07
-3.4706e-08
1.80516e-07
-3.46913e-08
1.78583e-07
-3.46866e-08
-3.46602e-08
6.08193e-08
3.47268e-08
6.01229e-08
3.47216e-08
5.94162e-08
3.47156e-08
3.46985e-08
1.84355e-07
6.66342e-08
1.82441e-07
6.65606e-08
1.80514e-07
6.64917e-08
6.64459e-08
3.53007e-07
9.22029e-08
3.49753e-07
9.21465e-08
3.46503e-07
9.20371e-08
3.43189e-07
9.19621e-08
9.19211e-08
5.13306e-07
1.0968e-07
5.08711e-07
1.09671e-07
5.0428e-07
1.09662e-07
4.99922e-07
1.09655e-07
1.09679e-07
6.37093e-07
1.17905e-07
6.31081e-07
1.17914e-07
6.25188e-07
1.17944e-07
6.19393e-07
1.18e-07
1.18073e-07
6.94662e-07
1.16787e-07
6.87594e-07
1.16838e-07
6.80669e-07
1.16868e-07
6.73891e-07
1.1689e-07
6.67255e-07
1.16933e-07
1.16993e-07
6.67445e-07
1.06774e-07
6.60281e-07
1.06802e-07
6.53236e-07
1.06845e-07
6.46305e-07
1.06871e-07
6.39466e-07
1.06912e-07
1.0695e-07
5.55991e-07
8.87579e-08
5.5002e-07
8.87599e-08
5.44175e-07
8.87524e-08
5.38443e-07
8.87566e-08
5.32783e-07
8.8758e-08
8.87402e-08
3.89102e-07
6.38473e-08
3.85202e-07
6.39082e-08
3.81338e-07
6.39345e-08
3.77523e-07
6.39508e-08
3.7371e-07
6.39455e-08
6.3929e-08
1.99128e-07
3.39959e-08
1.97079e-07
3.40135e-08
1.95041e-07
3.40075e-08
1.93016e-07
3.39965e-08
1.90963e-07
3.39821e-08
3.3978e-08
6.15167e-08
6.08134e-08
6.01149e-08
5.94201e-08
5.87157e-08
)
;

boundaryField
{
    inlet
    {
        type            calculated;
        value           nonuniform List<scalar> 0();
    }
    ami1
    {
        type            cyclicAMI;
        value           nonuniform List<scalar> 0();
    }
    walls
    {
        type            calculated;
        value           nonuniform List<scalar> 
248
(
2.90979e-14
2.43942e-14
1.84387e-14
1.28555e-14
6.40674e-15
1.03113e-21
-6.40674e-15
-1.28555e-14
-1.84387e-14
-2.43942e-14
-2.90979e-14
2.90979e-14
2.43942e-14
1.84387e-14
1.28555e-14
6.40674e-15
1.03113e-21
-6.40674e-15
-1.28555e-14
-1.84387e-14
-2.43942e-14
-2.90979e-14
2.90979e-14
2.43942e-14
1.84387e-14
1.28555e-14
6.40674e-15
1.03113e-21
-6.40674e-15
-1.28555e-14
-1.84387e-14
-2.43942e-14
-2.90979e-14
2.90979e-14
2.43942e-14
1.84387e-14
1.28555e-14
6.40674e-15
1.03113e-21
-6.40674e-15
-1.28555e-14
-1.84387e-14
-2.43942e-14
-2.90979e-14
2.90979e-14
2.43942e-14
1.84387e-14
1.28555e-14
6.40674e-15
1.03139e-21
-6.40674e-15
-1.28555e-14
-1.84387e-14
-2.43942e-14
-2.90979e-14
2.90979e-14
2.43942e-14
1.84387e-14
1.28555e-14
6.40674e-15
1.03165e-21
-6.40674e-15
-1.28555e-14
-1.84387e-14
-2.43942e-14
-2.90979e-14
2.90979e-14
2.43942e-14
1.84387e-14
1.28555e-14
6.40674e-15
1.03113e-21
-6.40674e-15
-1.28555e-14
-1.84387e-14
-2.43942e-14
-2.90979e-14
2.90979e-14
2.43942e-14
1.84387e-14
1.28555e-14
6.40674e-15
1.03113e-21
-6.40674e-15
-1.28555e-14
-1.84387e-14
-2.43942e-14
-2.90979e-14
2.90979e-14
2.43942e-14
1.84387e-14
1.28555e-14
6.40674e-15
1.03113e-21
-6.40674e-15
-1.28555e-14
-1.84387e-14
-2.43942e-14
-2.90979e-14
2.90979e-14
2.43942e-14
1.84387e-14
1.28555e-14
6.40674e-15
1.03113e-21
-6.40674e-15
-1.28555e-14
-1.84387e-14
-2.43942e-14
-2.90979e-14
2.90979e-14
2.43942e-14
1.84387e-14
1.28555e-14
6.40674e-15
1.03139e-21
-6.40674e-15
-1.28555e-14
-1.84387e-14
-2.43942e-14
-2.90979e-14
2.90979e-14
2.43942e-14
1.84387e-14
1.28555e-14
6.40674e-15
1.03165e-21
-6.40674e-15
-1.28555e-14
-1.84387e-14
-2.43942e-14
-2.90979e-14
-1.84387e-14
-1.28555e-14
-6.40674e-15
1.03152e-21
6.40674e-15
1.28555e-14
1.84387e-14
2.43942e-14
2.90979e-14
-2.90979e-14
-2.43942e-14
-1.84387e-14
-1.28555e-14
-6.40674e-15
1.03152e-21
6.40674e-15
1.28555e-14
1.84387e-14
2.43942e-14
2.90979e-14
-2.90979e-14
-2.43942e-14
-1.84387e-14
-1.28555e-14
-6.40674e-15
1.03152e-21
6.40674e-15
1.28555e-14
1.84387e-14
2.43942e-14
2.90979e-14
-2.90979e-14
-2.43942e-14
-1.84387e-14
-1.28555e-14
-6.40674e-15
1.03139e-21
6.40674e-15
1.28555e-14
1.84387e-14
2.43942e-14
2.90979e-14
-2.90979e-14
-2.43942e-14
-1.84387e-14
-1.28555e-14
-6.40674e-15
1.03139e-21
6.40674e-15
1.28555e-14
1.84387e-14
2.43942e-14
2.90979e-14
1.03139e-21
6.40674e-15
1.28555e-14
1.84387e-14
2.43942e-14
2.90979e-14
-2.90979e-14
-2.43942e-14
-1.84387e-14
-1.28555e-14
-6.40674e-15
1.03152e-21
6.40674e-15
-2.90979e-14
-2.43942e-14
-1.84387e-14
-1.28555e-14
-6.40674e-15
1.03152e-21
6.40674e-15
1.28555e-14
1.84387e-14
2.43942e-14
2.90979e-14
-2.90979e-14
-2.43942e-14
-1.84387e-14
-1.28555e-14
-6.40674e-15
1.03152e-21
6.40674e-15
1.28555e-14
1.84387e-14
2.43942e-14
2.90979e-14
-2.90979e-14
-2.43942e-14
-1.84387e-14
-1.28555e-14
-6.40674e-15
1.03139e-21
6.40674e-15
1.28555e-14
1.84387e-14
2.43942e-14
2.90979e-14
-2.90979e-14
-2.43942e-14
-1.84387e-14
-1.28555e-14
-6.40674e-15
1.03139e-21
6.40674e-15
1.28555e-14
1.84387e-14
2.43942e-14
2.90979e-14
-2.90979e-14
-2.43942e-14
-1.84387e-14
-1.28555e-14
-6.40674e-15
1.03139e-21
)
;
    }
    ami2
    {
        type            cyclicAMI;
        value           nonuniform List<scalar> 0();
    }
    outlet
    {
        type            calculated;
        value           nonuniform List<scalar> 0();
    }
    procBoundary7to5
    {
        type            processor;
        value           nonuniform List<scalar> 
131
(
5.80147e-08
1.8883e-07
3.69699e-07
5.2682e-07
6.32263e-07
6.60171e-07
6.07417e-07
4.90803e-07
3.36304e-07
1.76638e-07
5.80202e-08
1.76668e-07
4.82221e-07
7.99321e-07
1.0272e-06
1.16179e-06
1.19822e-06
1.14049e-06
9.98354e-07
7.74375e-07
4.82198e-07
1.88886e-07
3.36455e-07
7.74484e-07
1.13079e-06
1.37283e-06
1.51404e-06
1.55603e-06
1.50326e-06
1.36191e-06
1.13075e-06
7.9929e-07
3.69856e-07
4.91051e-07
9.98492e-07
1.36178e-06
1.60658e-06
1.75094e-06
1.79708e-06
1.74765e-06
1.6066e-06
1.37273e-06
1.02715e-06
5.27102e-07
6.07801e-07
1.14051e-06
1.50309e-06
1.74754e-06
1.89293e-06
1.94106e-06
1.89297e-06
1.75083e-06
1.51389e-06
1.16179e-06
6.32547e-07
6.60589e-07
1.16994e-07
1.19826e-06
1.01961e-07
1.55587e-06
8.17e-08
1.79686e-06
5.69073e-08
1.94092e-06
2.84643e-08
1.9892e-06
1.94102e-06
1.79696e-06
1.55591e-06
1.19822e-06
6.60411e-07
6.39443e-07
1.16318e-06
1.51067e-06
1.74517e-06
1.88627e-06
-3.17308e-08
1.94093e-06
1.89294e-06
1.74761e-06
1.50317e-06
1.14046e-06
6.07626e-07
5.32712e-07
1.02885e-06
1.37021e-06
1.60167e-06
1.74179e-06
-5.95751e-08
1.79688e-06
1.75086e-06
1.60664e-06
1.36189e-06
9.98322e-07
4.90932e-07
3.73667e-07
8.01812e-07
1.12973e-06
1.35868e-06
1.49936e-06
-8.3655e-08
1.55589e-06
1.51392e-06
1.37279e-06
1.13074e-06
7.74369e-07
3.36399e-07
1.90914e-07
4.85756e-07
7.77041e-07
9.99425e-07
1.14109e-06
-1.03092e-07
1.19828e-06
1.16187e-06
1.02719e-06
7.99295e-07
4.82244e-07
1.76688e-07
5.87143e-08
1.78587e-07
3.39831e-07
4.9558e-07
6.13698e-07
-1.18153e-07
6.60765e-07
6.32754e-07
5.27203e-07
3.69906e-07
1.88925e-07
5.80335e-08
)
;
    }
    procBoundary7to8
    {
        type            processor;
        value           nonuniform List<scalar> 
68
(
-6.22361e-08
-2.01186e-07
-3.92988e-07
-5.61929e-07
-6.74512e-07
-1.8822e-07
-5.02066e-07
-8.12069e-07
-1.0358e-06
-1.16936e-06
-3.56198e-07
-7.86778e-07
-1.12319e-06
-1.35638e-06
-1.49451e-06
-5.17903e-07
-1.00286e-06
-1.34309e-06
-1.57748e-06
-1.7176e-06
-6.43148e-07
-1.14408e-06
-1.48174e-06
-1.71385e-06
-1.85359e-06
-1.90006e-06
-7.01838e-07
-1.20397e-06
-1.53507e-06
-1.76236e-06
-1.89998e-06
-1.94636e-06
-6.74812e-07
1.06804e-07
-1.16939e-06
9.36085e-08
-1.49443e-06
-1.7175e-06
-1.85353e-06
-1.90001e-06
-5.56036e-07
-1.03459e-06
-4.131e-08
-1.35635e-06
-1.57743e-06
-1.71381e-06
-1.76238e-06
-3.89146e-07
-8.10282e-07
-5.28029e-08
-1.12318e-06
-1.34305e-06
-1.48169e-06
-1.53506e-06
-1.9915e-07
-4.98983e-07
-6.06294e-08
-7.86773e-07
-1.00282e-06
-1.14403e-06
-1.20394e-06
-6.15259e-08
-1.86305e-07
-6.66672e-08
-3.56246e-07
-5.17994e-07
-6.43234e-07
-7.01857e-07
)
;
    }
    procBoundary7to9
    {
        type            processor;
        value           nonuniform List<scalar> 
59
(
-7.01512e-07
-6.42882e-07
-5.17755e-07
-3.56112e-07
-1.8819e-07
-6.22315e-08
-1.20393e-06
-1.14403e-06
-1.00277e-06
-7.86732e-07
-5.02061e-07
-2.01217e-07
-1.53516e-06
-1.48178e-06
-1.34306e-06
-1.1231e-06
-8.12047e-07