/*--------------------------------*- C++ -*----------------------------------*\
| =========                 |                                                 |
| \\      /  F ield         | OpenFOAM: The Open Source CFD Toolbox           |
|  \\    /   O peration     | Version:  2212                                  |
|   \\  /    A nd           | Website:  www.openfoam.com                      |
|    \\/     M anipulation  |                                                 |
\*---------------------------------------------------------------------------*/
FoamFile
{
    version     2.0;
    format      ascii;
    arch        "LSB;label=32;scalar=64";
    class       surfaceVectorField;
    location    "2.6";
    object      Uf;
}
// * * * * * * * * * * * * * * * * * * * * * * * * * * * * * * * * * * * * * //

dimensions      [0 1 -1 0 0 0 0];

internalField   nonuniform List<vector> 
1815
(
(0.0276637 -5.60209e-05 1.47157e-05)
(0.0350025 -0.000104039 -5.17598e-05)
(0.0340086 -0.000108006 6.19213e-05)
(0.0272823 -5.34303e-05 1.88871e-05)
(0.0345733 -0.000118875 -5.19958e-05)
(0.0335486 -8.66086e-05 6.82522e-05)
(0.0269141 -5.10617e-05 2.17132e-05)
(0.0341405 -0.000127712 -5.03347e-05)
(0.0330911 -7.18009e-05 7.12565e-05)
(0.0265609 -4.90999e-05 2.27555e-05)
(0.0337403 -0.000132343 -4.87571e-05)
(0.0326715 -5.97738e-05 7.21992e-05)
(0.0262245 -4.70868e-05 2.26228e-05)
(0.0333444 -0.00013324 -4.7482e-05)
(0.0322584 -4.99756e-05 7.09843e-05)
(0.0259021 -4.48238e-05 2.21371e-05)
(0.0329725 -0.000132589 -4.64059e-05)
(0.0318729 -4.26204e-05 6.85714e-05)
(0.0255976 -4.25337e-05 2.16429e-05)
(0.0326145 -0.000130215 -4.45814e-05)
(0.0315046 -3.53387e-05 6.60858e-05)
(0.025305 -4.04528e-05 2.10332e-05)
(0.0322667 -0.000128316 -4.28039e-05)
(0.0311519 -3.01981e-05 6.32413e-05)
(0.0250262 -3.85092e-05 1.9472e-05)
(0.0319316 -0.000125831 -3.97812e-05)
(0.0308199 -2.46468e-05 5.99727e-05)
(0.0247587 -3.71005e-05 1.62911e-05)
(0.0316067 -0.000120048 -3.77277e-05)
(0.0305041 -2.26758e-05 5.42296e-05)
(0.0312952 -0.000110266 -3.59382e-05)
(0.0302071 -2.42415e-05 4.65535e-05)
(0.0454771 -0.000191703 -0.000151785)
(0.0533493 -0.000307827 -0.000293014)
(0.0590705 -0.000277208 -3.55405e-05)
(0.0449748 -0.000209008 -0.000156135)
(0.0528432 -0.000321568 -0.000308642)
(0.0585859 -0.000265852 -4.39615e-05)
(0.044487 -0.000217077 -0.000156229)
(0.0523127 -0.000325374 -0.000316701)
(0.0580913 -0.000256024 -4.80494e-05)
(0.0440173 -0.000218351 -0.000154158)
(0.051816 -0.000322149 -0.000319797)
(0.0576383 -0.000246579 -5.02817e-05)
(0.0435668 -0.000216253 -0.000150976)
(0.0513064 -0.000317358 -0.000320205)
(0.0571756 -0.000234065 -5.1247e-05)
(0.0431308 -0.000213126 -0.000146598)
(0.0508208 -0.00031143 -0.000318235)
(0.0567459 -0.000225262 -5.22001e-05)
(0.0427096 -0.000211298 -0.000141354)
(0.0503343 -0.000308141 -0.00031378)
(0.0563144 -0.000212098 -5.09555e-05)
(0.042295 -0.000209791 -0.000134444)
(0.0498526 -0.00030875 -0.000307463)
(0.0558962 -0.000202214 -4.99942e-05)
(0.0418886 -0.000205616 -0.00012578)
(0.0493761 -0.000307153 -0.000299078)
(0.055486 -0.000194191 -4.65304e-05)
(0.0414925 -0.000196663 -0.000116269)
(0.048898 -0.00029015 -0.000280069)
(0.0550695 -0.000194609 -4.65062e-05)
(0.0484448 -0.000260536 -0.00025263)
(0.0546714 -0.000197673 -4.82278e-05)
(0.0625808 -0.000408472 -0.000494533)
(0.0678387 -0.000359474 -0.000592035)
(0.0766834 -0.000564362 -0.000352714)
(0.0620425 -0.000415811 -0.000514439)
(0.0673012 -0.000379492 -0.00062237)
(0.0763518 -0.000545097 -0.000385452)
(0.0614986 -0.000416431 -0.000525463)
(0.0667265 -0.000394229 -0.000641331)
(0.0760066 -0.000524877 -0.000408061)
(0.0609501 -0.000413731 -0.000530886)
(0.0661521 -0.000403203 -0.00065253)
(0.0756647 -0.000505887 -0.00042364)
(0.0603984 -0.000410219 -0.000532279)
(0.065551 -0.000410482 -0.000659107)
(0.0753095 -0.000488292 -0.000434435)
(0.0598428 -0.000407906 -0.000529946)
(0.0649508 -0.00041624 -0.000661081)
(0.0749558 -0.000474167 -0.000441072)
(0.0592859 -0.00040864 -0.000524183)
(0.0643378 -0.000423347 -0.000659047)
(0.0745905 -0.000461328 -0.000443051)
(0.0587259 -0.000411871 -0.000515942)
(0.0637191 -0.000430032 -0.000652723)
(0.0742185 -0.000456542 -0.000443576)
(0.058161 -0.000399504 -0.000495523)
(0.0631075 -0.000440056 -0.000644261)
(0.0738445 -0.000450277 -0.000440069)
(0.057605 -0.000359315 -0.000455093)
(0.0624807 -0.000431745 -0.000620145)
(0.0734566 -0.00043347 -0.000425856)
(0.0618905 -0.000410504 -0.000584255)
(0.073081 -0.000406028 -0.000401687)
(0.073248 -0.000404204 -0.000713965)
(0.0761174 -0.000419492 -0.000775929)
(0.086165 -0.000507711 -0.000631594)
(0.072671 -0.000433527 -0.000743869)
(0.0755568 -0.000459959 -0.000806146)
(0.0859025 -0.000516147 -0.000672346)
(0.0720627 -0.000456677 -0.000763971)
(0.0749588 -0.000491994 -0.000826421)
(0.0856126 -0.00052531 -0.000702806)
(0.0714288 -0.000475264 -0.000777306)
(0.0743325 -0.000516958 -0.000839491)
(0.0852951 -0.000533259 -0.000724741)
(0.0707748 -0.000490754 -0.000785526)
(0.0736826 -0.000537019 -0.000847813)
(0.0849571 -0.000540414 -0.000740441)
(0.0701056 -0.000503942 -0.000788984)
(0.0730148 -0.000552209 -0.00085231)
(0.0845983 -0.000547856 -0.000751053)
(0.0694276 -0.000514058 -0.000787638)
(0.0723376 -0.000564566 -0.000853118)
(0.0842275 -0.000554066 -0.000755865)
(0.0687463 -0.000521785 -0.000782963)
(0.0716481 -0.000570881 -0.000850568)
(0.0838414 -0.000560737 -0.000757243)
(0.0680693 -0.000525715 -0.000774624)
(0.0709656 -0.000573805 -0.000847374)
(0.0834538 -0.000566236 -0.000754966)
(0.0673992 -0.000523343 -0.00076097)
(0.0702727 -0.000566448 -0.000841961)
(0.0830549 -0.000566139 -0.000746655)
(0.0695965 -0.000553415 -0.000832767)
(0.082664 -0.000560151 -0.000732172)
(0.0786126 -0.000454498 -0.000883032)
(0.0906991 -0.000439021 -0.00087919)
(0.078032 -0.000500842 -0.000902217)
(0.0904622 -0.000486582 -0.000901985)
(0.0774158 -0.000537212 -0.000914357)
(0.0901886 -0.00052668 -0.000917066)
(0.0767726 -0.000565737 -0.000921502)
(0.0898851 -0.000560153 -0.000926329)
(0.0761095 -0.00058779 -0.000925115)
(0.0895575 -0.000587754 -0.000931188)
(0.0754318 -0.000604615 -0.000925933)
(0.0892107 -0.000609969 -0.000932428)
(0.0747448 -0.000616319 -0.00092429)
(0.0888487 -0.000627803 -0.00093083)
(0.0740516 -0.000622912 -0.000921228)
(0.0884757 -0.000641132 -0.000926985)
(0.0733549 -0.000623739 -0.000917397)
(0.0880936 -0.000650191 -0.000921625)
(0.0726558 -0.000617358 -0.000912022)
(0.0877049 -0.000652388 -0.000913487)
(0.0873099 -0.000649897 -0.000904433)
(0.0429494 -0.000199483 0.000119752)
(0.0576853 -0.000295696 9.36605e-05)
(0.0495427 -0.0004205 0.000173301)
(0.0423822 -0.000173898 0.000116948)
(0.0571578 -0.000281447 8.14561e-05)
(0.0489057 -0.000371815 0.000151757)
(0.0418401 -0.00015126 0.000113813)
(0.0566287 -0.000266296 7.20581e-05)
(0.0482851 -0.000336936 0.000134438)
(0.0413242 -0.000132054 0.000109236)
(0.0561489 -0.000250675 6.35364e-05)
(0.047728 -0.000308964 0.00012194)
(0.0408347 -0.000116483 0.000103414)
(0.0556621 -0.00023311 5.6028e-05)
(0.0471757 -0.000287145 0.000110544)
(0.0403681 -0.000103304 9.71207e-05)
(0.0552135 -0.000220234 4.83622e-05)
(0.0466733 -0.000268012 0.000101194)
(0.0399283 -9.24913e-05 9.05309e-05)
(0.0547676 -0.000202454 4.23384e-05)
(0.0461837 -0.000250984 9.18839e-05)
(0.0395093 -8.15237e-05 8.41783e-05)
(0.0543426 -0.000187344 3.67418e-05)
(0.045723 -0.000238658 8.22932e-05)
(0.0391209 -7.09177e-05 7.73954e-05)
(0.0539367 -0.000170669 3.06925e-05)
(0.0452891 -0.000220737 7.58425e-05)
(0.0387566 -6.57478e-05 6.89158e-05)
(0.0535328 -0.000163783 2.26145e-05)
(0.0448705 -0.000203149 6.99112e-05)
(0.053155 -0.000164584 1.2922e-05)
(0.0444879 -0.000188795 6.40775e-05)
(0.075637 -0.000444663 5.18749e-05)
(0.0837753 -0.000651319 -6.16039e-05)
(0.0828985 -0.000720948 0.000129003)
(0.0751651 -0.000420636 2.84625e-05)
(0.083471 -0.00061528 -0.000102919)
(0.0825052 -0.000682824 9.52507e-05)
(0.0747099 -0.000404016 1.10241e-05)
(0.0831705 -0.000586359 -0.000133448)
(0.0821314 -0.0006545 6.92959e-05)
(0.0742641 -0.000387181 -1.70936e-06)
(0.0828827 -0.000564759 -0.000157332)
(0.0817876 -0.000629387 4.91484e-05)
(0.0738273 -0.000371271 -1.16432e-05)
(0.0825856 -0.000540197 -0.000174292)
(0.0814465 -0.000604496 3.4087e-05)
(0.0733957 -0.000353773 -1.9123e-05)
(0.0823005 -0.000523735 -0.000189251)
(0.0811269 -0.000586116 2.16354e-05)
(0.0729728 -0.000330976 -2.38701e-05)
(0.0820028 -0.000500968 -0.0001983)
(0.0808024 -0.000559375 1.20127e-05)
(0.0725553 -0.000313961 -2.84657e-05)
(0.0817087 -0.000484335 -0.000206714)
(0.0804881 -0.00053823 4.47759e-06)
(0.0721365 -0.00030981 -3.48774e-05)
(0.0814158 -0.000472715 -0.00021116)
(0.0801781 -0.000516457 -4.35727e-06)
(0.0717129 -0.000317156 -4.34223e-05)
(0.0811033 -0.000473103 -0.000217406)
(0.0798544 -0.000508606 -1.21965e-05)
(0.0807952 -0.000476298 -0.000222568)
(0.0795394 -0.000507139 -1.88918e-05)
(0.0928854 -0.000767879 -0.00025733)
(0.0965487 -0.000706267 -0.000397585)
(0.0985477 -0.00102325 -0.000134121)
(0.0927811 -0.000730796 -0.000306559)
(0.0965255 -0.000682554 -0.000454157)
(0.0985237 -0.000972216 -0.000191825)
(0.0926734 -0.000698284 -0.000344455)
(0.0965017 -0.000663225 -0.000497792)
(0.0985207 -0.000928427 -0.000238334)
(0.0925597 -0.000669458 -0.000373448)
(0.0964535 -0.000649398 -0.00053165)
(0.0985076 -0.000893209 -0.000276515)
(0.0924374 -0.000645215 -0.000396025)
(0.0964 -0.000635374 -0.000556778)
(0.0985062 -0.000863159 -0.000306298)
(0.0923049 -0.000624292 -0.000413011)
(0.0963262 -0.000628836 -0.000577296)
(0.0984915 -0.000840143 -0.000331466)
(0.0921616 -0.000608638 -0.000426258)
(0.0962416 -0.000619955 -0.000590115)
(0.0984802 -0.000814779 -0.000350313)
(0.0920054 -0.00059584 -0.000435284)
(0.0961404 -0.000620624 -0.000602665)
(0.0984581 -0.000798895 -0.000366389)
(0.0918429 -0.000585414 -0.000440114)
(0.0960272 -0.000615697 -0.000607365)
(0.0984341 -0.000782258 -0.000377153)
(0.0916638 -0.000580648 -0.00044255)
(0.0959043 -0.000615887 -0.000609256)
(0.0984034 -0.000775908 -0.000385091)
(0.0957613 -0.000612665 -0.000604784)
(0.0983554 -0.000769941 -0.00038815)
(0.100551 -0.000650255 -0.000598681)
(0.102156 -0.000568272 -0.00073342)
(0.105487 -0.000850637 -0.000482727)
(0.100617 -0.000644563 -0.000650182)
(0.102256 -0.000586787 -0.000776968)
(0.105655 -0.000828841 -0.000541953)
(0.100659 -0.000643367 -0.00069059)
(0.10233 -0.000606168 -0.00081071)
(0.105811 -0.000813904 -0.000590312)
(0.100679 -0.000643733 -0.000721344)
(0.102375 -0.000624693 -0.000835957)
(0.105949 -0.000803648 -0.000629088)
(0.100678 -0.000646512 -0.000745216)
(0.102399 -0.000640792 -0.000854085)
(0.106076 -0.00079639 -0.000659793)
(0.100658 -0.000650538 -0.000762486)
(0.102401 -0.00065692 -0.000867488)
(0.106188 -0.000794457 -0.00068562)
(0.10062 -0.00065712 -0.000775236)
(0.102384 -0.000669374 -0.00087508)
(0.106289 -0.000792218 -0.000704738)
(0.100567 -0.000665362 -0.000783883)
(0.102353 -0.000684493 -0.000880944)
(0.10638 -0.000795294 -0.000721315)
(0.100499 -0.000670364 -0.000785997)
(0.102304 -0.000694644 -0.000881114)
(0.106455 -0.00079667 -0.000731345)
(0.100417 -0.000670422 -0.000781291)
(0.102246 -0.000699924 -0.000875155)
(0.106526 -0.000800719 -0.000737162)
(0.102173 -0.000700548 -0.000865658)
(0.106578 -0.000801404 -0.000736618)
(0.103952 -0.000491289 -0.000924499)
(0.108587 -0.000603259 -0.000856155)
(0.10406 -0.000536921 -0.000949275)
(0.108815 -0.000633176 -0.000887377)
(0.104138 -0.000578175 -0.000966793)
(0.109018 -0.000661615 -0.000911133)
(0.104188 -0.000614477 -0.000978422)
(0.1092 -0.000688036 -0.000928874)
(0.104215 -0.000645806 -0.000985126)
(0.109363 -0.000711896 -0.000941601)
(0.104222 -0.000672412 -0.000987819)
(0.109509 -0.000733375 -0.000950434)
(0.104212 -0.000695127 -0.000987606)
(0.109641 -0.000751891 -0.000956226)
(0.104187 -0.000713619 -0.000984141)
(0.109762 -0.000768718 -0.00095995)
(0.104149 -0.000725542 -0.000975367)
(0.10987 -0.000782021 -0.000959654)
(0.104101 -0.000732879 -0.000963861)
(0.10997 -0.000791208 -0.000954319)
(0.110061 -0.000799137 -0.000947685)
(0.0570268 -0.00057124 0.000266049)
(0.0728683 -0.000745339 0.000271178)
(0.0625059 -0.00076833 0.000388376)
(0.0563324 -0.000499243 0.000233165)
(0.0723413 -0.000679636 0.000240487)
(0.0617251 -0.000696738 0.000359278)
(0.0556869 -0.000452372 0.000206849)
(0.0718556 -0.000632946 0.000212821)
(0.0609925 -0.000644666 0.000333469)
(0.0550806 -0.00041847 0.000187115)
(0.0714172 -0.00059362 0.000190266)
(0.0603259 -0.000604481 0.000312695)
(0.0545088 -0.000390743 0.000171902)
(0.0709957 -0.000562037 0.000171742)
(0.0596814 -0.000569335 0.000296027)
(0.0539677 -0.000366516 0.000158826)
(0.07061 -0.000534194 0.000156159)
(0.0590902 -0.000537524 0.00028143)
(0.0534555 -0.000346641 0.000146094)
(0.0702318 -0.000505703 0.000141811)
(0.0585148 -0.000510177 0.000266061)
(0.0529667 -0.000328556 0.000134402)
(0.0698734 -0.000485871 0.000128045)
(0.0579748 -0.000486129 0.000251746)
(0.0525001 -0.000307767 0.000124721)
(0.0695289 -0.000458171 0.000116048)
(0.0574592 -0.000464354 0.000236573)
(0.0520552 -0.000285232 0.000117111)
(0.0691867 -0.00043603 0.000104763)
(0.0569538 -0.000438115 0.00022411)
(0.0688655 -0.000417587 9.45767e-05)
(0.0564867 -0.00041145 0.000214518)
(0.0908972 -0.000918561 0.000252927)
(0.0975479 -0.00111701 0.000164561)
(0.0946742 -0.00110196 0.000344643)
(0.0906152 -0.000864542 0.000224394)
(0.0974223 -0.00104526 0.000122049)
(0.0944062 -0.00101989 0.000339005)
(0.0903681 -0.000820741 0.000199494)
(0.0973356 -0.000992395 8.52118e-05)
(0.0941844 -0.000955611 0.000330317)
(0.0901466 -0.000784071 0.000178146)
(0.0972587 -0.000948815 5.39191e-05)
(0.0939839 -0.000900934 0.000319436)
(0.0899397 -0.000755953 0.000159819)
(0.0972073 -0.00091691 2.71446e-05)
(0.093814 -0.000857181 0.00030872)
(0.0897414 -0.000728465 0.000143835)
(0.0971531 -0.000891709 4.85744e-06)
(0.093652 -0.000822674 0.000296672)
(0.0895469 -0.000704749 0.000129461)
(0.0971113 -0.000862747 -1.30733e-05)
(0.0935058 -0.000788708 0.000284544)
(0.0893512 -0.000679108 0.000116269)
(0.0970661 -0.000843991 -2.88255e-05)
(0.0933608 -0.000764946 0.000272123)
(0.0891572 -0.000654475 0.000103488)
(0.0970227 -0.000819404 -4.2456e-05)
(0.0932214 -0.000732705 0.00025906)
(0.0889574 -0.00064396 9.06969e-05)
(0.0969792 -0.000810215 -5.5971e-05)
(0.0930864 -0.000713485 0.000244627)
(0.0969234 -0.00080733 -6.81178e-05)
(0.0929457 -0.000697998 0.000228285)
(0.104856 -0.00119887 6.09002e-08)
(0.107766 -0.00111811 -0.000153926)
(0.107558 -0.0013273 0.000139473)
(0.104944 -0.00113454 -4.97459e-05)
(0.107934 -0.00106186 -0.00020817)
(0.107665 -0.00124616 0.000108315)
(0.105047 -0.00108359 -9.33466e-05)
(0.108115 -0.0010178 -0.000255506)
(0.107794 -0.00118022 7.91319e-05)
(0.10516 -0.00104478 -0.000130936)
(0.108293 -0.000983268 -0.000295937)
(0.10793 -0.00112626 5.25353e-05)
(0.105278 -0.00101459 -0.000162774)
(0.108479 -0.000958873 -0.000330337)
(0.108083 -0.0010849 2.84195e-05)
(0.1054 -0.000984889 -0.000188487)
(0.108658 -0.000939504 -0.00035913)
(0.108235 -0.00105053 7.11237e-06)
(0.105524 -0.000957313 -0.000209233)
(0.108841 -0.000918432 -0.000382349)
(0.108399 -0.00101635 -9.89881e-06)
(0.105651 -0.000936413 -0.00022678)
(0.10902 -0.00090318 -0.000401752)
(0.108565 -0.000989227 -2.54303e-05)
(0.105774 -0.000924827 -0.00024232)
(0.109195 -0.00089069 -0.000418065)
(0.108732 -0.000966097 -3.85149e-05)
(0.105891 -0.000921635 -0.000255892)
(0.109369 -0.000890514 -0.000432363)
(0.108902 -0.000953608 -5.24271e-05)
(0.109528 -0.000893761 -0.000442766)
(0.109063 -0.000946876 -6.58774e-05)
(0.111076 -0.00100291 -0.0003639)
(0.112285 -0.00087316 -0.000533891)
(0.113391 -0.00108448 -0.000194845)
(0.111343 -0.000967221 -0.000416078)
(0.112588 -0.000856322 -0.000577814)
(0.113689 -0.00103357 -0.000234503)
(0.111605 -0.000939943 -0.000460484)
(0.112882 -0.000845242 -0.00061463)
(0.113986 -0.000992347 -0.000269646)
(0.111862 -0.000919853 -0.000497996)
(0.113166 -0.000838643 -0.000645105)
(0.114279 -0.000959361 -0.000300255)
(0.112113 -0.000906021 -0.000529696)
(0.113442 -0.000835895 -0.000670247)
(0.114569 -0.000933801 -0.000326841)
(0.11236 -0.000895774 -0.000556116)
(0.11371 -0.000835954 -0.000691123)
(0.114857 -0.000914122 -0.000349708)
(0.112599 -0.000888068 -0.000577909)
(0.11397 -0.00083608 -0.000708236)
(0.115141 -0.000896908 -0.000368681)
(0.112834 -0.000883076 -0.000595571)
(0.114224 -0.000838351 -0.00072215)
(0.115422 -0.000883806 -0.000385472)
(0.11306 -0.000883528 -0.000610167)
(0.114469 -0.000841596 -0.000732168)
(0.115698 -0.000873524 -0.000399529)
(0.11328 -0.000889079 -0.000621641)
(0.11471 -0.000849736 -0.000739952)
(0.115972 -0.000870932 -0.000412346)
(0.11494 -0.000857367 -0.000744193)
(0.116238 -0.000870815 -0.000422186)
(0.113857 -0.000716187 -0.000758317)
(0.116047 -0.000737371 -0.000579242)
(0.114188 -0.000725579 -0.000786037)
(0.116423 -0.000731515 -0.000601344)
(0.114506 -0.000736513 -0.000808194)
(0.116788 -0.000728637 -0.000619643)
(0.11481 -0.000748353 -0.00082567)
(0.117141 -0.000728123 -0.000634595)
(0.115103 -0.00076055 -0.000839361)
(0.117484 -0.00072947 -0.000646652)
(0.115386 -0.000772306 -0.000850182)
(0.11782 -0.000732074 -0.000656321)
(0.11566 -0.000783436 -0.000858832)
(0.118147 -0.000734986 -0.000664086)
(0.115926 -0.000793961 -0.00086501)
(0.118468 -0.000738535 -0.000670295)
(0.116185 -0.000804269 -0.000868382)
(0.118782 -0.000742266 -0.000674277)
(0.116436 -0.000814423 -0.000868774)
(0.119091 -0.000747369 -0.000676521)
(0.119395 -0.000752769 -0.000676676)
(0.0679035 -0.000942121 0.000472121)
(0.082533 -0.00109986 0.000433746)
(0.0720228 -0.00104587 0.000481985)
(0.0670801 -0.000882407 0.000459697)
(0.0819723 -0.00101853 0.000437975)
(0.0711833 -0.00098064 0.000499087)
(0.0663189 -0.000833202 0.00044352)
(0.0814654 -0.000950934 0.000435353)
(0.0703923 -0.000929469 0.000505585)
(0.0656079 -0.000790889 0.000426293)
(0.0810016 -0.000894513 0.000428187)
(0.0696456 -0.000888802 0.000505549)
(0.0649378 -0.000752056 0.000409067)
(0.080574 -0.000845738 0.000419054)
(0.0689336 -0.00085358 0.000501133)
(0.0643026 -0.000716898 0.000391435)
(0.0801746 -0.000802798 0.000408102)
(0.0682546 -0.000820988 0.000493839)
(0.0636979 -0.000685415 0.000373404)
(0.0798004 -0.000766084 0.00039526)
(0.0676024 -0.000791823 0.00048381)
(0.0631196 -0.000656827 0.000355358)
(0.0794453 -0.000733816 0.000381503)
(0.0669753 -0.000765022 0.000471307)
(0.0625648 -0.000628107 0.000337816)
(0.079108 -0.000704815 0.000366943)
(0.0663713 -0.000740491 0.000456854)
(0.0620302 -0.000597856 0.000322282)
(0.0787841 -0.000675885 0.000351931)
(0.0657845 -0.000714449 0.000441464)
(0.0784746 -0.000645882 0.000336776)
(0.065221 -0.00068902 0.000425832)
(0.0985471 -0.00124314 0.000412218)
(0.104312 -0.00140031 0.000336963)
(0.100678 -0.00135539 0.000381745)
(0.09834 -0.00115001 0.000427381)
(0.10426 -0.00130294 0.000343554)
(0.100504 -0.00126059 0.000426688)
(0.098168 -0.00107256 0.00043499)
(0.104239 -0.001222 0.000345028)
(0.100356 -0.00118067 0.000460273)
(0.0980244 -0.00100828 0.000437146)
(0.104238 -0.00115471 0.000342005)
(0.100226 -0.00111463 0.000484474)
(0.0979022 -0.000955088 0.00043548)
(0.104259 -0.00109952 0.000336732)
(0.100118 -0.00105899 0.000500055)
(0.0977976 -0.000910862 0.000430405)
(0.104291 -0.00105454 0.00032937)
(0.100021 -0.00101071 0.000509854)
(0.0977051 -0.000874062 0.000422859)
(0.104338 -0.00101641 0.000321059)
(0.0999381 -0.000969452 0.000515528)
(0.0976231 -0.000841109 0.000413117)
(0.104392 -0.000984569 0.000311763)
(0.0998627 -0.000934896 0.000516792)
(0.0975471 -0.000811365 0.000401288)
(0.104452 -0.000953825 0.000300989)
(0.0997943 -0.000902258 0.000514959)
(0.0974759 -0.00078298 0.000386782)
(0.10452 -0.000929204 0.000288852)
(0.0997337 -0.000874433 0.000508785)
(0.104585 -0.000906187 0.000274292)
(0.0996736 -0.000845788 0.000498109)
(0.11058 -0.00140175 0.000233018)
(0.113168 -0.0013004 8.6525e-05)
(0.111921 -0.00144713 0.000277204)
(0.11073 -0.00131742 0.000225036)
(0.113401 -0.00122256 7.21696e-05)
(0.112099 -0.00136405 0.000291419)
(0.110895 -0.00124695 0.000215059)
(0.113642 -0.00115735 5.71383e-05)
(0.112287 -0.00129348 0.000300902)
(0.111073 -0.00118888 0.000203935)
(0.11389 -0.0011031 4.20881e-05)
(0.112483 -0.00123368 0.000306536)
(0.111262 -0.00114169 0.000192307)
(0.114145 -0.00105915 2.75399e-05)
(0.112688 -0.00118397 0.000309089)
(0.111462 -0.00110187 0.000180948)
(0.114404 -0.00102296 1.35027e-05)
(0.1129 -0.00114212 0.000309651)
(0.111667 -0.00106737 0.000170143)
(0.114668 -0.000991066 5.95942e-07)
(0.113118 -0.00110552 0.000309422)
(0.11188 -0.00103745 0.000159604)
(0.114934 -0.000964022 -1.16132e-05)
(0.113341 -0.00107404 0.000307995)
(0.112094 -0.00101255 0.000148771)
(0.115202 -0.000940897 -2.2953e-05)
(0.113566 -0.0010466 0.000304986)
(0.112312 -0.000994362 0.000136951)
(0.115471 -0.000924059 -3.41838e-05)
(0.113795 -0.00102481 0.000299831)
(0.115739 -0.000913085 -4.52645e-05)
(0.114023 -0.00100821 0.000292546)
(0.116164 -0.00113285 -7.45332e-05)
(0.117248 -0.000974836 -0.000239363)
(0.117228 -0.00113399 3.9993e-05)
(0.116494 -0.00107563 -9.60582e-05)
(0.117621 -0.000932827 -0.000257037)
(0.117584 -0.00107742 3.13927e-05)
(0.116824 -0.00102779 -0.000116287)
(0.117988 -0.000897847 -0.000273348)
(0.117937 -0.00102882 2.23935e-05)
(0.117152 -0.000988393 -0.000134928)
(0.118351 -0.000869153 -0.000288112)
(0.118286 -0.00098762 1.34202e-05)
(0.117481 -0.000956186 -0.000151922)
(0.118711 -0.000846122 -0.000301286)
(0.118635 -0.000953154 4.62855e-06)
(0.11781 -0.000929188 -0.000167224)
(0.119067 -0.000827655 -0.000312959)
(0.118982 -0.000924188 -3.82931e-06)
(0.118138 -0.000906223 -0.000181114)
(0.119421 -0.000812144 -0.000323146)
(0.119327 -0.000899112 -1.17432e-05)
(0.118464 -0.000887134 -0.000193805)
(0.119771 -0.000799545 -0.000332224)
(0.119672 -0.000877682 -1.93655e-05)
(0.118789 -0.000872868 -0.00020535)
(0.120119 -0.000789691 -0.000339929)
(0.120014 -0.000859785 -2.67851e-05)
(0.119112 -0.000863589 -0.000215764)
(0.120464 -0.000784054 -0.000346614)
(0.120356 -0.000846937 -3.43042e-05)
(0.120806 -0.000780917 -0.000352035)
(0.120696 -0.000837492 -4.15859e-05)
(0.118752 -0.000765404 -0.000429777)
(0.119733 -0.000728968 -0.000267292)
(0.119164 -0.000746461 -0.000442)
(0.120172 -0.000706343 -0.000274462)
(0.119566 -0.000731304 -0.000452631)
(0.1206 -0.000687359 -0.000280985)
(0.119961 -0.000719504 -0.000461743)
(0.12102 -0.000671645 -0.000286806)
(0.120349 -0.000710563 -0.000469467)
(0.121432 -0.000658856 -0.000291917)
(0.120732 -0.000703793 -0.000475947)
(0.121839 -0.000648534 -0.000296369)
(0.121109 -0.00069874 -0.00048129)
(0.12224 -0.000640122 -0.000300202)
(0.121481 -0.000695234 -0.00048545)
(0.122636 -0.000633471 -0.000303444)
(0.121849 -0.000693556 -0.000488497)
(0.123027 -0.000628448 -0.000306052)
(0.122214 -0.00069352 -0.000490404)
(0.123416 -0.000625591 -0.000308263)
(0.1238 -0.000623845 -0.000309698)
(0.0755714 -0.00110175 0.000495868)
(0.0886521 -0.00124626 0.000407501)
(0.0777374 -0.00110058 0.00044914)
(0.0747634 -0.00104966 0.000528359)
(0.0881614 -0.00117463 0.00046172)
(0.0769892 -0.0010628 0.000498247)
(0.0739868 -0.00100843 0.000551025)
(0.0876923 -0.00111506 0.000502859)
(0.0762506 -0.00103119 0.000533989)
(0.0732384 -0.000974616 0.000565545)
(0.0872434 -0.0010663 0.000534006)
(0.0755233 -0.0010042 0.000559519)
(0.0725157 -0.000944906 0.000573167)
(0.0868144 -0.00102426 0.000554737)
(0.0748081 -0.000980319 0.000577003)
(0.0718171 -0.000917829 0.000575057)
(0.0864031 -0.000985723 0.000568286)
(0.0741056 -0.000958235 0.000587901)
(0.0711405 -0.000892885 0.000571891)
(0.0860076 -0.000951787 0.000576212)
(0.0734162 -0.000937838 0.000593608)
(0.0704841 -0.000869549 0.000564264)
(0.0856266 -0.000921585 0.000578867)
(0.0727397 -0.000918635 0.000594058)
(0.0698464 -0.00084706 0.000553197)
(0.0852587 -0.000894633 0.000577116)
(0.0720761 -0.000900195 0.000590399)
(0.0692256 -0.00082452 0.000539656)
(0.0849028 -0.000869251 0.000571342)
(0.0714248 -0.000881868 0.000583361)
(0.0845576 -0.000844563 0.000562054)
(0.070786 -0.000863448 0.000573816)
(0.102748 -0.00138145 0.000389322)
(0.107883 -0.00146946 0.00035133)
(0.103653 -0.00134388 0.000336976)
(0.102633 -0.00130035 0.00045378)
(0.107926 -0.00138884 0.000405846)
(0.103611 -0.00128432 0.000415784)
(0.10253 -0.00123207 0.000505138)
(0.107974 -0.00131949 0.000449498)
(0.103563 -0.00123158 0.000480201)
(0.102437 -0.0011745 0.000544195)
(0.108029 -0.00126106 0.000484398)
(0.103513 -0.00118572 0.000532732)
(0.102354 -0.00112348 0.000572479)
(0.108092 -0.00121056 0.000509833)
(0.103463 -0.00114516 0.000573238)
(0.102281 -0.0010782 0.000593655)
(0.108162 -0.0011658 0.000529124)
(0.103413 -0.00110849 0.000605201)
(0.102215 -0.00103907 0.000608813)
(0.108237 -0.0011272 0.000543897)
(0.103363 -0.00107583 0.000630255)
(0.102156 -0.00100487 0.000618402)
(0.108318 -0.00109371 0.000554181)
(0.103314 -0.00104636 0.000649197)
(0.102102 -0.000974165 0.0006226)
(0.108403 -0.00106395 0.000560267)
(0.103265 -0.00101958 0.000663344)
(0.102053 -0.00094547 0.000621376)
(0.108491 -0.00103769 0.000561838)
(0.103217 -0.00099447 0.000671549)
(0.108582 -0.00101332 0.000558873)
(0.10317 -0.000968898 0.00067336)
(0.113503 -0.00141326 0.000332839)
(0.115877 -0.00127406 0.000228419)
(0.113887 -0.00131275 0.000374176)
(0.113721 -0.00134453 0.000365037)
(0.116174 -0.00121137 0.000249138)
(0.114148 -0.0012649 0.000413728)
(0.113941 -0.00128485 0.00039092)
(0.116469 -0.00115636 0.000265566)
(0.114404 -0.00122196 0.000447591)
(0.114165 -0.00123333 0.000411217)
(0.116764 -0.00110878 0.000278304)
(0.114657 -0.0011839 0.000476058)
(0.114393 -0.00118879 0.000426858)
(0.117059 -0.00106772 0.000287782)
(0.114908 -0.00115024 0.000499643)
(0.114625 -0.00115022 0.000438991)
(0.117355 -0.00103204 0.000294602)
(0.115157 -0.00112039 0.000518943)
(0.114859 -0.00111685 0.000448322)
(0.117651 -0.00100098 0.00029954)
(0.115406 -0.00109402 0.000534656)
(0.115097 -0.0010878 0.000454877)
(0.117949 -0.000974033 0.000302738)
(0.115653 -0.00107054 0.000547254)
(0.115336 -0.00106303 0.000458461)
(0.118246 -0.000950666 0.000304132)
(0.115901 -0.00104961 0.000556818)
(0.115576 -0.00104228 0.000458784)
(0.118544 -0.000931628 0.000303556)
(0.116147 -0.00103185 0.000563698)
(0.118842 -0.000915855 0.000300998)
(0.116393 -0.00101568 0.000567009)
(0.118695 -0.00107885 0.000148127)
(0.119713 -0.000896502 2.10104e-05)
(0.11889 -0.000961336 0.000273609)
(0.119073 -0.00103104 0.000152587)
(0.120133 -0.000858698 2.32406e-05)
(0.119292 -0.000926744 0.000280129)
(0.119447 -0.000989055 0.000155453)
(0.120546 -0.000825492 2.44218e-05)
(0.119686 -0.000895636 0.000285474)
(0.119817 -0.000952641 0.000156989)
(0.120953 -0.000796683 2.48016e-05)
(0.120073 -0.000868101 0.000289748)
(0.120185 -0.000921186 0.00015741)
(0.121354 -0.000771932 2.4541e-05)
(0.120456 -0.000843952 0.000293074)
(0.120549 -0.000893888 0.000156975)
(0.12175 -0.000750701 2.3794e-05)
(0.120833 -0.000822793 0.000295548)
(0.120912 -0.000870156 0.000155819)
(0.122143 -0.00073241 2.27386e-05)
(0.121207 -0.000804113 0.000297262)
(0.121273 -0.000849714 0.00015393)
(0.122533 -0.000716806 2.13819e-05)
(0.121578 -0.000787572 0.000298297)
(0.121633 -0.000832804 0.000151256)
(0.122919 -0.000703732 1.97152e-05)
(0.121946 -0.000773062 0.000298601)
(0.121992 -0.000819158 0.000147801)
(0.123304 -0.000693664 1.76421e-05)
(0.122312 -0.000761133 0.000298312)
(0.123686 -0.000685496 1.52039e-05)
(0.122676 -0.000750743 0.000297129)
(0.121193 -0.000669349 -0.000108246)
(0.121328 -0.000468499 -0.000263911)
(0.121329 -0.000551477 7.27359e-05)
(0.121649 -0.000646538 -0.000109407)
(0.121799 -0.000453989 -0.000259325)
(0.121799 -0.000533977 7.00933e-05)
(0.122095 -0.000626822 -0.000110813)
(0.122259 -0.000441301 -0.000255369)
(0.122259 -0.000518546 6.75141e-05)
(0.122534 -0.000609919 -0.000112326)
(0.12271 -0.000430308 -0.000251979)
(0.12271 -0.000505086 6.50808e-05)
(0.122965 -0.000595533 -0.000113868)
(0.123153 -0.000420897 -0.000249086)
(0.123154 -0.000493463 6.28389e-05)
(0.123391 -0.000583343 -0.000115376)
(0.12359 -0.000412902 -0.00024662)
(0.12359 -0.000483491 6.07944e-05)
(0.123812 -0.000573096 -0.00011681)
(0.12402 -0.000406126 -0.0002445)
(0.124021 -0.00047496 5.89456e-05)
(0.124228 -0.000564658 -0.000118161)
(0.124446 -0.000400461 -0.00024268)
(0.124446 -0.000467746 5.72887e-05)
(0.12464 -0.000558105 -0.000119483)
(0.124867 -0.00039585 -0.000241154)
(0.124867 -0.000461789 5.58235e-05)
(0.125049 -0.000553176 -0.000120775)
(0.125284 -0.000392466 -0.000240054)
(0.125284 -0.000457274 5.45407e-05)
(0.125698 -0.000389763 -0.000239075)
(0.125698 -0.00045357 5.33507e-05)
(0.121938 -0.00025279 -0.000415535)
(0.122062 -0.000128225 -0.000211637)
(0.122413 -0.000248424 -0.00040582)
(0.122551 -0.000125812 -0.00020641)
(0.122878 -0.000244517 -0.000397029)
(0.12303 -0.000123652 -0.000201694)
(0.123334 -0.000241092 -0.000389181)
(0.123499 -0.000121752 -0.000197488)
(0.123782 -0.000238139 -0.000382231)
(0.12396 -0.00012012 -0.000193771)
(0.124224 -0.000235618 -0.000376092)
(0.124413 -0.000118742 -0.000190501)
(0.124659 -0.000233483 -0.00037067)
(0.124859 -0.000117594 -0.000187624)
(0.12509 -0.000231713 -0.000365921)
(0.1253 -0.000116662 -0.000185098)
(0.125516 -0.000230346 -0.000361917)
(0.125735 -0.000115931 -0.000182906)
(0.125938 -0.000229276 -0.000358481)
(0.126167 -0.000115446 -0.000181127)
(0.126595 -0.000115056 -0.000179501)
(0.0791951 -0.00105923 0.000453902)
(0.0913607 -0.00114012 0.0003668)
(0.0792081 -0.000970063 0.000423979)
(0.0785177 -0.0010423 0.000506532)
(0.0910244 -0.00111523 0.000437536)
(0.0785926 -0.000973335 0.000480903)
(0.0778295 -0.00102518 0.00054532)
(0.0906712 -0.0010906 0.000493995)
(0.0779502 -0.000972254 0.000524347)
(0.0771362 -0.00100849 0.000573718)
(0.0903068 -0.00106645 0.000538327)
(0.077289 -0.000968414 0.000557051)
(0.0764417 -0.000992522 0.000594425)
(0.0899351 -0.00104381 0.000572992)
(0.0766144 -0.000962828 0.00058185)
(0.0757486 -0.000977382 0.000609088)
(0.0895588 -0.00102293 0.000599966)
(0.0759312 -0.000956065 0.000600369)
(0.075059 -0.00096294 0.000618407)