/*--------------------------------*- C++ -*----------------------------------*\
| =========                 |                                                 |
| \\      /  F ield         | OpenFOAM: The Open Source CFD Toolbox           |
|  \\    /   O peration     | Version:  2212                                  |
|   \\  /    A nd           | Website:  www.openfoam.com                      |
|    \\/     M anipulation  |                                                 |
\*---------------------------------------------------------------------------*/
FoamFile
{
    version     2.0;
    format      ascii;
    arch        "LSB;label=32;scalar=64";
    class       volScalarField;
    location    "0.4";
    object      epsilon;
}
// * * * * * * * * * * * * * * * * * * * * * * * * * * * * * * * * * * * * * //

dimensions      [0 2 -3 0 0 0 0];

internalField   nonuniform List<scalar> 
693
(
0.234191
0.234251
0.234299
0.234336
0.234368
0.234393
0.115284
0.115327
0.115365
0.115398
0.115425
0.115443
0.0857187
0.0857521
0.0857828
0.0858106
0.0858335
0.0858481
0.0743829
0.0744128
0.0744416
0.0744685
0.0744907
0.0745037
0.0691997
0.0692255
0.0692524
0.0692791
0.0693014
0.0693139
0.0677707
0.0678012
0.0678326
0.0678627
0.0678867
0.0678999
0.0694923
0.0695244
0.0695564
0.0695861
0.0696098
0.0696222
0.0747265
0.0747602
0.074792
0.0748209
0.0748441
0.0748575
0.0862188
0.0862549
0.0862879
0.0863174
0.0863414
0.0863565
0.115138
0.115183
0.115222
0.115257
0.115285
0.115304
0.234187
0.234249
0.234298
0.234337
0.23437
0.234396
0.115138
0.115182
0.115221
0.115254
0.115282
0.115302
0.0560262
0.0560552
0.0560755
0.056092
0.0561074
0.0561237
0.0427698
0.0427945
0.0428101
0.0428226
0.0428368
0.0428594
0.0383155
0.0383248
0.0383346
0.0383392
0.0383511
0.0383897
0.0365939
0.036598
0.0365945
0.0365908
0.036601
0.0366503
0.0361515
0.0361429
0.0361256
0.0361238
0.0361348
0.0361898
0.0367611
0.0367614
0.0367499
0.0367563
0.0367711
0.0368286
0.0385689
0.0385794
0.0385904
0.0385986
0.0386147
0.0386556
0.0429631
0.0429882
0.043004
0.0430183
0.0430344
0.0430595
0.0560205
0.0560488
0.0560692
0.0560867
0.0561034
0.0561211
0.115279
0.115324
0.115364
0.115398
0.115427
0.115446
0.0862192
0.0862553
0.0862883
0.0863179
0.0863419
0.086357
0.0429684
0.0429944
0.0430111
0.0430248
0.0430402
0.0430632
0.035772
0.035793
0.0357993
0.035806
0.0358226
0.0358577
0.0339762
0.0339664
0.0339397
0.0339416
0.0339593
0.0340426
0.0335756
0.0335346
0.0334955
0.0334708
0.0334831
0.0335818
0.0335541
0.0335075
0.0334629
0.0334337
0.0334458
0.0335505
0.0336266
0.0336049
0.0335794
0.033564
0.0335831
0.0336858
0.0340788
0.0340737
0.0340534
0.0340602
0.0340839
0.0341699
0.0357543
0.0357723
0.0357794
0.035788
0.0358063
0.035846
0.0427568
0.0427803
0.0427957
0.0428104
0.0428269
0.0428529
0.0857136
0.0857495
0.0857827
0.0858125
0.0858368
0.0858519
0.0747333
0.0747673
0.074799
0.0748275
0.07485
0.0748624
0.0385644
0.0385778
0.0385905
0.0385997
0.0386164
0.0386575
0.0340758
0.0340728
0.0340556
0.0340641
0.0340883
0.0341739
0.0334424
0.0334534
0.0334463
0.0334427
0.0334647
0.0335498
0.0336816
0.0336778
0.0336312
0.033608
0.0336238
0.0336896
0.033864
0.0338467
0.033781
0.0337419
0.0337559
0.0338222
0.0336669
0.0336767
0.0336545
0.0336219
0.0336399
0.0337079
0.0334252
0.033437
0.0334291
0.0334257
0.0334496
0.0335439
0.0339244
0.0339188
0.0338991
0.0339057
0.03393
0.0340179
0.0382874
0.0382949
0.0383058
0.0383154
0.0383328
0.0383762
0.0743761
0.0744103
0.0744429
0.0744725
0.0744963
0.0745098
0.0695052
0.0695383
0.0695697
0.0695981
0.06962
0.0696301
0.0367408
0.036744
0.0367459
0.0367499
0.0367678
0.0368296
0.0335747
0.0335601
0.0335449
0.0335309
0.0335689
0.0336845
0.0336015
0.0336184
0.0335988
0.0336058
0.0336219
0.0337097
0.0341696
0.0341766
0.0341403
0.0341301
0.0341514
0.0342369
0.0345022
0.0344789
0.0344049
0.0343653
0.0343841
0.034466
0.0342217
0.0342128
0.0341535
0.0341208
0.03414
0.0342171
0.0335893
0.0336009
0.0335682
0.0335579
0.0335817
0.033655
0.0334561
0.0334377
0.0334179
0.0334109
0.0334351
0.0335429
0.0365462
0.0365504
0.0365528
0.0365579
0.0365749
0.036627
0.069193
0.0692259
0.0692578
0.0692872
0.0693107
0.0693235
0.0677854
0.0678176
0.0678483
0.0678762
0.0678972
0.0679064
0.0360996
0.0361037
0.0361057
0.0361113
0.0361347
0.0362117
0.0334221
0.033405
0.0333891
0.0333907
0.0334392
0.0335904
0.0336837
0.033703
0.0337026
0.0336959
0.0337411
0.0338659
0.0343606
0.0343727
0.0343626
0.0343613
0.0343956
0.0345252
0.0347185
0.0347097
0.0346503
0.0346201
0.0346476
0.0347446
0.0344458
0.0344336
0.0343717
0.0343406
0.0343623
0.034446
0.0337176
0.0337265
0.0336924
0.0336936
0.0337025
0.0337826
0.0334238
0.0334017
0.033379
0.0333684
0.033394
0.0335083
0.036089
0.036088
0.0360871
0.0360904
0.0361078
0.0361646
0.0677858
0.0678175
0.067849
0.0678781
0.0679012
0.0679132
0.0691889
0.069221
0.069253
0.0692814
0.0693019
0.036582
0.0365774
0.036579
0.0365887
0.0366361
0.0334543
0.0334387
0.0334311
0.0334524
0.0335632
0.0335486
0.0335666
0.033556
0.0335844
0.033664
0.0341093
0.0341229
0.0341041
0.0341286
0.0342127
0.0344173
0.0344125
0.0343626
0.0343439
0.0343809
0.0345072
0.0342022
0.0341922
0.0341352
0.0341087
0.0341314
0.034214
0.0336141
0.0336226
0.0335923
0.033593
0.0336025
0.0336803
0.0335708
0.0335502
0.0335293
0.0335201
0.0335451
0.0336526
0.0367326
0.0367297
0.0367281
0.036732
0.0367501
0.0368078
0.069506
0.0695385
0.0695707
0.0696002
0.0696233
0.0696347
0.0744153
0.0744445
0.0744701
0.0744875
0.0383538
0.0383439
0.0383497
0.0383902
0.0339308
0.033926
0.0339251
0.0339461
0.0340337
0.0334044
0.0334153
0.0334213
0.0334482
0.0335423
0.0335977
0.0336117
0.0335966
0.0336198
0.0336918
0.0337653
0.0337623
0.0337215
0.0337077
0.0337417
0.0338552
0.033656
0.0336481
0.0335996
0.0335757
0.0335959
0.0336701
0.0334298
0.033436
0.0334236
0.0334168
0.0334378
0.0335291
0.0340686
0.034056
0.0340341
0.0340389
0.034064
0.0341516
0.0385595
0.0385639
0.0385729
0.038583
0.0386016
0.0386446
0.0747363
0.0747703
0.0748026
0.0748319
0.0748551
0.0748678
0.0857572
0.0857876
0.0858131
0.0858305
0.0427971
0.0428116
0.0428271
0.0428541
0.0357673
0.0357832
0.0357933
0.0358126
0.0358534
0.0340662
0.0340632
0.0340636
0.0340847
0.0341711
0.0335868
0.0335674
0.0335545
0.0335704
0.0336715
0.033493
0.0334523
0.0334163
0.0334039
0.0334381
0.0335823
0.0335458
0.033498
0.0334568
0.0334357
0.0334536
0.0335586
0.0339513
0.0339357
0.0339193
0.0339065
0.0339292
0.0340124
0.0357611
0.0357701
0.0357742
0.0357823
0.0357996
0.0358393
0.0429616
0.0429832
0.0429988
0.0430131
0.0430293
0.043055
0.0862256
0.0862622
0.086296
0.0863261
0.0863506
0.0863654
0.115349
0.115378
0.115402
0.115421
0.0560348
0.0560725
0.0560921
0.0561107
0.0430844
0.043042
0.0430245
0.0430327
0.043057
0.0385829
0.0385897
0.0385939
0.0386078
0.0386504
0.0367455
0.0367428
0.0367424
0.0367538
0.0368013
0.0361213
0.0361128
0.0360971
0.0361027
0.0361236
0.0361947
0.0365737
0.0365696
0.0365654
0.0365664
0.0365817
0.0366325
0.0383026
0.0383085
0.0383117
0.0383179
0.0383335
0.0383744
0.0427623
0.0427832
0.0427974
0.0428103
0.0428258
0.0428507
0.0560248
0.0560511
0.0560711
0.0560885
0.056105
0.0561219
0.115149
0.115194
0.115233
0.115268
0.115296
0.115315
0.234266
0.234302
0.23433
0.234358
0.115193
0.11522
0.115246
0.115268
0.0861859
0.0862182
0.0862579
0.0862932
0.086318
0.0747269
0.074757
0.0747871
0.0748138
0.0748317
0.0695021
0.0695322
0.0695623
0.069589
0.0696078
0.0677851
0.0678147
0.0678448
0.0678725
0.0678938
0.0679045
0.0692121
0.0692378
0.0692648
0.0692908
0.0693117
0.0693225
0.074394
0.0744241
0.0744534
0.0744804
0.074502
0.0745137
0.0857293
0.0857633
0.0857947
0.0858228
0.0858456
0.0858592
0.115296
0.11534
0.115379
0.115413
0.11544
0.115457
0.234208
0.23427
0.234318
0.234356
0.234388
0.234414
)
;

boundaryField
{
    inlet
    {
        type            fixedValue;
        value           nonuniform List<scalar> 0();
    }
    ami1
    {
        type            cyclicAMI;
        value           nonuniform List<scalar> 0();
    }
    walls
    {
        type            epsilonWallFunction;
        blending        stepwise;
        value           nonuniform List<scalar> 
248
(
0.234191
0.115284
0.0857187
0.0743829
0.0691997
0.0677707
0.0694923
0.0747265
0.0862188
0.115138
0.234187
0.234251
0.115327
0.0857521
0.0744128
0.0692255
0.0678012
0.0695244
0.0747602
0.0862549
0.115183
0.234249
0.234299
0.115365
0.0857828
0.0744416
0.0692524
0.0678326
0.0695564
0.074792
0.0862879
0.115222
0.234298
0.234336
0.115398
0.0858106
0.0744685
0.0692791
0.0678627
0.0695861
0.0748209
0.0863174
0.115257
0.234337
0.234368
0.115425
0.0858335
0.0744907
0.0693014
0.0678867
0.0696098
0.0748441
0.0863414
0.115285
0.23437
0.234393
0.115443
0.0858481
0.0745037
0.0693139
0.0678999
0.0696222
0.0748575
0.0863565
0.115304
0.234396
0.234187
0.115279
0.0857136
0.0743761
0.069193
0.0677858
0.069506
0.0747363
0.0862256
0.115149
0.234208
0.234249
0.115324
0.0857495
0.0744103
0.0692259
0.0678175
0.0695385
0.0747703
0.0862622
0.115194
0.23427
0.234298
0.115364
0.0857827
0.0744429
0.0692578
0.067849
0.0695707
0.0748026
0.086296
0.115233
0.234318
0.234337
0.115398
0.0858125
0.0744725
0.0692872
0.0678781
0.0696002
0.0748319
0.0863261
0.115268
0.234356
0.23437
0.115427
0.0858368
0.0744963
0.0693107
0.0679012
0.0696233
0.0748551
0.0863506
0.115296
0.234388
0.234396
0.115446
0.0858519
0.0745098
0.0693235
0.0679132
0.0696347
0.0748678
0.0863654
0.115315
0.234414
0.0861859
0.0747269
0.0695021
0.0677851
0.0692121
0.074394
0.0857293
0.115296
0.234208
0.234266
0.115193
0.0862182
0.074757
0.0695322
0.0678147
0.0692378
0.0744241
0.0857633
0.11534
0.23427
0.234302
0.11522
0.0862579
0.0747871
0.0695623
0.0678448
0.0692648
0.0744534
0.0857947
0.115379
0.234318
0.23433
0.115246
0.0862932
0.0748138
0.069589
0.0678725
0.0692908
0.0744804
0.0858228
0.115413
0.234356
0.234358
0.115268
0.086318
0.0748317
0.0696078
0.0678938
0.0693117
0.074502
0.0858456
0.11544
0.234388
0.0679045
0.0693225
0.0745137
0.0858592
0.115457
0.234414
0.234191
0.115138
0.0862192
0.0747333
0.0695052
0.0677854
0.0691889
0.234251
0.115182
0.0862553
0.0747673
0.0695383
0.0678176
0.069221
0.0744153
0.0857572
0.115349
0.234266
0.234299
0.115221
0.0862883
0.074799
0.0695697
0.0678483
0.069253
0.0744445
0.0857876
0.115378
0.234302
0.234336
0.115254
0.0863179
0.0748275
0.0695981
0.0678762
0.0692814
0.0744701
0.0858131
0.115402
0.23433
0.234368
0.115282
0.0863419
0.07485
0.06962
0.0678972
0.0693019
0.0744875
0.0858305
0.115421
0.234358
0.234393
0.115302
0.086357
0.0748624
0.0696301
0.0679064
)
;
    }
    ami2
    {
        type            cyclicAMI;
        value           nonuniform List<scalar> 0();
    }
    outlet
    {
        type            zeroGradient;
    }
    procBoundary7to5
    {
        type            processor;
        value           nonuniform List<scalar> 
131
(
0.23441
0.115453
0.0858552
0.0745102
0.0693204
0.0679067
0.0696281
0.0748635
0.0863632
0.115313
0.234413
0.115311
0.0561445
0.0428894
0.0384335
0.0367031
0.0362466
0.0368846
0.0387021
0.0430922
0.0561437
0.115455
0.0863638
0.0430935
0.0359152
0.0341163
0.0336662
0.0336388
0.0337738
0.0342483
0.0359092
0.0428878
0.0858588
0.0748672
0.0387034
0.0342512
0.0336445
0.0337975
0.0339314
0.0338184
0.033642
0.0340999
0.0384263
0.074516
0.0696335
0.0368885
0.033779
0.0338295
0.0343603
0.0345879
0.0343373
0.0337734
0.0336394
0.0366867
0.0693292
0.0679099
0.069317
0.0362722
0.0366845
0.0336824
0.0336761
0.0339806
0.0338055
0.0346417
0.0343746
0.0348762
0.0345726
0.0339048
0.0336093
0.0362282
0.067918
0.069317
0.0366845
0.0336761
0.0338055
0.0343746
0.0343746
0.0346196
0.0343395
0.0338002
0.0337502
0.0368696
0.0696389
0.0744986
0.0384405
0.0341198
0.0336499
0.0338316
0.0338316
0.0339611
0.0337895
0.0336317
0.0342362
0.0386955
0.0748725
0.0858402
0.0428921
0.0359214
0.0342568
0.0337799
0.0337799
0.0336671
0.0336545
0.0340957
0.0359048
0.04309
0.0863715
0.115432
0.0561365
0.0430952
0.0387022
0.0368483
0.0368483
0.0362546
0.036692
0.038424
0.0428852
0.056145
0.115323
0.23438
0.115281
0.0863321
0.0748429
0.069622
0.069622
0.0679104
0.0693271
0.0745185
0.0858648
0.115466
0.23443
)
;
    }
    procBoundary7to8
    {
        type            processor;
        value           nonuniform List<scalar> 
68
(
0.234113
0.11523
0.085679
0.0743497
0.0691739
0.115083
0.0559814
0.0427207
0.0382489
0.0364958
0.0861766
0.0429205
0.0356996
0.0338826
0.0334704
0.0746961
0.0385046
0.0339863
0.0333252
0.0335579
0.0694719
0.036668
0.0334693
0.0334707
0.0340278
0.034374
0.0677531
0.0360217
0.0333095
0.0335476
0.0342147
0.0345746
0.0691585
0.0743852
0.0364842
0.0382755
0.0333428
0.0334144
0.0339662
0.0342757
0.0743852
0.0382755
0.0382755
0.0338288
0.0332847
0.0334615
0.033629
0.0857222
0.0427495
0.0427495
0.0356796
0.033968
0.0334751
0.0333777
0.115307
0.0559324
0.0559324
0.0429383
0.0385062
0.0366667
0.0360374
0.23422
0.115156
0.115156
0.0861705
0.074696
0.0694722
0.067756
)
;
    }
    procBoundary7to9
    {
        type            processor;
        value           nonuniform List<scalar> 
59
(
0.0677413
0.0694604
0.0746899
0.0861766
0.115083
0.234109
0.0360697
0.0366854
0.0385071
0.0429146
0.0559749
0.115224
0.0334441
0.0335166
0.0339858
0.0356794
0.042707
0.0856721
0.0337432
0.0335302
0.0333034
0.0338292
0.0382226
0.074339
0.034088
0.0334527
0.0333445
0.0364714
0.0691592
0.0343067
0.033576
0.0333072
0.0360102
0.0677539
0.0340649
0.0334763
0.0334592
0.0366564
0.0694735
0.0335231
0.0333016
0.0339721
0.0384956
0.0746999
0.0334333
0.03385
0.0356834
0.0429132
0.0861836
0.0364717
0.0382318
0.0427121
0.0559795
0.115094
0.0691866
0.0743609
0.0856896
0.115242
0.234131
)
;
    }
}


// ************************************************************************* //
