/*--------------------------------*- C++ -*----------------------------------*\
| =========                 |                                                 |
| \\      /  F ield         | OpenFOAM: The Open Source CFD Toolbox           |
|  \\    /   O peration     | Version:  2212                                  |
|   \\  /    A nd           | Website:  www.openfoam.com                      |
|    \\/     M anipulation  |                                                 |
\*---------------------------------------------------------------------------*/
FoamFile
{
    version     2.0;
    format      ascii;
    arch        "LSB;label=32;scalar=64";
    class       volScalarField;
    location    "0.7";
    object      p;
}
// * * * * * * * * * * * * * * * * * * * * * * * * * * * * * * * * * * * * * //

dimensions      [0 2 -2 0 0 0 0];

internalField   nonuniform List<scalar> 
678
(
0.000622435
0.000508985
0.000395267
0.000281569
0.000168401
5.58189e-05
0.000622315
0.000508891
0.000395184
0.000281543
0.000168393
5.58873e-05
0.000622307
0.000508893
0.000395069
0.000281399
0.00016834
5.59428e-05
0.000509034
0.000394958
0.000281273
0.000168296
5.59465e-05
0.000509045
0.000394889
0.00028123
0.000168283
5.59337e-05
0.000394884
0.000281199
0.000168248
5.59117e-05
0.000395063
0.00028128
0.000168223
5.58604e-05
0.000395624
0.000281747
0.000168419
5.58781e-05
0.000395664
0.000281856
0.000168418
5.58007e-05
0.000509255
0.000395825
0.000282064
0.000168562
5.57992e-05
0.000509189
0.000395622
0.000281849
0.000168461
5.57347e-05
0.000509027
0.000395215
0.000281512
0.000168301
5.57655e-05
0.000622941
0.000509389
0.00039532
0.000281446
0.00016824
5.58073e-05
0.000509235
0.000395183
0.000281529
0.000168519
5.60197e-05
0.000509084
0.000395298
0.000281899
0.000168915
5.61795e-05
0.000509021
0.000395467
0.000282166
0.000169137
5.62778e-05
0.000509143
0.000395522
0.000282144
0.000169117
5.62745e-05
0.000509236
0.000395139
0.000281711
0.000168815
5.6171e-05
0.000395146
0.00028152
0.000168618
5.60925e-05
0.000395467
0.000281609
0.000168477
5.59403e-05
0.000395851
0.0002819
0.000168391
5.57771e-05
0.000509143
0.000395393
0.00028155
0.000168172
5.56961e-05
0.000394986
0.000281186
0.000168073
5.57315e-05
0.000509401
0.000395326
0.000281556
0.000168462
5.5952e-05
0.000508611
0.000395263
0.000282221
0.000169381
5.64507e-05
0.000508375
0.000395663
0.000282965
0.000170021
5.67604e-05
0.000508392
0.000396131
0.000283529
0.000170457
5.69729e-05
0.000508395
0.000396259
0.000283687
0.000170575
5.70294e-05
0.000508138
0.000395717
0.000283266
0.000170381
5.69898e-05
0.000508262
0.000394987
0.000282406
0.000169773
5.67493e-05
0.000508447
0.000394661
0.00028169
0.00016919
5.64814e-05
0.000395024
0.000281345
0.000168389
5.59251e-05
0.000508994
0.000394974
0.000281059
0.000167848
5.5688e-05
0.000394999
0.000281085
0.000167972
5.56794e-05
0.000395148
0.00028166
0.000168704
5.60941e-05
0.000507937
0.000395001
0.000282434
0.000169735
5.67282e-05
0.000508101
0.000395969
0.000283695
0.000170839
5.72533e-05
0.000508285
0.000396526
0.000284365
0.000171438
5.75616e-05
0.000508425
0.000396691
0.00028451
0.00017152
5.76135e-05
0.000620925
0.000508371
0.000396607
0.000284377
0.000171444
5.7597e-05
0.000508053
0.000395981
0.000283818
0.000170972
5.73196e-05
0.000507994
0.00039556
0.000283152
0.000170311
5.6922e-05
0.000508592
0.000394889
0.000281684
0.000168854
5.61617e-05
0.000508613
0.000394421
0.000280752
0.000167897
5.57942e-05
0.000508886
0.000394419
0.000280646
0.000167788
5.57049e-05
0.000508179
0.000394709
0.000281655
0.000168861
5.6205e-05
0.00062124
0.000508112
0.000395772
0.000283296
0.000170399
5.70005e-05
0.00062121
0.000509039
0.000397068
0.00028462
0.000171556
5.75971e-05
0.000621093
0.000508992
0.000397241
0.000285008
0.000171988
5.78876e-05
0.000621135
0.000509066
0.000397314
0.00028508
0.000172041
5.79342e-05
0.000621116
0.000509209
0.000397402
0.000285017
0.000171966
5.7882e-05
0.000621365
0.000509206
0.000397191
0.00028465
0.000171537
5.75859e-05
0.000621354
0.000508989
0.000396691
0.000283964
0.000170748
5.70678e-05
0.000622255
0.000508509
0.00039508
0.000281946
0.000169038
5.62232e-05
0.00050798
0.000393869
0.000280535
0.000167836
5.57674e-05
0.000508388
0.000393982
0.000280438
0.000167767
5.57437e-05
0.000507978
0.000394925
0.000281952
0.000169056
5.62558e-05
0.000734671
0.000621196
0.000508811
0.00039664
0.000283969
0.000170788
5.71077e-05
0.000734205
0.000621848
0.000509949
0.000397812
0.000285114
0.000171787
5.76457e-05
0.000733941
0.000621699
0.000509934
0.000397948
0.000285413
0.000172165
5.79416e-05
0.000621377
0.000509693
0.000397904
0.000285501
0.00017228
5.8043e-05
0.00062127
0.000509612
0.000397854
0.000285413
0.000172203
5.79696e-05
0.000621461
0.000509795
0.000397814
0.000285127
0.000171814
5.76625e-05
0.000621621
0.000509586
0.000397126
0.000284164
0.000170849
5.71048e-05
0.000622255
0.000508554
0.000395059
0.000281844
0.000168938
5.61898e-05
0.000622435
0.000507677
0.000393558
0.000280306
0.000167707
5.57401e-05
0.000622335
0.000507904
0.000393864
0.000280573
0.000167926
5.58219e-05
0.000621966
0.000508293
0.000394964
0.000281843
0.000168924
5.61902e-05
0.000621448
0.000509158
0.000396666
0.000283774
0.000170598
5.70109e-05
0.000621583
0.000509824
0.000397652
0.000284967
0.00017166
5.75448e-05
0.000621424
0.000509777
0.000397883
0.000285406
0.000172163
5.78942e-05
0.000621447
0.000509867
0.000398047
0.000285599
0.000172332
5.80093e-05
0.000621372
0.00050984
0.000398058
0.000285605
0.000172325
5.79648e-05
0.000621498
0.000509918
0.000397927
0.000285277
0.000171905
5.7647e-05
0.000621559
0.00050935
0.000396855
0.000283941
0.000170753
5.70892e-05
0.000622274
0.000508294
0.000394683
0.000281455
0.000168631
5.60692e-05
0.000622488
0.000507579
0.000393351
0.000280066
0.000167504
5.56501e-05
0.000622061
0.000507859
0.000393953
0.000280693
0.000167985
5.58166e-05
0.000622015
0.000508144
0.000394657
0.000281487
0.000168606
5.60489e-05
0.000621484
0.000508636
0.000395965
0.000283073
0.000170101
5.68322e-05
0.00062153
0.000509326
0.000396966
0.000284225
0.000171101
5.72988e-05
0.000621583
0.000509828
0.000397627
0.000284937
0.000171633
5.75266e-05
0.000621698
0.000510136
0.000398034
0.00028531
0.000171899
5.76589e-05
0.000621584
0.000510029
0.000398016
0.000285353
0.000171929
5.76288e-05
0.000621399
0.000509575
0.000397514
0.000284785
0.000171524
5.74698e-05
0.000621266
0.000508595
0.000396068
0.000283194
0.000170258
5.6914e-05
0.000622389
0.000508046
0.000394138
0.000280851
0.000168106
5.58266e-05
0.000622563
0.000507634
0.000393242
0.000279863
0.000167308
5.55309e-05
0.000621944
0.00050794
0.00039405
0.00028073
0.000167992
5.58096e-05
0.000621949
0.000507863
0.000394141
0.000280893
0.000168139
5.58326e-05
0.000621802
0.000508112
0.000394863
0.000281896
0.000169065
5.63265e-05
0.000621569
0.000508591
0.000395838
0.000282892
0.000169939
5.67704e-05
0.000621526
0.000509105
0.000396515
0.00028354
0.000170405
5.69167e-05
0.000621685
0.000509533
0.000397009
0.000283955
0.000170662
5.69998e-05
0.000621493
0.000509348
0.000396924
0.000283944
0.000170709
5.70309e-05
0.000621276
0.000508673
0.000396166
0.00028329
0.00017031
5.69022e-05
0.000621455
0.000507973
0.000394862
0.00028195
0.000169149
5.63279e-05
0.000622577
0.0005079
0.000393613
0.000280208
0.000167524
5.5576e-05
0.000622543
0.000507796
0.000393384
0.000279855
0.000167215
5.54561e-05
0.000621866
0.000508067
0.000394228
0.000280806
0.000167976
5.57651e-05
0.000621897
0.000507904
0.00039402
0.000280617
0.000167804
5.56379e-05
0.000622023
0.000507769
0.000393911
0.000280635
0.000167941
5.57638e-05
0.000622201
0.000507969
0.000394186
0.00028095
0.000168199
5.59023e-05
0.000622025
0.000508075
0.000394517
0.000281347
0.000168553
5.6043e-05
0.000621975
0.000508241
0.000394763
0.000281582
0.000168732
5.60986e-05
0.000621932
0.000508204
0.000394762
0.000281582
0.000168731
5.61019e-05
0.000621981
0.000507998
0.000394372
0.000281171
0.000168358
5.59227e-05
0.000622261
0.000507836
0.000393765
0.000280429
0.000167722
5.56641e-05
0.00062273
0.000507993
0.000393538
0.000279931
0.000167203
5.53997e-05
0.000622594
0.000508076
0.000393683
0.00028002
0.000167264
5.54063e-05
0.000621835
0.000508011
0.000394177
0.000280762
0.000167944
5.57037e-05
0.000621812
0.00050797
0.000394116
0.000280663
0.00016782
5.56478e-05
0.000848694
0.000735455
0.000621778
0.000507797
0.000393943
0.000280565
0.000167808
5.56913e-05
0.000735881
0.000621981
0.000507618
0.000393619
0.00028035
0.000167731
5.57199e-05
0.00073612
0.00062198
0.000507393
0.000393445
0.000280287
0.000167747
5.57838e-05
0.000621858
0.00050729
0.000393372
0.000280257
0.000167745
5.57912e-05
0.000621906
0.00050734
0.00039339
0.000280255
0.000167737
5.57907e-05
0.000621965
0.00050745
0.000393421
0.000280224
0.000167688
5.57489e-05
0.000621993
0.000507557
0.000393456
0.000280163
0.000167607
5.57185e-05
0.000622179
0.000507829
0.000393656
0.00028016
0.000167479
5.55919e-05
0.000622388
0.000507982
0.000393705
0.000280124
0.000167419
5.54956e-05
)
;

boundaryField
{
    inlet
    {
        type            zeroGradient;
    }
    ami1
    {
        type            cyclicAMI;
        value           nonuniform List<scalar> 0();
    }
    walls
    {
        type            zeroGradient;
    }
    ami2
    {
        type            cyclicAMI;
        value           nonuniform List<scalar> 0();
    }
    outlet
    {
        type            fixedValue;
        value           uniform 0;
    }
    procBoundary6to5
    {
        type            processor;
        value           nonuniform List<scalar> 
177
(
0.00073564
0.00062266
0.000735446
0.00073525
0.000622601
0.0006228
0.000622601
0.000622713
0.000509108
0.000509108
0.000509108
0.000509234
0.000509234
0.000509238
0.000509135
0.000509135
0.000622206
0.000509543
0.000622254
0.00062266
0.00062266
0.00050912
0.000735902
0.0006228
0.000622894
0.0006228
0.000622703
0.000622605
0.000622739
0.000623286
0.000509442
0.000509442
0.000509442
0.000509497
0.000509497
0.000509543
0.000509543
0.000622352
0.00050912
0.00050912
0.000622894
0.000509029
0.000622038
0.000621657
0.000621351
0.000621281
0.00062155
0.00062155
0.000622295
0.000622535
0.000509162
0.000509162
0.000509162
0.000509162
0.000622531
0.000509224
0.000509224
0.000509029
0.000509029
0.000509029
0.0006218
0.0006218
0.000621237
0.000621237
0.000620956
0.000620956
0.000620993
0.000620993
0.000620993
0.00073485
0.00062121
0.00062121
0.00062121
0.000621288
0.000621288
0.000622538
0.000622538
0.000622702
0.000623093
0.000622375
0.000622375
0.000735329
0.000735329
0.000734306
0.000734306
0.00073422
0.00073422
0.000734219
0.000734265
0.000734509
0.000734543
0.000736092
0.000622525
0.000622525
0.000622525
0.000622779
0.000622779
0.000736004
0.000621565
0.000621565
0.000621565
0.00084872
0.000734524
0.000847446
0.000734076
0.000847043
0.00073383
0.000733891
0.00073383
0.000733993
0.000734122
0.0007343
0.000736045
0.00073664
0.000736188
0.000735844
0.000734524
0.000734076
0.000733891
0.000733811
0.000733832
0.000733929
0.000734412
0.00073625
0.000736819
0.00073575
0.00073581
0.000735087
0.0007346
0.000734057
0.000733938
0.000733915
0.000734167
0.000734873
0.000736478
0.000736821
0.000735378
0.000735747
0.000735543
0.000735189
0.000734761
0.000734665
0.000734531
0.000734804
0.000735367
0.000736569
0.000736543
0.000735104
0.000735405
0.000849022
0.000735907
0.000735907
0.000736043
0.000736043
0.000735897
0.000735897
0.000735811
0.000735767
0.000735869
0.000736116
0.000736639
0.000736453
0.000735129
0.000848349
0.000735169
0.000735169
0.000962324
0.000849134
0.000849134
0.000849374
0.000735984
0.000735984
0.00073598
0.000735963
0.000735843
0.000735898
0.000736136
)
;
    }
}


// ************************************************************************* //
