/*--------------------------------*- C++ -*----------------------------------*\
| =========                 |                                                 |
| \\      /  F ield         | OpenFOAM: The Open Source CFD Toolbox           |
|  \\    /   O peration     | Version:  2212                                  |
|   \\  /    A nd           | Website:  www.openfoam.com                      |
|    \\/     M anipulation  |                                                 |
\*---------------------------------------------------------------------------*/
FoamFile
{
    version     2.0;
    format      ascii;
    arch        "LSB;label=32;scalar=64";
    class       volScalarField;
    location    "2.15";
    object      epsilon;
}
// * * * * * * * * * * * * * * * * * * * * * * * * * * * * * * * * * * * * * //

dimensions      [0 2 -3 0 0 0 0];

internalField   nonuniform List<scalar> 
678
(
0.0876577
0.0861494
0.0846911
0.0832809
0.0818978
0.0323292
0.0317079
0.0311124
0.0305463
0.0300024
0.0214931
0.0210206
0.0205644
0.020131
0.019721
0.0165444
0.0161365
0.0157454
0.0153739
0.0150361
0.0147081
0.0143883
0.0140189
0.013666
0.0133352
0.013028
0.0127236
0.0135694
0.0132347
0.0129189
0.0125801
0.0123032
0.0119732
0.0117298
0.0138042
0.0134597
0.0131345
0.0127914
0.01251
0.0122174
0.0119683
0.0152667
0.0148814
0.0145338
0.0142204
0.0139167
0.0136231
0.0133386
0.0190877
0.0186752
0.0182826
0.0179137
0.0175655
0.0172276
0.0168903
0.0297919
0.0292275
0.0286945
0.0281921
0.0277105
0.0272509
0.0876407
0.0861305
0.08467
0.08326
0.0818775
0.0805669
0.0298033
0.029242
0.0287113
0.0282122
0.0277279
0.027272
0.0119722
0.0117141
0.0114756
0.0112151
0.0110404
0.00787173
0.00767819
0.00746896
0.0073129
0.00706474
0.00688449
0.00646886
0.00624473
0.00606274
0.00594199
0.00570805
0.00557819
0.00579924
0.00562519
0.00542967
0.00531752
0.00510346
0.00498619
0.00551826
0.00533738
0.00518493
0.00504472
0.00487974
0.00474715
0.00546242
0.0053223
0.00517711
0.00503536
0.00484144
0.00470907
0.0058413
0.00570723
0.00554595
0.00540566
0.00515379
0.00501323
0.00486204
0.00706816
0.00690283
0.0067129
0.00655314
0.00629732
0.00613734
0.00599854
0.0119717
0.0117095
0.0114686
0.011221
0.0109722
0.0107305
0.0106117
0.0323323
0.03171
0.0311141
0.0305473
0.0300057
0.0294904
0.0190955
0.0186859
0.0182965
0.0179306
0.0175848
0.0172488
0.0169107
0.00706955
0.00690849
0.00671933
0.00656299
0.00631225
0.00616504
0.00500535
0.00486682
0.00470594
0.004591
0.00437906
0.00426111
0.00452085
0.00434081
0.00421813
0.00411127
0.00392891
0.0038112
0.00439203
0.00423233
0.00408516
0.00394858
0.00382732
0.00370733
0.00433109
0.00418108
0.00403983
0.00390558
0.00378694
0.00367067
0.00432812
0.00418308
0.00404365
0.00391191
0.0037809
0.00367911
0.00439844
0.00428319
0.00415113
0.0040445
0.00383941
0.00371779
0.00500912
0.00487606
0.00471084
0.00460071
0.00438235
0.00426683
0.00787745
0.00767993
0.00747019
0.00731333
0.00706198
0.00691432
0.00673354
0.0215033
0.0210309
0.0205746
0.0201415
0.019732
0.0193419
0.0152792
0.0148949
0.0145489
0.0142384
0.0139359
0.013644
0.01336
0.00589272
0.00571887
0.00554738
0.00540538
0.00516072
0.00503738
0.00486798
0.00440848
0.00425653
0.00413087
0.00401572
0.00385959
0.00372573
0.00419205
0.00403999
0.00389254
0.00375263
0.003593
0.00348371
0.00422287
0.00405886
0.00390473
0.00376049
0.00359865
0.00350016
0.004242
0.00407619
0.00392046
0.00377506
0.00360425
0.00354121
0.00421192
0.00405084
0.0038999
0.00375009
0.00360612
0.00419503
0.00403993
0.00389254
0.00375143
0.00359023
0.0034988
0.00452505
0.00433816
0.0042179
0.00411728
0.00392384
0.00382891
0.00646207
0.00624003
0.00606581
0.00594167
0.00571588
0.00559416
0.0165588
0.0161501
0.0157583
0.0153868
0.0150482
0.0147203
0.0138176
0.0134744
0.0131432
0.0128295
0.0125091
0.0122442
0.0054977
0.00533139
0.00517627
0.0050229
0.00485675
0.00472686
0.0043354
0.00417916
0.00403752
0.0039113
0.00376864
0.00420292
0.00404327
0.0038932
0.00373748
0.00361557
0.00429791
0.00411176
0.00395452
0.00379329
0.00367733
0.00435293
0.00416047
0.00399669
0.0038337
0.00370255
0.00430038
0.00411456
0.00395697
0.00379694
0.00366394
0.00421717
0.00405136
0.0038973
0.00374367
0.00360256
0.00438237
0.00422385
0.00407871
0.00395007
0.00379623
0.00575527
0.00559039
0.0054405
0.00531343
0.00510924
0.0144028
0.0140331
0.0136799
0.0133473
0.0130404
0.0127376
0.0135868
0.0132521
0.0129372
0.0126032
0.012317
0.0119936
0.00553403
0.0053384
0.0051964
0.00503716
0.00491468
0.00472075
0.00434082
0.00418611
0.00404285
0.00390794
0.00423859
0.00407327
0.0039143
0.00376558
0.00435571
0.00416319
0.00399269
0.00384749
0.00441396
0.00421408
0.00404713
0.00387679
0.00376559
0.0043503
0.00415868
0.00399456
0.00382878
0.0036993
0.00423326
0.00406559
0.00391043
0.00375239
0.00361706
0.00432264
0.00417077
0.00402903
0.00389486
0.00376357
0.00551887
0.00532863
0.00518596
0.0050343
0.00487708
0.0135805
0.0132459
0.0129309
0.0125923
0.0123158
0.0147867
0.0144102
0.0140422
0.0136866
0.0133581
0.013049
0.00602558
0.00578266
0.0056065
0.00547476
0.005265
0.00513191
0.00457154
0.00439062
0.00423041
0.00408795
0.00395375
0.00380949
0.00440907
0.00421465
0.00404075
0.00388279
0.00371945
0.0036127
0.00451558
0.0042996
0.00411059
0.00394208
0.00377157
0.00366353
0.00436019
0.00416466
0.0039954
0.00382571
0.00369552
0.00429772
0.00411126
0.00395245
0.0037889
0.00365624
0.00420511
0.00404165
0.00388891
0.00373321
0.00359485
0.00431907
0.0041722
0.00403131
0.00390532
0.0037438
0.00544619
0.00531037
0.00516584
0.00501839
0.00483924
0.0138133
0.0134698
0.0131464
0.0128046
0.0125267
0.0169803
0.0165667
0.0161585
0.0157652
0.015401
0.0150582
0.00670398
0.00642477
0.00629265
0.00605774
0.00592614
0.00569739
0.00473936
0.00451114
0.00436547
0.0042382
0.0040608
0.00392427
0.00438016
0.00419012
0.00402344
0.0038694
0.00371185
0.00356777
0.00439911
0.00420059
0.00402412
0.00386469
0.00370586
0.00357038
0.00423802
0.00405621
0.00389822
0.00373871
0.00360295
0.00421347
0.00404464
0.00388869
0.00373062
0.00359009
0.00418947
0.00403125
0.00388191
0.00373554
0.00358187
0.00439188
0.00427391
0.00413867
0.00403815
0.00378895
0.00583904
0.00570193
0.00553777
0.00539182
0.00515474
0.0152769
0.0148932
0.0145473
0.0142351
0.0139319
0.0220031
0.0215158
0.0210425
0.0205891
0.0201592
0.019752
0.00815121
0.00789274
0.00767753
0.00750819
0.00725511
0.00707579
0.00524638
0.00502859
0.00485345
0.00473413
0.00451351
0.00438384
0.00462709
0.00442686
0.00427232
0.00415454
0.00395219
0.00382103
0.00450504
0.00433062
0.00416869
0.00402143
0.0038927
0.00372583
0.00433317
0.00417484
0.00402712
0.0038907
0.00374933
0.00438043
0.00421818
0.00407132
0.00394313
0.00378193
0.00451557
0.00433241
0.00421041
0.00411052
0.00388328
0.00500013
0.00487062
0.00470859
0.00459032
0.00435049
0.00706647
0.0069024
0.00670955
0.00653933
0.00633512
0.0191034
0.018693
0.0183023
0.0179344
0.017587
0.0330024
0.03236
0.031742
0.031151
0.0305867
0.030045
0.0122968
0.0120128
0.0117572
0.0114949
0.0112153
0.0110567
0.00737169
0.00713101
0.00692256
0.00675773
0.00649655
0.00635806
0.00613712
0.00589187
0.00571512
0.00556067
0.00532294
0.00517051
0.00572308
0.00551177
0.00533389
0.00516647
0.00500653
0.00483753
0.00550003
0.00533841
0.00518205
0.00503535
0.00486433
0.00576033
0.00559086
0.00543506
0.00530799
0.0050996
0.00645771
0.00623385
0.00605967
0.00593442
0.005696
0.00787697
0.0076604
0.00749702
0.00726836
0.00707359
0.0119835
0.0117175
0.0114892
0.011211
0.011048
0.0298212
0.0292582
0.0287266
0.0282249
0.0277418
0.089351
0.0877785
0.0862614
0.0848078
0.0833733
0.082036
0.030422
0.0298341
0.0292768
0.0287525
0.0282502
0.0277686
0.0195497
0.0191161
0.0187053
0.018321
0.0157117
0.0152935
0.014909
0.0145676
0.0142576
0.0141942
0.0138299
0.0134851
0.0131638
0.0128267
0.0135936
0.0132601
0.0129399
0.0126321
0.0122893
0.014414
0.0140437
0.0136959
0.0133644
0.0130515
0.016569
0.0161632
0.0157723
0.0154046
0.0150647
0.0215182
0.0210475
0.0205946
0.0201629
0.0197552
0.0323597
0.0317389
0.0311461
0.0305808
0.0300392
0.0877285
0.0862167
0.0847683
0.0833425
0.0819917
)
;

boundaryField
{
    inlet
    {
        type            fixedValue;
        value           nonuniform List<scalar> 0();
    }
    ami1
    {
        type            cyclicAMI;
        value           nonuniform List<scalar> 0();
    }
    walls
    {
        type            epsilonWallFunction;
        blending        stepwise;
        value           nonuniform List<scalar> 
250
(
0.0876577
0.0323292
0.0214931
0.0165444
0.0143883
0.0135694
0.0138042
0.0152667
0.0190877
0.0297919
0.0876407
0.0861494
0.0317079
0.0210206
0.0161365
0.0140189
0.0132347
0.0134597
0.0148814
0.0186752
0.0292275
0.0861305
0.0846911
0.0311124
0.0205644
0.0157454
0.013666
0.0129189
0.0131345
0.0145338
0.0182826
0.0286945
0.08467
0.0832809
0.0305463
0.020131
0.0153739
0.0133352
0.0125801
0.0127914
0.0142204
0.0179137
0.0281921
0.08326
0.0818978
0.0300024
0.019721
0.0150361
0.013028
0.0123032
0.01251
0.0139167
0.0175655
0.0277105
0.0818775
0.0147081
0.0127236
0.0119732
0.0122174
0.0136231
0.0172276
0.0272509
0.0805669
0.0117298
0.0119683
0.0133386
0.0168903
0.0876407
0.0323323
0.0215033
0.0165588
0.0144028
0.0135805
0.0138133
0.0152769
0.0191034
0.0298212
0.0877285
0.0861305
0.03171
0.0210309
0.0161501
0.0140331
0.0132459
0.0134698
0.0148932
0.018693
0.0292582
0.0862167
0.08467
0.0311141
0.0205746
0.0157583
0.0136799
0.0129309
0.0131464
0.0145473
0.0183023
0.0287266
0.0847683
0.08326
0.0305473
0.0201415
0.0153868
0.0133473
0.0125923
0.0128046
0.0142351
0.0179344
0.0282249
0.0833425
0.0818775
0.0300057
0.019732
0.0150482
0.0130404
0.0123158
0.0125267
0.0139319
0.017587
0.0277418
0.0819917
0.0805669
0.0294904
0.0193419
0.0147203
0.0127376
0.089351
0.030422
0.0195497
0.0157117
0.0141942
0.0877785
0.0298341
0.0191161
0.0152935
0.0138299
0.0135936
0.014414
0.016569
0.0215182
0.0323597
0.0877285
0.0862614
0.0292768
0.0187053
0.014909
0.0134851
0.0132601
0.0140437
0.0161632
0.0210475
0.0317389
0.0862167
0.0848078
0.0287525
0.018321
0.0145676
0.0131638
0.0129399
0.0136959
0.0157723
0.0205946
0.0311461
0.0847683
0.0833733
0.0282502
0.0142576
0.0128267
0.0126321
0.0133644
0.0154046
0.0201629
0.0305808
0.0833425
0.082036
0.0277686
0.0122893
0.0130515
0.0150647
0.0197552
0.0300392
0.0819917
0.0147867
0.0169803
0.0220031
0.0330024
0.089351
0.0876577
0.0298033
0.0190955
0.0152792
0.0138176
0.0135868
0.0144102
0.0165667
0.0215158
0.03236
0.0877785
0.0861494
0.029242
0.0186859
0.0148949
0.0134744
0.0132521
0.0140422
0.0161585
0.0210425
0.031742
0.0862614
0.0846911
0.0287113
0.0182965
0.0145489
0.0131432
0.0129372
0.0136866
0.0157652
0.0205891
0.031151
0.0848078
0.0832809
0.0282122
0.0179306
0.0142384
0.0128295
0.0126032
0.0133581
0.015401
0.0201592
0.0305867
0.0833733
0.0818978
0.0277279
0.0175848
0.0139359
0.0125091
0.012317
0.013049
0.0150582
0.019752
0.030045
0.082036
0.027272
0.0172488
0.013644
0.0122442
0.0119936
0.0169107
0.01336
)
;
    }
    ami2
    {
        type            cyclicAMI;
        value           nonuniform List<scalar> 0();
    }
    outlet
    {
        type            zeroGradient;
    }
    procBoundary5to6
    {
        type            processor;
        value           nonuniform List<scalar> 
177
(
0.0805775
0.0805775
0.0294868
0.0193304
0.0193304
0.0193304
0.0144048
0.0124445
0.0124445
0.0114752
0.00466837
0.0117202
0.00462682
0.0130601
0.0165696
0.0268118
0.0268118
0.0268118
0.0793655
0.0268198
0.0106158
0.0268198
0.0106158
0.0106158
0.0106158
0.00671079
0.00548812
0.00491434
0.00466837
0.00462682
0.00462682
0.00476294
0.00368538
0.00576905
0.00420611
0.0101856
0.0289997
0.0289997
0.0165878
0.00593912
0.00593912
0.00593912
0.0041973
0.00377584
0.00367444
0.00364891
0.0036448
0.00362129
0.00368538
0.00420611
0.00420611
0.00656479
0.0189694
0.00550452
0.0189694
0.0130811
0.0119846
0.0047861
0.00369572
0.00463662
0.00369572
0.00372805
0.00350591
0.0036263
0.0035308
0.00369683
0.0035778
0.00362129
0.0037272
0.00362129
0.00362129
0.00350747
0.00361636
0.00380214
0.00376197
0.00550452
0.00502301
0.0144122
0.0119846
0.00463662
0.00372805
0.00372805
0.0038652
0.0036263
0.00377597
0.00369683
0.00386222
0.0037272
0.00368329
0.00361636
0.00376197
0.00502301
0.00502301
0.0124508
0.0119741
0.0117597
0.012745
0.0038652
0.00464719
0.00376482
0.00505076
0.0038652
0.0038652
0.00377597
0.00377597
0.00386222
0.00386222
0.00386222
0.00378568
0.00372144
0.00363396
0.00372341
0.0047675
0.0119741
0.012745
0.00505076
0.00376064
0.00362632
0.00367883
0.00371738
0.0036777
0.00361242
0.0037133
0.00473438
0.01222
0.0147355
0.00559844
0.00388178
0.00357395
0.00358446
0.00362019
0.00360714
0.00359408
0.00377479
0.00502435
0.0136334
0.0193656
0.00687065
0.00431265
0.00377923
0.00368532
0.00371057
0.00374943
0.00386472
0.00429603
0.00610229
0.0172491
0.0295352
0.0106457
0.0179567
0.00610674
0.0176139
0.00501396
0.0139547
0.00472075
0.01255
0.00475792
0.00501238
0.00559313
0.006865
0.0106325
0.027287
0.0807718
0.0179567
0.0273174
0.0176139
0.0179567
0.0179567
0.0139547
0.01255
0.01255
0.012055
0.0127603
0.014741
0.0193684
0.02953
0.0807273
)
;
    }
    procBoundary5to7
    {
        type            processor;
        value           nonuniform List<scalar> 
131
(
0.0892682
0.0329766
0.021984
0.0169654
0.0147722
0.0139331
0.0141758
0.0156865
0.0195253
0.030389
0.0892597
0.030396
0.0123755
0.00815083
0.00662244
0.0059775
0.00570066
0.00571211
0.0061179
0.00739602
0.0123745
0.0329819
0.0195307
0.007401
0.00521258
0.00469436
0.0045326
0.00442807
0.00446034
0.00462248
0.00522247
0.0081587
0.0219947
0.0156998
0.00609455
0.0046274
0.00432964
0.00435907
0.00438139
0.00434829
0.00433107
0.00470093
0.00662948
0.0169798
0.0141893
0.00570668
0.00444862
0.00433939
0.00446248
0.00452624
0.00446618
0.00435572
0.00452862
0.0059831
0.0147871
0.0139498
0.0139498
0.00568745
0.00568745
0.00443495
0.00443495
0.0043748
0.0043748
0.00452514
0.00452514
0.0045945
0.00452422
0.00437484
0.00442011
0.00569292
0.0139453
0.0152006
0.00614835
0.00470197
0.00458924
0.00471758
0.00453093
0.00453093
0.00446357
0.0043444
0.00445342
0.00570797
0.0141851
0.0174296
0.00685224
0.00490805
0.00455227
0.0045788
0.00438585
0.00438585
0.00435444
0.00433051
0.00461871
0.0061118
0.0156969
0.0225153
0.00837219
0.00538862
0.00482002
0.00462512
0.00443565
0.00443565
0.00452013
0.00470148
0.0052141
0.00739297
0.0195406
0.0336744
0.0127011
0.00758552
0.00632544
0.00591037
0.00570685
0.00570685
0.0059772
0.00662077
0.00815368
0.0123746
0.0304175
0.0910159
0.0310455
0.0200164
0.016137
0.0145851
0.0139562
0.0139562
0.0147971
0.0169885
0.0220074
0.0330071
0.0893396
)
;
    }
}


// ************************************************************************* //
