/*--------------------------------*- C++ -*----------------------------------*\
| =========                 |                                                 |
| \\      /  F ield         | OpenFOAM: The Open Source CFD Toolbox           |
|  \\    /   O peration     | Version:  2212                                  |
|   \\  /    A nd           | Website:  www.openfoam.com                      |
|    \\/     M anipulation  |                                                 |
\*---------------------------------------------------------------------------*/
FoamFile
{
    version     2.0;
    format      ascii;
    arch        "LSB;label=32;scalar=64";
    class       volScalarField;
    location    "0.4";
    object      k;
}
// * * * * * * * * * * * * * * * * * * * * * * * * * * * * * * * * * * * * * //

dimensions      [0 2 -2 0 0 0 0];

internalField   nonuniform List<scalar> 
680
(
0.00851785
0.00749594
0.00670301
0.00607518
0.00557098
0.00515996
0.00481356
0.0143747
0.0120276
0.0102477
0.00886876
0.00778388
0.00691844
0.0062259
0.0168054
0.0140633
0.0119702
0.0103288
0.00902187
0.00797854
0.00714283
0.0190881
0.0159505
0.0135453
0.0116789
0.0101865
0.00898563
0.00801395
0.0202305
0.0169216
0.0143536
0.0123628
0.0107775
0.00950041
0.00846508
0.0202307
0.0169219
0.014354
0.0123635
0.0107785
0.00950181
0.00846713
0.0190885
0.0159512
0.0135463
0.0116803
0.0101885
0.00898867
0.0168058
0.0140638
0.0119712
0.0103302
0.00902386
0.00798149
0.0143748
0.0120278
0.010248
0.00886921
0.00778458
0.00691967
0.00851786
0.00749594
0.006703
0.0060752
0.00557099
0.00515997
0.0143748
0.0120277
0.010248
0.0088692
0.00778457
0.00691966
0.00622787
0.0319398
0.0261422
0.0217648
0.0183963
0.0157652
0.0136889
0.0120387
0.0391665
0.0321022
0.0267432
0.022602
0.0193544
0.0167784
0.0147182
0.0440087
0.0361422
0.0301448
0.0254915
0.0218283
0.0189116
0.016569
0.046445
0.0381953
0.0318857
0.0269782
0.023107
0.0200187
0.0175333
0.0464454
0.0381958
0.0318865
0.0269793
0.0231086
0.0200209
0.0175364
0.0440095
0.0361433
0.0301463
0.0254937
0.0218315
0.0189161
0.0391671
0.032103
0.0267444
0.0226037
0.0193568
0.0167819
0.0319398
0.0261422
0.0217649
0.0183963
0.0157652
0.0136889
0.0143747
0.0120276
0.0102477
0.00886876
0.00778388
0.00691843
0.0168058
0.0140638
0.0119712
0.0103302
0.00902384
0.00798147
0.00714724
0.0391671
0.032103
0.0267444
0.0226036
0.0193568
0.0167818
0.0147233
0.0514054
0.0422631
0.0352489
0.0297862
0.0254772
0.0220427
0.0192829
0.0586085
0.0484386
0.0405399
0.0343296
0.0293937
0.0254348
0.0222362
0.0619821
0.0514008
0.0431251
0.0365814
0.031356
0.0271482
0.0237368
0.0619824
0.0514011
0.0431256
0.0365821
0.0313569
0.0271495
0.0237385
0.0586089
0.0484392
0.0405407
0.0343307
0.0293953
0.025437
0.0514055
0.0422631
0.0352489
0.0297862
0.0254773
0.0220428
0.0391665
0.0321022
0.0267432
0.022602
0.0193544
0.0167784
0.0168054
0.0140633
0.0119702
0.0103288
0.00902186
0.00797852
0.0190885
0.0159512
0.0135463
0.0116803
0.0101885
0.00898864
0.00801845
0.0440094
0.0361433
0.0301463
0.0254937
0.0218315
0.0189161
0.0165755
0.0586089
0.0484392
0.0405406
0.0343307
0.0293952
0.0254367
0.022239
0.0670043
0.0558212
0.0469839
0.0399388
0.0342769
0.0296949
0.0259655
0.0707696
0.059245
0.050052
0.0426644
0.036687
0.0318221
0.0278433
0.0707697
0.0592451
0.0500522
0.0426646
0.0366874
0.0318226
0.027844
0.0670043
0.0558213
0.046984
0.0399389
0.0342771
0.0296953
0.0586085
0.0484387
0.0405399
0.0343297
0.0293939
0.025435
0.0440087
0.0361422
0.0301448
0.0254915
0.0218284
0.0189116
0.0190881
0.0159505
0.0135453
0.0116789
0.0101865
0.00898561
0.0202307
0.0169219
0.014354
0.0123635
0.0107785
0.00950181
0.00846716
0.0464454
0.0381958
0.0318865
0.0269793
0.0231085
0.0200208
0.0175364
0.0619824
0.0514011
0.0431256
0.036582
0.0313568
0.0271493
0.0237384
0.0707697
0.0592451
0.0500522
0.0426645
0.0366872
0.0318224
0.0278437
0.0746315
0.0628258
0.0533107
0.0455943
0.039302
0.0341467
0.0299069
0.0746315
0.0628258
0.0533108
0.0455943
0.0393021
0.0341469
0.0299071
0.0707696
0.059245
0.0500521
0.0426645
0.0366873
0.0318226
0.0619822
0.0514008
0.0431252
0.0365815
0.0313562
0.0271484
0.046445
0.0381953
0.0318857
0.0269783
0.0231071
0.0200187
0.0202305
0.0169216
0.0143536
0.0123628
0.0107775
0.0095004
0.0202305
0.0169216
0.0143536
0.0123628
0.0107775
0.00950041
0.00846509
0.046445
0.0381952
0.0318857
0.0269782
0.023107
0.0200186
0.0175333
0.0619821
0.0514008
0.0431251
0.0365814
0.031356
0.0271481
0.0237367
0.0707696
0.059245
0.050052
0.0426643
0.036687
0.0318221
0.0278433
0.0746315
0.0628258
0.0533107
0.0455943
0.039302
0.0341467
0.0299069
0.0746315
0.0628258
0.0533108
0.0455943
0.0393021
0.0341469
0.0299071
0.0707697
0.0592451
0.0500522
0.0426647
0.0366875
0.0318229
0.0619824
0.0514011
0.0431256
0.0365821
0.031357
0.0271496
0.0464454
0.0381958
0.0318865
0.0269793
0.0231086
0.0200209
0.0202307
0.0169219
0.014354
0.0123635
0.0107785
0.00950181
0.0190881
0.0159505
0.0135453
0.0116789
0.0101865
0.00898563
0.00801395
0.0440087
0.0361422
0.0301448
0.0254915
0.0218283
0.0189116
0.016569
0.0586085
0.0484386
0.0405399
0.0343296
0.0293937
0.0254348
0.0222362
0.0670043
0.0558212
0.0469839
0.0399388
0.0342769
0.0296949
0.0259655
0.0707697
0.0592451
0.0500522
0.0426646
0.0366873
0.0318225
0.0278438
0.0853306
0.0707696
0.059245
0.0500521
0.0426644
0.0366871
0.0318223
0.0278435
0.0812851
0.0670043
0.0558213
0.046984
0.0399389
0.0342772
0.0296953
0.0718753
0.0586089
0.0484392
0.0405407
0.0343307
0.0293953
0.0254369
0.054544
0.0440095
0.0361433
0.0301463
0.0254938
0.0218316
0.0189162
0.0232774
0.0190886
0.0159512
0.0135463
0.0116803
0.0101885
0.00898865
0.0168054
0.0140633
0.0119702
0.0103288
0.00902187
0.00797854
0.00714283
0.0391665
0.0321022
0.0267432
0.022602
0.0193544
0.0167784
0.0147182
0.0514055
0.0422631
0.0352489
0.0297862
0.0254772
0.0220427
0.0192829
0.0586089
0.0484392
0.0405406
0.0343307
0.0293952
0.0254368
0.022239
0.0619824
0.0514011
0.0431256
0.0365821
0.0313569
0.0271494
0.0237384
0.0756689
0.0619821
0.0514008
0.0431251
0.0365815
0.0313561
0.0271483
0.0237369
0.071875
0.0586085
0.0484386
0.0405399
0.0343297
0.0293939
0.025435
0.0635229
0.0514055
0.0422631
0.0352489
0.0297863
0.0254773
0.0220428
0.0486909
0.0391671
0.032103
0.0267444
0.0226037
0.0193568
0.0167819
0.0204653
0.0168058
0.0140639
0.0119713
0.0103302
0.00902387
0.00798148
0.0143747
0.0120276
0.0102477
0.00886876
0.00778388
0.00691844
0.00622591
0.0319398
0.0261422
0.0217649
0.0183963
0.0157652
0.0136889
0.0120387
0.0391671
0.032103
0.0267444
0.0226037
0.0193568
0.0167819
0.0147233
0.0440095
0.0361433
0.0301463
0.0254937
0.0218315
0.0189161
0.0165755
0.0464454
0.0381958
0.0318865
0.0269793
0.0231086
0.0200209
0.0175364
0.0574534
0.046445
0.0381953
0.0318857
0.0269783
0.0231071
0.0200187
0.0175333
0.0545435
0.0440087
0.0361422
0.0301448
0.0254915
0.0218284
0.0189116
0.0486904
0.0391665
0.0321022
0.0267432
0.022602
0.0193545
0.0167785
0.0398093
0.0319398
0.0261422
0.0217649
0.0183963
0.0157652
0.0136889
0.0175421
0.0143748
0.0120278
0.010248
0.00886922
0.0077846
0.00691968
0.00851785
0.00749594
0.00670301
0.00607518
0.00557098
0.00515997
0.00481357
0.0143748
0.0120277
0.010248
0.00886921
0.00778458
0.00691967
0.00622787
0.0168058
0.0140638
0.0119712
0.0103302
0.00902386
0.00798148
0.00714725
0.0190885
0.0159512
0.0135463
0.0116803
0.0101885
0.00898865
0.00801846
0.0202307
0.0169219
0.014354
0.0123635
0.0107785
0.00950183
0.00846717
0.0246499
0.0202305
0.0169216
0.0143536
0.0123629
0.0107776
0.00950042
0.00846506
0.0232771
0.0190881
0.0159505
0.0135453
0.0116789
0.0101865
0.00898566
0.020465
0.0168054
0.0140633
0.0119702
0.0103288
0.00902189
0.00797856
0.0175421
0.0143747
0.0120276
0.0102477
0.00886878
0.0077839
0.00691846
0.00989089
0.00851787
0.00749594
0.006703
0.00607521
0.005571
0.00515998
)
;

boundaryField
{
    inlet
    {
        type            fixedValue;
        value           nonuniform List<scalar> 0();
    }
    ami1
    {
        type            cyclicAMI;
        value           nonuniform List<scalar> 0();
    }
    walls
    {
        type            kqRWallFunction;
        value           nonuniform List<scalar> 
271
(
0.0232774
0.0204653
0.0175421
0.00989089
0.00851786
0.0143747
0.0168054
0.0190881
0.0202305
0.0202307
0.0190886
0.0168058
0.0143748
0.00851787
0.00749594
0.0120276
0.0140633
0.0159505
0.0169216
0.0169219
0.0159512
0.0140639
0.0120278
0.00749594
0.006703
0.0102477
0.0119702
0.0135453
0.0143536
0.014354
0.0135463
0.0119713
0.010248
0.006703
0.0060752
0.00886876
0.0103288
0.0116789
0.0123628
0.0123635
0.0116803
0.0103302
0.00886922
0.00607521
0.00557099
0.00778388
0.00902186
0.0101865
0.0107775
0.0107785
0.0101885
0.00902387
0.0077846
0.005571
0.00515997
0.00691843
0.00797852
0.00898561
0.0095004
0.00950181
0.00898865
0.00798148
0.00691968
0.00515998
0.00851785
0.0143747
0.0168054
0.0190881
0.0202305
0.0202307
0.0190885
0.0168058
0.0143748
0.00851786
0.00749594
0.0120276
0.0140633
0.0159505
0.0169216
0.0169219
0.0159512
0.0140638
0.0120278
0.00749594
0.00670301
0.0102477
0.0119702
0.0135453
0.0143536
0.014354
0.0135463
0.0119712
0.010248
0.006703
0.00607518
0.00886876
0.0103288
0.0116789
0.0123628
0.0123635
0.0116803
0.0103302
0.00886921
0.0060752
0.00557098
0.00778388
0.00902187
0.0101865
0.0107775
0.0107785
0.0101885
0.00902386
0.00778458
0.00557099
0.00515996
0.00691844
0.00797854
0.00898563
0.00950041
0.00950181
0.00898867
0.00798149
0.00691967
0.00515997
0.00481356
0.0062259
0.00714283
0.00801395
0.00846508
0.00846713
0.00851785
0.0143748
0.0168058
0.0190885
0.0202307
0.0202305
0.0190881
0.0168054
0.0143747
0.00851785
0.00749594
0.0120277
0.0140638
0.0159512
0.0169219
0.0169216
0.0159505
0.0140633
0.0120276
0.00749594
0.00670301
0.010248
0.0119712
0.0135463
0.014354
0.0143536
0.0135453
0.0119702
0.0102477
0.00670301
0.00607518
0.0088692
0.0103302
0.0116803
0.0123635
0.0123628
0.0116789
0.0103288
0.00886876
0.00607518
0.00557098
0.00778457
0.00902384
0.0101885
0.0107785
0.0107775
0.0101865
0.00902187
0.00778388
0.00557098
0.00515996
0.00691966
0.00798147
0.00898864
0.00950181
0.00950041
0.00898563
0.00797854
0.00691844
0.00515997
0.00481356
0.00622787
0.00714724
0.00801845
0.00846716
0.00846509
0.00801395
0.00714283
0.00622591
0.00481357
0.0246499
0.0232771
0.020465
0.0175421
0.00989089
0.00851785
0.0143748
0.0168058
0.0190885
0.0202307
0.0202305
0.0190881
0.0168054
0.0143747
0.00851787
0.00749594
0.0120277
0.0140638
0.0159512
0.0169219
0.0169216
0.0159505
0.0140633
0.0120276
0.00749594
0.00670301
0.010248
0.0119712
0.0135463
0.014354
0.0143536
0.0135453
0.0119702
0.0102477
0.006703
0.00607518
0.00886921
0.0103302
0.0116803
0.0123635
0.0123629
0.0116789
0.0103288
0.00886878
0.00607521
0.00557098
0.00778458
0.00902386
0.0101885
0.0107785
0.0107776
0.0101865
0.00902189
0.0077839
0.005571
0.00515997
0.00691967
0.00798148
0.00898865
0.00950183
0.00950042
0.00898566
0.00797856
0.00691846
0.00515998
0.00481357
0.00622787
0.00714725
0.00801846
0.00846717
0.00846506
)
;
    }
    ami2
    {
        type            cyclicAMI;
        value           nonuniform List<scalar> 0();
    }
    outlet
    {
        type            zeroGradient;
    }
    procBoundary3to2
    {
        type            processor;
        value           nonuniform List<scalar> 
110
(
0.00452767
0.00566609
0.00646925
0.00722429
0.00762178
0.00762483
0.00801858
0.00801858
0.00714728
0.00622788
0.00481356
0.00567014
0.0107176
0.0130617
0.0146757
0.0155205
0.0155248
0.0165756
0.0165756
0.0147233
0.0120387
0.00622589
0.00647609
0.0130691
0.0170522
0.0196377
0.0209566
0.0209589
0.022239
0.022239
0.0192829
0.0147182
0.00714279
0.00723109
0.0146851
0.0196415
0.0229164
0.0245766
0.0245773
0.0259657
0.0259657
0.0222362
0.016569
0.00801391
0.00762488
0.0155249
0.0209588
0.0245772
0.026409
0.0264091
0.0278435
0.0278435
0.0237368
0.0175333
0.00846506
0.0076218
0.0155205
0.0209566
0.0245766
0.026409
0.0264091
0.0278439
0.0278439
0.0237384
0.0175364
0.00846714
0.0072243
0.0146758
0.0196377
0.0229164
0.0245772
0.0245767
0.0259656
0.0259656
0.022239
0.0165754
0.00801844
0.00646926
0.0130617
0.0170523
0.0196415
0.0209588
0.0209566
0.0222362
0.0222362
0.0192829
0.0147232
0.00714723
0.0056661
0.0107176
0.0130691
0.0146851
0.0155249
0.0155205
0.0165691
0.0165691
0.0147183
0.0120387
0.00622788
0.00452768
0.00567015
0.0064761
0.0072311
0.00762488
0.00762176
0.00801408
0.00801408
0.00714287
0.00622593
0.00481357
)
;
    }
    procBoundary3to4
    {
        type            processor;
        value           nonuniform List<scalar> 
109
(
0.00989089
0.0175421
0.020465
0.0232771
0.0246499
0.0246501
0.0232774
0.0204653
0.0175421
0.00989089
0.0175421
0.0398092
0.0486904
0.0545434
0.0574534
0.0574537
0.054544
0.0486908
0.0398092
0.0175421
0.0204652
0.0486908
0.0635228
0.0718749
0.0756689
0.075669
0.0718752
0.0635228
0.0486904
0.020465
0.0232774
0.054544
0.0718752
0.081285
0.0853305
0.0853306
0.081285
0.071875
0.0545434
0.0232771
0.0246501
0.0574537
0.075669
0.0853306
0.08938
0.0893801
0.0853305
0.0756689
0.0574534
0.0246499
0.0246499
0.0574534
0.0756689
0.0853305
0.0893801
0.0893801
0.0893801
0.0853306
0.0853306
0.0756691
0.0756691
0.0574537
0.0574537
0.0246501
0.0246501
0.0232771
0.0545434
0.071875
0.0812851
0.0853306
0.0853306
0.103876
0.0996855
0.0894099
0.0689994
0.0292895
0.020465
0.0486904
0.0635228
0.0718752
0.0756691
0.0756691
0.0935766
0.0894097
0.0798729
0.0618792
0.0256635
0.0175421
0.0398092
0.0486908
0.054544
0.0574537
0.0574537
0.0724887
0.068999
0.0618789
0.0508184
0.0219962
0.00989089
0.0175421
0.0204653
0.0232774
0.0246501
0.0246501
0.031074
0.0292893
0.0256633
0.0219961
0.011852
)
;
    }
}


// ************************************************************************* //
