/*--------------------------------*- C++ -*----------------------------------*\
| =========                 |                                                 |
| \\      /  F ield         | OpenFOAM: The Open Source CFD Toolbox           |
|  \\    /   O peration     | Version:  2212                                  |
|   \\  /    A nd           | Website:  www.openfoam.com                      |
|    \\/     M anipulation  |                                                 |
\*---------------------------------------------------------------------------*/
FoamFile
{
    version     2.0;
    format      ascii;
    arch        "LSB;label=32;scalar=64";
    class       volVectorField;
    location    "1.9";
    object      U;
}
// * * * * * * * * * * * * * * * * * * * * * * * * * * * * * * * * * * * * * //

dimensions      [0 1 -1 0 0 0 0];

internalField   nonuniform List<vector> 
682
(
(0.0806784 -0.00133169 -0.000519135)
(0.0798913 -0.00133486 -0.000534124)
(0.0790941 -0.00133329 -0.00053885)
(0.0782911 -0.00132752 -0.000535656)
(0.0774865 -0.00131802 -0.000526959)
(0.0766842 -0.00130506 -0.000514678)
(0.075888 -0.00128853 -0.000500127)
(0.0751005 -0.00126906 -0.00048459)
(0.0743244 -0.00124774 -0.000469278)
(0.0735599 -0.00122552 -0.00045561)
(0.0728097 -0.00120208 -0.00044592)
(0.076409 -0.00116575 -0.000562203)
(0.0756489 -0.00117156 -0.00056764)
(0.0748811 -0.00116998 -0.000562313)
(0.0741121 -0.00116163 -0.000549508)
(0.0733477 -0.00114723 -0.0005328)
(0.072594 -0.00112795 -0.000515075)
(0.0718556 -0.00110459 -0.000497715)
(0.0711347 -0.00107799 -0.000480984)
(0.0704328 -0.00105013 -0.00046551)
(0.0697469 -0.00102168 -0.000450737)
(0.069082 -0.00099437 -0.000438167)
(0.0685296 -0.000922154 -0.00049114)
(0.0677918 -0.000918093 -0.000490978)
(0.0670621 -0.000897226 -0.000483498)
(0.0663546 -0.000861702 -0.000471701)
(0.0656658 -0.000820078 -0.000455518)
(0.0650061 -0.000777649 -0.000438508)
(0.0643689 -0.000737046 -0.000423583)
(0.0637578 -0.000700156 -0.000410144)
(0.0631652 -0.000668221 -0.000397421)
(0.0625889 -0.000638941 -0.000382558)
(0.0620379 -0.000613436 -0.000367524)
(0.058464 -0.000567074 -0.000386773)
(0.0577962 -0.000564101 -0.000389754)
(0.0571356 -0.000547534 -0.000384229)
(0.0564901 -0.000492258 -0.00034737)
(0.0558895 -0.000422033 -0.000302041)
(0.0552947 -0.000375156 -0.000276901)
(0.0547556 -0.000345019 -0.000263808)
(0.0542031 -0.000320741 -0.000253915)
(0.0536952 -0.000300534 -0.000247625)
(0.0531803 -0.000282787 -0.000241886)
(0.052702 -0.000266954 -0.000235188)
(0.0522247 -0.000249728 -0.000221793)
(0.0444693 -0.000155627 2.93157e-05)
(0.0439162 -0.000149431 1.81686e-05)
(0.0433602 -0.000141668 8.98667e-06)
(0.04283 -0.000135605 1.11687e-06)
(0.0422925 -0.000128544 -1.71749e-06)
(0.0417727 -0.000120673 -2.98565e-06)
(0.0412687 -0.000111958 -3.39701e-06)
(0.040782 -0.000102312 -3.00136e-06)
(0.0403158 -9.34456e-05 -4.37556e-06)
(0.0398645 -8.49428e-05 -6.0701e-06)
(0.0394295 -7.71957e-05 -8.9745e-06)
(0.0390143 -6.99863e-05 -1.25311e-05)
(0.0288725 -9.66075e-05 9.07017e-07)
(0.0284409 -9.14382e-05 1.01177e-06)
(0.0280194 -8.64332e-05 1.17829e-06)
(0.0276212 -8.3198e-05 1.96262e-06)
(0.0272349 -8.14764e-05 3.10663e-06)
(0.0268648 -7.8637e-05 2.27558e-06)
(0.0265053 -7.41725e-05 8.33182e-07)
(0.0261604 -6.90016e-05 -4.85838e-07)
(0.0258296 -6.38341e-05 -1.78665e-06)
(0.0255095 -5.89004e-05 -3.02586e-06)
(0.0251953 -5.4227e-05 -4.97139e-06)
(0.0248913 -4.97751e-05 -7.60718e-06)
(0.104978 -0.00150328 -0.000383366)
(0.104963 -0.0015044 -0.000404995)
(0.104936 -0.00150344 -0.000417163)
(0.104898 -0.00150001 -0.000421064)
(0.104851 -0.00149408 -0.000418541)
(0.104797 -0.00148569 -0.000411396)
(0.104737 -0.00147506 -0.000400877)
(0.104672 -0.00146248 -0.000388552)
(0.104605 -0.00144743 -0.000375352)
(0.104535 -0.00142918 -0.000362311)
(0.104465 -0.00140273 -0.000345874)
(0.102188 -0.00128108 -0.000411546)
(0.102182 -0.0012902 -0.00041042)
(0.102166 -0.0012925 -0.000403989)
(0.102141 -0.00128859 -0.000392696)
(0.102111 -0.00127937 -0.000379467)
(0.102075 -0.00126602 -0.000366439)
(0.102038 -0.00124963 -0.000354496)
(0.102 -0.00123099 -0.00034418)
(0.101962 -0.0012101 -0.000335524)
(0.101925 -0.00118787 -0.000329812)
(0.101888 -0.00115838 -0.000320122)
(0.0973491 -0.000920619 -0.000397384)
(0.097336 -0.000923887 -0.000381274)
(0.0973218 -0.000919209 -0.00036612)
(0.097302 -0.000905506 -0.00034922)
(0.097284 -0.000887077 -0.000335911)
(0.0972572 -0.000866157 -0.000328011)
(0.0972356 -0.000844596 -0.000324834)
(0.097206 -0.000823262 -0.000324031)
(0.0971804 -0.000800884 -0.000323761)
(0.0971472 -0.000782633 -0.000328095)
(0.0971144 -0.000754409 -0.000327214)
(0.089997 -0.000473328 -0.000431132)
(0.0898841 -0.000477915 -0.000407902)
(0.0897762 -0.000478224 -0.000394869)
(0.0896711 -0.000480137 -0.000395954)
(0.0895606 -0.000471915 -0.00039366)
(0.0894562 -0.000467441 -0.000404347)
(0.0893321 -0.000458835 -0.000413974)
(0.0892112 -0.000444549 -0.000418367)
(0.0890651 -0.000430853 -0.000424005)
(0.088932 -0.000415489 -0.000427668)
(0.088771 -0.000405373 -0.000436797)
(0.0886213 -0.000394037 -0.000444093)
(0.0764049 -0.000168896 -0.000211903)
(0.0759855 -0.000163757 -0.000185759)
(0.0755586 -0.000159488 -0.000175442)
(0.0751476 -0.000162106 -0.000185429)
(0.0747278 -0.000166098 -0.000199769)
(0.0743083 -0.000167987 -0.000215105)
(0.073893 -0.000164499 -0.000223912)
(0.0734735 -0.000156487 -0.000228092)
(0.0730529 -0.000145659 -0.000227355)
(0.0726343 -0.000134003 -0.000225544)
(0.0722096 -0.000127116 -0.000230764)
(0.071782 -0.00012861 -0.000249156)
(0.0473967 -0.000171816 -0.000374348)
(0.0467748 -0.000164314 -0.000356363)
(0.0461637 -0.000155555 -0.000343304)
(0.0455976 -0.000146919 -0.000333732)
(0.0450463 -0.000138059 -0.000326281)
(0.0445241 -0.000126736 -0.000320436)
(0.0440142 -0.000113557 -0.000313989)
(0.043528 -0.000100775 -0.00030633)
(0.0430527 -9.13696e-05 -0.000300218)
(0.0425873 -8.65009e-05 -0.000296136)
(0.0421189 -8.27174e-05 -0.000290296)
(0.0416626 -7.66005e-05 -0.000275563)
(0.114294 -0.00140732 -0.000367914)
(0.114597 -0.00140492 -0.000378655)
(0.114893 -0.00140171 -0.000384548)
(0.115183 -0.00139748 -0.000386321)
(0.115468 -0.00139214 -0.000385002)
(0.115749 -0.00138572 -0.000381447)
(0.116026 -0.00137823 -0.000376192)
(0.1163 -0.00136965 -0.000369974)
(0.116571 -0.00135964 -0.000363148)
(0.116839 -0.00134953 -0.000356486)
(0.117105 -0.00133543 -0.000348158)
(0.112604 -0.00115532 -0.000545594)
(0.112905 -0.00116222 -0.000534119)
(0.113202 -0.00116442 -0.00052313)
(0.113495 -0.00116227 -0.000512661)
(0.113785 -0.00115661 -0.000503355)
(0.114072 -0.00114838 -0.000494977)
(0.114358 -0.00113816 -0.000487109)
(0.114642 -0.00112633 -0.000480748)
(0.114924 -0.00111281 -0.000476338)
(0.115206 -0.00109981 -0.000475497)
(0.115486 -0.00108397 -0.000475534)
(0.109309 -0.000776085 -0.000740976)
(0.109585 -0.000779574 -0.000715457)
(0.109861 -0.000777822 -0.000696455)
(0.110138 -0.00077138 -0.000682475)
(0.110415 -0.000762618 -0.000674661)
(0.110692 -0.000752004 -0.000670421)
(0.110968 -0.000739017 -0.000666659)
(0.111245 -0.000725514 -0.000665134)
(0.111517 -0.000711476 -0.000666128)
(0.111791 -0.000699841 -0.000672053)
(0.112058 -0.000690755 -0.000683338)
(0.103764 -0.000356632 -0.00102913)
(0.103918 -0.000357728 -0.000988667)
(0.104089 -0.000355243 -0.000961428)
(0.104262 -0.000348445 -0.000944151)
(0.104442 -0.00033966 -0.000936416)
(0.10462 -0.000332276 -0.000938168)
(0.104795 -0.000321515 -0.000936938)
(0.104972 -0.000305195 -0.000928785)
(0.10515 -0.000294296 -0.00093032)
(0.105318 -0.000285712 -0.000934895)
(0.105483 -0.000282194 -0.000945408)
(0.105635 -0.000281283 -0.000955956)
(0.0933043 -5.57719e-05 -0.000989758)
(0.0931221 -5.01804e-05 -0.000953264)
(0.0929734 -4.11301e-05 -0.000926525)
(0.09282 -3.04282e-05 -0.000908027)
(0.0926853 -1.76265e-05 -0.000891774)
(0.092542 -4.94374e-06 -0.00087997)
(0.0924071 8.30483e-06 -0.000868442)
(0.0922563 2.01952e-05 -0.000858815)
(0.0920968 3.01408e-05 -0.000851488)
(0.0919347 3.59653e-05 -0.00084805)
(0.0917586 3.85377e-05 -0.000843692)
(0.0915774 3.68266e-05 -0.000838607)
(0.0648977 2.09191e-05 -0.000964791)
(0.0641646 3.41537e-05 -0.000932828)
(0.0634353 4.86701e-05 -0.000907246)
(0.0627623 6.4629e-05 -0.000883542)
(0.0620786 8.12709e-05 -0.000861926)
(0.0614332 9.76763e-05 -0.000841673)
(0.0607728 0.000111464 -0.000822145)
(0.0601438 0.000121017 -0.000802542)
(0.0594945 0.000123945 -0.00078785)
(0.0588719 0.000120636 -0.00077739)
(0.0582249 0.000115609 -0.000752911)
(0.0576138 0.000113805 -0.000688195)
(0.118933 -0.000949473 -0.0002875)
(0.11937 -0.000941198 -0.000287535)
(0.119802 -0.000933436 -0.000286617)
(0.120229 -0.00092597 -0.000284958)
(0.12065 -0.000918669 -0.000282753)
(0.121068 -0.000911411 -0.000280195)
(0.121482 -0.000904081 -0.000277402)
(0.121893 -0.000896627 -0.000274563)
(0.1223 -0.00088896 -0.000271793)
(0.122705 -0.000881667 -0.000269409)
(0.123106 -0.00087297 -0.000266684)
(0.1179 -0.000711924 -0.000622947)
(0.118326 -0.000708984 -0.000606715)
(0.118748 -0.000704673 -0.000592661)
(0.119165 -0.000699138 -0.000580785)
(0.119579 -0.000692635 -0.000571007)
(0.11999 -0.000685349 -0.000562921)
(0.120398 -0.000677379 -0.000556074)
(0.120803 -0.000668951 -0.000550793)
(0.121206 -0.000660304 -0.000547321)
(0.121607 -0.000652364 -0.000546512)
(0.122005 -0.000643717 -0.000546399)
(0.115382 -0.000373561 -0.000973776)
(0.115759 -0.000365816 -0.000944121)
(0.116135 -0.00035759 -0.00092106)
(0.116511 -0.000349 -0.000903668)
(0.116886 -0.000340632 -0.00089119)
(0.117259 -0.000332267 -0.000882027)
(0.117631 -0.000323642 -0.000874598)
(0.118001 -0.000315513 -0.000870027)
(0.118368 -0.000308415 -0.000868178)
(0.118734 -0.000303899 -0.000870569)
(0.119096 -0.000300253 -0.000873599)
(0.110644 -3.61826e-05 -0.00139157)
(0.110886 -1.49584e-05 -0.00134737)
(0.111132 3.23015e-06 -0.00131473)
(0.111382 1.85367e-05 -0.00129123)
(0.111636 3.14398e-05 -0.0012745)
(0.11189 4.1056e-05 -0.00126352)
(0.112144 4.83405e-05 -0.00125648)
(0.112395 5.48706e-05 -0.00125039)
(0.112646 5.95378e-05 -0.00124718)
(0.112887 6.17879e-05 -0.00124544)
(0.11313 5.9084e-05 -0.00125127)
(0.113357 5.47588e-05 -0.00125096)
(0.101664 0.00019561 -0.00141371)
(0.101559 0.000231018 -0.00136474)
(0.101472 0.000259964 -0.00133031)
(0.101385 0.000281889 -0.00130565)
(0.101306 0.000297745 -0.00128667)
(0.101222 0.000308436 -0.00126902)
(0.10114 0.000313755 -0.00125911)
(0.101045 0.000314899 -0.00124714)
(0.100952 0.000312487 -0.00124508)
(0.100838 0.000307535 -0.00123948)
(0.100726 0.000300388 -0.0012288)
(0.100599 0.000290597 -0.00120945)
(0.0763578 0.000284351 -0.0012551)
(0.0754759 0.000314145 -0.00121847)
(0.0746201 0.000335083 -0.00119164)
(0.0737844 0.000348632 -0.00117073)
(0.0729582 0.000355939 -0.00115388)
(0.0721401 0.000358555 -0.00113962)
(0.0713216 0.000357179 -0.00112468)
(0.0705158 0.00035222 -0.00110916)
(0.0697012 0.000345147 -0.00109367)
(0.0689144 0.000337152 -0.00107779)
(0.0681183 0.000328153 -0.00105877)
(0.0673577 0.000316037 -0.00103362)
(0.120531 -0.000281665 -0.00061043)
(0.121013 -0.000277765 -0.000597871)
(0.121488 -0.000273816 -0.000586892)
(0.121958 -0.000269879 -0.000577458)
(0.122424 -0.000266028 -0.000569466)
(0.122885 -0.000262285 -0.000562744)
(0.123342 -0.000258659 -0.000557101)
(0.123795 -0.000255248 -0.000552522)
(0.124244 -0.000252187 -0.000548987)
(0.124691 -0.00024975 -0.000546801)
(0.125134 -0.000247381 -0.000544909)
(0.118271 -4.72291e-05 -0.00105587)
(0.118693 -3.85441e-05 -0.00103542)
(0.119111 -3.10956e-05 -0.00101873)
(0.119525 -2.48934e-05 -0.00100518)
(0.119935 -1.99676e-05 -0.000994193)
(0.120343 -1.60759e-05 -0.000985186)
(0.120747 -1.29857e-05 -0.000977564)
(0.121148 -1.09456e-05 -0.000971315)
(0.121545 -1.02383e-05 -0.000966011)
(0.12194 -1.11622e-05 -0.000962333)
(0.122331 -1.29325e-05 -0.000958376)
(0.113682 0.000153547 -0.00151629)
(0.113969 0.000181132 -0.0014907)
(0.114253 0.000202551 -0.00147095)
(0.114534 0.000218605 -0.00145568)
(0.114812 0.000229933 -0.00144367)
(0.115087 0.000237169 -0.00143402)
(0.11536 0.000241297 -0.00142603)
(0.115628 0.000243251 -0.00141889)
(0.115893 0.000242468 -0.00141283)
(0.116153 0.00023908 -0.0014062)
(0.116411 0.000233369 -0.00140011)
(0.116664 0.000225467 -0.00139163)
(0.105129 0.000270555 -0.00157902)
(0.105089 0.000317089 -0.00154772)
(0.105044 0.000352174 -0.00152674)
(0.104994 0.00037696 -0.00151209)
(0.104938 0.00039263 -0.00150048)
(0.104877 0.000400412 -0.00149018)
(0.104809 0.000401939 -0.00148061)
(0.104734 0.000398902 -0.00147078)
(0.104654 0.000392485 -0.0014615)
(0.104565 0.000383116 -0.0014475)
(0.104475 0.000372467 -0.00142898)
(0.104381 0.0003614 -0.00141218)
(0.0815919 0.0003731 -0.00140174)
(0.0807573 0.000411771 -0.00138656)
(0.0799233 0.000436718 -0.00137416)
(0.0790895 0.000451092 -0.00136329)
(0.0782554 0.000457127 -0.00135276)
(0.077422 0.000456703 -0.00134149)
(0.0765899 0.000451884 -0.00132827)
(0.0757619 0.00044377 -0.00131323)
(0.0749374 0.000434617 -0.00129645)
(0.0741217 0.000424885 -0.00127777)
(0.0733089 0.000416404 -0.00125656)
(0.0725052 0.000411511 -0.00123225)
(0.121291 0.000159381 -0.000481298)
(0.121789 0.000156903 -0.000475173)
(0.122281 0.00015459 -0.000469448)
(0.122767 0.000152479 -0.000464081)
(0.123247 0.000150579 -0.000459055)
(0.123722 0.000148894 -0.000454351)
(0.124193 0.000147416 -0.000449936)
(0.124659 0.000146142 -0.00044582)
(0.125122 0.000145082 -0.000442023)
(0.125581 0.000144308 -0.000438738)
(0.126037 0.000143576 -0.000435236)
(0.118934 0.000284994 -0.00095036)
(0.119371 0.000284704 -0.000942431)
(0.119803 0.000283548 -0.000934954)
(0.120229 0.000281751 -0.000927638)
(0.120651 0.000279505 -0.000920384)
(0.121068 0.000276969 -0.000913124)
(0.121482 0.000274247 -0.000905766)
(0.121892 0.000271449 -0.000898317)
(0.122299 0.000268737 -0.000890674)
(0.122703 0.000266426 -0.000883324)
(0.123104 0.000263826 -0.000874459)
(0.113985 0.000349532 -0.00140843)
(0.114295 0.000364972 -0.00140704)
(0.114598 0.000375368 -0.00140504)
(0.114894 0.000380978 -0.00140215)
(0.115184 0.000382571 -0.0013981)
(0.115469 0.000381202 -0.00139283)
(0.115749 0.00037764 -0.00138643)
(0.116026 0.000372468 -0.00137888)
(0.116299 0.000366193 -0.00137031)
(0.11657 0.000359394 -0.00136029)
(0.116838 0.000352853 -0.00134998)
(0.117104 0.000344755 -0.00133573)
(0.104982 0.000349129 -0.00149612)
(0.10498 0.000381089 -0.00150001)
(0.104965 0.000402609 -0.0015023)
(0.104938 0.000414597 -0.00150204)
(0.1049 0.000418355 -0.00149901)
(0.104853 0.000415749 -0.00149335)
(0.104799 0.00040845 -0.00148519)
(0.104739 0.000397971 -0.00147467)
(0.104675 0.000385503 -0.00146221)
(0.104607 0.000372292 -0.00144726)
(0.104538 0.000359452 -0.00142918)
(0.104468 0.000343124 -0.00140289)
(0.0814593 0.000491499 -0.00131942)
(0.0806886 0.000518076 -0.00132887)
(0.0799024 0.00053267 -0.00133288)
(0.079106 0.000537242 -0.00133176)
(0.0783038 0.000534015 -0.0013263)
(0.0774999 0.000525334 -0.00131702)
(0.0766983 0.00051315 -0.00130408)
(0.0759029 0.000498649 -0.00128754)
(0.0751164 0.000483176 -0.00126785)
(0.0743415 0.000467663 -0.00124635)
(0.0735783 0.00045352 -0.00122405)
(0.0728299 0.000443252 -0.00120083)
(0.120532 0.000608612 -0.000282188)
(0.121014 0.000595747 -0.000278397)
(0.121489 0.000584523 -0.000274554)
(0.12196 0.000574898 -0.000270688)
(0.122425 0.000566753 -0.000266863)
(0.122886 0.000559887 -0.000263108)
(0.123343 0.000554086 -0.000259435)
(0.123797 0.000549302 -0.000255935)
(0.124246 0.000545557 -0.00025277)
(0.124693 0.000543218 -0.000250216)
(0.125136 0.000541222 -0.000247679)
(0.117902 0.000620972 -0.000712794)
(0.118328 0.000604271 -0.000710063)
(0.11875 0.000589891 -0.000705895)
(0.119167 0.000577815 -0.000700407)
(0.119581 0.000567944 -0.000693883)
(0.119993 0.000559826 -0.000686546)
(0.120401 0.000552982 -0.00067852)
(0.120806 0.000547568 -0.000670024)
(0.121209 0.000544031 -0.000661353)
(0.12161 0.0005432 -0.00065336)
(0.122008 0.000542976 -0.000644578)
(0.1123 0.000556436 -0.00114339)
(0.112607 0.000544084 -0.00115574)
(0.112908 0.000531936 -0.00116299)
(0.113205 0.000520493 -0.00116535)
(0.113498 0.000509803 -0.00116323)
(0.113788 0.00050034 -0.00115754)
(0.114076 0.00049188 -0.00114919)
(0.114361 0.000484048 -0.00113882)
(0.114645 0.000477446 -0.00112683)
(0.114928 0.000473116 -0.00111322)
(0.115209 0.000472467 -0.00109992)
(0.115489 0.00047238 -0.00108388)
(0.102186 0.000406341 -0.00126248)
(0.102192 0.000410571 -0.00127951)
(0.102185 0.000409222 -0.00128931)
(0.102169 0.000402433 -0.00129203)
(0.102144 0.000391034 -0.00128828)
(0.102114 0.000377582 -0.00127919)
(0.102079 0.000364282 -0.00126593)
(0.102042 0.000352083 -0.0012496)
(0.102004 0.000341613 -0.00123093)
(0.101967 0.000332856 -0.00120998)
(0.101929 0.000327054 -0.00118747)
(0.101893 0.000317624 -0.00115787)
(0.0771586 0.000543909 -0.00114928)
(0.0764142 0.000560393 -0.00116398)
(0.0756552 0.000565872 -0.00117044)
(0.0748885 0.000560556 -0.00116924)
(0.0741203 0.000547645 -0.00116104)
(0.0733563 0.000531003 -0.00114677)
(0.072603 0.000513504 -0.00112759)
(0.0718649 0.0004964 -0.00110428)
(0.0711445 0.000479952 -0.00107771)
(0.0704428 0.000464296 -0.0010497)
(0.0697577 0.000449142 -0.00102103)
(0.0690931 0.00043622 -0.000993526)
(0.118271 0.00105393 -4.73666e-05)
(0.118693 0.00103329 -3.86086e-05)
(0.119111 0.00101644 -3.12367e-05)
(0.119526 0.00100278 -2.51632e-05)
(0.119937 0.000991739 -2.03692e-05)
(0.120344 0.000982651 -1.65933e-05)
(0.120749 0.000974888 -1.35985e-05)
(0.12115 0.000968331 -1.15358e-05)
(0.121548 0.000962649 -1.08354e-05)
(0.121943 0.00095866 -1.17733e-05)
(0.122335 0.000954374 -1.34246e-05)
(0.115384 0.000971729 -0.000374412)
(0.115761 0.000941633 -0.000366605)
(0.116138 0.000918396 -0.000358456)
(0.116513 0.000900957 -0.000349981)
(0.116889 0.000888552 -0.000341647)
(0.117263 0.000879493 -0.000333297)
(0.117636 0.000872257 -0.000324745)
(0.118006 0.00086732 -0.000316473)
(0.118373 0.00086529 -0.000309474)
(0.118739 0.000867725 -0.000305094)
(0.119101 0.000870337 -0.000301204)
(0.10904 0.000773324 -0.000767359)
(0.109314 0.000739587 -0.000776863)
(0.109589 0.000713256 -0.000780632)
(0.109866 0.000694039 -0.000779114)
(0.110143 0.00068029 -0.000772663)
(0.110422 0.000672445 -0.000763937)
(0.110697 0.000668131 -0.000753053)
(0.110975 0.000664614 -0.000740103)
(0.11125 0.000662366 -0.000725835)
(0.111525 0.000663609 -0.00071213)
(0.111795 0.000670133 -0.000700287)
(0.112065 0.000680409 -0.000690471)
(0.097365 0.000416037 -0.000908862)
(0.0973552 0.000397254 -0.000920347)
(0.0973407 0.000380954 -0.000924001)
(0.0973278 0.000365156 -0.000919544)
(0.0973068 0.000348341 -0.000906105)
(0.0972887 0.000334625 -0.000887816)
(0.0972618 0.000326298 -0.000866865)
(0.0972399 0.00032246 -0.000845254)
(0.0972106 0.000321235 -0.000823106)
(0.0971852 0.00032128 -0.000801182)
(0.0971519 0.000325149 -0.000782428)
(0.0971198 0.000324309 -0.000753707)
(0.0692634 0.000485268 -0.00091393)
(0.068526 0.000489716 -0.000920621)
(0.0677906 0.000490077 -0.000917081)
(0.0670616 0.000482482 -0.00089644)
(0.0663557 0.000469466 -0.000860661)
(0.0656675 0.000453165 -0.000819267)
(0.0650088 0.000436493 -0.000777289)
(0.0643717 0.000421996 -0.000737191)
(0.0637618 0.000408997 -0.000700585)
(0.0631681 0.000395925 -0.000668423)
(0.0625945 0.000380175 -0.00063871)
(0.0620423 0.000364384 -0.000612663)
(0.113968 0.00148857 0.000181069)
(0.114252 0.00146874 0.000202662)
(0.114533 0.00145344 0.000218592)
(0.114812 0.00144143 0.000229717)
(0.115088 0.00143181 0.000236715)
(0.115361 0.00142376 0.000240611)
(0.11563 0.0014165 0.000242325)
(0.115895 0.00141006 0.000241644)
(0.116156 0.00140285 0.000238267)
(0.116414 0.00139636 0.00023234)
(0.116667 0.00138744 0.000224557)
(0.110886 0.0013451 -1.5663e-05)
(0.111132 0.0013119 2.88147e-06)
(0.111384 0.00128848 1.80309e-05)
(0.111637 0.00127212 3.03688e-05)
(0.111893 0.00126151 3.97709e-05)
(0.112146 0.00125456 4.69413e-05)
(0.1124 0.00124871 5.3353e-05)
(0.112648 0.00124488 5.82198e-05)
(0.112893 0.00124259 6.05973e-05)
(0.113132 0.00124817 5.74628e-05)
(0.113362 0.00124728 5.34038e-05)
(0.103764 0.00102785 -0.000356732)
(0.103924 0.000987215 -0.000358303)
(0.104089 0.000958747 -0.000355526)
(0.10427 0.000942403 -0.000349722)
(0.104443 0.000933628 -0.000340542)
(0.104629 0.000935402 -0.000333359)
(0.104799 0.00093442 -0.000322632)
(0.104982 0.000929556 -0.00030818)
(0.105151 0.000925699 -0.000293969)
(0.105329 0.000933657 -0.00028717)
(0.105483 0.000946144 -0.000284899)
(0.105641 0.000950919 -0.00028059)
(0.0900011 0.000431651 -0.000472815)
(0.08989 0.000409648 -0.000478642)
(0.0897788 0.00039519 -0.000478109)
(0.0896762 0.000395963 -0.000480547)
(0.089564 0.000395928 -0.000475127)
(0.0894566 0.000403764 -0.000469414)
(0.0893342 0.00041222 -0.000460276)
(0.0892101 0.000415951 -0.000445622)
(0.0890715 0.000420611 -0.000430877)
(0.0889297 0.000424753 -0.000415665)
(0.0887801 0.00043496 -0.000405806)
(0.0886231 0.000443373 -0.000395297)
(0.058457 0.000386354 -0.00056548)
(0.0577849 0.000390386 -0.000563104)
(0.0571328 0.000384058 -0.00054595)
(0.0564803 0.000347226 -0.000490893)
(0.0558879 0.000301214 -0.000421032)
(0.0552921 0.000275938 -0.000374812)
(0.0547555 0.000262548 -0.000345299)
(0.0542013 0.000252958 -0.000321825)
(0.053696 0.000246331 -0.000301357)
(0.0531787 0.000240568 -0.000283399)
(0.0527047 0.000233132 -0.000267362)
(0.0522264 0.000219272 -0.000249541)
(0.105088 0.0015476 0.000316247)
(0.105044 0.00152609 0.000351128)
(0.104994 0.00151094 0.000375541)
(0.104939 0.00149902 0.0003907)
(0.104878 0.00148841 0.000398254)
(0.10481 0.00147853 0.000399747)
(0.104735 0.00146842 0.000396857)
(0.104655 0.00145886 0.000390627)
(0.104567 0.00144422 0.000381551)
(0.104478 0.00142548 0.000371)
(0.104384 0.00140792 0.000360168)
(0.101559 0.00136542 0.000229521)
(0.101467 0.00133005 0.000258354)
(0.101387 0.00130499 0.000280205)
(0.101304 0.00128525 0.000295566)
(0.101226 0.00126863 0.000306099)
(0.101139 0.00125766 0.000311431)
(0.101049 0.00124569 0.000313034)
(0.10095 0.00124305 0.000310666)
(0.100842 0.00123445 0.000306476)
(0.100727 0.00122426 0.000299485)
(0.100603 0.00120531 0.000289863)
(0.0932922 0.000985578 -5.46967e-05)
(0.0931244 0.000950387 -4.99915e-05)
(0.0929648 0.000920323 -4.06403e-05)
(0.0928279 0.000904579 -3.13117e-05)
(0.0926817 0.000892363 -2.05273e-05)
(0.0925479 0.000877949 -6.84743e-06)
(0.0924047 0.000868178 5.62815e-06)
(0.0922597 0.000857948 1.81028e-05)
(0.0920969 0.000850888 2.80415e-05)
(0.0919351 0.000844115 3.57169e-05)
(0.0917604 0.00084348 3.70543e-05)
(0.0915788 0.000831755 3.8352e-05)
(0.0764121 0.000211544 -0.000166992)
(0.0759781 0.000184175 -0.000162311)
(0.0755652 0.000176195 -0.000160188)
(0.0751321 0.000183019 -0.000162334)
(0.0747317 0.000199075 -0.00016767)
(0.0742971 0.000211961 -0.000168971)
(0.0738973 0.000222747 -0.000166456)
(0.0734636 0.000226189 -0.000158061)
(0.0730592 0.000225815 -0.000146832)
(0.072627 0.000223679 -0.00013451)
(0.0722165 0.00023154 -0.000128318)
(0.0717813 0.000247811 -0.00012862)
(0.0444737 -2.80397e-05 -0.000154629)
(0.0439044 -1.70865e-05 -0.00014837)
(0.0433661 -8.83702e-06 -0.000140598)
(0.0428225 -1.01559e-06 -0.000134955)
(0.042296 2.13592e-06 -0.000128962)
(0.0417663 2.6672e-06 -0.000121242)
(0.0412698 2.45323e-06 -0.000112774)
(0.040777 1.94274e-06 -0.00010328)
(0.0403164 3.08897e-06 -9.41437e-05)
(0.0398615 5.14025e-06 -8.52637e-05)
(0.0394319 8.38001e-06 -7.77279e-05)
(0.0390157 1.2005e-05 -7.02311e-05)
(0.0807581 0.00138736 0.000407844)
(0.0799248 0.0013746 0.000431782)
(0.0790919 0.00136325 0.000445986)
(0.0782594 0.00135196 0.000452436)
(0.0774272 0.00133996 0.000452744)
(0.0765964 0.00132633 0.00044861)
(0.0757693 0.00131121 0.000441096)
(0.0749459 0.00129471 0.000432323)
(0.0741311 0.0012766 0.00042266)
(0.0733189 0.00125531 0.000414388)
(0.0725166 0.00123072 0.000409451)
(0.0754746 0.00122083 0.000310395)
(0.0746196 0.00119478 0.000329771)
(0.0737818 0.00117311 0.000343287)
(0.0729574 0.00115432 0.000351661)
(0.0721379 0.00113873 0.000355114)
(0.0713232 0.00112278 0.000354639)
(0.0705155 0.00110678 0.000350488)
(0.0697056 0.00109134 0.000343954)
(0.0689169 0.00107618 0.000336209)
(0.0681223 0.00105648 0.000327805)
(0.0673625 0.00103151 0.000315452)
(0.0649169 0.00096482 2.129e-05)
(0.0641571 0.000935448 3.19426e-05)
(0.0634491 0.000911226 4.46491e-05)
(0.0627431 0.000886727 6.00867e-05)
(0.0620859 0.000862577 7.72274e-05)
(0.0614156 0.000841175 9.41945e-05)
(0.060779 0.000820597 0.000108768)
(0.0601297 0.000800849 0.000119271)
(0.0595037 0.000785702 0.000122956)
(0.0588631 0.000775273 0.000120901)
(0.0582354 0.000749911 0.000117085)
(0.057615 0.000685908 0.000115328)
(0.0474074 0.000373445 -0.000170065)
(0.0467667 0.000355884 -0.000163667)
(0.0461731 0.000342483 -0.000155808)
(0.0455902 0.000333106 -0.00014825)
(0.0450502 0.000326427 -0.000140113)
(0.0445156 0.000320049 -0.000128828)
(0.0440146 0.000313524 -0.000115688)
(0.0435208 0.000305927 -0.000102606)
(0.043053 0.000299648 -9.26025e-05)
(0.0425831 0.000295067 -8.6465e-05)
(0.0421219 0.000289758 -8.1928e-05)
(0.0416651 0.000274498 -7.50411e-05)
(0.0288733 -8.87135e-07 -9.57467e-05)
(0.0284356 -1.07256e-06 -9.0941e-05)
(0.0280223 -1.28239e-06 -8.64046e-05)
(0.0276181 -2.2321e-06 -8.35432e-05)
(0.0272363 -3.2009e-06 -8.22091e-05)
(0.0268604 -2.67762e-06 -7.93357e-05)
(0.0265047 -1.17469e-06 -7.50228e-05)
(0.0261566 9.47827e-08 -6.97419e-05)
(0.0258291 1.46925e-06 -6.43762e-05)
(0.025508 2.79412e-06 -5.90767e-05)
(0.0251968 5.10942e-06 -5.43816e-05)
(0.0248926 7.60074e-06 -4.96211e-05)
)
;

boundaryField
{
    inlet
    {
        type            fixedValue;
        value           nonuniform List<vector> 0();
    }
    ami1
    {
        type            cyclicAMI;
        value           nonuniform List<vector> 0();
    }
    walls
    {
        type            noSlip;
    }
    ami2
    {
        type            cyclicAMI;
        value           nonuniform List<vector> 0();
    }
    outlet
    {
        type            zeroGradient;
    }
    procBoundary9to0
    {
        type            processor;
        value           nonuniform List<vector> 
40
(
(0.081449 -0.00132309 -0.000491879)
(0.0771539 -0.0011516 -0.000545613)
(0.0692675 -0.000916066 -0.000487103)
(0.0692675 -0.000916066 -0.000487103)
(0.0591369 -0.000565269 -0.000386676)
(0.0450447 -0.000158141 4.24676e-05)
(0.0293316 -0.000100352 8.01947e-08)
(0.104981 -0.00149904 -0.000350672)
(0.102183 -0.0012642 -0.000406979)
(0.0973593 -0.000908982 -0.000415468)
(0.0973593 -0.000908982 -0.000415468)
(0.0901141 -0.000462082 -0.000463648)
(0.0768532 -0.000164544 -0.000240622)
(0.0480618 -0.000176689 -0.000401556)
(0.113984 -0.00140932 -0.000352189)
(0.112297 -0.00114359 -0.000557447)
(0.109035 -0.00076686 -0.000773765)
(0.109035 -0.00076686 -0.000773765)
(0.103618 -0.000349417 -0.00108175)
(0.0934948 -5.66501e-05 -0.00103608)
(0.0657112 8.50576e-06 -0.00101131)
(0.118489 -0.000958886 -0.000286381)
(0.117469 -0.000713537 -0.000641331)
(0.115004 -0.00038082 -0.00101068)
(0.115004 -0.00038082 -0.00101068)
(0.11041 -6.07848e-05 -0.00144861)
(0.10178 0.000152551 -0.00147561)
(0.0772782 0.000244716 -0.00130652)
(0.120043 -0.000285528 -0.000624641)
(0.117844 -5.71827e-05 -0.00108071)
(0.117844 -5.71827e-05 -0.00108071)
(0.113391 0.000118845 -0.0015484)
(0.105166 0.000210344 -0.0016152)
(0.0824276 0.000318046 -0.00142084)
(0.120785 0.000162017 -0.000487988)
(0.11849 0.000284282 -0.00095946)
(0.11849 0.000284282 -0.00095946)
(0.113666 0.000329593 -0.00140968)
(0.104969 0.000305841 -0.00149017)
(0.0822064 0.000449496 -0.00130408)
)
;
    }
    procBoundary9to1
    {
        type            processor;
        value           nonuniform List<vector> 
30
(
(0.120043 0.000623166 -0.000285955)
(0.117471 0.000639938 -0.000714194)
(0.117471 0.000639938 -0.000714194)
(0.111987 0.00056907 -0.00112571)
(0.102166 0.000396176 -0.00123633)
(0.0778777 0.000516233 -0.00112416)
(0.117844 0.001079 -5.75482e-05)
(0.115006 0.00100921 -0.000381836)
(0.115006 0.00100921 -0.000381836)
(0.108768 0.000815154 -0.000751007)
(0.0973717 0.000437573 -0.000887354)
(0.0699893 0.000476422 -0.000897687)
(0.11368 0.00151435 0.000153237)
(0.110644 0.00138964 -3.72161e-05)
(0.110644 0.00138964 -3.72161e-05)
(0.103622 0.00108226 -0.000350035)
(0.0901218 0.000465354 -0.000462465)
(0.0591237 0.000384379 -0.000562819)
(0.105129 0.00157747 0.000269485)
(0.101659 0.00141143 0.000194489)
(0.101659 0.00141143 0.000194489)
(0.0934957 0.00103968 -5.7551e-05)
(0.0768511 0.000243551 -0.000163971)
(0.0450318 -4.12065e-05 -0.000157252)
(0.0815916 0.00140308 0.000370514)
(0.0763571 0.00125647 0.000282746)
(0.0763571 0.00125647 0.000282746)
(0.0657117 0.00100786 1.11398e-05)
(0.0480549 0.000400546 -0.000174541)
(0.0293242 3.75769e-07 -9.93681e-05)
)
;
    }
    procBoundary9to7
    {
        type            processor;
        value           nonuniform List<vector> 
59
(
(0.0720668 -0.00117439 -0.000437655)
(0.0684274 -0.000964777 -0.000425174)
(0.0614801 -0.000589497 -0.000352352)
(0.0517694 -0.00023342 -0.000208889)
(0.0386175 -6.55015e-05 -1.95427e-05)
(0.0245984 -4.57313e-05 -1.02533e-05)
(0.104397 -0.00137351 -0.000328307)
(0.101858 -0.00112704 -0.000312669)
(0.0970845 -0.000736537 -0.000339307)
(0.0884317 -0.000392042 -0.000461415)
(0.0713319 -0.000133938 -0.000271465)
(0.0412202 -7.05522e-05 -0.000253705)
(0.117371 -0.00132077 -0.000339741)
(0.115765 -0.00106799 -0.000477805)
(0.112326 -0.000684309 -0.000698688)
(0.105781 -0.000283071 -0.000964805)
(0.0913635 3.33549e-05 -0.00082806)
(0.0570052 0.000109058 -0.000609284)
(0.123506 -0.000864582 -0.00026405)
(0.122402 -0.000635635 -0.000546692)
(0.119457 -0.000297918 -0.000876154)
(0.113587 5.10258e-05 -0.00124077)
(0.100472 0.000279204 -0.00118794)
(0.0665981 0.000301355 -0.00100498)
(0.125575 -0.000245185 -0.000543584)
(0.12272 -1.46626e-05 -0.000955051)
(0.116913 0.000216784 -0.00138409)
(0.10428 0.000349359 -0.00140217)
(0.0717112 0.000408189 -0.00120323)
(0.12649 0.000143058 -0.000432013)
(0.123504 0.000261367 -0.000865702)
(0.117369 0.000336663 -0.00132087)
(0.1044 0.000325504 -0.00137353)