/*--------------------------------*- C++ -*----------------------------------*\
| =========                 |                                                 |
| \\      /  F ield         | OpenFOAM: The Open Source CFD Toolbox           |
|  \\    /   O peration     | Version:  2212                                  |
|   \\  /    A nd           | Website:  www.openfoam.com                      |
|    \\/     M anipulation  |                                                 |
\*---------------------------------------------------------------------------*/
FoamFile
{
    version     2.0;
    format      ascii;
    arch        "LSB;label=32;scalar=64";
    class       volScalarField;
    location    "3";
    object      epsilon;
}
// * * * * * * * * * * * * * * * * * * * * * * * * * * * * * * * * * * * * * //

dimensions      [0 2 -3 0 0 0 0];

internalField   nonuniform List<scalar> 
678
(
0.0802339
0.0790637
0.0779823
0.0769389
0.0760908
0.0745899
0.0295253
0.0290617
0.0286269
0.0282137
0.0278338
0.0274074
0.0195396
0.0192033
0.0188857
0.0185813
0.0182945
0.0180011
0.0146052
0.0143419
0.0140914
0.0138534
0.0136095
0.0126241
0.0123834
0.0121564
0.0119442
0.0117479
0.0116409
0.011436
0.0112429
0.0110607
0.0118428
0.0116333
0.0114327
0.0112436
0.0131384
0.0129047
0.0126828
0.0124707
0.0165836
0.0163079
0.0160493
0.0157953
0.026591
0.0261924
0.0258162
0.0254797
0.0251059
0.0791731
0.0780681
0.0770308
0.0761681
0.0746562
0.0265552
0.0261585
0.0257838
0.0254503
0.0250796
0.0107379
0.0104675
0.0102636
0.01006
0.00986459
0.00962979
0.00675384
0.00658546
0.00648581
0.00629341
0.00613803
0.00542
0.00530576
0.00521411
0.00502832
0.00489649
0.00482128
0.00472282
0.00461693
0.00446792
0.00433703
0.00457874
0.00447014
0.00435365
0.00422332
0.00408941
0.00455844
0.0044431
0.00432514
0.00419632
0.00406576
0.00472904
0.00461133
0.0044854
0.00434614
0.00588732
0.00569136
0.00556799
0.00542758
0.0103466
0.0100817
0.00990465
0.00967605
0.0290949
0.0286625
0.0282477
0.0278664
0.0274369
0.0165592
0.0162804
0.0160204
0.0157654
0.00603695
0.00583555
0.00570906
0.00556241
0.00542267
0.00410655
0.00400892
0.00392811
0.00375914
0.00364399
0.00364363
0.00355684
0.00346024
0.00334968
0.00324011
0.00352776
0.00343698
0.00333471
0.00322937
0.00312877
0.00349589
0.00340393
0.00329997
0.00319292
0.00308952
0.00353339
0.00341601
0.00330481
0.00319201
0.00306502
0.00355151
0.00346564
0.00336577
0.00326059
0.00314039
0.00410973
0.00403738
0.00389443
0.00381362
0.00363008
0.00661549
0.00644414
0.00634127
0.00613195
0.0192247
0.0189077
0.0186059
0.0183208
0.0180272
0.0131193
0.0128837
0.01266
0.0124467
0.00471484
0.00460754
0.00447734
0.00434435
0.0035558
0.00346601
0.00336396
0.00325545
0.00314156
0.0033742
0.00331138
0.00318453
0.00307213
0.00289112
0.00339141
0.00333146
0.00320055
0.00308653
0.0029048
0.00342845
0.00336427
0.00321722
0.00309775
0.00291482
0.00348968
0.00342162
0.00329326
0.00315533
0.00304676
0.00287209
0.00338335
0.00331807
0.00317681
0.0030656
0.00288388
0.00366187
0.00358291
0.0034681
0.0033745
0.00321159
0.00542821
0.00533178
0.0051828
0.00507959
0.00488049
0.0146242
0.0143626
0.0141131
0.0138764
0.0136329
0.0120399
0.0118252
0.0116151
0.0114137
0.0112239
0.0045721
0.00444974
0.00432568
0.00419426
0.00406294
0.00358847
0.00349291
0.00338687
0.00327913
0.00317114
0.00305817
0.00349423
0.00342582
0.00329439
0.00315046
0.00303767
0.00286166
0.00355572
0.00348825
0.00335533
0.00321028
0.00309354
0.00291681
0.00358354
0.0035206
0.00338646
0.00324315
0.00312567
0.00294902
0.00354351
0.00347877
0.00334812
0.00320399
0.00308812
0.00291269
0.00348445
0.00342037
0.00329217
0.00315257
0.00304186
0.00286964
0.00362046
0.00353154
0.00343114
0.00332785
0.00321926
0.003106
0.00494156
0.0048397
0.00473872
0.00458788
0.00447776
0.00431051
0.0126431
0.0124029
0.0121771
0.0119662
0.0117712
0.0118607
0.0116304
0.0114227
0.0112294
0.0110471
0.00455294
0.00445417
0.00433794
0.00421404
0.00408167
0.0037208
0.00361906
0.00350243
0.00338961
0.00327876
0.00316892
0.0030621
0.00363785
0.00356435
0.0034218
0.00328503
0.00314483
0.00303336
0.00286139
0.00371649
0.00363685
0.00349425
0.00335581
0.00321327
0.00309644
0.00292327
0.00363949
0.003571
0.00342742
0.00327831
0.00315574
0.00297698
0.00357914
0.00351536
0.00337854
0.00323377
0.00311524
0.00293883
0.00349899
0.00343517
0.00330194
0.00316016
0.00304677
0.00287456
0.00357905
0.00348803
0.00338527
0.00327861
0.00317083
0.00306521
0.00470637
0.00458782
0.00447005
0.00433985
0.00420909
0.00406051
0.0121165
0.0118853
0.0116597
0.0114552
0.0112644
0.0110846
0.0128783
0.0126226
0.0123776
0.0121501
0.0119367
0.0117391
0.00495264
0.00484515
0.00474119
0.00458283
0.00447222
0.00430911
0.00362527
0.00353097
0.00342689
0.00332017
0.00321046
0.00309712
0.00349391
0.00342628
0.003289
0.00314474
0.00303062
0.00285455
0.00354249
0.00347452
0.00333549
0.00318815
0.00306895
0.00289218
0.00357536
0.00351015
0.00337485
0.00322843
0.00310852
0.0029314
0.00353735
0.00347347
0.00333883
0.00319413
0.00307679
0.00290046
0.00347697
0.003412
0.00328334
0.00313998
0.00302717
0.00285241
0.00356592
0.00347527
0.00337316
0.00326772
0.00316293
0.00304034
0.00466999
0.00455565
0.00443665
0.00431608
0.00417582
0.00403587
0.0123037
0.0120731
0.011861
0.011654
0.0114562
0.0112701
0.014889
0.014607
0.0143439
0.0140918
0.0138539
0.0136078
0.00554672
0.00542177
0.00533266
0.00515104
0.00505428
0.00486681
0.00375069
0.00365791
0.0035697
0.00343295
0.00334733
0.00317655
0.00345399
0.00338975
0.00326292
0.00312404
0.00301539
0.00284081
0.00345535
0.00338978
0.0032634
0.00312144
0.00300845
0.00283663
0.00348581
0.00342007
0.00328986
0.00314637
0.00303119
0.00285959
0.00347425
0.00340968
0.00327689
0.00313436
0.00302104
0.00284805
0.00346566
0.00339939
0.00327238
0.00312985
0.00302057
0.00284282
0.00363533
0.00355155
0.00345857
0.00334089
0.00322828
0.00308151
0.00498019
0.00486287
0.00473943
0.00460875
0.00446759
0.00431578
0.0136536
0.0134012
0.0131597
0.0129282
0.0127089
0.0125001
0.0195445
0.0192112
0.0188937
0.0185903
0.0183032
0.0180081
0.00693122
0.00674874
0.00661899
0.00646332
0.0063296
0.00613107
0.00422914
0.00411644
0.00402921
0.00386115
0.00377628
0.00360197
0.003648
0.0035508
0.00344923
0.00333496
0.00321948
0.00308371
0.00354777
0.00345558
0.00335292
0.00324649
0.00313894
0.00302877
0.00356614
0.00347251
0.00336846
0.00326081
0.0031522
0.00304842
0.00360605
0.00351489
0.0034134
0.0033083
0.00320055
0.00308622
0.00372923
0.00364518
0.00356066
0.00343045
0.00334499
0.00317324
0.00420501
0.00410803
0.00402617
0.00386018
0.0037733
0.00360008
0.00619475
0.00599694
0.00586562
0.0057202
0.00558204
0.005435
0.017178
0.0168874
0.0166076
0.0163352
0.0160786
0.015826
0.0295423
0.0290828
0.0286507
0.028238
0.0278555
0.0274244
0.0107601
0.0104829
0.0102829
0.0100754
0.0098879
0.00965328
0.0062122
0.00599312
0.00586233
0.00571645
0.00557243
0.0054277
0.00502272
0.00487033
0.0047414
0.00460812
0.00446936
0.00431868
0.00467125
0.00454972
0.00442838
0.00430547
0.00416863
0.00403688
0.00468726
0.00457157
0.00445245
0.00432499
0.00419204
0.00406368
0.00492908
0.0048266
0.00472296
0.00457431
0.00446229
0.00430214
0.00554509
0.00541769
0.00532724
0.00514825
0.00504955
0.00486648
0.00692667
0.00675462
0.00661236
0.00648299
0.0063154
0.00614361
0.0107733
0.0105092
0.0103098
0.0101093
0.00991956
0.00968753
0.0270223
0.0266031
0.0262113
0.0258414
0.0255099
0.0251398
0.080304
0.0791574
0.0780745
0.0770257
0.0761569
0.0746288
0.0270122
0.0265914
0.0261973
0.0258229
0.0254859
0.0251094
0.0177985
0.0174746
0.0171668
0.0168747
0.0165909
0.0163136
0.0160528
0.0157967
0.0139092
0.0136423
0.0133879
0.013144
0.0129097
0.0126875
0.012476
0.0125437
0.0122855
0.0120617
0.0118473
0.0116387
0.0114395
0.0112521
0.0121139
0.0118681
0.0116493
0.0114414
0.011251
0.0110714
0.0128891
0.0126313
0.0123925
0.0121667
0.0119568
0.0117618
0.0148939
0.0146187
0.0143557
0.0141087
0.0138734
0.0136312
0.0195552
0.0192238
0.0189093
0.0186091
0.0183258
0.0180354
0.0295535
0.0290964
0.0286671
0.0282585
0.0278812
0.0274569
0.080343
0.079194
0.0781255
0.0770891
0.0762373
0.0747308
)
;

boundaryField
{
    inlet
    {
        type            fixedValue;
        value           nonuniform List<scalar> 0();
    }
    ami1
    {
        type            cyclicAMI;
        value           nonuniform List<scalar> 0();
    }
    walls
    {
        type            epsilonWallFunction;
        blending        stepwise;
        value           nonuniform List<scalar> 
244
(
0.0802339
0.0295253
0.0195396
0.0790637
0.0290617
0.0192033
0.0146052
0.0126241
0.026591
0.0791731
0.0779823
0.0286269
0.0188857
0.0143419
0.0123834
0.0116409
0.0118428
0.0131384
0.0165836
0.0261924
0.0780681
0.0769389
0.0282137
0.0185813
0.0140914
0.0121564
0.011436
0.0116333
0.0129047
0.0163079
0.0258162
0.0770308
0.0760908
0.0278338
0.0182945
0.0138534
0.0119442
0.0112429
0.0114327
0.0126828
0.0160493
0.0254797
0.0761681
0.0745899
0.0274074
0.0180011
0.0136095
0.0117479
0.0110607
0.0112436
0.0124707
0.0157953
0.0251059
0.0746562
0.0121165
0.0123037
0.0136536
0.017178
0.0270223
0.080343
0.0791731
0.0290949
0.0192247
0.0146242
0.0126431
0.0118853
0.0120731
0.0134012
0.0168874
0.0266031
0.079194
0.0780681
0.0286625
0.0189077
0.0143626
0.0124029
0.0116597
0.011861
0.0131597
0.0166076
0.0262113
0.0781255
0.0770308
0.0282477
0.0186059
0.0141131
0.0121771
0.0114552
0.011654
0.0129282
0.0163352
0.0258414
0.0770891
0.0761681
0.0278664
0.0183208
0.0138764
0.0119662
0.0112644
0.0114562
0.0127089
0.0160786
0.0255099
0.0762373
0.0746562
0.0274369
0.0180272
0.0136329
0.0117712
0.0110846
0.0112701
0.0125001
0.015826
0.0251398
0.0747308
0.0177985
0.0174746
0.0139092
0.0125437
0.080304
0.0270122
0.0171668
0.0136423
0.0122855
0.0121139
0.0128891
0.0148939
0.0195552
0.0295535
0.080343
0.0791574
0.0265914
0.0168747
0.0133879
0.0120617
0.0118681
0.0126313
0.0146187
0.0192238
0.0290964
0.079194
0.0780745
0.0261973
0.0165909
0.013144
0.0118473
0.0116493
0.0123925
0.0143557
0.0189093
0.0286671
0.0781255
0.0770257
0.0258229
0.0163136
0.0129097
0.0116387
0.0114414
0.0121667
0.0141087
0.0186091
0.0282585
0.0770891
0.0761569
0.0254859
0.0160528
0.0126875
0.0114395
0.011251
0.0119568
0.0138734
0.0183258
0.0278812
0.0762373
0.0746288
0.0251094
0.0157967
0.012476
0.0112521
0.0110714
0.0117618
0.0136312
0.0180354
0.0274569
0.0747308
0.0802339
0.0128783
0.014889
0.0195445
0.0295423
0.080304
0.0790637
0.0265552
0.0120399
0.0118607
0.0126226
0.014607
0.0192112
0.0290828
0.0791574
0.0779823
0.0261585
0.0165592
0.0131193
0.0118252
0.0116304
0.0123776
0.0143439
0.0188937
0.0286507
0.0780745
0.0769389
0.0257838
0.0162804
0.0128837
0.0116151
0.0114227
0.0121501
0.0140918
0.0185903
0.028238
0.0770257
0.0760908
0.0254503
0.0160204
0.01266
0.0114137
0.0112294
0.0119367
0.0138539
0.0183032
0.0278555
0.0761569
0.0745899
0.0250796
0.0157654
0.0124467
0.0112239
0.0110471
0.0117391
0.0136078
0.0180081
0.0274244
0.0746288
)
;
    }
    ami2
    {
        type            cyclicAMI;
        value           nonuniform List<scalar> 0();
    }
    outlet
    {
        type            zeroGradient;
    }
    procBoundary6to5
    {
        type            processor;
        value           nonuniform List<scalar> 
177
(
0.0814951
0.0269788
0.030016
0.0198965
0.0148848
0.0069199
0.0148848
0.0128799
0.0118656
0.0118656
0.0118656
0.0120544
0.0120544
0.013379
0.0168655
0.0168655
0.0270061
0.0104434
0.0803193
0.0269788
0.0269788
0.0168466
0.0108587
0.0069199
0.00612715
0.0069199
0.00555644
0.00494027
0.00470824
0.00468168
0.00487731
0.00487731
0.00487731
0.00600412
0.00600412
0.0104434
0.0104434
0.0295524
0.0168466
0.0168466
0.00612715
0.00488166
0.00419624
0.00370227
0.00359663
0.00355709
0.00357525
0.00357525
0.00360752
0.00420202
0.00679174
0.00679174
0.00679174
0.00679174
0.0195591
0.0133654
0.0133654
0.00488166
0.00488166
0.00488166
0.00361799
0.00361799
0.00338297
0.00338297
0.00339073
0.00339073
0.00342368
0.00342368
0.00342368
0.00349872
0.00339669
0.00339669
0.00339669
0.0037151
0.0037151
0.00557171
0.00557171
0.0149031
0.0122755
0.00469141
0.00469141
0.00369151
0.00369151
0.00350767
0.00350767
0.00356209
0.00356209
0.00358668
0.00354976
0.00349807
0.00373032
0.00511902
0.0128988
0.0128988
0.0128988
0.0120955
0.0120955
0.00484438
0.0047213
0.0047213
0.0047213
0.00382303
0.00373309
0.00365589
0.00350883
0.00373404
0.00364511
0.00355325
0.00364511
0.00358384
0.003509
0.00367969
0.00485154
0.0123858
0.0131523
0.00509119
0.00373309
0.00350883
0.00355325
0.00358103
0.00354316
0.00348799
0.0036745
0.00483569
0.0125454
0.0151834
0.00572706
0.00382858
0.00347587
0.00347151
0.00349811
0.00348752
0.00348828
0.00375362
0.0052007
0.0139186
0.019897
0.00709215
0.00432575
0.00371886
0.00365993
0.00367231
0.00372012
0.0038477
0.00435095
0.0063438
0.0174872
0.0300249
0.0108658
0.00653273
0.0062965
0.0062965
0.00513931
0.00513931
0.0048209
0.0048209
0.00484734
0.00511033
0.00572735
0.00710506
0.0108945
0.0274686
0.0815568
0.0279248
0.0274603
0.0274603
0.0181507
0.0141903
0.0141903
0.0128158
0.0123712
0.0123712
0.0131553
0.0151912
0.019907
0.0300362
0.0815856
)
;
    }
}


// ************************************************************************* //
