/*--------------------------------*- C++ -*----------------------------------*\
| =========                 |                                                 |
| \\      /  F ield         | OpenFOAM: The Open Source CFD Toolbox           |
|  \\    /   O peration     | Version:  2212                                  |
|   \\  /    A nd           | Website:  www.openfoam.com                      |
|    \\/     M anipulation  |                                                 |
\*---------------------------------------------------------------------------*/
FoamFile
{
    version     2.0;
    format      ascii;
    arch        "LSB;label=32;scalar=64";
    class       volScalarField;
    location    "3";
    object      k;
}
// * * * * * * * * * * * * * * * * * * * * * * * * * * * * * * * * * * * * * //

dimensions      [0 2 -2 0 0 0 0];

internalField   nonuniform List<scalar> 
678
(
0.00174095
0.00172395
0.00170813
0.00169285
0.00168038
0.00165828
0.00148718
0.00147151
0.00145677
0.00144271
0.00142974
0.00141513
0.00145154
0.00143483
0.00141897
0.00140369
0.00138923
0.00137437
0.00138001
0.00136336
0.00134743
0.00133227
0.0013166
0.00135175
0.00133448
0.00131811
0.00130276
0.00128847
0.00131216
0.0012964
0.0012818
0.00126794
0.00129518
0.00127986
0.00126511
0.00125113
0.00128575
0.00127043
0.00125579
0.00124175
0.00130089
0.00128638
0.00127271
0.00125924
0.00138662
0.00137269
0.00135949
0.00134766
0.00133446
0.00172532
0.00170922
0.00169405
0.0016814
0.00165914
0.00138561
0.00137171
0.00135853
0.00134677
0.00133365
0.000852713
0.000834164
0.000817263
0.000801874
0.000788359
0.000776932
0.00100536
0.000980308
0.000954446
0.000931194
0.000901985
0.00111936
0.00108946
0.00105927
0.00103165
0.000997468
0.00117092
0.00113742
0.00110475
0.00107361
0.00103574
0.0011857
0.00114955
0.00111531
0.00108215
0.00104218
0.00114668
0.00111137
0.0010778
0.00104485
0.00100445
0.00100626
0.000973788
0.00094215
0.000904596
0.000871351
0.000844949
0.000821415
0.000802135
0.000817295
0.000802289
0.00078822
0.000776179
0.00147247
0.00145784
0.00144375
0.00143076
0.00141606
0.00129986
0.00128515
0.00127137
0.0012578
0.000898843
0.000870975
0.000843231
0.000819647
0.000800233
0.0010911
0.00105468
0.00101868
0.000985463
0.000944987
0.00124435
0.00120051
0.00115873
0.00111785
0.0010691
0.00133641
0.00128825
0.00124255
0.00119742
0.00114416
0.00137245
0.00132195
0.00127415
0.00122699
0.00117169
0.00134052
0.00129061
0.00124351
0.0011971
0.00114266
0.00123706
0.00119081
0.00114705
0.00110402
0.00105288
0.00109121
0.00105353
0.0010195
0.000985597
0.000945469
0.000979224
0.000955812
0.000931813
0.00090286
0.0014358
0.00141997
0.00140484
0.00139048
0.00137563
0.00128477
0.00126927
0.00125449
0.00124033
0.001006
0.000972687
0.00094056
0.000902339
0.00123745
0.00119108
0.001147
0.00110373
0.00105224
0.00141706
0.00136234
0.00131093
0.00126054
0.00120285
0.00153182
0.00147284
0.00141725
0.00136274
0.00130115
0.00157344
0.00151278
0.00145577
0.00139996
0.00133722
0.00159585
0.00153483
0.00147616
0.00142099
0.0013667
0.0013054
0.00141688
0.00136219
0.00131114
0.00126113
0.00120391
0.00124481
0.00120041
0.00115903
0.00111826
0.00107042
0.00112038
0.00108937
0.00106107
0.0010327
0.000999158
0.00138122
0.00136455
0.00134878
0.00133367
0.00131806
0.00131009
0.00129422
0.00127874
0.00126388
0.00124981
0.00114659
0.0011107
0.00107673
0.00104348
0.00100263
0.00139315
0.00134138
0.0012915
0.00124438
0.00119786
0.00114317
0.00159591
0.00153453
0.00147576
0.00142062
0.00136643
0.00130526
0.00172871
0.00166245
0.00159893
0.00153904
0.00148029
0.00141492
0.00177599
0.00170812
0.00164301
0.00158151
0.00152122
0.00145449
0.00172922
0.00166308
0.00159956
0.0015397
0.001481
0.00141574
0.00159207
0.00153127
0.00147297
0.00141822
0.00136441
0.00130363
0.00138699
0.00133739
0.00128943
0.00124409
0.00119947
0.00114706
0.00120675
0.00117258
0.00113833
0.00110709
0.0010761
0.0010393
0.00135308
0.00133584
0.00131956
0.00130431
0.00129012
0.00132791
0.00131143
0.00129549
0.00128087
0.00126699
0.00118606
0.00114975
0.00111555
0.00108224
0.0010421
0.00147765
0.00142309
0.00137101
0.00132099
0.00127376
0.00122714
0.00117253
0.00169849
0.00163321
0.00157101
0.00151154
0.00145559
0.00140056
0.00133876
0.00184534
0.00177461
0.001707
0.00164231
0.00158119
0.00152126
0.00145499
0.00182582
0.00175602
0.00168918
0.00162611
0.00156442
0.00149653
0.00177641
0.00170856
0.00164346
0.00158204
0.00152191
0.00145542
0.00163584
0.00157341
0.00151357
0.00145734
0.00140215
0.00134019
0.00142579
0.00137396
0.00132396
0.00127669
0.0012301
0.00117564
0.00122544
0.00118792
0.00115177
0.00111807
0.00108562
0.00104694
0.00134808
0.00132974
0.00131344
0.00129781
0.00128339
0.00126972
0.00137001
0.00135151
0.00133419
0.00131769
0.00130228
0.00128787
0.00120545
0.00117092
0.00113632
0.00110501
0.00107377
0.00103641
0.00138559
0.00133574
0.00128762
0.00124226
0.00119768
0.0011453
0.00159141
0.0015303
0.0014719
0.0014172
0.00136357
0.00130309
0.00172916
0.00166294
0.00159948
0.00153974
0.00148126
0.00141635
0.00177638
0.00170857
0.00164349
0.0015821
0.00152203
0.00145567
0.00172951
0.00166342
0.0016
0.00154022
0.00148168
0.00141668
0.00159688
0.00153582
0.00147724
0.00142229
0.0013684
0.00130767
0.00139461
0.00134347
0.00129409
0.00124738
0.00120133
0.00114748
0.00118607
0.00115003
0.00111511
0.00108174
0.00104962
0.00101064
0.00132811
0.00131209
0.00129656
0.00128138
0.00126682
0.00125307
0.00139757
0.0013802
0.00136338
0.00134752
0.00133228
0.0013165
0.00115069
0.00111995
0.00108849
0.0010607
0.00103263
0.000999074
0.00128921
0.00124407
0.00119977
0.00115906
0.00111873
0.00107152
0.0014729
0.00141656
0.00136257
0.00131216
0.00126272
0.00120623
0.00159721
0.00153625
0.00147774
0.00142283
0.00136899
0.00130837
0.00163588
0.00157361
0.00151387
0.00145775
0.00140273
0.00134102
0.00159229
0.00153156
0.00147338
0.00141882
0.0013653
0.00130497
0.00147279
0.00141656
0.00136267
0.00131241
0.00126311
0.00120682
0.00128583
0.00123867
0.00119261
0.00114948
0.00110732
0.0010578
0.00107735
0.0010437
0.00100991
0.000977385
0.000946525
0.000910284
0.0013193
0.00130293
0.00128717
0.00127197
0.0012575
0.00124367
0.00145167
0.00143513
0.00141929
0.00140409
0.00138962
0.00137469
0.00103223
0.0010063
0.000979968
0.000956064
0.000932294
0.000903614
0.00112918
0.00109166
0.00105407
0.00102085
0.000987751
0.000948523
0.00128603
0.00123867
0.00119267
0.00114946
0.00110727
0.00105751
0.00139515
0.00134414
0.00129487
0.00124829
0.00120237
0.00114854
0.00142559
0.00137402
0.00132426
0.00127724
0.00123091
0.00117676
0.00138689
0.00133753
0.00128982
0.0012448
0.00120052
0.00114858
0.00129002
0.00124514
0.00120111
0.00116051
0.00112035
0.00107345
0.00112975
0.00109243
0.00105496
0.00102173
0.000988638
0.000949678
0.000926675
0.000900826
0.000874219
0.000847514
0.000823749
0.000804586
0.001332
0.00131683
0.00130216
0.0012878
0.00127422
0.00126081
0.0014876
0.00147211
0.00145749
0.00144348
0.00143044
0.00141567
0.000853397
0.000835309
0.000818388
0.000803308
0.000789562
0.000777978
0.000927114
0.000900998
0.000873768
0.000846661
0.000822849
0.000803771
0.00107759
0.00104338
0.00100915
0.000976332
0.000945078
0.000908362
0.00118631
0.00115012
0.00111509
0.00108177
0.00104944
0.00100991
0.00122513
0.00118787
0.00115198
0.00111847
0.00108615
0.00104721
0.00120628
0.00117244
0.0011385
0.00110752
0.00107683
0.00104021
0.00115123
0.00112079
0.00108976
0.00106224
0.00103458
0.00100149
0.00103274
0.00100671
0.00098093
0.000956168
0.000933139
0.000904814
0.000852777
0.000834461
0.000817514
0.000802187
0.000788574
0.000777143
0.00140166
0.00138703
0.00137331
0.0013603
0.00134863
0.00133554
0.00174184
0.0017252
0.00170941
0.00169407
0.00168132
0.00165881
0.00140143
0.00138678
0.001373
0.00135986
0.001348
0.00133469
0.00136432
0.00134755
0.00133156
0.00131633
0.00130147
0.00128687
0.00127308
0.00125948
0.001336
0.00131881
0.00130229
0.00128636
0.00127098
0.00125632
0.00124229
0.00134563
0.00132795
0.00131126
0.00129571
0.00128045
0.00126578
0.00125191
0.00134677
0.00132929
0.0013125
0.00129696
0.00128251
0.00126884
0.0013703
0.00135236
0.00133508
0.00131891
0.00130368
0.00128949
0.00139816
0.00138071
0.00136422
0.00134847
0.00133349
0.00131794
0.00145219
0.00143573
0.00142003
0.00140497
0.00139069
0.00137599
0.00148792
0.00147249
0.00145795
0.00144406
0.00143118
0.00141665
0.00174227
0.00172558
0.00170997
0.0016948
0.00168229
0.00166011
)
;

boundaryField
{
    inlet
    {
        type            fixedValue;
        value           nonuniform List<scalar> 0();
    }
    ami1
    {
        type            cyclicAMI;
        value           nonuniform List<scalar> 0();
    }
    walls
    {
        type            kqRWallFunction;
        value           nonuniform List<scalar> 
244
(
0.00174095
0.00148718
0.00145154
0.00172395
0.00147151
0.00143483
0.00138001
0.00135175
0.00138662
0.00172532
0.00170813
0.00145677
0.00141897
0.00136336
0.00133448
0.00131216
0.00129518
0.00128575
0.00130089
0.00137269
0.00170922
0.00169285
0.00144271
0.00140369
0.00134743
0.00131811
0.0012964
0.00127986
0.00127043
0.00128638
0.00135949
0.00169405
0.00168038
0.00142974
0.00138923
0.00133227
0.00130276
0.0012818
0.00126511
0.00125579
0.00127271
0.00134766
0.0016814
0.00165828
0.00141513
0.00137437
0.0013166
0.00128847
0.00126794
0.00125113
0.00124175
0.00125924
0.00133446
0.00165914
0.00134808
0.00132811
0.0013193
0.001332
0.00140166
0.00174227
0.00172532
0.00147247
0.0014358
0.00138122
0.00135308
0.00132974
0.00131209
0.00130293
0.00131683
0.00138703
0.00172558
0.00170922
0.00145784
0.00141997
0.00136455
0.00133584
0.00131344
0.00129656
0.00128717
0.00130216
0.00137331
0.00170997
0.00169405
0.00144375
0.00140484
0.00134878
0.00131956
0.00129781
0.00128138
0.00127197
0.0012878
0.0013603
0.0016948
0.0016814
0.00143076
0.00139048
0.00133367
0.00130431
0.00128339
0.00126682
0.0012575
0.00127422
0.00134863
0.00168229
0.00165914
0.00141606
0.00137563
0.00131806
0.00129012
0.00126972
0.00125307
0.00124367
0.00126081
0.00133554
0.00166011
0.00136432
0.00134755
0.001336
0.00134563
0.00174184
0.00140143
0.00133156
0.00131881
0.00132795
0.00134677
0.0013703
0.00139816
0.00145219
0.00148792
0.00174227
0.0017252
0.00138678
0.00131633
0.00130229
0.00131126
0.00132929
0.00135236
0.00138071
0.00143573
0.00147249
0.00172558
0.00170941
0.001373
0.00130147
0.00128636
0.00129571
0.0013125
0.00133508
0.00136422
0.00142003
0.00145795
0.00170997
0.00169407
0.00135986
0.00128687
0.00127098
0.00128045
0.00129696
0.00131891
0.00134847
0.00140497
0.00144406
0.0016948
0.00168132
0.001348
0.00127308
0.00125632
0.00126578
0.00128251
0.00130368
0.00133349
0.00139069
0.00143118
0.00168229
0.00165881
0.00133469
0.00125948
0.00124229
0.00125191
0.00126884
0.00128949
0.00131794
0.00137599
0.00141665
0.00166011
0.00174095
0.00137001
0.00139757
0.00145167
0.0014876
0.00174184
0.00172395
0.00138561
0.00131009
0.00132791
0.00135151
0.0013802
0.00143513
0.00147211
0.0017252
0.00170813
0.00137171
0.00129986
0.00128477
0.00129422
0.00131143
0.00133419
0.00136338
0.00141929
0.00145749
0.00170941
0.00169285
0.00135853
0.00128515
0.00126927
0.00127874
0.00129549
0.00131769
0.00134752
0.00140409
0.00144348
0.00169407
0.00168038
0.00134677
0.00127137
0.00125449
0.00126388
0.00128087
0.00130228
0.00133228
0.00138962
0.00143044
0.00168132
0.00165828
0.00133365
0.0012578
0.00124033
0.00124981
0.00126699
0.00128787
0.0013165
0.00137469
0.00141567
0.00165881
)
;
    }
    ami2
    {
        type            cyclicAMI;
        value           nonuniform List<scalar> 0();
    }
    outlet
    {
        type            zeroGradient;
    }
    procBoundary6to5
    {
        type            processor;
        value           nonuniform List<scalar> 
177
(
0.00175932
0.00140045
0.0015037
0.00146919
0.0013975
0.00103364
0.0013975
0.00136988
0.00132843
0.00132843
0.00132843
0.0013107
0.0013107
0.00130152
0.0013157
0.0013157
0.00140116
0.000836398
0.001742
0.00140045
0.00140045
0.00131498
0.000875827
0.00103364
0.000928015
0.00103364
0.00115052
0.00120484
0.001223
0.00118317
0.00104019
0.00104019
0.00104019
0.000899412
0.000899412
0.000836398
0.000836398
0.00148793
0.00131498
0.00131498
0.000928015
0.00104122
0.00113005
0.00128984
0.00138587
0.00142427
0.00139272
0.00139272
0.00128468
0.001129
0.00100581
0.00100581
0.00100581
0.00100581
0.00145239
0.00130093
0.00130093
0.00104122
0.00104122
0.00104122
0.00128585
0.00128585
0.0014733
0.0014733
0.00159213
0.00159213
0.00163548
0.00163548
0.00163548
0.00165878
0.00147297
0.00147297
0.00147297
0.00129011
0.00129011
0.00115099
0.00115099
0.00139849
0.00132657
0.00118489
0.00118489
0.00144754
0.00144754
0.00165946
0.00165946
0.00179714
0.00179714
0.00184588
0.0017972
0.00165454
0.00143829
0.0012414
0.00137105
0.00137105
0.00137105
0.0013464
0.0013464
0.00126421
0.0012235
0.0012235
0.0012235
0.00153415
0.00143734
0.00176584
0.00165434
0.00191851
0.00189769
0.00179737
0.00189769
0.00184612
0.00169982
0.00147919
0.00126481
0.00136702
0.00138904
0.00124122
0.00143734
0.00165434
0.00179737
0.0018461
0.00179737
0.00165956
0.00144761
0.00122353
0.00134651
0.00141626
0.00118276
0.00133652
0.00153087
0.00165993
0.00169981
0.00165457
0.00153065
0.00133505
0.00111327
0.00133647
0.0014691
0.00106167
0.00116973
0.00133584
0.00144836
0.00147901
0.00143802
0.00133681
0.00116949
0.000957668
0.00134811
0.00150382
0.000876015
0.000987634
0.000958684
0.000958684
0.00111589
0.00111589
0.00122495
0.00122495
0.00126454
0.00124083
0.00118313
0.0010618
0.000875247
0.00141724
0.00176001
0.00143314
0.00141704
0.00141704
0.00138252
0.00135412
0.00135412
0.00136594
0.00136671
0.00136671
0.00138957
0.00141654
0.00146957
0.00150416
0.00176033
)
;
    }
}


// ************************************************************************* //
