/*--------------------------------*- C++ -*----------------------------------*\
| =========                 |                                                 |
| \\      /  F ield         | OpenFOAM: The Open Source CFD Toolbox           |
|  \\    /   O peration     | Version:  2212                                  |
|   \\  /    A nd           | Website:  www.openfoam.com                      |
|    \\/     M anipulation  |                                                 |
\*---------------------------------------------------------------------------*/
FoamFile
{
    version     2.0;
    format      ascii;
    arch        "LSB;label=32;scalar=64";
    class       volScalarField;
    location    "3";
    object      nut;
}
// * * * * * * * * * * * * * * * * * * * * * * * * * * * * * * * * * * * * * //

dimensions      [0 2 -1 0 0 0 0];

internalField   nonuniform List<scalar> 
678
(
3.39982e-06
3.38308e-06
3.36736e-06
3.35221e-06
3.33984e-06
3.31799e-06
6.74179e-06
6.70576e-06
6.6719e-06
6.63954e-06
6.60971e-06
6.57603e-06
9.70477e-06
9.6487e-06
9.59519e-06
9.5435e-06
9.49446e-06
9.44385e-06
1.17353e-05
1.16643e-05
1.15958e-05
1.15311e-05
1.14633e-05
1.30267e-05
1.29427e-05
1.28629e-05
1.27882e-05
1.27183e-05
1.33117e-05
1.32264e-05
1.31523e-05
1.30815e-05
1.27482e-05
1.26725e-05
1.25993e-05
1.25297e-05
1.13245e-05
1.12562e-05
1.11909e-05
1.11281e-05
9.18434e-06
9.13232e-06
9.08336e-06
9.03513e-06
6.50762e-06
6.47456e-06
6.44321e-06
6.41514e-06
6.38375e-06
3.38379e-06
3.36793e-06
3.35299e-06
3.34048e-06
3.31853e-06
6.50693e-06
6.47374e-06
6.44218e-06
6.41408e-06
6.38273e-06
6.09438e-06
5.98277e-06
5.85686e-06
5.75251e-06
5.67037e-06
5.64147e-06
1.3469e-05
1.31335e-05
1.2641e-05
1.24004e-05
1.19292e-05
2.08059e-05
2.01336e-05
1.93676e-05
1.90495e-05
1.82876e-05
2.55939e-05
2.46536e-05
2.37913e-05
2.32181e-05
2.22612e-05
2.76341e-05
2.66056e-05
2.57147e-05
2.49555e-05
2.3904e-05
2.59603e-05
2.50193e-05
2.41724e-05
2.34145e-05
2.23334e-05
1.92705e-05
1.85074e-05
1.78107e-05
1.69452e-05
1.16068e-05
1.12898e-05
1.09061e-05
1.06692e-05
5.81035e-06
5.74605e-06
5.64544e-06
5.60362e-06
6.70686e-06
6.67338e-06
6.64115e-06
6.61139e-06
6.57762e-06
9.18324e-06
9.13031e-06
9.08053e-06
9.03155e-06
1.20446e-05
1.16996e-05
1.12091e-05
1.08701e-05
1.06283e-05
2.6091e-05
2.49721e-05
2.37758e-05
2.32507e-05
2.20555e-05
3.82464e-05
3.64677e-05
3.49219e-05
3.3574e-05
3.17485e-05
4.55643e-05
4.34578e-05
4.16691e-05
3.99595e-05
3.76565e-05
4.84926e-05
4.62054e-05
4.42766e-05
4.24361e-05
3.99925e-05
4.57715e-05
4.3885e-05
4.21111e-05
4.04054e-05
3.83391e-05
3.87801e-05
3.68251e-05
3.51823e-05
3.36433e-05
3.17703e-05
2.60765e-05
2.4742e-05
2.40199e-05
2.29247e-05
2.21626e-05
1.3045e-05
1.27592e-05
1.23232e-05
1.19642e-05
9.65094e-06
9.59751e-06
9.54653e-06
9.4979e-06
9.44745e-06
1.13235e-05
1.12541e-05
1.11878e-05
1.1124e-05
1.93186e-05
1.84808e-05
1.77826e-05
1.68677e-05
3.87579e-05
3.68381e-05
3.51982e-05
3.36788e-05
3.17195e-05
5.35613e-05
5.04432e-05
4.85685e-05
4.65496e-05
4.50404e-05
6.22697e-05
5.86032e-05
5.64819e-05
5.41501e-05
5.2454e-05
6.49898e-05
6.12216e-05
5.9285e-05
5.69409e-05
5.52124e-05
6.56816e-05
6.19625e-05
5.95506e-05
5.75943e-05
5.51762e-05
5.33986e-05
5.34027e-05
5.03305e-05
4.87026e-05
4.66923e-05
4.52324e-05
3.80846e-05
3.61963e-05
3.48612e-05
3.3352e-05
3.21091e-05
2.08122e-05
2.00318e-05
1.9551e-05
1.88955e-05
1.84098e-05
1.17408e-05
1.16678e-05
1.16011e-05
1.15361e-05
1.14689e-05
1.28299e-05
1.27481e-05
1.26701e-05
1.25958e-05
1.25253e-05
2.58789e-05
2.49517e-05
2.41214e-05
2.33643e-05
2.22681e-05
4.86774e-05
4.63619e-05
4.43237e-05
4.25004e-05
4.07231e-05
3.84595e-05
6.56006e-05
6.18629e-05
5.94973e-05
5.7653e-05
5.53191e-05
5.35823e-05
7.56409e-05
7.13074e-05
6.85751e-05
6.64048e-05
6.37498e-05
6.17731e-05
7.92156e-05
7.4587e-05
7.17422e-05
6.94093e-05
6.66318e-05
6.45631e-05
7.59465e-05
7.15555e-05
6.87772e-05
6.6592e-05
6.39236e-05
6.19321e-05
6.54682e-05
6.16983e-05
5.93129e-05
5.74203e-05
5.50798e-05
5.32992e-05
4.7822e-05
4.55825e-05
4.36112e-05
4.18587e-05
4.02224e-05
3.81255e-05
2.65224e-05
2.55689e-05
2.46104e-05
2.40433e-05
2.32748e-05
2.25525e-05
1.30328e-05
1.29487e-05
1.28694e-05
1.27952e-05
1.27257e-05
1.33803e-05
1.33088e-05
1.32233e-05
1.31492e-05
1.3078e-05
2.78076e-05
2.67106e-05
2.58189e-05
2.50144e-05
2.39455e-05
5.28139e-05
5.03631e-05
4.83011e-05
4.6333e-05
4.45356e-05
4.27679e-05
4.04086e-05
7.13718e-05
6.73512e-05
6.49149e-05
6.25954e-05
6.0635e-05
5.82001e-05
5.63726e-05
8.24633e-05
7.79332e-05
7.50508e-05
7.2336e-05
7.00269e-05
6.72646e-05
6.51766e-05
8.24358e-05
7.77159e-05
7.49247e-05
7.25926e-05
6.97992e-05
6.77079e-05
7.93507e-05
7.47364e-05
7.19503e-05
6.9658e-05
6.69155e-05
6.48697e-05
6.88306e-05
6.486e-05
6.24421e-05
6.0486e-05
5.80755e-05
5.62345e-05
5.11191e-05
4.87093e-05
4.66011e-05
4.47425e-05
4.29489e-05
4.05819e-05
2.87171e-05
2.76827e-05
2.67092e-05
2.59243e-05
2.52008e-05
2.42946e-05
1.34989e-05
1.33895e-05
1.3316e-05
1.3233e-05
1.31599e-05
1.30901e-05
1.31169e-05
1.30235e-05
1.29431e-05
1.28615e-05
1.27869e-05
1.2716e-05
2.64061e-05
2.54676e-05
2.45109e-05
2.39795e-05
2.32028e-05
2.24345e-05
4.7662e-05
4.54771e-05
4.35427e-05
4.1832e-05
4.02122e-05
3.81172e-05
6.52371e-05
6.15135e-05
5.92835e-05
5.74806e-05
5.52164e-05
5.35369e-05
7.59637e-05
7.16305e-05
6.90305e-05
6.69263e-05
6.4345e-05
6.24246e-05
7.94322e-05
7.48482e-05
7.20314e-05
6.97783e-05
6.70714e-05
6.5057e-05
7.61048e-05
7.16943e-05
6.9006e-05
6.68431e-05
6.42175e-05
6.22754e-05
6.60065e-05
6.22175e-05
5.98172e-05
5.79819e-05
5.56712e-05
5.39547e-05
4.90878e-05
4.67424e-05
4.46819e-05
4.28544e-05
4.10655e-05
3.89774e-05
2.71112e-05
2.61281e-05
2.52245e-05
2.44007e-05
2.37447e-05
2.27769e-05
1.29026e-05
1.28336e-05
1.27558e-05
1.26802e-05
1.26076e-05
1.25389e-05
1.18066e-05
1.17372e-05
1.1663e-05
1.1597e-05
1.15308e-05
1.1463e-05
2.14843e-05
2.08209e-05
1.99961e-05
1.96578e-05
1.89877e-05
1.84584e-05
3.98824e-05
3.80805e-05
3.62918e-05
3.52201e-05
3.36509e-05
3.25305e-05
5.65285e-05
5.32779e-05
5.12096e-05
4.96021e-05
4.75894e-05
4.60961e-05
6.64469e-05
6.26606e-05
6.02237e-05
5.83709e-05
5.60664e-05
5.43125e-05
6.90945e-05
6.51632e-05
6.26966e-05
6.07857e-05
5.84223e-05
5.6599e-05
6.56785e-05
6.19151e-05
5.96227e-05
5.78027e-05
5.5532e-05
5.38139e-05
5.63301e-05
5.31268e-05
5.10693e-05
4.95288e-05
4.75374e-05
4.61079e-05
4.09321e-05
3.8881e-05
3.70124e-05
3.55942e-05
3.41839e-05
3.26803e-05
2.09752e-05
2.01605e-05
1.9368e-05
1.86548e-05
1.80482e-05
1.72797e-05
1.14731e-05
1.14009e-05
1.13309e-05
1.12631e-05
1.11983e-05
1.11362e-05
9.70406e-06
9.64879e-06
9.59546e-06
9.54426e-06
9.4953e-06
9.44455e-06
1.38351e-05
1.35045e-05
1.30579e-05
1.2728e-05
1.23587e-05
1.1986e-05
2.7134e-05
2.60551e-05
2.48176e-05
2.42911e-05
2.32526e-05
2.24801e-05
4.08027e-05
3.88889e-05
3.71162e-05
3.56566e-05
3.42741e-05
3.26387e-05
4.93773e-05
4.70554e-05
4.50061e-05
4.31973e-05
4.14507e-05
3.91983e-05
5.12902e-05
4.8931e-05
4.68552e-05
4.50258e-05
4.32596e-05
4.08832e-05
4.80057e-05
4.58078e-05
4.38646e-05
4.21538e-05
4.05279e-05
3.84712e-05
4.01622e-05
3.82792e-05
3.64651e-05
3.53335e-05
3.37722e-05
3.26816e-05
2.73175e-05
2.61453e-05
2.48786e-05
2.43393e-05
2.33129e-05
2.25467e-05
1.2476e-05
1.21785e-05
1.17265e-05
1.13012e-05
1.09406e-05
1.07198e-05
9.29562e-06
9.24148e-06
9.18891e-06
9.13724e-06
9.08834e-06
9.04009e-06
6.7417e-06
6.70636e-06
6.67299e-06
6.64091e-06
6.61102e-06
6.57705e-06
6.09153e-06
5.99039e-06
5.862e-06
5.76426e-06
5.67428e-06
5.64289e-06
1.24527e-05
1.21909e-05
1.1721e-05
1.12859e-05
1.09355e-05
1.07125e-05
2.08072e-05
2.01174e-05
1.93307e-05
1.86172e-05
1.79859e-05
1.71953e-05
2.71149e-05
2.61662e-05
2.52707e-05
2.44621e-05
2.37776e-05
2.27383e-05
2.88196e-05
2.77787e-05
2.68246e-05
2.60319e-05
2.53279e-05
2.4288e-05
2.65689e-05
2.56319e-05
2.46998e-05
2.41336e-05
2.33874e-05
2.26361e-05
2.15108e-05
2.08678e-05
2.00632e-05
1.97257e-05
1.90772e-05
1.8549e-05
1.3858e-05
1.35035e-05
1.30967e-05
1.26922e-05
1.24089e-05
1.19933e-05
6.07529e-06
5.96325e-06
5.83422e-06
5.72889e-06
5.64202e-06
5.61089e-06
6.54346e-06
6.50852e-06
6.47574e-06
6.44465e-06
6.41678e-06
6.38552e-06
3.40036e-06
3.384e-06
3.36841e-06
3.35327e-06
3.34066e-06
3.3184e-06
6.54374e-06
6.509e-06
6.47628e-06
6.44505e-06
6.41685e-06
6.38513e-06
9.41213e-06
9.35243e-06
9.29561e-06
9.24139e-06
9.18839e-06
9.13615e-06
9.08665e-06
9.03772e-06
1.15493e-05
1.14741e-05
1.1401e-05
1.13303e-05
1.12616e-05
1.1196e-05
1.1133e-05
1.29917e-05
1.29185e-05
1.28296e-05
1.27537e-05
1.26783e-05
1.26053e-05
1.25359e-05
1.34754e-05
1.33999e-05
1.33088e-05
1.32317e-05
1.31575e-05
1.30874e-05
1.31114e-05
1.30311e-05
1.29448e-05
1.28677e-05
1.27929e-05
1.27235e-05
1.18126e-05
1.17364e-05
1.16677e-05
1.15994e-05
1.15357e-05
1.14683e-05
9.70573e-06
9.65043e-06
9.59759e-06
9.54664e-06
9.49824e-06
9.44821e-06
6.74208e-06
6.70671e-06
6.67335e-06
6.64142e-06
6.61183e-06
6.57834e-06
3.40038e-06
3.38392e-06
3.36844e-06
3.35342e-06
3.34102e-06
3.31909e-06
)
;

boundaryField
{
    inlet
    {
        type            calculated;
        value           nonuniform List<scalar> 0();
    }
    ami1
    {
        type            cyclicAMI;
        value           nonuniform List<scalar> 0();
    }
    walls
    {
        type            nutkWallFunction;
        blending        stepwise;
        value           uniform 0;
    }
    ami2
    {
        type            cyclicAMI;
        value           nonuniform List<scalar> 0();
    }
    outlet
    {
        type            calculated;
        value           nonuniform List<scalar> 
121
(
3.31799e-06
6.57603e-06
9.44385e-06
1.14633e-05
1.27183e-05
1.30815e-05
1.25297e-05
1.11281e-05
9.03513e-06
6.38375e-06
3.31853e-06
6.38273e-06
5.64147e-06
1.19292e-05
1.82876e-05
2.22612e-05
2.3904e-05
2.23334e-05
1.69452e-05
1.06692e-05
5.60362e-06
6.57762e-06
9.03155e-06
1.06283e-05
2.20555e-05
3.17485e-05
3.76565e-05
3.99925e-05
3.83391e-05
3.17703e-05
2.21626e-05
1.19642e-05
9.44745e-06
1.1124e-05
1.68677e-05
3.17195e-05
4.50404e-05
5.2454e-05
5.52124e-05
5.33986e-05
4.52324e-05
3.21091e-05
1.84098e-05
1.14689e-05
1.25253e-05
2.22681e-05
3.84595e-05
5.35823e-05
6.17731e-05
6.45631e-05
6.19321e-05
5.32992e-05
3.81255e-05
2.25525e-05
1.27257e-05
1.3078e-05
2.39455e-05
4.04086e-05
5.63726e-05
6.51766e-05
6.77079e-05
6.48697e-05
5.62345e-05
4.05819e-05
2.42946e-05
1.30901e-05
1.2716e-05
2.24345e-05
3.81172e-05
5.35369e-05
6.24246e-05
6.5057e-05
6.22754e-05
5.39547e-05
3.89774e-05
2.27769e-05
1.25389e-05
1.1463e-05
1.84584e-05
3.25305e-05
4.60961e-05
5.43125e-05
5.6599e-05
5.38139e-05
4.61079e-05
3.26803e-05
1.72797e-05
1.11362e-05
9.44455e-06
1.1986e-05
2.24801e-05
3.26387e-05
3.91983e-05
4.08832e-05
3.84712e-05
3.26816e-05
2.25467e-05
1.07198e-05
9.04009e-06
6.57705e-06
5.64289e-06
1.07125e-05
1.71953e-05
2.27383e-05
2.4288e-05
2.26361e-05
1.8549e-05
1.19933e-05
5.61089e-06
6.38552e-06
3.3184e-06
6.38513e-06
9.03772e-06
1.1133e-05
1.25359e-05
1.30874e-05
1.27235e-05
1.14683e-05
9.44821e-06
6.57834e-06
3.31909e-06
)
;
    }
    procBoundary6to5
    {
        type            processor;
        value           nonuniform List<scalar> 
177
(
3.41822e-06
6.54269e-06
6.77976e-06
9.76379e-06
1.18086e-05
1.38956e-05
1.18086e-05
1.31129e-05
1.33854e-05
1.33854e-05
1.33854e-05
1.28263e-05
1.28263e-05
1.13951e-05
9.2376e-06
9.2376e-06
6.54273e-06
6.02871e-06
3.40033e-06
6.54269e-06
6.54269e-06
9.23787e-06
6.35773e-06
1.38956e-05
1.26501e-05
1.38956e-05
2.14405e-05
2.64456e-05
2.85913e-05
2.69113e-05
1.99659e-05
1.99659e-05
1.99659e-05
1.21258e-05
1.21258e-05
6.02871e-06
6.02871e-06
6.74239e-06
9.23787e-06
9.23787e-06
1.26501e-05
1.99874e-05
2.73893e-05
4.04435e-05
4.80612e-05
5.13252e-05
4.88271e-05
4.88271e-05
4.11743e-05
2.73006e-05
1.34059e-05
1.34059e-05
1.34059e-05
1.34059e-05
9.70645e-06
1.13964e-05
1.13964e-05
1.99874e-05
1.99874e-05
1.99874e-05
4.11296e-05
4.11296e-05
5.77469e-05
5.77469e-05
6.7283e-05
6.7283e-05
7.03139e-05
7.03139e-05
7.03139e-05
7.07804e-05
5.74876e-05
5.74876e-05
5.74876e-05
4.03207e-05
4.03207e-05
2.13991e-05
2.13991e-05
1.1811e-05
1.29022e-05
2.69336e-05
2.69336e-05
5.1086e-05
5.1086e-05
7.06571e-05
7.06571e-05
8.1602e-05
8.1602e-05
8.54981e-05
8.18907e-05
7.0432e-05
4.99098e-05
2.70942e-05
1.31158e-05
1.31158e-05
1.31158e-05
1.34886e-05
1.34886e-05
2.96924e-05
2.85358e-05
2.85358e-05
2.85358e-05
5.54075e-05
4.98076e-05
7.67634e-05
7.0199e-05
8.87142e-05
8.89165e-05
8.18262e-05
8.89165e-05
8.55883e-05
7.41076e-05
5.35157e-05
2.96766e-05
1.3579e-05
1.32029e-05
2.72346e-05
4.98076e-05
7.0199e-05
8.18262e-05
8.56532e-05
8.20592e-05
7.10644e-05
5.13272e-05
2.7862e-05
1.3007e-05
1.18894e-05
2.19838e-05
4.19913e-05
6.06814e-05
7.14338e-05
7.43381e-05
7.06475e-05
6.04479e-05
4.27352e-05
2.14476e-05
1.15495e-05
9.76249e-06
1.43036e-05
2.84677e-05
4.31862e-05
5.15851e-05
5.36098e-05
5.0028e-05
4.18004e-05
2.82914e-05
1.30114e-05
9.35344e-06
6.77877e-06
6.35631e-06
1.34381e-05
1.31369e-05
1.31369e-05
2.18062e-05
2.18062e-05
2.80126e-05
2.80126e-05
2.96897e-05
2.71155e-05
2.19967e-05
1.42811e-05
6.32846e-06
6.58106e-06
3.41831e-06
6.61954e-06
6.58117e-06
6.58117e-06
9.47749e-06
1.16296e-05
1.16296e-05
1.31027e-05
1.35888e-05
1.35888e-05
1.321e-05
1.1888e-05
9.7638e-06
6.77934e-06
3.41834e-06
)
;
    }
}


// ************************************************************************* //
