/*--------------------------------*- C++ -*----------------------------------*\
| =========                 |                                                 |
| \\      /  F ield         | OpenFOAM: The Open Source CFD Toolbox           |
|  \\    /   O peration     | Version:  2212                                  |
|   \\  /    A nd           | Website:  www.openfoam.com                      |
|    \\/     M anipulation  |                                                 |
\*---------------------------------------------------------------------------*/
FoamFile
{
    version     2.0;
    format      ascii;
    arch        "LSB;label=32;scalar=64";
    class       volScalarField;
    location    "3";
    object      p;
}
// * * * * * * * * * * * * * * * * * * * * * * * * * * * * * * * * * * * * * //

dimensions      [0 2 -2 0 0 0 0];

internalField   nonuniform List<scalar> 
678
(
0.000597003
0.000488001
0.000379743
0.000271179
0.000164018
5.08213e-05
0.000593138
0.000484501
0.000376682
0.000268776
0.000161677
5.01205e-05
0.000589772
0.00048185
0.000374687
0.000267308
0.000160861
4.97196e-05
0.000480638
0.000373808
0.000266612
0.000160438
4.92668e-05
0.00048216
0.000374783
0.000267062
0.000160565
4.91692e-05
0.000378095
0.000269578
0.000162262
5.01804e-05
0.000381144
0.00027267
0.000164834
5.18589e-05
0.000383631
0.000274815
0.000166303
5.28414e-05
0.000382321
0.000273303
0.000164717
5.2129e-05
0.000492159
0.000383371
0.000274035
0.000165321
5.2318e-05
0.000487954
0.000379661
0.000270876
0.000163978
5.07505e-05
0.000492362
0.000383439
0.000274271
0.000165289
5.22882e-05
0.000601365
0.000492306
0.000383766
0.000274917
0.000166695
5.30481e-05
0.000487906
0.000380274
0.000271978
0.000164782
5.24044e-05
0.000487321
0.000379236
0.000271088
0.000163981
5.25041e-05
0.000488507
0.000379372
0.000270576
0.000162972
5.26161e-05
0.000489071
0.000380067
0.000271332
0.000163088
5.31937e-05
0.000486977
0.000377871
0.000269414
0.000161755
5.28933e-05
0.000380897
0.000272442
0.000164663
5.38026e-05
0.000381956
0.000273513
0.000165941
5.32163e-05
0.000383426
0.00027455
0.000166707
5.29897e-05
0.000484608
0.000376666
0.000268538
0.00016171
5.00804e-05
0.000382599
0.000273659
0.00016483
5.21513e-05
0.000490477
0.0003823
0.000273682
0.000166036
5.34174e-05
0.000477687
0.000370135
0.000263211
0.000157819
5.17284e-05
0.00047123
0.000363696
0.000258015
0.000153624
5.20296e-05
0.00046571
0.00035863
0.00025356
0.000149985
5.19923e-05
0.00046455
0.00035779
0.000252838
0.000149289
5.24433e-05
0.000464531
0.000357579
0.000252742
0.000149179
5.23224e-05
0.000471343
0.000363675
0.000257458
0.000152516
5.23264e-05
0.000477863
0.00037041
0.000263444
0.000157617
5.16155e-05
0.000379913
0.000271814
0.000164738
5.21608e-05
0.000481955
0.000374347
0.000266979
0.000160861
4.95772e-05
0.000383793
0.000274966
0.000166422
5.28765e-05
0.000380729
0.000272202
0.000164569
5.38089e-05
0.000470927
0.000363338
0.000257259
0.000152444
5.21876e-05
0.000460694
0.000354552
0.000251117
0.000148961
5.42662e-05
0.00045307
0.000348625
0.000247144
0.000147111
5.5461e-05
0.000451871
0.000347984
0.000246851
0.000147105
5.5974e-05
0.000559489
0.000452472
0.000348633
0.00024729
0.000147188
5.57086e-05
0.000460454
0.000354414
0.000251207
0.000149293
5.45755e-05
0.000470884
0.000363613
0.000257902
0.000153526
5.23095e-05
0.000487205
0.000379119
0.000270883
0.000163562
5.22718e-05
0.000480485
0.000373291
0.000266176
0.000160229
4.90217e-05
0.000489531
0.000381152
0.000272638
0.000164844
5.18441e-05
0.000486169
0.000377349
0.000269185
0.000161725
5.29507e-05
0.000572293
0.000463959
0.000357143
0.000252413
0.000148897
5.22465e-05
0.000559443
0.000452594
0.000348647
0.000247179
0.000147022
5.56349e-05
0.000550584
0.000445316
0.000343716
0.000244532
0.000147033
5.788e-05
0.000548925
0.00044409
0.000343016
0.000244297
0.000147241
5.85451e-05
0.000550546
0.000445748
0.000344301
0.000244915
0.000147151
5.78571e-05
0.00056018
0.000453311
0.000349395
0.000247945
0.000147719
5.57106e-05
0.000573418
0.000465054
0.000358321
0.000253715
0.000150425
5.24207e-05
0.000597186
0.000488043
0.000379105
0.000270468
0.000162833
5.26449e-05
0.000481879
0.000374041
0.000266248
0.000159981
4.88785e-05
0.000486135
0.000377809
0.000269372
0.000162186
5.01501e-05
0.00048814
0.000379192
0.000270733
0.000162652
5.30776e-05
0.000680594
0.000571578
0.000463514
0.000357026
0.000252515
0.000149177
5.2489e-05
0.000666363
0.000558272
0.000452759
0.000349494
0.000248007
0.000147756
5.62155e-05
0.00065628
0.000549225
0.000445633
0.000344531
0.000245168
0.000147633
5.86451e-05
0.000546877
0.000443287
0.000342846
0.000244377
0.00014705
5.91086e-05
0.000548995
0.00044487
0.000343981
0.000244949
0.000147561
5.86251e-05
0.000558602
0.000452593
0.000349197
0.000247849
0.000147717
5.61682e-05
0.000572135
0.000464165
0.000357623
0.000253136
0.000149826
5.27702e-05
0.000597787
0.000488409
0.000379594
0.00027127
0.000163238
5.3318e-05
0.000594405
0.000485809
0.000377311
0.000268701
0.000161487
4.98605e-05
0.000590348
0.000482333
0.000374369
0.000266534
0.000160277
4.89892e-05
0.000597192
0.000487786
0.000378787
0.000270193
0.000162594
5.25178e-05
0.000572934
0.000464744
0.000358287
0.000253701
0.000150266
5.2338e-05
0.000559839
0.0004537
0.000350157
0.000248505
0.000147991
5.58159e-05
0.00055068
0.000446199
0.000344856
0.000245336
0.000147433
5.79649e-05
0.000549184
0.000445002
0.00034406
0.000244999
0.000147596
5.86281e-05
0.000550804
0.000446251
0.000344903
0.000245413
0.000147518
5.79912e-05
0.000559688
0.000453377
0.000349659
0.000248017
0.000147631
5.58289e-05
0.000572742
0.000464586
0.000357847
0.000253245
0.00014984
5.26845e-05
0.000595852
0.000486129
0.000377253
0.00026922
0.000161868
5.30171e-05
0.000596723
0.000488494
0.000380295
0.000271761
0.00016402
5.15597e-05
0.000588221
0.000480739
0.000373294
0.000266013
0.000160207
4.90593e-05
0.000595557
0.000487048
0.000378531
0.000270392
0.000163305
5.21506e-05
0.000578817
0.000470453
0.000363547
0.000258234
0.000153756
5.23403e-05
0.000568159
0.000460733
0.000355607
0.000252419
0.000150144
5.49302e-05
0.000559729
0.000453426
0.000349739
0.000248051
0.000147569
5.57868e-05
0.000558878
0.000452874
0.000349468
0.000248057
0.000147843
5.62038e-05
0.000560186
0.000453934
0.000350298
0.000248654
0.000148163
5.58552e-05
0.000568365
0.000460748
0.000355458
0.000252341
0.000150218
5.49732e-05
0.000579015
0.00047059
0.000363222
0.0002577
0.000153164
5.26769e-05
0.000597109
0.000488666
0.000379952
0.00027147
0.000163912
5.3506e-05
0.00059959
0.000491329
0.000382924
0.000273969
0.000165449
5.24796e-05
0.000589706
0.000481797
0.000374233
0.000266732
0.000160574
4.94778e-05
0.000595826
0.0004877
0.000379292
0.000271004
0.000164258
5.20304e-05
0.000585298
0.000477489
0.000369628
0.000262734
0.000157265
5.14937e-05
0.000578345
0.000470393
0.000363315
0.000257729
0.000153077
5.26563e-05
0.00057242
0.000464514
0.000357924
0.000253222
0.000149637
5.25654e-05
0.000572298
0.000464306
0.000357722
0.000253117
0.000149655
5.2634e-05
0.000573357
0.000465132
0.000358515
0.000253881
0.000150474
5.2408e-05
0.000578842
0.000470413
0.000363426
0.00025816
0.000153762
5.23366e-05
0.000585185
0.00047744
0.000369609
0.000262747
0.000157278
5.14613e-05
0.000597983
0.000489729
0.00038115
0.000272503
0.00016515
5.29582e-05
0.000599012
0.00049003
0.000381542
0.000272726
0.000164152
5.18728e-05
0.000592945
0.000484287
0.000376234
0.000268223
0.000161352
4.99025e-05
0.000600991
0.000491678
0.000382971
0.000274153
0.000166281
5.27731e-05
0.00059867
0.000490076
0.000381259
0.000272602
0.000165281
5.29901e-05
0.00059708
0.000488609
0.000379856
0.000271426
0.000163965
5.35778e-05
0.000595302
0.000485826
0.00037707
0.000269044
0.000161731
5.30222e-05
0.000597392
0.000488027
0.000379254
0.000270885
0.000162862
5.31828e-05
0.000596719
0.000487514
0.000378643
0.000270138
0.000162571
5.25374e-05
0.000594872
0.000486566
0.000378235
0.000270255
0.000163239
5.21436e-05
0.000595211
0.000487269
0.000379026
0.000270827
0.000164139
5.20337e-05
0.000600427
0.000491253
0.000382722
0.00027397
0.0001661
5.27776e-05
0.000600771
0.000491284
0.00038246
0.000273407
0.000164702
5.20346e-05
0.000596616
0.00048753
0.000379125
0.000270541
0.000163642
5.05891e-05
0.00060115
0.000491522
0.00038253
0.000273407
0.000164723
5.19984e-05
0.000819108
0.00070894
0.00059957
0.000490333
0.000381669
0.000272785
0.000164196
5.18416e-05
0.000708974
0.000600267
0.000491527
0.000382853
0.000273933
0.000165507
5.24877e-05
0.000705672
0.000596809
0.000488391
0.000380109
0.000271686
0.000164105
5.16278e-05
0.000593904
0.000485419
0.000376956
0.000268476
0.000161471
4.99558e-05
0.000589205
0.000481401
0.000373619
0.000265947
0.00015984
4.89059e-05
0.000587434
0.000480019
0.000372719
0.000265559
0.00015988
4.90121e-05
0.000589016
0.000481205
0.000373854
0.000266439
0.000160319
4.94791e-05
0.000592323
0.000483783
0.000375909
0.000267992
0.000161157
4.99062e-05
0.000596069
0.000487109
0.000378866
0.000270334
0.000163435
5.05567e-05
)
;

boundaryField
{
    inlet
    {
        type            zeroGradient;
    }
    ami1
    {
        type            cyclicAMI;
        value           nonuniform List<scalar> 0();
    }
    walls
    {
        type            zeroGradient;
    }
    ami2
    {
        type            cyclicAMI;
        value           nonuniform List<scalar> 0();
    }
    outlet
    {
        type            fixedValue;
        value           uniform 0;
    }
    procBoundary6to5
    {
        type            processor;
        value           nonuniform List<scalar> 
177
(
0.000706592
0.000601851
0.000702295
0.00069851
0.000588123
0.000595674
0.000588123
0.000589928
0.000486354
0.000486354
0.000486354
0.000489295
0.000489295
0.000492038
0.000490855
0.000490855
0.000601083
0.000492122
0.000596442
0.000601851
0.000601851
0.000491279
0.000711448
0.000595674
0.000598709
0.000595674
0.000595153
0.000597328
0.000598106
0.000596467
0.000489326
0.000489326
0.000489326
0.000490368
0.000490368
0.000492122
0.000492122
0.000592717
0.000491279
0.000491279
0.000598709
0.000489171
0.000585097
0.000578987
0.000573535
0.000572176
0.000572871
0.000572871
0.000579461
0.000585447
0.00048787
0.00048787
0.00048787
0.00048787
0.00058973
0.000492401
0.000492401
0.000489171
0.000489171
0.000489171
0.000578854
0.000578854
0.000568896
0.000568896
0.000560553
0.000560553
0.000558848
0.000558848
0.000558848
0.000668118
0.000569014
0.000569014
0.000569014
0.000579002
0.000579002
0.00059519
0.00059519
0.00058801
0.000597967
0.000595993
0.000595993
0.000680697
0.000680697
0.000668007
0.000668007
0.000659042
0.000659042
0.000657257
0.000658898
0.000668713
0.000681586
0.000706401
0.000589748
0.000589748
0.000589748
0.000594943
0.000594943
0.000708061
0.000597861
0.000597861
0.000597861
0.000789996
0.000681631
0.000776104
0.000668404
0.000766215
0.00065436
0.000658907
0.00065436
0.000657011
0.000666968
0.000680465
0.000707411
0.000703453
0.000698968
0.000706723
0.000681631
0.000668404
0.000658907
0.000657227
0.000659069
0.000668139
0.000680921
0.000705856
0.000705778
0.000696555
0.000704146
0.000687149
0.000677059
0.000668328
0.00066728
0.000668642
0.000676917
0.000686821
0.000705665
0.000708752
0.000698266
0.000704629
0.000693161
0.000686593
0.000680837
0.000680664
0.000681628
0.00068699
0.000693025
0.000707139
0.000708613
0.00070191
0.000710736
0.000817612
0.000707582
0.000707582
0.000705632
0.000705632
0.000705532
0.000705532
0.000707116
0.000706003
0.000703532
0.00070407
0.000710336
0.000710672
0.000705945
0.000821382
0.000710917
0.000710917
0.000930224
0.000818701
0.000818701
0.000815306
0.000702889
0.000702889
0.000697912
0.000695816
0.000697581
0.000701326
0.000705496
)
;
    }
}


// ************************************************************************* //
