/*--------------------------------*- C++ -*----------------------------------*\
| =========                 |                                                 |
| \\      /  F ield         | OpenFOAM: The Open Source CFD Toolbox           |
|  \\    /   O peration     | Version:  2212                                  |
|   \\  /    A nd           | Website:  www.openfoam.com                      |
|    \\/     M anipulation  |                                                 |
\*---------------------------------------------------------------------------*/
FoamFile
{
    version     2.0;
    format      ascii;
    arch        "LSB;label=32;scalar=64";
    class       surfaceScalarField;
    location    "3";
    object      phi;
}
// * * * * * * * * * * * * * * * * * * * * * * * * * * * * * * * * * * * * * //

dimensions      [0 3 -1 0 0 0 0];

oriented        oriented;

internalField   nonuniform List<scalar> 
1763
(
5.50792e-08
-3.42423e-08
5.46108e-08
-3.42758e-08
3.47443e-08
5.41785e-08
-3.43189e-08
3.47512e-08
5.37717e-08
-3.4361e-08
3.47678e-08
5.33709e-08
-3.44008e-08
3.48016e-08
-3.44227e-08
3.48468e-08
1.80115e-07
-6.45783e-08
3.18242e-08
1.7871e-07
-6.46758e-08
3.18055e-08
1.77398e-07
-6.4777e-08
3.17699e-08
1.76142e-07
-6.48555e-08
3.17499e-08
1.74969e-07
-6.49589e-08
3.17313e-08
-6.49488e-08
3.18195e-08
3.53598e-07
3.50919e-07
-8.9566e-08
2.75696e-08
3.48342e-07
-8.96504e-08
2.74496e-08
3.45834e-07
-8.9719e-08
2.73717e-08
3.43397e-07
-8.98034e-08
2.72815e-08
-8.98203e-08
2.72182e-08
5.00323e-07
-1.0738e-07
2.15761e-08
4.96669e-07
-1.0742e-07
2.14236e-08
4.93135e-07
-1.07479e-07
2.12948e-08
4.8974e-07
-1.07547e-07
2.11376e-08
-1.07584e-07
2.09016e-08
6.00184e-07
1.44551e-08
5.95715e-07
-1.17165e-07
1.42132e-08
5.91507e-07
-1.17167e-07
1.38956e-08
5.87575e-07
-1.17156e-07
1.35421e-08
-1.17124e-07
1.30818e-08
6.25281e-07
-1.17757e-07
5.01458e-09
6.21074e-07
-1.17716e-07
4.75691e-09
6.17171e-07
-1.17638e-07
4.38574e-09
-1.1752e-07
3.8093e-09
5.78303e-07
-1.08795e-07
-5.34542e-09
5.7483e-07
-1.08722e-07
-5.52131e-09
5.71548e-07
-1.08621e-07
-5.73494e-09
-1.08528e-07
-6.10502e-09
4.67906e-07
-9.10389e-08
-1.47774e-08
4.6504e-07
-9.09726e-08
-1.48835e-08
4.62361e-07
-9.08898e-08
-1.50522e-08
-9.08993e-08
-1.52939e-08
3.1903e-07
-6.59216e-08
-2.30154e-08
3.17047e-07
-6.58836e-08
-2.31054e-08
3.15228e-07
-6.58401e-08
-2.32315e-08
-6.58913e-08
-2.32869e-08
1.67778e-07
-3.47447e-08
1.66618e-07
-3.47491e-08
-3.00124e-08
1.65535e-07
-3.47648e-08
-3.00356e-08
1.64577e-07
-3.47945e-08
-3.00881e-08
-3.48398e-08
-3.00216e-08
5.46414e-08
-3.42863e-08
5.42106e-08
-3.43183e-08
5.37993e-08
-3.43534e-08
5.33991e-08
-3.43942e-08
-3.44119e-08
1.67716e-07
-2.99633e-08
1.66551e-07
-3.00011e-08
6.59175e-08
1.65471e-07
-3.00358e-08
6.58829e-08
1.64505e-07
-3.00765e-08
6.58444e-08
-3.0022e-08
6.58975e-08
4.67257e-07
4.64572e-07
-5.57513e-08
6.02781e-08
4.61967e-07
-5.5837e-08
6.02114e-08
4.59457e-07
-5.59155e-08
6.01393e-08
4.57021e-07
-5.59991e-08
6.00895e-08
-5.61388e-08
6.00104e-08
7.83837e-07
-7.74437e-08
5.18128e-08
7.81263e-07
-7.7497e-08
5.16833e-08
7.78704e-07
-7.75415e-08
5.15574e-08
7.76157e-07
-7.75804e-08
5.14098e-08
-7.77269e-08
5.09973e-08
1.01419e-06
-9.32856e-08
3.94929e-08
1.0121e-06
-9.32953e-08
3.93122e-08
1.01001e-06
-9.32833e-08
3.91331e-08
1.00794e-06
-9.32747e-08
3.89027e-08
-9.33738e-08
3.83542e-08
1.15121e-06
-1.01902e-07
2.4569e-08
1.14972e-06
-1.01923e-07
2.43289e-08
1.14821e-06
-1.01938e-07
2.40619e-08
1.1467e-06
-1.01936e-07
2.37066e-08
-1.02005e-07
2.30577e-08
1.19107e-06
-1.02993e-07
7.36972e-09
1.19004e-06
-1.0301e-07
7.12997e-09
1.18904e-06
-1.03038e-07
6.85718e-09
1.18807e-06
-1.03056e-07
6.47619e-09
-1.03096e-07
5.77193e-09
1.13679e-06
-1.06925e-08
1.13593e-06
-9.66461e-08
-1.08502e-08
1.13508e-06
-9.6647e-08
-1.10542e-08
1.13427e-06
-9.66087e-08
-1.13733e-08
-9.64951e-08
-1.19821e-08
9.91419e-07
-8.22652e-08
-2.77646e-08
9.90003e-07
-8.22153e-08
-2.78994e-08
9.88625e-07
-8.21555e-08
-2.8128e-08
-8.20017e-08
-2.86376e-08
7.58759e-07
-6.0155e-08
-4.27412e-08
7.56381e-07
-6.01011e-08
-4.28418e-08
7.54008e-07
-6.00408e-08
-4.29732e-08
-5.99721e-08
-4.3316e-08
4.62107e-07
-3.17515e-08
-5.58638e-08
4.59637e-07
-3.17415e-08
-5.59255e-08
4.57234e-07
-3.17096e-08
-5.60161e-08
-3.18076e-08
-5.61098e-08
1.78812e-07
-6.46868e-08
1.77494e-07
-6.47514e-08
1.76224e-07
-6.48251e-08
1.7505e-07
-6.49297e-08
-6.49084e-08
3.18891e-07
-2.30062e-08
9.10637e-08
3.16877e-07
-2.31055e-08
9.10021e-08
3.15033e-07
-2.32248e-08
9.09132e-08
-2.32922e-08
9.09188e-08
7.61081e-07
-4.26165e-08
7.58679e-07
-4.27183e-08
8.23256e-08
7.56283e-07
-4.28351e-08
8.22648e-08
7.53887e-07
-4.29535e-08
8.22145e-08
-4.33362e-08
8.20587e-08
1.13258e-06
-6.01892e-08
6.938e-08
1.13246e-06
-6.02378e-08
6.93141e-08
1.13221e-06
-6.02823e-08
6.92552e-08
1.13188e-06
-6.03651e-08
6.91548e-08
-6.06865e-08
6.87795e-08
1.3825e-06
-7.35984e-08
5.14719e-08
1.38381e-06
-7.36015e-08
5.13686e-08
1.38502e-06
-7.36135e-08
5.12446e-08
1.38619e-06
-7.36736e-08
5.10492e-08
-7.3873e-08
5.06334e-08
1.52827e-06
-8.15311e-08
3.0214e-08
1.53047e-06
-8.15307e-08
3.00561e-08
1.5326e-06
-8.15382e-08
2.98592e-08
1.53462e-06
-8.15665e-08
2.95816e-08
-8.16646e-08
2.91282e-08
1.57355e-06
-8.36265e-08
6.66427e-09
1.57629e-06
-8.36429e-08
6.50035e-09
1.57897e-06
-8.36584e-08
6.30054e-09
1.58152e-06
-8.36557e-08
6.01613e-09
-8.36479e-08
5.55676e-09
1.52212e-06
-7.9784e-08
-1.74045e-08
1.52491e-06
-7.97804e-08
-1.75047e-08
1.52762e-06
-7.97505e-08
-1.76679e-08
1.53018e-06
-7.96673e-08
-1.79256e-08
-7.94828e-08
-1.83271e-08
1.37634e-06
-6.93193e-08
-4.01286e-08
1.37825e-06
-6.92677e-08
-4.01872e-08
1.38008e-06
-6.9198e-08
-4.02784e-08
1.38181e-06
-6.90758e-08
-4.04537e-08
-6.87451e-08
-4.0785e-08
1.1327e-06
-6.02039e-08
1.13254e-06
-5.16286e-08
-6.02236e-08
1.13227e-06
-5.15012e-08
-6.02694e-08
1.13193e-06
-5.13343e-08
-6.03651e-08
-5.09872e-08
-6.06296e-08
7.81434e-07
-2.7432e-08
-7.74885e-08
7.78881e-07
-2.73537e-08
-7.75197e-08
7.76348e-07
-2.72511e-08
-7.75662e-08
-2.72243e-08
-7.7663e-08
3.51116e-07
-8.95554e-08
3.48558e-07
-8.96252e-08
3.46059e-07
-8.96797e-08
3.43627e-07
-8.97485e-08
-8.97596e-08
4.67706e-07
-1.4745e-08
1.08845e-07
4.64789e-07
-1.48555e-08
1.08775e-07
4.62068e-07
-1.50357e-08
1.0867e-07
-1.52923e-08
1.0857e-07
9.9138e-07
-2.77605e-08
9.67043e-08
9.89989e-07
-2.79046e-08
9.67049e-08
9.88638e-07
-2.81369e-08
9.66673e-08
-2.86505e-08
9.65533e-08
1.3763e-06
-4.01635e-08
7.98109e-08
1.37826e-06
-4.02226e-08
7.9816e-08
1.38013e-06
-4.03059e-08
7.97926e-08
1.3819e-06
-4.047e-08
7.9712e-08
-4.08044e-08
7.95187e-08
1.63103e-06
-5.02967e-08
5.78284e-08
1.63472e-06
-5.03224e-08
5.77782e-08
1.63831e-06
-5.03603e-08
5.77063e-08
1.64175e-06
-5.04489e-08
5.7589e-08
-5.06186e-08
5.73918e-08
1.78e-06
-5.68503e-08
3.22114e-08
1.78449e-06
-5.68585e-08
3.21065e-08
1.78887e-06
-5.68722e-08
3.19847e-08
1.79309e-06
-5.69018e-08
3.18157e-08
-5.69606e-08
3.15903e-08
1.82826e-06
-5.94158e-08
4.33767e-09
1.83309e-06
-5.94242e-08
4.23728e-09
1.83782e-06
-5.94163e-08
4.11727e-09
1.84237e-06
-5.93883e-08
3.94762e-09
-5.93526e-08
3.76561e-09
1.77352e-06
-2.37108e-08
1.77825e-06
-5.77868e-08
-2.37665e-08
1.78289e-06
-5.77473e-08
-2.38203e-08
1.78742e-06
-5.76914e-08
-2.39163e-08
1.79176e-06
-5.75855e-08
-2.40691e-08
-5.73998e-08
-2.42684e-08
1.63106e-06
-5.13967e-08
-5.02747e-08
1.63474e-06
-5.13126e-08
-5.0297e-08
1.6383e-06
-5.11943e-08
-5.03379e-08
1.64171e-06
-5.10127e-08
-5.04314e-08
-5.0642e-08
-5.0601e-08
1.38258e-06
-3.9408e-08
-7.35995e-08
1.38389e-06
-3.92565e-08
-7.35887e-08
1.3851e-06
-3.9075e-08
-7.36024e-08
1.38623e-06
-3.88447e-08
-7.36582e-08
-3.83683e-08
-7.38299e-08
1.01439e-06
-2.15208e-08
-9.32753e-08
1.01229e-06
-2.13834e-08
-9.32596e-08
1.0102e-06
-2.12586e-08
-9.32481e-08
1.00815e-06
-2.11096e-08
-9.32495e-08
-2.09134e-08
-9.33177e-08
5.00697e-07
-1.07354e-07
4.97064e-07
-1.07376e-07
4.93541e-07
-1.07415e-07
4.90154e-07
-1.07471e-07
-1.07517e-07
5.81699e-07
-5.10312e-09
1.17856e-07
5.78032e-07
-5.30561e-09
1.17818e-07
5.7452e-07
-5.48672e-09
1.17773e-07
5.7121e-07
-5.71096e-09
1.17691e-07
-6.09001e-09
1.17569e-07
1.13687e-06
-1.06991e-08
1.03018e-07
1.13607e-06
-1.08508e-08
1.0305e-07
1.13525e-06
-1.10512e-08
1.03088e-07
1.13447e-06
-1.13772e-08
1.03114e-07
-1.19928e-08
1.03157e-07
1.51915e-06
-1.73396e-08
8.36189e-08
1.52204e-06
-1.74308e-08
8.36439e-08
1.52487e-06
-1.75311e-08
8.36672e-08
1.52762e-06
-1.76908e-08
8.36809e-08
1.53024e-06
-1.79524e-08
8.36734e-08
-1.83568e-08
8.36637e-08
1.77341e-06
-2.37545e-08
5.9443e-08
1.77818e-06
-2.37999e-08
5.94268e-08
1.78286e-06
-2.38418e-08
5.94108e-08
1.78742e-06
-2.39305e-08
5.93869e-08
1.79179e-06
-2.40811e-08
5.93507e-08
-2.42789e-08
5.93141e-08
1.92323e-06
-2.861e-08
3.15455e-08
1.92876e-06
-2.86242e-08
3.15037e-08
1.9342e-06
-2.86381e-08
3.14666e-08
1.9395e-06
-2.86664e-08
3.14237e-08
1.94457e-06
-2.87097e-08
3.137e-08
-2.87668e-08
3.13065e-08
1.97273e-06
-3.15301e-08
1.52691e-09
1.97848e-06
-3.15251e-08
1.48882e-09
1.98415e-06
-3.15162e-08
1.45294e-09
1.98968e-06
-3.14855e-08
1.40505e-09
1.99499e-06
-3.14358e-08
1.36006e-09
-3.13696e-08
1.33085e-09
1.9232e-06
-3.22416e-08
-2.85904e-08
1.9287e-06
-3.21812e-08
-2.86057e-08
1.93411e-06
-3.2122e-08
-2.86236e-08
1.93938e-06
-3.20193e-08
-2.86556e-08
1.94444e-06
-3.18565e-08
-2.8702e-08
-3.16307e-08
-2.87616e-08
1.77539e-06
-3.02709e-08
-5.6846e-08
1.77993e-06
-3.01521e-08
-5.68446e-08
1.78438e-06
-3.00198e-08
-5.68462e-08
1.78872e-06
-2.98319e-08
-5.68605e-08
1.79288e-06
-2.95644e-08
-5.68921e-08
-2.91282e-08
-5.69514e-08
1.52592e-06
-2.47e-08
-8.15373e-08
1.52819e-06
-2.44894e-08
-8.1531e-08
1.53039e-06
-2.42845e-08
-8.15276e-08
1.53251e-06
-2.40223e-08
-8.15348e-08
1.53452e-06
-2.36648e-08
-8.15622e-08
-2.30518e-08
-8.16536e-08
1.15288e-06
-1.01864e-07
1.15139e-06
-1.43926e-08
-1.01878e-07
1.1499e-06
-1.41788e-08
-1.01884e-07
1.14841e-06
-1.38761e-08
-1.01897e-07
1.14692e-06
-1.35253e-08
-1.01902e-07
-1.30826e-08
-1.01967e-07
6.00738e-07
-1.17124e-07
5.96303e-07
-1.17119e-07
5.92127e-07
-1.17116e-07
5.88228e-07
-1.17097e-07
-1.17072e-07
6.29575e-07
5.28857e-09
1.17202e-07
6.25118e-07
5.06837e-09
1.17207e-07
6.20874e-07
4.79678e-09
1.17219e-07
6.16949e-07
4.40757e-09
1.17209e-07
3.82097e-09
1.17174e-07
1.19098e-06
7.40392e-09
1.01927e-07
1.19e-06
7.16756e-09
1.01932e-07
1.18906e-06
6.88111e-09
1.01945e-07
1.18814e-06
6.48209e-09
1.01956e-07
5.774e-09
1.02034e-07
1.56777e-06
6.87512e-09
1.57066e-06
6.77628e-09
8.15473e-08
1.5735e-06
6.66871e-09
8.15375e-08
1.57629e-06
6.51743e-09
8.15299e-08
1.57901e-06
6.30938e-09
8.15328e-08
1.58159e-06
6.01633e-09
8.15571e-08
5.55523e-09
8.16528e-08
1.8184e-06
4.42853e-09
1.82338e-06
4.3776e-09
5.68551e-08
1.82829e-06
4.34005e-09
5.68523e-08
1.8331e-06
4.27382e-09
5.68392e-08
1.83781e-06
4.15278e-09
5.68388e-08
1.84234e-06
3.97619e-09
5.68606e-08
3.78868e-09
5.69176e-08
1.96691e-06
1.97276e-06
1.48444e-09
2.85865e-08
1.97851e-06
1.48828e-09
2.86066e-08
1.98416e-06
1.47599e-09
2.86109e-08
1.98967e-06
1.43729e-09
2.86264e-08
1.99496e-06
1.39562e-09
2.86623e-08
1.36518e-09
2.87189e-08
2.02244e-06
-1.53558e-09
-1.52184e-09
2.02843e-06
-1.50913e-09
-1.50212e-09
2.03433e-06
-1.48523e-09
-1.48946e-09
2.04008e-06
-1.44411e-09
-1.45798e-09
2.04565e-06
-1.40036e-09
-1.41929e-09
-1.36785e-09
-1.38728e-09
1.97262e-06
-4.40569e-09
-3.15239e-08
1.97834e-06
-4.33198e-09
-3.1509e-08
1.98399e-06
-4.26184e-09
-3.14971e-08
1.98951e-06
-4.14469e-09
-3.147e-08
1.99481e-06
-3.97311e-09
-3.14256e-08
-3.78827e-09
-3.13633e-08
1.8232e-06
-6.76331e-09
-5.94187e-08
1.82806e-06
-6.62376e-09
-5.94116e-08
1.83284e-06
-6.47418e-09
-5.94128e-08
1.83751e-06
-6.27481e-09
-5.94028e-08
1.84202e-06
-5.99063e-09
-5.93766e-08
-5.53636e-09
-5.93432e-08
1.57058e-06
-7.52245e-09
-8.36145e-08
1.57335e-06
-7.30102e-09
-8.36266e-08
1.57606e-06
-7.07678e-09
-8.36387e-08
1.57871e-06
-6.81038e-09
-8.36476e-08
1.58124e-06
-6.4361e-09
-8.36429e-08
-5.75208e-09
-8.36357e-08
1.19226e-06
-5.40353e-09
-1.02959e-07
1.19123e-06
-5.18466e-09
-1.02966e-07
1.19021e-06
-4.9621e-09
-1.0298e-07
1.18923e-06
-4.71595e-09
-1.03004e-07
1.18827e-06
-4.36189e-09
-1.03023e-07
-3.79793e-09
-1.03067e-07
6.34877e-07
-1.17793e-07
6.30324e-07
-1.17755e-07
6.25967e-07
-1.17724e-07
6.21822e-07
-1.17687e-07
6.17971e-07
-1.17608e-07
-1.17491e-07
6.04832e-07
1.46313e-08
1.07418e-07
6.00132e-07
1.44644e-08
1.07438e-07
5.95635e-07
1.42413e-08
1.07463e-07
5.91418e-07
1.39197e-08
1.07516e-07
5.87491e-07
1.35594e-08
1.07577e-07
1.31089e-08
1.07616e-07
1.1527e-06
2.47369e-08
9.33303e-08
1.15122e-06
2.45341e-08
9.33389e-08
1.14974e-06
2.43319e-08
9.33226e-08
1.14823e-06
2.40706e-08
9.33026e-08
1.14673e-06
2.37054e-08
9.33079e-08
2.30888e-08
9.33847e-08
1.52597e-06
3.02808e-08
7.36475e-08
1.52825e-06
3.01604e-08
7.36312e-08
1.53047e-06
3.00299e-08
7.36074e-08
1.53262e-06
2.98454e-08
7.36102e-08
1.53464e-06
2.95776e-08
7.36648e-08
2.91457e-08
7.38379e-08
1.77543e-06
3.22189e-08
5.02879e-08
1.77998e-06
3.21634e-08
5.02953e-08
1.78445e-06
3.21112e-08
5.02878e-08
1.7888e-06
3.20103e-08
5.03223e-08
1.79298e-06
3.18476e-08
5.04136e-08
3.16241e-08
5.05852e-08
1.92312e-06
3.15129e-08
2.3713e-08
1.92863e-06
3.14957e-08
2.377e-08
1.93405e-06
3.14819e-08
2.38211e-08
1.93932e-06
3.14524e-08
2.39123e-08
1.94436e-06
3.14058e-08
2.40619e-08
3.1344e-08
2.42605e-08
1.97261e-06
2.85945e-08
-4.40742e-09
1.97834e-06
2.86049e-08
-4.3355e-09
1.98398e-06
2.86135e-08
-4.26705e-09
1.98949e-06
2.8638e-08
-4.15196e-09
1.99478e-06
2.86793e-08
-3.98023e-09
2.87377e-08
-3.79237e-09
1.92311e-06
2.37355e-08
-3.22264e-08
1.92859e-06
2.37876e-08
-3.21694e-08
1.93399e-06
2.38339e-08
-3.21135e-08
1.93924e-06
2.39228e-08
-3.20104e-08
1.94428e-06
2.40685e-08
-3.18473e-08
2.42621e-08
-3.16213e-08
1.77331e-06
1.73292e-08
-5.77922e-08
1.778e-06
1.74406e-08
-5.7762e-08
1.78261e-06
1.75592e-08
-5.77466e-08
1.7871e-06
1.77254e-08
-5.7693e-08
1.7914e-06
1.79762e-08
-5.7586e-08
1.83652e-08
-5.73967e-08
1.51904e-06
1.05624e-08
-7.97408e-08
1.52184e-06
1.07403e-08
-7.97349e-08
1.52458e-06
1.09199e-08
-7.97329e-08
1.52724e-06
1.11326e-08
-7.97125e-08
1.52977e-06
1.14427e-08
-7.9642e-08
1.20274e-08
-7.9469e-08
1.1378e-06
4.89141e-09
-9.65689e-08
1.13701e-06
5.16358e-09
-9.66003e-08
1.13618e-06
5.3799e-09
-9.66105e-08
1.13534e-06
5.57181e-09
-9.66011e-08
1.13453e-06
5.78911e-09
-9.65646e-08
6.14017e-09
-9.64664e-08
5.86206e-07
-1.08979e-07
5.82491e-07
-1.08876e-07
5.78938e-07
-1.08791e-07
5.75537e-07
-1.08714e-07
5.7233e-07
-1.08612e-07
-1.08518e-07
5.04158e-07
2.17224e-08
8.9548e-08
5.00409e-07
2.15559e-08
8.9631e-08
4.96741e-07
2.14419e-08
8.96881e-08
4.93193e-07
2.1324e-08
8.97403e-08
4.89793e-07
2.11572e-08
8.98202e-08
2.09431e-08
8.9833e-08
1.01634e-06
3.96323e-08
7.74842e-08
1.01426e-06
3.94567e-08
7.75203e-08
1.01216e-06
3.93134e-08
7.75515e-08
1.01007e-06
3.91383e-08
7.75758e-08
1.00803e-06
3.88942e-08
7.76144e-08
3.84089e-08
7.77174e-08
1.38117e-06
5.15176e-08
6.02421e-08
1.38257e-06
5.14254e-08
6.02603e-08
1.38387e-06
5.13564e-08
6.02611e-08
1.38509e-06
5.12355e-08
6.03e-08
1.3862e-06
5.10431e-08
6.03969e-08
5.06717e-08
6.06602e-08
1.62727e-06
5.78187e-08
4.01665e-08
1.631e-06
5.77877e-08
4.02041e-08
1.63464e-06
5.77728e-08
4.02358e-08
1.63816e-06
5.77181e-08
4.03146e-08
1.64154e-06
5.76084e-08
4.04743e-08
5.74181e-08
4.0795e-08
1.77327e-06
5.94327e-08
1.73286e-08
1.77797e-06
5.94234e-08
1.7438e-08
1.78258e-06
5.94209e-08
1.75553e-08
1.78709e-06
5.94068e-08
1.77212e-08
1.7914e-06
5.93765e-08
1.7982e-08
5.93423e-08
1.83839e-08
1.8232e-06
5.68699e-08
-6.76356e-09
1.82805e-06
5.6863e-08
-6.62243e-09
1.83282e-06
5.6853e-08
-6.47021e-09
1.83749e-06
5.68587e-08
-6.26881e-09
1.84198e-06
5.68838e-08
-5.97899e-09
5.69405e-08
-5.51812e-09
1.77537e-06
5.03011e-08
-3.02604e-08
1.77988e-06
5.03117e-08
-3.01313e-08
1.7843e-06
5.0307e-08
-2.9993e-08
1.78862e-06
5.03415e-08
-2.98039e-08
1.79276e-06
5.043e-08
-2.95364e-08
5.05959e-08
-2.91014e-08
1.62725e-06
4.01542e-08
-5.14672e-08
1.63096e-06
4.02085e-08
-5.13699e-08
1.63457e-06
4.02479e-08
-5.12961e-08
1.63807e-06
4.03255e-08
-5.11727e-08
1.64142e-06
4.04785e-08
-5.09826e-08
4.07883e-08
-5.06147e-08
1.37424e-06
2.76586e-08
-6.93375e-08
1.37623e-06
2.77491e-08
-6.92684e-08
1.37813e-06
2.78465e-08
-6.92287e-08
1.37993e-06
2.79786e-08
-6.91636e-08
1.38162e-06
2.81828e-08
-6.90418e-08
2.86515e-08
-6.87174e-08
9.94282e-07
1.46295e-08
-8.23283e-08
9.93e-07
1.47274e-08
-8.22971e-08
9.91663e-07
1.48144e-08
-8.22417e-08
9.90314e-07
1.49098e-08
-8.21832e-08
9.89007e-07
1.50668e-08
-8.21417e-08
1.52964e-08
-8.20036e-08
4.7438e-07
-9.12091e-08
4.71342e-07
-9.11097e-08
4.684e-07
-9.10356e-08
4.65578e-07
-9.09815e-08
4.6294e-07
-9.09067e-08
-9.09126e-08
3.53669e-07
2.76686e-08
6.46285e-08
3.51025e-07
2.7552e-08
6.47231e-08
3.48445e-07
2.74648e-08
6.4803e-08
3.45917e-07
2.74053e-08
6.48632e-08
3.43466e-07
2.73053e-08
6.49652e-08
2.72631e-08
6.49478e-08
7.86542e-07
5.18872e-08
5.57768e-08
7.84002e-07
5.17798e-08
5.58328e-08
7.81446e-07
5.16875e-08
5.5884e-08
7.78915e-07
5.15763e-08
5.59364e-08
7.76397e-07
5.14163e-08
5.60212e-08
5.10529e-08
5.61288e-08
1.13273e-06
6.94075e-08
4.2623e-08
1.13272e-06
6.9353e-08
4.26893e-08
1.13258e-06
6.93178e-08
4.27719e-08
1.13233e-06
6.92527e-08
4.28777e-08
1.13201e-06
6.91281e-08
4.30012e-08
6.87967e-08
4.33381e-08
1.37428e-06
7.97754e-08
2.76792e-08
1.37631e-06
7.97826e-08
2.77412e-08
1.37824e-06
7.97888e-08
2.78321e-08
1.38007e-06
7.97718e-08
2.79664e-08
1.3818e-06
7.96995e-08
2.81782e-08
7.95217e-08
2.86602e-08
1.51907e-06
8.36298e-08
1.05653e-08
1.5219e-06
8.36472e-08
1.07366e-08
1.52467e-06
8.36668e-08
1.09117e-08
1.52736e-06
8.3681e-08
1.11233e-08
1.52991e-06
8.36769e-08
1.14467e-08
8.36705e-08
1.20496e-08
1.57063e-06
8.15568e-08
-7.53219e-09
1.57341e-06
8.15534e-08
-7.30705e-09
1.57613e-06
8.15539e-08
-7.07982e-09
1.57879e-06
8.15627e-08
-6.80906e-09
1.58132e-06
8.15881e-08
-6.41911e-09
8.16788e-08
-5.71583e-09
1.52595e-06
7.36459e-08
-2.46919e-08
1.52821e-06
7.36431e-08
-2.44752e-08
1.5304e-06
7.363e-08
-2.42624e-08
1.53252e-06
7.36385e-08
-2.39955e-08
1.53451e-06
7.3693e-08
-2.36332e-08
7.38607e-08
-2.30171e-08
1.38115e-06
6.02321e-08
-3.95606e-08
1.38253e-06
6.02684e-08
-3.93832e-08
1.38382e-06
6.02795e-08
-3.92369e-08
1.38503e-06
6.03206e-08
-3.90601e-08
1.38614e-06
6.04149e-08
-3.88178e-08
6.0674e-08
-3.83355e-08
1.13278e-06
4.26294e-08
-5.182e-08
1.13277e-06
4.27071e-08
-5.16985e-08
1.13262e-06
4.27883e-08
-5.15919e-08
1.13237e-06
4.28949e-08
-5.14812e-08
1.13205e-06
4.30195e-08
-5.13319e-08
4.33479e-08
-5.09676e-08
7.63793e-07
2.2863e-08
-6.0279e-08
7.61476e-07
2.29505e-08
-6.02228e-08
7.59142e-07
2.30409e-08
-6.01604e-08
7.56832e-07
2.31237e-08
-6.0102e-08
7.54526e-07
2.32379e-08
-6.00543e-08
2.32898e-08
-5.99874e-08
3.2358e-07
-6.6031e-08
3.21391e-07
-6.59703e-08
3.19311e-07
-6.59152e-08
3.17336e-07
-6.58822e-08
3.15512e-07
-6.58448e-08
-6.58982e-08
1.8017e-07
3.18202e-08
3.42655e-08
1.78791e-07
3.1803e-08
3.42992e-08
1.7748e-07
3.17779e-08
3.43354e-08
1.76206e-07
3.17702e-08
3.43675e-08
1.75016e-07
3.17486e-08
3.44062e-08
3.1844e-08
3.44236e-08
4.67421e-07
6.03146e-08
2.998e-08
4.64788e-07
6.02757e-08
2.99933e-08
4.62205e-07
6.02229e-08
3.00221e-08
4.59697e-07
6.01706e-08
3.00439e-08
4.57259e-07
6.01243e-08
3.0083e-08
6.00527e-08
3.00195e-08
7.6367e-07
8.23883e-08
2.28668e-08
7.61315e-07
8.23771e-08
2.29438e-08
7.58951e-07
8.23265e-08
2.30315e-08
7.56612e-07
8.22721e-08
2.31155e-08
7.54273e-07
8.22326e-08
2.32314e-08
8.2089e-08
2.32854e-08
9.94232e-07
9.66261e-08
1.46178e-08
9.92975e-07
9.66782e-08
1.46968e-08
9.91656e-07
9.66977e-08
1.47803e-08
9.90321e-07
9.66934e-08
1.488e-08
9.89026e-07
9.66578e-08
1.50478e-08
9.65553e-08
1.52912e-08
1.13782e-06
1.03002e-07
4.8638e-09
1.13708e-06
1.03024e-07
5.13039e-09
1.13629e-06
1.0305e-07
5.34767e-09
1.13549e-06
1.03082e-07
5.53846e-09
1.13473e-06
1.03106e-07
5.76337e-09
1.0315e-07
6.13294e-09
1.19228e-06
1.01903e-07
-5.42752e-09
1.19127e-06
1.01921e-07
-5.20243e-09
1.19029e-06
1.01935e-07
-4.98058e-09
1.18933e-06
1.01953e-07
-4.72283e-09
1.18841e-06
1.01963e-07
-4.35359e-09
1.02037e-07
-3.77618e-09
1.15292e-06
9.33062e-08
-1.45811e-08
1.15144e-06
9.33207e-08
-1.43934e-08
1.14997e-06
9.33121e-08
-1.41688e-08
1.14848e-06
9.32977e-08
-1.38539e-08
1.14701e-06
9.33046e-08
-1.34993e-08
9.33822e-08
-1.30544e-08
1.01653e-06
7.74642e-08
-2.16825e-08
1.01447e-06
7.74991e-08
-2.15066e-08
1.01239e-06
7.75398e-08
-2.13844e-08
1.01032e-06
7.75685e-08
-2.12639e-08
1.00831e-06
7.76029e-08
-2.10984e-08
7.7712e-08
-2.08909e-08
7.86695e-07
5.5763e-08
-2.76408e-08
7.84191e-07
5.5821e-08
-2.75164e-08
7.81675e-07
5.58817e-08
-2.7418e-08
7.7918e-07
5.59369e-08
-2.7355e-08
7.76696e-07
5.60149e-08
-2.72593e-08
5.61251e-08
-2.72137e-08
4.67491e-07
2.99705e-08
-3.18046e-08
4.64888e-07
2.99857e-08
-3.17841e-08
4.62343e-07
3.00193e-08
-3.17533e-08
4.59877e-07
3.00423e-08
-3.17415e-08
4.57479e-07
3.00799e-08
-3.17214e-08
3.00165e-08
-3.18145e-08
1.69096e-07
-3.47397e-08
1.67858e-07
-3.47466e-08
1.66714e-07
-3.47521e-08
1.65642e-07
-3.47676e-08
1.64677e-07
-3.48004e-08
-3.48461e-08
5.51076e-08
3.4751e-08
5.46474e-08
3.47594e-08
5.42155e-08
3.47673e-08
5.38018e-08
3.47812e-08
5.33928e-08
3.48152e-08
3.48573e-08
1.69084e-07
6.60497e-08
1.6784e-07
6.59971e-08
1.6668e-07
6.59487e-08
1.65587e-07
6.59182e-08
1.64603e-07
6.58826e-08
6.59308e-08
3.28311e-07
3.25857e-07
9.13347e-08
3.23523e-07
9.12507e-08
3.21297e-07
9.11665e-08
3.19174e-07
9.11034e-08
3.17157e-07
9.1051e-08
3.153e-07
9.0971e-08
9.09699e-08
4.77447e-07
1.09156e-07
4.74249e-07
1.09067e-07
4.71143e-07
1.0897e-07
4.68141e-07
1.08885e-07
4.65263e-07
1.08809e-07
4.62581e-07
1.08702e-07
1.08599e-07
5.89982e-07
5.8603e-07
1.17883e-07
5.82278e-07
1.17852e-07
5.78687e-07
1.17824e-07
5.75247e-07
1.17787e-07
5.72006e-07
1.17706e-07
1.17581e-07
6.34646e-07
1.17188e-07
6.30098e-07
1.17198e-07
6.2574e-07
1.17201e-07
6.21598e-07
1.17206e-07
6.17756e-07
1.17194e-07
1.17164e-07
6.05179e-07
1.07373e-07
6.00576e-07
1.07408e-07
5.96167e-07
1.07441e-07
5.92024e-07
1.07495e-07
5.88164e-07
1.07555e-07
1.07597e-07
5.04386e-07
8.95103e-08
5.00689e-07
8.95981e-08
4.97088e-07
8.96582e-08
4.93605e-07
8.97136e-08
4.90264e-07
8.97983e-08
8.9813e-08
3.53792e-07
6.46018e-08
3.51173e-07
6.47e-08
3.4863e-07
6.4784e-08
3.46143e-07
6.48456e-08
3.43734e-07
6.49476e-08
6.49362e-08
1.80197e-07
3.42532e-08
1.78825e-07
3.42883e-08
1.7753e-07
3.43259e-08
1.76273e-07
3.43606e-08
1.75101e-07
3.43981e-08
3.44188e-08
5.5116e-08
5.46577e-08
5.42316e-08
5.38246e-08
5.34223e-08
)
;

boundaryField
{
    inlet
    {
        type            calculated;
        value           nonuniform List<scalar> 0();
    }
    ami1
    {
        type            cyclicAMI;
        value           nonuniform List<scalar> 0();
    }
    walls
    {
        type            calculated;
        value           nonuniform List<scalar> 
244
(
2.90979e-14
2.43942e-14
1.84387e-14
2.90979e-14
2.43942e-14
1.84387e-14
1.28555e-14
6.40674e-15
-2.43942e-14
-2.90979e-14
2.90979e-14
2.43942e-14
1.84387e-14
1.28555e-14
6.40674e-15
1.3483e-21
-6.40674e-15
-1.28555e-14
-1.84387e-14
-2.43942e-14
-2.90979e-14
2.90979e-14
2.43942e-14
1.84387e-14
1.28555e-14
6.40674e-15
1.3483e-21
-6.40674e-15
-1.28555e-14
-1.84387e-14
-2.43942e-14
-2.90979e-14
2.90979e-14
2.43942e-14
1.84387e-14
1.28555e-14
6.40674e-15
1.0774e-21
-6.40674e-15
-1.28555e-14
-1.84387e-14
-2.43942e-14
-2.90979e-14
2.90979e-14
2.43942e-14
1.84387e-14
1.28555e-14
6.40674e-15
1.34882e-21
-6.40674e-15
-1.28555e-14
-1.84387e-14
-2.43942e-14
-2.90979e-14
1.3483e-21
-6.40674e-15
-1.28555e-14
-1.84387e-14
-2.43942e-14
-2.90979e-14
2.90979e-14
2.43942e-14
1.84387e-14
1.28555e-14
6.40674e-15
1.34856e-21
-6.40674e-15
-1.28555e-14
-1.84387e-14
-2.43942e-14
-2.90979e-14
2.90979e-14
2.43942e-14
1.84387e-14
1.28555e-14
6.40674e-15
1.3483e-21
-6.40674e-15
-1.28555e-14
-1.84387e-14
-2.43942e-14
-2.90979e-14
2.90979e-14
2.43942e-14
1.84387e-14
1.28555e-14
6.40674e-15
1.3483e-21
-6.40674e-15
-1.28555e-14
-1.84387e-14
-2.43942e-14
-2.90979e-14
2.90979e-14
2.43942e-14
1.84387e-14
1.28555e-14
6.40674e-15
1.0774e-21
-6.40674e-15
-1.28555e-14
-1.84387e-14
-2.43942e-14
-2.90979e-14
2.90979e-14
2.43942e-14
1.84387e-14
1.28555e-14
6.40674e-15
1.34882e-21
-6.40674e-15
-1.28555e-14
-1.84387e-14
-2.43942e-14
-2.90979e-14
-1.84387e-14
-1.84387e-14
-1.28555e-14
-6.40674e-15
-2.90979e-14
-2.43942e-14
-1.84387e-14
-1.28555e-14
-6.40674e-15
8.11316e-22
6.40674e-15
1.28555e-14
1.84387e-14
2.43942e-14
2.90979e-14
-2.90979e-14
-2.43942e-14
-1.84387e-14
-1.28555e-14
-6.40674e-15
8.11316e-22
6.40674e-15
1.28555e-14
1.84387e-14
2.43942e-14
2.90979e-14
-2.90979e-14
-2.43942e-14
-1.84387e-14
-1.28555e-14
-6.40674e-15
8.11316e-22
6.40674e-15
1.28555e-14
1.84387e-14
2.43942e-14
2.90979e-14
-2.90979e-14
-2.43942e-14
-1.84387e-14
-1.28555e-14
-6.40674e-15
8.11316e-22
6.40674e-15
1.28555e-14
1.84387e-14
2.43942e-14
2.90979e-14
-2.90979e-14
-2.43942e-14
-1.84387e-14
-1.28555e-14
-6.40674e-15
1.08782e-21
6.40674e-15
1.28555e-14
1.84387e-14
2.43942e-14
2.90979e-14
-2.90979e-14
-2.43942e-14
-1.84387e-14
-1.28555e-14
-6.40674e-15
8.1201e-22
6.40674e-15
1.28555e-14
1.84387e-14
2.43942e-14
2.90979e-14
-2.90979e-14
6.40674e-15
1.28555e-14
1.84387e-14
2.43942e-14
2.90979e-14
-2.90979e-14
-2.43942e-14
-6.40674e-15
8.11316e-22
6.40674e-15
1.28555e-14
1.84387e-14
2.43942e-14
2.90979e-14
-2.90979e-14
-2.43942e-14
-1.84387e-14
-1.28555e-14
-6.40674e-15
8.11316e-22
6.40674e-15
1.28555e-14
1.84387e-14
2.43942e-14
2.90979e-14
-2.90979e-14
-2.43942e-14
-1.84387e-14
-1.28555e-14
-6.40674e-15
8.11316e-22
6.40674e-15
1.28555e-14
1.84387e-14
2.43942e-14
2.90979e-14
-2.90979e-14
-2.43942e-14
-1.84387e-14
-1.28555e-14
-6.40674e-15
1.08782e-21
6.40674e-15
1.28555e-14
1.84387e-14
2.43942e-14
2.90979e-14
-2.90979e-14
-2.43942e-14
-1.84387e-14
-1.28555e-14
-6.40674e-15
8.1201e-22
6.40674e-15
1.28555e-14
1.84387e-14
2.43942e-14
2.90979e-14
)
;
    }
    ami2
    {
        type            cyclicAMI;
        value           nonuniform List<scalar> 0();
    }
    outlet
    {
        type            calculated;
        value           nonuniform List<scalar> 
121
(
5.29468e-08
1.73676e-07
3.4105e-07
4.86602e-07
5.84033e-07
6.13757e-07
5.68661e-07
4.60026e-07
3.13507e-07
1.63547e-07
5.29712e-08
1.63476e-07
4.54947e-07
7.73966e-07
1.00613e-06
1.14536e-06
1.1872e-06
1.13354e-06
9.87476e-07
7.52008e-07
4.55158e-07
1.73738e-07
3.13304e-07
7.51883e-07
1.13145e-06
1.38709e-06
1.53634e-06
1.58372e-06
1.53236e-06
1.38322e-06
1.13148e-06
7.74138e-07
3.41254e-07
4.5971e-07
9.87501e-07
1.38332e-06
1.64481e-06
1.79697e-06
1.84655e-06
1.79575e-06
1.64476e-06
1.38716e-06
1.00635e-06
4.86998e-07
5.68301e-07
1.13377e-06
1.53246e-06
1.79579e-06
1.94934e-06
2.00003e-06
1.94919e-06
1.79673e-06
1.53626e-06
1.1456e-06
5.84701e-07
6.13523e-07
1.18731e-06
1.58382e-06
1.8465e-06
1.99997e-06
2.0511e-06
1.99983e-06
1.84616e-06
1.58344e-06
1.18742e-06
6.14592e-07
5.8394e-07
1.1454e-06
1.5364e-06
1.79683e-06
1.9491e-06
1.99979e-06
1.94901e-06
1.79535e-06
1.53194e-06
1.13382e-06
5.69497e-07
4.86633e-07
1.00623e-06
1.38712e-06
1.64458e-06
1.79535e-06
1.84611e-06
1.79658e-06
1.64444e-06
1.38301e-06
9.87899e-07
4.60631e-07
3.41089e-07
7.74196e-07
1.13159e-06
1.38321e-06
1.5321e-06
1.58351e-06
1.53624e-06
1.38705e-06
1.13163e-06
7.52568e-07
3.13787e-07
1.73696e-07
4.5516e-07
7.5229e-07
9.87928e-07
1.13405e-06
1.18758e-06
1.1457e-06
1.00653e-06
7.74529e-07
4.55415e-07
1.63642e-07
5.29592e-08
1.63549e-07
3.13546e-07
4.60243e-07
5.69157e-07
6.14397e-07
5.84677e-07
4.87157e-07
3.41397e-07
1.73804e-07
5.29949e-08
)
;
    }
    procBoundary6to5
    {
        type            processor;
        value           nonuniform List<scalar> 
177
(
-5.55763e-08
3.47395e-08
-1.81603e-07
-3.56392e-07
-8.94717e-08
2.76878e-08
-5.04085e-07
-6.04853e-07
-1.17167e-07
-6.29703e-07
-5.23635e-09
-5.81919e-07
5.14193e-09
-4.70885e-07
-3.21132e-07
6.59671e-08
-1.69023e-07
-2.99772e-08
-5.50998e-08
-1.68979e-07
2.99475e-08
6.59711e-08
-4.70009e-07
-5.57093e-08
6.0338e-08
-7.86388e-07
-1.01627e-06
-1.1527e-06
-1.19211e-06
-1.13762e-06
-9.66167e-08
-9.92812e-07
2.7678e-08
-7.61143e-07
4.26405e-08
-4.64659e-07
3.17823e-08
-1.80194e-07
-3.21031e-07
2.29064e-08
-7.63447e-07
8.23537e-08
-1.13257e-06
-1.38107e-06
-1.52598e-06
-1.57075e-06
-1.51925e-06
1.72946e-08
-1.37435e-06
-1.13273e-06
-5.17217e-08
-7.84006e-07
2.75165e-08
7.74716e-08
-3.53764e-07
-4.70742e-07
-1.08925e-07
-9.92744e-07
2.76758e-08
-9.66654e-08
-1.37425e-06
-7.97949e-08
-1.62725e-06
-5.78841e-08
-1.77544e-06
-3.23208e-08
-1.82337e-06
5.9417e-08
-4.45697e-09
-1.76867e-06
-5.78479e-08
-1.62731e-06
5.02322e-08
-1.38118e-06
7.36083e-08
-1.01647e-06
9.32744e-08
-5.04419e-07
-5.85527e-07
-1.13763e-06
1.05364e-08
-1.51617e-06
-8.35877e-08
-1.76856e-06
-5.94535e-08
-1.9176e-06
-3.15783e-08
-1.96688e-06
-1.91761e-06
-1.77075e-06
-1.52356e-06
-1.15441e-06
-1.45801e-08
-6.05362e-07
1.17123e-07
-6.34209e-07
-1.17207e-07
-7.76997e-09
-1.19201e-06
-7.58898e-09
-1.01922e-07
-1.56487e-06
8.15741e-08
-1.81335e-06
5.68521e-08
-1.96095e-06
1.49288e-09
2.85537e-08
-2.01637e-06
-1.96682e-06
-1.81827e-06
-1.56774e-06
-1.19328e-06
-6.39611e-07
-6.09674e-07
-1.15421e-06
-1.52361e-06
-1.7708e-06
-1.91754e-06
-1.96681e-06
-1.91755e-06
-1.76853e-06
-1.51614e-06
-1.13852e-06
-5.90129e-07
-5.08011e-07
-1.0184e-06
-1.37965e-06
-1.62345e-06
-1.7685e-06
-1.81828e-06
-1.77076e-06
-1.62343e-06
-1.37215e-06
-9.95493e-07
-4.77521e-07
-3.56418e-07
-7.89053e-07
-1.13263e-06
-1.37216e-06
-1.51616e-06
-1.56779e-06
-1.52361e-06
-1.37964e-06
-1.13269e-06
-7.66076e-07
-3.25895e-07
-1.81627e-07
-4.70118e-07
-2.2736e-08
-7.65988e-07
-2.27845e-08
-9.95408e-07
-1.45317e-08
-1.1385e-06
-4.58709e-09
-1.19328e-06
-1.15443e-06
-1.01856e-06
-7.89173e-07
-4.70173e-07
-1.70417e-07
-5.5593e-08
-6.61253e-08
-1.70403e-07
-6.60963e-08
-3.3085e-07
9.14007e-08
-4.80736e-07
-5.94148e-07
1.17908e-07
-6.39379e-07
-6.09945e-07
-5.08206e-07
-3.56524e-07
-1.81653e-07
-5.56024e-08
)
;
    }
}


// ************************************************************************* //
