/*--------------------------------*- C++ -*----------------------------------*\
| =========                 |                                                 |
| \\      /  F ield         | OpenFOAM: The Open Source CFD Toolbox           |
|  \\    /   O peration     | Version:  2212                                  |
|   \\  /    A nd           | Website:  www.openfoam.com                      |
|    \\/     M anipulation  |                                                 |
\*---------------------------------------------------------------------------*/
FoamFile
{
    version     2.0;
    format      ascii;
    arch        "LSB;label=32;scalar=64";
    class       surfaceVectorField;
    location    "3";
    object      Uf;
}
// * * * * * * * * * * * * * * * * * * * * * * * * * * * * * * * * * * * * * //

dimensions      [0 1 -1 0 0 0 0];

internalField   nonuniform List<vector> 
1763
(
(0.0218008 -3.17757e-05 3.40853e-06)
(0.0279855 -7.04697e-05 -3.99992e-05)
(0.0216154 -2.88207e-05 1.73902e-06)
(0.0277523 -6.47812e-05 -3.87674e-05)
(0.026844 -3.40927e-05 2.14871e-05)
(0.0214443 -2.56159e-05 -7.98785e-07)
(0.0275359 -5.72388e-05 -3.7656e-05)
(0.026639 -3.15668e-05 1.78634e-05)
(0.0212833 -2.09979e-05 -3.4109e-06)
(0.0273249 -4.91691e-05 -3.82032e-05)
(0.0264415 -2.9699e-05 1.26359e-05)
(0.0211246 -1.80786e-05 -7.67153e-06)
(0.0271592 -4.16907e-05 -3.83651e-05)
(0.0262889 -2.70872e-05 2.98384e-06)
(0.0268341 -3.45131e-05 -4.55284e-05)
(0.0259968 -3.01551e-05 -4.50796e-06)
(0.0369757 -0.000107461 -9.75636e-05)
(0.0435724 -0.00011978 -0.000179538)
(0.0501623 -0.000151755 -9.51687e-05)
(0.0366872 -9.53178e-05 -9.21134e-05)
(0.0432309 -0.000106378 -0.000167225)
(0.0498241 -0.000146104 -9.51395e-05)
(0.0364179 -8.22066e-05 -8.82911e-05)
(0.0429101 -9.18879e-05 -0.000156614)
(0.0495065 -0.000136475 -9.43215e-05)
(0.0361602 -6.87285e-05 -8.48396e-05)
(0.0425901 -8.00455e-05 -0.000150639)
(0.0491886 -0.000126981 -9.65101e-05)
(0.0359193 -5.87679e-05 -8.93262e-05)
(0.0423274 -6.4869e-05 -0.000141134)
(0.0489312 -0.000117188 -9.91708e-05)
(0.0418563 -6.45141e-05 -0.000148875)
(0.0484822 -0.000114715 -0.000118168)
(0.0514012 -0.000124426 -0.000268931)
(0.0510117 -0.000110329 -0.000250549)
(0.0551584 -0.000117476 -0.000357449)
(0.0682378 -0.00021093 -0.000353778)
(0.0506372 -9.76805e-05 -0.000236849)
(0.0547532 -0.000106531 -0.000337319)
(0.067902 -0.000198723 -0.000338164)
(0.0502726 -8.58387e-05 -0.000224231)
(0.0543439 -9.78771e-05 -0.000319079)
(0.0675582 -0.000189684 -0.000328594)
(0.0499183 -7.92355e-05 -0.000216243)
(0.0540032 -8.7358e-05 -0.000295735)
(0.0672724 -0.000179602 -0.000317307)
(0.0534277 -8.68235e-05 -0.000279422)
(0.0667831 -0.00017289 -0.000309213)
(0.0594399 -0.000113674 -0.000457558)
(0.061856 -0.000120198 -0.000594978)
(0.0777826 -0.000200055 -0.000594639)
(0.0590059 -0.000107887 -0.000432235)
(0.0613932 -0.000114617 -0.00055961)
(0.0774542 -0.000196514 -0.000570128)
(0.0585859 -0.000101169 -0.000402183)
(0.0609371 -0.000106301 -0.000511682)
(0.0771245 -0.000196053 -0.00054849)
(0.0581827 -9.60775e-05 -0.000368771)
(0.060558 -9.67248e-05 -0.000458766)
(0.0768438 -0.000194585 -0.000522419)
(0.0599486 -9.19294e-05 -0.000402699)
(0.0763848 -0.000190333 -0.000484043)
(0.0639638 -0.000122605 -0.000705735)
(0.0823876 -0.000209586 -0.000814302)
(0.0634875 -0.000112476 -0.000646541)
(0.0641566 -8.48167e-05 -0.000675811)
(0.0820667 -0.000205191 -0.000776204)
(0.063039 -9.99343e-05 -0.00057425)
(0.0636939 -7.91314e-05 -0.000615807)
(0.0817543 -0.000198575 -0.000726402)
(0.06262 -9.05109e-05 -0.000497149)
(0.0633066 -7.41281e-05 -0.000540922)
(0.0814899 -0.000192758 -0.000670584)
(0.0627123 -7.09909e-05 -0.000449667)
(0.0810723 -0.000183304 -0.000598383)
(0.0643792 -5.60122e-05 -0.000644596)
(0.0631965 -3.68025e-05 -0.000536557)
(0.0829393 -0.000154533 -0.000771073)
(0.063946 -5.55872e-05 -0.000582324)
(0.0627789 -3.52119e-05 -0.000495509)
(0.0826591 -0.000150508 -0.000730895)
(0.0635441 -5.60731e-05 -0.000493231)
(0.0624239 -3.69604e-05 -0.00044174)
(0.0824206 -0.000146704 -0.000672733)
(0.0618841 -4.15544e-05 -0.00036994)
(0.0820595 -0.000137367 -0.000582895)
(0.0616318 -1.75926e-05 -0.000390077)
(0.0586865 -9.81426e-06 -0.000336106)
(0.0804715 -6.32084e-05 -0.000588826)
(0.0612617 -2.06049e-05 -0.000356724)
(0.0583189 -1.40685e-05 -0.000311214)
(0.0802325 -5.88093e-05 -0.000561328)
(0.0609119 -2.70167e-05 -0.000319546)
(0.0580047 -2.19779e-05 -0.000283286)
(0.080027 -5.69845e-05 -0.000527801)
(0.0575242 -2.72127e-05 -0.000250896)
(0.0797103 -5.45433e-05 -0.000469694)
(0.0555887 -1.61177e-05 -0.000258785)
(0.0508452 -1.44091e-05 -0.000210309)
(0.0746615 3.25978e-05 -0.000451786)
(0.0552482 -2.34163e-05 -0.000239362)
(0.0505211 -2.0041e-05 -0.000196759)
(0.0744085 3.09836e-05 -0.000434995)
(0.0549299 -2.7636e-05 -0.000216528)
(0.0502454 -2.53336e-05 -0.000175882)
(0.0741917 2.7013e-05 -0.000408406)
(0.0498197 -1.89307e-05 -0.000165223)
(0.0738597 2.56044e-05 -0.000370012)
(0.0463762 -2.26864e-06 -0.000162065)
(0.0397553 7.2885e-07 -0.000114338)
(0.0644096 9.65628e-05 -0.000313774)
(0.0460879 -7.3901e-06 -0.000146228)
(0.0394939 -1.75102e-06 -0.000106306)
(0.0641231 9.03782e-05 -0.000300094)
(0.0458236 -6.24032e-06 -0.000135069)
(0.0392777 -1.54596e-06 -9.21089e-05)
(0.063877 8.64776e-05 -0.000280078)
(0.0389197 6.26885e-06 -9.55611e-05)
(0.0634856 8.87266e-05 -0.00027057)
(0.0344431 -2.34556e-05 -5.85265e-05)
(0.0268572 -2.13634e-05 -3.40692e-05)
(0.0342049 -2.09059e-05 -5.54979e-05)
(0.0266499 -1.88455e-05 -3.21883e-05)
(0.0482669 5.1604e-05 -0.00012861)
(0.0339825 -1.34664e-05 -5.1446e-05)
(0.0264548 -1.41802e-05 -3.07488e-05)
(0.047978 5.45171e-05 -0.000123728)
(0.033786 -1.97748e-06 -5.38715e-05)
(0.0263014 -5.08162e-06 -2.77186e-05)
(0.0477382 6.04709e-05 -0.000112856)
(0.0260084 1.94978e-06 -3.13697e-05)
(0.0473366 7.31246e-05 -0.000120587)
(0.0216275 -2.40904e-06 -2.89947e-05)
(0.0277685 3.72215e-05 -6.35003e-05)
(0.021457 -3.08633e-07 -2.64385e-05)
(0.0275496 3.61821e-05 -5.79812e-05)
(0.0212942 2.15491e-06 -2.20669e-05)
(0.0273402 3.66858e-05 -5.12292e-05)
(0.0211358 6.13936e-06 -1.94798e-05)
(0.0271728 3.62992e-05 -4.38048e-05)
(0.0268451 4.32391e-05 -3.75124e-05)
(0.0344303 -5.7835e-05 2.36357e-05)
(0.0485581 -0.000136366 -5.40558e-05)
(0.0341911 -5.40512e-05 2.0124e-05)
(0.0482565 -0.000129554 -5.49483e-05)
(0.0397438 -0.000113403 -4.99963e-07)
(0.0339695 -5.02756e-05 1.16103e-05)
(0.0479575 -0.000122716 -5.77629e-05)
(0.0394749 -0.000104856 1.00413e-06)
(0.0337711 -5.2959e-05 -6.89913e-07)
(0.0477182 -0.000113386 -6.5434e-05)
(0.0392576 -9.08855e-05 -3.49419e-08)
(0.0473152 -0.000119088 -7.79246e-05)
(0.0388985 -9.37917e-05 -8.54246e-06)
(0.0663823 -0.000241373 -0.000154443)
(0.0660009 -0.000236261 -0.000155481)
(0.0763997 -0.000306151 -0.000328438)
(0.0752104 -0.000383667 -0.000206769)
(0.0656307 -0.000227222 -0.000155729)
(0.0760678 -0.00029398 -0.00031975)
(0.0748883 -0.000371179 -0.000201202)
(0.0652742 -0.000217526 -0.000157992)
(0.0757263 -0.000282687 -0.000312584)
(0.0745559 -0.00035554 -0.000196222)
(0.0649281 -0.000208465 -0.000164806)
(0.0754467 -0.00027033 -0.00030687)
(0.0742836 -0.000341351 -0.000194457)
(0.0749842 -0.000250023 -0.000295322)
(0.073835 -0.000317842 -0.000192107)
(0.0880994 -0.000343774 -0.000514385)
(0.0930629 -0.000333205 -0.00065449)
(0.0968887 -0.000515495 -0.000587289)
(0.0878101 -0.000332831 -0.000497658)
(0.0928149 -0.000326868 -0.000630284)
(0.0967329 -0.00050311 -0.000571075)
(0.0875224 -0.000321936 -0.000481716)
(0.0925611 -0.000321599 -0.000609985)
(0.0965686 -0.000492082 -0.000554928)
(0.0872362 -0.000304713 -0.000456486)
(0.092344 -0.000317236 -0.000588745)
(0.0964255 -0.000477894 -0.000536479)
(0.0919852 -0.000298485 -0.000541174)
(0.0961747 -0.00043486 -0.000486251)
(0.0982577 -0.000316061 -0.00078318)
(0.10047 -0.000317498 -0.000885021)
(0.106561 -0.000443243 -0.000862257)
(0.0980551 -0.000315479 -0.000754824)
(0.100301 -0.000315458 -0.000850246)
(0.106509 -0.000440812 -0.000835216)
(0.097852 -0.000317653 -0.000728768)
(0.100132 -0.000316667 -0.000819474)
(0.106455 -0.000439549 -0.000808063)
(0.0976514 -0.000312322 -0.000684275)
(0.0999787 -0.000317265 -0.000782393)
(0.106402 -0.000434799 -0.000774074)
(0.0997318 -0.000301477 -0.000712908)
(0.106307 -0.00040828 -0.000697752)
(0.102632 -0.000317552 -0.000956692)
(0.103054 -0.00029755 -0.000972137)
(0.110691 -0.000388764 -0.00103117)
(0.102499 -0.000314582 -0.000919308)
(0.102943 -0.000290647 -0.000934824)
(0.110707 -0.000385613 -0.000996276)
(0.102364 -0.000312628 -0.000877108)
(0.102832 -0.000284795 -0.000897592)
(0.11072 -0.000381938 -0.000957516)
(0.10223 -0.000303676 -0.000814535)
(0.102731 -0.00028011 -0.000848639)
(0.110728 -0.00037535 -0.000906307)
(0.10257 -0.000261673 -0.000766236)
(0.110723 -0.000351142 -0.000815469)
(0.103373 -0.000273891 -0.000949844)
(0.102392 -0.000207045 -0.000902134)
(0.111483 -0.000274008 -0.00103241)
(0.103283 -0.000265984 -0.000912487)
(0.10231 -0.000198955 -0.000871426)
(0.111538 -0.000268014 -0.00099841)
(0.103197 -0.000256859 -0.000868537)
(0.102226 -0.000188995 -0.00083942)
(0.111593 -0.000260034 -0.000959887)
(0.103112 -0.000240813 -0.000799885)
(0.102153 -0.00017782 -0.000793798)
(0.111641 -0.000249706 -0.000905967)
(0.102038 -0.000156829 -0.000711305)
(0.111699 -0.000226634 -0.000806865)
(0.101347 -0.000120975 -0.000827066)
(0.109766 -5.52433e-05 -0.000916233)
(0.10127 -0.000110255 -0.000801716)
(0.0986454 -5.29254e-06 -0.000748922)
(0.109834 -4.57025e-05 -0.000894)
(0.101194 -0.00010005 -0.000767623)
(0.0985358 1.26188e-06 -0.000725283)
(0.109898 -3.69397e-05 -0.000864992)
(0.101122 -8.81907e-05 -0.000707298)
(0.0984405 5.58215e-06 -0.000687978)
(0.109953 -2.98642e-05 -0.000819177)
(0.0982915 7.80402e-06 -0.00061624)
(0.110024 -2.05185e-05 -0.000731487)
(0.0960512 8.75213e-05 -0.000672281)
(0.0905144 0.000151893 -0.000593515)
(0.105211 0.000215977 -0.000770759)
(0.095914 8.96773e-05 -0.000645577)
(0.0903054 0.000150555 -0.00057545)
(0.105213 0.000216779 -0.000750906)
(0.0957806 8.84086e-05 -0.000597538)
(0.0901234 0.000150171 -0.000550531)
(0.105216 0.000213866 -0.00071728)
(0.0898319 0.000143547 -0.000501571)
(0.105205 0.000201354 -0.000642394)
(0.0852808 0.000210969 -0.000505282)
(0.074897 0.00019363 -0.000366456)
(0.0953971 0.000394039 -0.000606079)
(0.0850135 0.00020617 -0.000488088)
(0.074577 0.000189712 -0.000355179)
(0.0952422 0.000384884 -0.000591608)
(0.0847468 0.000201686 -0.000461635)
(0.0743022 0.000186645 -0.000339846)
(0.0951066 0.000375609 -0.000572474)
(0.0738576 0.000184818 -0.000319016)
(0.0948731 0.00035238 -0.000522442)
(0.0656506 0.000148627 -0.000223323)
(0.0495208 9.10017e-05 -0.000135996)
(0.0760816 0.000312285 -0.000290994)
(0.0652997 0.00015075 -0.000215571)
(0.049212 9.34521e-05 -0.000129148)
(0.0757519 0.000305717 -0.000282281)
(0.0649583 0.000157054 -0.000208135)
(0.0489527 9.39162e-05 -0.000118704)
(0.0754693 0.000297172 -0.000269297)
(0.0485026 0.000113334 -0.000118567)
(0.0750092 0.000289347 -0.000255694)
(0.0367082 8.99982e-05 -9.58988e-05)
(0.0432557 0.000163218 -0.000105569)
(0.0364375 8.68433e-05 -8.59351e-05)
(0.0429308 0.000154242 -9.69139e-05)
(0.0361769 8.26438e-05 -7.32687e-05)
(0.042618 0.000147847 -8.5993e-05)
(0.0359358 8.65544e-05 -6.39248e-05)
(0.0423508 0.000137392 -7.08936e-05)
(0.0418766 0.000145897 -7.22396e-05)
(0.046356 -0.000162211 9.79045e-07)
(0.0643994 -0.000314657 -0.000100109)
(0.0508289 -0.000213305 1.1382e-05)
(0.0460632 -0.000145559 5.64845e-06)
(0.0641036 -0.00029941 -9.40809e-05)
(0.0504953 -0.000199218 1.59474e-05)
(0.0457952 -0.000133533 4.10308e-06)
(0.0638584 -0.000280288 -9.13837e-05)
(0.0502159 -0.000176971 2.17039e-05)
(0.0634632 -0.000268778 -9.38606e-05)
(0.0497864 -0.000164748 1.52808e-05)
(0.0855418 -0.000523657 -0.00022455)
(0.0955325 -0.000623388 -0.000412515)
(0.0852718 -0.000506013 -0.000217459)
(0.0953878 -0.000608832 -0.000402255)
(0.0905083 -0.000596609 -0.000160474)
(0.0850025 -0.000487918 -0.000213405)
(0.0952338 -0.000591867 -0.000393385)
(0.0902973 -0.000575226 -0.000158618)
(0.0847332 -0.000462185 -0.000210175)
(0.0950991 -0.000574501 -0.000386368)
(0.090119 -0.000551134 -0.00015944)
(0.0948643 -0.000518764 -0.000359248)
(0.0898258 -0.000500979 -0.000152949)
(0.106555 -0.000677484 -0.000608155)
(0.110889 -0.000621923 -0.000742726)
(0.110627 -0.000756081 -0.000490613)
(0.106544 -0.000666271 -0.000596041)
(0.110939 -0.000615162 -0.000725892)
(0.110703 -0.000743569 -0.000484531)
(0.106521 -0.000654441 -0.000584129)
(0.110985 -0.000608987 -0.000709372)
(0.110775 -0.000731404 -0.00047939)
(0.106489 -0.000618196 -0.000552686)
(0.111015 -0.000597395 -0.00068599)
(0.110829 -0.000709561 -0.000470957)
(0.111042 -0.00055197 -0.000627071)
(0.110888 -0.000647674 -0.000433419)
(0.115614 -0.000565018 -0.000870375)
(0.117422 -0.000511046 -0.000952949)
(0.1193 -0.000604622 -0.000728409)
(0.115724 -0.000563023 -0.000848773)
(0.117566 -0.00050943 -0.000929811)
(0.119497 -0.000602176 -0.000714196)
(0.115826 -0.000556414 -0.000820147)
(0.117707 -0.000506311 -0.000901858)
(0.119688 -0.000597763 -0.000697516)
(0.115923 -0.000534065 -0.000768507)
(0.117825 -0.000495884 -0.000861944)
(0.119854 -0.000585279 -0.000672598)
(0.117989 -0.000464271 -0.000787909)
(0.120082 -0.000551769 -0.000621282)
(0.119459 -0.000449599 -0.00101568)
(0.119788 -0.00035437 -0.00103547)
(0.123049 -0.000442536 -0.000863924)
(0.119632 -0.000447146 -0.000985999)
(0.119982 -0.000351407 -0.0010086)
(0.123297 -0.000440107 -0.00084245)
(0.119798 -0.000440437 -0.000946513)
(0.120173 -0.000346638 -0.000975463)
(0.12354 -0.000435382 -0.000816002)
(0.119956 -0.000421913 -0.000883912)
(0.12034 -0.000337458 -0.000928534)
(0.123758 -0.000424972 -0.000779445)
(0.12057 -0.000314671 -0.000846062)
(0.124055 -0.00040176 -0.000720941)
(0.120319 -0.000259567 -0.00102795)
(0.119534 -0.000120843 -0.000995803)
(0.123957 -0.000206626 -0.00088285)
(0.120529 -0.000254252 -0.000997615)
(0.119752 -0.000114804 -0.000973989)
(0.124232 -0.000202963 -0.000860932)
(0.120733 -0.000246233 -0.000957115)
(0.119966 -0.000107574 -0.000944667)
(0.124504 -0.000197748 -0.000834323)
(0.120928 -0.000231439 -0.000890442)
(0.120154 -0.000100146 -0.000899511)
(0.124749 -0.000190514 -0.00079642)
(0.120411 -8.73432e-05 -0.000819139)
(0.125082 -0.000176744 -0.000735498)
(0.118978 2.91482e-05 -0.000943687)
(0.1169 0.000199435 -0.000894969)
(0.122727 0.000109038 -0.000828451)
(0.119197 3.62696e-05 -0.000922678)
(0.117093 0.000202354 -0.000880417)
(0.123004 0.000113789 -0.00081515)
(0.119408 4.12601e-05 -0.000888367)
(0.11728 0.000203102 -0.000859081)
(0.123275 0.000116431 -0.00079304)
(0.119609 4.45449e-05 -0.000829075)
(0.117444 0.000199968 -0.000821958)
(0.123519 0.000116269 -0.000757716)
(0.117666 0.000190085 -0.000751992)
(0.123849 0.000114096 -0.000702522)
(0.115099 0.000358192 -0.000832342)
(0.110635 0.000481727 -0.000755266)
(0.119023 0.000458104 -0.000744862)
(0.115259 0.000357301 -0.000817887)
(0.110711 0.000476996 -0.00074534)
(0.119246 0.000455246 -0.000736585)
(0.115412 0.000352752 -0.000794132)
(0.110775 0.000470547 -0.000732158)
(0.119461 0.000450365 -0.000723689)
(0.115557 0.000338102 -0.000746386)
(0.11083 0.000459483 -0.000708207)
(0.119652 0.000439375 -0.000698835)
(0.110885 0.000426661 -0.000652831)
(0.11991 0.000413347 -0.000651649)
(0.106566 0.000597599 -0.000675931)
(0.110898 0.000730124 -0.00061998)
(0.106552 0.000585824 -0.000666511)
(0.0967481 0.000561931 -0.000503796)
(0.110951 0.000715606 -0.000617357)
(0.106526 0.000571867 -0.000652363)
(0.0965821 0.000545346 -0.000493246)
(0.110989 0.000698506 -0.000611003)
(0.106493 0.000543487 -0.000620302)
(0.0964376 0.000524631 -0.000476816)
(0.111022 0.000675663 -0.000597549)
(0.0961864 0.000481238 -0.000443497)
(0.111045 0.000624991 -0.000560192)
(0.0878294 0.000490643 -0.000334987)
(0.0679237 0.000333217 -0.000202282)
(0.0928333 0.000622701 -0.000328711)
(0.0875424 0.000472444 -0.000323899)
(0.0675893 0.000322788 -0.00019483)
(0.092581 0.000601691 -0.000325488)
(0.0872577 0.000448515 -0.0003099)
(0.0672972 0.000309475 -0.000184317)
(0.0923625 0.000577258 -0.00032021)
(0.066808 0.000305558 -0.00018245)
(0.0920054 0.000538428 -0.000308357)
(0.0510405 0.000245657 -0.000112981)
(0.0551934 0.000351489 -0.000120007)
(0.0506686 0.000232401 -0.000103672)
(0.0547865 0.000331632 -0.000111384)
(0.0503053 0.000219547 -9.33196e-05)
(0.0543888 0.000313572 -0.000104994)
(0.0499517 0.000212045 -8.7859e-05)
(0.0540409 0.000290784 -9.69317e-05)
(0.0534654 0.000275652 -9.7183e-05)
(0.055565 -0.000263983 1.10244e-05)
(0.0746484 -0.000456489 -3.91258e-05)
(0.0586638 -0.000342754 3.73085e-06)
(0.0552184 -0.000243645 1.77522e-05)
(0.074393 -0.000438955 -3.8345e-05)
(0.0582899 -0.000317149 7.31309e-06)
(0.0548952 -0.000218924 2.23053e-05)
(0.0741748 -0.000410533 -3.42022e-05)
(0.0579714 -0.000287624 1.53509e-05)
(0.0738408 -0.000369803 -3.24279e-05)
(0.0574863 -0.000253068 2.10158e-05)
(0.0960475 -0.000673969 -9.64536e-05)
(0.105207 -0.000771286 -0.000223847)
(0.0986473 -0.000751296 -2.90324e-06)
(0.0959127 -0.000645702 -9.86776e-05)
(0.105214 -0.000750053 -0.000225084)
(0.0985416 -0.000727294 -9.52214e-06)
(0.0957818 -0.000596431 -9.72875e-05)
(0.105219 -0.000715892 -0.000222575)
(0.098449 -0.000689115 -1.41784e-05)
(0.105211 -0.000640406 -0.000209735)
(0.0983025 -0.000616648 -1.65467e-05)
(0.115096 -0.000829857 -0.000364464)
(0.11902 -0.000740277 -0.000464929)
(0.116894 -0.000894116 -0.000203477)
(0.11526 -0.000815878 -0.000364465)
(0.119244 -0.00073192 -0.000461863)
(0.11709 -0.000878728 -0.000207843)
(0.115416 -0.000792543 -0.000360728)
(0.119463 -0.0007201 -0.000456581)
(0.117281 -0.000857076 -0.000209601)
(0.115565 -0.000744447 -0.000346284)
(0.119655 -0.000696817 -0.000445803)
(0.117447 -0.000819082 -0.000207032)
(0.119917 -0.00064916 -0.000418555)
(0.117674 -0.000747754 -0.000196227)
(0.123431 -0.000645717 -0.000568374)
(0.125081 -0.000545507 -0.000633818)
(0.125014 -0.000674146 -0.000392944)
(0.12371 -0.000640817 -0.000559713)
(0.125386 -0.00054109 -0.000622338)
(0.125326 -0.000669023 -0.000387118)
(0.123982 -0.000630366 -0.000547072)
(0.125684 -0.000534838 -0.000608415)
(0.12563 -0.000658277 -0.000379456)
(0.124243 -0.000606655 -0.000523261)
(0.125953 -0.00052119 -0.000587761)
(0.125904 -0.000637628 -0.000367589)
(0.126318 -0.00049536 -0.000551816)
(0.126276 -0.000602338 -0.000347765)
(0.127104 -0.000434313 -0.000690237)
(0.127425 -0.000291312 -0.000712014)
(0.128659 -0.000423978 -0.000513868)
(0.127424 -0.000429727 -0.000673246)
(0.127758 -0.000288322 -0.000696561)
(0.129007 -0.000419513 -0.000500661)
(0.127738 -0.000421415 -0.000651043)
(0.128086 -0.000284268 -0.000678357)
(0.129348 -0.00041215 -0.000485698)
(0.128039 -0.000406145 -0.000618059)
(0.128384 -0.000277033 -0.000651529)
(0.129662 -0.000399487 -0.000465365)
(0.128788 -0.00026429 -0.000611381)
(0.130078 -0.000380898 -0.000438544)
(0.128084 -0.000148486 -0.000717903)
(0.12736 2.14857e-05 -0.000715503)
(0.129667 -0.000106822 -0.000555947)
(0.128423 -0.000145157 -0.000701348)
(0.127698 2.4471e-05 -0.000704056)
(0.130028 -0.000104255 -0.000543094)
(0.128754 -0.000140952 -0.00067867)
(0.128031 2.62098e-05 -0.000686806)
(0.130382 -0.00010135 -0.000527706)
(0.129073 -0.000134612 -0.000644881)
(0.128334 2.68651e-05 -0.000659706)
(0.130711 -9.78746e-05 -0.000505862)
(0.128743 2.84476e-05 -0.000620651)
(0.131144 -9.36247e-05 -0.000482501)
(0.126641 0.000196283 -0.000710548)
(0.128231 0.000257381 -0.00057021)
(0.126979 0.000197583 -0.000702596)
(0.125019 0.000386275 -0.000678981)
(0.128592 0.000256936 -0.000562795)
(0.127311 0.00019749 -0.000690184)
(0.125329 0.000382044 -0.000673163)
(0.128944 0.000255973 -0.00055558)
(0.127634 0.000194674 -0.000668336)
(0.12563 0.000376726 -0.00066166)
(0.129289 0.000251849 -0.000542431)
(0.127944 0.000188998 -0.000635698)
(0.125903 0.000366607 -0.000640125)
(0.129607 0.000244227 -0.000521384)
(0.126272 0.000348371 -0.000604709)
(0.130028 0.00023312 -0.000493792)
(0.123434 0.00056128 -0.000649946)
(0.119305 0.000717354 -0.000605698)
(0.125081 0.00062726 -0.000547926)
(0.123712 0.000554166 -0.000645343)
(0.119503 0.000705427 -0.000605183)
(0.125384 0.000619638 -0.000544283)
(0.123981 0.000542525 -0.000634125)
(0.119691 0.000689477 -0.000601104)
(0.125679 0.000606944 -0.000537727)
(0.124239 0.000519945 -0.000609621)
(0.119858 0.000666482 -0.000588795)
(0.125946 0.00058636 -0.000523428)
(0.120081 0.00062093 -0.000558198)
(0.126307 0.000551424 -0.000497705)
(0.115621 0.000857947 -0.000565038)
(0.106575 0.000849316 -0.000442873)
(0.117422 0.000941163 -0.000510283)
(0.115731 0.000837779 -0.00056495)
(0.106523 0.000825782 -0.000443688)
(0.117568 0.000919748 -0.000510695)
(0.115832 0.000811328 -0.00055969)
(0.106465 0.000798161 -0.000442783)
(0.117705 0.000892436 -0.000507369)
(0.115926 0.000765538 -0.000540969)
(0.106416 0.000764105 -0.000438311)
(0.117826 0.00085526 -0.000497682)
(0.10632 0.000696968 -0.00041806)
(0.117986 0.000786957 -0.000470234)
(0.0982767 0.000772366 -0.000318209)
(0.0778147 0.000584534 -0.000202064)
(0.100488 0.000870892 -0.000318755)
(0.0980731 0.000745891 -0.00031942)
(0.0774858 0.000561632 -0.000201117)
(0.10032 0.000842002 -0.000320542)
(0.0978708 0.000718091 -0.000321199)
(0.0771604 0.000540143 -0.000202112)
(0.100148 0.000811414 -0.000321681)
(0.097672 0.00067803 -0.000319133)
(0.076877 0.000514855 -0.000202286)
(0.0999981 0.00077319 -0.000320799)
(0.0764197 0.000481978 -0.000201387)
(0.0997531 0.000712648 -0.00030971)
(0.0594844 0.000450653 -0.00011839)
(0.0619059 0.000587618 -0.000124465)
(0.0590527 0.000425469 -0.000114885)
(0.0614431 0.000553789 -0.000121745)
(0.0586342 0.000396387 -0.000110898)
(0.060997 0.000507505 -0.000116424)
(0.0582318 0.000364194 -0.00010734)
(0.0606132 0.0004549 -0.000108678)
(0.0600073 0.000399082 -0.000102575)
(0.0619938 -0.000438286 8.86989e-06)
(0.0807057 -0.000627005 6.11458e-05)
(0.0636093 -0.000586455 3.09504e-05)
(0.061603 -0.000397587 9.60648e-06)
(0.0804625 -0.00059538 5.5286e-05)
(0.0631759 -0.000545156 2.8896e-05)
(0.0612287 -0.000362725 1.29753e-05)
(0.0802228 -0.000567077 5.04474e-05)
(0.0627541 -0.000502297 2.75952e-05)
(0.0608759 -0.000323611 1.98034e-05)
(0.0800169 -0.000531882 4.86039e-05)
(0.0623956 -0.000446188 2.94594e-05)
(0.0796995 -0.000472361 4.62525e-05)
(0.0618527 -0.000372731 3.43783e-05)
(0.101354 -0.000827772 0.000114214)
(0.109766 -0.000915571 5.08537e-05)
(0.10239 -0.000905166 0.000204032)
(0.101282 -0.000804682 0.000101876)
(0.109837 -0.00089432 3.94999e-05)
(0.102312 -0.000875943 0.000193846)
(0.101209 -0.000771101 9.08421e-05)
(0.109905 -0.000865901 2.9895e-05)
(0.102233 -0.000844042 0.000182379)
(0.10114 -0.000710358 7.8618e-05)
(0.109963 -0.000819108 2.24474e-05)
(0.102163 -0.000796959 0.000169876)
(0.110038 -0.000730421 1.32486e-05)
(0.102054 -0.000714007 0.000148292)
(0.118746 -0.00096146 -2.25398e-05)
(0.122433 -0.000837122 -0.00010671)
(0.119304 -0.0010157 0.000125332)
(0.118973 -0.000943786 -3.2773e-05)
(0.12272 -0.000825189 -0.000112729)
(0.119528 -0.000997244 0.000118671)
(0.119194 -0.000920984 -4.09721e-05)
(0.123 -0.000811834 -0.000116969)
(0.119749 -0.000975061 0.000111611)
(0.119409 -0.00088494 -4.63795e-05)
(0.123274 -0.000790119 -0.000118752)
(0.119966 -0.000944426 0.000104416)
(0.119613 -0.000823833 -4.95171e-05)
(0.123521 -0.000754191 -0.000117798)
(0.120157 -0.000897371 9.73252e-05)
(0.123854 -0.000698527 -0.000114898)
(0.120419 -0.000815971 8.46117e-05)
(0.126634 -0.000703924 -0.000201009)
(0.128226 -0.00056506 -0.000262959)
(0.127011 -0.000721211 -2.41993e-05)
(0.126974 -0.000697529 -0.000200652)
(0.12859 -0.000558752 -0.000260204)
(0.127358 -0.000714223 -2.31588e-05)
(0.127308 -0.000686884 -0.000198053)
(0.128944 -0.000552689 -0.00025551)
(0.127697 -0.000705072 -2.25148e-05)
(0.127634 -0.000666125 -0.000193145)
(0.129292 -0.000540177 -0.000248479)
(0.12803 -0.000687065 -2.22391e-05)
(0.127946 -0.000633848 -0.000186103)
(0.129612 -0.000519207 -0.00023909)
(0.128334 -0.000658973 -2.19718e-05)
(0.130034 -0.000491753 -0.000227356)
(0.128743 -0.000619512 -2.34847e-05)
(0.130244 -0.000413378 -0.000324396)
(0.130569 -0.000238602 -0.000357331)
(0.130571 -0.000396948 -0.000130514)
(0.130619 -0.000408574 -0.000317059)
(0.130954 -0.000235835 -0.000350398)
(0.130955 -0.000393378 -0.000125608)
(0.130987 -0.000401588 -0.000307722)
(0.13133 -0.000232912 -0.000342038)
(0.13133 -0.000388552 -0.000121501)
(0.131346 -0.000390022 -0.000295982)
(0.131698 -0.000227723 -0.000330639)
(0.131698 -0.000379103 -0.00011735)
(0.13169 -0.000373971 -0.000281802)
(0.132042 -0.000220263 -0.000316891)
(0.132041 -0.000365612 -0.000112405)
(0.132489 -0.000211288 -0.000305166)
(0.132487 -0.000352847 -0.000106067)
(0.131285 -6.2822e-05 -0.000383165)
(0.130569 0.000127634 -0.000402668)
(0.131609 -2.9773e-05 -0.000193019)
(0.131668 -6.114e-05 -0.000375315)
(0.130952 0.000127859 -0.000396881)
(0.132002 -2.96169e-05 -0.00018812)
(0.132044 -5.9201e-05 -0.000364999)
(0.131327 0.000127735 -0.000390075)
(0.132386 -2.92163e-05 -0.000183542)
(0.132412 -5.72198e-05 -0.000351709)
(0.131694 0.000125394 -0.000379207)
(0.132764 -2.84288e-05 -0.000177466)
(0.132766 -5.59031e-05 -0.000340568)
(0.132037 0.000121083 -0.000364931)
(0.133114 -2.78413e-05 -0.000171738)
(0.132484 0.000114451 -0.000351834)
(0.133582 -2.76827e-05 -0.000167988)
(0.130243 0.000320183 -0.000416803)
(0.128303 0.00051694 -0.000429509)
(0.130567 0.000353179 -0.000240593)
(0.130615 0.000317217 -0.000411831)
(0.128656 0.00050937 -0.000426762)
(0.130948 0.000348902 -0.000238036)
(0.130981 0.000312096 -0.000404341)
(0.129001 0.000502127 -0.000422978)
(0.131322 0.000344327 -0.000235099)
(0.131338 0.000303034 -0.000392405)
(0.129339 0.000489839 -0.000414866)
(0.131689 0.000335696 -0.000229804)
(0.131681 0.000289926 -0.000376061)
(0.129651 0.00047045 -0.000401511)
(0.132032 0.000323492 -0.000222143)
(0.130064 0.00044363 -0.000382597)
(0.132478 0.00031201 -0.000212869)
(0.126775 0.000697687 -0.00043873)
(0.12279 0.000871825 -0.000442555)
(0.12708 0.000719743 -0.000292827)
(0.127099 0.000688016 -0.000437466)
(0.123044 0.000855175 -0.000443229)
(0.127418 0.000708843 -0.000291672)
(0.127417 0.000674592 -0.000433153)
(0.123291 0.000836986 -0.000442224)
(0.127747 0.00069858 -0.000290205)
(0.127726 0.000652757 -0.00042368)
(0.123532 0.000811883 -0.000437023)
(0.128071 0.000680315 -0.000286058)
(0.128024 0.000619676 -0.000407695)
(0.123748 0.000776843 -0.000426073)
(0.128367 0.000652708 -0.000278471)
(0.124042 0.000720583 -0.000403567)
(0.128766 0.000612355 -0.00026564)
(0.119275 0.00103025 -0.000448783)
(0.110681 0.00105022 -0.000390434)
(0.11958 0.00105014 -0.000355168)
(0.119453 0.00100634 -0.000449816)
(0.110696 0.00101923 -0.000389435)
(0.119778 0.00102681 -0.000353408)
(0.119625 0.000977538 -0.000447977)
(0.110714 0.000988923 -0.000389124)
(0.119971 0.00100086 -0.000350958)
(0.119791 0.000939198 -0.000441127)
(0.110725 0.000950789 -0.000385884)
(0.12016 0.000967759 -0.000346241)
(0.119948 0.000879179 -0.000423212)
(0.110735 0.000899468 -0.000378336)
(0.120327 0.000921526 -0.000337267)
(0.110731 0.000813614 -0.000355598)
(0.120555 0.000841361 -0.000315653)
(0.102781 0.00097912 -0.000322591)
(0.103182 0.000994597 -0.00030526)
(0.102648 0.000945127 -0.00032101)
(0.0824248 0.000803235 -0.000213286)
(0.103068 0.000958187 -0.000299613)
(0.102516 0.000911983 -0.000320628)
(0.0821062 0.000768989 -0.000211752)
(0.10296 0.000925663 -0.000295435)
(0.102382 0.000870617 -0.000318608)
(0.0817971 0.000721161 -0.000206899)
(0.102847 0.000890436 -0.000290034)
(0.10225 0.000811379 -0.000309811)
(0.0815337 0.000665686 -0.000201403)
(0.102749 0.000842898 -0.000284434)
(0.08112 0.000596373 -0.000191788)
(0.10259 0.000766268 -0.000267144)
(0.0640229 0.000699484 -0.000129414)
(0.0646928 0.000711581 -9.43983e-05)
(0.0635501 0.000643416 -0.000121701)
(0.064219 0.000669979 -9.14272e-05)
(0.0631052 0.000572105 -0.000111076)
(0.0637647 0.000612988 -8.68141e-05)
(0.0626896 0.000494297 -0.000101468)
(0.0633789 0.000539148 -8.31852e-05)
(0.0627908 0.000446614 -7.8863e-05)
(0.0648213 -0.00069626 5.11336e-05)
(0.083217 -0.000814286 0.00015539)
(0.0646267 -0.000726299 8.35151e-05)
(0.0643623 -0.000652414 4.87982e-05)
(0.0829292 -0.000780153 0.000150522)
(0.0641442 -0.000683474 7.88974e-05)
(0.0639255 -0.000587614 4.77759e-05)
(0.0826487 -0.000737937 0.000145341)
(0.0636815 -0.00062122 7.14336e-05)
(0.0635213 -0.00049646 4.82836e-05)
(0.0824108 -0.000677086 0.00014039)
(0.0632903 -0.000544328 6.61814e-05)
(0.0820515 -0.00058575 0.000130277)
(0.0626954 -0.000452027 6.3353e-05)
(0.103365 -0.000956681 0.000272899)
(0.111476 -0.00103746 0.000273514)
(0.10305 -0.000972799 0.000293897)
(0.10328 -0.00091845 0.000263977)
(0.111535 -0.00100402 0.000266983)
(0.102942 -0.000939654 0.000289843)
(0.103198 -0.000872559 0.000253116)
(0.111593 -0.000963628 0.000258202)
(0.102831 -0.000902815 0.000284176)
(0.103119 -0.000802466 0.000235113)
(0.111645 -0.000907232 0.00024685)
(0.102734 -0.000851705 0.000277536)
(0.111708 -0.000807697 0.000222907)
(0.102576 -0.000771812 0.000258068)
(0.119877 -0.00107219 0.000266119)
(0.123389 -0.000911399 0.000208843)
(0.120098 -0.00105308 0.000262972)
(0.123674 -0.000898086 0.00020731)
(0.119584 -0.00105544 0.000354388)
(0.120315 -0.0010302 0.000258848)
(0.123956 -0.000883602 0.000205617)
(0.119785 -0.0010342 0.000353345)
(0.120528 -0.00100005 0.000253323)
(0.124232 -0.000863224 0.00020329)
(0.119981 -0.00100829 0.000351476)
(0.120736 -0.000958189 0.000245433)
(0.124505 -0.000835305 0.000199353)
(0.120174 -0.000974523 0.000347286)
(0.120933 -0.000890421 0.000230838)
(0.124751 -0.000796093 0.000192994)
(0.120343 -0.000927269 0.000338612)
(0.125083 -0.000734901 0.000179459)
(0.120575 -0.000846436 0.000316334)
(0.127393 -0.000740435 0.000148557)
(0.128929 -0.000567907 0.000106861)
(0.127743 -0.000732832 0.000148679)
(0.129303 -0.000561256 0.000106463)
(0.127088 -0.000718442 0.000291457)
(0.128086 -0.000723201 0.000149193)
(0.12967 -0.000556186 0.000107343)
(0.127426 -0.000710515 0.000290862)
(0.128423 -0.000706449 0.000148739)