/*--------------------------------*- C++ -*----------------------------------*\
| =========                 |                                                 |
| \\      /  F ield         | OpenFOAM: The Open Source CFD Toolbox           |
|  \\    /   O peration     | Version:  2212                                  |
|   \\  /    A nd           | Website:  www.openfoam.com                      |
|    \\/     M anipulation  |                                                 |
\*---------------------------------------------------------------------------*/
FoamFile
{
    version     2.0;
    format      ascii;
    arch        "LSB;label=32;scalar=64";
    class       volScalarField;
    location    "2";
    object      epsilon;
}
// * * * * * * * * * * * * * * * * * * * * * * * * * * * * * * * * * * * * * //

dimensions      [0 2 -3 0 0 0 0];

internalField   nonuniform List<scalar> 
690
(
0.0716986
0.0610271
0.0538749
0.0468506
0.0407635
0.0356327
0.0499594
0.0432631
0.0376505
0.0667721
0.0593341
0.0533049
0.0483031
0.044104
0.0405506
0.0375154
0.0348948
0.0325925
0.030551
0.0287326
0.0271096
0.0468541
0.040673
0.0356471
0.031432
0.0279055
0.0248132
0.0221514
0.0198849
0.0181296
0.0166578
0.0153485
0.0141824
0.0507813
0.0438853
0.038191
0.0334386
0.0294451
0.0260615
0.0231748
0.0207024
0.0185941
0.0167886
0.0152287
0.0138698
0.0690148
0.0620222
0.056006
0.0508647
0.0464746
0.0427275
0.0395047
0.0367116
0.0342619
0.0321032
0.030192
0.0284947
0.0467527
0.0405825
0.0355537
0.0313853
0.0278606
0.0247439
0.0221852
0.0200596
0.0183855
0.0169084
0.0156044
0.0144474
0.0498879
0.0431369
0.037564
0.0329152
0.0290047
0.0256873
0.0228665
0.0204596
0.0184115
0.0166499
0.0151223
0.0137892
0.0558213
0.0481802
0.0418554
0.0365782
0.0321427
0.0283906
0.0251997
0.0224715
0.0201266
0.0181041
0.0163531
0.0148296
0.0602509
0.0519952
0.0451405
0.0394157
0.0346046
0.0305365
0.0270769
0.0241187
0.0215763
0.0193811
0.0174772
0.0158195
0.0618456
0.0533745
0.0463318
0.0404471
0.0355011
0.0313195
0.0277637
0.0247233
0.0221101
0.0198533
0.0178956
0.0161909
0.0602513
0.0519873
0.0451333
0.0394106
0.0346012
0.0305343
0.0270754
0.0241176
0.0215754
0.0193802
0.0174764
0.0158189
0.0557917
0.0481709
0.0418509
0.0365713
0.0321316
0.0283752
0.0251799
0.0224493
0.0201054
0.0180842
0.0163334
0.0148113
0.0498959
0.0432549
0.0376527
0.032944
0.0289783
0.0256181
0.0227642
0.0203382
0.0182743
0.0165027
0.0149736
0.0464532
0.0406433
0.0355742
0.0312918
0.0276917
0.024528
0.0218196
0.0196445
0.0179933
0.0165243
0.0152192
0.0717602
0.061083
0.0539118
0.0484579
0.0440902
0.0405035
0.0374906
0.0349003
0.0326254
0.0306146
0.0288293
0.0800566
0.0700592
0.0622742
0.0561138
0.0511058
0.0469426
0.0433764
0.0403083
0.0376496
0.0353303
0.0333037
0.0315111
0.0465538
0.0404538
0.0354466
0.0312038
0.0275426
0.0246232
0.0224662
0.0205727
0.0189238
0.0174801
0.0162086
0.0150845
0.0476049
0.0413256
0.0360369
0.0315862
0.0278335
0.024676
0.0220326
0.0197859
0.0178627
0.0162048
0.0147671
0.0135124
0.0520753
0.0450368
0.0391819
0.0342734
0.0301383
0.0266384
0.0236654
0.021134
0.0189661
0.0170993
0.0154834
0.0140768
0.05578
0.0481738
0.0418536
0.0365715
0.03213
0.0283729
0.0251775
0.0224472
0.0201036
0.0180825
0.0163318
0.0148084
0.0571726
0.0493294
0.0428312
0.0374119
0.0328613
0.0290144
0.0257428
0.0229446
0.02054
0.0184647
0.0166663
0.0151018
0.0558009
0.048148
0.0418311
0.0365619
0.0321314
0.0283823
0.0251933
0.0224658
0.020121
0.0180984
0.0163475
0.0148239
0.0520697
0.0450288
0.0391765
0.03427
0.0301362
0.0266366
0.0236632
0.0211311
0.0189628
0.0170961
0.0154803
0.0140736
0.0475344
0.0414303
0.0360694
0.0315208
0.0277005
0.0244878
0.0218037
0.0195465
0.0176297
0.0159887
0.0145701
0.0457741
0.0409877
0.0355485
0.0310528
0.0272821
0.0240542
0.0217285
0.0198665
0.0182311
0.0167979
0.0155395
0.0767809
0.0637675
0.0560136
0.0504748
0.0460752
0.0424954
0.0394693
0.0368555
0.0345663
0.0325382
0.0307314
0.0991943
0.0840561
0.0728802
0.0649267
0.0590876
0.054247
0.0502252
0.0468915
0.0440951
0.0417043
0.0396091
0.0377601
0.04826
0.0416867
0.0364451
0.0319442
0.0288587
0.0262693
0.0240791
0.0222032
0.0205957
0.0192047
0.0179291
0.0169335
0.0452619
0.0396092
0.0345085
0.030141
0.0265763
0.0236522
0.0212188
0.0191716
0.0174291
0.0159329
0.0146319
0.0135077
0.0475627
0.0414219
0.0360587
0.0315142
0.027697
0.0244891
0.0218088
0.0195537
0.0176375
0.0159963
0.0145765
0.0133386
0.0499334
0.0432572
0.0376524
0.0329451
0.0289805
0.0256211
0.0227678
0.0203424
0.0182787
0.0165066
0.0149773
0.0136492
0.0507622
0.0438435
0.0381588
0.0334209
0.0294361
0.0260561
0.0231724
0.0207008
0.0185912
0.0167832
0.0152222
0.0138626
0.0498765
0.0431011
0.0375343
0.0328928
0.0289882
0.0256755
0.02286
0.0204531
0.0184025
0.0166406
0.0151137
0.0137809
0.0476047
0.0413326
0.0360397
0.0315806
0.0278261
0.0246694
0.0220238
0.0197756
0.0178527
0.0161959
0.0147595
0.0135031
0.0452742
0.0395941
0.0345171
0.0301467
0.0265755
0.0236448
0.0212093
0.0191613
0.0174195
0.0159228
0.0146288
0.0464933
0.0419964
0.0362916
0.0314268
0.0280985
0.025557
0.0233753
0.0214949
0.019858
0.0184278
0.0171827
0.079733
0.0703849
0.0622908
0.0563834
0.0518427
0.0481165
0.0450002
0.0423309
0.0399876
0.0379015
0.0360336
0.133714
0.112168
0.0965357
0.085534
0.0778062
0.0721023
0.0675985
0.0638581
0.0605581
0.0576063
0.0551881
0.0530168
0.0558828
0.0499073
0.0437811
0.0394031
0.0360159
0.0331646
0.0308784
0.0288862
0.0271062
0.0254654
0.024052
0.0229137
0.0464951
0.0419738
0.0362976
0.0314483
0.0281485
0.0256093
0.0234241
0.0215395
0.0198975
0.0184642
0.017212
0.0161366
0.0457711
0.0408289
0.0354632
0.0310214
0.0272663
0.0240688
0.0217626
0.0198979
0.0182589
0.0168221
0.0155612
0.0144519
0.0465214
0.0405354
0.0354996
0.0312577
0.0276879
0.0245353
0.0218365
0.0196694
0.0180187
0.0165457
0.0152388
0.0140815
0.0468172
0.0406409
0.0356226
0.0314433
0.0279272
0.0248457
0.0221686
0.0199016
0.0181449
0.0166716
0.0153594
0.0141892
0.0467455
0.040585
0.0355545
0.0313854
0.0278654
0.0247465
0.0221859
0.0200584
0.0183851
0.0169084
0.0156043
0.0144468
0.0465621
0.0404623
0.0354494
0.0312014
0.0275398
0.0246202
0.0224638
0.0205706
0.018922
0.0174783
0.0162071
0.0150767
0.0482792
0.0416839
0.0364426
0.0319382
0.0288555
0.0262702
0.024082
0.0222067
0.0205996
0.0191989
0.0179511
0.0558904
0.0498271
0.0437552
0.039388
0.0360268
0.0331837
0.0308965
0.0288999
0.0271217
0.0254521
0.0241215
0.110761
0.0957221
0.0839471
0.0758048
0.0700547
0.0658054
0.0623717
0.0593776
0.056633
0.0541224
0.0519226
0.319277
0.261254
0.21744
0.192638
0.177501
0.167624
0.160104
0.153568
0.147711
0.14243
0.137923
0.133791
0.110767
0.0958366
0.0840606
0.0758675
0.0700892
0.0658333
0.0624046
0.0593995
0.0566562
0.0541115
0.0519801
0.0500523
0.0797521
0.0704459
0.0623535
0.0564018
0.0518277
0.0480792
0.044948
0.0422702
0.0399276
0.0378448
0.035986
0.0343276
0.0767894
0.0637611
0.0560289
0.0504942
0.0460828
0.042483
0.0394382
0.0368115
0.0345153
0.0324851
0.0306776
0.0290616
0.0717641
0.061102
0.053932
0.0484748
0.0441005
0.0405036
0.0374795
0.034879
0.0325969
0.0305821
0.0287922
0.0271958
0.066788
0.0593585
0.0533353
0.0483356
0.044131
0.0405685
0.0375256
0.0348977
0.0325896
0.0305444
0.0287246
0.027103
0.0690242
0.0620368
0.0560258
0.0508877
0.0464979
0.0427496
0.0395248
0.0367293
0.0342771
0.032116
0.030203
0.0285047
0.0800632
0.0700612
0.0622747
0.0561154
0.0511076
0.0469447
0.0433785
0.0403107
0.0376522
0.035333
0.0333073
0.0315153
0.0991881
0.0840304
0.0728487
0.0648949
0.0590521
0.0542106
0.050191
0.0468608
0.0440701
0.0416782
0.0395895
0.133685
0.112122
0.0964817
0.0854742
0.0777378
0.0720297
0.0675265
0.0637923
0.060492
0.0575885
0.0551046
0.319166
0.261195
0.217354
0.192551
0.17741
0.167524
0.159986
0.153455
0.147599
0.142397
0.137804
)
;

boundaryField
{
    inlet
    {
        type            fixedValue;
        value           nonuniform List<scalar> 0();
    }
    ami1
    {
        type            cyclicAMI;
        value           nonuniform List<scalar> 0();
    }
    walls
    {
        type            epsilonWallFunction;
        blending        stepwise;
        value           nonuniform List<scalar> 
259
(
0.0717602
0.0767809
0.079733
0.110761
0.319166
0.061083
0.0637675
0.0703849
0.0957221
0.261195
0.0539118
0.0560136
0.0622908
0.0839471
0.217354
0.0484579
0.0504748
0.0563834
0.0758048
0.192551
0.0440902
0.0460752
0.0518427
0.0700547
0.17741
0.0405035
0.0424954
0.0481165
0.0658054
0.167524
0.0374906
0.0394693
0.0450002
0.0623717
0.159986
0.0349003
0.0368555
0.0423309
0.0593776
0.153455
0.0326254
0.0345663
0.0399876
0.056633
0.147599
0.0306146
0.0325382
0.0379015
0.0541224
0.142397
0.0288293
0.0307314
0.0360336
0.0519226
0.137804
0.319277
0.110767
0.0797521
0.0767894
0.0717641
0.066788
0.0690242
0.0800632
0.0991881
0.133685
0.319166
0.261254
0.0958366
0.0704459
0.0637611
0.061102
0.0593585
0.0620368
0.0700612
0.0840304
0.112122
0.261195
0.21744
0.0840606
0.0623535
0.0560289
0.053932
0.0533353
0.0560258
0.0622747
0.0728487
0.0964817
0.217354
0.192638
0.0758675
0.0564018
0.0504942
0.0484748
0.0483356
0.0508877
0.0561154
0.0648949
0.0854742
0.192551
0.177501
0.0700892
0.0518277
0.0460828
0.0441005
0.044131
0.0464979
0.0511076
0.0590521
0.0777378
0.17741
0.167624
0.0658333
0.0480792
0.042483
0.0405036
0.0405685
0.0427496
0.0469447
0.0542106
0.0720297
0.167524
0.160104
0.0624046
0.044948
0.0394382
0.0374795
0.0375256
0.0395248
0.0433785
0.050191
0.0675265
0.159986
0.153568
0.0593995
0.0422702
0.0368115
0.034879
0.0348977
0.0367293
0.0403107
0.0468608
0.0637923
0.153455
0.147711
0.0566562
0.0399276
0.0345153
0.0325969
0.0325896
0.0342771
0.0376522
0.0440701
0.060492
0.147599
0.14243
0.0541115
0.0378448
0.0324851
0.0305821
0.0305444
0.032116
0.035333
0.0416782
0.0575885
0.142397
0.137923
0.0519801
0.035986
0.0306776
0.0287922
0.0287246
0.030203
0.0333073
0.0395895
0.0551046
0.137804
0.133791
0.0500523
0.0343276
0.0290616
0.0271958
0.027103
0.0285047
0.0315153
0.0716986
0.0667721
0.0690148
0.0800566
0.0991943
0.133714
0.319277
0.0610271
0.0593341
0.0620222
0.0700592
0.0840561
0.112168
0.261254
0.0538749
0.0533049
0.056006
0.0622742
0.0728802
0.0965357
0.21744
0.0483031
0.0508647
0.0561138
0.0649267
0.085534
0.192638
0.044104
0.0464746
0.0511058
0.0590876
0.0778062
0.177501
0.0405506
0.0427275
0.0469426
0.054247
0.0721023
0.167624
0.0375154
0.0395047
0.0433764
0.0502252
0.0675985
0.160104
0.0348948
0.0367116
0.0403083
0.0468915
0.0638581
0.153568
0.0325925
0.0342619
0.0376496
0.0440951
0.0605581
0.147711
0.030551
0.0321032
0.0353303
0.0417043
0.0576063
0.14243
0.0287326
0.030192
0.0333037
0.0396091
0.0551881
0.137923
0.0271096
0.0284947
0.0315111
0.0377601
0.0530168
0.133791
)
;
    }
    ami2
    {
        type            cyclicAMI;
        value           nonuniform List<scalar> 
61
(
0.0756576
0.0489726
0.0535082
0.070801
0.0491691
0.0545322
0.0712641
0.0503168
0.0542276
0.060337
0.0653158
0.0672398
0.0653168
0.0604693
0.0534753
0.0487719
0.0756881
0.0762891
0.0526343
0.0516135
0.0560818
0.0604629
0.0622054
0.0603277
0.0560804
0.051466
0.0487853
0.0871851
0.0857892
0.0563973
0.0484556
0.0514783
0.0534934
0.0545218
0.0542222
0.0516147
0.048463
0.0504361
0.093235
0.103114
0.0648012
0.0504362
0.0487823
0.048806
0.0491495
0.0503129
0.0526393
0.0564071
0.0648026
0.0979036
0.197711
0.0979107
0.0932483
0.0871907
0.0756919
0.070811
0.0712713
0.076294
0.0857865
0.103098
0.197653
)
;
    }
    outlet
    {
        type            zeroGradient;
    }
    procBoundary1to0
    {
        type            processor;
        value           nonuniform List<scalar> 
138
(
0.0484307
0.0484307
0.0440716
0.0404935
0.0374848
0.0348969
0.0326248
0.030614
0.028823
0.0272215
0.0313023
0.0313023
0.0276825
0.0245012
0.0218159
0.0196537
0.0180012
0.016531
0.0152273
0.0140739
0.0557892
0.0481781
0.0329432
0.0418559
0.0329432
0.0289778
0.0256196
0.022768
0.0203433
0.0182813
0.0165108
0.0149819
0.0136541
0.0571601
0.0493295
0.0428349
0.0374161
0.0328653
0.0290187
0.025747
0.0229487
0.020544
0.018469
0.016671
0.0151069
0.0571601
0.0493295
0.0428349
0.0374161
0.0328653
0.0290187
0.025747
0.0229487
0.020544
0.018469
0.016671
0.0151069
0.0618482
0.0533668
0.0463248
0.040442
0.0354976
0.031317
0.0277618
0.0247218
0.0221089
0.0198524
0.0178949
0.0161903
0.063515
0.0548118
0.0475822
0.0415389
0.0364568
0.0321582
0.0285018
0.025375
0.0226873
0.0203657
0.0183515
0.0165972
0.0618482
0.0533695
0.0463245
0.04044
0.0354951
0.0313147
0.0277599
0.0247203
0.0221078
0.0198515
0.0178942
0.0161899
0.0571692
0.0493257
0.042827
0.0374082
0.0328586
0.0290128
0.0257421
0.0229445
0.0205404
0.0184655
0.0166676
0.0151052
0.0507713
0.0438541
0.038159
0.0334146
0.0294274
0.0260475
0.0231655
0.0206947
0.0185863
0.0167797
0.0152192
0.0468764
0.0407041
0.035658
0.0314551
0.0279231
0.0248244
0.0221588
0.0198879
0.0181318
0.0166587
0.015344
0.0667167
0.0592893
0.0532848
0.0483033
0.0441135
0.0405636
0.0375292
0.0349083
0.0326052
0.0305634
0.0287499
)
;
    }
    procBoundary1to2
    {
        type            processor;
        value           nonuniform List<scalar> 9(0.0767778 0.0637655 0.0560529 0.0457918 0.0408215 0.0354394 0.047528 0.041294 0.0359738);
    }
    procBoundary1to8
    {
        type            processor;
        value           nonuniform List<scalar> 
33
(
0.0256652
0.0131319
0.0126842
0.0269903
0.0134012
0.0126238
0.0135047
0.0143774
0.0147089
0.0299208
0.0140564
0.0124084
0.0128506
0.0134847
0.0137451
0.036166
0.0156474
0.012471
0.0122446
0.0124906
0.0126798
0.0510624
0.0216294
0.0150597
0.0134431
0.0130414
0.0131298
0.129862
0.0483122
0.0328861
0.0276293
0.0257765
0.0256649
)
;
    }
    procBoundary1to9
    {
        type            processor;
        value           nonuniform List<scalar> 
30
(
0.0143788
0.0134882
0.0136486
0.0136486
0.01405
0.027245
0.0135035
0.0128514
0.0133256
0.0133256
0.0144081
0.0291328
0.0126217
0.0124076
0.0134716
0.0134716
0.0160469
0.0344105
0.0133987
0.0140594
0.0167677
0.0167677
0.0227422
0.0500963
0.0270016
0.0299266
0.0377554
0.0377554
0.0530229
0.133812
)
;
    }
}


// ************************************************************************* //
