/*--------------------------------*- C++ -*----------------------------------*\
| =========                 |                                                 |
| \\      /  F ield         | OpenFOAM: The Open Source CFD Toolbox           |
|  \\    /   O peration     | Version:  2212                                  |
|   \\  /    A nd           | Website:  www.openfoam.com                      |
|    \\/     M anipulation  |                                                 |
\*---------------------------------------------------------------------------*/
FoamFile
{
    version     2.0;
    format      ascii;
    arch        "LSB;label=32;scalar=64";
    class       volScalarField;
    location    "2";
    object      nut;
}
// * * * * * * * * * * * * * * * * * * * * * * * * * * * * * * * * * * * * * //

dimensions      [0 2 -1 0 0 0 0];

internalField   nonuniform List<scalar> 
690
(
2.33787e-05
2.20779e-05
2.11143e-05
0.000103479
9.78319e-05
9.29368e-05
0.000168654
0.000161508
0.000154669
2.40135e-05
2.29617e-05
2.20887e-05
2.13455e-05
2.06942e-05
2.01177e-05
1.96026e-05
1.91378e-05
1.87114e-05
1.83173e-05
1.79517e-05
1.76128e-05
0.000106745
0.000101594
9.64495e-05
9.17012e-05
8.72685e-05
8.36057e-05
8.04405e-05
7.7588e-05
7.41186e-05
7.05991e-05
6.73808e-05
6.44473e-05
0.000175698
0.000168052
0.0001607
0.000153789
0.000147315
0.000141312
0.000135786
0.000130693
0.000125865
0.000121244
0.000116838
0.000112658
2.27433e-05
2.19939e-05
2.12876e-05
2.06347e-05
2.00368e-05
1.94934e-05
1.89985e-05
1.85466e-05
1.81307e-05
1.77472e-05
1.73929e-05
1.70658e-05
0.000103607
9.7321e-05
9.17344e-05
8.67689e-05
8.2425e-05
7.90484e-05
7.5755e-05
7.25515e-05
6.89312e-05
6.56156e-05
6.25615e-05
5.97539e-05
0.000169257
0.000161046
0.000153626
0.000146843
0.000140607
0.000134891
0.000129597
0.000124654
0.000119914
0.000115394
0.000111101
0.000107028
0.000208709
0.000200424
0.00019239
0.000184745
0.000177543
0.00017079
0.000164463
0.000158538
0.000152988
0.000147757
0.000142799
0.00013809
0.00023376
0.000224056
0.000214963
0.000206449
0.00019848
0.000191023
0.000184042
0.000177502
0.000171369
0.000165608
0.000160183
0.000155048
0.000242601
0.00023205
0.000222429
0.000213543
0.000205283
0.000197576
0.000190368
0.000183619
0.000177291
0.000171349
0.000165758
0.000160466
0.000233758
0.000224104
0.000215022
0.000206509
0.000198542
0.000191087
0.000184109
0.000177572
0.000171443
0.000165683
0.000160258
0.00015512
0.000212073
0.000202501
0.000193808
0.000185827
0.000178457
0.00017163
0.000165285
0.000159365
0.000153816
0.000148594
0.000143658
0.000138962
0.000168915
0.00016157
0.000154668
0.000148224
0.000142241
0.000136738
0.000131653
0.00012689
0.000122349
0.000118025
0.000113883
0.000104364
9.81547e-05
9.31199e-05
8.87206e-05
8.4768e-05
8.16783e-05
7.90945e-05
7.62778e-05
7.26856e-05
6.94306e-05
6.64578e-05
2.33787e-05
2.20826e-05
2.11148e-05
2.03637e-05
1.97262e-05
1.91728e-05
1.8684e-05
1.8244e-05
1.78404e-05
1.74691e-05
1.7127e-05
2.05827e-05
1.97292e-05
1.89812e-05
1.83421e-05
1.77841e-05
1.72899e-05
1.68426e-05
1.64377e-05
1.60699e-05
1.5735e-05
1.54307e-05
1.51515e-05
8.7586e-05
8.23838e-05
7.77745e-05
7.39901e-05
7.10788e-05
6.8136e-05
6.44362e-05
6.11185e-05
5.80598e-05
5.52233e-05
5.25981e-05
5.01256e-05
0.000144374
0.000138381
0.000132694
0.000127384
0.000122461
0.00011783
0.000113314
0.000108989
0.000104837
0.000100851
9.70243e-05
9.33406e-05
0.000185441
0.000178093
0.000170996
0.000164293
0.000158009
0.000152137
0.000146633
0.000141418
0.000136468
0.000131758
0.000127266
0.000122978
0.000212106
0.000202485
0.000193787
0.000185809
0.000178442
0.000171612
0.000165261
0.000159333
0.000153776
0.000148548
0.00014361
0.000138928
0.000220603
0.00021027
0.00020101
0.000192574
0.000184812
0.000177632
0.000170966
0.000164762
0.000158969
0.000153539
0.000148422
0.000143572
0.000208762
0.000200529
0.000192498
0.000184851
0.000177654
0.000170911
0.000164595
0.000158682
0.000153145
0.000147924
0.000142972
0.000138268
0.000185459
0.000178142
0.000171051
0.000164354
0.000158079
0.00015222
0.000146735
0.00014154
0.000136606
0.000131907
0.000127419
0.000123153
0.000152848
0.000143167
0.000135962
0.000130046
0.000124895
0.000120276
0.00011591
0.000111706
0.00010764
0.000103697
9.98765e-05
9.08023e-05
8.40863e-05
8.02465e-05
7.68433e-05
7.40634e-05
7.20416e-05
6.89916e-05
6.5702e-05
6.26885e-05
5.98961e-05
5.72378e-05
2.05397e-05
1.91349e-05
1.83108e-05
1.77089e-05
1.71833e-05
1.67225e-05
1.63113e-05
1.59401e-05
1.56027e-05
1.52937e-05
1.50095e-05
1.67185e-05
1.58259e-05
1.51275e-05
1.44886e-05
1.40354e-05
1.36398e-05
1.32909e-05
1.29867e-05
1.2723e-05
1.24869e-05
1.22732e-05
1.20798e-05
5.87378e-05
5.69657e-05
5.46439e-05
5.30323e-05
5.04238e-05
4.80168e-05
4.57171e-05
4.3497e-05
4.13547e-05
3.92721e-05
3.74297e-05
3.5221e-05
0.000109908
0.00010447
0.000100243
9.67637e-05
9.33803e-05
9.00132e-05
8.66773e-05
8.33597e-05
8.00708e-05
7.68168e-05
7.36664e-05
7.04587e-05
0.000152749
0.000143198
0.000135996
0.000130051
0.000124867
0.000120203
0.00011579
0.000111547
0.000107453
0.00010349
9.96802e-05
9.60088e-05
0.00016875
0.000161526
0.000154643
0.0001482
0.000142212
0.000136699
0.000131598
0.000126817
0.000122257
0.000117921
0.000113771
0.000109795
0.000175739
0.000168194
0.000160836
0.00015388
0.000147387
0.000141384
0.000135855
0.000130766
0.000125953
0.000121355
0.000116963
0.000112794
0.000169291
0.000161187
0.000153771
0.000146979
0.000140737
0.000135016
0.000129708
0.000124779
0.000120067
0.000115561
0.00011127
0.000107206
0.000144375
0.000138374
0.000132713
0.000127446
0.000122543
0.000117921
0.000113429
0.000109127
0.000104987
0.000101009
9.71737e-05
9.35453e-05
0.000109882
0.00010455
0.000100268
9.67992e-05
9.34437e-05
9.01116e-05
8.67975e-05
8.34963e-05
8.02129e-05
7.69788e-05
7.37402e-05
7.08442e-05
6.15114e-05
5.77515e-05
5.58234e-05
5.32358e-05
5.04984e-05
4.80359e-05
4.57465e-05
4.35039e-05
4.1425e-05
3.93148e-05
1.53211e-05
1.48039e-05
1.43155e-05
1.38369e-05
1.34311e-05
1.3084e-05
1.2784e-05
1.25205e-05
1.22828e-05
1.20685e-05
1.18722e-05
1.13e-05
1.06282e-05
1.00937e-05
9.65511e-06
9.33076e-06
9.0839e-06
8.88273e-06
8.71169e-06
8.55256e-06
8.41434e-06
8.29583e-06
8.18685e-06
2.8884e-05
2.81614e-05
2.72945e-05
2.61147e-05
2.48305e-05
2.36532e-05
2.23978e-05
2.12264e-05
1.99618e-05
1.88378e-05
1.79595e-05
1.69417e-05
7.08416e-05
6.15604e-05
5.77498e-05
5.57693e-05
5.30856e-05
5.03012e-05
4.78128e-05
4.55049e-05
4.32697e-05
4.11764e-05
3.9169e-05
3.70493e-05
9.08185e-05
8.4446e-05
8.0491e-05
7.69591e-05
7.41157e-05
7.196e-05
6.87891e-05
6.5456e-05
6.24176e-05
5.96061e-05
5.69826e-05
5.4464e-05
0.000104198
9.83976e-05
9.33276e-05
8.88452e-05
8.48031e-05
8.16612e-05
7.90151e-05
7.61298e-05
7.25004e-05
6.9233e-05
6.6251e-05
6.34926e-05
0.000106828
0.000101664
9.65275e-05
9.17116e-05
8.72555e-05
8.3548e-05
8.04285e-05
7.75687e-05
7.40949e-05
7.05726e-05
6.73597e-05
6.444e-05
0.000103624
9.73462e-05
9.17767e-05
8.68227e-05
8.24705e-05
7.91035e-05
7.58197e-05
7.26259e-05
6.90032e-05
6.56851e-05
6.26282e-05
5.98245e-05
8.7577e-05
8.23763e-05
7.77825e-05
7.40146e-05
7.11093e-05
6.81713e-05
6.44739e-05
6.11602e-05
5.81046e-05
5.5274e-05
5.26406e-05
5.02212e-05
5.87116e-05
5.69706e-05
5.46446e-05
5.30283e-05
5.04133e-05
4.79948e-05
4.56913e-05
4.3472e-05
4.13311e-05
3.92864e-05
3.73136e-05
2.88803e-05
2.8206e-05
2.73017e-05
2.61088e-05
2.4802e-05
2.36154e-05
2.2357e-05
2.1193e-05
1.99241e-05
1.88838e-05
1.77822e-05
1.07247e-05
1.017e-05
9.66942e-06
9.2858e-06
9.00915e-06
8.7998e-06
8.62892e-06
8.48789e-06
8.34873e-06
8.23053e-06
8.12181e-06
5.56587e-06
5.16656e-06
4.81343e-06
4.5908e-06
4.45078e-06
4.35574e-06
4.28144e-06
4.21999e-06
4.16297e-06
4.11365e-06
4.07115e-06
4.03126e-06
1.07251e-05
1.01723e-05
9.67368e-06
9.28938e-06
9.01114e-06
8.80094e-06
8.6289e-06
8.48772e-06
8.34838e-06
8.22761e-06
8.12409e-06
8.02766e-06
1.53227e-05
1.48101e-05
1.43248e-05
1.38451e-05
1.34358e-05
1.30849e-05
1.27818e-05
1.25159e-05
1.22765e-05
1.20608e-05
1.18646e-05
1.16837e-05
2.054e-05
1.91386e-05
1.83134e-05
1.77121e-05
1.71864e-05
1.67238e-05
1.63099e-05
1.59359e-05
1.55961e-05
1.52848e-05
1.49985e-05
1.47346e-05
2.33808e-05
2.2083e-05
2.11149e-05
2.03636e-05
1.9726e-05
1.91721e-05
1.86822e-05
1.82406e-05
1.7835e-05
1.74621e-05
1.71178e-05
1.67996e-05
2.40149e-05
2.29638e-05
2.20909e-05
2.1346e-05
2.06943e-05
2.01174e-05
1.96019e-05
1.91365e-05
1.87093e-05
1.83142e-05
1.7948e-05
1.76088e-05
2.27441e-05
2.19941e-05
2.12883e-05
2.0636e-05
2.00387e-05
1.94957e-05
1.9001e-05
1.85492e-05
1.81332e-05
1.77494e-05
1.73949e-05
1.70676e-05
2.05832e-05
1.97303e-05
1.8982e-05
1.83428e-05
1.77852e-05
1.72912e-05
1.68439e-05
1.6439e-05
1.60713e-05
1.57363e-05
1.54321e-05
1.51531e-05
1.67188e-05
1.58266e-05
1.51275e-05
1.44889e-05
1.4036e-05
1.36401e-05
1.32908e-05
1.29861e-05
1.27222e-05
1.24851e-05
1.22716e-05
1.12997e-05
1.06279e-05
1.00936e-05
9.65532e-06
9.3307e-06
9.08339e-06
8.88173e-06
8.71051e-06
8.55103e-06
8.41533e-06
8.29067e-06
5.56544e-06
5.16659e-06
4.81339e-06
4.59084e-06
4.45068e-06
4.35555e-06
4.28113e-06
4.21967e-06
4.16246e-06
4.11406e-06
4.07e-06
)
;

boundaryField
{
    inlet
    {
        type            calculated;
        value           nonuniform List<scalar> 0();
    }
    ami1
    {
        type            cyclicAMI;
        value           nonuniform List<scalar> 0();
    }
    walls
    {
        type            nutkWallFunction;
        blending        stepwise;
        value           uniform 0;
    }
    ami2
    {
        type            cyclicAMI;
        value           nonuniform List<scalar> 
61
(
3.02938e-05
0.000110568
0.000173609
2.74087e-05
0.000112613
0.000180989
2.36759e-05
0.000109344
0.000173693
0.000213276
0.000238716
0.0002476
0.00023871
0.000217328
0.000173741
0.00011101
3.02939e-05
2.39412e-05
9.17595e-05
0.000147066
0.00018991
0.000217348
0.000225668
0.000213298
0.000189912
0.000158623
9.46452e-05
2.73956e-05
2.21196e-05
6.08908e-05
0.000112962
0.000158583
0.000173662
0.000181013
0.00017371
0.000147063
0.000112942
7.76936e-05
1.63229e-05
1.82388e-05
2.6903e-05
7.77004e-05
9.46613e-05
0.00011093
0.00011266
0.000109358
9.17553e-05
6.0876e-05
2.69008e-05
1.36223e-05
1.31948e-05
1.36228e-05
1.63243e-05
2.73979e-05
3.02956e-05
2.74098e-05
2.36766e-05
2.39416e-05
2.21198e-05
1.82386e-05
1.31944e-05
)
;
    }
    outlet
    {
        type            calculated;
        value           nonuniform List<scalar> 0();
    }
    procBoundary1to0
    {
        type            processor;
        value           nonuniform List<scalar> 
138
(
2.03705e-05
2.03705e-05
1.97295e-05
1.91752e-05
1.86859e-05
1.82454e-05
1.7842e-05
1.74706e-05
1.71272e-05
1.68091e-05
8.85813e-05
8.85813e-05
8.47346e-05
8.1741e-05
7.90933e-05
7.62241e-05
7.26308e-05
6.93737e-05
6.63899e-05
6.36216e-05
0.000212128
0.000202522
0.000148282
0.000193824
0.000148282
0.00014227
0.000136739
0.000131626
0.000126842
0.000122274
0.000117927
0.000113771
0.000109788
0.000220718
0.00021032
0.000201023
0.000192562
0.000184779
0.000177577
0.000170893
0.000164675
0.000158873
0.000153432
0.000148305
0.000143447
0.000220718
0.00021032
0.000201023
0.000192562
0.000184779
0.000177577
0.000170893
0.000164675
0.000158873
0.000153432
0.000148305
0.000143447
0.000242627
0.000232114
0.000222491
0.000213594
0.000205323
0.000197605
0.00019039
0.000183634
0.0001773
0.000171353
0.000165758
0.000160464
0.000248243
0.0002385
0.000229148
0.00022029
0.000211945
0.000204102
0.000196736
0.000189819
0.000183321
0.000177213
0.000171462
0.000166016
0.000242621
0.000232109
0.000222508
0.00021363
0.000205371
0.000197662
0.000190451
0.000183697
0.000177365
0.000171418
0.000165822
0.000160521
0.000220619
0.000210294
0.000201043
0.000192608
0.000184843
0.000177658
0.000170985
0.000164776
0.000158979
0.000153544
0.000148422
0.000143539
0.000175765
0.00016823
0.000160899
0.000153955
0.000147459
0.000141447
0.000135904
0.000130809
0.000125989
0.000121383
0.00011699
0.000106626
0.000101423
9.63592e-05
9.16216e-05
8.72285e-05
8.35991e-05
8.04531e-05
7.7622e-05
7.41595e-05
7.06471e-05
6.74654e-05
2.40152e-05
2.29587e-05
2.20866e-05
2.13434e-05
2.06933e-05
2.01179e-05
1.96036e-05
1.91394e-05
1.87132e-05
1.83192e-05
1.7955e-05
)
;
    }
    procBoundary1to2
    {
        type            processor;
        value           nonuniform List<scalar> 9(2.05392e-05 1.914e-05 1.83194e-05 9.07214e-05 8.44176e-05 8.05421e-05 0.000152863 0.000143636 0.000136359);
    }
    procBoundary1to8
    {
        type            processor;
        value           nonuniform List<scalar> 
33
(
1.73004e-05
6.17773e-05
0.000108616
1.67661e-05
5.72333e-05
0.000103115
0.000133523
0.000150068
0.000155306
1.48975e-05
4.7995e-05
8.98996e-05
0.000118865
0.000134377
0.000138808
1.19132e-05
3.43757e-05
6.78222e-05
9.26503e-05
0.000105978
0.000108724
8.09144e-06
1.62094e-05
3.56335e-05
5.2352e-05
6.10294e-05
6.18167e-05
3.99322e-06
7.94072e-06
1.15271e-05
1.44955e-05
1.65078e-05
1.72976e-05
)
;
    }
    procBoundary1to9
    {
        type            processor;
        value           nonuniform List<scalar> 
30
(
0.000150099
0.000134394
0.000109887
0.000109887
6.37903e-05
1.68135e-05
0.000133634
0.000118977
9.63592e-05
9.63592e-05
5.49624e-05
1.47517e-05
0.00010323
9.00193e-05
7.09456e-05
7.09456e-05
3.76442e-05
1.16984e-05
5.73031e-05
4.80382e-05
3.57853e-05
3.57853e-05
1.72049e-05
8.03207e-06
1.67685e-05
1.48994e-05
1.2083e-05
1.2083e-05
8.18987e-06
4.03222e-06
)
;
    }
}


// ************************************************************************* //
