/*--------------------------------*- C++ -*----------------------------------*\
| =========                 |                                                 |
| \\      /  F ield         | OpenFOAM: The Open Source CFD Toolbox           |
|  \\    /   O peration     | Version:  2212                                  |
|   \\  /    A nd           | Website:  www.openfoam.com                      |
|    \\/     M anipulation  |                                                 |
\*---------------------------------------------------------------------------*/
FoamFile
{
    version     2.0;
    format      ascii;
    arch        "LSB;label=32;scalar=64";
    class       volScalarField;
    location    "2";
    object      p;
}
// * * * * * * * * * * * * * * * * * * * * * * * * * * * * * * * * * * * * * //

dimensions      [0 2 -2 0 0 0 0];

internalField   nonuniform List<scalar> 
690
(
0.00492161
0.00485926
0.00473481
0.00489951
0.00475916
0.00465307
0.00490583
0.00475357
0.00463729
0.00500969
0.00489955
0.00474938
0.00458542
0.00442464
0.00426946
0.0041191
0.00397349
0.0038315
0.00369143
0.00355297
0.00341623
0.00497189
0.00482105
0.00468953
0.00454426
0.00439562
0.00425034
0.00410763
0.00396656
0.00382734
0.00368999
0.00355412
0.00341956
0.00493672
0.00478097
0.00465096
0.00450787
0.00435933
0.00421315
0.00406926
0.00392643
0.00378505
0.0036461
0.00350951
0.00337476
0.00512226
0.00495513
0.00476624
0.00458595
0.00441926
0.00426138
0.00410952
0.00396305
0.00382062
0.00368079
0.00354283
0.00340677
0.00506625
0.00489816
0.0047394
0.00457636
0.00441714
0.0042637
0.00411422
0.00396811
0.00382541
0.00368587
0.0035488
0.00341384
0.00499797
0.00482862
0.00468372
0.00453057
0.00437508
0.00422338
0.00407538
0.00392941
0.00378568
0.00364529
0.00350795
0.00337263
0.00492503
0.00476427
0.00463391
0.0044911
0.0043424
0.00419561
0.00405148
0.00390907
0.00376828
0.00362961
0.00349295
0.003358
0.00490846
0.00474642
0.00461208
0.00447054
0.00432492
0.0041807
0.00403847
0.00389765
0.00375819
0.00362033
0.0034841
0.00334939
0.00490603
0.00474309
0.00460678
0.00446502
0.00431982
0.00417594
0.00403404
0.00389362
0.00375457
0.00361705
0.0034811
0.00334662
0.00490846
0.00474642
0.00461207
0.00447054
0.00432492
0.00418071
0.00403848
0.00389766
0.00375821
0.00362033
0.00348409
0.00334934
0.00492993
0.00476503
0.00462801
0.00448461
0.00433743
0.00419223
0.00404934
0.00390795
0.00376814
0.00363012
0.00349381
0.00335896
0.0049056
0.00475281
0.00463658
0.00450033
0.00435482
0.00421082
0.00406819
0.00392604
0.00378539
0.00364707
0.00351082
0.00489945
0.00475906
0.00465308
0.00452229
0.00438079
0.00424079
0.00410192
0.00396375
0.00382653
0.00369026
0.00355498
0.0049213
0.00485963
0.00473523
0.00457793
0.00442167
0.0042704
0.00412242
0.00397795
0.00383645
0.00369645
0.00355789
0.00528213
0.00503839
0.00477896
0.00457087
0.00439704
0.00423782
0.00408686
0.00394223
0.00380224
0.00366489
0.00352942
0.00339515
0.00514015
0.00496151
0.00477916
0.0045961
0.00442561
0.00426516
0.00411058
0.00396183
0.00381801
0.00367814
0.00354108
0.00340657
0.00503862
0.0048618
0.00471469
0.00455267
0.00438887
0.00423097
0.00407879
0.00393121
0.00378738
0.0036469
0.00350901
0.00337374
0.00494961
0.00478346
0.00465205
0.00450691
0.00435545
0.00420642
0.00406076
0.00391739
0.00377628
0.00363736
0.00350038
0.00336515
0.00492999
0.00476511
0.00462801
0.00448455
0.00433733
0.00419212
0.00404922
0.00390784
0.00376804
0.00363004
0.00349374
0.00335897
0.00493436
0.00476818
0.0046274
0.00448239
0.00433481
0.00418948
0.0040466
0.00390531
0.00376548
0.00362751
0.00349137
0.00335678
0.00492501
0.00476425
0.00463386
0.00449105
0.00434237
0.00419559
0.00405148
0.00390908
0.0037683
0.00362963
0.00349297
0.00335795
0.00494951
0.00478339
0.00465207
0.00450699
0.00435557
0.00420655
0.00406088
0.00391749
0.00377638
0.00363746
0.00350054
0.00336512
0.00498881
0.00481576
0.00467575
0.00452468
0.00437039
0.00422013
0.00407285
0.00392839
0.00378679
0.00364771
0.00351085
0.00490142
0.00475825
0.00465441
0.00451986
0.00437665
0.00423614
0.00409739
0.00395937
0.00382198
0.0036854
0.00354999
0.0050034
0.004905
0.0047416
0.00457018
0.00441422
0.0042659
0.00412054
0.00397725
0.00383573
0.00369576
0.00355734
0.00547827
0.0050866
0.00473199
0.00451386
0.00434947
0.00419562
0.00404879
0.00390853
0.00377324
0.00364006
0.00350806
0.00337579
0.00523573
0.00499823
0.00476775
0.00456887
0.00439598
0.00423592
0.00408465
0.0039399
0.00379971
0.00366283
0.00352792
0.00339442
0.00511769
0.0049163
0.00473805
0.00455857
0.00438789
0.00422814
0.00407549
0.00392821
0.00378523
0.00364565
0.00350829
0.00337395
0.00498919
0.00481609
0.0046757
0.00452439
0.00436999
0.00421969
0.00407246
0.00392812
0.00378657
0.00364749
0.00351038
0.00337531
0.00490595
0.00475322
0.00463665
0.00450012
0.0043545
0.00421047
0.00406784
0.00392572
0.00378511
0.00364682
0.00351056
0.00337591
0.00493675
0.00478078
0.0046506
0.00450741
0.00435887
0.00421278
0.00406899
0.0039262
0.00378487
0.003646
0.00350949
0.00337482
0.0049979
0.00482852
0.00468359
0.00453042
0.00437492
0.00422324
0.00407528
0.00392932
0.00378562
0.00364527
0.003508
0.00337266
0.00503855
0.00486173
0.0047146
0.00455258
0.00438876
0.00423088
0.00407873
0.00393117
0.00378739
0.00364698
0.00350935
0.00337377
0.00511758
0.00491622
0.004738
0.00455856
0.00438789
0.00422815
0.0040755
0.00392821
0.00378529
0.00364577
0.00350916
0.0051523
0.00493902
0.00472167
0.00453545
0.00437638
0.00422814
0.00408532
0.00394587
0.00380867
0.00367295
0.00353872
0.00513573
0.00495653
0.00472723
0.00454449
0.00439188
0.00424502
0.00410089
0.00395974
0.00382016
0.00368194
0.00354505
0.00567516
0.00504248
0.00458472
0.00439969
0.00427555
0.00415009
0.00402583
0.00390174
0.0037741
0.00364382
0.00351326
0.00338242
0.00533148
0.00498189
0.00468669
0.00450179
0.00435628
0.00421345
0.00407445
0.00393945
0.00380622
0.00367334
0.00354112
0.00340849
0.0051523
0.00493917
0.00472204
0.00453593
0.00437692
0.00422869
0.00408578
0.0039462
0.00380881
0.00367306
0.00353844
0.00340472
0.00490152
0.00475831
0.00465452
0.00452
0.00437679
0.0042363
0.00409757
0.00395952
0.00382205
0.00368538
0.00354964
0.00341516
0.00489969
0.00475928
0.00465314
0.00452228
0.00438078
0.00424076
0.00410189
0.00396375
0.00382648
0.00369014
0.00355472
0.00342032
0.004972
0.004821
0.00468937
0.004544
0.00439527
0.00424999
0.00410733
0.00396629
0.00382706
0.00368974
0.00355394
0.00341948
0.00506618
0.00489806
0.00473928
0.0045762
0.00441693
0.00426348
0.00411401
0.0039679
0.00382523
0.00368576
0.0035488
0.00341387
0.00514005
0.00496136
0.00477894
0.00459581
0.0044253
0.0042649
0.00411037
0.00396165
0.0038179
0.0036781
0.00354142
0.00340658
0.00523565
0.00499807
0.0047675
0.00456853
0.00439559
0.00423551
0.00408428
0.00393965
0.00379964
0.00366273
0.00352831
0.00533141
0.00498171
0.00468633
0.0045013
0.00435572
0.00421285
0.00407389
0.00393904
0.00380592
0.0036732
0.00354058
0.00544167
0.00497591
0.00465148
0.00450403
0.00437513
0.00423574
0.00409617
0.00395823
0.00382074
0.00368416
0.00354818
0.0055582
0.00495085
0.00457119
0.00443148
0.00431226
0.00418411
0.00405663
0.0039285
0.00379684
0.00366347
0.00353071
0.00339835
0.00544173
0.00497599
0.00465168
0.00450446
0.00437575
0.00423641
0.00409682
0.00395878
0.00382124
0.00368416
0.00354882
0.00341454
0.00513569
0.00495661
0.00472765
0.00454523
0.00439275
0.00424584
0.00410158
0.00396023
0.0038205
0.00368208
0.00354541
0.00340986
0.00500306
0.00490485
0.004742
0.00457087
0.00441499
0.00426667
0.0041212
0.00397772
0.00383605
0.00369592
0.00355746
0.00342039
0.00492104
0.00485941
0.00473545
0.00457844
0.00442222
0.0042709
0.00412284
0.00397827
0.00383666
0.00369653
0.00355786
0.00342077
0.00500951
0.0048996
0.00474961
0.00458566
0.00442475
0.00426936
0.00411882
0.00397315
0.00383112
0.00369106
0.00355264
0.00341598
0.00512221
0.0049551
0.00476624
0.00458595
0.00441919
0.00426122
0.00410927
0.00396277
0.00382033
0.00368054
0.00354263
0.0034067
0.00528207
0.00503833
0.00477888
0.00457077
0.00439691
0.00423762
0.0040866
0.00394196
0.00380198
0.00366468
0.00352921
0.00339522
0.00547818
0.00508651
0.00473194
0.00451381
0.00434935
0.00419534
0.00404841
0.00390821
0.00377297
0.00363989
0.00350754
0.00567499
0.00504228
0.00458454
0.00439948
0.00427529
0.00414984
0.00402556
0.00390147
0.00377376
0.00364385
0.00351262
0.00555813
0.0049507
0.00457098
0.00443111
0.00431179
0.00418369
0.00405623
0.00392815
0.00379643
0.00366354
0.00353009
)
;

boundaryField
{
    inlet
    {
        type            zeroGradient;
    }
    ami1
    {
        type            cyclicAMI;
        value           nonuniform List<scalar> 0();
    }
    walls
    {
        type            zeroGradient;
    }
    ami2
    {
        type            cyclicAMI;
        value           nonuniform List<scalar> 
61
(
0.00495032
0.00504651
0.00505083
0.00504335
0.00509021
0.00506059
0.00517801
0.00517276
0.00511809
0.00505978
0.00503266
0.00502441
0.00503265
0.00504835
0.00505073
0.00504647
0.00495004
0.0053099
0.00525561
0.00518986
0.00509206
0.0050484
0.00504853
0.00505976
0.00509197
0.0051192
0.00508844
0.00503991
0.00547504
0.00536304
0.00526363
0.00511945
0.00505094
0.00506066
0.00511805
0.00518979
0.00526353
0.00524945
0.00514156
0.00563521
0.00544407
0.00524949
0.00508852
0.00504662
0.00509031
0.00517273
0.00525552
0.00536297
0.00544401
0.00538124
0.0055259
0.00538127
0.00514153
0.00503972
0.00494989
0.00504314
0.00517794
0.00530984
0.00547496
0.00563509
0.00552585
)
;
    }
    outlet
    {
        type            fixedValue;
        value           nonuniform List<scalar> 0();
    }
    procBoundary1to0
    {
        type            processor;
        value           nonuniform List<scalar> 
138
(
0.00457766
0.00457766
0.00442157
0.00427066
0.00412303
0.00397864
0.0038371
0.00369704
0.00355838
0.00342127
0.00452239
0.00452239
0.00438114
0.00424122
0.00410237
0.00396421
0.00382698
0.00369063
0.00355514
0.00342059
0.00493015
0.00476545
0.00450094
0.00462842
0.00450094
0.00435542
0.00421126
0.00406844
0.00392619
0.00378547
0.00364703
0.00351061
0.00337579
0.00493437
0.00476827
0.00462756
0.00448258
0.00433499
0.00418963
0.00404672
0.0039054
0.00376554
0.00362754
0.00349137
0.00335679
0.00493437
0.00476827
0.00462756
0.00448258
0.00433499
0.00418963
0.00404672
0.0039054
0.00376554
0.00362754
0.00349137
0.00335679
0.00490607
0.00474314
0.00460685
0.00446508
0.00431987
0.00417598
0.00403408
0.00389364
0.00375458
0.00361705
0.00348109
0.00334661
0.00488366
0.00472541
0.00459579
0.00445709
0.00431338
0.00417035
0.00402894
0.00388884
0.00375006
0.00361278
0.00347704
0.00334275
0.00490605
0.00474312
0.00460681
0.00446505
0.00431985
0.00417595
0.00403406
0.00389362
0.00375456
0.00361704
0.00348108
0.0033466
0.00493436
0.00476821
0.00462746
0.00448246
0.00433487
0.00418953
0.00404664
0.00390535
0.00376551
0.00362754
0.00349137
0.00335678
0.00493658
0.0047807
0.00465069
0.0045076
0.00435908
0.00421295
0.00406913
0.00392635
0.00378502
0.00364616
0.00350965
0.00497182
0.00482082
0.00468932
0.00454405
0.00439536
0.00425008
0.00410741
0.00396637
0.00382717
0.00368989
0.00355415
0.00500968
0.00489962
0.0047494
0.00458534
0.00442446
0.00426916
0.00411869
0.00397305
0.00383107
0.00369105
0.00355267
)
;
    }
    procBoundary1to2
    {
        type            processor;
        value           nonuniform List<scalar> 9(0.00500274 0.00490417 0.00474128 0.00490134 0.00475802 0.00465452 0.00498974 0.00481686 0.00467644);
    }
    procBoundary1to8
    {
        type            processor;
        value           nonuniform List<scalar> 
33
(
0.00328128
0.00328608
0.00324142
0.00327252
0.00328028
0.0032389
0.00322456
0.00321613
0.00321357
0.00326235
0.00327318
0.00323994
0.00323146
0.00322556
0.00322363
0.00324487
0.00326191
0.00324038
0.00324129
0.00324233
0.00324152
0.00325269
0.00327737
0.00327183
0.00328133
0.00328668
0.00328608
0.00326765
0.00328237
0.00327621
0.003285
0.00328538
0.00328113
)
;
    }
    procBoundary1to9
    {
        type            processor;
        value           nonuniform List<scalar> 
30
(
0.00321605
0.00322549
0.00337593
0.00337593
0.0034205
0.0034211
0.00322444
0.00323123
0.00337531
0.00337531
0.00341543
0.00342079
0.00323889
0.00323974
0.00337394
0.00337394
0.00340534
0.00341032
0.00328037
0.00327313
0.0033949
0.0033949
0.00340906
0.00341457
0.0032726
0.00326264
0.00337621
0.00337621
0.0033824
0.00339831
)
;
    }
}


// ************************************************************************* //
