/*--------------------------------*- C++ -*----------------------------------*\
| =========                 |                                                 |
| \\      /  F ield         | OpenFOAM: The Open Source CFD Toolbox           |
|  \\    /   O peration     | Version:  2212                                  |
|   \\  /    A nd           | Website:  www.openfoam.com                      |
|    \\/     M anipulation  |                                                 |
\*---------------------------------------------------------------------------*/
FoamFile
{
    version     2.0;
    format      ascii;
    arch        "LSB;label=32;scalar=64";
    class       surfaceScalarField;
    location    "2";
    object      phi;
}
// * * * * * * * * * * * * * * * * * * * * * * * * * * * * * * * * * * * * * //

dimensions      [0 3 -1 0 0 0 0];

oriented        oriented;

internalField   nonuniform List<scalar> 
1805
(
7.22846e-07
-1.383e-08
1.12075e-07
7.32392e-07
-1.14734e-08
1.12453e-07
-9.51302e-09
1.13394e-07
1.1176e-06
-1.40871e-08
1.01897e-07
1.12046e-06
-1.39924e-08
1.01055e-07
-1.32436e-08
1.00974e-07
1.3853e-06
8.4263e-08
1.39028e-06
8.39634e-08
8.39222e-08
8.07339e-07
4.92153e-11
1.07259e-07
8.11601e-07
1.91975e-09
1.06272e-07
8.14641e-07
3.16163e-09
1.07192e-07
8.1594e-07
4.08666e-09
1.08776e-07
8.1556e-07
4.868e-09
1.10382e-07
8.13728e-07
5.53807e-09
1.1186e-07
8.1068e-07
6.12638e-09
1.1311e-07
8.06637e-07
6.67047e-09
1.14116e-07
8.01765e-07
7.13411e-09
1.14926e-07
7.96205e-07
7.53689e-09
1.15592e-07
7.9011e-07
7.86081e-09
1.16083e-07
8.11872e-09
1.16433e-07
1.18313e-06
5.88009e-09
9.55986e-08
1.18561e-06
6.14208e-09
9.43599e-08
1.18894e-06
6.64046e-09
9.41582e-08
1.19244e-06
7.10491e-09
9.46426e-08
1.19571e-06
7.54808e-09
9.54578e-08
1.19855e-06
7.98595e-09
9.6418e-08
1.20085e-06
8.39321e-09
9.74115e-08
1.20268e-06
8.73267e-09
9.83527e-08
1.20412e-06
8.99601e-09
9.91589e-08
1.20523e-06
9.23268e-09
9.98547e-08
1.20603e-06
9.45236e-09
1.00438e-07
9.64938e-09
1.00902e-07
1.43594e-06
7.80875e-08
1.44121e-06
7.7552e-08
1.44683e-06
7.74465e-08
1.45255e-06
7.76121e-08
1.45819e-06
7.79486e-08
1.46368e-06
7.83841e-08
1.46894e-06
7.88691e-08
1.47393e-06
7.93603e-08
1.47866e-06
7.9809e-08
1.48318e-06
8.01956e-08
1.48753e-06
8.05263e-08
8.08029e-08
8.23672e-07
1.57628e-08
9.28047e-08
8.21718e-07
1.75035e-08
9.07226e-08
8.18297e-07
1.81207e-08
9.24923e-08
8.13569e-07
1.8258e-08
9.52461e-08
8.07869e-07
1.82782e-08
9.78035e-08
8.01526e-07
1.82531e-08
9.99498e-08
7.94788e-07
1.81743e-08
1.01674e-07
7.87829e-07
1.80529e-08
1.03023e-07
7.80722e-07
1.79696e-08
1.04062e-07
7.73534e-07
1.79156e-08
1.04864e-07
7.6627e-07
1.78836e-08
1.05463e-07
1.78771e-08
1.05878e-07
1.16717e-06
2.67835e-08
8.24783e-08
1.17024e-06
2.78709e-08
8.09278e-08
1.17296e-06
2.84545e-08
8.10965e-08
1.17499e-06
2.86042e-08
8.22746e-08
1.17638e-06
2.85801e-08
8.37648e-08
1.17726e-06
2.84621e-08
8.5325e-08
1.17775e-06
2.82714e-08
8.683e-08
1.17796e-06
2.80359e-08
8.81578e-08
1.17799e-06
2.78375e-08
8.92558e-08
1.1779e-06
2.7686e-08
9.01738e-08
1.17772e-06
2.75667e-08
9.09428e-08
2.74908e-08
9.15393e-08
1.40704e-06
3.31885e-08
6.7076e-08
1.4123e-06
3.36806e-08
6.64876e-08
1.41784e-06
3.39455e-08
6.64147e-08
1.42318e-06
3.3996e-08
6.6874e-08
1.4282e-06
3.39065e-08
6.76023e-08
1.43288e-06
3.37288e-08
6.84399e-08
1.43724e-06
3.35027e-08
6.92746e-08
1.44134e-06
3.3236e-08
7.00667e-08
1.44526e-06
3.29552e-08
7.07681e-08
1.44906e-06
3.27187e-08
7.13663e-08
1.45275e-06
3.25185e-08
7.18808e-08
3.23496e-08
7.23114e-08
1.58147e-06
3.46961e-08
4.69958e-08
1.58873e-06
3.4794e-08
4.6999e-08
1.59601e-06
3.49262e-08
4.7025e-08
1.60318e-06
3.49586e-08
4.71346e-08
1.61019e-06
3.48976e-08
4.73285e-08
1.61701e-06
3.47762e-08
4.75784e-08
1.62363e-06
3.46146e-08
4.7857e-08
1.63006e-06
3.44244e-08
4.81497e-08
1.63629e-06
3.42199e-08
4.84387e-08
1.64238e-06
3.40211e-08
4.8702e-08
1.64836e-06
3.38382e-08
4.89347e-08
3.36754e-08
4.9134e-08
1.69257e-06
3.25888e-08
2.20609e-08
1.70048e-06
3.25163e-08
2.22893e-08
1.70843e-06
3.25217e-08
2.23795e-08
1.71641e-06
3.25286e-08
2.23856e-08
1.72437e-06
3.25136e-08
2.23787e-08
1.73226e-06
3.24792e-08
2.23763e-08
1.74006e-06
3.24287e-08
2.23852e-08
1.74774e-06
3.2366e-08
2.24106e-08
1.75529e-06
3.2296e-08
2.24503e-08
1.76269e-06
3.22241e-08
2.24977e-08
1.76997e-06
3.21543e-08
2.25479e-08
3.20891e-08
2.26e-08
1.73108e-06
2.79067e-08
-5.92508e-09
1.73929e-06
2.79212e-08
-5.87171e-09
1.74753e-06
2.79179e-08
-5.86448e-09
1.75581e-06
2.79227e-08
-5.87118e-09
1.76408e-06
2.79366e-08
-5.87601e-09
1.77232e-06
2.79551e-08
-5.86892e-09
1.78049e-06
2.798e-08
-5.85085e-09
1.78855e-06
2.80119e-08
-5.81913e-09
1.7965e-06
2.80493e-08
-5.77455e-09
1.80432e-06
2.80883e-08
-5.72494e-09
1.81201e-06
2.8127e-08
-5.67582e-09
2.81651e-08
-5.62794e-09
1.69257e-06
2.20623e-08
-3.46951e-08
1.70049e-06
2.22905e-08
-3.47926e-08
1.70843e-06
2.23784e-08
-3.49232e-08
1.71641e-06
2.23802e-08
-3.49536e-08
1.72436e-06
2.23688e-08
-3.48906e-08
1.73225e-06
2.23624e-08
-3.47671e-08
1.74005e-06
2.23683e-08
-3.46038e-08
1.74773e-06
2.23921e-08
-3.44122e-08
1.75527e-06
2.24314e-08
-3.42068e-08
1.76267e-06
2.24792e-08
-3.40078e-08
1.76994e-06
2.25306e-08
-3.38253e-08
2.25859e-08
-3.36619e-08
1.57797e-06
1.7264e-08
-6.18572e-08
1.58417e-06
1.75387e-08
-6.19428e-08
1.59075e-06
1.73758e-08
-6.20675e-08
1.59753e-06
1.71309e-08
-6.20067e-08
1.60434e-06
1.68807e-08
-6.17703e-08
1.6111e-06
1.66339e-08
-6.14225e-08
1.61775e-06
1.64188e-08
-6.102e-08
1.62425e-06
1.62525e-08
-6.05986e-08
1.63059e-06
1.61254e-08
-6.01903e-08
1.63679e-06
1.6022e-08
-5.98133e-08
1.64287e-06
1.59376e-08
-5.94774e-08
-5.91835e-08
1.38532e-06
1.40593e-08
-8.51367e-08
1.39031e-06
1.3992e-08
-8.53775e-08
1.39576e-06
1.32415e-08
-8.52091e-08
1.4013e-06
1.24684e-08
-8.47481e-08
1.40672e-06
1.17339e-08
-8.41318e-08
1.41194e-06
1.10228e-08
-8.34555e-08
1.4169e-06
1.04053e-08
-8.27809e-08
1.42158e-06
9.91535e-09
-8.21646e-08
1.42602e-06
9.51645e-09
-8.16284e-08
1.43025e-06
9.16256e-09
-8.11695e-08
8.85045e-09
-8.07868e-08
1.11757e-06
1.38037e-08
-1.00624e-07
1.12044e-06
1.14571e-08
-1.01393e-07
1.12474e-06
9.49206e-09
-1.01518e-07
1.12904e-06
7.89071e-09
-1.00872e-07
1.13283e-06
6.60884e-09
-1.00062e-07
1.13597e-06
5.50707e-09
-9.92972e-08
1.13842e-06
4.5923e-09
-9.85979e-08
1.14034e-06
3.80904e-09
-9.80087e-08
1.1418e-06
3.18526e-09
-9.75543e-08
1.14287e-06
2.6943e-09
-9.72224e-08
2.30174e-09
-9.69873e-08
7.22915e-07
-1.0861e-07
7.32466e-07
-1.10573e-07
7.39308e-07
-1.10781e-07
7.43214e-07
-1.10214e-07
7.44702e-07
-1.09787e-07
7.44211e-07
-1.09594e-07
7.42128e-07
-1.09518e-07
7.38767e-07
-1.09562e-07
7.34428e-07
-1.09633e-07
7.29319e-07
-1.09724e-07
-1.09819e-07
7.55304e-07
3.12621e-08
6.88947e-08
7.44195e-07
3.40722e-08
6.7759e-08
7.31327e-07
3.33401e-08
7.20202e-08
7.18015e-07
3.19551e-08
7.66029e-08
7.05138e-07
3.06811e-08
7.9999e-08
6.93097e-07
2.94952e-08
8.24956e-08
6.82016e-07
2.84523e-08
8.43024e-08
6.71884e-07
2.75929e-08
8.5561e-08
6.62621e-07
2.69251e-08
8.64e-08
6.54065e-07
2.64012e-08
8.70187e-08
6.46076e-07
2.59806e-08
8.74715e-08
2.5681e-08
8.77992e-08
1.0573e-06
4.67499e-08
6.16441e-08
1.0628e-06
4.90796e-08
6.04228e-08
1.06524e-06
4.95436e-08
6.24462e-08
1.06515e-06
4.89446e-08
6.53768e-08
1.06366e-06
4.80334e-08
6.79049e-08
1.06152e-06
4.69883e-08
6.9969e-08
1.05916e-06
4.59594e-08
7.16878e-08
1.05685e-06
4.5028e-08
7.30307e-08
1.05472e-06
4.42649e-08
7.4043e-08
1.05284e-06
4.36523e-08
7.47996e-08
1.0512e-06
4.315e-08
7.54212e-08
4.27991e-08
7.58448e-08
1.29053e-06
5.7725e-08
5.20566e-08
1.29629e-06
5.85234e-08
5.12909e-08
1.30167e-06
5.88353e-08
5.17366e-08
1.30605e-06
5.85839e-08
5.28576e-08
1.30958e-06
5.80163e-08
5.40907e-08
1.3125e-06
5.72862e-08
5.52234e-08
1.315e-06
5.65395e-08
5.61885e-08
1.3173e-06
5.57954e-08
5.70062e-08
1.31953e-06
5.51213e-08
5.76797e-08
1.32179e-06
5.45376e-08
5.82173e-08
1.32412e-06
5.40415e-08
5.86587e-08
5.36405e-08
5.90014e-08
1.4643e-06
6.18598e-08
3.71903e-08
1.47051e-06
6.19459e-08
3.73679e-08
1.47685e-06
6.2071e-08
3.74569e-08
1.48299e-06
6.20108e-08
3.75651e-08
1.48884e-06
6.17752e-08
3.77129e-08
1.4944e-06
6.14279e-08
3.78857e-08
1.49969e-06
6.10262e-08
3.80788e-08
1.50475e-06
6.06058e-08
3.82727e-08
1.50967e-06
6.01981e-08
3.845e-08
1.51448e-06
5.9821e-08
3.86065e-08
1.51923e-06
5.94831e-08
3.87434e-08
5.91913e-08
3.88526e-08
1.57796e-06
6.05581e-08
1.72588e-08
1.58417e-06
6.04976e-08
1.75291e-08
1.59075e-06
6.04977e-08
1.73699e-08
1.59753e-06
6.0488e-08
1.71313e-08
1.60434e-06
6.04521e-08
1.68869e-08
1.61111e-06
6.03948e-08
1.66447e-08
1.61777e-06
6.03216e-08
1.64329e-08
1.62427e-06
6.02397e-08
1.62681e-08
1.63063e-06
6.01564e-08
1.6141e-08
1.63683e-06
6.00735e-08
1.60373e-08
1.64292e-06
5.99923e-08
1.59532e-08
5.99156e-08
1.58884e-08
1.62012e-06
5.54077e-08
-7.27244e-09
1.62667e-06
5.53667e-08
-7.28955e-09
1.63352e-06
5.5273e-08
-7.49327e-09
1.64057e-06
5.52519e-08
-7.68037e-09
1.64767e-06
5.53092e-08
-7.83894e-09
1.65477e-06
5.54202e-08
-7.98721e-09
1.66179e-06
5.5566e-08
-8.1175e-09
1.66869e-06
5.57335e-08
-8.21293e-09
1.67543e-06
5.59108e-08
-8.27175e-09
1.68203e-06
5.60725e-08
-8.31793e-09
1.68849e-06
5.62148e-08
-8.36017e-09
5.63399e-08
-8.397e-09
1.58148e-06
4.69967e-08
-3.31913e-08
1.58873e-06
4.69987e-08
-3.36838e-08
1.59601e-06
4.70211e-08
-3.3947e-08
1.60318e-06
4.71258e-08
-3.39949e-08
1.61018e-06
4.73148e-08
-3.39024e-08
1.617e-06
4.75607e-08
-3.37215e-08
1.62362e-06
4.78367e-08
-3.34924e-08
1.63003e-06
4.81284e-08
-3.32231e-08
1.63626e-06
4.84175e-08
-3.29402e-08
1.64235e-06
4.86812e-08
-3.27026e-08
1.64832e-06
4.89135e-08
-3.25023e-08
4.91179e-08
-3.23322e-08
1.46431e-06
3.71941e-08
-5.77248e-08
1.47052e-06
3.73732e-08
-5.85231e-08
1.47685e-06
3.74568e-08
-5.88331e-08
1.48299e-06
3.75592e-08
-5.8579e-08
1.48884e-06
3.77023e-08
-5.80084e-08
1.49438e-06
3.78718e-08
-5.72764e-08
1.49966e-06
3.80643e-08
-5.65284e-08
1.50471e-06
3.82591e-08
-5.57825e-08
1.50961e-06
3.84376e-08
-5.51078e-08
1.51441e-06
3.85947e-08
-5.45241e-08
1.51916e-06
3.87227e-08
-5.40342e-08
-5.3631e-08
1.27209e-06
2.98689e-08
-7.89015e-08
1.27483e-06
2.91293e-08
-7.98777e-08
1.27862e-06
2.8072e-08
-7.96055e-08
1.2824e-06
2.7482e-08
-7.84511e-08
1.28594e-06
2.70672e-08
-7.70402e-08
1.28926e-06
2.67543e-08
-7.56571e-08
1.29237e-06
2.65601e-08
-7.43889e-08
1.29535e-06
2.64112e-08
-7.32928e-08
1.29825e-06
2.62789e-08
-7.23712e-08
1.30112e-06
2.61734e-08
-7.16226e-08
2.6082e-08
-7.10481e-08
9.90975e-07
2.36082e-08
-9.50508e-08
9.95734e-07
1.94234e-08
-9.64462e-08
9.99452e-07
1.72443e-08
-9.44088e-08
1.00178e-06
1.58427e-08
-9.15558e-08
1.00321e-06
1.4711e-08
-8.91427e-08
1.00409e-06
1.38134e-08
-8.72336e-08
1.00463e-06
1.31567e-08
-8.57378e-08
1.00495e-06
1.27033e-08
-8.46149e-08
1.00508e-06
1.2394e-08
-8.38038e-08
1.00508e-06
1.21648e-08
-8.32121e-08
1.20015e-08
-8.28059e-08
6.00604e-07
-9.4997e-08
6.0892e-07
-9.9465e-08
6.12877e-07
-9.74937e-08
6.13417e-07
-9.49116e-08
6.11911e-07
-9.35686e-08
6.08984e-07
-9.28542e-08
6.05045e-07
-9.24223e-08
6.00432e-07
-9.22456e-08
5.95394e-07
-9.22006e-08
5.90046e-07
-9.22117e-08
-9.22355e-08
5.89567e-07
4.73024e-08
3.94801e-08
5.64855e-07
4.84912e-08
4.39796e-08
5.40869e-07
4.44013e-08
5.16042e-08
5.20757e-07
4.06355e-08
5.60798e-08
5.04191e-07
3.78611e-08
5.87031e-08
4.906e-07
3.57503e-08
6.0336e-08
4.79536e-07
3.41026e-08
6.12639e-08
4.70423e-07
3.28964e-08
6.17773e-08
4.62735e-07
3.20375e-08
6.20501e-08
4.56033e-07
3.14232e-08
6.22969e-08
4.50029e-07
3.09685e-08
6.25066e-08
3.06718e-08
6.26487e-08
8.61877e-07
6.47095e-08
3.5012e-08
8.67795e-07
6.75446e-08
3.54511e-08
8.67023e-07
6.6597e-08
4.10233e-08
8.62727e-07
6.41934e-08
4.61149e-08
8.57352e-07
6.19284e-08
4.92117e-08
8.51946e-07
5.99929e-08
5.11325e-08
8.47008e-07
5.83074e-08
5.24215e-08
8.42728e-07
5.69594e-08
5.32474e-08
8.39113e-07
5.59055e-08
5.37892e-08
8.36079e-07
5.51293e-08
5.41282e-08
8.33536e-07
5.45266e-08
5.44058e-08
5.4148e-08
5.45913e-08
1.09516e-06
7.88979e-08
3.54583e-08
1.09936e-06
7.98742e-08
3.47623e-08
1.10229e-06
7.9609e-08
3.5795e-08
1.10357e-06
7.84611e-08
3.73136e-08
1.10394e-06
7.70554e-08
3.85921e-08
1.10394e-06
7.56757e-08
3.9535e-08
1.10385e-06
7.44084e-08
4.01797e-08
1.10388e-06
7.33152e-08
4.06242e-08
1.10413e-06
7.23915e-08
4.09426e-08
1.10466e-06
7.16433e-08
4.11756e-08
1.10542e-06
7.1041e-08
4.13844e-08
7.06005e-08
4.15283e-08
1.27207e-06
8.51404e-08
2.9858e-08
1.27482e-06
8.53824e-08
2.91113e-08
1.2786e-06
8.5213e-08
2.80687e-08
1.28239e-06
8.47516e-08
2.74866e-08
1.28595e-06
8.4135e-08
2.7076e-08
1.28929e-06
8.34588e-08
2.67668e-08
1.29242e-06
8.27854e-08
2.65701e-08
1.29542e-06
8.21715e-08
2.64161e-08
1.29834e-06
8.16366e-08
2.62794e-08
1.30125e-06
8.11777e-08
2.61692e-08
1.30415e-06
8.07874e-08
2.60965e-08
8.04697e-08
2.60316e-08
1.38531e-06
8.42623e-08
1.40514e-08
1.3903e-06
8.39528e-08
1.39705e-08
1.39575e-06
8.39022e-08
1.32291e-08
1.40129e-06
8.38797e-08
1.2465e-08
1.40672e-06
8.38568e-08
1.17355e-08
1.41195e-06
8.38424e-08
1.10275e-08
1.41693e-06
8.38294e-08
1.04123e-08
1.42163e-06
8.38154e-08
9.92223e-09
1.42608e-06
8.38031e-08
9.52196e-09
1.43033e-06
8.37948e-08
9.16764e-09
1.43443e-06
8.37834e-08
8.86082e-09
8.37668e-08
8.60381e-09
1.43594e-06
7.80897e-08
-5.89468e-09
1.44121e-06
7.75499e-08
-6.15772e-09
1.44684e-06
7.7438e-08
-6.65366e-09
1.45255e-06
7.75967e-08
-7.11463e-09
1.4582e-06
7.79271e-08
-7.55466e-09
1.46369e-06
7.8358e-08
-7.9908e-09
1.46896e-06
7.88401e-08
-8.39581e-09
1.47396e-06
7.93297e-08
-8.72907e-09
1.47869e-06
7.97786e-08
-8.98469e-09
1.48322e-06
8.01671e-08
-9.21426e-09
1.48757e-06
8.05008e-08
-9.42845e-09
8.07837e-08
-9.62326e-09
1.40705e-06
6.70778e-08
-2.67873e-08
1.4123e-06
6.64881e-08
-2.78769e-08
1.41784e-06
6.64132e-08
-2.84615e-08
1.42319e-06
6.68694e-08
-2.86107e-08
1.4282e-06
6.75947e-08
-2.85851e-08
1.43287e-06
6.8429e-08
-2.84653e-08
1.43723e-06
6.92609e-08
-2.82718e-08
1.44132e-06
7.00507e-08
-2.80327e-08
1.44524e-06
7.07499e-08
-2.78296e-08
1.44903e-06
7.13466e-08
-2.76727e-08
1.45272e-06
7.18553e-08
-2.75506e-08
7.22899e-08
-2.74716e-08
1.29054e-06
5.20554e-08
-4.67488e-08
1.2963e-06
5.12881e-08
-4.90791e-08
1.30169e-06
5.17363e-08
-4.95435e-08
1.30606e-06
5.28585e-08
-4.89436e-08
1.30959e-06
5.40923e-08
-4.803e-08
1.3125e-06
5.52246e-08
-4.69843e-08
1.315e-06
5.61883e-08
-4.59546e-08
1.31728e-06
5.70064e-08
-4.5021e-08
1.3195e-06
5.76772e-08
-4.42558e-08
1.32175e-06
5.82149e-08
-4.36391e-08
1.32408e-06
5.86278e-08
-4.31435e-08
-4.2786e-08
1.09517e-06
3.54562e-08
-6.47113e-08
1.09937e-06
3.47603e-08
-6.75455e-08
1.10229e-06
3.5793e-08
-6.65885e-08
1.10357e-06
3.73103e-08
-6.41752e-08
1.10393e-06
3.8591e-08
-6.19052e-08
1.10393e-06
3.95403e-08
-5.99743e-08
1.10384e-06
4.01881e-08
-5.82943e-08
1.10386e-06
4.06366e-08
-5.69421e-08
1.1041e-06
4.09541e-08
-5.58907e-08
1.1046e-06
4.11984e-08
-5.51013e-08
4.13621e-08
-5.45543e-08
8.26737e-07
2.31196e-08
-8.04257e-08
8.26109e-07
1.97477e-08
-8.08046e-08
8.23615e-07
2.00421e-08
-7.61646e-08
8.19949e-07
2.05977e-08
-7.11773e-08
8.16325e-07
2.07368e-08
-6.76641e-08
8.13105e-07
2.07996e-08
-6.52735e-08
8.10362e-07
2.08511e-08
-6.36578e-08
8.08044e-07
2.09167e-08
-6.25769e-08
8.06077e-07
2.09671e-08
-6.185e-08
8.04357e-07
2.1042e-08
-6.13349e-08
2.11304e-08
-6.10216e-08
4.47198e-07
-8.72107e-08
4.49581e-07
-8.21009e-08
4.45132e-07
-7.30024e-08
4.39121e-07
-6.83026e-08
4.33215e-07
-6.69259e-08
4.27638e-07
-6.64781e-08
4.22463e-07
-6.6396e-08
4.17632e-07
-6.64986e-08
4.13016e-07
-6.66173e-08
4.08527e-07
-6.66803e-08
-6.66857e-08
3.43458e-07
6.24103e-08
1.65086e-08
3.07663e-07
5.53135e-08
2.44614e-08
2.84836e-07
4.65672e-08
2.78629e-08
2.70518e-07
4.11534e-08
2.92445e-08
2.60887e-07
3.78609e-08
3.04733e-08
2.53961e-07
3.57931e-08
3.14683e-08
2.48557e-07
3.45029e-08
3.21649e-08
2.44009e-07
3.36594e-08
3.26656e-08
2.39948e-07
3.31529e-08
3.29579e-08
2.36263e-07
3.28366e-08
3.31451e-08
2.32888e-07
3.26035e-08
3.32776e-08
3.24518e-08
3.33699e-08
5.9683e-07
8.04234e-08
7.36969e-09
5.95706e-07
8.08021e-08
1.10854e-08
5.87017e-07
7.61639e-08
2.01158e-08
5.77505e-07
7.11784e-08
2.56017e-08
5.6918e-07
6.7668e-08
2.77294e-08
5.62256e-07
6.528e-08
2.85697e-08
5.56602e-07
6.36655e-08
2.8913e-08
5.51855e-07
6.25876e-08
2.90666e-08
5.47733e-07
6.18528e-08
2.92108e-08
5.4398e-07
6.13687e-08
2.93489e-08
5.40478e-07
6.10074e-08
2.95036e-08
6.07507e-08
2.96072e-08
8.26734e-07
9.50581e-08
2.31133e-08
8.26108e-07
9.64546e-08
1.97361e-08
8.23621e-07
9.44085e-08
2.00375e-08
8.1996e-07
9.15517e-08
2.06017e-08
8.16337e-07
8.91394e-08
2.07441e-08
8.13112e-07
8.72342e-08
2.08052e-08
8.10361e-07
8.57428e-08
2.08541e-08
8.08035e-07
8.4625e-08
2.09127e-08
8.06058e-07
8.38159e-08
2.09563e-08
8.0434e-07
8.3235e-08
2.10271e-08
8.02813e-07
8.27952e-08
2.11236e-08
8.25076e-08
2.11834e-08
9.90951e-07
1.00634e-07
2.3606e-08
9.95696e-07
1.0141e-07
1.94114e-08
9.99418e-07
1.01525e-07
1.72302e-08
1.00176e-06
1.00874e-07
1.58256e-08
1.00322e-06
1.00062e-07
1.46931e-08
1.00412e-06
9.92973e-08
1.37983e-08
1.00469e-06
9.86003e-08
1.3143e-08
1.00503e-06
9.80147e-08
1.26917e-08
1.00518e-06
9.75634e-08
1.23817e-08
1.0052e-06
9.72337e-08
1.21525e-08
1.00511e-06
9.69853e-08
1.19937e-08
9.68167e-08
1.18829e-08
1.11755e-06
1.01916e-07
1.38091e-08
1.1204e-06
1.01071e-07
1.14536e-08
1.12469e-06
1.00985e-07
9.48498e-09
1.12899e-06
1.01159e-07
7.87747e-09
1.1328e-06
1.014e-07
6.59001e-09
1.13596e-06
1.01681e-07
5.48446e-09
1.13844e-06
1.01958e-07
4.56873e-09
1.14039e-06
1.02209e-07
3.78537e-09
1.14188e-06
1.02426e-07
3.16611e-09
1.14298e-06
1.02624e-07
2.67987e-09
1.14373e-06
1.02795e-07
2.29391e-09
1.02935e-07
1.99936e-09
1.18311e-06
9.561e-08
-4.9952e-11
1.18558e-06
9.43723e-08
-1.92689e-09
1.18892e-06
9.41686e-08
-3.17596e-09
1.19242e-06
9.46486e-08
-4.10758e-09
1.19571e-06
9.54575e-08
-4.89512e-09
1.19855e-06
9.64108e-08
-5.56881e-09
1.20087e-06
9.73985e-08
-6.15749e-09
1.20272e-06
9.8334e-08
-6.69705e-09
1.20417e-06
9.91349e-08
-7.14974e-09
1.2053e-06
9.9827e-08
-7.53963e-09
1.20611e-06
1.00406e-07
-7.84925e-09
1.0087e-07
-8.09602e-09
1.16718e-06
8.24832e-08
-1.57605e-08
1.17024e-06
8.09342e-08
-1.75052e-08
1.17297e-06
8.11038e-08
-1.81259e-08
1.17499e-06
8.22817e-08
-1.82662e-08
1.17638e-06
8.37704e-08
-1.8289e-08
1.17727e-06
8.53264e-08
-1.82646e-08
1.17775e-06
8.68266e-08
-1.81838e-08
1.17796e-06
8.81502e-08
-1.806e-08
1.178e-06
8.92434e-08
-1.79724e-08
1.17791e-06
9.01583e-08
-1.79126e-08
1.17772e-06
9.09159e-08
-1.7874e-08
9.15158e-08
-1.7864e-08
1.05731e-06
6.16454e-08
-3.12607e-08
1.06281e-06
6.04249e-08
-3.40737e-08
1.06527e-06
6.2454e-08
-3.33466e-08
1.06518e-06
6.53907e-08
-3.19656e-08
1.06369e-06
6.79216e-08
-3.06918e-08
1.06155e-06
6.99799e-08
-2.95032e-08
1.05919e-06
7.16912e-08
-2.84562e-08
1.05688e-06
7.30326e-08
-2.75934e-08
1.05475e-06
7.40395e-08
-2.69206e-08
1.05286e-06
7.48036e-08
-2.63911e-08
1.05121e-06
7.53778e-08
-2.59609e-08
-2.56704e-08
8.61888e-07
3.50065e-08
-4.73016e-08
8.67813e-07
3.54487e-08
-4.84943e-08
8.67051e-07
4.10331e-08
-4.44057e-08
8.6277e-07
4.61364e-08
-4.06401e-08
8.57413e-07
4.92391e-08
-3.78659e-08
8.52022e-07
5.11536e-08
-3.57574e-08
8.47094e-07
5.24327e-08
-3.41079e-08
8.42819e-07
5.32589e-08
-3.28937e-08
8.39207e-07
5.37876e-08
-3.20267e-08
8.36159e-07
5.41571e-08
-3.14063e-08
5.43699e-08
-3.09586e-08
5.96826e-07
7.36767e-09
-6.24118e-08
5.95705e-07
1.10832e-08
-5.53179e-08
5.87033e-07
2.01127e-08
-4.65727e-08
5.77551e-07
2.56006e-08
-4.11591e-08
5.6926e-07
2.77313e-08
-3.78659e-08
5.62362e-07
2.85728e-08
-3.57951e-08
5.56723e-07
2.89153e-08
-3.45013e-08
5.51986e-07
2.90718e-08
-3.36539e-08
5.47865e-07
2.92115e-08
-3.31531e-08
5.44139e-07
2.93693e-08
-3.28208e-08
2.94856e-08
-3.26162e-08
2.92186e-07
-5.86325e-08
2.67585e-07
-4.64176e-08
2.52186e-07
-3.74903e-08
2.43676e-07
-3.41919e-08
2.37974e-07
-3.34935e-08
2.33637e-07
-3.35685e-08
2.30015e-07
-3.38585e-08
2.26747e-07
-3.41594e-08
2.23675e-07
-3.43333e-08
2.20775e-07
-3.44111e-08
-3.44532e-08
1.22226e-07
5.86328e-08
1.00267e-07
4.64201e-08
9.0638e-08
3.74917e-08
8.56942e-08
3.41883e-08
8.26819e-08
3.34855e-08
8.05925e-08
3.35576e-08
7.89108e-08
3.38466e-08
7.74253e-08
3.41511e-08
7.6053e-08
3.43302e-08
7.47818e-08
3.44161e-08
7.36084e-08
3.4451e-08
3.44842e-08
2.92182e-07
8.72191e-08
2.67576e-07
8.21116e-08
2.5218e-07
7.30034e-08
2.43679e-07
6.82905e-08
2.37989e-07
6.69056e-08
2.33658e-07
6.64582e-08
2.30036e-07
6.63812e-08
2.26763e-07
6.64904e-08
2.23682e-07
6.6622e-08
2.20763e-07
6.66844e-08
2.18011e-07
6.67065e-08
6.67457e-08
4.47192e-07
9.50081e-08
4.49552e-07
9.94873e-08
4.45078e-07
9.7515e-08
4.39042e-07
9.49287e-08
4.3311e-07
9.35818e-08
4.27511e-07
9.28622e-08
4.22318e-07
9.24285e-08
4.17471e-07
9.22502e-08
4.12843e-07
9.22071e-08
4.08338e-07
9.22161e-08
4.03913e-07
9.2255e-08
9.23041e-08
6.00631e-07
1.08607e-07
6.08953e-07
1.10577e-07
6.12902e-07
1.10796e-07
6.13418e-07
1.10239e-07
6.11875e-07
1.09818e-07
6.08904e-07
1.09631e-07
6.0492e-07
1.09556e-07
6.00266e-07
1.09596e-07
5.95197e-07
1.09657e-07
5.89825e-07
1.09741e-07
5.84241e-07
1.09834e-07
1.09909e-07
7.22925e-07
1.12074e-07
7.32486e-07
1.1247e-07
7.39338e-07
1.13429e-07
7.43243e-07
1.14212e-07
7.44719e-07
1.14933e-07
7.44207e-07
1.15628e-07
7.42095e-07
1.16236e-07
7.38701e-07
1.16776e-07
7.34331e-07
1.17193e-07
7.29198e-07
1.17553e-07
7.23515e-07
1.17811e-07
1.17992e-07
8.07364e-07
1.07256e-07
8.11634e-07
1.06273e-07
8.14683e-07
1.07204e-07
8.1599e-07
1.08798e-07
8.15614e-07
1.10413e-07
8.13781e-07
1.11893e-07
8.10723e-07
1.13137e-07
8.06668e-07
1.14135e-07
8.01778e-07
1.14932e-07
7.96206e-07
1.15586e-07
7.90104e-07
1.16064e-07
1.16402e-07
8.23685e-07
9.28027e-08
8.21731e-07
9.07218e-08
8.18316e-07
9.2493e-08
8.13598e-07
9.52499e-08
8.07909e-07
9.78124e-08
8.01576e-07
9.99612e-08
7.94844e-07
1.01685e-07
7.87887e-07
1.03032e-07
7.80779e-07
1.04068e-07
7.73589e-07
1.04864e-07
7.66317e-07
1.05462e-07
1.05864e-07
7.55308e-07
6.88956e-08
7.44197e-07
6.77584e-08
7.31328e-07
7.20156e-08
7.18017e-07
7.65954e-08
7.05144e-07
7.99928e-08
6.93107e-07
8.24949e-08
6.82029e-07
8.43072e-08
6.71901e-07
8.55666e-08
6.62641e-07
8.6408e-08
6.54092e-07
8.70215e-08
6.46097e-07
8.74957e-08
5.89568e-07
3.94836e-08
5.6485e-07
4.39813e-08
5.40857e-07
5.16034e-08
5.20734e-07
5.60774e-08
5.04161e-07
5.86997e-08
4.90564e-07
6.03343e-08
4.79497e-07
6.12663e-08
4.70388e-07
6.17816e-08
4.62709e-07
6.20601e-08
4.56028e-07
6.22963e-08
6.25247e-08
3.43465e-07
1.65078e-08
3.0767e-07
2.44583e-08
2.84838e-07
2.78624e-08
2.70509e-07
2.92466e-08
2.60865e-07
3.04776e-08
2.53929e-07
3.14752e-08
2.4852e-07
3.21738e-08
2.43973e-07
3.26738e-08
2.39917e-07
3.29629e-08
2.36245e-07
3.31478e-08
3.32749e-08
1.22225e-07
1.00265e-07
9.06374e-08
8.5692e-08
8.26761e-08
8.05828e-08
7.88981e-08
7.74125e-08
7.60421e-08
7.47788e-08
)
;

boundaryField
{
    inlet
    {
        type            calculated;
        value           nonuniform List<scalar> 0();
    }
    ami1
    {
        type            cyclicAMI;
        value           nonuniform List<scalar> 0();
    }
    walls
    {
        type            calculated;
        value           nonuniform List<scalar> 
259
(
-6.40674e-15
-1.28555e-14
-1.84387e-14
-2.43942e-14
-2.90979e-14
-6.40674e-15
-1.28555e-14
-1.84387e-14
-2.43942e-14
-2.90979e-14
-6.40674e-15
-1.28555e-14
-1.84387e-14
-2.43942e-14
-2.90979e-14
-6.40674e-15
-1.28555e-14
-1.84387e-14
-2.43942e-14
-2.90979e-14
-6.40674e-15
-1.28555e-14
-1.84387e-14
-2.43942e-14
-2.90979e-14
-6.40674e-15
-1.28555e-14
-1.84387e-14
-2.43942e-14
-2.90979e-14
-6.40674e-15
-1.28555e-14
-1.84387e-14
-2.43942e-14
-2.90979e-14
-6.40674e-15
-1.28555e-14
-1.84387e-14
-2.43942e-14
-2.90979e-14
-6.40674e-15
-1.28555e-14
-1.84387e-14
-2.43942e-14
-2.90979e-14
-6.40674e-15
-1.28555e-14
-1.84387e-14
-2.43942e-14
-2.90979e-14
-6.40674e-15
-1.28555e-14
-1.84387e-14
-2.43942e-14
-2.90979e-14
-2.90979e-14
-2.43942e-14
-1.84387e-14
-1.28555e-14
-6.40674e-15
-8.8224e-22
6.40674e-15
1.28555e-14
1.84387e-14
2.43942e-14
2.90979e-14
-2.90979e-14
-2.43942e-14
-1.84387e-14
-1.28555e-14
-6.40674e-15
-2.95459e-22
6.40674e-15
1.28555e-14
1.84387e-14
2.43942e-14
2.90979e-14
-2.90979e-14
-2.43942e-14
-1.84387e-14
-1.28555e-14
-6.40674e-15
-8.83193e-22
6.40674e-15
1.28555e-14
1.84387e-14
2.43942e-14
2.90979e-14
-2.90979e-14
-2.43942e-14
-1.84387e-14
-1.28555e-14
-6.40674e-15
-8.82337e-22
6.40674e-15
1.28555e-14
1.84387e-14
2.43942e-14
2.90979e-14
-2.90979e-14
-2.43942e-14
-1.84387e-14
-1.28555e-14
-6.40674e-15
-8.82337e-22
6.40674e-15
1.28555e-14
1.84387e-14
2.43942e-14
2.90979e-14
-2.90979e-14
-2.43942e-14
-1.84387e-14
-1.28555e-14
-6.40674e-15
-2.952e-22
6.40674e-15
1.28555e-14
1.84387e-14
2.43942e-14
2.90979e-14
-2.90979e-14
-2.43942e-14
-1.84387e-14
-1.28555e-14
-6.40674e-15
-8.82337e-22
6.40674e-15
1.28555e-14
1.84387e-14
2.43942e-14
2.90979e-14
-2.90979e-14
-2.43942e-14
-1.84387e-14
-1.28555e-14
-6.40674e-15
-8.83193e-22
6.40674e-15
1.28555e-14
1.84387e-14
2.43942e-14
2.90979e-14
-2.90979e-14
-2.43942e-14
-1.84387e-14
-1.28555e-14
-6.40674e-15
-8.83193e-22
6.40674e-15
1.28555e-14
1.84387e-14
2.43942e-14
2.90979e-14
-2.90979e-14
-2.43942e-14
-1.84387e-14
-1.28555e-14
-6.40674e-15
-1.12695e-21
6.40674e-15
1.28555e-14
1.84387e-14
2.43942e-14
2.90979e-14
-2.90979e-14
-2.43942e-14
-1.84387e-14
-1.28555e-14
-6.40674e-15
-8.83532e-22
6.40674e-15
1.28555e-14
1.84387e-14
2.43942e-14
2.90979e-14
-2.90979e-14
-2.43942e-14
-1.84387e-14
-1.28555e-14
-6.40674e-15
-8.83532e-22
6.40674e-15
1.28555e-14
-6.40674e-15
-8.8224e-22
6.40674e-15
1.28555e-14
1.84387e-14
2.43942e-14
2.90979e-14
-6.40674e-15
-2.95459e-22
6.40674e-15
1.28555e-14
1.84387e-14
2.43942e-14
2.90979e-14
-6.40674e-15
-8.83193e-22
6.40674e-15
1.28555e-14
1.84387e-14
2.43942e-14
2.90979e-14
-8.82337e-22
6.40674e-15
1.28555e-14
1.84387e-14
2.43942e-14
2.90979e-14
-8.82337e-22
6.40674e-15
1.28555e-14
1.84387e-14
2.43942e-14
2.90979e-14
-2.952e-22
6.40674e-15
1.28555e-14
1.84387e-14
2.43942e-14
2.90979e-14
-8.82337e-22
6.40674e-15
1.28555e-14
1.84387e-14
2.43942e-14
2.90979e-14
-8.83193e-22
6.40674e-15
1.28555e-14
1.84387e-14
2.43942e-14
2.90979e-14
-8.83193e-22
6.40674e-15
1.28555e-14
1.84387e-14
2.43942e-14
2.90979e-14
-1.12695e-21
6.40674e-15
1.28555e-14
1.84387e-14
2.43942e-14
2.90979e-14
-8.83532e-22
6.40674e-15
1.28555e-14
1.84387e-14
2.43942e-14
2.90979e-14
-8.83532e-22
6.40674e-15
1.28555e-14
1.84387e-14
2.43942e-14
2.90979e-14
)
;
    }
    ami2
    {
        type            cyclicAMI;
        value           nonuniform List<scalar> 
61
(
-7.12521e-07
-1.11862e-06
-1.38123e-06
-8.02572e-07
-1.18266e-06
-1.43115e-06
-8.24981e-07
-1.16507e-06
-1.40244e-06
-1.57456e-06
-1.68461e-06
-1.72273e-06
-1.68462e-06
-1.57186e-06
-1.38124e-06
-1.1186e-06
-7.12578e-07
-7.62656e-07
-1.05195e-06
-1.28649e-06
-1.45863e-06
-1.57186e-06
-1.61362e-06
-1.57457e-06
-1.45864e-06
-1.271e-06
-9.90287e-07
-5.90609e-07
-6.07455e-07
-8.52652e-07
-1.09275e-06
-1.27098e-06
-1.38122e-06
-1.43115e-06
-1.40244e-06
-1.2865e-06
-1.09276e-06
-8.29026e-07
-4.31865e-07
-3.82897e-07
-5.872e-07
-8.29024e-07
-9.90275e-07
-1.11859e-06
-1.18265e-06
-1.16508e-06
-1.05196e-06
-8.52658e-07
-5.87201e-07
-3.13396e-07
-1.6435e-07
-3.13399e-07
-4.31868e-07
-5.90624e-07
-7.12583e-07
-8.02596e-07
-8.24992e-07
-7.62661e-07
-6.07457e-07
-3.82901e-07
-1.64349e-07
)
;
    }
    outlet
    {
        type            calculated;
        value           nonuniform List<scalar> 0();
    }
    procBoundary1to0
    {
        type            processor;
        value           nonuniform List<scalar> 
138
(
7.39252e-07
-1.14162e-07
-1.14871e-07
-1.15566e-07
-1.16188e-07
-1.16744e-07
-1.17187e-07
-1.1757e-07
-1.17848e-07
-1.18044e-07
1.12473e-06
-1.01156e-07
-1.0141e-07
-1.01701e-07
-1.01984e-07
-1.0224e-07
-1.02462e-07
-1.02661e-07
-1.02831e-07
-1.02966e-07
-1.72678e-08
-1.75307e-08
1.39571e-06
-1.73644e-08
-8.3908e-08
-8.38929e-08
-8.38828e-08
-8.38704e-08
-8.38543e-08
-8.38374e-08
-8.38223e-08
-8.38028e-08
-8.3777e-08
7.26486e-09
7.28293e-09
7.49123e-09
7.68385e-09
7.84758e-09
8.00029e-09
8.13441e-09
8.23328e-09
8.29459e-09
8.34175e-09
8.38352e-09
8.41899e-09
-5.54104e-08
-5.53733e-08
-5.52843e-08
-5.52682e-08
-5.53299e-08
-5.54444e-08
-5.55923e-08
-5.57603e-08
-5.59365e-08
-5.60959e-08
-5.62347e-08
-5.63539e-08
-2.79094e-08
-2.79262e-08
-2.79259e-08
-2.79342e-08
-2.79514e-08
-2.79727e-08
-2.79994e-08
-2.80321e-08
-2.80691e-08
-2.81068e-08
-2.81431e-08
-2.81777e-08
2.25722e-09
2.25487e-09
2.2249e-09
2.19903e-09
2.1813e-09
2.15827e-09
2.13241e-09
2.10408e-09
2.07354e-09
2.04226e-09
2.01175e-09
1.98238e-09
3.25835e-08
3.251e-08
3.25142e-08
3.252e-08
3.25044e-08
3.24696e-08
3.24188e-08
3.2356e-08
3.22862e-08
3.22145e-08
3.21451e-08
3.20797e-08
6.05519e-08
6.04898e-08
6.04897e-08
6.0481e-08
6.04468e-08
6.03912e-08
6.03193e-08
6.02382e-08
6.0155e-08
6.00718e-08
5.99901e-08
5.99111e-08
8.42554e-08
8.3941e-08
8.38912e-08
8.38729e-08
8.38546e-08
8.38442e-08
8.38339e-08
8.38204e-08
8.38069e-08
8.3797e-08
8.37849e-08
1.01909e-07
1.01056e-07
1.00973e-07
1.01151e-07
1.01394e-07
1.01676e-07
1.01953e-07
1.02203e-07
1.0242e-07
1.02619e-07
1.02794e-07
1.12077e-07
1.12478e-07
1.13431e-07
1.14199e-07
1.14907e-07
1.15592e-07
1.16194e-07
1.16732e-07
1.17157e-07
1.17528e-07
1.17797e-07
)
;
    }
    procBoundary1to2
    {
        type            processor;
        value           nonuniform List<scalar> 9(-1.08571e-07 -1.10526e-07 -1.10742e-07 -1.00617e-07 -1.01399e-07 -1.01517e-07 -8.51544e-08 -8.54047e-08 -8.52362e-08);
    }
    procBoundary1to8
    {
        type            processor;
        value           nonuniform List<scalar> 
33
(
7.83603e-07
1.20656e-06
1.49173e-06
7.58948e-07
1.17746e-06
1.45638e-06
1.65426e-06
1.77714e-06
1.81958e-06
6.38474e-07
1.04977e-06
1.32659e-06
1.52396e-06
1.64891e-06
1.69483e-06
4.44508e-07
8.31313e-07
1.10644e-06
1.3071e-06
1.43842e-06
1.49178e-06
2.29715e-07
5.37163e-07
8.01401e-07
1.00495e-06
1.14422e-06
1.20664e-06
7.2494e-08
2.15357e-07
3.99538e-07
5.78519e-07
7.17431e-07
7.83599e-07
)
;
    }
    procBoundary1to9
    {
        type            processor;
        value           nonuniform List<scalar> 
30
(
1.77711e-06