/*--------------------------------*- C++ -*----------------------------------*\
| =========                 |                                                 |
| \\      /  F ield         | OpenFOAM: The Open Source CFD Toolbox           |
|  \\    /   O peration     | Version:  2212                                  |
|   \\  /    A nd           | Website:  www.openfoam.com                      |
|    \\/     M anipulation  |                                                 |
\*---------------------------------------------------------------------------*/
FoamFile
{
    version     2.0;
    format      ascii;
    arch        "LSB;label=32;scalar=64";
    class       volVectorField;
    location    "2";
    object      U;
}
// * * * * * * * * * * * * * * * * * * * * * * * * * * * * * * * * * * * * * //

dimensions      [0 1 -1 0 0 0 0];

internalField   nonuniform List<vector> 
690
(
(0.0766456 0.000705323 -0.00137628)
(0.0775848 0.000523261 -0.000989285)
(0.0784207 0.000294724 -0.000541498)
(0.0996497 -0.00031366 -7.51682e-05)
(0.099816 -0.000289766 8.47373e-05)
(0.100067 -0.000335627 0.000247008)
(0.108153 -0.000848532 0.00046892)
(0.108537 -0.000824505 0.000431875)
(0.10888 -0.000820715 0.000461532)
(0.0829224 0.00136184 -5.93363e-05)
(0.0833281 0.00126616 0.000299415)
(0.0837206 0.00100373 0.00052925)
(0.0839793 0.00072276 0.000669947)
(0.0840323 0.000464986 0.000766265)
(0.0839106 0.000236136 0.000837051)
(0.0836532 4.1527e-05 0.000896323)
(0.0832866 -0.000123483 0.000958779)
(0.0828219 -0.000259049 0.00101773)
(0.082279 -0.00037734 0.00106752)
(0.0816757 -0.000460613 0.00110715)
(0.0810242 -0.000518314 0.00113752)
(0.102648 0.000365018 0.000879526)
(0.102823 0.000475226 0.00104327)
(0.103029 0.000461964 0.00114745)
(0.10333 0.000382009 0.00120048)
(0.103641 0.00027264 0.00123396)
(0.103911 0.000150424 0.00126005)
(0.104133 2.77565e-05 0.00127992)
(0.10431 -8.4464e-05 0.00129055)
(0.10445 -0.000178711 0.00129391)
(0.104561 -0.000260019 0.00129972)
(0.104643 -0.000329692 0.00131026)
(0.1047 -0.00038704 0.00132376)
(0.109634 -0.000154767 0.00107336)
(0.110037 -8.03399e-05 0.00111349)
(0.11041 -7.61725e-05 0.0011517)
(0.110839 -0.00010187 0.0011805)
(0.111283 -0.000141269 0.00120302)
(0.111713 -0.000188238 0.00122208)
(0.112124 -0.000237547 0.00123794)
(0.112515 -0.000284587 0.00124943)
(0.112887 -0.000325557 0.00125644)
(0.11324 -0.000361473 0.00126211)
(0.113578 -0.000391961 0.00126758)
(0.113904 -0.00041686 0.00127293)
(0.087813 0.00158727 0.00124888)
(0.0876476 0.00161843 0.00160755)
(0.0874076 0.00135458 0.00169008)
(0.0869962 0.00102734 0.00164569)
(0.086429 0.000711836 0.00157343)
(0.0857747 0.00042478 0.00150206)
(0.0850704 0.000189302 0.00143692)
(0.0843407 6.29996e-06 0.00137887)
(0.0835874 -0.000141017 0.00133341)
(0.0828238 -0.000260348 0.0013023)
(0.082053 -0.000354466 0.00128204)
(0.0812755 -0.000426544 0.00126995)
(0.103944 0.000757464 0.00172157)
(0.104221 0.000854241 0.00196176)
(0.104458 0.000837058 0.00204926)
(0.104672 0.000740292 0.00203267)
(0.104828 0.000599886 0.00197502)
(0.104926 0.000441231 0.00189836)
(0.104984 0.00028301 0.00180947)
(0.105012 0.000138012 0.00171698)
(0.105022 1.21097e-05 0.00164298)
(0.105019 -9.88318e-05 0.00158044)
(0.105006 -0.000194362 0.00152954)
(0.104986 -0.000273623 0.001493)
(0.109806 0.000332928 0.00168531)
(0.110218 0.000349889 0.00181187)
(0.110612 0.000337222 0.00187328)
(0.111035 0.000299236 0.00187578)
(0.111447 0.000241719 0.00184453)
(0.111828 0.000173524 0.00179376)
(0.112181 9.94845e-05 0.00173341)
(0.112507 2.71014e-05 0.00166831)
(0.11282 -3.71533e-05 0.00160472)
(0.113123 -9.41722e-05 0.00155306)
(0.113414 -0.000144443 0.00150894)
(0.113699 -0.000187002 0.00147235)
(0.112707 0.000141703 0.00134271)
(0.113233 0.00012019 0.00136834)
(0.113708 0.000111706 0.0013859)
(0.114217 0.000106124 0.00138583)
(0.11473 9.69967e-05 0.00136865)
(0.115226 8.3983e-05 0.00133888)
(0.115706 6.82624e-05 0.00130057)
(0.116171 5.11201e-05 0.00125642)
(0.116622 3.3197e-05 0.00120978)
(0.117062 1.75516e-05 0.00116613)
(0.117493 3.84595e-06 0.00112724)
(0.117916 -8.25978e-06 0.00109339)
(0.11438 0.000247119 0.000805435)
(0.114926 0.000240242 0.000788932)
(0.11543 0.000233734 0.00078916)
(0.115963 0.000229605 0.000789117)
(0.116508 0.00022738 0.000783239)
(0.117046 0.000226545 0.000772462)
(0.117578 0.000226192 0.000757725)
(0.118102 0.000225697 0.000739815)
(0.118618 0.000224881 0.000719977)
(0.119124 0.000223858 0.000699815)
(0.119621 0.00022263 0.000680382)
(0.12011 0.000221111 0.000662176)
(0.114945 0.000502939 0.000238062)
(0.115507 0.000509791 0.000233699)
(0.116025 0.000510886 0.000231963)
(0.116569 0.000508158 0.000229913)
(0.117123 0.000505322 0.000228279)
(0.117675 0.000500729 0.00022599)
(0.118221 0.000495094 0.000223268)
(0.118761 0.000488637 0.000220169)
(0.119294 0.000481587 0.000216764)
(0.119819 0.000474461 0.000213249)
(0.120335 0.000467592 0.000209779)
(0.120843 0.000460997 0.000206434)
(0.11438 0.00080505 -0.000247372)
(0.114926 0.000788567 -0.00024073)
(0.11543 0.000788807 -0.000234633)
(0.115963 0.000788806 -0.000231038)
(0.116507 0.000782988 -0.000229332)
(0.117046 0.000772259 -0.00022894)
(0.117577 0.000757538 -0.000228912)
(0.118101 0.000739606 -0.000228598)
(0.118617 0.000719724 -0.000227815)
(0.119123 0.000699514 -0.00022669)
(0.119619 0.000680025 -0.00022524)
(0.120108 0.000661593 -0.000223348)
(0.112475 0.000939251 -0.000528598)
(0.112926 0.00091495 -0.000499816)
(0.113353 0.000916768 -0.000497104)
(0.113825 0.000918682 -0.000506183)
(0.114317 0.000911175 -0.000520384)
(0.114804 0.000895124 -0.000537521)
(0.115283 0.000872661 -0.000554808)
(0.115753 0.00084593 -0.000569961)
(0.116211 0.00081749 -0.000582502)
(0.116659 0.000789329 -0.000593103)
(0.117097 0.000762585 -0.000602136)
(0.117527 0.000737444 -0.000609181)
(0.108154 0.000847561 -0.000471005)
(0.108539 0.00082105 -0.000433552)
(0.108883 0.000816327 -0.000463483)
(0.109306 0.000810511 -0.000522788)
(0.109748 0.000799912 -0.000592983)
(0.110169 0.00078584 -0.000666599)
(0.110565 0.000768142 -0.000737211)
(0.110941 0.000748805 -0.000800388)
(0.111298 0.000730176 -0.000854763)
(0.111636 0.000713016 -0.000901095)
(0.11196 0.000697321 -0.00094024)
(0.0996463 0.000317784 7.06751e-05)
(0.0998138 0.000288956 -8.44402e-05)
(0.100066 0.000334261 -0.000247656)
(0.100452 0.000371664 -0.000385658)
(0.100837 0.000401799 -0.00051902)
(0.101151 0.00042982 -0.000647637)
(0.101396 0.00044841 -0.000758223)
(0.101588 0.000455034 -0.00084418)
(0.101737 0.000459059 -0.000913494)
(0.101849 0.00046837 -0.000975846)
(0.101929 0.000481217 -0.00103191)
(0.0766561 -0.000700959 0.00137477)
(0.077593 -0.000516102 0.000987135)
(0.078427 -0.000287292 0.00053888)
(0.0790536 -0.000134585 0.000185294)
(0.0793496 -9.98875e-06 -9.37642e-05)
(0.0793865 0.000105739 -0.000317)
(0.0792394 0.000210455 -0.000497871)
(0.0789453 0.000314742 -0.00065321)
(0.078526 0.000395037 -0.000776306)
(0.0780152 0.000457059 -0.000864914)
(0.077436 0.000506134 -0.000928301)
(0.0900208 0.00182812 0.00232382)
(0.0889369 0.00175996 0.00295249)
(0.087686 0.00140509 0.00279934)
(0.0861338 0.00101637 0.00247644)
(0.0845317 0.000664087 0.00218338)
(0.0830335 0.000376418 0.00193053)
(0.0816567 0.00015116 0.00171917)
(0.0803996 -2.06469e-05 0.00154877)
(0.0792507 -0.000147795 0.001418)
(0.0781949 -0.000244407 0.00131855)
(0.0772172 -0.000314675 0.00124403)
(0.0762933 -0.000357598 0.00119046)
(0.102176 0.00110849 0.00251699)
(0.102788 0.00107234 0.00291369)
(0.103139 0.000937451 0.00290668)
(0.103243 0.000763524 0.00271879)
(0.103151 0.000582324 0.00249119)
(0.102957 0.000409459 0.00225279)
(0.102729 0.000254894 0.00202748)
(0.1025 0.000124634 0.00183715)
(0.102282 1.56127e-05 0.00168653)
(0.102088 -7.46488e-05 0.00156722)
(0.101917 -0.000150068 0.00146886)
(0.101771 -0.000213336 0.00140272)
(0.107746 0.000624431 0.00222567)
(0.108226 0.00059129 0.00242419)
(0.108644 0.00052756 0.0024741)
(0.109048 0.00044827 0.00240485)
(0.109383 0.000365809 0.0022792)
(0.10965 0.000287802 0.00212683)
(0.109873 0.000218081 0.00197838)
(0.110068 0.000157684 0.0018333)
(0.110255 0.000105681 0.00170599)
(0.110442 6.20516e-05 0.00159875)
(0.110633 2.49991e-05 0.00150926)
(0.110834 -7.68421e-06 0.00143699)
(0.110625 0.000345539 0.00169618)
(0.1111 0.000340931 0.00172635)
(0.111526 0.000327516 0.00173655)
(0.111991 0.000315326 0.00170699)
(0.112454 0.000307614 0.00164679)
(0.112887 0.000303837 0.00156778)
(0.113296 0.000301826 0.00148045)
(0.113687 0.000300333 0.0013919)
(0.114063 0.000299134 0.00130799)
(0.11443 0.000298019 0.00123213)
(0.114791 0.000297008 0.00116562)
(0.115149 0.000296376 0.00110989)
(0.112475 0.000528787 0.000939995)
(0.112926 0.000500106 0.000915852)
(0.113353 0.000497092 0.000917563)
(0.113825 0.0005056 0.000919158)
(0.114317 0.00051919 0.000911282)
(0.114805 0.000535797 0.000894897)
(0.115284 0.000552679 0.000872204)
(0.115754 0.000567576 0.000845384)
(0.116214 0.000580007 0.000816952)
(0.116662 0.000590601 0.000788835)
(0.1171 0.000599718 0.000762096)
(0.117531 0.000607089 0.000737438)
(0.113287 0.00091021 0.000327552)
(0.113755 0.000903824 0.000314179)
(0.114199 0.000912704 0.000308258)
(0.114682 0.000922006 0.000307391)
(0.115183 0.000926864 0.000310565)
(0.115683 0.000928358 0.000316723)
(0.116178 0.000926881 0.000324221)
(0.116666 0.000922088 0.00033163)
(0.117144 0.000914627 0.000338212)
(0.117611 0.000906378 0.000343684)
(0.118068 0.000898612 0.000348007)
(0.118516 0.00089146 0.000351246)
(0.112707 0.00134285 -0.000141718)
(0.113233 0.00136859 -0.000120543)
(0.113708 0.00138614 -0.000112653)
(0.114217 0.001386 -0.000107813)
(0.11473 0.0013687 -9.94338e-05)
(0.115226 0.00133879 -8.70656e-05)
(0.115705 0.0013003 -7.18195e-05)
(0.11617 0.00125595 -5.49472e-05)
(0.11662 0.00120915 -3.70851e-05)
(0.11706 0.00116541 -2.13398e-05)
(0.11749 0.00112653 -7.36354e-06)
(0.117913 0.00109236 5.38589e-06)
(0.110626 0.00169597 -0.000345237)
(0.1111 0.00172607 -0.000340654)
(0.111526 0.00173628 -0.000327804)
(0.111991 0.00170675 -0.000316441)
(0.112453 0.00164655 -0.000309541)
(0.112886 0.00156754 -0.000306443)
(0.113295 0.00148014 -0.000304858)
(0.113684 0.00139144 -0.000303544)
(0.11406 0.00130745 -0.000302363)
(0.114426 0.00123163 -0.000301197)
(0.114786 0.00116577 -0.000300314)
(0.115144 0.00110959 -0.000299058)
(0.106315 0.00173609 -0.000159487)
(0.106517 0.00180033 -8.16432e-05)
(0.106764 0.00179088 -0.000109385)
(0.107079 0.00170966 -0.000173243)
(0.107396 0.00159393 -0.000248335)
(0.107684 0.00146766 -0.000325508)
(0.10795 0.00134327 -0.000398137)
(0.108204 0.00122971 -0.00046206)
(0.108449 0.00113145 -0.00051686)
(0.108689 0.00104855 -0.000562598)
(0.10893 0.000981455 -0.000600902)
(0.0959476 0.0012735 0.000620187)
(0.0963914 0.00155667 0.000524501)
(0.0966727 0.001547 0.000337389)
(0.0969468 0.00138213 0.000131151)
(0.0971411 0.00120756 -7.89103e-05)
(0.0972482 0.00104424 -0.000261558)
(0.0973114 0.000892686 -0.000402916)
(0.0973515 0.000772026 -0.000516882)
(0.0973718 0.000684396 -0.000609692)
(0.0973772 0.000620378 -0.00068233)
(0.0973729 0.000574616 -0.000738806)
(0.070944 -0.000440169 0.00261211)
(0.0718789 0.000305803 0.00193786)
(0.0726196 0.00051156 0.00123308)
(0.0729284 0.000474852 0.000677341)
(0.0728474 0.000431525 0.000238659)
(0.072561 0.000412317 -9.96685e-05)
(0.0721404 0.000406333 -0.000362694)
(0.0716229 0.000413103 -0.000537358)
(0.0710442 0.00042719 -0.000642637)
(0.0704251 0.000444479 -0.000712577)
(0.0697722 0.000460365 -0.000758194)
(0.0865839 0.00212401 0.00359554)
(0.0835527 0.00175201 0.00389304)
(0.0803573 0.00108997 0.00321453)
(0.0771452 0.000536735 0.00253787)
(0.074394 0.000219019 0.00203149)
(0.0722032 4.68822e-05 0.0016696)
(0.0704309 -3.881e-05 0.00141948)
(0.0689904 -7.44477e-05 0.00124796)
(0.0677865 -8.71341e-05 0.00112594)
(0.0667489 -0.000103248 0.001035)
(0.0658396 -0.000119779 0.000971234)
(0.0649925 -0.00013205 0.000922724)
(0.0963711 0.00135593 0.00338317)
(0.0973916 0.00117023 0.00381291)
(0.0976304 0.000830465 0.00343371)
(0.0972783 0.000530576 0.00286962)
(0.0966813 0.00033242 0.00240726)
(0.0960515 0.000206398 0.00204094)
(0.0954621 0.000122813 0.0017288)
(0.094941 7.17631e-05 0.00148796)
(0.0944987 4.39561e-05 0.00131051)
(0.0941288 2.71511e-05 0.00118618)
(0.0938148 1.13459e-05 0.00108887)
(0.0935567 1.02016e-06 0.00103613)
(0.102881 0.00040599 0.00263611)
(0.103294 0.000454817 0.00284569)
(0.103606 0.00040096 0.00275773)
(0.103788 0.000323554 0.00251339)
(0.103858 0.000268722 0.00224082)
(0.103868 0.000239926 0.0019856)
(0.103857 0.000233227 0.00176169)
(0.10385 0.000237404 0.00157718)
(0.103861 0.000246951 0.00142525)
(0.103898 0.000257652 0.00130593)
(0.103957 0.00026537 0.00121217)
(0.104046 0.000270354 0.00114491)
(0.106313 0.00015956 0.00173624)
(0.106516 8.20445e-05 0.00180069)
(0.106763 0.000109403 0.00179123)
(0.107079 0.000172677 0.00171016)
(0.107396 0.00024721 0.00159466)
(0.107685 0.000323958 0.00146863)
(0.107953 0.000396462 0.0013446)
(0.108209 0.000460281 0.00123135)
(0.108456 0.000515139 0.0011332)
(0.108698 0.000560983 0.00105025)
(0.10894 0.000598601 0.000980837)
(0.109185 0.000628688 0.000926151)
(0.108153 0.000471132 0.000848408)
(0.108538 0.000434277 0.000822716)
(0.108882 0.000464026 0.000817775)
(0.109305 0.000522898 0.000811322)
(0.109747 0.000592653 0.000800067)
(0.110169 0.000665886 0.000785436)
(0.110567 0.000736197 0.000767437)
(0.110944 0.000799155 0.000748126)
(0.111302 0.000853394 0.000729664)
(0.111642 0.000899635 0.000712638)
(0.111967 0.000938724 0.000696663)
(0.112282 0.000971171 0.000682144)
(0.109634 0.00107488 0.000155741)
(0.110038 0.00111539 8.05869e-05)
(0.11041 0.00115356 7.51204e-05)
(0.11084 0.00118217 9.9414e-05)
(0.111284 0.00120446 0.000137508)
(0.111713 0.00122317 0.000183486)
(0.112125 0.00123853 0.000232184)
(0.112517 0.00124945 0.000278934)
(0.112889 0.00125582 0.000319904)
(0.113243 0.00126085 0.000356185)
(0.113581 0.00126577 0.000387289)
(0.113908 0.00127057 0.000413177)
(0.109807 0.0016858 -0.000332309)
(0.110219 0.00181261 -0.000349496)
(0.110613 0.00187401 -0.000337398)
(0.111035 0.00187644 -0.000300203)
(0.111447 0.00184503 -0.000243533)
(0.111827 0.00179401 -0.000176115)
(0.11218 0.00173339 -0.000102723)
(0.112506 0.00166805 -3.08991e-05)
(0.112818 0.00160417 3.2932e-05)
(0.113121 0.00155228 8.97617e-05)
(0.113412 0.00150803 0.000139819)
(0.113697 0.0014709 0.000182954)
(0.107747 0.00222556 -0.000624158)
(0.108227 0.00242416 -0.000591137)
(0.108645 0.00247395 -0.000527738)
(0.109049 0.0024044 -0.000448944)
(0.109384 0.00227835 -0.000366955)
(0.10965 0.00212581 -0.0002894)
(0.109872 0.0019773 -0.000220077)
(0.110068 0.00183201 -0.000160086)
(0.110254 0.00170466 -0.000108463)
(0.110439 0.00159736 -6.51993e-05)
(0.11063 0.00150926 -2.91595e-05)
(0.11083 0.00143652 3.85457e-06)
(0.102882 0.00263696 -0.00040636)
(0.103295 0.00284659 -0.000455278)
(0.103607 0.00275708 -0.000401002)
(0.103788 0.00251138 -0.000323539)
(0.103858 0.00223776 -0.000268803)
(0.103867 0.00198198 -0.000240172)
(0.103855 0.00175812 -0.00023373)
(0.103848 0.00157308 -0.00023811)
(0.103859 0.00142178 -0.000247994)
(0.103893 0.00130204 -0.000258593)
(0.103954 0.00121385 -0.000268788)
(0.0929387 0.00279556 0.000201929)
(0.0928784 0.00292839 0.000203504)
(0.0927536 0.00254284 0.00012455)
(0.092395 0.00203687 3.24815e-05)
(0.0919545 0.0016041 -5.279e-05)
(0.0915583 0.00127266 -0.000136688)
(0.0912239 0.00103221 -0.000217078)
(0.0909401 0.000859687 -0.000285562)
(0.0907019 0.000736508 -0.000340174)
(0.0904963 0.000645358 -0.000378926)
(0.0903167 0.000583438 -0.000406357)
(0.0644008 0.00137205 0.00233599)
(0.065261 0.00177577 0.00173794)
(0.0651247 0.00116313 0.00109198)
(0.0643404 0.00070192 0.000550499)
(0.0634081 0.000512493 0.000149151)
(0.0625517 0.000422767 -0.000122294)
(0.0617757 0.000373548 -0.000299706)
(0.0610526 0.000355288 -0.000396356)
(0.0603677 0.000351022 -0.000457154)
(0.0597097 0.000351465 -0.000488405)
(0.0590594 0.000349529 -0.000500662)
(0.0716589 0.00122894 0.00338035)
(0.0652851 0.000995084 0.00338394)
(0.0607067 0.000586043 0.00257593)
(0.0569073 0.000339938 0.00190129)
(0.054368 0.000193934 0.00138907)
(0.0527386 0.000120299 0.00101979)
(0.0515354 9.46336e-05 0.000767373)
(0.0505295 9.4738e-05 0.000592595)
(0.0496523 0.000111236 0.000503814)
(0.048857 0.000120099 0.000451405)
(0.048147 0.000121095 0.000415111)
(0.0474669 0.000120281 0.000391432)
(0.0842163 0.00109823 0.00482794)
(0.0849209 0.000947789 0.00451224)
(0.084196 0.000583278 0.00319551)
(0.0827773 0.000311632 0.00207672)
(0.0814073 0.000181808 0.00138831)
(0.0803139 0.000134996 0.000977202)
(0.0794424 0.000127653 0.000724127)
(0.0787143 0.000135554 0.000564478)
(0.0780915 0.000145749 0.000454411)
(0.0775383 0.00015737 0.000387194)
(0.0770292 0.000163164 0.00033694)
(0.0765344 0.000165281 0.000299801)
(0.0929382 -0.000201862 0.00279598)
(0.0928783 -0.000203495 0.0029284)
(0.0927539 -0.000125669 0.00254161)
(0.0923959 -3.45548e-05 0.00203484)
(0.0919561 5.05586e-05 0.00160227)
(0.0915595 0.00013519 0.00127233)
(0.0912242 0.00021614 0.00103317)
(0.0909395 0.000285458 0.000861708)
(0.0906999 0.000340524 0.000739088)
(0.0904951 0.00038074 0.000650218)
(0.0903132 0.00040298 0.000581326)
(0.0901514 0.000420059 0.000538136)
(0.0959461 -0.000618197 0.00127615)
(0.0963879 -0.000521097 0.00156015)
(0.0966689 -0.000336939 0.00154748)
(0.0969441 -0.000132432 0.00138142)
(0.0971403 7.66357e-05 0.0012065)
(0.09725 0.000258346 0.00104283)
(0.097316 0.000399901 0.000891947)
(0.0973584 0.000514831 0.00077248)
(0.0973804 0.00060863 0.000685739)
(0.0973877 0.000682245 0.000622755)
(0.0973835 0.000736973 0.000573751)
(0.0973727 0.000778792 0.000540818)
(0.0996455 -6.96322e-05 0.000319223)
(0.0998106 8.76217e-05 0.000292867)
(0.100062 0.000249142 0.000336814)
(0.100448 0.000385686 0.00037283)
(0.100833 0.000518371 0.000402319)
(0.101149 0.000646682 0.00043011)
(0.101397 0.000756969 0.000448522)
(0.101591 0.000842939 0.000455289)
(0.101743 0.000912596 0.000459713)
(0.101857 0.000975134 0.000469171)
(0.101939 0.00103063 0.000480808)
(0.101993 0.00107785 0.000492314)
(0.102647 0.000880509 -0.000362248)
(0.102821 0.00104443 -0.000471899)
(0.103026 0.00114871 -0.000458894)
(0.103328 0.00120196 -0.000379876)
(0.10364 0.00123595 -0.000271831)
(0.103911 0.00126279 -0.000150853)
(0.104135 0.00128304 -2.92252e-05)
(0.104312 0.00129305 8.16314e-05)
(0.104454 0.00129536 0.000174486)
(0.104566 0.00130005 0.000254695)
(0.104649 0.00130957 0.0003236)
(0.104707 0.00132245 0.000380996)
(0.103944 0.00172158 -0.000756302)
(0.104222 0.00196214 -0.000852642)
(0.104458 0.00205008 -0.000835201)
(0.104672 0.00203379 -0.000738576)
(0.104829 0.00197634 -0.000598647)
(0.104927 0.00189992 -0.000440748)
(0.104984 0.00181099 -0.000283443)
(0.105012 0.00171822 -0.000139475)
(0.105023 0.00164362 -1.47623e-05)
(0.105019 0.00158016 9.50921e-05)
(0.105006 0.00152904 0.000189257)
(0.104986 0.00149204 0.000268273)
(0.102177 0.0025167 -0.00110808)
(0.102789 0.00291359 -0.00107168)
(0.103141 0.00290686 -0.000936461)
(0.103245 0.00271918 -0.000762317)
(0.103154 0.00249133 -0.00058112)
(0.10296 0.00225292 -0.000408539)
(0.102732 0.00202751 -0.000254567)
(0.102503 0.00183705 -0.000125093)
(0.102286 0.0016862 -1.70861e-05)
(0.10209 0.00156611 7.22907e-05)
(0.10192 0.00146858 0.00014613)
(0.10177 0.00140201 0.00020848)
(0.096372 0.00338323 -0.00135599)
(0.0973929 0.00381296 -0.0011701)
(0.0976328 0.00343222 -0.000829429)
(0.0972822 0.00286648 -0.00052857)
(0.0966871 0.00240361 -0.000330051)
(0.0960592 0.00203915 -0.000204736)
(0.0954714 0.00172856 -0.000122282)
(0.0949511 0.00148674 -7.15629e-05)
(0.0945097 0.00130932 -4.45211e-05)
(0.0941373 0.001182 -2.76763e-05)
(0.0938265 0.00109681 -1.57932e-05)
(0.0842166 0.00482917 -0.00109926)
(0.0849196 0.00451317 -0.000948484)
(0.0841966 0.00319485 -0.000583104)
(0.0827812 0.00207483 -0.000310074)
(0.0814163 0.00138563 -0.000179091)
(0.0803274 0.000975138 -0.000132083)
(0.0794589 0.000723132 -0.000125485)
(0.0787326 0.000563272 -0.000133722)
(0.0781105 0.000456124 -0.000145808)
(0.0775588 0.000381281 -0.000154874)
(0.0770476 0.00034262 -0.000166646)
(0.0612415 0.00440423 0.000257008)
(0.0565012 0.0034045 -3.29765e-05)
(0.0532392 0.00135862 0.00018918)
(0.0508258 0.000127939 0.000222522)
(0.0493202 -0.000185629 0.000114627)
(0.0483506 -0.000226863 -4.69061e-06)
(0.0475698 -0.000190741 -9.41108e-05)
(0.0468732 -0.000130393 -0.000150177)
(0.0462228 -8.21906e-05 -0.000175546)
(0.0456148 -5.72411e-05 -0.000181602)
(0.0450238 -4.72523e-05 -0.000178796)
(0.0531089 0.000777225 0.00395244)
(0.0418746 -9.51487e-05 0.00135852)
(0.0374653 -0.000127894 0.000191276)
(0.0347165 -4.98185e-05 2.10004e-05)
(0.0331802 1.18511e-05 3.6929e-05)
(0.0322527 4.92449e-05 3.70391e-05)
(0.0315482 7.30645e-05 3.56843e-05)
(0.0309249 9.12833e-05 3.18368e-05)
(0.0303625 9.8687e-05 2.17118e-05)
(0.0298377 9.91783e-05 1.38606e-05)
(0.0293611 9.6887e-05 1.02652e-05)
(0.0289059 9.42652e-05 9.30339e-06)
(0.0612422 -0.000257285 0.00440526)
(0.0564988 3.30679e-05 0.00340536)
(0.0532376 -0.000189679 0.00135821)
(0.0508254 -0.000222941 0.000125681)
(0.0493222 -0.000114611 -0.000189137)
(0.0483543 5.20935e-06 -0.000230151)
(0.0475747 9.50954e-05 -0.00019344)
(0.0468766 0.000151221 -0.000132316)
(0.0462277 0.000176487 -8.23411e-05)
(0.0456074 0.000182729 -5.58792e-05)
(0.0450355 0.000178467 -4.57975e-05)
(0.0444712 0.0001724 -3.62872e-05)
(0.0644007 -0.00233585 0.00137433)
(0.0652592 -0.00173684 0.00177993)
(0.0651189 -0.0010908 0.00116584)
(0.0643311 -0.000549781 0.000702012)
(0.0633945 -0.000148541 0.000511013)
(0.0625346 0.000122862 0.00042056)
(0.0617559 0.000299831 0.000371602)
(0.0610301 0.000397322 0.000354018)
(0.0603437 0.000458188 0.000351528)
(0.0596817 0.000489228 0.000351607)
(0.0590379 0.000502069 0.00035363)
(0.0583896 0.000505666 0.000359159)
(0.0709451 -0.00261347 -0.000440124)
(0.0718845 -0.00193859 0.000307718)
(0.072624 -0.00123202 0.000515558)
(0.0729299 -0.000674753 0.0004802)
(0.0728457 -0.000235329 0.000437427)
(0.0725543 0.00010316 0.000418042)
(0.0721279 0.000365917 0.000411446)
(0.0716053 0.000539582 0.000417023)
(0.0710225 0.000644587 0.000430103)
(0.0703997 0.000714105 0.00044612)
(0.0697472 0.000759832 0.000463046)
(0.0690708 0.000789308 0.000476334)
(0.0766552 -0.00137634 -0.000702122)
(0.0775956 -0.000988939 -0.000517528)
(0.0784304 -0.000539655 -0.00028684)
(0.0790569 -0.000184499 -0.000131364)
(0.0793521 9.58072e-05 -4.29876e-06)
(0.0793873 0.000319753 0.000113283)
(0.0792376 0.000500978 0.000218986)
(0.07894 0.000656461 0.000323569)
(0.0785171 0.000779095 0.000401389)
(0.0780033 0.000867025 0.000461555)
(0.0774228 0.000929903 0.000509218)
(0.076792 0.000973425 0.000544297)
(0.0829253 -5.99407e-05 -0.00136262)
(0.0833312 0.000299022 -0.00126565)
(0.0837246 0.000529186 -0.00100041)
(0.083984 0.000670522 -0.00071656)
(0.0840377 0.000767858 -0.000456405)
(0.083916 0.000839784 -0.000226667)
(0.0836584 0.00090031 -3.30014e-05)
(0.0832906 0.000963446 0.000130187)
(0.0828242 0.00102182 0.000262586)
(0.0822797 0.00107043 0.000377487)
(0.0816752 0.00110853 0.000456745)
(0.0810234 0.00113739 0.000511293)
(0.0878144 0.00124823 -0.00158857)
(0.087649 0.0016072 -0.00161885)
(0.0874093 0.00168983 -0.00135392)
(0.0869987 0.00164553 -0.00102531)
(0.0864326 0.0015735 -0.000708095)
(0.0857795 0.00150238 -0.000420541)
(0.0850762 0.00143734 -0.000185613)
(0.0843469 0.0013795 -3.45284e-06)
(0.0835935 0.00133413 0.000142596)
(0.0828297 0.00130302 0.000260205)
(0.0820584 0.0012821 0.000352582)
(0.0812803 0.00127001 0.000422352)
(0.0900213 0.00232345 -0.00182856)
(0.0889372 0.00295252 -0.00176)
(0.0876862 0.0028003 -0.00140494)
(0.0861339 0.00247812 -0.00101589)
(0.0845321 0.00218524 -0.000662999)
(0.0830344 0.0019319 -0.000374934)
(0.0816581 0.00171982 -0.000149517)
(0.0804014 0.00154883 2.19884e-05)
(0.0792528 0.00141731 0.000148471)
(0.0781978 0.00131742 0.000243735)
(0.0772195 0.00124075 0.00031419)
(0.0762971 0.00118913 0.000354775)
(0.086584 0.00359505 -0.00212386)
(0.0835526 0.00389335 -0.00175164)
(0.0803563 0.0032157 -0.00108935)
(0.0771426 0.00254 -0.000535935)
(0.0743902 0.002034 -0.000218063)
(0.072198 0.00167185 -4.59536e-05)
(0.0704255 0.0014207 3.96158e-05)
(0.0689851 0.00124813 7.48842e-05)
(0.0677817 0.00112419 8.76223e-05)
(0.0667481 0.00103364 0.000102306)
(0.0658327 0.000964671 0.000120258)
(0.0716592 0.00338029 -0.00122889)
(0.0652873 0.0033844 -0.000994997)
(0.0607077 0.00257709 -0.000585456)
(0.0569067 0.00190301 -0.000338416)
(0.0543648 0.00139117 -0.000191821)
(0.0527331 0.0010204 -0.000118006)
(0.0515277 0.000766136 -9.2597e-05)
(0.0505224 0.000590988 -9.34543e-05)
(0.049643 0.000502353 -0.000110484)
(0.0488589 0.000450486 -0.000120644)
(0.0481294 0.000413845 -0.000121286)
(0.0531077 0.00395227 -0.000777582)
(0.041874 0.00135857 9.47186e-05)
(0.0374649 0.000191098 0.000128135)
(0.0347161 2.10048e-05 5.06848e-05)
(0.0331787 3.67521e-05 -1.05377e-05)
(0.0322499 3.72128e-05 -4.78405e-05)
(0.0315434 3.61981e-05 -7.18276e-05)
(0.03092 3.18604e-05 -9.04754e-05)
(0.0303558 2.18945e-05 -9.83352e-05)
(0.0298392 1.37394e-05 -9.89218e-05)
(0.0293522 1.10279e-05 -9.7683e-05)
)
;

boundaryField
{
    inlet
    {
        type            fixedValue;
        value           nonuniform List<vector> 0();
    }
    ami1
    {
        type            cyclicAMI;
        value           nonuniform List<vector> 0();
    }
    walls
    {
        type            noSlip;
    }
    ami2
    {
        type            cyclicAMI;
        value           nonuniform List<vector> 
61
(
(0.075977 0.000490541 -0.001123)
(0.0995179 -0.000367256 -7.07738e-05)
(0.107809 -0.000874511 0.000520772)
(0.0828229 0.00123032 -0.000127229)
(0.102532 0.000270931 0.00084676)
(0.109335 -0.000224866 0.00107754)
(0.0880191 0.00134564 0.00105192)
(0.103794 0.00065468 0.00158946)
(0.109537 0.000292238 0.00163069)
(0.112318 0.000143812 0.00133417)
(0.114003 0.000256526 0.000832875)
(0.114579 0.000498549 0.000246997)
(0.114003 0.000832496 -0.000256719)
(0.112173 0.000950946 -0.000555169)
(0.10781 0.000874333 -0.000522692)
(0.0995164 0.000370924 6.68016e-05)
(0.0759823 -0.000487425 0.00112186)
(0.0908957 0.00152566 0.00187138)
(0.101767 0.00100646 0.00219781)
(0.1074 0.000608231 0.00212086)
(0.110248 0.000349862 0.00169436)
(0.112172 0.000555266 0.000951579)
(0.112988 0.00091925 0.000336787)
(0.112318 0.00133421 -0.000143759)
(0.110249 0.0016942 -0.000349666)
(0.106186 0.00166868 -0.000224741)
(0.0955293 0.00108948 0.000612272)
(0.070256 -0.000505464 0.00231938)
(0.0888921 0.00189687 0.00276068)
(0.0955396 0.00123834 0.00279973)
(0.102629 0.000370451 0.00247058)
(0.106185 0.000224668 0.00166876)
(0.107809 0.000522621 0.000874892)
(0.109335 0.00107876 0.000225754)
(0.109538 0.00163097 -0.000291675)
(0.107401 0.00212071 -0.000607967)
(0.10263 0.00247098 -0.000370646)
(0.0931504 0.00231391 0.000238512)
(0.0631308 0.000510598 0.00247544)
(0.0789752 0.00119865 0.0028877)
(0.0831102 0.000794711 0.00370368)
(0.0931499 -0.00023861 0.00231412)
(0.0955283 -0.000611471 0.0010908)
(0.0995156 -6.67104e-05 0.000371472)
(0.102531 0.000847513 -0.000268872)
(0.103794 0.00158937 -0.000653781)
(0.101768 0.00219754 -0.00100614)
(0.0955403 0.00279969 -0.00123837)
(0.0831103 0.00370427 -0.000795332)
(0.0653782 0.00288476 0.000862447)
(0.0657135 0.000403098 0.00327987)
(0.0653788 -0.000862807 0.00288522)
(0.0631311 -0.00247556 0.000511737)
(0.0702568 -0.00232021 -0.000505385)
(0.0759821 -0.00112292 -0.000488074)
(0.0828253 -0.00012802 -0.00123082)
(0.0880205 0.00105099 -0.00134682)
(0.0908964 0.00187096 -0.00152606)
(0.0888925 0.00276034 -0.00189685)
(0.0789755 0.00288759 -0.00119867)
(0.0657129 0.00327981 -0.000403443)
)
;
    }
    outlet
    {
        type            zeroGradient;
    }
    procBoundary1to0
    {
        type            processor;
        value           nonuniform List<vector> 
138
(
(0.0790486 0.000142027 -0.000188813)
(0.0790486 0.000142027 -0.000188813)
(0.0793464 1.81322e-05 8.84835e-05)
(0.0793854 -9.8501e-05 0.000310487)
(0.0792396 -0.000206063 0.000490976)
(0.0789468 -0.000313972 0.00064737)
(0.0785289 -0.000399252 0.000773281)
(0.0780185 -0.000465246 0.000864724)
(0.0774395 -0.000517685 0.000930777)
(0.0768084 -0.000556249 0.000976836)
(0.100451 -0.000373279 0.000383272)
(0.100451 -0.000373279 0.000383272)
(0.100834 -0.000404726 0.000515768)
(0.101145 -0.00043339 0.000643553)
(0.101388 -0.000452242 0.000753601)
(0.101578 -0.000460028 0.000840578)
(0.101726 -0.000465434 0.000912062)
(0.101838 -0.000475333 0.000976355)
(0.101917 -0.000487095 0.00103342)
(0.101971 -0.000497841 0.00108148)
(0.112473 -0.000941208 0.000528016)
(0.112924 -0.000918259 0.000499634)
(0.109302 -0.000815324 0.000520517)
(0.11335 -0.000920989 0.000497233)
(0.109302 -0.000815324 0.000520517)
(0.109742 -0.000805268 0.000590778)
(0.110162 -0.00079147 0.000664893)
(0.110558 -0.00077377 0.000736192)
(0.110933 -0.000754224 0.000800151)
(0.111288 -0.000735067 0.000855376)
(0.111626 -0.000717018 0.000902469)
(0.11195 -0.000699832 0.000942154)
(0.112265 -0.000683902 0.000974875)
(0.113286 -0.000328066 0.000909734)
(0.113755 -0.000315377 0.000903174)
(0.114198 -0.000310332 0.000912195)
(0.114681 -0.000310355 0.000921825)
(0.115182 -0.000314333 0.000927075)
(0.115682 -0.000321096 0.000928932)
(0.116177 -0.000328944 0.000927783)
(0.116665 -0.000336444 0.000923293)
(0.117143 -0.000342841 0.000916065)
(0.11761 -0.000347844 0.000907938)
(0.118067 -0.000351455 0.000900181)
(0.118515 -0.000353772 0.000893055)
(0.113286 -0.000328066 0.000909734)
(0.113755 -0.000315377 0.000903174)
(0.114198 -0.000310332 0.000912195)
(0.114681 -0.000310355 0.000921825)
(0.115182 -0.000314333 0.000927075)
(0.115682 -0.000321096 0.000928932)
(0.116177 -0.000328944 0.000927783)
(0.116665 -0.000336444 0.000923293)
(0.117143 -0.000342841 0.000916065)
(0.11761 -0.000347844 0.000907938)
(0.118067 -0.000351455 0.000900181)
(0.118515 -0.000353772 0.000893055)
(0.114945 -0.000238851 0.000503215)
(0.115507 -0.000234944 0.000510153)
(0.116024 -0.000233787 0.000511494)
(0.116569 -0.000232315 0.000508993)
(0.117123 -0.000231178 0.000506292)