/*--------------------------------*- C++ -*----------------------------------*\
| =========                 |                                                 |
| \\      /  F ield         | OpenFOAM: The Open Source CFD Toolbox           |
|  \\    /   O peration     | Version:  2212                                  |
|   \\  /    A nd           | Website:  www.openfoam.com                      |
|    \\/     M anipulation  |                                                 |
\*---------------------------------------------------------------------------*/
FoamFile
{
    version     2.0;
    format      ascii;
    arch        "LSB;label=32;scalar=64";
    class       surfaceVectorField;
    location    "2";
    object      Uf;
}
// * * * * * * * * * * * * * * * * * * * * * * * * * * * * * * * * * * * * * //

dimensions      [0 1 -1 0 0 0 0];

internalField   nonuniform List<vector> 
1805
(
(0.0770363 0.000614292 -0.00118279)
(0.0875105 0.000210215 -0.000738351)
(0.0797491 0.00114558 -0.000679435)
(0.0780537 0.000408992 -0.000765391)
(0.0880847 8.14818e-05 -0.000384259)
(0.0804244 0.00094452 -0.000330793)
(0.0886442 -4.36277e-05 -0.000100336)
(0.0810411 0.000659133 -6.61139e-06)
(0.0996354 -0.000301713 4.78455e-06)
(0.103727 -0.0005646 0.000175704)
(0.101136 4.74871e-05 0.000408197)
(0.0998906 -0.000312697 0.000165873)
(0.103998 -0.000525158 0.000213105)
(0.101306 0.000112986 0.000569522)
(0.104292 -0.000552677 0.000321697)
(0.101535 7.27683e-05 0.000698691)
(0.108284 -0.000836519 0.000450397)
(0.108888 -0.000478747 0.000779723)
(0.108673 -0.00082261 0.000446703)
(0.109282 -0.000433997 0.000779178)
(0.109639 -0.000440353 0.000808719)
(0.0831239 0.001314 0.000120039)
(0.0922629 0.000878293 0.000410432)
(0.085395 0.00145586 0.000591619)
(0.0835627 0.00113494 0.000414332)
(0.0925591 0.000858721 0.000723571)
(0.0855119 0.00143767 0.000957321)
(0.0838758 0.000863243 0.000599598)
(0.0928632 0.000722825 0.000875223)
(0.0855846 0.0011905 0.00112104)
(0.0840094 0.000593873 0.000718106)
(0.0931422 0.000546473 0.0009538)
(0.0855046 0.000887594 0.00116893)
(0.0839704 0.000350561 0.000801658)
(0.0933172 0.000365718 0.00100562)
(0.085244 0.000600246 0.00117981)
(0.0837818 0.000138831 0.000866687)
(0.0933812 0.000193365 0.00104212)
(0.084853 0.000341632 0.00117856)
(0.0834679 -4.0978e-05 0.000927551)
(0.0933509 3.76596e-05 0.00107217)
(0.0843697 0.000124763 0.00117409)
(0.0830517 -0.000191266 0.000988256)
(0.0932413 -9.92118e-05 0.00110322)
(0.0838195 -5.19379e-05 0.00117427)
(0.08255 -0.000318195 0.00104263)
(0.0930632 -0.000212988 0.00113098)
(0.0832089 -0.000196317 0.00117893)
(0.0819776 -0.000418977 0.00108733)
(0.0928297 -0.000311598 0.00115521)
(0.0825544 -0.000317273 0.0011867)
(0.08135 -0.000489464 0.00112233)
(0.0925509 -0.000386451 0.00117673)
(0.0818665 -0.000407764 0.00119514)
(0.092235 -0.000442355 0.00119556)
(0.0811513 -0.000473673 0.00120355)
(0.102684 0.000420122 0.000961399)
(0.106003 0.000111242 0.000981674)
(0.103302 0.000577858 0.00131175)
(0.102898 0.000468595 0.00109536)
(0.106288 0.00021196 0.00106924)
(0.103528 0.000677048 0.00151189)
(0.103188 0.000421986 0.00117397)
(0.106573 0.000205499 0.00114517)
(0.103749 0.000661262 0.00160738)
(0.103491 0.000327324 0.00121722)
(0.106936 0.000148778 0.00119273)
(0.104007 0.000573479 0.00162563)
(0.103775 0.000211532 0.00124701)
(0.107311 7.02667e-05 0.00122695)
(0.10424 0.000447833 0.00161284)
(0.104021 8.909e-05 0.00126999)
(0.107658 -1.8536e-05 0.00125562)
(0.104423 0.000305647 0.00158631)
(0.104222 -2.83538e-05 0.00128524)
(0.107971 -0.000108435 0.00127894)
(0.104562 0.000162909 0.00155024)
(0.10438 -0.000131588 0.00129223)
(0.10825 -0.000191493 0.00129466)
(0.104664 3.19287e-05 0.00150773)
(0.104505 -0.000219365 0.00129682)
(0.108502 -0.000262103 0.00130403)
(0.104739 -8.0181e-05 0.00147111)
(0.104602 -0.000294856 0.00130499)
(0.108729 -0.000323308 0.00131348)
(0.104792 -0.00017801 0.00144165)
(0.104671 -0.000358366 0.00131701)
(0.108934 -0.000375448 0.00132439)
(0.104826 -0.000261831 0.00142064)
(0.10912 -0.000418152 0.00133604)
(0.104844 -0.000330932 0.00140856)
(0.109796 -0.000117553 0.00109342)
(0.109721 0.00010384 0.00138792)
(0.110199 -7.82562e-05 0.00113259)
(0.110128 0.000145267 0.00146956)
(0.110629 -8.90212e-05 0.0011661)
(0.110512 0.00013755 0.00151777)
(0.111067 -0.000121569 0.00119176)
(0.110938 0.000104803 0.0015329)
(0.111498 -0.000164754 0.00121255)
(0.111366 5.57989e-05 0.00152811)
(0.111918 -0.000212893 0.00123001)
(0.111771 -2.55882e-06 0.00151167)
(0.11232 -0.000261067 0.00124368)
(0.112152 -6.52445e-05 0.0014887)
(0.112702 -0.000305072 0.00125294)
(0.112511 -0.000126501 0.00146091)
(0.113063 -0.000343515 0.00125927)
(0.112853 -0.000180575 0.00143169)
(0.113409 -0.000376717 0.00126484)
(0.113181 -0.000227923 0.00140809)
(0.113741 -0.00040441 0.00127025)
(0.113496 -0.000268698 0.00138843)
(0.113801 -0.000303008 0.00137241)
(0.0877817 0.00160285 0.00142821)
(0.0954316 0.00118506 0.00150272)
(0.0889555 0.00170928 0.0018034)
(0.0875734 0.00148651 0.00164881)
(0.0954755 0.00124515 0.00181157)
(0.0883148 0.00174459 0.00233899)
(0.0872089 0.00119096 0.00166788)
(0.0954604 0.00110751 0.00186758)
(0.0875517 0.00143531 0.00230068)
(0.086705 0.000869588 0.00160956)
(0.0953443 0.000895003 0.00181884)
(0.0865499 0.00105149 0.00209557)
(0.0860976 0.000568308 0.00153775)
(0.0951191 0.000665107 0.00174483)
(0.0854472 0.000699999 0.0018977)
(0.0854216 0.000307041 0.00146949)
(0.0948201 0.000440651 0.00166516)
(0.0843561 0.000407013 0.00172866)
(0.0847034 9.7801e-05 0.00140789)
(0.0944756 0.000242771 0.0015855)
(0.0833038 0.000175609 0.00158703)
(0.0839618 -6.73587e-05 0.00135614)
(0.0941037 7.81285e-05 0.00150997)
(0.0823012 -1.81171e-06 0.0014707)
(0.0832044 -0.000200682 0.00131786)
(0.0937111 -5.87617e-05 0.0014501)
(0.0813432 -0.000138556 0.00138119)
(0.0824384 -0.000307407 0.00129217)
(0.0933066 -0.000173583 0.00140252)
(0.0804284 -0.000245944 0.00131483)
(0.0816642 -0.000390505 0.001276)
(0.0928936 -0.00026762 0.00136556)
(0.0795505 -0.000327166 0.00126686)
(0.0924741 -0.000342233 0.00133938)
(0.0786972 -0.000383478 0.00123376)
(0.104055 0.000805852 0.00184167)
(0.106755 0.000552178 0.00170887)
(0.103037 0.000912481 0.00211433)
(0.104328 0.00084565 0.00200551)
(0.107097 0.000609463 0.00189787)
(0.103486 0.000970636 0.00245313)
(0.104572 0.000788675 0.00204097)
(0.107409 0.000591347 0.00198124)
(0.103781 0.000910751 0.00250305)
(0.104752 0.000670089 0.00200384)
(0.107722 0.000521084 0.00197834)
(0.103938 0.000772784 0.00239755)
(0.104876 0.000520558 0.00193669)
(0.108002 0.000419109 0.0019369)
(0.103967 0.000607024 0.00224994)
(0.104955 0.000362121 0.00185392)
(0.108235 0.000302727 0.00187563)
(0.103915 0.000437851 0.00208827)
(0.104998 0.000210511 0.00176323)
(0.108434 0.00018416 0.00180234)
(0.103826 0.000277895 0.00192712)
(0.105017 7.5061e-05 0.00167998)
(0.108606 7.32458e-05 0.00172497)
(0.103722 0.000138014 0.0017829)
(0.10502 -4.33611e-05 0.00161171)
(0.108761 -2.39949e-05 0.00165838)
(0.103616 1.92726e-05 0.00166864)
(0.105012 -0.000146597 0.00155499)
(0.108904 -0.000109883 0.00160323)
(0.103514 -8.20165e-05 0.00157637)
(0.104995 -0.000233993 0.00151127)
(0.109037 -0.000184342 0.00155727)
(0.10342 -0.000167882 0.0015007)
(0.109164 -0.000246663 0.00152249)
(0.103336 -0.000238817 0.00144904)
(0.109983 0.000341409 0.00174859)
(0.111215 0.000234157 0.00153361)
(0.108754 0.000462305 0.00195014)
(0.110394 0.000343555 0.00184257)
(0.111683 0.000234471 0.001606)
(0.109201 0.00046092 0.00211759)
(0.110827 0.000318229 0.00187453)
(0.112116 0.000225706 0.00164141)
(0.109607 0.000436256 0.00218117)
(0.111245 0.000270477 0.00186015)
(0.112581 0.000204387 0.00164033)
(0.11002 0.000380916 0.00214917)
(0.111637 0.000207621 0.00181914)
(0.113042 0.000171156 0.00161397)
(0.110393 0.000309837 0.00206924)
(0.112003 0.000136504 0.00176359)
(0.113479 0.00013046 0.00157167)
(0.110715 0.000234831 0.00196555)
(0.112344 6.32929e-05 0.00170086)
(0.113893 8.53562e-05 0.00152051)
(0.111002 0.00016165 0.00185944)
(0.112664 -5.02598e-06 0.00163652)
(0.114287 4.06237e-05 0.00146355)
(0.111262 9.52647e-05 0.00175342)
(0.112971 -6.56628e-05 0.00157889)
(0.114667 -2.66035e-07 0.00140604)
(0.11151 3.76475e-05 0.0016575)
(0.113268 -0.000119308 0.001531)
(0.115036 -3.66173e-05 0.00135685)
(0.111754 -1.25107e-05 0.00157747)
(0.113556 -0.000165723 0.00149065)
(0.115396 -6.88653e-05 0.00131462)
(0.111994 -5.64037e-05 0.00150996)
(0.115748 -9.64234e-05 0.00127885)
(0.112236 -9.40604e-05 0.00145507)
(0.112928 0.000130947 0.00135553)
(0.113529 0.00019872 0.00106628)
(0.111647 0.000248419 0.00152424)
(0.113446 0.000115948 0.00137712)
(0.114065 0.000183332 0.00107373)
(0.112147 0.00023363 0.00155118)
(0.113966 0.000108915 0.00138587)
(0.114554 0.000173444 0.00108839)
(0.112597 0.000222413 0.00156488)
(0.114478 0.00010156 0.00137724)
(0.115076 0.000167634 0.00109056)
(0.113083 0.000213705 0.00154992)
(0.114979 9.04898e-05 0.00135377)
(0.115604 0.000161718 0.00107936)
(0.113571 0.000205066 0.00151071)
(0.115466 7.61227e-05 0.00131973)
(0.116121 0.000154642 0.00105905)
(0.114035 0.000196336 0.00145565)
(0.115938 5.96912e-05 0.0012785)
(0.116626 0.000146396 0.00103253)
(0.114479 0.000187601 0.00139238)
(0.116397 4.21586e-05 0.0012331)
(0.117121 0.000137312 0.00100157)
(0.114906 0.000178549 0.00132569)
(0.116842 2.53743e-05 0.00118796)
(0.117604 0.000127698 0.000968354)
(0.115319 0.000169399 0.00126021)
(0.117277 1.06988e-05 0.00114669)
(0.118076 0.000119178 0.000936404)
(0.115722 0.000161262 0.00120022)
(0.117704 -2.20692e-06 0.00111032)
(0.118539 0.00011159 0.000907124)
(0.116117 0.000154017 0.00114726)
(0.118995 0.000104675 0.000880999)
(0.116507 0.000147653 0.00110222)
(0.114624 0.00024368 0.000797184)
(0.114661 0.000375207 0.000521333)
(0.113411 0.00040618 0.000881671)
(0.11516 0.000236988 0.000789046)
(0.115215 0.000375075 0.00051105)
(0.113909 0.000383858 0.000859132)
(0.115698 0.000231669 0.000789138)
(0.115726 0.000372238 0.000510546)
(0.114374 0.000371922 0.000856559)
(0.116238 0.000228492 0.000786178)
(0.116265 0.000368626 0.000509908)
(0.114876 0.000371348 0.000855935)
(0.116777 0.000226962 0.000777851)
(0.116814 0.000365904 0.000506575)
(0.115394 0.000376035 0.000848485)
(0.117312 0.000226368 0.000765094)
(0.117359 0.000363015 0.000500434)
(0.115907 0.000383295 0.000834477)
(0.11784 0.000225944 0.00074877)
(0.117898 0.000359923 0.000491923)
(0.116412 0.000391347 0.00081552)
(0.11836 0.000225289 0.000729896)
(0.11843 0.000356407 0.000481505)
(0.116909 0.000398692 0.000793088)
(0.118871 0.000224369 0.000709896)
(0.118954 0.000352471 0.000469884)
(0.117396 0.00040477 0.000768961)
(0.119373 0.000223244 0.000690099)
(0.11947 0.000348442 0.000457934)
(0.117872 0.000409756 0.000744807)
(0.119866 0.000221871 0.000671279)
(0.119976 0.000344467 0.000446308)
(0.11834 0.000413815 0.000721674)
(0.120474 0.000340491 0.000435342)
(0.118799 0.000416799 0.00070018)
(0.115203 0.000506365 0.00023588)
(0.114661 0.000653338 -2.8217e-06)
(0.114103 0.00071798 0.000287246)
(0.115749 0.000510338 0.000232831)
(0.115215 0.000648999 -2.8037e-06)
(0.114617 0.000715058 0.000276911)
(0.116298 0.000509522 0.000230938)
(0.115726 0.000650571 -2.53548e-06)
(0.115097 0.000716537 0.000271414)
(0.116849 0.00050674 0.000229096)
(0.116265 0.000649498 -2.35093e-06)
(0.11561 0.000718466 0.000269299)
(0.117399 0.000503026 0.000227135)
(0.116814 0.000645202 -2.38927e-06)
(0.116137 0.000718918 0.000269824)
(0.117947 0.000497912 0.000224629)
(0.117358 0.000637534 -3.35001e-06)
(0.116663 0.000717061 0.000271663)
(0.118491 0.000491866 0.000221719)
(0.117897 0.000627296 -4.61756e-06)
(0.117183 0.000713374 0.000274058)
(0.119028 0.000485112 0.000218467)
(0.118429 0.000614997 -5.8437e-06)
(0.117697 0.000707794 0.000276312)
(0.119557 0.000478024 0.000215007)
(0.118954 0.000601388 -6.91282e-06)
(0.118202 0.000700621 0.000278021)
(0.120077 0.000471027 0.000211514)
(0.119469 0.000587562 -7.83672e-06)
(0.118697 0.00069301 0.000279111)
(0.120589 0.000464295 0.000208106)
(0.119975 0.000574235 -8.5891e-06)
(0.119183 0.000685734 0.000279622)
(0.120473 0.000561592 -9.09772e-06)
(0.119661 0.000678868 0.000279628)
(0.114624 0.000796809 -0.000244051)
(0.113412 0.000881122 -0.000406248)
(0.11353 0.00106618 -0.000198844)
(0.11516 0.000788687 -0.000237682)
(0.11391 0.000858514 -0.00038399)
(0.114066 0.0010737 -0.000183742)
(0.115698 0.000788807 -0.000232836)
(0.114374 0.000855984 -0.000372374)
(0.114554 0.00108835 -0.00017436)
(0.116238 0.000785897 -0.000230185)
(0.114876 0.00085553 -0.000372329)
(0.115075 0.00109051 -0.00016919)
(0.116777 0.000777623 -0.000229136)
(0.115394 0.000848293 -0.000377573)
(0.115604 0.00107928 -0.000163909)
(0.117311 0.000764898 -0.000228926)
(0.115906 0.000834478 -0.000385321)
(0.116121 0.00105892 -0.000157379)
(0.117839 0.000748572 -0.000228755)
(0.116411 0.000815649 -0.000393745)
(0.116625 0.00103231 -0.000149533)
(0.118359 0.000729665 -0.000228206)
(0.116908 0.000793257 -0.000401317)
(0.117119 0.00100126 -0.000140674)
(0.11887 0.000709619 -0.000227252)
(0.117394 0.000769108 -0.000407476)
(0.117602 0.00096793 -0.000131107)
(0.119371 0.00068977 -0.000225965)
(0.11787 0.000744908 -0.000412417)
(0.118074 0.000935909 -0.000122489)
(0.119864 0.000670809 -0.000224294)
(0.118337 0.000721741 -0.000416315)
(0.118537 0.000906586 -0.00011466)
(0.118796 0.000699909 -0.000418988)
(0.118992 0.000880163 -0.000107245)
(0.112677 0.000927101 -0.000514207)
(0.110253 0.000882841 -0.000481169)
(0.111534 0.00130838 -0.000441511)
(0.113121 0.000915859 -0.00049846)
(0.110671 0.000859131 -0.000451251)
(0.111996 0.00131399 -0.000424193)
(0.11359 0.000917725 -0.000501644)
(0.111055 0.000862409 -0.000474596)
(0.112423 0.00132772 -0.000413352)
(0.114074 0.000914929 -0.000513283)
(0.111502 0.000861918 -0.000512519)
(0.112891 0.00131782 -0.000410395)
(0.114561 0.000903149 -0.000528952)
(0.111968 0.000852909 -0.000555677)
(0.113368 0.00128493 -0.000413293)
(0.115043 0.000883892 -0.000546165)
(0.112421 0.00083771 -0.000601538)
(0.113828 0.00123743 -0.000419892)
(0.115518 0.000859295 -0.000562384)
(0.112858 0.000817196 -0.000645278)
(0.114271 0.0011824 -0.000427375)
(0.115982 0.00083171 -0.000576231)
(0.113279 0.000793307 -0.000683278)
(0.1147 0.00112434 -0.000434056)
(0.116435 0.00080341 -0.000587803)
(0.113685 0.000768957 -0.000715493)
(0.115116 0.00106771 -0.000439573)
(0.116878 0.000775957 -0.00059762)
(0.114076 0.000745892 -0.00074339)
(0.115522 0.00101524 -0.000444202)
(0.117312 0.000750014 -0.000605659)
(0.114456 0.000724587 -0.00076744)
(0.11592 0.000968462 -0.000448231)
(0.116313 0.000927283 -0.00045114)
(0.108286 0.000834306 -0.000452278)
(0.103725 0.000566419 -0.000179292)
(0.107214 0.00132131 -0.000304868)
(0.108675 0.000818688 -0.000448517)
(0.103997 0.000523317 -0.000214185)
(0.107507 0.00133689 -0.000248287)
(0.109101 0.000813419 -0.000493135)
(0.104294 0.000550132 -0.00032346)
(0.107801 0.00132303 -0.000279472)
(0.109534 0.000805211 -0.000557885)
(0.104697 0.000574559 -0.000437771)
(0.108169 0.00127695 -0.00034172)
(0.109958 0.000792876 -0.000629791)
(0.105109 0.000590446 -0.000550424)
(0.108547 0.00121173 -0.000414741)
(0.110366 0.000776991 -0.000701905)
(0.105475 0.000602925 -0.000661083)
(0.108899 0.00113873 -0.000490748)
(0.110754 0.000758473 -0.000768799)
(0.105793 0.000608343 -0.000760165)
(0.10923 0.00106467 -0.000563053)
(0.11112 0.00073949 -0.000827575)
(0.106073 0.000606399 -0.000842233)
(0.109543 0.000996245 -0.00062695)
(0.111466 0.000721596 -0.000877929)
(0.106321 0.000602759 -0.00091018)
(0.109843 0.000936425 -0.000681727)
(0.111797 0.000705168 -0.000920667)
(0.106541 0.000601785 -0.000969215)
(0.110131 0.000885004 -0.000727998)
(0.106738 0.000602683 -0.00102031)
(0.110413 0.000842285 -0.000766985)
(0.099633 0.00030337 -6.88254e-06)
(0.0875145 -0.000206247 0.000735907)
(0.0977478 0.000710836 0.000321991)
(0.0998891 0.000311608 -0.000166048)
(0.088088 -7.80913e-05 0.000383273)
(0.098057 0.000866082 0.000204925)
(0.100272 0.000352963 -0.000316657)
(0.0886474 4.69926e-05 9.8499e-05)
(0.0983244 0.000935475 4.5936e-05)
(0.100655 0.000386732 -0.000452339)
(0.0891602 0.00013757 -0.000140287)
(0.0986528 0.000888693 -0.000120897)
(0.100993 0.00041581 -0.000583329)
(0.0894981 0.000207251 -0.000333105)
(0.0989398 0.000818112 -0.000292256)
(0.101273 0.000439115 -0.00070293)
(0.0896658 0.000272207 -0.000495837)
(0.0991475 0.000749609 -0.000448072)
(0.101492 0.000451722 -0.000801201)
(0.0897041 0.000328126 -0.000629775)
(0.0992994 0.000681806 -0.000574157)
(0.101663 0.000457046 -0.000878837)
(0.0896394 0.000380169 -0.000741996)
(0.0994133 0.00062285 -0.000674568)
(0.101793 0.000463714 -0.00094467)
(0.0894888 0.000420064 -0.000832285)
(0.0994965 0.000578733 -0.000756288)
(0.101889 0.000474793 -0.00100388)
(0.089272 0.000453455 -0.000902172)
(0.0995537 0.000549129 -0.000824322)
(0.089004 0.000482283 -0.000956794)
(0.0995902 0.000530821 -0.000880934)
(0.0770436 -0.00060853 0.00118095)
(0.0737001 -0.000495314 0.00203452)
(0.0780616 -0.000401697 0.000763008)
(0.074636 -2.7307e-05 0.00149657)
(0.0787907 -0.000210939 0.000362087)
(0.0754217 0.000167892 0.000909611)
(0.079207 -7.2287e-05 4.57648e-05)
(0.0758839 0.000202962 0.000446018)
(0.0793656 4.7875e-05 -0.000205382)
(0.0759847 0.000233169 8.22973e-05)
(0.0793133 0.000158097 -0.000407435)
(0.0758543 0.000279485 -0.000200383)
(0.0790913 0.000262599 -0.00057554)
(0.0755657 0.000328418 -0.000423356)
(0.0787331 0.000354889 -0.000714758)
(0.075156 0.00038102 -0.00058903)
(0.0782707 0.000426048 -0.00082061)
(0.0746542 0.000424117 -0.000703713)
(0.0777262 0.000481597 -0.000896607)
(0.0740874 0.000460932 -0.000783226)
(0.07347 0.000491315 -0.000837835)
(0.0897324 0.00179404 0.00263815)
(0.095713 0.00146237 0.00254373)
(0.0881913 0.00200816 0.00301995)
(0.0884127 0.00158252 0.00287591)
(0.095423 0.00142498 0.00299274)
(0.0860709 0.00182704 0.00351391)
(0.0868839 0.00121073 0.00263789)
(0.0949224 0.00119226 0.00282189)
(0.083785 0.0013013 0.00307483)
(0.0853024 0.000840229 0.00232991)
(0.0941456 0.000910425 0.00253387)
(0.0813492 0.000792617 0.00253603)
(0.0837726 0.000520252 0.00205696)
(0.0932506 0.000639403 0.0022663)
(0.0791355 0.000437405 0.00211124)
(0.0823421 0.000263789 0.00182485)
(0.092363 0.00040526 0.00202127)
(0.0772686 0.000190287 0.0017825)
(0.0810256 6.52565e-05 0.00163397)
(0.0915244 0.000211946 0.0018086)
(0.0756813 2.02562e-05 0.00153426)
(0.0798219 -8.4221e-05 0.00148339)
(0.0907487 5.83195e-05 0.0016346)
(0.0743266 -9.10833e-05 0.00135303)
(0.0787214 -0.000196101 0.00136828)
(0.0900358 -6.14032e-05 0.00149932)
(0.0731484 -0.000159338 0.00122519)
(0.077705 -0.000279541 0.00128129)
(0.0893836 -0.000155607 0.00139311)
(0.0721023 -0.00021079 0.00113223)
(0.0767558 -0.000336136 0.00121725)
(0.0887834 -0.000228519 0.00130848)
(0.071161 -0.000249756 0.00106574)
(0.0882241 -0.000280765 0.0012481)
(0.070278 -0.000275923 0.00101524)
(0.102434 0.00109042 0.00271534)
(0.104833 0.00088426 0.00235477)
(0.0991365 0.00123293 0.00296672)
(0.102966 0.0010049 0.00291019)
(0.105382 0.000837799 0.0026981)
(0.0999622 0.00114084 0.00339747)
(0.103203 0.000850488 0.00281273)
(0.105765 0.000731021 0.00273865)
(0.100255 0.000906146 0.00320116)
(0.103195 0.000672924 0.00260499)
(0.106012 0.00060148 0.00260998)
(0.10012 0.000650404 0.00280441)
(0.10305 0.000495891 0.00237199)
(0.106123 0.000467048 0.00243215)
(0.099763 0.000444727 0.0024422)
(0.102843 0.000332177 0.00214014)
(0.106149 0.000339171 0.00223567)
(0.0993407 0.000288464 0.00213088)
(0.102614 0.000189764 0.00193231)
(0.106136 0.000225445 0.00204572)
(0.0989237 0.000168444 0.00185814)
(0.10239 7.01232e-05 0.00176184)
(0.10611 0.000128897 0.00187561)
(0.0985417 7.82461e-05 0.00164029)
(0.102184 -2.95181e-05 0.00162687)
(0.106085 4.72457e-05 0.00173549)
(0.0982064 1.10046e-05 0.00147507)
(0.102002 -0.000112358 0.00151804)
(0.106073 -2.08689e-05 0.00162227)
(0.0979202 -4.05548e-05 0.00135331)
(0.101843 -0.000181702 0.00143579)
(0.106074 -7.82381e-05 0.00152902)
(0.0976741 -8.46413e-05 0.00125558)
(0.106094 -0.000127307 0.00146131)
(0.0974697 -0.000120246 0.00119641)
(0.107924 0.000607861 0.00232493)
(0.109141 0.000484342 0.00198405)
(0.105223 0.000536487 0.00245533)
(0.108405 0.000559425 0.00244914)
(0.109618 0.000466905 0.00209549)
(0.105668 0.000537206 0.00265386)
(0.108855 0.000487915 0.00243947)
(0.11004 0.000426992 0.00212778)
(0.106031 0.000475787 0.0026304)
(0.109221 0.000407039 0.00234202)
(0.110473 0.000381054 0.00207523)
(0.10632 0.000391064 0.00246609)
(0.109516 0.000326805 0.00220301)
(0.11087 0.000336372 0.00197663)
(0.106518 0.000315227 0.00225914)
(0.10976 0.000252942 0.00205261)
(0.111217 0.000295758 0.00185553)
(0.106651 0.00025798 0.00205028)
(0.10997 0.000187883 0.00190584)
(0.111531 0.000259877 0.00173359)
(0.106752 0.000217221 0.00186023)
(0.110162 0.000131683 0.00176965)
(0.111821 0.000228764 0.00161366)
(0.106843 0.000187095 0.00169256)
(0.110348 8.38664e-05 0.00165237)
(0.112099 0.000202002 0.00150549)
(0.106939 0.000164624 0.0015509)
(0.110538 4.35254e-05 0.00155401)
(0.112374 0.00017944 0.00141203)
(0.107048 0.000147645 0.00143638)
(0.110732 8.65745e-06 0.00147312)
(0.112647 0.000160211 0.00133258)
(0.10717 0.000132673 0.00134392)
(0.112924 0.000143205 0.00126787)
(0.107314 0.000119619 0.00127431)
(0.110814 0.000343235 0.00171126)
(0.111533 0.000441755 0.00130886)
(0.108402 0.000292974 0.0017423)
(0.111284 0.000334224 0.00173145)
(0.111996 0.00042449 0.00131454)
(0.108736 0.000239928 0.00178378)
(0.111763 0.000321421 0.00172177)
(0.112423 0.000413227 0.00132818)
(0.109069 0.00023117 0.00177423)
(0.112228 0.00031147 0.00167689)
(0.112891 0.000409571 0.0013181)
(0.109457 0.000249553 0.0017132)
(0.112671 0.000305726 0.00160729)
(0.113368 0.000411755 0.00128503)
(0.109846 0.000279469 0.00162167)
(0.113091 0.000302831 0.00152412)
(0.113828 0.000417743 0.00123737)
(0.110204 0.000313507 0.00151623)
(0.113491 0.00030108 0.00143618)
(0.114272 0.000424802 0.00118229)
(0.110541 0.000346079 0.00140771)
(0.113875 0.000299734 0.00134995)
(0.114702 0.00043126 0.00112428)
(0.110862 0.000375296 0.00130468)
(0.114247 0.000298577 0.00127006)
(0.115119 0.000436707 0.00106772)
(0.111171 0.000400976 0.00121224)
(0.114611 0.000297514 0.00119887)
(0.115526 0.000441356 0.00101525)
(0.111474 0.000422852 0.00113199)
(0.11497 0.000296692 0.00113775)
(0.115925 0.000445351 0.000968167)
(0.111774 0.000440978 0.00106353)
(0.116318 0.000448735 0.000927467)
(0.112074 0.000455876 0.00100816)
(0.112677 0.000514447 0.000927924)
(0.112878 0.000722466 0.000626147)
(0.110253 0.000481502 0.000883729)
(0.11312 0.000498599 0.000916707)
(0.113338 0.000703967 0.000609422)
(0.11067 0.000451998 0.000860547)
(0.11359 0.000501346 0.000918361)
(0.113774 0.000705636 0.000610167)
(0.111054 0.000474915 0.000863563)
(0.114074 0.000512395 0.00091522)
(0.114251 0.000713773 0.0006123)
(0.111501 0.000512154 0.000862495)
(0.114561 0.000527493 0.00090309)
(0.114747 0.000722565 0.000610972)
(0.111967 0.00055471 0.000852927)
(0.115044 0.000544238 0.00088355)
(0.115241 0.000731333 0.000606544)
(0.112421 0.000600097 0.00083727)
(0.115519 0.000560127 0.000858794)
(0.115728 0.000738893 0.00059931)
(0.112859 0.000643484 0.000816487)
(0.115984 0.000573791 0.000831168)
(0.116207 0.000743906 0.000589729)
(0.113281 0.000681266 0.000792578)
(0.116438 0.000585304 0.000802894)
(0.116676 0.000746392 0.000578832)
(0.113688 0.000713403 0.000768341)
(0.116881 0.000595159 0.000775466)
(0.117134 0.000747603 0.00056745)
(0.114081 0.000741287 0.000745387)
(0.117316 0.000603404 0.000749767)
(0.117581 0.000748349 0.000556105)
(0.114461 0.000765377 0.000723954)
(0.118021 0.000748557 0.000545185)
(0.114832 0.000785488 0.000704429)
(0.113502 0.000907017 0.000320866)
(0.112995 0.00112167 0.000104307)
(0.111411 0.000977929 0.000231574)
(0.113961 0.000908264 0.000311218)
(0.113493 0.00113351 0.000104012)
(0.111846 0.00100017 0.000188542)
(0.114441 0.000917355 0.000307824)
(0.113952 0.00115002 9.82505e-05)
(0.112253 0.00103157 0.000186277)
(0.114935 0.000924435 0.000308978)
(0.114448 0.00115571 9.79051e-05)
(0.112708 0.00105339 0.000199524)
(0.115433 0.000927611 0.000313644)
(0.114955 0.00114959 0.00010334)
(0.11318 0.00106734 0.000220696)
(0.11593 0.00092762 0.000320472)
(0.115453 0.00113526 0.000112678)
(0.113644 0.00107733 0.000247152)
(0.116422 0.000924485 0.000327925)
(0.11594 0.00111506 0.000124284)
(0.114096 0.00108378 0.000275483)
(0.116905 0.000918358 0.000334921)
(0.116416 0.0010902 0.000136811)
(0.114534 0.00108566 0.000302461)
(0.117377 0.000910502 0.000340948)
(0.116881 0.00106273 0.000149517)
(0.114958 0.00108367 0.000325961)
(0.117839 0.000902495 0.000345845)
(0.117334 0.00103646 0.000160524)
(0.115367 0.00108106 0.000346714)
(0.118292 0.000895036 0.000349627)
(0.117777 0.00101289 0.000170003)
(0.115763 0.0010792 0.000364519)
(0.118213 0.000992043 0.000178252)
(0.116149 0.00107794 0.000379276)
(0.112928 0.00135572 -0.00013113)
(0.111648 0.00152422 -0.000248305)
(0.111216 0.0015339 -0.000233858)
(0.113446 0.00137736 -0.000116598)
(0.112147 0.00155117 -0.000233688)
(0.111683 0.00160646 -0.000234456)
(0.113966 0.00138607 -0.000110233)
(0.112597 0.00156485 -0.000223019)
(0.112116 0.00164186 -0.000226272)
(0.114478 0.00137735 -0.000103624)
(0.113083 0.00154986 -0.000215076)
(0.112581 0.00164071 -0.000205723)
(0.114978 0.00135375 -9.32497e-05)
(0.113571 0.00151059 -0.000207201)
(0.113042 0.0016142 -0.000173291)
(0.115465 0.00131955 -7.94425e-05)
(0.114034 0.00145545 -0.000199127)
(0.113478 0.00157172 -0.000133301)
(0.115937 0.00127813 -6.33833e-05)
(0.114478 0.00139207 -0.000190848)
(0.113892 0.00152036 -8.87539e-05)
(0.116395 0.00123255 -4.60162e-05)
(0.114904 0.00132521 -0.000182038)
(0.114286 0.00146318 -4.44386e-05)
(0.11684 0.00118728 -2.92124e-05)
(0.115317 0.00125961 -0.00017294)
(0.114665 0.00140545 -3.7931e-06)
(0.117275 0.00114597 -1.43517e-05)
(0.115718 0.00119961 -0.000164737)
(0.115034 0.00135612 3.25162e-05)
(0.117701 0.00110944 -9.88827e-07)
(0.116113 0.00114697 -0.000157398)
(0.115393 0.00131385 6.47977e-05)
(0.116503 0.00110157 -0.000150445)
(0.115745 0.00127767 9.29739e-05)
(0.110814 0.00171102 -0.000342945)
(0.108403 0.00174198 -0.000292539)
(0.109141 0.00198393 -0.000484042)
(0.111284 0.00173117 -0.000334229)
(0.108737 0.00178333 -0.00023935)
(0.109619 0.00209537 -0.00046668)
(0.111763 0.00172151 -0.000322123)
(0.10907 0.00177395 -0.00023136)
(0.11004 0.00212754 -0.000427234)
(0.112228 0.00167665 -0.000312991)
(0.109458 0.00171298 -0.000250646)
(0.110474 0.00207482 -0.000381964)
(0.11267 0.00160705 -0.000307992)
(0.109845 0.00162139 -0.00028134)
(0.11087 0.001976 -0.000337922)
(0.11309 0.00152384 -0.000305651)
(0.110203 0.00151586 -0.000315974)
(0.111217 0.0018548 -0.000297873)
(0.113489 0.00143579 -0.000304201)
(0.110539 0.0014071 -0.000348782)
(0.11153 0.00173282 -0.000262398)
(0.113872 0.00134944 -0.000302953)
(0.110858 0.00130377 -0.00037803)
(0.111819 0.00161272 -0.000231572)
(0.114243 0.00126954 -0.00030178)
(0.111166 0.00121118 -0.000403614)
(0.112097 0.00150453 -0.000205001)
(0.114606 0.0011987 -0.000300756)
(0.111467 0.00113097 -0.000425371)
(0.11237 0.00141112 -0.000182589)
(0.114965 0.00113768 -0.000299686)
(0.111766 0.00106406 -0.000444005)
(0.112643 0.00133278 -0.000163917)
(0.112919 0.00126757 -0.000146447)
(0.106381 0.00176821 -0.000120565)
(0.100892 0.00141266 0.000372571)
(0.104534 0.00222005 -0.000282831)
(0.106611 0.00179561 -9.5514e-05)
(0.101221 0.00159143 0.000359625)
(0.104846 0.00236238 -0.000269979)
(0.106927 0.00175027 -0.000141314)
(0.101486 0.00161913 0.000191689)
(0.105127 0.00231709 -0.000253589)
(0.107243 0.00165179 -0.000210789)
(0.10178 0.00151592 2.01649e-05)
(0.105372 0.0021425 -0.000246415)
(0.107539 0.00153079 -0.000286921)
(0.102032 0.00138015 -0.000141882)
(0.105561 0.00193456 -0.000257069)
(0.107817 0.00140547 -0.000361823)
(0.102225 0.00124285 -0.00028697)
(0.105704 0.00173455 -0.000281209)
(0.108077 0.00128649 -0.000430099)
(0.102386 0.00111182 -0.000407081)
(0.105827 0.00155417 -0.000314065)
(0.108326 0.00118058 -0.00048946)
(0.102528 0.00100051 -0.000506276)
(0.105945 0.00139987 -0.000348135)
(0.108569 0.00109 -0.000539729)
(0.102655 0.000912113 -0.000587515)
(0.106068 0.00127115 -0.000380467)
(0.108809 0.001015 -0.00058175)
(0.102773 0.000842137 -0.000651968)
(0.106202 0.00116711 -0.000408551)
(0.102885 0.000788473 -0.000703247)
(0.10635 0.00108796 -0.000432588)
(0.0960082 0.00141508 0.000572344)
(0.0826526 0.000470336 0.00153417)
(0.094372 0.00223738 0.000437747)
(0.0964693 0.00155183 0.000430945)
(0.0833575 0.00101469 0.00111055)
(0.0945518 0.00246192 0.000397398)
(0.0968295 0.00146456 0.00023427)
(0.0838831 0.00106743 0.00071825)
(0.0946205 0.00217925 0.000250223)
(0.0970546 0.00129484 2.61206e-05)
(0.0841757 0.000950324 0.000353554)
(0.0945633 0.00177336 9.00887e-05)
(0.0971938 0.0011259 -0.000170234)
(0.0842236 0.000831403 4.09309e-05)
(0.0944252 0.00143352 -6.12186e-05)
(0.0972788 0.000968461 -0.000332237)
(0.0841214 0.000733615 -0.000209588)
(0.0942687 0.00116781 -0.000195302)
(0.0973314 0.000832356 -0.000459899)
(0.0839274 0.000649493 -0.00040224)
(0.0941237 0.000960999 -0.000306643)
(0.0973619 0.000728211 -0.000563287)
(0.083671 0.000588406 -0.000537482)
(0.0939942 0.000807476 -0.000398043)
(0.0973749 0.000652387 -0.000646011)
(0.0833728 0.000548526 -0.000628408)
(0.0938791 0.000698196 -0.000471516)
(0.0973747 0.000597497 -0.000710568)
(0.0830462 0.000522782 -0.000692948)
(0.093774 0.000618822 -0.000526662)
(0.082697 0.000505633 -0.000738052)
(0.0936779 0.000565063 -0.000567826)
(0.0713536 -6.71827e-05 0.00227499)
(0.0674611 0.000341937 0.00243706)
(0.0723415 0.000408682 0.00158547)
(0.0683562 0.00116002 0.00184248)
(0.0728117 0.000493206 0.000955212)
(0.0686301 0.000942736 0.00117095)
(0.0728759 0.000453188 0.000458)
(0.0683571 0.000608794 0.000611835)
(0.0726969 0.000421921 6.94954e-05)
(0.0678229 0.000455571 0.000188084)
(0.0723492 0.000409325 -0.000231181)
(0.0672331 0.000386246 -0.000116577)
(0.0718812 0.000409718 -0.000450026)
(0.0666234 0.000349639 -0.000335203)
(0.0713332 0.000420147 -0.000589997)