/*--------------------------------*- C++ -*----------------------------------*\
| =========                 |                                                 |
| \\      /  F ield         | OpenFOAM: The Open Source CFD Toolbox           |
|  \\    /   O peration     | Version:  2212                                  |
|   \\  /    A nd           | Website:  www.openfoam.com                      |
|    \\/     M anipulation  |                                                 |
\*---------------------------------------------------------------------------*/
FoamFile
{
    version     2.0;
    format      ascii;
    arch        "LSB;label=32;scalar=64";
    class       volScalarField;
    location    "0.4";
    object      epsilon;
}
// * * * * * * * * * * * * * * * * * * * * * * * * * * * * * * * * * * * * * //

dimensions      [0 2 -3 0 0 0 0];

internalField   nonuniform List<scalar> 
6840
(
90.5034
12.1248
4.38869
2.46654
1.6332
1.18325
0.902073
0.721121
0.595425
0.503764
0.435106
0.38267
0.342066
0.309205
0.283585
0.263684
0.247845
0.235618
0.228536
0.225226
58.5856
14.5696
6.08948
3.33305
2.0824
1.40314
0.99954
0.741771
0.568184
0.447524
0.361112
0.29786
0.250816
0.215278
0.18836
0.167837
0.152087
0.13963
0.12994
0.121921
45.0226
13.4729
5.73076
3.07328
1.86028
1.22721
0.874049
0.650616
0.498331
0.391842
0.314592
0.257452
0.214853
0.18288
0.158597
0.139996
0.12557
0.114252
0.105345
0.0988588
38.7028
13.0541
5.74336
3.08737
1.88071
1.22772
0.869955
0.646218
0.493888
0.387035
0.31032
0.253357
0.210588
0.178148
0.153326
0.134182
0.119301
0.107639
0.0984543
0.0919665
36.0571
12.8529
5.76645
3.10215
1.89479
1.22689
0.86696
0.644774
0.493487
0.385964
0.30909
0.252095
0.209267
0.176734
0.15179
0.132515
0.117514
0.105766
0.0966151
0.090792
36.0571
12.8529
5.76646
3.10216
1.8948
1.2269
0.866968
0.644784
0.4935
0.385981
0.309115
0.252127
0.209311
0.176794
0.151876
0.132637
0.11769
0.106017
0.0969439
0.0908377
38.7028
13.0541
5.74337
3.08738
1.88072
1.22773
0.869973
0.646242
0.493918
0.387077
0.310374
0.25343
0.21069
0.178297
0.153537
0.134487
0.119752
0.108331
0.0994903
0.0931306
45.0226
13.4729
5.73076
3.07329
1.86029
1.22723
0.874066
0.650638
0.49836
0.39189
0.314653
0.257534
0.214967
0.183043
0.158824
0.140353
0.12613
0.11516
0.106891
0.101341
58.5856
14.5696
6.08948
3.33306
2.0824
1.40314
0.999545
0.741777
0.568193
0.447542
0.361138
0.297898
0.250877
0.215377
0.188511
0.168156
0.152615
0.140734
0.132416
0.127243
90.5034
12.1248
4.38869
2.46654
1.6332
1.18325
0.902072
0.721123
0.595423
0.503764
0.43511
0.38267
0.342065
0.309204
0.283585
0.263686
0.247849
0.235622
0.228542
0.225231
58.5856
14.5696
6.08948
3.33306
2.0824
1.40314
0.999544
0.741776
0.568192
0.447541
0.361138
0.297898
0.250877
0.215376
0.188509
0.168152
0.152611
0.140729
0.132412
0.127238
16.5373
9.49239
5.01271
2.86063
1.75754
1.14776
0.787231
0.562574
0.416213
0.31724
0.248231
0.198885
0.162862
0.136123
0.116182
0.101128
0.0886218
0.0805505
0.0748129
0.0709033
13.6679
8.73671
5.07741
3.05389
1.92228
1.2662
0.869503
0.61901
0.454581
0.343014
0.265093
0.209347
0.168672
0.138472
0.115646
0.0982299
0.0847718
0.0745721
0.0667995
0.0608543
12.9054
8.33993
5.07879
3.15548
2.02778
1.35129
0.933717
0.666779
0.490073
0.369431
0.284842
0.224126
0.179689
0.146645
0.121734
0.102742
0.0881321
0.0768093
0.06792
0.060913
12.6882
8.1544
5.07113
3.20039
2.07942
1.39514
0.967998
0.69302
0.510127
0.384788
0.296665
0.233281
0.186809
0.152187
0.126046
0.106084
0.0907047
0.0787686
0.0694529
0.0622326
12.6882
8.1544
5.07113
3.2004
2.07943
1.39514
0.968004
0.693026
0.510135
0.384798
0.296678
0.233297
0.186829
0.152215
0.126077
0.106118
0.0907425
0.0788094
0.0694881
0.062267
12.9054
8.33993
5.07879
3.15548
2.02779
1.3513
0.933729
0.666793
0.490089
0.369452
0.284867
0.224158
0.17973
0.146681
0.121787
0.102809
0.0882081
0.0768827
0.0679358
0.0611255
13.6679
8.73671
5.07741
3.0539
1.92228
1.26621
0.869511
0.619019
0.454593
0.343029
0.265111
0.209371
0.168702
0.138509
0.115688
0.0982789
0.0848248
0.0746243
0.0665747
0.0622442
16.5373
9.49239
5.01271
2.86063
1.75754
1.14776
0.787231
0.562574
0.416213
0.31724
0.248232
0.198885
0.162863
0.136124
0.116183
0.101128
0.0886218
0.0805514
0.074813
0.0709034
58.5856
14.5696
6.08948
3.33305
2.0824
1.40314
0.99954
0.74177
0.568184
0.447524
0.361112
0.29786
0.250816
0.215277
0.18836
0.167838
0.152088
0.139633
0.129942
0.121924
45.0226
13.4729
5.73076
3.07329
1.86029
1.22723
0.874065
0.650637
0.49836
0.391889
0.314652
0.257534
0.214966
0.183041
0.158821
0.140348
0.126125
0.115155
0.106886
0.101335
13.6679
8.73671
5.07741
3.0539
1.92228
1.26621
0.869511
0.619019
0.454592
0.343029
0.265111
0.20937
0.1687
0.138507
0.115688
0.0982798
0.0848256
0.0746248
0.0665749
0.0622502
11.8601
7.76395
4.99734
3.24077
2.14422
1.45506
1.01424
0.725881
0.532571
0.399813
0.306549
0.239672
0.19084
0.154617
0.127369
0.106622
0.090688
0.0783878
0.0687775
0.0615368
11.6229
7.60535
5.01031
3.3421
2.2685
1.57147
1.11245
0.804769
0.594517
0.448029
0.344
0.268794
0.213537
0.172354
0.141266
0.117531
0.0992542
0.0850766
0.0740059
0.0653698
11.5726
7.56718
5.02065
3.38345
2.32104
1.6233
1.15837
0.843313
0.625965
0.473303
0.364193
0.284904
0.2264
0.182644
0.149515
0.124159
0.104587
0.0893686
0.0774658
0.0681212
11.5726
7.56718
5.02065
3.38345
2.32105
1.6233
1.15837
0.843318
0.625971
0.47331
0.364201
0.284915
0.226415
0.182666
0.14954
0.124183
0.104613
0.0893957
0.0774912
0.0681494
11.6229
7.60535
5.01031
3.3421
2.2685
1.57147
1.11246
0.804776
0.594526
0.448041
0.344015
0.268814
0.213568
0.172389
0.141295
0.117566
0.0992946
0.0851207
0.0740501
0.0654429
11.8601
7.76395
4.99734
3.24077
2.14422
1.45506
1.01424
0.725881
0.532571
0.399813
0.30655
0.239674
0.190846
0.154624
0.127366
0.106618
0.090684
0.078384
0.0687734
0.0615271
13.6679
8.73671
5.07741
3.05389
1.92228
1.2662
0.869503
0.61901
0.454581
0.343015
0.265093
0.209348
0.168674
0.138475
0.115646
0.0982279
0.0847695
0.0745702
0.0667979
0.0608515
45.0226
13.4729
5.73076
3.07328
1.86028
1.22721
0.874049
0.650616
0.498331
0.391842
0.314592
0.257452
0.214852
0.182878
0.158596
0.139995
0.125571
0.114254
0.105347
0.0988601
38.7028
13.0541
5.74337
3.08738
1.88072
1.22773
0.869972
0.646241
0.493917
0.387076
0.310374
0.25343
0.210689
0.17829
0.15353
0.13448
0.119747
0.108326
0.0994862
0.0931264
12.9054
8.33993
5.07879
3.15548
2.02779
1.3513
0.933728
0.666792
0.490089
0.369451
0.284867
0.224157
0.179729
0.146692
0.121792
0.102811
0.088209
0.0768833
0.0679365
0.0611279
11.6229
7.60535
5.01031
3.3421
2.2685
1.57147
1.11246
0.804776
0.594526
0.44804
0.344014
0.268811
0.213559
0.17238
0.141298
0.117569
0.0992979
0.0851242
0.0740551
0.0654568
11.4932
7.51189
5.02843
3.434
2.38921
1.69282
1.22117
0.8966
0.669664
0.508478
0.392228
0.307159
0.24406
0.196681
0.160702
0.133098
0.111752
0.095126
0.0820933
0.0718043
11.4757
7.50135
5.04297
3.47001
2.43665
1.743
1.26867
0.938796
0.705747
0.538627
0.417077
0.327483
0.260623
0.210166
0.171682
0.142047
0.119056
0.101097
0.086967
0.0756947
11.4757
7.50135
5.04297
3.47001
2.43665
1.743
1.26867
0.938797
0.705749
0.53863
0.41708
0.327488
0.260631
0.210178
0.171694
0.142055
0.119063
0.101103
0.086975
0.0757255
11.4932
7.51189
5.02843
3.434
2.38921
1.69282
1.22117
0.8966
0.669664
0.508479
0.39223
0.307164
0.244074
0.196693
0.160697
0.133093
0.111746
0.09512
0.0820854
0.0717863
11.6229
7.60535
5.01031
3.3421
2.2685
1.57147
1.11246
0.804769
0.594518
0.448029
0.344001
0.268797
0.213547
0.172361
0.14126
0.117524
0.0992473
0.0850702
0.0739991
0.065356
12.9054
8.33993
5.07879
3.15548
2.02778
1.35129
0.933717
0.666779
0.490073
0.369431
0.284842
0.224127
0.179692
0.146648
0.121732
0.102739
0.0881284
0.0768059
0.0679172
0.0609074
38.7028
13.0541
5.74336
3.08737
1.88071
1.22772
0.869954
0.646218
0.493887
0.387035
0.31032
0.253357
0.210587
0.178147
0.153325
0.134182
0.119302
0.10764
0.0984564
0.0919674
36.0571
12.8529
5.76645
3.10216
1.8948
1.2269
0.866967
0.644783
0.493499
0.385981
0.309114
0.252127
0.209311
0.176796
0.151878
0.132639
0.117692
0.106018
0.0969443
0.0908376
12.6882
8.1544
5.07113
3.2004
2.07943
1.39514
0.968004
0.693026
0.510135
0.384798
0.296677
0.233296
0.186827
0.152208
0.126072
0.106115
0.0907413
0.078809
0.0694884
0.0622683
11.5726
7.56718
5.02065
3.38345
2.32105
1.6233
1.15837
0.843317
0.625971
0.473309
0.364201
0.284913
0.226412
0.182658
0.149532
0.124179
0.104611
0.0893958
0.0774937
0.0681586
11.4757
7.50135
5.04297
3.47001
2.43665
1.743
1.26867
0.938797
0.705749
0.538629
0.417079
0.327486
0.260626
0.210168
0.171685
0.142052
0.119062
0.101104
0.0869801
0.0757418
11.4647
7.49683
5.05769
3.50271
2.48036
1.79068
1.31524
0.981355
0.743041
0.570436
0.443744
0.349605
0.278863
0.225161
0.183997
0.152163
0.127374
0.107943
0.092592
0.0802383
11.4647
7.49683
5.05769
3.50271
2.48036
1.79068
1.31524
0.981356
0.743041
0.570436
0.443745
0.349607
0.278868
0.225169
0.184003
0.152165
0.127374
0.107942
0.0925889
0.0802308
11.4757
7.50135
5.04297
3.47001
2.43665
1.743
1.26867
0.938796
0.705748
0.538629
0.417079
0.32749
0.260639
0.210176
0.171673
0.142038
0.119049
0.10109
0.0869604
0.0756857
11.5726
7.56718
5.02065
3.38345
2.32104
1.6233
1.15837
0.843314
0.625966
0.473303
0.364194
0.284908
0.22641
0.18265
0.149506
0.124149
0.104577
0.0893606
0.0774588
0.0681119
12.6882
8.1544
5.07113
3.20039
2.07942
1.39514
0.967998
0.69302
0.510127
0.384788
0.296666
0.233283
0.186812
0.15219
0.126042
0.106079
0.0906998
0.0787644
0.0694495
0.0622286
36.0571
12.8529
5.76645
3.10216
1.89479
1.22689
0.86696
0.644773
0.493487
0.385964
0.30909
0.252095
0.209267
0.176733
0.15179
0.132516
0.117516
0.105769
0.0966178
0.0907951
36.0571
12.8529
5.76645
3.10215
1.89479
1.22689
0.86696
0.644773
0.493487
0.385964
0.30909
0.252095
0.209268
0.176735
0.151791
0.132516
0.117515
0.105768
0.0966161
0.0907927
12.6882
8.1544
5.07113
3.20039
2.07942
1.39514
0.967998
0.69302
0.510127
0.384788
0.296665
0.233281
0.186809
0.152186
0.126044
0.106083
0.090704
0.0787683
0.0694529
0.0622326
11.5726
7.56718
5.02065
3.38345
2.32104
1.6233
1.15837
0.843313
0.625965
0.473303
0.364192
0.284903
0.226399
0.182642
0.149513
0.124157
0.104585
0.0893679
0.0774659
0.0681224
11.4757
7.50135
5.04297
3.47001
2.43665
1.743
1.26867
0.938796
0.705747
0.538627
0.417077
0.327483
0.260622
0.210164
0.17168
0.142045
0.119055
0.101096
0.0869682
0.0757
11.4647
7.49683
5.05769
3.50271
2.48036
1.79068
1.31524
0.981356
0.743041
0.570436
0.443744
0.349605
0.278863
0.225161
0.183997
0.152163
0.127374
0.107943
0.0925921
0.0802391
11.4647
7.49683
5.05769
3.50271
2.48036
1.79068
1.31524
0.981356
0.743041
0.570436
0.443745
0.349607
0.278868
0.22517
0.184004
0.152165
0.127374
0.107942
0.0925903
0.0802365
11.4757
7.50135
5.04297
3.47001
2.43665
1.743
1.26867
0.938797
0.705749
0.53863
0.417082
0.327493
0.260643
0.210181
0.171679
0.142045
0.119055
0.101098
0.0869724
0.075729
11.5726
7.56718
5.02065
3.38345
2.32105
1.62331
1.15837
0.843318
0.625971
0.47331
0.364203
0.284918
0.226423
0.182666
0.149525
0.124171
0.104603
0.0893882
0.077486
0.0681467
12.6882
8.1544
5.07113
3.2004
2.07943
1.39514
0.968004
0.693027
0.510135
0.384798
0.296678
0.233298
0.186831
0.152213
0.126069
0.106111
0.090737
0.078805
0.0694849
0.062264
36.0571
12.8529
5.76646
3.10216
1.8948
1.2269
0.866967
0.644783
0.4935
0.385981
0.309115
0.252128
0.209311
0.176795
0.151877
0.132639
0.117692
0.106019
0.0969464
0.0908407
38.7028
13.0541
5.74336
3.08737
1.88071
1.22772
0.869955
0.646218
0.493888
0.387035
0.31032
0.253357
0.210588
0.178148
0.153326
0.134183
0.119302
0.107639
0.0984549
0.0919653
12.9054
8.33993
5.07879
3.15548
2.02778
1.35129
0.933717
0.666779
0.490073
0.369431
0.284842
0.224126
0.179689
0.146645
0.121734
0.102742
0.0881319
0.0768091
0.0679198
0.0609105
11.6229
7.60535
5.01031
3.3421
2.2685
1.57147
1.11245
0.804769
0.594517
0.448029
0.344
0.268794
0.213537
0.172354
0.141266
0.117531
0.0992534
0.0850757
0.0740042
0.0653623
11.4932
7.51189
5.02843
3.434
2.38921
1.69282
1.22117
0.8966
0.669664
0.508478
0.392229
0.307159
0.24406
0.196682
0.160703
0.133098
0.111751
0.0951248
0.0820903
0.071793
11.4757
7.50135
5.04297
3.47001
2.43665
1.743
1.26867
0.938797
0.705749
0.53863
0.41708
0.327487
0.260628
0.21017
0.171688
0.142053
0.119063
0.101104
0.0869766
0.0757296
11.4757
7.50135
5.04297
3.47001
2.43665
1.743
1.26867
0.938795
0.705747
0.538628
0.417078
0.327486
0.260628
0.210174
0.171689
0.142049
0.119056
0.101095
0.0869653
0.0756935
11.4932
7.51189
5.02843
3.434
2.38921
1.69283
1.22117
0.896599
0.669664
0.508479
0.39223
0.307165
0.244074
0.196694
0.160697
0.133092
0.111745
0.0951194
0.0820864
0.0717929
11.6229
7.60535
5.01031
3.3421
2.2685
1.57147
1.11246
0.804775
0.594526
0.44804
0.344015
0.268815
0.213568
0.172388
0.141292
0.117562
0.0992905
0.085117
0.0740478
0.0654438
12.9054
8.33993
5.07879
3.15548
2.02779
1.3513
0.933728
0.666792
0.490089
0.369452
0.284867
0.224159
0.179732
0.146696
0.12179
0.102807
0.0882052
0.0768795
0.0679333
0.0611236
38.7028
13.0541
5.74337
3.08738
1.88072
1.22773
0.869974
0.646243
0.493918
0.387077
0.310375
0.253431
0.210689
0.17829
0.15353
0.134481
0.119748
0.108328
0.0994894
0.0931316
45.0226
13.4729
5.73076
3.07328
1.86028
1.22721
0.874049
0.650616
0.498332
0.391842
0.314592
0.257452
0.214853
0.18288
0.158598
0.139996
0.125571
0.114253
0.105346
0.0988583
13.6679
8.73671
5.07741
3.05389
1.92228
1.2662
0.869504
0.61901
0.454582
0.343015
0.265093
0.209347
0.168672
0.138472
0.115647
0.09823
0.0847716
0.0745718
0.0667992
0.0608528
11.8601
7.76395
4.99734
3.24077
2.14422
1.45506
1.01424
0.725881
0.532571
0.399813
0.306549
0.239672
0.19084
0.154618
0.12737
0.106622
0.0906872
0.0783867
0.0687756
0.0615293
11.6229
7.60535
5.01031
3.3421
2.2685
1.57147
1.11246
0.804776
0.594526
0.44804
0.344014
0.268811
0.213559
0.172381
0.141299
0.117569
0.0992969
0.0851225
0.0740517
0.0654441
11.5726
7.56718
5.02065
3.38345
2.32105
1.62331
1.15837
0.843318
0.625971
0.47331
0.364201
0.284914
0.226413
0.18266
0.149535
0.12418
0.104611
0.0893943
0.0774903
0.0681479
11.5726
7.56718
5.02065
3.38345
2.32104
1.6233
1.15837
0.843312
0.625965
0.473303
0.364193
0.284905
0.226403
0.18265
0.149521
0.124159
0.104585
0.0893659
0.0774626
0.0681151
11.6229
7.60535
5.01031
3.3421
2.2685
1.57147
1.11246
0.804768
0.594517
0.448029
0.344001
0.268797
0.213547
0.172362
0.141261
0.117526
0.0992484
0.085071
0.074
0.0653577
11.8601
7.76395
4.99734
3.24077
2.14422
1.45506
1.01424
0.72588
0.532571
0.399813
0.306549
0.239674
0.190846
0.154623
0.127365
0.106617
0.0906824
0.0783824
0.0687721
0.0615267
13.6679
8.73671
5.07741
3.0539
1.92228
1.26621
0.869511
0.619019
0.454593
0.343029
0.265112
0.209371
0.168702
0.13851
0.115688
0.0982773
0.0848228
0.0746223
0.0665731
0.0622436
45.0226
13.4729
5.73076
3.07329
1.86029
1.22723
0.874066
0.650638
0.498361
0.391891
0.314654
0.257535
0.214966
0.18304
0.158821
0.140349
0.126127
0.115158
0.106891
0.101342
58.5856
14.5696
6.08948
3.33305
2.0824
1.40314
0.99954
0.741771
0.568184
0.447524
0.361113
0.29786
0.250816
0.215278
0.18836
0.167838
0.152088
0.139631
0.12994
0.121922
16.5373
9.49239
5.01271
2.86063
1.75754
1.14776
0.787231
0.562574
0.416213
0.31724
0.248231
0.198885
0.162863
0.136123
0.116183
0.101129
0.0886217
0.0805503
0.0748125
0.0709027
13.6679
8.73671
5.07741
3.0539
1.92228
1.26621
0.869511
0.619019
0.454593
0.343029
0.265111
0.20937
0.1687
0.138507
0.115689
0.0982796
0.084825
0.0746239
0.0665746
0.0622434
12.9054
8.33993
5.07879
3.15548
2.02779
1.3513
0.933729
0.666793
0.490089
0.369451
0.284867
0.224158
0.179729
0.146693
0.121793
0.10281
0.088208
0.0768819
0.0679351
0.0611243
12.6882
8.1544
5.07113
3.2004
2.07943
1.39514
0.968004
0.693027
0.510135
0.384798
0.296678
0.233297
0.186828
0.15221
0.126073
0.106115
0.0907403
0.0788075
0.0694866
0.062265
12.6882
8.1544
5.07113
3.20039
2.07942
1.39514
0.967998
0.69302
0.510127
0.384788
0.296666
0.233282
0.186811
0.152193
0.12605
0.106084
0.0907032
0.0787667
0.0694511
0.0622296
12.9054
8.33993
5.07879
3.15548
2.02778
1.35129
0.933718
0.666779
0.490073
0.369431
0.284842
0.224127
0.17969
0.146634
0.121728
0.102738
0.0881292
0.076807
0.0679181
0.0609082
13.6679
8.73671
5.07741
3.05389
1.92228
1.2662
0.869504
0.61901
0.454581
0.343015
0.265093
0.209348
0.168674
0.138474
0.115645
0.0982277
0.0847697
0.0745706
0.0667984
0.0608521
16.5373
9.49239
5.01271
2.86063
1.75754
1.14776
0.787232
0.562574
0.416213
0.31724
0.248232
0.198886
0.162864
0.136125
0.116183
0.101128
0.0886217
0.0805514
0.0748132
0.0709042
58.5856
14.5696
6.08948
3.33306
2.0824
1.40314
0.999545
0.741777
0.568194
0.447543
0.361139
0.2979
0.250878
0.215377
0.18851
0.168155
0.152614
0.140734
0.132418
0.127246
90.5034
12.1248
4.38869
2.46654
1.6332
1.18325
0.902073
0.721121
0.595425
0.503764
0.435106
0.382671
0.342066
0.309205
0.283585
0.263685
0.247847
0.23562
0.228539
0.225228
58.5856
14.5696
6.08948
3.33306
2.0824
1.40314
0.999545
0.741777
0.568192
0.447541
0.361138
0.297898
0.250877
0.215377
0.188509
0.168153
0.152612
0.14073
0.132414
0.12724
45.0226
13.4729
5.73076
3.07329
1.86029
1.22723
0.874065
0.650637
0.49836
0.39189
0.314653
0.257534
0.214966
0.183041
0.158821
0.140349
0.126125
0.115156
0.106888
0.101339
38.7028
13.0541
5.74337
3.08738
1.88072
1.22773
0.869973
0.646241
0.493918
0.387077
0.310374
0.253431
0.210689
0.178291
0.15353
0.134481
0.119747
0.108327
0.0994873
0.0931295
36.0571
12.8529
5.76646
3.10216
1.8948
1.2269
0.866968
0.644784
0.4935
0.385982
0.309115
0.252128
0.209312
0.176796
0.151877
0.132639
0.117691
0.106018
0.0969448
0.0908391
36.0571
12.8529
5.76645
3.10216
1.89479
1.22689
0.866961
0.644775
0.493488
0.385965
0.309091
0.252096
0.209268
0.176733
0.15179
0.132515
0.117515
0.105768
0.0966171
0.0907945
38.7028
13.0541
5.74336
3.08737
1.88071
1.22772
0.869955
0.646219
0.493888
0.387036
0.310321
0.253358
0.210589
0.178155
0.153334
0.13419
0.119308
0.107645
0.0984599
0.0919697
45.0226
13.4729
5.73076
3.07328
1.86029
1.22721
0.87405
0.650616
0.498332
0.391843
0.314593
0.257453
0.214854
0.182883
0.158602
0.140002
0.125577
0.114259
0.105351
0.0988635
58.5856
14.5696
6.08948
3.33306
2.0824
1.40314
0.999541
0.741771
0.568186
0.447526
0.361114
0.297862
0.250818
0.21528
0.188363
0.167843
0.152093
0.139637
0.129946
0.121928
90.5034
12.1248
4.38869
2.46654
1.6332
1.18325
0.902072
0.721123
0.595424
0.503764
0.435111
0.382671
0.342066
0.309206
0.283587
0.263688
0.247851
0.235625
0.228545
0.225236
0.363235
0.298806
0.260912
0.246084
0.238922
0.236213
0.23484
0.233988
0.233463
0.233149
0.232999
0.232954
0.232973
0.233037
0.23313
0.233246
0.233377
0.233514
0.233651
0.233783
0.233906
0.234017
0.234113
0.234191
0.234251
0.234299
0.234336
0.234368
0.234393
0.23441
0.234419
0.234422
0.234422
0.23444
0.234365
0.234406
0.234419
0.23443
0.23444
0.234449
0.162972
0.138116
0.126081
0.120906
0.117983
0.116465
0.11563
0.115133
0.1148
0.11459
0.114481
0.114426
0.114416
0.114443
0.1145
0.114579
0.114672
0.114774
0.114879
0.114981
0.115076
0.11516
0.11523
0.115284
0.115327
0.115365
0.115398
0.115425
0.115443
0.115453
0.115459
0.115465
0.11547
0.115464
0.115418
0.115451
0.115468
0.115479
0.11549
0.115503
0.121806
0.107217
0.0985667
0.0935096
0.090451
0.0885597
0.0873441
0.0865394
0.0859988
0.0856422
0.0854103
0.0852656
0.0851903
0.0851627
0.0851725
0.0852102
0.0852675
0.0853371
0.0854126
0.0854889
0.0855617
0.0856266
0.085679
0.0857187
0.0857521
0.0857828
0.0858106
0.0858335
0.0858481
0.0858552
0.0858611
0.0858682
0.0858765
0.0858863
0.0859043
0.0858994
0.0858951
0.0858963
0.0859028
0.0859123
0.102157
0.0931348
0.0870897
0.0829527
0.0800846
0.0780917
0.0767076
0.0757492
0.0750864
0.0746365
0.0743332
0.0741355
0.0740115
0.073951
0.0739353
0.0739527
0.0739936
0.0740497
0.0741143
0.0741817
0.0742469
0.0743049
0.0743497
0.0743829
0.0744128
0.0744416
0.0744685
0.0744907
0.0745037
0.0745102
0.0745168
0.0745257
0.0745353
0.0745412
0.074535
0.0745347
0.0745397
0.0745484
0.0745603
0.0745729
0.0916485
0.0859099
0.0813811
0.0779096
0.0752984
0.0733618
0.0719434
0.0709184
0.0701878
0.0696757
0.0693241
0.0690887
0.0689429
0.0688552
0.0688239
0.0688285
0.0688583
0.0689051
0.068962
0.0690231
0.0690831
0.0691359
0.0691739
0.0691997
0.0692255
0.0692524
0.0692791
0.0693014
0.0693139
0.0693204
0.0693279
0.069338
0.0693491
0.0693572
0.0693608
0.0693641
0.0693648
0.06937
0.0693789
0.0693891
0.0897994
0.0842729
0.0799287
0.0765947
0.074057
0.0721369
0.0707063
0.0696572
0.0689009
0.0683653
0.0679908
0.0677371
0.0675677
0.0674692
0.0674242
0.0674198
0.0674428
0.0674842
0.067537
0.067595
0.0676525
0.0677036
0.0677413
0.0677707
0.0678012
0.0678326
0.0678627
0.0678867
0.0678999
0.0679067
0.0679148
0.0679254
0.0679368
0.0679449
0.0679448
0.0679444
0.0679466
0.0679515
0.0679613
0.0679721
0.097243
0.0884679
0.0826201
0.0785785
0.0757286
0.0737038
0.0722595
0.0712327
0.070507
0.0699993
0.0696458
0.0694051
0.0692461
0.0691571
0.0691195
0.0691206
0.0691477
0.0691924
0.0692478
0.0693077
0.069367
0.0694201
0.0694604
0.0694923
0.0695244
0.0695564
0.0695861
0.0696098
0.0696222
0.0696281
0.0696359
0.0696462
0.0696572
0.0696643
0.0696622
0.0696576
0.0696565
0.0696614
0.0696718
0.0696837
0.104903
0.0932349
0.0866814
0.082561
0.0798686
0.0780481
0.0768064
0.07595
0.0753552
0.0749441
0.0746596
0.0744591
0.0743389
0.0742827
0.0742715
0.0742911
0.0743327
0.0743888
0.0744531
0.0745201
0.074585
0.0746433
0.0746899
0.0747265
0.0747602
0.074792
0.0748209
0.0748441
0.0748575
0.0748635
0.07487
0.0748786
0.0748882
0.0748939
0.0748912
0.0748795
0.0748737
0.0748766
0.0748883
0.0749032
0.109134
0.100794
0.0947501
0.0912559
0.0892471
0.0880112
0.0872018
0.0866484
0.0862619
0.0859999
0.0858096
0.0857201
0.0856618
0.0856429
0.0856567
0.0856966
0.0857555
0.0858266
0.0859037
0.0859814
0.0860555
0.0861219
0.0861766
0.0862188
0.0862549
0.0862879
0.0863174
0.0863414
0.0863565
0.0863632
0.0863687
0.0863751
0.0863821
0.0863853
0.0863763
0.0863373
0.0863248
0.0863384
0.0863602
0.086383
0.136725
0.122212
0.117143
0.115117
0.114583
0.114474
0.114428
0.114356
0.114285
0.114228
0.114196
0.114198
0.114223
0.11427
0.114338
0.114422
0.114519
0.114623
0.114729
0.114831
0.114927
0.115012
0.115083
0.115138
0.115183
0.115222
0.115257
0.115285
0.115304
0.115313
0.115319
0.115324
0.11533
0.115331
0.115318
0.115273
0.115251
0.115264
0.115289
0.115319
0.363238
0.298803
0.260886
0.245995
0.238828
0.236158
0.23482
0.234001
0.233491
0.233177
0.23302
0.232975
0.23299
0.23305
0.233139
0.233251
0.233379
0.233514
0.233649
0.23378
0.233902
0.234012
0.234109
0.234187
0.234249
0.234298
0.234337
0.23437
0.234396
0.234413
0.234422
0.234425
0.234427
0.234422
0.234433
0.234389
0.234362
0.234366
0.234386
0.234413
0.136725
0.122225
0.117161
0.115199
0.114632
0.114491
0.114418
0.114339
0.114266
0.114212
0.114187
0.114187
0.11421
0.114259
0.114328
0.114415
0.114514
0.114619
0.114726
0.114829
0.114926
0.115011
0.115083
0.115138
0.115182
0.115221
0.115254
0.115282
0.115302
0.115311
0.115317
0.115322
0.115325
0.115313
0.11525
0.115275
0.11529
0.115304
0.115322
0.11534
0.0781828
0.0676694
0.0621683
0.0593267
0.0580641
0.0572677
0.0567453
0.0563888
0.0561241
0.0559353
0.0558105
0.0557305
0.0557039
0.0556859
0.0556863
0.0557014
0.0557292
0.0557646
0.0558057
0.0558499
0.0558947
0.0559388
0.0559814
0.0560262
0.0560552
0.0560755
0.056092
0.0561074
0.0561237
0.0561445
0.0561509
0.0561536
0.0561555
0.0561732
0.0564093
0.0561463
0.0561654
0.0561679
0.0561656
0.0561651
0.0678548
0.0583698
0.0522328
0.0489744
0.046866
0.0455605
0.0445785
0.0439249
0.0434519
0.0431149
0.0428806
0.0427303
0.0426419
0.0425829
0.0425571
0.0425439
0.0425445
0.042556
0.0425781
0.0426065
0.0426389
0.0426757
0.0427207
0.0427698
0.0427945
0.0428101
0.0428226
0.0428368
0.0428594
0.0428894
0.042893
0.0428948
0.0428928
0.0428922
0.0428676
0.0429205
0.042924
0.0429198
0.0429056
0.0428991
0.0629011
0.0556034
0.0500722
0.0468105
0.0443913
0.0426121
0.0413031
0.0403333
0.0396237
0.0390939
0.0387251
0.0384915
0.0383324
0.0382249
0.0381592
0.0381119
0.0380973
0.0380941
0.0381032
0.0381215
0.0381478
0.038185
0.0382489
0.0383155
0.0383248
0.0383346
0.0383392
0.0383511
0.0383897
0.0384335
0.0384287
0.0384187
0.0384093
0.0384132
0.0384585
0.038467
0.0384612
0.0384426
0.0384253
0.038406
0.0593029
0.0534217
0.0488055
0.0458692
0.0435103
0.0416572
0.0402232
0.0391271
0.0382997
0.0376831
0.0372434
0.0369463
0.0367567
0.036592
0.0364747
0.0363972
0.0363405
0.0363287
0.0363281
0.0363391
0.0363619
0.0364035
0.0364958
0.0365939
0.036598
0.0365945
0.0365908
0.036601
0.0366503
0.0367031
0.0366898
0.0366735
0.0366595
0.0366588
0.0366847
0.0367061
0.0367094
0.0366949
0.0366756
0.0366586
0.0569661
0.0522062
0.0484922
0.0456369
0.0433
0.0414345
0.0399752
0.0388478
0.0379879
0.0373428
0.0368746
0.0365716
0.036375
0.0361975
0.0360821
0.0360074
0.0359348
0.0359166
0.035911
0.0359182
0.0359381
0.035978
0.0360697
0.0361515
0.0361429
0.0361256
0.0361238
0.0361348
0.0361898
0.0362466
0.0362296
0.0362106
0.0361964
0.0361984
0.0362464
0.0362969
0.0362743
0.0362468
0.0362199
0.0361994
0.0572747
0.0527441
0.0490403
0.0460433
0.043671
0.0418239
0.040398
0.039307
0.0384829
0.0378685
0.0374357
0.0371384
0.0369695
0.036792
0.0366883
0.0366162
0.0365562
0.0365411
0.0365381
0.0365462
0.0365667
0.0366044
0.0366854
0.0367611
0.0367614
0.0367499
0.0367563
0.0367711
0.0368286
0.0368846
0.0368676
0.03685
0.0368364
0.0368417
0.0368943
0.0369572
0.0369297
0.0368986
0.0368693
0.036848
0.058332
0.0534956
0.0496333
0.0466538
0.0444023
0.0427213
0.0414838
0.0405304
0.0398592
0.0393243
0.0390004
0.0388091
0.038679
0.0385645
0.0384561
0.0383994
0.0383697
0.0383665
0.0383726
0.0383887
0.0384138
0.0384495
0.0385071
0.0385689
0.0385794
0.0385904
0.0385986
0.0386147
0.0386556
0.0387021
0.0386975
0.0386886
0.0386775
0.0386831
0.038709
0.0387717
0.038783
0.0387538
0.0387188
0.0386913
0.0604107
0.0553428
0.0515465
0.0487872
0.0468333
0.0455363
0.0446294
0.0440248
0.0435943
0.043282
0.0430689
0.0428504
0.042823
0.0427873
0.042759
0.0427447
0.0427431
0.0427538
0.0427748
0.0428024
0.0428344
0.0428708
0.0429146
0.0429631
0.0429882
0.043004
0.0430183
0.0430344
0.0430595
0.0430922
0.0430955
0.0430965
0.0430956
0.0431016
0.0431321
0.0432762
0.0432322
0.0431713
0.0431241
0.0430994
0.0781869
0.06767
0.0621437
0.0594998
0.0580872
0.0572591
0.0567412
0.0563883
0.0561289
0.0559416
0.0558172
0.0557364
0.0557054
0.0556874
0.0556838
0.0556972
0.0557237
0.0557589
0.0557999
0.0558438
0.0558884
0.0559325
0.0559749
0.0560205
0.0560488
0.0560692
0.0560867
0.0561034
0.0561211
0.0561437
0.0561496
0.0561518
0.0561525
0.0561564
0.0561674
0.0562051
0.0562014
0.0561786
0.05616
0.0561539
0.16297
0.138112
0.126042
0.120839
0.117946
0.116441
0.115647
0.115134
0.114828
0.114608
0.114491
0.114431
0.114421
0.114447
0.114503
0.114581
0.114673
0.114774
0.114877
0.114977
0.115071
0.115154
0.115224
0.115279
0.115324
0.115364
0.115398
0.115427
0.115446
0.115455
0.115462
0.115468
0.115474
0.115477
0.115466
0.115429
0.115415
0.115427
0.115451
0.115478
0.109134
0.100793
0.0947472
0.0912362
0.0892189
0.0879843
0.0871747
0.0866248
0.0862426
0.0859879
0.0858137
0.0856935
0.0856434
0.0856319
0.0856506
0.0856933
0.0857536
0.0858253
0.0859027
0.0859807
0.0860551
0.0861218
0.0861766
0.0862192
0.0862553
0.0862883
0.0863179
0.0863419
0.086357
0.0863638
0.0863688
0.086374
0.0863786
0.0863772
0.086361
0.0863279
0.0863274
0.0863432
0.0863656
0.0863879
0.0604144
0.0553528
0.0515855
0.0488768
0.0468912
0.0455705
0.0446469
0.0440341
0.0435985
0.0432829
0.0430662
0.0429251
0.0428399
0.0427912
0.0427647
0.0427512
0.0427508
0.042761
0.0427821
0.0428096
0.0428411
0.042877
0.0429205
0.0429684
0.0429944
0.0430111
0.0430248
0.0430402
0.0430632
0.0430935
0.0430991
0.0431012
0.0430974
0.0431101
0.0431668
0.0433004
0.0432175
0.0431539
0.043122
0.0431033
0.056708
0.0512681
0.0470233
0.0438789
0.0415414
0.0398158
0.0384579
0.0377143
0.0370977
0.0365754
0.0362339
0.0360168
0.0358876
0.0357795
0.0357082
0.0356472
0.0356107
0.0355912
0.0355913
0.0355973
0.0356137
0.0356449
0.0356996
0.035772
0.035793
0.0357993
0.035806
0.0358226
0.0358577
0.0359152
0.035923
0.0359056
0.0359028
0.0359068
0.0359238
0.0359776
0.0359844
0.0359489
0.035923
0.0358901
0.0583687
0.0526263
0.0480426
0.0445023
0.0417709
0.0396505
0.038026
0.0368151
0.0358718
0.0351567
0.0347386
0.0344772
0.0342938
0.0341092
0.033971
0.0338692
0.033798
0.0337508
0.0337275
0.0337221
0.0337348
0.0337757
0.0338826
0.0339762
0.0339664
0.0339397
0.0339416
0.0339593
0.0340426
0.0341163
0.0340879
0.0340607
0.0340423
0.0340522
0.0341305
0.0341961
0.0341529
0.0341025
0.0340536
0.0340176
0.0594175
0.0536537
0.0490282
0.0453851
0.0425079
0.0402395
0.0384606
0.0370733
0.0359913
0.0351625
0.034537
0.0342268
0.0340417
0.0338128
0.0336321
0.0334934
0.033392
0.0333213
0.0332779
0.0332595
0.03327
0.0333236
0.0334704
0.0335756
0.0335346
0.0334955
0.0334708
0.0334831
0.0335818
0.0336662
0.0336238
0.0335845
0.0335607
0.0335756
0.0336786
0.033758
0.0337013
0.0336357
0.0335726
0.0335256
0.0594004
0.0538015
0.0492908
0.0456785
0.0427904
0.0404919
0.0386742
0.0372466
0.0361335
0.0352789
0.0346393
0.034256
0.0340649
0.0338318
0.0336422
0.033493
0.033381
0.0333009
0.0332496
0.0332251
0.0332332
0.0332883
0.0334441
0.0335541
0.0335075
0.0334629
0.0334337
0.0334458
0.0335505
0.0336388
0.0335921
0.0335492
0.033525
0.0335465
0.0336671
0.0337548
0.0336892
0.0336138
0.0335416
0.0334882
0.0585557
0.053154
0.048793
0.0452845
0.0424806
0.0402583
0.0385092
0.0371416
0.0360741
0.03526
0.034637
0.0343398
0.0341325
0.0338964
0.0337119
0.033571
0.0334671
0.0333953
0.0333519
0.033322
0.0333366
0.0333853
0.0335166
0.0336266
0.0336049
0.0335794
0.033564
0.0335831
0.0336858
0.0337738
0.0337321
0.0336946
0.0336768
0.0337071
0.0338486
0.0339223
0.0338405
0.0337622
0.0336925
0.0336421
0.0572001
0.0519097
0.0476751
0.0443348
0.0417251
0.0396761
0.038093
0.0369042
0.0359546
0.0353091
0.0348956
0.0346533
0.0344742
0.034268
0.0341133
0.0340019
0.0339224
0.0338737
0.0338369
0.0338359
0.0338498
0.0338898
0.0339858
0.0340788
0.0340737
0.0340534
0.0340602
0.0340839
0.0341699
0.0342483
0.0342202
0.0341936
0.0341769
0.0341949
0.0342865
0.034367
0.0343195
0.0342623
0.0342053
0.0341591
0.0566989
0.051256
0.0470051
0.0438337
0.041501
0.039782
0.038434
0.0376952
0.0370865
0.0365749
0.0362484