/*--------------------------------*- C++ -*----------------------------------*\
| =========                 |                                                 |
| \\      /  F ield         | OpenFOAM: The Open Source CFD Toolbox           |
|  \\    /   O peration     | Version:  2212                                  |
|   \\  /    A nd           | Website:  www.openfoam.com                      |
|    \\/     M anipulation  |                                                 |
\*---------------------------------------------------------------------------*/
FoamFile
{
    version     2.0;
    format      ascii;
    arch        "LSB;label=32;scalar=64";
    class       volScalarField;
    location    "0.4";
    object      p;
}
// * * * * * * * * * * * * * * * * * * * * * * * * * * * * * * * * * * * * * //

dimensions      [0 2 -2 0 0 0 0];

internalField   nonuniform List<scalar> 
6840
(
0.0183491
0.0112348
0.00894345
0.00840576
0.00813163
0.0079096
0.0077228
0.00755619
0.0073949
0.00723507
0.00707617
0.0069179
0.00676005
0.00660211
0.00644221
0.00628189
0.0061227
0.00595474
0.0057396
0.00532816
0.0111704
0.0104366
0.00934379
0.00867793
0.00827551
0.00800182
0.00779055
0.00760416
0.00742949
0.00726165
0.00709788
0.00693651
0.00677677
0.00661857
0.00646185
0.00630741
0.00615722
0.00600665
0.00584343
0.00562674
0.0108223
0.00997081
0.00920656
0.00864748
0.00827138
0.00800328
0.00778733
0.0075939
0.00741494
0.00724593
0.00708238
0.00692217
0.00676487
0.00661086
0.00646098
0.00631713
0.00618213
0.00605919
0.00596121
0.00590797
0.0104131
0.00965041
0.00903168
0.00858035
0.0082364
0.0079673
0.00774725
0.00755746
0.00738853
0.00723009
0.00707357
0.00691781
0.0067641
0.00661404
0.00646986
0.00633504
0.00621483
0.00611789
0.00606299
0.00608204
0.0102789
0.0095377
0.00894962
0.00854154
0.00821953
0.00795277
0.00773108
0.00753982
0.00736786
0.00720955
0.00705795
0.00690665
0.00675515
0.00660561
0.0064605
0.00632242
0.00619462
0.00608135
0.00598826
0.00592683
0.0102788
0.00953768
0.00894958
0.00854148
0.00821944
0.00795262
0.00773084
0.00753941
0.00736717
0.00720841
0.00705605
0.00690358
0.00675014
0.0065974
0.00644701
0.0063001
0.00615825
0.00602232
0.00589398
0.00577961
0.0104131
0.00965035
0.00903159
0.00858024
0.00823621
0.00796698
0.00774668
0.00755644
0.00738683
0.00722732
0.00706905
0.00691044
0.00675202
0.0065942
0.00643698
0.00628014
0.00612335
0.00596652
0.00581114
0.00566138
0.0108222
0.00997075
0.00920649
0.00864737
0.00827119
0.00800293
0.00778672
0.00759288
0.00741327
0.00724321
0.00707793
0.00691482
0.00675285
0.00659114
0.00642845
0.00626295
0.00609086
0.00590575
0.00570156
0.00545095
0.0111704
0.0104366
0.00934375
0.00867788
0.00827541
0.00800165
0.00779025
0.00760364
0.00742861
0.00726019
0.00709545
0.00693247
0.00677024
0.00660784
0.00644372
0.00627747
0.00610651
0.0059139
0.00565222
0.0052206
0.0183491
0.0112348
0.00894345
0.00840575
0.00813162
0.0079096
0.00772279
0.00755619
0.00739489
0.00723506
0.00707616
0.0069179
0.00676004
0.00660208
0.00644217
0.00628183
0.00612261
0.00595462
0.00573942
0.00532792
0.0111704
0.0104366
0.00934376
0.00867789
0.00827542
0.00800166
0.00779026
0.00760365
0.00742862
0.0072602
0.00709546
0.00693249
0.00677026
0.00660788
0.00644377
0.00627754
0.0061066
0.00591403
0.00565242
0.0052209
0.0104538
0.0104222
0.00969395
0.00898349
0.00853713
0.00822093
0.00796149
0.00773292
0.00752702
0.00733679
0.00715598
0.00698106
0.00681009
0.00664126
0.00647321
0.00630591
0.0061371
0.00596256
0.00579454
0.00567291
0.00952838
0.00965463
0.00935173
0.00893548
0.00856833
0.00824953
0.00797044
0.00772911
0.00751535
0.00731944
0.00713462
0.00695779
0.00678733
0.00662223
0.00646229
0.00630625
0.00615222
0.00600067
0.00585896
0.00574361
0.00911009
0.0091537
0.00898818
0.00872511
0.00844442
0.00817272
0.00792084
0.00769328
0.00748921
0.00730151
0.00712305
0.00695128
0.0067855
0.00662547
0.00647196
0.00632597
0.00618842
0.00606227
0.0059516
0.00586192
0.00889404
0.00891594
0.00878879
0.00857126
0.00833864
0.00810901
0.00788549
0.00767146
0.00746939
0.00728063
0.00710293
0.00693289
0.00676906
0.00661101
0.0064589
0.00631342
0.00617509
0.00604466
0.00592619
0.00581853
0.00889399
0.00891589
0.00878873
0.00857114
0.00833847
0.00810877
0.00788512
0.00767087
0.00746846
0.00727911
0.00710048
0.00692899
0.00676298
0.00660168
0.00644451
0.00629131
0.00614201
0.00599659
0.00585708
0.00572258
0.00910999
0.00915359
0.00898803
0.00872491
0.00844414
0.00817233
0.00792023
0.00769218
0.0074873
0.00729835
0.00711784
0.00694288
0.00677258
0.0066057
0.00644112
0.0062777
0.00611448
0.00595161
0.00579027
0.00562788
0.00952833
0.00965456
0.00935164
0.00893535
0.00856815
0.00824925
0.00796996
0.00772826
0.00751392
0.00731716
0.00713102
0.00695219
0.0067786
0.00660843
0.00644019
0.00627158
0.00609904
0.00592145
0.00574557
0.00557624
0.0104538
0.0104222
0.00969394
0.00898348
0.00853712
0.00822092
0.00796148
0.00773291
0.007527
0.00733678
0.00715597
0.00698104
0.00681006
0.00664121
0.00647315
0.00630583
0.00613699
0.00596242
0.00579434
0.00567265
0.0111704
0.0104366
0.00934378
0.00867793
0.00827551
0.00800182
0.00779055
0.00760416
0.00742948
0.00726164
0.00709787
0.00693649
0.00677675
0.00661854
0.0064618
0.00630734
0.00615713
0.00600654
0.00584328
0.00562656
0.0108223
0.00997076
0.00920651
0.00864739
0.00827121
0.00800296
0.00778676
0.00759292
0.00741331
0.00724325
0.00707797
0.00691487
0.00675291
0.00659122
0.00642853
0.00626305
0.00609097
0.0059059
0.00570177
0.00545123
0.00952835
0.00965459
0.00935167
0.00893538
0.00856818
0.00824928
0.00797
0.0077283
0.00751396
0.0073172
0.00713107
0.00695225
0.00677867
0.00660851
0.00644028
0.00627168
0.00609917
0.00592161
0.00574579
0.00557654
0.00895863
0.00905966
0.00894807
0.00872248
0.00846667
0.00820818
0.00794931
0.0077069
0.00748806
0.00728697
0.00709841
0.00691936
0.00674782
0.00658199
0.00642021
0.00626082
0.0061022
0.0059445
0.00579143
0.00564249
0.00859048
0.00865855
0.00860609
0.00845901
0.00827397
0.00806876
0.00785781
0.00765044
0.00744923
0.00725709
0.00707488
0.00690126
0.00673465
0.00657398
0.0064181
0.00626614
0.0061184
0.00597503
0.0058352
0.00568961
0.0084073
0.00847174
0.00844215
0.00831711
0.00815781
0.00798385
0.00779758
0.00760975
0.00742343
0.00723958
0.00706101
0.00688887
0.00672329
0.00656414
0.00641046
0.00626079
0.006115
0.00597426
0.00583966
0.0057018
0.00840727
0.00847171
0.00844211
0.00831701
0.00815761
0.00798359
0.00779729
0.00760935
0.00742278
0.00723857
0.00705951
0.00688659
0.00671982
0.00655895
0.00640286
0.00625039
0.00610064
0.00595365
0.00581104
0.00566586
0.00859041
0.00865848
0.00860599
0.00845884
0.00827373
0.00806845
0.0078574
0.00764981
0.00744822
0.0072555
0.00707236
0.00689733
0.00672869
0.00656505
0.00640515
0.00624777
0.0060918
0.00593674
0.00578394
0.0056271
0.00895862
0.00905964
0.00894806
0.00872247
0.00846666
0.00820816
0.0079493
0.00770688
0.00748804
0.00728695
0.00709839
0.00691934
0.00674778
0.00658195
0.00642016
0.00626076
0.00610213
0.00594441
0.00579132
0.00564235
0.00952838
0.00965463
0.00935173
0.00893548
0.00856833
0.00824953
0.00797044
0.00772912
0.00751535
0.00731945
0.00713463
0.00695779
0.00678732
0.00662221
0.00646226
0.0063062
0.00615215
0.00600058
0.00585882
0.00574342
0.0108223
0.0099708
0.00920656
0.00864748
0.00827138
0.00800329
0.00778734
0.00759392
0.00741496
0.00724594
0.0070824
0.00692218
0.00676488
0.00661086
0.00646096
0.0063171
0.00618208
0.00605912
0.00596113
0.00590788
0.0104131
0.00965038
0.00903163
0.00858027
0.00823625
0.00796703
0.00774673
0.0075565
0.00738689
0.00722739
0.00706912
0.00691052
0.00675211
0.0065943
0.00643708
0.00628024
0.00612345
0.00596663
0.00581129
0.00566156
0.00911002
0.00915362
0.00898807
0.00872495
0.00844418
0.00817238
0.00792028
0.00769224
0.00748736
0.00729841
0.00711791
0.00694296
0.00677266
0.00660579
0.00644122
0.00627781
0.0061146
0.00595173
0.00579041
0.00562803
0.00859043
0.0086585
0.00860602
0.00845887
0.00827375
0.00806848
0.00785743
0.00764984
0.00744825
0.00725554
0.0070724
0.00689737
0.00672873
0.00656509
0.0064052
0.00624782
0.00609185
0.00593679
0.00578397
0.00562709
0.00829242
0.00835157
0.00833958
0.00824406
0.00810415
0.00793823
0.0077579
0.00757336
0.0073896
0.00720973
0.00703542
0.00686675
0.00670325
0.00654432
0.00638922
0.00623693
0.00608664
0.00593767
0.00579006
0.00563552
0.00814126
0.00820414
0.00820786
0.00813412
0.00801385
0.00786721
0.00770408
0.0075327
0.00735908
0.00718625
0.00701633
0.00685054
0.00668927
0.00653241
0.00637949
0.0062297
0.00608209
0.00593703
0.00579565
0.00564674
0.00814124
0.00820412
0.00820784
0.00813408
0.0080138
0.00786714
0.00770398
0.00753256
0.00735888
0.00718595
0.00701589
0.0068499
0.00668832
0.006531
0.00637742
0.00622679
0.00607825
0.00593161
0.00578763
0.00563705
0.00829241
0.00835155
0.00833956
0.00824405
0.00810414
0.00793822
0.00775789
0.00757335
0.00738959
0.00720972
0.0070354
0.00686674
0.00670324
0.00654431
0.00638922
0.00623693
0.00608664
0.0059377
0.00579012
0.00563564
0.00859048
0.00865855
0.00860609
0.00845901
0.00827397
0.00806877
0.00785781
0.00765044
0.00744923
0.00725709
0.00707488
0.00690126
0.00673465
0.00657398
0.00641811
0.00626614
0.00611839
0.00597502
0.00583519
0.0056896
0.00911009
0.0091537
0.00898818
0.00872512
0.00844444
0.00817274
0.00792087
0.0076933
0.00748924
0.00730154
0.00712308
0.0069513
0.00678552
0.00662548
0.00647197
0.00632597
0.0061884
0.00606223
0.00595154
0.0058618
0.0104131
0.00965042
0.00903169
0.00858037
0.00823642
0.00796733
0.00774728
0.00755749
0.00738856
0.00723012
0.00707361
0.00691785
0.00676413
0.00661407
0.00646987
0.00633504
0.00621482
0.00611787
0.00606297
0.00608203
0.0102789
0.00953772
0.00894962
0.00854153
0.00821949
0.00795268
0.0077309
0.00753948
0.00736724
0.00720848
0.00705613
0.00690365
0.00675022
0.00659748
0.00644709
0.00630019
0.00615833
0.0060224
0.00589407
0.0057797
0.00889403
0.00891593
0.00878877
0.00857119
0.00833852
0.00810882
0.00788518
0.00767094
0.00746853
0.00727917
0.00710055
0.00692906
0.00676305
0.00660176
0.0064446
0.0062914
0.0061421
0.00599666
0.00585715
0.00572264
0.00840729
0.00847173
0.00844214
0.00831704
0.00815765
0.00798362
0.00779733
0.00760939
0.00742282
0.00723861
0.00705956
0.00688664
0.00671987
0.006559
0.00640291
0.00625043
0.00610068
0.00595368
0.00581106
0.00566585
0.00814125
0.00820414
0.00820785
0.0081341
0.00801382
0.00786716
0.00770399
0.00753258
0.0073589
0.00718597
0.00701591
0.00684992
0.00668834
0.00653102
0.00637744
0.0062268
0.00607825
0.0059316
0.00578759
0.00563698
0.0079984
0.00806788
0.00808994
0.00803733
0.00793602
0.00780509
0.00765531
0.0074947
0.0073289
0.00716163
0.00699556
0.0068323
0.00667265
0.00651674
0.00636429
0.00621462
0.00606678
0.00592017
0.00577466
0.00563159
0.00799839
0.00806788
0.00808994
0.00803732
0.00793602
0.00780509
0.00765531
0.0074947
0.00732889
0.00716163
0.00699555
0.0068323
0.00667264
0.00651673
0.00636429
0.00621463
0.00606679
0.00592019
0.0057747
0.00563164
0.00814125
0.00820414
0.00820786
0.00813412
0.00801385
0.00786721
0.00770408
0.0075327
0.00735909
0.00718625
0.00701633
0.00685054
0.00668927
0.00653242
0.00637951
0.00622973
0.00608212
0.00593706
0.0057957
0.00564682
0.00840731
0.00847174
0.00844216
0.00831712
0.00815782
0.00798386
0.00779759
0.00760977
0.00742345
0.00723959
0.00706103
0.00688889
0.0067233
0.00656416
0.00641049
0.00626082
0.00611503
0.00597429
0.0058397
0.00570185
0.00889405
0.00891595
0.0087888
0.00857128
0.00833866
0.00810903
0.00788552
0.00767149
0.00746942
0.00728066
0.00710297
0.00693292
0.00676909
0.00661104
0.00645893
0.00631345
0.00617511
0.00604467
0.00592619
0.00581852
0.0102789
0.00953771
0.00894963
0.00854156
0.00821956
0.0079528
0.00773111
0.00753986
0.0073679
0.00720959
0.00705799
0.0069067
0.00675519
0.00660564
0.00646053
0.00632245
0.00619464
0.00608137
0.00598828
0.00592686
0.0102789
0.00953774
0.00894966
0.00854159
0.00821958
0.00795282
0.00773113
0.00753988
0.00736792
0.00720961
0.00705801
0.00690671
0.00675521
0.00660567
0.00646056
0.00632248
0.00619467
0.0060814
0.0059883
0.00592688
0.00889407
0.00891598
0.00878883
0.0085713
0.00833869
0.00810906
0.00788554
0.00767151
0.00746944
0.00728068
0.00710299
0.00693294
0.00676911
0.00661106
0.00645895
0.00631347
0.00617513
0.00604469
0.00592621
0.00581853
0.00840733
0.00847176
0.00844218
0.00831714
0.00815784
0.00798388
0.00779761
0.00760979
0.00742346
0.00723961
0.00706105
0.00688891
0.00672332
0.00656417
0.00641049
0.00626082
0.00611503
0.00597429
0.00583969
0.00570184
0.00814126
0.00820415
0.00820787
0.00813413
0.00801386
0.00786722
0.00770409
0.00753271
0.00735909
0.00718626
0.00701634
0.00685055
0.00668928
0.00653242
0.0063795
0.00622971
0.00608211
0.00593705
0.00579568
0.00564679
0.00799839
0.00806787
0.00808994
0.00803732
0.00793602
0.00780509
0.00765531
0.0074947
0.00732889
0.00716163
0.00699555
0.0068323
0.00667264
0.00651674
0.00636429
0.00621463
0.00606679
0.00592019
0.00577469
0.00563163
0.00799838
0.00806787
0.00808993
0.00803732
0.00793602
0.00780508
0.0076553
0.00749469
0.00732889
0.00716162
0.00699555
0.0068323
0.00667264
0.00651673
0.00636429
0.00621463
0.0060668
0.0059202
0.0057747
0.00563164
0.00814123
0.00820412
0.00820783
0.00813408
0.0080138
0.00786714
0.00770397
0.00753256
0.00735888
0.00718595
0.00701589
0.0068499
0.00668832
0.00653101
0.00637744
0.00622681
0.00607826
0.00593162
0.00578764
0.00563706
0.00840727
0.00847171
0.00844211
0.00831701
0.00815762
0.0079836
0.0077973
0.00760937
0.00742279
0.00723858
0.00705953
0.0068866
0.00671984
0.00655898
0.0064029
0.00625042
0.00610067
0.00595367
0.00581107
0.00566589
0.008894
0.0089159
0.00878874
0.00857116
0.00833848
0.00810879
0.00788514
0.0076709
0.00746849
0.00727914
0.00710051
0.00692902
0.00676301
0.00660171
0.00644455
0.00629135
0.00614205
0.00599661
0.0058571
0.0057226
0.0102788
0.00953769
0.00894959
0.0085415
0.00821946
0.00795265
0.00773087
0.00753945
0.00736721
0.00720845
0.0070561
0.00690362
0.00675018
0.00659744
0.00644704
0.00630013
0.00615827
0.00602234
0.00589401
0.00577964
0.0104131
0.00965045
0.00903171
0.00858039
0.00823644
0.00796735
0.00774729
0.0075575
0.00738857
0.00723013
0.00707361
0.00691786
0.00676413
0.00661408
0.00646988
0.00633506
0.00621484
0.00611789
0.00606299
0.00608204
0.00911012
0.00915372
0.0089882
0.00872514
0.00844446
0.00817276
0.00792088
0.00769331
0.00748925
0.00730155
0.00712309
0.00695131
0.00678553
0.00662549
0.00647198
0.00632598
0.00618841
0.00606224
0.00595155
0.0058618
0.00859049
0.00865856
0.00860611
0.00845902
0.00827398
0.00806878
0.00785782
0.00765045
0.00744924
0.0072571
0.00707489
0.00690127
0.00673466
0.00657398
0.00641811
0.00626614
0.0061184
0.00597502
0.0058352
0.00568961
0.00829241
0.00835155
0.00833956
0.00824405
0.00810414
0.00793822
0.00775789
0.00757335
0.00738959
0.00720973
0.00703541
0.00686674
0.00670324
0.00654431
0.00638922
0.00623693
0.00608665
0.00593771
0.00579013
0.00563566
0.00814123
0.00820411
0.00820783
0.00813407
0.00801379
0.00786713
0.00770397
0.00753255
0.00735887
0.00718594
0.00701589
0.0068499
0.00668832
0.006531
0.00637742
0.0062268
0.00607826
0.00593163
0.00578765
0.00563708
0.00814124
0.00820413
0.00820785
0.0081341
0.00801383
0.0078672
0.00770406
0.00753268
0.00735907
0.00718623
0.00701632
0.00685053
0.00668926
0.0065324
0.00637949
0.00622971
0.00608211
0.00593706
0.0057957
0.00564682
0.0082924
0.00835154
0.00833955
0.00824403
0.00810412
0.0079382
0.00775788
0.00757333
0.00738958
0.00720971
0.00703539
0.00686673
0.00670323
0.00654431
0.00638922
0.00623693
0.00608665
0.0059377
0.00579013
0.00563564
0.0085904
0.00865847
0.00860599
0.00845884
0.00827372
0.00806844
0.0078574
0.00764981
0.00744822
0.0072555
0.00707236
0.00689733
0.00672869
0.00656505
0.00640516
0.00624779
0.00609183
0.00593677
0.00578397
0.00562714
0.00910999
0.00915359
0.00898804
0.00872491
0.00844415
0.00817234
0.00792024
0.0076922
0.00748732
0.00729837
0.00711786
0.0069429
0.0067726
0.00660572
0.00644114
0.00627773
0.00611451
0.00595164
0.00579031
0.00562792
0.0104131
0.00965035
0.0090316
0.00858024
0.00823622
0.007967
0.0077467
0.00755646
0.00738685
0.00722735
0.00706908
0.00691047
0.00675206
0.00659424
0.00643699
0.00628016
0.00612336
0.00596653
0.00581116
0.00566141
0.0108223
0.00997083
0.00920659
0.0086475
0.00827141
0.00800331
0.00778736
0.00759394
0.00741498
0.00724596
0.00708241
0.00692219
0.00676489
0.00661087
0.00646098
0.00631712
0.00618211
0.00605915
0.00596115
0.0059079
0.00952839
0.00965464
0.00935174
0.00893549
0.00856834
0.00824954
0.00797045
0.00772913
0.00751536
0.00731945
0.00713463
0.00695779
0.00678733
0.00662222
0.00646227
0.00630621
0.00615216
0.00600059
0.00585883
0.00574343
0.00895862
0.00905964
0.00894806
0.00872247
0.00846666
0.00820816
0.0079493
0.00770688
0.00748804
0.00728695
0.00709839
0.00691934
0.00674779
0.00658196
0.00642017
0.00626077
0.00610214
0.00594443
0.00579134
0.00564237
0.0085904
0.00865847
0.00860598
0.00845883
0.00827372
0.00806844
0.00785739
0.00764981
0.00744821
0.0072555
0.00707236
0.00689733
0.00672869
0.00656505
0.00640515
0.00624778
0.00609181
0.00593676
0.00578396
0.00562712
0.00840725
0.00847169
0.00844209
0.00831699
0.0081576
0.00798357
0.00779728
0.00760934
0.00742277
0.00723856
0.00705951
0.00688659
0.00671982
0.00655896
0.00640287
0.0062504
0.00610065
0.00595366
0.00581106
0.00566589
0.00840728
0.00847172
0.00844213
0.00831709
0.00815778
0.00798383
0.00779756
0.00760973
0.00742341
0.00723956
0.007061
0.00688886
0.00672327
0.00656413
0.00641045
0.00626079
0.00611501
0.00597427
0.00583969
0.00570184
0.00859045
0.00865852
0.00860607
0.00845898
0.00827394
0.00806873
0.00785778
0.00765041
0.0074492
0.00725706
0.00707485
0.00690123
0.00673463
0.00657396
0.00641808
0.00626612
0.00611837
0.005975
0.00583519
0.00568961
0.0089586
0.00905963
0.00894804
0.00872245
0.00846664
0.00820814
0.00794928
0.00770686
0.00748802
0.00728693
0.00709837
0.00691932
0.00674777
0.00658194
0.00642016
0.00626076
0.00610213
0.00594442
0.00579134
0.00564238
0.00952832
0.00965456
0.00935164
0.00893535
0.00856815
0.00824925
0.00796996
0.00772826
0.00751392
0.00731716
0.00713102
0.0069522
0.00677861
0.00660843
0.00644019
0.00627158
0.00609904
0.00592146
0.00574558
0.00557626
0.0108222
0.00997074
0.00920648
0.00864737
0.00827119
0.00800293
0.00778673
0.00759289
0.00741327
0.00724322
0.00707793
0.00691482
0.00675286
0.00659114
0.00642844
0.00626294
0.00609085
0.00590575
0.00570157
0.00545095
0.0111704
0.0104366
0.0093438
0.00867795
0.00827553
0.00800183
0.00779056
0.00760418
0.0074295
0.00726166
0.00709789
0.00693651
0.00677677
0.00661856
0.00646183
0.00630737
0.00615716
0.00600657
0.00584331
0.00562658
0.0104538
0.0104222
0.00969394
0.00898348
0.00853712
0.00822092
0.00796149
0.00773291
0.00752701
0.00733678
0.00715597
0.00698104
0.00681006
0.00664123
0.00647317
0.00630584
0.006137
0.00596243
0.00579435
0.00567265
0.00952832
0.00965455
0.00935163
0.00893534
0.00856815
0.00824925
0.00796996
0.00772827
0.00751392
0.00731716
0.00713103
0.00695221
0.00677862
0.00660845
0.00644021
0.00627159
0.00609906
0.00592147
0.00574558
0.00557625
0.00910997
0.00915357
0.00898801
0.00872489
0.00844413
0.00817232
0.00792022
0.00769218
0.0074873
0.00729835
0.00711785
0.00694289
0.0067726
0.00660572
0.00644114
0.00627772
0.0061145
0.00595162
0.00579028
0.00562788
0.00889397
0.00891587
0.0087887
0.00857112
0.00833845
0.00810875
0.00788511
0.00767087
0.00746846
0.00727911
0.00710048
0.00692899
0.00676298
0.00660169
0.00644452
0.00629132
0.00614201
0.00599658
0.00585706
0.00572256
0.00889401
0.00891592
0.00878877
0.00857123
0.00833862
0.00810898
0.00788547
0.00767144
0.00746937
0.00728061
0.00710292
0.00693288
0.00676905
0.006611
0.00645888
0.0063134
0.00617506
0.00604463
0.00592614
0.00581848
0.00911006
0.00915367
0.00898815
0.00872508
0.0084444
0.0081727
0.00792082
0.00769325
0.00748919
0.00730149
0.00712303
0.00695126
0.00678548
0.00662544
0.00647192
0.00632592
0.00618835
0.00606219
0.00595151
0.00586177
0.00952836
0.0096546
0.00935171
0.00893545
0.0085683
0.0082495
0.00797041
0.00772908
0.00751532
0.00731941
0.00713459
0.00695775
0.00678728
0.00662217
0.00646223
0.00630617
0.00615213
0.00600055
0.0058588
0.00574341
0.0104538
0.0104222
0.00969393
0.00898346
0.0085371
0.0082209
0.00796147
0.00773289
0.00752699
0.00733676
0.00715594
0.00698101
0.00681003
0.00664118
0.00647312
0.00630581
0.00613697
0.0059624
0.00579433
0.00567262
0.0111704
0.0104366
0.00934374
0.00867787
0.0082754
0.00800163
0.00779023
0.00760363
0.00742859
0.00726017
0.00709543
0.00693245
0.00677021
0.00660781
0.00644369
0.00627744
0.00610648
0.00591388
0.00565221
0.00522057
0.0183491
0.0112348
0.00894345
0.00840576
0.00813163
0.0079096
0.0077228
0.00755619
0.0073949
0.00723507
0.00707617
0.0069179
0.00676005
0.00660209
0.00644218
0.00628184
0.00612262
0.00595463
0.00573943
0.00532792
0.0111704
0.0104366
0.00934374
0.00867787
0.0082754
0.00800163
0.00779024
0.00760363
0.0074286
0.00726018
0.00709544
0.00693246
0.00677023
0.00660784
0.00644372
0.00627747
0.0061065
0.00591389
0.00565221
0.00522058
0.0108222
0.00997072
0.00920647
0.00864735
0.00827117
0.00800292
0.00778671
0.00759288
0.00741326
0.00724321
0.00707793
0.00691482
0.00675286
0.00659115
0.00642846
0.00626295
0.00609085
0.00590575
0.00570155
0.00545093
0.010413
0.00965032
0.00903157
0.00858021
0.00823619
0.00796697
0.00774667
0.00755644
0.00738683
0.00722733
0.00706906
0.00691045
0.00675205
0.00659423
0.00643699
0.00628015
0.00612335
0.0059665
0.00581112
0.00566135
0.0102788
0.00953766
0.00894955
0.00854146
0.00821942
0.00795261
0.00773083
0.00753941
0.00736717
0.00720841
0.00705606
0.00690358
0.00675015
0.00659741
0.00644701
0.00630011
0.00615824
0.0060223
0.00589396
0.00577957
0.0102788
0.00953768
0.00894959
0.00854152
0.00821951
0.00795275
0.00773106
0.00753981
0.00736785
0.00720954
0.00705794
0.00690665
0.00675514
0.0066056
0.00646049
0.00632241
0.00619459
0.00608132
0.00598823
0.0059268
0.0104131
0.00965039
0.00903165
0.00858033
0.00823637
0.00796728
0.00774723
0.00755744
0.00738851
0.00723007
0.00707355
0.00691779
0.00676407
0.00661401
0.00646982
0.006335
0.00621479
0.00611784
0.00606294
0.00608199
0.0108223
0.00997078
0.00920654
0.00864745
0.00827135
0.00800326
0.00778731
0.00759389
0.00741492
0.00724591
0.00708235
0.00692214
0.00676483
0.00661081
0.00646092
0.00631707
0.00618206
0.0060591
0.00596111
0.00590787
0.0111704
0.0104366
0.00934377
0.00867791
0.00827549
0.0080018
0.00779053
0.00760415
0.00742947
0.00726163
0.00709785
0.00693647
0.00677672
0.00661851
0.00646178
0.00630732
0.00615712
0.00600653
0.00584328
0.00562655
0.0183491
0.0112348
0.00894343
0.00840574
0.00813161
0.00790958
0.00772278
0.00755617
0.00739488
0.00723505
0.00707614
0.00691787
0.00676001
0.00660205
0.00644214
0.00628181
0.00612259
0.00595461
0.00573942
0.00532791
0.00600652
0.00537934
0.00499561
0.00486986
0.00476407
0.00464094
0.004513
0.00438341
0.00425229
0.00412006
0.00398711
0.00385354
0.00371933
0.00358455
0.00344952
0.00331447
0.00317942
0.00304443
0.00290953
0.00277469
0.00263989
0.00250509
0.00237016
0.00223493
0.00209946
0.00196399
0.00182866
0.00169345
0.00155823
0.00142278
0.00128715
0.00115158
0.00101622
0.000880992
0.000745402
0.000609497
0.000473662
0.000337913
0.000202491
6.74137e-05
0.00613222
0.00548473
0.00502363
0.00484941
0.00473697
0.00461619
0.00449159
0.00436639
0.00423945
0.00411056
0.0039801
0.0038484
0.00371564
0.00358194
0.0034477
0.00331324
0.00317864
0.00304395
0.00290926
0.00277455
0.00263983
0.00250506
0.00237015
0.00223492
0.00209944
0.00196397
0.00182862
0.0016934
0.00155817
0.00142271
0.00128708
0.00115151
0.00101617
0.000881038
0.000745313
0.000609296
0.000473648
0.000338042
0.000202609
6.74734e-05
0.00594067
0.00553811
0.00517486
0.0049616
0.00480657
0.00466059
0.00451971
0.00438402
0.00425078
0.00411797
0.00398496
0.00385164
0.00371781
0.00358344
0.00344878
0.00331403
0.00317924
0.00304443
0.00290963
0.00277484
0.00264005
0.00250521
0.00237022
0.00223493
0.00209943
0.00196397
0.00182864
0.00169341
0.00155813
0.00142264
0.00128701
0.00115146
0.00101605
0.000880689
0.000745156
0.000609427
0.000473725
0.000338147
0.000202728
6.75369e-05
0.00573357
0.00547696
0.00521236
0.00500665
0.00483839
0.00468466
0.00453833
0.00439771
0.00426054
0.00412487
0.00398981
0.00385496
0.00372008
0.00358506
0.00344996
0.00331487
0.00317986
0.00304488
0.00290992
0.00277502
0.00264016
0.00250528
0.00237023
0.00223485
0.00209931
0.00196387
0.00182858
0.00169337
0.00155808
0.00142256
0.00128692
0.0011514
0.00101602
0.000880746
0.000745261
0.000609464
0.000473688
0.000338109
0.000202725
6.7545e-05
0.00556123
0.00538482
0.00519506
0.00501865
0.00485718
0.00470487
0.00455757
0.00441396
0.00427325
0.00413458
0.00399719
0.00386047
0.00372407
0.00358792
0.00345204
0.0033164
0.00318096
0.00304566
0.00291047
0.00277542
0.00264045
0.00250552
0.00237041
0.00223493
0.00209931
0.00196385
0.00182857
0.00169337
0.00155807
0.00142252
0.00128687
0.00115135
0.00101597
0.000880647
0.000745191
0.000609504
0.000473768
0.000338175
0.000202764
6.75558e-05
0.00542205
0.00530986
0.0051694
0.00501452
0.00486084
0.00471159
0.00456554
0.0044218
0.00428014
0.00414024
0.00400166
0.00386391
0.00372669
0.00358988
0.00345344
0.00331738
0.00318164
0.00304613
0.00291081
0.00277566
0.00264062
0.00250562
0.00237044
0.00223489
0.00209924
0.00196381
0.00182856
0.00169338
0.00155809
0.00142252
0.00128686
0.00115135
0.001016
0.00088071
0.000745289
0.000609567
0.000473744
0.000338104
0.000202699
6.75283e-05
0.00532051
0.00526108
0.00515034
0.00500645
0.00485873
0.00471314
0.00456874
0.00442541
0.00428355
0.00414319
0.00400411
0.00386587
0.00372814
0.0035909
0.00345413
0.00331785
0.00318197
0.00304636
0.00291097
0.00277576
0.00264068
0.00250566
0.00237047
0.00223493
0.0020993
0.00196387
0.00182862
0.00169345
0.00155816
0.00142258
0.0012869
0.00115139
0.00101606
0.000880801
0.000745398
0.000609615
0.00047369
0.000337994
0.000202603
6.74922e-05
0.00537123
0.00528621
0.00515057
0.0049982
0.00485154
0.00470842
0.00456557
0.0044233
0.00428228
0.00414253
0.00400389
0.00386591
0.0037281
0.00359071
0.00345395
0.00331771
0.00318181
0.00304619
0.00291082
0.00277563
0.00264057
0.00250556
0.00237041
0.00223494
0.00209936
0.00196393
0.00182867
0.00169349
0.00155821
0.00142266
0.00128698
0.00115146
0.00101611
0.000880865
0.00074551
0.000609733
0.000473681
0.000337875
0.000202483
6.74427e-05
0.0055181
0.00535637
0.00515774
0.00498958
0.00484162
0.00469834
0.00455674
0.00441656
0.00427722
0.00413872
0.00400093
0.00386368
0.00372663
0.00358972
0.0034532
0.00331709
0.0031813
0.00304578
0.00291049
0.00277538
0.00264038
0.00250541
0.00237033
0.00223498
0.00209945
0.001964
0.0018287
0.0016935
0.00155825
0.00142274
0.00128708
0.00115153
0.00101618
0.000880974
0.000745759
0.000609914
0.000473535
0.000337612
0.000202315
6.73904e-05
0.00585532
0.00537959
0.00505785
0.00492347
0.00480676
0.00467431
0.00453877
0.00440324
0.00426727
0.00413122
0.00399527
0.00385934
0.00372334
0.00358726
0.00345134
0.00331565
0.00318019
0.00304491
0.0029098
0.00277484
0.00263996
0.0025051
0.00237013
0.00223489
0.0020994
0.00196394
0.00182864
0.00169345
0.00155824
0.00142278
0.00128713
0.00115155
0.00101618
0.000880986
0.000745812
0.000610016
0.000473623
0.000337588
0.000202227
6.73258e-05
0.00600641
0.00537919
0.00499548
0.00486943
0.00476377
0.00464102
0.00451333
0.00438381
0.00425264
0.00412038
0.00398731
0.00385358
0.00371923
0.00358439
0.00344935
0.00331432
0.00317931
0.00304436
0.00290949
0.00277466
0.00263987
0.00250506
0.00237013
0.0022349
0.00209944
0.00196398
0.00182867
0.00169348
0.00155826
0.0014228
0.00128714
0.00115155
0.00101616
0.000880921
0.000745676
0.000609876
0.000473572
0.00033761
0.000202292
6.73767e-05
0.00585548
0.00537982
0.00505801
0.00492382
0.00480719
0.00467442
0.00453856
0.00440287
0.00426687
0.00413083
0.00399497
0.00385919
0.00372329
0.00358729
0.00345138
0.00331568
0.00318018
0.00304488
0.00290976
0.00277479
0.00263992
0.00250507
0.00237013
0.0022349
0.00209944
0.00196399
0.00182868
0.0016935
0.0015583
0.00142285
0.00128723
0.00115168
0.00101638
0.000881322
0.00074557
0.000609321
0.000473456
0.000337745
0.00020236
6.73545e-05
0.0057572
0.0054082
0.0051203
0.00493928
0.00479381
0.0046527
0.00451654
0.00438389
0.00425179
0.00411925
0.00398617
0.00385256
0.00371835
0.00358362
0.0034487
0.00331373
0.00317876
0.00304383
0.00290899
0.00277423
0.0026395
0.00250476
0.00236987
0.00223466
0.00209922
0.00196382
0.00182857
0.00169341
0.0015582
0.00142272
0.00128709
0.00115157
0.00101619
0.000880919
0.000745605
0.000609713
0.000473535
0.00033779
0.000202441
6.73963e-05
0.00568772
0.0054588
0.00523418
0.00503514
0.00486069
0.00470014
0.00454919
0.00440531
0.00426557
0.00412802
0.00399165
0.00385592
0.00372042
0.00358499
0.00344968
0.00331453
0.00317948
0.00304451
0.00290962
0.00277475
0.00263991
0.00250505
0.00237001
0.00223464
0.00209915
0.00196381
0.00182859
0.00169341
0.00155812
0.00142257
0.00128694
0.00115143
0.001016
0.000880548
0.00074528
0.000609693
0.000473699
0.000338034
0.000202683
6.75192e-05
0.00557713
0.00540684
0.00522895
0.00504678
0.00487602
0.00471608
0.00456346
0.00441644
0.00427369
0.00413381
0.00399574
0.00385873
0.00372228
0.00358626
0.00345062
0.00331523
0.00317998
0.00304487
0.00290987
0.0027749
0.00263994
0.00250496
0.00236979
0.00223438
0.00209896
0.00196368
0.00182846
0.00169324
0.0015579
0.00142238
0.00128683
0.00115139
0.00101603
0.000880682
0.000745185
0.000609461
0.000473728
0.000338191
0.00020284
6.75834e-05
0.00549967
0.00533721
0.00518053
0.00501845
0.00486065
0.00470894
0.00456149
0.00441693
0.00427508
0.00413549
0.00399748
0.00386039
0.00372374
0.00358748
0.0034516
0.00331599
0.00318059
0.00304533
0.00291018
0.00277509
0.00264
0.00250487
0.0023696
0.00223424
0.00209891
0.00196363
0.00182838
0.00169311
0.00155774
0.00142228
0.00128681
0.00115139
0.001016
0.000880563
0.000745061
0.000609464
0.000473849
0.000338357
0.000202977
6.76377e-05
0.00539773
0.00524989
0.00511963
0.00497663
0.0048307
0.00468793
0.00454746
0.00440814
0.00426986
0.00413252
0.00399588
0.00385966
0.00372355
0.00358754
0.00345179
0.0033162
0.00318077
0.00304549
0.00291031
0.00277518
0.00264006
0.00250489
0.00236961
0.00223427
0.00209893