/*--------------------------------*- C++ -*----------------------------------*\
| =========                 |                                                 |
| \\      /  F ield         | OpenFOAM: The Open Source CFD Toolbox           |
|  \\    /   O peration     | Version:  2212                                  |
|   \\  /    A nd           | Website:  www.openfoam.com                      |
|    \\/     M anipulation  |                                                 |
\*---------------------------------------------------------------------------*/
FoamFile
{
    version     2.0;
    format      ascii;
    arch        "LSB;label=32;scalar=64";
    class       volVectorField;
    location    "0.4";
    object      U;
}
// * * * * * * * * * * * * * * * * * * * * * * * * * * * * * * * * * * * * * //

dimensions      [0 1 -1 0 0 0 0];

internalField   nonuniform List<vector> 
6840
(
(0.0956456 -0.00835998 -0.00835998)
(0.0904935 0.00152195 0.00152205)
(0.0790674 0.00242973 0.00242994)
(0.0713002 0.00148779 0.00148819)
(0.066179 0.000830361 0.000831105)
(0.0623242 0.000562751 0.00056397)
(0.0592254 0.000425559 0.000428153)
(0.056695 0.000322957 0.000327491)
(0.0545706 0.000250661 0.000258106)
(0.0527359 0.000197323 0.000209349)
(0.0511272 0.00015529 0.000174626)
(0.0497058 0.000119776 0.000150806)
(0.0484481 8.56004e-05 0.000135933)
(0.0473375 4.84423e-05 0.000130507)
(0.0463603 1.71032e-05 0.00013738)
(0.0455403 -2.92668e-05 0.000152126)
(0.044898 -0.000124405 0.000184655)
(0.044519 -0.000298488 0.000251475)
(0.044912 -0.000572165 0.000267864)
(0.0441541 -0.0031933 -0.00149775)
(0.0999089 0.00129697 0.000712648)
(0.0969666 0.00365576 0.00274766)
(0.0935339 0.00264006 0.00211874)
(0.0895884 0.00181984 0.00162085)
(0.0858325 0.0015271 0.00138992)
(0.0825925 0.00134874 0.00115969)
(0.0798726 0.00117561 0.000893709)
(0.077584 0.00103396 0.000684715)
(0.0755917 0.000931736 0.000547388)
(0.0738135 0.00084701 0.00045974)
(0.0722063 0.000766799 0.000403029)
(0.0707447 0.000685107 0.000366564)
(0.0694145 0.000597621 0.000345288)
(0.0682065 0.00049989 0.000335308)
(0.0671045 0.00038024 0.000329929)
(0.0661219 0.000229933 0.000346122)
(0.065238 3.02166e-05 0.000384368)
(0.0644487 -0.000305909 0.000404984)
(0.0639653 -0.00104817 0.000288901)
(0.0630184 -0.00305976 -0.00027281)
(0.0994131 0.000345184 0.000270318)
(0.0988661 0.0020189 0.00187538)
(0.0979207 0.00257265 0.00218958)
(0.0963652 0.00237899 0.00190871)
(0.094633 0.00211234 0.00162618)
(0.0929735 0.00192288 0.00141545)
(0.0913704 0.0017942 0.00126261)
(0.0898708 0.00169337 0.00114216)
(0.0884908 0.00158556 0.00103801)
(0.0872274 0.00146346 0.000947073)
(0.0860772 0.00133361 0.000870015)
(0.0850286 0.00120067 0.000806838)
(0.084068 0.0010646 0.000754902)
(0.0831815 0.000921909 0.000713395)
(0.0823534 0.000766211 0.000685805)
(0.0815641 0.000593953 0.000684005)
(0.0807778 0.000396859 0.000729336)
(0.0799035 0.000121752 0.000842186)
(0.0788695 -0.000357378 0.000960859)
(0.0777437 -0.000456716 0.00256675)
(0.0995406 0.000245029 0.000322054)
(0.0992572 0.00105551 0.00154175)
(0.0988479 0.00150195 0.00211498)
(0.0981233 0.00157854 0.00209149)
(0.097336 0.00151267 0.00188487)
(0.0965858 0.00144337 0.00166226)
(0.0958694 0.00140516 0.0014897)
(0.0952085 0.00137059 0.00135298)
(0.094598 0.00131569 0.00124625)
(0.0939788 0.00123381 0.00116483)
(0.0933872 0.00113015 0.00109503)
(0.0928242 0.0010163 0.00103065)
(0.0922815 0.000901141 0.000970218)
(0.091749 0.000789107 0.000915798)
(0.0912096 0.00068317 0.000873778)
(0.0906359 0.000580981 0.000856202)
(0.0899741 0.000496339 0.000894676)
(0.0891123 0.000440106 0.00103607)
(0.0879172 0.000427259 0.00125894)
(0.0865599 0.000764608 0.00185567)
(0.0993802 3.37897e-05 5.9112e-05)
(0.0992674 0.000274402 0.00120069)
(0.0989799 0.000432394 0.00188934)
(0.0984733 0.000483437 0.00200667)
(0.0979939 0.000478696 0.00191284)
(0.0975711 0.000464961 0.00172974)
(0.0971844 0.000451453 0.00153831)
(0.0968394 0.000439687 0.00137215)
(0.0965477 0.000432585 0.00124017)
(0.0963063 0.00042516 0.00114806)
(0.0960549 0.000409565 0.00108818)
(0.0957937 0.000387323 0.00103985)
(0.0955257 0.00036526 0.000992035)
(0.0952413 0.000351462 0.000945494)
(0.0949299 0.000353983 0.000904301)
(0.0945782 0.000385298 0.000876723)
(0.0941636 0.000475522 0.00088036)
(0.0936531 0.000625064 0.000939075)
(0.0929995 0.000932276 0.00106542)
(0.0924446 0.0017062 0.00134504)
(0.0993802 -3.37473e-05 5.90563e-05)
(0.0992675 -0.000274191 0.00120064)
(0.09898 -0.000431938 0.00188931)
(0.0984736 -0.00048266 0.0020066)
(0.0979944 -0.00047737 0.00191265)
(0.0975722 -0.000462629 0.00172934)
(0.0971864 -0.000447318 0.0015377)
(0.0968429 -0.000432579 0.00137113)
(0.0965537 -0.000420613 0.00123839)
(0.0963164 -0.00040527 0.00114504)
(0.096072 -0.000376729 0.00108303)
(0.0958229 -0.000333274 0.00103089)
(0.0955751 -0.00027665 0.000976692)
(0.095324 -0.00020621 0.000919378)
(0.0950672 -0.000115921 0.000861352)
(0.0948015 6.04923e-06 0.000809308)
(0.0945248 0.000179213 0.000771322)
(0.0942243 0.000428086 0.00075131)
(0.0938846 0.000790616 0.000754529)
(0.0935801 0.00132765 0.000832929)
(0.0995406 -0.000245009 0.000322053)
(0.0992573 -0.00105541 0.00154174)
(0.0988482 -0.00150177 0.00211485)
(0.098124 -0.00157824 0.00209128)
(0.0973375 -0.00151202 0.00188453)
(0.0965886 -0.00144207 0.00166172)
(0.0958742 -0.00140286 0.00148903)
(0.0952168 -0.0013668 0.00135189)
(0.0946126 -0.00130958 0.00124341)
(0.0940037 -0.00122425 0.00115957)
(0.0934291 -0.00111502 0.00108593)
(0.0928947 -0.000992377 0.00101431)
(0.0923994 -0.000861769 0.000942907)
(0.0919457 -0.000723213 0.000869698)
(0.0915367 -0.000573003 0.000792892)
(0.0911791 -0.000388374 0.000711686)
(0.0908799 -0.000153006 0.000623504)
(0.0906502 0.000168817 0.000532245)
(0.0904812 0.000626292 0.000430032)
(0.0902577 0.00131831 0.000292763)
(0.099413 -0.000345198 0.00027031)
(0.0988662 -0.00201897 0.0018753)
(0.097921 -0.0025728 0.00218933)
(0.0963659 -0.00237929 0.0019083)
(0.0946344 -0.00211284 0.00162562)
(0.0929761 -0.00192371 0.0014146)
(0.0913751 -0.00179546 0.00126118)
(0.0898791 -0.00169553 0.00113978)
(0.088505 -0.00158927 0.00103412)
(0.0872514 -0.00146967 0.000940643)
(0.0861169 -0.00134371 0.000859291)
(0.0850945 -0.00121679 0.000789846)
(0.0841788 -0.00108971 0.000725534)
(0.0833686 -0.000959961 0.000661948)
(0.0826708 -0.000821736 0.00059275)
(0.0821073 -0.000673702 0.000513723)
(0.081712 -0.000507822 0.000419041)
(0.0815418 -0.000249711 0.000236349)
(0.0817254 0.000271004 -6.34433e-05)
(0.0813743 0.00150515 -0.000846359)
(0.0999089 -0.00129698 0.000712627)
(0.0969666 -0.0036559 0.00274757)
(0.093534 -0.00264027 0.00211854)
(0.0895887 -0.00182023 0.00162046)
(0.0858331 -0.00152796 0.00138935)
(0.0825935 -0.00135014 0.00115865)
(0.0798744 -0.00117828 0.00089198)
(0.0775873 -0.00103862 0.00068181)
(0.0755976 -0.000939804 0.000542524)
(0.0738239 -0.000860761 0.000451684)
(0.0722241 -0.000789913 0.000389898)
(0.0707749 -0.000723315 0.000345843)
(0.0694665 -0.000660972 0.000309208)
(0.0682974 -0.000602773 0.000274304)
(0.0672616 -0.000552665 0.000233529)
(0.0663997 -0.000504842 0.000181003)
(0.0657393 -0.000460947 0.000100332)
(0.0654143 -0.000400011 -0.000122339)
(0.0659047 -0.000319369 -0.000448433)
(0.0640367 0.000153464 -0.00131584)
(0.0956456 0.00835997 -0.00835998)
(0.0904935 -0.00152203 0.00152196)
(0.0790674 -0.00242991 0.00242976)
(0.0713002 -0.00148816 0.00148783)
(0.0661791 -0.000831072 0.000830417)
(0.0623242 -0.000563929 0.000562811)
(0.0592254 -0.000428105 0.000425646)
(0.0566951 -0.000327435 0.000323054)
(0.0545707 -0.000258035 0.000250758)
(0.052736 -0.000209276 0.00019743)
(0.0511272 -0.000174551 0.000155402)
(0.0497059 -0.000150716 0.000119871)
(0.0484483 -0.000135848 8.56899e-05)
(0.0473377 -0.000130438 4.85411e-05)
(0.0463606 -0.000137308 1.71857e-05)
(0.0455407 -0.000152018 -2.91742e-05)
(0.0448985 -0.000184558 -0.000124318)
(0.0445198 -0.000251416 -0.000298432)
(0.0449129 -0.000267815 -0.00057218)
(0.0441553 0.00149763 -0.00319338)
(0.0999089 0.000712627 0.00129699)
(0.0969666 0.00274755 0.00365591)
(0.093534 0.00211853 0.00264029)
(0.0895887 0.00162044 0.00182027)
(0.0858331 0.00138932 0.001528)
(0.0825935 0.0011586 0.00135019)
(0.0798743 0.000891932 0.00117834)
(0.0775873 0.000681762 0.0010387)
(0.0755975 0.000542475 0.0009399)
(0.0738238 0.00045164 0.000860878)
(0.0722241 0.00038986 0.000790048)
(0.0707747 0.000345802 0.00072345)
(0.0694663 0.000309159 0.0006611)
(0.0682972 0.000274252 0.000602905)
(0.0672612 0.000233472 0.000552813)
(0.0663992 0.000180967 0.000505059)
(0.0657386 0.000100305 0.000461194)
(0.0654133 -0.000122354 0.000400271)
(0.0659033 -0.000448492 0.000319591)
(0.0640353 -0.00131598 -0.000153259)
(0.100226 0.00072086 0.000720894)
(0.0999599 0.00198278 0.00198293)
(0.0997822 0.00245189 0.00245226)
(0.0987886 0.00241933 0.00241999)
(0.0972763 0.00219992 0.00220092)
(0.0957768 0.00180975 0.00181161)
(0.0943988 0.00137906 0.00138213)
(0.0931765 0.00106464 0.00106986)
(0.0921 0.000845506 0.000854402)
(0.0911522 0.000689128 0.000704047)
(0.0903195 0.000573585 0.000598316)
(0.08959 0.000483014 0.000523946)
(0.0889523 0.000403862 0.000472751)
(0.0883959 0.000329399 0.000441663)
(0.087922 0.000261923 0.000437445)
(0.0875294 0.000162085 0.000453747)
(0.0872274 -1.34113e-05 0.000466347)
(0.0870136 -0.000316336 0.000456122)
(0.0867982 -0.000880851 0.000314877)
(0.0866512 -0.00222501 -0.000475919)
(0.10014 0.000775045 0.000869485)
(0.100454 0.00196247 0.00196425)
(0.100911 0.00242745 0.00233542)
(0.100978 0.00252579 0.0024418)
(0.100694 0.00242416 0.0023365)
(0.100225 0.00219303 0.00210992)
(0.0997111 0.00190853 0.00181661)
(0.0991883 0.00165201 0.00156184)
(0.0986971 0.00144206 0.00136549)
(0.0982543 0.00126422 0.00121235)
(0.0978668 0.00111038 0.00109224)
(0.0975318 0.000973678 0.000997878)
(0.0972424 0.000848471 0.000925862)
(0.0969914 0.000727366 0.000875117)
(0.0967745 0.000599454 0.000846539)
(0.096582 0.000454272 0.000847788)
(0.0964089 0.000271306 0.000888335)
(0.0962416 3.24893e-05 0.000977668)
(0.0960651 -0.000294745 0.00108709)
(0.0961439 -0.000604979 0.00130883)
(0.100093 0.000445948 0.000763493)
(0.100504 0.00119446 0.00174966)
(0.101105 0.00158663 0.00213026)
(0.101634 0.00173986 0.00223475)
(0.101979 0.00178044 0.00228397)
(0.102172 0.00172485 0.00222769)
(0.102254 0.00159981 0.00210004)
(0.102281 0.00144693 0.00193739)
(0.102286 0.00128848 0.00175997)
(0.102277 0.00113445 0.00159197)
(0.102264 0.000994994 0.00145418)
(0.102253 0.000872291 0.0013427)
(0.10224 0.00076141 0.00125014)
(0.10222 0.000658566 0.0011765)
(0.102189 0.000562714 0.0011271)
(0.102134 0.000468641 0.00111402)
(0.102042 0.000374552 0.00115606)
(0.101906 0.000276487 0.00127538)
(0.101725 0.000173374 0.00146883)
(0.101825 0.000119702 0.00171913)
(0.100087 0.00014444 0.000707325)
(0.100477 0.000390615 0.00161848)
(0.101066 0.000541224 0.00203514)
(0.101694 0.000610253 0.00211719)
(0.102269 0.000636166 0.0021469)
(0.102742 0.000626584 0.00217015)
(0.103123 0.000593069 0.0021142)
(0.103426 0.000545993 0.00200993)
(0.103677 0.000498866 0.00188124)
(0.103893 0.000455726 0.00175162)
(0.104085 0.000414369 0.00162746)
(0.10426 0.000374974 0.00150242)
(0.104417 0.000341802 0.00138564)
(0.10455 0.00031896 0.00129184)
(0.104656 0.000309398 0.0012209)
(0.10473 0.000317301 0.00117758)
(0.104764 0.000352146 0.00117512)
(0.104755 0.000420107 0.00121554)
(0.104725 0.000531818 0.00129774)
(0.104892 0.000701281 0.00139863)
(0.100087 -0.00014437 0.000707318)
(0.100477 -0.000390408 0.00161846)
(0.101066 -0.000540869 0.00203514)
(0.101695 -0.000609634 0.0021171)
(0.10227 -0.00063502 0.00214655)
(0.102743 -0.000624561 0.00216947)
(0.103125 -0.000589711 0.00211314)
(0.103429 -0.00054034 0.00200828)
(0.103681 -0.000489014 0.00187876)
(0.103901 -0.000439112 0.00174771)
(0.104099 -0.000387005 0.00162154)
(0.104282 -0.000330407 0.00149232)
(0.104452 -0.000271023 0.00136827)
(0.104607 -0.0002074 0.0012625)
(0.104745 -0.000132806 0.00117152)
(0.104865 -3.93133e-05 0.00109459)
(0.104968 8.38222e-05 0.00103451)
(0.105053 0.000248842 0.00099241)
(0.105133 0.000463066 0.000964644)
(0.105311 0.000714401 0.000950288)
(0.100093 -0.000445938 0.00076348)
(0.100504 -0.00119444 0.00174962)
(0.101105 -0.00158657 0.00213009)
(0.101635 -0.00173971 0.00223417)
(0.10198 -0.00178016 0.00228281)
(0.102174 -0.0017244 0.00222603)
(0.102257 -0.001599 0.00209766)
(0.102288 -0.00144549 0.00193367)
(0.102297 -0.00128606 0.00175422)
(0.102295 -0.00113071 0.00158292)
(0.102294 -0.000988613 0.00143848)
(0.102303 -0.000861838 0.00131595)
(0.102323 -0.000746126 0.00120499)
(0.102352 -0.000633716 0.00110011)
(0.102395 -0.000518345 0.000997472)
(0.102455 -0.000391396 0.000894074)
(0.102533 -0.000239942 0.000784683)
(0.10263 -4.93164e-05 0.000661159)
(0.102747 0.000195797 0.000515447)
(0.102912 0.000503656 0.000352715)
(0.10014 -0.000775079 0.000869439)
(0.100454 -0.00196257 0.00196405)
(0.100911 -0.00242766 0.00233493)
(0.100979 -0.00252623 0.00244098)
(0.100695 -0.00242492 0.00233526)
(0.100227 -0.00219437 0.00210823)
(0.0997139 -0.00191071 0.00181401)
(0.0991931 -0.00165543 0.00155724)
(0.0987058 -0.00144819 0.00135765)
(0.098269 -0.00127474 0.00119942)
(0.0978912 -0.00112781 0.00107078)
(0.0975722 -0.00100161 0.000961926)
(0.0973082 -0.000891145 0.000865811)
(0.0970971 -0.000793252 0.000774626)
(0.0969422 -0.000706119 0.000678367)
(0.0968459 -0.00062109 0.000565043)
(0.0968163 -0.000525916 0.000411076)
(0.0968496 -0.000401478 0.000183408)
(0.0969122 -0.000190057 -0.000168589)
(0.097018 0.000199648 -0.000693878)
(0.100226 -0.000720895 0.000720863)
(0.0999599 -0.00198291 0.00198278)
(0.0997822 -0.00245226 0.00245191)
(0.0987886 -0.00241998 0.00241937)
(0.0972763 -0.00220091 0.00219996)
(0.0957768 -0.00181159 0.00180981)
(0.0943988 -0.00138212 0.00137912)
(0.0931765 -0.00106984 0.0010647)
(0.0921001 -0.000854379 0.000845571)
(0.0911522 -0.000704013 0.000689195)
(0.0903196 -0.000598261 0.000573645)
(0.0895902 -0.000523858 0.000483049)
(0.0889525 -0.000472637 0.000403875)
(0.0883962 -0.000441563 0.000329444)
(0.0879224 -0.000437378 0.000262011)
(0.0875299 -0.000453682 0.000162181)
(0.087228 -0.000466265 -1.33405e-05)
(0.0870144 -0.000456045 -0.000316293)
(0.0867993 -0.00031489 -0.000880851)
(0.0866528 0.00047591 -0.00222526)
(0.0999089 -0.000712644 0.00129697)
(0.0969666 -0.00274766 0.00365577)
(0.0935339 -0.00211874 0.00264008)
(0.0895884 -0.00162086 0.00181987)
(0.0858325 -0.00138993 0.00152714)
(0.0825925 -0.0011597 0.00134878)
(0.0798726 -0.000893718 0.00117567)
(0.077584 -0.000684723 0.00103403)
(0.0755917 -0.000547397 0.000931827)
(0.0738136 -0.000459742 0.000847109)
(0.0722064 -0.000403017 0.0007669)
(0.0707448 -0.000366546 0.00068521)
(0.0694146 -0.00034527 0.000597714)
(0.0682068 -0.000335275 0.000499963)
(0.0671048 -0.000329891 0.000380325)
(0.0661224 -0.000346082 0.000230027)
(0.0652386 -0.000384339 3.02763e-05)
(0.0644495 -0.000404986 -0.000305959)
(0.0639662 -0.000289004 -0.00104834)
(0.0630196 0.00027271 -0.00306029)
(0.099413 0.000270308 0.000345198)
(0.0988662 0.00187529 0.00201898)
(0.097921 0.00218932 0.00257284)
(0.0963659 0.00190828 0.00237933)
(0.0946344 0.00162559 0.00211288)
(0.0929761 0.00141457 0.00192376)
(0.0913751 0.00126114 0.00179552)
(0.089879 0.00113974 0.00169559)
(0.0885049 0.00103408 0.00158934)
(0.0872513 0.000940607 0.00146976)
(0.0861168 0.000859263 0.00134381)
(0.0850944 0.000789822 0.00121691)
(0.0841786 0.000725504 0.00108984)
(0.0833683 0.000661917 0.000960125)
(0.0826704 0.000592743 0.000821972)
(0.0821067 0.000513772 0.000674046)
(0.0817111 0.000419148 0.000508287)
(0.0815405 0.000236522 0.00025041)
(0.0817237 -6.32639e-05 -0.000270152)
(0.0813719 -0.000846249 -0.00150404)
(0.10014 0.000869437 0.000775081)
(0.100454 0.00196404 0.00196258)
(0.100911 0.00233492 0.00242766)
(0.100979 0.00244096 0.00252624)
(0.100695 0.00233523 0.00242493)
(0.100227 0.0021082 0.00219439)
(0.0997139 0.00181398 0.00191072)
(0.0991931 0.00155721 0.00165545)
(0.0987058 0.00135762 0.00144822)
(0.0982689 0.0011994 0.00127478)
(0.0978912 0.00107078 0.00112788)
(0.0975721 0.000961935 0.00100172)
(0.097308 0.000865808 0.000891263)
(0.0970968 0.000774588 0.000793366)
(0.0969419 0.000678336 0.000706253)
(0.0968456 0.000565075 0.000621283)
(0.0968158 0.000411185 0.000526183)
(0.096849 0.000183567 0.000401819)
(0.0969113 -0.000168495 0.000190397)
(0.0970169 -0.000694085 -0.00019943)
(0.10006 0.000641567 0.00064163)
(0.100502 0.00164539 0.0016456)
(0.101149 0.00221264 0.00221304)
(0.101738 0.0024396 0.0024403)
(0.102206 0.00244011 0.00244125)
(0.102502 0.00230931 0.00231113)
(0.102646 0.00208356 0.00208661)
(0.102713 0.00185139 0.00185623)
(0.102736 0.00164084 0.00164878)
(0.102744 0.00145704 0.00147002)
(0.102754 0.00129559 0.00131672)
(0.102773 0.00115087 0.00118507)
(0.102805 0.00101758 0.0010726)
(0.10285 0.000889889 0.000978117)
(0.10291 0.000760895 0.000901788)
(0.102985 0.000619175 0.000842416)
(0.103074 0.000452444 0.000797096)
(0.103172 0.000249523 0.000761012)
(0.103277 3.03504e-06 0.000717995)
(0.10349 -0.00023135 0.000678509)
(0.100046 0.000395817 0.000540488)
(0.10048 0.00104504 0.00138457)
(0.101155 0.00147545 0.00192321)
(0.101914 0.00170497 0.00219176)
(0.102633 0.00177896 0.00229076)
(0.103302 0.00174175 0.00227076)
(0.103891 0.00162792 0.00217143)
(0.104382 0.00147999 0.00202624)
(0.104801 0.00132688 0.00186434)
(0.105165 0.00118111 0.00170577)
(0.105486 0.00104748 0.00155899)
(0.105775 0.000926559 0.00142658)
(0.106037 0.000816288 0.00131)
(0.106277 0.000713447 0.001211)
(0.106494 0.000614859 0.00113266)
(0.106693 0.000516537 0.00107933)
(0.106875 0.000410161 0.0010583)
(0.107043 0.000296673 0.00106904)
(0.107211 0.00017414 0.00110198)
(0.107474 6.73916e-05 0.00114339)
(0.100039 0.00013139 0.000478958)
(0.100449 0.000350607 0.00123506)
(0.101115 0.000505189 0.00174632)
(0.101911 0.000597187 0.00202526)
(0.10273 0.000638185 0.00214771)
(0.10353 0.00063728 0.0021768)
(0.104296 0.000602928 0.00213536)
(0.104999 0.000556991 0.00204959)
(0.105623 0.00050622 0.00193271)
(0.10618 0.000455269 0.00179889)
(0.106679 0.000408142 0.00166505)
(0.107127 0.000366254 0.00153657)
(0.107527 0.000330041 0.00141708)
(0.107886 0.000299428 0.00131028)
(0.108207 0.000274764 0.0012196)
(0.108492 0.000257107 0.00114887)
(0.108749 0.000245913 0.00110171)
(0.108978 0.000243156 0.00108288)
(0.109193 0.000248861 0.0010794)
(0.109483 0.000267614 0.00108832)
(0.100039 -0.000131342 0.000478936)
(0.100449 -0.000350484 0.00123499)
(0.101115 -0.000504975 0.00174619)
(0.101911 -0.000596829 0.00202502)
(0.10273 -0.000637566 0.00214724)
(0.103531 -0.000636261 0.00217603)
(0.104297 -0.000601195 0.00213419)
(0.105001 -0.000554261 0.00204777)
(0.105626 -0.00050173 0.00192975)
(0.106185 -0.000447864 0.00179414)
(0.106687 -0.000396124 0.0016574)
(0.107139 -0.000347119 0.00152424)
(0.107546 -0.000300048 0.00139716)
(0.107914 -0.000252912 0.00127838)
(0.10825 -0.000203156 0.00116909)
(0.108556 -0.000147588 0.00107014)
(0.108836 -8.1622e-05 0.000982168)
(0.109094 -3.61373e-06 0.000904566)
(0.109343 9.06557e-05 0.000835207)
(0.109635 0.000193155 0.000779047)
(0.100046 -0.000395833 0.000540431)
(0.10048 -0.00104509 0.0013844)
(0.101155 -0.00147554 0.00192286)
(0.101914 -0.00170508 0.00219112)
(0.102634 -0.00177915 0.00228965)
(0.103303 -0.00174205 0.00226886)
(0.103893 -0.00162868 0.00216868)
(0.104386 -0.00148133 0.00202192)
(0.104806 -0.00132876 0.00185755)
(0.105173 -0.00118393 0.00169479)
(0.105499 -0.00105184 0.00154099)
(0.105796 -0.000933417 0.00139718)
(0.106071 -0.000827579 0.00126174)
(0.106328 -0.000731557 0.00113256)
(0.106573 -0.000642153 0.0010069)
(0.106809 -0.000555625 0.000880695)
(0.107038 -0.00046732 0.000749446)
(0.107263 -0.00037166 0.000609375)
(0.107494 -0.000261238 0.000460751)
(0.107771 -0.000136025 0.000327812)
(0.10006 -0.000641628 0.000641567)
(0.100502 -0.00164559 0.0016454)
(0.101149 -0.00221304 0.00221265)
(0.101738 -0.00244031 0.00243961)
(0.102206 -0.00244126 0.00244012)
(0.102502 -0.00231114 0.00230932)
(0.102646 -0.00208662 0.00208357)
(0.102713 -0.00185624 0.00185139)
(0.102736 -0.00164878 0.00164084)
(0.102744 -0.00147001 0.00145703)
(0.102754 -0.00131669 0.00129556)
(0.102774 -0.00118498 0.0011508)
(0.102805 -0.00107247 0.00101749)
(0.102851 -0.000978009 0.000889811)
(0.10291 -0.000901697 0.000760829)
(0.102985 -0.000842295 0.000619066)
(0.103074 -0.000796923 0.000452269)
(0.103173 -0.000760782 0.00024928)
(0.103278 -0.000717749 2.79252e-06)
(0.10349 -0.000678289 -0.000231453)
(0.10014 -0.000869482 0.000775044)
(0.100454 -0.00196425 0.00196247)
(0.100911 -0.00233541 0.00242746)
(0.100978 -0.0024418 0.00252581)
(0.100694 -0.0023365 0.00242419)
(0.100225 -0.00210993 0.00219306)
(0.0997111 -0.00181662 0.00190856)
(0.0991883 -0.00156185 0.00165203)
(0.0986972 -0.0013655 0.00144208)
(0.0982543 -0.00121235 0.00126423)
(0.0978668 -0.00109222 0.00111038)
(0.0975318 -0.000997823 0.000973655)
(0.0972426 -0.000925765 0.000848411)
(0.0969916 -0.000875024 0.000727303)
(0.0967747 -0.000846481 0.000599413)
(0.0965823 -0.000847729 0.00045422)
(0.0964093 -0.000888266 0.000271215)
(0.0962421 -0.000977606 3.23388e-05)
(0.0960658 -0.00108708 -0.000294944)
(0.0961448 -0.00130883 -0.000605299)
(0.0994131 -0.000270315 0.000345181)
(0.0988662 -0.00187537 0.0020189)
(0.0979207 -0.00218957 0.00257266)
(0.0963652 -0.0019087 0.002379)
(0.0946331 -0.00162618 0.00211235)
(0.0929735 -0.00141546 0.00192289)
(0.0913704 -0.00126262 0.00179421)
(0.0898708 -0.00114216 0.00169338)
(0.0884908 -0.00103801 0.00158558)
(0.0872274 -0.000947071 0.00146348)
(0.0860773 -0.000870003 0.00133363)
(0.0850287 -0.000806814 0.00120068)
(0.0840681 -0.000754865 0.0010646)
(0.0831817 -0.000713347 0.000921888)
(0.0823536 -0.000685746 0.000766166)
(0.0815645 -0.000683923 0.000593874)
(0.0807782 -0.000729243 0.000396723)
(0.079904 -0.000842146 0.000121517)
(0.07887 -0.000960935 -0.000357713)
(0.0777443 -0.00256685 -0.000457202)
(0.0995406 0.000322052 0.00024501)
(0.0992573 0.00154174 0.00105542)
(0.0988482 0.00211484 0.0015018)
(0.098124 0.00209127 0.00157828)
(0.0973375 0.00188452 0.00151207)
(0.0965886 0.00166171 0.00144213)
(0.0958742 0.00148902 0.00140294)
(0.0952168 0.00135188 0.00136689)
(0.0946126 0.00124341 0.00130968)
(0.0940037 0.00115959 0.00122438)
(0.0934291 0.00108596 0.00111518)
(0.0928945 0.00101436 0.000992579)
(0.0923992 0.000943004 0.000862031)
(0.0919453 0.000869829 0.000723548)
(0.0915362 0.00079304 0.000573396)
(0.0911785 0.000711852 0.00038892)
(0.0908791 0.00062369 0.000153675)
(0.0906492 0.000532432 -0.000168005)
(0.0904799 0.000430274 -0.000625282)
(0.0902562 0.000293032 -0.00131697)
(0.100093 0.000763478 0.00044594)
(0.100504 0.00174961 0.00119445)
(0.101105 0.00213008 0.00158659)
(0.101635 0.00223416 0.00173972)
(0.10198 0.00228281 0.00178017)
(0.102174 0.00222603 0.00172442)
(0.102257 0.00209766 0.00159902)
(0.102288 0.00193367 0.00144552)
(0.102297 0.00175424 0.0012861)
(0.102295 0.00158294 0.00113077)
(0.102294 0.00143852 0.000988698)
(0.102303 0.00131601 0.000861954)
(0.102323 0.00120501 0.00074624)
(0.102352 0.00110014 0.00063385)
(0.102395 0.000997613 0.000518573)
(0.102455 0.000894296 0.000391729)
(0.102533 0.000784957 0.000240381)
(0.10263 0.000661471 4.98746e-05)
(0.102746 0.000515748 -0.000195138)
(0.102911 0.000352864 -0.000502973)
(0.100046 0.000540432 0.000395834)
(0.10048 0.00138439 0.0010451)
(0.101155 0.00192286 0.00147554)
(0.101914 0.00219112 0.00170508)
(0.102634 0.00228964 0.00177914)
(0.103303 0.00226886 0.00174204)
(0.103893 0.00216869 0.00162867)
(0.104386 0.00202194 0.00148133)
(0.104806 0.00185758 0.00132877)
(0.105173 0.00169483 0.00118395)
(0.105499 0.00154104 0.00105189)
(0.105796 0.00139726 0.000933499)
(0.106071 0.00126183 0.00082769)
(0.106328 0.00113265 0.000731663)
(0.106573 0.00100702 0.000642269)
(0.106809 0.000880884 0.000555788)
(0.107038 0.000749694 0.000467539)
(0.107263 0.000609658 0.000371924)
(0.107494 0.00046098 0.000261477)
(0.107772 0.000327835 0.000136107)
(0.100036 0.000323142 0.000323183)
(0.100429 0.00086853 0.000868653)
(0.10108 0.00126181 0.00126204)
(0.101891 0.00150287 0.00150327)
(0.102756 0.00161853 0.00161918)
(0.103614 0.00163678 0.00163781)
(0.104441 0.00159378 0.00159537)
(0.10521 0.00150768 0.00151013)
(0.105912 0.00139729 0.00140113)
(0.106547 0.00127777 0.00128387)
(0.107122 0.00115873 0.00116844)
(0.107643 0.00104467 0.00106013)
(0.108117 0.00093689 0.000961341)
(0.108549 0.000835 0.00087311)
(0.108945 0.000737755 0.000795843)
(0.109308 0.000643651 0.000729472)
(0.109645 0.00054828 0.000674304)
(0.109962 0.000449362 0.000628544)
(0.110274 0.000349281 0.00058391)
(0.110615 0.00026168 0.000531107)
(0.100031 0.000107072 0.000281346)
(0.100395 0.000292972 0.000768365)
(0.101024 0.000433831 0.00113223)
(0.101843 0.000525624 0.0013672)
(0.10275 0.000575079 0.00149738)
(0.103684 0.000589352 0.00154689)
(0.104608 0.000578326 0.00153709)
(0.105498 0.000551205 0.0014888)
(0.106335 0.000513941 0.0014139)
(0.107109 0.000472204 0.00132196)
(0.107818 0.000429873 0.00122294)
(0.108464 0.000389041 0.00112382)
(0.109051 0.000350608 0.00102923)
(0.109583 0.000314816 0.000942337)
(0.110067 0.000281539 0.000865041)
(0.110506 0.000250324 0.000798245)
(0.110905 0.000220185 0.000742375)
(0.111271 0.000191377 0.000698229)
(0.11162 0.000163579 0.000660309)
(0.111991 0.000146197 0.000622215)
(0.100031 -0.000107066 0.000281325)
(0.100395 -0.000292967 0.000768303)
(0.101024 -0.000433834 0.00113211)
(0.101843 -0.000525634 0.00136697)
(0.10275 -0.000575102 0.00149699)
(0.103685 -0.000589404 0.0015463)
(0.104609 -0.000578414 0.00153627)
(0.105499 -0.000551254 0.00148755)
(0.106336 -0.000513874 0.0014119)
(0.10711 -0.000471984 0.0013188)
(0.10782 -0.000429446 0.00121796)
(0.108467 -0.000388329 0.00111598)
(0.109056 -0.000349493 0.00101698)
(0.109591 -0.000313082 0.000923429)
(0.110077 -0.000278737 0.000836424)
(0.110521 -0.000245638 0.000756139)
(0.110927 -0.000212466 0.000682156)
(0.1113 -0.00017676 0.000613702)
(0.111656 -0.000135459 0.000550676)
(0.112025 -9.27256e-05 0.000497757)
(0.100036 -0.000323182 0.000323141)
(0.100429 -0.000868651 0.00086853)
(0.10108 -0.00126205 0.00126181)
(0.101891 -0.00150328 0.00150288)
(0.102756 -0.0016192 0.00161854)
(0.103614 -0.00163783 0.00163679)
(0.104441 -0.00159539 0.00159378)
(0.10521 -0.00151015 0.00150767)
(0.105912 -0.00140114 0.00139727)
(0.106547 -0.00128386 0.00127775)
(0.107122 -0.00116842 0.00115868)
(0.107643 -0.00106008 0.0010446)
(0.108117 -0.000961262 0.00093681)
(0.108549 -0.000873045 0.000834923)
(0.108945 -0.000795791 0.000737658)
(0.109308 -0.000729405 0.000643518)
(0.109645 -0.000674216 0.000548124)
(0.109962 -0.000628442 0.000449218)
(0.110274 -0.000583842 0.000349227)
(0.110614 -0.000531155 0.000261826)
(0.100046 -0.000540487 0.000395816)
(0.10048 -0.00138457 0.00104504)
(0.101155 -0.00192321 0.00147545)
(0.101914 -0.00219176 0.00170498)
(0.102633 -0.00229077 0.00177896)
(0.103302 -0.00227078 0.00174176)
(0.103891 -0.00217146 0.00162793)
(0.104382 -0.00202626 0.00148)
(0.104801 -0.00186436 0.00132688)
(0.105165 -0.00170578 0.00118109)
(0.105486 -0.00155897 0.00104745)
(0.105775 -0.00142653 0.000926501)
(0.106037 -0.00130992 0.000816208)
(0.106277 -0.00121094 0.000713373)
(0.106495 -0.00113261 0.000614776)
(0.106693 -0.00107924 0.000516413)
(0.106875 -0.00105815 0.000409987)
(0.107043 -0.00106883 0.000296455)
(0.107211 -0.00110172 0.000173927)
(0.107473 -0.0011431 6.72804e-05)
(0.100093 -0.000763491 0.000445946)
(0.100504 -0.00174966 0.00119446)
(0.101105 -0.00213026 0.00158663)
(0.101634 -0.00223475 0.00173987)
(0.101979 -0.00228398 0.00178044)
(0.102172 -0.00222771 0.00172486)
(0.102254 -0.00210007 0.00159982)
(0.102281 -0.00193741 0.00144694)
(0.102286 -0.00176 0.00128849)
(0.102277 -0.00159199 0.00113445)
(0.102264 -0.00145419 0.000994985)
(0.102254 -0.00134269 0.000872265)
(0.10224 -0.0012501 0.000761355)
(0.102221 -0.00117647 0.000658505)
(0.10219 -0.00112709 0.000562646)
(0.102134 -0.00111397 0.000468537)
(0.102042 -0.00115598 0.000374397)
(0.101906 -0.00127528 0.000276262)
(0.101726 -0.00146872 0.00017308)
(0.101826 -0.00171884 0.000119305)
(0.0995406 -0.000322052 0.000245026)
(0.0992572 -0.00154174 0.0010555)
(0.0988479 -0.00211497 0.00150194)
(0.0981234 -0.00209149 0.00157853)
(0.0973361 -0.00188487 0.00151266)
(0.0965859 -0.00166226 0.00144336)
(0.0958694 -0.00148971 0.00140514)
(0.0952086 -0.001353 0.00137058)
(0.0945981 -0.00124627 0.00131568)
(0.0939789 -0.00116485 0.0012338)
(0.0933873 -0.00109505 0.00113015)
(0.0928242 -0.00103066 0.00101629)
(0.0922816 -0.000970218 0.000901128)
(0.0917491 -0.000915784 0.000789076)
(0.0912098 -0.000873746 0.000683111)
(0.0906362 -0.000856139 0.000580872)
(0.0899744 -0.000894593 0.000496169)
(0.0891127 -0.00103604 0.000439869)
(0.0879176 -0.0012591 0.000426965)
(0.0865605 -0.00185522 0.000764232)
(0.0993802 5.90478e-05 3.37502e-05)
(0.0992675 0.00120065 0.000274207)
(0.09898 0.00188931 0.000431976)
(0.0984736 0.00200659 0.000482706)
(0.0979945 0.00191265 0.000477424)
(0.0975722 0.00172934 0.000462694)
(0.0971864 0.00153771 0.000447394)
(0.0968429 0.00137115 0.000432668)
(0.0965537 0.00123842 0.000420718)
(0.0963164 0.00114507 0.000405396)
(0.096072 0.00108307 0.000376883)
(0.0958229 0.00103095 0.00033347)
(0.095575 0.000976783 0.000276912)
(0.0953239 0.000919503 0.00020655)
(0.0950671 0.000861501 0.000116327)
(0.0948014 0.000809465 -5.57868e-06)
(0.0945246 0.000771479 -0.000178656)
(0.0942241 0.000751477 -0.000427415)
(0.0938843 0.000754718 -0.000789784)
(0.0935798 0.000833126 -0.00132661)
(0.100087 0.000707317 0.000144374)
(0.100477 0.00161846 0.00039042)
(0.101066 0.00203514 0.000540884)
(0.101695 0.0021171 0.000609648)
(0.10227 0.00214655 0.000635036)
(0.102743 0.00216949 0.000624582)
(0.103125 0.00211316 0.000589738)
(0.103429 0.0020083 0.000540376)
(0.103681 0.00187879 0.000489064)
(0.103901 0.00174774 0.00043918)
(0.104099 0.00162159 0.000387097)
(0.104282 0.00149239 0.000330531)
(0.104452 0.00136839 0.000271187)
(0.104607 0.00126265 0.000207607)
(0.104745 0.00117167 0.000133071)
(0.104865 0.00109475 3.96551e-05)
(0.104968 0.0010347 -8.33885e-05)