/*--------------------------------*- C++ -*----------------------------------*\
| =========                 |                                                 |
| \\      /  F ield         | OpenFOAM: The Open Source CFD Toolbox           |
|  \\    /   O peration     | Version:  2212                                  |
|   \\  /    A nd           | Website:  www.openfoam.com                      |
|    \\/     M anipulation  |                                                 |
\*---------------------------------------------------------------------------*/
FoamFile
{
    version     2.0;
    format      ascii;
    arch        "LSB;label=32;scalar=64";
    class       surfaceVectorField;
    location    "0.4";
    object      Uf;
}
// * * * * * * * * * * * * * * * * * * * * * * * * * * * * * * * * * * * * * //

dimensions      [0 1 -1 0 0 0 0];

internalField   nonuniform List<vector> 
19019
(
(0.099344 -0.00341901 -0.00341896)
(0.0973537 0.00106247 -0.00148422)
(0.0973537 -0.00148423 0.00106248)
(0.0834789 0.00197584 0.00197599)
(0.0930869 0.00326889 0.00253366)
(0.0930869 0.00253356 0.00326901)
(0.0745165 0.00195876 0.00195906)
(0.0848632 0.0016357 0.0017927)
(0.0848633 0.0017925 0.00163593)
(0.0685468 0.00115908 0.00115965)
(0.0786272 0.00107327 0.0012218)
(0.0786273 0.0012214 0.0010737)
(0.0642363 0.000696556 0.000697537)
(0.074053 0.000784623 0.000865394)
(0.0740532 0.000864745 0.00078549)
(0.0607601 0.000494155 0.000496061)
(0.0704445 0.000649228 0.000669337)
(0.0704449 0.000668233 0.000650648)
(0.0579444 0.000374258 0.000377822)
(0.0674975 0.000544766 0.000508874)
(0.0674982 0.000506735 0.000547634)
(0.0556286 0.000286809 0.000292799)
(0.065064 0.000465391 0.000387495)
(0.0650653 0.000383847 0.000470441)
(0.0536528 0.000223992 0.000233727)
(0.0629925 0.000409321 0.000307356)
(0.0629948 0.000301405 0.000417876)
(0.0519312 0.000176307 0.000191987)
(0.0611805 0.000362506 0.000254163)
(0.0611846 0.000244582 0.000376765)
(0.0504164 0.000137533 0.000162716)
(0.0595723 0.000318522 0.000218418)
(0.0595794 0.000203087 0.000342054)
(0.0490763 0.000102688 0.000143369)
(0.0581348 0.000274739 0.000195503)
(0.0581469 0.000171228 0.000313225)
(0.0478908 6.70213e-05 0.00013322)
(0.056848 0.000228027 0.000183213)
(0.0568688 0.000142934 0.000291103)
(0.0468516 3.27727e-05 0.000133943)
(0.0556985 0.000173632 0.000180066)
(0.0557348 0.000113805 0.000276748)
(0.0459508 -6.08181e-06 0.000144753)
(0.0546713 0.000109257 0.000183399)
(0.054734 8.56722e-05 0.000272774)
(0.0452068 -7.68357e-05 0.000168391)
(0.0537861 2.33803e-05 0.00019997)
(0.0538972 4.60638e-05 0.000278278)
(0.0446619 -0.000211446 0.000218065)
(0.053047 -0.000107785 0.000238216)
(0.0532476 -2.59083e-05 0.00030996)
(0.044528 -0.000435326 0.00025967)
(0.0525037 -0.000364071 0.000276439)
(0.0528901 -0.000182291 0.00038928)
(0.0454181 -0.00188273 -0.000614941)
(0.0525455 -0.000889449 0.000202424)
(0.0533219 -0.000411622 0.000478784)
(0.0517119 -0.00362097 -0.00128779)
(0.0521193 -0.00223943 -0.000613402)
(0.0984571 0.00247637 0.00173015)
(0.0996872 0.000439186 0.00034557)
(0.100049 0.00105639 0.000751069)
(0.0958344 0.00314791 0.0024332)
(0.0978159 0.00273262 0.00228273)
(0.0982935 0.00280917 0.00216184)
(0.0914492 0.00222995 0.0018698)
(0.0954952 0.00300136 0.00230374)
(0.0963035 0.00244255 0.00199837)
(0.0875948 0.00167347 0.00150539)
(0.0926183 0.0022986 0.00183917)
(0.0936665 0.00198021 0.00172742)
(0.0841491 0.00143792 0.0012748)
(0.0897672 0.00189016 0.00153527)
(0.0909052 0.00171833 0.00149788)
(0.0811928 0.00126218 0.0010267)
(0.0872339 0.00165324 0.00129277)
(0.0884367 0.00145232 0.00121179)
(0.0787134 0.00110478 0.000789212)
(0.0850132 0.00148679 0.0010722)
(0.0863115 0.0011799 0.000908305)
(0.0765821 0.000982846 0.000616051)
(0.0830774 0.0013626 0.000902485)
(0.0844956 0.000976986 0.000689555)
(0.0746992 0.000889373 0.000503564)
(0.0813588 0.00126316 0.000782059)
(0.0829093 0.000835375 0.000546822)
(0.0730078 0.000806904 0.000431385)
(0.0798109 0.00116754 0.000695222)
(0.0814992 0.000728478 0.000453919)
(0.0714746 0.000725953 0.000384797)
(0.078408 0.00106854 0.000630747)
(0.0802353 0.000640419 0.000393844)
(0.0700796 0.000641364 0.000355926)
(0.077131 0.000964666 0.000582626)
(0.0790982 0.00056147 0.000356276)
(0.0688107 0.000548756 0.000340298)
(0.075966 0.000853626 0.000546922)
(0.0780749 0.000483699 0.00033589)
(0.0676578 0.000440065 0.000332619)
(0.0749019 0.000732334 0.000521492)
(0.0771558 0.000402715 0.000331674)
(0.0666152 0.000305086 0.000338026)
(0.0739223 0.000593254 0.000504885)
(0.0763322 0.00031416 0.00034554)
(0.0656726 0.000130075 0.000365245)
(0.0730261 0.000429263 0.000511517)
(0.0756111 0.000196497 0.000385929)
(0.0648272 -0.000137846 0.000394676)
(0.0721859 0.000227629 0.00055172)
(0.0749851 2.26704e-05 0.000448426)
(0.0641384 -0.000677039 0.000346942)
(0.0713586 -8.96352e-05 0.000610275)
(0.074451 -0.000279681 0.000500165)
(0.0639823 -0.00205396 8.04573e-06)
(0.070629 -0.000732634 0.000591952)
(0.0740864 -0.00094361 0.000371856)
(0.0696021 -0.00187741 0.00100402)
(0.073494 -0.00269874 -0.000383984)
(0.0993752 0.00118204 0.00107285)
(0.099473 0.000349717 0.000307174)
(0.0997475 0.000610969 0.000780037)
(0.0984943 0.00229578 0.00203248)
(0.0990501 0.00157664 0.00172109)
(0.0995969 0.00201826 0.00200347)
(0.0971404 0.00247582 0.00204915)
(0.0983568 0.00213066 0.00216943)
(0.0992968 0.00246125 0.0021032)
(0.0954386 0.00224566 0.00176744)
(0.0971921 0.00203499 0.00200256)
(0.0984878 0.00237367 0.00190318)
(0.0937507 0.00201761 0.00152082)
(0.0959044 0.00185378 0.00175355)
(0.0974221 0.00217899 0.00168855)
(0.0921412 0.00185854 0.00133903)
(0.0946726 0.00172943 0.00153932)
(0.0963104 0.0019806 0.0015058)
(0.090612 0.00174379 0.00120238)
(0.0934865 0.00164733 0.00137818)
(0.0952083 0.00179401 0.0013358)
(0.0891757 0.00163947 0.00109008)
(0.0923814 0.00156852 0.00124786)
(0.0941581 0.00163191 0.00118921)
(0.0878537 0.00152451 0.000992542)
(0.0913634 0.00146632 0.00113782)
(0.0931871 0.00148499 0.00106982)
(0.0866497 0.00139854 0.000908544)
(0.090403 0.00134623 0.00104726)
(0.0923013 0.00134384 0.000972962)
(0.0855524 0.00126714 0.000838427)
(0.0895155 0.00122165 0.000971908)
(0.0915021 0.00120862 0.000895625)
(0.0845489 0.00113263 0.00078087)
(0.0886953 0.00109531 0.00090759)
(0.0907818 0.00107877 0.000834691)
(0.0836263 0.000993256 0.000734149)
(0.0879312 0.000967512 0.000851278)
(0.0901301 0.000951854 0.000787799)
(0.0827706 0.00084406 0.0006996)
(0.0872113 0.000837297 0.000803226)
(0.089536 0.000822855 0.000754986)
(0.081963 0.000680082 0.000684905)
(0.086519 0.000701746 0.000768059)
(0.0889891 0.00068352 0.000739255)
(0.0811768 0.000495406 0.00070667)
(0.0858311 0.000555034 0.000757041)
(0.0884745 0.000528419 0.00075503)
(0.0803624 0.000259306 0.000785761)
(0.0851033 0.000394857 0.000795273)
(0.0879703 0.000345388 0.000824187)
(0.0794184 -0.000117813 0.000901523)
(0.0842349 0.000195114 0.000914861)
(0.0874213 9.88812e-05 0.00096718)
(0.0781545 -0.000407047 0.00176381)
(0.0831251 -9.14474e-05 0.00107606)
(0.0867819 -0.00029009 0.00115135)
(0.0818904 -3.13822e-05 0.00219613)
(0.0862104 -0.000451977 0.00223907)
(0.0996491 0.000650267 0.000931902)
(0.0994626 0.000129414 0.000192662)
(0.0997993 0.000375134 0.00074157)
(0.0990847 0.00127873 0.00182836)
(0.0992622 0.000636949 0.00137137)
(0.0998406 0.00115033 0.00181491)
(0.098448 0.00154024 0.00210324)
(0.0989121 0.000973342 0.00200425)
(0.0999042 0.00153625 0.00209066)
(0.0977063 0.0015456 0.00198818)
(0.0982936 0.00104965 0.00205067)
(0.0997663 0.00163106 0.00202294)
(0.0969389 0.00147802 0.00177356)
(0.097656 0.00100656 0.00189811)
(0.0995088 0.00160784 0.00189375)
(0.0962096 0.00142426 0.00157598)
(0.097065 0.000958648 0.00169406)
(0.0992002 0.00154453 0.00174641)
(0.0955296 0.00138787 0.00142134)
(0.096509 0.000930206 0.00151206)
(0.0988572 0.00146909 0.00161501)
(0.0948917 0.00134314 0.00129961)
(0.0960018 0.000910842 0.0013615)
(0.0985186 0.00138383 0.00149376)
(0.0942781 0.00127475 0.00120554)
(0.0955464 0.000891676 0.00124393)
(0.098196 0.001285 0.00138072)
(0.0936816 0.00118198 0.00112993)
(0.0951109 0.000855374 0.0011584)
(0.0978622 0.00117327 0.00128183)
(0.0931074 0.00107323 0.00106284)
(0.0946848 0.000793759 0.00109333)
(0.0975417 0.00105593 0.00119837)
(0.0925551 0.00095872 0.00100043)
(0.0942685 0.000721306 0.0010364)
(0.097237 0.000940319 0.00112602)
(0.0920184 0.000845124 0.000943008)
(0.0938595 0.000650088 0.000981946)
(0.096942 0.00082906 0.00106174)
(0.0914844 0.000736139 0.000894788)
(0.0934477 0.000586513 0.000931437)
(0.0966495 0.000722978 0.00100808)
(0.0909304 0.000632076 0.00086499)
(0.0930192 0.000536306 0.000890165)
(0.0963481 0.000623316 0.000971786)
(0.0903179 0.00053866 0.000875439)
(0.0925535 0.000506292 0.000868564)
(0.0960171 0.000526766 0.000967175)
(0.0895713 0.000468223 0.000965374)
(0.0920119 0.00052254 0.000891933)
(0.0956216 0.000440675 0.00102486)
(0.0885632 0.000433683 0.00114751)
(0.091321 0.000600746 0.000997103)
(0.0950996 0.000370061 0.0011866)
(0.0870762 0.000595934 0.0015573)
(0.0903893 0.000820113 0.00118191)
(0.0943792 0.000325118 0.00145559)
(0.0894223 0.00152549 0.00164248)
(0.0937041 0.000526225 0.00216614)
(0.0996724 0.000154096 0.000629903)
(0.0993802 2.06194e-08 5.90842e-05)
(0.0997132 0.000103958 0.000688166)
(0.0991586 0.000353398 0.00154502)
(0.0992675 1.03943e-07 0.00120067)
(0.0998375 0.000341721 0.00162296)
(0.0986627 0.000457916 0.001948)
(0.0989799 2.4314e-07 0.00188933)
(0.0999628 0.000485574 0.00199205)
(0.0982109 0.000481067 0.00195976)
(0.0984734 4.2289e-07 0.00200663)
(0.0999913 0.000539732 0.00199652)
(0.0977755 0.000471828 0.00182129)
(0.0979942 7.14847e-07 0.00191275)
(0.100009 0.000546519 0.00190855)
(0.0973643 0.000458207 0.00163403)
(0.0975716 1.23434e-06 0.00172954)
(0.100008 0.000533335 0.00179745)
(0.0970007 0.00044557 0.00145523)
(0.0971854 2.16102e-06 0.001538)
(0.0999831 0.00051039 0.00166969)
(0.0966877 0.000436136 0.00130616)
(0.0968412 3.69496e-06 0.00137164)
(0.0999435 0.000482898 0.00154911)
(0.0964191 0.000428872 0.00119411)
(0.0965507 6.23506e-06 0.00123928)
(0.0999071 0.000458222 0.00144178)
(0.0961728 0.000417362 0.00111812)
(0.0963113 1.04013e-05 0.00114655)
(0.0998816 0.000435298 0.0013559)
(0.0959235 0.000398444 0.00106401)
(0.0960635 1.72344e-05 0.0010856)
(0.0998392 0.000408747 0.001287)
(0.0956625 0.000376292 0.00101594)
(0.0958083 2.83551e-05 0.00103537)
(0.0997835 0.000379306 0.00121838)
(0.0953869 0.000358361 0.000968765)
(0.0955504 4.64688e-05 0.000984364)
(0.0997157 0.000352608 0.00114883)
(0.0950892 0.000352723 0.000924897)
(0.0952827 7.61614e-05 0.000932436)
(0.099628 0.00033498 0.00108778)
(0.0947586 0.00036964 0.000890512)
(0.0949986 0.000124644 0.000882826)
(0.0995134 0.000332168 0.00103905)
(0.0943768 0.00043041 0.000878542)
(0.0946898 0.000204455 0.000843016)
(0.0993623 0.000352802 0.00101038)
(0.0939162 0.000550293 0.000909717)
(0.0943442 0.000339905 0.000825841)
(0.0991588 0.000417419 0.00101992)
(0.093343 0.00077867 0.00100225)
(0.0939387 0.000543866 0.000845192)
(0.0988847 0.000529352 0.00108502)
(0.0926272 0.00131924 0.00120523)
(0.0934421 0.000878444 0.000909974)
(0.0985251 0.000745615 0.00121171)
(0.0930124 0.00151671 0.00108898)
(0.0983102 0.0012367 0.00144315)
(0.0996724 -0.000153969 0.000629848)
(0.0994625 -0.000129367 0.000192632)
(0.0997132 -0.000103904 0.000688164)
(0.0991587 -0.000353065 0.00154498)
(0.0992622 -0.000636775 0.00137134)
(0.0998375 -0.000341513 0.00162294)
(0.0986628 -0.000457299 0.00194796)
(0.0989123 -0.000973014 0.00200418)
(0.0999629 -0.000485167 0.00199206)
(0.0982113 -0.000480015 0.00195962)
(0.098294 -0.00104911 0.00205053)
(0.0999915 -0.00053903 0.00199647)
(0.0977763 -0.00047 0.00182099)
(0.097657 -0.00100558 0.00189784)
(0.100009 -0.000545281 0.00190833)
(0.0973658 -0.000454974 0.00163352)
(0.097067 -0.000956825 0.00169358)
(0.100009 -0.000531152 0.00179697)
(0.0970034 -0.000439948 0.00145441)
(0.0965125 -0.000926916 0.0015114)
(0.0999849 -0.000506627 0.00166897)
(0.0966923 -0.000426596 0.00130476)
(0.0960078 -0.000905169 0.00136041)
(0.0999468 -0.000476485 0.00154796)
(0.096427 -0.000412941 0.00119171)
(0.0955568 -0.000882228 0.00124155)
(0.0999126 -0.000447263 0.00143993)
(0.0961863 -0.000390999 0.00111403)
(0.0951286 -0.000839999 0.00115414)
(0.0998907 -0.000416976 0.0013529)
(0.0959463 -0.000355001 0.00105696)
(0.0947147 -0.000768755 0.00108601)
(0.0998546 -0.000378531 0.00128221)
(0.0957011 -0.000304962 0.00100379)
(0.094319 -0.000680612 0.0010234)
(0.0998092 -0.000329791 0.00121006)
(0.0954518 -0.00024143 0.000948035)
(0.0939441 -0.00058311 0.000960031)
(0.0997584 -0.000272499 0.0011343)
(0.0951972 -0.000161065 0.000890365)
(0.0935889 -0.000475734 0.000894327)
(0.0996984 -0.000205736 0.00106249)
(0.0949365 -5.4936e-05 0.00083533)
(0.093254 -0.000352776 0.000826436)
(0.0996276 -0.000123244 0.00099613)
(0.0946644 9.2631e-05 0.000790315)
(0.0929411 -0.000197284 0.000759259)
(0.0995439 -1.50835e-05 0.000939365)
(0.0943771 0.00030365 0.000761316)
(0.0926528 6.98869e-06 0.00069559)
(0.0994461 0.000134044 0.000899249)
(0.0940635 0.000609351 0.00075292)
(0.0923887 0.000283061 0.000640179)
(0.0993274 0.000342815 0.000879353)
(0.0937308 0.00105913 0.000793729)
(0.0921366 0.000664308 0.00059274)
(0.0991851 0.000634777 0.000880179)
(0.0918737 0.00120082 0.000569682)
(0.0991082 0.00103611 0.000934069)
(0.0996491 -0.00065021 0.000931899)
(0.099473 -0.000349718 0.00030717)
(0.0997993 -0.00037512 0.000741571)
(0.0990849 -0.00127859 0.0018283)
(0.0990501 -0.00157664 0.00172105)
(0.0998407 -0.00115027 0.0018149)
(0.0984484 -0.00154 0.00210307)
(0.0983571 -0.00213067 0.00216924)
(0.0999044 -0.00153613 0.00209055)
(0.0977073 -0.00154513 0.0019879)
(0.0971928 -0.00203502 0.00200225)
(0.0997669 -0.00163084 0.00202261)
(0.0969409 -0.00147704 0.00177312)
(0.0959058 -0.00185372 0.00175309)
(0.0995101 -0.00160738 0.00189311)
(0.0962133 -0.00142247 0.00157537)
(0.0946753 -0.00172918 0.0015386)
(0.0992027 -0.00154363 0.00174543)
(0.095536 -0.00138483 0.00142046)
(0.0934913 -0.00164683 0.00137708)
(0.0988615 -0.00146751 0.00161363)
(0.0949029 -0.00133819 0.00129765)
(0.0923897 -0.00156784 0.00124608)
(0.0985259 -0.00138117 0.00149161)
(0.0942975 -0.00126692 0.00120149)
(0.0913777 -0.00146543 0.00113443)
(0.0982087 -0.00128069 0.00137695)
(0.0937145 -0.00116964 0.00112275)
(0.0904274 -0.0013451 0.0010414)
(0.0978838 -0.00116657 0.00127561)
(0.0931626 -0.0010537 0.00105012)
(0.0895562 -0.00122002 0.000961982)
(0.0975779 -0.00104514 0.00118763)
(0.0926476 -0.000927073 0.000978609)
(0.0887634 -0.00109271 0.000890932)
(0.0972979 -0.000923101 0.00110717)
(0.0921726 -0.000792491 0.000906302)
(0.0880454 -0.000962418 0.000822908)
(0.0970435 -0.00080148 0.00102915)
(0.0917409 -0.000648108 0.000831295)
(0.0874029 -0.000826669 0.000754345)
(0.0968158 -0.000676882 0.000951288)
(0.0913573 -0.000480689 0.000752289)
(0.0868409 -0.000680259 0.000680951)
(0.0966183 -0.000544595 0.000871941)
(0.0910293 -0.00027069 0.000667595)
(0.0863743 -0.000507778 0.000599145)
(0.0964561 -0.000388659 0.000790376)
(0.0907672 7.90528e-06 0.000577875)
(0.0860242 -0.000292643 0.000503502)
(0.0963335 -0.000194491 0.000703652)
(0.0905716 0.000397555 0.000481139)
(0.085826 2.55317e-06 0.00036209)
(0.0962568 6.37603e-05 0.000610114)
(0.090382 0.000972302 0.000361398)
(0.0858438 0.000517209 0.000149487)
(0.0962213 0.000419229 0.00050302)
(0.0855527 0.00145733 -0.00032028)
(0.0961796 0.000927451 0.000377515)
(0.0993752 -0.00118208 0.0010728)
(0.0996872 -0.000439205 0.000345558)
(0.0997475 -0.000610993 0.000780014)
(0.0984945 -0.00229589 0.00203231)
(0.0978159 -0.00273274 0.00228265)
(0.099597 -0.00201835 0.00200334)
(0.0971409 -0.00247605 0.00204881)
(0.0954954 -0.00300155 0.00230352)
(0.099297 -0.00246143 0.00210287)
(0.0954396 -0.00224606 0.00176696)
(0.0926188 -0.00229897 0.00183877)
(0.0984884 -0.00237404 0.00190262)
(0.0937527 -0.00201827 0.00152011)
(0.0897682 -0.00189089 0.00153472)
(0.0974232 -0.00217961 0.00168771)
(0.0921448 -0.00185959 0.00133789)
(0.0872356 -0.0016545 0.00129185)
(0.0963126 -0.00198166 0.00150456)
(0.0906184 -0.00174549 0.00120048)
(0.0850164 -0.00148901 0.00107068)
(0.0952122 -0.00179569 0.00133382)
(0.0891868 -0.0016424 0.00108695)
(0.083083 -0.0013664 0.000899916)
(0.0941649 -0.00163466 0.00118588)
(0.0878724 -0.00152947 0.000987381)
(0.0813685 -0.00126962 0.000777767)
(0.0931988 -0.00148987 0.00106429)
(0.0866809 -0.00140669 0.000899967)
(0.0798273 -0.00117839 0.000688075)
(0.092321 -0.00135212 0.000963839)
(0.0856043 -0.00128025 0.000824569)
(0.0784356 -0.00108651 0.000618954)
(0.0915347 -0.0012222 0.000880302)
(0.0846355 -0.00115325 0.00075769)
(0.0771772 -0.000994069 0.00056399)
(0.090836 -0.00110035 0.000809049)
(0.083772 -0.00102484 0.000693741)
(0.0760444 -0.000901747 0.000514575)
(0.0902202 -0.000984867 0.000743701)
(0.0830169 -0.000890849 0.000627349)
(0.0750357 -0.000809174 0.000465913)
(0.0896856 -0.000873133 0.000678969)
(0.0823829 -0.000747719 0.000553236)
(0.074151 -0.000716785 0.000411301)
(0.0892377 -0.000761198 0.000606889)
(0.0818995 -0.000590762 0.000466382)
(0.0734226 -0.000623491 0.000346665)
(0.0888892 -0.000644558 0.000520348)
(0.0816165 -0.000378766 0.000327695)
(0.0728807 -0.00052543 0.000259876)
(0.0886621 -0.00051306 0.000404749)
(0.0815884 1.06464e-05 8.64529e-05)
(0.0726249 -0.000345514 4.30061e-05)
(0.0885856 -0.000316502 0.000201512)
(0.0819307 0.000888079 -0.000454901)
(0.0729781 6.35731e-05 -0.000322912)
(0.0887135 6.56084e-05 -0.000135087)
(0.0717884 0.00136656 -0.00134439)
(0.0885726 0.000926999 -0.000853855)
(0.0984571 -0.00247644 0.0017301)
(0.0973537 -0.00106248 -0.00148423)
(0.100049 -0.00105641 0.000751045)
(0.0958345 -0.00314809 0.00243306)
(0.0930869 -0.003269 0.00253358)
(0.0982935 -0.0028093 0.00216169)
(0.0914494 -0.00223025 0.0018695)
(0.0848633 -0.00163591 0.00179253)
(0.0963036 -0.00244282 0.0019981)
(0.0875952 -0.00167409 0.00150491)
(0.0786273 -0.00107367 0.00122144)
(0.0936667 -0.00198071 0.00172691)
(0.0841498 -0.00143905 0.001274)
(0.0740532 -0.00078546 0.000864796)
(0.0909055 -0.00171922 0.00149708)
(0.0811942 -0.00126421 0.00102531)
(0.0704449 -0.000650617 0.000668296)
(0.0884372 -0.00145386 0.00121029)
(0.0787159 -0.00110845 0.000786895)
(0.0674982 -0.000547593 0.000506814)
(0.0863126 -0.00118264 0.000905783)
(0.0765866 -0.000989212 0.000612167)
(0.0650653 -0.000470392 0.000383934)
(0.0844975 -0.00098173 0.00068528)
(0.0747071 -0.000900283 0.000497104)
(0.0629949 -0.000417812 0.000301493)
(0.0829126 -0.000843529 0.000539561)
(0.0730215 -0.000825337 0.000420791)
(0.0611846 -0.000376689 0.000244672)
(0.0815049 -0.000742249 0.000441715)
(0.0714981 -0.000756614 0.000367871)
(0.0595795 -0.000341972 0.000203179)
(0.0802452 -0.000663349 0.000373538)
(0.0701194 -0.000692143 0.000327525)
(0.058147 -0.000313147 0.00017132)
(0.0791151 -0.000599234 0.000322821)
(0.0688798 -0.000631872 0.000291756)
(0.056869 -0.000291043 0.000143032)
(0.078104 -0.000546633 0.000278641)
(0.0677795 -0.000577719 0.000253917)
(0.055735 -0.000276703 0.000113914)
(0.0772065 -0.000504728 0.000236254)
(0.0668249 -0.000528754 0.000207266)
(0.0547344 -0.000272724 8.57745e-05)
(0.0764198 -0.000478779 0.0001926)
(0.0660413 -0.000482895 0.000140667)
(0.0538977 -0.000278172 4.61597e-05)
(0.075766 -0.000462222 0.000125783)
(0.0654999 -0.000430479 -1.10034e-05)
(0.0532481 -0.000309834 -2.58272e-05)
(0.0752645 -0.000444559 5.88348e-06)
(0.0654906 -0.00035969 -0.000285386)
(0.052891 -0.00038917 -0.000182233)
(0.0749889 -0.000398405 -0.00027047)
(0.0666354 -8.29523e-05 -0.000882138)
(0.053323 -0.000478728 -0.000411571)
(0.0751666 -0.000217681 -0.000874467)
(0.0521206 0.000613249 -0.00223933)
(0.0740617 0.000848176 -0.00301595)
(0.099344 0.00341897 -0.00341901)
(0.0973537 0.00148422 0.00106247)
(0.0834789 -0.00197597 0.00197586)
(0.0930869 -0.00253364 0.00326889)
(0.0745165 -0.00195903 0.0019588)
(0.0848632 -0.00179268 0.00163572)
(0.0685469 -0.00115961 0.00115912)
(0.0786272 -0.00122177 0.00107329)
(0.0642363 -0.000697501 0.000696614)
(0.074053 -0.000865366 0.000784651)
(0.0607601 -0.000496017 0.000494228)
(0.0704445 -0.0006693 0.000649254)
(0.0579444 -0.00037777 0.00037435)
(0.0674975 -0.000508828 0.000544809)
(0.0556286 -0.000292735 0.000286906)
(0.065064 -0.000387442 0.000465439)
(0.0536528 -0.000233656 0.000224094)
(0.0629925 -0.000307297 0.000409382)
(0.0519312 -0.000191914 0.000176416)
(0.0611805 -0.000254098 0.000362573)
(0.0504164 -0.000162633 0.000137637)
(0.0595724 -0.000218344 0.000318587)
(0.0490764 -0.000143282 0.000102781)
(0.0581349 -0.000195417 0.000274794)
(0.047891 -0.000133143 6.71155e-05)
(0.0568482 -0.000183128 0.000228071)
(0.0468519 -0.000133873 3.28634e-05)
(0.0556987 -0.000179983 0.000173673)
(0.0459511 -0.000144663 -5.99426e-06)
(0.0546716 -0.00018332 0.000109305)
(0.0452072 -0.000168288 -7.67462e-05)
(0.0537865 -0.000199878 2.34532e-05)
(0.0446625 -0.000217987 -0.000211375)
(0.0530475 -0.000238131 -0.000107734)
(0.0445288 -0.000259616 -0.000435306)
(0.0525044 -0.000276391 -0.00036408)
(0.0454191 0.000614909 -0.00188278)
(0.0525464 -0.000202421 -0.000889553)
(0.051713 0.00128772 -0.0036213)
(0.0984571 0.00173009 0.00247645)
(0.100049 0.000751043 0.00105642)
(0.0996872 0.000345555 0.000439204)
(0.0958345 0.00243304 0.0031481)
(0.0982935 0.00216169 0.00280931)
(0.0978159 0.00228263 0.00273275)
(0.0914494 0.00186948 0.00223028)
(0.0963036 0.00199809 0.00244284)
(0.0954954 0.00230351 0.00300158)
(0.0875952 0.00150488 0.00167414)
(0.0936667 0.0017269 0.00198074)
(0.0926188 0.00183874 0.002299)
(0.0841498 0.00127396 0.00143909)
(0.0909055 0.00149706 0.00171926)
(0.0897681 0.00153468 0.00189092)
(0.0811941 0.00102527 0.00126426)
(0.0884372 0.00121027 0.00145391)
(0.0872356 0.0012918 0.00165453)
(0.0787159 0.000786847 0.00110852)
(0.0863125 0.000905771 0.0011827)
(0.0850163 0.00107062 0.00148904)
(0.0765866 0.000612119 0.000989299)
(0.0844975 0.00068527 0.000981799)
(0.0830829 0.000899856 0.00136643)
(0.0747071 0.000497057 0.000900389)
(0.0829125 0.000539549 0.000843612)
(0.0813684 0.000777707 0.00126967)
(0.0730214 0.00042075 0.000825463)
(0.0815049 0.000441704 0.000742348)
(0.0798273 0.000688015 0.00117844)
(0.071498 0.000367831 0.000756749)
(0.0802452 0.000373536 0.000663468)
(0.0784355 0.000618897 0.00108657)
(0.0701193 0.00032748 0.000692275)
(0.0791149 0.000322839 0.000599372)
(0.0771771 0.000563932 0.000994133)
(0.0688796 0.000291705 0.000632002)
(0.0781038 0.000278673 0.000546782)
(0.0760442 0.000514509 0.00090181)
(0.0677792 0.000253862 0.000577859)
(0.0772063 0.000236265 0.000504871)
(0.0750355 0.000465844 0.000809252)
(0.0668244 0.00020722 0.000528936)
(0.0764194 0.000192582 0.000478913)
(0.0741507 0.000411243 0.000716913)
(0.0660407 0.000140636 0.000483127)
(0.0757655 0.000125756 0.000462386)
(0.0734221 0.000346646 0.000623711)
(0.065499 -1.10245e-05 0.000430733)
(0.0752638 5.85694e-06 0.000444742)
(0.0728799 0.000259887 0.00052572)
(0.0654894 -0.000285423 0.000359931)
(0.074988 -0.000270491 0.000398587)
(0.0726238 4.30471e-05 0.000345898)
(0.0666337 -0.000882235 8.31662e-05)
(0.0751653 -0.000874499 0.000217799)
(0.0729766 -0.000322855 -6.30458e-05)
(0.0740601 -0.00301596 -0.000848084)
(0.0717865 -0.00134445 -0.00136603)
(0.10008 0.00135182 0.00135191)
(0.100186 0.000798807 0.000805105)
(0.100186 0.000805065 0.000798844)
(0.100264 0.00221733 0.0022176)
(0.100189 0.00231196 0.00207192)
(0.100189 0.00207174 0.00231211)
(0.0993829 0.00243561 0.00243612)
(0.100306 0.00263371 0.00245372)
(0.100306 0.00245329 0.00263402)
(0.0979844 0.00230963 0.00231045)
(0.0998051 0.0025599 0.0024564)
(0.0998053 0.00245566 0.00256047)
(0.0964961 0.00200484 0.00200626)
(0.0988632 0.00236289 0.00228084)
(0.0988636 0.00227972 0.0023638)
(0.0950763 0.00159441 0.00159687)
(0.0978421 0.0020458 0.00196686)
(0.0978429 0.00196508 0.00204747)
(0.0937841 0.00122185 0.00122599)
(0.0968651 0.00168519 0.00160124)
(0.0968664 0.00159841 0.00168798)
(0.0926348 0.000955073 0.00096213)
(0.0959676 0.00139441 0.00131473)
(0.0959698 0.00130986 0.00139907)
(0.0916225 0.000767317 0.000779225)
(0.0951629 0.00117621 0.00110719)
(0.0951669 0.0010989 0.00118431)
(0.0907337 0.000631357 0.000651182)
(0.0944494 0.00100838 0.000955107)
(0.0944563 0.000941325 0.00102205)
(0.0899536 0.000528299 0.000561131)
(0.0938235 0.000874154 0.000842438)
(0.0938348 0.000819568 0.000896715)
(0.08927 0.000443438 0.000498349)
(0.0932771 0.000760812 0.000758398)
(0.0932959 0.000720286 0.000797506)
(0.0886732 0.000366631 0.000457207)
(0.0928012 0.00065793 0.000696859)
(0.0928316 0.00063289 0.000717541)
(0.0881589 0.000295661 0.000439554)
(0.0923866 0.000557414 0.000655376)
(0.0924355 0.000549943 0.00065299)
(0.0877237 0.000212004 0.000445596)
(0.092032 0.000454804 0.000637808)
(0.0921097 0.000467944 0.000606257)
(0.0873746 7.4337e-05 0.000460047)
(0.0917322 0.000326111 0.000644871)
(0.0918546 0.000360811 0.000571855)
(0.0871318 -0.000164874 0.000461234)
(0.0914901 0.000139257 0.000668171)
(0.091679 0.000194294 0.000530806)
(0.0869438 -0.000598593 0.000385499)
(0.0912978 -0.000136999 0.000703274)
(0.0915798 -7.4885e-05 0.00046337)
(0.0865373 -0.00155293 -8.05211e-05)
(0.0911006 -0.000538863 0.000693543)
(0.0914934 -0.000534998 0.000309538)
(0.0910584 -0.00119079 0.000434041)
(0.0914637 -0.00145428 -0.000139623)
(0.100171 0.00136876 0.00141687)
(0.100118 0.000577427 0.000811559)
(0.100102 0.000699867 0.000700933)
(0.100758 0.00219496 0.00214983)
(0.100478 0.00158288 0.0018594)
(0.100477 0.00182277 0.00186529)
(0.100996 0.00247662 0.00238861)
(0.101004 0.00205866 0.00224327)
(0.101024 0.0023469 0.00238372)
(0.100838 0.00247498 0.00238915)
(0.101292 0.00220293 0.00235229)
(0.101338 0.00250545 0.00254411)
(0.100458 0.0023086 0.00222321)
(0.101309 0.00216577 0.00232027)
(0.101409 0.00244869 0.00247172)
(0.0999686 0.00205078 0.00196327)
(0.101157 0.00200713 0.00217311)
(0.101302 0.00226044 0.00226771)
(0.0994458 0.00178027 0.00168922)
(0.100928 0.00178657 0.00195685)
(0.101099 0.00200074 0.00199188)
(0.0989384 0.00154703 0.00146366)
(0.100668 0.00157157 0.0017447)
(0.100855 0.00175476 0.00174376)
(0.0984724 0.00135314 0.00128892)
(0.100414 0.0013785 0.00155602)
(0.100607 0.00154396 0.00153928)
(0.098059 0.0011873 0.00115229)
(0.100179 0.00120441 0.00139439)
(0.100378 0.00136279 0.00137146)
(0.0976985 0.00104203 0.00104506)
(0.0999709 0.00105144 0.00126474)
(0.100178 0.00120484 0.00123305)
(0.0973866 0.000911074 0.00096187)
(0.0997909 0.000917009 0.0011614)
(0.100011 0.00106383 0.00111845)
(0.0971169 0.000787918 0.00090049)
(0.0996336 0.000795325 0.00107895)
(0.0998733 0.000934289 0.00102471)
(0.0968821 0.00066341 0.000860828)
(0.0994933 0.000680607 0.00101683)
(0.0997623 0.000809593 0.000950889)
(0.0966772 0.000526863 0.000847163)
(0.0993654 0.000566324 0.000977985)
(0.0996763 0.000680903 0.000898386)
(0.096496 0.000362789 0.000868062)
(0.0992386 0.000441974 0.000971726)
(0.0996101 0.000537096 0.000869641)
(0.0963308 0.000151898 0.000933002)
(0.099104 0.000293778 0.00101159)
(0.099561 0.00036116 0.000866311)
(0.0961667 -0.000131128 0.00103238)
(0.0989517 0.000109863 0.00111304)
(0.0995194 0.000138122 0.000890288)
(0.095955 -0.000449862 0.00119796)
(0.0987733 -0.000124552 0.00126008)
(0.0994761 -0.000152869 0.000917804)
(0.0988623 -0.000331142 0.00149205)
(0.0996181 -0.000428157 0.00101134)
(0.100242 0.000820206 0.00125658)
(0.10009 0.000294401 0.000735648)
(0.100071 0.000415753 0.000603089)
(0.100828 0.00139055 0.00193996)
(0.100491 0.000792112 0.00168466)
(0.100493 0.00112455 0.00158764)
(0.101392 0.00166325 0.00218251)
(0.101086 0.00107781 0.00208395)
(0.101129 0.00154089 0.00209468)
(0.101815 0.00176015 0.00225936)
(0.101664 0.0012042 0.00217869)
(0.101768 0.00173244 0.00229385)
(0.10208 0.00175264 0.00225583)
(0.102121 0.00123891 0.00221847)
(0.102291 0.00178861 0.00236372)
(0.102215 0.00166233 0.00216387)
(0.102451 0.00119979 0.00220062)
(0.102712 0.00174046 0.00231323)
(0.102268 0.00152337 0.00201872)
(0.10268 0.00111338 0.00210755)
(0.103035 0.00161919 0.00218548)
(0.102281 0.00136771 0.00184868)
(0.102842 0.00100889 0.0019732)
(0.103284 0.00146741 0.00202028)
(0.102278 0.00121147 0.00167597)
(0.102967 0.000906139 0.00181975)
(0.103487 0.0013109 0.00184501)
(0.102269 0.00106472 0.00152307)
(0.103068 0.00080918 0.00167078)
(0.103656 0.00116058 0.00167954)
(0.102259 0.000933643 0.00139844)
(0.103156 0.000719206 0.00153979)
(0.103803 0.00102374 0.001536)
(0.102247 0.000816851 0.00129642)
(0.103236 0.000637702 0.00142171)
(0.103935 0.000901705 0.00141294)
(0.102231 0.000709988 0.00121332)
(0.103306 0.00056481 0.00131728)
(0.104053 0.000790932 0.00130733)
(0.102206 0.00061064 0.0011518)
(0.103361 0.000500819 0.00123374)
(0.104157 0.000687909 0.00122003)
(0.102163 0.000515678 0.00112056)
(0.103398 0.000447169 0.00117378)
(0.104245 0.000590664 0.00115606)
(0.10209 0.000421596 0.00113504)
(0.103406 0.000404045 0.00114597)
(0.104311 0.000494613 0.00112421)
(0.101977 0.00032552 0.00121572)
(0.103375 0.000376369 0.0011665)
(0.10435 0.000394702 0.00113651)
(0.10182 0.000224931 0.00137211)
(0.103301 0.000367549 0.00124786)
(0.104358 0.000289244 0.00120374)
(0.101614 0.000146538 0.00159398)
(0.103195 0.000380374 0.00138775)
(0.104345 0.00017647 0.00131721)
(0.103327 0.000450635 0.00156613)
(0.104522 9.66409e-05 0.00146074)
(0.100243 0.000267528 0.0011629)
(0.100087 3.75389e-08 0.000707321)
(0.100064 0.000135882 0.000537636)
(0.100782 0.000465919 0.00182681)
(0.100477 1.09496e-07 0.00161847)
(0.100464 0.000371055 0.00142473)
(0.101401 0.000575738 0.00207616)
(0.101066 1.85459e-07 0.00203514)
(0.101089 0.000525371 0.00193391)
(0.101988 0.00062321 0.00213204)
(0.101695 3.36073e-07 0.00211714)
(0.101798 0.000606081 0.00212783)
(0.102507 0.000631375 0.00215853)
(0.102269 6.1937e-07 0.00214672)
(0.10249 0.000639433 0.00220741)
(0.102934 0.000609827 0.00214218)
(0.102742 1.07966e-06 0.00216981)
(0.10312 0.000633955 0.00223202)
(0.103276 0.000569531 0.00206207)
(0.103124 1.78892e-06 0.00211367)
(0.103686 0.000599825 0.00217742)
(0.103552 0.00052243 0.00194559)
(0.103428 2.98262e-06 0.00200911)
(0.10418 0.00055294 0.00207274)