/*--------------------------------*- C++ -*----------------------------------*\
| =========                 |                                                 |
| \\      /  F ield         | OpenFOAM: The Open Source CFD Toolbox           |
|  \\    /   O peration     | Version:  2212                                  |
|   \\  /    A nd           | Website:  www.openfoam.com                      |
|    \\/     M anipulation  |                                                 |
\*---------------------------------------------------------------------------*/
FoamFile
{
    version     2.0;
    format      ascii;
    arch        "LSB;label=32;scalar=64";
    class       volScalarField;
    location    "2";
    object      p;
}
// * * * * * * * * * * * * * * * * * * * * * * * * * * * * * * * * * * * * * //

dimensions      [0 2 -2 0 0 0 0];

internalField   nonuniform List<scalar> 
680
(
0.0179081
0.0107937
0.00850223
0.00796439
0.00769002
0.00746781
0.00728116
0.0107293
0.00999547
0.00890257
0.0082366
0.00783403
0.00756033
0.0073492
0.0103811
0.00952957
0.0087653
0.00820618
0.00783006
0.00756211
0.00734656
0.00997181
0.00920908
0.00859032
0.00813902
0.00779508
0.00752612
0.00730662
0.00983757
0.00909639
0.00850822
0.00810011
0.00777818
0.00751148
0.00728998
0.00983755
0.00909637
0.00850818
0.00810005
0.00777808
0.00751133
0.00728975
0.00997174
0.00920901
0.00859023
0.00813889
0.00779489
0.0075258
0.00730607
0.010381
0.0095295
0.00876522
0.00820607
0.00782987
0.00756177
0.00734598
0.0107293
0.00999544
0.00890253
0.00823655
0.00783393
0.00756016
0.00734892
0.0179081
0.0107937
0.00850222
0.00796439
0.00769002
0.00746781
0.00728116
0.0107293
0.00999544
0.00890253
0.00823655
0.00783393
0.00756016
0.00734891
0.0100127
0.00998101
0.00925279
0.00854228
0.00809593
0.00777998
0.00752108
0.00908728
0.00921348
0.00891061
0.00849441
0.00812729
0.0078087
0.00753024
0.00866894
0.00871245
0.00854691
0.00828402
0.00800369
0.00773242
0.00748155
0.00845294
0.00847477
0.00834758
0.00813011
0.00789773
0.00766862
0.00744591
0.00845289
0.00847472
0.00834752
0.00812999
0.00789756
0.00766839
0.00744555
0.00866884
0.00871235
0.00854677
0.00828382
0.00800341
0.00773202
0.00748094
0.00908723
0.00921342
0.00891052
0.00849429
0.00812713
0.00780845
0.0075298
0.0100127
0.00998101
0.00925278
0.00854228
0.00809593
0.00777998
0.00752108
0.0107293
0.00999546
0.00890257
0.0082366
0.00783402
0.00756032
0.00734919
0.010381
0.0095295
0.00876522
0.00820607
0.00782987
0.00756176
0.00734598
0.00908723
0.00921341
0.00891052
0.00849429
0.00812713
0.00780844
0.0075298
0.00851776
0.00861874
0.00850718
0.00828172
0.00802597
0.00776757
0.00750918
0.00814981
0.00821787
0.00816552
0.00801859
0.00783377
0.00762869
0.0074181
0.00796673
0.00803116
0.00800171
0.0078769
0.00771795
0.00754432
0.00735809
0.0079667
0.00803113
0.00800167
0.0078768
0.00771777
0.00754407
0.00735777
0.00814975
0.00821781
0.00816542
0.00801843
0.00783354
0.00762839
0.00741771
0.00851776
0.00861874
0.00850718
0.00828172
0.00802597
0.00776757
0.00750918
0.00908728
0.00921347
0.00891061
0.00849441
0.00812728
0.00780869
0.00753023
0.0103811
0.00952956
0.0087653
0.00820617
0.00783005
0.0075621
0.00734655
0.00997173
0.009209
0.00859022
0.00813888
0.00779488
0.00752579
0.00730606
0.00866884
0.00871234
0.00854676
0.00828381
0.0080034
0.00773202
0.00748093
0.00814974
0.00821781
0.00816542
0.00801843
0.00783353
0.00762839
0.0074177
0.00785188
0.00791102
0.00789909
0.0078037
0.00766408
0.00749859
0.0073184
0.00770077
0.00776367
0.00776743
0.00769378
0.00757366
0.00742728
0.00726439
0.00770075
0.00776365
0.0077674
0.00769375
0.00757361
0.0074272
0.00726428
0.00785188
0.00791102
0.00789909
0.0078037
0.00766408
0.00749859
0.0073184
0.00814981
0.00821787
0.00816551
0.00801858
0.00783377
0.00762869
0.00741809
0.00866894
0.00871245
0.00854691
0.00828401
0.00800368
0.00773242
0.00748154
0.0099718
0.00920907
0.00859031
0.00813901
0.00779507
0.00752611
0.00730661
0.00983754
0.00909636
0.00850817
0.00810004
0.00777807
0.00751132
0.00728974
0.00845289
0.00847471
0.00834751
0.00812998
0.00789755
0.00766838
0.00744554
0.00796669
0.00803113
0.00800166
0.0078768
0.00771776
0.00754406
0.00735776
0.00770075
0.00776364
0.0077674
0.00769374
0.00757361
0.0074272
0.00726427
0.00755795
0.00762747
0.00764959
0.00759704
0.00749577
0.00736482
0.00721487
0.00755795
0.00762747
0.00764959
0.00759704
0.00749578
0.00736482
0.00721487
0.00770077
0.00776366
0.00776743
0.00769378
0.00757366
0.00742727
0.00726439
0.00796672
0.00803116
0.0080017
0.00787689
0.00771794
0.00754432
0.00735808
0.00845293
0.00847476
0.00834758
0.0081301
0.00789772
0.00766862
0.0074459
0.00983756
0.00909638
0.00850821
0.0081001
0.00777817
0.00751147
0.00728997
0.00983756
0.00909638
0.00850821
0.0081001
0.00777817
0.00751147
0.00728997
0.00845293
0.00847476
0.00834757
0.0081301
0.00789772
0.00766861
0.0074459
0.00796672
0.00803116
0.0080017
0.00787689
0.00771794
0.00754431
0.00735808
0.00770076
0.00776366
0.00776742
0.00769377
0.00757365
0.00742727
0.00726438
0.00755794
0.00762746
0.00764959
0.00759703
0.00749577
0.00736482
0.00721487
0.00755795
0.00762746
0.00764959
0.00759704
0.00749577
0.00736482
0.00721487
0.00770075
0.00776364
0.0077674
0.00769374
0.00757361
0.0074272
0.00726427
0.00796669
0.00803113
0.00800166
0.0078768
0.00771776
0.00754406
0.00735776
0.00845289
0.00847472
0.00834751
0.00812998
0.00789755
0.00766838
0.00744554
0.00983754
0.00909636
0.00850817
0.00810004
0.00777807
0.00751132
0.00728973
0.00997179
0.00920907
0.00859031
0.00813901
0.00779507
0.0075261
0.00730661
0.00866893
0.00871244
0.0085469
0.008284
0.00800368
0.00773241
0.00748153
0.0081498
0.00821786
0.0081655
0.00801858
0.00783376
0.00762868
0.00741808
0.00785187
0.00791101
0.00789908
0.00780369
0.00766407
0.00749858
0.00731839
0.00770074
0.00776364
0.0077674
0.00769374
0.00757361
0.00742719
0.00726426
0.00770076
0.00776366
0.00776742
0.00769377
0.00757365
0.00742727
0.00785187
0.00791102
0.00789908
0.00780369
0.00766407
0.00749859
0.00814974
0.0082178
0.00816542
0.00801842
0.00783353
0.00762839
0.00866883
0.00871234
0.00854676
0.00828381
0.0080034
0.00773202
0.00997173
0.009209
0.00859022
0.00813888
0.00779488
0.00752579
0.0103811
0.00952955
0.00876529
0.00820617
0.00783005
0.00756209
0.00734655
0.00908727
0.00921347
0.0089106
0.0084944
0.00812728
0.00780868
0.00753022
0.00851775
0.00861873
0.00850717
0.0082817
0.00802596
0.00776755
0.00750917
0.00814973
0.0082178
0.00816541
0.00801842
0.00783352
0.00762838
0.00741769
0.00796668
0.00803112
0.00800165
0.00787679
0.00771775
0.00754405
0.00735776
0.00796672
0.00803115
0.0080017
0.00787689
0.00771793
0.00754431
0.0081498
0.00821787
0.00816551
0.00801858
0.00783376
0.00762868
0.00851776
0.00861873
0.00850718
0.00828171
0.00802596
0.00776756
0.00908722
0.00921341
0.00891052
0.00849429
0.00812712
0.00780844
0.010381
0.00952949
0.00876522
0.00820606
0.00782987
0.00756176
0.0107293
0.00999545
0.00890256
0.00823659
0.00783401
0.00756031
0.00734918
0.0100127
0.009981
0.00925277
0.00854227
0.00809592
0.00777997
0.00752106
0.00908722
0.0092134
0.00891051
0.00849428
0.00812711
0.00780843
0.00752979
0.00866883
0.00871234
0.00854675
0.0082838
0.00800339
0.00773201
0.00748092
0.00845288
0.00847471
0.0083475
0.00812998
0.00789754
0.00766837
0.00744553
0.00845293
0.00847476
0.00834757
0.00813009
0.00789771
0.00766861
0.00866893
0.00871244
0.0085469
0.00828401
0.00800368
0.00773241
0.00908727
0.00921347
0.0089106
0.0084944
0.00812728
0.00780869
0.0100127
0.00998101
0.00925278
0.00854228
0.00809593
0.00777998
0.0107293
0.00999544
0.00890253
0.00823654
0.00783393
0.00756015
0.0179081
0.0107937
0.00850221
0.00796438
0.00769001
0.00746779
0.00728115
0.0107293
0.00999543
0.00890252
0.00823653
0.00783392
0.00756014
0.0073489
0.010381
0.00952949
0.00876521
0.00820605
0.00782986
0.00756175
0.00734596
0.00997172
0.00920899
0.00859021
0.00813887
0.00779487
0.00752578
0.00730605
0.00983754
0.00909635
0.00850817
0.00810003
0.00777807
0.00751131
0.00728973
0.00983756
0.00909638
0.00850821
0.0081001
0.00777816
0.00751146
0.0099718
0.00920907
0.00859031
0.00813901
0.00779507
0.0075261
0.0103811
0.00952956
0.00876529
0.00820617
0.00783005
0.0075621
0.0107293
0.00999546
0.00890256
0.0082366
0.00783402
0.00756032
0.0179081
0.0107937
0.00850222
0.00796438
0.00769002
0.0074678
)
;

boundaryField
{
    inlet
    {
        type            zeroGradient;
    }
    ami1
    {
        type            cyclicAMI;
        value           nonuniform List<scalar> 0();
    }
    walls
    {
        type            zeroGradient;
    }
    ami2
    {
        type            cyclicAMI;
        value           nonuniform List<scalar> 0();
    }
    outlet
    {
        type            fixedValue;
        value           nonuniform List<scalar> 0();
    }
    procBoundary4to3
    {
        type            processor;
        value           nonuniform List<scalar> 
109
(
0.0071147
0.00716306
0.00715382
0.00711803
0.0070994
0.007099
0.00711708
0.00715286
0.00716257
0.0071147
0.00716256
0.0072934
0.00728996
0.00725539
0.00723291
0.00723236
0.00725443
0.0072892
0.0072934
0.00716305
0.00715285
0.0072892
0.00726758
0.00721134
0.00717015
0.00716973
0.00721076
0.00726758
0.00728996
0.00715381
0.00711707
0.00725442
0.00721076
0.00713393
0.00709296
0.0070928
0.00713393
0.00721134
0.00725538
0.00711802
0.00709899
0.00723235
0.00716972
0.0070928
0.00705384
0.00705384
0.00709296
0.00717014
0.0072329
0.00709939
0.00709939
0.0072329
0.00717014
0.00709296
0.00705384
0.00705384
0.00726438
0.0070928
0.0073184
0.00716972
0.0074177
0.00723235
0.00748093
0.00709899
0.00730606
0.00711802
0.00725538
0.00721133
0.00713392
0.00709279
0.00726438
0.00726438
0.0073184
0.0074177
0.00748093
0.00730606
0.00715381
0.00728995
0.00726757
0.00721075
0.00716971
0.00735807
0.00735807
0.00741809
0.00750917
0.0075298
0.00734597
0.00716304
0.00729339
0.00728918
0.00725441
0.00723234
0.00744589
0.00744589
0.00748153
0.00753023
0.00752107
0.00734891
0.00711469
0.00716255
0.00715284
0.00711706
0.00709898
0.00728997
0.00728997
0.00730661
0.00734655
0.00734919
0.00728115
)
;
    }
}


// ************************************************************************* //
