/*--------------------------------*- C++ -*----------------------------------*\
| =========                 |                                                 |
| \\      /  F ield         | OpenFOAM: The Open Source CFD Toolbox           |
|  \\    /   O peration     | Version:  2212                                  |
|   \\  /    A nd           | Website:  www.openfoam.com                      |
|    \\/     M anipulation  |                                                 |
\*---------------------------------------------------------------------------*/
FoamFile
{
    version     2.0;
    format      ascii;
    arch        "LSB;label=32;scalar=64";
    class       surfaceScalarField;
    location    "2";
    object      phi;
}
// * * * * * * * * * * * * * * * * * * * * * * * * * * * * * * * * * * * * * //

dimensions      [0 3 -1 0 0 0 0];

oriented        oriented;

internalField   nonuniform List<scalar> 
1800
(
3.32249e-07
1.09681e-09
1.09687e-09
2.7919e-07
2.65293e-08
2.65298e-08
2.49217e-07
1.49861e-08
1.49869e-08
2.29253e-07
9.98151e-09
9.98279e-09
2.14833e-07
7.20872e-09
7.2116e-09
2.03196e-07
5.81628e-09
5.82069e-09
4.71033e-09
4.71914e-09
6.3138e-07
3.58749e-09
7.40296e-09
6.14563e-07
2.26453e-08
2.07009e-08
5.86444e-07
2.43754e-08
1.87302e-08
5.61723e-07
1.88538e-08
1.58489e-08
5.39612e-07
1.55673e-08
1.37518e-08
5.20628e-07
1.35066e-08
1.12938e-08
1.19453e-08
8.71633e-09
8.90374e-07
2.85258e-09
6.33245e-09
8.82485e-07
1.34085e-08
1.71264e-08
8.70356e-07
1.78672e-08
1.86373e-08
8.55105e-07
1.69551e-08
1.71494e-08
8.39969e-07
1.53399e-08
1.53635e-08
8.25512e-07
1.41696e-08
1.3794e-08
1.33791e-08
1.23491e-08
1.07432e-06
1.06501e-09
5.56894e-09
1.06824e-06
5.58731e-09
1.39005e-08
1.06138e-06
8.46554e-09
1.62626e-08
1.05338e-06
9.04239e-09
1.59108e-08
1.04509e-06
8.62238e-09
1.50052e-08
1.03719e-06
8.12857e-09
1.39378e-08
7.80066e-09
1.29838e-08
1.16914e-06
1.42948e-13
4.90666e-09
1.16312e-06
6.75352e-13
1.16089e-08
1.15731e-06
1.55618e-12
1.42761e-08
1.15201e-06
2.79068e-12
1.43346e-08
1.1469e-06
4.79711e-12
1.37323e-08
1.14205e-06
8.37452e-12
1.29726e-08
1.47409e-11
1.21053e-08
1.16914e-06
-1.0647e-09
4.90661e-09
1.16312e-06
-5.58622e-09
1.16087e-08
1.15731e-06
-8.46347e-09
1.42759e-08
1.15202e-06
-9.03886e-09
1.4334e-08
1.14691e-06
-8.61576e-09
1.37304e-08
1.14206e-06
-8.11626e-09
1.29687e-08
-7.77854e-09
1.20993e-08
1.07432e-06
-2.85262e-09
5.56893e-09
1.06824e-06
-1.34086e-08
1.39004e-08
1.06138e-06
-1.78673e-08
1.62618e-08
1.05339e-06
-1.69551e-08
1.59083e-08
1.04511e-06
-1.53393e-08
1.50005e-08
1.03723e-06
-1.41675e-08
1.39305e-08
-1.33748e-08
1.29729e-08
8.90375e-07
-3.58763e-09
6.33235e-09
8.82486e-07
-2.2646e-08
1.71257e-08
8.7036e-07
-2.43763e-08
1.86356e-08
8.55114e-07
-1.88554e-08
1.71465e-08
8.39986e-07
-1.55707e-08
1.53591e-08
8.25543e-07
-1.35124e-08
1.37882e-08
-1.19553e-08
1.23397e-08
6.3138e-07
-1.09686e-09
7.40286e-09
6.14563e-07
-2.65298e-08
2.07003e-08
5.86445e-07
-1.49868e-08
1.87292e-08
5.61725e-07
-9.98273e-09
1.5847e-08
5.39617e-07
-7.21152e-09
1.37492e-08
5.20636e-07
-5.8206e-09
1.12886e-08
-4.71903e-09
8.70814e-09
3.32249e-07
1.09683e-09
2.7919e-07
2.65294e-08
2.49217e-07
1.49861e-08
2.29253e-07
9.98157e-09
2.14833e-07
7.20879e-09
2.03196e-07
5.81636e-09
4.71044e-09
6.3138e-07
7.40286e-09
3.58764e-09
6.14563e-07
2.07003e-08
2.26461e-08
5.86445e-07
1.87292e-08
2.43764e-08
5.61725e-07
1.5847e-08
1.88555e-08
5.39617e-07
1.37492e-08
1.55708e-08
5.20636e-07
1.12886e-08
1.35124e-08
8.7081e-09
1.19554e-08
9.23616e-07
7.03381e-09
7.03401e-09
9.25317e-07
1.98498e-08
1.98505e-08
9.17182e-07
2.27966e-08
2.2798e-08
9.04271e-07
2.23019e-08
2.23045e-08
8.90528e-07
2.06202e-08
2.06244e-08
8.77399e-07
1.78516e-08
1.78594e-08
1.46939e-08
1.47067e-08
1.1589e-06
5.28136e-09
6.10289e-09
1.16569e-06
1.39989e-08
1.6184e-08
1.16844e-06
1.79784e-08
2.07088e-08
1.1666e-06
1.91797e-08
2.21084e-08
1.1622e-06
1.88771e-08
2.15108e-08
1.15652e-06
1.75462e-08
1.97771e-08
1.56863e-08
1.7437e-08
1.32762e-06
2.71849e-09
4.93142e-09
1.33539e-06
7.12162e-09
1.30099e-08
1.34286e-06
9.55483e-09
1.72178e-08
1.34847e-06
1.05805e-08
1.89035e-08
1.35196e-06
1.08794e-08
1.95084e-08
1.35373e-06
1.05872e-08
1.91261e-08
9.90252e-09
1.81174e-08
1.41518e-06
2.67458e-13
4.19314e-09
1.42279e-06
7.66793e-13
1.11167e-08
1.43152e-06
1.32412e-12
1.50999e-08
1.4398e-06
2.43574e-12
1.66316e-08
1.44713e-06
4.51892e-12
1.72797e-08
1.45316e-06
7.89031e-12
1.75165e-08
1.29836e-11
1.7163e-08
1.41518e-06
-2.71818e-09
4.19299e-09
1.42279e-06
-7.12078e-09
1.11163e-08
1.43152e-06
-9.55331e-09
1.50993e-08
1.43981e-06
-1.05776e-08
1.66302e-08
1.44714e-06
-1.0874e-08
1.72765e-08
1.45318e-06
-1.05779e-08
1.7511e-08
-9.88694e-09
1.71541e-08
1.32763e-06
-5.28151e-09
4.93112e-09
1.33539e-06
-1.39992e-08
1.3009e-08
1.34287e-06
-1.79788e-08
1.72158e-08
1.34848e-06
-1.91802e-08
1.8899e-08
1.35198e-06
-1.8878e-08
1.95004e-08
1.35377e-06
-1.75483e-08
1.91137e-08
-1.56888e-08
1.80982e-08
1.1589e-06
-7.03401e-09
6.10254e-09
1.1657e-06
-1.98505e-08
1.61827e-08
1.16844e-06
-2.2798e-08
2.07059e-08
1.16661e-06
-2.23044e-08
2.21036e-08
1.16221e-06
-2.06244e-08
2.15037e-08
1.15655e-06
-1.78594e-08
1.97671e-08
-1.47067e-08
1.74205e-08
9.23616e-07
-7.40296e-09
7.03382e-09
9.25317e-07
-2.07009e-08
1.98498e-08
9.17182e-07
-1.87302e-08
2.27967e-08
9.04271e-07
-1.58488e-08
2.2302e-08
8.90528e-07
-1.37518e-08
2.06203e-08
8.77399e-07
-1.12937e-08
1.78517e-08
-8.71629e-09
1.4694e-08
6.3138e-07
3.58751e-09
6.14563e-07
2.26454e-08
5.86444e-07
2.43754e-08
5.61723e-07
1.88539e-08
5.39612e-07
1.55674e-08
5.20628e-07
1.35067e-08
1.19455e-08
8.90375e-07
6.33235e-09
2.85262e-09
8.82486e-07
1.71257e-08
1.34086e-08
8.7036e-07
1.86355e-08
1.78673e-08
8.55114e-07
1.71464e-08
1.69552e-08
8.39986e-07
1.53591e-08
1.53393e-08
8.25543e-07
1.37882e-08
1.41676e-08
1.23397e-08
1.33749e-08
1.1589e-06
6.10253e-09
5.28151e-09
1.1657e-06
1.61826e-08
1.39992e-08
1.16844e-06
2.07059e-08
1.79788e-08
1.16661e-06
2.21036e-08
1.91803e-08
1.16221e-06
2.15037e-08
1.88781e-08
1.15655e-06
1.9767e-08
1.75483e-08
1.74204e-08
1.56888e-08
1.37712e-06
4.57727e-09
4.57762e-09
1.38565e-06
1.1917e-08
1.1918e-08
1.39417e-06
1.64468e-08
1.64486e-08
1.40126e-06
1.85602e-08
1.85632e-08
1.40641e-06
1.89289e-08
1.89338e-08
1.40951e-06
1.82194e-08
1.82269e-08
1.67112e-08
1.67235e-08
1.53312e-06
2.36625e-09
3.64972e-09
1.54218e-06
6.23942e-09
9.63507e-09
1.55327e-06
8.87445e-09
1.3694e-08
1.56445e-06
1.03491e-08
1.59406e-08
1.57506e-06
1.09027e-08
1.69182e-08
1.58469e-06
1.07593e-08
1.69554e-08
1.01509e-08
1.63916e-08
1.61424e-06
1.90368e-13
3.09311e-09
1.62332e-06
4.59245e-13
8.27481e-09
1.63533e-06
8.10494e-13
1.19585e-08
1.6482e-06
1.4441e-12
1.41169e-08
1.66117e-06
2.5729e-12
1.52043e-08
1.67385e-06
4.22009e-12
1.55889e-08
6.95333e-12
1.54381e-08
1.61424e-06
-2.36612e-09
3.09292e-09
1.62332e-06
-6.23913e-09
8.27427e-09
1.63534e-06
-8.87391e-09
1.19575e-08
1.6482e-06
-1.03481e-08
1.41149e-08
1.66118e-06
-1.09013e-08
1.52006e-08
1.67387e-06
-1.07572e-08
1.55831e-08
-1.01472e-08
1.54297e-08
1.53312e-06
-4.57761e-09
3.64929e-09
1.54218e-06
-1.1918e-08
9.63385e-09
1.55328e-06
-1.64486e-08
1.36917e-08
1.56446e-06
-1.85632e-08
1.59365e-08
1.57508e-06
-1.89338e-08
1.69113e-08
1.58472e-06
-1.82269e-08
1.69445e-08
-1.67235e-08
1.6375e-08
1.37712e-06
-6.10289e-09
4.57729e-09
1.38565e-06
-1.6184e-08
1.19171e-08
1.39417e-06
-2.07088e-08
1.64469e-08
1.40126e-06
-2.21084e-08
1.85603e-08
1.40641e-06
-2.15108e-08
1.8929e-08
1.40951e-06
-1.97771e-08
1.82195e-08
-1.74369e-08
1.67114e-08
1.1589e-06
-6.33245e-09
5.28137e-09
1.16569e-06
-1.71264e-08
1.39989e-08
1.16844e-06
-1.86373e-08
1.79785e-08
1.1666e-06
-1.71494e-08
1.91798e-08
1.1622e-06
-1.53634e-08
1.88772e-08
1.15652e-06
-1.3794e-08
1.75464e-08
-1.23491e-08
1.56865e-08
8.90374e-07
2.85259e-09
8.82485e-07
1.34085e-08
8.70356e-07
1.78673e-08
8.55105e-07
1.69552e-08
8.39969e-07
1.53401e-08
8.25512e-07
1.41698e-08
1.33793e-08
1.07432e-06
5.56893e-09
1.06471e-09
1.06824e-06
1.39004e-08
5.58623e-09
1.06138e-06
1.62618e-08
8.46349e-09
1.05339e-06
1.59083e-08
9.03889e-09
1.04511e-06
1.50004e-08
8.6158e-09
1.03723e-06
1.39305e-08
8.1163e-09
1.29728e-08
7.7786e-09
1.32763e-06
4.93111e-09
2.71819e-09
1.33539e-06
1.3009e-08
7.12079e-09
1.34287e-06
1.72158e-08
9.55333e-09
1.34848e-06
1.88989e-08
1.05776e-08
1.35198e-06
1.95003e-08
1.0874e-08
1.35377e-06
1.91136e-08
1.0578e-08
1.80981e-08
9.88699e-09
1.53312e-06
3.64928e-09
2.36612e-09
1.54218e-06
9.63381e-09
6.23914e-09
1.55328e-06
1.36916e-08
8.87392e-09
1.56446e-06
1.59364e-08
1.03481e-08
1.57508e-06
1.69112e-08
1.09013e-08
1.58472e-06
1.69443e-08
1.07572e-08
1.63748e-08
1.01473e-08
1.68027e-06
1.8911e-09
1.89128e-09
1.68934e-06
5.09947e-09
5.10003e-09
1.7018e-06
7.46443e-09
7.46546e-09
1.71578e-06
8.94631e-09
8.94802e-09
1.73022e-06
9.69327e-09
9.69602e-09
1.74439e-06
9.86113e-09
9.86553e-09
9.6524e-09
9.65912e-09
1.7569e-06
2.75751e-14
1.61343e-09
1.76589e-06
1.35174e-14
4.38467e-09
1.77878e-06
-7.56061e-15
6.53276e-09
1.79389e-06
-2.87424e-14
7.95264e-09
1.81003e-06
-6.85441e-14
8.7581e-09
1.82639e-06
-1.39784e-13
9.08921e-09
-1.80413e-13
9.07714e-09
1.7569e-06
-1.89128e-09
1.61329e-09
1.76589e-06
-5.10002e-09
4.38427e-09
1.77878e-06
-7.46546e-09
6.532e-09
1.79389e-06
-8.94802e-09
7.95132e-09
1.81003e-06
-9.69603e-09
8.75595e-09
1.8264e-06
-9.86554e-09
9.08589e-09
-9.65914e-09
9.07227e-09
1.68027e-06
-3.64972e-09
1.89112e-09
1.68934e-06
-9.63506e-09
5.09952e-09
1.7018e-06
-1.3694e-08
7.46451e-09
1.71578e-06
-1.59406e-08
8.94643e-09
1.73022e-06
-1.69182e-08
9.69342e-09
1.74439e-06
-1.69554e-08
9.86133e-09
-1.63916e-08
9.65265e-09
1.53312e-06
-4.93141e-09
2.36627e-09
1.54218e-06
-1.30099e-08
6.23947e-09
1.55327e-06
-1.72177e-08
8.87452e-09
1.56445e-06
-1.89035e-08
1.03492e-08
1.57506e-06
-1.95084e-08
1.09029e-08
1.58469e-06
-1.91261e-08
1.07595e-08
-1.81174e-08
1.01511e-08
1.32762e-06
-5.56893e-09
2.71851e-09
1.33539e-06
-1.39005e-08
7.12166e-09
1.34286e-06
-1.62626e-08
9.5549e-09
1.34847e-06
-1.59108e-08
1.05806e-08
1.35196e-06
-1.50052e-08
1.08796e-08
1.35373e-06
-1.39378e-08
1.05874e-08
-1.29837e-08
9.90272e-09
1.07432e-06
1.06502e-09
1.06824e-06
5.58735e-09
1.06138e-06
8.46562e-09
1.05338e-06
9.04251e-09
1.04509e-06
8.62253e-09
1.03719e-06
8.12876e-09
7.80088e-09
1.16914e-06
4.90661e-09
-1.38892e-13
1.16312e-06
1.16087e-08
-6.6901e-13
1.15731e-06
1.42759e-08
-1.5539e-12
1.15202e-06
1.4334e-08
-2.78262e-12
1.14691e-06
1.37303e-08
-4.78316e-12
1.14207e-06
1.29686e-08
-8.35517e-12
1.20992e-08
-1.47166e-11
1.41518e-06
4.19298e-09
-2.64713e-13
1.42279e-06
1.11163e-08
-7.64598e-13
1.43152e-06
1.50992e-08
-1.31933e-12
1.43981e-06
1.66302e-08
-2.42715e-12
1.44714e-06
1.72764e-08
-4.50748e-12
1.45318e-06
1.75108e-08
-7.87741e-12
1.7154e-08
-1.29708e-11
1.61424e-06
3.09291e-09
-1.87497e-13
1.62332e-06
8.27423e-09
-4.57298e-13
1.63534e-06
1.19574e-08
-8.08816e-13
1.6482e-06
1.41148e-08
-1.44248e-12
1.66118e-06
1.52004e-08
-2.57274e-12
1.67387e-06
1.55829e-08
-4.22294e-12
1.54294e-08
-6.96162e-12
1.7569e-06
1.61327e-09
-2.49928e-14
1.76589e-06
4.38421e-09
-1.40454e-14
1.77878e-06
6.53191e-09
2.47383e-15
1.79389e-06
7.95119e-09
1.90267e-14
1.81003e-06
8.75577e-09
5.28376e-14
1.8264e-06
9.08566e-09
1.16107e-13
9.07199e-09
1.4642e-13
1.83127e-06
-4.02989e-14
4.23313e-14
1.84004e-06
-1.32825e-13
1.25807e-13
1.85311e-06
-2.53396e-13
2.38934e-13
1.86901e-06
-4.20087e-13
3.95571e-13
1.88653e-06
-6.54651e-13
6.19253e-13
1.9047e-06
-9.81629e-13
9.33837e-13
-1.42266e-12
1.35993e-12
1.83127e-06
-1.61342e-09
-1.50863e-14
1.84004e-06
-4.38467e-09
-6.62551e-14
1.85311e-06
-6.53277e-09
-1.52186e-13
1.86901e-06
-7.95266e-09
-2.78143e-13
1.88653e-06
-8.75813e-09
-4.66048e-13
1.9047e-06
-9.08925e-09
-7.38961e-13
-9.07719e-09
-1.11903e-12
1.7569e-06
-3.0931e-09
4.90278e-14
1.76589e-06
-8.2748e-09
7.0119e-14
1.77878e-06
-1.19586e-08
8.0315e-14
1.79389e-06
-1.41169e-08
9.31189e-14
1.81003e-06
-1.52043e-08
9.29382e-14
1.82639e-06
-1.55889e-08
7.02271e-14
-1.54381e-08
8.41311e-14
1.61424e-06
-4.19314e-09
2.08414e-13
1.62332e-06
-1.11167e-08
5.08988e-13
1.63533e-06
-1.50999e-08
8.86933e-13
1.6482e-06
-1.66316e-08
1.54938e-12
1.66117e-06
-1.72797e-08
2.71291e-12
1.67385e-06
-1.75165e-08
4.40135e-12
-1.7163e-08
7.17875e-12
1.41518e-06
-4.90665e-09
2.81907e-13
1.42279e-06
-1.16089e-08
8.16063e-13
1.43152e-06
-1.42761e-08
1.39949e-12
1.4398e-06
-1.43346e-08
2.53651e-12
1.44713e-06
-1.37323e-08
4.65006e-12
1.45316e-06
-1.29726e-08
8.05833e-12
-1.21053e-08
1.31913e-11
1.16914e-06
1.47423e-13
1.16312e-06
7.13406e-13
1.15731e-06
1.64701e-12
1.15201e-06
2.91e-12
1.1469e-06
4.9467e-12
1.14205e-06
8.55961e-12
1.496e-11
1.16914e-06
4.90665e-09
-1.06501e-09
1.16312e-06
1.16089e-08
-5.58731e-09
1.15731e-06
1.4276e-08
-8.46554e-09
1.15201e-06
1.43345e-08
-9.0424e-09
1.1469e-06
1.37322e-08
-8.62238e-09
1.14205e-06
1.29725e-08
-8.12858e-09
1.21053e-08
-7.80066e-09
1.41518e-06
4.19313e-09
-2.71849e-09
1.42279e-06
1.11167e-08
-7.12162e-09
1.43152e-06
1.50998e-08
-9.55484e-09
1.4398e-06
1.66316e-08
-1.05805e-08
1.44713e-06
1.72796e-08
-1.08794e-08
1.45316e-06
1.75164e-08
-1.05873e-08
1.71628e-08
-9.90253e-09
1.61424e-06
3.09309e-09
-2.36625e-09
1.62332e-06
8.27476e-09
-6.23942e-09
1.63533e-06
1.19585e-08
-8.87445e-09
1.6482e-06
1.41168e-08
-1.03491e-08
1.66117e-06
1.52041e-08
-1.09027e-08
1.67386e-06
1.55887e-08
-1.07593e-08
1.54378e-08
-1.01509e-08
1.7569e-06
1.6134e-09
-1.8911e-09
1.76589e-06
4.3846e-09
-5.09947e-09
1.77878e-06
6.53266e-09
-7.46443e-09
1.79389e-06
7.9525e-09
-8.94632e-09
1.81003e-06
8.75791e-09
-9.69328e-09
1.82639e-06
9.08897e-09
-9.86115e-09
9.07684e-09
-9.65244e-09
1.83127e-06
1.66618e-14
-1.61327e-09
1.84004e-06
5.85229e-14
-4.38422e-09
1.85311e-06
1.27776e-13
-6.53192e-09
1.86901e-06
2.38227e-13
-7.9512e-09
1.88653e-06
4.11015e-13
-8.7558e-09
1.9047e-06
6.69169e-13
-9.0857e-09
1.0312e-12
-9.07203e-09
1.83127e-06
-1.61329e-09
-1.6134e-09
1.84004e-06
-4.38428e-09
-4.38461e-09
1.85311e-06
-6.53202e-09
-6.53267e-09
1.86901e-06
-7.95136e-09
-7.95253e-09
1.88653e-06
-8.756e-09
-8.75795e-09
1.9047e-06
-9.08596e-09
-9.08901e-09
-9.07236e-09
1.7569e-06
-3.09292e-09
-1.89126e-09
1.76589e-06
-8.27427e-09
-5.09997e-09
1.77878e-06
-1.19575e-08
-7.46538e-09
1.79389e-06
-1.41149e-08
-8.94791e-09
1.81003e-06
-1.52006e-08
-9.69588e-09
1.8264e-06
-1.55831e-08
-9.86534e-09
-1.54297e-08
1.61424e-06
-4.19299e-09
-2.3661e-09
1.62332e-06
-1.11163e-08
-6.23909e-09
1.63534e-06
-1.50993e-08
-8.87384e-09
1.6482e-06
-1.66303e-08
-1.0348e-08
1.66118e-06
-1.72765e-08
-1.09012e-08
1.67387e-06
-1.7511e-08
-1.0757e-08
-1.71542e-08
1.41518e-06
-4.90661e-09
-2.71817e-09
1.42279e-06
-1.16087e-08
-7.12074e-09
1.43152e-06
-1.42759e-08
-9.55325e-09
1.43981e-06
-1.4334e-08
-1.05775e-08
1.44714e-06
-1.37303e-08
-1.08739e-08
1.45318e-06
-1.29687e-08
-1.05778e-08
-1.20993e-08
1.16914e-06
-1.06469e-09
1.16312e-06
-5.58618e-09
1.15731e-06
-8.4634e-09
1.15202e-06
-9.03875e-09
1.14691e-06
-8.61562e-09
1.14206e-06
-8.11608e-09
1.07432e-06
5.56893e-09
-2.85258e-09
1.06824e-06
1.39005e-08
-1.34085e-08
1.06138e-06
1.62626e-08
-1.78672e-08
1.05338e-06
1.59107e-08
-1.69551e-08
1.04509e-06
1.50051e-08
-1.53399e-08
1.03719e-06
1.39377e-08
-1.41696e-08
1.29837e-08
-1.33792e-08
1.32762e-06
4.93141e-09
-5.28136e-09
1.33539e-06
1.30099e-08
-1.39989e-08
1.34286e-06
1.72177e-08
-1.79785e-08
1.34847e-06
1.89034e-08
-1.91797e-08
1.35196e-06
1.95083e-08
-1.88771e-08
1.35373e-06
1.9126e-08
-1.75462e-08
1.81172e-08
-1.56864e-08
1.53312e-06
3.64971e-09
-4.57727e-09
1.54218e-06
9.63502e-09
-1.1917e-08
1.55327e-06
1.36939e-08
-1.64468e-08
1.56445e-06
1.59405e-08
-1.85602e-08
1.57506e-06
1.69181e-08
-1.89289e-08
1.58469e-06
1.69552e-08
-1.82194e-08
1.63914e-08
-1.67112e-08
1.68027e-06
1.89126e-09
-3.64928e-09
1.68934e-06
5.09997e-09
-9.63381e-09
1.7018e-06
7.46536e-09
-1.36916e-08
1.71578e-06
8.94788e-09
-1.59364e-08
1.73022e-06
9.69583e-09
-1.69112e-08
1.74439e-06
9.86529e-09
-1.69443e-08
9.65883e-09
-1.63748e-08
1.7569e-06
-4.92446e-14
-3.0929e-09
1.76589e-06
-8.04878e-14
-8.27423e-09
1.77878e-06
-1.09353e-13
-1.19574e-08
1.79389e-06
-1.41858e-13
-1.41148e-08
1.81003e-06
-1.59594e-13
-1.52004e-08
1.8264e-06
-1.49909e-13
-1.55829e-08
-1.54294e-08
1.7569e-06
-1.89112e-09
-3.09309e-09
1.76589e-06
-5.09953e-09
-8.27476e-09
1.77878e-06
-7.46454e-09
-1.19585e-08
1.79389e-06
-8.94648e-09
-1.41168e-08
1.81003e-06
-9.69349e-09
-1.52041e-08
-9.86142e-09
-1.55887e-08
1.68027e-06
-3.64929e-09
-3.6497e-09
1.68934e-06
-9.63386e-09
-9.63502e-09
1.7018e-06
-1.36917e-08
-1.36939e-08
1.71578e-06
-1.59365e-08
-1.59405e-08
1.73022e-06
-1.69114e-08
-1.69181e-08
-1.69446e-08
-1.69552e-08
1.53312e-06
-4.93112e-09
-4.5776e-09
1.54218e-06
-1.30091e-08
-1.1918e-08
1.55328e-06
-1.72158e-08
-1.64485e-08
1.56446e-06
-1.8899e-08
-1.85631e-08
1.57508e-06
-1.95004e-08
-1.89337e-08
-1.91138e-08
-1.82268e-08
1.32763e-06
-5.56893e-09
-5.2815e-09
1.33539e-06
-1.39004e-08
-1.39991e-08
1.34287e-06
-1.62618e-08
-1.79788e-08
1.34848e-06
-1.59083e-08
-1.91802e-08
1.35198e-06
-1.50005e-08
-1.88779e-08
-1.39306e-08
-1.75481e-08
1.07432e-06
-2.85261e-09
1.06824e-06
-1.34086e-08
1.06138e-06
-1.78672e-08
1.05339e-06
-1.6955e-08
1.04511e-06
-1.53392e-08
-1.41673e-08
8.90374e-07
6.33245e-09
-3.58749e-09
8.82485e-07
1.71264e-08
-2.26453e-08
8.70356e-07
1.86373e-08
-2.43754e-08
8.55105e-07
1.71494e-08
-1.88538e-08
8.39969e-07
1.53634e-08
-1.55673e-08
8.25512e-07
1.3794e-08
-1.35066e-08
1.23491e-08
-1.19454e-08
1.1589e-06
6.10288e-09
-7.03381e-09
1.16569e-06
1.6184e-08
-1.98498e-08
1.16844e-06
2.07088e-08
-2.27966e-08
1.1666e-06
2.21083e-08
-2.23019e-08
1.1622e-06
2.15108e-08
-2.06202e-08
1.15652e-06
1.9777e-08
-1.78516e-08
1.74368e-08
-1.46939e-08
1.37712e-06
4.5776e-09
-6.10253e-09
1.38565e-06
1.1918e-08
-1.61826e-08
1.39417e-06
1.64485e-08
-2.07059e-08
1.40126e-06
1.85631e-08
-2.21036e-08
1.40641e-06
1.89336e-08
-2.15037e-08
1.40951e-06
1.82268e-08
-1.9767e-08
1.67233e-08
-1.74204e-08
1.53312e-06
2.36611e-09
-4.93111e-09
1.54218e-06
6.23909e-09
-1.3009e-08
1.55328e-06
8.87383e-09
-1.72158e-08
1.56446e-06
1.0348e-08
-1.88989e-08
1.57508e-06
1.09011e-08
-1.95002e-08
1.58472e-06
1.0757e-08
-1.91136e-08
1.0147e-08
-1.80981e-08
1.61424e-06
-2.07824e-13
-4.19298e-09
1.62332e-06
-5.14592e-13
-1.11163e-08
1.63534e-06
-9.09901e-13
-1.50992e-08
1.6482e-06
-1.59165e-12
-1.66302e-08
1.66118e-06
-2.77232e-12
-1.72764e-08
1.67387e-06
-4.47595e-12
-1.75108e-08
-1.71539e-08
1.61424e-06
-2.36627e-09
-4.19313e-09
1.62332e-06
-6.23948e-09
-1.11167e-08
1.63533e-06
-8.87455e-09
-1.50998e-08
1.6482e-06
-1.03492e-08
-1.66316e-08
1.66117e-06
-1.09029e-08
-1.72796e-08
-1.07596e-08
-1.75164e-08
1.53312e-06
-4.57729e-09
-4.9314e-09
1.54218e-06
-1.19171e-08
-1.30099e-08
1.55327e-06
-1.64469e-08
-1.72177e-08
1.56445e-06
-1.85603e-08
-1.89034e-08
1.57506e-06
-1.89291e-08
-1.95083e-08
-1.82196e-08
-1.9126e-08
1.37712e-06
-6.10254e-09
-6.10288e-09
1.38565e-06
-1.61827e-08
-1.6184e-08
1.39417e-06
-2.0706e-08
-2.07088e-08
1.40126e-06
-2.21037e-08
-2.21083e-08
1.40641e-06
-2.15038e-08
-2.15108e-08
-1.97671e-08
-1.9777e-08
1.1589e-06
-6.33235e-09
-7.03401e-09
1.1657e-06
-1.71257e-08
-1.98505e-08
1.16844e-06
-1.86356e-08
-2.2798e-08
1.16661e-06
-1.71465e-08
-2.23044e-08
1.16221e-06
-1.53592e-08
-2.06243e-08
-1.37883e-08
-1.78593e-08
8.90375e-07
-3.58763e-09
8.82486e-07
-2.2646e-08
8.7036e-07
-2.43763e-08
8.55114e-07
-1.88554e-08
8.39986e-07
-1.55707e-08
-1.35123e-08
6.3138e-07
7.40296e-09
-1.09681e-09
6.14563e-07
2.07009e-08
-2.65293e-08
5.86444e-07
1.87302e-08
-1.49861e-08
5.61723e-07
1.58488e-08
-9.98152e-09
5.39612e-07
1.37518e-08
-7.20873e-09
5.20628e-07
1.12937e-08
-5.8163e-09
8.71627e-09
-4.71037e-09
9.23616e-07
7.03401e-09
-7.40286e-09
9.25317e-07
1.98505e-08
-2.07003e-08
9.17182e-07
2.2798e-08
-1.87292e-08
9.04271e-07
2.23044e-08
-1.5847e-08
8.90528e-07
2.06243e-08
-1.37492e-08
8.77399e-07
1.78593e-08
-1.12886e-08
1.47066e-08
-8.70809e-09
1.1589e-06
5.2815e-09
-6.33234e-09
1.1657e-06
1.39992e-08
-1.71257e-08
1.16844e-06
1.79788e-08
-1.86355e-08
1.16661e-06
1.91802e-08
-1.71464e-08
1.16221e-06
1.88779e-08
-1.53591e-08
1.15655e-06
1.75481e-08
-1.37882e-08
1.56886e-08
-1.23396e-08
1.32763e-06
2.71818e-09
-5.56893e-09
1.33539e-06
7.12075e-09
-1.39004e-08
1.34287e-06
9.55325e-09
-1.62618e-08
1.34848e-06
1.05775e-08
-1.59083e-08
1.35198e-06
1.08739e-08
-1.50004e-08
1.35377e-06
1.05778e-08
-1.39304e-08
9.88673e-09
-1.29728e-08
1.41518e-06
-2.79655e-13
-4.9066e-09
1.42279e-06
-8.04655e-13
-1.16086e-08
1.43152e-06
-1.39849e-12
-1.42759e-08
1.43981e-06
-2.55086e-12
-1.43339e-08
1.44714e-06
-4.67859e-12
-1.37303e-08
1.45318e-06
-8.10008e-12
-1.29686e-08
-1.20992e-08
1.41518e-06
-2.7185e-09
-4.90666e-09
1.42279e-06
-7.12166e-09
-1.16088e-08
1.43152e-06
-9.55491e-09
-1.4276e-08
1.4398e-06
-1.05806e-08
-1.43345e-08
1.44713e-06
-1.08796e-08
-1.37322e-08
-1.05875e-08
-1.29725e-08
1.32762e-06
-5.28137e-09
-5.56893e-09
1.33539e-06
-1.39989e-08
-1.39005e-08
1.34286e-06
-1.79785e-08
-1.62626e-08
1.34847e-06
-1.91798e-08
-1.59107e-08
1.35196e-06
-1.88773e-08
-1.50051e-08
-1.75464e-08
-1.39377e-08
1.1589e-06
-7.03382e-09
-6.33244e-09
1.16569e-06
-1.98498e-08
-1.71264e-08
1.16844e-06
-2.27967e-08
-1.86373e-08
1.1666e-06
-2.2302e-08
-1.71494e-08
1.1622e-06
-2.06203e-08
-1.53634e-08
-1.78517e-08
-1.3794e-08
9.23616e-07
-7.40286e-09
-7.40296e-09
9.25317e-07
-2.07003e-08
-2.07009e-08
9.17182e-07
-1.87292e-08
-1.87302e-08
9.04271e-07
-1.5847e-08
-1.58488e-08
8.90528e-07
-1.37492e-08
-1.37518e-08
-1.12887e-08
-1.12937e-08
6.3138e-07
-1.09686e-09
6.14563e-07
-2.65298e-08
5.86445e-07
-1.49868e-08
5.61725e-07
-9.98272e-09
5.39617e-07
-7.21152e-09
-5.82059e-09
3.32249e-07
1.09687e-09
2.7919e-07
2.65298e-08
2.49217e-07
1.49868e-08
2.29253e-07
9.98275e-09
2.14833e-07
7.21155e-09
2.03196e-07
5.82063e-09
4.71906e-09
6.3138e-07
3.58764e-09
6.14563e-07
2.2646e-08
5.86445e-07
2.43763e-08
5.61725e-07
1.88554e-08
5.39617e-07
1.55707e-08
5.20637e-07
1.35123e-08
1.19553e-08
8.90375e-07
2.85262e-09
8.82486e-07
1.34086e-08
8.7036e-07
1.78673e-08
8.55114e-07
1.69551e-08
8.39986e-07
1.53392e-08
8.25543e-07
1.41674e-08
1.33747e-08
1.07432e-06
1.0647e-09
1.06824e-06
5.58621e-09
1.06138e-06
8.46344e-09
1.05339e-06
9.03881e-09
1.04511e-06
8.61568e-09
1.03723e-06
8.11615e-09
7.7784e-09
1.16914e-06
-1.49038e-13
1.16312e-06
-6.98509e-13
1.15731e-06
-1.59389e-12
1.15202e-06
-2.85971e-12
1.14691e-06
-4.8985e-12
1.14207e-06
-8.51337e-12
1.16914e-06
-1.06502e-09
1.16312e-06
-5.58734e-09
1.15731e-06
-8.46559e-09
1.15201e-06
-9.04248e-09
1.1469e-06
-8.6225e-09
-8.12873e-09
1.07432e-06
-2.85259e-09
1.06824e-06
-1.34085e-08
1.06138e-06
-1.78673e-08
1.05338e-06
-1.69552e-08
1.04509e-06
-1.53401e-08
-1.41698e-08
8.90374e-07
-3.5875e-09
8.82485e-07
-2.26454e-08
8.70356e-07
-2.43754e-08
8.55105e-07
-1.88539e-08
8.39969e-07
-1.55674e-08
-1.35067e-08
6.3138e-07
-1.09682e-09
6.14563e-07
-2.65294e-08
5.86444e-07
-1.49861e-08
5.61723e-07
-9.98155e-09
5.39612e-07
-7.20878e-09
-5.81635e-09
3.32249e-07
2.7919e-07
2.49217e-07
2.29253e-07
2.14833e-07
)
;

boundaryField
{
    inlet
    {
        type            calculated;
        value           nonuniform List<scalar> 
100
(
-3.34443e-07
-6.41274e-07
-8.95972e-07
-1.0781e-06
-1.17299e-06
-1.17299e-06
-1.0781e-06
-8.95972e-07
-6.41274e-07
-3.34443e-07
-6.41274e-07
-9.22878e-07
-1.15692e-06
-1.32442e-06
-1.41174e-06
-1.41174e-06
-1.32442e-06
-1.15692e-06
-9.22878e-07
-6.41274e-07
-8.95972e-07
-1.15692e-06
-1.37407e-06
-1.52963e-06
-1.61077e-06
-1.61077e-06
-1.52963e-06
-1.37407e-06
-1.15692e-06
-8.95972e-07
-1.0781e-06
-1.32442e-06
-1.52963e-06
-1.67675e-06
-1.75353e-06
-1.75353e-06
-1.67675e-06
-1.52963e-06
-1.32442e-06
-1.0781e-06
-1.17299e-06
-1.41174e-06
-1.61077e-06
-1.75353e-06
-1.82805e-06
-1.82805e-06
-1.75353e-06
-1.61077e-06
-1.41174e-06
-1.17299e-06
-1.17299e-06
-1.41174e-06
-1.61077e-06
-1.75353e-06
-1.82805e-06
-1.82805e-06
-1.75353e-06
-1.61077e-06
-1.41174e-06
-1.17299e-06
-1.0781e-06
-1.32442e-06
-1.52963e-06
-1.67675e-06
-1.75353e-06
-1.75353e-06
-1.67675e-06
-1.52963e-06
-1.32442e-06
-1.0781e-06
-8.95972e-07
-1.15692e-06
-1.37407e-06
-1.52963e-06
-1.61077e-06
-1.61077e-06
-1.52963e-06
-1.37407e-06
-1.15692e-06
-8.95972e-07
-6.41274e-07
-9.22878e-07
-1.15692e-06
-1.32442e-06
-1.41174e-06
-1.41174e-06
-1.32442e-06
-1.15692e-06
-9.22878e-07
-6.41274e-07
-3.34443e-07
-6.41274e-07
-8.95972e-07
-1.0781e-06
-1.17299e-06
-1.17299e-06
-1.0781e-06
-8.95972e-07
-6.41274e-07
-3.34443e-07
)
;
    }
    ami1
    {
        type            cyclicAMI;
        value           nonuniform List<scalar> 0();
    }
    walls
    {
        type            calculated;
        value           uniform 0;
    }
    ami2
    {
        type            cyclicAMI;
        value           nonuniform List<scalar> 0();
    }
    outlet
    {
        type            calculated;
        value           nonuniform List<scalar> 0();
    }
    procBoundary4to3
    {
        type            processor;
        value           nonuniform List<scalar> 
109
(
1.93767e-07
5.04677e-07
8.11729e-07
1.02979e-06
1.13773e-06
1.13776e-06
1.02985e-06
8.11784e-07
5.04692e-07
1.93767e-07
5.04692e-07
8.65423e-07
1.15044e-06
1.35438e-06
1.45799e-06
1.45803e-06
1.35445e-06
1.15048e-06
8.65423e-07
5.04677e-07
8.11784e-07
1.15048e-06
1.41093e-06
1.59298e-06
1.68572e-06
1.68575e-06
1.59302e-06
1.41093e-06
1.15044e-06
8.11729e-07
1.02986e-06
1.35445e-06
1.59302e-06
1.75785e-06
1.84241e-06
1.84241e-06
1.75785e-06
1.59298e-06
1.35438e-06
1.02979e-06
1.13776e-06
1.45803e-06
1.68575e-06
1.84241e-06
1.92285e-06
1.92285e-06
1.8424e-06
1.68572e-06
1.45799e-06
1.13773e-06
1.13773e-06
1.458e-06
1.68572e-06
1.84241e-06
1.92285e-06
1.92285e-06
-9.0769e-09
1.84241e-06
-9.65889e-09
1.68575e-06
-1.0147e-08
1.45803e-06
-9.88676e-09
1.13776e-06
-7.77834e-09
1.02979e-06
1.35438e-06
1.59298e-06
1.75785e-06
1.84241e-06
-1.83114e-13
1.82639e-06
1.74439e-06
1.58472e-06
1.35377e-06
1.03723e-06
8.11729e-07
1.15044e-06
1.41093e-06
1.59302e-06
1.68575e-06
-7.27349e-12
1.67385e-06
1.58469e-06
1.40951e-06
1.15655e-06
8.25543e-07
5.04677e-07
8.65423e-07
1.15048e-06
1.35445e-06
1.45803e-06
-1.32507e-11
1.45316e-06
1.35373e-06
1.15652e-06
8.77399e-07
5.20636e-07
1.93767e-07
5.04692e-07
8.11784e-07
1.02986e-06
1.13776e-06
-1.49266e-11
1.14205e-06
1.03719e-06
8.25512e-07
5.20628e-07
2.03196e-07
)
;
    }
}


// ************************************************************************* //
