/*--------------------------------*- C++ -*----------------------------------*\
| =========                 |                                                 |
| \\      /  F ield         | OpenFOAM: The Open Source CFD Toolbox           |
|  \\    /   O peration     | Version:  2212                                  |
|   \\  /    A nd           | Website:  www.openfoam.com                      |
|    \\/     M anipulation  |                                                 |
\*---------------------------------------------------------------------------*/
FoamFile
{
    version     2.0;
    format      ascii;
    arch        "LSB;label=32;scalar=64";
    class       volVectorField;
    location    "2";
    object      U;
}
// * * * * * * * * * * * * * * * * * * * * * * * * * * * * * * * * * * * * * //

dimensions      [0 1 -1 0 0 0 0];

internalField   nonuniform List<vector> 
680
(
(0.0956456 -0.00836006 -0.00836005)
(0.0904939 0.00152198 0.00152208)
(0.0790683 0.00242963 0.00242982)
(0.0713012 0.00148754 0.00148793)
(0.0661794 0.000830087 0.000830814)
(0.0623226 0.000563 0.000564177)
(0.0592208 0.00042487 0.000427425)
(0.0999088 0.00129699 0.000712571)
(0.0969668 0.0036558 0.0027473)
(0.0935345 0.00264009 0.00211825)
(0.089589 0.00182022 0.0016208)
(0.0858316 0.00152836 0.00139086)
(0.0825892 0.00135062 0.00116164)
(0.0798637 0.00117819 0.000897867)
(0.099413 0.000345217 0.000270237)
(0.0988664 0.00201898 0.00187495)
(0.0979213 0.00257303 0.00218912)
(0.0963656 0.0023797 0.00190856)
(0.0946328 0.00211388 0.00162689)
(0.0929711 0.00192643 0.0014189)
(0.0913621 0.00180103 0.00127157)
(0.0995405 0.000245037 0.000321903)
(0.0992576 0.00105559 0.00154095)
(0.0988488 0.00150231 0.00211456)
(0.0981245 0.0015794 0.0020918)
(0.0973363 0.00151484 0.00188639)
(0.0965838 0.00144653 0.00166626)
(0.0958635 0.00141033 0.00149848)
(0.0993802 3.37878e-05 5.89947e-05)
(0.0992677 0.00027445 0.00120008)
(0.0989804 0.000432504 0.00188853)
(0.0984746 0.000483682 0.00200651)
(0.0979954 0.000479203 0.00191474)
(0.0975705 0.000466123 0.00173485)
(0.0971804 0.000453879 0.00154742)
(0.0993801 -3.37502e-05 5.89351e-05)
(0.0992677 -0.000274259 0.00120003)
(0.0989804 -0.000432094 0.0018885)
(0.0984748 -0.000482962 0.00200644)
(0.0979959 -0.000477955 0.00191456)
(0.0975716 -0.000463909 0.00173447)
(0.0971824 -0.000449937 0.00154684)
(0.0995405 -0.000245022 0.000321902)
(0.0992576 -0.00105552 0.00154095)
(0.098849 -0.00150218 0.00211444)
(0.0981251 -0.00157915 0.00209159)
(0.0973377 -0.00151427 0.00188606)
(0.0965865 -0.00144535 0.00166575)
(0.0958681 -0.00140823 0.00149786)
(0.099413 -0.000345237 0.000270229)
(0.0988664 -0.00201908 0.00187486)
(0.0979216 -0.00257323 0.00218887)
(0.0963662 -0.00238005 0.00190814)
(0.0946341 -0.00211442 0.0016263)
(0.0929736 -0.00192731 0.00141805)
(0.0913667 -0.00180232 0.00127018)
(0.0999088 -0.00129701 0.000712553)
(0.0969668 -0.00365595 0.0027472)
(0.0935346 -0.00264034 0.00211804)
(0.0895893 -0.00182065 0.0016204)
(0.0858321 -0.00152926 0.0013903)
(0.0825901 -0.00135203 0.00116061)
(0.0798653 -0.00118076 0.000896141)
(0.0956456 0.00836005 -0.00836006)
(0.0904939 -0.00152208 0.00152199)
(0.0790683 -0.00242981 0.00242963)
(0.0713012 -0.00148792 0.00148755)
(0.0661794 -0.0008308 0.0008301)
(0.0623226 -0.000564159 0.000563018)
(0.0592208 -0.000427398 0.000424897)
(0.0999088 0.000712552 0.00129701)
(0.0969668 0.0027472 0.00365596)
(0.0935346 0.00211804 0.00264035)
(0.0895893 0.0016204 0.00182067)
(0.0858321 0.00139029 0.00152928)
(0.0825901 0.0011606 0.00135205)
(0.0798654 0.000896129 0.00118079)
(0.100226 0.000720796 0.000720831)
(0.09996 0.00198269 0.00198284)
(0.0997822 0.00245172 0.0024521)
(0.0987881 0.00241941 0.00242005)
(0.0972754 0.00220046 0.00220148)
(0.0957746 0.00181076 0.00181255)
(0.0943924 0.00138116 0.00138408)
(0.10014 0.000774999 0.000869287)
(0.100454 0.00196236 0.00196372)
(0.100911 0.00242745 0.00233485)
(0.100978 0.0025264 0.00244181)
(0.100693 0.00242591 0.00233754)
(0.100223 0.00219685 0.0021135)
(0.0997072 0.0019157 0.00182483)
(0.100093 0.000445928 0.000763224)
(0.100504 0.00119449 0.00174909)
(0.101105 0.00158683 0.00212973)
(0.101634 0.00174051 0.00223516)
(0.101979 0.00178243 0.00228794)
(0.10217 0.00172929 0.00223717)
(0.102251 0.0016086 0.00211776)
(0.100087 0.000144421 0.000707036)
(0.100477 0.0003906 0.00161784)
(0.101066 0.000541298 0.00203472)
(0.101694 0.000610483 0.00211778)
(0.102269 0.000636617 0.00215054)
(0.102742 0.000627862 0.0021804)
(0.103123 0.000596503 0.00213499)
(0.100087 -0.000144358 0.000707029)
(0.100477 -0.000390411 0.00161783)
(0.101066 -0.00054097 0.00203472)
(0.101694 -0.0006099 0.0021177)
(0.102269 -0.000635531 0.00215021)
(0.102742 -0.000625942 0.00217977)
(0.103125 -0.000593346 0.00213403)
(0.100093 -0.000445923 0.000763209)
(0.100504 -0.00119448 0.00174904)
(0.101105 -0.00158679 0.00212956)
(0.101635 -0.00174039 0.0022346)
(0.10198 -0.0017822 0.00228686)
(0.102172 -0.00172892 0.0022356)
(0.102254 -0.00160788 0.0021154)
(0.10014 -0.000775038 0.000869239)
(0.100454 -0.00196247 0.00196351)
(0.100911 -0.00242767 0.00233437)
(0.100978 -0.00252685 0.00244101)
(0.100694 -0.00242669 0.00233636)
(0.100225 -0.00219819 0.00211191)
(0.0997098 -0.00191779 0.00182235)
(0.100226 -0.00072083 0.000720796)
(0.09996 -0.00198284 0.0019827)
(0.0997822 -0.00245209 0.00245173)
(0.0987881 -0.00242004 0.00241942)
(0.0972754 -0.00220147 0.00220048)
(0.0957745 -0.00181254 0.00181078)
(0.0943924 -0.00138406 0.00138119)
(0.0999088 -0.000712572 0.001297)
(0.0969668 -0.00274729 0.0036558)
(0.0935345 -0.00211825 0.00264011)
(0.089589 -0.00162079 0.00182023)
(0.0858316 -0.00139086 0.00152838)
(0.0825892 -0.00116163 0.00135065)
(0.0798636 -0.000897855 0.00117822)
(0.099413 0.000270229 0.000345239)
(0.0988664 0.00187486 0.00201908)
(0.0979216 0.00218886 0.00257324)
(0.0963662 0.00190814 0.00238006)
(0.0946341 0.00162629 0.00211443)
(0.0929736 0.00141804 0.00192733)
(0.0913667 0.00127017 0.00180234)
(0.10014 0.000869238 0.000775039)
(0.100454 0.00196351 0.00196247)
(0.100911 0.00233436 0.00242767)
(0.100978 0.002441 0.00252686)
(0.100694 0.00233635 0.0024267)
(0.100225 0.0021119 0.0021982)
(0.0997098 0.00182233 0.0019178)
(0.10006 0.000641381 0.000641447)
(0.100502 0.00164501 0.00164522)
(0.101149 0.00221234 0.00221274)
(0.101738 0.00243987 0.00244056)
(0.102205 0.00244172 0.00244283)
(0.102501 0.0023131 0.00231483)
(0.102645 0.0020918 0.00209467)
(0.100046 0.000395718 0.000540297)
(0.10048 0.00104487 0.00138426)
(0.101154 0.00147538 0.00192327)
(0.101913 0.00170531 0.00219308)
(0.102631 0.00178016 0.00229491)
(0.103301 0.00174493 0.00227956)
(0.103893 0.00163432 0.00218761)
(0.100039 0.000131361 0.000478804)
(0.100448 0.000350572 0.00123488)
(0.101114 0.000505216 0.00174666)
(0.101909 0.000597422 0.00202711)
(0.102728 0.000638979 0.00215257)
(0.103529 0.000638893 0.00218716)
(0.104297 0.000605597 0.00215433)
(0.100039 -0.00013132 0.000478782)
(0.100448 -0.000350465 0.00123481)
(0.101114 -0.000505024 0.00174653)
(0.101909 -0.000597099 0.00202688)
(0.102729 -0.000638428 0.00215213)
(0.10353 -0.00063799 0.00218644)
(0.104299 -0.000604062 0.00215322)
(0.100046 -0.000395739 0.00054024)
(0.10048 -0.00104493 0.00138409)
(0.101154 -0.00147549 0.00192293)
(0.101913 -0.00170545 0.00219247)
(0.102632 -0.00178044 0.00229387)
(0.103302 -0.0017454 0.00227789)
(0.103895 -0.00163511 0.00218499)
(0.10006 -0.000641446 0.000641383)
(0.100502 -0.00164521 0.00164501)
(0.101149 -0.00221274 0.00221235)
(0.101738 -0.00244056 0.00243988)
(0.102205 -0.00244282 0.00244173)
(0.102501 -0.00231482 0.00231312)
(0.102645 -0.00209466 0.00209182)
(0.10014 -0.000869286 0.000775)
(0.100454 -0.00196372 0.00196236)
(0.100911 -0.00233485 0.00242746)
(0.100978 -0.00244181 0.00252641)
(0.100693 -0.00233753 0.00242593)
(0.100223 -0.00211349 0.00219687)
(0.0997072 -0.00182481 0.00191572)
(0.099413 -0.000270237 0.000345219)
(0.0988664 -0.00187494 0.00201899)
(0.0979213 -0.00218911 0.00257305)
(0.0963656 -0.00190856 0.00237972)
(0.0946328 -0.00162688 0.0021139)
(0.0929711 -0.00141889 0.00192646)
(0.0913621 -0.00127156 0.00180107)
(0.0995405 0.000321902 0.000245023)
(0.0992576 0.00154094 0.00105553)
(0.098849 0.00211444 0.00150218)
(0.0981252 0.00209158 0.00157915)
(0.0973377 0.00188605 0.00151428)
(0.0965865 0.00166574 0.00144536)
(0.0958682 0.00149785 0.00140824)
(0.100093 0.000763208 0.000445924)
(0.100504 0.00174904 0.00119448)
(0.101105 0.00212956 0.00158679)
(0.101635 0.00223459 0.00174039)
(0.10198 0.00228685 0.00178221)
(0.102172 0.00223559 0.00172893)
(0.102254 0.00211538 0.00160789)
(0.100046 0.000540238 0.00039574)
(0.10048 0.00138408 0.00104493)
(0.101154 0.00192292 0.0014755)
(0.101913 0.00219246 0.00170545)
(0.102632 0.00229386 0.00178044)
(0.103302 0.00227787 0.00174541)
(0.103895 0.00218497 0.00163512)
(0.100036 0.000323139 0.000323184)
(0.100429 0.000868662 0.000868793)
(0.10108 0.00126237 0.00126261)
(0.101891 0.00150431 0.00150472)
(0.102756 0.00162145 0.00162211)
(0.103616 0.00164253 0.00164356)
(0.104446 0.00160432 0.00160585)
(0.100031 0.000107086 0.000281411)
(0.100395 0.000293071 0.000768716)
(0.101024 0.000434123 0.00113323)
(0.101844 0.000526298 0.00136947)
(0.102751 0.000576456 0.00150185)
(0.103689 0.000591893 0.00155485)
(0.104618 0.000582551 0.00155011)
(0.100031 -0.000107086 0.00028139)
(0.100395 -0.000293078 0.000768654)
(0.101024 -0.000434139 0.0011331)
(0.101844 -0.000526325 0.00136924)
(0.102751 -0.000576501 0.00150147)
(0.103689 -0.000591976 0.00155427)
(0.104618 -0.000582679 0.00154929)
(0.100036 -0.000323183 0.000323141)
(0.100429 -0.000868792 0.000868668)
(0.10108 -0.00126261 0.00126238)
(0.101891 -0.00150472 0.00150432)
(0.102756 -0.00162211 0.00162147)
(0.103616 -0.00164355 0.00164256)
(0.104446 -0.00160585 0.00160435)
(0.100046 -0.000540296 0.00039572)
(0.10048 -0.00138426 0.00104488)
(0.101154 -0.00192327 0.00147539)
(0.101913 -0.00219308 0.00170532)
(0.102631 -0.0022949 0.00178018)
(0.103301 -0.00227956 0.00174495)
(0.103893 -0.0021876 0.00163434)
(0.100093 -0.000763223 0.00044593)
(0.100504 -0.00174909 0.0011945)
(0.101105 -0.00212972 0.00158684)
(0.101634 -0.00223516 0.00174052)
(0.101979 -0.00228794 0.00178245)
(0.10217 -0.00223717 0.00172931)
(0.102251 -0.00211775 0.00160863)
(0.0995405 -0.000321903 0.000245039)
(0.0992576 -0.00154095 0.0010556)
(0.0988488 -0.00211456 0.00150233)
(0.0981245 -0.0020918 0.00157941)
(0.0973363 -0.00188639 0.00151486)
(0.0965838 -0.00166625 0.00144656)
(0.0958635 -0.00149847 0.00141037)
(0.0993801 5.89365e-05 3.37506e-05)
(0.0992677 0.00120003 0.000274261)
(0.0989805 0.0018885 0.000432095)
(0.0984748 0.00200643 0.000482965)
(0.0979959 0.00191455 0.000477959)
(0.0975717 0.00173446 0.000463914)
(0.0971824 0.00154683 0.000449943)
(0.100087 0.000707028 0.000144358)
(0.100477 0.00161782 0.000390412)
(0.101066 0.00203472 0.000540971)
(0.101694 0.00211769 0.000609903)
(0.102269 0.00215019 0.000635534)
(0.102743 0.00217976 0.000625947)
(0.103125 0.00213401 0.000593351)
(0.100039 0.00047878 0.00013132)
(0.100448 0.00123481 0.000350465)
(0.101114 0.00174652 0.000505025)
(0.101909 0.00202687 0.0005971)
(0.102729 0.00215212 0.000638429)
(0.10353 0.00218642 0.000637991)
(0.104299 0.00215319 0.000604064)
(0.100031 0.000281387 0.000107087)
(0.100395 0.000768648 0.000293078)
(0.101024 0.00113309 0.000434138)
(0.101844 0.00136923 0.000526324)
(0.102751 0.00150146 0.0005765)
(0.103689 0.00155424 0.000591974)
(0.104618 0.00154926 0.000582676)
(0.100048 7.31437e-05 7.31525e-05)
(0.100365 0.000251038 0.000251071)
(0.100961 0.000386346 0.000386408)
(0.101771 0.000477887 0.000477989)
(0.102703 0.000532072 0.000532231)
(0.103691 0.000556587 0.000556827)
(0.104692 0.000558858 0.00055921)
(0.100048 -7.31527e-05 7.31459e-05)
(0.100365 -0.000251072 0.000251045)
(0.100961 -0.000386409 0.000386357)
(0.101771 -0.000477991 0.000477903)
(0.102703 -0.000532235 0.000532094)
(0.103691 -0.000556833 0.000556615)
(0.104692 -0.000559217 0.000558892)
(0.100031 -0.000281411 0.000107089)
(0.100395 -0.000768716 0.000293078)
(0.101024 -0.00113323 0.000434133)
(0.101844 -0.00136947 0.000526313)
(0.102751 -0.00150186 0.000576475)
(0.103689 -0.00155485 0.000591918)
(0.104618 -0.00155012 0.000582583)
(0.100039 -0.000478803 0.000131363)
(0.100448 -0.00123488 0.000350578)
(0.101114 -0.00174666 0.000505225)
(0.101909 -0.00202711 0.000597435)
(0.102728 -0.00215258 0.000638997)
(0.103529 -0.00218716 0.000638916)
(0.104297 -0.00215433 0.000605626)
(0.100087 -0.000707036 0.000144424)
(0.100477 -0.00161784 0.000390607)
(0.101066 -0.00203472 0.000541308)
(0.101694 -0.00211778 0.000610496)
(0.102269 -0.00215054 0.000636634)
(0.102742 -0.00218039 0.000627884)
(0.103123 -0.00213499 0.000596531)
(0.0993802 -5.89949e-05 3.37892e-05)
(0.0992677 -0.00120008 0.000274456)
(0.0989804 -0.00188853 0.000432516)
(0.0984746 -0.00200651 0.000483699)
(0.0979954 -0.00191474 0.000479225)
(0.0975706 -0.00173485 0.000466149)
(0.0971804 -0.00154741 0.000453911)
(0.0993802 5.89933e-05 -3.37878e-05)
(0.0992677 0.00120007 -0.00027445)
(0.0989804 0.00188852 -0.000432504)
(0.0984746 0.00200651 -0.000483682)
(0.0979954 0.00191473 -0.000479203)
(0.0975706 0.00173484 -0.000466122)
(0.0971805 0.00154741 -0.000453879)
(0.100087 0.000707035 -0.000144421)
(0.100477 0.00161784 -0.0003906)
(0.101066 0.00203472 -0.000541298)
(0.101694 0.00211777 -0.000610483)
(0.102269 0.00215053 -0.000636617)
(0.102742 0.00218038 -0.000627862)
(0.103123 0.00213497 -0.000596505)
(0.100039 0.000478802 -0.000131361)
(0.100448 0.00123488 -0.000350572)
(0.101114 0.00174665 -0.000505216)
(0.101909 0.00202709 -0.000597422)
(0.102728 0.00215256 -0.00063898)
(0.103529 0.00218714 -0.000638895)
(0.104297 0.0021543 -0.000605601)
(0.100031 0.000281408 -0.000107086)
(0.100395 0.00076871 -0.000293071)
(0.101024 0.00113321 -0.000434123)
(0.101844 0.00136945 -0.0005263)
(0.102751 0.00150183 -0.000576458)
(0.103689 0.00155482 -0.000591896)
(0.104618 0.00155008 -0.000582557)
(0.100048 7.31491e-05 -7.31426e-05)
(0.100365 0.000251063 -0.000251038)
(0.100961 0.000386395 -0.000386347)
(0.101771 0.000477971 -0.00047789)
(0.102703 0.000532207 -0.000532076)
(0.103691 0.000556797 -0.000556593)
(0.104692 0.000559173 -0.000558865)
(0.100048 -7.31453e-05 -7.31498e-05)
(0.100365 -0.000251046 -0.000251064)
(0.100961 -0.00038636 -0.000386397)
(0.101771 -0.000477908 -0.000477975)
(0.102703 -0.000532101 -0.000532212)
(0.103691 -0.000556624 -0.000556804)
(0.104692 -0.000558904 -0.000559182)
(0.100031 -0.00028139 -0.000107084)
(0.100395 -0.000768655 -0.000293071)
(0.101024 -0.00113311 -0.000434128)
(0.101844 -0.00136925 -0.00052631)
(0.102751 -0.00150148 -0.000576482)
(0.103689 -0.00155428 -0.000591951)
(0.104618 -0.0015493 -0.000582648)
(0.100039 -0.000478782 -0.000131318)
(0.100448 -0.00123481 -0.000350459)
(0.101114 -0.00174653 -0.000505015)
(0.101909 -0.00202688 -0.000597086)
(0.102729 -0.00215214 -0.000638411)
(0.10353 -0.00218644 -0.000637968)
(0.104299 -0.00215323 -0.000604035)
(0.100087 -0.000707028 -0.000144356)
(0.100477 -0.00161783 -0.000390405)
(0.101066 -0.00203472 -0.00054096)
(0.101694 -0.0021177 -0.000609888)
(0.102269 -0.00215021 -0.000635515)
(0.102742 -0.00217978 -0.000625921)
(0.103125 -0.00213403 -0.00059332)
(0.0993801 -5.89355e-05 -3.37492e-05)
(0.0992677 -0.00120003 -0.000274254)
(0.0989805 -0.0018885 -0.000432082)
(0.0984748 -0.00200644 -0.000482946)
(0.0979959 -0.00191456 -0.000477935)
(0.0975716 -0.00173446 -0.000463884)
(0.0971824 -0.00154684 -0.000449908)
(0.0995405 0.000321903 -0.000245037)
(0.0992576 0.00154095 -0.0010556)
(0.0988488 0.00211456 -0.00150232)
(0.0981245 0.0020918 -0.0015794)
(0.0973363 0.00188639 -0.00151484)
(0.0965839 0.00166625 -0.00144653)
(0.0958635 0.00149847 -0.00141034)
(0.100093 0.000763222 -0.000445928)
(0.100504 0.00174909 -0.00119449)
(0.101105 0.00212972 -0.00158683)
(0.101634 0.00223515 -0.00174051)
(0.101979 0.00228793 -0.00178243)
(0.10217 0.00223716 -0.00172929)
(0.102251 0.00211774 -0.00160861)
(0.100046 0.000540295 -0.000395718)
(0.10048 0.00138426 -0.00104487)
(0.101154 0.00192326 -0.00147539)
(0.101913 0.00219307 -0.00170531)
(0.102631 0.00229489 -0.00178016)
(0.103301 0.00227954 -0.00174493)
(0.103893 0.00218758 -0.00163432)
(0.100036 0.000323182 -0.000323139)
(0.100429 0.000868786 -0.000868663)
(0.10108 0.0012626 -0.00126237)
(0.101891 0.0015047 -0.00150431)
(0.102756 0.00162209 -0.00162146)
(0.103616 0.00164353 -0.00164254)
(0.104446 0.00160582 -0.00160432)
(0.100031 0.000107084 -0.000281387)
(0.100395 0.00029307 -0.000768648)
(0.101024 0.000434126 -0.00113309)
(0.101844 0.000526306 -0.00136923)
(0.102751 0.000576476 -0.00150146)
(0.103689 0.000591943 -0.00155425)
(0.104618 0.000582638 -0.00154926)
(0.100031 -0.000107089 -0.000281408)
(0.100395 -0.000293079 -0.00076871)
(0.101024 -0.000434137 -0.00113322)
(0.101844 -0.000526319 -0.00136945)
(0.102751 -0.000576483 -0.00150184)
(0.103689 -0.000591929 -0.00155482)
(0.100036 -0.000323141 -0.000323181)
(0.100429 -0.000868669 -0.000868786)
(0.10108 -0.00126238 -0.0012626)
(0.101891 -0.00150433 -0.00150471)
(0.102756 -0.00162148 -0.0016221)
(0.103616 -0.00164257 -0.00164353)
(0.100046 -0.00054024 -0.000395737)
(0.10048 -0.00138409 -0.00104493)
(0.101154 -0.00192294 -0.00147549)
(0.101913 -0.00219247 -0.00170544)
(0.102632 -0.00229388 -0.00178042)
(0.103302 -0.0022779 -0.00174538)
(0.100093 -0.000763209 -0.000445922)
(0.100504 -0.00174905 -0.00119448)
(0.101105 -0.00212956 -0.00158678)
(0.101635 -0.0022346 -0.00174037)
(0.10198 -0.00228686 -0.00178219)
(0.102172 -0.00223561 -0.0017289)
(0.0995405 -0.000321902 -0.000245022)
(0.0992576 -0.00154095 -0.00105552)
(0.098849 -0.00211444 -0.00150217)
(0.0981252 -0.00209159 -0.00157913)
(0.0973377 -0.00188606 -0.00151425)
(0.0965865 -0.00166575 -0.00144533)
(0.099413 0.000270236 -0.000345218)
(0.0988664 0.00187494 -0.00201898)
(0.0979213 0.00218911 -0.00257304)
(0.0963656 0.00190855 -0.0023797)
(0.0946328 0.00162688 -0.00211389)
(0.0929711 0.00141889 -0.00192644)
(0.0913622 0.00127156 -0.00180104)
(0.10014 0.000869286 -0.000774999)
(0.100454 0.00196372 -0.00196236)
(0.100911 0.00233485 -0.00242745)
(0.100978 0.0024418 -0.00252641)
(0.100693 0.00233753 -0.00242592)
(0.100223 0.00211348 -0.00219686)
(0.0997072 0.00182481 -0.00191571)
(0.10006 0.000641445 -0.000641381)
(0.100502 0.00164521 -0.00164501)
(0.101149 0.00221273 -0.00221234)
(0.101738 0.00244055 -0.00243987)
(0.102205 0.00244281 -0.00244172)
(0.102501 0.00231481 -0.0023131)
(0.102645 0.00209464 -0.00209181)
(0.100046 0.000395738 -0.000540238)
(0.10048 0.00104493 -0.00138408)
(0.101154 0.00147548 -0.00192293)
(0.101913 0.00170544 -0.00219246)
(0.102632 0.00178042 -0.00229386)
(0.103302 0.00174538 -0.00227787)
(0.103895 0.00163508 -0.00218497)
(0.100039 0.000131318 -0.00047878)
(0.100448 0.000350458 -0.00123481)
(0.101114 0.000505013 -0.00174652)
(0.101909 0.000597082 -0.00202687)
(0.102729 0.000638405 -0.00215212)
(0.10353 0.000637961 -0.00218642)
(0.104299 0.000604027 -0.00215319)
(0.100039 -0.000131363 -0.000478802)
(0.100448 -0.000350579 -0.00123488)
(0.101114 -0.000505229 -0.00174665)
(0.101909 -0.000597441 -0.00202709)
(0.102728 -0.000639006 -0.00215256)
(0.103529 -0.000638927 -0.00218714)
(0.100046 -0.00039572 -0.000540295)
(0.10048 -0.00104488 -0.00138425)
(0.101154 -0.0014754 -0.00192326)
(0.101913 -0.00170533 -0.00219307)
(0.102631 -0.00178019 -0.00229489)
(0.103301 -0.00174496 -0.00227954)
(0.10006 -0.000641383 -0.000641445)
(0.100502 -0.00164501 -0.00164521)
(0.101149 -0.00221235 -0.00221273)
(0.101738 -0.00243989 -0.00244055)
(0.102205 -0.00244174 -0.00244281)
(0.102501 -0.00231313 -0.00231481)
(0.10014 -0.00086924 -0.000775037)
(0.100454 -0.00196351 -0.00196247)
(0.100911 -0.00233437 -0.00242766)
(0.100978 -0.00244102 -0.00252685)
(0.100694 -0.00233637 -0.00242668)
(0.100225 -0.00211193 -0.00219818)
(0.099413 -0.000270229 -0.000345237)
(0.0988664 -0.00187486 -0.00201907)
(0.0979216 -0.00218887 -0.00257322)
(0.0963662 -0.00190815 -0.00238004)
(0.0946341 -0.00162631 -0.0021144)
(0.0929736 -0.00141806 -0.00192729)
(0.0999088 0.000712572 -0.001297)
(0.0969668 0.00274729 -0.0036558)
(0.0935345 0.00211825 -0.0026401)
(0.089589 0.00162079 -0.00182022)
(0.0858316 0.00139085 -0.00152837)
(0.0825892 0.00116163 -0.00135063)
(0.0798637 0.000897853 -0.0011782)
(0.100226 0.00072083 -0.000720796)
(0.09996 0.00198284 -0.00198269)
(0.0997822 0.00245209 -0.00245173)
(0.0987881 0.00242004 -0.00241941)
(0.0972754 0.00220146 -0.00220047)
(0.0957746 0.00181253 -0.00181077)
(0.0943925 0.00138406 -0.00138117)
(0.10014 0.000775038 -0.000869239)
(0.100454 0.00196247 -0.00196351)
(0.100911 0.00242767 -0.00233437)
(0.100978 0.00252685 -0.002441)
(0.100694 0.00242668 -0.00233635)
(0.100225 0.00219818 -0.0021119)
(0.0997099 0.00191778 -0.00182234)
(0.100093 0.000445923 -0.000763208)
(0.100504 0.00119448 -0.00174904)
(0.101105 0.00158678 -0.00212956)
(0.101635 0.00174038 -0.00223459)
(0.10198 0.00178219 -0.00228685)
(0.102172 0.00172891 -0.00223559)
(0.102254 0.00160786 -0.00211538)
(0.100087 0.000144357 -0.000707028)
(0.100477 0.000390407 -0.00161782)
(0.101066 0.000540961 -0.00203472)
(0.101694 0.000609887 -0.00211769)
(0.102269 0.000635513 -0.00215019)
(0.102743 0.000625918 -0.00217976)
(0.103125 0.000593315 -0.002134)
(0.100087 -0.000144423 -0.000707035)
(0.100477 -0.000390606 -0.00161784)
(0.101066 -0.000541309 -0.00203472)
(0.101694 -0.000610499 -0.00211777)
(0.102269 -0.00063664 -0.00215053)
(0.102742 -0.000627891 -0.00218038)
(0.100093 -0.00044593 -0.000763222)
(0.100504 -0.0011945 -0.00174909)
(0.101105 -0.00158684 -0.00212972)
(0.101634 -0.00174052 -0.00223515)
(0.101979 -0.00178246 -0.00228793)
(0.10217 -0.00172932 -0.00223716)
(0.10014 -0.000775 -0.000869286)
(0.100454 -0.00196236 -0.00196372)
(0.100911 -0.00242746 -0.00233484)
(0.100978 -0.00252642 -0.0024418)
(0.100693 -0.00242594 -0.00233753)
(0.100223 -0.00219689 -0.00211348)
(0.100226 -0.000720797 -0.00072083)
(0.09996 -0.0019827 -0.00198284)
(0.0997822 -0.00245174 -0.00245209)
(0.0987881 -0.00241942 -0.00242004)
(0.0972754 -0.00220049 -0.00220146)
(0.0957746 -0.00181079 -0.00181253)
(0.0999088 -0.000712553 -0.00129701)
(0.0969668 -0.0027472 -0.00365595)
(0.0935346 -0.00211805 -0.00264034)
(0.0895893 -0.00162041 -0.00182065)
(0.0858321 -0.00139031 -0.00152925)
(0.0825901 -0.00116062 -0.00135202)
(0.0956456 -0.00836005 0.00836006)
(0.0904939 0.00152208 -0.00152198)
(0.0790683 0.00242981 -0.00242963)
(0.0713012 0.00148793 -0.00148755)
(0.0661794 0.000830804 -0.000830094)
(0.0623226 0.000564163 -0.00056301)
(0.0592208 0.000427406 -0.000424885)
(0.0999088 0.00129701 -0.000712553)
(0.0969668 0.00365596 -0.0027472)
(0.0935346 0.00264034 -0.00211804)
(0.0895893 0.00182065 -0.0016204)
(0.0858322 0.00152926 -0.00139029)
(0.0825901 0.00135203 -0.0011606)
(0.0798654 0.00118077 -0.000896135)
(0.099413 0.000345238 -0.000270229)
(0.0988664 0.00201908 -0.00187486)
(0.0979216 0.00257323 -0.00218887)
(0.0963662 0.00238005 -0.00190814)
(0.0946341 0.00211442 -0.00162629)
(0.0929736 0.00192731 -0.00141804)
(0.0913667 0.00180231 -0.00127017)
(0.0995405 0.000245023 -0.000321902)
(0.0992576 0.00105552 -0.00154094)
(0.098849 0.00150217 -0.00211444)
(0.0981252 0.00157914 -0.00209158)
(0.0973377 0.00151426 -0.00188605)
(0.0965865 0.00144534 -0.00166574)
(0.0958682 0.00140821 -0.00149785)
(0.0993801 3.375e-05 -5.89337e-05)
(0.0992677 0.000274257 -0.00120003)
(0.0989805 0.00043209 -0.0018885)
(0.0984748 0.000482954 -0.00200643)
(0.0979959 0.000477943 -0.00191455)
(0.0975717 0.000463892 -0.00173445)
(0.0971825 0.000449915 -0.00154683)
(0.0993802 -3.37885e-05 -5.89973e-05)
(0.0992677 -0.000274454 -0.00120007)
(0.0989804 -0.00043251 -0.00188852)
(0.0984746 -0.000483693 -0.0020065)
(0.0979954 -0.000479219 -0.00191473)
(0.0975706 -0.000466144 -0.00173484)
(0.0995405 -0.000245038 -0.000321903)
(0.0992576 -0.0010556 -0.00154095)
(0.0988488 -0.00150232 -0.00211456)
(0.0981245 -0.00157941 -0.0020918)
(0.0973363 -0.00151486 -0.00188639)
(0.0965839 -0.00144655 -0.00166625)
(0.099413 -0.000345219 -0.000270237)
(0.0988664 -0.00201899 -0.00187494)
(0.0979213 -0.00257305 -0.00218911)
(0.0963656 -0.00237972 -0.00190856)
(0.0946328 -0.0021139 -0.00162688)
(0.0929711 -0.00192646 -0.00141889)
(0.0999088 -0.00129699 -0.000712571)
(0.0969668 -0.0036558 -0.00274729)
(0.0935345 -0.0026401 -0.00211825)
(0.089589 -0.00182023 -0.00162079)
(0.0858316 -0.00152838 -0.00139085)
(0.0825892 -0.00135065 -0.00116163)
(0.0956456 0.00836005 0.00836005)
(0.0904939 -0.00152199 -0.00152207)
(0.0790683 -0.00242964 -0.00242981)
(0.0713012 -0.00148755 -0.00148792)
(0.0661794 -0.000830104 -0.000830797)
(0.0623226 -0.000563022 -0.000564153)
)
;

boundaryField
{
    inlet
    {
        type            fixedValue;
        value           uniform (0.1 0 0);
    }
    ami1
    {
        type            cyclicAMI;
        value           nonuniform List<vector> 0();
    }
    walls
    {
        type            noSlip;
    }
    ami2
    {
        type            cyclicAMI;
        value           nonuniform List<vector> 0();
    }
    outlet
    {
        type            zeroGradient;
    }
    procBoundary4to3
    {
        type            processor;
        value           nonuniform List<vector> 
109
(
(0.056685 0.000321439 0.000325806)
(0.0775642 0.00103858 0.000693379)
(0.0898505 0.00170479 0.00116059)
(0.0951944 0.00137928 0.00137232)
(0.0968301 0.000444063 0.00138878)
(0.0968335 -0.00043729 0.0013878)
(0.0952024 -0.00137578 0.00137127)
(0.0898584 -0.00170687 0.00115825)
(0.0775673 -0.001043 0.000690612)
(0.0566849 -0.000325772 0.000321473)
(0.0775673 0.000690596 0.00104304)
(0.0931632 0.00106805 0.00107294)
(0.0991807 0.00166434 0.00157826)
(0.102273 0.00146121 0.00196743)
(0.103426 0.000552079 0.00204569)
(0.103429 -0.000546882 0.00204419)
(0.102279 -0.00145992 0.00196382)
(0.0991853 -0.00166746 0.00157388)
(0.0931632 -0.00107292 0.00106808)
(0.0775642 -0.000693365 0.00103862)
(0.0898585 0.00115823 0.00170689)
(0.0991853 0.00157386 0.00166748)
(0.102714 0.00186783 0.0018724)
(0.104388 0.00149171 0.00205572)
(0.105007 0.000560986 0.00208093)
(0.105009 -0.000558483 0.00207926)
(0.104391 -0.00149295 0.00205145)
(0.102714 -0.00187238 0.00186786)
(0.0991807 -0.00157824 0.00166437)
(0.0898505 -0.00116058 0.00170483)
(0.0952025 0.00137125 0.0013758)
(0.102279 0.00196379 0.00145993)
(0.104391 0.00205142 0.00149295)
(0.105224 0.00152577 0.00152816)
(0.105516 0.000558054 0.00150957)
(0.105516 -0.00055816 0.00150837)
(0.105224 -0.00152816 0.0015258)
(0.104388 -0.00205571 0.00149174)
(0.102273 -0.00196741 0.00146124)
(0.0951944 -0.00137231 0.00137932)
(0.0968336 0.00138779 0.000437298)
(0.103429 0.00204416 0.000546888)
(0.105009 0.00207923 0.000558484)
(0.105516 0.00150833 0.000558156)
(0.105677 0.000545926 0.00054643)
(0.105677 -0.000546439 0.000545968)
(0.105516 -0.00150958 0.000558093)
(0.105007 -0.00208093 0.00056102)
(0.103426 -0.00204568 0.000552113)
(0.0968301 -0.00138877 0.000444099)
(0.0968301 0.00138877 -0.000444062)
(0.103426 0.00204566 -0.000552081)
(0.105007 0.0020809 -0.00056099)
(0.105516 0.00150953 -0.000558061)
(0.105677 0.000546384 -0.000545935)
(0.105677 -0.000545983 -0.000546395)
(0.104618 -0.000582597 -0.00155008)
(0.105516 -0.00150838 -0.000558121)
(0.104446 -0.00160436 -0.00160582)
(0.105009 -0.00207927 -0.00055845)
(0.103895 -0.00218501 -0.00163509)
(0.103429 -0.00204419 -0.000546851)
(0.102254 -0.0021154 -0.00160786)
(0.0968335 -0.0013878 -0.000437255)
(0.0958682 -0.00149786 -0.0014082)
(0.0951945 0.00137231 -0.00137928)
(0.102273 0.0019674 -0.00146121)
(0.104388 0.00205569 -0.00149171)
(0.105224 0.00152812 -0.00152578)
(0.105516 0.00055811 -0.00150834)
(0.104618 -0.000582597 -0.00155008)
(0.104618 -0.000582597 -0.00155008)
(0.104446 -0.00160436 -0.00160582)
(0.103895 -0.00218501 -0.00163509)
(0.102254 -0.0021154 -0.00160786)
(0.0958682 -0.00149786 -0.0014082)
(0.0898505 0.00116058 -0.0017048)
(0.0991808 0.00157823 -0.00166435)
(0.102714 0.00187237 -0.00186784)
(0.104391 0.00149292 -0.00205143)
(0.105009 0.00055844 -0.00207923)
(0.104297 -0.00060564 -0.0021543)
(0.104297 -0.00060564 -0.0021543)
(0.103893 -0.00163436 -0.00218758)
(0.102645 -0.00209184 -0.00209464)
(0.0997098 -0.00182237 -0.00191777)
(0.0913667 -0.00127019 -0.00180229)
(0.0775642 0.000693363 -0.0010386)
(0.0931632 0.00107292 -0.00106806)
(0.0991853 0.00166745 -0.00157387)
(0.102279 0.0014599 -0.00196379)
(0.103429 0.000546844 -0.00204416)
(0.103123 -0.000596542 -0.00213497)
(0.103123 -0.000596542 -0.00213497)
(0.102251 -0.00160864 -0.00211774)
(0.0997072 -0.00191574 -0.00182481)
(0.0943924 -0.00138121 -0.00138405)
(0.0798654 -0.000896156 -0.00118075)
(0.056685 0.000325783 -0.000321458)
(0.0775674 0.00104301 -0.000690604)
(0.0898585 0.00170686 -0.00115824)
(0.0952025 0.00137576 -0.00137125)
(0.0968336 0.000437262 -0.00138779)
(0.0971805 -0.000453907 -0.0015474)
(0.0971805 -0.000453907 -0.0015474)
(0.0958635 -0.00141037 -0.00149847)
(0.0913622 -0.00180107 -0.00127155)
(0.0798637 -0.00117822 -0.000897851)
(0.0592208 -0.000424903 -0.000427391)
)
;
    }
}


// ************************************************************************* //
