/*--------------------------------*- C++ -*----------------------------------*\
| =========                 |                                                 |
| \\      /  F ield         | OpenFOAM: The Open Source CFD Toolbox           |
|  \\    /   O peration     | Version:  2212                                  |
|   \\  /    A nd           | Website:  www.openfoam.com                      |
|    \\/     M anipulation  |                                                 |
\*---------------------------------------------------------------------------*/
FoamFile
{
    version     2.0;
    format      ascii;
    arch        "LSB;label=32;scalar=64";
    class       volScalarField;
    location    "2.1";
    object      nut;
}
// * * * * * * * * * * * * * * * * * * * * * * * * * * * * * * * * * * * * * //

dimensions      [0 2 -1 0 0 0 0];

internalField   nonuniform List<scalar> 
680
(
4.5356e-05
2.3208e-05
1.65396e-05
1.36494e-05
1.18966e-05
1.06844e-05
9.76079e-06
0.000107685
6.77183e-05
5.06311e-05
4.14159e-05
3.54049e-05
3.10367e-05
2.77138e-05
0.000160509
0.00010736
8.07408e-05
6.55975e-05
5.54895e-05
4.83025e-05
4.31308e-05
0.000198681
0.0001383
0.000105187
8.55268e-05
7.25011e-05
6.28899e-05
5.60607e-05
0.000218609
0.000155003
0.000118661
9.65068e-05
8.18822e-05
7.08353e-05
6.30852e-05
0.000218609
0.000155003
0.000118661
9.65068e-05
8.18823e-05
7.08354e-05
6.30854e-05
0.000198681
0.0001383
0.000105187
8.55269e-05
7.25013e-05
6.28902e-05
5.60612e-05
0.000160509
0.00010736
8.07409e-05
6.55976e-05
5.54897e-05
4.83027e-05
4.31312e-05
0.000107685
6.77183e-05
5.06311e-05
4.14159e-05
3.54049e-05
3.10367e-05
2.77138e-05
4.5356e-05
2.3208e-05
1.65396e-05
1.36494e-05
1.18966e-05
1.06844e-05
9.76079e-06
0.000107685
6.77183e-05
5.06311e-05
4.14159e-05
3.54049e-05
3.10367e-05
2.77138e-05
0.000528907
0.000369984
0.000305097
0.000261371
0.000228528
0.000202476
0.000181114
0.000663952
0.000488458
0.000404619
0.000347247
0.000305035
0.000272126
0.000245316
0.00071288
0.000556432
0.000466396
0.000402354
0.000354424
0.000317047
0.000286669
0.000728543
0.000588231
0.000496001
0.000429131
0.000378508
0.000338931
0.000306813
0.000728543
0.000588231
0.000496002
0.000429131
0.000378509
0.000338934
0.000306817
0.00071288
0.000556432
0.000466397
0.000402355
0.000354426
0.000317052
0.000286677
0.000663952
0.000488459
0.000404619
0.000347249
0.000305037
0.000272129
0.000245321
0.000528907
0.000369984
0.000305097
0.000261371
0.000228528
0.000202476
0.000181114
0.000107685
6.77183e-05
5.06311e-05
4.14159e-05
3.54049e-05
3.10367e-05
2.77138e-05
0.000160509
0.00010736
8.07409e-05
6.55976e-05
5.54897e-05
4.83027e-05
4.31312e-05
0.000663952
0.000488459
0.000404619
0.000347249
0.000305037
0.000272129
0.000245321
0.000786827
0.000662293
0.000567974
0.000495805
0.000439463
0.000394562
0.000357975
0.000809324
0.000713905
0.000631504
0.000562573
0.000505376
0.000457784
0.000417839
0.000814958
0.000730426
0.000654634
0.000589043
0.000533066
0.000485437
0.000444761
0.000814958
0.000730426
0.000654634
0.000589044
0.000533067
0.000485439
0.000444764
0.000809324
0.000713906
0.000631505
0.000562574
0.000505378
0.000457787
0.000417843
0.000786827
0.000662293
0.000567974
0.000495805
0.000439463
0.000394562
0.000357975
0.000663952
0.000488458
0.000404619
0.000347247
0.000305035
0.000272126
0.000245316
0.000160509
0.00010736
8.07408e-05
6.55975e-05
5.54895e-05
4.83025e-05
4.31308e-05
0.000198681
0.0001383
0.000105187
8.55269e-05
7.25013e-05
6.28902e-05
5.60612e-05
0.00071288
0.000556432
0.000466397
0.000402355
0.000354426
0.000317052
0.000286677
0.000809324
0.000713906
0.000631505
0.000562574
0.000505378
0.000457787
0.000417843
0.000823497
0.000753987
0.000688491
0.000628748
0.000575387
0.000528266
0.000486846
0.000826292
0.000764347
0.000706102
0.000651937
0.00060223
0.000557104
0.000516428
0.000826292
0.000764347
0.000706102
0.000651937
0.000602231
0.000557104
0.000516429
0.000823497
0.000753987
0.000688491
0.000628748
0.000575387
0.000528266
0.000486846
0.000809324
0.000713905
0.000631504
0.000562573
0.000505376
0.000457784
0.000417839
0.00071288
0.000556432
0.000466396
0.000402354
0.000354424
0.000317047
0.000286669
0.000198681
0.0001383
0.000105187
8.55268e-05
7.25011e-05
6.28899e-05
5.60607e-05
0.000218609
0.000155003
0.000118661
9.65068e-05
8.18823e-05
7.08354e-05
6.30854e-05
0.000728543
0.000588231
0.000496002
0.000429131
0.000378509
0.000338934
0.000306817
0.000814958
0.000730426
0.000654634
0.000589044
0.000533067
0.000485439
0.000444764
0.000826292
0.000764347
0.000706102
0.000651937
0.000602231
0.000557104
0.000516429
0.000828382
0.0007726
0.000721138
0.00067296
0.000627782
0.000585621
0.000546548
0.000828382
0.0007726
0.000721138
0.00067296
0.000627782
0.000585621
0.000546548
0.000826292
0.000764347
0.000706102
0.000651937
0.00060223
0.000557104
0.000516428
0.000814958
0.000730426
0.000654634
0.000589043
0.000533066
0.000485437
0.000444761
0.000728543
0.000588231
0.000496001
0.000429131
0.000378508
0.000338931
0.000306813
0.000218609
0.000155003
0.000118661
9.65068e-05
8.18822e-05
7.08353e-05
6.30852e-05
0.000218609
0.000155003
0.000118661
9.65068e-05
8.18822e-05
7.08353e-05
6.30852e-05
0.000728543
0.000588231
0.000496001
0.000429131
0.000378508
0.000338931
0.000306813
0.000814958
0.000730426
0.000654634
0.000589043
0.000533066
0.000485437
0.000444761
0.000826292
0.000764347
0.000706102
0.000651937
0.00060223
0.000557104
0.000516428
0.000828382
0.0007726
0.000721138
0.00067296
0.000627782
0.000585621
0.000546548
0.000828382
0.0007726
0.000721138
0.00067296
0.000627782
0.000585621
0.000546548
0.000826292
0.000764347
0.000706102
0.000651937
0.000602231
0.000557104
0.000516429
0.000814958
0.000730426
0.000654634
0.000589044
0.000533067
0.000485439
0.000444764
0.000728543
0.000588231
0.000496002
0.000429131
0.000378509
0.000338934
0.000306817
0.000218609
0.000155003
0.000118661
9.65068e-05
8.18823e-05
7.08354e-05
6.30854e-05
0.000198681
0.0001383
0.000105187
8.55268e-05
7.25011e-05
6.28899e-05
5.60607e-05
0.00071288
0.000556432
0.000466396
0.000402354
0.000354424
0.000317047
0.000286669
0.000809324
0.000713905
0.000631504
0.000562573
0.000505376
0.000457784
0.000417839
0.000823497
0.000753987
0.000688491
0.000628748
0.000575387
0.000528266
0.000486846
0.000826292
0.000764347
0.000706102
0.000651937
0.000602231
0.000557104
0.000516429
0.000826292
0.000764347
0.000706102
0.000651937
0.000602231
0.000557104
0.000823497
0.000753987
0.000688491
0.000628748
0.000575387
0.000528266
0.000809324
0.000713906
0.000631505
0.000562574
0.000505378
0.000457787
0.00071288
0.000556432
0.000466397
0.000402355
0.000354426
0.000317052
0.000198681
0.0001383
0.000105187
8.55269e-05
7.25013e-05
6.28902e-05
0.000160509
0.00010736
8.07408e-05
6.55975e-05
5.54896e-05
4.83025e-05
4.31308e-05
0.000663952
0.000488458
0.000404619
0.000347247
0.000305035
0.000272126
0.000245316
0.000786827
0.000662293
0.000567974
0.000495805
0.000439463
0.000394562
0.000357975
0.000809324
0.000713906
0.000631505
0.000562574
0.000505378
0.000457787
0.000417844
0.000814958
0.000730426
0.000654634
0.000589044
0.000533067
0.000485439
0.000444764
0.000814958
0.000730426
0.000654634
0.000589043
0.000533066
0.000485437
0.000809324
0.000713905
0.000631504
0.000562573
0.000505376
0.000457784
0.000786828
0.000662293
0.000567974
0.000495805
0.000439463
0.000394562
0.000663952
0.000488459
0.000404619
0.000347249
0.000305037
0.000272129
0.000160509
0.00010736
8.07409e-05
6.55976e-05
5.54897e-05
4.83027e-05
0.000107685
6.77183e-05
5.06311e-05
4.14159e-05
3.54049e-05
3.10367e-05
2.77138e-05
0.000528907
0.000369984
0.000305097
0.000261371
0.000228528
0.000202476
0.000181114
0.000663952
0.000488459
0.000404619
0.000347249
0.000305037
0.000272129
0.000245321
0.00071288
0.000556432
0.000466397
0.000402355
0.000354426
0.000317052
0.000286677
0.000728543
0.000588231
0.000496002
0.000429131
0.000378509
0.000338934
0.000306817
0.000728543
0.000588231
0.000496001
0.000429131
0.000378508
0.000338932
0.00071288
0.000556432
0.000466396
0.000402354
0.000354424
0.000317047
0.000663952
0.000488458
0.000404619
0.000347247
0.000305035
0.000272126
0.000528907
0.000369984
0.000305097
0.000261371
0.000228528
0.000202476
0.000107685
6.77183e-05
5.06311e-05
4.14159e-05
3.54049e-05
3.10367e-05
4.5356e-05
2.3208e-05
1.65396e-05
1.36494e-05
1.18966e-05
1.06844e-05
9.76079e-06
0.000107685
6.77183e-05
5.06311e-05
4.14159e-05
3.54049e-05
3.10368e-05
2.77138e-05
0.000160509
0.00010736
8.07409e-05
6.55976e-05
5.54897e-05
4.83027e-05
4.31312e-05
0.000198681
0.0001383
0.000105187
8.55269e-05
7.25013e-05
6.28902e-05
5.60612e-05
0.000218609
0.000155003
0.000118661
9.65068e-05
8.18823e-05
7.08354e-05
6.30854e-05
0.000218609
0.000155003
0.000118661
9.65068e-05
8.18822e-05
7.08353e-05
0.000198681
0.0001383
0.000105187
8.55268e-05
7.25011e-05
6.28899e-05
0.000160509
0.00010736
8.07408e-05
6.55975e-05
5.54895e-05
4.83025e-05
0.000107685
6.77183e-05
5.06311e-05
4.14159e-05
3.54049e-05
3.10367e-05
4.5356e-05
2.3208e-05
1.65396e-05
1.36494e-05
1.18966e-05
1.06844e-05
)
;

boundaryField
{
    inlet
    {
        type            calculated;
        value           uniform 0.000851986;
    }
    ami1
    {
        type            cyclicAMI;
        value           nonuniform List<scalar> 0();
    }
    walls
    {
        type            nutkWallFunction;
        blending        stepwise;
        value           nonuniform List<scalar> 
271
(
0
9.40055e-06
1.69775e-05
2.22372e-05
2.4929e-05
2.4929e-05
2.22372e-05
1.69775e-05
9.40055e-06
0
0
3.31268e-06
9.3526e-06
1.38415e-05
1.62058e-05
1.62058e-05
1.38415e-05
9.3526e-06
3.31268e-06
0
0
5.57022e-07
5.34227e-06
9.03107e-06
1.10106e-05
1.10106e-05
9.03108e-06
5.34227e-06
5.57023e-07
0
0
0
2.97693e-06
6.07579e-06
7.73693e-06
7.73694e-06
6.0758e-06
2.97694e-06
0
0
0
0
1.35315e-06
4.06424e-06
5.51776e-06
5.51777e-06
4.06426e-06
1.35317e-06
0
0
0
0
1.71337e-07
2.54591e-06
3.80334e-06
3.80336e-06
2.54596e-06
1.71372e-07
0
0
0
0
0
1.44603e-06
2.57709e-06
2.57713e-06
0
9.40055e-06
1.69775e-05
2.22372e-05
2.4929e-05
2.4929e-05
2.22372e-05
1.69775e-05
9.40055e-06
0
0
3.31268e-06
9.3526e-06
1.38415e-05
1.62058e-05
1.62058e-05
1.38415e-05
9.3526e-06
3.31268e-06
0
0
5.57022e-07
5.34227e-06
9.03107e-06
1.10106e-05
1.10106e-05
9.03108e-06
5.34227e-06
5.57023e-07
0
0
0
2.97693e-06
6.07579e-06
7.73693e-06
7.73694e-06
6.0758e-06
2.97694e-06
0
0
0
0
1.35315e-06
4.06424e-06
5.51776e-06
5.51777e-06
4.06426e-06
1.35317e-06
0
0
0
0
1.71337e-07
2.54591e-06
3.80334e-06
3.80336e-06
2.54596e-06
1.71372e-07
0
0
0
0
0
1.44603e-06
2.57709e-06
2.57713e-06
1.44611e-06
0
0
0
0
9.40055e-06
1.69775e-05
2.22372e-05
2.4929e-05
2.4929e-05
2.22372e-05
1.69775e-05
9.40055e-06
0
0
3.31268e-06
9.3526e-06
1.38415e-05
1.62058e-05
1.62058e-05
1.38415e-05
9.3526e-06
3.31268e-06
0
0
5.57023e-07
5.34227e-06
9.03108e-06
1.10106e-05
1.10106e-05
9.03107e-06
5.34227e-06
5.57022e-07
0
0
0
2.97694e-06
6.0758e-06
7.73694e-06
7.73693e-06
6.07579e-06
2.97693e-06
0
0
0
0
1.35317e-06
4.06426e-06
5.51777e-06
5.51776e-06
4.06424e-06
1.35315e-06
0
0
0
0
1.71372e-07
2.54596e-06
3.80336e-06
3.80334e-06
2.54591e-06
1.71337e-07
0
0
0
0
0
1.44611e-06
2.57713e-06
2.5771e-06
1.44603e-06
0
0
0
0
9.40055e-06
1.69775e-05
2.22372e-05
2.4929e-05
2.4929e-05
2.22372e-05
1.69775e-05
9.40055e-06
0
0
3.31268e-06
9.3526e-06
1.38415e-05
1.62058e-05
1.62058e-05
1.38415e-05
9.3526e-06
3.31268e-06
0
0
5.57023e-07
5.34227e-06
9.03108e-06
1.10106e-05
1.10106e-05
9.03107e-06
5.34227e-06
5.57022e-07
0
0
0
2.97694e-06
6.0758e-06
7.73694e-06
7.73693e-06
6.07579e-06
2.97693e-06
0
0
0
0
1.35317e-06
4.06426e-06
5.51777e-06
5.51776e-06
4.06424e-06
1.35315e-06
0
0
0
0
1.71373e-07
2.54596e-06
3.80336e-06
3.80334e-06
2.54591e-06
1.71337e-07
0
0
0
0
0
1.44611e-06
2.57713e-06
)
;
    }
    ami2
    {
        type            cyclicAMI;
        value           nonuniform List<scalar> 0();
    }
    outlet
    {
        type            calculated;
        value           nonuniform List<scalar> 0();
    }
    procBoundary4to3
    {
        type            processor;
        value           nonuniform List<scalar> 
109
(
9.05716e-06
2.50817e-05
3.90788e-05
5.07587e-05
5.71428e-05
5.71432e-05
5.07595e-05
3.90794e-05
2.50818e-05
9.05716e-06
2.50818e-05
0.000163074
0.000222884
0.000261247
0.000279965
0.000279972
0.00026126
0.000222894
0.000163074
2.50817e-05
3.90794e-05
0.000222894
0.000327452
0.000383936
0.00040979
0.000409795
0.000383943
0.000327452
0.000222884
3.90788e-05
5.07595e-05
0.00026126
0.000383943
0.000450442
0.000479912
0.000479914
0.000450442
0.000383936
0.000261247
5.07587e-05
5.71432e-05
0.000279972
0.000409795
0.000479914
0.000510581
0.000510581
0.000479912
0.00040979
0.000279965
5.71428e-05
5.71429e-05
0.000279965
0.00040979
0.000479913
0.000510581
0.000510581
0.000516428
0.000479914
0.000486846
0.000409795
0.000417844
0.000279972
0.000286678
5.71432e-05
5.60612e-05
5.07587e-05
0.000261247
0.000383936
0.000450442
0.000479914
0.000516428
0.000516428
0.000486846
0.000417844
0.000286678
5.60612e-05
3.90788e-05
0.000222884
0.000327452
0.000383944
0.000409795
0.000444762
0.000444762
0.000417839
0.000357975
0.000245321
4.31312e-05
2.50817e-05
0.000163074
0.000222894
0.00026126
0.000279972
0.000306814
0.000306814
0.000286669
0.000245316
0.000181114
2.77138e-05
9.05716e-06
2.50818e-05
3.90794e-05
5.07595e-05
5.71432e-05
6.30852e-05
6.30852e-05
5.60607e-05
4.31308e-05
2.77138e-05
9.76079e-06
)
;
    }
}


// ************************************************************************* //
