/*--------------------------------*- C++ -*----------------------------------*\
| =========                 |                                                 |
| \\      /  F ield         | OpenFOAM: The Open Source CFD Toolbox           |
|  \\    /   O peration     | Version:  2212                                  |
|   \\  /    A nd           | Website:  www.openfoam.com                      |
|    \\/     M anipulation  |                                                 |
\*---------------------------------------------------------------------------*/
FoamFile
{
    version     2.0;
    format      ascii;
    arch        "LSB;label=32;scalar=64";
    class       volScalarField;
    location    "1.9";
    object      epsilon;
}
// * * * * * * * * * * * * * * * * * * * * * * * * * * * * * * * * * * * * * //

dimensions      [0 2 -3 0 0 0 0];

internalField   nonuniform List<scalar> 
6840
(
90.5034
12.1248
4.38869
2.46658
1.63315
1.18306
0.902003
0.720648
0.594564
0.50247
0.432627
0.379209
0.336192
0.29968
0.269888
0.245676
0.225816
0.209557
0.198118
0.185742
58.5856
14.5696
6.08946
3.33294
2.08216
1.40266
0.998639
0.74027
0.565883
0.443896
0.355981
0.29087
0.241326
0.202863
0.172912
0.149535
0.130897
0.115791
0.103728
0.0944803
45.0226
13.4729
5.73075
3.07322
1.86022
1.22698
0.873562
0.649763
0.496993
0.389453
0.311255
0.252931
0.208919
0.175131
0.148704
0.127714
0.110867
0.0971917
0.0860485
0.0772895
38.7028
13.0541
5.74336
3.08733
1.88066
1.22749
0.869469
0.645375
0.492581
0.384767
0.307007
0.249022
0.204949
0.170952
0.144355
0.123264
0.106333
0.0925823
0.0813893
0.0733675
36.0571
12.8529
5.76645
3.10212
1.89476
1.22669
0.866506
0.643992
0.492262
0.383982
0.305823
0.247957
0.203973
0.170024
0.143447
0.122359
0.105428
0.0916924
0.0805516
0.0725419
36.0571
12.8529
5.76645
3.10212
1.89476
1.2267
0.866513
0.644001
0.492275
0.383998
0.305845
0.247985
0.204011
0.170075
0.143515
0.122456
0.105561
0.0918683
0.0807447
0.0723815
38.7028
13.0541
5.74336
3.08734
1.88067
1.22751
0.869487
0.645397
0.49261
0.384804
0.307059
0.249091
0.205041
0.171076
0.144525
0.123507
0.106677
0.0930608
0.0819655
0.0730624
45.0226
13.4729
5.73075
3.07323
1.86023
1.22699
0.873579
0.649784
0.497021
0.389499
0.311313
0.253009
0.209024
0.175276
0.148915
0.128025
0.111327
0.0978747
0.0870276
0.0786077
58.5856
14.5696
6.08946
3.33295
2.08216
1.40266
0.998643
0.740275
0.56589
0.443912
0.356005
0.290908
0.241386
0.202981
0.173084
0.149813
0.131379
0.116679
0.105448
0.0975518
90.5034
12.1248
4.38869
2.46658
1.63315
1.18306
0.902003
0.720648
0.594564
0.50247
0.432628
0.379208
0.336195
0.299677
0.26989
0.245678
0.225818
0.209559
0.198121
0.18576
58.5856
14.5696
6.08946
3.33295
2.08216
1.40266
0.998643
0.740275
0.56589
0.443912
0.356005
0.290908
0.241386
0.202984
0.173083
0.149811
0.131379
0.11668
0.105451
0.0975531
16.5373
9.49238
5.0127
2.8606
1.75746
1.14759
0.786927
0.562044
0.41536
0.315937
0.246319
0.196203
0.159193
0.131212
0.109725
0.0931167
0.0800351
0.0695543
0.0603109
0.0549371
13.6679
8.73671
5.07741
3.05388
1.92223
1.26609
0.869289
0.618631
0.453959
0.342034
0.26365
0.207311
0.165901
0.134846
0.111145
0.092683
0.0781567
0.0666216
0.0571491
0.0497571
12.9054
8.33993
5.07879
3.15547
2.02775
1.35121
0.933541
0.666464
0.489552
0.368603
0.283614
0.222399
0.177342
0.143544
0.117765
0.0977869
0.0820983
0.069628
0.0595916
0.051388
12.6882
8.1544
5.07113
3.20039
2.0794
1.39506
0.967837
0.692729
0.509646
0.384027
0.295517
0.231664
0.184612
0.149284
0.122313
0.101415
0.0849998
0.0719481
0.0614568
0.0529569
12.6882
8.1544
5.07113
3.20039
2.0794
1.39506
0.967835
0.692726
0.509644
0.384024
0.295513
0.231659
0.184606
0.149274
0.122297
0.101399
0.0849819
0.0719269
0.0614319
0.0529215
12.9054
8.33993
5.07879
3.15547
2.02775
1.3512
0.933538
0.666459
0.489548
0.368598
0.283607
0.22239
0.177328
0.14352
0.117735
0.0977553
0.0820614
0.0695838
0.0595351
0.0512274
13.6679
8.73671
5.0774
3.05388
1.92223
1.26609
0.869287
0.618628
0.453956
0.34203
0.263645
0.207305
0.165892
0.134831
0.11112
0.0926576
0.078128
0.0665896
0.0570959
0.049761
16.5373
9.49238
5.0127
2.8606
1.75746
1.14759
0.786927
0.562044
0.41536
0.315937
0.246319
0.196203
0.159193
0.131216
0.109721
0.093116
0.0800359
0.0695556
0.0603134
0.0549435
58.5856
14.5696
6.08946
3.33294
2.08216
1.40266
0.998639
0.74027
0.565883
0.443896
0.355981
0.290871
0.241325
0.202863
0.172912
0.149536
0.130899
0.115794
0.103734
0.0944913
45.0226
13.4729
5.73075
3.07323
1.86023
1.22699
0.873579
0.649784
0.497021
0.389499
0.311314
0.253009
0.209025
0.175277
0.148913
0.128024
0.111327
0.0978762
0.08703
0.0786158
13.6679
8.73671
5.0774
3.05388
1.92223
1.26609
0.869287
0.618628
0.453956
0.34203
0.263645
0.207304
0.165892
0.134832
0.111118
0.0926563
0.0781259
0.0665859
0.0570972
0.0497584
11.8601
7.76395
4.99734
3.24076
2.14419
1.45499
1.0141
0.725633
0.532153
0.399146
0.305541
0.238216
0.188818
0.151907
0.123866
0.102227
0.0853069
0.0719136
0.0611639
0.0525595
11.6229
7.60535
5.0103
3.34209
2.26848
1.57142
1.11236
0.804589
0.594205
0.447519
0.343212
0.267636
0.211902
0.170124
0.13833
0.113789
0.0946039
0.079429
0.0672916
0.0574975
11.5726
7.56718
5.02065
3.38345
2.32103
1.62326
1.15829
0.843158
0.625693
0.472852
0.363488
0.283858
0.224911
0.180595
0.146797
0.120673
0.100232
0.0840527
0.0711094
0.0606322
11.5726
7.56718
5.02065
3.38344
2.32103
1.62326
1.15828
0.843155
0.625691
0.47285
0.363485
0.283854
0.224906
0.180587
0.146785
0.120662
0.100219
0.084038
0.0710954
0.0606409
11.6229
7.60535
5.0103
3.34209
2.26848
1.57142
1.11236
0.804586
0.594202
0.447514
0.343207
0.267629
0.211893
0.17011
0.138312
0.11377
0.0945824
0.0794047
0.0672673
0.0575065
11.8601
7.76395
4.99734
3.24076
2.14419
1.45499
1.0141
0.725633
0.532153
0.399146
0.305542
0.238217
0.18882
0.151908
0.123864
0.102227
0.085308
0.0719154
0.0611668
0.052566
13.6679
8.73671
5.07741
3.05388
1.92223
1.26609
0.869289
0.618631
0.453959
0.342034
0.26365
0.207311
0.165902
0.134851
0.11114
0.0926809
0.0781559
0.0666214
0.0571491
0.0497606
45.0226
13.4729
5.73075
3.07322
1.86022
1.22698
0.873562
0.649763
0.496993
0.389453
0.311255
0.252931
0.20892
0.175132
0.148702
0.127713
0.110867
0.0971924
0.0860505
0.0772954
38.7028
13.0541
5.74336
3.08734
1.88067
1.22751
0.869487
0.645397
0.49261
0.384804
0.307059
0.249091
0.205042
0.171076
0.144524
0.123507
0.106678
0.0930623
0.081968
0.0730669
12.9054
8.33993
5.07879
3.15547
2.02775
1.3512
0.933539
0.666459
0.489548
0.368598
0.283607
0.22239
0.177329
0.143525
0.117731
0.0977531
0.0820598
0.069582
0.0595336
0.0512251
11.6229
7.60535
5.0103
3.34209
2.26848
1.57142
1.11236
0.804586
0.594202
0.447514
0.343207
0.267629
0.211893
0.170111
0.138311
0.113769
0.0945812
0.0794031
0.0672652
0.0575039
11.4933
7.5119
5.02843
3.434
2.3892
1.6928
1.22111
0.896486
0.669455
0.50812
0.391654
0.306283
0.242781
0.194884
0.158277
0.129949
0.107772
0.0902203
0.0761807
0.0647747
11.4757
7.50136
5.04297
3.47002
2.43665
1.74299
1.26863
0.938712
0.705583
0.538335
0.416593
0.326727
0.259498
0.208556
0.169484
0.139166
0.115386
0.0965394
0.0814431
0.0691292
11.4757
7.50136
5.04297
3.47002
2.43665
1.74299
1.26863
0.938711
0.705582
0.538334
0.416592
0.326726
0.259496
0.208554
0.169481
0.139163
0.115382
0.0965354
0.0814382
0.0691235
11.4933
7.5119
5.02843
3.434
2.3892
1.6928
1.22111
0.896486
0.669455
0.508121
0.391654
0.306283
0.242782
0.194885
0.158276
0.129948
0.107772
0.090221
0.0761817
0.0647762
11.6229
7.60535
5.0103
3.34209
2.26848
1.57142
1.11236
0.804589
0.594205
0.447519
0.343213
0.267636
0.211903
0.170125
0.138328
0.113788
0.0946041
0.0794296
0.0672927
0.0574993
12.9054
8.33993
5.07879
3.15547
2.02775
1.35121
0.933541
0.666464
0.489552
0.368603
0.283614
0.222399
0.177342
0.143547
0.117762
0.0977853
0.0820974
0.0696273
0.0595909
0.0513865
38.7028
13.0541
5.74336
3.08733
1.88066
1.22749
0.869469
0.645375
0.492581
0.384767
0.307007
0.249023
0.204951
0.170954
0.144352
0.123262
0.106332
0.0925813
0.0813896
0.073367
36.0571
12.8529
5.76645
3.10212
1.89476
1.2267
0.866513
0.644001
0.492275
0.383998
0.305845
0.247986
0.204011
0.170075
0.143515
0.122456
0.105562
0.0918696
0.0807465
0.0723835
12.6882
8.1544
5.07113
3.20039
2.0794
1.39506
0.967836
0.692726
0.509644
0.384024
0.295514
0.231659
0.184606
0.149276
0.122297
0.101399
0.084982
0.0719271
0.0614322
0.0529214
11.5726
7.56718
5.02065
3.38344
2.32103
1.62326
1.15828
0.843155
0.625691
0.47285
0.363485
0.283854
0.224906
0.180588
0.146785
0.120661
0.100219
0.0840378
0.0710951
0.0606414
11.4757
7.50136
5.04297
3.47002
2.43665
1.74299
1.26863
0.938711
0.705582
0.538334
0.416591
0.326726
0.259496
0.208554
0.16948
0.139163
0.115382
0.0965352
0.0814382
0.0691249
11.4647
7.49683
5.0577
3.50272
2.48038
1.79068
1.31522
0.981304
0.742923
0.570208
0.443348
0.348965
0.277885
0.223733
0.182016
0.149538
0.123999
0.103719
0.0874401
0.0740666
11.4647
7.49683
5.0577
3.50272
2.48038
1.79068
1.31522
0.981304
0.742923
0.570208
0.443348
0.348965
0.277885
0.223733
0.182016
0.149538
0.123999
0.10372
0.0874402
0.0740658
11.4757
7.50136
5.04297
3.47002
2.43665
1.74299
1.26863
0.938712
0.705583
0.538335
0.416593
0.326727
0.259498
0.208557
0.169483
0.139166
0.115386
0.0965392
0.0814431
0.0691298
11.5726
7.56718
5.02065
3.38345
2.32103
1.62326
1.15829
0.843158
0.625693
0.472852
0.363488
0.283858
0.224911
0.180595
0.146797
0.120673
0.100232
0.0840522
0.0711088
0.0606318
12.6882
8.1544
5.07113
3.20039
2.0794
1.39506
0.967837
0.692729
0.509646
0.384027
0.295516
0.231663
0.184611
0.149283
0.122315
0.101416
0.085
0.0719479
0.0614565
0.0529564
36.0571
12.8529
5.76645
3.10212
1.89476
1.22669
0.866506
0.643992
0.492262
0.383982
0.305823
0.247957
0.203974
0.170027
0.143444
0.122357
0.105426
0.0916907
0.0805501
0.072539
36.0571
12.8529
5.76645
3.10212
1.89476
1.22669
0.866506
0.643992
0.492262
0.383982
0.305823
0.247956
0.203973
0.170024
0.143447
0.122359
0.105428
0.0916926
0.0805519
0.072543
12.6882
8.1544
5.07113
3.20039
2.0794
1.39506
0.967837
0.692729
0.509646
0.384027
0.295517
0.231664
0.184612
0.149285
0.122313
0.101416
0.0850011
0.07195
0.0614593
0.0529598
11.5726
7.56718
5.02065
3.38345
2.32103
1.62326
1.15829
0.843158
0.625693
0.472853
0.363488
0.283858
0.224912
0.180596
0.146796
0.120674
0.100233
0.084054
0.0711111
0.0606349
11.4757
7.50136
5.04297
3.47002
2.43665
1.74299
1.26863
0.938712
0.705583
0.538335
0.416593
0.326727
0.259498
0.208556
0.169484
0.139166
0.115386
0.0965398
0.0814437
0.0691314
11.4647
7.49683
5.0577
3.50272
2.48038
1.79068
1.31522
0.981304
0.742923
0.570208
0.443348
0.348965
0.277885
0.223732
0.182016
0.149538
0.123999
0.103719
0.0874403
0.0740666
11.4647
7.49683
5.0577
3.50272
2.48038
1.79068
1.31522
0.981304
0.742923
0.570208
0.443348
0.348965
0.277885
0.223733
0.182016
0.149538
0.123999
0.103719
0.0874401
0.0740656
11.4757
7.50136
5.04297
3.47002
2.43665
1.74299
1.26863
0.938711
0.705582
0.538334
0.416591
0.326726
0.259496
0.208554
0.16948
0.139162
0.115382
0.0965346
0.0814375
0.0691236
11.5726
7.56718
5.02065
3.38344
2.32103
1.62326
1.15828
0.843155
0.625691
0.472849
0.363484
0.283853
0.224904
0.180586
0.146787
0.120662
0.100218
0.0840366
0.0710936
0.0606397
12.6882
8.1544
5.07113
3.20039
2.07939
1.39506
0.967835
0.692726
0.509644
0.384024
0.295513
0.231659
0.184604
0.149271
0.122303
0.101402
0.084983
0.0719274
0.0614321
0.0529214
36.0571
12.8529
5.76645
3.10212
1.89476
1.2267
0.866513
0.644001
0.492275
0.383998
0.305845
0.247985
0.204012
0.170077
0.143514
0.122455
0.10556
0.0918672
0.0807437
0.0723806
38.7028
13.0541
5.74336
3.08733
1.88066
1.22749
0.869469
0.645375
0.492581
0.384767
0.307007
0.249022
0.204949
0.170952
0.144355
0.123264
0.106333
0.0925815
0.081388
0.0733654
12.9054
8.33993
5.07879
3.15547
2.02775
1.35121
0.933541
0.666464
0.489552
0.368603
0.283614
0.2224
0.177342
0.143545
0.117765
0.0977877
0.0820997
0.0696299
0.0595938
0.0513904
11.6229
7.60535
5.0103
3.34209
2.26848
1.57142
1.11236
0.804589
0.594205
0.447519
0.343213
0.267636
0.211902
0.170124
0.13833
0.113789
0.0946051
0.0794306
0.0672936
0.0575011
11.4933
7.5119
5.02843
3.434
2.3892
1.6928
1.22111
0.896486
0.669455
0.508121
0.391654
0.306283
0.242781
0.194884
0.158278
0.129949
0.107772
0.0902206
0.0761812
0.0647755
11.4757
7.50136
5.04297
3.47002
2.43665
1.74299
1.26863
0.938711
0.705582
0.538334
0.416591
0.326726
0.259496
0.208554
0.169481
0.139163
0.115382
0.0965346
0.0814374
0.0691227
11.4757
7.50136
5.04297
3.47002
2.43665
1.74299
1.26863
0.938712
0.705583
0.538335
0.416592
0.326727
0.259498
0.208556
0.169484
0.139166
0.115386
0.096539
0.0814427
0.0691294
11.4933
7.5119
5.02843
3.434
2.3892
1.6928
1.22111
0.896485
0.669454
0.50812
0.391654
0.306283
0.242782
0.194885
0.158276
0.129948
0.107771
0.0902203
0.076181
0.0647755
11.6229
7.60535
5.0103
3.34209
2.26848
1.57142
1.11236
0.804586
0.594202
0.447514
0.343207
0.267628
0.211892
0.17011
0.138312
0.113769
0.0945813
0.0794033
0.0672656
0.0575047
12.9054
8.33993
5.07879
3.15547
2.02775
1.3512
0.933537
0.66646
0.489548
0.368598
0.283607
0.22239
0.177328
0.14352
0.117736
0.0977558
0.0820617
0.069584
0.0595352
0.0512275
38.7028
13.0541
5.74336
3.08734
1.88067
1.22751
0.869487
0.645397
0.49261
0.384804
0.307059
0.249091
0.205041
0.171076
0.144525
0.123507
0.106677
0.0930605
0.0819655
0.0730631
45.0226
13.4729
5.73075
3.07322
1.86022
1.22698
0.873563
0.649763
0.496993
0.389453
0.311255
0.252931
0.208918
0.175131
0.148703
0.127714
0.110866
0.0971901
0.0860466
0.0772836
13.6679
8.73671
5.07741
3.05388
1.92223
1.26609
0.869289
0.618631
0.453959
0.342034
0.26365
0.207311
0.165901
0.134846
0.111145
0.0926836
0.0781576
0.0666235
0.0571453
0.0497607
11.8601
7.76395
4.99734
3.24076
2.14419
1.45499
1.0141
0.725633
0.532153
0.399146
0.305541
0.238216
0.188818
0.151907
0.123866
0.102228
0.0853074
0.071914
0.0611645
0.0525635
11.6229
7.60535
5.0103
3.34209
2.26848
1.57142
1.11236
0.804586
0.594202
0.447514
0.343207
0.267628
0.211892
0.17011
0.138311
0.113769
0.0945808
0.0794023
0.0672644
0.0575017
11.5726
7.56718
5.02065
3.38344
2.32103
1.62326
1.15828
0.843155
0.625691
0.472849
0.363484
0.283853
0.224905
0.180587
0.146785
0.120661
0.100217
0.0840361
0.071093
0.060638
11.5726
7.56718
5.02065
3.38345
2.32103
1.62326
1.15829
0.843158
0.625693
0.472852
0.363488
0.283858
0.224911
0.180596
0.146796
0.120673
0.100232
0.0840525
0.0711094
0.060633
11.6229
7.60535
5.0103
3.34209
2.26848
1.57142
1.11236
0.804589
0.594205
0.447519
0.343213
0.267636
0.211903
0.170125
0.138328
0.113788
0.0946043
0.07943
0.0672931
0.0574993
11.8601
7.76395
4.99734
3.24076
2.14419
1.45499
1.0141
0.725632
0.532153
0.399146
0.305541
0.238217
0.188819
0.151908
0.123864
0.102227
0.0853073
0.0719146
0.0611646
0.0525605
13.6679
8.73671
5.0774
3.05388
1.92223
1.26609
0.869287
0.618628
0.453956
0.34203
0.263645
0.207305
0.165892
0.134831
0.11112
0.0926575
0.0781277
0.066589
0.057095
0.0497612
45.0226
13.4729
5.73075
3.07323
1.86023
1.22699
0.873579
0.649784
0.497021
0.389499
0.311313
0.253009
0.209024
0.175276
0.148915
0.128025
0.111327
0.0978751
0.0870286
0.0786126
58.5856
14.5696
6.08946
3.33294
2.08216
1.40266
0.998639
0.74027
0.565883
0.443896
0.355981
0.29087
0.241326
0.202863
0.172912
0.149534
0.130895
0.115787
0.103722
0.09447
16.5373
9.49238
5.0127
2.8606
1.75746
1.14759
0.786927
0.562044
0.41536
0.315937
0.246318
0.196203
0.159192
0.131211
0.109724
0.0931158
0.0800339
0.0695525
0.0603089
0.0549388
13.6679
8.73671
5.0774
3.05388
1.92223
1.26609
0.869287
0.618628
0.453956
0.34203
0.263645
0.207304
0.165891
0.134831
0.111118
0.0926555
0.0781248
0.0665846
0.0570958
0.049756
12.9054
8.33993
5.07879
3.15547
2.02775
1.3512
0.933538
0.666458
0.489547
0.368598
0.283607
0.222389
0.177329
0.143525
0.117731
0.0977525
0.0820591
0.0695813
0.0595328
0.0512241
12.6882
8.1544
5.07113
3.20039
2.07939
1.39506
0.967835
0.692726
0.509644
0.384024
0.295513
0.231659
0.184606
0.149276
0.122296
0.101399
0.0849817
0.071927
0.061432
0.0529211
12.6882
8.1544
5.07113
3.20039
2.0794
1.39506
0.967837
0.692729
0.509646
0.384027
0.295517
0.231664
0.184612
0.149286
0.122313
0.101415
0.085001
0.0719499
0.0614593
0.0529595
12.9054
8.33993
5.07879
3.15547
2.02775
1.35121
0.933542
0.666463
0.489552
0.368603
0.283614
0.222399
0.177343
0.143547
0.117762
0.0977863
0.082099
0.0696294
0.0595933
0.0513893
13.6679
8.73671
5.07741
3.05388
1.92223
1.26609
0.869289
0.61863
0.453959
0.342034
0.26365
0.207311
0.165902
0.134851
0.11114
0.0926812
0.0781564
0.0666227
0.0571446
0.04976
16.5373
9.49238
5.0127
2.8606
1.75746
1.14759
0.786927
0.562044
0.415359
0.315937
0.246318
0.196203
0.159193
0.131215
0.10972
0.0931152
0.0800348
0.0695541
0.0603116
0.0549441
58.5856
14.5696
6.08946
3.33295
2.08216
1.40266
0.998643
0.740275
0.56589
0.443912
0.356005
0.290908
0.241386
0.202981
0.173084
0.149812
0.131378
0.116678
0.105446
0.0975475
90.5034
12.1248
4.38869
2.46658
1.63315
1.18306
0.902003
0.720648
0.594564
0.50247
0.432627
0.379209
0.336192
0.299679
0.269887
0.245675
0.225813
0.209551
0.198109
0.185727
58.5856
14.5696
6.08946
3.33295
2.08216
1.40266
0.998643
0.740275
0.565891
0.443912
0.356005
0.290908
0.241386
0.202984
0.173082
0.14981
0.131377
0.116677
0.105445
0.0975445
45.0226
13.4729
5.73075
3.07323
1.86023
1.22699
0.873579
0.649784
0.497021
0.389499
0.311314
0.25301
0.209025
0.175277
0.148913
0.128024
0.111327
0.0978759
0.0870293
0.0786136
38.7028
13.0541
5.74336
3.08734
1.88067
1.22751
0.869487
0.645397
0.49261
0.384804
0.307059
0.249091
0.205042
0.171076
0.144524
0.123507
0.106678
0.0930626
0.0819683
0.0730653
36.0571
12.8529
5.76645
3.10212
1.89476
1.2267
0.866514
0.644001
0.492275
0.383998
0.305845
0.247986
0.204012
0.170076
0.143516
0.122457
0.105562
0.09187
0.0807472
0.072385
36.0571
12.8529
5.76645
3.10212
1.89476
1.22669
0.866506
0.643991
0.492262
0.383981
0.305823
0.247957
0.203973
0.170025
0.143447
0.12236
0.105428
0.0916926
0.080552
0.0725423
38.7028
13.0541
5.74336
3.08733
1.88066
1.22749
0.869469
0.645375
0.492581
0.384767
0.307007
0.249022
0.20495
0.170954
0.144352
0.123262
0.106332
0.0925806
0.0813879
0.073364
45.0226
13.4729
5.73075
3.07322
1.86022
1.22698
0.873563
0.649763
0.496993
0.389452
0.311255
0.252931
0.208919
0.175132
0.148701
0.127712
0.110865
0.0971896
0.0860464
0.0772847
58.5856
14.5696
6.08946
3.33294
2.08216
1.40266
0.998639
0.74027
0.565883
0.443896
0.355981
0.29087
0.241325
0.202862
0.17291
0.149534
0.130895
0.115788
0.103724
0.0944726
90.5034
12.1248
4.38869
2.46658
1.63315
1.18306
0.902003
0.720648
0.594564
0.502469
0.432627
0.379208
0.336194
0.299676
0.269889
0.245676
0.225815
0.209553
0.198111
0.185734
0.28657
0.241933
0.208855
0.188763
0.17632
0.167715
0.160671
0.154044
0.148125
0.142523
0.137727
0.13341
0.129344
0.125447
0.121928
0.118562
0.115495
0.112526
0.109781
0.1072
0.104684
0.102332
0.100091
0.0980329
0.0960878
0.0942083
0.0924028
0.0906228
0.0889046
0.0872298
0.0856665
0.0841212
0.0826022
0.081076
0.0795313
0.0782667
0.0769987
0.0757118
0.0746003
0.0726627
0.1271
0.107575
0.0939638
0.0843667
0.0774638
0.0721733
0.0678087
0.0640575
0.0607941
0.0577463
0.0552146
0.0529462
0.0508763
0.0489811
0.0472522
0.045638
0.0441933
0.0428566
0.0416247
0.0404829
0.0393935
0.0383713
0.0374229
0.0365507
0.0357494
0.0349938
0.0342675
0.0335638
0.0328851
0.0322212
0.031586
0.0309731
0.0303835
0.0298106
0.0292392
0.0286976
0.028194
0.0277009
0.0272357
0.026701
0.0965777
0.0820148
0.0715407
0.0644594
0.0587919
0.0540809
0.0501729
0.0468953
0.0440947
0.0417028
0.0395956
0.0377348
0.036084
0.0345637
0.0331522
0.0318955
0.0307732
0.0297588
0.0288009
0.027908
0.0270731
0.0262417
0.0254654
0.02477
0.0241418
0.0235591
0.0229968
0.0224553
0.0219391
0.0214419
0.0209658
0.0205028
0.0200631
0.0196415
0.0192325
0.0188502
0.0184745
0.0181081
0.0177596
0.0174001
0.08033
0.0701893
0.0623581
0.0562087
0.0512397
0.0470613
0.0434778
0.0403901
0.0377124
0.0353737
0.0333303
0.0315261
0.0299126
0.0284824
0.0272013
0.0260515
0.025003
0.0240763
0.0231274
0.0222605
0.0214935
0.0207781
0.0201005
0.0194694
0.0188848
0.0183448
0.0178402
0.0173653
0.0169209
0.0164963
0.0160887
0.0156943
0.0153163
0.014971
0.0146318
0.014314
0.0140025
0.0137075
0.0134255
0.0131422
0.0710404
0.0632622
0.0568492
0.0514863
0.0469542
0.0431053
0.0398037
0.036947
0.0344461
0.0322462
0.0303022
0.0285773
0.0270441
0.0256616
0.0244278
0.0233129
0.0222972
0.0213677
0.0205218
0.0197359
0.0190566
0.0183436
0.0176815
0.0170817
0.0165375
0.0160298
0.0155633
0.0151245
0.0147193
0.0143344
0.0139672
0.013614
0.0132755
0.0129647
0.0126494
0.0123577
0.0120757
0.0118126
0.0115652
0.0113312
0.06607
0.0593423
0.0535906
0.0486894
0.044505
0.0409243
0.0378449
0.0351746
0.0328239
0.030738
0.02888
0.027222
0.0257454
0.0243953
0.0231783
0.0220794
0.021084
0.0201885
0.0193718
0.0186233
0.0179399
0.0173093
0.0167422
0.0162001
0.0156472
0.0151308
0.014667
0.0142459
0.0138677
0.0135058
0.0131714
0.0128544
0.012515
0.0122332
0.0118911
0.0116395
0.0113549
0.0111181
0.0108841
0.0106602
0.0686157
0.0602285
0.0537397
0.0485513
0.0442953
0.0407453
0.0377319
0.0351217
0.0328168
0.0307685
0.0289395
0.0273011
0.0258324
0.024497
0.0232917
0.022201
0.0212122
0.0203166
0.0195073
0.0187747
0.0181068
0.0174924
0.0169159
0.0163902
0.0158373
0.0153353
0.0148878
0.0144756
0.0140995
0.01373
0.0133867
0.0130601
0.0127148
0.0124256
0.0121213
0.0118553
0.0115823
0.0113267
0.0110755
0.0108328
0.0748147
0.0636729
0.0562002
0.0506848
0.0463576
0.0428207
0.0398017
0.0371626
0.0348257
0.0327401
0.0308698
0.0291872
0.027674
0.0263088
0.025076
0.0239605
0.0229538
0.0220438
0.021215
0.0204593
0.0197773
0.0191323
0.0185005
0.0179169
0.0173989
0.0169052
0.0164511
0.0160188
0.0155967
0.0151798
0.0147963
0.0144446
0.0141236
0.0138064
0.0134965
0.0131874
0.0128715
0.0125764
0.0122888
0.0120088
0.0854931
0.0705377
0.0618275
0.0565478
0.0522737
0.0486705
0.0455649
0.0428306
0.0403957
0.0381967
0.0362293
0.0344772
0.0329103
0.0314717
0.0301809
0.0289609
0.0277561
0.0267347
0.025796
0.0249489
0.0241516
0.0234195
0.0227314
0.0220717
0.0214786
0.020908
0.0203828
0.0198851
0.0194241
0.0189817
0.0185638
0.0181598
0.0177774
0.0174055
0.0170421
0.0166617
0.0162792
0.0159283
0.015597
0.015258
0.103569
0.0918648
0.0824527
0.0755
0.070497
0.0665954
0.0632066
0.0599595
0.057128
0.0543993
0.0520705
0.0499895
0.0481462
0.0461697
0.0444272
0.0428271
0.0413359
0.0399705
0.0387048
0.0375475
0.0364612
0.035464
0.0345617
0.0337305
0.0329656
0.0322338
0.0315397
0.0308755
0.0302478
0.0296331
0.0290514
0.0284938
0.0279577
0.0274301
0.0269116
0.026357
0.0258673
0.0253949
0.0249692
0.0244653
0.286496
0.24185
0.208725
0.188652
0.175901
0.167078
0.159989
0.153461
0.14766
0.142211
0.137552
0.133288
0.129358
0.125512
0.121953
0.118609
0.115512
0.112556
0.109806
0.107208
0.104712
0.102331
0.100117
0.0980379
0.0961126
0.0942133
0.0924079
0.0906202
0.0888978
0.0872256
0.0856671
0.0841285
0.0826209
0.0811162
0.0796454
0.0782299
0.0769472
0.0756306
0.0744935
0.072455
0.103575
0.0919529
0.0825227
0.0755896
0.0709059
0.0670718
0.0636533
0.0602817
0.0573835
0.054597
0.0521887
0.0500476
0.0481458
0.0461344
0.0444149
0.0427869
0.0413258
0.0399519
0.0386968
0.0375425
0.0364531
0.0354594
0.0345549
0.0337265
0.0329605
0.0322322
0.0315417
0.0308808
0.030256
0.0296414
0.0290602
0.0285017
0.0279633
0.0274252
0.0268707
0.0263479
0.0258897
0.0254401
0.0250245
0.0245387
0.055855
0.0498469
0.0437505
0.0394298
0.0354843
0.0330086
0.0307319
0.0287976
0.0270403
0.0254284
0.0240245
0.0229004
0.0216076
0.020745
0.0197103
0.0189289
0.0180711
0.017385
0.0166981
0.0161065
0.0155286
0.0149493
0.014501
0.0139959
0.0136168
0.0132536
0.0128717
0.0125186
0.012139
0.01177
0.0115187
0.0111972
0.0108669
0.0105333
0.0103224
0.0100389
0.00969661
0.00940645
0.00915311
0.0088807
0.0483356
0.041635
0.0363526
0.0317692
0.0287807
0.0262375
0.0240612
0.0221926
0.0205896
0.0192035
0.01793
0.0169327
0.0156455
0.0150116
0.014029
0.0134968
0.0126948
0.0122495
0.0116127
0.0112053
0.010766
0.0102666
0.00994785
0.00951125
0.00926905
0.00893767
0.00863376
0.00840998
0.0080789
0.00790579
0.00773269
0.00754498
0.00723997
0.00707429
0.00685952
0.00682729
0.00662444
0.00641386
0.00612833
0.00590086
0.0465311
0.0404272
0.0353781
0.03117
0.0275185
0.0246088
0.0224598
0.0205678
0.0189169
0.0174735
0.0162031
0.0150798
0.0140533
0.0131872
0.0124008
0.0116983
0.0110733
0.0105049
0.0100226
0.00948341
0.00913903
0.00861038
0.00832031
0.00791552
0.00770903
0.00735521
0.00717471
0.00686389
0.00666232
0.00645799
0.00632611
0.00619556
0.00593336
0.00581795
0.00561726
0.00563204
0.00547659
0.00533384
0.00506431
0.00492272
0.0467448
0.0405367
0.0355137
0.0313635
0.0278476
0.0247374
0.0221831
0.0200605
0.0183852
0.0169053
0.0156007
0.0144442
0.013398
0.0125054
0.011705
0.0109875
0.0103442
0.00976594
0.00924529
0.00877324
0.00834924
0.00796306
0.00761878
0.00731678
0.00700358
0.00674446
0.00645683
0.00623431
0.00602098
0.00582898
0.00566431
0.00555045
0.00533834
0.00522953
0.00504375
0.00506158
0.00491981
0.00479533
0.00455683
0.00441734
0.0468213
0.0406945
0.0356615
0.0314647
0.0279378
0.0248401
0.0221649
0.0198986
0.0181428
0.0166678
0.0153551
0.0141856
0.013129
0.0122192
0.0114052
0.0106781
0.010028
0.00944565
0.00892276
0.00845227
0.00802841
0.00764682
0.00731197
0.00702139
0.00671786
0.0064446
0.00617924
0.0059546
0.00574246
0.00556056
0.00541497
0.00527224
0.00511493
0.00499139
0.0048046
0.00481674
0.00468679
0.00450188
0.00439504
0.00414307
0.0465099
0.0407017
0.0356164
0.0313201
0.0277161
0.0245457
0.0218286
0.019651
0.0180013
0.0165321
0.0152277
0.0140727
0.0130394
0.0121424
0.0113416
0.0106261
0.00998698
0.0094136
0.00889868
0.00843466
0.00801623
0.00763838
0.00730504
0.00702523
0.00672316
0.0064778
0.00616381
0.00597594
0.00570343
0.0055649
0.00542146
0.00528211
0.00506874
0.00494592
0.00475125
0.00478478
0.00464411
0.00445657
0.00434441
0.00407074
0.0457556
0.0409824
0.0355441
0.0310483
0.0272839
0.0240496
0.0217197
0.01986
0.0182263
0.0167945
0.0155386
0.0144285
0.0134395
0.012579
0.011804
0.0111038
0.0104773
0.00990053
0.00938902
0.00891908
0.00850036
0.00812021
0.00774611
0.00751847
0.0070925
0.00689172
0.00654773
0.00638832
0.00606564
0.00595188
0.00579856
0.00565048
0.00536076
0.00523206
0.00501376
0.00486355
0.00492014
0.00473352
0.00457443
0.00423302
0.046472
0.0419901
0.0362861
0.0314167
0.0280827
0.0255443
0.0233659
0.0214883
0.0198545
0.0184266
0.0171797
0.0160573
0.0150893
0.0142279
0.013445
0.012669
0.01212
0.0113437
0.0109285
0.0103053
0.00996606
0.00943201
0.00913019
0.00869849
0.00839211
0.00817817
0.00780275
0.00761772
0.00727942
0.0071018
0.00691603
0.00673175
0.00640659
0.00625386
0.00600636
0.00583232
0.00582722
0.00557305
0.00537161
0.00502895
0.0558803
0.0497814
0.0437312
0.039346
0.0360042
0.0331804
0.0309056
0.0289137
0.0271412
0.0254885
0.0241185
0.022809
0.0216844
0.0207627
0.0197645
0.0189276
0.0181071
0.0173959
0.0167128
0.0161227
0.0155229
0.0149728
0.014496
0.0140174
0.0135958
0.0132763
0.0128772
0.0125306
0.0121491
0.0117738
0.0115226
0.0112
0.0108673
0.0105678
0.0102978
0.00999936
0.00983413
0.0095184
0.00915919
0.00884291
0.127088
0.107505
0.0938608
0.0842844
0.0772267
0.0718271
0.0674697
0.0637764
0.0605565
0.0575647
0.0551116
0.0528546
0.0508625
0.0489972
0.0472684
0.0456605
0.0442109
0.0428675
0.041642
0.0404881
0.039409
0.0383809
0.0374358
0.0365585
0.035758
0.0350013
0.0342728
0.0335687
0.0328897
0.0322269
0.0315939
0.0309838
0.0303975
0.0298289
0.0292785
0.0287145
0.0282011
0.0276991
0.0272237
0.0266708
0.0855419
0.0705885
0.0618835
0.0566815
0.0524263
0.0488243
0.0457025
0.0429433
0.040484
0.0382613
0.0362715
0.0344949
0.0329059
0.0314482
0.030167
0.0289184
0.0277531
0.0267111
0.0257932
0.024945
0.0241457
0.0234187
0.0227209
0.0220713
0.0214746
0.0209086
0.0203857
0.0198909
0.0194322
0.0189917
0.0185761
0.0181742
0.0177932
0.017422
0.0170548
0.0166653
0.0162835
0.0159448
0.0156306
0.0153058
0.0464551
0.0419604
0.0363015
0.0312943
0.0280373
0.0255191
0.0233455
0.0214746
0.0198459
0.0184246
0.0171827
0.0161165
0.0150493
0.0142717
0.0133748
0.0127982
0.0119334
0.0114802
0.0107876
0.0103735
0.0099566
0.00945376
0.00914664
0.0086751
0.00842956
0.00814839
0.00781132
0.00761982
0.00727922
0.00709895
0.00690999
0.00672746
0.00640365
0.0062519
0.0060351
0.00597082
0.00573511
0.00548198
0.00523379
0.00504527
0.0452535
0.0394686
0.0344189
0.0300792
0.02655
0.0236421
0.0212142
0.0191692
0.0174283
0.015933
0.0146322
0.0135087
0.0124683
0.0116033
0.0108077
0.0101179
0.00942291
0.00881429
0.00833098
0.00793955
0.00754278
0.00714563
0.0068193
0.00648114
0.00616522
0.00594
0.00565343
0.00549024
0.00520387
0.00510757
0.00499039
0.00485478
0.0046087
0.00449568
0.00431381
0.00434415
0.00421434
0.00410065
0.00385196
0.00371814
0.0476439
0.0413071
0.0360076
0.0315685
0.0278257
0.0246744
0.0220338
0.0197877
0.0178642
0.016206
0.0147681
0.0135133
0.0124072
0.0114393
0.0105805
0.00981732
0.00913422
0.00851546
0.00796928
0.0074795
0.00704329
0.00664674
0.00620955
0.00592452
0.00567433
0.00542357
0.00522578
0.00493258
0.00474476
0.00457372
0.00446096
0.00434374
0.00418465
0.00407684
0.00390096
0.00392919
0.00381327
0.00370531
0.00355235
0.00342161
0.0498793
0.0431252
0.037551
0.0329048
0.0289979
0.0256839
0.0228654
0.0204595
0.0184112
0.0166492
0.0151211
0.0137878
0.0126228
0.0115971
0.0106908
0.00988689
0.00917127
0.00853125
0.00795809
0.00744332
0.00698025
0.00656743
0.00616589
0.00585511
0.0055412
0.00522043
0.00497014
0.0047835
0.00461312
0.00448656
0.00433687
0.00419679
0.0040632
0.0039529
0.00381135
0.00382998
0.00370974
0.00359054
0.00347437
0.00336105
0.0507644
0.0438968
0.0382024
0.0334496
0.0294544
0.0260683
0.0231789
0.020705
0.0185954
0.0167887
0.0152274
0.0138673
0.0126811
0.0116372
0.0107155
0.00989883
0.00917234
0.00852317
0.00794219
0.0074219
0.00695374
0.00653671
0.00613808
0.00582907
0.00551285
0.00521518
0.00496316
0.00470984
0.00450897
0.00443873
0.00429627
0.00415904
0.00402544
0.00391094
0.00378945
0.00380502
0.00368462
0.00356463
0.00344762
0.00332997
0.0499336
0.0432651
0.0376641
0.0329572
0.0289913
0.02563
0.022773
0.0203442
0.0182801
0.0165084
0.0149789
0.0136502
0.0124915
0.0114752
0.0105772
0.00978141
0.00907301
0.00843995
0.00787335
0.00736609
0.0069078
0.00649969
0.00610719
0.00579808
0.00548411
0.00520553
0.00492282
0.00471426