/*--------------------------------*- C++ -*----------------------------------*\
| =========                 |                                                 |
| \\      /  F ield         | OpenFOAM: The Open Source CFD Toolbox           |
|  \\    /   O peration     | Version:  2212                                  |
|   \\  /    A nd           | Website:  www.openfoam.com                      |
|    \\/     M anipulation  |                                                 |
\*---------------------------------------------------------------------------*/
FoamFile
{
    version     2.0;
    format      ascii;
    arch        "LSB;label=32;scalar=64";
    class       volScalarField;
    location    "1.9";
    object      k;
}
// * * * * * * * * * * * * * * * * * * * * * * * * * * * * * * * * * * * * * //

dimensions      [0 2 -2 0 0 0 0];

internalField   nonuniform List<scalar> 
6840
(
0.213564
0.055916
0.0283994
0.0193411
0.0146927
0.011851
0.00989063
0.00851597
0.00749121
0.00669617
0.00606033
0.00555063
0.00512254
0.00474468
0.00442488
0.00415635
0.0039297
0.00373995
0.00360574
0.00346151
0.264759
0.104702
0.0585298
0.039163
0.0286198
0.0219934
0.017536
0.0143632
0.0120081
0.0102136
0.00881607
0.00770531
0.00680342
0.00605979
0.00544758
0.00494485
0.00452503
0.00417007
0.00387638
0.00364459
0.283364
0.126774
0.0717019
0.0473281
0.0338662
0.0256615
0.0204606
0.0167968
0.0140483
0.0119406
0.0102833
0.00895476
0.00788318
0.00700845
0.00628426
0.00567793
0.00516677
0.00473238
0.00436283
0.00406125
0.292299
0.141633
0.0819301
0.0541653
0.038923
0.0292873
0.0232721
0.0190783
0.0159337
0.0135144
0.0116259
0.0101116
0.00888016
0.00786865
0.00702956
0.00632678
0.0057329
0.00522668
0.00479519
0.00446966
0.295943
0.148782
0.0871941
0.0576749
0.0415193
0.0310722
0.024645
0.0202209
0.0169049
0.0143247
0.0123081
0.0107019
0.00939553
0.00832164
0.00742997
0.00668247
0.00605055
0.00551247
0.00505593
0.0047157
0.295943
0.148782
0.0871941
0.0576749
0.0415194
0.0310723
0.0246451
0.0202211
0.0169052
0.0143252
0.0123088
0.0107028
0.00939683
0.00832348
0.00743261
0.00668639
0.00605623
0.00552039
0.005065
0.00470724
0.292299
0.141633
0.0819302
0.0541654
0.0389231
0.0292875
0.0232724
0.0190788
0.0159344
0.0135153
0.0116274
0.0101136
0.00888307
0.00787285
0.00703568
0.00633596
0.00574659
0.00524682
0.00482159
0.00446813
0.283364
0.126774
0.071702
0.0473282
0.0338663
0.0256617
0.0204609
0.0167972
0.0140488
0.0119416
0.0102847
0.00895676
0.00788606
0.00701266
0.00629076
0.00568794
0.00518225
0.00475643
0.00439929
0.00411464
0.264759
0.104702
0.0585298
0.039163
0.0286199
0.0219934
0.017536
0.0143633
0.0120082
0.0102138
0.00881651
0.00770604
0.00680465
0.00606233
0.00545151
0.00495141
0.00453683
0.0041926
0.00392142
0.00372755
0.213564
0.055916
0.0283994
0.0193411
0.0146927
0.011851
0.00989063
0.00851597
0.00749121
0.00669617
0.00606034
0.00555061
0.00512257
0.00474464
0.0044249
0.00415637
0.00392972
0.00373998
0.00360576
0.00346174
0.264759
0.104702
0.0585298
0.039163
0.0286199
0.0219934
0.017536
0.0143633
0.0120082
0.0102138
0.00881651
0.00770604
0.00680464
0.0060624
0.00545148
0.00495138
0.00453683
0.00419263
0.0039215
0.00372763
0.311746
0.197541
0.130357
0.0911456
0.0668021
0.050811
0.0397943
0.031912
0.0260941
0.0216871
0.0182763
0.0155882
0.0134406
0.0116977
0.0102663
0.00907829
0.00808275
0.00723972
0.00653497
0.00591513
0.31754
0.217754
0.151085
0.108549
0.0807154
0.0618723
0.0486769
0.0391412
0.0320579
0.0266705
0.0224886
0.0191852
0.016536
0.0143827
0.0126116
0.0111404
0.00990687
0.00886239
0.00797307
0.00719141
0.319723
0.227073
0.162232
0.118772
0.0893609
0.0689925
0.0545302
0.043984
0.0360991
0.0300739
0.0253809
0.0216636
0.0186754
0.0162423
0.0142379
0.0125694
0.0111674
0.00997878
0.00896134
0.00806421
0.320484
0.23086
0.167176
0.123531
0.0935158
0.0724824
0.0574406
0.0464212
0.0381537
0.0318171
0.0268707
0.0229465
0.0197879
0.0172129
0.01509
0.0133215
0.0118349
0.0105745
0.00949704
0.00856831
0.320484
0.23086
0.167176
0.123531
0.0935159
0.0724826
0.0574408
0.0464215
0.0381542
0.0318178
0.0268717
0.0229479
0.0197898
0.0172156
0.0150938
0.013327
0.0118426
0.0105851
0.00951171
0.00859224
0.319723
0.227073
0.162232
0.118772
0.0893611
0.0689929
0.0545307
0.0439847
0.0361002
0.0300754
0.0253831
0.0216666
0.0186797
0.0162482
0.0142463
0.0125814
0.0111847
0.0100036
0.00899705
0.00814031
0.31754
0.217754
0.151085
0.108549
0.0807156
0.0618726
0.0486773
0.0391418
0.0320587
0.0266716
0.0224903
0.0191876
0.0165394
0.0143875
0.0126186
0.0111507
0.00992207
0.00888499
0.00800609
0.00726525
0.311746
0.197541
0.130357
0.0911456
0.0668021
0.050811
0.0397943
0.031912
0.0260941
0.0216871
0.0182763
0.0155882
0.0134406
0.0116976
0.0102663
0.00907834
0.0080828
0.00723976
0.00653502
0.00591533
0.264759
0.104702
0.0585298
0.039163
0.0286198
0.0219934
0.017536
0.0143632
0.0120081
0.0102136
0.00881607
0.00770532
0.00680341
0.00605977
0.00544759
0.00494488
0.00452507
0.00417016
0.0038765
0.00364484
0.283364
0.126774
0.071702
0.0473282
0.0338663
0.0256617
0.0204609
0.0167972
0.0140488
0.0119416
0.0102847
0.00895678
0.0078861
0.00701269
0.00629071
0.00568792
0.00518226
0.00475649
0.00439939
0.00411492
0.31754
0.217754
0.151085
0.108549
0.0807156
0.0618726
0.0486773
0.0391418
0.0320587
0.0266717
0.0224903
0.0191877
0.0165395
0.0143876
0.0126185
0.0111507
0.00992209
0.00888507
0.00800618
0.00726488
0.322005
0.239026
0.177588
0.133616
0.102323
0.0798668
0.0635104
0.0513819
0.0422213
0.035179
0.0296752
0.0253087
0.0217972
0.0189385
0.0165852
0.0146287
0.0129872
0.0115984
0.0104128
0.00938474
0.323293
0.245617
0.187499
0.144536
0.112864
0.0894038
0.0718631
0.0585862
0.0483992
0.0404738
0.0342241
0.0292325
0.0251981
0.0219013
0.01918
0.0169125
0.0150068
0.0133912
0.0120057
0.0107756
0.323714
0.247819
0.191099
0.14881
0.117249
0.0935707
0.0756573
0.0619605
0.0513626
0.0430611
0.0364791
0.0311993
0.0269174
0.0234092
0.0205073
0.0180857
0.0160479
0.0143186
0.0128342
0.0115194
0.323714
0.247819
0.191099
0.14881
0.117249
0.0935708
0.0756574
0.0619607
0.0513629
0.0430615
0.0364796
0.0312
0.0269184
0.0234105
0.0205091
0.0180882
0.0160515
0.0143238
0.0128437
0.0115483
0.323293
0.245617
0.187499
0.144537
0.112864
0.0894039
0.0718633
0.0585865
0.0483997
0.0404744
0.034225
0.0292337
0.0251997
0.0219036
0.0191832
0.0169171
0.0150132
0.0134005
0.012022
0.0108249
0.322005
0.239026
0.177587
0.133616
0.102323
0.0798668
0.0635104
0.0513818
0.0422213
0.035179
0.0296752
0.0253087
0.0217972
0.0189384
0.0165852
0.0146287
0.0129873
0.0115984
0.0104129
0.00938486
0.31754
0.217754
0.151085
0.108549
0.0807154
0.0618723
0.0486769
0.0391412
0.0320579
0.0266705
0.0224886
0.0191852
0.0165361
0.0143827
0.0126115
0.0111404
0.00990691
0.00886247
0.00797319
0.00719183
0.283364
0.126774
0.0717019
0.0473281
0.0338662
0.0256615
0.0204606
0.0167968
0.0140483
0.0119406
0.0102833
0.00895476
0.00788321
0.00700847
0.00628422
0.00567791
0.00516677
0.00473241
0.0043629
0.00406147
0.292299
0.141633
0.0819302
0.0541654
0.0389231
0.0292875
0.0232724
0.0190788
0.0159344
0.0135153
0.0116274
0.0101136
0.00888309
0.00787284
0.00703564
0.00633596
0.00574661
0.00524687
0.00482169
0.00446832
0.319723
0.227073
0.162232
0.118772
0.0893611
0.0689929
0.0545308
0.0439847
0.0361002
0.0300754
0.0253831
0.0216666
0.0186797
0.0162482
0.0142462
0.0125814
0.0111848
0.0100037
0.00899723
0.00814032
0.323293
0.245617
0.187499
0.144537
0.112864
0.0894039
0.0718633
0.0585865
0.0483997
0.0404745
0.034225
0.0292337
0.0251998
0.0219036
0.0191832
0.0169171
0.0150132
0.0134006
0.012022
0.010825
0.324288
0.250862
0.19613
0.154888
0.123591
0.09968
0.0812741
0.0669838
0.0557848
0.0469224
0.0398395
0.0341237
0.0294674
0.0256399
0.0224668
0.0198148
0.0175809
0.0156839
0.0140554
0.0126229
0.32459
0.252403
0.19891
0.158543
0.12769
0.103871
0.0853201
0.0707499
0.05921
0.0499927
0.0425684
0.0365383
0.0316004
0.0275247
0.0241349
0.0212946
0.0188973
0.0168577
0.0151013
0.0135417
0.32459
0.252403
0.19891
0.158543
0.12769
0.103871
0.0853201
0.07075
0.05921
0.0499928
0.0425686
0.0365385
0.0316007
0.0275251
0.0241354
0.0212953
0.0188983
0.0168592
0.0151047
0.0135555
0.324288
0.250862
0.19613
0.154888
0.123591
0.09968
0.0812741
0.0669838
0.0557848
0.0469224
0.0398395
0.0341236
0.0294673
0.0256399
0.0224668
0.0198148
0.0175809
0.0156839
0.0140553
0.012623
0.323293
0.245617
0.187499
0.144536
0.112864
0.0894038
0.0718631
0.0585862
0.0483992
0.0404738
0.0342241
0.0292325
0.0251981
0.0219013
0.0191799
0.0169125
0.0150068
0.0133912
0.0120058
0.0107759
0.319723
0.227073
0.162232
0.118772
0.0893609
0.0689925
0.0545302
0.043984
0.0360991
0.0300739
0.025381
0.0216636
0.0186755
0.0162424
0.0142378
0.0125693
0.0111673
0.00997881
0.00896146
0.00806485
0.292299
0.141633
0.0819301
0.0541653
0.038923
0.0292873
0.0232721
0.0190783
0.0159337
0.0135144
0.0116259
0.0101116
0.00888021
0.00786871
0.00702946
0.00632671
0.00573285
0.00522666
0.00479521
0.00446971
0.295943
0.148782
0.0871941
0.0576749
0.0415194
0.0310723
0.0246451
0.0202211
0.0169052
0.0143252
0.0123088
0.0107028
0.00939684
0.00832349
0.00743262
0.00668641
0.00605626
0.00552044
0.00506508
0.00470737
0.320484
0.23086
0.167176
0.123531
0.093516
0.0724826
0.0574408
0.0464215
0.0381542
0.0318178
0.0268717
0.0229479
0.0197898
0.0172157
0.0150938
0.013327
0.0118426
0.0105853
0.00951187
0.00859247
0.323714
0.247819
0.191099
0.14881
0.117249
0.0935708
0.0756574
0.0619607
0.0513629
0.0430615
0.0364796
0.0312
0.0269184
0.0234105
0.0205092
0.0180883
0.0160515
0.0143239
0.0128437
0.0115485
0.32459
0.252403
0.19891
0.158543
0.12769
0.103871
0.0853201
0.07075
0.05921
0.0499928
0.0425686
0.0365385
0.0316007
0.0275251
0.0241354
0.0212953
0.0188983
0.0168592
0.0151048
0.0135555
0.324844
0.253685
0.20131
0.161836
0.131535
0.107943
0.0893702
0.0746127
0.0627922
0.0532536
0.0455015
0.0391576
0.0339304
0.0295945
0.025974
0.0229312
0.0203567
0.0181611
0.0162636
0.0145639
0.324844
0.253685
0.20131
0.161836
0.131535
0.107943
0.0893702
0.0746127
0.0627922
0.0532536
0.0455015
0.0391576
0.0339304
0.0295945
0.025974
0.0229312
0.0203567
0.0181611
0.0162636
0.014564
0.32459
0.252403
0.19891
0.158543
0.12769
0.103871
0.0853201
0.0707499
0.05921
0.0499927
0.0425684
0.0365383
0.0316004
0.0275247
0.0241349
0.0212946
0.0188973
0.0168577
0.0151012
0.0135419
0.323714
0.247819
0.191099
0.14881
0.117249
0.0935707
0.0756573
0.0619605
0.0513626
0.0430611
0.0364791
0.0311993
0.0269175
0.0234092
0.0205073
0.0180857
0.0160479
0.0143187
0.0128344
0.0115198
0.320484
0.23086
0.167176
0.123531
0.0935158
0.0724824
0.0574406
0.0464212
0.0381537
0.0318171
0.0268707
0.0229465
0.019788
0.0172131
0.0150898
0.0133214
0.0118349
0.0105745
0.00949719
0.00856863
0.295943
0.148782
0.0871941
0.0576749
0.0415193
0.0310722
0.024645
0.0202209
0.0169049
0.0143247
0.0123081
0.0107019
0.00939558
0.00832172
0.00742987
0.00668238
0.00605047
0.0055124
0.00505588
0.00471562
0.295943
0.148782
0.0871941
0.0576749
0.0415193
0.0310722
0.024645
0.0202209
0.0169049
0.0143247
0.0123081
0.0107019
0.00939553
0.00832164
0.00742997
0.00668247
0.00605056
0.00551247
0.00505594
0.00471573
0.320484
0.23086
0.167176
0.123531
0.0935158
0.0724824
0.0574406
0.0464212
0.0381537
0.0318171
0.0268707
0.0229465
0.0197879
0.0172129
0.01509
0.0133215
0.0118349
0.0105746
0.00949709
0.00856844
0.323714
0.247819
0.191099
0.14881
0.117249
0.0935707
0.0756573
0.0619605
0.0513627
0.0430611
0.0364791
0.0311993
0.0269174
0.0234092
0.0205073
0.0180857
0.0160479
0.0143186
0.0128343
0.0115195
0.32459
0.252403
0.19891
0.158543
0.12769
0.103871
0.0853201
0.0707499
0.05921
0.0499927
0.0425684
0.0365383
0.0316004
0.0275247
0.0241349
0.0212946
0.0188974
0.0168577
0.0151013
0.0135417
0.324844
0.253685
0.20131
0.161836
0.131535
0.107943
0.0893702
0.0746127
0.0627922
0.0532536
0.0455015
0.0391576
0.0339304
0.0295945
0.025974
0.0229312
0.0203567
0.0181611
0.0162636
0.0145639
0.324844
0.253685
0.20131
0.161836
0.131535
0.107943
0.0893702
0.0746127
0.0627922
0.0532536
0.0455015
0.0391576
0.0339304
0.0295945
0.025974
0.0229312
0.0203567
0.0181611
0.0162636
0.0145641
0.32459
0.252403
0.19891
0.158543
0.12769
0.103871
0.0853201
0.07075
0.05921
0.0499928
0.0425686
0.0365385
0.0316007
0.0275251
0.0241354
0.0212953
0.0188983
0.0168592
0.0151047
0.0135556
0.323714
0.247819
0.191099
0.14881
0.117249
0.0935708
0.0756574
0.0619607
0.0513629
0.0430615
0.0364796
0.0312
0.0269184
0.0234105
0.0205092
0.0180883
0.0160515
0.0143238
0.0128437
0.0115486
0.320484
0.23086
0.167176
0.123531
0.0935159
0.0724826
0.0574408
0.0464215
0.0381542
0.0318178
0.0268717
0.0229479
0.0197898
0.0172157
0.0150938
0.0133269
0.0118425
0.0105851
0.00951175
0.00859227
0.295943
0.148782
0.0871941
0.0576749
0.0415194
0.0310723
0.0246451
0.0202211
0.0169052
0.0143252
0.0123088
0.0107028
0.00939685
0.00832353
0.00743258
0.00668635
0.00605618
0.00552034
0.00506496
0.00470718
0.292299
0.141633
0.0819301
0.0541653
0.038923
0.0292873
0.0232721
0.0190783
0.0159337
0.0135144
0.0116259
0.0101116
0.00888015
0.00786864
0.00702956
0.00632677
0.00573288
0.00522665
0.00479514
0.00446955
0.319723
0.227073
0.162232
0.118772
0.0893609
0.0689925
0.0545302
0.043984
0.0360991
0.0300739
0.0253809
0.0216636
0.0186754
0.0162422
0.0142379
0.0125694
0.0111673
0.00997872
0.00896128
0.00806402
0.323293
0.245617
0.187499
0.144536
0.112864
0.0894038
0.0718631
0.0585862
0.0483992
0.0404738
0.0342241
0.0292325
0.025198
0.0219013
0.01918
0.0169125
0.0150067
0.0133911
0.0120057
0.0107754
0.324288
0.250862
0.19613
0.154888
0.123591
0.09968
0.0812741
0.0669838
0.0557848
0.0469224
0.0398395
0.0341237
0.0294674
0.0256399
0.0224668
0.0198148
0.0175808
0.0156838
0.0140552
0.0126227
0.32459
0.252403
0.19891
0.158543
0.12769
0.103871
0.0853201
0.07075
0.05921
0.0499928
0.0425686
0.0365385
0.0316007
0.0275251
0.0241354
0.0212953
0.0188982
0.0168591
0.0151046
0.0135554
0.32459
0.252403
0.19891
0.158543
0.12769
0.103871
0.0853201
0.0707499
0.05921
0.0499927
0.0425684
0.0365383
0.0316004
0.0275247
0.0241349
0.0212946
0.0188973
0.0168577
0.0151012
0.0135419
0.324288
0.250862
0.19613
0.154888
0.123591
0.09968
0.0812741
0.0669838
0.0557848
0.0469224
0.0398395
0.0341237
0.0294673
0.0256399
0.0224668
0.0198148
0.0175809
0.0156839
0.0140553
0.012623
0.323293
0.245617
0.187499
0.144537
0.112864
0.0894039
0.0718633
0.0585865
0.0483997
0.0404744
0.034225
0.0292337
0.0251997
0.0219036
0.0191832
0.0169171
0.0150132
0.0134005
0.012022
0.010825
0.319723
0.227073
0.162232
0.118772
0.0893611
0.0689929
0.0545308
0.0439847
0.0361002
0.0300754
0.0253831
0.0216666
0.0186797
0.0162482
0.0142462
0.0125814
0.0111847
0.0100036
0.00899704
0.00814001
0.292299
0.141633
0.0819302
0.0541654
0.0389231
0.0292875
0.0232724
0.0190788
0.0159344
0.0135153
0.0116274
0.0101136
0.00888307
0.00787284
0.00703567
0.00633595
0.00574657
0.00524681
0.00482159
0.00446816
0.283364
0.126774
0.0717019
0.0473281
0.0338662
0.0256615
0.0204606
0.0167968
0.0140483
0.0119406
0.0102833
0.00895475
0.00788318
0.00700844
0.00628425
0.00567791
0.00516674
0.00473232
0.00436278
0.00406103
0.31754
0.217754
0.151085
0.108549
0.0807154
0.0618723
0.0486769
0.0391412
0.0320579
0.0266705
0.0224886
0.0191852
0.016536
0.0143827
0.0126116
0.0111404
0.00990677
0.00886221
0.0079729
0.00719108
0.322005
0.239026
0.177588
0.133616
0.102323
0.0798668
0.0635104
0.0513819
0.0422213
0.035179
0.0296752
0.0253087
0.0217972
0.0189385
0.0165852
0.0146286
0.0129871
0.0115982
0.0104126
0.00938428
0.323293
0.245617
0.187499
0.144537
0.112864
0.0894039
0.0718633
0.0585865
0.0483997
0.0404744
0.034225
0.0292337
0.0251998
0.0219036
0.0191831
0.016917
0.0150132
0.0134005
0.0120219
0.0108248
0.323714
0.247819
0.191099
0.14881
0.117249
0.0935708
0.0756574
0.0619607
0.0513629
0.0430615
0.0364796
0.0312
0.0269184
0.0234105
0.0205091
0.0180883
0.0160515
0.0143238
0.0128437
0.0115486
0.323714
0.247819
0.191099
0.14881
0.117249
0.0935707
0.0756573
0.0619605
0.0513626
0.0430611
0.0364791
0.0311993
0.0269174
0.0234092
0.0205073
0.0180857
0.016048
0.0143187
0.0128344
0.0115196
0.323293
0.245617
0.187499
0.144536
0.112864
0.0894038
0.0718631
0.0585862
0.0483992
0.0404738
0.0342241
0.0292325
0.0251981
0.0219013
0.0191799
0.0169125
0.0150068
0.0133912
0.0120058
0.0107757
0.322005
0.239026
0.177587
0.133616
0.102323
0.0798668
0.0635104
0.0513819
0.0422213
0.035179
0.0296752
0.0253087
0.0217972
0.0189385
0.0165852
0.0146287
0.0129872
0.0115984
0.0104128
0.00938463
0.31754
0.217754
0.151085
0.108549
0.0807156
0.0618726
0.0486773
0.0391418
0.0320587
0.0266716
0.0224903
0.0191876
0.0165394
0.0143875
0.0126186
0.0111507
0.00992205
0.00888496
0.00800604
0.00726462
0.283364
0.126774
0.071702
0.0473282
0.0338663
0.0256617
0.0204609
0.0167972
0.0140488
0.0119416
0.0102847
0.00895676
0.00788606
0.00701266
0.00629075
0.00568795
0.00518226
0.00475645
0.00439934
0.00411481
0.264759
0.104702
0.0585298
0.039163
0.0286198
0.0219934
0.017536
0.0143632
0.0120081
0.0102136
0.00881607
0.00770531
0.00680342
0.00605978
0.00544758
0.00494483
0.00452498
0.00416998
0.00387623
0.00364433
0.311746
0.197541
0.130357
0.0911456
0.0668021
0.050811
0.0397943
0.031912
0.0260941
0.0216871
0.0182763
0.0155882
0.0134406
0.0116977
0.0102662
0.00907823
0.00808264
0.00723953
0.00653472
0.00591472
0.31754
0.217754
0.151085
0.108549
0.0807156
0.0618726
0.0486773
0.0391418
0.0320587
0.0266717
0.0224903
0.0191876
0.0165395
0.0143876
0.0126185
0.0111506
0.00992201
0.00888494
0.00800596
0.00726449
0.319723
0.227073
0.162232
0.118772
0.0893611
0.0689929
0.0545308
0.0439847
0.0361002
0.0300754
0.0253831
0.0216666
0.0186797
0.0162482
0.0142462
0.0125814
0.0111848
0.0100037
0.00899717
0.00814028
0.320484
0.23086
0.167176
0.123531
0.093516
0.0724826
0.0574408
0.0464215
0.0381542
0.0318178
0.0268717
0.0229479
0.0197898
0.0172157
0.0150938
0.013327
0.0118427
0.0105853
0.00951193
0.00859256
0.320484
0.23086
0.167176
0.123531
0.0935158
0.0724824
0.0574406
0.0464211
0.0381537
0.0318171
0.0268707
0.0229465
0.0197879
0.017213
0.01509
0.0133215
0.011835
0.0105746
0.00949724
0.00856854
0.319723
0.227073
0.162232
0.118772
0.0893609
0.0689925
0.0545302
0.043984
0.0360991
0.0300739
0.0253809
0.0216636
0.0186755
0.0162424
0.0142378
0.0125693
0.0111673
0.00997877
0.00896135
0.00806419
0.31754
0.217754
0.151085
0.108549
0.0807154
0.0618723
0.0486769
0.0391412
0.0320579
0.0266705
0.0224886
0.0191852
0.0165361
0.0143827
0.0126115
0.0111404
0.00990683
0.0088623
0.00797303
0.00719127
0.311746
0.197541
0.130357
0.0911456
0.0668021
0.050811
0.0397943
0.031912
0.0260941
0.0216871
0.0182763
0.0155882
0.0134406
0.0116976
0.0102663
0.0090783
0.00808272
0.00723962
0.00653489
0.00591489
0.264759
0.104702
0.0585298
0.039163
0.0286199
0.0219934
0.017536
0.0143633
0.0120082
0.0102138
0.0088165
0.00770604
0.00680465
0.00606232
0.0054515
0.0049514
0.00453682
0.00419258
0.00392138
0.00372748
0.213564
0.055916
0.0283994
0.0193411
0.0146927
0.011851
0.00989063
0.00851598
0.00749121
0.00669617
0.00606033
0.00555063
0.00512254
0.00474468
0.00442487
0.00415633
0.00392967
0.00373989
0.00360561
0.00346138
0.264759
0.104702
0.0585298
0.039163
0.0286199
0.0219934
0.017536
0.0143633
0.0120082
0.0102138
0.00881651
0.00770604
0.00680464
0.00606239
0.00545146
0.00495135
0.00453678
0.00419256
0.00392138
0.00372744
0.283364
0.126774
0.071702
0.0473282
0.0338663
0.0256617
0.0204609
0.0167972
0.0140488
0.0119416
0.0102847
0.00895678
0.0078861
0.00701269
0.0062907
0.00568792
0.00518226
0.00475648
0.00439937
0.00411482
0.292299
0.141633
0.0819302
0.0541654
0.0389231
0.0292875
0.0232724
0.0190788
0.0159344
0.0135153
0.0116274
0.0101136
0.0088831
0.00787285
0.00703564
0.00633597
0.00574663
0.00524689
0.0048217
0.00446812
0.295943
0.148782
0.0871941
0.0576749
0.0415194
0.0310723
0.0246452
0.0202211
0.0169052
0.0143252
0.0123088
0.0107028
0.00939685
0.0083235
0.00743264
0.00668643
0.00605628
0.00552045
0.0050651
0.00470739
0.295943
0.148782
0.0871941
0.0576749
0.0415193
0.0310722
0.024645
0.0202209
0.0169048
0.0143247
0.0123081
0.0107019
0.00939554
0.00832166
0.00743
0.00668249
0.00605056
0.00551247
0.00505594
0.0047157
0.292299
0.141633
0.0819301
0.0541653
0.038923
0.0292873
0.0232721
0.0190783
0.0159337
0.0135144
0.0116259
0.0101116
0.0088802
0.00786872
0.00702947
0.00632672
0.00573284
0.00522662
0.00479512
0.00446949
0.283364
0.126774
0.0717019
0.0473281
0.0338662
0.0256615
0.0204606
0.0167968
0.0140483
0.0119406
0.0102833
0.00895476
0.0078832
0.00700846
0.0062842
0.00567788
0.00516672
0.00473231
0.00436277
0.00406109
0.264759
0.104702
0.0585298
0.039163
0.0286198
0.0219934
0.017536
0.0143632
0.0120081
0.0102136
0.00881606
0.00770531
0.0068034
0.00605976
0.00544756
0.00494483
0.00452499
0.00417
0.00387626
0.00364442
0.213564
0.055916
0.0283994
0.0193411
0.0146927
0.011851
0.00989063
0.00851597
0.00749121
0.00669616
0.00606034
0.00555061
0.00512256
0.00474463
0.00442489
0.00415635
0.00392968
0.00373991
0.00360562
0.00346143
0.00414617
0.00367833
0.00331408
0.00308771
0.00294536
0.00284745
0.00276721
0.002691
0.00262205
0.00255589
0.00249874
0.00244607
0.00239592
0.00234722
0.00230282
0.00226001
0.00222068
0.00218233
0.00214659
0.00211272
0.00207948
0.00204813
0.00201803
0.00199022
0.00196381
0.00193814
0.00191335
0.00188879
0.00186496
0.00184164
0.00181975
0.00179804
0.00177661
0.00175498
0.00173304
0.00171491
0.0016967
0.00167812
0.00166201
0.00163343
0.0039749
0.00354798
0.00323116
0.00300148
0.00283243
0.0027007
0.00259033
0.00249401
0.00240872
0.00232758
0.00225972
0.00219737
0.00213972
0.0020858
0.00203609
0.00198918
0.00194676
0.00190716
0.00187033
0.0018359
0.00180279
0.0017714
0.00174204
0.00171482
0.00168965
0.00166576
0.00164266
0.00162013
0.00159827
0.00157677
0.0015561
0.00153604
0.00151665
0.00149773
0.00147878
0.00146071
0.00144381
0.00142719
0.00141143
0.00139318
0.0042355
0.00380424
0.00345556
0.00322155
0.0030296
0.00286449
0.002724
0.00260365
0.00249892
0.00240765
0.00232591
0.00225232
0.00218635
0.00212375
0.0020654
0.00201272
0.00196512
0.00192161
0.00188011
0.00184103
0.00180412
0.001767
0.00173202
0.00170037
0.00167152
0.00164453
0.00161827
0.00159278
0.0015683
0.00154456
0.00152167
0.00149923
0.00147785
0.00145713
0.001437
0.00141801
0.00139929
0.00138086
0.00136316
0.00134488
0.00430013
0.00393214
0.00363426
0.0033905
0.00318684
0.00301117
0.00285637
0.00271955
0.00259804
0.00248954
0.00239274
0.00230551
0.00222616
0.00215446
0.00208921
0.00202981
0.00197493
0.0019258
0.00187486
0.00182774
0.00178558
0.00174579
0.00170766
0.00167178
0.00163818
0.00160683
0.00157724
0.00154915
0.00152262
0.00149706
0.00147247
0.00144794
0.00142539
0.00140318
0.00138279
0.00136213
0.00134294
0.00132396
0.00130595
0.00128762
0.00425671
0.00394684
0.00367855
0.0034451
0.00324085
0.00306195
0.00290411
0.0027639
0.0026381
0.00252485
0.00242256
0.00232992
0.00224603
0.00216887
0.00209879
0.00203451
0.00197506
0.00191986
0.00186894
0.001821
0.0017791
0.00173452
0.00169255
0.0016541
0.00161881
0.00158553
0.00155464
0.0015253
0.00149794
0.00147173
0.00144665
0.00142179
0.00139901
0.001376
0.00135503
0.00133334
0.00131356
0.0012944
0.00127641
0.00125929
0.00418059
0.0038848
0.00362709
0.00340122
0.00320299
0.00302881
0.00287515
0.00273865
0.00261566
0.00250407
0.00240254
0.00231008
0.00222614
0.00214792
0.00207616
0.00201024
0.00194954
0.00189403
0.00184275
0.0017951
0.00175099
0.00170978
0.00167225
0.001636
0.00159858
0.00156321
0.0015311
0.00150166
0.00147496
0.0014492
0.00142528
0.00140184
0.00137931
0.00135372
0.00133488
0.0013116
0.00129273
0.00127415
0.00125618
0.00123903
0.00421108
0.00384124
0.0035536
0.00331758
0.00311906
0.00294935
0.00280186
0.0026712
0.00255332
0.00244636
0.00234888
0.00225983
0.00217851
0.00210309
0.00203378
0.00196998
0.00191119
0.00185712
0.00180751
0.00176202
0.00172001
0.0016809
0.00164375
0.00160955
0.00157313
0.00153966
0.00150953
0.00148153
0.00145576
0.00143023
0.00140642
0.00138275
0.00136065
0.00133692
0.00131762
0.00129759
0.00127802
0.00125932
0.00124084
0.00122291
0.00411826
0.00368792
0.00338909
0.00316075
0.00297719
0.00282326
0.00268889
0.00256899
0.00246067
0.00236206
0.00227188
0.00218926
0.00211354
0.00204376
0.0019796
0.00192059
0.00186646
0.00181684
0.00177102
0.0017287
0.00169
0.0016531
0.00161643
0.00158216
0.00155147
0.00152195
0.00149455
0.00146825
0.00144237
0.0014166
0.00139271
0.0013707
0.00135048
0.00133034
0.00131061
0.0012908
0.00127049
0.00125129
0.00123248
0.00121403
0.00384709
0.00342091
0.00313004
0.00294414
0.00279204
0.00266169
0.00254752
0.00244537
0.00235279
0.00226765
0.00218988
0.00211988
0.0020557
0.00199559
0.00194065
0.00188822
0.00183544
0.00179007
0.00174786
0.00170934
0.00167264
0.00163861
0.0016063
0.00157495
0.00154657
0.00151903
0.00149348
0.00146909
0.00144634
0.00142438
0.00140352
0.00138324
0.00136396
0.00134511
0.00132662
0.00130717
0.00128752
0.00126937
0.00125211
0.00123423
0.00346431
0.00318209
0.00295141
0.00277912
0.00265111
0.00255215
0.00246566
0.0023819
0.00230736
0.00223408
0.00217108
0.00211423
0.00206207
0.00200513
0.00195426
0.00190701
0.0018624
0.00182107
0.00178232
0.00174651
0.00171256
0.00168107
0.00165232
0.00162563
0.00160094
0.00157715
0.00155445
0.0015326
0.00151184
0.00149143
0.00147201
0.00145333
0.0014353
0.0014175
0.00139993
0.00138112
0.00136432
0.00134808
0.00133341
0.00131586
0.00414529
0.0036775
0.00331262
0.00308667
0.00294102
0.00283999
0.00275863
0.00268325
0.00261548
0.00255121
0.00249556
0.00244406
0.00239561
0.00234767
0.00230292
0.00226051
0.00222087
0.00218272
0.00214693
0.00211283
0.00207986
0.0020481
0.00201838
0.00199029
0.00196415
0.0019382
0.00191341
0.00188872
0.00186482
0.00184151
0.00181969
0.00179806
0.00177679
0.00175546
0.00173451
0.0017143
0.00169586
0.00167683
0.00166033
0.00163025
0.00346443
0.00318442
0.00295343
0.00278051
0.00265992
0.00256429
0.00247829
0.00239151
0.00231557
0.00224054
0.00217589
0.00211649
0.00206263
0.00200464
0.00195429
0.00190604
0.00186218
0.00182052
0.00178207
0.00174635
0.00171231
0.00168094
0.00165212
0.00162551
0.00160077
0.0015771
0.00155452
0.00153279
0.00151214
0.00149175
0.00147237
0.00145367
0.00143558
0.00141744
0.0013987
0.00138089
0.00136521
0.00134977
0.00133547
0.00131857
0.00428303
0.00399442
0.00369386
0.00344257
0.00324493
0.0030431
0.00285556
0.0026789
0.00251894
0.00235498
0.00222665
0.00209378
0.0019769
0.0018602
0.00176444
0.00166829
0.00158916
0.00151237
0.00144519
0.00138381
0.00132086
0.00126418
0.00121465
0.00117619
0.00113857
0.00110207
0.00106852
0.0010364
0.00100818
0.000981709
0.000955161
0.000929897
0.000907658
0.000886703
0.000862453
0.000842379
0.000825337
0.000809492
0.000795397
0.000785398
0.00570951
0.00520438
0.00475798
0.00440423
0.0040808
0.0037967
0.00354286
0.00331428
0.00310715
0.00291923
0.00274839
0.00258766
0.00245052
0.00231629
0.0022007
0.00208794
0.00199118
0.00189808
0.00181571
0.00173788
0.00166239
0.00159653
0.00153032
0.00147306
0.00141597
0.00136368
0.0013163
0.00126885
0.00122893
0.001189
0.00114994
0.00111002
0.00107716
0.00104403
0.00101366
0.000979972
0.000947981
0.000917076
0.000888923
0.000857245
0.00676078
0.00610769
0.00555414
0.00508304
0.00468186
0.00433497
0.00402677
0.00375199
0.00350598
0.00328466
0.00308477
0.0029035
0.00273978
0.00259028
0.00245412
0.00232974
0.00221575
0.00211202
0.00201499
0.00192799
0.00184463
0.00177073
0.00169778
0.00163344
0.00157037
0.00151495
0.00146051
0.00141164
0.00136448
0.00131981
0.00127621
0.00123188
0.00119365
0.00115481
0.00111985
0.00108215
0.00104541
0.00100842
0.000976148
0.000935085
0.00732751
0.00661562
0.00601382
0.00549762
0.00505032
0.00466215
0.00432217
0.00402184
0.00375248
0.00351037
0.00329213
0.00309522
0.0029162
0.00275434
0.00260697
0.00247256
0.00234964
0.00223703
0.00213355
0.00203802
0.0019511
0.00186282
0.00178119
0.00171259
0.00165144
0.00159272
0.00153879
0.00148464
0.00143301
0.00138426
0.0013388
0.00129358
0.00125233
0.00121041
0.00117187
0.00113095
0.00109064
0.0010508
0.00101441
0.000968738
0.00743849
0.00676415
0.00617207
0.00565262
0.00519612
0.00479579
0.00444464
0.00413567
0.00385941
0.00361028
0.00338525
0.00318232
0.00299709
0.00283011
0.00267804
0.00253925
0.00241226
0.00229584
0.00218885
0.00209016
0.00199926
0.00191435
0.0018362
0.00175532
0.00167926
0.00161351
0.00155871
0.00150739
0.00145875
0.0014117
0.00136635
0.00132355
0.0012781
0.00123154
0.00118976
0.00114578
0.00110202
0.00106225
0.00102178
0.00097393
0.00729257
0.00663697
0.00605643
0.00554782
0.00510302
0.00471552
0.0043777
0.00407989
0.00381189
0.00357
0.00335125
0.00315358
0.00297228
0.00280829
0.00265845
0.00252135
0.00239553
0.00227991
0.00217339
0.00207502
0.00198414
0.00189917
0.00182169
0.00174465
0.00167143
0.00160913
0.00154937
0.00149071
0.00143885
0.0013868
0.00133728
0.00128769
0.00124293
0.00119776
0.00115693
0.00111306
0.00106917
0.00102845
0.000986278
0.000936148
0.00689262
0.00621858
0.00564293
0.0051588
0.00474973
0.0044024
0.00409789
0.00382557
0.00358018
0.00335791
0.0031558
0.00297212
0.00280308
0.00264835
0.00250615
0.00237584
0.00225531
0.00214493
0.00204262
0.0019483
0.00186071
0.00177832
0.00170364
0.00162768
0.00156262
0.00149744
0.00144044
0.00138236
0.00133253
0.00128168
0.00123233
0.001182
0.00113947
0.00109631
0.00105797
0.00101882
0.00097432
0.000931281
0.00089063
0.00084513
0.00601086
0.00535212
0.00484447
0.00445009
0.00412168
0.00383616
0.0035818
0.00335116
0.00314042
0.00294555
0.00276678
0.00260422
0.0024525
0.00231183
0.00218161
0.00206472
0.00195134
0.00185522
0.00175963
0.00167745
0.00159577
0.00152328
0.00145412
0.00139035
0.00133493
0.00127836
0.00123077
0.00118155
0.0011409
0.00109982
0.00106031
0.0010197
0.000987601
0.000954684
0.000925688
0.000890815
0.000851243
0.000820785
0.000792354
0.000770347
0.00428172
0.00399297
0.00369241
0.00343626
0.00320983
0.00300851
0.00282416
0.00265302
0.00249499
0.00233741
0.00221076
0.00208908
0.00197372
0.0018601
0.00176234
0.00167005
0.00158853
0.00151306
0.00144545
0.00138366
0.00132203
0.0012639
0.00121553
0.00117598
0.00113937
0.00110197
0.00106827
0.00103579
0.00100735
0.000980927
0.000954413
0.000929247
0.000907218
0.000886339
0.000866434
0.000846533
0.000821575
0.000802888
0.000788907
0.00078035
0.00397468
0.00354682
0.00322908
0.00299962
0.00282664
0.00269174
0.00258103
0.00248583