/*--------------------------------*- C++ -*----------------------------------*\
| =========                 |                                                 |
| \\      /  F ield         | OpenFOAM: The Open Source CFD Toolbox           |
|  \\    /   O peration     | Version:  2212                                  |
|   \\  /    A nd           | Website:  www.openfoam.com                      |
|    \\/     M anipulation  |                                                 |
\*---------------------------------------------------------------------------*/
FoamFile
{
    version     2.0;
    format      ascii;
    arch        "LSB;label=32;scalar=64";
    class       surfaceScalarField;
    location    "1.9";
    object      phi;
}
// * * * * * * * * * * * * * * * * * * * * * * * * * * * * * * * * * * * * * //

dimensions      [0 3 -1 0 0 0 0];

oriented        oriented;

internalField   nonuniform List<scalar> 
19019
(
3.32249e-07
1.09681e-09
1.09689e-09
2.7919e-07
2.65294e-08
2.65298e-08
2.49217e-07
1.49861e-08
1.49869e-08
2.29253e-07
9.98165e-09
9.98293e-09
2.14832e-07
7.20896e-09
7.21172e-09
2.03194e-07
5.81669e-09
5.82093e-09
1.93764e-07
4.71102e-09
4.71937e-09
1.85992e-07
3.87875e-09
3.89357e-09
1.79335e-07
3.31552e-09
3.3411e-09
1.73494e-07
2.89863e-09
2.94241e-09
1.68302e-07
2.56008e-09
2.63216e-09
1.63647e-07
2.26782e-09
2.38702e-09
1.59432e-07
2.0067e-09
2.20835e-09
1.55584e-07
1.74733e-09
2.10067e-09
1.52085e-07
1.44165e-09
2.05735e-09
1.48972e-07
1.05699e-09
2.05582e-09
1.46345e-07
5.29442e-10
2.09757e-09
1.44846e-07
-5.43503e-10
2.04237e-09
1.45921e-07
-3.33287e-09
2.2571e-09
-1.96111e-08
-7.57461e-09
6.3138e-07
3.58753e-09
7.40297e-09
6.14563e-07
2.26456e-08
2.07009e-08
5.86443e-07
2.43757e-08
1.87301e-08
5.61722e-07
1.88544e-08
1.58489e-08
5.3961e-07
1.55684e-08
1.37518e-08
5.20625e-07
1.35083e-08
1.12934e-08
5.04672e-07
1.19482e-08
8.71581e-09
4.90907e-07
1.07936e-08
6.8509e-09
4.78664e-07
9.93681e-09
5.62145e-09
4.67547e-07
9.21899e-09
4.79668e-09
4.5731e-07
8.5806e-09
4.21649e-09
4.47793e-07
7.99793e-09
3.78714e-09
4.38858e-07
7.45843e-09
3.48243e-09
4.30383e-07
6.94657e-09
3.27616e-09
4.22245e-07
6.43328e-09
3.14591e-09
4.14412e-07
5.83227e-09
3.05817e-09
4.06915e-07
5.03176e-09
2.99451e-09
3.99838e-07
3.75964e-09
2.77353e-09
3.94025e-07
1.26199e-09
1.21794e-09
-9.60341e-10
-3.21135e-09
8.90374e-07
2.85264e-09
6.33245e-09
8.82485e-07
1.34088e-08
1.71264e-08
8.70356e-07
1.78678e-08
1.86373e-08
8.55105e-07
1.69561e-08
1.71493e-08
8.39969e-07
1.53415e-08
1.53631e-08
8.25512e-07
1.4172e-08
1.37933e-08
8.11729e-07
1.33831e-08
1.23479e-08
7.98711e-07
1.2681e-08
1.11308e-08
7.86598e-07
1.18964e-08
1.01527e-08
7.75391e-07
1.10575e-08
9.3692e-09
7.64931e-07
1.02589e-08
8.78098e-09
7.55041e-07
9.52435e-09
8.36421e-09
7.45546e-07
8.86956e-09
8.0833e-09
7.36288e-07
8.29701e-09
7.90812e-09
7.27097e-07
7.79177e-09
7.83145e-09
7.17714e-07
7.33002e-09
7.88524e-09
7.07738e-07
6.89899e-09
8.10942e-09
6.96435e-07
6.49616e-09
8.56599e-09
6.82375e-07
6.12236e-09
9.19944e-09
9.98597e-09
1.41333e-08
1.07432e-06
1.06507e-09
5.56893e-09
1.06824e-06
5.58754e-09
1.39005e-08
1.06138e-06
8.46595e-09
1.62626e-08
1.05338e-06
9.04304e-09
1.59105e-08
1.04509e-06
8.62335e-09
1.50043e-08
1.0372e-06
8.13007e-09
1.39363e-08
1.0298e-06
7.803e-09
1.29813e-08
1.02277e-06
7.58176e-09
1.21215e-08
1.0159e-06
7.41518e-09
1.13559e-08
1.00909e-06
7.16081e-09
1.07098e-08
1.00235e-06
6.7694e-09
1.0229e-08
9.9563e-07
6.35055e-09
9.89076e-09
9.88837e-07
5.98829e-09
9.67414e-09
9.81839e-07
5.71795e-09
9.57738e-09
9.74453e-07
5.56914e-09
9.60843e-09
9.66388e-07
5.59698e-09
9.79843e-09
9.57172e-07
5.88673e-09
1.02284e-08
9.46068e-07
6.58758e-09
1.10119e-08
9.32009e-07
7.92691e-09
1.22554e-08
1.22917e-08
1.53775e-08
1.16914e-06
1.39057e-13
4.90665e-09
1.16312e-06
6.54591e-13
1.16089e-08
1.15731e-06
1.48213e-12
1.4276e-08
1.15202e-06
2.61803e-12
1.43342e-08
1.1469e-06
4.44527e-12
1.37313e-08
1.14206e-06
7.65678e-12
1.29706e-08
1.13774e-06
1.32904e-11
1.21022e-08
1.13399e-06
2.24736e-11
1.13099e-08
1.13072e-06
3.77973e-11
1.06524e-08
1.12762e-06
6.29386e-11
1.01929e-08
1.12439e-06
1.03995e-10
9.89912e-09
1.12087e-06
1.71083e-10
9.69645e-09
1.11699e-06
2.80958e-10
9.58747e-09
1.11266e-06
4.60449e-10
9.58539e-09
1.10779e-06
7.44721e-10
9.69489e-09
1.10227e-06
1.19451e-09
9.92883e-09
1.09593e-06
1.91024e-09
1.03169e-08
1.08859e-06
3.02833e-09
1.0901e-08
1.08019e-06
4.65296e-09
1.16712e-08
7.53266e-09
1.28543e-08
1.16914e-06
-1.06477e-09
4.90661e-09
1.16312e-06
-5.58648e-09
1.16087e-08
1.15731e-06
-8.46394e-09
1.42758e-08
1.15202e-06
-9.03963e-09
1.43337e-08
1.14691e-06
-8.61709e-09
1.37296e-08
1.14207e-06
-8.11866e-09
1.29673e-08
1.13777e-06
-7.7828e-09
1.2097e-08
1.13404e-06
-7.54723e-09
1.13014e-08
1.13079e-06
-7.35568e-09
1.06378e-08
1.12775e-06
-7.06196e-09
1.01684e-08
1.1246e-06
-6.60805e-09
9.85923e-09
1.12123e-06
-6.08739e-09
9.63013e-09
1.11759e-06
-5.55576e-09
9.47488e-09
1.11366e-06
-5.00046e-09
9.39673e-09
1.1094e-06
-4.38325e-09
9.38615e-09
1.1048e-06
-3.62942e-09
9.42419e-09
1.09982e-06
-2.60187e-09
9.49403e-09
1.09439e-06
-1.1383e-09
9.59054e-09
1.08841e-06
9.33162e-10
9.70479e-09
3.7757e-09
9.82575e-09
1.07432e-06
-2.85267e-09
5.56892e-09
1.06824e-06
-1.34088e-08
1.39004e-08
1.06138e-06
-1.78678e-08
1.62618e-08
1.05339e-06
-1.69559e-08
1.59083e-08
1.04511e-06
-1.53406e-08
1.50003e-08
1.03723e-06
-1.41698e-08
1.39301e-08
1.02986e-06
-1.33789e-08
1.2972e-08
1.02288e-06
-1.26741e-08
1.21062e-08
1.01608e-06
-1.18842e-08
1.13305e-08
1.00938e-06
-1.10369e-08
1.06665e-08
1.00285e-06
-1.02253e-08
1.01543e-08
9.96463e-07
-9.46733e-09
9.7632e-09
9.90218e-07
-8.76656e-09
9.45651e-09
9.84112e-07
-8.10332e-09
9.20837e-09
9.78175e-07
-7.42336e-09
8.97686e-09
9.72446e-07
-6.60856e-09
8.709e-09
9.66974e-07
-5.45328e-09
8.32288e-09
9.61747e-07
-3.63609e-09
7.7245e-09
9.56729e-07
-9.1309e-10
6.86438e-09
5.12476e-09
5.44672e-09
8.90375e-07
-3.58767e-09
6.33236e-09
8.82486e-07
-2.26462e-08
1.71258e-08
8.70359e-07
-2.43766e-08
1.86358e-08
8.55113e-07
-1.88559e-08
1.71467e-08
8.39984e-07
-1.55715e-08
1.53594e-08
8.2554e-07
-1.35136e-08
1.37883e-08
8.11778e-07
-1.19573e-08
1.23398e-08
7.98796e-07
-1.08085e-08
1.11165e-08
7.86745e-07
-9.96187e-09
1.01293e-08
7.75639e-07
-9.26178e-09
9.33099e-09
7.6535e-07
-8.65365e-09
8.71694e-09
7.55746e-07
-8.11646e-09
8.25341e-09
7.46731e-07
-7.64288e-09
7.89069e-09
7.38283e-07
-7.232e-09
7.57735e-09
7.30479e-07
-6.87736e-09
7.25762e-09
7.23545e-07
-6.50846e-09
6.8334e-09
7.17955e-07
-5.97697e-09
6.11394e-09
7.14166e-07
-4.5971e-09
4.75008e-09
7.12926e-07
-2.08053e-09
2.407e-09
6.10237e-09
-3.18477e-09
6.3138e-07
-1.09688e-09
7.40287e-09
6.14563e-07
-2.65298e-08
2.07004e-08
5.86444e-07
-1.49869e-08
1.87293e-08
5.61724e-07
-9.98288e-09
1.58472e-08
5.39615e-07
-7.21166e-09
1.37495e-08
5.20633e-07
-5.82085e-09
1.12889e-08
5.04687e-07
-4.71927e-09
8.70854e-09
4.90932e-07
-3.89344e-09
6.83914e-09
4.7871e-07
-3.34094e-09
5.60173e-09
4.67627e-07
-2.94222e-09
4.76283e-09
4.57454e-07
-2.63194e-09
4.15157e-09
4.4805e-07
-2.38678e-09
3.67466e-09
4.39311e-07
-2.20804e-09
3.30383e-09
4.3116e-07
-2.10031e-09
3.01899e-09
4.23578e-07
-2.05686e-09
2.76217e-09
4.16765e-07
-2.05492e-09
2.35865e-09
4.11215e-07
-2.09602e-09
1.66852e-09
4.08533e-07
-2.03984e-09
1.24968e-10
4.11932e-07
-2.25068e-09
-3.22997e-09
7.59227e-09
-1.66704e-08
3.32249e-07
1.09681e-09
2.7919e-07
2.65294e-08
2.49217e-07
1.49862e-08
2.29253e-07
9.98169e-09
2.14832e-07
7.20901e-09
2.03194e-07
5.81675e-09
1.93764e-07
4.71111e-09
1.85992e-07
3.87887e-09
1.79335e-07
3.31567e-09
1.73494e-07
2.89882e-09
1.68302e-07
2.5603e-09
1.63647e-07
2.26804e-09
1.59432e-07
2.00693e-09
1.55584e-07
1.74767e-09
1.52085e-07
1.44214e-09
1.48973e-07
1.05755e-09
1.46346e-07
5.30369e-10
1.44848e-07
-5.42294e-10
1.45929e-07
-3.33135e-09
-1.96129e-08
6.3138e-07
7.40287e-09
3.58768e-09
6.14563e-07
2.07003e-08
2.26462e-08
5.86444e-07
1.87293e-08
2.43767e-08
5.61724e-07
1.58472e-08
1.8856e-08
5.39615e-07
1.37495e-08
1.55716e-08
5.20633e-07
1.12889e-08
1.35136e-08
5.04687e-07
8.70852e-09
1.19574e-08
4.90933e-07
6.83912e-09
1.08087e-08
4.7871e-07
5.60171e-09
9.96202e-09
4.67628e-07
4.76282e-09
9.26195e-09
4.57454e-07
4.15157e-09
8.65384e-09
4.4805e-07
3.67472e-09
8.11665e-09
4.39311e-07
3.30404e-09
7.64309e-09
4.3116e-07
3.01909e-09
7.23253e-09
4.23577e-07
2.76202e-09
6.87828e-09
4.16765e-07
2.35854e-09
6.50967e-09
4.11215e-07
1.66851e-09
5.97885e-09
4.08532e-07
1.25086e-10
4.60052e-09
4.11929e-07
-3.22798e-09
2.08786e-09
-1.66655e-08
-6.08071e-09
9.23616e-07
7.03387e-09
7.03406e-09
9.25317e-07
1.985e-08
1.98507e-08
9.17181e-07
2.2797e-08
2.27982e-08
9.0427e-07
2.23026e-08
2.23048e-08
8.90525e-07
2.06211e-08
2.06249e-08
8.77394e-07
1.7853e-08
1.786e-08
8.65415e-07
1.46962e-08
1.47076e-08
8.5472e-07
1.21833e-08
1.22016e-08
8.45253e-07
1.03296e-08
1.03613e-08
8.36863e-07
8.94717e-09
9.00223e-09
8.2936e-07
7.88815e-09
7.98227e-09
8.22554e-07
7.05661e-09
7.21187e-09
8.1632e-07
6.38542e-09
6.63466e-09
8.10628e-07
5.79565e-09
6.19171e-09
8.05486e-07
5.20903e-09
5.84114e-09
8.00854e-07
4.51791e-09
5.53018e-09
7.967e-07
3.62235e-09
5.19495e-09
7.92574e-07
2.32202e-09
4.70236e-09
7.86806e-07
1.60801e-10
3.5971e-09
-3.65706e-09
1.47214e-10
1.1589e-06
5.28145e-09
6.10292e-09
1.16569e-06
1.39992e-08
1.61841e-08
1.16844e-06
1.7979e-08
2.0709e-08
1.1666e-06
1.91806e-08
2.21085e-08
1.1622e-06
1.88784e-08
2.15108e-08
1.15652e-06
1.75484e-08
1.9777e-08
1.15044e-06
1.56899e-08
1.74367e-08
1.14451e-06
1.3894e-08
1.53486e-08
1.13903e-06
1.22961e-08
1.36613e-08
1.13413e-06
1.09021e-08
1.23203e-08
1.12977e-06
9.75026e-09
1.12713e-08
1.12592e-06
8.80517e-09
1.04698e-08
1.1225e-06
8.01619e-09
9.87294e-09
1.11943e-06
7.33573e-09
9.44316e-09
1.11658e-06
6.71771e-09
9.16615e-09
1.11379e-06
6.12914e-09
9.0612e-09
1.11085e-06
5.53005e-09
9.14894e-09
1.10737e-06
4.90418e-09
9.45724e-09
1.10271e-06
4.15348e-09
9.86989e-09
3.71033e-09
1.06399e-08
1.32762e-06
2.71857e-09
4.93143e-09
1.33539e-06
7.12186e-09
1.30099e-08
1.34286e-06
9.55528e-09
1.72177e-08
1.34847e-06
1.05811e-08
1.89032e-08
1.35196e-06
1.08804e-08
1.95076e-08
1.35373e-06
1.05887e-08
1.91245e-08
1.35439e-06
9.9048e-09
1.81148e-08
1.3545e-06
9.06684e-09
1.6833e-08
1.35443e-06
8.22763e-09
1.54963e-08
1.3543e-06
7.45326e-09
1.42845e-08
1.35417e-06
6.7823e-09
1.33325e-08
1.35404e-06
6.212e-09
1.26108e-08
1.35391e-06
5.73486e-09
1.20861e-08
1.35373e-06
5.35279e-09
1.17445e-08
1.35339e-06
5.07279e-09
1.15896e-08
1.35276e-06
4.91244e-09
1.16489e-08
1.35164e-06
4.896e-09
1.19753e-08
1.34987e-06
5.09501e-09
1.25905e-08
1.34723e-06
5.58216e-09
1.34722e-08
6.51133e-09
1.46042e-08
1.41518e-06
2.53942e-13
4.19314e-09
1.42279e-06
7.27938e-13
1.11167e-08
1.43152e-06
1.25309e-12
1.50998e-08
1.4398e-06
2.26531e-12
1.66313e-08
1.44713e-06
4.13008e-12
1.72786e-08
1.45317e-06
7.11528e-12
1.75144e-08
1.458e-06
1.16099e-11
1.71595e-08
1.46192e-06
1.88558e-11
1.64456e-08
1.4652e-06
3.13646e-11
1.55606e-08
1.46811e-06
5.40685e-11
1.46821e-08
1.47083e-06
9.2414e-11
1.38747e-08
1.4734e-06
1.53281e-10
1.31836e-08
1.47579e-06
2.45061e-10
1.26874e-08
1.47794e-06
3.85181e-10
1.24053e-08
1.4798e-06
6.05382e-10
1.23012e-08
1.48136e-06
9.44507e-10
1.23392e-08
1.48259e-06
1.45195e-09
1.25315e-08
1.48347e-06
2.18905e-09
1.29237e-08
1.48405e-06
3.20809e-09
1.34644e-08
4.47806e-09
1.4069e-08
1.41518e-06
-2.71828e-09
4.193e-09
1.42279e-06
-7.12105e-09
1.11163e-08
1.43152e-06
-9.5538e-09
1.50992e-08
1.43981e-06
-1.05783e-08
1.66301e-08
1.44714e-06
-1.08753e-08
1.72758e-08
1.45318e-06
-1.05801e-08
1.75096e-08
1.45803e-06
-9.89056e-09
1.71519e-08
1.46196e-06
-9.04333e-09
1.64339e-08
1.46528e-06
-8.18817e-09
1.55428e-08
1.46823e-06
-7.38126e-09
1.46532e-08
1.47101e-06
-6.65553e-09
1.38263e-08
1.47369e-06
-6.00328e-09
1.31006e-08
1.47628e-06
-5.41145e-09
1.25466e-08
1.47874e-06
-4.85428e-09
1.21731e-08
1.48108e-06
-4.27328e-09
1.19298e-08
1.48329e-06
-3.61803e-09
1.17698e-08
1.48539e-06
-2.82425e-09
1.16737e-08
1.48736e-06
-1.83032e-09
1.16392e-08
1.48922e-06
-5.85703e-10
1.16381e-08
1.03279e-09
1.16037e-08
1.32763e-06
-5.28158e-09
4.93116e-09
1.33539e-06
-1.39994e-08
1.30092e-08
1.34287e-06
-1.79793e-08
1.7216e-08
1.34848e-06
-1.9181e-08
1.88993e-08
1.35198e-06
-1.88791e-08
1.95006e-08
1.35377e-06
-1.755e-08
1.91139e-08
1.35444e-06
-1.56918e-08
1.80983e-08
1.35459e-06
-1.38952e-08
1.68069e-08
1.35458e-06
-1.22985e-08
1.54562e-08
1.35455e-06
-1.09068e-08
1.42186e-08
1.35459e-06
-9.75877e-09
1.32193e-08
1.35475e-06
-8.82292e-09
1.24217e-08
1.35507e-06
-8.04781e-09
1.17771e-08
1.35556e-06
-7.38431e-09
1.12432e-08
1.35626e-06
-6.77362e-09
1.07761e-08
1.35718e-06
-6.15345e-09
1.03274e-08
1.35827e-06
-5.44027e-09
9.84518e-09
1.35943e-06
-4.54258e-09
9.28034e-09
1.36039e-06
-3.29653e-09
8.61167e-09
-1.08489e-09
7.72599e-09
1.1589e-06
-7.03405e-09
6.1026e-09
1.1657e-06
-1.98507e-08
1.61829e-08
1.16844e-06
-2.27982e-08
2.07064e-08
1.16661e-06
-2.23048e-08
2.21044e-08
1.16221e-06
-2.06248e-08
2.15046e-08
1.15654e-06
-1.78599e-08
1.97682e-08
1.15047e-06
-1.47076e-08
1.74223e-08
1.14457e-06
-1.22015e-08
1.53236e-08
1.13915e-06
-1.03612e-08
1.36186e-08
1.13432e-06
-9.00212e-09
1.22494e-08
1.13011e-06
-7.98212e-09
1.11541e-08
1.12647e-06
-7.21163e-09
1.02775e-08
1.12339e-06
-6.63427e-09
9.55702e-09
1.12085e-06
-6.19142e-09
8.92537e-09
1.11886e-06
-5.84064e-09
8.32097e-09
1.1174e-06
-5.52876e-09
7.67002e-09
1.11641e-06
-5.1923e-09
6.85497e-09
1.11555e-06
-4.69763e-09
5.76578e-09
1.11393e-06
-3.58776e-09
4.31198e-09
-1.19668e-10
2.26836e-09
9.23616e-07
-7.40296e-09
7.03387e-09
9.25317e-07
-2.07009e-08
1.985e-08
9.17181e-07
-1.87301e-08
2.2797e-08
9.0427e-07
-1.58489e-08
2.23026e-08
8.90525e-07
-1.37518e-08
2.06212e-08
8.77394e-07
-1.12934e-08
1.7853e-08
8.65415e-07
-8.7158e-09
1.46963e-08
8.5472e-07
-6.8509e-09
1.21834e-08
8.45252e-07
-5.62146e-09
1.03297e-08
8.36863e-07
-4.79669e-09
8.94726e-09
8.2936e-07
-4.2165e-09
7.88821e-09
8.22554e-07
-3.78712e-09
7.05659e-09
8.16321e-07
-3.48228e-09
6.38512e-09
8.10629e-07
-3.27614e-09
5.79562e-09
8.05487e-07
-3.14585e-09
5.20912e-09
8.00857e-07
-3.05749e-09
4.51725e-09
7.96705e-07
-2.99303e-09
3.62081e-09
7.92584e-07
-2.77041e-09
2.31878e-09
7.86823e-07
-1.21136e-09
1.54325e-10
3.22896e-09
-3.66716e-09
6.3138e-07
3.58754e-09
6.14563e-07
2.26456e-08
5.86443e-07
2.43758e-08
5.61722e-07
1.88545e-08
5.3961e-07
1.55685e-08
5.20625e-07
1.35084e-08
5.04672e-07
1.19483e-08
4.90907e-07
1.07937e-08
4.78664e-07
9.93693e-09
4.67547e-07
9.21913e-09
4.5731e-07
8.58075e-09
4.47793e-07
7.99808e-09
4.38859e-07
7.45853e-09
4.30384e-07
6.94641e-09
4.22248e-07
6.4329e-09
4.14416e-07
5.83185e-09
4.06922e-07
5.03107e-09
3.99851e-07
3.75768e-09
3.94051e-07
1.25732e-09
-9.69615e-10
8.90375e-07
6.33236e-09
2.85267e-09
8.82486e-07
1.71258e-08
1.34088e-08
8.70359e-07
1.86357e-08
1.78678e-08
8.55113e-07
1.71467e-08
1.6956e-08
8.39984e-07
1.53594e-08
1.53407e-08
8.2554e-07
1.37883e-08
1.41699e-08
8.11779e-07
1.23397e-08
1.3379e-08
7.98797e-07
1.11164e-08
1.26742e-08
7.86745e-07
1.01293e-08
1.18843e-08
7.75639e-07
9.33093e-09
1.1037e-08
7.65351e-07
8.71688e-09
1.02255e-08
7.55747e-07
8.25333e-09
9.46751e-09
7.46732e-07
7.89049e-09
8.76677e-09
7.38284e-07
7.57712e-09
8.10368e-09
7.30481e-07
7.25737e-09
7.42382e-09
7.2355e-07
6.83273e-09
6.60885e-09
7.17963e-07
6.11253e-09
5.45311e-09
7.14181e-07
4.7472e-09
3.63498e-09
7.12955e-07
2.40353e-09
9.10158e-10
-3.17812e-09
-5.13305e-09
1.1589e-06
6.10259e-09
5.28158e-09
1.1657e-06
1.61829e-08
1.39994e-08
1.16844e-06
2.07064e-08
1.79793e-08
1.16661e-06
2.21043e-08
1.9181e-08
1.16221e-06
2.15046e-08
1.88792e-08
1.15654e-06
1.97681e-08
1.755e-08
1.15047e-06
1.74222e-08
1.56919e-08
1.14457e-06
1.53235e-08
1.38952e-08
1.13915e-06
1.36185e-08
1.22985e-08
1.13432e-06
1.22493e-08
1.09069e-08
1.13011e-06
1.11541e-08
9.75891e-09
1.12647e-06
1.02775e-08
8.82311e-09
1.1234e-06
9.55694e-09
8.04797e-09
1.12085e-06
8.9252e-09
7.38453e-09
1.11886e-06
8.32093e-09
6.77404e-09
1.1174e-06
7.67028e-09
6.15408e-09
1.11641e-06
6.85569e-09
5.4412e-09
1.11555e-06
5.76711e-09
4.54367e-09
1.11393e-06
4.3164e-09
3.29973e-09
2.29007e-09
1.106e-09
1.37712e-06
4.57739e-09
4.57769e-09
1.38565e-06
1.19174e-08
1.19182e-08
1.39417e-06
1.64475e-08
1.6449e-08
1.40126e-06
1.85613e-08
1.85638e-08
1.40641e-06
1.89304e-08
1.89346e-08
1.4095e-06
1.82216e-08
1.82281e-08
1.41092e-06
1.67147e-08
1.67252e-08
1.4115e-06
1.50405e-08
1.50571e-08
1.41176e-06
1.34944e-08
1.35214e-08
1.41198e-06
1.21531e-08
1.21963e-08
1.41232e-06
1.10065e-08
1.1076e-08
1.41289e-06
1.00361e-08
1.01481e-08
1.41372e-06
9.20975e-09
9.39112e-09
1.41482e-06
8.48744e-09
8.77991e-09
1.41618e-06
7.83089e-09
8.29346e-09
1.41778e-06
7.20882e-09
7.92289e-09
1.41956e-06
6.56882e-09
7.65511e-09
1.42146e-06
5.85286e-09
7.46863e-09
1.4234e-06
4.99394e-09
7.25493e-09
4.08926e-09
6.81986e-09
1.53312e-06
2.36635e-09
3.64974e-09
1.54218e-06
6.23969e-09
9.63511e-09
1.55327e-06
8.87491e-09
1.3694e-08
1.56445e-06
1.03498e-08
1.59406e-08
1.57506e-06
1.09039e-08
1.69181e-08
1.58469e-06
1.07612e-08
1.69551e-08
1.59298e-06
1.01537e-08
1.63909e-08
1.60004e-06
9.34769e-09
1.54682e-08
1.60616e-06
8.48607e-09
1.43782e-08
1.61162e-06
7.68118e-09
1.33023e-08
1.61663e-06
6.98099e-09
1.23397e-08
1.62137e-06
6.38737e-09
1.15235e-08
1.62592e-06
5.8825e-09
1.08647e-08
1.63033e-06
5.45301e-09
1.03639e-08
1.63464e-06
5.08992e-09
1.00218e-08
1.63887e-06
4.79165e-09
9.84123e-09
1.64303e-06
4.55462e-09
9.83206e-09
1.64711e-06
4.36901e-09
9.99489e-09
1.65109e-06
4.20674e-09
1.02708e-08
4.08379e-09
1.04864e-08
1.61424e-06
1.78675e-13
3.09309e-09
1.62332e-06
4.34639e-13
8.27476e-09
1.63534e-06
7.61025e-13
1.19584e-08
1.6482e-06
1.33582e-12
1.41166e-08
1.66117e-06
2.34374e-12
1.52036e-08
1.67386e-06
3.81443e-12
1.55876e-08
1.68573e-06
6.24303e-12
1.54359e-08
1.69655e-06
9.95639e-12
1.49664e-08
1.70628e-06
1.63641e-11
1.42962e-08
1.71509e-06
2.73855e-11
1.35276e-08
1.72315e-06
4.52413e-11
1.27516e-08
1.73061e-06
7.25202e-11
1.20373e-08
1.73763e-06
1.12331e-10
1.14349e-08
1.74435e-06
1.71004e-10
1.09709e-08
1.75082e-06
2.62634e-10
1.06548e-08
1.75706e-06
4.00769e-10
1.04901e-08
1.76308e-06
6.06058e-10
1.04653e-08
1.7689e-06
8.95544e-10
1.05792e-08
1.7745e-06
1.27943e-09
1.07906e-08
1.71543e-09
1.09757e-08
1.61424e-06
-2.36622e-09
3.09292e-09
1.62332e-06
-6.23939e-09
8.27428e-09
1.63534e-06
-8.87436e-09
1.19575e-08
1.6482e-06
-1.03488e-08
1.41149e-08
1.66118e-06
-1.09025e-08
1.52005e-08
1.67387e-06
-1.0759e-08
1.55827e-08
1.68575e-06
-1.01501e-08
1.54288e-08
1.69658e-06
-9.34141e-09
1.49559e-08
1.70634e-06
-8.47545e-09
1.428e-08
1.71518e-06
-7.6615e-09
1.35018e-08
1.72328e-06
-6.94569e-09
1.27099e-08
1.73082e-06
-6.32906e-09
1.19696e-08
1.73794e-06
-5.79344e-09
1.13261e-08
1.74481e-06
-5.32038e-09
1.07986e-08
1.7515e-06
-4.88556e-09
1.03859e-08
1.75806e-06
-4.47323e-09
1.00837e-08
1.76452e-06
-4.0541e-09
9.87394e-09
1.77091e-06
-3.59644e-09
9.74032e-09
1.77723e-06
-3.05032e-09
9.65093e-09
-2.37688e-09
9.55193e-09
1.53312e-06
-4.57768e-09
3.64935e-09
1.54218e-06
-1.19182e-08
9.63404e-09
1.55328e-06
-1.6449e-08
1.36921e-08
1.56445e-06
-1.85638e-08
1.59371e-08
1.57507e-06
-1.89346e-08
1.69122e-08
1.58471e-06
-1.8228e-08
1.69458e-08
1.59301e-06
-1.67252e-08
1.63767e-08
1.60009e-06
-1.50571e-08
1.54454e-08
1.60625e-06
-1.35214e-08
1.43428e-08
1.61175e-06
-1.21963e-08
1.3247e-08
1.61685e-06
-1.10759e-08
1.22512e-08
1.62171e-06
-1.01479e-08
1.13812e-08
1.62645e-06
-9.39094e-09
1.06342e-08
1.63116e-06
-8.7798e-09
9.99253e-09
1.63591e-06
-8.29327e-09
9.43564e-09
1.64075e-06
-7.92234e-09
8.93634e-09
1.64573e-06
-7.65409e-09
8.46831e-09
1.65089e-06
-7.46713e-09
7.99071e-09
1.65622e-06
-7.25263e-09
7.47567e-09
-6.81649e-09
6.95082e-09
1.37712e-06
-6.10292e-09
4.57739e-09
1.38565e-06
-1.61841e-08
1.19174e-08
1.39417e-06
-2.07089e-08
1.64475e-08
1.40126e-06
-2.21085e-08
1.85613e-08
1.40641e-06
-2.15108e-08
1.89305e-08
1.4095e-06
-1.97769e-08
1.82217e-08
1.41092e-06
-1.74366e-08
1.67148e-08
1.4115e-06
-1.53486e-08
1.50406e-08
1.41176e-06
-1.36613e-08
1.34945e-08
1.41198e-06
-1.23202e-08
1.21532e-08
1.41232e-06
-1.12712e-08
1.10066e-08
1.41289e-06
-1.04696e-08
1.00361e-08
1.41372e-06
-9.87252e-09
9.20964e-09
1.41482e-06
-9.44278e-09
8.48727e-09
1.41618e-06
-9.16548e-09
7.83039e-09
1.41778e-06
-9.05947e-09
7.20752e-09
1.41956e-06
-9.14569e-09
6.56634e-09
1.42146e-06
-9.45175e-09
5.84867e-09
1.4234e-06
-9.86168e-09
4.98683e-09
-1.06318e-08
4.07807e-09
1.1589e-06
-6.33245e-09
5.28146e-09
1.16569e-06
-1.71264e-08
1.39992e-08
1.16844e-06
-1.86372e-08
1.79791e-08
1.1666e-06
-1.71492e-08
1.91806e-08
1.1622e-06
-1.53631e-08
1.88785e-08
1.15652e-06
-1.37933e-08
1.75485e-08
1.15044e-06
-1.23479e-08
1.569e-08
1.14451e-06
-1.11308e-08
1.38941e-08
1.13903e-06
-1.01527e-08
1.22962e-08
1.13413e-06
-9.36917e-09
1.09022e-08
1.12978e-06
-8.78093e-09
9.75032e-09
1.12592e-06
-8.36414e-09
8.80514e-09
1.1225e-06
-8.08312e-09
8.0159e-09
1.11943e-06
-7.90774e-09
7.33535e-09
1.11658e-06
-7.83069e-09
6.71705e-09
1.1138e-06
-7.88377e-09
6.12757e-09
1.11085e-06
-8.10661e-09
5.52706e-09
1.10738e-06
-8.56044e-09
4.89859e-09
1.10272e-06
-9.18943e-09
4.14463e-09
-1.41214e-08
3.69945e-09
8.90374e-07
2.85264e-09
8.82485e-07
1.34088e-08
8.70356e-07
1.78679e-08
8.55105e-07
1.69561e-08
8.39969e-07
1.53415e-08
8.25512e-07
1.41721e-08
8.11729e-07
1.33832e-08
7.98711e-07
1.26811e-08
7.86598e-07
1.18965e-08
7.75391e-07
1.10576e-08
7.64932e-07
1.0259e-08
7.55041e-07
9.52438e-09
7.45547e-07
8.86947e-09
7.3629e-07
8.29649e-09
7.27101e-07
7.7907e-09
7.17721e-07
7.32836e-09
7.07749e-07
6.89628e-09
6.96455e-07
6.4911e-09
6.8241e-07
6.11357e-09
9.96972e-09
1.07432e-06
5.56892e-09
1.06477e-09
1.06824e-06
1.39004e-08
5.58649e-09
1.06138e-06
1.62618e-08
8.46396e-09
1.05339e-06
1.59083e-08
9.03967e-09
1.04511e-06
1.50002e-08
8.61714e-09
1.03723e-06
1.393e-08
8.11872e-09
1.02986e-06
1.29719e-08
7.78287e-09
1.02288e-06
1.21061e-08
7.54731e-09
1.01608e-06
1.13304e-08
7.35577e-09
1.00938e-06
1.06664e-08
7.06206e-09
1.00285e-06
1.01542e-08
6.60816e-09
9.96464e-07
9.76303e-09
6.08752e-09
9.90219e-07
9.4562e-09
5.55594e-09
9.84114e-07
9.20791e-09
5.0006e-09
9.78179e-07
8.97612e-09
4.38331e-09
9.72451e-07
8.70758e-09
3.62923e-09
9.66983e-07
8.32033e-09
2.60106e-09
9.61762e-07
7.72003e-09
1.13627e-09
9.56751e-07
6.85758e-09
-9.36811e-10
5.44332e-09
-3.7834e-09
1.32763e-06
4.93115e-09
2.71828e-09
1.33539e-06
1.30091e-08
7.12106e-09
1.34287e-06
1.7216e-08
9.55381e-09
1.34848e-06
1.88992e-08
1.05784e-08
1.35198e-06
1.95005e-08
1.08753e-08
1.35377e-06
1.91138e-08
1.05802e-08
1.35444e-06
1.80982e-08
9.89059e-09
1.35459e-06
1.68068e-08
9.04336e-09
1.35458e-06
1.5456e-08
8.1882e-09
1.35455e-06
1.42184e-08
7.3813e-09
1.35459e-06
1.32191e-08
6.65558e-09
1.35475e-06
1.24215e-08
6.00336e-09
1.35507e-06
1.17768e-08
5.4115e-09
1.35556e-06
1.12429e-08
4.85445e-09
1.35626e-06
1.07758e-08
4.27361e-09
1.35718e-06
1.03268e-08
3.61839e-09
1.35827e-06
9.84451e-09
2.82472e-09
1.35943e-06
9.27968e-09
1.83111e-09
1.36038e-06
8.61296e-09
5.88387e-10
7.7405e-09
-1.01992e-09
1.53312e-06
3.64934e-09
2.36622e-09
1.54218e-06
9.63401e-09
6.23939e-09
1.55328e-06
1.3692e-08
8.87436e-09
1.56445e-06
1.5937e-08
1.03488e-08
1.57507e-06
1.69121e-08
1.09025e-08
1.58471e-06
1.69456e-08
1.0759e-08
1.59301e-06
1.63765e-08
1.015e-08
1.60009e-06
1.54452e-08
9.34138e-09
1.60625e-06
1.43426e-08
8.47541e-09
1.61175e-06
1.32468e-08
7.66146e-09
1.61685e-06
1.22511e-08
6.94565e-09
1.62171e-06
1.13811e-08
6.32904e-09
1.62645e-06
1.0634e-08
5.79345e-09
1.63116e-06
9.99245e-09
5.32043e-09
1.63591e-06
9.43578e-09
4.88569e-09
1.64075e-06
8.93687e-09
4.47349e-09
1.64572e-06
8.46946e-09
4.05457e-09
1.65088e-06
7.99295e-09
3.59738e-09
1.65622e-06
7.48056e-09
3.05246e-09
6.96241e-09
2.38224e-09
1.68027e-06
1.89117e-09
1.89133e-09
1.68934e-06
5.09967e-09
5.10012e-09
1.7018e-06
7.46478e-09
7.46562e-09
1.71578e-06
8.94688e-09
8.94826e-09
1.73022e-06
9.69417e-09
9.69638e-09
1.74439e-06
9.86247e-09
9.86599e-09
1.75784e-06
9.65435e-09
9.65973e-09
1.77034e-06
9.20201e-09
9.21007e-09
1.78182e-06
8.61749e-09
8.62934e-09
1.79236e-06
7.99413e-09
8.01174e-09
1.80213e-06
7.39615e-09
7.42316e-09
1.81129e-06
6.85486e-09
6.89771e-09
1.81996e-06
6.37939e-09
6.44902e-09
1.82827e-06
5.96679e-09
6.07982e-09
1.83633e-06
5.6087e-09
5.78703e-09
1.84425e-06
5.29504e-09
5.5619e-09
1.85213e-06
5.02048e-09
5.39513e-09
1.86009e-06
4.75939e-09
5.27064e-09
1.86822e-06
4.48204e-09
5.14676e-09
4.21005e-09
4.9467e-09
1.7569e-06
2.81421e-14
1.61344e-09
1.76589e-06
2.68409e-14
4.38468e-09
1.77878e-06
2.0433e-14
6.53276e-09
1.79389e-06
1.88126e-14
7.9526e-09
1.81003e-06
1.18696e-14
8.75795e-09
1.82639e-06
-6.63351e-15
9.08885e-09
1.84241e-06
1.94353e-14
9.07642e-09
1.85773e-06
3.33951e-13
8.84188e-09
1.87217e-06
1.08735e-12
8.47056e-09
1.88567e-06
2.35169e-12
8.02901e-09
1.89824e-06
4.08284e-12
7.56923e-09
1.91e-06
6.00312e-12
7.12945e-09
1.92107e-06
7.55716e-12
6.73563e-09
1.93159e-06
8.51275e-12
6.40379e-09
1.9417e-06
1.02488e-11
6.14312e-09
1.95151e-06
1.74079e-11
5.95884e-09
1.96112e-06
3.63398e-11
5.84389e-09
1.9706e-06
7.51993e-11
5.77989e-09
1.98e-06
1.45232e-10
5.72413e-09
2.39944e-10
5.61836e-09
1.7569e-06
-1.89133e-09
1.61332e-09
1.76589e-06
-5.10013e-09
4.38435e-09
1.77878e-06
-7.46563e-09
6.53213e-09
1.79389e-06
-8.94828e-09
7.95151e-09
1.81003e-06
-9.69641e-09
8.75618e-09
1.8264e-06
-9.86604e-09
9.08613e-09
1.84241e-06
-9.65979e-09
9.07244e-09
1.85774e-06
-9.21016e-09
8.83603e-09
1.87219e-06
-8.62946e-09
8.46178e-09
1.88569e-06
-8.01188e-09
8.0156e-09
1.89828e-06
-7.42332e-09
7.54847e-09
1.91006e-06
-6.8979e-09
7.09709e-09
1.92116e-06
-6.44923e-09
6.6851e-09
1.93172e-06
-6.08012e-09
6.32514e-09
1.94188e-06
-5.78746e-09
6.0219e-09
1.95177e-06
-5.56252e-09
5.77637e-09
1.96149e-06
-5.39609e-09
5.58048e-09
1.97117e-06
-5.27217e-09
5.41417e-09
1.98087e-06
-5.14938e-09
5.24132e-09
-4.95152e-09
5.06606e-09
1.68027e-06
-3.64974e-09
1.89119e-09
1.68934e-06
-9.6351e-09
5.09971e-09
1.7018e-06
-1.3694e-08
7.46484e-09
1.71578e-06
-1.59406e-08
8.94697e-09
1.73022e-06
-1.69181e-08
9.69428e-09
1.74439e-06
-1.69551e-08
9.8626e-09
1.75784e-06
-1.63909e-08
9.65451e-09
1.77034e-06
-1.54682e-08
9.2022e-09
1.78182e-06
-1.43782e-08
8.61769e-09
1.79236e-06
-1.33023e-08
7.99435e-09
1.80213e-06
-1.23397e-08
7.39638e-09
1.81128e-06
-1.15235e-08
6.85508e-09
1.81995e-06
-1.08647e-08
6.3796e-09
1.82826e-06
-1.0364e-08
5.96697e-09
1.83633e-06
-1.00219e-08
5.60879e-09
1.84425e-06
-9.84131e-09
5.2949e-09
1.85213e-06
-9.83218e-09
5.02e-09
1.86009e-06
-9.99538e-09
4.75858e-09
1.8682e-06
-1.02725e-08
4.48066e-09
-1.04923e-08
4.20797e-09
1.53312e-06
-4.93142e-09
2.36636e-09
1.54218e-06
-1.30099e-08
6.23972e-09
1.55327e-06
-1.72177e-08
8.87496e-09
1.56445e-06
-1.89032e-08
1.03499e-08
1.57506e-06
-1.95075e-08
1.0904e-08
1.58469e-06
-1.91245e-08
1.07613e-08
1.59298e-06
-1.81148e-08
1.01539e-08
1.60004e-06
-1.6833e-08
9.34784e-09
1.60616e-06
-1.54963e-08
8.48622e-09
1.61162e-06
-1.42844e-08
7.68133e-09
1.61663e-06
-1.33324e-08
6.98111e-09
1.62137e-06
-1.26107e-08
6.38742e-09
1.62592e-06
-1.20858e-08
5.88245e-09
1.63033e-06
-1.17439e-08
5.45287e-09
1.63464e-06
-1.15886e-08
5.08959e-09
1.63886e-06
-1.1647e-08
4.79089e-09
1.64302e-06
-1.1972e-08
4.55323e-09
1.64709e-06
-1.2586e-08
4.36701e-09
1.65106e-06
-1.34656e-08
4.20441e-09
-1.45961e-08
4.0826e-09
1.32762e-06
-5.56893e-09
2.71858e-09
1.33539e-06
-1.39005e-08
7.12189e-09
1.34286e-06
-1.62625e-08
9.55532e-09
1.34847e-06
-1.59104e-08
1.05812e-08
1.35196e-06
-1.50043e-08
1.08805e-08
1.35373e-06
-1.39363e-08
1.05888e-08
1.35439e-06
-1.29813e-08
9.9049e-09
1.3545e-06
-1.21214e-08
9.06695e-09
1.35443e-06
-1.13559e-08
8.22774e-09
1.3543e-06
-1.07097e-08
7.45336e-09
1.35417e-06
-1.02289e-08
6.78236e-09
1.35404e-06
-9.89063e-09
6.21198e-09
1.35391e-06
-9.67387e-09
5.73467e-09
1.35373e-06
-9.57673e-09
5.35237e-09
1.35339e-06
-9.60717e-09
5.07206e-09
1.35276e-06
-9.79619e-09
4.91108e-09
1.35164e-06
-1.02243e-08
4.89368e-09
1.34987e-06
-1.1005e-08
5.09105e-09
1.34722e-06
-1.22444e-08
5.57599e-09
-1.53576e-08
6.50316e-09
1.07432e-06
1.06507e-09
1.06824e-06
5.58756e-09
1.06138e-06
8.466e-09
1.05338e-06
9.04311e-09
1.04509e-06
8.62343e-09
1.0372e-06
8.13016e-09
1.0298e-06
7.8031e-09
1.02277e-06
7.58186e-09
1.0159e-06
7.41528e-09
1.00909e-06
7.16089e-09
1.00235e-06
6.76944e-09
9.95631e-07
6.35053e-09
9.88838e-07
5.98815e-09
9.81841e-07
5.71747e-09
9.74456e-07
5.56815e-09
9.66393e-07
5.5953e-09
9.57181e-07
5.88406e-09
9.46084e-07
6.58333e-09
9.32034e-07
7.92017e-09
1.22801e-08
1.16914e-06
4.9066e-09
-1.38287e-13
1.16312e-06
1.16086e-08
-6.50051e-13
1.15731e-06
1.42758e-08
-1.46761e-12
1.15202e-06
1.43337e-08
-2.59322e-12
1.14691e-06
1.37295e-08
-4.41338e-12
1.14207e-06
1.29672e-08
-7.61991e-12
1.13777e-06
1.2097e-08
-1.32506e-11
1.13404e-06
1.13013e-08
-2.24331e-11
1.1308e-06
1.06377e-08
-3.77589e-11
1.12775e-06
1.01683e-08
-6.29054e-11
1.12461e-06
9.85911e-09
-1.03971e-10
1.12123e-06
9.62999e-09
-1.71071e-10
1.1176e-06
9.47468e-09
-2.80965e-10
1.11366e-06
9.39638e-09
-4.60505e-10
1.1094e-06
9.38556e-09
-7.44881e-10
1.1048e-06
9.42326e-09
-1.19486e-09
1.09982e-06
9.49253e-09
-1.9109e-09
1.0944e-06
9.58814e-09
-3.02949e-09
1.08842e-06
9.70133e-09
-4.65471e-09
9.8225e-09
-7.5354e-09
1.41518e-06
4.19299e-09
-2.52292e-13
1.42279e-06
1.11163e-08
-7.22218e-13
1.43152e-06
1.50992e-08
-1.24325e-12
1.43981e-06
1.663e-08
-2.25449e-12
1.44714e-06
1.72757e-08
-4.12083e-12
1.45318e-06
1.75095e-08
-7.11037e-12
1.45803e-06
1.71518e-08
-1.16122e-11
1.46196e-06
1.64338e-08
-1.88683e-11
1.46528e-06
1.55427e-08
-3.13886e-11
1.46823e-06
1.46531e-08
-5.41064e-11
1.47101e-06
1.38261e-08
-9.24611e-11
1.47369e-06
1.31004e-08
-1.53335e-10
1.47628e-06
1.25463e-08
-2.4512e-10
1.47874e-06
1.21728e-08
-3.85213e-10
1.48108e-06
1.19294e-08
-6.05347e-10
1.4833e-06
1.17692e-08
-9.44397e-10
1.48539e-06
1.1673e-08
-1.45165e-09
1.48736e-06
1.16383e-08
-2.18827e-09
1.48922e-06
1.16379e-08
-3.20606e-09
1.16069e-08
-4.47321e-09
1.61424e-06
3.09291e-09
-1.78539e-13
1.62332e-06
8.27425e-09
-4.34453e-13
1.63534e-06
1.19575e-08
-7.62791e-13
1.6482e-06
1.41148e-08
-1.34351e-12
1.66118e-06
1.52004e-08