/*--------------------------------*- C++ -*----------------------------------*\
| =========                 |                                                 |
| \\      /  F ield         | OpenFOAM: The Open Source CFD Toolbox           |
|  \\    /   O peration     | Version:  2212                                  |
|   \\  /    A nd           | Website:  www.openfoam.com                      |
|    \\/     M anipulation  |                                                 |
\*---------------------------------------------------------------------------*/
FoamFile
{
    version     2.0;
    format      ascii;
    arch        "LSB;label=32;scalar=64";
    class       volVectorField;
    location    "1.9";
    object      U;
}
// * * * * * * * * * * * * * * * * * * * * * * * * * * * * * * * * * * * * * //

dimensions      [0 1 -1 0 0 0 0];

internalField   nonuniform List<vector> 
6840
(
(0.0956456 -0.00836005 -0.00836005)
(0.0904939 0.00152199 0.00152208)
(0.0790683 0.00242965 0.00242983)
(0.0713011 0.00148757 0.00148793)
(0.0661792 0.000830137 0.000830779)
(0.0623223 0.000563117 0.000564151)
(0.0592203 0.00042511 0.000427302)
(0.056684 0.00032185 0.000325561)
(0.0545485 0.000249637 0.000255708)
(0.0526954 0.000197006 0.000206999)
(0.051056 0.000156817 0.000173763)
(0.0495924 0.000124438 0.000152587)
(0.0482728 9.45114e-05 0.000140057)
(0.0470698 6.31773e-05 0.000134951)
(0.0459708 2.55185e-05 0.000138107)
(0.044979 -1.0439e-05 0.00015461)
(0.0441171 -8.14576e-05 0.000193836)
(0.0434698 -0.000237422 0.000250795)
(0.0434589 -0.000511289 0.00032619)
(0.0421412 -0.00271169 -0.00113151)
(0.0999088 0.00129699 0.000712569)
(0.0969668 0.00365582 0.00274729)
(0.0935344 0.00264013 0.00211823)
(0.0895889 0.0018203 0.00162077)
(0.0858314 0.00152851 0.0013908)
(0.0825888 0.00135087 0.00116151)
(0.0798631 0.00117856 0.000897683)
(0.0775633 0.00103922 0.000693047)
(0.0755513 0.00094062 0.000561956)
(0.0737401 0.000861924 0.00048227)
(0.0720822 0.000786747 0.000437471)
(0.0705466 0.000709325 0.000413661)
(0.0691113 0.000633626 0.000402276)
(0.0677575 0.000559966 0.000398519)
(0.0664662 0.000478877 0.000402846)
(0.0652244 0.000360713 0.000416476)
(0.0640309 0.000188719 0.000440692)
(0.0628806 -7.84397e-05 0.000463548)
(0.0618346 -0.000628424 0.000393337)
(0.0605037 -0.00189267 0.000428743)
(0.099413 0.000345226 0.000270237)
(0.0988664 0.00201903 0.00187494)
(0.0979213 0.00257313 0.00218909)
(0.0963655 0.00237986 0.00190851)
(0.0946327 0.00211414 0.0016268)
(0.092971 0.00192683 0.00141872)
(0.0913621 0.00180172 0.00127125)
(0.0898505 0.00170596 0.00116007)
(0.0884487 0.0016058 0.00106988)
(0.0871483 0.00149601 0.000998194)
(0.0859405 0.00138648 0.000949905)
(0.0848087 0.00128411 0.000923053)
(0.0837312 0.00118894 0.000913164)
(0.0826887 0.00109721 0.00091674)
(0.0816632 0.00100436 0.000932802)
(0.080633 0.000905113 0.000964793)
(0.0795659 0.000788511 0.00102061)
(0.0783814 0.000636496 0.00111318)
(0.0769929 0.000422497 0.00123893)
(0.075601 0.00058236 0.00235137)
(0.0995405 0.000245046 0.000321903)
(0.0992576 0.00105564 0.00154095)
(0.0988488 0.0015024 0.00211454)
(0.0981246 0.00157954 0.00209175)
(0.0973364 0.00151506 0.00188628)
(0.0965841 0.00144689 0.00166606)
(0.0958641 0.00141094 0.00149814)
(0.0951955 0.0013803 0.00137176)
(0.0945651 0.0013356 0.00128537)
(0.0939172 0.00126586 0.00123086)
(0.0932838 0.00117808 0.00119565)
(0.0926611 0.00108543 0.00117628)
(0.0920372 0.000999223 0.00116959)
(0.0914005 0.000924959 0.00117482)
(0.0907368 0.000864726 0.00119315)
(0.090026 0.000820494 0.00122813)
(0.0892361 0.000796293 0.00128896)
(0.0883009 0.000800593 0.00139252)
(0.0871397 0.000841528 0.00155279)
(0.0861004 0.00134107 0.00205431)
(0.0993802 3.37911e-05 5.90053e-05)
(0.0992677 0.000274466 0.00120008)
(0.0989804 0.00043253 0.00188851)
(0.0984747 0.000483719 0.00200645)
(0.0979956 0.000479256 0.00191462)
(0.0975711 0.000466188 0.00173464)
(0.0971814 0.000453952 0.00154708)
(0.0968318 0.00044414 0.00138821)
(0.096532 0.000439157 0.00126953)
(0.0962779 0.000433293 0.00119875)
(0.0960044 0.000419493 0.00117118)
(0.0957116 0.000401264 0.00116895)
(0.0953977 0.000385805 0.00117817)
(0.0950505 0.00037959 0.00119472)
(0.0946602 0.000389474 0.0012205)
(0.0942189 0.000426009 0.0012606)
(0.0937169 0.000502465 0.0013195)
(0.093142 0.000640037 0.00139886)
(0.0924372 0.000863412 0.00150075)
(0.0917468 0.00136438 0.00166037)
(0.0993801 -3.3755e-05 5.89494e-05)
(0.0992677 -0.000274282 0.00120004)
(0.0989805 -0.000432139 0.00188848)
(0.0984749 -0.000483041 0.00200639)
(0.0979961 -0.000478094 0.00191446)
(0.097572 -0.000464157 0.00173432)
(0.0971832 -0.00045039 0.0015466)
(0.0968348 -0.000438084 0.00138739)
(0.096537 -0.000428958 0.00126799)
(0.0962863 -0.000416266 0.00119601)
(0.0960184 -0.000391314 0.00116661)
(0.095735 -0.00035497 0.00116145)
(0.0954368 -0.00030999 0.00116568)
(0.0951156 -0.000255454 0.00117387)
(0.0947669 -0.000188256 0.00118636)
(0.0943895 -0.000101275 0.00120426)
(0.0939818 2.16354e-05 0.00122686)
(0.0935423 0.000200047 0.00125391)
(0.093044 0.000450405 0.00128774)
(0.0925015 0.000804264 0.00132382)
(0.0995405 -0.000245031 0.000321902)
(0.0992576 -0.00105556 0.00154094)
(0.098849 -0.00150225 0.00211443)
(0.0981252 -0.00157928 0.00209157)
(0.0973377 -0.0015145 0.001886)
(0.0965865 -0.00144578 0.00166563)
(0.0958682 -0.00140899 0.00149762)
(0.0952026 -0.00137707 0.00137086)
(0.0945774 -0.00132993 0.00128349)
(0.093938 -0.00125672 0.00122672)
(0.0933189 -0.00116375 0.00118743)
(0.0927201 -0.00106248 0.0011615)
(0.0921355 -0.000960825 0.0011452)
(0.0915629 -0.000858846 0.00113595)
(0.0910039 -0.000751545 0.00112762)
(0.0904615 -0.00062554 0.00111368)
(0.0899393 -0.000456368 0.00108415)
(0.0894409 -0.000209765 0.00102979)
(0.0889808 0.000154435 0.000951542)
(0.0883996 0.000702002 0.000808484)
(0.099413 -0.000345244 0.000270229)
(0.0988664 -0.00201911 0.00187487)
(0.0979216 -0.0025733 0.00218888)
(0.0963661 -0.00238015 0.00190816)
(0.094634 -0.00211459 0.00162631)
(0.0929733 -0.00192758 0.00141801)
(0.0913662 -0.00180281 0.00127007)
(0.0898577 -0.0017077 0.00115807)
(0.0884611 -0.00160868 0.00106667)
(0.0871692 -0.00150077 0.000992929)
(0.0859759 -0.00139433 0.0009416)
(0.0848686 -0.00129671 0.000908737)
(0.0838321 -0.00120824 0.000888357)
(0.0828584 -0.0011251 0.000874073)
(0.0819496 -0.00104218 0.00085879)
(0.0811203 -0.000950833 0.000830931)
(0.0804091 -0.000829823 0.000770812)
(0.079873 -0.000634302 0.000632824)
(0.0796039 -0.000283623 0.000393103)
(0.0787253 0.000770894 -0.000306853)
(0.0999088 -0.00129701 0.000712554)
(0.0969668 -0.00365597 0.0027472)
(0.0935345 -0.00264036 0.00211805)
(0.0895892 -0.00182071 0.00162043)
(0.0858319 -0.00152934 0.00139032)
(0.0825897 -0.00135215 0.00116062)
(0.0798647 -0.00118094 0.000896187)
(0.0775662 -0.00104331 0.000690652)
(0.0755566 -0.000947618 0.000557976)
(0.0737494 -0.000873938 0.000475565)
(0.0720988 -0.000807446 0.000424531)
(0.0705765 -0.000743833 0.000391218)
(0.0691646 -0.000689487 0.000367893)
(0.0678496 -0.000650293 0.000353343)
(0.0666229 -0.000628812 0.000342344)
(0.0654957 -0.000617334 0.000305522)
(0.0645263 -0.000611642 0.000224094)
(0.0638403 -0.000552789 8.0469e-06)
(0.063861 -0.000535092 -0.000245596)
(0.0616061 -0.000163147 -0.000925076)
(0.0956456 0.00836005 -0.00836005)
(0.0904939 -0.00152207 0.00152199)
(0.0790683 -0.00242982 0.00242966)
(0.0713011 -0.00148791 0.00148758)
(0.0661792 -0.000830765 0.00083015)
(0.0623223 -0.000564134 0.000563133)
(0.0592203 -0.000427278 0.000425133)
(0.056684 -0.000325533 0.000321879)
(0.0545485 -0.000255675 0.000249671)
(0.0526954 -0.000206961 0.000197048)
(0.051056 -0.000173716 0.000156867)
(0.0495924 -0.000152532 0.000124502)
(0.0482728 -0.000139988 9.45845e-05)
(0.0470698 -0.000134876 6.32807e-05)
(0.0459709 -0.000138006 2.56433e-05)
(0.0449792 -0.000154427 -1.03277e-05)
(0.0441174 -0.000193526 -8.12263e-05)
(0.0434704 -0.000250342 -0.000237065)
(0.0434601 -0.000325155 -0.000510622)
(0.0421453 0.00113326 -0.00271163)
(0.0999088 0.000712553 0.00129701)
(0.0969668 0.0027472 0.00365598)
(0.0935345 0.00211805 0.00264037)
(0.0895892 0.00162042 0.00182072)
(0.0858319 0.00139032 0.00152936)
(0.0825897 0.00116061 0.00135217)
(0.0798647 0.000896174 0.00118097)
(0.0775663 0.000690637 0.00104335)
(0.0755566 0.000557959 0.000947665)
(0.0737494 0.000475543 0.000873997)
(0.0720988 0.000424499 0.00080752)
(0.0705766 0.000391175 0.000743923)
(0.0691646 0.000367839 0.000689603)
(0.0678497 0.000353289 0.000650459)
(0.0666229 0.000342244 0.000629041)
(0.0654956 0.000305337 0.000617669)
(0.0645263 0.000223857 0.000612179)
(0.0638402 7.71533e-06 0.000553667)
(0.0638608 -0.000245929 0.000536759)
(0.0616051 -0.000924837 0.000165374)
(0.100226 0.000720801 0.000720834)
(0.09996 0.00198271 0.00198284)
(0.0997822 0.00245176 0.00245209)
(0.0987879 0.00241948 0.00242005)
(0.0972752 0.00220057 0.00220147)
(0.0957742 0.0018109 0.0018125)
(0.0943918 0.00138139 0.00138398)
(0.0931621 0.00106845 0.00107279)
(0.0920739 0.000851043 0.000858477)
(0.0911097 0.000696482 0.000709339)
(0.090254 0.000579873 0.000603038)
(0.0894833 0.000488357 0.000526845)
(0.0887776 0.000415493 0.000476338)
(0.0881308 0.000352025 0.000445228)
(0.0875446 0.0002837 0.000430584)
(0.0870173 0.000184915 0.000434773)
(0.0865417 3.83903e-05 0.000458736)
(0.0860916 -0.00020571 0.000495469)
(0.0856092 -0.000678157 0.000447978)
(0.0852432 -0.00180177 -6.65354e-06)
(0.10014 0.00077501 0.000869286)
(0.100454 0.0019624 0.00196371)
(0.100911 0.00242753 0.00233483)
(0.100978 0.00252653 0.00244176)
(0.100693 0.00242611 0.00233744)
(0.100223 0.00219719 0.00211333)
(0.0997069 0.00191626 0.00182454)
(0.0991801 0.00166527 0.00157775)
(0.098683 0.00146185 0.00139358)
(0.0982315 0.00129419 0.00125631)
(0.0978314 0.00115493 0.00115726)
(0.0974777 0.00103779 0.00108986)
(0.0971648 0.000936492 0.00104696)
(0.0968858 0.000842217 0.00102332)
(0.0966327 0.000746998 0.00101909)
(0.0963928 0.00064477 0.00104143)
(0.096149 0.000522423 0.00109668)
(0.0958751 0.000363871 0.00119513)
(0.0955277 0.000146804 0.0013214)
(0.0954787 -5.20135e-05 0.00151403)
(0.100093 0.000445941 0.000763222)
(0.100504 0.00119454 0.00174909)
(0.101105 0.00158691 0.00212971)
(0.101634 0.00174063 0.00223509)
(0.101979 0.00178263 0.00228775)
(0.10217 0.00172962 0.00223684)
(0.102251 0.00160914 0.00211724)
(0.102273 0.00146208 0.00196658)
(0.102274 0.00130798 0.00180507)
(0.102263 0.0011617 0.00165732)
(0.102252 0.00103718 0.00155177)
(0.102241 0.000932794 0.00148034)
(0.102231 0.000842361 0.00143495)
(0.102221 0.00076395 0.00141245)
(0.102203 0.00069569 0.00141298)
(0.102169 0.00063483 0.0014407)
(0.102105 0.000580064 0.00150491)
(0.101996 0.000538994 0.00161212)
(0.101836 0.000517333 0.00176656)
(0.10197 0.000549064 0.00195093)
(0.100087 0.000144427 0.000707036)
(0.100477 0.000390616 0.00161784)
(0.101066 0.000541327 0.00203472)
(0.101694 0.000610523 0.00211774)
(0.102269 0.00063667 0.00215037)
(0.102742 0.000627928 0.00218004)
(0.103124 0.000596596 0.00213443)
(0.103427 0.000552197 0.00204477)
(0.103679 0.000508704 0.00193569)
(0.103896 0.000469389 0.00183026)
(0.104093 0.00043193 0.0017328)
(0.104279 0.000398154 0.001648)
(0.104456 0.000372256 0.00159113)
(0.104618 0.000356154 0.00156529)
(0.10476 0.000351851 0.00156367)
(0.10488 0.000364617 0.00157978)
(0.104979 0.000400803 0.00161557)
(0.105054 0.000469098 0.00167968)
(0.105109 0.000577865 0.00176777)
(0.105366 0.000729511 0.00187332)
(0.100087 -0.000144366 0.000707028)
(0.100477 -0.000390437 0.00161782)
(0.101066 -0.000541016 0.00203471)
(0.101694 -0.000609978 0.00211766)
(0.102269 -0.000635673 0.00215008)
(0.102743 -0.000626192 0.00217951)
(0.103125 -0.000593763 0.00213362)
(0.10343 -0.000547573 0.00204351)
(0.103683 -0.000500908 0.00193381)
(0.103903 -0.000455819 0.00182726)
(0.104102 -0.000408642 0.00172787)
(0.104295 -0.00035961 0.00163944)
(0.104483 -0.000311014 0.00157621)
(0.104661 -0.000260522 0.00154025)
(0.10483 -0.000201765 0.00152316)
(0.104991 -0.000128913 0.00151633)
(0.105144 -3.52164e-05 0.00151698)
(0.105288 8.57151e-05 0.00152528)
(0.105428 0.000239324 0.00153948)
(0.105675 0.000421902 0.00154829)
(0.100093 -0.000445935 0.000763208)
(0.100504 -0.00119452 0.00174904)
(0.101105 -0.00158686 0.00212956)
(0.101635 -0.00174051 0.0022346)
(0.10198 -0.0017824 0.00228682)
(0.102172 -0.00172925 0.0022355)
(0.102254 -0.00160844 0.00211522)
(0.102279 -0.00146084 0.00196351)
(0.102282 -0.00130599 0.00180046)
(0.102278 -0.00115771 0.00164993)
(0.102275 -0.00103011 0.00153891)
(0.102282 -0.000921616 0.0014586)
(0.102299 -0.000826085 0.00139862)
(0.10233 -0.000738879 0.00135212)
(0.102374 -0.000651592 0.00131309)
(0.102435 -0.000558536 0.00127493)
(0.102511 -0.000451173 0.0012297)
(0.102597 -0.000319427 0.00116833)
(0.102694 -0.000154714 0.0010859)
(0.102857 6.76781e-05 0.000948853)
(0.10014 -0.000775045 0.000869243)
(0.100454 -0.0019625 0.00196353)
(0.100911 -0.00242772 0.00233441)
(0.100978 -0.00252692 0.00244106)
(0.100694 -0.00242679 0.00233641)
(0.100225 -0.00219835 0.00211194)
(0.0997092 -0.00191808 0.00182238)
(0.0991843 -0.00166798 0.00157393)
(0.0986901 -0.00146644 0.00138705)
(0.0982441 -0.00130225 0.00124541)
(0.0978532 -0.00116817 0.001139)
(0.0975145 -0.00105984 0.00105953)
(0.0972249 -0.000972836 0.000996573)
(0.0969819 -0.000902598 0.000940143)
(0.0967858 -0.000845369 0.000882181)
(0.0966363 -0.000794131 0.000812164)
(0.0965312 -0.000740042 0.000708053)
(0.0964569 -0.000672827 0.000543107)
(0.0963845 -0.000564601 0.000287828)
(0.0963608 -0.00030356 -0.000135619)
(0.100226 -0.000720833 0.000720802)
(0.09996 -0.00198284 0.00198271)
(0.0997822 -0.00245209 0.00245177)
(0.0987879 -0.00242004 0.00241949)
(0.0972752 -0.00220146 0.00220058)
(0.0957742 -0.00181248 0.00181092)
(0.0943918 -0.00138396 0.00138141)
(0.0931621 -0.00107277 0.00106847)
(0.0920739 -0.000858451 0.000851075)
(0.0911097 -0.000709306 0.00069652)
(0.090254 -0.000602991 0.00057992)
(0.0894833 -0.000526777 0.000488405)
(0.0887777 -0.000476225 0.000415522)
(0.0881308 -0.000445147 0.000352125)
(0.0875447 -0.000430479 0.000283874)
(0.0870176 -0.000434483 0.000185046)
(0.0865421 -0.000458231 3.8521e-05)
(0.0860924 -0.000494572 -0.000205576)
(0.0856105 -0.000446504 -0.000678251)
(0.0852466 9.41027e-06 -0.00180321)
(0.0999088 -0.000712569 0.001297)
(0.0969668 -0.00274729 0.00365583)
(0.0935344 -0.00211822 0.00264014)
(0.0895889 -0.00162076 0.00182031)
(0.0858314 -0.0013908 0.00152853)
(0.0825888 -0.0011615 0.00135089)
(0.0798631 -0.000897674 0.00117859)
(0.0775633 -0.000693037 0.00103926)
(0.0755513 -0.000561946 0.000940666)
(0.0737401 -0.00048226 0.000861981)
(0.0720822 -0.000437458 0.000786819)
(0.0705467 -0.000413641 0.000709409)
(0.0691114 -0.000402256 0.00063372)
(0.0677575 -0.000398485 0.000560069)
(0.0664665 -0.000402784 0.000479024)
(0.0652249 -0.000416374 0.000360929)
(0.0640317 -0.000440502 0.000189)
(0.0628821 -0.000463152 -7.81201e-05)
(0.0618375 -0.000392624 -0.000628096)
(0.0605093 -0.000427155 -0.00189258)
(0.099413 0.000270229 0.000345245)
(0.0988664 0.00187487 0.00201912)
(0.0979216 0.00218888 0.0025733)
(0.0963662 0.00190815 0.00238016)
(0.094634 0.0016263 0.00211461)
(0.0929734 0.001418 0.0019276)
(0.0913662 0.00127006 0.00180283)
(0.0898577 0.00115806 0.00170773)
(0.0884612 0.00106665 0.00160871)
(0.0871693 0.000992902 0.00150081)
(0.085976 0.000941568 0.00139437)
(0.0848687 0.000908693 0.00129676)
(0.0838322 0.00088829 0.00120829)
(0.0828586 0.000873991 0.0011252)
(0.0819499 0.000858683 0.00104234)
(0.0811207 0.000830746 0.000951026)
(0.0804097 0.00077048 0.000830056)
(0.0798743 0.000632273 0.000634629)
(0.0796064 0.000392289 0.000284188)
(0.0787283 -0.000308331 -0.000769447)
(0.10014 0.000869242 0.000775046)
(0.100454 0.00196353 0.0019625)
(0.100911 0.00233441 0.00242772)
(0.100978 0.00244105 0.00252693)
(0.100694 0.0023364 0.0024268)
(0.100225 0.00211193 0.00219836)
(0.0997093 0.00182236 0.00191809)
(0.0991843 0.00157391 0.00166799)
(0.0986902 0.00138702 0.00146646)
(0.0982441 0.00124539 0.00130228)
(0.0978532 0.00113897 0.00116821)
(0.0975145 0.00105949 0.00105989)
(0.097225 0.000996504 0.000972888)
(0.096982 0.000940052 0.000902668)
(0.0967858 0.000882088 0.000845486)
(0.0966364 0.00081205 0.000794316)
(0.0965312 0.000707904 0.00074034)
(0.0964569 0.000542834 0.00067325)
(0.0963846 0.000287797 0.000565499)
(0.0963601 -0.000132353 0.000307175)
(0.10006 0.000641393 0.000641452)
(0.100501 0.00164505 0.00164523)
(0.101149 0.00221242 0.00221277)
(0.101738 0.00244 0.0024406)
(0.102205 0.00244189 0.00244286)
(0.102501 0.00231335 0.00231486)
(0.102645 0.00209221 0.00209469)
(0.102713 0.00186846 0.00187243)
(0.102738 0.00167002 0.00167652)
(0.102751 0.00150283 0.00151351)
(0.102769 0.0013629 0.00138036)
(0.102801 0.00124529 0.00127366)
(0.102851 0.00114486 0.00119076)
(0.102921 0.00105533 0.00112938)
(0.103011 0.000969697 0.00108837)
(0.103119 0.000880172 0.00106815)
(0.103243 0.000776504 0.00107106)
(0.103377 0.000650767 0.00109698)
(0.103526 0.000496995 0.00113074)
(0.103794 0.00033457 0.00114612)
(0.100046 0.000395734 0.000540297)
(0.10048 0.00104492 0.00138426)
(0.101154 0.00147547 0.00192326)
(0.101913 0.00170544 0.00219305)
(0.102631 0.00178038 0.00229483)
(0.103301 0.00174526 0.00227941)
(0.103893 0.00163483 0.00218734)
(0.104388 0.00149252 0.00205524)
(0.104815 0.00134654 0.0019091)
(0.10519 0.0012122 0.001772)
(0.10553 0.00109421 0.00165337)
(0.105847 0.000992708 0.00155573)
(0.106149 0.000904428 0.00148042)
(0.106441 0.000826152 0.00142767)
(0.106727 0.000755476 0.00139801)
(0.107004 0.000691305 0.00139334)
(0.107277 0.00062984 0.00141794)
(0.107546 0.000566386 0.00147193)
(0.107823 0.000498204 0.00154539)
(0.108234 0.000437641 0.00162147)
(0.100039 0.000131367 0.000478802)
(0.100448 0.00035059 0.00123487)
(0.101114 0.000505246 0.00174664)
(0.101909 0.00059747 0.00202705)
(0.102728 0.000639049 0.00215247)
(0.103529 0.000639 0.00218695)
(0.104298 0.000605759 0.00215396)
(0.105007 0.000561242 0.00208033)
(0.105642 0.000513359 0.00198215)
(0.106215 0.000467284 0.0018757)
(0.106736 0.00042614 0.00177298)
(0.107216 0.000391019 0.00168196)
(0.107664 0.00036199 0.00160882)
(0.108088 0.000338984 0.00155695)
(0.108497 0.000322327 0.00152625)
(0.108893 0.000313517 0.00151541)
(0.109271 0.000314857 0.00152354)
(0.109636 0.000326991 0.00155238)
(0.110005 0.000347356 0.00159475)
(0.110483 0.000372546 0.00163768)
(0.100039 -0.000131329 0.000478782)
(0.100448 -0.000350488 0.00123481)
(0.101114 -0.000505066 0.00174653)
(0.101909 -0.00059717 0.00202686)
(0.102729 -0.000638541 0.00215209)
(0.10353 -0.000638176 0.00218633)
(0.104299 -0.00060437 0.00215302)
(0.105009 -0.00055899 0.00207891)
(0.105645 -0.000509629 0.00197996)
(0.106219 -0.000461009 0.0018722)
(0.106743 -0.000415713 0.00176721)
(0.107226 -0.000374243 0.00167233)
(0.107679 -0.000335921 0.00159283)
(0.108111 -0.000299187 0.00153091)
(0.108531 -0.000261233 0.00148494)
(0.108943 -0.000220434 0.0014529)
(0.109346 -0.000173483 0.00143198)
(0.109743 -0.000116988 0.00142096)
(0.110147 -4.81212e-05 0.00141495)
(0.110622 2.6892e-05 0.00140842)
(0.100046 -0.000395751 0.000540246)
(0.10048 -0.00104497 0.0013841)
(0.101154 -0.00147555 0.00192297)
(0.101913 -0.00170555 0.00219252)
(0.102632 -0.00178059 0.00229394)
(0.103302 -0.00174564 0.00227798)
(0.103894 -0.00163547 0.0021851)
(0.104391 -0.00149352 0.00205158)
(0.104819 -0.00134814 0.00190341)
(0.105197 -0.00121446 0.00176308)
(0.105541 -0.00109744 0.00163899)
(0.105864 -0.000997689 0.00153234)
(0.106176 -0.000912885 0.00144208)
(0.106484 -0.000840481 0.00136517)
(0.106792 -0.000777725 0.00129825)
(0.107105 -0.000723432 0.00123639)
(0.107425 -0.00067456 0.00117491)
(0.107754 -0.000627313 0.00110966)
(0.108107 -0.000572998 0.00103838)
(0.108524 -0.000499211 0.000967473)
(0.10006 -0.000641451 0.000641394)
(0.100501 -0.00164523 0.00164505)
(0.101149 -0.00221277 0.00221243)
(0.101738 -0.00244059 0.00244001)
(0.102205 -0.00244285 0.00244191)
(0.102501 -0.00231485 0.00231337)
(0.102645 -0.00209468 0.00209223)
(0.102713 -0.00187242 0.00186848)
(0.102738 -0.0016765 0.00167004)
(0.102751 -0.00151349 0.00150285)
(0.102769 -0.00138034 0.00136292)
(0.102801 -0.00127362 0.0012453)
(0.102851 -0.00119071 0.00114486)
(0.102921 -0.00112934 0.00105534)
(0.103011 -0.0010883 0.000969683)
(0.103119 -0.001068 0.000880081)
(0.103243 -0.00107079 0.000776295)
(0.103377 -0.00109659 0.000650325)
(0.103526 -0.00113023 0.00049611)
(0.103793 -0.00114565 0.000332909)
(0.10014 -0.000869285 0.000775011)
(0.100454 -0.00196371 0.0019624)
(0.100911 -0.00233482 0.00242753)
(0.100978 -0.00244175 0.00252654)
(0.100693 -0.00233743 0.00242612)
(0.100223 -0.00211332 0.0021972)
(0.0997069 -0.00182453 0.00191628)
(0.0991801 -0.00157773 0.00166529)
(0.098683 -0.00139356 0.00146187)
(0.0982315 -0.00125628 0.00129422)
(0.0978314 -0.00115723 0.00115495)
(0.0974778 -0.00108982 0.00103781)
(0.0971648 -0.00104688 0.000936486)
(0.0968859 -0.00102325 0.000842224)
(0.0966328 -0.00101898 0.000746996)
(0.096393 -0.00104117 0.000644674)
(0.0961494 -0.00109622 0.000522197)
(0.0958757 -0.00119433 0.000363403)
(0.0955284 -0.00132019 0.000145993)
(0.0954794 -0.00151296 -5.27612e-05)
(0.099413 -0.000270236 0.000345227)
(0.0988664 -0.00187494 0.00201903)
(0.0979213 -0.00218908 0.00257314)
(0.0963655 -0.00190851 0.00237987)
(0.0946327 -0.0016268 0.00211415)
(0.0929711 -0.00141871 0.00192685)
(0.0913621 -0.00127124 0.00180174)
(0.0898505 -0.00116005 0.00170598)
(0.0884487 -0.00106987 0.00160582)
(0.0871483 -0.000998179 0.00149604)
(0.0859406 -0.000949888 0.00138651)
(0.0848087 -0.000923033 0.00128414)
(0.0837313 -0.00091314 0.00118898)
(0.0826888 -0.000916673 0.0010972)
(0.0816635 -0.000932673 0.0010043)
(0.0806335 -0.000964599 0.000905027)
(0.0795668 -0.00102028 0.000788366)
(0.0783831 -0.00111252 0.000636138)
(0.0769959 -0.0012377 0.000421781)
(0.0756062 -0.00234999 0.000581187)
(0.0995405 0.000321901 0.000245031)
(0.0992576 0.00154094 0.00105557)
(0.098849 0.00211443 0.00150226)
(0.0981252 0.00209156 0.00157929)
(0.0973377 0.001886 0.00151451)
(0.0965866 0.00166562 0.0014458)
(0.0958683 0.00149761 0.00140901)
(0.0952026 0.00137084 0.00137709)
(0.0945775 0.00128348 0.00132995)
(0.0939381 0.0012267 0.00125674)
(0.093319 0.00118741 0.00116378)
(0.0927202 0.00116147 0.00106251)
(0.0921356 0.00114515 0.000960868)
(0.0915631 0.00113587 0.000858903)
(0.0910041 0.00112749 0.000751605)
(0.090462 0.00111346 0.00062557)
(0.0899399 0.00108376 0.000456329)
(0.0894419 0.00102911 0.000209574)
(0.0889826 0.000950405 -0.000155002)
(0.0884017 0.000806759 -0.000703367)
(0.100093 0.000763207 0.000445936)
(0.100504 0.00174904 0.00119452)
(0.101105 0.00212956 0.00158687)
(0.101635 0.00223459 0.00174051)
(0.10198 0.00228681 0.0017824)
(0.102172 0.00223549 0.00172926)
(0.102254 0.0021152 0.00160845)
(0.102279 0.00196349 0.00146085)
(0.102282 0.00180044 0.001306)
(0.102278 0.0016499 0.00115772)
(0.102275 0.00153888 0.00103013)
(0.102282 0.00145856 0.00092164)
(0.102299 0.00139855 0.000826107)
(0.10233 0.00135205 0.000738923)
(0.102374 0.001313 0.000651661)
(0.102435 0.00127477 0.00055861)
(0.102511 0.00122945 0.000451261)
(0.102597 0.00116794 0.000319545)
(0.102694 0.00108557 0.000155053)
(0.102856 0.000950544 -6.56554e-05)
(0.100046 0.000540245 0.000395752)
(0.10048 0.0013841 0.00104497)
(0.101154 0.00192296 0.00147556)
(0.101913 0.00219251 0.00170555)
(0.102632 0.00229393 0.0017806)
(0.103302 0.00227797 0.00174564)
(0.103894 0.00218508 0.00163547)
(0.104391 0.00205157 0.00149352)
(0.104819 0.00190339 0.00134814)
(0.105197 0.00176306 0.00121446)
(0.105541 0.00163897 0.00109744)
(0.105864 0.00153231 0.000997699)
(0.106176 0.00144206 0.000912896)
(0.106484 0.00136515 0.000840493)
(0.106792 0.00129824 0.000777741)
(0.107105 0.00123641 0.000723457)
(0.107424 0.00117499 0.000674599)
(0.107754 0.00110988 0.000627371)
(0.108107 0.00103899 0.000573139)
(0.108523 0.000969218 0.00049969)
(0.100036 0.000323149 0.000323188)
(0.100429 0.000868691 0.000868802)
(0.10108 0.00126242 0.00126262)
(0.101891 0.0015044 0.00150474)
(0.102756 0.0016216 0.00162215)
(0.103616 0.00164274 0.00164359)
(0.104446 0.0016046 0.00160588)
(0.105223 0.00152618 0.00152818)
(0.105938 0.00142648 0.00142959)
(0.106593 0.0013213 0.00132614)
(0.107197 0.00122094 0.00122859)
(0.107759 0.00113016 0.0011423)
(0.108288 0.00105016 0.0010694)
(0.108793 0.000980272 0.00101052)
(0.10928 0.000919025 0.000965794)
(0.109755 0.00086473 0.000935021)
(0.110224 0.00081606 0.000917495)
(0.110695 0.000767885 0.000912453)
(0.111181 0.000716852 0.000914192)
(0.111724 0.000667921 0.000906159)
(0.100031 0.000107092 0.000281411)
(0.100395 0.000293086 0.000768715)
(0.101024 0.000434149 0.00113322)
(0.101844 0.00052634 0.00136945)
(0.102751 0.00057652 0.00150181)
(0.103689 0.000591991 0.00155477)
(0.104618 0.000582697 0.00154997)
(0.105516 0.000558263 0.00150933)
(0.106367 0.000524927 0.00144614)
(0.107164 0.000488222 0.00137073)
(0.107906 0.000452404 0.00129189)
(0.108598 0.000419795 0.00121643)
(0.109247 0.000391262 0.00114914)
(0.109861 0.000366752 0.00109295)
(0.110448 0.000345782 0.0010498)
(0.111015 0.000327746 0.00102126)
(0.111566 0.000312804 0.00100642)
(0.112109 0.000300562 0.00100311)
(0.112657 0.000289891 0.00100565)
(0.113259 0.000280868 0.000998941)
(0.100031 -0.000107091 0.000281392)
(0.100395 -0.000293088 0.000768661)
(0.101024 -0.000434156 0.00113312)
(0.101844 -0.000526353 0.00136926)
(0.102751 -0.000576543 0.0015015)
(0.103689 -0.000592035 0.00155429)
(0.104618 -0.000582764 0.00154928)
(0.105516 -0.000558292 0.00150833)
(0.106368 -0.000524833 0.00144461)
(0.107165 -0.000487911 0.00136833)
(0.107908 -0.000451803 0.00128812)
(0.108601 -0.000418922 0.0012105)
(0.109252 -0.000390305 0.00113989)
(0.109867 -0.000366035 0.00107865)
(0.110456 -0.000345424 0.00102784)
(0.111027 -0.00032684 0.000988102)
(0.111584 -0.000309017 0.000958352)
(0.112135 -0.000290027 0.000935972)
(0.112694 -0.000267469 0.000916668)
(0.113294 -0.000241017 0.000894902)
(0.100036 -0.000323187 0.00032315)
(0.100429 -0.000868802 0.000868696)
(0.10108 -0.00126262 0.00126243)
(0.101891 -0.00150474 0.00150441)
(0.102756 -0.00162215 0.00162161)
(0.103616 -0.00164359 0.00164275)
(0.104446 -0.00160589 0.00160462)
(0.105223 -0.00152819 0.0015262)
(0.105938 -0.00142959 0.00142651)
(0.106593 -0.00132616 0.00132132)
(0.107197 -0.0012286 0.00122096)
(0.107759 -0.00114231 0.00113018)
(0.108288 -0.00106941 0.00105018)
(0.108793 -0.00101055 0.000980275)
(0.10928 -0.000965846 0.000918999)
(0.109755 -0.000935107 0.000864647)
(0.110224 -0.000917637 0.000815897)
(0.110695 -0.000912684 0.000767625)
(0.11118 -0.000914617 0.000716397)
(0.111723 -0.000906986 0.000667116)
(0.100046 -0.000540296 0.000395735)
(0.10048 -0.00138426 0.00104492)
(0.101154 -0.00192326 0.00147547)
(0.101913 -0.00219304 0.00170545)
(0.102631 -0.00229482 0.00178039)
(0.103301 -0.00227941 0.00174528)
(0.103893 -0.00218734 0.00163485)
(0.104388 -0.00205524 0.00149254)
(0.104815 -0.0019091 0.00134655)
(0.10519 -0.00177199 0.00121222)
(0.10553 -0.00165336 0.00109423)
(0.105847 -0.00155572 0.000992712)
(0.106149 -0.0014804 0.000904417)
(0.106441 -0.00142764 0.000826126)
(0.106726 -0.00139796 0.000755407)
(0.107004 -0.00139324 0.000691149)
(0.107276 -0.00141778 0.000629554)
(0.107546 -0.00147176 0.000565934)
(0.107821 -0.00154529 0.000497559)
(0.108232 -0.00162178 0.000436962)
(0.100093 -0.000763221 0.000445943)
(0.100504 -0.00174908 0.00119454)
(0.101105 -0.0021297 0.00158692)
(0.101634 -0.00223508 0.00174064)
(0.101979 -0.00228775 0.00178265)
(0.10217 -0.00223684 0.00172963)
(0.102251 -0.00211723 0.00160915)
(0.102273 -0.00196658 0.0014621)
(0.102274 -0.00180506 0.001308)
(0.102263 -0.00165731 0.00116171)
(0.102252 -0.00155175 0.0010372)
(0.102241 -0.00148031 0.000932799)
(0.102231 -0.00143489 0.000842341)
(0.102221 -0.00141235 0.000763903)
(0.102203 -0.00141281 0.000695608)
(0.102169 -0.00144039 0.00063467)
(0.102105 -0.00150437 0.000579767)
(0.101996 -0.00161131 0.000538406)
(0.101835 -0.00176529 0.000516392)
(0.101968 -0.00194875 0.000547759)
(0.0995405 -0.000321903 0.000245046)
(0.0992576 -0.00154095 0.00105564)
(0.0988488 -0.00211454 0.00150241)
(0.0981246 -0.00209174 0.00157955)
(0.0973364 -0.00188628 0.00151507)
(0.0965842 -0.00166605 0.0014469)
(0.0958641 -0.00149813 0.00141096)
(0.0951955 -0.00137175 0.00138032)
(0.0945651 -0.00128536 0.00133562)
(0.0939172 -0.00123085 0.00126588)
(0.0932838 -0.00119564 0.0011781)
(0.0926611 -0.00117626 0.00108544)
(0.0920373 -0.00116956 0.000999216)
(0.0914006 -0.00117474 0.000924899)
(0.090737 -0.00119299 0.000864595)
(0.0900264 -0.00122786 0.000820276)
(0.0892367 -0.00128849 0.000795946)
(0.0883021 -0.00139167 0.000800016)
(0.0871416 -0.00155145 0.000840601)
(0.0861037 -0.00205148 0.00133894)
(0.0993801 5.89494e-05 3.37552e-05)
(0.0992677 0.00120003 0.000274283)
(0.0989805 0.00188848 0.000432143)
(0.0984749 0.00200638 0.000483046)
(0.0979961 0.00191445 0.0004781)
(0.0975721 0.00173431 0.000464165)
(0.0971832 0.00154659 0.000450399)
(0.0968348 0.00138738 0.000438094)
(0.0965371 0.00126798 0.000428968)
(0.0962863 0.001196 0.000416277)
(0.0960185 0.0011666 0.000391326)
(0.0957351 0.00116143 0.000354983)
(0.0954369 0.00116566 0.000310007)
(0.0951158 0.00117382 0.000255465)
(0.0947671 0.00118628 0.000188258)
(0.0943898 0.00120413 0.000101253)
(0.0939822 0.00122664 -2.17083e-05)
(0.0935429 0.00125355 -0.000200227)
(0.0930447 0.00128716 -0.000450745)
(0.0925023 0.00132304 -0.000804959)
(0.100087 0.000707027 0.000144367)
(0.100477 0.00161782 0.000390438)
(0.101066 0.00203471 0.000541018)
(0.101694 0.00211765 0.000609981)
(0.102269 0.00215007 0.000635676)
(0.102743 0.0021795 0.000626195)
(0.103125 0.0021336 0.000593766)
(0.10343 0.00204349 0.000547575)
(0.103683 0.00193379 0.000500909)
(0.103903 0.00182724 0.00045582)
(0.104102 0.00172784 0.000408643)
(0.104295 0.00163941 0.000359613)
(0.104483 0.00157617 0.00031102)
(0.104662 0.0015402 0.000260536)
(0.10483 0.00152308 0.000201793)
(0.104991 0.00151622 0.000128953)
(0.105144 0.00151682 3.52824e-05)
(0.105288 0.00152505 -8.55873e-05)
(0.105428 0.00153924 -0.000239001)
(0.105675 0.00154842 -0.000421075)
(0.100039 0.000478781 0.000131329)