/*--------------------------------*- C++ -*----------------------------------*\
| =========                 |                                                 |
| \\      /  F ield         | OpenFOAM: The Open Source CFD Toolbox           |
|  \\    /   O peration     | Version:  2212                                  |
|   \\  /    A nd           | Website:  www.openfoam.com                      |
|    \\/     M anipulation  |                                                 |
\*---------------------------------------------------------------------------*/
FoamFile
{
    version     2.0;
    format      ascii;
    arch        "LSB;label=32;scalar=64";
    class       surfaceVectorField;
    location    "1.9";
    object      Uf;
}
// * * * * * * * * * * * * * * * * * * * * * * * * * * * * * * * * * * * * * //

dimensions      [0 1 -1 0 0 0 0];

internalField   nonuniform List<vector> 
19019
(
(0.0993441 -0.00341903 -0.00341899)
(0.0973536 0.00106247 -0.00148427)
(0.0973536 -0.00148428 0.00106248)
(0.0834791 0.00197582 0.00197595)
(0.0930872 0.00326893 0.00253352)
(0.0930872 0.00253344 0.00326906)
(0.0745171 0.00195861 0.00195888)
(0.084864 0.00163573 0.00179246)
(0.084864 0.0017923 0.00163596)
(0.0685476 0.00115885 0.00115935)
(0.0786279 0.00107332 0.0012216)
(0.078628 0.00122128 0.00107374)
(0.0642357 0.000696627 0.000697465)
(0.0740527 0.000784958 0.000865498)
(0.0740529 0.000864966 0.000785763)
(0.0607561 0.000494113 0.000495726)
(0.0704418 0.000649926 0.000669955)
(0.0704422 0.000669059 0.000651208)
(0.0579363 0.00037348 0.000376432)
(0.0674906 0.0005455 0.000509852)
(0.0674912 0.000508079 0.000548028)
(0.0556124 0.000285744 0.000290635)
(0.0650491 0.000466732 0.000389615)
(0.0650503 0.000386702 0.000471084)
(0.053622 0.000223322 0.000231354)
(0.062963 0.000411605 0.000311369)
(0.0629652 0.000306639 0.000418942)
(0.0518756 0.000176911 0.000190381)
(0.0611267 0.000366539 0.000260758)
(0.0611304 0.000252977 0.000378913)
(0.0503231 0.000140627 0.000163175)
(0.0594799 0.00032406 0.000229734)
(0.0594866 0.00021585 0.00034506)
(0.0489312 0.000109475 0.000146322)
(0.0579875 0.000281913 0.000212333)
(0.0579995 0.000188935 0.000316899)
(0.0476709 7.88443e-05 0.000137504)
(0.0566215 0.000240051 0.000203998)
(0.0566429 0.000167406 0.000297491)
(0.0465203 4.43479e-05 0.000136529)
(0.0553581 0.000195147 0.000201409)
(0.055395 0.000148819 0.000289068)
(0.045474 7.53974e-06 0.000146358)
(0.0541821 0.000138776 0.000204269)
(0.0542449 0.000128218 0.000293337)
(0.0445433 -4.59483e-05 0.000174223)
(0.0530901 6.32442e-05 0.000215747)
(0.0531988 9.86699e-05 0.000310308)
(0.0437577 -0.00015944 0.000222316)
(0.0520954 -4.99556e-05 0.000247951)
(0.0522938 3.65422e-05 0.000354036)
(0.0433095 -0.000374355 0.000288493)
(0.0512465 -0.000262969 0.000283953)
(0.051631 -0.000106742 0.000427775)
(0.0436311 -0.00161149 -0.00040266)
(0.0508209 -0.000740423 0.000246761)
(0.0516327 -0.000304985 0.000581892)
(0.0494979 -0.00300295 -0.000867873)
(0.0499392 -0.00181247 -0.000297759)
(0.0984572 0.00247641 0.00172993)
(0.0996871 0.00043922 0.000345491)
(0.100049 0.00105637 0.000750988)
(0.0958347 0.00314798 0.00243276)
(0.0978161 0.00273273 0.00228234)
(0.0982936 0.00280916 0.00216157)
(0.0914498 0.00223021 0.0018695)
(0.0954958 0.00300163 0.00230325)
(0.0963038 0.00244252 0.001998)
(0.0875947 0.00167441 0.00150579)
(0.0926187 0.00229922 0.00183902)
(0.0936665 0.00198051 0.00172735)
(0.0841467 0.00143969 0.00127616)
(0.0897665 0.00189165 0.001536)
(0.0909041 0.00171932 0.00149842)
(0.0811861 0.00126471 0.0010296)
(0.0872307 0.00165606 0.00129518)
(0.0884334 0.00145382 0.00121275)
(0.0786984 0.00110889 0.000795365)
(0.0850043 0.00149125 0.00107805)
(0.0863032 0.00118215 0.000910356)
(0.0765518 0.000989922 0.000627501)
(0.0830569 0.0013703 0.000914768)
(0.0844777 0.000980809 0.000693618)
(0.0746427 0.000901272 0.000522113)
(0.0813177 0.00127643 0.000804096)
(0.0828752 0.000841423 0.00055356)
(0.0729091 0.000824336 0.000459871)
(0.0797349 0.00119029 0.000730515)
(0.0814395 0.000737932 0.000463849)
(0.0713128 0.000748036 0.000425566)
(0.0782782 0.00110536 0.000686349)
(0.0801371 0.000650794 0.000406842)
(0.0698286 0.000671476 0.000407969)
(0.0769232 0.00102122 0.000662918)
(0.0789406 0.00057181 0.000370825)
(0.0684354 0.000596796 0.000400398)
(0.0756479 0.00093872 0.000652948)
(0.0778287 0.000501325 0.000351401)
(0.0671138 0.000519421 0.000400682)
(0.0744332 0.000856939 0.000652453)
(0.0767883 0.000436452 0.000345555)
(0.0658448 0.000419795 0.000409661)
(0.0732608 0.000770931 0.000662161)
(0.0758096 0.000366443 0.000354218)
(0.0646232 0.000274716 0.000428584)
(0.0721136 0.000665472 0.000685663)
(0.0748845 0.000265134 0.000383091)
(0.0634542 5.51398e-05 0.00045212)
(0.0709766 0.000521715 0.00072537)
(0.0740092 0.000116657 0.000435934)
(0.0623506 -0.000353432 0.000428443)
(0.069811 0.000298046 0.000776264)
(0.0731693 -0.000124261 0.000502597)
(0.0614441 -0.00126055 0.00041104)
(0.0686119 -0.000107836 0.00079127)
(0.0723731 -0.000630057 0.000465537)
(0.0672537 -0.000675435 0.00133169)
(0.0714699 -0.001841 0.000262493)
(0.0993753 0.00118213 0.00107259)
(0.099473 0.000349761 0.000307064)
(0.0997475 0.000610974 0.000779896)
(0.0984947 0.00229608 0.00203201)
(0.0990504 0.00157684 0.0017205)
(0.099597 0.0020183 0.00200296)
(0.0971409 0.00247649 0.0020488)
(0.0983576 0.0021312 0.00216898)
(0.0992971 0.00246153 0.00210262)
(0.0954388 0.002247 0.00176766)
(0.0971929 0.00203596 0.00200259)
(0.0984878 0.00237445 0.00190295)
(0.0937494 0.00202048 0.00152276)
(0.0959044 0.00185599 0.00175458)
(0.0974214 0.00218081 0.00168916)
(0.0921359 0.00186428 0.00134499)
(0.0946705 0.0017334 0.00154289)
(0.0963081 0.00198456 0.00150884)
(0.0905976 0.00175384 0.00121566)
(0.0934796 0.00165397 0.00138671)
(0.0952019 0.00180145 0.0013435)
(0.0891446 0.00165588 0.00111497)
(0.0923645 0.00157884 0.00126595)
(0.0941434 0.00164448 0.0012051)
(0.0877927 0.0015509 0.00103404)
(0.0913256 0.00148477 0.00117271)
(0.0931579 0.00150443 0.00109791)
(0.0865418 0.00144125 0.00097405)
(0.0903321 0.00137645 0.00110489)
(0.0922481 0.00137419 0.00101729)
(0.0853745 0.00133529 0.000936479)
(0.0893945 0.00126843 0.00106064)
(0.091412 0.00125593 0.000962709)
(0.0842706 0.00123653 0.000918108)
(0.0885021 0.00116517 0.00103598)
(0.0906382 0.00115057 0.000930309)
(0.0832109 0.00114308 0.000914952)
(0.087638 0.00107007 0.00102659)
(0.0899125 0.00105556 0.000915443)
(0.0821775 0.00105078 0.000924771)
(0.0867863 0.000984018 0.00103033)
(0.0892214 0.000965184 0.000915213)
(0.0811518 0.000954735 0.000948798)
(0.085931 0.00090483 0.00104705)
(0.0885513 0.000873649 0.000930215)
(0.0801046 0.000846812 0.000992704)
(0.085051 0.000828253 0.00107967)
(0.0878847 0.000775661 0.000966815)
(0.0789911 0.000712503 0.0010669)
(0.0841143 0.000750327 0.00113669)
(0.0871965 0.000659892 0.00103434)
(0.0777296 0.000529496 0.00117606)
(0.0830471 0.000667008 0.00123325)
(0.086431 0.000509903 0.00114695)
(0.0761603 0.000502429 0.00179515)
(0.0817655 0.000576764 0.00137617)
(0.0855215 0.000303164 0.00130278)
(0.0805394 0.000948208 0.00221383)
(0.0847475 0.00031359 0.0020457)
(0.0996493 0.000650341 0.000931426)
(0.0994625 0.000129405 0.00019253)
(0.0997993 0.00037514 0.000741364)
(0.0990854 0.00127902 0.00182774)
(0.0992625 0.000636987 0.00137065)
(0.0998409 0.00115044 0.00181423)
(0.098449 0.00154097 0.00210314)
(0.0989128 0.000973626 0.00200362)
(0.0999046 0.00153662 0.00209021)
(0.0977072 0.0015473 0.00198902)
(0.0982949 0.00105039 0.00205071)
(0.0997671 0.00163195 0.00202317)
(0.0969386 0.00148097 0.00177617)
(0.0976571 0.00100813 0.00189971)
(0.0995089 0.00161008 0.00189591)
(0.0962064 0.00142892 0.0015821)
(0.0970642 0.000961221 0.00169841)
(0.0991985 0.0015485 0.00175196)
(0.0955199 0.00139562 0.00143495)
(0.0965048 0.000935253 0.00152076)
(0.098853 0.0014763 0.00162616)
(0.0948685 0.00135795 0.00132856)
(0.0959914 0.000920171 0.00137921)
(0.098508 0.00139577 0.00151553)
(0.0942309 0.00130073 0.00125812)
(0.0955218 0.000908116 0.00127866)
(0.0981727 0.00130434 0.00142037)
(0.0935989 0.00122197 0.00121326)
(0.0950655 0.000878991 0.00121734)
(0.0978232 0.00120251 0.00134423)
(0.0929738 0.00113176 0.00118597)
(0.0946071 0.000826877 0.00118582)
(0.0974806 0.00110024 0.00129207)
(0.0923507 0.00104233 0.00117293)
(0.0941449 0.0007685 0.00117456)
(0.0971446 0.00100399 0.00125949)
(0.0917207 0.000962091 0.0011722)
(0.0936718 0.000716755 0.00117561)
(0.096808 0.00091719 0.00124288)
(0.0910715 0.000894843 0.00118399)
(0.0931759 0.000676965 0.00118651)
(0.0964642 0.000842084 0.00124162)
(0.0903864 0.00084261 0.00121064)
(0.0926452 0.000653177 0.00120873)
(0.0961029 0.000778972 0.0012568)
(0.0896383 0.000808393 0.00125855)
(0.0920654 0.00065273 0.00124672)
(0.095709 0.000727731 0.00129295)
(0.0887835 0.000798443 0.00134074)
(0.0914156 0.000686935 0.00130771)
(0.0952588 0.000690256 0.00136144)
(0.0877536 0.00082106 0.00147265)
(0.0906557 0.000775875 0.00140181)
(0.0947101 0.000675111 0.00147726)
(0.0864495 0.0010913 0.00180355)
(0.0897165 0.000950799 0.00153894)
(0.0940175 0.000690082 0.00165446)
(0.0888468 0.00153274 0.00188364)
(0.0935274 0.000979028 0.00205676)
(0.0996725 0.000154128 0.000629542)
(0.0993802 1.95414e-08 5.89774e-05)
(0.0997132 0.000103952 0.000687959)
(0.0991591 0.000353498 0.00154429)
(0.0992677 9.19885e-08 0.00120006)
(0.0998377 0.000341756 0.00162233)
(0.0986637 0.000458125 0.00194748)
(0.0989805 2.08281e-07 0.0018885)
(0.099963 0.000485694 0.00199142)
(0.0982123 0.000481488 0.00196054)
(0.0984748 3.67907e-07 0.00200642)
(0.0999919 0.000540006 0.00199663)
(0.0977765 0.000472722 0.00182463)
(0.0979959 6.24687e-07 0.00191454)
(0.100009 0.000547045 0.00191099)
(0.0973632 0.00046007 0.00164086)
(0.0975716 1.07599e-06 0.00173448)
(0.100008 0.000534586 0.00180413)
(0.0969955 0.000449046 0.00146765)
(0.0971823 1.86768e-06 0.00154684)
(0.0999816 0.000513299 0.00168253)
(0.0966758 0.000441649 0.00132887)
(0.0968333 3.15818e-06 0.0013878)
(0.0999398 0.000488059 0.00157192)
(0.0963966 0.000436225 0.00123414)
(0.0965345 5.31158e-06 0.00126876)
(0.0999 0.000466178 0.00148018)
(0.0961327 0.000426393 0.00118496)
(0.0962821 8.84465e-06 0.00119738)
(0.0998681 0.000445847 0.00141634)
(0.0958571 0.000410379 0.00117007)
(0.0960114 1.46143e-05 0.0011689)
(0.0998159 0.000422028 0.00137612)
(0.0955572 0.000393535 0.00117356)
(0.0957233 2.40421e-05 0.0011652)
(0.0997491 0.000397245 0.00134885)
(0.0952264 0.000382697 0.00118645)
(0.0954172 3.94825e-05 0.00117193)
(0.0996665 0.000377291 0.00133455)
(0.0948575 0.000384532 0.00120761)
(0.0950831 6.47061e-05 0.00118429)
(0.0995591 0.000366624 0.00133485)
(0.0944423 0.000407742 0.00124055)
(0.0947136 0.000104654 0.00120343)
(0.0994195 0.000369958 0.00135015)
(0.0939711 0.000464237 0.00129005)
(0.0943042 0.000167863 0.00123243)
(0.0992429 0.000395452 0.0013818)
(0.0934306 0.000571251 0.00135918)
(0.0938494 0.000268442 0.00127318)
(0.0990242 0.000453134 0.00143346)
(0.0928047 0.000751725 0.00144981)
(0.0933421 0.000425566 0.00132639)
(0.0987554 0.000558314 0.00151019)
(0.0920888 0.00111389 0.00158056)
(0.0927406 0.000653873 0.00139425)
(0.0984089 0.000727907 0.00160964)
(0.0921241 0.00105855 0.00149209)
(0.0981647 0.00106506 0.00175813)
(0.0996725 -0.000154019 0.000629493)
(0.0994625 -0.000129366 0.000192501)
(0.0997132 -0.000103906 0.000687955)
(0.0991591 -0.000353211 0.00154426)
(0.0992626 -0.00063684 0.00137063)
(0.0998377 -0.000341575 0.00162232)
(0.0986638 -0.00045759 0.00194744)
(0.098913 -0.000973348 0.00200355)
(0.0999631 -0.000485342 0.00199142)
(0.0982127 -0.000480567 0.00196043)
(0.0982953 -0.00104992 0.00205058)
(0.0999921 -0.000539392 0.00199659)
(0.0977772 -0.000471125 0.00182439)
(0.0976579 -0.00100726 0.00189948)
(0.10001 -0.000545963 0.00191081)
(0.0973645 -0.000457274 0.00164046)
(0.0970659 -0.000959639 0.00169803)
(0.100009 -0.000532697 0.00180376)
(0.0969978 -0.000444237 0.00146699)
(0.0965078 -0.000932434 0.00152025)
(0.0999832 -0.000510086 0.00168198)
(0.0966797 -0.000433521 0.00132769)
(0.0959965 -0.000915354 0.00137832)
(0.0999425 -0.000482685 0.00157101)
(0.0964031 -0.000422612 0.001232)
(0.0955306 -0.000899841 0.0012769)
(0.0999045 -0.000457119 0.00147861)
(0.0961437 -0.00040379 0.00118131)
(0.0950802 -0.000865317 0.0012138)
(0.0998754 -0.000430463 0.00141373)
(0.0958754 -0.000373142 0.00116403)
(0.094632 -0.00080465 0.00117924)
(0.0998279 -0.000396184 0.00137192)
(0.0955879 -0.00033248 0.00116356)
(0.0941865 -0.00073233 0.0011631)
(0.0997688 -0.000354658 0.00134184)
(0.0952778 -0.000282722 0.00116977)
(0.0937413 -0.000657319 0.00115668)
(0.0996995 -0.00030843 0.00132247)
(0.0949422 -0.000221855 0.00118011)
(0.093291 -0.000578279 0.00115589)
(0.099614 -0.000256049 0.00131434)
(0.0945792 -0.000144766 0.00119531)
(0.0928342 -0.000490122 0.00115765)
(0.0995092 -0.000193022 0.00131635)
(0.0941871 -3.982e-05 0.00121556)
(0.0923721 -0.000382529 0.00115913)
(0.0993855 -0.0001129 0.00132619)
(0.0937623 0.000110841 0.00124039)
(0.0919056 -0.000236576 0.00115505)
(0.099242 -3.96109e-06 0.00134214)
(0.0932999 0.000325226 0.00127083)
(0.0914359 -2.96442e-05 0.00114104)
(0.0990773 0.000147149 0.0013642)
(0.0927897 0.000627334 0.00130578)
(0.0909572 0.000263001 0.00111918)
(0.09888 0.000351749 0.00139175)
(0.0903948 0.000662296 0.00106954)
(0.0987096 0.000624389 0.00142404)
(0.0996493 -0.000650297 0.000931421)
(0.099473 -0.000349766 0.00030706)
(0.0997993 -0.00037513 0.000741364)
(0.0990855 -0.00127891 0.00182769)
(0.0990504 -0.00157686 0.00172046)
(0.0998409 -0.0011504 0.00181423)
(0.0984494 -0.00154077 0.002103)
(0.0983578 -0.00213123 0.00216883)
(0.0999049 -0.00153653 0.00209012)
(0.0977081 -0.00154689 0.00198878)
(0.0971935 -0.00203601 0.00200232)
(0.0997676 -0.00163176 0.00202289)
(0.0969404 -0.00148014 0.00177582)
(0.0959057 -0.00185596 0.00175418)
(0.0995101 -0.00160968 0.00189539)
(0.0962096 -0.00142739 0.00158162)
(0.0946728 -0.00173322 0.0015423)
(0.0992007 -0.00154775 0.00175119)
(0.0955254 -0.00139303 0.00143424)
(0.0934838 -0.00165355 0.00138582)
(0.0988567 -0.00147495 0.00162505)
(0.0948781 -0.0013535 0.00132717)
(0.0923717 -0.00157817 0.00126446)
(0.0985143 -0.00139348 0.00151371)
(0.0942471 -0.00129332 0.00125511)
(0.091338 -0.00148357 0.00117011)
(0.0981833 -0.00130041 0.00141736)
(0.0936264 -0.00121024 0.00120708)
(0.090353 -0.00137454 0.00110012)
(0.0978408 -0.00119587 0.0013391)
(0.0930201 -0.00111312 0.00117447)
(0.0894297 -0.00126546 0.00105228)
(0.0975104 -0.00108955 0.00128308)
(0.092428 -0.00101165 0.00115335)
(0.0885616 -0.00116026 0.00102125)
(0.0971948 -0.000986965 0.00124393)
(0.0918487 -0.000909836 0.00114057)
(0.0877376 -0.0010608 0.00100163)
(0.0968921 -0.000889684 0.00121609)
(0.0912824 -0.000805195 0.00113178)
(0.0869526 -0.000965271 0.000988859)
(0.0966017 -0.000795759 0.00119614)
(0.0907317 -0.000688542 0.00112065)
(0.0862083 -0.000867279 0.000975972)
(0.096325 -0.000698784 0.0011791)
(0.0902002 -0.000540954 0.00109892)
(0.085514 -0.000751739 0.000952748)
(0.096065 -0.000589072 0.00115898)
(0.0896927 -0.000333067 0.00105697)
(0.0848917 -0.000591972 0.000903114)
(0.0958227 -0.000449621 0.0011268)
(0.0892079 -2.76649e-05 0.000990665)
(0.0843733 -0.000347146 0.000798328)
(0.0955978 -0.000257401 0.00107287)
(0.0887424 0.000428219 0.000880013)
(0.0840144 1.76279e-05 0.000632682)
(0.0953987 1.3148e-05 0.000994394)
(0.0832757 0.000810665 0.000200252)
(0.0951657 0.000408152 0.000856413)
(0.0993753 -0.00118218 0.00107255)
(0.0996871 -0.000439245 0.000345482)
(0.0997475 -0.000611001 0.000779874)
(0.0984948 -0.00229621 0.00203187)
(0.0978161 -0.00273286 0.00228226)
(0.0995971 -0.00201839 0.00200285)
(0.0971414 -0.00247672 0.00204852)
(0.095496 -0.00300184 0.00230306)
(0.0992973 -0.00246171 0.00210234)
(0.0954397 -0.00224737 0.00176723)
(0.0926192 -0.0022996 0.00183868)
(0.0984884 -0.00237479 0.00190246)
(0.0937512 -0.00202109 0.00152216)
(0.0897673 -0.00189234 0.00153552)
(0.0974224 -0.00218137 0.00168844)
(0.092139 -0.00186519 0.00134404)
(0.0872322 -0.0016572 0.00129441)
(0.0963099 -0.0019855 0.00150781)
(0.0906031 -0.00175525 0.00121407)
(0.085007 -0.00149321 0.00107676)
(0.0952052 -0.00180287 0.00134186)
(0.0891542 -0.00165819 0.00111237)
(0.0830617 -0.00137353 0.000912628)
(0.0941492 -0.00164668 0.00120229)
(0.0878091 -0.00155472 0.0010298)
(0.0813262 -0.00128183 0.000800555)
(0.0931679 -0.00150814 0.0010933)
(0.0865695 -0.00144755 0.000967264)
(0.0797494 -0.00119946 0.000724609)
(0.0922652 -0.00138053 0.00100967)
(0.0854212 -0.00134552 0.000925168)
(0.0783033 -0.00112118 0.000675821)
(0.0914411 -0.00126632 0.000950011)
(0.0843493 -0.00125248 0.000898547)
(0.0769665 -0.00104735 0.000644663)
(0.0906875 -0.00116753 0.000908631)
(0.0833432 -0.00116667 0.000881215)
(0.0757224 -0.000979809 0.000623464)
(0.0899947 -0.00108258 0.000878472)
(0.0824002 -0.00108364 0.000866432)
(0.0745601 -0.000919833 0.000608588)
(0.0893572 -0.00100772 0.000852846)
(0.0815292 -0.000996508 0.00084486)
(0.0734755 -0.000868465 0.000594726)
(0.0887764 -0.00093856 0.000824599)
(0.0807553 -0.000890328 0.000800871)
(0.0724815 -0.000822112 0.000562239)
(0.0882599 -0.000866819 0.000781305)
(0.0801314 -0.000732062 0.000701818)
(0.0716275 -0.000765117 0.000490438)
(0.0878275 -0.000776012 0.000698911)
(0.0797085 -0.000458963 0.000512963)
(0.0710085 -0.000619085 0.000299078)
(0.0875039 -0.000635201 0.000533619)
(0.0795701 0.000243635 4.3125e-05)
(0.0708997 -0.000331529 4.26926e-06)
(0.0873254 -0.000385931 0.000251789)
(0.0692601 0.000660864 -0.000807859)
(0.0868401 0.000322873 -0.0003877)
(0.0984572 -0.00247649 0.00172988)
(0.0973536 -0.00106248 -0.00148428)
(0.100049 -0.0010564 0.000750963)
(0.0958348 -0.00314817 0.00243263)
(0.0930872 -0.00326905 0.00253345)
(0.0982936 -0.00280929 0.00216143)
(0.0914499 -0.00223053 0.00186924)
(0.084864 -0.00163596 0.00179231)
(0.0963039 -0.00244279 0.00199774)
(0.0875951 -0.00167502 0.00150538)
(0.078628 -0.00107372 0.00122128)
(0.0936667 -0.00198098 0.00172688)
(0.0841473 -0.00144075 0.00127547)
(0.0740529 -0.000785746 0.000864976)
(0.0909043 -0.00172015 0.00149769)
(0.0811874 -0.00126654 0.0010284)
(0.0704422 -0.000651187 0.000669071)
(0.0884339 -0.00145518 0.00121143)
(0.0787007 -0.00111213 0.000793419)
(0.0674912 -0.000548 0.000508097)
(0.0863041 -0.00118453 0.000908169)
(0.0765558 -0.000995466 0.000624314)
(0.0650503 -0.000471049 0.000386723)
(0.0844794 -0.000984842 0.000689993)
(0.0746499 -0.000910778 0.000516771)
(0.0629652 -0.000418899 0.000306665)
(0.0828782 -0.000848331 0.000547423)
(0.0729217 -0.000840692 0.000450048)
(0.0611304 -0.000378861 0.000253008)
(0.0814446 -0.000749823 0.000453301)
(0.0713353 -0.00077564 0.000407875)
(0.0594866 -0.000344998 0.000215891)
(0.0801464 -0.000671723 0.000387411)
(0.0698687 -0.00071666 0.000379556)
(0.0579995 -0.000316825 0.000188988)
(0.0789573 -0.000606566 0.0003378)
(0.068506 -0.00066989 0.000360618)
(0.0566429 -0.000297398 0.000167469)
(0.0778584 -0.000556628 0.000298915)
(0.067235 -0.000639552 0.000347843)
(0.055395 -0.000288955 0.000148901)
(0.0768396 -0.00052289 0.00026708)
(0.0660525 -0.000623073 0.000323933)
(0.0542449 -0.000293184 0.000128331)
(0.0758968 -0.00050536 0.000232894)
(0.0649902 -0.000614488 0.000264808)
(0.0531989 -0.000310065 9.88111e-05)
(0.0750356 -0.000501048 0.000169298)
(0.0641248 -0.000582215 0.00011607)
(0.052294 -0.000353625 3.67697e-05)
(0.0742852 -0.000506693 5.49895e-05)
(0.0637065 -0.00054394 -0.000118775)
(0.0516314 -0.000427127 -0.000106409)
(0.0737039 -0.000484733 -0.000185957)
(0.0642366 -0.000349119 -0.000585336)
(0.0516335 -0.000580475 -0.000304527)
(0.0735018 -0.000388725 -0.00068912)
(0.049942 0.000300586 -0.00181304)
(0.0720851 0.000426918 -0.00252151)
(0.0993441 0.00341899 -0.00341903)
(0.0973536 0.00148427 0.00106247)
(0.0834791 -0.00197595 0.00197583)
(0.0930872 -0.00253352 0.00326893)
(0.0745171 -0.00195887 0.00195862)
(0.084864 -0.00179246 0.00163574)
(0.0685476 -0.00115934 0.00115887)
(0.0786279 -0.0012216 0.00107333)
(0.0642357 -0.000697449 0.000696641)
(0.0740527 -0.000865487 0.000784974)
(0.060756 -0.000495706 0.000494133)
(0.0704418 -0.000669942 0.000649945)
(0.0579363 -0.000376405 0.000373506)
(0.0674906 -0.000509834 0.000545526)
(0.0556124 -0.000290604 0.000285775)
(0.0650491 -0.000389595 0.000466765)
(0.053622 -0.000231318 0.000223359)
(0.062963 -0.000311346 0.000411646)
(0.0518755 -0.000190338 0.000176957)
(0.0611267 -0.000260732 0.000366587)
(0.050323 -0.000163124 0.000140684)
(0.0594799 -0.0002297 0.000324118)
(0.0489312 -0.00014626 0.000109543)
(0.0579875 -0.000212289 0.000281979)
(0.0476709 -0.000137432 7.89326e-05)
(0.0566216 -0.000203943 0.000240123)
(0.0465204 -0.000136441 4.4462e-05)
(0.0553581 -0.000201348 0.000195244)
(0.0454741 -0.000146217 7.65783e-06)
(0.0541823 -0.000204186 0.000138913)
(0.0445435 -0.000173977 -4.5777e-05)
(0.0530904 -0.000215611 6.34226e-05)
(0.0437581 -0.000221934 -0.000159146)
(0.0520959 -0.000247719 -4.96541e-05)
(0.0433103 -0.000287748 -0.000373843)
(0.0512475 -0.000283577 -0.000262534)
(0.0436334 0.000404052 -0.00161113)
(0.0508228 -0.000245972 -0.00073969)
(0.0495026 0.000869302 -0.00300243)
(0.0984572 0.00172988 0.00247649)
(0.100049 0.000750962 0.0010564)
(0.0996871 0.000345482 0.000439246)
(0.0958348 0.00243263 0.00314817)
(0.0982936 0.00216143 0.0028093)
(0.0978161 0.00228226 0.00273287)
(0.0914499 0.00186924 0.00223055)
(0.0963039 0.00199774 0.0024428)
(0.095496 0.00230306 0.00300185)
(0.0875951 0.00150537 0.00167504)
(0.0936667 0.00172688 0.00198099)
(0.0926192 0.00183867 0.00229961)
(0.0841473 0.00127547 0.00144077)
(0.0909043 0.00149769 0.00172016)
(0.0897673 0.00153552 0.00189235)
(0.0811874 0.00102839 0.00126657)
(0.088434 0.00121142 0.0014552)
(0.0872323 0.0012944 0.00165721)
(0.0787007 0.000793406 0.00111216)
(0.0863041 0.000908154 0.00118455)
(0.085007 0.00107674 0.00149323)
(0.0765559 0.000624298 0.000995509)
(0.0844794 0.000689977 0.000984874)
(0.0830618 0.00091261 0.00137356)
(0.0746499 0.000516751 0.000910831)
(0.0828782 0.000547403 0.000848371)
(0.0813263 0.000800533 0.00128186)
(0.0729217 0.000450021 0.000840758)
(0.0814446 0.000453279 0.000749873)
(0.0797494 0.000724581 0.0011995)
(0.0713353 0.000407837 0.000775721)
(0.0801464 0.000387383 0.00067179)
(0.0783033 0.000675784 0.00112122)
(0.0698688 0.000379507 0.000716763)
(0.0789573 0.000337772 0.000606654)
(0.0769666 0.000644612 0.0010474)
(0.0685061 0.000360564 0.000670031)
(0.0778584 0.000298896 0.000556753)
(0.0757225 0.000623393 0.000979869)
(0.067235 0.000347767 0.00063975)
(0.0768396 0.000267037 0.000523031)
(0.0745602 0.000608513 0.000919947)
(0.0660525 0.000323791 0.000623355)
(0.0758968 0.00023279 0.000505547)
(0.0734756 0.000594621 0.000868655)
(0.0649902 0.000264597 0.000614924)
(0.0750355 0.000169144 0.000501366)
(0.0724816 0.000562052 0.000822378)
(0.0641247 0.000115786 0.000582923)
(0.074285 5.47716e-05 0.000507204)
(0.0716277 0.000490162 0.000765526)
(0.0637063 -0.000119107 0.000545213)
(0.0737035 -0.000186298 0.000485579)
(0.071009 0.000298677 0.000619789)
(0.064236 -0.000585383 0.000351067)
(0.0735011 -0.000689438 0.000390232)
(0.0709006 3.79456e-06 0.000332889)
(0.0720831 -0.00252161 -0.000424824)
(0.0692609 -0.000807777 -0.000657427)
(0.10008 0.00135175 0.00135184)
(0.100186 0.000798752 0.000804978)
(0.100186 0.000804941 0.00079879)
(0.100264 0.00221723 0.00221747)
(0.100189 0.00231183 0.0020716)
(0.10019 0.00207145 0.00231198)
(0.0993827 0.00243562 0.00243607)
(0.100306 0.00263366 0.00245335)
(0.100306 0.00245299 0.00263394)
(0.0979836 0.00231002 0.00231076)
(0.0998046 0.00256031 0.00245641)
(0.0998048 0.00245578 0.00256082)
(0.0964943 0.00200574 0.00200698)
(0.0988621 0.00236428 0.00228161)
(0.0988625 0.00228065 0.00236511)
(0.0950715 0.00159615 0.00159824)
(0.0978397 0.00204872 0.00196903)
(0.0978403 0.00196754 0.00205018)
(0.0937735 0.00122492 0.00122839)
(0.0968594 0.00169073 0.00160612)
(0.0968605 0.00160375 0.00169308)
(0.0926146 0.000959745 0.000965635)
(0.0959561 0.00140377 0.00132402)
(0.095958 0.00131999 0.00140762)
(0.0915887 0.000773762 0.000783908)
(0.0951423 0.00119009 0.00112291)
(0.0951456 0.00111602 0.00119672)
(0.0906796 0.000638177 0.000656189)
(0.0944161 0.00102895 0.000979131)
(0.094422 0.000967406 0.0010404)
(0.0898667 0.000534115 0.000564941)
(0.093772 0.000903294 0.000876625)
(0.0937821 0.000856053 0.000923022)
(0.0891292 0.000451925 0.000501591)
(0.0931949 0.000802039 0.000805137)
(0.093212 0.000770919 0.000834662)
(0.0884537 0.000383759 0.000460783)
(0.0926715 0.000717121 0.000758489)
(0.0926995 0.000703319 0.000769561)
(0.0878369 0.000317862 0.000437906)
(0.0921955 0.000638706 0.000730665)
(0.0922401 0.000643564 0.000721874)
(0.0872797 0.000234307 0.000432679)
(0.091764 0.000555738 0.00072023)
(0.091835 0.000580403 0.000688709)
(0.0867779 0.000111653 0.000446755)
(0.0913701 0.000451156 0.000731635)
(0.0914832 0.000495118 0.000667729)
(0.0863277 -8.36598e-05 0.000477103)
(0.0910021 0.000309341 0.000768247)
(0.0911795 0.000368182 0.000655205)
(0.0858807 -0.000441933 0.000471724)
(0.0906338 0.000100291 0.000832288)
(0.0909039 0.000160531 0.000642897)
(0.0852557 -0.00123996 0.000220662)
(0.090214 -0.00022815 0.000872806)
(0.0906119 -0.000205489 0.000586466)
(0.0899952 -0.000757013 0.000766377)
(0.0904044 -0.00097915 0.000303963)
(0.100171 0.0013687 0.0014165)
(0.100118 0.00057742 0.000811328)
(0.100102 0.000699765 0.000700732)
(0.100758 0.00219496 0.00214927)
(0.100478 0.00158292 0.00185885)
(0.100477 0.00182256 0.00186481)
(0.100996 0.00247703 0.00238829)
(0.101004 0.0020589 0.00224272)
(0.101024 0.00234684 0.00238327)
(0.100837 0.00247632 0.0023896)
(0.101292 0.00220371 0.00235243)
(0.101337 0.00250603 0.00254422)
(0.100456 0.00231165 0.00222538)
(0.101308 0.00216771 0.00232255)
(0.101408 0.00245057 0.002473)
(0.0999654 0.00205672 0.00196893)
(0.101155 0.00201134 0.00217923)
(0.1013 0.00226457 0.00227139)
(0.0994397 0.00179076 0.00170114)
(0.100924 0.00179462 0.00196913)
(0.101096 0.00200896 0.00200015)
(0.0989273 0.00156356 0.00148566)
(0.10066 0.00158504 0.00176684)
(0.100851 0.00176993 0.00176032)
(0.098454 0.00137802 0.00132494)
(0.100401 0.00139763 0.00159215)
(0.100601 0.00156839 0.00156819)
(0.0980299 0.00122456 0.00120678)
(0.100161 0.00123257 0.00144849)
(0.100369 0.0014006 0.001417)
(0.0976537 0.00109636 0.00112356)
(0.0999463 0.00109343 0.00134509)
(0.100167 0.00126075 0.00130043)
(0.0973206 0.000987141 0.00106841)
(0.099757 0.000976661 0.00127473)
(0.0999953 0.0011432 0.00121349)
(0.097025 0.000889355 0.00103514)
(0.0995889 0.000876677 0.00122994)
(0.099854 0.00104226 0.0011514)
(0.0967592 0.000794608 0.0010212)
(0.0994383 0.000787727 0.00120644)
(0.0997401 0.000950344 0.00111051)
(0.0965134 0.000695884 0.00103026)
(0.0992979 0.000703519 0.00120415)
(0.0996492 0.000859947 0.00109032)
(0.0962725 0.000583597 0.00106905)
(0.0991566 0.000618537 0.00122861)
(0.099574 0.000764188 0.00109487)
(0.0960177 0.000443147 0.00114591)
(0.0989989 0.000525898 0.00128767)
(0.0995039 0.000651452 0.00112929)
(0.0957175 0.000255337 0.00125827)
(0.0988037 0.000421822 0.00139)
(0.0994231 0.00050968 0.0011998)
(0.0953144 4.73953e-05 0.00141772)
(0.0985459 0.000294067 0.001529)
(0.0993104 0.00032471 0.00129322)
(0.0985846 0.000199689 0.00171662)
(0.0994111 0.000149419 0.00143388)
(0.100242 0.000820239 0.00125615)
(0.10009 0.000294379 0.000735367)
(0.100071 0.000415704 0.000602807)
(0.100828 0.00139072 0.0019394)
(0.100491 0.000792116 0.00168405)
(0.100492 0.00112451 0.00158708)
(0.101392 0.00166377 0.0021824)
(0.101086 0.00107797 0.00208346)
(0.101128 0.00154103 0.00209425)
(0.101815 0.00176163 0.00226142)
(0.101664 0.00120475 0.00217913)
(0.101767 0.00173305 0.00229449)
(0.102079 0.00175613 0.0022623)
(0.102121 0.00124043 0.00222211)
(0.10229 0.00179043 0.00236761)
(0.102213 0.00166938 0.00217704)
(0.10245 0.00120307 0.00221015)
(0.10271 0.00174465 0.00232236)
(0.102262 0.00153561 0.00204191)
(0.102678 0.00112028 0.00212627)
(0.103035 0.00162744 0.00220266)
(0.102271 0.00138503 0.00188583)
(0.102838 0.00102042 0.00200522)
(0.103283 0.00148143 0.00205038)
(0.102266 0.00123484 0.0017312)
(0.102962 0.000921668 0.00186949)
(0.103487 0.00133064 0.00189141)
(0.102256 0.00109944 0.00160455)
(0.103063 0.000830676 0.00174272)
(0.103661 0.00118995 0.00174774)
(0.102246 0.000984989 0.00151605)
(0.103153 0.000751104 0.00164133)
(0.103817 0.00106858 0.00163616)
(0.102236 0.000887577 0.00145764)
(0.10324 0.000682752 0.00156348)
(0.103963 0.000965635 0.00155283)
(0.102226 0.000803155 0.0014237)
(0.103321 0.000624343 0.0015125)
(0.104102 0.000876319 0.00149392)
(0.102212 0.00072982 0.00141271)
(0.103395 0.000576134 0.00148834)
(0.104236 0.000798079 0.00145789)
(0.102187 0.00066526 0.00142684)
(0.103455 0.000539319 0.00148783)
(0.104363 0.000728837 0.00144549)
(0.102139 0.000607447 0.0014728)
(0.103497 0.000516293 0.00151001)
(0.104478 0.000666719 0.00146053)
(0.102055 0.000559529 0.00155851)
(0.103513 0.00050976 0.00156062)
(0.104574 0.000609273 0.00151028)
(0.101922 0.000528164 0.00168934)
(0.103494 0.000528477 0.00164726)
(0.104646 0.000558138 0.00159744)
(0.101722 0.000533199 0.00185875)
(0.103439 0.000581993 0.00177018)
(0.104694 0.00051492 0.00171886)
(0.103633 0.000691579 0.00191759)
(0.104961 0.000504672 0.0018695)
(0.100243 0.000267522 0.00116244)
(0.100087 3.30012e-08 0.000707032)
(0.100064 0.000135862 0.000537356)
(0.100782 0.000465971 0.00182628)
(0.100477 9.45996e-08 0.00161783)
(0.100463 0.000371043 0.0014242)
(0.101401 0.000575925 0.00207623)
(0.101066 1.62846e-07 0.00203472)
(0.101089 0.000525446 0.00193367)
(0.101987 0.000623596 0.00213405)
(0.101694 2.9439e-07 0.0021177)
(0.101797 0.000606348 0.00212874)
(0.102507 0.000632299 0.0021652)
(0.102269 5.36727e-07 0.00215022)
(0.102489 0.000640098 0.00221121)
(0.102934 0.000612262 0.00215724)
(0.102742 9.2467e-07 0.00217978)
(0.103119 0.000635474 0.00224189)
(0.103277 0.000574396 0.0020896)
(0.103124 1.50877e-06 0.00213403)
(0.103686 0.000603031 0.00219721)
(0.103554 0.00053045 0.00199023)
(0.103428 2.45041e-06 0.00204414)
(0.104185 0.000558244 0.00210656)
(0.103787 0.000489047 0.00188297)
(0.103681 4.076e-06 0.00193475)
(0.10462 0.000512306 0.0019938)