/*--------------------------------*- C++ -*----------------------------------*\
| =========                 |                                                 |
| \\      /  F ield         | OpenFOAM: The Open Source CFD Toolbox           |
|  \\    /   O peration     | Version:  2212                                  |
|   \\  /    A nd           | Website:  www.openfoam.com                      |
|    \\/     M anipulation  |                                                 |
\*---------------------------------------------------------------------------*/
FoamFile
{
    version     2.0;
    format      ascii;
    arch        "LSB;label=32;scalar=64";
    class       volScalarField;
    location    "1.8";
    object      p;
}
// * * * * * * * * * * * * * * * * * * * * * * * * * * * * * * * * * * * * * //

dimensions      [0 2 -2 0 0 0 0];

internalField   nonuniform List<scalar> 
680
(
0.00708623
0.00692515
0.00676583
0.00660837
0.00645266
0.00629788
0.00614296
0.00713453
0.00696035
0.00679339
0.00663123
0.0064723
0.00631548
0.00616052
0.00712507
0.00694689
0.00677879
0.00661603
0.00645653
0.00630005
0.00614692
0.00708904
0.00692132
0.00676406
0.00660869
0.00645386
0.00630046
0.00614937
0.00707032
0.00689938
0.00674238
0.006592
0.00644131
0.00628945
0.00613815
0.00707003
0.00689891
0.00674161
0.00659077
0.00643935
0.00628631
0.00613317
0.00708833
0.00692014
0.00676213
0.00660554
0.00644878
0.00629231
0.00712433
0.00694566
0.00677674
0.0066126
0.0064509
0.00629085
0.00713412
0.00695965
0.00679221
0.00662927
0.00646907
0.00631003
0.00708624
0.00692516
0.00676584
0.00660838
0.00645267
0.0062979
0.00713411
0.00695963
0.00679219
0.00662926
0.00646905
0.00631001
0.00615101
0.00726501
0.00706057
0.00687242
0.00669506
0.00652488
0.00635909
0.00619606
0.0072614
0.00704915
0.00685514
0.00667266
0.00649865
0.0063314
0.00616973
0.00722653
0.00702372
0.00683764
0.00666158
0.00649242
0.00632865
0.00616958
0.00720386
0.00700311
0.00681586
0.00663963
0.00647099
0.00630835
0.00615071
0.00720349
0.00700256
0.00681496
0.00663813
0.00646857
0.00630452
0.00614488
0.00722582
0.00702256
0.00683559
0.00665802
0.00648659
0.00631965
0.00726082
0.00704815
0.00685347
0.00666998
0.00649434
0.00632449
0.00726502
0.00706058
0.00687244
0.00669507
0.00652489
0.00635909
0.00713454
0.00696036
0.0067934
0.00663124
0.00647231
0.00631549
0.00712432
0.00694565
0.00677673
0.0066126
0.00645089
0.00629085
0.00613183
0.00726081
0.00704814
0.00685346
0.00666997
0.00649434
0.00632449
0.00615847
0.00723916
0.00702147
0.0068215
0.00663434
0.00645692
0.00628682
0.00612205
0.00718265
0.00698179
0.0067898
0.00660792
0.00643436
0.00626721
0.00610526
0.00714121
0.00695514
0.00677185
0.00659296
0.0064195
0.0062519
0.00608952
0.00714094
0.00695473
0.00677121
0.00659197
0.00641799
0.00624966
0.00608626
0.00718224
0.00698115
0.00678876
0.00660623
0.00643171
0.00626318
0.00723917
0.00702148
0.00682151
0.00663435
0.00645693
0.00628683
0.00726141
0.00704917
0.00685516
0.00667268
0.00649867
0.00633141
0.00712509
0.00694691
0.00677881
0.00661604
0.00645654
0.00630006
0.00708832
0.00692014
0.00676213
0.00660555
0.00644878
0.00629232
0.00613637
0.00722582
0.00702256
0.00683559
0.00665802
0.0064866
0.00631965
0.00615617
0.00718223
0.00698114
0.00678876
0.00660622
0.00643171
0.00626318
0.00609922
0.00710533
0.00692142
0.00674116
0.00656617
0.00639633
0.00623104
0.00606969
0.00706419
0.00689003
0.00671647
0.00654537
0.00637762
0.00621352
0.00605298
0.0070641
0.0068899
0.00671629
0.00654511
0.00637725
0.00621299
0.00605219
0.00710534
0.00692143
0.00674117
0.00656618
0.00639634
0.00623105
0.00718266
0.0069818
0.00678981
0.00660794
0.00643438
0.00626724
0.00722654
0.00702374
0.00683766
0.00666161
0.00649244
0.00632868
0.00708906
0.00692134
0.00676409
0.00660871
0.00645389
0.00630048
0.00707003
0.00689892
0.00674162
0.00659079
0.00643936
0.00628632
0.00613318
0.00720349
0.00700256
0.00681497
0.00663814
0.00646858
0.00630453
0.00614489
0.00714094
0.00695473
0.00677121
0.00659197
0.006418
0.00624966
0.00608627
0.0070641
0.0068899
0.00671629
0.00654511
0.00637725
0.00621298
0.00605218
0.00702513
0.0068586
0.00669023
0.00652241
0.00635656
0.00619341
0.00603325
0.00702514
0.0068586
0.00669023
0.00652241
0.00635656
0.00619342
0.00603326
0.0070642
0.00689004
0.00671649
0.00654539
0.00637764
0.00621354
0.00714123
0.00695516
0.00677187
0.00659298
0.00641953
0.00625193
0.00720388
0.00700313
0.00681588
0.00663965
0.00647102
0.00630838
0.00707034
0.0068994
0.0067424
0.00659202
0.00644134
0.00628948
0.00707033
0.00689939
0.00674239
0.00659201
0.00644133
0.00628947
0.00613818
0.00720387
0.00700312
0.00681587
0.00663964
0.00647101
0.00630837
0.00615074
0.00714122
0.00695515
0.00677186
0.00659297
0.00641951
0.00625191
0.00608954
0.00706419
0.00689004
0.00671648
0.00654538
0.00637763
0.00621353
0.00605298
0.00702514
0.0068586
0.00669023
0.00652241
0.00635656
0.00619342
0.00603326
0.00702514
0.0068586
0.00669024
0.00652242
0.00635656
0.00619342
0.00603326
0.00706411
0.00688991
0.0067163
0.00654512
0.00637726
0.006213
0.00714095
0.00695474
0.00677123
0.00659199
0.00641802
0.00624969
0.00720351
0.00700258
0.00681498
0.00663816
0.0064686
0.00630456
0.00707005
0.00689893
0.00674164
0.0065908
0.00643938
0.00628634
0.00708905
0.00692133
0.00676408
0.00660871
0.00645388
0.00630048
0.0061494
0.00722654
0.00702373
0.00683766
0.0066616
0.00649244
0.00632868
0.0061696
0.00718266
0.0069818
0.00678981
0.00660793
0.00643438
0.00626723
0.00610528
0.00710534
0.00692143
0.00674117
0.00656618
0.00639634
0.00623105
0.0060697
0.0070641
0.00688991
0.0067163
0.00654512
0.00637725
0.00621299
0.00605219
0.00723564
0.0070642
0.00689004
0.00671648
0.00654538
0.00637763
0.00621353
0.00605299
0.00728978
0.00710535
0.00692144
0.00674117
0.00656619
0.00639634
0.00623105
0.00738915
0.00718225
0.00698116
0.00678878
0.00660624
0.00643173
0.0062632
0.00745232
0.00722583
0.00702258
0.00683561
0.00665804
0.00648662
0.00631968
0.00727736
0.00708834
0.00692015
0.00676215
0.00660556
0.0064488
0.00629234
0.00712508
0.0069469
0.00677881
0.00661604
0.00645655
0.00630007
0.00614695
0.00726141
0.00704917
0.00685516
0.00667268
0.00649867
0.00633142
0.00616976
0.00723917
0.00702148
0.00682151
0.00663435
0.00645694
0.00628684
0.00612207
0.00718224
0.00698115
0.00678877
0.00660623
0.00643172
0.00626319
0.00609923
0.00714094
0.00695473
0.00677122
0.00659197
0.006418
0.00624967
0.00608627
0.00732921
0.00714122
0.00695515
0.00677186
0.00659297
0.00641951
0.00625191
0.00608953
0.00738942
0.00718267
0.0069818
0.00678981
0.00660793
0.00643438
0.00626723
0.00748068
0.00723918
0.00702148
0.00682152
0.00663436
0.00645694
0.00628684
0.00750132
0.00726083
0.00704817
0.00685348
0.00667
0.00649436
0.00632451
0.00731741
0.00712434
0.00694567
0.00677675
0.00661262
0.00645091
0.00629087
0.00713454
0.00696036
0.0067934
0.00663124
0.00647232
0.0063155
0.00616055
0.00726502
0.00706058
0.00687244
0.00669507
0.0065249
0.00635911
0.00619608
0.00726082
0.00704815
0.00685347
0.00666999
0.00649436
0.00632451
0.00615849
0.00722582
0.00702257
0.0068356
0.00665803
0.0064866
0.00631966
0.00615618
0.0072035
0.00700256
0.00681497
0.00663814
0.00646857
0.00630453
0.00614489
0.007417
0.00720387
0.00700312
0.00681587
0.00663964
0.006471
0.00630836
0.00615072
0.00745278
0.00722654
0.00702374
0.00683766
0.0066616
0.00649243
0.00632867
0.00750166
0.00726142
0.00704917
0.00685516
0.00667268
0.00649867
0.00633141
0.0074926
0.00726503
0.00706059
0.00687245
0.00669508
0.0065249
0.00635911
0.00732039
0.00713413
0.00695966
0.00679222
0.00662928
0.00646908
0.00631004
0.00708624
0.00692516
0.00676585
0.00660838
0.00645268
0.00629791
0.00614299
0.00713412
0.00695965
0.00679221
0.00662928
0.00646907
0.00631004
0.00615104
0.00712433
0.00694566
0.00677674
0.00661261
0.00645091
0.00629086
0.00613185
0.00708833
0.00692014
0.00676213
0.00660555
0.00644879
0.00629232
0.00613638
0.00707004
0.00689892
0.00674162
0.00659078
0.00643936
0.00628632
0.00613317
0.00726107
0.00707033
0.0068994
0.00674239
0.00659201
0.00644132
0.00628946
0.00613816
0.00727779
0.00708906
0.00692134
0.00676408
0.0066087
0.00645388
0.00630047
0.00731787
0.00712509
0.00694691
0.00677881
0.00661605
0.00645654
0.00630006
0.00732064
0.00713456
0.00696037
0.00679341
0.00663125
0.00647232
0.0063155
0.00725263
0.00708625
0.00692517
0.00676585
0.00660839
0.00645268
0.00629791
)
;

boundaryField
{
    inlet
    {
        type            zeroGradient;
    }
    ami1
    {
        type            cyclicAMI;
        value           nonuniform List<scalar> 0();
    }
    walls
    {
        type            zeroGradient;
    }
    ami2
    {
        type            cyclicAMI;
        value           nonuniform List<scalar> 0();
    }
    outlet
    {
        type            fixedValue;
        value           nonuniform List<scalar> 0();
    }
    procBoundary3to2
    {
        type            processor;
        value           nonuniform List<scalar> 
110
(
0.00598795
0.00600807
0.00599763
0.0060014
0.00598878
0.00598097
0.00613637
0.00613637
0.00613183
0.00615101
0.00614296
0.00599157
0.00603527
0.00601297
0.00601544
0.0059973
0.00598839
0.00615616
0.00615616
0.00615847
0.00619605
0.00616051
0.00597268
0.00599456
0.0059614
0.00594789
0.00593191
0.00592705
0.00609922
0.00609922
0.00612207
0.00616975
0.00614693
0.00598071
0.00599515
0.00593877
0.00591172
0.00589571
0.00589453
0.00606971
0.00606971
0.0061053
0.00616961
0.00614939
0.00598098
0.00598841
0.00592706
0.00589452
0.00587607
0.00587608
0.006053
0.006053
0.00608956
0.00615075
0.00613819
0.00598881
0.00599733
0.00593193
0.00589572
0.00587607
0.00587608
0.0060522
0.0060522
0.0060863
0.00614492
0.0061332
0.00600143
0.00601547
0.00594791
0.00591173
0.00589453
0.00589572
0.00606971
0.00606971
0.00609924
0.0061562
0.0061364
0.00599766
0.006013
0.00596142
0.00593878
0.00592706
0.00593192
0.00610528
0.00610528
0.00612208
0.00615849
0.00613185
0.00600811
0.0060353
0.00599458
0.00599515
0.0059884
0.0059973
0.00616959
0.00616959
0.00616975
0.00619607
0.00615103
0.00598799
0.00599161
0.0059727
0.00598071
0.00598097
0.00598878
0.00614937
0.00614937
0.00614693
0.00616053
0.00614298
)
;
    }
    procBoundary3to4
    {
        type            processor;
        value           nonuniform List<scalar> 
109
(
0.0072526
0.00732062
0.00731785
0.00727777
0.00726106
0.00726089
0.00727735
0.0073174
0.00732038
0.00725261
0.00732037
0.00749258
0.00750164
0.00745276
0.00741699
0.00741674
0.00745231
0.00750131
0.00749259
0.00732063
0.00731739
0.0075013
0.00748066
0.0073894
0.0073292
0.00732901
0.00738913
0.00748067
0.00750166
0.00731786
0.00727735
0.00745231
0.00738913
0.00728977
0.00723563
0.00723557
0.00728978
0.00738942
0.00745278
0.00727778
0.00726089
0.00741675
0.00732901
0.00723557
0.00718616
0.00718616
0.00723564
0.00732922
0.00741701
0.00726108
0.00726107
0.007417
0.00732921
0.00723564
0.00718616
0.00718616
0.00718616
0.00723558
0.00723558
0.00732902
0.00732902
0.00741676
0.00741676
0.0072609
0.0072609
0.00727778
0.00745277
0.00738941
0.00728978
0.00723557
0.00723557
0.00739855
0.00746994
0.00759981
0.0077034
0.00749711
0.00731785
0.00750165
0.00748067
0.00738914
0.00732902
0.00732902
0.0075155
0.00760001
0.007739
0.00777989
0.00753316
0.00732063
0.00749259
0.00750131
0.00745231
0.00741675
0.00741675
0.0076398
0.0077037
0.0077801
0.00775144
0.00753158
0.00725261
0.00732038
0.0073174
0.00727735
0.00726089
0.00726089
0.00748266
0.00749736
0.00753343
0.00753173
0.00743922
)
;
    }
}


// ************************************************************************* //
