/*--------------------------------*- C++ -*----------------------------------*\
| =========                 |                                                 |
| \\      /  F ield         | OpenFOAM: The Open Source CFD Toolbox           |
|  \\    /   O peration     | Version:  2212                                  |
|   \\  /    A nd           | Website:  www.openfoam.com                      |
|    \\/     M anipulation  |                                                 |
\*---------------------------------------------------------------------------*/
FoamFile
{
    version     2.0;
    format      ascii;
    arch        "LSB;label=32;scalar=64";
    class       volScalarField;
    location    "3";
    object      k;
}
// * * * * * * * * * * * * * * * * * * * * * * * * * * * * * * * * * * * * * //

dimensions      [0 2 -2 0 0 0 0];

internalField   nonuniform List<scalar> 
682
(
0.00222495
0.0021443
0.00207058
0.00200311
0.00194132
0.00188528
0.0018339
0.00178659
0.00174299
0.001703
0.00166499
0.00217115
0.00209294
0.00202188
0.00195713
0.00189808
0.0018442
0.00179518
0.00175031
0.00170932
0.00167106
0.00163457
0.00209204
0.00202212
0.00195851
0.0019004
0.00184755
0.00179915
0.00175474
0.00171374
0.00167692
0.00164027
0.00160543
0.00208858
0.00202611
0.00196832
0.0019169
0.00186321
0.00181421
0.00177159
0.00173169
0.00169491
0.00166028
0.00162739
0.001597
0.00208415
0.00203542
0.00198161
0.00193375
0.00188884
0.00184707
0.00180851
0.00177218
0.00173855
0.00170664
0.00167658
0.00164866
0.00240637
0.00236268
0.00231948
0.00227883
0.00224012
0.0022035
0.0021683
0.00213506
0.0021032
0.00207208
0.00204145
0.00201305
0.00298454
0.00281782
0.00266645
0.00252864
0.0024028
0.00228762
0.00218196
0.00208469
0.00199524
0.00191203
0.00183588
0.00292744
0.00276733
0.00262162
0.00248852
0.00236642
0.00225426
0.00215096
0.00205565
0.00196768
0.00188566
0.00181038
0.00273369
0.00258644
0.00245138
0.00232748
0.00221275
0.00210759
0.00200985
0.00191991
0.0018365
0.00175767
0.00168633
0.00252247
0.00238079
0.00224981
0.00212872
0.00201934
0.00191301
0.00182313
0.00173302
0.00165638
0.00157969
0.00151028
0.00144828
0.00204814
0.00193623
0.0018319
0.00174215
0.00165748
0.00158242
0.00151305
0.00145002
0.00139273
0.00133373
0.00127831
0.00123368
0.00215149
0.00210263
0.00205707
0.00201251
0.00196971
0.00193054
0.00189364
0.00185954
0.00182715
0.00179638
0.00176627
0.00173835
0.00390494
0.00367522
0.00346585
0.00327454
0.00309929
0.00293836
0.00279025
0.00265361
0.00252736
0.00241022
0.00230166
0.0038103
0.00358885
0.00338684
0.00320204
0.0030325
0.0028766
0.00273293
0.00260023
0.00247745
0.0023634
0.00225777
0.00352047
0.00331811
0.00313298
0.00296318
0.00280697
0.00266322
0.00253062
0.00240795
0.00229433
0.00218835
0.00209067
0.0032375
0.00304624
0.00287074
0.00271034
0.00256273
0.00242778
0.00230335
0.0021889
0.00208145
0.00198413
0.0018907
0.00180889
0.00256412
0.00242775
0.0022973
0.00218536
0.00207598
0.0019824
0.00189075
0.00181241
0.00173346
0.00166524
0.00159532
0.00153631
0.00220605
0.00214772
0.00209662
0.00204255
0.00199236
0.00194753
0.00190576
0.00186736
0.00182985
0.00179509
0.00175928
0.00172617
0.00460983
0.00433502
0.00408442
0.0038553
0.00364527
0.00345229
0.00327455
0.00311049
0.00295874
0.00281803
0.00268745
0.00448665
0.00422047
0.00397768
0.00375562
0.003552
0.00336482
0.00319237
0.00303313
0.00288579
0.0027491
0.00262223
0.00411862
0.00387592
0.00365432
0.00345146
0.00326527
0.00309399
0.00293613
0.00279031
0.00265539
0.00253012
0.00241388
0.00375208
0.00352565
0.00331927
0.00313082
0.0029582
0.00279985
0.0026542
0.00252032
0.00239642
0.00228224
0.0021756
0.00207746
0.00290506
0.00273923
0.00258922
0.00245317
0.0023288
0.00221561
0.00211117
0.00201735
0.00192746
0.00184955
0.00177236
0.00170473
0.00226822
0.00219514
0.00212879
0.00206763
0.00201112
0.00195872
0.00191111
0.00186507
0.00181869
0.00177714
0.00173874
0.00170259
0.00490923
0.00461556
0.00434768
0.0041027
0.0038781
0.00367169
0.00348157
0.00330606
0.0031437
0.00299317
0.00285346
0.00448525
0.00421813
0.0039745
0.00375169
0.00354742
0.00335968
0.00318677
0.00302715
0.00287953
0.00274262
0.00261549
0.00405512
0.00380802
0.00358328
0.00337837
0.00319106
0.00301945
0.00286184
0.00271687
0.00258312
0.00245977
0.00234469
0.00223758
0.00309804
0.00291779
0.00275466
0.00260659
0.00247181
0.00234896
0.00223655
0.00213373
0.00203877
0.00195293
0.00186787
0.00178833
0.00231184
0.00222941
0.00215393
0.00208465
0.00202149
0.00196343
0.00190954
0.00185937
0.00181294
0.00176992
0.00173011
0.00168925
0.00505337
0.00475049
0.00447423
0.00422159
0.00398999
0.00377717
0.00358115
0.00340022
0.00323286
0.00307771
0.00293373
0.00460966
0.00433479
0.00408416
0.00385502
0.00364499
0.00345201
0.0032743
0.00311028
0.00295858
0.00281794
0.00268742
0.00415737
0.00390463
0.0036749
0.00346553
0.00327422
0.00309898
0.00293808
0.00279002
0.00265344
0.00252727
0.00241023
0.00230174
0.00316773
0.00298376
0.00281719
0.00266591
0.00252817
0.0024024
0.0022873
0.00218172
0.00208454
0.00199521
0.00191211
0.00183613
0.00231306
0.00222477
0.00214414
0.00207044
0.00200298
0.00194122
0.00188522
0.00183388
0.00178661
0.00174305
0.0017031
0.0016651
0.00490928
0.00461555
0.00434763
0.00410263
0.00387801
0.0036716
0.00348146
0.00330595
0.0031436
0.00299307
0.00285336
0.00448658
0.00422037
0.00397755
0.00375547
0.00355183
0.00336464
0.00319218
0.00303295
0.00288562
0.00274895
0.0026221
0.00405371
0.00381025
0.00358881
0.00338677
0.00320195
0.00303239
0.00287648
0.00273281
0.00260013
0.00247736
0.00236337
0.00225775
0.00310371
0.0029273
0.00276732
0.00262162
0.00248854
0.00236645
0.00225432
0.00215104
0.00205581
0.00196784
0.00188594
0.00181064
0.00225763
0.00217128
0.00209307
0.00202201
0.00195726
0.00189822
0.00184435
0.00179535
0.0017505
0.00170953
0.00167131
0.00163483
0.0044851
0.00421802
0.0039744
0.00375159
0.0035473
0.00335955
0.00318661
0.00302696
0.00287932
0.00274237
0.00261522
0.0041182
0.00387554
0.00365393
0.00345105
0.00326482
0.00309351
0.0029356
0.00278976
0.00265482
0.00252952
0.00241327
0.00374249
0.00352053
0.00331813
0.00313281
0.00296295
0.0028066
0.00266281
0.00253007
0.00240748
0.0022937
0.00218783
0.00209008
0.00289588
0.00273446
0.00258728
0.00245184
0.00232792
0.00221305
0.0021079
0.00201002
0.00192024
0.00183645
0.00175807
0.00168665
0.00216967
0.00209258
0.00202261
0.00195895
0.00190081
0.00184793
0.00179953
0.00175509
0.00171411
0.00167725
0.00164067
0.00160576
0.0038079
0.00358314
0.00337819
0.00319085
0.00301919
0.00286156
0.00271653
0.00258274
0.00245937
0.0023442
0.00223707
0.00352473
0.00331842
0.00312983
0.00295721
0.00279869
0.00265304
0.002519
0.00239518
0.00228093
0.00217423
0.00207605
0.00323693
0.00304504
0.00287008
0.00270865
0.00256177
0.00242549
0.00230189
0.00218616
0.00208068
0.00198056
0.00189014
0.00180598
0.00252316
0.00237961
0.0022507
0.00212656
0.00201944
0.00191216
0.00182249
0.00173193
0.00165563
0.00157791
0.00151002
0.0014475
0.00208896
0.00202636
0.00196867
0.00191706
0.0018635
0.0018145
0.0017719
0.00173191
0.00169521
0.00166039
0.0016277
0.00159725
0.00291784
0.00275449
0.00260626
0.00247145
0.00234852
0.00223613
0.00213326
0.00203829
0.00195247
0.00186717
0.00178756
0.00273818
0.00258806
0.00245156
0.00232739
0.0022136
0.00210981
0.00201517
0.00192627
0.00184769
0.00177039
0.00170272
0.00256635
0.0024223
0.00229853
0.0021786
0.00207604
0.00197568
0.00189003
0.00180601
0.00173258
0.00165965
0.00159334
0.00153265
0.00204784
0.00193096
0.00183229
0.00173691
0.00165694
0.00157807
0.00151186
0.0014464
0.00139034
0.00133067
0.00127637
0.00123133
0.00208389
0.00203462
0.00198152
0.00193292
0.0018888
0.00184654
0.00180837
0.00177175
0.0017382
0.00170622
0.00167625
0.00164839
0.002229
0.00215349
0.0020842
0.00202105
0.001963
0.00190913
0.001859
0.00181258
0.00176959
0.00172971
0.00168885
0.00219455
0.00212814
0.00206709
0.00201059
0.00195821
0.00191067
0.00186443
0.00181804
0.00177655
0.00173808
0.00170189
0.00220569
0.0021471
0.002096
0.00204128
0.00199191
0.00194627
0.00190517
0.0018661
0.00182908
0.001794
0.00175818
0.00172503
0.00215117
0.00210148
0.0020566
0.00201126
0.00196919
0.00192933
0.00189292
0.00185835
0.00182621
0.00179532
0.00176535
0.00173744
0.00240586
0.00236164
0.00231924
0.00227795
0.00223995
0.00220245
0.00216805
0.0021341
0.00210271
0.00207132
0.002041
0.00201243
)
;

boundaryField
{
    inlet
    {
        type            fixedValue;
        value           nonuniform List<scalar> 0();
    }
    ami1
    {
        type            cyclicAMI;
        value           nonuniform List<scalar> 0();
    }
    walls
    {
        type            kqRWallFunction;
        value           nonuniform List<scalar> 
259
(
0.00208858
0.00208415
0.00240637
0.00222495
0.00217115
0.00209204
0.00202611
0.00203542
0.00236268
0.0021443
0.00209294
0.00202212
0.00196832
0.00198161
0.00231948
0.00207058
0.00202188
0.00195851
0.0019169
0.00193375
0.00227883
0.00200311
0.00195713
0.0019004
0.00186321
0.00188884
0.00224012
0.00194132
0.00189808
0.00184755
0.00181421
0.00184707
0.0022035
0.00188528
0.0018442
0.00179915
0.00177159
0.00180851
0.0021683
0.0018339
0.00179518
0.00175474
0.00173169
0.00177218
0.00213506
0.00178659
0.00175031
0.00171374
0.00169491
0.00173855
0.0021032
0.00174299
0.00170932
0.00167692
0.00166028
0.00170664
0.00207208
0.001703
0.00167106
0.00164027
0.00162739
0.00167658
0.00204145
0.00166499
0.00163457
0.00160543
0.001597
0.00164866
0.00201305
0.00240637
0.00215149
0.00220605
0.00226822
0.00231184
0.00231306
0.00225763
0.00216967
0.00208896
0.00208389
0.00240586
0.00236268
0.00210263
0.00214772
0.00219514
0.00222941
0.00222477
0.00217128
0.00209258
0.00202636
0.00203462
0.00236164
0.00231948
0.00205707
0.00209662
0.00212879
0.00215393
0.00214414
0.00209307
0.00202261
0.00196867
0.00198152
0.00231924
0.00227883
0.00201251
0.00204255
0.00206763
0.00208465
0.00207044
0.00202201
0.00195895
0.00191706
0.00193292
0.00227795
0.00224012
0.00196971
0.00199236
0.00201112
0.00202149
0.00200298
0.00195726
0.00190081
0.0018635
0.0018888
0.00223995
0.0022035
0.00193054
0.00194753
0.00195872
0.00196343
0.00194122
0.00189822
0.00184793
0.0018145
0.00184654
0.00220245
0.0021683
0.00189364
0.00190576
0.00191111
0.00190954
0.00188522
0.00184435
0.00179953
0.0017719
0.00180837
0.00216805
0.00213506
0.00185954
0.00186736
0.00186507
0.00185937
0.00183388
0.00179535
0.00175509
0.00173191
0.00177175
0.0021341
0.0021032
0.00182715
0.00182985
0.00181869
0.00181294
0.00178661
0.0017505
0.00171411
0.00169521
0.0017382
0.00210271
0.00207208
0.00179638
0.00179509
0.00177714
0.00176992
0.00174305
0.00170953
0.00167725
0.00166039
0.00170622
0.00207132
0.00204145
0.00176627
0.00175928
0.00173874
0.00173011
0.0017031
0.00167131
0.00164067
0.0016277
0.00167625
0.002041
0.00201305
0.00173835
0.00172617
0.00170259
0.00168925
0.0016651
0.00163483
0.00160576
0.00159725
0.00164839
0.00201243
0.00220569
0.00215117
0.00240586
0.002229
0.00219455
0.0021471
0.00210148
0.00236164
0.00215349
0.00212814
0.002096
0.0020566
0.00231924
0.0020842
0.00206709
0.00204128
0.00201126
0.00227795
0.00202105
0.00201059
0.00199191
0.00196919
0.00223995
0.001963
0.00195821
0.00194627
0.00192933
0.00220245
0.00190913
0.00191067
0.00190517
0.00189292
0.00216805
0.001859
0.00186443
0.0018661
0.00185835
0.0021341
0.00181258
0.00181804
0.00182908
0.00182621
0.00210271
0.00176959
0.00177655
0.001794
0.00179532
0.00207132
0.00172971
0.00173808
0.00175818
0.00176535
0.002041
0.00168885
0.00170189
0.00172503
0.00173744
0.00201243
)
;
    }
    ami2
    {
        type            cyclicAMI;
        value           nonuniform List<scalar> 0();
    }
    outlet
    {
        type            zeroGradient;
    }
    procBoundary9to0
    {
        type            processor;
        value           nonuniform List<scalar> 
40
(
0.00231486
0.0022583
0.00216954
0.00216954
0.00215893
0.00213576
0.00245038
0.00316865
0.00310484
0.00289709
0.00289709
0.00268217
0.00216444
0.0022032
0.00415735
0.00405419
0.00374361
0.00374361
0.00344907
0.00272856
0.00227254
0.0049115
0.00477921
0.00438547
0.00438547
0.00400137
0.00308893
0.00235033
0.00523146
0.00477852
0.00477852
0.00432707
0.00329717
0.00240448
0.00538549
0.00491139
0.00491139
0.00443586
0.0033712
0.00241174
)
;
    }
    procBoundary9to1
    {
        type            processor;
        value           nonuniform List<scalar> 
30
(
0.00523154
0.004779
0.004779
0.00432268
0.00329983
0.00235425
0.00477825
0.00438479
0.00438479
0.00398788
0.00307565
0.00225526
0.00405456
0.00375118
0.00375118
0.00344768
0.00268218
0.00215952
0.00309823
0.0029048
0.0029048
0.00272371
0.00216169
0.00213542
0.00231375
0.00226971
0.00226971
0.00227187
0.00220237
0.00244962
)
;
    }
    procBoundary9to7
    {
        type            processor;
        value           nonuniform List<scalar> 
59
(
0.00163198
0.00160204
0.00157242
0.00156629
0.00162057
0.00198373
0.00175931
0.00173726
0.00161302
0.00138363
0.00118191
0.001711
0.00220026
0.00215878
0.00199765
0.00172683
0.00147271
0.00169549
0.00256598
0.00250406
0.00230534
0.00198609
0.00163663
0.00166777
0.00272354
0.00249731
0.00213873
0.00171972
0.00165186
0.0027999
0.00256614
0.00220062
0.00175991
0.00163223
0.00272347
0.00250404
0.00215898
0.00173788
0.00160239
0.00249698
0.00230482
0.0019974
0.00161428
0.00157293
0.0021381
0.00198478
0.00172694
0.00138454
0.00156672
0.00171913
0.00163479
0.00147146
0.001181
0.00162039
0.00165139
0.00166701
0.00169462
0.00171033
0.00198342
)
;
    }
    procBoundary9to8
    {
        type            processor;
        value           nonuniform List<scalar> 
132
(
0.00222923
0.00215381
0.00208458
0.00202143
0.00196341
0.00190953
0.00185939
0.00181291
0.00176991
0.00173006
0.00168916
0.00291855
0.00275528
0.00260716
0.00247237
0.00234945
0.00223707
0.00213405
0.0020392
0.00195306
0.00186793
0.0017879
0.0038083
0.00358361
0.00337874
0.00319147
0.00301987
0.00286229
0.00271727
0.00258351
0.00246006
0.00234489
0.00223768
0.00448536
0.00421832
0.00397475
0.00375199
0.00354774
0.00336003
0.00318712
0.00302749
0.00287985
0.00274289
0.00261573
0.00505343
0.00475058
0.00447433
0.00422171
0.00399011
0.00377729
0.00358127
0.00340033
0.00323296
0.00307779
0.00293379
0.00505343
0.00475058
0.00447433
0.00422171
0.00399011
0.00377729
0.00358127
0.00340033
0.00323296
0.00307779
0.00293379
0.00520586
0.00489341
0.00460839
0.00434773
0.00410878
0.0038892
0.00368696
0.00350029
0.00332763
0.00316758
0.00301905
0.00505351
0.00475054
0.00447422
0.00422155
0.00398994
0.0037771
0.00358109
0.00340016
0.00323281
0.00307767
0.0029337
0.00460978
0.00433492
0.00408429
0.00385515
0.00364512
0.00345214
0.00327441
0.00311037
0.00295867
0.00281801
0.00268749
0.00390503
0.00367529
0.00346592
0.0032746
0.00309936
0.00293846
0.00279039
0.0026538
0.00252761
0.00241055
0.00230207
0.00298459
0.0028179
0.00266658
0.00252884
0.00240309
0.00228802
0.00218247
0.0020853
0.00199596
0.00191285
0.00183687
0.00222494
0.00214442
0.00207079
0.00200337
0.00194162
0.00188558
0.0018342
0.0017869
0.00174329
0.00170329
0.00166538
)
;
    }
}


// ************************************************************************* //
