/*--------------------------------*- C++ -*----------------------------------*\
| =========                 |                                                 |
| \\      /  F ield         | OpenFOAM: The Open Source CFD Toolbox           |
|  \\    /   O peration     | Version:  2212                                  |
|   \\  /    A nd           | Website:  www.openfoam.com                      |
|    \\/     M anipulation  |                                                 |
\*---------------------------------------------------------------------------*/
FoamFile
{
    version     2.0;
    format      ascii;
    arch        "LSB;label=32;scalar=64";
    class       volScalarField;
    location    "3";
    object      nut;
}
// * * * * * * * * * * * * * * * * * * * * * * * * * * * * * * * * * * * * * //

dimensions      [0 2 -1 0 0 0 0];

internalField   nonuniform List<scalar> 
682
(
1.73514e-05
1.70319e-05
1.67348e-05
1.64582e-05
1.62008e-05
1.59648e-05
1.57442e-05
1.55382e-05
1.53459e-05
1.51676e-05
1.49967e-05
1.65225e-05
1.6222e-05
1.5944e-05
1.56861e-05
1.5447e-05
1.52255e-05
1.50215e-05
1.48318e-05
1.46559e-05
1.44909e-05
1.43317e-05
1.44586e-05
1.42158e-05
1.39913e-05
1.37827e-05
1.35902e-05
1.34111e-05
1.32445e-05
1.3089e-05
1.29468e-05
1.28071e-05
1.26701e-05
1.16484e-05
1.14743e-05
1.13103e-05
1.11659e-05
1.10099e-05
1.08639e-05
1.07354e-05
1.06141e-05
1.0501e-05
1.03932e-05
1.02903e-05
1.01941e-05
7.98809e-06
7.89657e-06
7.79362e-06
7.70116e-06
7.61221e-06
7.52786e-06
7.44892e-06
7.37355e-06
7.30335e-06
7.23626e-06
7.17238e-06
7.11216e-06
4.00137e-06
3.96559e-06
3.92974e-06
3.89549e-06
3.86241e-06
3.83066e-06
3.79989e-06
3.77053e-06
3.74235e-06
3.71464e-06
3.68694e-06
3.661e-06
6.10529e-05
5.85333e-05
5.61833e-05
5.39818e-05
5.1915e-05
4.99731e-05
4.81447e-05
4.64151e-05
4.47898e-05
4.32219e-05
4.17515e-05
5.90887e-05
5.6744e-05
5.45321e-05
5.24462e-05
5.04694e-05
4.86009e-05
4.6829e-05
4.51531e-05
4.35622e-05
4.20241e-05
4.05849e-05
4.9972e-05
4.78588e-05
4.58373e-05
4.39341e-05
4.20938e-05
4.04177e-05
3.87537e-05
3.72704e-05
3.58013e-05
3.43767e-05
3.31934e-05
3.56715e-05
3.40004e-05
3.22664e-05
3.06224e-05
2.92273e-05
2.74531e-05
2.66441e-05
2.49845e-05
2.4234e-05
2.2773e-05
2.20017e-05
2.09496e-05
1.68271e-05
1.59994e-05
1.50559e-05
1.43111e-05
1.35377e-05
1.28957e-05
1.22712e-05
1.17128e-05
1.12108e-05
1.06711e-05
1.01125e-05
9.7513e-06
8.11939e-06
8.02703e-06
7.9402e-06
7.85429e-06
7.77038e-06
7.69237e-06
7.61795e-06
7.54842e-06
7.48185e-06
7.4184e-06
7.35574e-06
7.29705e-06
0.000108191
0.000104463
0.000100926
9.75642e-05
9.43727e-05
9.13375e-05
8.84388e-05
8.56622e-05
8.30095e-05
8.04127e-05
7.80626e-05
0.000104514
0.000100971
9.75862e-05
9.43567e-05
9.12675e-05
8.83186e-05
8.55098e-05
8.28084e-05
8.0228e-05
7.77086e-05
7.54336e-05
9.09922e-05
8.77189e-05
8.459e-05
8.1592e-05
7.8747e-05
7.60565e-05
7.34832e-05
7.091e-05
6.85036e-05
6.60667e-05
6.39949e-05
6.98206e-05
6.69348e-05
6.3949e-05
6.12439e-05
5.86281e-05
5.64386e-05
5.4185e-05
5.18703e-05
4.91529e-05
4.744e-05
4.49345e-05
4.39493e-05
3.49138e-05
3.40109e-05
3.18811e-05
3.08998e-05
2.90139e-05
2.81062e-05
2.65097e-05
2.57028e-05
2.42853e-05
2.35887e-05
2.22826e-05
2.16908e-05
1.19805e-05
1.18198e-05
1.16771e-05
1.15248e-05
1.13816e-05
1.12517e-05
1.11297e-05
1.10156e-05
1.0903e-05
1.07984e-05
1.06889e-05
1.05887e-05
0.00013924
0.000134925
0.000130828
0.000126926
0.000123203
0.000119644
0.000116236
0.000112961
0.000109813
0.000106749
0.00010393
0.000134419
0.000130243
0.000126271
0.000122491
0.000118889
0.000115451
0.000112159
0.000108987
0.000105932
0.000102958
0.000100217
0.000118836
0.000114924
0.00011119
0.000107624
0.000104203
0.000100945
9.78208e-05
9.48244e-05
9.19584e-05
8.91549e-05
8.66462e-05
9.37704e-05
9.01495e-05
8.67162e-05
8.34376e-05
8.03327e-05
7.73734e-05
7.45902e-05
7.19374e-05
6.92778e-05
6.68888e-05
6.43388e-05
6.26499e-05
5.03752e-05
4.8055e-05
4.58548e-05
4.38069e-05
4.18327e-05
4.00528e-05
3.82878e-05
3.68872e-05
3.50846e-05
3.42842e-05
3.25591e-05
3.18988e-05
1.50704e-05
1.48236e-05
1.45969e-05
1.43836e-05
1.41839e-05
1.3996e-05
1.38246e-05
1.3653e-05
1.34802e-05
1.33247e-05
1.31786e-05
1.30398e-05
0.000151026
0.000146478
0.000142165
0.000138063
0.00013415
0.000130409
0.000126826
0.000123385
0.000120074
0.000116869
0.000113892
0.000134197
0.000129952
0.000125921
0.000122084
0.000118423
0.000114925
0.000111578
0.000108368
0.000105288
0.000102289
9.95291e-05
0.000107311
0.000103389
9.96731e-05
9.61483e-05
9.28036e-05
8.96252e-05
8.6605e-05
8.37319e-05
8.09942e-05
7.83992e-05
7.5822e-05
7.34923e-05
5.98555e-05
5.71849e-05
5.46879e-05
5.23566e-05
5.01807e-05
4.81538e-05
4.62547e-05
4.4491e-05
4.28147e-05
4.13183e-05
3.96383e-05
3.80679e-05
1.70645e-05
1.6755e-05
1.64666e-05
1.61976e-05
1.59495e-05
1.57165e-05
1.54971e-05
1.52902e-05
1.50961e-05
1.49151e-05
1.47426e-05
1.4566e-05
0.000156426
0.000151763
0.000147345
0.000143144
0.000139139
0.000135312
0.000131647
0.000128128
0.000124743
0.000121466
0.000118408
0.000139238
0.000134921
0.000130825
0.000126931
0.000123219
0.000119675
0.000116285
0.000113032
0.00010991
0.000106878
0.000104076
0.000112121
0.000108182
0.000104451
0.000100914
9.75578e-05
9.43737e-05
9.13491e-05
8.84622e-05
8.57011e-05
8.30632e-05
8.04909e-05
7.81442e-05
6.37833e-05
6.10501e-05
5.85244e-05
5.6173e-05
5.39735e-05
5.19108e-05
4.9974e-05
4.8152e-05
4.6429e-05
4.48118e-05
4.32519e-05
4.17955e-05
1.76941e-05
1.73506e-05
1.70313e-05
1.67342e-05
1.64577e-05
1.62005e-05
1.59645e-05
1.57441e-05
1.55382e-05
1.53461e-05
1.51679e-05
1.4997e-05
0.000151021
0.000146472
0.000142159
0.000138056
0.000134142
0.000130402
0.000126819
0.000123378
0.000120068
0.000116864
0.00011389
0.000134419
0.000130239
0.000126264
0.000122484
0.000118882
0.000115446
0.000112158
0.00010899
0.00010594
0.000102971
0.000100237
0.000108252
0.00010453
0.000100975
9.75828e-05
9.43545e-05
9.12637e-05
8.83228e-05
8.55132e-05
8.28241e-05
8.02412e-05
7.77415e-05
7.54617e-05
6.16322e-05
5.91149e-05
5.67559e-05
5.45371e-05
5.24512e-05
5.04744e-05
4.86092e-05
4.68387e-05
4.51676e-05
4.35761e-05
4.20477e-05
4.06045e-05
1.68484e-05
1.6523e-05
1.62226e-05
1.59446e-05
1.56867e-05
1.54476e-05
1.52262e-05
1.50222e-05
1.48325e-05
1.46567e-05
1.44918e-05
1.43326e-05
0.0001342
0.000129952
0.000125916
0.000122071
0.000118399
0.000114891
0.000111532
0.000108309
0.000105217
0.000102198
9.94339e-05
0.00011884
0.000114918
0.000111175
0.0001076
0.000104173
0.000100911
9.77807e-05
9.47827e-05
9.19116e-05
8.9101e-05
8.65923e-05
9.44484e-05
9.10194e-05
8.77386e-05
8.45718e-05
8.15876e-05
7.86977e-05
7.60474e-05
7.34282e-05
7.09216e-05
6.84066e-05
6.61138e-05
6.39259e-05
5.22655e-05
5.00283e-05
4.79024e-05
4.58451e-05
4.39575e-05
4.21022e-05
4.04343e-05
3.87592e-05
3.72944e-05
3.5782e-05
3.44291e-05
3.31707e-05
1.47231e-05
1.44603e-05
1.42173e-05
1.39926e-05
1.37839e-05
1.35912e-05
1.34121e-05
1.32454e-05
1.309e-05
1.29477e-05
1.28078e-05
1.26707e-05
0.000103401
9.96775e-05
9.61433e-05
9.27887e-05
8.95993e-05
8.65705e-05
8.36892e-05
8.09397e-05
7.83382e-05
7.57362e-05
7.34122e-05
9.01284e-05
8.66811e-05
8.33844e-05
8.02722e-05
7.72827e-05
7.45201e-05
7.18334e-05
6.9225e-05
6.67585e-05
6.42601e-05
6.25228e-05
6.989e-05
6.68214e-05
6.39762e-05
6.10402e-05
5.86978e-05
5.60841e-05
5.42021e-05
5.15295e-05
4.94213e-05
4.66954e-05
4.5518e-05
4.33319e-05
3.57276e-05
3.39032e-05
3.23482e-05
3.04217e-05
2.93248e-05
2.74089e-05
2.66311e-05
2.49316e-05
2.42187e-05
2.26909e-05
2.20105e-05
2.09062e-05
1.16494e-05
1.14747e-05
1.13107e-05
1.11654e-05
1.10098e-05
1.08638e-05
1.07353e-05
1.06138e-05
1.0501e-05
1.03925e-05
1.02903e-05
1.01938e-05
5.7143e-05
5.46592e-05
5.2329e-05
5.01548e-05
4.81246e-05
4.62275e-05
4.44578e-05
4.27799e-05
4.12797e-05
3.95751e-05
3.80215e-05
4.79475e-05
4.5779e-05
4.37047e-05
4.17719e-05
3.99255e-05
3.82706e-05
3.67381e-05
3.51293e-05
3.41231e-05
3.24471e-05
3.17811e-05
3.53597e-05
3.34127e-05
3.22364e-05
3.02477e-05
2.93007e-05
2.75541e-05
2.67064e-05
2.52332e-05
2.44561e-05
2.31628e-05
2.23959e-05
2.14128e-05
1.68284e-05
1.58678e-05
1.50699e-05
1.41941e-05
1.35362e-05
1.2804e-05
1.22543e-05
1.16424e-05
1.11743e-05
1.06111e-05
1.00797e-05
9.70558e-06
7.98761e-06
7.89443e-06
7.79227e-06
7.69826e-06
7.6109e-06
7.52558e-06
7.44745e-06
7.37161e-06
7.30154e-06
7.23425e-06
7.17062e-06
7.11055e-06
1.67544e-05
1.64658e-05
1.61966e-05
1.59486e-05
1.57157e-05
1.54963e-05
1.52896e-05
1.50956e-05
1.49148e-05
1.47419e-05
1.45653e-05
1.48228e-05
1.45946e-05
1.43818e-05
1.41823e-05
1.39945e-05
1.38233e-05
1.36509e-05
1.3478e-05
1.33228e-05
1.31764e-05
1.30375e-05
1.19797e-05
1.18183e-05
1.16755e-05
1.15212e-05
1.13803e-05
1.1248e-05
1.11279e-05
1.10117e-05
1.09005e-05
1.0795e-05
1.06855e-05
1.05848e-05
8.11904e-06
8.02464e-06
7.93879e-06
7.85129e-06
7.76876e-06
7.68931e-06
7.61584e-06
7.54542e-06
7.47934e-06
7.41549e-06
7.35329e-06
7.29456e-06
4.00081e-06
3.9644e-06
3.92915e-06
3.89435e-06
3.86184e-06
3.82937e-06
3.7993e-06
3.76932e-06
3.74151e-06
3.71356e-06
3.68618e-06
3.66006e-06
)
;

boundaryField
{
    inlet
    {
        type            calculated;
        value           nonuniform List<scalar> 0();
    }
    ami1
    {
        type            cyclicAMI;
        value           nonuniform List<scalar> 0();
    }
    walls
    {
        type            nutkWallFunction;
        blending        stepwise;
        value           uniform 0;
    }
    ami2
    {
        type            cyclicAMI;
        value           nonuniform List<scalar> 0();
    }
    outlet
    {
        type            calculated;
        value           nonuniform List<scalar> 0();
    }
    procBoundary9to0
    {
        type            processor;
        value           nonuniform List<scalar> 
40
(
1.76995e-05
1.68491e-05
1.47218e-05
1.47218e-05
1.18398e-05
8.08335e-06
4.03719e-06
6.38596e-05
6.17093e-05
5.23364e-05
5.23364e-05
3.79383e-05
1.82895e-05
8.216e-06
0.000112074
0.000108247
9.44895e-05
9.44895e-05
7.32451e-05
3.78665e-05
1.21605e-05
0.000143723
0.000138777
0.000122933
0.000122933
9.75093e-05
5.31442e-05
1.5343e-05
0.000155772
0.000138616
0.000138616
0.000111328
6.28876e-05
1.74057e-05
0.000161298
0.000143737
0.000143737
0.0001162
6.68545e-05
1.80687e-05
)
;
    }
    procBoundary9to1
    {
        type            processor;
        value           nonuniform List<scalar> 
30
(
0.000155776
0.000138784
0.000138784
0.000112162
6.4463e-05
1.72029e-05
0.000138596
0.000122906
0.000122906
9.81076e-05
5.48275e-05
1.50082e-05
0.000107219
9.36839e-05
9.36839e-05
7.31675e-05
3.79242e-05
1.18413e-05
5.99364e-05
5.04636e-05
5.04636e-05
3.75778e-05
1.82229e-05
8.08233e-06
1.7072e-05
1.50759e-05
1.50759e-05
1.21588e-05
8.21427e-06
4.03645e-06
)
;
    }
    procBoundary9to7
    {
        type            processor;
        value           nonuniform List<scalar> 
59
(
1.48443e-05
1.41871e-05
1.25387e-05
1.00957e-05
7.05092e-06
3.63389e-06
4.00474e-05
3.90013e-05
3.12882e-05
1.99059e-05
9.0503e-06
7.23871e-06
7.55065e-05
7.29306e-05
6.15084e-05
4.1304e-05
2.02941e-05
1.04908e-05
0.000100864
9.72562e-05
8.39859e-05
6.0801e-05
3.00621e-05
1.29042e-05
0.000110668
9.65731e-05
7.11214e-05
3.65996e-05
1.44024e-05
0.000115096
0.000101051
7.56427e-05
4.0106e-05
1.48452e-05
0.000110664
9.72822e-05
7.29906e-05
3.90481e-05
1.41883e-05
9.64497e-05
8.39218e-05
6.15769e-05
3.14613e-05
1.25399e-05
7.10041e-05
6.07294e-05
4.2014e-05
1.99865e-05
1.00961e-05
3.65236e-05
2.99993e-05
2.04701e-05
9.03763e-06
7.04953e-06
1.44016e-05
1.29017e-05
1.04884e-05
7.23665e-06
3.63324e-06
)
;
    }
    procBoundary9to8
    {
        type            processor;
        value           nonuniform List<scalar> 
132
(
1.67547e-05
1.64664e-05
1.61975e-05
1.59495e-05
1.57167e-05
1.54972e-05
1.52904e-05
1.50961e-05
1.49152e-05
1.47426e-05
1.45657e-05
5.7164e-05
5.46887e-05
5.23664e-05
5.01931e-05
4.81626e-05
4.6264e-05
4.44855e-05
4.28175e-05
4.1294e-05
3.96295e-05
3.79914e-05
0.000103393
9.96827e-05
9.61629e-05
9.28186e-05
8.96355e-05
8.66086e-05
8.37268e-05
8.09768e-05
7.83676e-05
7.57691e-05
7.34245e-05
0.000134193
0.000129953
0.000125926
0.000122088
0.000118423
0.000114919
0.000111562
0.000108339
0.000105247
0.000102226
9.94558e-05
0.000156436
0.000151773
0.000147352
0.000143148
0.000139138
0.000135305
0.000131632
0.000128104
0.000124709
0.000121418
0.000118354
0.000156436
0.000151773
0.000147352
0.000143148
0.000139138
0.000135305
0.000131632
0.000128104
0.000124709
0.000121418
0.000118354
0.000162009
0.000157229
0.000152701
0.000148398
0.000144298
0.000140382
0.000136632
0.000133033
0.000129572
0.000126225
0.000123089
0.000156432
0.00015177
0.000147352
0.000143152
0.00013915
0.000135326
0.000131665
0.000128153
0.000124776
0.000121508
0.000118459
0.000139253
0.000134937
0.00013084
0.000126942
0.000123225
0.000119676
0.00011628
0.000113022
0.000109894
0.000106855
0.000104053
0.000108206
0.000104477
0.000100941
9.7583e-05
9.43967e-05
9.13695e-05
8.84803e-05
8.57163e-05
8.3078e-05
8.04989e-05
7.8157e-05
6.10544e-05
5.85414e-05
5.61997e-05
5.40062e-05
5.19476e-05
5.00131e-05
4.81928e-05
4.64704e-05
4.48519e-05
4.3291e-05
4.18301e-05
1.73524e-05
1.70337e-05
1.6737e-05
1.64608e-05
1.62038e-05
1.59678e-05
1.57473e-05
1.55415e-05
1.53492e-05
1.51708e-05
1.50007e-05
)
;
    }
}


// ************************************************************************* //
