/*--------------------------------*- C++ -*----------------------------------*\
| =========                 |                                                 |
| \\      /  F ield         | OpenFOAM: The Open Source CFD Toolbox           |
|  \\    /   O peration     | Version:  2212                                  |
|   \\  /    A nd           | Website:  www.openfoam.com                      |
|    \\/     M anipulation  |                                                 |
\*---------------------------------------------------------------------------*/
FoamFile
{
    version     2.0;
    format      ascii;
    arch        "LSB;label=32;scalar=64";
    class       volScalarField;
    location    "3";
    object      p;
}
// * * * * * * * * * * * * * * * * * * * * * * * * * * * * * * * * * * * * * //

dimensions      [0 2 -2 0 0 0 0];

internalField   nonuniform List<scalar> 
682
(
0.00323148
0.00309896
0.0029679
0.0028383
0.00270996
0.00258284
0.00245695
0.00233231
0.00220893
0.00208675
0.00196582
0.00322854
0.00309641
0.00296573
0.00283668
0.00270894
0.0025823
0.00245687
0.00233269
0.00220974
0.00208793
0.00196734
0.00322375
0.00309199
0.00296128
0.00283238
0.00270502
0.00257897
0.00245413
0.00233038
0.00220786
0.00208637
0.00196644
0.00334888
0.00321788
0.00308902
0.00296174
0.00283486
0.0027076
0.00258136
0.00245651
0.00233261
0.0022099
0.0020879
0.00196775
0.00336468
0.00323324
0.00310449
0.00297724
0.00284955
0.00272134
0.00259417
0.00246844
0.00234407
0.00222107
0.00209854
0.0019778
0.00336759
0.00323336
0.00310132
0.00297071
0.00284104
0.00271193
0.00258435
0.0024584
0.00233391
0.00221091
0.00208873
0.00196888
0.00324519
0.00311235
0.00298074
0.00285036
0.00272126
0.00259345
0.00246691
0.00234167
0.00221764
0.00209471
0.00197283
0.00324521
0.00311111
0.00297855
0.00284756
0.00271823
0.00259038
0.00246385
0.00233864
0.00221478
0.00209219
0.00197054
0.00323608
0.00310204
0.0029696
0.00283908
0.00271087
0.00258408
0.00245841
0.00233389
0.00221053
0.00208847
0.0019672
0.00336073
0.00322788
0.00309515
0.00296326
0.00283337
0.00270572
0.00257969
0.002455
0.00233096
0.00220787
0.00208604
0.00196555
0.00337868
0.00324456
0.00311229
0.00298133
0.00285165
0.00272261
0.00259515
0.00246934
0.00234466
0.00222131
0.00209888
0.00197821
0.00336807
0.00323115
0.00309654
0.00296382
0.00283261
0.00270276
0.00257485
0.00244874
0.0023242
0.00220122
0.00207965
0.00196077
0.00319921
0.00306751
0.00293718
0.00280796
0.00267998
0.00255326
0.00242779
0.0023035
0.00218035
0.00205831
0.00193721
0.00320047
0.00306783
0.00293663
0.00280691
0.00267865
0.0025518
0.00242631
0.00230217
0.00217922
0.00205745
0.00193655
0.00319747
0.00306509
0.00293424
0.00280505
0.00267753
0.00255108
0.00242565
0.00230177
0.00217915
0.0020579
0.00193714
0.00332875
0.00319733
0.0030663
0.0029364
0.00280778
0.00268104
0.00255518
0.00243019
0.00230644
0.00218376
0.00206242
0.00194156
0.00336134
0.00322867
0.00309703
0.00296655
0.0028371
0.0027089
0.00258209
0.00245683
0.00233211
0.00220832
0.00208549
0.00196364
0.00335635
0.00321928
0.00308486
0.00295261
0.00282216
0.00269318
0.00256592
0.00244027
0.00231582
0.00219261
0.00207097
0.00195133
0.00318251
0.00305124
0.0029213
0.00279262
0.00266521
0.00253904
0.00241407
0.00229028
0.00216762
0.0020461
0.00192558
0.00318438
0.00305279
0.00292254
0.00279363
0.00266605
0.00253978
0.00241477
0.00229098
0.00216833
0.00204684
0.00192633
0.00318805
0.00305658
0.00292647
0.00279773
0.00267033
0.00254413
0.00241907
0.00229538
0.00217292
0.00205181
0.00193165
0.0033279
0.00319603
0.00306508
0.0029352
0.00280667
0.00267942
0.00255316
0.00242774
0.00230408
0.00218155
0.00206022
0.00193959
0.00336835
0.0032361
0.00310428
0.00297323
0.00284322
0.00271455
0.00258718
0.00246106
0.00233618
0.00221234
0.00208927
0.00196702
0.00336618
0.00323064
0.00309675
0.00296448
0.00283378
0.00270464
0.00257688
0.00245064
0.00232536
0.00220134
0.0020781
0.00195565
0.00317331
0.00304219
0.00291241
0.00278392
0.0026567
0.00253072
0.00240595
0.00228234
0.00215985
0.00203847
0.00191809
0.00318159
0.00305041
0.00292056
0.00279201
0.00266474
0.00253868
0.00241378
0.00229007
0.00216749
0.00204608
0.00192575
0.00332753
0.00319521
0.00306412
0.00293424
0.00280563
0.00267824
0.00255194
0.00242662
0.00230249
0.00217936
0.00205737
0.00193671
0.00337208
0.00323912
0.00310718
0.0029763
0.00284661
0.00271811
0.0025908
0.0024646
0.00233965
0.00221569
0.00209264
0.00197071
0.00336499
0.00323069
0.00309782
0.00296646
0.00283655
0.00270798
0.00258057
0.00245436
0.0023294
0.00220584
0.00208344
0.0019619
0.00317103
0.00304001
0.00291033
0.00278194
0.00265479
0.00252887
0.00240415
0.00228057
0.00215811
0.00203676
0.0019164
0.00318236
0.00305105
0.00292109
0.00279242
0.00266502
0.00253888
0.00241394
0.00229017
0.00216753
0.00204603
0.00192553
0.00333238
0.0031991
0.00306733
0.00293694
0.00280769
0.00267972
0.00255302
0.00242756
0.0023033
0.00218017
0.00205815
0.00193707
0.00337927
0.00324507
0.00311215
0.00298047
0.00285007
0.00272095
0.00259313
0.00246657
0.00234134
0.00221728
0.00209432
0.00197243
0.00336502
0.00323114
0.0030986
0.00296754
0.00283795
0.00270961
0.00258248
0.00245658
0.00233193
0.00220854
0.00208635
0.00196541
0.00317326
0.00304213
0.00291234
0.00278384
0.00265662
0.00253064
0.00240587
0.00228227
0.00215978
0.00203842
0.00191805
0.00318428
0.00305263
0.00292236
0.00279346
0.00266589
0.00253963
0.00241464
0.00229085
0.00216823
0.00204676
0.00192626
0.0033346
0.00320041
0.00306768
0.00293641
0.00280666
0.0026784
0.00255157
0.00242611
0.00230195
0.00217906
0.00205731
0.00193643
0.00338075
0.00324511
0.00311095
0.00297833
0.00284732
0.00271794
0.00259007
0.00246351
0.00233827
0.00221442
0.00209181
0.00197017
0.00336164
0.00322824
0.00309612
0.00296544
0.00283637
0.00270861
0.00258197
0.00245652
0.00233231
0.00220933
0.00208749
0.00196686
0.00318156
0.00305036
0.0029205
0.00279194
0.00266466
0.00253859
0.00241369
0.00228997
0.0021674
0.00204601
0.0019257
0.00318793
0.00305642
0.00292631
0.00279756
0.00267017
0.00254399
0.00241897
0.00229523
0.00217284
0.0020518
0.00193165
0.00333124
0.00319735
0.00306488
0.00293403
0.00280483
0.00267726
0.00255086
0.00242553
0.0023015
0.00217911
0.00205799
0.0019373
0.0033711
0.00323592
0.00310186
0.00296947
0.00283903
0.00271065
0.00258379
0.00245809
0.00233356
0.00221017
0.00208812
0.00196686
0.00335583
0.00322348
0.00309176
0.00296105
0.0028321
0.00270474
0.00257869
0.0024538
0.00233003
0.00220743
0.00208589
0.00196589
0.00319507
0.00306404
0.0029342
0.0028056
0.0026782
0.00255188
0.00242656
0.00230239
0.00217924
0.0020573
0.00193667
0.00319569
0.00306481
0.00293507
0.00280653
0.00267929
0.00255307
0.00242775
0.00230387
0.00218143
0.0020603
0.00193979
0.0033285
0.00319695
0.00306591
0.0029362
0.0028078
0.00268082
0.00255498
0.00243002
0.00230621
0.00218364
0.00206252
0.00194179
0.00336056
0.00322777
0.00309512
0.0029632
0.00283339
0.00270561
0.0025795
0.00245463
0.00233076
0.00220743
0.0020855
0.00196497
0.0033489
0.00321778
0.00308898
0.00296156
0.00283446
0.0027074
0.00258118
0.00245622
0.0023323
0.00220945
0.00208732
0.00196713
0.00323901
0.00310717
0.00297637
0.00284668
0.00271817
0.00259084
0.00246461
0.00233961
0.00221558
0.00209256
0.00197067
0.00323591
0.00310416
0.00297319
0.00284326
0.00271452
0.00258716
0.002461
0.0023361
0.00221216
0.0020892
0.001967
0.00336123
0.0032287
0.0030971
0.00296653
0.00283717
0.00270886
0.00258201
0.00245656
0.00233203
0.00220807
0.00208513
0.00196326
0.00337877
0.00324478
0.00311256
0.00298143
0.00285149
0.0027226
0.00259505
0.00246913
0.00234443
0.00222096
0.00209823
0.00197745
0.00336482
0.00323326
0.00310446
0.00297718
0.00284927
0.0027212
0.00259398
0.00246822
0.00234375
0.00222062
0.0020979
0.00197706
0.00323096
0.00309804
0.00296659
0.00283661
0.00270798
0.00258054
0.00245432
0.00232935
0.0022058
0.00208334
0.00196175
0.00323103
0.00309702
0.0029646
0.00283381
0.00270459
0.00257679
0.00245049
0.00232524
0.00220129
0.00207786
0.00195531
0.00335654
0.00321973
0.0030852
0.00295278
0.00282211
0.00269314
0.00256576
0.00244006
0.00231559
0.00219241
0.00207055
0.00195084
0.00336826
0.00323143
0.00309673
0.00296395
0.00283252
0.00270273
0.00257469
0.00244856
0.00232394
0.00220093
0.00207924
0.00196029
0.00336773
0.00323351
0.00310143
0.00297077
0.00284087
0.00271187
0.00258419
0.00245822
0.00233364
0.00221057
0.00208824
0.00196831
)
;

boundaryField
{
    inlet
    {
        type            zeroGradient;
    }
    ami1
    {
        type            cyclicAMI;
        value           nonuniform List<scalar> 0();
    }
    walls
    {
        type            zeroGradient;
    }
    ami2
    {
        type            cyclicAMI;
        value           nonuniform List<scalar> 0();
    }
    outlet
    {
        type            fixedValue;
        value           nonuniform List<scalar> 0();
    }
    procBoundary9to0
    {
        type            processor;
        value           nonuniform List<scalar> 
40
(
0.00336523
0.00336183
0.00335595
0.00335595
0.00347965
0.00349489
0.00350089
0.00337944
0.00338091
0.00337132
0.00337132
0.00349537
0.00351265
0.00350442
0.00333248
0.00333468
0.00333141
0.00333141
0.00346279
0.00349594
0.00349411
0.00331516
0.00331738
0.00332095
0.00332095
0.00346159
0.00350222
0.00350292
0.0033058
0.00331413
0.00331413
0.00346135
0.00350645
0.0035004
0.00330344
0.00331504
0.00331504
0.00346726
0.00351489
0.00350008
)
;
    }
    procBoundary9to1
    {
        type            processor;
        value           nonuniform List<scalar> 
30
(
0.00330577
0.00331731
0.00331731
0.0034706
0.0035181
0.0034963
0.00331409
0.00332085
0.00332085
0.00346741
0.00350847
0.00348886
0.00332745
0.00332774
0.00332774
0.00346311
0.00349526
0.0034796
0.00337208
0.00336831
0.00336831
0.00349594
0.00351221
0.00349477
0.00336515
0.00336638
0.00336638
0.0034936
0.00350414
0.00350066
)
;
    }
    procBoundary9to7
    {
        type            processor;
        value           nonuniform List<scalar> 
59
(
0.00184591
0.00184747
0.00184685
0.00184839
0.00185762
0.00184957
0.00185216
0.00185014
0.00184695
0.00184617
0.00185819
0.00184231
0.00181726
0.00181703
0.00181814
0.00182258
0.00184345
0.00183245
0.0018061
0.00180687
0.00181241
0.00182025
0.00184662
0.00183432
0.00179874
0.00180646
0.00181744
0.0018503
0.00184104
0.00179707
0.00180606
0.00181713
0.00185176
0.00184548
0.00179872
0.0018068
0.00181686
0.00184972
0.00184702
0.00180642
0.00181233
0.00181813
0.00184652
0.00184643
0.00181742
0.00182043
0.00182272
0.00184561
0.001848
0.00185028
0.00184666
0.00184314
0.0018575
0.00185695
0.00184088
0.00183403
0.00183188
0.00184173
0.00184896
)
;
    }
    procBoundary9to8
    {
        type            processor;
        value           nonuniform List<scalar> 
132
(
0.0032311
0.0030983
0.00296687
0.00283692
0.00270835
0.00258095
0.00245471
0.00232978
0.00220616
0.00208372
0.00196215
0.0032392
0.00310741
0.00297664
0.00284696
0.00271846
0.00259112
0.00246499
0.00233993
0.00221606
0.00209313
0.00197124
0.00319534
0.0030644
0.00293463
0.00280602
0.00267859
0.00255224
0.00242692
0.0023027
0.0021796
0.00205758
0.00193694
0.00318184
0.00305071
0.00292089
0.00279233
0.00266502
0.00253892
0.00241399
0.00229023
0.00216762
0.00204618
0.00192582
0.00317111
0.0030401
0.00291042
0.00278203
0.00265488
0.00252895
0.00240421
0.00228063
0.00215816
0.00203679
0.00191642
0.00317111
0.0030401
0.00291042
0.00278203
0.00265488
0.00252895
0.00240421
0.00228063
0.00215816
0.00203679
0.00191642
0.00316784
0.00303701
0.00290747
0.00277919
0.00265212
0.00252627
0.0024016
0.00227807
0.00215566
0.00203434
0.00191402
0.00317105
0.00304003
0.00291034
0.00278195
0.0026548
0.00252887
0.00240414
0.00228056
0.0021581
0.00203674
0.00191639
0.0031824
0.0030511
0.00292113
0.00279245
0.00266503
0.00253886
0.00241391
0.00229013
0.00216748
0.00204598
0.00192549
0.00319909
0.00306738
0.00293704
0.00280779
0.00267978
0.00255306
0.00242757
0.00230329
0.00218014
0.00205811
0.00193704
0.00324507
0.00311223
0.0029806
0.00285018
0.00272104
0.00259321
0.00246662
0.00234138
0.00221732
0.00209437
0.00197251
0.00323135
0.00309874
0.00296757
0.00283792
0.00270955
0.00258242
0.00245652
0.00233189
0.00220851
0.00208632
0.00196539
)
;
    }
}


// ************************************************************************* //
