/*--------------------------------*- C++ -*----------------------------------*\
| =========                 |                                                 |
| \\      /  F ield         | OpenFOAM: The Open Source CFD Toolbox           |
|  \\    /   O peration     | Version:  2212                                  |
|   \\  /    A nd           | Website:  www.openfoam.com                      |
|    \\/     M anipulation  |                                                 |
\*---------------------------------------------------------------------------*/
FoamFile
{
    version     2.0;
    format      ascii;
    arch        "LSB;label=32;scalar=64";
    class       surfaceScalarField;
    location    "3";
    object      phi;
}
// * * * * * * * * * * * * * * * * * * * * * * * * * * * * * * * * * * * * * //

dimensions      [0 3 -1 0 0 0 0];

oriented        oriented;

internalField   nonuniform List<scalar> 
1786
(
7.8189e-07
-1.19506e-07
1.03855e-08
7.72885e-07
-1.19087e-07
1.01842e-08
7.6408e-07
-1.18733e-07
9.96399e-09
7.55513e-07
-1.18452e-07
9.72422e-09
7.47193e-07
-1.18245e-07
9.47751e-09
7.39119e-07
-1.1809e-07
9.23025e-09
7.31287e-07
-1.17971e-07
8.98512e-09
7.23696e-07
-1.17884e-07
8.74413e-09
7.16341e-07
-1.17828e-07
8.51115e-09
7.09204e-07
-1.17792e-07
8.2862e-09
-1.17778e-07
8.05909e-09
7.17751e-07
-1.10925e-07
1.35703e-09
7.08394e-07
-1.10604e-07
8.7407e-10
6.99579e-07
-1.10329e-07
4.10565e-10
6.91275e-07
-1.10131e-07
-1.67604e-11
6.83417e-07
-1.09975e-07
-4.11783e-10
6.75956e-07
-1.09847e-07
-7.82161e-10
6.68859e-07
-1.09744e-07
-1.12965e-09
6.6209e-07
-1.09669e-07
-1.44554e-09
6.55613e-07
-1.0962e-07
-1.73083e-09
6.49389e-07
-1.09578e-07
-1.9885e-09
-1.09564e-07
-2.22438e-09
5.74732e-07
-9.31987e-08
-9.53196e-09
5.67213e-07
-9.30284e-08
-1.00559e-08
5.6028e-07
-9.28352e-08
-1.05613e-08
5.53879e-07
-9.27095e-08
-1.10202e-08
5.47924e-07
-9.2589e-08
-1.14306e-08
5.42343e-07
-9.24798e-08
-1.17855e-08
5.37072e-07
-9.23888e-08
-1.20846e-08
5.32051e-07
-9.23172e-08
-1.23309e-08
5.27235e-07
-9.22632e-08
-1.25412e-08
5.2258e-07
-9.22035e-08
-1.27199e-08
-9.21551e-08
-1.29001e-08
3.98428e-07
-6.77579e-08
-2.031e-08
3.93477e-07
-6.76903e-08
-2.05572e-08
3.88865e-07
-6.75357e-08
-2.08803e-08
3.84605e-07
-6.73326e-08
-2.12423e-08
3.80591e-07
-6.71739e-08
-2.1522e-08
3.76767e-07
-6.70744e-08
-2.16897e-08
3.73107e-07
-6.69965e-08
-2.18241e-08
3.69594e-07
-6.69211e-08
-2.19546e-08
3.66199e-07
-6.68724e-08
-2.20493e-08
3.62914e-07
-6.68385e-08
-2.214e-08
3.59712e-07
-6.68098e-08
-2.21912e-08
-6.67742e-08
-2.22701e-08
2.13527e-07
-3.51764e-08
-2.99979e-08
2.10965e-07
-3.50896e-08
-3.00385e-08
2.08464e-07
-3.49895e-08
-3.00443e-08
2.06021e-07
-3.49025e-08
-2.9987e-08
2.03633e-07
-3.48269e-08
-2.99594e-08
2.01293e-07
-3.47862e-08
-2.99479e-08
1.99022e-07
-3.47585e-08
-2.99672e-08
1.96836e-07
-3.47343e-08
-3e-08
1.9471e-07
-3.47164e-08
-3.00301e-08
1.92642e-07
-3.47026e-08
-3.00683e-08
1.90602e-07
-3.47109e-08
-3.00584e-08
-3.47276e-08
-3.00587e-08
7.14323e-08
-3.42449e-08
7.04895e-08
-3.41468e-08
6.95677e-08
-3.40677e-08
6.86739e-08
-3.40087e-08
6.78112e-08
-3.39641e-08
6.69669e-08
-3.39417e-08
6.61475e-08
-3.39391e-08
6.53568e-08
-3.39436e-08
6.45864e-08
-3.39459e-08
6.38285e-08
-3.39447e-08
6.307e-08
-3.39523e-08
-3.39958e-08
1.21429e-06
-1.05881e-07
1.19399e-08
1.21331e-06
-1.05384e-07
1.17629e-08
1.21225e-06
-1.04934e-07
1.15697e-08
1.21117e-06
-1.04531e-07
1.13483e-08
1.21007e-06
-1.04183e-07
1.1119e-08
1.20897e-06
-1.03891e-07
1.08889e-08
1.20788e-06
-1.03647e-07
1.06615e-08
1.20681e-06
-1.03466e-07
1.04385e-08
1.20578e-06
-1.03324e-07
1.02176e-08
1.20479e-06
-1.03218e-07
1.0002e-08
-1.03128e-07
9.76686e-09
1.15709e-06
-9.76179e-08
-4.79641e-09
1.15514e-06
-9.72906e-08
-5.27302e-09
1.15336e-06
-9.70086e-08
-5.72893e-09
1.15174e-06
-9.67723e-08
-6.15703e-09
1.15029e-06
-9.65961e-08
-6.55491e-09
1.14901e-06
-9.64646e-08
-6.92643e-09
1.14788e-06
-9.63705e-08
-7.27461e-09
1.14689e-06
-9.63215e-08
-7.59763e-09
1.14602e-06
-9.62868e-08
-7.89668e-09
1.14525e-06
-9.62765e-08
-8.16687e-09
-9.62387e-08
-8.44077e-09
1.01296e-06
-8.18711e-08
-2.32666e-08
1.01127e-06
-8.18392e-08
-2.3809e-08
1.00983e-06
-8.18336e-08
-2.43057e-08
1.00862e-06
-8.1818e-08
-2.47573e-08
1.00758e-06
-8.18548e-08
-2.51375e-08
1.00669e-06
-8.18909e-08
-2.54611e-08
1.00589e-06
-8.19237e-08
-2.57409e-08
1.00518e-06
-8.19551e-08
-2.59863e-08
1.00453e-06
-8.19625e-08
-2.62141e-08
1.00394e-06
-8.20148e-08
-2.63914e-08
-8.20138e-08
-2.66116e-08
8.01376e-07
-5.97405e-08
-4.07104e-08
7.99855e-07
-5.98515e-08
-4.10553e-08
7.98482e-07
-5.99716e-08
-4.13751e-08
7.97178e-07
-6.01447e-08
-4.16266e-08
7.95946e-07
-6.02654e-08
-4.1843e-08
7.94725e-07
-6.03644e-08
-4.19595e-08
7.93481e-07
-6.04022e-08
-4.20678e-08
7.92202e-07
-6.04086e-08
-4.21916e-08
7.90888e-07
-6.04086e-08
-4.22814e-08
7.89549e-07
-6.03845e-08
-4.23788e-08
7.88166e-07
-6.04354e-08
-4.23881e-08
-6.04357e-08
-4.24359e-08
5.30881e-07
-3.17085e-08
-5.57251e-08
5.28518e-07
-3.177e-08
-5.57572e-08
5.26097e-07
-3.17951e-08
-5.57997e-08
5.23601e-07
-3.18301e-08
-5.58052e-08
5.21041e-07
-3.1855e-08
-5.58105e-08
5.1843e-07
-3.18779e-08
-5.58227e-08
5.15786e-07
-3.18727e-08
-5.58528e-08
5.13112e-07
-3.18557e-08
-5.58791e-08
5.1041e-07
-3.1843e-08
-5.5893e-08
5.07691e-07
-3.18299e-08
-5.59047e-08
5.04909e-07
-3.18625e-08
-5.58489e-08
-3.18721e-08
-5.58007e-08
2.26119e-07
-6.35229e-08
2.23667e-07
-6.34649e-08
2.2127e-07
-6.34651e-08
2.18928e-07
-6.34974e-08
2.16644e-07
-6.35348e-08
2.14406e-07
-6.35817e-08
2.12223e-07
-6.36293e-08
2.10093e-07
-6.36687e-08
2.07978e-07
-6.3674e-08
2.05846e-07
-6.3643e-08
2.03689e-07
-6.36572e-08
-6.37421e-08
1.50058e-06
-8.54177e-08
9.7452e-09
1.50428e-06
-8.51396e-08
9.58563e-09
1.50791e-06
-8.48895e-08
9.42033e-09
1.51144e-06
-8.46652e-08
9.24778e-09
1.51491e-06
-8.44662e-08
9.07288e-09
1.51831e-06
-8.42915e-08
8.90027e-09
1.52167e-06
-8.41388e-08
8.73365e-09
1.52498e-06
-8.40082e-08
8.57295e-09
1.52825e-06
-8.38989e-08
8.41628e-09
1.53149e-06
-8.38106e-08
8.26587e-09
-8.37357e-08
8.10835e-09
1.45056e-06
-7.98522e-08
-1.34009e-08
1.4536e-06
-7.96875e-08
-1.37653e-08
1.45665e-06
-7.95575e-08
-1.41145e-08
1.45973e-06
-7.94585e-08
-1.4444e-08
1.46285e-06
-7.93908e-08
-1.47487e-08
1.466e-06
-7.93435e-08
-1.50253e-08
1.46917e-06
-7.93073e-08
-1.52728e-08
1.47235e-06
-7.92863e-08
-1.54997e-08
1.47554e-06
-7.92764e-08
-1.57104e-08
1.47875e-06
-7.92853e-08
-1.59013e-08
-7.92864e-08
-1.60893e-08
1.31411e-06
-6.83921e-08
-3.74257e-08
1.3169e-06
-6.84514e-08
-3.78298e-08
1.31974e-06
-6.8519e-08
-3.81921e-08
1.32264e-06
-6.85955e-08
-3.85133e-08
1.32558e-06
-6.86865e-08
-3.87892e-08
1.32857e-06
-6.87601e-08
-3.90284e-08
1.33156e-06
-6.88031e-08
-3.92419e-08
1.33458e-06
-6.88604e-08
-3.94238e-08
1.33758e-06
-6.891e-08
-3.95827e-08
1.34059e-06
-6.8986e-08
-3.97065e-08
-6.90309e-08
-3.98297e-08
1.10073e-06
-5.16099e-08
-5.9666e-08
1.10303e-06
-5.18346e-08
-5.99178e-08
1.10533e-06
-5.1992e-08
-6.01306e-08
1.1076e-06
-5.21146e-08
-6.03025e-08
1.1098e-06
-5.22e-08
-6.04358e-08
1.11194e-06
-5.22636e-08
-6.05234e-08
1.11401e-06
-5.23018e-08
-6.05991e-08
1.11602e-06
-5.23252e-08
-6.06823e-08
1.11796e-06
-5.2354e-08
-6.07261e-08
1.11981e-06
-5.23739e-08
-6.0757e-08
1.12157e-06
-5.24047e-08
-6.07332e-08
-5.23875e-08
-6.07163e-08
8.19244e-07
-2.92225e-08
-7.84546e-08
8.19396e-07
-2.93342e-08
-7.84094e-08
8.19354e-07
-2.93661e-08
-7.83832e-08
8.19141e-07
-2.93594e-08
-7.8348e-08
8.18767e-07
-2.93258e-08
-7.83105e-08
8.18219e-07
-2.92789e-08
-7.82591e-08
8.17487e-07
-2.9222e-08
-7.8201e-08
8.16581e-07
-2.91647e-08
-7.81336e-08
8.15532e-07
-2.91368e-08
-7.80602e-08
8.14381e-07
-2.91334e-08
-7.79946e-08
8.13134e-07
-2.90786e-08
-7.79275e-08
-2.89017e-08
-7.78886e-08
4.36523e-07
-8.91352e-08
4.32797e-07
-8.90735e-08
4.28994e-07
-8.90282e-08
4.25121e-07
-8.89839e-08
4.21191e-07
-8.89304e-08
4.17216e-07
-8.88851e-08
4.13216e-07
-8.8851e-08
4.09207e-07
-8.88249e-08
4.05181e-07
-8.87845e-08
4.01134e-07
-8.87295e-08
3.97105e-07
-8.87064e-08
-8.87318e-08
1.7037e-06
-6.0062e-08
1.70997e-06
-5.997e-08
1.71612e-06
-5.98881e-08
1.72215e-06
-5.98172e-08
1.72807e-06
-5.97568e-08
1.7339e-06
-5.97047e-08
1.73963e-06
-5.96572e-08
1.74527e-06
-5.96143e-08
1.75084e-06
-5.95763e-08
1.75634e-06
-5.95445e-08
-5.95175e-08
1.65822e-06
-5.77133e-08
-2.16926e-08
1.66407e-06
-5.76782e-08
-2.19036e-08
1.66982e-06
-5.76576e-08
-2.21038e-08
1.6755e-06
-5.76491e-08
-2.22911e-08
1.68111e-06
-5.76508e-08
-2.24632e-08
1.68666e-06
-5.76568e-08
-2.26186e-08
1.69214e-06
-5.76599e-08
-2.2757e-08
1.69757e-06
-5.76636e-08
-2.28802e-08
1.70295e-06
-5.76686e-08
-2.299e-08
1.70827e-06
-5.7681e-08
-2.30855e-08
-5.76931e-08
-2.31748e-08
1.5281e-06
-5.09839e-08
-4.94408e-08
1.53333e-06
-5.10972e-08
-4.96364e-08
1.53849e-06
-5.12032e-08
-4.98074e-08
1.54358e-06
-5.1302e-08
-4.99543e-08
1.54861e-06
-5.13926e-08
-5.00767e-08
1.55358e-06
-5.14706e-08
-5.01767e-08
1.55846e-06
-5.15265e-08
-5.02592e-08
1.56328e-06
-5.15792e-08
-5.03235e-08
1.56801e-06
-5.1617e-08
-5.03721e-08
1.57269e-06
-5.16601e-08
-5.04006e-08
-5.16924e-08
-5.0421e-08
1.31768e-06
-3.98639e-08
-7.48799e-08
1.32181e-06
-4.01135e-08
-7.49197e-08
1.32583e-06
-4.03202e-08
-7.49288e-08
1.32972e-06
-4.04797e-08
-7.49173e-08
1.33347e-06
-4.06032e-08
-7.48886e-08
1.3371e-06
-4.06952e-08
-7.48431e-08
1.34059e-06
-4.07785e-08
-7.47849e-08
1.34393e-06
-4.08234e-08
-7.47259e-08
1.34715e-06
-4.08733e-08
-7.46515e-08
1.35023e-06
-4.08815e-08
-7.45745e-08
1.35319e-06
-4.0869e-08
-7.44838e-08
-4.08088e-08
-7.43962e-08
1.03642e-06
-2.37996e-08
-9.58475e-08
1.0375e-06
-2.39695e-08
-9.56304e-08
1.03829e-06
-2.40976e-08
-9.54037e-08
1.03883e-06
-2.41865e-08
-9.5178e-08
1.03911e-06
-2.4244e-08
-9.49535e-08
1.03917e-06
-2.42676e-08
-9.47377e-08
1.03899e-06
-2.42668e-08
-9.45331e-08
1.03861e-06
-2.42272e-08
-9.43518e-08
1.03803e-06
-2.41867e-08
-9.41712e-08
1.0373e-06
-2.41244e-08
-9.40186e-08
1.03644e-06
-2.40369e-08
-9.3898e-08
-2.39e-08
-9.38226e-08
6.28693e-07
-1.07817e-07
6.23252e-07
-1.07602e-07
6.17546e-07
-1.0742e-07
6.11612e-07
-1.07237e-07
6.05507e-07
-1.07069e-07
5.99286e-07
-1.06931e-07
5.92998e-07
-1.0683e-07
5.86696e-07
-1.06751e-07
5.80427e-07
-1.06701e-07
5.74242e-07
-1.0667e-07
5.68175e-07
-1.06676e-07
-1.06712e-07
1.78582e-06
-3.2802e-08
-2.80621e-08
1.79306e-06
-3.27745e-08
-2.8125e-08
1.80016e-06
-3.27512e-08
-2.81837e-08
1.80713e-06
-3.27305e-08
-2.82379e-08
1.81398e-06
-3.27114e-08
-2.8287e-08
1.8207e-06
-3.26922e-08
-2.83307e-08
1.82732e-06
-3.26707e-08
-2.83691e-08
1.83383e-06
-3.2647e-08
-2.84024e-08
1.84025e-06
-3.26205e-08
-2.8431e-08
1.84658e-06
-3.25936e-08
-2.84549e-08
-3.25631e-08
-2.8476e-08
1.65968e-06
-3.12846e-08
-5.73206e-08
1.66591e-06
-3.13246e-08
-5.73205e-08
1.67202e-06
-3.13525e-08
-5.73139e-08
1.678e-06
-3.13684e-08
-5.73017e-08
1.68387e-06
-3.1372e-08
-5.72849e-08
1.68963e-06
-3.13623e-08
-5.72643e-08
1.69528e-06
-3.1337e-08
-5.72409e-08
1.70083e-06
-3.13013e-08
-5.72152e-08
1.70627e-06
-3.12507e-08
-5.7188e-08
1.71163e-06
-3.11905e-08
-5.71583e-08
-3.11214e-08
-5.71275e-08
1.45247e-06
-2.66949e-08
-8.40092e-08
1.45692e-06
-2.68274e-08
-8.38192e-08
1.46121e-06
-2.69207e-08
-8.36269e-08
1.46535e-06
-2.69748e-08
-8.34369e-08
1.46935e-06
-2.69981e-08
-8.32529e-08
1.4732e-06
-2.69943e-08
-8.3072e-08
1.47692e-06
-2.69665e-08
-8.28996e-08
1.4805e-06
-2.69131e-08
-8.27379e-08
1.48398e-06
-2.68433e-08
-8.25867e-08
1.48735e-06
-2.67423e-08
-8.24492e-08
1.49061e-06
-2.6612e-08
-8.23238e-08
-2.64651e-08
-8.22051e-08
1.1729e-06
-1.76786e-08
-1.05666e-07
1.17345e-06
-1.77778e-08
-1.05229e-07
1.17375e-06
-1.78272e-08
-1.04799e-07
1.17383e-06
-1.78384e-08
-1.04389e-07
1.1737e-06
-1.78138e-08
-1.04007e-07
1.17338e-06
-1.77569e-08
-1.0366e-07
1.17291e-06
-1.76706e-08
-1.03353e-07
1.17229e-06
-1.75576e-08
-1.03086e-07
1.17155e-06
-1.74247e-08
-1.02856e-07
1.17073e-06
-1.72794e-08
-1.02663e-07
1.16985e-06
-1.71197e-08
-1.02507e-07
-1.69469e-08
-1.02385e-07
7.56163e-07
-1.18643e-07
7.49037e-07
-1.18253e-07
7.417e-07
-1.17911e-07
7.34211e-07
-1.17586e-07
7.26639e-07
-1.1731e-07
7.19054e-07
-1.17104e-07
7.11505e-07
-1.16951e-07
7.04029e-07
-1.16832e-07
6.96647e-07
-1.16744e-07
6.89378e-07
-1.1668e-07
6.82226e-07
-1.16643e-07
-1.16646e-07
1.82895e-06
-6.08595e-09
-3.17885e-08
1.83656e-06
-5.97093e-09
-3.17619e-08
1.84402e-06
-5.85606e-09
-3.17394e-08
1.85133e-06
-5.74252e-09
-3.17205e-08
1.85851e-06
-5.63179e-09
-3.17046e-08
1.86555e-06
-5.52529e-09
-3.16907e-08
1.87248e-06
-5.42384e-09
-3.16777e-08
1.87929e-06
-5.32775e-09
-3.1665e-08
1.88601e-06
-5.23672e-09
-3.16525e-08
1.89262e-06
-5.15188e-09
-3.16407e-08
-5.06737e-09
-3.16286e-08
1.7037e-06
-9.74835e-09
-6.00694e-08
1.70998e-06
-9.5861e-09
-5.99797e-08
1.71613e-06
-9.41743e-09
-5.99002e-08
1.72215e-06
-9.24137e-09
-5.98314e-08
1.72807e-06
-9.06347e-09
-5.97724e-08
1.73389e-06
-8.8883e-09
-5.97207e-08
1.73962e-06
-8.71942e-09
-5.9673e-08
1.74526e-06
-8.55688e-09
-5.96287e-08
1.75083e-06
-8.39881e-09
-5.9589e-08
1.75632e-06
-8.24692e-09
-5.95558e-08
-8.08865e-09
-5.95273e-08
1.49678e-06
-1.21189e-08
-8.57214e-08
1.50059e-06
-1.19499e-08
-8.54237e-08
1.50429e-06
-1.17695e-08
-8.51483e-08
1.50791e-06
-1.15726e-08
-8.49013e-08
1.51145e-06
-1.13469e-08
-8.46801e-08
1.51491e-06
-1.11144e-08
-8.44832e-08
1.51831e-06
-1.08812e-08
-8.43094e-08
1.52166e-06
-1.06503e-08
-8.41571e-08
1.52497e-06
-1.04244e-08
-8.40254e-08
1.52823e-06
-1.02004e-08
-8.3915e-08
1.53147e-06
-9.98195e-09
-8.38269e-08
-9.74508e-09
-8.37524e-08
1.21521e-06
-1.05712e-08
-1.06423e-07
1.2143e-06
-1.03911e-08
-1.05884e-07
1.21331e-06
-1.01864e-08
-1.05391e-07
1.21226e-06
-9.96399e-09
-1.04945e-07
1.21117e-06
-9.72061e-09
-1.04547e-07
1.21007e-06
-9.47136e-09
-1.04203e-07
1.20897e-06
-9.22128e-09
-1.03912e-07
1.20788e-06
-8.97392e-09
-1.03668e-07
1.20681e-06
-8.7303e-09
-1.03486e-07
1.20579e-06
-8.49561e-09
-1.03341e-07
1.2048e-06
-8.2699e-09
-1.03233e-07
-8.04269e-09
-1.03144e-07
7.91016e-07
-1.19977e-07
7.81878e-07
-1.19506e-07
7.72875e-07
-1.19094e-07
7.64072e-07
-1.18747e-07
7.5551e-07
-1.18469e-07
7.47196e-07
-1.18262e-07
7.39132e-07
-1.18107e-07
7.31314e-07
-1.17988e-07
7.23738e-07
-1.17899e-07
7.16402e-07
-1.17839e-07
7.09287e-07
-1.17799e-07
-1.17779e-07
1.78583e-06
2.16987e-08
-3.28082e-08
1.79308e-06
2.19123e-08
-3.27813e-08
1.80018e-06
2.21152e-08
-3.27587e-08
1.80715e-06
2.23052e-08
-3.27388e-08
1.81399e-06
2.24796e-08
-3.27202e-08
1.82072e-06
2.26366e-08
-3.27009e-08
1.82733e-06
2.27761e-08
-3.26788e-08
1.83385e-06
2.29002e-08
-3.26538e-08
1.84027e-06
2.30103e-08
-3.26255e-08
1.8466e-06
2.31056e-08
-3.25971e-08
2.31945e-08
-3.25651e-08
1.65824e-06
1.34005e-08
-5.77172e-08
1.66409e-06
1.37679e-08
-5.76823e-08
1.66985e-06
1.41205e-08
-5.76631e-08
1.67553e-06
1.44529e-08
-5.76563e-08
1.68113e-06
1.476e-08
-5.76595e-08
1.68668e-06
1.50388e-08
-5.76668e-08
1.69216e-06
1.5288e-08
-5.76711e-08
1.69759e-06
1.55172e-08
-5.76737e-08
1.70296e-06
1.57289e-08
-5.76779e-08
1.70828e-06
1.59208e-08
-5.76902e-08
1.61093e-08
-5.77026e-08
1.44753e-06
4.30107e-09
-8.0059e-08
1.45058e-06
4.78948e-09
-7.98559e-08
1.45362e-06
5.2702e-09
-7.96907e-08
1.45667e-06
5.73026e-09
-7.95631e-08
1.45975e-06
6.16091e-09
-7.9467e-08
1.46286e-06
6.56154e-09
-7.94013e-08
1.46601e-06
6.936e-09
-7.93557e-08
1.46918e-06
7.28704e-09
-7.93223e-08
1.47236e-06
7.61345e-09
-7.92976e-08
1.47554e-06
7.91557e-09
-7.92904e-08
1.47875e-06
8.19004e-09
-7.93025e-08
8.46445e-09
-7.93067e-08
1.15919e-06
-1.85593e-09
-9.80016e-08
1.15709e-06
-1.36089e-09
-9.76252e-08
1.15514e-06
-8.75008e-10
-9.72983e-08
1.15335e-06
-4.08661e-10
-9.70206e-08
1.15174e-06
2.17022e-11
-9.6791e-08
1.15029e-06
4.18442e-10
-9.66154e-08
1.14901e-06
7.90174e-10
-9.64848e-08
1.14788e-06
1.13939e-09
-9.63892e-08
1.14689e-06
1.45706e-09
-9.63379e-08
1.14602e-06
1.74515e-09
-9.63023e-08
1.14526e-06
2.00632e-09
-9.62885e-08
2.24498e-09
-9.62538e-08
7.27689e-07
-1.11281e-07
7.17755e-07
-1.10933e-07
7.08403e-07
-1.10617e-07
6.99593e-07
-1.10346e-07
6.91291e-07
-1.10145e-07
6.83438e-07
-1.0999e-07
6.75985e-07
-1.09864e-07
6.68898e-07
-1.09762e-07
6.62141e-07
-1.09685e-07
6.55678e-07
-1.09632e-07
6.4947e-07
-1.09584e-07
-1.09561e-07
1.65969e-06
4.94512e-08
-3.12897e-08
1.66593e-06
4.96495e-08
-3.13304e-08
1.67204e-06
4.98226e-08
-3.13598e-08
1.67803e-06
4.99713e-08
-3.13771e-08
1.6839e-06
5.00947e-08
-3.13819e-08
1.68966e-06
5.01952e-08
-3.13726e-08
1.69531e-06
5.02771e-08
-3.13474e-08
1.70086e-06
5.03423e-08
-3.13103e-08
1.70631e-06
5.03904e-08
-3.12575e-08
1.71167e-06
5.04169e-08
-3.1196e-08
5.04353e-08
-3.11256e-08
1.52815e-06
3.7429e-08
-5.09864e-08
1.53338e-06
3.78373e-08
-5.10988e-08
1.53855e-06
3.82017e-08
-5.12073e-08
1.54364e-06
3.85251e-08
-5.13076e-08
1.54868e-06
3.88029e-08
-5.14007e-08
1.55364e-06
3.90437e-08
-5.14805e-08
1.55853e-06
3.9256e-08
-5.15402e-08
1.56334e-06
3.94441e-08
-5.15888e-08
1.56808e-06
3.95997e-08
-5.1625e-08
1.57276e-06
3.9722e-08
-5.16688e-08
3.98417e-08
-5.17039e-08
1.31144e-06
2.26645e-08
-6.83407e-08
1.31415e-06
2.32597e-08
-6.83936e-08
1.31693e-06
2.38092e-08
-6.84495e-08
1.31979e-06
2.43085e-08
-6.85237e-08
1.32269e-06
2.47584e-08
-6.86023e-08
1.32564e-06
2.51424e-08
-6.86923e-08
1.32863e-06
2.54704e-08
-6.87689e-08
1.33163e-06
2.57529e-08
-6.88234e-08
1.33464e-06
2.60041e-08
-6.88609e-08
1.33764e-06
2.62343e-08
-6.89237e-08
1.34064e-06
2.64188e-08
-6.90043e-08
2.66311e-08
-6.90533e-08
1.01497e-06
8.95088e-09
-8.18965e-08
1.01296e-06
9.52268e-09
-8.18805e-08
1.01127e-06
1.00513e-08
-8.18456e-08
1.00984e-06
1.05619e-08
-8.18447e-08
1.00863e-06
1.10271e-08
-8.18465e-08
1.00759e-06
1.14357e-08
-8.1871e-08
1.00669e-06
1.17893e-08
-8.1906e-08
1.0059e-06
1.20889e-08
-8.1936e-08
1.00519e-06
1.23395e-08
-8.19664e-08
1.00454e-06
1.25524e-08
-8.197e-08
1.00396e-06
1.27384e-08
-8.20197e-08
1.29181e-08
-8.2023e-08
5.82953e-07
-9.33402e-08
5.74758e-07
-9.32158e-08
5.6724e-07
-9.30467e-08
5.60307e-07
-9.28505e-08
5.53905e-07
-9.27169e-08
5.47953e-07
-9.26022e-08
5.42375e-07
-9.24962e-08
5.37107e-07
-9.24049e-08
5.32093e-07
-9.23311e-08
5.27285e-07
-9.22716e-08
5.22645e-07
-9.2205e-08
-9.21515e-08
1.45693e-06
7.49345e-08
-2.68281e-08
1.46123e-06
7.49469e-08
-2.69261e-08
1.46537e-06
7.4936e-08
-2.69845e-08
1.46937e-06
7.49081e-08
-2.701e-08
1.47323e-06
7.48618e-08
-2.70078e-08
1.47695e-06
7.48028e-08
-2.69805e-08
1.48055e-06
7.47405e-08
-2.69269e-08
1.48403e-06
7.46691e-08
-2.68562e-08
1.48739e-06
7.45919e-08
-2.67511e-08
1.49066e-06
7.44971e-08
-2.6619e-08
7.44052e-08
-2.64702e-08
1.32189e-06
5.99247e-08
-4.01128e-08
1.32591e-06
6.01447e-08
-4.03233e-08
1.32982e-06
6.03138e-08
-4.04887e-08
1.33358e-06
6.04492e-08
-4.06144e-08
1.33721e-06
6.0541e-08
-4.07116e-08
1.34071e-06
6.06163e-08
-4.07927e-08
1.34407e-06
6.06884e-08
-4.08412e-08
1.34728e-06
6.0753e-08
-4.08893e-08
1.35036e-06
6.07692e-08
-4.08803e-08
1.35332e-06
6.07413e-08
-4.08674e-08
6.07205e-08
-4.08089e-08
1.10081e-06
4.07196e-08
-5.16165e-08
1.10312e-06
4.10515e-08
-5.18387e-08
1.10543e-06
4.13807e-08
-5.1993e-08
1.10771e-06
4.16276e-08
-5.21175e-08
1.10993e-06
4.18349e-08
-5.2209e-08
1.11208e-06
4.19684e-08
-5.22692e-08
1.11417e-06
4.20809e-08
-5.23172e-08
1.11618e-06
4.21979e-08
-5.23452e-08
1.11812e-06
4.23085e-08
-5.23624e-08
1.11995e-06
4.23964e-08
-5.23796e-08
1.1217e-06
4.24093e-08
-5.24149e-08
4.24537e-08
-5.23955e-08
8.01398e-07
2.03086e-08
-5.97351e-08
7.99882e-07
2.05517e-08
-5.98645e-08
7.98517e-07
2.08853e-08
-5.99856e-08
7.97208e-07
2.1246e-08
-6.01537e-08
7.9596e-07
2.15204e-08
-6.02841e-08
7.94731e-07
2.16968e-08
-6.037e-08
7.93488e-07
2.18309e-08
-6.04127e-08
7.9221e-07
2.19567e-08
-6.04172e-08
7.90903e-07
2.20629e-08
-6.04133e-08
7.89569e-07
2.21501e-08
-6.03905e-08
7.882e-07
2.22005e-08
-6.04411e-08
2.22758e-08
-6.04446e-08
3.98429e-07
-6.77649e-08
3.93466e-07
-6.77014e-08
3.88847e-07
-6.75424e-08
3.84586e-07
-6.73436e-08
3.80578e-07
-6.71876e-08
3.76756e-07
-6.70837e-08
3.73095e-07
-6.70037e-08
3.69578e-07
-6.69316e-08
3.66187e-07
-6.68776e-08
3.62909e-07
-6.68435e-08
3.59718e-07
-6.68131e-08
-6.67747e-08
1.17346e-06
9.56481e-08
-1.77821e-08
1.17376e-06
9.5421e-08
-1.78362e-08
1.17384e-06
9.51936e-08
-1.78489e-08
1.17371e-06
9.49675e-08
-1.78254e-08
1.17339e-06
9.47502e-08
-1.77687e-08
1.17291e-06
9.45454e-08
-1.76824e-08
1.17229e-06
9.43628e-08
-1.75689e-08
1.17156e-06
9.41835e-08
-1.74362e-08
1.17073e-06
9.40393e-08
-1.72907e-08
1.16985e-06
9.39178e-08
-1.71275e-08
9.38417e-08
-1.69503e-08
1.03757e-06
7.8424e-08
-2.39759e-08
1.03838e-06
7.83979e-08
-2.41112e-08
1.03892e-06
7.83649e-08
-2.42041e-08
1.03922e-06
7.83174e-08
-2.42582e-08
1.03927e-06
7.8273e-08
-2.42849e-08
1.03909e-06
7.8209e-08
-2.42795e-08
1.03871e-06
7.81462e-08
-2.4241e-08
1.03813e-06
7.80678e-08
-2.41975e-08
1.0374e-06
7.80219e-08
-2.41281e-08
1.03653e-06
7.79482e-08
-2.40314e-08
7.79138e-08
-2.3887e-08
8.19311e-07
5.57283e-08
-2.92257e-08
8.19474e-07
5.57595e-08
-2.93368e-08
8.19448e-07
5.5802e-08
-2.93706e-08
8.19246e-07
5.5817e-08
-2.93678e-08
8.18874e-07
5.5818e-08
-2.93373e-08
8.18325e-07
5.5838e-08
-2.92857e-08
8.17593e-07
5.58575e-08
-2.92337e-08
8.16684e-07
5.5888e-08
-2.91776e-08
8.15631e-07
5.59022e-08
-2.91439e-08
8.14481e-07
5.59247e-08
-2.91324e-08
8.13224e-07
5.58626e-08
-2.90721e-08
5.58177e-08
-2.88855e-08
5.30872e-07
3.00008e-08
-3.17098e-08
5.28496e-07
3.0041e-08
-3.17701e-08
5.26059e-07
3.00493e-08
-3.17953e-08
5.23553e-07
2.99969e-08
-3.18279e-08
5.20988e-07
2.99605e-08
-3.18616e-08
5.18373e-07
2.9959e-08
-3.1876e-08
5.15721e-07
2.99736e-08
-3.18763e-08
5.13042e-07
3.00077e-08
-3.18577e-08
5.1034e-07
3.00374e-08
-3.18462e-08
5.07627e-07
3.00777e-08
-3.18303e-08
5.04858e-07
3.006e-08
-3.18698e-08
3.00569e-08
-3.18815e-08
2.13476e-07
-3.51759e-08
2.1091e-07
-3.50938e-08
2.08411e-07
-3.4994e-08
2.05972e-07
-3.49075e-08
2.03579e-07
-3.48344e-08
2.01244e-07
-3.47899e-08
1.98976e-07
-3.47613e-08
1.96788e-07
-3.47367e-08
1.94667e-07
-3.47185e-08
1.92607e-07
-3.47056e-08
1.9057e-07
-3.4717e-08
-3.47347e-08
7.49002e-07
1.07605e-07
7.41658e-07
1.07419e-07
7.34162e-07
1.07236e-07
7.2658e-07
1.07067e-07
7.18984e-07
1.06932e-07
7.11421e-07
1.06832e-07
7.0393e-07
1.06757e-07
6.96533e-07
1.06709e-07
6.89251e-07
1.06676e-07
6.82084e-07
1.06692e-07
1.06738e-07
6.23184e-07
8.90793e-08
6.17465e-07
8.90269e-08
6.11518e-07
8.89787e-08
6.05398e-07
8.89288e-08
5.99164e-07
8.88819e-08
5.92864e-07
8.88523e-08
5.86551e-07
8.88286e-08
5.80269e-07
8.87936e-08
5.74073e-07
8.87441e-08
5.67996e-07
8.87377e-08
8.87731e-08
4.36439e-07
6.35231e-08
4.32705e-07
6.34757e-08
4.28885e-07
6.34768e-08
4.24993e-07
6.35028e-08
4.21047e-07
6.35378e-08
4.17059e-07
6.3584e-08
4.13048e-07
6.36297e-08
4.09031e-07
6.36677e-08
4.05002e-07
6.36785e-08
4.00959e-07
6.36547e-08
3.96948e-07
6.36766e-08
6.37682e-08
2.26041e-07
3.42441e-08
2.23594e-07
3.4152e-08
2.21201e-07
3.40746e-08
2.1886e-07
3.40156e-08
2.16568e-07
3.39686e-08
2.14329e-07
3.39466e-08
2.12142e-07
3.39413e-08
2.10006e-07
3.39454e-08
2.0789e-07
3.39484e-08
2.05764e-07
3.39501e-08
2.03612e-07
3.39596e-08
3.4004e-08
7.141e-08
7.04682e-08
6.95488e-08
6.8657e-08
6.77912e-08
6.69478e-08
6.61279e-08
6.53367e-08
6.45666e-08
6.38112e-08
6.30538e-08
)
;

boundaryField
{
    inlet
    {
        type            calculated;
        value           nonuniform List<scalar> 0();
    }
    ami1
    {
        type            cyclicAMI;
        value           nonuniform List<scalar> 0();
    }
    walls
    {
        type            calculated;
        value           nonuniform List<scalar> 
259
(
-1.84387e-14
-2.43942e-14
-2.90979e-14
1.34856e-21
-6.40674e-15
-1.28555e-14
-1.84387e-14
-2.43942e-14
-2.90979e-14
1.34856e-21
-6.40674e-15
-1.28555e-14
-1.84387e-14
-2.43942e-14
-2.90979e-14
1.34856e-21
-6.40674e-15
-1.28555e-14
-1.84387e-14
-2.43942e-14
-2.90979e-14
1.07792e-21
-6.40674e-15
-1.28555e-14
-1.84387e-14
-2.43942e-14
-2.90979e-14
1.34856e-21
-6.40674e-15
-1.28555e-14
-1.84387e-14
-2.43942e-14
-2.90979e-14
1.34856e-21
-6.40674e-15
-1.28555e-14
-1.84387e-14
-2.43942e-14
-2.90979e-14
1.3483e-21
-6.40674e-15
-1.28555e-14
-1.84387e-14
-2.43942e-14
-2.90979e-14
1.3483e-21
-6.40674e-15
-1.28555e-14
-1.84387e-14
-2.43942e-14
-2.90979e-14
1.3483e-21
-6.40674e-15
-1.28555e-14
-1.84387e-14
-2.43942e-14
-2.90979e-14
1.3483e-21
-6.40674e-15
-1.28555e-14
-1.84387e-14
-2.43942e-14
-2.90979e-14
1.07766e-21
-6.40674e-15
-1.28555e-14
-1.84387e-14
-2.43942e-14
-2.90979e-14
2.90979e-14
2.43942e-14
1.84387e-14
1.28555e-14
6.40674e-15
1.34856e-21
-6.40674e-15
-1.28555e-14
-1.84387e-14
-2.43942e-14
-2.90979e-14
2.90979e-14
2.43942e-14
1.84387e-14
1.28555e-14
6.40674e-15
1.34856e-21
-6.40674e-15
-1.28555e-14
-1.84387e-14
-2.43942e-14
-2.90979e-14
2.90979e-14
2.43942e-14
1.84387e-14
1.28555e-14
6.40674e-15
1.34856e-21
-6.40674e-15
-1.28555e-14
-1.84387e-14
-2.43942e-14
-2.90979e-14
2.90979e-14
2.43942e-14
1.84387e-14
1.28555e-14
6.40674e-15
1.34856e-21
-6.40674e-15
-1.28555e-14
-1.84387e-14
-2.43942e-14
-2.90979e-14
2.90979e-14
2.43942e-14
1.84387e-14
1.28555e-14
6.40674e-15
1.07792e-21
-6.40674e-15
-1.28555e-14
-1.84387e-14
-2.43942e-14
-2.90979e-14
2.90979e-14
2.43942e-14
1.84387e-14
1.28555e-14
6.40674e-15
1.34856e-21
-6.40674e-15
-1.28555e-14
-1.84387e-14
-2.43942e-14
-2.90979e-14
2.90979e-14
2.43942e-14
1.84387e-14
1.28555e-14
6.40674e-15
1.34856e-21
-6.40674e-15
-1.28555e-14
-1.84387e-14
-2.43942e-14
-2.90979e-14
2.90979e-14
2.43942e-14
1.84387e-14
1.28555e-14
6.40674e-15
1.3483e-21
-6.40674e-15
-1.28555e-14
-1.84387e-14
-2.43942e-14
-2.90979e-14
2.90979e-14
2.43942e-14
1.84387e-14
1.28555e-14
6.40674e-15
1.3483e-21
-6.40674e-15
-1.28555e-14
-1.84387e-14
-2.43942e-14
-2.90979e-14
2.90979e-14
2.43942e-14
1.84387e-14
1.28555e-14
6.40674e-15
1.3483e-21
-6.40674e-15
-1.28555e-14
-1.84387e-14
-2.43942e-14
-2.90979e-14
2.90979e-14
2.43942e-14
1.84387e-14
1.28555e-14
6.40674e-15
1.3483e-21
-6.40674e-15
-1.28555e-14
-1.84387e-14
-2.43942e-14
-2.90979e-14
2.90979e-14
2.43942e-14
1.84387e-14
1.28555e-14
6.40674e-15
1.07766e-21
-6.40674e-15
-1.28555e-14
-1.84387e-14
-2.43942e-14
-2.90979e-14
1.84387e-14
2.43942e-14
2.90979e-14
6.40674e-15
1.28555e-14
1.84387e-14
2.43942e-14
2.90979e-14
6.40674e-15
1.28555e-14
1.84387e-14
2.43942e-14
2.90979e-14
6.40674e-15
1.28555e-14
1.84387e-14
2.43942e-14
2.90979e-14
6.40674e-15
1.28555e-14
1.84387e-14
2.43942e-14
2.90979e-14
6.40674e-15
1.28555e-14
1.84387e-14
2.43942e-14
2.90979e-14
6.40674e-15
1.28555e-14
1.84387e-14
2.43942e-14
2.90979e-14
6.40674e-15
1.28555e-14
1.84387e-14
2.43942e-14
2.90979e-14
6.40674e-15
1.28555e-14
1.84387e-14
2.43942e-14
2.90979e-14
6.40674e-15
1.28555e-14
1.84387e-14
2.43942e-14
2.90979e-14
6.40674e-15
1.28555e-14
1.84387e-14
2.43942e-14
2.90979e-14
6.40674e-15
1.28555e-14
1.84387e-14
2.43942e-14
2.90979e-14
)
;
    }
    ami2
    {
        type            cyclicAMI;
        value           nonuniform List<scalar> 0();
    }
    outlet
    {
        type            calculated;
        value           nonuniform List<scalar> 0();
    }
    procBoundary9to0
    {
        type            processor;
        value           nonuniform List<scalar> 
40
(
-7.91032e-07
-7.27689e-07
-5.82926e-07
9.33283e-08
-4.03688e-07
-2.16111e-07
-7.23637e-08
-1.2152e-06
-1.1592e-06
-1.01498e-06
8.19033e-08
-8.03138e-07
-5.33185e-07
-2.28549e-07
-1.49678e-06
-1.44752e-06
-1.31141e-06
6.83361e-08
-1.0985e-06
-8.18902e-07
-4.40133e-07
-1.69728e-06
-1.65228e-06
-1.52282e-06
5.08709e-08
-1.31347e-06
-1.03509e-06
-6.33811e-07
-1.77843e-06
-1.65331e-06
3.12369e-08
-1.44789e-06
-1.1721e-06
-7.63016e-07
-1.82118e-06
-1.69729e-06
9.90388e-09
-1.49285e-06
-1.216e-06
-8.00253e-07
)
;
    }
    procBoundary9to1
    {
        type            processor;
        value           nonuniform List<scalar> 
30
(
-1.77844e-06
-1.6523e-06
-1.30239e-08
-1.44447e-06
-1.16146e-06
-7.3824e-07
-1.65333e-06
-1.52286e-06
-3.69799e-08
-1.30884e-06
-1.01736e-06
-5.91942e-07
-1.45249e-06
-1.31775e-06
-5.96714e-08
-1.09858e-06
-8.03148e-07
-4.03695e-07
-1.17291e-06
-1.03648e-06
-7.84604e-08
-8.1897e-07
-5.3317e-07
-2.16064e-07
-7.56136e-07
-6.28634e-07
-8.91472e-08
-4.4004e-07
-2.28471e-07
-7.23418e-08
)
;
    }
    procBoundary9to7
    {
        type            processor;
        value           nonuniform List<scalar> 
59
(
7.02269e-07
6.43399e-07
5.18071e-07
3.56601e-07
1.88614e-07
6.23382e-08
1.20384e-06
1.14458e-06
1.00343e-06
7.86754e-07
5.02087e-07
2.01563e-07
1.53469e-06
1.48195e-06
1.34356e-06
1.12321e-06
8.11736e-07
3.93193e-07
1.76176e-06
1.71353e-06
1.57728e-06
1.35599e-06
1.03546e-06
5.62255e-07
1.85282e-06
1.71689e-06
1.49376e-06
1.1689e-06
6.75213e-07
1.89914e-06
1.76174e-06
1.53468e-06
1.20386e-06
7.02378e-07
1.85284e-06
1.71354e-06
1.48195e-06
1.14459e-06
6.43497e-07
1.71694e-06
1.57735e-06
1.3436e-06
1.00344e-06
5.18153e-07
1.49381e-06
1.3561e-06
1.1233e-06
7.86799e-07
3.56617e-07
1.16889e-06
1.03553e-06
8.1181e-07
5.02055e-07
1.88587e-07
6.75054e-07
5.62074e-07
3.93068e-07
2.01494e-07
6.23231e-08
)
;
    }
    procBoundary9to8
    {
        type            processor;
        value           nonuniform List<scalar> 
132
(
1.18263e-07
1.17909e-07
1.17574e-07
1.17294e-07
1.17088e-07
1.16934e-07
1.16817e-07
1.16731e-07
1.16672e-07
1.16642e-07
1.16654e-07
1.0523e-07
1.04795e-07
1.04379e-07
1.03991e-07
1.03641e-07
1.03333e-07
1.03065e-07
1.02839e-07
1.02648e-07
1.02492e-07
1.02369e-07
8.38085e-08
8.36121e-08
8.34178e-08
8.32292e-08
8.30462e-08
8.28741e-08
8.27133e-08
8.25651e-08
8.24301e-08
8.23061e-08
8.21874e-08
5.73069e-08
5.73029e-08
5.72924e-08
5.72772e-08
5.72588e-08
5.72385e-08
5.72163e-08
5.71932e-08
5.71686e-08
5.71415e-08
5.71133e-08
6.08959e-09
5.97779e-09
5.86645e-09
5.75631e-09
5.6484e-09
5.54395e-09
5.44382e-09
5.34836e-09
5.25735e-09
5.1722e-09
5.08699e-09
3.178e-08
3.1752e-08
3.17282e-08
3.17082e-08
3.16919e-08
3.16782e-08
3.16661e-08
3.16548e-08
3.1644e-08
3.1634e-08
3.16235e-08
2.04115e-09
1.99694e-09
1.95412e-09
1.9132e-09
1.87467e-09
1.83882e-09
1.80567e-09
1.77515e-09
1.7471e-09
1.72171e-09
1.69722e-09
-2.80721e-08
-2.81376e-08
-2.8199e-08
-2.82557e-08
-2.83069e-08
-2.83523e-08
-2.83918e-08
-2.8426e-08
-2.8455e-08
-2.84787e-08