/*--------------------------------*- C++ -*----------------------------------*\
| =========                 |                                                 |
| \\      /  F ield         | OpenFOAM: The Open Source CFD Toolbox           |
|  \\    /   O peration     | Version:  2212                                  |
|   \\  /    A nd           | Website:  www.openfoam.com                      |
|    \\/     M anipulation  |                                                 |
\*---------------------------------------------------------------------------*/
FoamFile
{
    version     2.0;
    format      ascii;
    arch        "LSB;label=32;scalar=64";
    class       volVectorField;
    location    "3";
    object      U;
}
// * * * * * * * * * * * * * * * * * * * * * * * * * * * * * * * * * * * * * //

dimensions      [0 1 -1 0 0 0 0];

internalField   nonuniform List<vector> 
682
(
(0.0809709 4.65189e-05 -0.00164189)
(0.0800356 -1.35135e-05 -0.00159557)
(0.0791176 -6.58e-05 -0.00154567)
(0.0782228 -0.000111389 -0.00149603)
(0.0773532 -0.0001426 -0.00144773)
(0.0765093 -0.000164046 -0.00140117)
(0.0756906 -0.000179475 -0.00135632)
(0.0748967 -0.000189822 -0.00131353)
(0.0741276 -0.00019521 -0.00127356)
(0.0733816 -0.000196416 -0.00123533)
(0.0726592 -0.000192946 -0.00120015)
(0.0770063 4.60005e-06 -0.00162833)
(0.0759792 -4.24977e-05 -0.00154435)
(0.0750123 -7.76145e-05 -0.00146333)
(0.0741022 -9.84611e-05 -0.00138875)
(0.0732416 -0.000111441 -0.00132132)
(0.0724263 -0.000118026 -0.00126006)
(0.0716517 -0.000120374 -0.00120362)
(0.0709138 -0.000119389 -0.00115248)
(0.0702092 -0.000115596 -0.00110701)
(0.0695326 -0.000110548 -0.00106575)
(0.0688847 -0.000102872 -0.00103078)
(0.0687447 -1.86921e-05 -0.00129854)
(0.0678127 -1.67472e-05 -0.00120815)
(0.0669575 -9.47506e-06 -0.00111961)
(0.0661699 -2.56342e-07 -0.00103892)
(0.065436 3.85526e-06 -0.000966354)
(0.0647547 4.2857e-06 -0.00090311)
(0.0641097 5.27202e-06 -0.000848923)
(0.0635014 7.73198e-06 -0.000804047)
(0.062918 1.16403e-05 -0.000767314)
(0.0623541 1.38964e-05 -0.000733468)
(0.0618191 1.73299e-05 -0.000706994)
(0.0582817 8.76936e-05 -0.000828122)
(0.0575451 0.000104172 -0.000779647)
(0.056854 0.000102891 -0.000696693)
(0.0562064 9.6956e-05 -0.00058445)
(0.0556136 9.91305e-05 -0.000506163)
(0.0550309 0.000101777 -0.000460085)
(0.054506 0.00010291 -0.000429919)
(0.0539702 0.000102541 -0.000405218)
(0.0534819 0.00010299 -0.000386455)
(0.0529861 0.000104094 -0.000371145)
(0.05252 0.000103772 -0.000357475)
(0.0520644 0.000101869 -0.000343838)
(0.0440857 5.01084e-05 -0.000207922)
(0.0435689 4.65997e-05 -0.000179019)
(0.0430539 4.04741e-05 -0.000153921)
(0.0425444 3.39492e-05 -0.000135414)
(0.042043 2.5653e-05 -0.000121101)
(0.0415584 1.97993e-05 -0.00011125)
(0.0410867 1.52975e-05 -0.000102929)
(0.0406279 1.11263e-05 -9.46375e-05)
(0.0401885 8.66254e-06 -8.82671e-05)
(0.0397589 7.68331e-06 -8.27368e-05)
(0.0393304 9.09019e-06 -8.07309e-05)
(0.0389316 1.19201e-05 -8.01368e-05)
(0.0284535 3.13184e-05 -3.30602e-05)
(0.0280868 2.89589e-05 -3.80636e-05)
(0.0277155 2.15581e-05 -4.29281e-05)
(0.0273564 1.17178e-05 -4.72557e-05)
(0.0270077 4.276e-06 -4.90555e-05)
(0.0266707 6.57694e-07 -4.95472e-05)
(0.0263412 -1.47058e-06 -4.87675e-05)
(0.0260226 -3.08312e-06 -4.75301e-05)
(0.0257148 -4.23158e-06 -4.6559e-05)
(0.0254143 -5.43569e-06 -4.55745e-05)
(0.0251102 -5.03057e-06 -4.54422e-05)
(0.0248208 -5.00276e-06 -4.34826e-05)
(0.10543 0.000127473 -0.00177508)
(0.105347 5.74786e-05 -0.00173898)
(0.105258 -7.29462e-06 -0.00170134)
(0.105165 -6.56359e-05 -0.0016582)
(0.10507 -0.000116443 -0.00161455)
(0.104974 -0.000159646 -0.00157158)
(0.104878 -0.000195602 -0.00152943)
(0.104784 -0.000224452 -0.00148843)
(0.104693 -0.000247569 -0.00144835)
(0.104605 -0.000265569 -0.00140987)
(0.104521 -0.000278841 -0.00136798)
(0.103247 -2.07715e-05 -0.00178298)
(0.103066 -7.37547e-05 -0.00170509)
(0.102899 -0.00011923 -0.00163115)
(0.102747 -0.000157419 -0.00156264)
(0.102611 -0.000187513 -0.00149882)
(0.10249 -0.00021024 -0.00143815)
(0.102382 -0.000226747 -0.00138021)
(0.102288 -0.00023369 -0.00132752)
(0.102206 -0.000235645 -0.00127947)
(0.102133 -0.000234264 -0.00123658)
(0.102068 -0.000231581 -0.00119301)
(0.0982277 -0.000136685 -0.00140149)
(0.0980483 -0.000139636 -0.00131672)
(0.0978989 -0.000139996 -0.00123795)
(0.097771 -0.000137366 -0.00116559)
(0.0976662 -0.000130355 -0.00110382)
(0.097569 -0.0001196 -0.00105103)
(0.0974914 -0.0001056 -0.00100646)
(0.097416 -9.0776e-05 -0.00096854)
(0.0973532 -7.77815e-05 -0.000933043)
(0.0972916 -6.4424e-05 -0.000906033)
(0.0972368 -5.56336e-05 -0.000867339)
(0.0901656 -5.33667e-05 -0.000843286)
(0.0899801 -1.1898e-05 -0.000789395)
(0.0898174 2.53425e-05 -0.000742351)
(0.0896704 6.37741e-05 -0.00071172)
(0.0895267 9.32477e-05 -0.000679557)
(0.0893958 0.000122474 -0.00066423)
(0.0892513 0.000144117 -0.000648063)
(0.0891172 0.000159548 -0.000629151)
(0.0889611 0.000172875 -0.00061346)
(0.0888218 0.000182177 -0.000594344)
(0.0886607 0.000195991 -0.000589761)
(0.0885121 0.000203623 -0.000575384)
(0.0755767 2.78184e-05 -0.000177688)
(0.0752593 5.51503e-05 -0.000170472)
(0.0749134 7.58244e-05 -0.000169848)
(0.0745697 9.7986e-05 -0.000181764)
(0.0742062 0.000115463 -0.000191663)
(0.0738373 0.00012885 -0.000197992)
(0.0734671 0.000134402 -0.00019711)
(0.0730881 0.000137024 -0.000193515)
(0.072705 0.000137435 -0.000188536)
(0.0723223 0.000135107 -0.000180567)
(0.0719282 0.000142318 -0.000187646)
(0.0715387 0.000146007 -0.000192047)
(0.0466605 0.000222682 -0.000108519)
(0.0461683 0.000233911 -0.000124508)
(0.0456661 0.000236992 -0.000135921)
(0.0451838 0.000235062 -0.000144317)
(0.0447041 0.000231464 -0.000151731)
(0.0442432 0.000227303 -0.000155076)
(0.0437879 0.000222035 -0.00015521)
(0.0433473 0.000215988 -0.000154946)
(0.0429125 0.000210691 -0.00015735)
(0.0424793 0.00020613 -0.000163178)
(0.0420318 0.000200714 -0.0001678)
(0.0416074 0.0001887 -0.000167819)
(0.114596 -1.42093e-06 -0.00161014)
(0.114883 -3.5939e-05 -0.00158057)
(0.115163 -6.77187e-05 -0.00154973)
(0.115436 -9.72214e-05 -0.00151772)
(0.115703 -0.0001242 -0.0014854)
(0.115966 -0.000148707 -0.00145364)
(0.116224 -0.000171192 -0.00142317)
(0.116479 -0.000191031 -0.00139407)
(0.11673 -0.000208181 -0.0013659)
(0.116979 -0.000222747 -0.00133902)
(0.117225 -0.000235116 -0.00131097)
(0.113266 3.49596e-05 -0.00165918)
(0.113504 9.27295e-06 -0.00159718)
(0.113742 -1.1482e-05 -0.00153797)
(0.113981 -2.82259e-05 -0.00148221)
(0.114223 -4.13751e-05 -0.00143079)
(0.114469 -5.1592e-05 -0.00138418)
(0.114716 -5.91812e-05 -0.00134247)
(0.114964 -6.39688e-05 -0.00130367)
(0.115213 -6.61969e-05 -0.00126724)
(0.115463 -6.58595e-05 -0.00123404)
(0.115713 -6.45568e-05 -0.00120095)
(0.10978 0.000100307 -0.0013648)
(0.11001 0.000109381 -0.00129537)
(0.110246 0.000120646 -0.0012327)
(0.110487 0.000133911 -0.00117653)
(0.110731 0.000149768 -0.00112825)
(0.110979 0.00016649 -0.00108659)
(0.111229 0.000182335 -0.00104921)
(0.111481 0.000197339 -0.00101643)
(0.111732 0.000211373 -0.000986981)
(0.111985 0.000225627 -0.000963518)
(0.112232 0.000237629 -0.000939979)
(0.103456 0.000354636 -0.000923409)
(0.103665 0.000397763 -0.0008708)
(0.103884 0.000437509 -0.000824474)
(0.104098 0.000474471 -0.000784946)
(0.104311 0.000508429 -0.00075406)
(0.104515 0.000538285 -0.000730886)
(0.104712 0.000560772 -0.00070918)
(0.104904 0.000575689 -0.00068525)
(0.105091 0.000591085 -0.000671158)
(0.105268 0.000603503 -0.000660116)
(0.105441 0.000618121 -0.000659774)
(0.105594 0.000626811 -0.000657072)
(0.0920705 0.000552375 -0.000340661)
(0.0920898 0.000600166 -0.000334377)
(0.0921021 0.000630395 -0.000321543)
(0.0920808 0.000651427 -0.000309578)
(0.0920535 0.000662656 -0.000296683)
(0.091997 0.000669541 -0.000287285)
(0.0919301 0.000672586 -0.000280168)
(0.0918358 0.0006746 -0.000277936)
(0.0917225 0.000676485 -0.000278854)
(0.0916009 0.000677457 -0.000282828)
(0.0914639 0.000677145 -0.000290155)
(0.0913186 0.000669592 -0.000297028)
(0.0637085 0.000753851 -0.000245871)
(0.0631955 0.000772732 -0.000247893)
(0.0626344 0.000778885 -0.000244375)
(0.0620896 0.000775359 -0.00023823)
(0.0615081 0.000767039 -0.00023291)
(0.0609451 0.00075408 -0.000227168)
(0.0603535 0.000738857 -0.0002233)
(0.0597831 0.000722 -0.000221814)
(0.0591866 0.00070692 -0.000226062)
(0.0586114 0.00069486 -0.000235714)
(0.0580095 0.000666882 -0.000234522)
(0.0574468 0.000607055 -0.000218936)
(0.119135 -8.12164e-05 -0.0010542)
(0.11958 -8.95698e-05 -0.00103398)
(0.120015 -9.75275e-05 -0.00101375)
(0.120441 -0.000104864 -0.000993488)
(0.12086 -0.000111445 -0.000973454)
(0.121271 -0.00011723 -0.000953943)
(0.121676 -0.000122306 -0.000935147)
(0.122074 -0.000126722 -0.000917145)
(0.122467 -0.000130554 -0.00089986)
(0.122854 -0.000133872 -0.000883517)
(0.123236 -0.000136682 -0.000867017)
(0.118198 0.000178163 -0.00110109)
(0.118618 0.00017216 -0.00106137)
(0.119033 0.000168161 -0.0010236)
(0.119441 0.000166005 -0.000988224)
(0.119844 0.000165318 -0.000955688)
(0.120242 0.000165321 -0.000926233)
(0.120636 0.000165056 -0.000899832)
(0.121025 0.000164852 -0.000876204)
(0.121411 0.000164908 -0.000854982)
(0.121793 0.00016567 -0.000836332)
(0.12217 0.000166964 -0.000818713)
(0.115443 0.000446906 -0.000875194)
(0.115841 0.000459397 -0.000834117)
(0.116234 0.000472297 -0.000797666)
(0.116622 0.000485243 -0.00076589)
(0.117005 0.000497944 -0.000739011)
(0.117383 0.000509719 -0.000716251)
(0.117756 0.000519725 -0.00069655)
(0.118123 0.000528709 -0.000680238)
(0.118484 0.000536505 -0.000666791)
(0.118841 0.000543837 -0.000657088)
(0.119191 0.000549889 -0.000648722)
(0.11002 0.000819128 -0.000501067)
(0.110368 0.000854665 -0.000479443)
(0.110709 0.000886808 -0.000463374)
(0.11104 0.000914528 -0.000451554)
(0.111361 0.000937929 -0.000443224)
(0.111669 0.000957185 -0.000439307)
(0.111966 0.000972632 -0.000438757)
(0.112251 0.000983598 -0.000439084)
(0.112528 0.000991979 -0.000441645)
(0.112788 0.000996606 -0.000444929)
(0.113045 0.00100113 -0.000452646)
(0.113281 0.00100363 -0.000462067)
(0.100356 0.00102693 -3.07963e-05)
(0.100468 0.00106473 -4.51477e-05)
(0.100561 0.00109335 -6.17868e-05)
(0.100623 0.0011123 -8.03535e-05)
(0.100665 0.00112417 -0.000102434)
(0.100679 0.00112949 -0.000124967)
(0.100675 0.00113392 -0.000147805)
(0.100644 0.00113098 -0.000167945)
(0.100603 0.00113171 -0.000190385)
(0.100533 0.0011253 -0.000208916)
(0.10046 0.00111374 -0.000223973)
(0.100363 0.00109125 -0.000232703)
(0.0750036 0.00109123 -5.7267e-05)
(0.0743763 0.0011124 -7.78468e-05)
(0.0737123 0.00112362 -9.64213e-05)
(0.0730205 0.00112623 -0.000116394)
(0.0723027 0.00112068 -0.000138619)
(0.0715702 0.00110927 -0.000160142)
(0.0708231 0.00109321 -0.000175902)
(0.0700789 0.00107306 -0.000187797)
(0.0693227 0.00104986 -0.000197509)
(0.0685921 0.00102643 -0.000206239)
(0.0678513 0.00100123 -0.000212426)
(0.0671492 0.000972879 -0.000217785)
(0.120691 0.000356313 -0.000563556)
(0.121186 0.000352376 -0.000546562)
(0.121672 0.000349288 -0.000530827)
(0.122148 0.000346902 -0.000516414)
(0.122616 0.000345066 -0.000503409)
(0.123075 0.000343552 -0.000491826)
(0.123527 0.000342112 -0.00048161)
(0.123972 0.000340667 -0.000472666)
(0.124409 0.000339172 -0.000464871)
(0.124841 0.000337758 -0.000458284)
(0.125266 0.000336215 -0.000452314)
(0.118287 0.000796436 -0.000432738)
(0.118737 0.000797713 -0.000422593)
(0.119178 0.000798595 -0.000414494)
(0.119609 0.000798913 -0.000408285)
(0.120032 0.000798557 -0.000403847)
(0.120447 0.00079731 -0.000400966)
(0.120855 0.000794877 -0.000399347)
(0.121254 0.000791408 -0.0003989)
(0.121646 0.000786777 -0.00039942)
(0.122032 0.000781407 -0.000401188)
(0.122411 0.000775116 -0.000403385)
(0.113358 0.00128404 -0.000163156)
(0.113711 0.00129474 -0.000177266)
(0.114053 0.00130243 -0.00019379)
(0.114382 0.00130668 -0.000211465)
(0.1147 0.00130761 -0.000229885)
(0.115007 0.00130552 -0.000248676)
(0.115302 0.00130067 -0.000267147)
(0.115588 0.0012931 -0.000284685)
(0.115864 0.00128361 -0.000302107)
(0.116131 0.00127143 -0.000318628)
(0.11639 0.00125716 -0.000334299)
(0.116641 0.00124087 -0.000348664)
(0.104537 0.00147887 0.000150959)
(0.104596 0.0014908 0.000100202)
(0.104634 0.00149447 4.81397e-05)
(0.10465 0.00149115 -1.92793e-06)
(0.104647 0.0014833 -4.88244e-05)
(0.104627 0.00147161 -9.20435e-05)
(0.104591 0.00145633 -0.000131216)
(0.104541 0.00143724 -0.000165895)
(0.104482 0.00141601 -0.000196727)
(0.10441 0.00139024 -0.000222397)
(0.104335 0.00136037 -0.000242437)
(0.104252 0.00132963 -0.000256638)
(0.0809596 0.00142373 1.08291e-05)
(0.0802135 0.00142479 -3.65867e-05)
(0.0794413 0.00141759 -7.8102e-05)
(0.07865 0.00140375 -0.000119885)
(0.0778456 0.00138425 -0.000154862)
(0.0770361 0.0013611 -0.000179842)
(0.0762281 0.00133471 -0.000199173)
(0.075427 0.0013054 -0.000214269)
(0.0746342 0.00127413 -0.000224124)
(0.073855 0.00124365 -0.000230447)
(0.0730852 0.00121362 -0.000231775)
(0.07233 0.00118357 -0.000227456)
(0.12146 0.000516115 -7.74883e-05)
(0.121972 0.000505434 -7.61867e-05)
(0.122473 0.000495011 -7.48833e-05)
(0.122965 0.000484981 -7.35868e-05)
(0.123447 0.000475475 -7.23411e-05)
(0.12392 0.000466563 -7.11808e-05)
(0.124384 0.00045826 -7.01379e-05)
(0.124842 0.000450559 -6.9235e-05)
(0.125292 0.000443433 -6.84696e-05)
(0.125735 0.000436943 -6.78439e-05)
(0.126172 0.000430659 -6.72856e-05)
(0.119136 0.00105433 -7.9871e-05)
(0.11958 0.00103381 -8.77412e-05)
(0.120015 0.00101318 -9.52254e-05)
(0.120441 0.000992506 -0.000102174)
(0.12086 0.000972114 -0.000108525)
(0.121271 0.000952317 -0.000114251)
(0.121675 0.000933303 -0.000119393)
(0.122073 0.000915147 -0.000124027)
(0.122466 0.000897774 -0.000128122)
(0.122853 0.000881363 -0.000131724)
(0.123235 0.000864839 -0.000134819)
(0.114301 0.00163926 3.54918e-05)
(0.114596 0.00161101 -5.53044e-07)
(0.114883 0.00158122 -3.44205e-05)
(0.115163 0.00155007 -6.55211e-05)
(0.115436 0.00151769 -9.45324e-05)
(0.115704 0.00148499 -0.000121199)
(0.115966 0.00145283 -0.000145604)
(0.116224 0.00142195 -0.000168033)
(0.116478 0.00139242 -0.000188094)
(0.116729 0.00136388 -0.000205374)
(0.116978 0.00133657 -0.000219995)
(0.117224 0.00130828 -0.000232352)
(0.105505 0.00181351 0.000200806)
(0.10543 0.00177702 0.000127305)
(0.105348 0.00174038 5.81219e-05)
(0.105258 0.00170229 -5.71397e-06)
(0.105165 0.00165847 -6.32692e-05)
(0.10507 0.00161443 -0.000113555)
(0.104974 0.00157103 -0.000156543)
(0.104879 0.00152846 -0.000192365)
(0.104785 0.001487 -0.00022151)
(0.104694 0.0014465 -0.00024482)
(0.104606 0.00140771 -0.000262835)
(0.104522 0.00136568 -0.000276033)
(0.0819164 0.00168324 0.000114426)
(0.0809696 0.0016423 4.5748e-05)
(0.0800346 0.00159559 -1.29149e-05)
(0.0791167 0.00154552 -6.39615e-05)
(0.0782222 0.00149555 -0.00010858)
(0.0773532 0.00144687 -0.000139712)
(0.07651 0.00139984 -0.000161076)
(0.0756925 0.0013546 -0.000176604)
(0.0749001 0.00131136 -0.000187198)
(0.0741329 0.00127104 -0.000193199)
(0.0733889 0.00123263 -0.000195225)
(0.072669 0.00119735 -0.000192718)
(0.120692 0.000562536 0.000357365)
(0.121187 0.000545211 0.000353616)
(0.121673 0.000529143 0.000350712)
(0.122149 0.000514427 0.000348478)
(0.122617 0.000501164 0.00034672)
(0.123076 0.000489376 0.000345194)
(0.123528 0.000479009 0.000343658)
(0.123972 0.000469948 0.000342035)
(0.12441 0.0004621 0.000340316)
(0.124842 0.000455521 0.000338676)
(0.125267 0.000449588 0.000336912)
(0.118199 0.00110077 0.000178813)
(0.11862 0.00106076 0.000173085)
(0.119034 0.00102261 0.000169409)
(0.119443 0.000986844 0.000167563)
(0.119845 0.000953995 0.000167112)
(0.120243 0.000924309 0.000167263)
(0.120637 0.000897757 0.000167077)
(0.121027 0.00087396 0.000166758)
(0.121412 0.000852679 0.000166685)
(0.121794 0.000834051 0.000167347)
(0.122171 0.000816471 0.000168556)
(0.11303 0.00172359 6.51241e-05)
(0.113268 0.0016595 3.54213e-05)
(0.113505 0.00159713 1.00431e-05)
(0.113743 0.00153756 -1.02597e-05)
(0.113982 0.0014815 -2.65351e-05)
(0.114224 0.00142976 -3.93547e-05)
(0.114469 0.00138279 -4.92831e-05)
(0.114717 0.00134074 -5.6608e-05)
(0.114964 0.00130148 -6.1488e-05)
(0.115213 0.00126475 -6.35883e-05)
(0.115463 0.00123122 -6.29506e-05)
(0.115713 0.00119799 -6.13518e-05)
(0.103442 0.00186457 4.04053e-05)
(0.103246 0.00178455 -2.04581e-05)
(0.103065 0.00170591 -7.28659e-05)
(0.102899 0.00163122 -0.000117572)
(0.102747 0.00156233 -0.00015485)
(0.102611 0.00149821 -0.000184473)
(0.10249 0.00143722 -0.000206804)
(0.102382 0.00137891 -0.000223515)
(0.102288 0.00132575 -0.00023057)
(0.102206 0.00127723 -0.000232614)
(0.102133 0.00123357 -0.000231319)
(0.102069 0.00118994 -0.000228651)
(0.0780978 0.00171527 5.89711e-05)
(0.0770068 0.00162871 5.19334e-06)
(0.0759801 0.00154436 -4.09869e-05)
(0.0750136 0.00146307 -7.5042e-05)
(0.0741038 0.00138797 -9.57406e-05)
(0.0732436 0.00132019 -0.000108496)
(0.0724289 0.00125871 -0.000114864)
(0.0716552 0.00120201 -0.000117281)
(0.0709186 0.00115067 -0.000116438)
(0.0702152 0.00110482 -0.000113142)
(0.0695405 0.00106314 -0.000108739)
(0.0688939 0.00102751 -0.00010199)
(0.118288 0.000431065 0.000797433)
(0.118738 0.000420639 0.000798819)
(0.119179 0.000412308 0.000799875)
(0.119611 0.000405927 0.00080036)
(0.120034 0.000401388 0.000800112)
(0.120449 0.000398494 0.000798889)
(0.120857 0.000396923 0.000796406)
(0.121257 0.000396442 0.000792765)
(0.121649 0.000397005 0.000787878)
(0.122035 0.000398936 0.000782302)
(0.122414 0.000401315 0.000775827)
(0.115447 0.000874226 0.00044747)
(0.115844 0.000832743 0.000459955)
(0.116238 0.000795983 0.000473138)
(0.116626 0.000763939 0.000486387)
(0.11701 0.000736822 0.000499371)
(0.117388 0.000713955 0.000511392)
(0.117761 0.000694371 0.000521677)
(0.118128 0.000677802 0.000530483)
(0.11849 0.000664474 0.000538131)
(0.118846 0.000655144 0.000545517)
(0.119196 0.000647223 0.000551721)
(0.109562 0.00144149 9.54064e-05)
(0.109784 0.00136475 0.000100764)
(0.110013 0.00129467 0.000109647)
(0.11025 0.00123179 0.000121317)
(0.11049 0.0011755 0.000135321)
(0.110736 0.00112693 0.000151429)
(0.110983 0.00108479 0.000168444)
(0.111235 0.00104745 0.000184674)
(0.111485 0.00101353 0.000199451)
(0.111739 0.000984292 0.000213622)
(0.111988 0.000960644 0.000228502)
(0.112238 0.000937457 0.000240938)
(0.0984402 0.00149649 -0.000128707)
(0.0982281 0.0014034 -0.000135468)
(0.0980476 0.00131717 -0.000138254)
(0.0979003 0.00123762 -0.000138073)
(0.0977711 0.00116541 -0.000134488)
(0.0976668 0.00110335 -0.000127178)
(0.0975696 0.00105014 -0.000116254)
(0.0974919 0.00100511 -0.000102494)
(0.0974169 0.000966179 -8.76723e-05)
(0.0973543 0.000930464 -7.49431e-05)
(0.0972929 0.000901976 -6.2172e-05)
(0.0972385 0.000865228 -5.30889e-05)
(0.0697654 0.00139862 -1.16308e-05)
(0.0687479 0.00129991 -1.67783e-05)
(0.0678167 0.00120915 -1.40199e-05)
(0.0669599 0.00111988 -6.50464e-06)
(0.0661732 0.0010377 2.09078e-06)
(0.0654392 0.000965082 6.64061e-06)
(0.0647584 0.000902157 7.61548e-06)
(0.0641133 0.000848108 8.61044e-06)
(0.0635065 0.000803104 1.0886e-05)
(0.0629224 0.000765692 1.41062e-05)
(0.0623619 0.000730992 1.53385e-05)
(0.0618257 0.0007033 1.76858e-05)
(0.113713 0.00017497 0.00129615)
(0.114054 0.000191151 0.00130395)
(0.114384 0.000208735 0.00130844)
(0.114702 0.000227149 0.0013096)
(0.115009 0.000246018 0.0013077)
(0.115305 0.000264681 0.00130292)
(0.115591 0.00028255 0.00129534)
(0.115867 0.000299945 0.0012857)
(0.116134 0.000316472 0.00127313)
(0.116394 0.000332472 0.00125855)
(0.116645 0.000347222 0.00124195)
(0.110375 0.00047799 0.00085596)
(0.110716 0.000461222 0.000887953)
(0.111048 0.000449189 0.000915919)
(0.111369 0.000440989 0.000939588)
(0.111679 0.000436939 0.000959274)
(0.111976 0.000436327 0.000974969)
(0.112263 0.00043699 0.000986336)
(0.112538 0.000439253 0.000994393)
(0.112801 0.000442348 0.000998558)
(0.113054 0.000450571 0.00100261)
(0.113293 0.00046062 0.00100518)
(0.10346 0.000923075 0.000355932)
(0.103676 0.000870517 0.000398919)
(0.10389 0.000823097 0.000438296)
(0.104112 0.000784275 0.000475989)
(0.104318 0.000751917 0.000509568)
(0.104531 0.000728484 0.000539715)
(0.104723 0.000706861 0.000562896)
(0.104922 0.000685645 0.000579852)
(0.105102 0.000665866 0.000591779)
(0.105288 0.000658663 0.000606787)
(0.105449 0.000658462 0.000621356)
(0.10561 0.000656118 0.000630407)
(0.0901665 0.000840992 -5.40998e-05)
(0.0899844 0.000789803 -1.05363e-05)
(0.0898195 0.000740718 2.65853e-05)
(0.0896756 0.000710958 6.60656e-05)
(0.0895293 0.00068263 9.78104e-05)
(0.0893956 0.000662835 0.000125092)
(0.0892532 0.000645793 0.000146708)
(0.0891157 0.000626984 0.000162361)
(0.0889666 0.000609794 0.000175148)
(0.0888179 0.000591039 0.000184575)
(0.0886695 0.000586441 0.000198569)
(0.0885107 0.000573125 0.000206325)
(0.0582847 0.000829924 8.8773e-05)
(0.0575407 0.000780943 0.000106667)
(0.0568567 0.000696598 0.000105344)
(0.0561981 0.000584011 9.9738e-05)
(0.0556144 0.000504911 0.000101789)
(0.0550286 0.000458758 0.000104687)
(0.0545049 0.000428796 0.000105796)
(0.0539668 0.000404711 0.000105511)
(0.0534814 0.000385168 0.000105444)
(0.0529826 0.000369619 0.000106135)
(0.0525219 0.00035578 0.000105037)
(0.0520635 0.000342093 0.000102424)
(0.104597 -0.000102425 0.00149095)
(0.104634 -5.04723e-05 0.00149575)
(0.104651 -3.57515e-07 0.00149319)
(0.104648 4.67439e-05 0.00148567)
(0.104628 9.0075e-05 0.00147414)
(0.104592 0.0001294 0.00145886)
(0.104542 0.000164179 0.00143969)
(0.104482 0.000195086 0.00141836)
(0.10441 0.000220362 0.00139211)
(0.104335 0.000240026 0.00136194)
(0.104252 0.000254388 0.0013307)
(0.100478 4.24471e-05 0.00106482)
(0.100566 5.96308e-05 0.00109455)
(0.100634 7.83717e-05 0.00111487)
(0.100672 0.000100533 0.00112663)
(0.100691 0.000123522 0.00113311)
(0.100683 0.000146062 0.00113683)
(0.100656 0.00016632 0.0011348)
(0.100609 0.000188518 0.00113496)
(0.100544 0.000204844 0.00112535)
(0.100468 0.000219875 0.00111388)
(0.100373 0.000228529 0.00109167)
(0.0920717 0.000340317 0.000553579)
(0.0921045 0.000332251 0.0006004)
(0.092105 0.000318839 0.000630521)
(0.0920983 0.00030644 0.000652008)
(0.0920605 0.000295452 0.000665491)
(0.0920131 0.000284289 0.000671283)
(0.0919386 0.000279067 0.000676083)
(0.0918496 0.000276131 0.000677805)
(0.0917338 0.000277476 0.000680083)
(0.0916106 0.000278587 0.000678619)
(0.0914765 0.000288127 0.000680146)
(0.0913262 0.00029386 0.00067214)
(0.0755851 0.000176308 2.76763e-05)
(0.0752475 0.000170238 5.66803e-05)
(0.0749195 0.000169664 7.86255e-05)
(0.0745524 0.000179568 9.94883e-05)
(0.0742084 0.000190351 0.00011798)
(0.0738222 0.000194961 0.000130034)
(0.0734654 0.000195398 0.000136942)
(0.0730709 0.00019089 0.000138811)
(0.0727028 0.000186317 0.000139836)
(0.0723048 0.000177711 0.000137268)
(0.0719259 0.000185298 0.000145485)
(0.0715264 0.00018997 0.000149787)
(0.0440811 0.000208178 5.019e-05)
(0.0435509 0.00017896 4.80805e-05)
(0.0430493 0.00015323 4.23388e-05)
(0.042528 0.000134318 3.63155e-05)
(0.042037 0.000120639 2.86146e-05)
(0.0415443 0.000110038 2.21819e-05)
(0.0410799 0.000101617 1.72099e-05)
(0.0406159 9.3543e-05 1.30391e-05)
(0.040181 8.69601e-05 1.03363e-05)
(0.0397489 8.14411e-05 9.5437e-06)
(0.039325 8.00994e-05 1.11184e-05)
(0.0389237 7.99786e-05 1.381e-05)
(0.0802099 3.64685e-05 0.00142537)
(0.0794371 7.81068e-05 0.00141909)
(0.0786451 0.000119675 0.00140566)
(0.07784 0.000154935 0.00138636)
(0.0770292 0.000179777 0.00136327)
(0.07622 0.000198951 0.00133689)
(0.0754172 0.000213681 0.00130751)
(0.0746229 0.000223328 0.00127626)
(0.0738422 0.000229671 0.00124589)
(0.0730706 0.000230249 0.00121557)
(0.0723142 0.000225007 0.00118512)
(0.0743675 7.67221e-05 0.00111375)
(0.0737039 9.65366e-05 0.00112637)
(0.0730092 0.000117099 0.00112962)
(0.0722917 0.000139024 0.00112384)
(0.0715553 0.000160415 0.00111233)
(0.0708094 0.000175518 0.00109582)
(0.0700603 0.000186725 0.00107531)
(0.0693068 0.000195893 0.00105194)
(0.0685716 0.000204425 0.00102892)
(0.0678301 0.000208835 0.00100244)
(0.0671276 0.000212368 0.000972662)
(0.0637107 0.0002444 0.000753526)
(0.0631685 0.000246165 0.00077395)
(0.0626337 0.000243273 0.000781258)
(0.0620584 0.000238004 0.000778749)
(0.0615012 0.000232474 0.000769815)
(0.0609115 0.000227027 0.000756755)
(0.0603406 0.000222955 0.000741117)
(0.0597475 0.000221318 0.000724399)
(0.059171 0.000224558 0.000708528)
(0.0585763 0.000232858 0.000696385)
(0.0579924 0.000228859 0.000665211)
(0.0574191 0.000211908 0.000603873)
(0.0466509 0.000109226 0.000223327)
(0.0461448 0.000122724 0.000234281)
(0.045659 0.000133265 0.000237509)
(0.0451635 0.000141815 0.000235979)
(0.0446948 0.000149797 0.000233099)
(0.0442231 0.000153369 0.000228542)
(0.0437755 0.000154225 0.000223331)
(0.0433267 0.000154224 0.000217372)
(0.042897 0.000156302 0.00021196)
(0.0424594 0.000161024 0.000207326)
(0.0420176 0.0001653 0.000202342)
(0.04159 0.000164844 0.000190449)
(0.0284471 3.29247e-05 3.13627e-05)
(0.0280748 3.73233e-05 2.98047e-05)
(0.0277106 4.18449e-05 2.28041e-05)
(0.0273468 4.61329e-05 1.31266e-05)
(0.0270028 4.8214e-05 5.78283e-06)
(0.026661 4.85583e-05 1.67076e-06)
(0.0263352 4.80145e-05 -6.31664e-07)
(0.0260134 4.67848e-05 -2.34771e-06)
(0.0257078 4.58069e-05 -3.51551e-06)
(0.0254059 4.45774e-05 -4.56669e-06)
(0.0251045 4.43923e-05 -3.9566e-06)
(0.0248138 4.23783e-05 -3.92496e-06)
)
;

boundaryField
{
    inlet
    {
        type            fixedValue;
        value           nonuniform List<vector> 0();
    }
    ami1
    {
        type            cyclicAMI;
        value           nonuniform List<vector> 0();
    }
    walls
    {
        type            noSlip;
    }
    ami2
    {
        type            cyclicAMI;
        value           nonuniform List<vector> 0();
    }
    outlet
    {
        type            zeroGradient;
    }
    procBoundary9to0
    {
        type            processor;
        value           nonuniform List<vector> 
40
(
(0.0819188 0.000116389 -0.00168254)
(0.0780987 5.87766e-05 -0.0017143)
(0.0697631 -1.28409e-05 -0.00139666)
(0.0697631 -1.28409e-05 -0.00139666)
(0.0590843 6.7783e-05 -0.00088984)
(0.0446502 5.17519e-05 -0.000244579)
(0.0288346 3.19264e-05 -3.06874e-05)
(0.105504 0.000201408 -0.00181183)
(0.103442 4.07773e-05 -0.00186361)
(0.098441 -0.000128512 -0.00149674)
(0.098441 -0.000128512 -0.00149674)
(0.0903706 -8.98399e-05 -0.000918549)
(0.0759193 8.56307e-06 -0.000216936)
(0.0471835 0.00020402 -8.95613e-05)
(0.114301 3.52017e-05 -0.00163813)
(0.113029 6.52491e-05 -0.00172322)
(0.10956 9.48632e-05 -0.00144177)
(0.10956 9.48632e-05 -0.00144177)
(0.103241 0.000312475 -0.000988229)
(0.0920078 0.000503821 -0.00035937)
(0.0642503 0.000717648 -0.00023547)
(0.118681 -7.28308e-05 -0.00107411)
(0.11777 0.000186275 -0.00114227)
(0.115041 0.000435817 -0.000921024)
(0.115041 0.000435817 -0.000921024)
(0.109663 0.000782344 -0.000531138)
(0.100209 0.000984289 -2.33748e-05)
(0.0755942 0.00105531 -3.02541e-05)
(0.120185 0.000361233 -0.000581653)
(0.117828 0.000795111 -0.000445145)
(0.117828 0.000795111 -0.000445145)
(0.112994 0.00127042 -0.000152938)
(0.104453 0.0014615 0.000202281)
(0.0816748 0.00141451 6.51406e-05)
(0.120938 0.000526837 -7.87956e-05)
(0.118682 0.00107445 -7.19842e-05)
(0.118682 0.00107445 -7.19842e-05)
(0.113996 0.00166463 7.15002e-05)
(0.105568 0.00184809 0.000276935)
(0.0828712 0.00171785 0.00019301)
)
;
    }
    procBoundary9to1
    {
        type            processor;
        value           nonuniform List<vector> 
30
(
(0.120186 0.000580926 0.000362097)
(0.117771 0.00114206 0.000186655)
(0.117771 0.00114206 0.000186655)
(0.112789 0.00178888 0.000101207)
(0.10365 0.00194792 0.000112353)
(0.079256 0.00180303 0.000130669)
(0.117829 0.000443696 0.000796044)
(0.115044 0.000920233 0.000436507)
(0.115044 0.000920233 0.000436507)
(0.109347 0.00152751 9.69827e-05)
(0.0986884 0.00160664 -0.000112224)
(0.0708857 0.00151003 5.16859e-06)
(0.11336 0.000161128 0.00128506)
(0.110025 0.000500054 0.000820477)
(0.110025 0.000500054 0.000820477)
(0.10325 0.000988925 0.00031411)
(0.0903717 0.000917917 -9.04346e-05)
(0.0590845 0.000891053 6.81348e-05)
(0.104536 -0.000152035 0.00147949)
(0.100359 2.96335e-05 0.00102823)
(0.100359 2.96335e-05 0.00102823)
(0.0920208 0.000367063 0.000512228)
(0.0759106 0.000217733 9.06364e-06)
(0.0446387 0.000245322 5.12316e-05)
(0.080958 -1.12887e-05 0.00142339)
(0.074999 5.48612e-05 0.00109088)
(0.074999 5.48612e-05 0.00109088)
(0.0642267 0.000233169 0.00071586)
(0.0471648 9.21482e-05 0.000205279)
(0.0288256 3.13245e-05 3.1858e-05)
)
;
    }
    procBoundary9to7
    {
        type            processor;
        value           nonuniform List<vector> 
59
(
(0.0719539 -0.000185747 -0.00116493)
(0.0682551 -9.53919e-05 -0.000996874)
(0.0612752 2.2097e-05 -0.000685828)
(0.0516087 0.00010058 -0.000330916)
(0.0385106 1.39313e-05 -7.97365e-05)
(0.0245292 -5.15393e-06 -4.20737e-05)
(0.104441 -0.000290241 -0.00132378)
(0.102015 -0.000227532 -0.00115316)
(0.0971944 -4.2852e-05 -0.000844171)
(0.0883425 0.000213046 -0.000567141)
(0.0711234 0.0001509 -0.000199561)
(0.0411554 0.000172082 -0.000165749)
(0.117469 -0.0002452 -0.00128263)
(0.115964 -6.16099e-05 -0.00117049)
(0.112484 0.000250411 -0.00092367)
(0.105751 0.000631579 -0.00065397)
(0.0911512 0.000658748 -0.000304674)
(0.0568697 0.000543615 -0.000205077)
(0.123614 -0.000138985 -0.000850839)
(0.122544 0.000168634 -0.000802673)
(0.119536 0.000554433 -0.000642006)
(0.113513 0.000997425 -0.000466358)
(0.100273 0.00106671 -0.000241129)
(0.0664447 0.000939992 -0.000220769)
(0.125686 0.000334684 -0.000447017)
(0.122784 0.000768549 -0.000405658)
(0.116884 0.00122379 -0.000361885)
(0.104166 0.00130534 -0.000272287)
(0.0715879 0.00115192 -0.000217975)
(0.126603 0.000424723 -6.67977e-05)
(0.123612 0.000848553 -0.000137437)
(0.117468 0.00127956 -0.000242588)
(0.104443 0.00132116 -0.000287439)
(0.0719664 0.00116209 -0.000186011)
(0.125687 0.000444327 0.000335181)
(0.122545 0.000800344 0.000170027)
(0.115964 0.00116712 -5.84481e-05)
(0.102015 0.00114979 -0.000224847)
(0.0682669 0.000993598 -9.47863e-05)
(0.122787 0.000403692 0.000769189)
(0.119541 0.000640637 0.00055638)
(0.112485 0.000920361 0.000254041)
(0.0971938 0.000840358 -4.11526e-05)
(0.061289 0.000682446 2.22946e-05)
(0.116888 0.000360837 0.00122482)