/*--------------------------------*- C++ -*----------------------------------*\
| =========                 |                                                 |
| \\      /  F ield         | OpenFOAM: The Open Source CFD Toolbox           |
|  \\    /   O peration     | Version:  2212                                  |
|   \\  /    A nd           | Website:  www.openfoam.com                      |
|    \\/     M anipulation  |                                                 |
\*---------------------------------------------------------------------------*/
FoamFile
{
    version     2.0;
    format      ascii;
    arch        "LSB;label=32;scalar=64";
    class       surfaceVectorField;
    location    "3";
    object      Uf;
}
// * * * * * * * * * * * * * * * * * * * * * * * * * * * * * * * * * * * * * //

dimensions      [0 1 -1 0 0 0 0];

internalField   nonuniform List<vector> 
1786
(
(0.0805037 1.65027e-05 -0.00161873)
(0.0789665 2.39977e-05 -0.00163477)
(0.0925525 9.1879e-05 -0.00165566)
(0.0795765 -3.96568e-05 -0.00157062)
(0.0779848 -2.94762e-05 -0.00156941)
(0.092021 2.70708e-05 -0.00161459)
(0.0786699 -8.85947e-05 -0.00152085)
(0.0770421 -7.27053e-05 -0.00150386)
(0.0914954 -3.12628e-05 -0.00157144)
(0.0777879 -0.000126995 -0.00147188)
(0.0761396 -0.00010504 -0.00144175)
(0.0909801 -8.30693e-05 -0.00152613)
(0.0769313 -0.000153323 -0.00142445)
(0.0752745 -0.000126446 -0.0013839)
(0.0904773 -0.000123741 -0.00148132)
(0.0761 -0.00017176 -0.00137874)
(0.074445 -0.000140365 -0.00132991)
(0.0899877 -0.000155663 -0.00143766)
(0.0752936 -0.000184648 -0.00133493)
(0.0736486 -0.000149236 -0.00127919)
(0.0895114 -0.00018098 -0.00139528)
(0.0745121 -0.000192516 -0.00129355)
(0.0728831 -0.000153685 -0.00123221)
(0.089049 -0.000200243 -0.00135442)
(0.0737547 -0.000195813 -0.00125445)
(0.0721466 -0.000154221 -0.0011895)
(0.0886009 -0.000214195 -0.00131558)
(0.0730199 -0.000194681 -0.00121774)
(0.0714357 -0.000152087 -0.00114978)
(0.0881665 -0.000223558 -0.00127867)
(0.0707509 -0.000147329 -0.00111454)
(0.0877462 -0.000228267 -0.00124208)
(0.0764933 -1.89488e-05 -0.00158634)
(0.072731 -8.9234e-06 -0.00145721)
(0.0893997 -5.29703e-06 -0.00164498)
(0.0754961 -6.00561e-05 -0.00150384)
(0.0717531 -3.4227e-05 -0.00136879)
(0.0887722 -5.52969e-05 -0.00156718)
(0.0745567 -8.80378e-05 -0.00142604)
(0.070844 -5.25501e-05 -0.00128227)
(0.0881835 -9.54281e-05 -0.0014928)
(0.0736716 -0.000104951 -0.00135503)
(0.0699973 -6.06359e-05 -0.00120365)
(0.0876314 -0.000124593 -0.00142452)
(0.0728342 -0.000114734 -0.00129069)
(0.0692022 -6.44918e-05 -0.00113366)
(0.0871131 -0.00014576 -0.00136162)
(0.0720391 -0.0001192 -0.00123184)
(0.0684563 -6.62254e-05 -0.00107175)
(0.0866254 -0.000160051 -0.00130285)
(0.0712828 -0.000119882 -0.00117805)
(0.0677487 -6.59409e-05 -0.00101676)
(0.0861659 -0.000169166 -0.00124787)
(0.0705613 -0.000117492 -0.00112975)
(0.0670779 -6.3444e-05 -0.000969097)
(0.085732 -0.000172003 -0.00119809)
(0.0698711 -0.000113072 -0.00108638)
(0.0664361 -5.87999e-05 -0.000928396)
(0.0853213 -0.000170993 -0.00115326)
(0.0692077 -0.00010671 -0.00104827)
(0.0658177 -5.41219e-05 -0.000891308)
(0.0849299 -0.000167738 -0.00111286)
(0.0652283 -4.70519e-05 -0.000861231)
(0.0845574 -0.000162499 -0.00107596)
(0.06828 -1.77197e-05 -0.00125334)
(0.0627832 1.1574e-05 -0.00100672)
(0.0825509 -7.75391e-05 -0.00129472)
(0.0673866 -1.31111e-05 -0.00116388)
(0.0619795 1.8674e-05 -0.000923346)
(0.0819713 -7.75877e-05 -0.00121129)
(0.066563 -4.8657e-06 -0.00107926)
(0.0612348 2.78836e-05 -0.000826172)
(0.0814466 -7.36679e-05 -0.00113053)
(0.0658026 1.79946e-06 -0.00100264)
(0.0605509 3.97814e-05 -0.000749619)
(0.080968 -6.73083e-05 -0.00105702)
(0.0650951 4.07048e-06 -0.000934732)
(0.0598975 4.43241e-05 -0.000691692)
(0.0805286 -6.17181e-05 -0.000991262)
(0.064432 4.77886e-06 -0.000876017)
(0.0592994 4.5366e-05 -0.00064616)
(0.0801209 -5.63507e-05 -0.000934389)
(0.0638058 6.502e-06 -0.000826485)
(0.0587125 4.63236e-05 -0.000607976)
(0.0797416 -4.91635e-05 -0.000886255)
(0.0632093 9.68616e-06 -0.000785681)
(0.0581681 4.75312e-05 -0.00057692)
(0.0793828 -4.07885e-05 -0.00084645)
(0.0626371 1.27684e-05 -0.000750391)
(0.0576313 4.9387e-05 -0.000551341)
(0.0790432 -3.24806e-05 -0.000812391)
(0.0620841 1.56132e-05 -0.000720231)
(0.0571194 4.93464e-05 -0.000527824)
(0.0787145 -2.49112e-05 -0.000783408)
(0.0566267 4.96236e-05 -0.000508043)
(0.0784044 -1.87564e-05 -0.000754293)
(0.057918 9.59328e-05 -0.000803884)
(0.0504097 0.000114116 -0.000512938)
(0.0729449 1.17731e-05 -0.000773517)
(0.0571983 0.000103531 -0.00073817)
(0.049795 0.000122704 -0.000477258)
(0.0724618 4.06718e-05 -0.000727721)
(0.0565279 9.99233e-05 -0.000640572)
(0.0492015 0.000122351 -0.000428584)
(0.0720137 5.89124e-05 -0.000671348)
(0.0559086 9.80433e-05 -0.000545306)
(0.0486305 0.00011868 -0.000369894)
(0.0715963 7.55774e-05 -0.000608877)
(0.0553252 0.000100454 -0.000483124)
(0.0480884 0.00011426 -0.000326603)
(0.07121 9.17816e-05 -0.000560024)
(0.0547692 0.000102344 -0.000445002)
(0.0475601 0.000111165 -0.000299989)
(0.0708352 0.00010695 -0.000529749)
(0.0542372 0.000102725 -0.000417568)
(0.0470647 0.000107622 -0.000280994)
(0.0704852 0.000117471 -0.00050577)
(0.0537266 0.000102765 -0.000395837)
(0.0465716 0.000103221 -0.000264222)
(0.0701341 0.000124256 -0.000483109)
(0.053233 0.000103542 -0.0003788)
(0.0461104 0.000101287 -0.000251865)
(0.0697986 0.000130739 -0.000466378)
(0.0527555 0.000103933 -0.00036431)
(0.0456513 0.000100874 -0.000241758)
(0.0694667 0.000135837 -0.000450567)
(0.05229 0.00010282 -0.000350657)
(0.045206 0.000100176 -0.000233745)
(0.0691409 0.00014201 -0.000441044)
(0.0447819 9.8183e-05 -0.00022569)
(0.0688265 0.000144593 -0.000427626)
(0.0438349 4.83541e-05 -0.000193471)
(0.0347049 2.60548e-05 -9.24175e-05)
(0.0580258 2.3788e-05 -0.000139414)
(0.0433089 4.35369e-05 -0.00016647)
(0.0342781 1.76937e-05 -7.92772e-05)
(0.0575973 3.64677e-05 -0.000128609)
(0.0427954 3.72116e-05 -0.000144668)
(0.0338493 5.21499e-06 -6.75372e-05)
(0.0571571 4.53679e-05 -0.00012494)
(0.0422939 2.98011e-05 -0.000128258)
(0.0334301 -7.34062e-06 -5.93902e-05)
(0.056721 5.51342e-05 -0.000131936)
(0.0418037 2.27261e-05 -0.000116176)
(0.0330204 -1.8176e-05 -5.22218e-05)
(0.0562806 6.02874e-05 -0.000135177)
(0.0413233 1.75484e-05 -0.00010709)
(0.0326243 -2.35768e-05 -4.78426e-05)
(0.0558473 6.40149e-05 -0.000136054)
(0.0408572 1.32119e-05 -9.87833e-05)
(0.0322379 -2.66033e-05 -4.4089e-05)
(0.0554205 6.44294e-05 -0.000132586)
(0.0404082 9.8944e-06 -9.14523e-05)
(0.0318633 -2.88663e-05 -4.0339e-05)
(0.054997 6.35116e-05 -0.000127198)
(0.0399718 8.17292e-06 -8.55019e-05)
(0.0315029 -3.03653e-05 -3.73539e-05)
(0.0545825 6.25643e-05 -0.000122261)
(0.0395474 8.38675e-06 -8.17339e-05)
(0.0311507 -3.12606e-05 -3.47326e-05)
(0.0541737 6.11182e-05 -0.000116087)
(0.0391285 1.05051e-05 -8.04339e-05)
(0.0307969 -2.9406e-05 -3.47187e-05)
(0.0537604 6.46889e-05 -0.000116745)
(0.0304637 -2.60439e-05 -3.51364e-05)
(0.0533657 6.71799e-05 -0.000115952)
(0.0282735 3.01387e-05 -3.55619e-05)
(0.0357345 9.9629e-05 -4.42258e-05)
(0.0279003 2.52585e-05 -4.04959e-05)
(0.0353176 0.000105447 -5.99704e-05)
(0.0275354 1.6638e-05 -4.50919e-05)
(0.034894 0.000105377 -7.47172e-05)
(0.0271817 7.99692e-06 -4.81556e-05)
(0.0344856 0.000101578 -8.73309e-05)
(0.0268402 2.46685e-06 -4.93014e-05)
(0.0340845 9.81504e-05 -9.71069e-05)
(0.026506 -4.06445e-07 -4.91574e-05)
(0.0336979 9.58408e-05 -0.00010227)
(0.0261817 -2.27685e-06 -4.81488e-05)
(0.0333181 9.33181e-05 -0.000103849)
(0.0258688 -3.65735e-06 -4.70445e-05)
(0.0329508 9.04729e-05 -0.000104251)
(0.0255638 -4.83364e-06 -4.60668e-05)
(0.0325922 8.78081e-05 -0.00010496)
(0.0252638 -5.23313e-06 -4.55083e-05)
(0.0322386 8.51162e-05 -0.000106363)
(0.0249636 -5.01667e-06 -4.44624e-05)
(0.0318772 8.23305e-05 -0.000106135)
(0.0315338 7.57744e-05 -0.000100875)
(0.105388 9.24759e-05 -0.00175703)
(0.104329 5.56837e-05 -0.00177961)
(0.109832 5.86696e-05 -0.00174428)
(0.105302 2.5092e-05 -0.00172016)
(0.104197 -6.73393e-06 -0.00172225)
(0.109927 5.75746e-06 -0.00171101)
(0.105211 -3.64652e-05 -0.00167977)
(0.104068 -6.25965e-05 -0.00166615)
(0.110015 -4.30737e-05 -0.00167595)
(0.105117 -9.10394e-05 -0.00163637)
(0.103946 -0.000111488 -0.00161009)
(0.110097 -8.74633e-05 -0.00163744)
(0.105022 -0.000138045 -0.00159306)
(0.10383 -0.000152595 -0.00155613)
(0.110177 -0.000126723 -0.0015985)
(0.104926 -0.000177624 -0.0015505)
(0.103721 -0.000186028 -0.00150413)
(0.110253 -0.000160844 -0.0015602)
(0.104831 -0.000210027 -0.00150893)
(0.10362 -0.000212566 -0.00145395)
(0.110327 -0.000190228 -0.00152294)
(0.104739 -0.00023601 -0.00146839)
(0.103525 -0.000230553 -0.00140702)
(0.110401 -0.000214662 -0.00148703)
(0.104649 -0.000256569 -0.00142911)
(0.103439 -0.000243253 -0.00136287)
(0.110474 -0.000234823 -0.00145204)
(0.104563 -0.000272205 -0.00138893)
(0.103359 -0.000251453 -0.00132217)
(0.110548 -0.000251068 -0.00141839)
(0.103284 -0.000256724 -0.00127943)
(0.110622 -0.000263798 -0.00138238)
(0.103156 -4.72631e-05 -0.00174403)
(0.10067 -8.50255e-05 -0.00158587)
(0.108051 2.49092e-06 -0.0017754)
(0.102983 -9.64924e-05 -0.00166812)
(0.10049 -0.000112626 -0.00150436)
(0.10807 -3.73022e-05 -0.0017036)
(0.102823 -0.000138324 -0.00159689)
(0.100333 -0.000134732 -0.001428)
(0.108098 -7.08247e-05 -0.00163523)
(0.102679 -0.000172466 -0.00153073)
(0.100193 -0.000151539 -0.00135763)
(0.108134 -9.86267e-05 -0.00157127)
(0.10255 -0.000198876 -0.00146848)
(0.100073 -0.000161354 -0.0012952)
(0.108179 -0.000120509 -0.00151209)
(0.102436 -0.000218493 -0.00140918)
(0.0999639 -0.000166016 -0.00123881)
(0.108233 -0.000137165 -0.00145708)
(0.102335 -0.000230218 -0.00135386)
(0.0998718 -0.000166467 -0.00118785)
(0.108296 -0.000149319 -0.00140576)
(0.102247 -0.000234667 -0.0013035)
(0.0997871 -0.000161699 -0.00114288)
(0.108366 -0.000155147 -0.00135852)
(0.102169 -0.000234954 -0.00125803)
(0.0997149 -0.000155689 -0.00110136)
(0.108442 -0.000157164 -0.001315)
(0.102101 -0.000232922 -0.00121479)
(0.0996479 -0.000147841 -0.0010667)
(0.108525 -0.000156224 -0.00127587)
(0.0995882 -0.000142392 -0.00102554)
(0.108611 -0.000154133 -0.00123627)
(0.0981385 -0.00013816 -0.0013591)
(0.0939089 -8.97221e-05 -0.00107415)
(0.103738 -2.31594e-05 -0.00143513)
(0.097974 -0.000139816 -0.00127733)
(0.0937382 -7.08646e-05 -0.00100942)
(0.103754 -2.03984e-05 -0.00135526)
(0.0978354 -0.000138681 -0.00120177)
(0.0935901 -5.17968e-05 -0.00095553)
(0.103788 -1.52331e-05 -0.00128211)
(0.0977175 -0.000133861 -0.0011347)
(0.0934538 -3.52582e-05 -0.000904165)
(0.103836 -7.54914e-06 -0.00121555)
(0.0976173 -0.000124978 -0.00107742)
(0.0933354 -1.55911e-05 -0.000867092)
(0.103898 3.67351e-06 -0.00115949)
(0.0975303 -0.0001126 -0.00102874)
(0.0932135 2.45453e-06 -0.000834069)
(0.103965 1.72722e-05 -0.00111173)
(0.0974537 -9.81879e-05 -0.0009875)
(0.0931063 1.90228e-05 -0.000803611)
(0.104044 3.21503e-05 -0.00107039)
(0.0973848 -8.42788e-05 -0.000950791)
(0.0929886 3.37288e-05 -0.000777577)
(0.104125 4.70527e-05 -0.00103413)
(0.0973217 -7.11027e-05 -0.000919538)
(0.0928857 4.48932e-05 -0.000750697)
(0.104211 6.05328e-05 -0.00100048)
(0.0972645 -6.00288e-05 -0.000886686)
(0.092772 5.89065e-05 -0.000735585)
(0.1043 7.43093e-05 -0.000974235)
(0.0926681 6.82242e-05 -0.000710045)
(0.104389 8.4621e-05 -0.000941724)
(0.0900707 -3.26324e-05 -0.000816341)
(0.0823312 4.84446e-05 -0.00051439)
(0.096439 0.000144189 -0.000936943)
(0.0898998 6.72228e-06 -0.000765873)
(0.0820748 8.20847e-05 -0.000485448)
(0.0964395 0.000186185 -0.000880782)
(0.0897455 4.45583e-05 -0.000727035)
(0.0818137 0.000113294 -0.000464737)
(0.0964571 0.000224139 -0.000828816)
(0.0895988 7.85109e-05 -0.000695639)
(0.0815611 0.000146592 -0.00045872)
(0.0964804 0.000261281 -0.000787288)
(0.0894604 0.000107861 -0.000671894)
(0.0812993 0.000171902 -0.000450263)
(0.096505 0.000292505 -0.000751619)
(0.0893232 0.000133295 -0.000656147)
(0.0810407 0.000191365 -0.000445949)
(0.0965322 0.000321914 -0.000731298)
(0.0891833 0.000151832 -0.000638607)
(0.0807749 0.000202374 -0.000437013)
(0.0965488 0.000343988 -0.000712881)
(0.0890397 0.000166211 -0.000621305)
(0.0805093 0.000209155 -0.000425458)
(0.0965688 0.000359274 -0.000692698)
(0.0888919 0.000177526 -0.000603902)
(0.0802313 0.00021433 -0.000414923)
(0.0965749 0.000373579 -0.000677778)
(0.0887414 0.000189084 -0.000592052)
(0.0799613 0.000216706 -0.00040146)
(0.0965845 0.000384311 -0.000662016)
(0.088586 0.000199807 -0.000582572)
(0.0796751 0.000225224 -0.000402282)
(0.0965811 0.000398497 -0.000659349)
(0.0793971 0.000228037 -0.000396664)
(0.0965752 0.000406705 -0.000651347)
(0.0754212 4.14843e-05 -0.00017408)
(0.0594608 9.69445e-05 -0.000113653)
(0.0832131 0.000282065 -0.000318434)
(0.0750855 6.54874e-05 -0.00017016)
(0.0590459 0.000108303 -0.000114852)
(0.0830516 0.000318064 -0.000307028)
(0.0747416 8.69052e-05 -0.000175806)
(0.058613 0.000112231 -0.000116456)
(0.0828715 0.000342334 -0.000296007)
(0.0743869 0.000106725 -0.000186713)
(0.058192 0.00011513 -0.000122643)
(0.0826771 0.000363039 -0.000291509)
(0.0740233 0.000122156 -0.000194828)
(0.0577637 0.000116408 -0.000128282)
(0.0824692 0.000377161 -0.000288201)
(0.0736523 0.000131626 -0.000197551)
(0.0573436 0.000118534 -0.000131992)
(0.082245 0.000387062 -0.000284524)
(0.0732767 0.000135713 -0.000195313)
(0.0569259 0.00011781 -0.000131518)
(0.0820152 0.000391147 -0.000278998)
(0.0728969 0.00013723 -0.000191025)
(0.0565126 0.000115583 -0.000129768)
(0.081768 0.000393209 -0.000274436)
(0.0725129 0.000136271 -0.000184551)
(0.0561007 0.000113396 -0.00012928)
(0.0815098 0.000394277 -0.000272042)
(0.0721267 0.000138713 -0.000184107)
(0.0556899 0.000110651 -0.000129535)
(0.081248 0.000393595 -0.000270283)
(0.0717314 0.000144162 -0.000189847)
(0.055266 0.000112638 -0.000136415)
(0.0809729 0.000397506 -0.000278527)
(0.054857 0.000111595 -0.000140969)
(0.0806965 0.000396398 -0.00028641)
(0.0464198 0.000228297 -0.000116514)
(0.054255 0.000473278 -0.000221598)
(0.0459165 0.000235451 -0.000130215)
(0.0537535 0.00048697 -0.000227854)
(0.0454243 0.000236027 -0.000140119)
(0.0532251 0.000489913 -0.000227022)
(0.0449436 0.000233263 -0.000148024)
(0.0527149 0.00048558 -0.000222652)
(0.0444747 0.000229384 -0.000153404)
(0.0521899 0.000478219 -0.000218232)
(0.0440152 0.000224669 -0.000155143)
(0.0516835 0.000468842 -0.000212714)
(0.0435672 0.000219011 -0.000155078)
(0.0511675 0.000458157 -0.000207419)
(0.0431298 0.000213339 -0.000156148)
(0.050669 0.00044654 -0.000203808)
(0.0426956 0.000208411 -0.000160264)
(0.0501622 0.000436499 -0.000205599)
(0.042258 0.000203422 -0.000165489)
(0.0496658 0.000428573 -0.000213042)
(0.0418151 0.000194707 -0.000167809)
(0.0491495 0.000413033 -0.0002148)
(0.0486635 0.000380057 -0.000209122)
(0.114739 -1.868e-05 -0.00159536)
(0.113927 1.75155e-05 -0.00163494)
(0.116804 -3.86276e-05 -0.00132856)
(0.115022 -5.18288e-05 -0.00156515)
(0.114188 -1.31586e-05 -0.00158894)
(0.117167 -6.04309e-05 -0.00130361)
(0.115299 -8.247e-05 -0.00153373)
(0.114447 -4.00789e-05 -0.00154369)
(0.117522 -8.065e-05 -0.0012781)
(0.11557 -0.000110711 -0.00150156)
(0.114703 -6.36275e-05 -0.00149964)
(0.11787 -9.93746e-05 -0.00125181)
(0.115835 -0.000136454 -0.00146952)
(0.114958 -8.40149e-05 -0.00145764)
(0.118211 -0.000116429 -0.00122543)
(0.116095 -0.00015995 -0.00143841)
(0.115212 -0.000101498 -0.00141838)
(0.118546 -0.000131828 -0.00119961)
(0.116352 -0.000181112 -0.00140862)
(0.115465 -0.000116465 -0.00138225)
(0.118875 -0.000145845 -0.0011748)
(0.116605 -0.000199606 -0.00137998)
(0.115716 -0.000128728 -0.00134826)
(0.1192 -0.000158176 -0.00115105)
(0.116855 -0.000215464 -0.00135246)
(0.115966 -0.000138327 -0.00131594)
(0.11952 -0.000168836 -0.00112808)
(0.117102 -0.000228932 -0.00132499)
(0.116216 -0.000145397 -0.00128588)
(0.119836 -0.000177914 -0.00110619)
(0.116464 -0.000150523 -0.00125535)
(0.120149 -0.000185602 -0.00108353)
(0.113385 2.21163e-05 -0.00162818)
(0.111486 6.45508e-05 -0.00150794)
(0.115662 0.000105577 -0.00137661)
(0.113623 -1.10454e-06 -0.00156758)
(0.111719 5.65315e-05 -0.00144213)
(0.115989 8.94739e-05 -0.00132522)
(0.113861 -1.9854e-05 -0.00151009)
(0.111956 5.2318e-05 -0.0013812)
(0.116312 7.68783e-05 -0.00127622)
(0.114102 -3.48005e-05 -0.0014565)
(0.112196 5.13336e-05 -0.00132533)
(0.116634 6.7236e-05 -0.0012302)
(0.114346 -4.64835e-05 -0.00140749)
(0.11244 5.33853e-05 -0.0012756)
(0.116954 6.01545e-05 -0.00118781)
(0.114592 -5.53866e-05 -0.00136333)
(0.112686 5.70144e-05 -0.00123154)
(0.117273 5.49116e-05 -0.00114944)
(0.11484 -6.1575e-05 -0.00132307)
(0.112935 6.11663e-05 -0.00119199)
(0.117592 5.08809e-05 -0.00111516)
(0.115088 -6.50828e-05 -0.00128546)
(0.113185 6.65949e-05 -0.00115629)
(0.117909 4.8311e-05 -0.00108384)
(0.115338 -6.60282e-05 -0.00125064)
(0.113435 7.29234e-05 -0.00112348)
(0.118224 4.71854e-05 -0.00105488)
(0.115589 -6.52081e-05 -0.0012175)
(0.113687 8.08262e-05 -0.00109536)
(0.118538 4.77267e-05 -0.00102877)
(0.113935 8.76361e-05 -0.00106716)
(0.11885 4.90299e-05 -0.00100314)
(0.109895 0.000104844 -0.00133009)
(0.106609 0.000235643 -0.00110279)
(0.112523 0.00026871 -0.00111383)
(0.110128 0.000115014 -0.00126404)
(0.106833 0.000262038 -0.00104578)
(0.112834 0.000279445 -0.00105798)
(0.110366 0.000127279 -0.00120462)
(0.107057 0.000287647 -0.00099542)
(0.113146 0.000291503 -0.00100799)
(0.110608 0.000141839 -0.00115239)
(0.107284 0.000312301 -0.000952565)
(0.113458 0.000304608 -0.00096376)
(0.110855 0.000158129 -0.00110742)
(0.107507 0.000336679 -0.000917692)
(0.113769 0.000318934 -0.0009259)
(0.111104 0.000174412 -0.0010679)
(0.107728 0.000357274 -0.000886647)
(0.11408 0.00033327 -0.000893149)
(0.111355 0.000189837 -0.00103282)
(0.107948 0.000373029 -0.000856367)
(0.11439 0.000346303 -0.000863935)
(0.111607 0.000204356 -0.00100171)
(0.108167 0.00038868 -0.000833414)
(0.114698 0.000358394 -0.000839073)
(0.111858 0.0002185 -0.000975249)
(0.108379 0.000402216 -0.000813616)
(0.115002 0.000369406 -0.000817379)
(0.11211 0.000231628 -0.000951748)
(0.108591 0.000417136 -0.00080229)
(0.115305 0.000380309 -0.000800564)
(0.108789 0.00042777 -0.000789665)
(0.115602 0.000389453 -0.000783777)
(0.103558 0.0003762 -0.000897104)
(0.0974448 0.000507801 -0.000634752)
(0.106616 0.000577933 -0.000699568)
(0.103775 0.000417636 -0.000847637)
(0.0975533 0.000555037 -0.000607244)
(0.106891 0.000617419 -0.000662764)
(0.103991 0.00045599 -0.00080471)
(0.0976634 0.000591514 -0.000579287)
(0.10717 0.000653513 -0.000631621)
(0.104205 0.00049145 -0.000769503)
(0.0977531 0.000621034 -0.00055469)
(0.10744 0.000686041 -0.00060641)
(0.104412 0.000523357 -0.000742473)
(0.0978391 0.000643219 -0.000533391)
(0.107704 0.000714923 -0.000586815)
(0.104613 0.000549529 -0.000720033)
(0.0979056 0.000659914 -0.000517088)
(0.107958 0.00073969 -0.000573848)
(0.104808 0.000568231 -0.000697215)
(0.0979631 0.000671655 -0.000502897)
(0.108204 0.000758794 -0.000562687)
(0.104998 0.000583387 -0.000678204)
(0.0980042 0.000680254 -0.000490616)
(0.10844 0.00077181 -0.000550522)
(0.10518 0.000597294 -0.000665637)
(0.0980329 0.000687486 -0.000484047)
(0.108671 0.000783824 -0.00054405)
(0.105353 0.000610812 -0.000659945)
(0.0980518 0.000692188 -0.000480281)
(0.108888 0.000792485 -0.000539473)
(0.105519 0.000622466 -0.000658423)
(0.0980611 0.000696172 -0.000482915)
(0.109101 0.000802241 -0.000542765)
(0.098057 0.000692962 -0.000483971)
(0.109294 0.000807938 -0.000545117)
(0.092079 0.00057627 -0.000337519)
(0.076752 0.000622719 -0.000270369)
(0.0960174 0.000776869 -0.000171377)
(0.0920961 0.00061528 -0.00032796)
(0.0764838 0.000645967 -0.00026414)
(0.0960809 0.000819915 -0.000175112)
(0.0920913 0.000640911 -0.000315561)
(0.0761864 0.000657111 -0.000253318)
(0.0961317 0.000849425 -0.000176955)
(0.0920675 0.000657041 -0.000303131)
(0.0758824 0.00066119 -0.000242666)
(0.0961499 0.000869557 -0.000180841)
(0.0920254 0.000666099 -0.000291984)
(0.0755558 0.000659955 -0.000232917)
(0.0961558 0.00088117 -0.000185682)
(0.0919638 0.000671063 -0.000283726)
(0.0752257 0.000655354 -0.000225112)
(0.0961326 0.000887418 -0.000193009)
(0.0918816 0.000673593 -0.000279052)
(0.0748754 0.0006479 -0.000219436)
(0.0960959 0.000891224 -0.000201542)
(0.0917797 0.000675542 -0.000278395)
(0.074524 0.000638715 -0.000217107)
(0.0960316 0.000891003 -0.000211751)
(0.0916617 0.000676971 -0.000280841)
(0.0741496 0.000632156 -0.00022018)
(0.0959525 0.000892331 -0.00022278)
(0.0915324 0.000677301 -0.000286492)
(0.073783 0.000627658 -0.000228)
(0.0958556 0.000889728 -0.000232887)
(0.0913922 0.000673368 -0.000293592)
(0.073395 0.000615623 -0.000232323)
(0.095749 0.000884027 -0.000243454)
(0.0730242 0.000585012 -0.000229635)
(0.095627 0.000869301 -0.000250413)
(0.0634557 0.000763292 -0.000246882)
(0.0689913 0.000905569 -0.000112929)
(0.0629141 0.000775808 -0.000246134)
(0.0684248 0.000925068 -0.00012028)
(0.0623613 0.000777122 -0.000241302)
(0.0678156 0.000933504 -0.000126481)
(0.0617983 0.000771199 -0.00023557)
(0.0672021 0.000933013 -0.000133734)
(0.061227 0.000760559 -0.000230039)
(0.0665568 0.000926263 -0.000143332)
(0.0606491 0.000746468 -0.000225234)
(0.0659145 0.000914296 -0.000152308)
(0.0600676 0.000730429 -0.000222557)
(0.0652502 0.00089899 -0.000159909)
(0.0594849 0.00071446 -0.000223938)
(0.0645985 0.000880858 -0.00016661)
(0.0588996 0.00070089 -0.000230888)
(0.0639273 0.000862287 -0.000175693)
(0.0583113 0.000680871 -0.000235118)
(0.0632794 0.000845186 -0.000186939)
(0.0577256 0.000636969 -0.000226729)
(0.0626126 0.000819187 -0.00019421)
(0.0619847 0.000775122 -0.000196078)
(0.119357 -8.53931e-05 -0.00104409)
(0.118664 4.89734e-05 -0.00107774)
(0.119797 -9.35486e-05 -0.00102387)
(0.119096 4.15676e-05 -0.00104768)
(0.120228 -0.000101196 -0.00100362)
(0.119521 3.53634e-05 -0.00101858)
(0.12065 -0.000108154 -0.000983471)
(0.119938 3.042e-05 -0.000990683)
(0.121065 -0.000114337 -0.000963698)
(0.120349 2.66339e-05 -0.000964333)
(0.121473 -0.000119768 -0.000944545)
(0.120753 2.36605e-05 -0.000939804)
(0.121875 -0.000124514 -0.000926146)
(0.121153 2.09901e-05 -0.00091718)
(0.12227 -0.000128638 -0.000908502)
(0.121547 1.86429e-05 -0.00089634)
(0.12266 -0.000132213 -0.000891689)
(0.121936 1.6695e-05 -0.000877063)
(0.123045 -0.000135277 -0.000875267)
(0.12232 1.53021e-05 -0.000859539)
(0.1227 1.4465e-05 -0.000842462)
(0.118408 0.000175161 -0.00108123)
(0.116795 0.000313853 -0.000985838)
(0.119424 0.000265641 -0.000837808)
(0.118826 0.00017016 -0.00104249)
(0.117204 0.00031726 -0.000945427)
(0.119881 0.000260642 -0.000809367)
(0.119237 0.000167083 -0.00100591)
(0.117608 0.000321973 -0.000908353)
(0.12033 0.000257081 -0.000782518)
(0.119642 0.000165661 -0.000971956)
(0.118006 0.000327622 -0.000874832)
(0.120772 0.000254805 -0.00075751)
(0.120043 0.00016532 -0.000940961)
(0.118398 0.000333871 -0.0008452)
(0.121207 0.000253548 -0.000734626)
(0.120439 0.000165189 -0.000913032)
(0.118786 0.000339985 -0.000819178)
(0.121635 0.0002528 -0.000714006)
(0.120831 0.000164954 -0.000888018)
(0.119169 0.000345076 -0.000796214)
(0.122057 0.00025195 -0.000695622)
(0.121218 0.00016488 -0.000865593)
(0.119548 0.000349619 -0.000776325)
(0.122474 0.000251132 -0.000679253)
(0.121602 0.000165289 -0.000845657)
(0.119921 0.000353809 -0.0007591)
(0.122885 0.000250421 -0.000664666)
(0.121982 0.000166317 -0.000827523)
(0.12029 0.000358344 -0.000745093)
(0.123292 0.000250106 -0.000652008)
(0.120653 0.000362606 -0.000732297)
(0.123693 0.000249996 -0.000640201)
(0.115642 0.000453152 -0.000854655)
(0.112826 0.000642797 -0.000667522)
(0.116839 0.000618349 -0.00065946)
(0.116037 0.000465847 -0.000815891)
(0.113194 0.000666009 -0.000639488)
(0.117262 0.000625325 -0.000633699)
(0.116428 0.00047877 -0.000781778)
(0.113556 0.000687075 -0.000615869)
(0.117679 0.000632319 -0.000611254)
(0.116814 0.000491593 -0.000752451)
(0.113909 0.000706094 -0.000596354)
(0.118088 0.000639065 -0.000592032)
(0.117194 0.000503831 -0.000727631)
(0.114253 0.000722786 -0.000581469)
(0.118491 0.000645365 -0.000576083)
(0.11757 0.000514722 -0.0007064)
(0.11459 0.000736766 -0.00057024)
(0.118887 0.00065075 -0.000563063)
(0.117939 0.000524217 -0.000688394)
(0.114917 0.000747123 -0.000560832)
(0.119277 0.000654647 -0.000552279)
(0.118304 0.000532607 -0.000673514)
(0.115238 0.000756279 -0.000554373)
(0.11966 0.00065751 -0.000543856)
(0.118662 0.000540171 -0.00066194)
(0.115547 0.000762866 -0.00054966)
(0.120036 0.00065919 -0.000537453)
(0.119016 0.000546863 -0.000652905)
(0.115852 0.00076921 -0.000549055)
(0.120407 0.00066026 -0.000533712)
(0.116143 0.000773629 -0.000549913)
(0.120771 0.000660219 -0.00053095)
(0.110193 0.000836896 -0.000490255)
(0.104966 0.000971994 -0.000268413)
(0.111653 0.00104652 -0.000337269)
(0.110539 0.000870736 -0.000471408)
(0.10519 0.001011 -0.000266293)
(0.112004 0.00106992 -0.000332918)
(0.110875 0.000900668 -0.000457464)
(0.105402 0.00104237 -0.000267654)
(0.112345 0.0010901 -0.000332696)
(0.111201 0.000926229 -0.000447389)
(0.105592 0.00106565 -0.000271774)
(0.112676 0.00110634 -0.000335137)
(0.111515 0.000947557 -0.000441266)
(0.105767 0.00108241 -0.000279166)
(0.112995 0.00111876 -0.000339765)
(0.111817 0.000964908 -0.000439032)
(0.105921 0.00109363 -0.000288856)
(0.113302 0.00112759 -0.000346575)
(0.11211 0.000978115 -0.00043892)
(0.106061 0.00110294 -0.000300427)
(0.113599 0.00113313 -0.000354969)
(0.112389 0.000987788 -0.000440365)
(0.10618 0.00110663 -0.000311118)
(0.113884 0.00113505 -0.000363288)
(0.112658 0.000994292 -0.000443287)
(0.106291 0.00111045 -0.000323905)
(0.11416 0.00113465 -0.000373634)
(0.112916 0.000998868 -0.000448788)
(0.106378 0.00110839 -0.00033489)
(0.114424 0.00113102 -0.000384176)
(0.113163 0.00100238 -0.000457357)
(0.106462 0.00110311 -0.000346026)
(0.114682 0.00112631 -0.000396573)
(0.106524 0.00109125 -0.000354696)
(0.114925 0.00111961 -0.00040845)
(0.100411 0.00104583 -3.7972e-05)
(0.0868757 0.00103193 -3.41475e-05)
(0.102391 0.00124678 5.19155e-05)
(0.100515 0.00107904 -5.34673e-05)
(0.0865946 0.001055 -4.96455e-05)
(0.102477 0.00127199 1.96143e-05)
(0.100593 0.00110282 -7.10702e-05)
(0.0862851 0.00107069 -6.59617e-05)
(0.102543 0.00128847 -1.39455e-05)
(0.100645 0.00111823 -9.1394e-05)
(0.0859461 0.00107891 -8.45251e-05)
(0.102583 0.0012966 -4.72076e-05)
(0.100672 0.00112683 -0.000113701)
(0.0855843 0.00108062 -0.000106355)
(0.102603 0.00129889 -8.01774e-05)
(0.100677 0.00113171 -0.000136386)
(0.0852011 0.0010766 -0.000128185)
(0.1026 0.00129595 -0.000111788)
(0.10066 0.00113245 -0.000157875)
(0.0848022 0.00106953 -0.000147038)
(0.102581 0.0012908 -0.000141712)
(0.100623 0.00113134 -0.000179165)
(0.0843918 0.00105709 -0.000162667)
(0.102541 0.00128002 -0.000168115)
(0.100567 0.00112851 -0.000199651)
(0.0839703 0.00104455 -0.000178136)
(0.10249 0.00127006 -0.00019443)
(0.100496 0.00111952 -0.000216445)
(0.0835491 0.00102911 -0.000191465)
(0.10242 0.00125423 -0.000216541)
(0.100413 0.0011025 -0.000228338)
(0.083121 0.00101046 -0.000201866)
(0.102346 0.00123376 -0.000233877)
(0.0827026 0.000984766 -0.000208769)
(0.102256 0.00120727 -0.000244457)
(0.0746907 0.00110181 -6.75569e-05)
(0.0778774 0.00125194 -3.88269e-05)
(0.0740443 0.00111801 -8.7134e-05)
(0.0771928 0.00126341 -7.24176e-05)
(0.0733664 0.00112492 -0.000106408)
(0.0764766 0.00126572 -0.000101008)
(0.0726614 0.00112346 -0.000127507)
(0.0757367 0.00126037 -0.000129913)
(0.0719361 0.00111498 -0.000149381)
(0.0749771 0.00124805 -0.000156559)
(0.071197 0.00110124 -0.000168022)
(0.0742075 0.00123095 -0.000178495)
(0.07045 0.00108313 -0.00018185)
(0.0734311 0.00120988 -0.000194847)
(0.0697013 0.00106146 -0.000192653)
(0.0726594 0.00118531 -0.000207825)
(0.0689565 0.00103814 -0.000201874)
(0.0718855 0.00115818 -0.000216089)
(0.0682218 0.00101383 -0.000209333)
(0.0711314 0.00113131 -0.000221596)
(0.0675009 0.000987054 -0.000215106)
(0.0703767 0.00110369 -0.000221158)
(0.069649 0.00107442 -0.000216091)
(0.120939 0.000354344 -0.000555059)
(0.119469 0.000579963 -0.000497046)
(0.121074 0.000435986 -0.00032027)
(0.121429 0.000350832 -0.000538694)
(0.119941 0.000578635 -0.000483526)
(0.121577 0.00042869 -0.00031112)
(0.12191 0.000348095 -0.00052362)
(0.120404 0.000577567 -0.000471673)
(0.122071 0.000421951 -0.000302592)
(0.122382 0.000345984 -0.000509912)
(0.120858 0.000576568 -0.000461432)
(0.122554 0.00041576 -0.000294728)
(0.122846 0.000344309 -0.000497617)
(0.121303 0.000575515 -0.000452787)
(0.123029 0.000410107 -0.000287597)
(0.123301 0.000342832 -0.000486718)
(0.12174 0.000574189 -0.000445636)
(0.123495 0.00040491 -0.000281223)
(0.123749 0.000341389 -0.000477138)
(0.122169 0.000572333 -0.000439806)
(0.123953 0.000400055 -0.000275588)
(0.12419 0.00033992 -0.000468769)
(0.12259 0.000569968 -0.0004352)
(0.124404 0.000395498 -0.000270654)
(0.124625 0.000338465 -0.000461578)
(0.123005 0.000567052 -0.000431662)
(0.124848 0.000391202 -0.000266361)
(0.125054 0.000336987 -0.000455299)
(0.123413 0.000563863 -0.000429362)
(0.125286 0.000387263 -0.000262741)
(0.123815 0.000560107 -0.000427578)
(0.125717 0.000383361 -0.000259479)
(0.118512 0.000797075 -0.000427666)
(0.115934 0.00104061 -0.000299041)
(0.118709 0.000924894 -0.000255039)
(0.118957 0.000798154 -0.000418544)
(0.116328 0.00104545 -0.000302662)
(0.119156 0.000915333 -0.000253884)
(0.119393 0.000798754 -0.000411389)
(0.116712 0.00104833 -0.000307865)
(0.119594 0.000905521 -0.000253553)
(0.119821 0.000798735 -0.000406066)
(0.117085 0.00104927 -0.000314379)
(0.120023 0.0008954 -0.000253924)
(0.12024 0.000797934 -0.000402406)
(0.117448 0.0010483 -0.00032194)
(0.120444 0.000885081 -0.000254894)
(0.120651 0.000796094 -0.000400156)
(0.117802 0.00104537 -0.000330069)
(0.120857 0.000874609 -0.000256341)
(0.121054 0.000793143 -0.000399123)
(0.118146 0.00104026 -0.000338294)
(0.121262 0.000863929 -0.000258133)
(0.12145 0.000789092 -0.00039916)
(0.118483 0.0010336 -0.000347016)
(0.121661 0.00085316 -0.000260213)
(0.121839 0.000784092 -0.000400304)
(0.11881 0.00102487 -0.000355721)
(0.122054 0.000842201 -0.000262477)
(0.122222 0.000778261 -0.000402286)
(0.119131 0.00101478 -0.000364609)
(0.12244 0.000831352 -0.00026509)
(0.119444 0.00100353 -0.000373098)