/*--------------------------------*- C++ -*----------------------------------*\
| =========                 |                                                 |
| \\      /  F ield         | OpenFOAM: The Open Source CFD Toolbox           |
|  \\    /   O peration     | Version:  2212                                  |
|   \\  /    A nd           | Website:  www.openfoam.com                      |
|    \\/     M anipulation  |                                                 |
\*---------------------------------------------------------------------------*/
FoamFile
{
    version     2.0;
    format      ascii;
    arch        "LSB;label=32;scalar=64";
    class       surfaceScalarField;
    location    "2.85";
    object      phi;
}
// * * * * * * * * * * * * * * * * * * * * * * * * * * * * * * * * * * * * * //

dimensions      [0 3 -1 0 0 0 0];

oriented        oriented;

internalField   nonuniform List<scalar> 
1763
(
5.50738e-08
-3.42713e-08
5.46133e-08
-3.43001e-08
3.47606e-08
5.4184e-08
-3.4338e-08
3.47674e-08
5.37767e-08
-3.43732e-08
3.47804e-08
5.33723e-08
-3.44067e-08
3.4811e-08
-3.44219e-08
3.48563e-08
1.80054e-07
-6.46333e-08
3.1831e-08
1.78655e-07
-6.47163e-08
3.18155e-08
1.77336e-07
-6.48048e-08
3.17861e-08
1.76059e-07
-6.48683e-08
3.17714e-08
1.7486e-07
-6.49587e-08
3.17516e-08
-6.49389e-08
3.18434e-08
3.53475e-07
3.50768e-07
-8.95839e-08
2.75749e-08
3.48151e-07
-8.9662e-08
2.74734e-08
3.4559e-07
-8.97214e-08
2.74147e-08
3.43093e-07
-8.97981e-08
2.73358e-08
-8.98146e-08
2.72831e-08
5.00209e-07
-1.0737e-07
2.1611e-08
4.9648e-07
-1.0741e-07
2.14781e-08
4.92859e-07
-1.07468e-07
2.13676e-08
4.89378e-07
-1.07537e-07
2.12201e-08
-1.07583e-07
2.09877e-08
6.00296e-07
1.44861e-08
5.95734e-07
-1.17117e-07
1.42699e-08
5.91421e-07
-1.17128e-07
1.39719e-08
5.87384e-07
-1.17129e-07
1.36284e-08
-1.17123e-07
1.31759e-08
6.2558e-07
-1.17663e-07
5.04468e-09
6.21275e-07
-1.17643e-07
4.81973e-09
6.17267e-07
-1.17588e-07
4.46791e-09
-1.17504e-07
3.89209e-09
5.78764e-07
-1.08698e-07
-5.3223e-09
5.7525e-07
-1.08647e-07
-5.482e-09
5.71916e-07
-1.0857e-07
-5.68449e-09
-1.08501e-07
-6.04743e-09
4.68362e-07
-9.0983e-08
-1.47524e-08
4.65489e-07
-9.09307e-08
-1.48431e-08
4.62781e-07
-9.08614e-08
-1.50011e-08
-9.08856e-08
-1.52347e-08
3.1933e-07
-6.592e-08
-2.29787e-08
3.17349e-07
-6.58849e-08
-2.30646e-08
3.15518e-07
-6.58406e-08
-2.31899e-08
-6.58976e-08
-2.32445e-08
1.67904e-07
-3.4756e-08
1.66752e-07
-3.47595e-08
-3.0008e-08
1.65668e-07
-3.47723e-08
-3.00292e-08
1.6471e-07
-3.47984e-08
-3.00843e-08
-3.48455e-08
-3.00154e-08
5.46662e-08
-3.43001e-08
5.42345e-08
-3.43277e-08
5.38203e-08
-3.43581e-08
5.34161e-08
-3.43942e-08
-3.44069e-08
1.67757e-07
-2.9969e-08
1.66615e-07
-3.00017e-08
6.59116e-08
1.65544e-07
-3.00342e-08
6.58857e-08
1.64582e-07
-3.00808e-08
6.5854e-08
-3.00241e-08
6.59157e-08
4.67102e-07
4.6446e-07
-5.57788e-08
6.02676e-08
4.6188e-07
-5.58498e-08
6.02141e-08
4.59381e-07
-5.59167e-08
6.01526e-08
4.56947e-07
-5.5998e-08
6.01028e-08
-5.61253e-08
6.00302e-08
7.83735e-07
-7.74079e-08
5.18178e-08
7.81101e-07
-7.74508e-08
5.17084e-08
7.78485e-07
-7.74871e-08
5.16008e-08
7.75888e-07
-7.75251e-08
5.14602e-08
-7.76733e-08
5.1073e-08
1.01412e-06
-9.32229e-08
3.95261e-08
1.012e-06
-9.32301e-08
3.93767e-08
1.00988e-06
-9.32164e-08
3.92245e-08
1.00777e-06
-9.32091e-08
3.90104e-08
-9.33211e-08
3.84824e-08
1.15105e-06
-1.01849e-07
2.45988e-08
1.14957e-06
-1.01873e-07
2.43954e-08
1.14806e-06
-1.0189e-07
2.41576e-08
1.14655e-06
-1.01889e-07
2.38152e-08
-1.01966e-07
2.31765e-08
1.19085e-06
-1.0294e-07
7.38608e-09
1.18981e-06
-1.02959e-07
7.17803e-09
1.18879e-06
-1.0299e-07
6.93703e-09
1.1878e-06
-1.03015e-07
6.57883e-09
-1.03063e-07
5.87894e-09
1.13654e-06
-1.0604e-08
1.13561e-06
-9.66022e-08
-1.07448e-08
1.13468e-06
-9.66106e-08
-1.0934e-08
1.13381e-06
-9.65792e-08
-1.12476e-08
-9.64778e-08
-1.18621e-08
9.91159e-07
-8.22337e-08
-2.76242e-08
9.89656e-07
-8.21913e-08
-2.776e-08
9.8821e-07
-8.21375e-08
-2.79968e-08
-8.19967e-08
-2.85141e-08
7.58673e-07
-6.01591e-08
-4.26261e-08
7.5626e-07
-6.01154e-08
-4.27272e-08
7.5386e-07
-6.00588e-08
-4.28688e-08
-5.99966e-08
-4.3208e-08
4.62148e-07
-3.17639e-08
-5.58521e-08
4.59663e-07
-3.17585e-08
-5.5901e-08
4.57235e-07
-3.17285e-08
-5.59869e-08
-3.18323e-08
-5.60757e-08
1.78814e-07
-6.47033e-08
1.77479e-07
-6.47567e-08
1.76183e-07
-6.4821e-08
1.74981e-07
-6.49203e-08
-6.48927e-08
3.19052e-07
-2.29881e-08
9.0991e-08
3.17063e-07
-2.30748e-08
9.09489e-08
3.15222e-07
-2.31869e-08
9.08823e-08
-2.32541e-08
9.09116e-08
7.60998e-07
-4.25234e-08
7.58551e-07
-4.26227e-08
8.22957e-08
7.5612e-07
-4.27356e-08
8.22442e-08
7.53705e-07
-4.28664e-08
8.21981e-08
-4.32442e-08
8.20547e-08
1.13281e-06
-5.99933e-08
6.93997e-08
1.1326e-06
-6.0042e-08
6.93392e-08
1.13227e-06
-6.00921e-08
6.92869e-08
1.13188e-06
-6.0199e-08
6.9189e-08
-6.05058e-08
6.88347e-08
1.38267e-06
-7.3419e-08
5.15238e-08
1.38399e-06
-7.34214e-08
5.14455e-08
1.38521e-06
-7.34379e-08
5.13433e-08
1.38637e-06
-7.35132e-08
5.11624e-08
-7.37096e-08
5.07703e-08
1.52817e-06
-8.14507e-08
3.02841e-08
1.53044e-06
-8.14496e-08
3.01576e-08
1.53263e-06
-8.1458e-08
2.99835e-08
1.53471e-06
-8.14907e-08
2.97107e-08
-8.15966e-08
2.92698e-08
1.57332e-06
-8.36334e-08
6.72247e-09
1.57612e-06
-8.36464e-08
6.58107e-09
1.57885e-06
-8.36588e-08
6.40052e-09
1.58147e-06
-8.3654e-08
6.12858e-09
-8.3645e-08
5.67665e-09
1.52192e-06
-7.98173e-08
-1.72721e-08
1.52471e-06
-7.98134e-08
-1.73634e-08
1.52742e-06
-7.97823e-08
-1.75197e-08
1.52999e-06
-7.96965e-08
-1.77787e-08
-7.95157e-08
-1.81867e-08
1.37629e-06
-6.93325e-08
-3.99368e-08
1.37813e-06
-6.92855e-08
-3.99993e-08
1.37991e-06
-6.92216e-08
-4.01004e-08
1.38161e-06
-6.91028e-08
-4.0291e-08
-6.87927e-08
-4.06327e-08
1.13267e-06
-6.00032e-08
1.13245e-06
-5.1661e-08
-6.00244e-08
1.13213e-06
-5.1552e-08
-6.00787e-08
1.13175e-06
-5.13926e-08
-6.01963e-08
-5.10637e-08
-6.04468e-08
7.81263e-07
-2.74663e-08
-7.74235e-08
7.78659e-07
-2.74021e-08
-7.74474e-08
7.76078e-07
-2.73057e-08
-7.74927e-08
-2.72859e-08
-7.75954e-08
3.5105e-07
-8.95496e-08
3.48439e-07
-8.96123e-08
3.45877e-07
-8.96613e-08
3.43379e-07
-8.97275e-08
-8.97419e-08
4.67967e-07
-1.47439e-08
1.08716e-07
4.65078e-07
-1.48373e-08
1.08676e-07
4.62355e-07
-1.49996e-08
1.08605e-07
-1.52401e-08
1.0854e-07
9.9129e-07
-2.76203e-08
9.66694e-08
9.89781e-07
-2.77641e-08
9.66793e-08
9.88332e-07
-2.80019e-08
9.66495e-08
-2.8525e-08
9.65449e-08
1.37666e-06
-3.99642e-08
7.98688e-08
1.37852e-06
-4.00241e-08
7.98778e-08
1.38031e-06
-4.01151e-08
7.98549e-08
1.38202e-06
-4.0293e-08
7.97711e-08
-4.06412e-08
7.95766e-08
1.63128e-06
-5.01235e-08
5.78887e-08
1.635e-06
-5.01507e-08
5.78524e-08
1.63863e-06
-5.01931e-08
5.77909e-08
1.64211e-06
-5.029e-08
5.76796e-08
-5.04722e-08
5.74859e-08
1.78001e-06
-5.67479e-08
3.22695e-08
1.78459e-06
-5.67555e-08
3.21805e-08
1.78908e-06
-5.67713e-08
3.20711e-08
1.7934e-06
-5.68068e-08
3.19082e-08
-5.68752e-08
3.16869e-08
1.82813e-06
-5.94072e-08
4.40566e-09
1.83306e-06
-5.94167e-08
4.31649e-09
1.83789e-06
-5.94099e-08
4.20486e-09
1.84256e-06
-5.93837e-08
4.03941e-09
-5.93517e-08
3.86066e-09
1.77336e-06
-2.35918e-08
1.77815e-06
-5.78293e-08
-2.36409e-08
1.78286e-06
-5.77989e-08
-2.36913e-08
1.78747e-06
-5.77503e-08
-2.3787e-08
1.7919e-06
-5.76492e-08
-2.39438e-08
-5.74692e-08
-2.41507e-08
1.63104e-06
-5.14434e-08
-5.01057e-08
1.63476e-06
-5.13815e-08
-5.01343e-08
1.63838e-06
-5.12824e-08
-5.01833e-08
1.64184e-06
-5.11137e-08
-5.02873e-08
-5.07672e-08
-5.04681e-08
1.38253e-06
-3.94453e-08
-7.34166e-08
1.38386e-06
-3.93226e-08
-7.34097e-08
1.3851e-06
-3.9166e-08
-7.34321e-08
1.38624e-06
-3.89499e-08
-7.35041e-08
-3.84921e-08
-7.36721e-08
1.01425e-06
-2.15645e-08
-9.31939e-08
1.01213e-06
-2.14461e-08
-9.31791e-08
1.01002e-06
-2.13374e-08
-9.31679e-08
1.00795e-06
-2.11951e-08
-9.31722e-08
-2.09986e-08
-9.32551e-08
5.00677e-07
-1.07322e-07
4.96959e-07
-1.07341e-07
4.93343e-07
-1.07382e-07
4.89862e-07
-1.07442e-07
-1.07502e-07
5.81989e-07
-5.13467e-09
1.17711e-07
5.78326e-07
-5.31603e-09
1.17695e-07
5.748e-07
-5.4762e-09
1.17678e-07
5.71459e-07
-5.68201e-09
1.17628e-07
-6.04781e-09
1.17548e-07
1.1369e-06
-1.06201e-08
1.02971e-07
1.136e-06
-1.0751e-08
1.0301e-07
1.13508e-06
-1.09345e-08
1.03056e-07
1.13421e-06
-1.12505e-08
1.0309e-07
-1.18737e-08
1.0314e-07
1.51935e-06
-1.72241e-08
8.36523e-08
1.52222e-06
-1.72975e-08
8.36838e-08
1.52502e-06
-1.73841e-08
8.37105e-08
1.52775e-06
-1.75346e-08
8.37245e-08
1.53035e-06
-1.77954e-08
8.37151e-08
-1.82076e-08
8.36978e-08
1.77347e-06
-2.36387e-08
5.94521e-08
1.7783e-06
-2.36743e-08
5.94451e-08
1.78304e-06
-2.37094e-08
5.94369e-08
1.78767e-06
-2.3795e-08
5.94186e-08
1.79212e-06
-2.3948e-08
5.93859e-08
-2.41531e-08
5.93493e-08
1.92312e-06
-2.85427e-08
3.15565e-08
1.92875e-06
-2.85532e-08
3.15231e-08
1.93429e-06
-2.85647e-08
3.14933e-08
1.9397e-06
-2.85924e-08
3.14562e-08
1.94489e-06
-2.86377e-08
3.14055e-08
-2.86997e-08
3.13431e-08
1.97253e-06
-3.15269e-08
1.56051e-09
1.97838e-06
-3.15256e-08
1.52758e-09
1.98416e-06
-3.15198e-08
1.49567e-09
1.98981e-06
-3.14916e-08
1.45018e-09
1.99525e-06
-3.14436e-08
1.40626e-09
-3.138e-08
1.37734e-09
1.923e-06
-3.22737e-08
-2.85147e-08
1.92859e-06
-3.22281e-08
-2.85287e-08
1.93411e-06
-3.21818e-08
-2.85469e-08
1.9395e-06
-3.2089e-08
-2.85808e-08
1.94467e-06
-3.1931e-08
-2.8631e-08
-3.17098e-08
-2.86966e-08
1.77519e-06
-3.03095e-08
-5.67367e-08
1.77982e-06
-3.02216e-08
-5.6738e-08
1.78436e-06
-3.0118e-08
-5.67437e-08
1.7888e-06
-2.99506e-08
-5.67641e-08
1.79307e-06
-2.96857e-08
-5.68039e-08
-2.92609e-08
-5.68731e-08
1.52564e-06
-2.46975e-08
-8.14443e-08
1.52796e-06
-2.45235e-08
-8.14422e-08
1.53023e-06
-2.4354e-08
-8.14427e-08
1.53243e-06
-2.4121e-08
-8.14547e-08
1.5345e-06
-2.37747e-08
-8.14881e-08
-2.3169e-08
-8.15873e-08
1.15267e-06
-1.01788e-07
1.15119e-06
-1.44278e-08
-1.01806e-07
1.14972e-06
-1.42424e-08
-1.01817e-07
1.14822e-06
-1.39601e-08
-1.01834e-07
1.14674e-06
-1.36165e-08
-1.01845e-07
-1.31762e-08
-1.01921e-07
6.0094e-07
-1.17043e-07
5.96404e-07
-1.17048e-07
5.92119e-07
-1.17057e-07
5.88114e-07
-1.17053e-07
-1.17057e-07
6.29843e-07
5.26322e-09
1.1712e-07
6.25333e-07
5.06594e-09
1.17139e-07
6.21016e-07
4.82724e-09
1.17167e-07
6.17006e-07
4.46235e-09
1.17176e-07
3.88254e-09
1.17175e-07
1.19097e-06
7.4001e-09
1.0188e-07
1.18996e-06
7.19593e-09
1.01892e-07
1.18898e-06
6.94395e-09
1.01913e-07
1.18804e-06
6.57356e-09
1.01928e-07
5.87135e-09
1.02015e-07
1.5677e-06
6.87092e-09
1.57062e-06
6.79868e-09
8.14876e-08
1.5735e-06
6.71617e-09
8.14881e-08
1.57633e-06
6.58828e-09
8.14889e-08
1.57909e-06
6.4015e-09
8.14988e-08
1.58173e-06
6.12422e-09
8.15296e-08
5.67265e-09
8.16264e-08
1.81824e-06
4.45758e-09
1.8233e-06
4.42243e-09
5.6774e-08
1.82828e-06
4.39895e-09
5.67792e-08
1.83319e-06
4.34496e-09
5.67744e-08
1.83799e-06
4.23388e-09
5.67824e-08
1.84262e-06
4.06384e-09
5.68124e-08
3.88204e-09
5.68753e-08
1.96667e-06
1.9726e-06
1.50734e-09
2.85351e-08
1.97845e-06
1.51647e-09
2.8558e-08
1.98422e-06
1.50869e-09
2.85654e-08
1.98985e-06
1.47353e-09
2.85843e-08
1.99526e-06
1.43506e-09
2.86237e-08
1.40765e-09
2.86835e-08
2.02223e-06
-1.5572e-09
-1.53215e-09
2.02832e-06
-1.53351e-09
-1.51458e-09
2.03434e-06
-1.51144e-09
-1.50373e-09
2.04021e-06
-1.47086e-09
-1.47358e-09
2.04592e-06
-1.42644e-09
-1.43616e-09
-1.39372e-09
-1.4067e-09
1.97239e-06
-4.45233e-09
-3.15084e-08
1.97821e-06
-4.39073e-09
-3.14988e-08
1.98398e-06
-4.33046e-09
-3.14919e-08
1.98962e-06
-4.22019e-09
-3.14691e-08
1.99504e-06
-4.05124e-09
-3.14281e-08
-3.86884e-09
-3.13699e-08
1.82294e-06
-6.79454e-09
-5.93949e-08
1.82788e-06
-6.67907e-09
-5.93928e-08
1.83276e-06
-6.55198e-09
-5.93984e-08
1.83754e-06
-6.37097e-09
-5.93923e-08
1.84215e-06
-6.09739e-09
-5.937e-08
-5.6481e-09
-5.93415e-08
1.57025e-06
-7.50482e-09
-8.36078e-08
1.57307e-06
-7.31543e-09
-8.36216e-08
1.57584e-06
-7.12706e-09
-8.36341e-08
1.57855e-06
-6.89232e-09
-8.36424e-08
1.58114e-06
-6.53903e-09
-8.36369e-08
-5.85324e-09
-8.36295e-08
1.19206e-06
-5.37443e-09
-1.02885e-07
1.19102e-06
-5.18296e-09
-1.02894e-07
1.18998e-06
-4.99014e-09
-1.02913e-07
1.18897e-06
-4.77846e-09
-1.02943e-07
1.188e-06
-4.44404e-09
-1.02971e-07
-3.87619e-09
-1.03024e-07
6.35385e-07
-1.17639e-07
6.30773e-07
-1.17615e-07
6.2634e-07
-1.17605e-07
6.22099e-07
-1.17594e-07
6.18145e-07
-1.17544e-07
-1.17463e-07
6.04995e-07
1.46326e-08
1.0738e-07
6.00223e-07
1.44884e-08
1.07404e-07
5.95643e-07
1.42861e-08
1.07433e-07
5.91335e-07
1.39802e-08
1.07494e-07
5.87318e-07
1.36296e-08
1.07564e-07
1.31861e-08
1.07621e-07
1.15261e-06
2.47196e-08
9.3265e-08
1.15115e-06
2.4552e-08
9.32789e-08
1.14968e-06
2.43841e-08
9.32651e-08
1.14817e-06
2.41517e-08
9.32478e-08
1.14667e-06
2.38027e-08
9.32572e-08
2.31922e-08
9.33488e-08
1.52586e-06
3.03064e-08
7.34876e-08
1.52821e-06
3.02171e-08
7.34805e-08
1.5305e-06
3.01168e-08
7.34647e-08
1.53272e-06
2.99553e-08
7.34781e-08
1.5348e-06
2.96959e-08
7.35489e-08
2.92731e-08
7.37141e-08
1.77536e-06
3.22453e-08
5.01368e-08
1.78e-06
3.22049e-08
5.0155e-08
1.78456e-06
3.21669e-08
5.01587e-08
1.78902e-06
3.20785e-08
5.02034e-08
1.7933e-06
3.19241e-08
5.03047e-08
3.1708e-08
5.04826e-08
1.923e-06
3.151e-08
2.36135e-08
1.9286e-06
3.14984e-08
2.36684e-08
1.93412e-06
3.149e-08
2.37191e-08
1.93951e-06
3.14659e-08
2.38115e-08
1.94467e-06
3.14242e-08
2.39647e-08
3.13675e-08
2.41677e-08
1.97243e-06
2.85317e-08
-4.44228e-09
1.97826e-06
2.85412e-08
-4.38088e-09
1.98401e-06
2.85505e-08
-4.32147e-09
1.98964e-06
2.85779e-08
-4.21357e-09
1.99505e-06
2.86244e-08
-4.04628e-09
2.86894e-08
-3.86379e-09
1.92292e-06
2.36268e-08
-3.22444e-08
1.92849e-06
2.36722e-08
-3.22028e-08
1.93399e-06
2.37151e-08
-3.21606e-08
1.93937e-06
2.38047e-08
-3.20686e-08
1.94452e-06
2.39562e-08
-3.19115e-08
2.4158e-08
-3.16914e-08
1.77312e-06
1.72172e-08
-5.78083e-08
1.77788e-06
1.73138e-08
-5.77901e-08
1.78256e-06
1.74203e-08
-5.77853e-08
1.78713e-06
1.75811e-08
-5.77408e-08
1.79152e-06
1.78361e-08
-5.76404e-08
1.82337e-08
-5.74582e-08
1.51884e-06
1.04984e-08
-7.9757e-08
1.52163e-06
1.0654e-08
-7.97528e-08
1.52436e-06
1.0814e-08
-7.97539e-08
1.52702e-06
1.10147e-08
-7.97357e-08
1.52956e-06
1.13226e-08
-7.96636e-08
1.19176e-08
-7.9495e-08
1.13767e-06
4.91005e-09
-9.64954e-08
1.1368e-06
5.16289e-09
-9.6531e-08
1.13588e-06
5.36245e-09
-9.65508e-08
1.13497e-06
5.53942e-09
-9.65524e-08
1.1341e-06
5.74607e-09
-9.65236e-08
6.09188e-09
-9.64341e-08
5.86759e-07
-1.0881e-07
5.83036e-07
-1.0873e-07
5.79462e-07
-1.08669e-07
5.76026e-07
-1.08618e-07
5.72772e-07
-1.08544e-07
-1.0848e-07
5.04147e-07
2.1744e-08
8.95457e-08
5.0033e-07
2.15941e-08
8.96272e-08
4.96584e-07
2.14964e-08
8.96825e-08
4.92955e-07
2.13907e-08
8.97319e-08
4.89478e-07
2.12296e-08
8.98111e-08
2.10164e-08
8.98318e-08
1.01627e-06
3.96279e-08
7.74454e-08
1.01419e-06
3.94804e-08
7.74764e-08
1.01208e-06
3.93653e-08
7.75018e-08
1.00998e-06
3.92141e-08
7.75241e-08
1.00792e-06
3.89844e-08
7.75667e-08
3.85192e-08
7.76751e-08
1.38123e-06
5.15292e-08
6.00612e-08
1.38265e-06
5.14573e-08
6.00852e-08
1.38398e-06
5.141e-08
6.00887e-08
1.38523e-06
5.13093e-08
6.0136e-08
1.38637e-06
5.11313e-08
6.02563e-08
5.07851e-08
6.05077e-08
1.62739e-06
5.78467e-08
3.99877e-08
1.63115e-06
5.7824e-08
4.00347e-08
1.63482e-06
5.78174e-08
4.00755e-08
1.6384e-06
5.77713e-08
4.01645e-08
1.64183e-06
5.76689e-08
4.03379e-08
5.74868e-08
4.06652e-08
1.77327e-06
5.94243e-08
1.72259e-08
1.77802e-06
5.94174e-08
1.73265e-08
1.78271e-06
5.94173e-08
1.7435e-08
1.78729e-06
5.94068e-08
1.75967e-08
1.79168e-06
5.93812e-08
1.78575e-08
5.93526e-08
1.82631e-08
1.82308e-06
5.6775e-08
-6.78154e-09
1.828e-06
5.67688e-08
-6.66137e-09
1.83287e-06
5.67619e-08
-6.52947e-09
1.83763e-06
5.67734e-08
-6.34581e-09
1.84223e-06
5.68075e-08
-6.0683e-09
5.68749e-08
-5.61613e-09
1.77522e-06
5.01411e-08
-3.02849e-08
1.77982e-06
5.01539e-08
-3.01869e-08
1.78434e-06
5.01543e-08
-3.00765e-08
1.78876e-06
5.01964e-08
-2.99075e-08
1.793e-06
5.02956e-08
-2.96441e-08
5.04724e-08
-2.92176e-08
1.6272e-06
3.99687e-08
-5.14739e-08
1.63094e-06
4.00231e-08
-5.13991e-08
1.63459e-06
4.00659e-08
-5.13478e-08
1.63814e-06
4.01516e-08
-5.1244e-08
1.64154e-06
4.03214e-08
-5.1067e-08
4.06401e-08
-5.07218e-08
1.37427e-06
2.75359e-08
-6.93262e-08
1.37618e-06
2.76199e-08
-6.92613e-08
1.37801e-06
2.77113e-08
-6.92301e-08
1.37976e-06
2.78426e-08
-6.91735e-08
1.38141e-06
2.80566e-08
-6.90534e-08
2.85312e-08
-6.87483e-08
9.94297e-07
1.46534e-08
-8.22711e-08
9.92894e-07
1.47341e-08
-8.22422e-08
9.91448e-07
1.48028e-08
-8.2196e-08
9.90004e-07
1.48809e-08
-8.21473e-08
9.88621e-07
1.5025e-08
-8.21082e-08
1.52429e-08
-8.19799e-08
4.74822e-07
-9.10905e-08
4.71839e-07
-9.10132e-08
4.68929e-07
-9.09549e-08
4.66109e-07
-9.09182e-08
4.63453e-07
-9.08628e-08
-9.08907e-08
3.5362e-07
2.76728e-08
6.46558e-08
3.50934e-07
2.75685e-08
6.47448e-08
3.48304e-07
2.74938e-08
6.48184e-08
3.4572e-07
2.74465e-08
6.48696e-08
3.43215e-07
2.73514e-08
6.49644e-08
2.73158e-08
6.49429e-08
7.86505e-07
5.18785e-08
5.57939e-08
7.83924e-07
5.17881e-08
5.58381e-08
7.81327e-07
5.17132e-08
5.58793e-08
7.78755e-07
5.1614e-08
5.59293e-08
7.76197e-07
5.14557e-08
5.60195e-08
5.11122e-08
5.61199e-08
1.13293e-06
6.94084e-08
4.25282e-08
1.13285e-06
6.93555e-08
4.25966e-08
1.13265e-06
6.93264e-08
4.26743e-08
1.13236e-06
6.92674e-08
4.27759e-08
1.13202e-06
6.91433e-08
4.2912e-08
6.88311e-08
4.32536e-08
1.37459e-06
7.98095e-08
2.75619e-08
1.37654e-06
7.98127e-08
2.76254e-08
1.37841e-06
7.98184e-08
2.77136e-08
1.3802e-06
7.98015e-08
2.78453e-08
1.38189e-06
7.97288e-08
2.806e-08
7.95553e-08
2.85473e-08
1.51921e-06
8.36412e-08
1.05139e-08
1.52202e-06
8.36556e-08
1.06691e-08
1.52478e-06
8.3673e-08
1.08277e-08
1.52746e-06
8.3686e-08
1.10262e-08
1.53003e-06
8.3683e-08
1.13402e-08
8.36771e-08
1.19473e-08
1.57056e-06
8.14773e-08
-7.49948e-09
1.57338e-06
8.14745e-08
-7.30071e-09
1.57615e-06
8.14767e-08
-7.10432e-09
1.57886e-06
8.14902e-08
-6.86336e-09
1.58145e-06
8.15238e-08
-6.49685e-09
8.16233e-08
-5.79657e-09
1.5258e-06
7.34688e-08
-2.46754e-08
1.52811e-06
7.34658e-08
-2.44939e-08
1.53037e-06
7.34542e-08
-2.43133e-08
1.53256e-06
7.34706e-08
-2.40722e-08
1.53461e-06
7.35423e-08
-2.37209e-08
7.37083e-08
-2.31082e-08
1.38112e-06
6.0036e-08
-3.95513e-08
1.38252e-06
6.00716e-08
-3.94023e-08
1.38383e-06
6.00806e-08
-3.9283e-08
1.38505e-06
6.0127e-08
-3.91287e-08
1.38618e-06
6.02435e-08
-3.88986e-08
6.04943e-08
-3.84341e-08
1.13286e-06
4.25247e-08
-5.17958e-08
1.13276e-06
4.26022e-08
-5.16908e-08
1.13254e-06
4.26765e-08
-5.16032e-08
1.13222e-06
4.27781e-08
-5.15084e-08
1.13186e-06
4.29144e-08
-5.13646e-08
4.3246e-08
-5.10215e-08
7.6386e-07
2.28556e-08
-6.02554e-08
7.61489e-07
2.29361e-08
-6.02041e-08
7.59106e-07
2.30156e-08
-6.01527e-08
7.56755e-07
2.30853e-08
-6.01038e-08
7.54424e-07
2.31937e-08
-6.00559e-08
2.32487e-08
-5.99942e-08
3.23858e-07
-6.59939e-08
3.21725e-07
-6.5944e-08
3.19682e-07
-6.58959e-08
3.1772e-07
-6.58711e-08
3.15891e-07
-6.58399e-08
-6.59013e-08
1.80149e-07
3.18265e-08
3.42854e-08
1.78766e-07
3.1812e-08
3.43165e-08
1.77442e-07
3.17929e-08
3.43489e-08
1.76145e-07
3.17892e-08
3.43772e-08
1.74932e-07
3.17653e-08
3.44119e-08
3.18627e-08
3.44249e-08
4.67376e-07
6.03061e-08
2.99845e-08
4.64754e-07
6.02753e-08
2.99966e-08
4.62172e-07
6.0233e-08
3.00211e-08
4.59661e-07
6.01888e-08
3.00409e-08
4.57219e-07
6.01408e-08
3.00853e-08
6.007e-08
3.00202e-08
7.63702e-07
8.23503e-08
2.28548e-08
7.61302e-07
8.23428e-08
2.29287e-08
7.58898e-07
8.23021e-08
2.30087e-08
7.56523e-07
8.22587e-08
2.3081e-08
7.54162e-07
8.22225e-08
2.31912e-08
8.20836e-08
2.32499e-08
9.9441e-07
9.65768e-08
1.46339e-08
9.93046e-07
9.66293e-08
1.47027e-08
9.9163e-07
9.66564e-08
1.47753e-08
9.90208e-07
9.66629e-08
1.48635e-08
9.88836e-07
9.66358e-08
1.50189e-08
9.65396e-08
1.52476e-08
1.13796e-06
1.02944e-07
4.90337e-09
1.13715e-06
1.02965e-07
5.15043e-09
1.13628e-06
1.02994e-07
5.35375e-09
1.13541e-06
1.03032e-07
5.5311e-09
1.13458e-06
1.03065e-07
5.74402e-09
1.03117e-07
6.10265e-09
1.19229e-06
1.01837e-07
-5.38597e-09
1.19128e-06
1.01857e-07
-5.17967e-09
1.19028e-06
1.01873e-07
-4.98223e-09
1.18931e-06
1.01894e-07
-4.75135e-09
1.18836e-06
1.0191e-07
-4.40171e-09
1.01994e-07
-3.82496e-09
1.15283e-06
9.32296e-08
-1.45769e-08
1.15137e-06
9.32424e-08
-1.44148e-08
1.14991e-06
9.32315e-08
-1.42133e-08
1.14843e-06
9.32169e-08
-1.39154e-08
1.14696e-06
9.32276e-08
-1.35672e-08
9.33219e-08
-1.31237e-08
1.01646e-06
7.74161e-08
-2.16943e-08
1.0144e-06
7.74427e-08
-2.15368e-08
1.0123e-06
7.74737e-08
-2.14311e-08
1.01022e-06
7.74965e-08
-2.13243e-08
1.00818e-06
7.75321e-08
-2.11639e-08
7.7647e-08
-2.09556e-08
7.86678e-07
5.57772e-08
-2.76286e-08
7.84124e-07
5.58249e-08
-2.75184e-08
7.81558e-07
5.58719e-08
-2.74358e-08
7.79017e-07
5.59177e-08
-2.73883e-08
7.7649e-07
5.59947e-08
-2.72999e-08
5.60971e-08
-2.72621e-08
4.67559e-07
2.99677e-08
-3.18086e-08
4.64986e-07
2.99831e-08
-3.17892e-08
4.62456e-07
3.00121e-08
-3.17632e-08
4.59993e-07
3.00328e-08
-3.17557e-08
4.5759e-07
3.0076e-08
-3.1735e-08
3.00123e-08
-3.1832e-08
1.69224e-07
-3.47501e-08
1.68019e-07
-3.47557e-08
1.66896e-07
-3.47601e-08
1.65831e-07
-3.47733e-08
1.64869e-07
-3.48024e-08
-3.48502e-08
5.51117e-08
3.47646e-08
5.46564e-08
3.47717e-08
5.42265e-08
3.47788e-08
5.38118e-08
3.4792e-08
5.33998e-08
3.48239e-08
3.4867e-08
1.69115e-07
6.60333e-08
1.67897e-07
6.59868e-08
1.66753e-07
6.59433e-08
1.65666e-07
6.59199e-08
1.64685e-07
6.58902e-08
6.59454e-08
3.28245e-07
3.25877e-07
9.12147e-08
3.23606e-07
9.11582e-08
3.21429e-07
9.10931e-08
3.19339e-07
9.10418e-08
3.17341e-07
9.09992e-08
3.15489e-07
9.09328e-08
9.09525e-08
4.77537e-07
1.08978e-07
4.74412e-07
1.08918e-07
4.71364e-07
1.08843e-07
4.68405e-07
1.08777e-07
4.6555e-07
1.08718e-07
4.62871e-07
1.0863e-07
1.08554e-07
5.90227e-07
5.86303e-07
1.17746e-07
5.82566e-07
1.1773e-07
5.7898e-07
1.17716e-07
5.75533e-07
1.17696e-07
5.72272e-07
1.17635e-07
1.1754e-07
6.34977e-07
1.17113e-07
6.30398e-07
1.1713e-07
6.25995e-07
1.17137e-07
6.21791e-07
1.17148e-07
6.17879e-07
1.17145e-07
1.1714e-07
6.05421e-07
1.0735e-07
6.00755e-07
1.07382e-07
5.96269e-07
1.0741e-07
5.9204e-07
1.07461e-07
5.88096e-07
1.07523e-07
1.07578e-07
5.04471e-07
8.9519e-08
5.00717e-07
8.95979e-08
4.97048e-07
8.96485e-08
4.9349e-07
8.96938e-08
4.90075e-07
8.97737e-08
8.97952e-08
3.53822e-07
6.464e-08
3.51176e-07
6.4726e-08
3.48591e-07
6.47972e-08
3.46052e-07
6.48442e-08
3.4359e-07
6.4936e-08
6.49199e-08
1.80242e-07
3.42734e-08
1.78874e-07
3.43045e-08
1.77571e-07
3.43369e-08
1.76294e-07
3.43655e-08
1.75098e-07
3.43969e-08
3.44135e-08
5.5148e-08
5.46968e-08
5.42736e-08
5.38659e-08
5.34604e-08
)
;

boundaryField
{
    inlet
    {
        type            calculated;
        value           nonuniform List<scalar> 0();
    }
    ami1
    {
        type            cyclicAMI;
        value           nonuniform List<scalar> 0();
    }
    walls
    {
        type            calculated;
        value           nonuniform List<scalar> 
244
(
2.90979e-14
2.43942e-14
1.84387e-14
2.90979e-14
2.43942e-14
1.84387e-14
1.28555e-14
6.40674e-15
-2.43942e-14
-2.90979e-14
2.90979e-14
2.43942e-14
1.84387e-14
1.28555e-14
6.40674e-15
1.37002e-22
-6.40674e-15
-1.28555e-14
-1.84387e-14
-2.43942e-14
-2.90979e-14
2.90979e-14
2.43942e-14
1.84387e-14
1.28555e-14
6.40674e-15
1.37002e-22
-6.40674e-15
-1.28555e-14
-1.84387e-14
-2.43942e-14
-2.90979e-14
2.90979e-14
2.43942e-14
1.84387e-14
1.28555e-14
6.40674e-15
1.37519e-22
-6.40674e-15
-1.28555e-14
-1.84387e-14
-2.43942e-14
-2.90979e-14
2.90979e-14
2.43942e-14
1.84387e-14
1.28555e-14
6.40674e-15
1.38811e-22
-6.40674e-15
-1.28555e-14
-1.84387e-14
-2.43942e-14
-2.90979e-14
1.37777e-22
-6.40674e-15
-1.28555e-14
-1.84387e-14
-2.43942e-14
-2.90979e-14
2.90979e-14
2.43942e-14
1.84387e-14
1.28555e-14
6.40674e-15
1.37777e-22
-6.40674e-15
-1.28555e-14
-1.84387e-14
-2.43942e-14
-2.90979e-14
2.90979e-14
2.43942e-14
1.84387e-14
1.28555e-14
6.40674e-15
1.37002e-22
-6.40674e-15
-1.28555e-14
-1.84387e-14
-2.43942e-14
-2.90979e-14
2.90979e-14
2.43942e-14
1.84387e-14
1.28555e-14
6.40674e-15
1.37002e-22
-6.40674e-15
-1.28555e-14
-1.84387e-14
-2.43942e-14
-2.90979e-14
2.90979e-14
2.43942e-14
1.84387e-14
1.28555e-14
6.40674e-15
1.37519e-22
-6.40674e-15
-1.28555e-14
-1.84387e-14
-2.43942e-14
-2.90979e-14
2.90979e-14
2.43942e-14
1.84387e-14
1.28555e-14
6.40674e-15
1.38811e-22
-6.40674e-15
-1.28555e-14
-1.84387e-14
-2.43942e-14
-2.90979e-14
-1.84387e-14
-1.84387e-14
-1.28555e-14
-6.40674e-15
-2.90979e-14
-2.43942e-14
-1.84387e-14
-1.28555e-14
-6.40674e-15
1.17179e-22
6.40674e-15
1.28555e-14
1.84387e-14
2.43942e-14
2.90979e-14
-2.90979e-14
-2.43942e-14
-1.84387e-14
-1.28555e-14
-6.40674e-15
1.17179e-22
6.40674e-15
1.28555e-14
1.84387e-14
2.43942e-14
2.90979e-14
-2.90979e-14
-2.43942e-14
-1.84387e-14
-1.28555e-14
-6.40674e-15
1.16403e-22
6.40674e-15
1.28555e-14
1.84387e-14
2.43942e-14
2.90979e-14
-2.90979e-14
-2.43942e-14
-1.84387e-14
-1.28555e-14
-6.40674e-15
1.16403e-22
6.40674e-15
1.28555e-14
1.84387e-14
2.43942e-14
2.90979e-14
-2.90979e-14
-2.43942e-14
-1.84387e-14
-1.28555e-14
-6.40674e-15
1.376e-22
6.40674e-15
1.28555e-14
1.84387e-14
2.43942e-14
2.90979e-14
-2.90979e-14
-2.43942e-14
-1.84387e-14
-1.28555e-14
-6.40674e-15
1.1839e-22
6.40674e-15
1.28555e-14
1.84387e-14
2.43942e-14
2.90979e-14
-2.90979e-14
6.40674e-15
1.28555e-14
1.84387e-14
2.43942e-14
2.90979e-14
-2.90979e-14
-2.43942e-14
-6.40674e-15
1.17179e-22
6.40674e-15
1.28555e-14
1.84387e-14
2.43942e-14
2.90979e-14
-2.90979e-14
-2.43942e-14
-1.84387e-14
-1.28555e-14
-6.40674e-15
1.16403e-22
6.40674e-15
1.28555e-14
1.84387e-14
2.43942e-14
2.90979e-14
-2.90979e-14
-2.43942e-14
-1.84387e-14
-1.28555e-14
-6.40674e-15
1.16403e-22
6.40674e-15
1.28555e-14
1.84387e-14
2.43942e-14
2.90979e-14
-2.90979e-14
-2.43942e-14
-1.84387e-14
-1.28555e-14
-6.40674e-15
1.376e-22
6.40674e-15
1.28555e-14
1.84387e-14
2.43942e-14
2.90979e-14
-2.90979e-14
-2.43942e-14
-1.84387e-14
-1.28555e-14
-6.40674e-15
1.1839e-22
6.40674e-15
1.28555e-14
1.84387e-14
2.43942e-14
2.90979e-14
)
;
    }
    ami2
    {
        type            cyclicAMI;
        value           nonuniform List<scalar> 0();
    }
    outlet
    {
        type            calculated;
        value           nonuniform List<scalar> 
121
(
5.2938e-08
1.73533e-07
3.40686e-07
4.86159e-07
5.83748e-07
6.13755e-07
5.68961e-07
4.60401e-07
3.13775e-07
1.63673e-07
5.29774e-08
1.63546e-07
4.54861e-07
7.73646e-07
1.00592e-06
1.1452e-06
1.18691e-06
1.13304e-06
9.87009e-07
7.51823e-07
4.55131e-07
1.73634e-07
3.1348e-07
7.5167e-07
1.13138e-06
1.38729e-06
1.53651e-06
1.58372e-06
1.53218e-06
1.38301e-06
1.13126e-06
7.7382e-07
3.40942e-07
4.59967e-07
9.87127e-07
1.38339e-06
1.64522e-06
1.79739e-06
1.84685e-06
1.79598e-06
1.64497e-06
1.38719e-06
1.00611e-06
4.86623e-07
5.68499e-07
1.13344e-06
1.53256e-06
1.7962e-06
1.94978e-06
2.00042e-06
1.94955e-06
1.79703e-06
1.53632e-06
1.14541e-06
5.84493e-07
6.13496e-07
1.18717e-06
1.584e-06
1.84689e-06
2.00039e-06
2.0515e-06
2.00019e-06
1.8464e-06
1.58338e-06
1.18713e-06
6.14674e-07
5.83686e-07
1.14533e-06
1.53663e-06
1.79726e-06
1.94952e-06
2.00019e-06
1.94937e-06
1.79556e-06
1.53174e-06
1.13333e-06
5.69882e-07
4.86251e-07
1.00609e-06
1.38731e-06
1.64494e-06
1.79572e-06
1.84646e-06
1.79693e-06
1.64464e-06
1.38277e-06
9.87455e-07
4.61106e-07
3.40788e-07
7.73956e-07
1.13155e-06
1.38328e-06
1.53222e-06
1.58368e-06
1.53642e-06
1.38711e-06
1.13138e-06
7.52436e-07
3.1415e-07
1.73588e-07
4.55112e-07
7.52152e-07
9.87679e-07
1.13384e-06
1.18752e-06
1.14565e-06
1.00638e-06
7.7428e-07
4.55513e-07
1.6383e-07
5.29577e-08
1.63627e-07
3.13732e-07
4.60517e-07
5.69389e-07
6.14454e-07
5.84535e-07
4.86902e-07
3.41203e-07
1.73773e-07
5.30237e-08
)
;
    }
    procBoundary6to5
    {
        type            processor;
        value           nonuniform List<scalar> 
177
(
-5.5558e-08
3.47556e-08
-1.81523e-07
-3.56287e-07
-8.94959e-08
2.76743e-08
-5.04034e-07
-6.05043e-07
-1.1711e-07
-6.30079e-07
-5.23967e-09
-5.82406e-07
5.1347e-09
-4.71325e-07
-3.21414e-07
6.59549e-08
-1.69128e-07
-2.99745e-08
-5.51221e-08
-1.68981e-07
2.99553e-08
6.59538e-08
-4.69798e-07
-5.57469e-08
6.03191e-08
-7.86349e-07
-1.01622e-06
-1.15254e-06
-1.19191e-06
-1.13745e-06
-9.65633e-08
-9.92656e-07
2.75475e-08
-7.611e-07
4.25296e-08
-4.64699e-07
3.17917e-08
-1.80202e-07
-3.21143e-07
2.29001e-08
-7.63421e-07
8.23135e-08
-1.13292e-06
-1.38125e-06
-1.52583e-06
-1.57048e-06
-1.51907e-06
1.71769e-08
-1.37438e-06
-1.1328e-06
-5.17352e-08
-7.83886e-07
2.75352e-08
7.7414e-08
-3.53738e-07
-4.70948e-07
-1.0877e-07
-9.92787e-07
2.75468e-08
-9.662e-08
-1.37471e-06
-7.98481e-08
-1.62748e-06
-5.79288e-08
-1.77537e-06
-3.23611e-08
-1.82316e-06
5.94071e-08
-4.51171e-09
-1.76847e-06
-5.78805e-08
-1.62726e-06
5.00597e-08
-1.38112e-06
7.3421e-08
-1.01635e-06
9.31913e-08
-5.04469e-07
-5.85796e-07
-1.13777e-06
1.0486e-08
-1.51642e-06
-8.36129e-08
-1.76858e-06
-5.94525e-08
-1.91741e-06
-3.15801e-08
-1.9666e-06
-1.91733e-06
-1.77048e-06
-1.52323e-06
-1.15419e-06
-1.45871e-08
-6.05646e-07
1.17034e-07
-6.34515e-07
-1.17113e-07
-7.69935e-09
-1.19202e-06
-7.55208e-09
-1.01863e-07
-1.56476e-06
8.15038e-08
-1.81314e-06
5.67644e-08
-1.96064e-06
1.50977e-09
2.85006e-08
-2.01607e-06
-1.9665e-06
-1.81794e-06
-1.56738e-06
-1.1931e-06
-6.40154e-07
-6.09894e-07
-1.1541e-06
-1.52345e-06
-1.77066e-06
-1.91735e-06
-1.96654e-06
-1.91728e-06
-1.7683e-06
-1.51597e-06
-1.13847e-06
-5.90678e-07
-5.08057e-07
-1.01833e-06
-1.37971e-06
-1.62356e-06
-1.76846e-06
-1.81809e-06
-1.77055e-06
-1.62337e-06
-1.37227e-06
-9.95639e-07
-4.77888e-07
-3.56403e-07
-7.8906e-07
-1.13293e-06
-1.37257e-06
-1.51633e-06
-1.56768e-06
-1.5234e-06
-1.37961e-06
-1.13288e-06
-7.66207e-07
-3.26099e-07
-1.81605e-07
-4.70046e-07
-2.27448e-08
-7.66072e-07
-2.27808e-08
-9.95708e-07
-1.45629e-08
-1.13872e-06
-4.65682e-09
-1.1933e-06
-1.15432e-06
-1.01851e-06
-7.89207e-07
-4.70196e-07
-1.705e-07
-5.55908e-08
-6.60761e-08
-1.70399e-07
-6.60658e-08
-3.30675e-07
9.12508e-08
-4.80738e-07
-5.94344e-07
1.17752e-07
-6.3973e-07
-6.10236e-07
-5.08334e-07
-3.56572e-07
-1.81684e-07
-5.56248e-08
)
;
    }
}


// ************************************************************************* //
