/*--------------------------------*- C++ -*----------------------------------*\
| =========                 |                                                 |
| \\      /  F ield         | OpenFOAM: The Open Source CFD Toolbox           |
|  \\    /   O peration     | Version:  2212                                  |
|   \\  /    A nd           | Website:  www.openfoam.com                      |
|    \\/     M anipulation  |                                                 |
\*---------------------------------------------------------------------------*/
FoamFile
{
    version     2.0;
    format      ascii;
    arch        "LSB;label=32;scalar=64";
    class       surfaceVectorField;
    location    "1.4";
    object      Uf;
}
// * * * * * * * * * * * * * * * * * * * * * * * * * * * * * * * * * * * * * //

dimensions      [0 1 -1 0 0 0 0];

internalField   nonuniform List<vector> 
1805
(
(0.0910166 -0.00119826 0.00197878)
(0.0973616 -0.000844278 0.00187618)
(0.0908063 -0.000841844 0.00159815)
(0.0901016 -0.00132154 0.002277)
(0.0970718 -0.00103778 0.00217244)
(0.0901329 -0.00110841 0.00187134)
(0.0966808 -0.0010502 0.00229419)
(0.0894178 -0.00113266 0.00203891)
(0.104194 -0.000657774 0.00201268)
(0.106721 -0.000490699 0.00177795)
(0.104378 -0.00044576 0.00173334)
(0.104477 -0.000729951 0.00224382)
(0.107058 -0.000526442 0.00201652)
(0.104629 -0.000549595 0.00192478)
(0.10734 -0.00056145 0.00219138)
(0.104824 -0.000649978 0.00205449)
(0.109737 -0.000350928 0.00172687)
(0.109946 -0.000191957 0.00156021)
(0.110116 -0.000350572 0.00186321)
(0.110319 -0.000205401 0.00166432)
(0.110679 -0.000238998 0.00175847)
(0.0900032 -0.000742194 0.00148413)
(0.097084 -0.000470807 0.00150645)
(0.0878303 -0.000480647 0.00115085)
(0.0895035 -0.000897226 0.00162197)
(0.0969029 -0.00064159 0.00161848)
(0.0874277 -0.000636349 0.00121645)
(0.0889438 -0.000918982 0.00172675)
(0.0967267 -0.000747459 0.0016999)
(0.0871116 -0.000715914 0.00130736)
(0.0882987 -0.000849674 0.00178232)
(0.0964977 -0.000767408 0.00175017)
(0.0867217 -0.000716039 0.0013877)
(0.0875771 -0.000743278 0.00180162)
(0.0962092 -0.00073056 0.00177912)
(0.0862437 -0.00065704 0.00144864)
(0.0867919 -0.000628838 0.00179728)
(0.095862 -0.000660187 0.00179354)
(0.0856909 -0.000566987 0.00148925)
(0.0859556 -0.000515543 0.00178049)
(0.0954659 -0.000576764 0.00179626)
(0.0850818 -0.00046684 0.00151357)
(0.0850811 -0.000405368 0.00175878)
(0.095028 -0.000488899 0.00178716)
(0.0844224 -0.000365418 0.00152825)
(0.0841774 -0.000301338 0.00173414)
(0.094557 -0.000397197 0.00176768)
(0.0837107 -0.000269653 0.00153644)
(0.0832519 -0.000204813 0.00170515)
(0.0940601 -0.000305 0.00174121)
(0.0829559 -0.000182904 0.0015378)
(0.0823163 -0.000115129 0.00167067)
(0.0935458 -0.000215975 0.00170999)
(0.082168 -0.000102989 0.00153168)
(0.0930232 -0.000131307 0.00167334)
(0.0813559 -2.90723e-05 0.0015183)
(0.104764 -0.000350091 0.00164554)
(0.107383 -0.000168749 0.00155572)
(0.103643 -0.000120954 0.00136527)
(0.104954 -0.000464018 0.00173032)
(0.107665 -0.000240167 0.00163831)
(0.103788 -0.000234348 0.00141556)
(0.105143 -0.000564557 0.00179998)
(0.107933 -0.000321558 0.00171635)
(0.103964 -0.000350949 0.00146274)
(0.105307 -0.000618935 0.0018499)
(0.108209 -0.000379651 0.0017749)
(0.10415 -0.000435874 0.00150382)
(0.105437 -0.000621891 0.00188655)
(0.108481 -0.000403837 0.00181498)
(0.104333 -0.000477569 0.00154248)
(0.105528 -0.000585917 0.00191422)
(0.108729 -0.000394396 0.00184492)
(0.104496 -0.000477586 0.00158169)
(0.105576 -0.00053117 0.00192528)
(0.108949 -0.000364025 0.00186353)
(0.104632 -0.000451361 0.00161811)
(0.105588 -0.000465065 0.0019134)
(0.10914 -0.000323435 0.00186411)
(0.104739 -0.000412309 0.00163776)
(0.105572 -0.000387723 0.00188546)
(0.109306 -0.000272677 0.00184726)
(0.104822 -0.00036041 0.00164005)
(0.105534 -0.000304428 0.00185248)
(0.109452 -0.000214284 0.001822)
(0.104882 -0.000296788 0.00163673)
(0.10548 -0.00022105 0.00181733)
(0.109579 -0.000153108 0.00179413)
(0.10492 -0.000228238 0.00163134)
(0.109693 -9.16227e-05 0.00176284)
(0.104937 -0.000158493 0.00162237)
(0.110491 -5.48385e-05 0.00149819)
(0.109629 0.000179497 0.00127098)
(0.110855 -9.33857e-05 0.00155772)
(0.110006 0.000125169 0.00131757)
(0.11124 -0.000132915 0.00160647)
(0.110365 8.46895e-05 0.00134453)
(0.111637 -0.000161567 0.00164446)
(0.110759 5.23328e-05 0.00136472)
(0.112033 -0.000174559 0.00167283)
(0.111169 2.8223e-05 0.0013843)
(0.112422 -0.000172358 0.0016916)
(0.111578 1.29752e-05 0.00140389)
(0.112799 -0.000157783 0.00169928)
(0.11198 6.55748e-06 0.00142109)
(0.113158 -0.000134168 0.0016955)
(0.11237 8.53656e-06 0.00143353)
(0.113499 -0.000104214 0.00168202)
(0.112747 1.87481e-05 0.00144)
(0.113823 -6.99392e-05 0.001662)
(0.11311 3.60287e-05 0.00144166)
(0.114133 -3.25814e-05 0.00163778)
(0.113459 5.82942e-05 0.00144003)
(0.113795 8.4281e-05 0.00143548)
(0.0853097 -0.000387994 0.00089087)
(0.0935674 -0.000178063 0.000989052)
(0.0814289 -0.000140821 0.00050137)
(0.0851309 -0.000479846 0.000912134)
(0.0934607 -0.000275862 0.001018)
(0.0812322 -0.000137798 0.000520071)
(0.0849457 -0.00053523 0.000978766)
(0.0934676 -0.00036069 0.00105091)
(0.0812365 -0.000228873 0.000564124)
(0.0847001 -0.000534108 0.00106288)
(0.0934596 -0.000418378 0.00109393)
(0.081149 -0.000301037 0.000652495)
(0.0843883 -0.000479903 0.00114316)
(0.0934146 -0.000428421 0.00114657)
(0.0809652 -0.000297749 0.000764296)
(0.0840124 -0.000396194 0.00121073)
(0.0933309 -0.000399489 0.00120034)
(0.0807151 -0.000245885 0.000873136)
(0.0835728 -0.000304242 0.00126531)
(0.0932111 -0.000349109 0.00125047)
(0.0803962 -0.000179333 0.000966685)
(0.0830698 -0.000216667 0.00130912)
(0.0930521 -0.000291973 0.00129162)
(0.0800072 -0.000116689 0.00104469)
(0.0825067 -0.000138017 0.00134269)
(0.0928487 -0.000233597 0.00132321)
(0.0795462 -6.31801e-05 0.00110764)
(0.0818871 -6.84789e-05 0.00136642)
(0.0926041 -0.000174114 0.00134817)
(0.0790244 -1.89199e-05 0.00115657)
(0.0812204 -6.38667e-06 0.00138114)
(0.0923209 -0.000115432 0.00136668)
(0.0784478 2.66679e-05 0.00119237)
(0.0920022 -5.80748e-05 0.00137889)
(0.0778217 6.99641e-05 0.001217)
(0.102675 -4.28632e-05 0.00114419)
(0.105662 0.000207654 0.00115239)
(0.10012 0.000206224 0.000742381)
(0.102804 -0.000142225 0.00115531)
(0.105892 0.000111964 0.00115899)
(0.100295 0.000150541 0.000812001)
(0.102988 -0.000228078 0.00117236)
(0.106153 4.54425e-05 0.00115779)
(0.100497 9.22637e-05 0.000828263)
(0.103194 -0.000294817 0.00120165)
(0.106447 -9.6622e-06 0.00116969)
(0.10073 1.4644e-05 0.000847378)
(0.103408 -0.000330339 0.00124245)
(0.106759 -4.90235e-05 0.00119588)
(0.100965 -4.78067e-05 0.000892179)
(0.103616 -0.000336274 0.00128979)
(0.107073 -7.00139e-05 0.00122987)
(0.101195 -8.71845e-05 0.000945648)
(0.10381 -0.000322721 0.00133417)
(0.107379 -7.5913e-05 0.00126808)
(0.101422 -0.000108651 0.00100076)
(0.103987 -0.000296794 0.0013675)
(0.107673 -7.1608e-05 0.00130187)
(0.101638 -0.000113872 0.00105333)
(0.104144 -0.00025873 0.001394)
(0.107955 -5.75034e-05 0.00132913)
(0.101838 -0.000105471 0.00109983)
(0.104278 -0.000210099 0.00141785)
(0.108219 -3.28898e-05 0.00135425)
(0.102016 -8.51425e-05 0.00114281)
(0.104386 -0.000155417 0.00143822)
(0.108464 -1.15444e-06 0.0013763)
(0.10217 -5.63838e-05 0.0011809)
(0.10869 3.47424e-05 0.00139505)
(0.102296 -2.3704e-05 0.00121348)
(0.109126 0.000360881 0.00109259)
(0.110633 0.000508136 0.00092677)
(0.107282 0.000637684 0.000814988)
(0.1095 0.0003048 0.00110691)
(0.111062 0.000460782 0.000946433)
(0.107658 0.000610126 0.000834309)
(0.109895 0.000272658 0.0011055)
(0.11147 0.000439556 0.000946768)
(0.108025 0.000614167 0.000830315)
(0.110305 0.000245111 0.00110749)
(0.111918 0.000423282 0.000941264)
(0.108442 0.000599006 0.000818416)
(0.110724 0.000218848 0.00111842)
(0.112384 0.00040483 0.000939736)
(0.10887 0.000565178 0.00081738)
(0.111143 0.000195755 0.00113636)
(0.112853 0.000385032 0.00094358)
(0.109288 0.000522687 0.000829095)
(0.11156 0.000178075 0.00115805)
(0.113317 0.000365449 0.000951442)
(0.109696 0.000478724 0.000850473)
(0.111969 0.000167846 0.00118043)
(0.113775 0.000347915 0.000960837)
(0.110096 0.000440107 0.000878539)
(0.112366 0.000165773 0.00120178)
(0.114225 0.000334423 0.000970552)
(0.110489 0.000410146 0.000910175)
(0.112753 0.000170868 0.0012216)
(0.114664 0.000325895 0.000980824)
(0.110872 0.000388425 0.000942803)
(0.113127 0.000181379 0.00123943)
(0.115091 0.000321831 0.00099133)
(0.111246 0.000374114 0.000974786)
(0.115507 0.000321274 0.00100137)
(0.11161 0.000365382 0.00100446)
(0.112624 0.000619742 0.000791506)
(0.113301 0.000639458 0.000590665)
(0.111305 0.00090702 0.000650189)
(0.113104 0.000608145 0.000795284)
(0.113816 0.000640867 0.00059823)
(0.111742 0.000915218 0.000630606)
(0.113601 0.000603217 0.000789902)
(0.114304 0.00064407 0.000598003)
(0.112175 0.000941725 0.00061942)
(0.11411 0.000596751 0.000781088)
(0.11483 0.000644528 0.000591544)
(0.112662 0.000956753 0.000605889)
(0.114624 0.000585439 0.000773059)
(0.115371 0.000640484 0.00058389)
(0.113166 0.000953039 0.000591309)
(0.115139 0.000569564 0.00076707)
(0.115912 0.000631437 0.000576565)
(0.113663 0.000933991 0.000578137)
(0.115649 0.000550368 0.000763169)
(0.116448 0.000618264 0.000570283)
(0.114147 0.000903271 0.000568019)
(0.116151 0.000529696 0.000761088)
(0.116978 0.000602008 0.000565214)
(0.114621 0.000864865 0.000562399)
(0.116643 0.00050959 0.000760666)
(0.1175 0.000584083 0.00056144)
(0.115083 0.000823946 0.000561846)
(0.117125 0.000491401 0.000761791)
(0.118011 0.000565977 0.00055895)
(0.115535 0.000784397 0.000563903)
(0.117597 0.000475546 0.000764178)
(0.118511 0.00054822 0.000557451)
(0.115978 0.000747579 0.000569015)
(0.119001 0.000531122 0.000556591)
(0.116413 0.000713878 0.000576272)
(0.114469 0.000661461 0.000391638)
(0.114494 0.000600423 0.000146737)
(0.113408 0.000940711 0.000342001)
(0.115014 0.000678032 0.000394659)
(0.115055 0.000620864 0.000148396)
(0.113908 0.000973273 0.000331459)
(0.115569 0.000686762 0.000392992)
(0.115585 0.00063102 0.000148462)
(0.114387 0.00100112 0.000327687)
(0.11613 0.000689835 0.000387925)
(0.116148 0.000632801 0.00014687)
(0.114908 0.00102057 0.000323171)
(0.116694 0.000688289 0.000381349)
(0.116726 0.000631519 0.000144247)
(0.115446 0.00102978 0.000315957)
(0.117257 0.000682174 0.000374035)
(0.117299 0.000628752 0.000140395)
(0.115981 0.0010285 0.000305962)
(0.117815 0.000672142 0.000366773)
(0.117868 0.000622953 0.000136655)
(0.116508 0.00101775 0.000294423)
(0.118365 0.00065876 0.000359959)
(0.118431 0.000613991 0.000133307)
(0.117026 0.000998856 0.000282618)
(0.118905 0.000642877 0.000353886)
(0.118986 0.000602502 0.0001304)
(0.117532 0.000973581 0.000271631)
(0.119435 0.000625171 0.000348463)
(0.11953 0.000589375 0.000128001)
(0.118026 0.00094442 0.000261959)
(0.119954 0.000606075 0.000343385)
(0.120064 0.000575079 0.000125893)
(0.118509 0.00091335 0.000253596)
(0.120587 0.000560046 0.000124007)
(0.118981 0.000881618 0.000246436)
(0.115022 0.000558506 -0.00010336)
(0.114494 0.000468631 -0.000377329)
(0.113983 0.00080538 -0.000105827)
(0.115593 0.000572523 -0.000104652)
(0.115055 0.000481 -0.00038966)
(0.114525 0.000836747 -0.000104357)
(0.116172 0.000575798 -0.00010396)
(0.115585 0.000485594 -0.000395288)
(0.115032 0.000851483 -9.97827e-05)
(0.116753 0.000573267 -0.00010267)
(0.116148 0.000482716 -0.000397082)
(0.11557 0.000856597 -9.42082e-05)
(0.117335 0.000570889 -0.000101814)
(0.116726 0.000478067 -0.000396821)
(0.116123 0.000858613 -8.97113e-05)
(0.117914 0.000568597 -0.000101298)
(0.1173 0.000473849 -0.000394233)
(0.116673 0.000859227 -8.70371e-05)
(0.118488 0.000563991 -0.000100566)
(0.117868 0.000468537 -0.000389698)
(0.117218 0.000856644 -8.58966e-05)
(0.119056 0.000557044 -9.94904e-05)
(0.118431 0.000462012 -0.000383224)
(0.117757 0.000850324 -8.59373e-05)
(0.119615 0.000548452 -9.81315e-05)
(0.118986 0.00045479 -0.000375073)
(0.118288 0.000840531 -8.69411e-05)
(0.120163 0.000538885 -9.66004e-05)
(0.11953 0.000447362 -0.000365804)
(0.118808 0.000828201 -8.87927e-05)
(0.120701 0.000528788 -9.50032e-05)
(0.120064 0.00043982 -0.000355687)
(0.119316 0.000814474 -9.14013e-05)
(0.120588 0.000432167 -0.000345048)
(0.119813 0.000799907 -9.46742e-05)
(0.114469 0.000391866 -0.000661631)
(0.113408 0.000342172 -0.000940955)
(0.113301 0.000590911 -0.000639603)
(0.115014 0.0003949 -0.000678045)
(0.113908 0.000331549 -0.000973272)
(0.113816 0.000598535 -0.000640879)
(0.115569 0.00039328 -0.00068665)
(0.114387 0.000327759 -0.00100094)
(0.114304 0.00059841 -0.000643958)
(0.11613 0.000388264 -0.000689656)
(0.114908 0.000323274 -0.00102029)
(0.114829 0.000592023 -0.00064434)
(0.116694 0.000381729 -0.000688092)
(0.115446 0.000316126 -0.0010295)
(0.115371 0.000584399 -0.000640272)
(0.117257 0.000374441 -0.000681992)
(0.115981 0.000306212 -0.00102828)
(0.115912 0.000577077 -0.000631238)
(0.117815 0.000367186 -0.000672)
(0.116508 0.000294739 -0.00101762)
(0.116448 0.00057079 -0.000618106)
(0.118365 0.000360362 -0.000658663)
(0.117026 0.000282968 -0.000998819)
(0.116978 0.000565716 -0.000601895)
(0.118906 0.000354266 -0.000642835)
(0.117533 0.000271984 -0.00097361)
(0.1175 0.000561939 -0.000584013)
(0.119436 0.000348815 -0.000625225)
(0.118027 0.000262288 -0.000944498)
(0.118011 0.000559441 -0.000565967)
(0.119955 0.000343673 -0.000606256)
(0.11851 0.000253859 -0.000913465)
(0.118511 0.000557917 -0.000548293)
(0.118982 0.000246612 -0.000881853)
(0.119002 0.000556958 -0.000531326)
(0.112821 0.00028364 -0.00124304)
(0.111058 0.000328789 -0.00143774)
(0.111408 0.000407037 -0.00120789)
(0.113276 0.000265963 -0.00129012)
(0.111468 0.00030848 -0.00153508)
(0.111831 0.000371044 -0.00124894)
(0.113761 0.000259176 -0.00132955)
(0.111869 0.000311015 -0.00162826)
(0.112256 0.00035979 -0.00129736)
(0.114262 0.000252658 -0.00135423)
(0.112311 0.000310059 -0.00168902)
(0.112738 0.000349053 -0.0013276)
(0.114766 0.00024231 -0.0013628)
(0.112758 0.000296502 -0.00171861)
(0.113239 0.000334252 -0.00133469)
(0.115265 0.000228446 -0.00135614)
(0.113186 0.000271099 -0.00172206)
(0.11373 0.000317849 -0.00132151)
(0.115754 0.000212745 -0.00133582)
(0.113591 0.000239074 -0.00170294)
(0.114206 0.000302063 -0.00129153)
(0.11623 0.000197118 -0.00130434)
(0.113975 0.000205926 -0.0016661)
(0.114668 0.000289338 -0.00124898)
(0.116692 0.000182806 -0.00126529)
(0.114339 0.000174166 -0.00161479)
(0.115116 0.000281437 -0.00119972)
(0.11714 0.000170353 -0.00122244)
(0.114687 0.000144059 -0.00155807)
(0.115552 0.00027653 -0.00114875)
(0.117577 0.000159996 -0.00117854)
(0.115024 0.00011721 -0.0014999)
(0.115978 0.000274888 -0.00109852)
(0.116396 0.000275986 -0.00105044)
(0.109736 0.000350358 -0.00172746)
(0.106721 0.000490215 -0.00177848)
(0.108069 0.000409753 -0.00166343)
(0.110114 0.000350353 -0.00186347)
(0.107057 0.000525738 -0.0020168)
(0.108423 0.000383765 -0.00185379)
(0.110518 0.000358776 -0.001972)
(0.107339 0.000561348 -0.00218977)
(0.108776 0.000376201 -0.00200328)
(0.11091 0.000350782 -0.00203686)
(0.107598 0.00056163 -0.00227425)
(0.109168 0.00035013 -0.00207864)
(0.111277 0.000322496 -0.00206236)
(0.107799 0.000523366 -0.00230496)
(0.109538 0.000306827 -0.00209732)
(0.111614 0.000279545 -0.00205512)
(0.107932 0.000458429 -0.00229734)
(0.10986 0.00025282 -0.00207138)
(0.11192 0.000230684 -0.00202255)
(0.108011 0.000378495 -0.0022563)
(0.110141 0.000197646 -0.00201281)
(0.112198 0.000181901 -0.00197012)
(0.108049 0.000294701 -0.00219255)
(0.110393 0.000148381 -0.00193435)
(0.112455 0.000134849 -0.00190537)
(0.108061 0.000215311 -0.00210721)
(0.110626 0.000110658 -0.00184581)
(0.112697 9.09274e-05 -0.00183662)
(0.108061 0.000141008 -0.00202121)
(0.110848 8.02061e-05 -0.00176047)
(0.108056 7.55119e-05 -0.0019378)
(0.111065 5.68699e-05 -0.00167583)
(0.104193 0.000657131 -0.0020132)
(0.0973608 0.00084483 -0.00187711)
(0.102289 0.000714219 -0.00195334)
(0.104477 0.000729365 -0.00224244)
(0.0970705 0.00103844 -0.00217395)
(0.102635 0.000791016 -0.00236685)
(0.104672 0.000758777 -0.00236178)
(0.0966795 0.00105047 -0.00229386)
(0.102815 0.000778388 -0.0025505)
(0.104748 0.000730484 -0.00240406)
(0.0961396 0.000977592 -0.00231329)
(0.102863 0.000692396 -0.00257069)
(0.104722 0.000657439 -0.00240242)
(0.0954757 0.000857984 -0.00228909)
(0.102768 0.000573908 -0.00253263)
(0.104615 0.000557599 -0.0023649)
(0.0947295 0.000719007 -0.00223787)
(0.102561 0.000443294 -0.0024427)
(0.104447 0.000445006 -0.00229764)
(0.0939387 0.000574117 -0.00216802)
(0.102295 0.000313808 -0.0023131)
(0.104239 0.000332893 -0.00220585)
(0.0931286 0.000433507 -0.0020867)
(0.102003 0.000198669 -0.00217262)
(0.104013 0.000228367 -0.00210335)
(0.0923214 0.000304216 -0.00199228)
(0.101708 0.000102896 -0.00203097)
(0.103784 0.000134324 -0.00200616)
(0.0915365 0.000188714 -0.00189846)
(0.101422 2.53715e-05 -0.00190428)
(0.0907848 9.42392e-05 -0.00180729)
(0.101155 -3.24784e-05 -0.00178936)
(0.091015 0.00120001 -0.0019802)
(0.0896848 0.00130856 -0.00196545)
(0.090099 0.001323 -0.00227878)
(0.0885326 0.00152526 -0.00252954)
(0.0890148 0.00123323 -0.0023913)
(0.0872044 0.00140443 -0.00267211)
(0.0877976 0.00107423 -0.00237811)
(0.085608 0.00116246 -0.00261607)
(0.0864888 0.000894325 -0.00231221)
(0.0838947 0.00090127 -0.00249357)
(0.0851315 0.000714989 -0.00222695)
(0.082191 0.000666464 -0.00234457)
(0.0837643 0.000545868 -0.00213454)
(0.0805497 0.000472121 -0.00219186)
(0.0824166 0.000391313 -0.00203759)
(0.0789967 0.000316613 -0.00204266)
(0.0811117 0.000253724 -0.00193887)
(0.0775464 0.000191546 -0.00189849)
(0.079862 0.000139585 -0.00184083)
(0.0762039 9.40454e-05 -0.0017673)
(0.0749666 2.51248e-05 -0.00164797)
(0.0776601 0.000133211 0.000155876)
(0.0870709 0.000329634 0.000284429)
(0.0718401 0.000276416 -0.000427348)
(0.0777035 9.34019e-05 0.000197078)
(0.0871279 0.000327781 0.000393248)
(0.0719516 0.000430746 -0.000217689)
(0.0776982 -2.38447e-05 0.000263008)
(0.0873107 0.000218228 0.00039991)
(0.0720533 0.000222209 -9.53568e-05)
(0.0776419 -0.000103987 0.000378108)
(0.087441 0.000107996 0.000449444)
(0.0719643 6.67829e-05 5.59472e-05)
(0.0775277 -0.000115929 0.000516584)
(0.0875082 5.00101e-05 0.000542663)
(0.071761 3.68461e-05 0.000239874)
(0.0773354 -9.04259e-05 0.000649239)
(0.0875399 2.51738e-05 0.000638997)
(0.0715232 4.64056e-05 0.000407662)
(0.0770585 -5.39221e-05 0.000764122)
(0.0875318 1.52691e-05 0.000724157)
(0.0712367 6.10718e-05 0.000543693)
(0.0767042 -1.80986e-05 0.000859414)
(0.0874786 1.55493e-05 0.000800217)
(0.0708894 7.97982e-05 0.000652027)
(0.0762816 1.40442e-05 0.000936108)
(0.0873781 2.17921e-05 0.000865676)
(0.0704842 9.66415e-05 0.000735006)
(0.0757987 4.27112e-05 0.000995771)
(0.0872342 3.2714e-05 0.000920826)
(0.070032 0.000109189 0.000796941)
(0.0752574 7.05726e-05 0.00104044)
(0.0870484 4.64677e-05 0.000965417)
(0.0695332 0.000118762 0.000842166)
(0.0868195 6.46898e-05 0.0010019)
(0.069005 0.000133903 0.000877619)
(0.0978063 0.000501485 0.000423874)
(0.101529 0.000735105 0.000468896)
(0.0939337 0.000723542 -3.58066e-05)
(0.0980957 0.00042745 0.000499684)
(0.101837 0.000698757 0.000530359)
(0.0942917 0.00083959 0.000180349)
(0.0983708 0.000339892 0.0005197)
(0.102138 0.000659316 0.000536714)
(0.0945521 0.000780154 0.000242738)
(0.0986219 0.000256588 0.000554669)
(0.102485 0.000602485 0.000536149)
(0.0947661 0.000637767 0.000257198)
(0.0988705 0.000186564 0.000611917)
(0.102826 0.000542064 0.000564964)
(0.0949459 0.000512003 0.000301278)
(0.0991209 0.000127717 0.00067305)
(0.103152 0.000480523 0.000608699)
(0.0951186 0.000415378 0.000366358)
(0.0993684 8.45408e-05 0.000736065)
(0.103473 0.000422983 0.000658399)
(0.0952917 0.000340993 0.00043769)
(0.0996051 5.97103e-05 0.000801118)
(0.103786 0.000377338 0.000715505)
(0.0954623 0.000286668 0.000510549)
(0.0998244 4.97303e-05 0.000863239)
(0.104088 0.000344615 0.000774767)
(0.0956237 0.000250165 0.000580283)
(0.100021 5.06001e-05 0.000919631)
(0.104375 0.000322657 0.000831463)
(0.0957677 0.000226605 0.000642772)
(0.100193 5.85894e-05 0.000969152)
(0.104648 0.000309569 0.000883942)
(0.0958945 0.000215531 0.000700697)
(0.104901 0.000301826 0.00092998)
(0.0959923 0.000203712 0.000745172)
(0.105793 0.000946374 0.000562256)
(0.107889 0.00106009 0.000509832)
(0.103147 0.00120376 0.000426963)
(0.106207 0.000953201 0.000565472)
(0.108271 0.00107876 0.000496738)
(0.103506 0.00136528 0.000420782)
(0.106653 0.000949492 0.00055318)
(0.108662 0.00111136 0.000494204)
(0.103852 0.00143739 0.00038794)
(0.107086 0.000916294 0.000539547)
(0.109116 0.00111565 0.000478194)
(0.104237 0.00140208 0.000341672)
(0.107504 0.000860954 0.000540001)
(0.109579 0.00108996 0.000463425)
(0.104595 0.00131215 0.000311437)
(0.107909 0.000795494 0.00055545)
(0.110023 0.00104409 0.000457039)
(0.104911 0.00120466 0.000305982)
(0.108303 0.000729642 0.000583229)
(0.11045 0.000986792 0.000459821)
(0.105203 0.00109636 0.000322097)
(0.108687 0.000670225 0.000620411)
(0.110865 0.000925687 0.000472448)
(0.105486 0.000995598 0.00035205)
(0.109064 0.000620221 0.00066298)
(0.111268 0.000867546 0.000493615)
(0.105765 0.000910221 0.000392041)
(0.109435 0.000579754 0.00070727)
(0.111664 0.000815373 0.000518314)
(0.106045 0.000838874 0.000438786)
(0.1098 0.000547254 0.000750543)
(0.112052 0.000769814 0.000545635)
(0.106326 0.000781167 0.000486983)
(0.112433 0.000729633 0.000573512)
(0.106606 0.00073138 0.000532408)
(0.110396 0.00121492 0.000492153)
(0.111408 0.00120778 0.000406763)
(0.108373 0.00143011 0.000487724)
(0.110814 0.00125669 0.000458688)
(0.111831 0.00124914 0.000370802)
(0.108738 0.00157333 0.000439268)
(0.111286 0.0012953 0.000440382)
(0.112256 0.00129776 0.000359582)
(0.109113 0.00169322 0.000410046)
(0.11177 0.00130818 0.000421775)
(0.112738 0.00132807 0.000348866)
(0.109542 0.00174086 0.000374105)
(0.112249 0.00129411 0.000402559)
(0.113239 0.00133509 0.000334043)
(0.109962 0.00173479 0.000331893)
(0.112715 0.00125823 0.00038572)
(0.113729 0.00132173 0.00031759)
(0.110342 0.00168952 0.000289598)
(0.113166 0.00120672 0.000374265)
(0.114205 0.00129155 0.000301768)
(0.11069 0.00161664 0.000253678)
(0.113601 0.00114712 0.000370394)
(0.114667 0.00124886 0.000289038)
(0.111015 0.00152804 0.000227656)
(0.114023 0.00108646 0.000372392)
(0.115114 0.00119953 0.000281115)
(0.111325 0.001437 0.000215289)
(0.114437 0.0010285 0.000378403)
(0.11555 0.00114851 0.000276194)
(0.111629 0.00135384 0.000209919)
(0.114844 0.000974301 0.000388275)
(0.115976 0.00109834 0.000274652)
(0.111929 0.00127513 0.000211702)
(0.116393 0.0010501 0.000275784)
(0.11223 0.0012023 0.000218262)
(0.112821 0.00124299 0.0002836)
(0.11292 0.00113844 0.000100334)
(0.111058 0.00143762 0.000328872)
(0.113276 0.00129033 0.000266035)
(0.113402 0.00118385 8.86606e-05)
(0.111468 0.00153536 0.000308878)
(0.113761 0.00132988 0.000259284)
(0.113859 0.00121795 8.74256e-05)
(0.111869 0.00162867 0.000311512)
(0.114262 0.00135458 0.000252721)
(0.114355 0.00124022 8.92992e-05)
(0.112311 0.00168939 0.000310457)
(0.114766 0.00136308 0.000242268)
(0.11487 0.00125194 8.85034e-05)
(0.112758 0.00171882 0.000296662)
(0.115265 0.00135628 0.000228285)
(0.115382 0.00125349 8.42712e-05)
(0.113185 0.00172203 0.000270959)
(0.115753 0.00133581 0.000212495)
(0.115886 0.00124533 7.70934e-05)
(0.113589 0.00170268 0.000238738)
(0.116229 0.00130422 0.000196822)
(0.116382 0.00122825 6.81837e-05)
(0.113972 0.00166563 0.000205488)
(0.11669 0.0012651 0.000182508)
(0.116865 0.00120379 5.86193e-05)
(0.114337 0.00161426 0.000173693)
(0.117138 0.00122225 0.000170119)
(0.117335 0.00117476 4.89473e-05)
(0.114685 0.00155755 0.000143625)
(0.117575 0.00117832 0.000159851)
(0.117793 0.00114371 3.96324e-05)
(0.115021 0.00149957 0.000116986)
(0.11824 0.00111198 3.08338e-05)
(0.11535 0.00144191 9.3714e-05)
(0.113458 0.00107638 -0.000106957)
(0.112814 0.000920242 -0.000370386)
(0.111728 0.00126893 -3.44473e-05)
(0.113956 0.0011089 -9.98801e-05)
(0.11331 0.000946427 -0.000358335)
(0.112169 0.00131996 -1.35873e-05)
(0.114461 0.0011259 -9.06736e-05)
(0.113776 0.000956752 -0.000349833)
(0.112584 0.00135578 1.32319e-05)
(0.114974 0.00113528 -8.19942e-05)
(0.114277 0.000958263 -0.000342468)
(0.113027 0.00138207 3.68499e-05)
(0.115491 0.00114017 -7.57657e-05)
(0.114796 0.000957323 -0.000334102)
(0.113486 0.00140137 5.16108e-05)
(0.116007 0.00114051 -7.25213e-05)
(0.115314 0.000955067 -0.000324773)
(0.113942 0.00141472 5.64996e-05)
(0.116519 0.00113595 -7.21045e-05)
(0.115827 0.000951629 -0.000314914)
(0.114389 0.00142055 5.25642e-05)
(0.117023 0.00112628 -7.40805e-05)
(0.116335 0.000946624 -0.000305033)
(0.114825 0.00141733 4.20325e-05)
(0.117515 0.00111222 -7.81011e-05)
(0.116833 0.000939951 -0.000296042)
(0.115248 0.0014054 2.65951e-05)
(0.117995 0.0010953 -8.38805e-05)
(0.11732 0.000932254 -0.000288823)
(0.115655 0.00138762 7.55088e-06)
(0.118463 0.00107672 -9.11264e-05)
(0.117795 0.000924266 -0.00028363)
(0.116048 0.00136676 -1.41609e-05)
(0.11826 0.000916108 -0.000280391)
(0.116428 0.00134353 -3.79204e-05)
(0.112624 0.00079184 -0.000619734)
(0.111305 0.000650512 -0.000907146)
(0.110633 0.000926976 -0.000508155)
(0.113104 0.000795737 -0.000608031)
(0.111742 0.000631023 -0.000915136)
(0.111062 0.000946745 -0.000460745)
(0.113601 0.000790449 -0.000603021)
(0.112175 0.000619932 -0.000941422)
(0.11147 0.000947261 -0.000439563)
(0.11411 0.000781671 -0.000596517)
(0.112662 0.000606428 -0.00095632)
(0.111917 0.000941824 -0.000423311)
(0.114624 0.000773641 -0.000585215)
(0.113166 0.000591836 -0.000952625)
(0.112384 0.000940285 -0.000404829)
(0.115138 0.000767641 -0.00056938)
(0.113663 0.000578634 -0.000933704)
(0.112852 0.000944086 -0.000384963)
(0.115648 0.000763737 -0.000550235)
(0.114148 0.000568484 -0.000903136)
(0.113317 0.00095193 -0.000365323)
(0.116151 0.000761672 -0.000529608)
(0.114622 0.000562842 -0.000864842)
(0.113775 0.000961362 -0.000347771)
(0.116643 0.000761278 -0.000509553)
(0.115084 0.000562316 -0.000823984)
(0.114225 0.000971142 -0.000334294)
(0.117125 0.000762416 -0.000491415)
(0.115536 0.000564416 -0.00078451)
(0.114663 0.000981485 -0.000325835)
(0.117597 0.000764761 -0.000475652)
(0.115979 0.000569481 -0.000747662)
(0.115091 0.000992019 -0.000321819)
(0.116414 0.000576725 -0.000714148)
(0.115507 0.001002 -0.000321481)
(0.110396 0.000492579 -0.00121478)
(0.108373 0.00048807 -0.00143001)
(0.107888 0.00051041 -0.00106028)
(0.110814 0.000459176 -0.0012563)
(0.108738 0.000439475 -0.00157265)
(0.108271 0.000497523 -0.00107877)
(0.111286 0.000440886 -0.00129478)
(0.109114 0.000410211 -0.00169237)
(0.108661 0.000494987 -0.00111119)
(0.11177 0.00042225 -0.00130767)
(0.109544 0.000374307 -0.00174011)
(0.109116 0.000478873 -0.00111541)
(0.112249 0.000402989 -0.00129376)
(0.109964 0.000332216 -0.00173436)
(0.109579 0.000463983 -0.0010898)
(0.112716 0.000386101 -0.00125812)
(0.110344 0.000290015 -0.00168964)
(0.110023 0.000457445 -0.00104407)
(0.113167 0.000374596 -0.00120681)
(0.110693 0.000254118 -0.00161716)
(0.110451 0.000460109 -0.000986866)
(0.113602 0.000370717 -0.0011473)
(0.111018 0.000228067 -0.00152874)
(0.110866 0.000472673 -0.000925802)
(0.114025 0.00037276 -0.00108671)
(0.111329 0.000215709 -0.00143766)
(0.111269 0.000493868 -0.000867674)
(0.114439 0.000378756 -0.00102873)
(0.111633 0.000210406 -0.00135458)
(0.111665 0.000518682 -0.000815625)
(0.114846 0.000388609 -0.000974596)
(0.111933 0.000211881 -0.00127532)
(0.112053 0.000545913 -0.000769868)
(0.112435 0.000573957 -0.000730222)
(0.106717 0.000435582 -0.00178695)
(0.103464 0.000637665 -0.00187009)
(0.103599 0.000350879 -0.00155948)
(0.107099 0.000392543 -0.00198665)
(0.103826 0.000628261 -0.00229479)
(0.103942 0.000327234 -0.00182411)
(0.107509 0.000347308 -0.00210167)
(0.104071 0.000560406 -0.00249587)
(0.104275 0.000292598 -0.00195381)
(0.107873 0.000289064 -0.00213213)
(0.10424 0.000453353 -0.00251995)
(0.104637 0.000227429 -0.00196086)
(0.108187 0.000225052 -0.00210171)
(0.104297 0.00033696 -0.00247195)
(0.104955 0.000160516 -0.00189968)
(0.108455 0.000164791 -0.00202738)
(0.104259 0.000224444 -0.00236069)
(0.105212 0.000112987 -0.00180085)
(0.108685 0.000115093 -0.00192595)
(0.104176 0.000126727 -0.00220892)
(0.10543 8.91164e-05 -0.00168448)
(0.108893 8.10775e-05 -0.00181386)
(0.104077 5.06561e-05 -0.0020495)
(0.105629 8.20305e-05 -0.0015647)
(0.10909 6.17353e-05 -0.00170629)
(0.103982 -1.87795e-06 -0.00190073)
(0.105822 9.10096e-05 -0.00145414)
(0.109288 5.22085e-05 -0.00160603)
(0.103899 -3.5762e-05 -0.00177074)
(0.106017 0.000110655 -0.00135802)
(0.103834 -5.18978e-05 -0.00165068)
(0.106215 0.000135808 -0.0012708)
(0.100713 0.000814157 -0.00229059)
(0.0939676 0.00120308 -0.00220203)
(0.096698 0.000759581 -0.00208831)
(0.101043 0.000780726 -0.00264659)
(0.0933718 0.00124914 -0.0027129)
(0.0971268 0.00076374 -0.00269228)
(0.101125 0.000655271 -0.00273153)
(0.092539 0.00108486 -0.00274229)
(0.0972064 0.000557333 -0.00278463)
(0.10099 0.000494846 -0.00267765)
(0.0914499 0.000849396 -0.00263374)
(0.0970158 0.00032127 -0.00262674)
(0.100712 0.00033429 -0.00255843)
(0.0902268 0.000606777 -0.0024954)
(0.0966556 0.000134191 -0.00240276)
(0.100354 0.00018809 -0.00238395)
(0.0889876 0.000390297 -0.00232155)
(0.0962313 -1.88332e-06 -0.00215188)
(0.0999701 6.71031e-05 -0.00218784)
(0.0878018 0.000218211 -0.00213117)
(0.0958026 -8.75555e-05 -0.00190659)
(0.0995945 -2.49513e-05 -0.00200221)
(0.0867011 9.2846e-05 -0.00194751)
(0.0954039 -0.000135829 -0.00169051)
(0.0992417 -9.00336e-05 -0.0018394)
(0.0857001 4.39607e-06 -0.00177877)
(0.095048 -0.000161407 -0.00151598)
(0.0989215 -0.00012927 -0.00169725)
(0.0847974 -5.40814e-05 -0.00163236)
(0.0947308 -0.000164867 -0.00137792)
(0.0839888 -8.65218e-05 -0.00150386)
(0.0944516 -0.000152205 -0.00126208)
(0.0876177 0.00158415 -0.00248466)
(0.0835162 0.00161434 -0.00239476)
(0.0859117 0.00151006 -0.00287111)
(0.0813008 0.00161788 -0.00310312)
(0.0839473 0.00124983 -0.00285209)
(0.078893 0.00123069 -0.00299482)
(0.0818765 0.000942946 -0.00270256)
(0.0762967 0.000789328 -0.0027228)
(0.0798181 0.000652433 -0.00250891)
(0.073853 0.000462474 -0.00241931)
(0.0778594 0.000415021 -0.00230034)
(0.0717147 0.000242065 -0.00212445)