/*--------------------------------*- C++ -*----------------------------------*\
| =========                 |                                                 |
| \\      /  F ield         | OpenFOAM: The Open Source CFD Toolbox           |
|  \\    /   O peration     | Version:  2212                                  |
|   \\  /    A nd           | Website:  www.openfoam.com                      |
|    \\/     M anipulation  |                                                 |
\*---------------------------------------------------------------------------*/
FoamFile
{
    version     2.0;
    format      ascii;
    arch        "LSB;label=32;scalar=64";
    class       surfaceScalarField;
    location    "1";
    object      phi;
}
// * * * * * * * * * * * * * * * * * * * * * * * * * * * * * * * * * * * * * //

dimensions      [0 3 -1 0 0 0 0];

oriented        oriented;

internalField   nonuniform List<scalar> 
1800
(
3.3225e-07
1.09686e-09
1.09678e-09
2.79191e-07
2.65297e-08
2.65293e-08
2.49218e-07
1.49866e-08
1.49859e-08
2.29254e-07
9.98237e-09
9.98119e-09
2.14835e-07
7.21083e-09
7.20841e-09
2.032e-07
5.81955e-09
5.8158e-09
4.71734e-09
4.71011e-09
6.3138e-07
3.58759e-09
7.40284e-09
6.14564e-07
2.26458e-08
2.07001e-08
5.86446e-07
2.43757e-08
1.87288e-08
5.61728e-07
1.88543e-08
1.58462e-08
5.39622e-07
1.55684e-08
1.37483e-08
5.20645e-07
1.35084e-08
1.12886e-08
1.19488e-08
8.7086e-09
8.90375e-07
2.85255e-09
6.33231e-09
8.82487e-07
1.34082e-08
1.71256e-08
8.70361e-07
1.78662e-08
1.86353e-08
8.55116e-07
1.69532e-08
1.71461e-08
8.39989e-07
1.53362e-08
1.5359e-08
8.25546e-07
1.41626e-08
1.37886e-08
1.33663e-08
1.23409e-08
1.07432e-06
1.06464e-09
5.56887e-09
1.06824e-06
5.58592e-09
1.39002e-08
1.06138e-06
8.46276e-09
1.62615e-08
1.05339e-06
9.03765e-09
1.59082e-08
1.04511e-06
8.61384e-09
1.50012e-08
1.03723e-06
8.11316e-09
1.39324e-08
7.77342e-09
1.29765e-08
1.16914e-06
-1.31137e-13
4.90653e-09
1.16312e-06
-6.03281e-13
1.16084e-08
1.15731e-06
-1.32943e-12
1.42755e-08
1.15202e-06
-2.33064e-12
1.4334e-08
1.1469e-06
-3.93867e-12
1.37314e-08
1.14205e-06
-6.74773e-12
1.29715e-08
-1.16487e-11
1.21045e-08
1.16914e-06
-1.06491e-09
4.90657e-09
1.16312e-06
-5.58686e-09
1.16086e-08
1.15731e-06
-8.46455e-09
1.42757e-08
1.15201e-06
-9.04069e-09
1.43344e-08
1.1469e-06
-8.6193e-09
1.37328e-08
1.14204e-06
-8.12296e-09
1.29742e-08
-7.79053e-09
1.21088e-08
1.07432e-06
-2.85253e-09
5.56888e-09
1.06824e-06
-1.34081e-08
1.39003e-08
1.06138e-06
-1.78663e-08
1.62621e-08
1.05338e-06
-1.69533e-08
1.591e-08
1.04509e-06
-1.53368e-08
1.50045e-08
1.0372e-06
-1.41642e-08
1.39375e-08
-1.33694e-08
1.29841e-08
8.90375e-07
-3.58745e-09
6.33238e-09
8.82486e-07
-2.26452e-08
1.7126e-08
8.70358e-07
-2.43749e-08
1.86365e-08
8.55109e-07
-1.88529e-08
1.71481e-08
8.39976e-07
-1.55657e-08
1.53619e-08
8.25523e-07
-1.35039e-08
1.37926e-08
-1.19411e-08
1.23474e-08
6.3138e-07
-1.09677e-09
7.40292e-09
6.14564e-07
-2.65293e-08
2.07005e-08
5.86445e-07
-1.49859e-08
1.87295e-08
5.61726e-07
-9.98119e-09
1.58476e-08
5.39618e-07
-7.20841e-09
1.37502e-08
5.20638e-07
-5.8158e-09
1.12923e-08
-4.71011e-09
8.71447e-09
3.3225e-07
1.09687e-09
2.79191e-07
2.65297e-08
2.49218e-07
1.49866e-08
2.29254e-07
9.98237e-09
2.14835e-07
7.21082e-09
2.032e-07
5.81955e-09
4.71733e-09
6.3138e-07
7.40292e-09
3.58746e-09
6.14564e-07
2.07005e-08
2.26452e-08
5.86445e-07
1.87295e-08
2.43749e-08
5.61726e-07
1.58476e-08
1.88529e-08
5.39618e-07
1.37502e-08
1.55657e-08
5.20638e-07
1.12923e-08
1.35039e-08
8.71447e-09
1.19411e-08
9.23616e-07
7.03389e-09
7.03372e-09
9.25318e-07
1.98498e-08
1.98492e-08
9.17184e-07
2.27966e-08
2.27956e-08
9.04276e-07
2.23021e-08
2.23003e-08
8.90535e-07
2.06211e-08
2.06181e-08
8.77412e-07
1.7855e-08
1.78494e-08
1.46998e-08
1.46906e-08
1.1589e-06
5.2813e-09
6.10237e-09
1.1657e-06
1.39984e-08
1.61821e-08
1.16845e-06
1.79772e-08
2.07048e-08
1.16662e-06
1.91777e-08
2.21021e-08
1.16222e-06
1.88743e-08
2.15023e-08
1.15655e-06
1.75423e-08
1.97657e-08
1.56791e-08
1.74187e-08
1.32763e-06
2.71803e-09
4.93096e-09
1.33539e-06
7.12023e-09
1.30086e-08
1.34287e-06
9.55226e-09
1.72151e-08
1.34848e-06
1.05759e-08
1.88983e-08
1.35198e-06
1.08714e-08
1.95002e-08
1.35377e-06
1.0574e-08
1.91145e-08
9.88081e-09
1.81006e-08
1.41518e-06
-2.31395e-13
4.19281e-09
1.42279e-06
-6.59257e-13
1.11158e-08
1.43152e-06
-1.13838e-12
1.50985e-08
1.4398e-06
-2.03194e-12
1.66297e-08
1.44713e-06
-3.65644e-12
1.72767e-08
1.45317e-06
-6.25652e-12
1.75128e-08
-1.02344e-11
1.71584e-08
1.41518e-06
-2.71829e-09
4.19293e-09
1.42279e-06
-7.12097e-09
1.11161e-08
1.43152e-06
-9.5536e-09
1.5099e-08
1.4398e-06
-1.05784e-08
1.66307e-08
1.44712e-06
-1.08759e-08
1.7279e-08
1.45316e-06
-1.05815e-08
1.75168e-08
-9.8931e-09
1.71648e-08
1.32762e-06
-5.28119e-09
4.93119e-09
1.33539e-06
-1.39982e-08
1.30092e-08
1.34286e-06
-1.7977e-08
1.72165e-08
1.34847e-06
-1.91774e-08
1.89014e-08
1.35197e-06
-1.88737e-08
1.95058e-08
1.35374e-06
-1.75411e-08
1.91231e-08
-1.56774e-08
1.81139e-08
1.1589e-06
-7.03372e-09
6.10264e-09
1.1657e-06
-1.98492e-08
1.6183e-08
1.16844e-06
-2.27956e-08
2.07068e-08
1.16661e-06
-2.23003e-08
2.21054e-08
1.16221e-06
-2.06181e-08
2.15072e-08
1.15654e-06
-1.78494e-08
1.97728e-08
-1.46906e-08
1.74303e-08
9.23617e-07
-7.40284e-09
7.03388e-09
9.25318e-07
-2.07001e-08
1.98498e-08
9.17184e-07
-1.87288e-08
2.27966e-08
9.04276e-07
-1.58463e-08
2.23021e-08
8.90535e-07
-1.37483e-08
2.06211e-08
8.77412e-07
-1.12886e-08
1.7855e-08
-8.7086e-09
1.46998e-08
6.3138e-07
3.58759e-09
6.14564e-07
2.26458e-08
5.86446e-07
2.43757e-08
5.61728e-07
1.88543e-08
5.39622e-07
1.55684e-08
5.20645e-07
1.35084e-08
1.19488e-08
8.90375e-07
6.33238e-09
2.85254e-09
8.82486e-07
1.7126e-08
1.34081e-08
8.70358e-07
1.86365e-08
1.78663e-08
8.55109e-07
1.71481e-08
1.69533e-08
8.39976e-07
1.53619e-08
1.53368e-08
8.25523e-07
1.37927e-08
1.41642e-08
1.23475e-08
1.33694e-08
1.1589e-06
6.10264e-09
5.28119e-09
1.1657e-06
1.6183e-08
1.39982e-08
1.16844e-06
2.07069e-08
1.7977e-08
1.16661e-06
2.21054e-08
1.91774e-08
1.16221e-06
2.15072e-08
1.88737e-08
1.15654e-06
1.97728e-08
1.7541e-08
1.74304e-08
1.56774e-08
1.37712e-06
4.57727e-09
4.57703e-09
1.38565e-06
1.19169e-08
1.19162e-08
1.39417e-06
1.64464e-08
1.64452e-08
1.40126e-06
1.85596e-08
1.85576e-08
1.40642e-06
1.89288e-08
1.89255e-08
1.40952e-06
1.82201e-08
1.82149e-08
1.67128e-08
1.67043e-08
1.53312e-06
2.36585e-09
3.64911e-09
1.54218e-06
6.23833e-09
9.63326e-09
1.55328e-06
8.87247e-09
1.36907e-08
1.56445e-06
1.03457e-08
1.5935e-08
1.57508e-06
1.08976e-08
1.69094e-08
1.58472e-06
1.07515e-08
1.69422e-08
1.01386e-08
1.63726e-08
1.61424e-06
-1.689e-13
3.09277e-09
1.62332e-06
-4.16426e-13
8.27382e-09
1.63533e-06
-7.30616e-13
1.19568e-08
1.6482e-06
-1.26824e-12
1.4114e-08
1.66117e-06
-2.19051e-12
1.51997e-08
1.67386e-06
-3.52254e-12
1.55826e-08
-5.72681e-12
1.54301e-08
1.61424e-06
-2.36597e-09
3.09292e-09
1.62332e-06
-6.23864e-09
8.27422e-09
1.63533e-06
-8.87304e-09
1.19576e-08
1.64819e-06
-1.03467e-08
1.41154e-08
1.66117e-06
-1.08991e-08
1.52023e-08
1.67385e-06
-1.07538e-08
1.55866e-08
-1.01424e-08
1.5436e-08
1.53312e-06
-4.57703e-09
3.64943e-09
1.54218e-06
-1.19162e-08
9.63413e-09
1.55327e-06
-1.64452e-08
1.36923e-08
1.56445e-06
-1.85576e-08
1.59379e-08
1.57507e-06
-1.89256e-08
1.69142e-08
1.5847e-06
-1.8215e-08
1.69498e-08
-1.67044e-08
1.63842e-08
1.37712e-06
-6.10237e-09
4.57727e-09
1.38565e-06
-1.61821e-08
1.19169e-08
1.39417e-06
-2.07048e-08
1.64464e-08
1.40126e-06
-2.21021e-08
1.85596e-08
1.40642e-06
-2.15023e-08
1.89288e-08
1.40952e-06
-1.97657e-08
1.82201e-08
-1.74188e-08
1.67128e-08
1.1589e-06
-6.3323e-09
5.28129e-09
1.1657e-06
-1.71256e-08
1.39984e-08
1.16845e-06
-1.86353e-08
1.79772e-08
1.16662e-06
-1.71461e-08
1.91777e-08
1.16222e-06
-1.5359e-08
1.88743e-08
1.15655e-06
-1.37886e-08
1.75423e-08
-1.23409e-08
1.56791e-08
8.90375e-07
2.85255e-09
8.82487e-07
1.34082e-08
8.70361e-07
1.78662e-08
8.55116e-07
1.69532e-08
8.39989e-07
1.53361e-08
8.25546e-07
1.41626e-08
1.33663e-08
1.07432e-06
5.56889e-09
1.06492e-09
1.06824e-06
1.39003e-08
5.58687e-09
1.06138e-06
1.62621e-08
8.46455e-09
1.05338e-06
1.591e-08
9.04068e-09
1.04509e-06
1.50045e-08
8.61929e-09
1.0372e-06
1.39375e-08
8.12294e-09
1.29841e-08
7.7905e-09
1.32762e-06
4.9312e-09
2.71829e-09
1.33539e-06
1.30092e-08
7.12096e-09
1.34286e-06
1.72165e-08
9.55359e-09
1.34847e-06
1.89014e-08
1.05783e-08
1.35197e-06
1.95058e-08
1.08759e-08
1.35374e-06
1.91231e-08
1.05814e-08
1.8114e-08
9.89305e-09
1.53312e-06
3.64943e-09
2.36597e-09
1.54218e-06
9.63414e-09
6.23863e-09
1.55327e-06
1.36923e-08
8.87303e-09
1.56445e-06
1.59379e-08
1.03467e-08
1.57507e-06
1.69142e-08
1.0899e-08
1.5847e-06
1.69498e-08
1.07537e-08
1.63842e-08
1.01423e-08
1.68027e-06
1.89102e-09
1.89091e-09
1.68934e-06
5.09926e-09
5.09894e-09
1.7018e-06
7.46411e-09
7.46351e-09
1.71578e-06
8.94584e-09
8.94486e-09
1.73022e-06
9.69266e-09
9.69107e-09
1.74439e-06
9.86068e-09
9.85811e-09
9.65224e-09
9.64825e-09
1.7569e-06
-3.63534e-14
1.61312e-09
1.76589e-06
-6.35108e-14
4.38383e-09
1.77878e-06
-9.33973e-14
6.53128e-09
1.79389e-06
-1.37731e-13
7.95032e-09
1.81003e-06
-1.92819e-13
8.75469e-09
1.82639e-06
-2.54041e-13
9.08447e-09
-3.62555e-13
9.07083e-09
1.7569e-06
-1.89091e-09
1.61322e-09
1.76589e-06
-5.09895e-09
4.3841e-09
1.77878e-06
-7.46353e-09
6.53179e-09
1.79389e-06
-8.94489e-09
7.95119e-09
1.81002e-06
-9.6911e-09
8.75609e-09
1.82638e-06
-9.85815e-09
9.08662e-09
-9.6483e-09
9.07399e-09
1.68027e-06
-3.64911e-09
1.89102e-09
1.68934e-06
-9.63327e-09
5.09926e-09
1.7018e-06
-1.36907e-08
7.4641e-09
1.71578e-06
-1.5935e-08
8.94584e-09
1.73022e-06
-1.69094e-08
9.69266e-09
1.74439e-06
-1.69423e-08
9.86068e-09
-1.63727e-08
9.65224e-09
1.53312e-06
-4.93096e-09
2.36585e-09
1.54218e-06
-1.30086e-08
6.23832e-09
1.55328e-06
-1.72151e-08
8.87246e-09
1.56445e-06
-1.88983e-08
1.03457e-08
1.57508e-06
-1.95002e-08
1.08976e-08
1.58472e-06
-1.91146e-08
1.07515e-08
-1.81006e-08
1.01386e-08
1.32763e-06
-5.56887e-09
2.71802e-09
1.33539e-06
-1.39002e-08
7.12022e-09
1.34287e-06
-1.62615e-08
9.55224e-09
1.34848e-06
-1.59082e-08
1.05759e-08
1.35198e-06
-1.50012e-08
1.08714e-08
1.35377e-06
-1.39325e-08
1.0574e-08
-1.29765e-08
9.88079e-09
1.07432e-06
1.06464e-09
1.06824e-06
5.58591e-09
1.06138e-06
8.46274e-09
1.05339e-06
9.03762e-09
1.04511e-06
8.61381e-09
1.03723e-06
8.11313e-09
7.77338e-09
1.16914e-06
4.90657e-09
1.35024e-13
1.16312e-06
1.16086e-08
6.10386e-13
1.15731e-06
1.42757e-08
1.33258e-12
1.15201e-06
1.43344e-08
2.32752e-12
1.1469e-06
1.37328e-08
3.92648e-12
1.14204e-06
1.29743e-08
6.7259e-12
1.21088e-08
1.1617e-11
1.41518e-06
4.19294e-09
2.31757e-13
1.42279e-06
1.11161e-08
6.54227e-13
1.43152e-06
1.5099e-08
1.12605e-12
1.4398e-06
1.66307e-08
2.01096e-12
1.44712e-06
1.7279e-08
3.62557e-12
1.45316e-06
1.75168e-08
6.21528e-12
1.71648e-08
1.01833e-11
1.61424e-06
3.09292e-09
1.68099e-13
1.62332e-06
8.27423e-09
4.07982e-13
1.63533e-06
1.19576e-08
7.13691e-13
1.64819e-06
1.41154e-08
1.24266e-12
1.66117e-06
1.52023e-08
2.15608e-12
1.67385e-06
1.55866e-08
3.4791e-12
1.5436e-08
5.67463e-12
1.7569e-06
1.61322e-09
3.51567e-14
1.76589e-06
4.3841e-09
5.37045e-14
1.77878e-06
6.5318e-09
7.51449e-14
1.79389e-06
7.9512e-09
1.1146e-13
1.81002e-06
8.75609e-09
1.58151e-13
1.82638e-06
9.08662e-09
2.101e-13
9.07398e-09
3.08184e-13
1.83127e-06
1.81863e-14
-2.01136e-14
1.84004e-06
5.56605e-14
-6.60476e-14
1.85311e-06
1.09438e-13
-1.27628e-13
1.86901e-06
1.8686e-13
-2.12121e-13
1.88652e-06
3.0073e-13
-3.34118e-13
1.90469e-06
4.64664e-13
-5.07788e-13
6.92987e-13
-7.47789e-13
1.83127e-06
-1.61312e-09
1.56421e-14
1.84004e-06
-4.38384e-09
5.09474e-14
1.85311e-06
-6.5313e-09
1.07085e-13
1.86901e-06
-7.95035e-09
1.87261e-13
1.88652e-06
-8.75473e-09
3.05328e-13
1.90469e-06
-9.08451e-09
4.75198e-13
-9.07089e-09
7.11217e-13
1.7569e-06
-3.09277e-09
-3.90506e-14
1.76589e-06
-8.27383e-09
-6.86103e-14
1.77878e-06
-1.19568e-08
-9.66603e-14
1.79389e-06
-1.41141e-08
-1.37587e-13
1.81003e-06
-1.51998e-08
-1.89049e-13
1.82639e-06
-1.55826e-08
-2.45935e-13
-1.54302e-08
-3.49318e-13
1.61424e-06
-4.19281e-09
-1.72131e-13
1.62332e-06
-1.11158e-08
-4.23342e-13
1.63533e-06
-1.50985e-08
-7.36049e-13
1.6482e-06
-1.66297e-08
-1.27077e-12
1.66117e-06
-1.72767e-08
-2.19045e-12
1.67386e-06
-1.75128e-08
-3.51986e-12
-1.71584e-08
-5.72159e-12
1.41518e-06
-4.90653e-09
-2.34841e-13
1.42279e-06
-1.16084e-08
-6.70529e-13
1.43152e-06
-1.42755e-08
-1.1502e-12
1.4398e-06
-1.4334e-08
-2.04204e-12
1.44713e-06
-1.37314e-08
-3.66504e-12
1.45317e-06
-1.29715e-08
-6.26413e-12
-1.21045e-08
-1.02413e-11
1.16914e-06
-1.32145e-13
1.16312e-06
-6.14934e-13
1.15731e-06
-1.35764e-12
1.15202e-06
-2.36096e-12
1.1469e-06
-3.96898e-12
1.14205e-06
-6.77782e-12
-1.16783e-11
1.16914e-06
4.90653e-09
-1.06464e-09
1.16312e-06
1.16084e-08
-5.58591e-09
1.15731e-06
1.42755e-08
-8.46276e-09
1.15202e-06
1.4334e-08
-9.03765e-09
1.1469e-06
1.37314e-08
-8.61385e-09
1.14205e-06
1.29715e-08
-8.11318e-09
1.21045e-08
-7.77345e-09
1.41518e-06
4.19282e-09
-2.71803e-09
1.42279e-06
1.11158e-08
-7.12024e-09
1.43152e-06
1.50985e-08
-9.55227e-09
1.4398e-06
1.66297e-08
-1.05759e-08
1.44713e-06
1.72767e-08
-1.08715e-08
1.45317e-06
1.75128e-08
-1.0574e-08
1.71584e-08
-9.88085e-09
1.61424e-06
3.09278e-09
-2.36585e-09
1.62332e-06
8.27383e-09
-6.23834e-09
1.63533e-06
1.19568e-08
-8.87249e-09
1.6482e-06
1.4114e-08
-1.03457e-08
1.66117e-06
1.51997e-08
-1.08976e-08
1.67386e-06
1.55826e-08
-1.07516e-08
1.54301e-08
-1.01387e-08
1.7569e-06
1.61312e-09
-1.89102e-09
1.76589e-06
4.38383e-09
-5.09927e-09
1.77878e-06
6.53129e-09
-7.46412e-09
1.79389e-06
7.95033e-09
-8.94587e-09
1.81003e-06
8.75469e-09
-9.69269e-09
1.82639e-06
9.08446e-09
-9.86072e-09
9.07082e-09
-9.65229e-09
1.83127e-06
-1.817e-14
-1.61322e-09
1.84004e-06
-6.15524e-14
-4.38411e-09
1.85311e-06
-1.22401e-13
-6.53181e-09
1.86901e-06
-2.09208e-13
-7.95122e-09
1.88652e-06
-3.35426e-13
-8.75612e-09
1.90469e-06
-5.15914e-13
-9.08666e-09
-7.65954e-13
-9.07403e-09
1.83127e-06
-1.61322e-09
-1.61313e-09
1.84004e-06
-4.38411e-09
-4.38384e-09
1.85311e-06
-6.53181e-09
-6.5313e-09
1.86901e-06
-7.95122e-09
-7.95035e-09
1.88652e-06
-8.75613e-09
-8.75472e-09
1.90469e-06
-9.08666e-09
-9.08449e-09
-9.07405e-09
1.7569e-06
-3.09292e-09
-1.89091e-09
1.76589e-06
-8.27423e-09
-5.09895e-09
1.77878e-06
-1.19576e-08
-7.46353e-09
1.79389e-06
-1.41155e-08
-8.94488e-09
1.81002e-06
-1.52023e-08
-9.69109e-09
1.82638e-06
-1.55866e-08
-9.85813e-09
-1.5436e-08
1.61424e-06
-4.19293e-09
-2.36598e-09
1.62332e-06
-1.11161e-08
-6.23865e-09
1.63533e-06
-1.5099e-08
-8.87304e-09
1.64819e-06
-1.66307e-08
-1.03467e-08
1.66117e-06
-1.7279e-08
-1.08991e-08
1.67385e-06
-1.75168e-08
-1.07538e-08
-1.71648e-08
1.41518e-06
-4.90657e-09
-2.71829e-09
1.42279e-06
-1.16086e-08
-7.12098e-09
1.43152e-06
-1.42757e-08
-9.55361e-09
1.4398e-06
-1.43344e-08
-1.05784e-08
1.44712e-06
-1.37328e-08
-1.08759e-08
1.45316e-06
-1.29743e-08
-1.05815e-08
-1.21088e-08
1.16914e-06
-1.06492e-09
1.16312e-06
-5.58688e-09
1.15731e-06
-8.46458e-09
1.15201e-06
-9.04071e-09
1.1469e-06
-8.61933e-09
1.14204e-06
-8.12299e-09
1.07432e-06
5.56887e-09
-2.85255e-09
1.06824e-06
1.39002e-08
-1.34082e-08
1.06138e-06
1.62615e-08
-1.78662e-08
1.05339e-06
1.59082e-08
-1.69532e-08
1.04511e-06
1.50012e-08
-1.53362e-08
1.03723e-06
1.39324e-08
-1.41626e-08
1.29765e-08
-1.33663e-08
1.32763e-06
4.93096e-09
-5.28129e-09
1.33539e-06
1.30086e-08
-1.39984e-08
1.34287e-06
1.72151e-08
-1.79772e-08
1.34848e-06
1.88983e-08
-1.91777e-08
1.35198e-06
1.95002e-08
-1.88743e-08
1.35377e-06
1.91145e-08
-1.75424e-08
1.81006e-08
-1.56791e-08
1.53312e-06
3.64911e-09
-4.57727e-09
1.54218e-06
9.63327e-09
-1.19169e-08
1.55328e-06
1.36907e-08
-1.64464e-08
1.56445e-06
1.5935e-08
-1.85596e-08
1.57508e-06
1.69094e-08
-1.89289e-08
1.58472e-06
1.69422e-08
-1.82201e-08
1.63726e-08
-1.67128e-08
1.68027e-06
1.89091e-09
-3.64943e-09
1.68934e-06
5.09894e-09
-9.63415e-09
1.7018e-06
7.46352e-09
-1.36923e-08
1.71578e-06
8.94487e-09
-1.59379e-08
1.73022e-06
9.69107e-09
-1.69142e-08
1.74439e-06
9.8581e-09
-1.69498e-08
9.64823e-09
-1.63842e-08
1.7569e-06
3.63964e-14
-3.09292e-09
1.76589e-06
5.91666e-14
-8.27423e-09
1.77878e-06
8.32821e-14
-1.19576e-08
1.79389e-06
1.20035e-13
-1.41155e-08
1.81002e-06
1.64329e-13
-1.52023e-08
1.82638e-06
2.09814e-13
-1.55866e-08
-1.5436e-08
1.7569e-06
-1.89102e-09
-3.09278e-09
1.76589e-06
-5.09927e-09
-8.27383e-09
1.77878e-06
-7.46412e-09
-1.19568e-08
1.79389e-06
-8.94585e-09
-1.41141e-08
1.81003e-06
-9.69268e-09
-1.51997e-08
-9.86072e-09
-1.55826e-08
1.68027e-06
-3.64943e-09
-3.64911e-09
1.68934e-06
-9.63414e-09
-9.63327e-09
1.7018e-06
-1.36923e-08
-1.36907e-08
1.71578e-06
-1.59379e-08
-1.5935e-08
1.73022e-06
-1.69142e-08
-1.69094e-08
-1.69498e-08
-1.69423e-08
1.53312e-06
-4.93119e-09
-4.57703e-09
1.54218e-06
-1.30092e-08
-1.19162e-08
1.55327e-06
-1.72165e-08
-1.64452e-08
1.56445e-06
-1.89014e-08
-1.85576e-08
1.57507e-06
-1.95058e-08
-1.89256e-08
-1.91231e-08
-1.8215e-08
1.32762e-06
-5.56888e-09
-5.28119e-09
1.33539e-06
-1.39003e-08
-1.39982e-08
1.34286e-06
-1.62621e-08
-1.7977e-08
1.34847e-06
-1.591e-08
-1.91774e-08
1.35197e-06
-1.50045e-08
-1.88737e-08
-1.39375e-08
-1.7541e-08
1.07432e-06
-2.85253e-09
1.06824e-06
-1.34081e-08
1.06138e-06
-1.78663e-08
1.05338e-06
-1.69534e-08
1.04509e-06
-1.53369e-08
-1.41642e-08
8.90375e-07
6.3323e-09
-3.58758e-09
8.82487e-07
1.71256e-08
-2.26458e-08
8.70361e-07
1.86353e-08
-2.43757e-08
8.55116e-07
1.71461e-08
-1.88543e-08
8.39989e-07
1.5359e-08
-1.55684e-08
8.25546e-07
1.37886e-08
-1.35084e-08
1.23409e-08
-1.19488e-08
1.1589e-06
6.10237e-09
-7.03388e-09
1.1657e-06
1.61821e-08
-1.98498e-08
1.16845e-06
2.07048e-08
-2.27966e-08
1.16662e-06
2.21021e-08
-2.23021e-08
1.16222e-06
2.15023e-08
-2.06211e-08
1.15655e-06
1.97657e-08
-1.7855e-08
1.74187e-08
-1.46998e-08
1.37712e-06
4.57703e-09
-6.10264e-09
1.38565e-06
1.19162e-08
-1.6183e-08
1.39417e-06
1.64452e-08
-2.07069e-08
1.40126e-06
1.85576e-08
-2.21054e-08
1.40642e-06
1.89256e-08
-2.15073e-08
1.40952e-06
1.8215e-08
-1.97728e-08
1.67043e-08
-1.74304e-08
1.53312e-06
2.36597e-09
-4.93119e-09
1.54218e-06
6.23864e-09
-1.30092e-08
1.55327e-06
8.87304e-09
-1.72165e-08
1.56445e-06
1.03467e-08
-1.89014e-08
1.57507e-06
1.0899e-08
-1.95059e-08
1.5847e-06
1.07538e-08
-1.91231e-08
1.01423e-08
-1.8114e-08
1.61424e-06
1.6904e-13
-4.19293e-09
1.62332e-06
4.13731e-13
-1.11161e-08
1.63533e-06
7.24558e-13
-1.5099e-08
1.64819e-06
1.2571e-12
-1.66307e-08
1.66117e-06
2.17144e-12
-1.7279e-08
1.67385e-06
3.49147e-12
-1.75168e-08
-1.71648e-08
1.61424e-06
-2.36585e-09
-4.19281e-09
1.62332e-06
-6.23833e-09
-1.11158e-08
1.63533e-06
-8.87247e-09
-1.50985e-08
1.6482e-06
-1.03457e-08
-1.66297e-08
1.66117e-06
-1.08976e-08
-1.72767e-08
-1.07515e-08
-1.75128e-08
1.53312e-06
-4.57727e-09
-4.93096e-09
1.54218e-06
-1.19169e-08
-1.30086e-08
1.55328e-06
-1.64464e-08
-1.72151e-08
1.56445e-06
-1.85596e-08
-1.88983e-08
1.57508e-06
-1.89288e-08
-1.95002e-08
-1.82201e-08
-1.91145e-08
1.37712e-06
-6.10264e-09
-6.10237e-09
1.38565e-06
-1.6183e-08
-1.61821e-08
1.39417e-06
-2.07068e-08
-2.07048e-08
1.40126e-06
-2.21054e-08
-2.21021e-08
1.40642e-06
-2.15072e-08
-2.15023e-08
-1.97728e-08
-1.97657e-08
1.1589e-06
-6.33238e-09
-7.03372e-09
1.1657e-06
-1.7126e-08
-1.98492e-08
1.16844e-06
-1.86364e-08
-2.27956e-08
1.16661e-06
-1.71481e-08
-2.23003e-08
1.16221e-06
-1.53619e-08
-2.06181e-08
-1.37926e-08
-1.78494e-08
8.90375e-07
-3.58746e-09
8.82486e-07
-2.26452e-08
8.70358e-07
-2.43749e-08
8.55109e-07
-1.88529e-08
8.39976e-07
-1.55657e-08
-1.35039e-08
6.3138e-07
7.40284e-09
-1.09686e-09
6.14564e-07
2.07001e-08
-2.65297e-08
5.86446e-07
1.87288e-08
-1.49866e-08
5.61728e-07
1.58463e-08
-9.98236e-09
5.39622e-07
1.37483e-08
-7.21081e-09
5.20645e-07
1.12886e-08
-5.81954e-09
8.70859e-09
-4.71732e-09
9.23617e-07
7.03372e-09
-7.40292e-09
9.25318e-07
1.98492e-08
-2.07005e-08
9.17184e-07
2.27956e-08
-1.87295e-08
9.04276e-07
2.23003e-08
-1.58476e-08
8.90535e-07
2.06181e-08
-1.37502e-08
8.77411e-07
1.78494e-08
-1.12923e-08
1.46906e-08
-8.71448e-09
1.1589e-06
5.28119e-09
-6.33238e-09
1.1657e-06
1.39982e-08
-1.7126e-08
1.16844e-06
1.7977e-08
-1.86365e-08
1.16661e-06
1.91774e-08
-1.71481e-08
1.16221e-06
1.88737e-08
-1.53619e-08
1.15654e-06
1.7541e-08
-1.37927e-08
1.56774e-08
-1.23475e-08
1.32762e-06
2.71829e-09
-5.56888e-09
1.33539e-06
7.12097e-09
-1.39003e-08
1.34286e-06
9.5536e-09
-1.62621e-08
1.34847e-06
1.05784e-08
-1.591e-08
1.35197e-06
1.08759e-08
-1.50045e-08
1.35374e-06
1.05814e-08
-1.39375e-08
9.89307e-09
-1.29841e-08
1.41518e-06
2.32288e-13
-4.90657e-09
1.42279e-06
6.5752e-13
-1.16086e-08
1.43152e-06
1.13567e-12
-1.42757e-08
1.4398e-06
2.02722e-12
-1.43344e-08
1.44712e-06
3.64687e-12
-1.37328e-08
1.45316e-06
6.23889e-12
-1.29743e-08
-1.21088e-08
1.41518e-06
-2.71803e-09
-4.90652e-09
1.42279e-06
-7.12023e-09
-1.16084e-08
1.43152e-06
-9.55226e-09
-1.42755e-08
1.4398e-06
-1.05759e-08
-1.4334e-08
1.44713e-06
-1.08714e-08
-1.37314e-08
-1.0574e-08
-1.29715e-08
1.32763e-06
-5.28129e-09
-5.56887e-09
1.33539e-06
-1.39984e-08
-1.39002e-08
1.34287e-06
-1.79772e-08
-1.62615e-08
1.34848e-06
-1.91777e-08
-1.59082e-08
1.35198e-06
-1.88743e-08
-1.50012e-08
-1.75423e-08
-1.39324e-08
1.1589e-06
-7.03388e-09
-6.3323e-09
1.1657e-06
-1.98498e-08
-1.71256e-08
1.16845e-06
-2.27966e-08
-1.86353e-08
1.16662e-06
-2.23021e-08
-1.71461e-08
1.16222e-06
-2.06211e-08
-1.5359e-08
-1.7855e-08
-1.37886e-08
9.23616e-07
-7.40292e-09
-7.40284e-09
9.25318e-07
-2.07005e-08
-2.07001e-08
9.17184e-07
-1.87295e-08
-1.87288e-08
9.04276e-07
-1.58476e-08
-1.58462e-08
8.90535e-07
-1.37502e-08
-1.37483e-08
-1.12923e-08
-1.12886e-08
6.3138e-07
-1.09678e-09
6.14564e-07
-2.65293e-08
5.86445e-07
-1.49859e-08
5.61726e-07
-9.9812e-09
5.39618e-07
-7.20841e-09
-5.81581e-09
3.3225e-07
1.09678e-09
2.79191e-07
2.65293e-08
2.49218e-07
1.49859e-08
2.29254e-07
9.98121e-09
2.14835e-07
7.20842e-09
2.032e-07
5.81582e-09
4.71012e-09
6.3138e-07
3.58746e-09
6.14564e-07
2.26452e-08
5.86445e-07
2.43749e-08
5.61726e-07
1.88529e-08
5.39618e-07
1.55657e-08
5.20638e-07
1.35039e-08
1.19411e-08
8.90375e-07
2.85253e-09
8.82486e-07
1.34081e-08
8.70358e-07
1.78663e-08
8.55109e-07
1.69533e-08
8.39976e-07
1.53368e-08
8.25523e-07
1.41642e-08
1.33694e-08
1.07432e-06
1.06491e-09
1.06824e-06
5.58687e-09
1.06138e-06
8.46455e-09
1.05338e-06
9.04068e-09
1.04509e-06
8.6193e-09
1.0372e-06
8.12296e-09
7.79051e-09
1.16914e-06
1.33822e-13
1.16312e-06
6.07202e-13
1.15731e-06
1.32705e-12
1.15201e-06
2.32869e-12
1.1469e-06
3.93622e-12
1.14204e-06
6.74203e-12
1.16914e-06
-1.06464e-09
1.16312e-06
-5.58591e-09
1.15731e-06
-8.46276e-09
1.15202e-06
-9.03765e-09
1.1469e-06
-8.61383e-09
-8.11316e-09
1.07432e-06
-2.85255e-09
1.06824e-06
-1.34082e-08
1.06138e-06
-1.78662e-08
1.05339e-06
-1.69532e-08
1.04511e-06
-1.53362e-08
-1.41626e-08
8.90375e-07
-3.58759e-09
8.82487e-07
-2.26458e-08
8.70361e-07
-2.43757e-08
8.55116e-07
-1.88542e-08
8.39989e-07
-1.55684e-08
-1.35084e-08
6.3138e-07
-1.09686e-09
6.14564e-07
-2.65297e-08
5.86446e-07
-1.49866e-08
5.61728e-07
-9.98236e-09
5.39622e-07
-7.21081e-09
-5.81953e-09
3.3225e-07
2.79191e-07
2.49218e-07
2.29254e-07
2.14835e-07
)
;

boundaryField
{
    inlet
    {
        type            calculated;
        value           nonuniform List<scalar> 
100
(
-3.34443e-07
-6.41274e-07
-8.95972e-07
-1.0781e-06
-1.17299e-06
-1.17299e-06
-1.0781e-06
-8.95972e-07
-6.41274e-07
-3.34443e-07
-6.41274e-07
-9.22878e-07
-1.15692e-06
-1.32442e-06
-1.41174e-06
-1.41174e-06
-1.32442e-06
-1.15692e-06
-9.22878e-07
-6.41274e-07
-8.95972e-07
-1.15692e-06
-1.37407e-06
-1.52963e-06
-1.61077e-06
-1.61077e-06
-1.52963e-06
-1.37407e-06
-1.15692e-06
-8.95972e-07
-1.0781e-06
-1.32442e-06
-1.52963e-06
-1.67675e-06
-1.75353e-06
-1.75353e-06
-1.67675e-06
-1.52963e-06
-1.32442e-06
-1.0781e-06
-1.17299e-06
-1.41174e-06
-1.61077e-06
-1.75353e-06
-1.82805e-06
-1.82805e-06
-1.75353e-06
-1.61077e-06
-1.41174e-06
-1.17299e-06
-1.17299e-06
-1.41174e-06
-1.61077e-06
-1.75353e-06
-1.82805e-06
-1.82805e-06
-1.75353e-06
-1.61077e-06
-1.41174e-06
-1.17299e-06
-1.0781e-06
-1.32442e-06
-1.52963e-06
-1.67675e-06
-1.75353e-06
-1.75353e-06
-1.67675e-06
-1.52963e-06
-1.32442e-06
-1.0781e-06
-8.95972e-07
-1.15692e-06
-1.37407e-06
-1.52963e-06
-1.61077e-06
-1.61077e-06
-1.52963e-06
-1.37407e-06
-1.15692e-06
-8.95972e-07
-6.41274e-07
-9.22878e-07
-1.15692e-06
-1.32442e-06
-1.41174e-06
-1.41174e-06
-1.32442e-06
-1.15692e-06
-9.22878e-07
-6.41274e-07
-3.34443e-07
-6.41274e-07
-8.95972e-07
-1.0781e-06
-1.17299e-06
-1.17299e-06
-1.0781e-06
-8.95972e-07
-6.41274e-07
-3.34443e-07
)
;
    }
    ami1
    {
        type            cyclicAMI;
        value           nonuniform List<scalar> 0();
    }
    walls
    {
        type            calculated;
        value           uniform 0;
    }
    ami2
    {
        type            cyclicAMI;
        value           nonuniform List<scalar> 0();
    }
    outlet
    {
        type            calculated;
        value           nonuniform List<scalar> 0();
    }
    procBoundary4to3
    {
        type            processor;
        value           nonuniform List<scalar> 
109
(
1.93772e-07
5.04705e-07
8.11788e-07
1.02984e-06
1.13773e-06
1.13771e-06
1.02979e-06
8.11748e-07
5.04693e-07
1.93773e-07
5.04692e-07
8.65444e-07
1.1505e-06
1.35444e-06
1.45801e-06
1.45798e-06
1.35439e-06
1.15047e-06
8.65444e-07
5.04705e-07
8.11748e-07
1.15047e-06
1.41095e-06
1.59302e-06
1.68573e-06
1.68571e-06
1.59299e-06
1.41095e-06
1.1505e-06
8.11788e-07
1.02979e-06
1.35439e-06
1.59299e-06
1.75785e-06
1.8424e-06
1.84239e-06
1.75785e-06
1.59302e-06
1.35444e-06
1.02984e-06
1.13771e-06
1.45798e-06
1.68571e-06
1.84239e-06
1.92283e-06
1.92283e-06
1.8424e-06
1.68573e-06
1.45801e-06
1.13773e-06
1.13773e-06
1.45801e-06
1.68573e-06
1.8424e-06
1.92283e-06
1.92283e-06
-9.07086e-09
1.84239e-06
-9.64827e-09
1.68571e-06
-1.01423e-08
1.45798e-06
-9.89309e-09
1.13771e-06
-7.79055e-09
1.02984e-06
1.35444e-06
1.59302e-06
1.75785e-06
1.84239e-06
2.97335e-13
1.82639e-06
1.74439e-06
1.5847e-06
1.35374e-06
1.0372e-06
8.11788e-07
1.1505e-06
1.41095e-06
1.59299e-06
1.68571e-06
5.68067e-12
1.67386e-06
1.58472e-06
1.40952e-06
1.15654e-06
8.25523e-07
5.04704e-07
8.65444e-07
1.15047e-06
1.35439e-06
1.45798e-06
1.02065e-11
1.45317e-06
1.35377e-06
1.15655e-06
8.77411e-07
5.20638e-07
1.93772e-07
5.04692e-07
8.11748e-07
1.02979e-06
1.13771e-06
1.16396e-11
1.14205e-06
1.03723e-06
8.25546e-07
5.20645e-07
2.032e-07
)
;
    }
}


// ************************************************************************* //
