/*--------------------------------*- C++ -*----------------------------------*\
| =========                 |                                                 |
| \\      /  F ield         | OpenFOAM: The Open Source CFD Toolbox           |
|  \\    /   O peration     | Version:  2212                                  |
|   \\  /    A nd           | Website:  www.openfoam.com                      |
|    \\/     M anipulation  |                                                 |
\*---------------------------------------------------------------------------*/
FoamFile
{
    version     2.0;
    format      ascii;
    arch        "LSB;label=32;scalar=64";
    class       volVectorField;
    location    "1";
    object      U;
}
// * * * * * * * * * * * * * * * * * * * * * * * * * * * * * * * * * * * * * //

dimensions      [0 1 -1 0 0 0 0];

internalField   nonuniform List<vector> 
680
(
(0.0956456 -0.00836005 -0.00836005)
(0.0904939 0.00152206 0.00152198)
(0.0790684 0.00242977 0.00242962)
(0.0713014 0.00148786 0.00148757)
(0.0661799 0.000830678 0.000830163)
(0.0623235 0.000563896 0.00056307)
(0.0592222 0.000426886 0.000425189)
(0.0999088 0.00129701 0.000712552)
(0.0969669 0.00365592 0.00274721)
(0.0935347 0.00264028 0.00211806)
(0.0895896 0.00182051 0.00162039)
(0.0858327 0.00152893 0.00139032)
(0.0825911 0.00135147 0.00116081)
(0.0798669 0.00117991 0.000896497)
(0.099413 0.000345229 0.000270227)
(0.0988664 0.00201902 0.00187486)
(0.0979217 0.00257307 0.0021889)
(0.0963664 0.00237976 0.00190818)
(0.0946344 0.00211392 0.00162639)
(0.092974 0.00192648 0.00141833)
(0.0913671 0.00180085 0.00127077)
(0.0995405 0.000245014 0.000321898)
(0.0992576 0.00105547 0.00154093)
(0.0988491 0.00150203 0.00211443)
(0.0981251 0.00157888 0.00209162)
(0.0973375 0.00151383 0.00188621)
(0.0965861 0.00144459 0.00166608)
(0.0958673 0.00140689 0.00149847)
(0.0993801 3.3748e-05 5.89211e-05)
(0.0992677 0.000274242 0.0012)
(0.0989804 0.000432059 0.00188847)
(0.0984747 0.000482907 0.00200648)
(0.0979956 0.000477869 0.00191471)
(0.0975709 0.00046379 0.00173481)
(0.0971808 0.000449779 0.00154746)
(0.0993802 -3.37804e-05 5.89711e-05)
(0.0992677 -0.000274408 0.00120004)
(0.0989804 -0.000432407 0.00188849)
(0.0984745 -0.000483509 0.00200653)
(0.0979952 -0.000478895 0.00191484)
(0.09757 -0.000465568 0.00173506)
(0.0971792 -0.000452872 0.00154784)
(0.0995405 -0.000245027 0.0003219)
(0.0992576 -0.00105553 0.00154094)
(0.0988488 -0.00150216 0.00211452)
(0.0981246 -0.00157912 0.00209177)
(0.0973365 -0.00151431 0.00188643)
(0.0965841 -0.00144551 0.00166642)
(0.0958637 -0.00140847 0.00149891)
(0.099413 -0.000345213 0.000270233)
(0.0988664 -0.00201894 0.00187492)
(0.0979215 -0.00257292 0.00218905)
(0.0963659 -0.00237951 0.00190846)
(0.0946334 -0.00211354 0.00162678)
(0.0929721 -0.00192585 0.0014189)
(0.0913637 -0.00179992 0.0012717)
(0.0999088 -0.00129699 0.000712564)
(0.0969669 -0.00365579 0.00274727)
(0.0935346 -0.00264007 0.00211819)
(0.0895893 -0.00182015 0.00162066)
(0.0858323 -0.00152822 0.0013907)
(0.0825903 -0.00135037 0.0011615)
(0.0798655 -0.00117788 0.000897673)
(0.0956456 0.00836005 -0.00836005)
(0.0904939 -0.00152198 0.00152205)
(0.0790684 -0.00242963 0.00242977)
(0.0713014 -0.00148757 0.00148785)
(0.06618 -0.000830169 0.000830673)
(0.0623235 -0.000563077 0.000563889)
(0.0592222 -0.000425199 0.000426876)
(0.0999088 0.000712564 0.00129699)
(0.0969669 0.00274728 0.00365579)
(0.0935346 0.0021182 0.00264007)
(0.0895893 0.00162066 0.00182014)
(0.0858323 0.0013907 0.00152822)
(0.0825903 0.00116151 0.00135037)
(0.0798655 0.000897679 0.00117787)
(0.100226 0.000720821 0.000720793)
(0.0999601 0.00198275 0.00198264)
(0.0997824 0.00245192 0.00245166)
(0.0987884 0.00241976 0.0024193)
(0.097276 0.00220108 0.00220034)
(0.0957755 0.0018121 0.00181081)
(0.0943941 0.00138341 0.00138133)
(0.10014 0.000775012 0.000869231)
(0.100454 0.00196237 0.00196348)
(0.100911 0.00242745 0.00233433)
(0.100979 0.00252649 0.00244099)
(0.100695 0.00242616 0.00233643)
(0.100225 0.00219731 0.00211212)
(0.0997107 0.00191631 0.00182276)
(0.100093 0.000445897 0.000763197)
(0.100504 0.00119438 0.00174901)
(0.101105 0.0015866 0.00212952)
(0.101635 0.00174007 0.0022346)
(0.10198 0.00178168 0.00228704)
(0.102172 0.00172808 0.00223603)
(0.102254 0.00160653 0.00211621)
(0.100087 0.000144349 0.00070701)
(0.100477 0.000390379 0.00161777)
(0.101066 0.000540907 0.00203463)
(0.101694 0.000609805 0.00211764)
(0.102269 0.000635394 0.00215034)
(0.102742 0.000625746 0.00218022)
(0.103124 0.000593041 0.00213489)
(0.100087 -0.000144403 0.000707017)
(0.100477 -0.00039054 0.00161778)
(0.101065 -0.000541188 0.00203464)
(0.101694 -0.000610293 0.00211771)
(0.102268 -0.000636275 0.00215058)
(0.102741 -0.000627268 0.00218067)
(0.103122 -0.000595528 0.00213558)
(0.100093 -0.000445903 0.000763209)
(0.100504 -0.0011944 0.00174904)
(0.101105 -0.00158665 0.00212963)
(0.101634 -0.00174019 0.00223499)
(0.101979 -0.00178189 0.00228779)
(0.102171 -0.0017284 0.0022371)
(0.102251 -0.00160711 0.00211783)
(0.10014 -0.000774982 0.000869267)
(0.100454 -0.00196228 0.00196363)
(0.100911 -0.00242729 0.00233466)
(0.100978 -0.00252617 0.00244155)
(0.100694 -0.00242561 0.00233725)
(0.100224 -0.00219637 0.00211324)
(0.0997088 -0.00191482 0.00182451)
(0.100226 -0.000720793 0.000720821)
(0.0999601 -0.00198264 0.00198275)
(0.0997824 -0.00245166 0.00245192)
(0.0987884 -0.0024193 0.00241976)
(0.097276 -0.00220035 0.00220107)
(0.0957755 -0.00181082 0.00181209)
(0.0943941 -0.00138134 0.0013834)
(0.0999088 -0.000712552 0.00129701)
(0.0969669 -0.00274721 0.00365592)
(0.0935347 -0.00211806 0.00264027)
(0.0895896 -0.00162039 0.0018205)
(0.0858327 -0.00139032 0.00152892)
(0.0825911 -0.00116082 0.00135147)
(0.0798669 -0.000896503 0.0011799)
(0.099413 0.000270234 0.000345213)
(0.0988664 0.00187492 0.00201894)
(0.0979215 0.00218906 0.00257292)
(0.0963659 0.00190846 0.00237951)
(0.0946334 0.00162679 0.00211354)
(0.0929721 0.0014189 0.00192585)
(0.0913637 0.00127171 0.00179991)
(0.10014 0.000869267 0.000774982)
(0.100454 0.00196363 0.00196228)
(0.100911 0.00233466 0.00242729)
(0.100978 0.00244155 0.00252616)
(0.100694 0.00233725 0.0024256)
(0.100224 0.00211324 0.00219636)
(0.0997088 0.00182451 0.00191481)
(0.10006 0.000641407 0.000641359)
(0.100502 0.00164507 0.00164493)
(0.101149 0.00221247 0.00221219)
(0.101738 0.00244009 0.00243962)
(0.102205 0.00244224 0.00244147)
(0.102502 0.00231405 0.00231285)
(0.102646 0.00209341 0.00209142)
(0.100046 0.000395697 0.00054022)
(0.10048 0.0010448 0.00138403)
(0.101154 0.00147525 0.00192284)
(0.101913 0.00170505 0.00219236)
(0.102632 0.0017798 0.00229378)
(0.103302 0.00174444 0.00227786)
(0.103895 0.00163363 0.00218509)
(0.100039 0.000131302 0.000478761)
(0.100448 0.000350412 0.00123476)
(0.101114 0.000504928 0.00174645)
(0.101909 0.000596938 0.00202679)
(0.102728 0.000638191 0.00215208)
(0.103529 0.000637626 0.00218649)
(0.104298 0.000603499 0.00215349)
(0.100039 -0.000131339 0.000478778)
(0.100448 -0.000350507 0.00123481)
(0.101114 -0.000505099 0.00174654)
(0.101909 -0.000597223 0.00202696)
(0.102728 -0.000638667 0.00215239)
(0.103528 -0.000638394 0.002187)
(0.104297 -0.000604779 0.00215427)
(0.100046 -0.000395683 0.000540263)
(0.10048 -0.00104476 0.00138415)
(0.101154 -0.00147519 0.00192308)
(0.101913 -0.00170497 0.00219278)
(0.102631 -0.00177964 0.0022945)
(0.103301 -0.00174416 0.00227902)
(0.103893 -0.00163314 0.00218691)
(0.10006 -0.000641359 0.000641407)
(0.100502 -0.00164493 0.00164507)
(0.101149 -0.00221219 0.00221246)
(0.101738 -0.00243962 0.00244009)
(0.102205 -0.00244148 0.00244224)
(0.102502 -0.00231286 0.00231405)
(0.102646 -0.00209143 0.0020934)
(0.10014 -0.000869231 0.000775012)
(0.100454 -0.00196348 0.00196237)
(0.100911 -0.00233433 0.00242745)
(0.100979 -0.002441 0.00252649)
(0.100695 -0.00233643 0.00242615)
(0.100225 -0.00211213 0.00219731)
(0.0997107 -0.00182276 0.0019163)
(0.099413 -0.000270227 0.000345229)
(0.0988664 -0.00187486 0.00201902)
(0.0979217 -0.0021889 0.00257306)
(0.0963664 -0.00190819 0.00237976)
(0.0946344 -0.0016264 0.00211392)
(0.092974 -0.00141834 0.00192647)
(0.0913671 -0.00127078 0.00180085)
(0.0995405 0.0003219 0.000245027)
(0.0992576 0.00154094 0.00105554)
(0.0988488 0.00211452 0.00150216)
(0.0981246 0.00209177 0.00157911)
(0.0973365 0.00188643 0.00151431)
(0.0965841 0.00166643 0.00144551)
(0.0958637 0.00149891 0.00140846)
(0.100093 0.00076321 0.000445903)
(0.100504 0.00174904 0.0011944)
(0.101105 0.00212964 0.00158665)
(0.101634 0.002235 0.00174019)
(0.101979 0.00228779 0.00178189)
(0.102171 0.00223711 0.00172839)
(0.102251 0.00211783 0.0016071)
(0.100046 0.000540264 0.000395683)
(0.10048 0.00138415 0.00104476)
(0.101154 0.00192308 0.00147518)
(0.101913 0.00219279 0.00170496)
(0.102631 0.0022945 0.00177963)
(0.103301 0.00227902 0.00174415)
(0.103893 0.00218691 0.00163313)
(0.100036 0.000323147 0.000323115)
(0.100429 0.000868678 0.000868591)
(0.10108 0.0012624 0.00126224)
(0.101891 0.00150438 0.00150411)
(0.102756 0.00162158 0.00162115)
(0.103616 0.00164281 0.00164214)
(0.104446 0.00160482 0.0016038)
(0.100031 0.000107069 0.000281369)
(0.100395 0.000293023 0.000768593)
(0.101024 0.00043404 0.001133)
(0.101843 0.000526166 0.0013691)
(0.102751 0.00057626 0.0015013)
(0.103688 0.000591622 0.00155408)
(0.104617 0.000582168 0.00154911)
(0.100031 -0.000107072 0.000281385)
(0.100395 -0.00029303 0.000768637)
(0.101024 -0.000434051 0.00113309)
(0.101843 -0.000526183 0.00136926)
(0.102751 -0.000576282 0.00150156)
(0.103688 -0.000591643 0.00155446)
(0.104617 -0.000582191 0.00154966)
(0.100036 -0.000323115 0.000323146)
(0.100429 -0.000868592 0.000868677)
(0.10108 -0.00126224 0.0012624)
(0.101891 -0.00150412 0.00150438)
(0.102756 -0.00162116 0.00162158)
(0.103616 -0.00164214 0.0016428)
(0.104446 -0.0016038 0.00160482)
(0.100046 -0.00054022 0.000395697)
(0.10048 -0.00138403 0.0010448)
(0.101154 -0.00192284 0.00147525)
(0.101913 -0.00219236 0.00170505)
(0.102632 -0.00229379 0.0017798)
(0.103302 -0.00227787 0.00174444)
(0.103895 -0.0021851 0.00163363)
(0.100093 -0.000763197 0.000445896)
(0.100504 -0.00174901 0.00119438)
(0.101105 -0.00212952 0.0015866)
(0.101635 -0.0022346 0.00174007)
(0.10198 -0.00228705 0.00178168)
(0.102172 -0.00223604 0.00172807)
(0.102254 -0.00211621 0.00160652)
(0.0995405 -0.000321898 0.000245013)
(0.0992576 -0.00154093 0.00105547)
(0.0988491 -0.00211443 0.00150203)
(0.0981251 -0.00209162 0.00157888)
(0.0973375 -0.00188621 0.00151382)
(0.0965861 -0.00166608 0.00144459)
(0.0958673 -0.00149848 0.00140689)
(0.0993802 5.89727e-05 3.37807e-05)
(0.0992677 0.00120004 0.000274409)
(0.0989804 0.0018885 0.000432407)
(0.0984745 0.00200653 0.000483508)
(0.0979952 0.00191484 0.000478893)
(0.09757 0.00173506 0.000465564)
(0.0971792 0.00154784 0.000452867)
(0.100087 0.000707017 0.000144403)
(0.100477 0.00161779 0.000390539)
(0.101065 0.00203464 0.000541186)
(0.101694 0.00211771 0.00061029)
(0.102268 0.00215058 0.00063627)
(0.102741 0.00218067 0.000627262)
(0.103122 0.00213559 0.000595521)
(0.100039 0.000478778 0.000131339)
(0.100448 0.00123481 0.000350506)
(0.101114 0.00174654 0.000505097)
(0.101909 0.00202696 0.00059722)
(0.102728 0.00215239 0.000638663)
(0.103528 0.002187 0.000638388)
(0.104297 0.00215427 0.000604772)
(0.100031 0.000281385 0.000107072)
(0.100395 0.000768638 0.000293029)
(0.101024 0.00113309 0.000434049)
(0.101843 0.00136926 0.00052618)
(0.102751 0.00150156 0.000576278)
(0.103688 0.00155446 0.000591637)
(0.104617 0.00154966 0.000582184)
(0.100048 7.31392e-05 7.31345e-05)
(0.100365 0.000251027 0.00025101)
(0.10096 0.000386331 0.000386299)
(0.101771 0.000477874 0.000477822)
(0.102702 0.000532071 0.000531989)
(0.10369 0.000556616 0.00055649)
(0.104691 0.000558939 0.000558751)
(0.100048 -7.31352e-05 7.31387e-05)
(0.100365 -0.000251011 0.000251026)
(0.10096 -0.000386301 0.00038633)
(0.101771 -0.000477825 0.000477873)
(0.102702 -0.000531993 0.000532071)
(0.10369 -0.000556495 0.000556617)
(0.104691 -0.000558757 0.000558941)
(0.100031 -0.000281369 0.000107068)
(0.100395 -0.000768594 0.000293022)
(0.101024 -0.00113301 0.00043404)
(0.101843 -0.00136911 0.000526166)
(0.102751 -0.00150131 0.00057626)
(0.103688 -0.00155408 0.000591622)
(0.104617 -0.00154912 0.000582169)
(0.100039 -0.000478761 0.000131302)
(0.100448 -0.00123476 0.000350411)
(0.101114 -0.00174645 0.000504927)
(0.101909 -0.0020268 0.000596937)
(0.102728 -0.00215209 0.00063819)
(0.103529 -0.0021865 0.000637626)
(0.104298 -0.0021535 0.000603498)
(0.100087 -0.00070701 0.000144348)
(0.100477 -0.00161777 0.000390378)
(0.101066 -0.00203463 0.000540905)
(0.101694 -0.00211765 0.000609803)
(0.102269 -0.00215034 0.000635392)
(0.102742 -0.00218022 0.000625744)
(0.103124 -0.00213489 0.000593039)
(0.0993801 -5.89219e-05 3.37477e-05)
(0.0992677 -0.0012 0.000274241)
(0.0989804 -0.00188847 0.000432055)
(0.0984747 -0.00200648 0.000482903)
(0.0979956 -0.00191471 0.000477865)
(0.0975709 -0.00173481 0.000463785)
(0.0971808 -0.00154746 0.000449774)
(0.0993801 5.89207e-05 -3.37477e-05)
(0.0992677 0.0012 -0.000274241)
(0.0989804 0.00188847 -0.000432058)
(0.0984747 0.00200648 -0.000482907)
(0.0979956 0.00191471 -0.00047787)
(0.0975709 0.00173481 -0.000463792)
(0.0971808 0.00154746 -0.000449783)
(0.100087 0.000707011 -0.000144349)
(0.100477 0.00161777 -0.00039038)
(0.101066 0.00203463 -0.000540908)
(0.101694 0.00211765 -0.000609807)
(0.102269 0.00215034 -0.000635397)
(0.102742 0.00218022 -0.000625751)
(0.103124 0.00213489 -0.000593047)
(0.100039 0.000478761 -0.000131302)
(0.100448 0.00123476 -0.000350412)
(0.101114 0.00174645 -0.00050493)
(0.101909 0.0020268 -0.000596941)
(0.102728 0.00215208 -0.000638195)
(0.103529 0.00218649 -0.000637631)
(0.104298 0.00215349 -0.000603505)
(0.100031 0.000281369 -0.000107069)
(0.100395 0.000768594 -0.000293024)
(0.101024 0.001133 -0.000434042)
(0.101843 0.0013691 -0.000526169)
(0.102751 0.0015013 -0.000576264)
(0.103688 0.00155408 -0.000591627)
(0.104617 0.00154911 -0.000582175)
(0.100048 7.31347e-05 -7.31395e-05)
(0.100365 0.000251011 -0.000251028)
(0.10096 0.0003863 -0.000386333)
(0.101771 0.000477822 -0.000477877)
(0.102702 0.000531989 -0.000532075)
(0.10369 0.000556489 -0.000556621)
(0.104691 0.000558748 -0.000558945)
(0.100048 -7.31389e-05 -7.3135e-05)
(0.100365 -0.000251028 -0.000251012)
(0.10096 -0.000386332 -0.000386301)
(0.101771 -0.000477876 -0.000477825)
(0.102702 -0.000532075 -0.000531992)
(0.10369 -0.000556622 -0.000556493)
(0.104691 -0.000558948 -0.000558755)
(0.100031 -0.000281385 -0.000107072)
(0.100395 -0.000768639 -0.00029303)
(0.101024 -0.00113309 -0.000434051)
(0.101843 -0.00136926 -0.000526183)
(0.102751 -0.00150156 -0.000576281)
(0.103688 -0.00155447 -0.000591641)
(0.104617 -0.00154967 -0.000582188)
(0.100039 -0.000478778 -0.000131339)
(0.100448 -0.00123481 -0.000350508)
(0.101114 -0.00174655 -0.000505099)
(0.101909 -0.00202696 -0.000597223)
(0.102728 -0.0021524 -0.000638666)
(0.103528 -0.002187 -0.000638392)
(0.104297 -0.00215428 -0.000604777)
(0.100087 -0.000707017 -0.000144404)
(0.100477 -0.00161778 -0.000390541)
(0.101065 -0.00203464 -0.000541189)
(0.101694 -0.00211771 -0.000610294)
(0.102268 -0.00215058 -0.000636275)
(0.102741 -0.00218067 -0.000627268)
(0.103122 -0.00213559 -0.000595527)
(0.0993802 -5.89714e-05 -3.37809e-05)
(0.0992677 -0.00120004 -0.00027441)
(0.0989804 -0.0018885 -0.00043241)
(0.0984745 -0.00200653 -0.000483513)
(0.0979952 -0.00191484 -0.000478898)
(0.09757 -0.00173506 -0.000465571)
(0.0971792 -0.00154784 -0.000452875)
(0.0995405 0.000321898 -0.000245013)
(0.0992576 0.00154093 -0.00105547)
(0.0988491 0.00211443 -0.00150203)
(0.0981251 0.00209162 -0.00157888)
(0.0973375 0.00188621 -0.00151383)
(0.0965861 0.00166608 -0.0014446)
(0.0958673 0.00149847 -0.0014069)
(0.100093 0.000763197 -0.000445896)
(0.100504 0.00174901 -0.00119438)
(0.101105 0.00212952 -0.0015866)
(0.101635 0.0022346 -0.00174007)
(0.10198 0.00228704 -0.00178168)
(0.102172 0.00223603 -0.00172808)
(0.102254 0.00211621 -0.00160653)
(0.100046 0.000540221 -0.000395697)
(0.10048 0.00138403 -0.0010448)
(0.101154 0.00192284 -0.00147525)
(0.101913 0.00219236 -0.00170505)
(0.102632 0.00229378 -0.0017798)
(0.103302 0.00227786 -0.00174444)
(0.103895 0.00218509 -0.00163364)
(0.100036 0.000323116 -0.000323147)
(0.100429 0.000868592 -0.000868679)
(0.10108 0.00126224 -0.0012624)
(0.101891 0.00150412 -0.00150438)
(0.102756 0.00162115 -0.00162159)
(0.103616 0.00164214 -0.00164281)
(0.104446 0.0016038 -0.00160482)
(0.100031 0.000107072 -0.000281385)
(0.100395 0.00029303 -0.000768639)
(0.101024 0.00043405 -0.00113309)
(0.101843 0.000526181 -0.00136926)
(0.102751 0.000576279 -0.00150156)
(0.103688 0.000591637 -0.00155447)
(0.104617 0.000582183 -0.00154967)
(0.100031 -0.000107069 -0.000281369)
(0.100395 -0.000293023 -0.000768594)
(0.101024 -0.000434041 -0.00113301)
(0.101843 -0.000526168 -0.0013691)
(0.102751 -0.000576263 -0.0015013)
(0.103688 -0.000591627 -0.00155408)
(0.100036 -0.000323147 -0.000323116)
(0.100429 -0.000868678 -0.000868592)
(0.10108 -0.0012624 -0.00126224)
(0.101891 -0.00150438 -0.00150412)
(0.102756 -0.00162159 -0.00162115)
(0.103616 -0.00164281 -0.00164214)
(0.100046 -0.000540263 -0.000395684)
(0.10048 -0.00138415 -0.00104476)
(0.101154 -0.00192308 -0.00147518)
(0.101913 -0.00219279 -0.00170497)
(0.102631 -0.0022945 -0.00177964)
(0.103301 -0.00227902 -0.00174415)
(0.100093 -0.000763209 -0.000445903)
(0.100504 -0.00174904 -0.0011944)
(0.101105 -0.00212963 -0.00158665)
(0.101634 -0.00223499 -0.00174019)
(0.101979 -0.00228779 -0.00178189)
(0.102171 -0.00223711 -0.0017284)
(0.0995405 -0.0003219 -0.000245027)
(0.0992576 -0.00154094 -0.00105554)
(0.0988488 -0.00211452 -0.00150217)
(0.0981246 -0.00209177 -0.00157912)
(0.0973365 -0.00188643 -0.00151431)
(0.0965841 -0.00166642 -0.00144551)
(0.099413 0.000270227 -0.000345228)
(0.0988664 0.00187486 -0.00201902)
(0.0979217 0.0021889 -0.00257307)
(0.0963664 0.00190818 -0.00237976)
(0.0946344 0.0016264 -0.00211392)
(0.092974 0.00141834 -0.00192648)
(0.0913671 0.00127077 -0.00180085)
(0.10014 0.000869231 -0.000775012)
(0.100454 0.00196348 -0.00196237)
(0.100911 0.00233433 -0.00242745)
(0.100979 0.002441 -0.00252649)
(0.100695 0.00233643 -0.00242616)
(0.100225 0.00211212 -0.00219732)
(0.0997107 0.00182276 -0.00191631)
(0.10006 0.000641359 -0.000641407)
(0.100502 0.00164493 -0.00164508)
(0.101149 0.00221219 -0.00221247)
(0.101738 0.00243962 -0.0024401)
(0.102205 0.00244147 -0.00244224)
(0.102502 0.00231285 -0.00231406)
(0.102646 0.00209142 -0.00209341)
(0.100046 0.000395683 -0.000540264)
(0.10048 0.00104476 -0.00138415)
(0.101154 0.00147518 -0.00192308)
(0.101913 0.00170497 -0.00219279)
(0.102631 0.00177964 -0.0022945)
(0.103301 0.00174415 -0.00227902)
(0.103893 0.00163313 -0.00218692)
(0.100039 0.000131339 -0.000478778)
(0.100448 0.000350507 -0.00123481)
(0.101114 0.000505098 -0.00174655)
(0.101909 0.000597222 -0.00202696)
(0.102728 0.000638665 -0.0021524)
(0.103528 0.00063839 -0.002187)
(0.104297 0.000604773 -0.00215428)
(0.100039 -0.000131302 -0.000478761)
(0.100448 -0.000350412 -0.00123476)
(0.101114 -0.000504929 -0.00174645)
(0.101909 -0.000596939 -0.0020268)
(0.102728 -0.000638193 -0.00215209)
(0.103529 -0.00063763 -0.0021865)
(0.100046 -0.000395697 -0.00054022)
(0.10048 -0.0010448 -0.00138403)
(0.101154 -0.00147525 -0.00192284)
(0.101913 -0.00170505 -0.00219236)
(0.102632 -0.0017798 -0.00229378)
(0.103302 -0.00174444 -0.00227786)
(0.10006 -0.000641407 -0.000641359)
(0.100502 -0.00164507 -0.00164493)
(0.101149 -0.00221246 -0.00221219)
(0.101738 -0.00244009 -0.00243962)
(0.102205 -0.00244224 -0.00244147)
(0.102502 -0.00231405 -0.00231285)
(0.10014 -0.000869267 -0.000774982)
(0.100454 -0.00196363 -0.00196228)
(0.100911 -0.00233466 -0.00242729)
(0.100978 -0.00244155 -0.00252617)
(0.100694 -0.00233725 -0.0024256)
(0.100224 -0.00211324 -0.00219636)
(0.099413 -0.000270233 -0.000345213)
(0.0988664 -0.00187492 -0.00201895)
(0.0979215 -0.00218906 -0.00257292)
(0.0963659 -0.00190846 -0.00237952)
(0.0946334 -0.00162679 -0.00211355)
(0.0929721 -0.0014189 -0.00192585)
(0.0999088 0.000712552 -0.00129701)
(0.0969669 0.00274721 -0.00365592)
(0.0935347 0.00211806 -0.00264027)
(0.0895896 0.00162039 -0.00182051)
(0.0858327 0.00139032 -0.00152892)
(0.0825911 0.00116081 -0.00135147)
(0.0798669 0.000896498 -0.00117991)
(0.100226 0.000720793 -0.000720821)
(0.0999601 0.00198264 -0.00198275)
(0.0997824 0.00245166 -0.00245192)
(0.0987884 0.0024193 -0.00241976)
(0.097276 0.00220035 -0.00220108)
(0.0957755 0.00181081 -0.0018121)
(0.0943941 0.00138133 -0.00138341)
(0.10014 0.000774982 -0.000869267)
(0.100454 0.00196228 -0.00196363)
(0.100911 0.00242729 -0.00233466)
(0.100978 0.00252617 -0.00244155)
(0.100694 0.00242561 -0.00233725)
(0.100224 0.00219636 -0.00211324)
(0.0997088 0.00191481 -0.00182451)
(0.100093 0.000445903 -0.00076321)
(0.100504 0.0011944 -0.00174904)
(0.101105 0.00158665 -0.00212964)
(0.101634 0.00174019 -0.002235)
(0.101979 0.00178189 -0.00228779)
(0.102171 0.0017284 -0.00223711)
(0.102251 0.0016071 -0.00211783)
(0.100087 0.000144403 -0.000707017)
(0.100477 0.00039054 -0.00161779)
(0.101065 0.000541187 -0.00203464)
(0.101694 0.000610292 -0.00211771)
(0.102268 0.000636273 -0.00215058)
(0.102741 0.000627265 -0.00218067)
(0.103122 0.000595524 -0.00213559)
(0.100087 -0.000144349 -0.00070701)
(0.100477 -0.000390379 -0.00161777)
(0.101066 -0.000540907 -0.00203463)
(0.101694 -0.000609805 -0.00211764)
(0.102269 -0.000635395 -0.00215034)
(0.102742 -0.000625748 -0.00218022)
(0.100093 -0.000445896 -0.000763197)
(0.100504 -0.00119438 -0.00174901)
(0.101105 -0.0015866 -0.00212952)
(0.101635 -0.00174007 -0.0022346)
(0.10198 -0.00178168 -0.00228704)
(0.102172 -0.00172808 -0.00223603)
(0.10014 -0.000775012 -0.000869231)
(0.100454 -0.00196237 -0.00196348)
(0.100911 -0.00242745 -0.00233433)
(0.100979 -0.00252649 -0.00244099)
(0.100695 -0.00242616 -0.00233643)
(0.100225 -0.00219731 -0.00211212)
(0.100226 -0.00072082 -0.000720792)
(0.0999601 -0.00198275 -0.00198264)
(0.0997824 -0.00245192 -0.00245166)
(0.0987884 -0.00241976 -0.0024193)
(0.097276 -0.00220107 -0.00220035)
(0.0957755 -0.00181209 -0.00181081)
(0.0999088 -0.000712564 -0.00129699)
(0.0969669 -0.00274727 -0.00365579)
(0.0935346 -0.00211819 -0.00264007)
(0.0895893 -0.00162066 -0.00182015)
(0.0858323 -0.0013907 -0.00152822)
(0.0825903 -0.00116151 -0.00135037)
(0.0956456 -0.00836005 0.00836005)
(0.0904939 0.00152198 -0.00152205)
(0.0790684 0.00242963 -0.00242977)
(0.0713014 0.00148757 -0.00148786)
(0.0661799 0.000830166 -0.000830676)
(0.0623235 0.000563074 -0.000563893)
(0.0592222 0.000425193 -0.000426882)
(0.0999088 0.00129699 -0.000712564)
(0.0969669 0.00365579 -0.00274728)
(0.0935346 0.00264007 -0.0021182)
(0.0895893 0.00182015 -0.00162066)
(0.0858323 0.00152823 -0.0013907)
(0.0825903 0.00135037 -0.00116151)
(0.0798655 0.00117788 -0.000897678)
(0.099413 0.000345213 -0.000270233)
(0.0988664 0.00201894 -0.00187492)
(0.0979215 0.00257292 -0.00218906)
(0.0963659 0.00237951 -0.00190846)
(0.0946334 0.00211354 -0.00162679)
(0.0929721 0.00192585 -0.0014189)
(0.0913637 0.00179992 -0.00127171)
(0.0995405 0.000245027 -0.0003219)
(0.0992576 0.00105554 -0.00154094)
(0.0988488 0.00150216 -0.00211452)
(0.0981246 0.00157912 -0.00209177)
(0.0973365 0.00151431 -0.00188643)
(0.0965841 0.00144551 -0.00166643)
(0.0958637 0.00140847 -0.00149891)
(0.0993802 3.37806e-05 -5.89724e-05)
(0.0992677 0.000274409 -0.00120004)
(0.0989804 0.000432406 -0.0018885)
(0.0984745 0.000483509 -0.00200653)
(0.0979952 0.000478894 -0.00191484)
(0.09757 0.000465567 -0.00173506)
(0.0971792 0.00045287 -0.00154784)
(0.0993801 -3.37479e-05 -5.89199e-05)
(0.0992677 -0.000274242 -0.0012)
(0.0989804 -0.000432059 -0.00188847)
(0.0984747 -0.000482907 -0.00200648)
(0.0979956 -0.000477869 -0.00191471)
(0.0975709 -0.00046379 -0.00173481)
(0.0995405 -0.000245013 -0.000321898)
(0.0992576 -0.00105547 -0.00154092)
(0.0988491 -0.00150203 -0.00211443)
(0.0981251 -0.00157888 -0.00209162)
(0.0973375 -0.00151383 -0.00188621)
(0.0965861 -0.00144459 -0.00166608)
(0.099413 -0.000345229 -0.000270227)
(0.0988664 -0.00201902 -0.00187486)
(0.0979217 -0.00257307 -0.0021889)
(0.0963664 -0.00237976 -0.00190818)
(0.0946344 -0.00211392 -0.00162639)
(0.092974 -0.00192648 -0.00141833)
(0.0999088 -0.00129701 -0.000712553)
(0.0969669 -0.00365592 -0.00274721)
(0.0935347 -0.00264027 -0.00211806)
(0.0895896 -0.0018205 -0.00162039)
(0.0858327 -0.00152892 -0.00139032)
(0.0825911 -0.00135147 -0.00116081)
(0.0956456 0.00836005 0.00836005)
(0.0904939 -0.00152205 -0.00152198)
(0.0790684 -0.00242977 -0.00242963)
(0.0713014 -0.00148786 -0.00148757)
(0.06618 -0.000830675 -0.000830165)
(0.0623235 -0.000563893 -0.000563073)
)
;

boundaryField
{
    inlet
    {
        type            fixedValue;
        value           uniform (0.1 0 0);
    }
    ami1
    {
        type            cyclicAMI;
        value           nonuniform List<vector> 0();
    }
    walls
    {
        type            noSlip;
    }
    ami2
    {
        type            cyclicAMI;
        value           nonuniform List<vector> 0();
    }
    outlet
    {
        type            zeroGradient;
    }
    procBoundary4to3
    {
        type            processor;
        value           nonuniform List<vector> 
109
(
(0.0566871 0.000324893 0.00032206)
(0.0775697 0.00104148 0.000691332)
(0.0898589 0.00170437 0.00115931)
(0.0952007 0.00137351 0.0013724)
(0.0968304 0.00043706 0.00138892)
(0.0968277 -0.000442307 0.00138957)
(0.0951946 -0.00137607 0.00137315)
(0.0898531 -0.00170284 0.00116089)
(0.0775672 -0.00103798 0.000693192)
(0.0566871 -0.000322073 0.000324881)
(0.0775672 0.000693199 0.00103797)
(0.0931662 0.00107167 0.00106819)
(0.0991868 0.00166502 0.00157468)
(0.102279 0.0014577 0.00196523)
(0.103427 0.000546411 0.00204579)
(0.103425 -0.000550479 0.00204687)
(0.102274 -0.00145868 0.00196772)
(0.0991835 -0.00166275 0.00157774)
(0.0931662 -0.0010682 0.00107166)
(0.0775697 -0.000691338 0.00104147)
(0.0898531 0.00116089 0.00170283)
(0.0991835 0.00157775 0.00166274)
(0.102716 0.00187044 0.00186726)
(0.104392 0.00149065 0.00205185)
(0.105007 0.000557615 0.00207992)
(0.105006 -0.00055966 0.00208113)
(0.104389 -0.00148987 0.00205482)
(0.102716 -0.00186727 0.00187043)
(0.0991868 -0.00157469 0.00166502)
(0.0898589 -0.00115932 0.00170437)
(0.0951946 0.00137315 0.00137606)
(0.102274 0.00196772 0.00145867)
(0.104389 0.00205482 0.00148987)
(0.105224 0.00152668 0.00152508)
(0.105515 0.000557441 0.00150825)
(0.105515 -0.000557515 0.00150908)
(0.105224 -0.00152509 0.00152668)
(0.104392 -0.00205186 0.00149064)
(0.102279 -0.00196524 0.00145769)
(0.0952007 -0.0013724 0.0013735)
(0.0968277 0.00138957 0.000442301)
(0.103425 0.00204687 0.000550471)
(0.105006 0.00208113 0.000559652)
(0.105515 0.00150908 0.000557507)
(0.105676 0.000546092 0.000545816)
(0.105676 -0.000545824 0.000546095)
(0.105515 -0.00150826 0.000557442)
(0.105007 -0.00207993 0.000557615)
(0.103427 -0.00204579 0.000546408)
(0.0968304 -0.00138892 0.000437056)
(0.0968304 0.00138892 -0.000437066)
(0.103427 0.00204579 -0.000546418)
(0.105007 0.00207992 -0.000557623)
(0.105515 0.00150825 -0.000557448)
(0.105676 0.000545812 -0.0005461)
(0.105676 -0.000546104 -0.00054582)
(0.104617 -0.000582176 -0.00154912)
(0.105515 -0.00150909 -0.000557511)
(0.104446 -0.00160482 -0.0016038)
(0.105006 -0.00208114 -0.000559657)
(0.103893 -0.00218692 -0.00163314)
(0.103425 -0.00204688 -0.000550478)
(0.102251 -0.00211783 -0.0016071)
(0.0968277 -0.00138958 -0.00044231)
(0.0958637 -0.00149891 -0.00140847)
(0.0952007 0.0013724 -0.00137351)
(0.102279 0.00196523 -0.0014577)
(0.104392 0.00205185 -0.00149065)
(0.105224 0.00152508 -0.00152669)
(0.105515 0.000557504 -0.00150909)
(0.104617 -0.000582176 -0.00154912)
(0.104617 -0.000582176 -0.00154912)
(0.104446 -0.00160482 -0.0016038)
(0.103893 -0.00218692 -0.00163314)
(0.102251 -0.00211783 -0.0016071)
(0.0958637 -0.00149891 -0.00140847)
(0.0898589 0.00115931 -0.00170438)
(0.0991868 0.00157469 -0.00166503)
(0.102716 0.00186726 -0.00187044)
(0.104389 0.00148987 -0.00205483)
(0.105006 0.000559651 -0.00208113)
(0.104298 -0.000603504 -0.0021535)
(0.104298 -0.000603504 -0.0021535)
(0.103895 -0.00163364 -0.0021851)
(0.102646 -0.00209341 -0.00209142)
(0.0997088 -0.00182451 -0.00191481)
(0.0913637 -0.00127171 -0.00179992)
(0.0775697 0.000691332 -0.00104148)
(0.0931661 0.00106819 -0.00107167)
(0.0991835 0.00166274 -0.00157775)
(0.102274 0.00145867 -0.00196773)
(0.103425 0.000550474 -0.00204687)
(0.103124 -0.000593045 -0.00213489)
(0.103124 -0.000593045 -0.00213489)
(0.102254 -0.00160653 -0.0021162)
(0.0997107 -0.00191631 -0.00182276)
(0.0943941 -0.00138341 -0.00138133)
(0.0798655 -0.000897675 -0.00117788)
(0.0566871 0.000322065 -0.000324888)
(0.0775672 0.00103798 -0.000693198)
(0.0898531 0.00170284 -0.00116089)
(0.0951946 0.00137606 -0.00137315)
(0.0968277 0.000442305 -0.00138957)
(0.0971808 -0.000449779 -0.00154746)
(0.0971808 -0.000449779 -0.00154746)
(0.0958673 -0.00140689 -0.00149847)
(0.0913671 -0.00180085 -0.00127077)
(0.0798669 -0.00117991 -0.000896495)
(0.0592222 -0.000426882 -0.000425191)
)
;
    }
}


// ************************************************************************* //
