/*--------------------------------*- C++ -*----------------------------------*\
| =========                 |                                                 |
| \\      /  F ield         | OpenFOAM: The Open Source CFD Toolbox           |
|  \\    /   O peration     | Version:  2212                                  |
|   \\  /    A nd           | Website:  www.openfoam.com                      |
|    \\/     M anipulation  |                                                 |
\*---------------------------------------------------------------------------*/
FoamFile
{
    version     2.0;
    format      ascii;
    arch        "LSB;label=32;scalar=64";
    class       surfaceVectorField;
    location    "1";
    object      Uf;
}
// * * * * * * * * * * * * * * * * * * * * * * * * * * * * * * * * * * * * * //

dimensions      [0 1 -1 0 0 0 0];

internalField   nonuniform List<vector> 
1800
(
(0.0993441 -0.003419 -0.00341904)
(0.0973536 0.00106248 -0.00148428)
(0.0973536 -0.00148428 0.00106246)
(0.0834792 0.00197591 0.0019758)
(0.0930872 0.00326903 0.00253345)
(0.0930872 0.00253351 0.00326892)
(0.0745173 0.00195882 0.0019586)
(0.0848642 0.00163591 0.0017923)
(0.0848641 0.00179243 0.00163571)
(0.0685481 0.00115927 0.00115886)
(0.0786284 0.00107364 0.00122127)
(0.0786283 0.00122153 0.00107328)
(0.0642367 0.000697287 0.000696617)
(0.0740536 0.000785578 0.00086501)
(0.0740535 0.000865423 0.000784904)
(0.0607577 0.000495391 0.00049413)
(0.0704435 0.000650891 0.000669179)
(0.0704432 0.000669872 0.000649816)
(0.0674933 0.000547509 0.000508345)
(0.0674927 0.000509692 0.000545429)
(0.0984572 0.00247646 0.00172988)
(0.0996871 0.000439233 0.000345479)
(0.100049 0.00105639 0.000750961)
(0.0958349 0.0031481 0.00243263)
(0.0978162 0.00273279 0.00228226)
(0.0982937 0.00280923 0.00216142)
(0.0914502 0.00223039 0.00186922)
(0.0954961 0.0030017 0.00230307)
(0.0963041 0.00244268 0.00199771)
(0.0875957 0.00167472 0.00150535)
(0.0926195 0.00229933 0.00183868)
(0.0936671 0.00198076 0.00172682)
(0.0841485 0.0014402 0.00127557)
(0.089768 0.00189182 0.00153557)
(0.0909052 0.00171978 0.00149766)
(0.0811891 0.00126569 0.00102866)
(0.0872333 0.00165628 0.00129464)
(0.0884353 0.00145468 0.0012116)
(0.0850086 0.00149167 0.00107721)
(0.0863063 0.00118379 0.000908491)
(0.0993753 0.00118212 0.00107254)
(0.099473 0.00034975 0.000307057)
(0.0997475 0.000610978 0.000779872)
(0.0984949 0.00229604 0.00203188)
(0.0990504 0.00157676 0.00172045)
(0.0995971 0.00201829 0.00200284)
(0.0971415 0.00247641 0.00204854)
(0.0983579 0.002131 0.00216883)
(0.0992974 0.00246147 0.00210234)
(0.09544 0.00224684 0.00176729)
(0.0971936 0.00203559 0.00200235)
(0.0984886 0.00237439 0.00190248)
(0.0937517 0.0020202 0.00152236)
(0.0959059 0.00185526 0.00175432)
(0.0974229 0.00218074 0.00168855)
(0.0921398 0.00186367 0.00134455)
(0.094673 0.00173206 0.00154268)
(0.0963107 0.00198445 0.00150816)
(0.0934838 0.00165149 0.00138659)
(0.0952063 0.00180105 0.00134257)
(0.0996493 0.000650242 0.000931412)
(0.0994625 0.00012935 0.000192485)
(0.0997993 0.000375104 0.000741361)
(0.0990855 0.00127875 0.00182768)
(0.0992625 0.000636764 0.0013706)
(0.099841 0.00115028 0.00181421)
(0.0984494 0.00154046 0.00210303)
(0.098913 0.00097318 0.00200355)
(0.0999049 0.00153629 0.00209012)
(0.097708 0.00154636 0.00198891)
(0.0982952 0.00104963 0.00205065)
(0.0997676 0.00163135 0.00202295)
(0.0969401 0.00147921 0.00177614)
(0.0976576 0.00100677 0.00189971)
(0.09951 0.001609 0.00189564)
(0.0962089 0.00142574 0.00158228)
(0.0970651 0.000958802 0.0016985)
(0.0992005 0.00154658 0.00175173)
(0.0965062 0.000930999 0.0015211)
(0.0988562 0.00147295 0.00162604)
(0.0996725 0.000153995 0.00062946)
(0.0993801 -1.84284e-08 5.89461e-05)
(0.0997132 0.000103894 0.000687944)
(0.0991591 0.000353151 0.00154423)
(0.0992677 -8.47781e-08 0.00120002)
(0.0998377 0.000341527 0.00162228)
(0.0986637 0.000457483 0.00194748)
(0.0989804 -1.86823e-07 0.00188848)
(0.099963 0.000485248 0.00199138)
(0.0982123 0.000480388 0.0019606)
(0.0984746 -3.27521e-07 0.00200651)
(0.0999919 0.00053924 0.00199664)
(0.0977764 0.000470829 0.00182476)
(0.0979954 -5.53495e-07 0.00191478)
(0.100009 0.000545713 0.00191108)
(0.0973628 0.000456784 0.00164113)
(0.0975704 -9.48246e-07 0.00173493)
(0.100008 0.000532294 0.00180438)
(0.09718 -1.63697e-06 0.00154765)
(0.0999814 0.000509424 0.00168307)
(0.0996725 -0.000154094 0.000629504)
(0.0994625 -0.000129385 0.000192511)
(0.0997132 -0.000103936 0.000687948)
(0.0991591 -0.000353407 0.00154427)
(0.0992625 -0.000636895 0.00137062)
(0.0998376 -0.00034169 0.00162229)
(0.0986635 -0.000457958 0.00194751)
(0.0989128 -0.000973429 0.0020036)
(0.099963 -0.000485564 0.00199138)
(0.098212 -0.000481202 0.00196069)
(0.0982948 -0.00105005 0.00205075)
(0.0999917 -0.000539787 0.00199667)
(0.0977758 -0.000472231 0.00182495)
(0.0976569 -0.00100753 0.00189988)
(0.100009 -0.000546669 0.00191122)
(0.0973616 -0.00045922 0.00164145)
(0.0970636 -0.000960164 0.0016988)
(0.100007 -0.000533948 0.00180468)
(0.0965036 -0.000933388 0.00152152)
(0.0999799 -0.000512227 0.00168352)
(0.0996493 -0.000650281 0.000931417)
(0.099473 -0.000349745 0.00030706)
(0.0997993 -0.000375113 0.000741361)
(0.0990854 -0.00127885 0.00182773)
(0.0990504 -0.00157675 0.00172048)
(0.0998409 -0.00115033 0.00181422)
(0.0984491 -0.00154064 0.00210314)
(0.0983577 -0.00213097 0.00216896)
(0.0999047 -0.00153638 0.00209019)
(0.0977073 -0.00154671 0.0019891)
(0.0971931 -0.00203556 0.00200256)
(0.0997671 -0.00163152 0.00202317)
(0.0969386 -0.00147991 0.00177643)
(0.0959048 -0.00185529 0.00175463)
(0.099509 -0.00160934 0.00189605)
(0.0962062 -0.00142699 0.00158267)
(0.094671 -0.00173219 0.00154315)
(0.0991986 -0.00154721 0.00175235)
(0.0934803 -0.00165178 0.0013873)
(0.0988531 -0.00147405 0.00162695)
(0.0993753 -0.00118208 0.00107258)
(0.0996871 -0.000439209 0.000345485)
(0.0997475 -0.000610955 0.000779891)
(0.0984948 -0.00229593 0.00203199)
(0.0978161 -0.00273268 0.00228232)
(0.0995971 -0.00201821 0.00200293)
(0.0971412 -0.00247622 0.00204876)
(0.095496 -0.00300151 0.00230321)
(0.0992972 -0.00246132 0.00210256)
(0.0954393 -0.00224653 0.00176762)
(0.0926191 -0.002299 0.00183894)
(0.0984882 -0.00237411 0.00190287)
(0.0937503 -0.0020197 0.00152284)
(0.0897673 -0.00189125 0.00153594)
(0.0974221 -0.00218027 0.00168913)
(0.0921372 -0.00186288 0.0013453)
(0.087232 -0.00165532 0.00129525)
(0.0963091 -0.00198368 0.00150899)
(0.0850064 -0.00149003 0.00107824)
(0.0952036 -0.00179986 0.0013439)
(0.0984572 -0.00247639 0.00172992)
(0.0973536 -0.00106246 -0.00148428)
(0.100049 -0.00105637 0.000750982)
(0.0958348 -0.00314793 0.00243273)
(0.0930872 -0.00326892 0.00253351)
(0.0982936 -0.00280912 0.00216153)
(0.0914501 -0.00223011 0.00186943)
(0.0848641 -0.00163571 0.00179242)
(0.096304 -0.00244245 0.00199792)
(0.0875953 -0.00167419 0.00150568)
(0.0786283 -0.00107328 0.00122153)
(0.093667 -0.00198036 0.0017272)
(0.0841479 -0.0014393 0.0012761)
(0.0740535 -0.000784907 0.000865417)
(0.0909049 -0.0017191 0.00149826)
(0.0811881 -0.00126413 0.00102959)
(0.0704432 -0.00064982 0.000669865)
(0.0884349 -0.00145356 0.00121267)
(0.0674927 -0.000545435 0.000509682)
(0.0863056 -0.00118183 0.000910278)
(0.0993441 0.00341904 -0.003419)
(0.0973536 0.00148428 0.00106248)
(0.0834792 -0.00197581 0.00197591)
(0.0930872 -0.00253345 0.00326903)
(0.0745173 -0.0019586 0.00195881)
(0.0848642 -0.0017923 0.00163591)
(0.0685481 -0.00115887 0.00115926)
(0.0786284 -0.00122128 0.00107363)
(0.0642367 -0.000696623 0.000697281)
(0.0740536 -0.000865016 0.000785574)
(0.0607577 -0.000494138 0.000495383)
(0.0704435 -0.000669186 0.000650887)
(0.0674933 -0.000508355 0.000547502)
(0.0984572 0.00172992 0.00247639)
(0.100049 0.000750982 0.00105637)
(0.0996871 0.000345486 0.00043921)
(0.0958348 0.00243274 0.00314793)
(0.0982936 0.00216153 0.00280912)
(0.0978161 0.00228232 0.00273268)
(0.0914501 0.00186943 0.00223011)
(0.096304 0.00199793 0.00244245)
(0.095496 0.00230322 0.00300151)
(0.0875953 0.00150568 0.00167418)
(0.093667 0.0017272 0.00198036)
(0.0926191 0.00183895 0.002299)
(0.0841479 0.0012761 0.0014393)
(0.0909049 0.00149826 0.00171909)
(0.0897673 0.00153594 0.00189124)
(0.0811881 0.00102959 0.00126412)
(0.0884349 0.00121268 0.00145355)
(0.087232 0.00129526 0.00165532)
(0.0863056 0.000910281 0.00118182)
(0.0850064 0.00107824 0.00149003)
(0.10008 0.00135179 0.00135172)
(0.100186 0.000798768 0.000804932)
(0.100186 0.000804963 0.000798735)
(0.100264 0.00221734 0.00221715)
(0.10019 0.00231187 0.00207139)
(0.10019 0.00207151 0.00231175)
(0.099383 0.00243584 0.00243548)
(0.100307 0.00263373 0.00245289)
(0.100307 0.00245319 0.0026335)
(0.0979843 0.00231042 0.00230982)
(0.0998052 0.00256046 0.00245566)
(0.0998051 0.00245616 0.00256005)
(0.0964954 0.00200659 0.00200558)
(0.0988631 0.00236459 0.00228054)
(0.0988628 0.00228131 0.00236392)
(0.0950734 0.00159775 0.00159607)
(0.0978415 0.00204944 0.00196757)
(0.0978409 0.00196877 0.00204827)
(0.0968625 0.00169189 0.00160388)
(0.0968616 0.00160579 0.00168999)
(0.100171 0.00136869 0.00141636)
(0.100118 0.000577406 0.000811288)
(0.100102 0.000699772 0.000700655)
(0.100759 0.00219491 0.00214891)
(0.100478 0.00158284 0.00185869)
(0.100477 0.00182256 0.00186453)
(0.100996 0.00247697 0.00238766)
(0.101004 0.00205872 0.00224237)
(0.101024 0.00234682 0.00238271)
(0.100838 0.00247632 0.00238871)
(0.101293 0.00220343 0.0023518)
(0.101338 0.00250605 0.00254333)
(0.100458 0.00231174 0.00222427)
(0.101309 0.0021673 0.00232169)
(0.101409 0.00245075 0.00247179)
(0.0999684 0.00205681 0.00196744)
(0.101157 0.0020107 0.00217821)
(0.101302 0.00226496 0.00226976)
(0.100928 0.00179339 0.0019677)
(0.101099 0.00200953 0.00199757)
(0.100242 0.00082014 0.0012561)
(0.10009 0.000294309 0.000735341)
(0.100071 0.000415663 0.00060275)
(0.100828 0.00139049 0.00193926)
(0.100491 0.000791908 0.00168398)
(0.100493 0.00112438 0.00158691)
(0.101392 0.00166334 0.00218206)
(0.101086 0.00107758 0.00208332)
(0.101129 0.00154076 0.00209393)
(0.101816 0.00176087 0.00226082)
(0.101664 0.00120408 0.00217884)
(0.101768 0.00173257 0.00229389)
(0.102081 0.00175488 0.00226154)
(0.102121 0.00123928 0.00222173)
(0.102291 0.00178966 0.00236673)
(0.102216 0.0016673 0.00217612)
(0.102451 0.00120116 0.00220982)
(0.102712 0.00174345 0.00232118)
(0.10268 0.00111715 0.00212596)
(0.103037 0.00162549 0.00220101)
(0.100243 0.000267364 0.00116239)
(0.100087 -3.00711e-08 0.000707014)
(0.100064 0.00013579 0.000537316)
(0.100782 0.000465643 0.0018262)
(0.100477 -8.56742e-08 0.00161778)
(0.100463 0.000370834 0.0014241)
(0.101401 0.000575356 0.00207614)
(0.101066 -1.47939e-07 0.00203464)
(0.101089 0.000525075 0.00193352)
(0.101987 0.000622599 0.00213399)
(0.101694 -2.64063e-07 0.00211768)
(0.101797 0.000605719 0.00212855)
(0.102507 0.00063057 0.00216528)
(0.102269 -4.75175e-07 0.00215046)
(0.102489 0.000639022 0.002211)
(0.102934 0.000609394 0.00215755)
(0.102742 -8.1307e-07 0.00218044)
(0.103119 0.000633679 0.00224175)
(0.103123 -1.33002e-06 0.00213524)
(0.103687 0.000600095 0.00219718)
(0.100243 -0.000267472 0.0011624)
(0.10009 -0.000294343 0.000735351)
(0.100064 -0.000135836 0.00053733)
(0.100782 -0.000465864 0.00182621)
(0.100491 -0.000792003 0.001684)
(0.100463 -0.000370964 0.00142413)
(0.101401 -0.00057574 0.00207617)
(0.101086 -0.00107775 0.00208338)
(0.101089 -0.000525303 0.00193358)
(0.101987 -0.000623284 0.00213414)
(0.101664 -0.00120439 0.00217907)
(0.101797 -0.00060611 0.00212867)
(0.102506 -0.000631771 0.00216562)
(0.102121 -0.00123983 0.00222223)
(0.102489 -0.000639709 0.00221127)
(0.102933 -0.000611398 0.00215812)
(0.10245 -0.00120208 0.00221058)
(0.103119 -0.000634839 0.00224223)
(0.102678 -0.00111867 0.00212713)
(0.103685 -0.000602004 0.00219794)
(0.100242 -0.000820152 0.00125613)
(0.100118 -0.000577387 0.000811312)
(0.100071 -0.00041566 0.00060278)
(0.100828 -0.00139052 0.00193934)
(0.100478 -0.0015828 0.00185879)
(0.100492 -0.00112437 0.001587)
(0.101392 -0.00166342 0.00218231)
(0.101004 -0.00205865 0.00224259)
(0.101128 -0.00154075 0.00209412)
(0.101816 -0.00176104 0.00226139)
(0.101292 -0.00220331 0.00235227)
(0.101767 -0.0017326 0.0022943)
(0.10208 -0.00175515 0.00226245)
(0.101309 -0.00216708 0.00232247)
(0.10229 -0.00178969 0.00236747)
(0.102213 -0.00166775 0.00217747)
(0.101156 -0.00201032 0.0021793)
(0.10271 -0.00174349 0.0023223)
(0.100925 -0.00179285 0.00196939)
(0.103035 -0.00162557 0.00220276)
(0.100171 -0.00136863 0.00141645)
(0.100186 -0.000798735 0.000804963)
(0.100102 -0.000699733 0.0007007)
(0.100759 -0.00219479 0.00214914)
(0.10019 -0.00231175 0.00207151)
(0.100477 -0.00182245 0.00186469)
(0.100996 -0.00247673 0.0023881)
(0.100307 -0.0026335 0.00245319)
(0.101024 -0.00234661 0.00238302)
(0.100838 -0.00247589 0.0023894)
(0.0998051 -0.00256005 0.00245616)
(0.101338 -0.00250566 0.00254386)
(0.100457 -0.00231099 0.00222524)
(0.0988628 -0.00236393 0.00228131)
(0.101409 -0.0024501 0.0024726)
(0.0999669 -0.00205559 0.00196887)
(0.0978409 -0.00204828 0.00196876)
(0.101301 -0.0022639 0.00227094)
(0.0968616 -0.00169 0.00160578)
(0.101098 -0.00200782 0.0019995)
(0.10008 -0.00135172 0.00135178)
(0.100049 -0.000750961 0.00105639)
(0.100186 -0.000804932 0.000798767)
(0.100264 -0.00221715 0.00221734)
(0.0982937 -0.00216142 0.00280923)
(0.10019 -0.00207139 0.00231186)
(0.099383 -0.00243548 0.00243584)
(0.0963041 -0.00199772 0.00244268)
(0.100307 -0.0024529 0.00263373)
(0.0979843 -0.00230983 0.00231042)
(0.0936671 -0.00172682 0.00198075)
(0.0998052 -0.00245566 0.00256046)
(0.0964954 -0.00200558 0.00200658)
(0.0909052 -0.00149766 0.00171977)
(0.0988631 -0.00228055 0.00236459)
(0.0950734 -0.00159608 0.00159775)
(0.0884353 -0.0012116 0.00145468)
(0.0978415 -0.00196758 0.00204944)
(0.0863063 -0.000908495 0.00118378)
(0.0968625 -0.00160389 0.00169189)
(0.0984572 -0.00172988 0.00247646)
(0.0996871 -0.00034548 0.000439234)
(0.0958349 -0.00243263 0.0031481)
(0.0978162 -0.00228226 0.00273279)
(0.0914502 -0.00186923 0.00223039)
(0.0954961 -0.00230307 0.00300169)
(0.0875957 -0.00150536 0.00167471)
(0.0926195 -0.00183868 0.00229933)
(0.0841485 -0.00127557 0.00144019)
(0.089768 -0.00153557 0.00189182)
(0.0811891 -0.00102866 0.00126569)
(0.0872333 -0.00129465 0.00165627)
(0.0850086 -0.00107721 0.00149167)
(0.0993753 0.00107258 0.00118208)
(0.0997475 0.000779891 0.000610955)
(0.099473 0.000307061 0.000349746)
(0.0984948 0.00203199 0.00229593)
(0.0995971 0.00200293 0.0020182)
(0.0990504 0.00172048 0.00157675)
(0.0971412 0.00204876 0.00247622)
(0.0992972 0.00210256 0.00246132)
(0.0983577 0.00216896 0.00213097)
(0.0954393 0.00176763 0.00224653)
(0.0984882 0.00190287 0.0023741)
(0.0971931 0.00200257 0.00203556)
(0.0937503 0.00152285 0.00201969)
(0.0974221 0.00168913 0.00218027)
(0.0959048 0.00175463 0.00185528)
(0.0921372 0.00134531 0.00186288)
(0.0963091 0.00150899 0.00198367)
(0.094671 0.00154315 0.00173218)
(0.0952036 0.0013439 0.00179986)
(0.0934803 0.0013873 0.00165177)
(0.100171 0.00141645 0.00136863)
(0.100102 0.0007007 0.000699733)
(0.100118 0.000811312 0.000577387)
(0.100759 0.00214914 0.00219479)
(0.100477 0.00186469 0.00182245)
(0.100478 0.00185879 0.0015828)
(0.100996 0.0023881 0.00247673)
(0.101024 0.00238303 0.0023466)
(0.101004 0.00224259 0.00205864)
(0.100838 0.0023894 0.00247588)
(0.101338 0.00254386 0.00250565)
(0.101292 0.00235228 0.0022033)
(0.100457 0.00222525 0.00231098)
(0.101409 0.0024726 0.0024501)
(0.101309 0.00232247 0.00216708)
(0.0999669 0.00196888 0.00205559)
(0.101301 0.00227095 0.00226389)
(0.101156 0.00217931 0.00201032)
(0.101098 0.00199951 0.00200782)
(0.100925 0.00196939 0.00179285)
(0.100222 0.00114324 0.00114314)
(0.100053 0.000517209 0.000591822)
(0.100053 0.000591868 0.000517172)
(0.100843 0.00192877 0.00192856)
(0.100491 0.00134935 0.00151819)
(0.100491 0.00151832 0.00134925)
(0.101463 0.00232628 0.0023259)
(0.101151 0.00186493 0.00207348)
(0.101151 0.00207374 0.00186474)
(0.101979 0.00244117 0.00244055)
(0.101822 0.00210666 0.00232286)
(0.101822 0.00232331 0.00210635)
(0.102354 0.00237815 0.00237716)
(0.102411 0.00214805 0.00237333)
(0.102411 0.00237407 0.00214753)
(0.10258 0.00220373 0.00220214)
(0.102888 0.00206578 0.00229928)
(0.102888 0.00230046 0.00206497)
(0.103249 0.00189116 0.00213913)
(0.103249 0.00214103 0.00188983)
(0.100228 0.000720249 0.000962123)
(0.100042 0.000263676 0.000509876)
(0.100041 0.00035989 0.000426842)
(0.10082 0.00126002 0.00165343)
(0.100464 0.000697311 0.00131026)
(0.100455 0.000958732 0.00112619)
(0.101546 0.00159015 0.0020576)
(0.101134 0.000993405 0.00183581)
(0.101118 0.00137174 0.00159986)
(0.102277 0.00174242 0.00224307)
(0.101911 0.00116013 0.00211094)
(0.101902 0.00160784 0.00186131)
(0.102971 0.00176212 0.00228582)
(0.102679 0.00122197 0.00222431)
(0.102692 0.00170357 0.00197531)
(0.103601 0.00168903 0.00223148)
(0.103414 0.00120329 0.00223312)
(0.103454 0.00169587 0.00197995)
(0.104093 0.00113087 0.00216978)
(0.104162 0.0016205 0.00191472)
(0.100215 0.000240857 0.000856759)
(0.100039 -2.0744e-08 0.000478769)
(0.100035 0.000119297 0.000373892)
(0.100779 0.00042767 0.0014906)
(0.100448 -5.11449e-08 0.00123478)
(0.100422 0.000322296 0.00100016)
(0.101525 0.000550933 0.00188662)
(0.101114 -8.97333e-08 0.0017465)
(0.10107 0.000470365 0.00144527)
(0.102323 0.000617565 0.00208944)
(0.101909 -1.55763e-07 0.00202688)
(0.101877 0.000562474 0.00170584)
(0.103129 0.000637909 0.00216929)
(0.102728 -2.69036e-07 0.00215224)
(0.102739 0.000608089 0.00183701)
(0.103917 0.000620562 0.00216999)
(0.103529 -4.32633e-07 0.00218675)
(0.103607 0.000615351 0.00188347)
(0.104297 -7.03359e-07 0.00215388)
(0.104453 0.000593263 0.00186543)
(0.100215 -0.000240923 0.000856793)
(0.100042 -0.00026369 0.000509906)
(0.100035 -0.000119317 0.00037391)
(0.100779 -0.000427803 0.00149068)
(0.100464 -0.000697344 0.00131035)
(0.100422 -0.000322349 0.00100021)
(0.101525 -0.000551161 0.00188675)
(0.101134 -0.000993466 0.00183598)
(0.10107 -0.000470458 0.00144535)
(0.102323 -0.000617945 0.00208967)
(0.101911 -0.00116024 0.00211123)
(0.101877 -0.000562628 0.00170601)
(0.103129 -0.000638531 0.0021697)
(0.102679 -0.00122212 0.00222483)
(0.102739 -0.000608345 0.00183731)
(0.103916 -0.000621586 0.00217063)
(0.103413 -0.00120352 0.00223395)
(0.103606 -0.000615756 0.00188395)
(0.104092 -0.00113126 0.00217109)
(0.104453 -0.000593932 0.00186613)
(0.100228 -0.000720223 0.000962208)
(0.100053 -0.000517172 0.000591867)
(0.100041 -0.000359868 0.000426884)
(0.10082 -0.00125997 0.00165361)
(0.100491 -0.00134925 0.00151832)
(0.100455 -0.000958672 0.0011263)
(0.101546 -0.00159008 0.00205793)
(0.101151 -0.00186475 0.00207374)
(0.101118 -0.00137163 0.00160007)
(0.102276 -0.0017423 0.00224364)
(0.101822 -0.00210635 0.00232331)
(0.101902 -0.00160767 0.00186168)
(0.10297 -0.0017619 0.00228676)
(0.102411 -0.00214754 0.00237407)
(0.102692 -0.00170328 0.00197592)
(0.1036 -0.00168865 0.00223296)
(0.102888 -0.00206498 0.00230045)
(0.103454 -0.00169541 0.00198092)
(0.103249 -0.00188984 0.00214102)
(0.104162 -0.00161976 0.0019162)
(0.100222 -0.00114314 0.00114324)
(0.100102 -0.000700655 0.000699771)
(0.100053 -0.000591822 0.000517209)
(0.100843 -0.00192856 0.00192877)
(0.100477 -0.00186453 0.00182256)
(0.100491 -0.00151819 0.00134935)
(0.101463 -0.00232591 0.00232628)
(0.101024 -0.00238271 0.00234682)
(0.101151 -0.00207349 0.00186493)
(0.101979 -0.00244055 0.00244116)
(0.101338 -0.00254333 0.00250604)
(0.101822 -0.00232287 0.00210666)
(0.102354 -0.00237717 0.00237814)
(0.101409 -0.00247179 0.00245075)
(0.102411 -0.00237333 0.00214805)
(0.10258 -0.00220214 0.00220373)
(0.101302 -0.00226976 0.00226495)
(0.102888 -0.00229929 0.00206578)
(0.101099 -0.00199758 0.00200952)
(0.103249 -0.00213913 0.00189116)
(0.100171 -0.00141636 0.00136869)
(0.0997475 -0.000779872 0.000610978)
(0.100118 -0.000811288 0.000577406)
(0.100759 -0.00214891 0.00219491)
(0.0995971 -0.00200284 0.00201828)
(0.100478 -0.0018587 0.00158284)
(0.100996 -0.00238766 0.00247697)
(0.0992974 -0.00210234 0.00246147)
(0.101004 -0.00224237 0.00205872)
(0.100838 -0.00238872 0.00247632)
(0.0984886 -0.00190249 0.00237439)
(0.101293 -0.0023518 0.00220343)
(0.100458 -0.00222428 0.00231173)
(0.0974229 -0.00168855 0.00218073)
(0.101309 -0.00232169 0.00216729)
(0.0999684 -0.00196745 0.00205681)
(0.0963107 -0.00150816 0.00198445)
(0.101157 -0.00217822 0.00201069)
(0.0952063 -0.00134257 0.00180104)
(0.100928 -0.00196771 0.00179338)
(0.0993753 -0.00107254 0.00118212)
(0.099473 -0.000307057 0.00034975)
(0.0984949 -0.00203188 0.00229604)
(0.0990504 -0.00172045 0.00157676)
(0.0971415 -0.00204854 0.00247641)
(0.0983579 -0.00216883 0.002131)
(0.09544 -0.00176729 0.00224684)
(0.0971936 -0.00200235 0.00203559)
(0.0937517 -0.00152237 0.0020202)
(0.0959059 -0.00175432 0.00185526)
(0.0921398 -0.00134456 0.00186366)
(0.094673 -0.00154268 0.00173205)
(0.0934838 -0.00138659 0.00165149)
(0.0996493 0.000931418 0.000650282)
(0.0997993 0.000741362 0.000375113)
(0.0994625 0.000192512 0.000129385)
(0.0990854 0.00182773 0.00127885)
(0.0998409 0.00181422 0.00115033)
(0.0992625 0.00137062 0.000636896)
(0.0984491 0.00210315 0.00154064)
(0.0999047 0.00209019 0.00153638)
(0.0989128 0.00200361 0.000973429)
(0.0977073 0.0019891 0.00154671)
(0.0997671 0.00202317 0.00163152)
(0.0982948 0.00205076 0.00105005)
(0.0969386 0.00177643 0.00147991)
(0.099509 0.00189605 0.00160934)
(0.0976569 0.00189989 0.00100753)
(0.0962062 0.00158267 0.00142698)
(0.0991986 0.00175235 0.0015472)
(0.0970636 0.0016988 0.000960161)
(0.0988531 0.00162695 0.00147404)
(0.0965036 0.00152152 0.000933384)
(0.100242 0.00125613 0.000820152)
(0.100071 0.000602781 0.00041566)
(0.10009 0.000735352 0.000294343)
(0.100828 0.00193934 0.00139052)
(0.100492 0.001587 0.00112437)
(0.100491 0.00168401 0.000792002)
(0.101392 0.00218232 0.00166342)
(0.101128 0.00209412 0.00154075)
(0.101086 0.00208338 0.00107775)
(0.101816 0.00226139 0.00176104)
(0.101767 0.0022943 0.00173259)
(0.101664 0.00217907 0.00120439)
(0.10208 0.00226245 0.00175514)
(0.10229 0.00236747 0.00178969)
(0.102121 0.00222223 0.00123983)
(0.102213 0.00217747 0.00166774)
(0.10271 0.00232231 0.00174348)
(0.10245 0.00221059 0.00120207)
(0.103035 0.00220276 0.00162556)
(0.102678 0.00212713 0.00111866)
(0.100228 0.000962209 0.000720222)
(0.100041 0.000426884 0.000359868)
(0.100042 0.000509906 0.00026369)
(0.10082 0.00165362 0.00125997)
(0.100455 0.0011263 0.000958671)
(0.100464 0.00131035 0.000697343)
(0.101546 0.00205793 0.00159007)
(0.101118 0.00160007 0.00137163)
(0.101134 0.00183598 0.000993464)
(0.102276 0.00224364 0.0017423)
(0.101902 0.00186168 0.00160767)
(0.101911 0.00211124 0.00116023)
(0.10297 0.00228676 0.00176189)
(0.102692 0.00197592 0.00170328)
(0.102679 0.00222483 0.00122212)
(0.1036 0.00223297 0.00168864)
(0.103454 0.00198092 0.0016954)
(0.103413 0.00223395 0.00120351)
(0.104162 0.00191621 0.00161976)
(0.104092 0.00217109 0.00113125)
(0.10021 0.000595912 0.000595853)
(0.100034 0.000215905 0.000302511)
(0.100034 0.000302535 0.000215891)
(0.100751 0.00106554 0.00106542)
(0.100412 0.000582082 0.000819198)
(0.100412 0.000819265 0.000582041)
(0.101493 0.00138339 0.00138318)
(0.101053 0.000852052 0.00119846)
(0.101053 0.00119859 0.000851976)
(0.102327 0.00156298 0.00156263)
(0.101868 0.00102116 0.00143753)
(0.101868 0.00143774 0.00102103)
(0.103188 0.00163219 0.00163164)
(0.102753 0.00110625 0.00156207)
(0.102753 0.00156242 0.00110604)
(0.104034 0.00162381 0.00162297)
(0.103652 0.00112509 0.00159874)
(0.103652 0.00159927 0.00112476)
(0.10453 0.00110089 0.00157685)
(0.10453 0.00157764 0.00110038)
(0.100192 0.000200046 0.000524981)
(0.100031 -4.30398e-09 0.000281377)
(0.100039 9.04423e-05 0.000188686)
(0.100705 0.000363532 0.000950798)
(0.100395 -7.51924e-09 0.000768615)
(0.10038 0.000272291 0.000512467)
(0.10144 0.000480103 0.00125105)
(0.101024 -1.10576e-08 0.00113305)
(0.100993 0.000410485 0.000763447)
(0.102302 0.000551213 0.0014352)
(0.101843 -1.63064e-08 0.00136918)
(0.101808 0.000502336 0.000929289)
(0.103222 0.000583941 0.00152769)
(0.102751 -2.28284e-08 0.00150143)
(0.102727 0.000554458 0.00102329)
(0.104155 0.000586895 0.00155159)
(0.103688 -3.00767e-08 0.00155427)
(0.103689 0.000574348 0.00106185)
(0.104617 -4.2924e-08 0.00154939)
(0.104654 0.000570704 0.00106029)
(0.100192 -0.000200051 0.000525011)
(0.100034 -0.000215891 0.000302535)
(0.100039 -9.04421e-05 0.000188698)
(0.100705 -0.000363541 0.000950863)
(0.100412 -0.000582042 0.000819264)
(0.10038 -0.000272287 0.000512499)
(0.10144 -0.000480117 0.00125117)
(0.101053 -0.000851979 0.00119859)
(0.100993 -0.000410476 0.000763507)
(0.102302 -0.000551233 0.00143541)
(0.101868 -0.00102103 0.00143774)
(0.101808 -0.00050232 0.000929392)
(0.103222 -0.000583962 0.00152801)
(0.102753 -0.00110605 0.00156241)
(0.102727 -0.000554431 0.00102346)
(0.104155 -0.000586917 0.00155206)
(0.103652 -0.00112476 0.00159927)
(0.103689 -0.000574299 0.00106211)
(0.10453 -0.00110039 0.00157763)
(0.104654 -0.000570626 0.00106066)
(0.10021 -0.000595854 0.000595912)
(0.100041 -0.000426842 0.00035989)
(0.100034 -0.000302511 0.000215905)
(0.100751 -0.00106542 0.00106554)
(0.100455 -0.00112619 0.000958731)
(0.100412 -0.000819199 0.000582081)
(0.101493 -0.00138318 0.00138339)
(0.101118 -0.00159986 0.00137174)
(0.101053 -0.00119847 0.000852051)
(0.102327 -0.00156264 0.00156298)
(0.101902 -0.00186131 0.00160784)
(0.101868 -0.00143753 0.00102116)
(0.103188 -0.00163165 0.00163219)
(0.102692 -0.00197531 0.00170356)
(0.102753 -0.00156207 0.00110625)
(0.104034 -0.00162297 0.00162381)
(0.103454 -0.00197995 0.00169587)
(0.103652 -0.00159875 0.00112509)
(0.104162 -0.00191472 0.0016205)
(0.10453 -0.00157685 0.00110089)
(0.100228 -0.000962124 0.000720248)
(0.100071 -0.00060275 0.000415662)
(0.100042 -0.000509876 0.000263676)
(0.10082 -0.00165343 0.00126002)
(0.100493 -0.00158691 0.00112438)
(0.100464 -0.00131026 0.00069731)
(0.101546 -0.0020576 0.00159015)
(0.101129 -0.00209393 0.00154076)
(0.101134 -0.00183582 0.000993404)
(0.102277 -0.00224307 0.00174242)
(0.101768 -0.00229389 0.00173257)
(0.101911 -0.00211094 0.00116013)
(0.102971 -0.00228583 0.00176212)
(0.102291 -0.00236674 0.00178965)
(0.102679 -0.00222431 0.00122197)
(0.103601 -0.00223148 0.00168903)
(0.102712 -0.00232118 0.00174345)
(0.103414 -0.00223312 0.00120328)
(0.103037 -0.00220101 0.00162549)
(0.104093 -0.00216979 0.00113087)
(0.100242 -0.0012561 0.000820139)
(0.0997993 -0.000741361 0.000375104)
(0.10009 -0.000735341 0.000294309)
(0.100828 -0.00193926 0.00139049)
(0.099841 -0.00181421 0.00115028)
(0.100491 -0.00168398 0.000791907)
(0.101392 -0.00218206 0.00166333)
(0.0999049 -0.00209012 0.00153629)
(0.101086 -0.00208332 0.00107758)
(0.101816 -0.00226082 0.00176087)
(0.0997676 -0.00202295 0.00163134)
(0.101664 -0.00217884 0.00120408)
(0.102081 -0.00226154 0.00175487)
(0.09951 -0.00189564 0.00160899)
(0.102121 -0.00222173 0.00123928)
(0.102216 -0.00217612 0.0016673)
(0.0992005 -0.00175174 0.00154658)
(0.102451 -0.00220982 0.00120116)
(0.0988562 -0.00162604 0.00147295)
(0.10268 -0.00212597 0.00111715)
(0.0996493 -0.000931412 0.000650241)
(0.0994625 -0.000192485 0.00012935)
(0.0990855 -0.00182768 0.00127875)
(0.0992625 -0.0013706 0.000636762)
(0.0984494 -0.00210303 0.00154045)
(0.098913 -0.00200355 0.000973177)
(0.097708 -0.00198892 0.00154635)
(0.0982952 -0.00205066 0.00104963)
(0.0969401 -0.00177615 0.00147921)
(0.0976576 -0.00189971 0.00100677)
(0.0962089 -0.00158228 0.00142574)
(0.0970651 -0.0016985 0.000958798)
(0.0965062 -0.0015211 0.000930994)
(0.0996725 0.000629504 0.000154095)
(0.0997132 0.000687948 0.000103936)
(0.0993801 5.89467e-05 1.89747e-08)
(0.0991591 0.00154427 0.000353408)
(0.0998376 0.00162229 0.00034169)
(0.0992677 0.00120002 8.57765e-08)
(0.0986635 0.00194751 0.000457958)
(0.099963 0.00199138 0.000485563)
(0.0989804 0.00188848 1.87265e-07)
(0.098212 0.00196069 0.000481201)
(0.0999917 0.00199667 0.000539785)
(0.0984746 0.00200651 3.27082e-07)
(0.0977758 0.00182495 0.000472228)
(0.100009 0.00191123 0.000546666)
(0.0979954 0.00191478 5.51781e-07)
(0.0973616 0.00164145 0.000459216)
(0.100007 0.00180468 0.000533944)
(0.0975704 0.00173494 9.45179e-07)
(0.0999799 0.00168352 0.000512221)
(0.09718 0.00154765 1.63252e-06)
(0.100243 0.0011624 0.000267471)
(0.100064 0.00053733 0.000135836)
(0.100087 0.000707014 3.01181e-08)
(0.100782 0.00182621 0.000465863)
(0.100463 0.00142413 0.000370963)
(0.100477 0.00161778 8.50205e-08)
(0.101401 0.00207617 0.000575738)
(0.101089 0.00193358 0.000525301)
(0.101066 0.00203464 1.46337e-07)
(0.101987 0.00213414 0.00062328)
(0.101797 0.00212867 0.000606107)
(0.101694 0.00211768 2.61335e-07)
(0.102506 0.00216562 0.000631766)
(0.102489 0.00221127 0.000639705)
(0.102269 0.00215046 4.71163e-07)
(0.102933 0.00215813 0.000611391)
(0.103119 0.00224223 0.000634833)
(0.102742 0.00218044 8.0771e-07)
(0.103685 0.00219794 0.000601997)
(0.103123 0.00213524 1.32338e-06)
(0.100215 0.000856793 0.000240922)
(0.100035 0.00037391 0.000119317)
(0.100039 0.00047877 2.06457e-08)
(0.100779 0.00149068 0.000427802)
(0.100422 0.00100021 0.000322347)
(0.100448 0.00123478 5.01078e-08)
(0.101525 0.00188675 0.000551158)
(0.10107 0.00144536 0.000470455)
(0.101114 0.0017465 8.76545e-08)
(0.102323 0.00208968 0.000617941)
(0.101877 0.00170601 0.000562625)
(0.101909 0.00202688 1.52622e-07)
(0.103129 0.0021697 0.000638526)
(0.102739 0.00183731 0.000608341)
(0.102728 0.00215224 2.64806e-07)
(0.103916 0.00217064 0.00062158)
(0.103606 0.00188395 0.00061575)
(0.103529 0.00218675 4.27299e-07)
(0.104453 0.00186613 0.000593926)
(0.104297 0.00215388 6.96951e-07)
(0.100192 0.000525012 0.00020005)
(0.100039 0.000188698 9.04417e-05)
(0.100031 0.000281377 4.1623e-09)
(0.100705 0.000950864 0.000363539)
(0.10038 0.000512499 0.000272286)
(0.100395 0.000768616 6.35824e-09)
(0.10144 0.00125117 0.000480115)
(0.100993 0.000763508 0.000410474)
(0.101024 0.00113305 8.89663e-09)
(0.102302 0.00143541 0.000551229)
(0.101808 0.000929392 0.000502317)
(0.101843 0.00136918 1.31961e-08)
(0.103222 0.00152801 0.000583958)
(0.102727 0.00102346 0.000554427)
(0.102751 0.00150143 1.8724e-08)
(0.104155 0.00155206 0.000586911)
(0.103689 0.00106211 0.000574294)
(0.103688 0.00155427 2.48743e-08)
(0.104654 0.00106066 0.000570619)
(0.104617 0.00154939 3.64868e-08)