/*--------------------------------*- C++ -*----------------------------------*\
| =========                 |                                                 |
| \\      /  F ield         | OpenFOAM: The Open Source CFD Toolbox           |
|  \\    /   O peration     | Version:  2212                                  |
|   \\  /    A nd           | Website:  www.openfoam.com                      |
|    \\/     M anipulation  |                                                 |
\*---------------------------------------------------------------------------*/
FoamFile
{
    version     2.0;
    format      ascii;
    arch        "LSB;label=32;scalar=64";
    class       volScalarField;
    location    "2.2";
    object      nut;
}
// * * * * * * * * * * * * * * * * * * * * * * * * * * * * * * * * * * * * * //

dimensions      [0 2 -1 0 0 0 0];

internalField   nonuniform List<scalar> 
678
(
3.50051e-06
3.47911e-06
3.45862e-06
3.43904e-06
3.41971e-06
6.9468e-06
6.90181e-06
6.85769e-06
6.81462e-06
6.77371e-06
1.00226e-05
9.94986e-06
9.87938e-06
9.81129e-06
9.74404e-06
1.22443e-05
1.21457e-05
1.20438e-05
1.19576e-05
1.18595e-05
1.17844e-05
1.36252e-05
1.35096e-05
1.33953e-05
1.32932e-05
1.31766e-05
1.30949e-05
1.40276e-05
1.39117e-05
1.37944e-05
1.37145e-05
1.35227e-05
1.35263e-05
1.33394e-05
1.34432e-05
1.33309e-05
1.32206e-05
1.31368e-05
1.29823e-05
1.29282e-05
1.28174e-05
1.19289e-05
1.18275e-05
1.17349e-05
1.16512e-05
1.15671e-05
1.14856e-05
1.14057e-05
9.63597e-06
9.56681e-06
9.50112e-06
9.43595e-06
9.37276e-06
9.31225e-06
9.25485e-06
6.75965e-06
6.71556e-06
6.67246e-06
6.63062e-06
6.59068e-06
6.55107e-06
3.50084e-06
3.4793e-06
3.45873e-06
3.43886e-06
3.41941e-06
3.40068e-06
6.75933e-06
6.71557e-06
6.67275e-06
6.63105e-06
6.59213e-06
6.55636e-06
7.25234e-06
7.02108e-06
6.78386e-06
6.58068e-06
6.34991e-06
1.62616e-05
1.56359e-05
1.50992e-05
1.44361e-05
1.4043e-05
1.36207e-05
2.44095e-05
2.36822e-05
2.2894e-05
2.1867e-05
2.14037e-05
2.06282e-05
3.00854e-05
2.89917e-05
2.81971e-05
2.69657e-05
2.63658e-05
2.53379e-05
3.29659e-05
3.19479e-05
3.09654e-05
2.97314e-05
2.86312e-05
2.75063e-05
3.23343e-05
3.09214e-05
2.9623e-05
2.83235e-05
2.74518e-05
2.63577e-05
2.58674e-05
2.45545e-05
2.34289e-05
2.21834e-05
2.16318e-05
2.07021e-05
1.98249e-05
1.56401e-05
1.49307e-05
1.43169e-05
1.36002e-05
1.32629e-05
1.2769e-05
1.21804e-05
7.24749e-06
7.01783e-06
6.78183e-06
6.56684e-06
6.39073e-06
6.2418e-06
6.02878e-06
6.94818e-06
6.90297e-06
6.85873e-06
6.81553e-06
6.77404e-06
6.73336e-06
9.63564e-06
9.56705e-06
9.50172e-06
9.43682e-06
9.37399e-06
9.3143e-06
9.25613e-06
1.56357e-05
1.49247e-05
1.43136e-05
1.35987e-05
1.3235e-05
1.27427e-05
3.27023e-05
3.11072e-05
2.98076e-05
2.8222e-05
2.74297e-05
2.62169e-05
4.71321e-05
4.53605e-05
4.3163e-05
4.09077e-05
3.96114e-05
3.78743e-05
5.6359e-05
5.39758e-05
5.16627e-05
4.9416e-05
4.71299e-05
4.50587e-05
6.07031e-05
5.80484e-05
5.55116e-05
5.30736e-05
5.05764e-05
4.82623e-05
5.88517e-05
5.61552e-05
5.36015e-05
5.11218e-05
4.88182e-05
4.63128e-05
4.95033e-05
4.68323e-05
4.45422e-05
4.2059e-05
4.08564e-05
3.89812e-05
3.26979e-05
3.10486e-05
2.97687e-05
2.81378e-05
2.73977e-05
2.61571e-05
1.62668e-05
1.56496e-05
1.51145e-05
1.44472e-05
1.40877e-05
1.35556e-05
1.30895e-05
1.00257e-05
9.9528e-06
9.88243e-06
9.81422e-06
9.74747e-06
9.68367e-06
1.19296e-05
1.18282e-05
1.17367e-05
1.1653e-05
1.15703e-05
1.14887e-05
1.14087e-05
2.5636e-05
2.45046e-05
2.34459e-05
2.22325e-05
2.16715e-05
2.0642e-05
1.98453e-05
4.94028e-05
4.7174e-05
4.48237e-05
4.24709e-05
4.07331e-05
3.89652e-05
6.7915e-05
6.49222e-05
6.21194e-05
5.94169e-05
5.7265e-05
5.45282e-05
7.86481e-05
7.54091e-05
7.2294e-05
6.92603e-05
6.68407e-05
6.34781e-05
8.26937e-05
7.9322e-05
7.60788e-05
7.29074e-05
7.05689e-05
6.63271e-05
7.95715e-05
7.62457e-05
7.30342e-05
7.00636e-05
6.73257e-05
6.78754e-05
6.49279e-05
6.21242e-05
5.94275e-05
5.73184e-05
5.42527e-05
4.71579e-05
4.5457e-05
4.32418e-05
4.08932e-05
3.97489e-05
3.77229e-05
2.45067e-05
2.37881e-05
2.2964e-05
2.19402e-05
2.14594e-05
2.06057e-05
1.22493e-05
1.21512e-05
1.20494e-05
1.19632e-05
1.18657e-05
1.1787e-05
1.34458e-05
1.33329e-05
1.3232e-05
1.31072e-05
1.30335e-05
1.29051e-05
3.21813e-05
3.09213e-05
2.9691e-05
2.84968e-05
2.74834e-05
2.63414e-05
5.88574e-05
5.63143e-05
5.37992e-05
5.12482e-05
4.91459e-05
7.98206e-05
7.64732e-05
7.32413e-05
7.04102e-05
6.72241e-05
9.15133e-05
8.81631e-05
8.45528e-05
8.13735e-05
7.75684e-05
9.53093e-05
9.19048e-05
8.82541e-05
8.49371e-05
8.13205e-05
9.1437e-05
8.80768e-05
8.4475e-05
8.1251e-05
7.78447e-05
7.88079e-05
7.56006e-05
7.24823e-05
6.96205e-05
6.68656e-05
5.66028e-05
5.42047e-05
5.18781e-05
4.94877e-05
4.76985e-05
3.04426e-05
2.9336e-05
2.82762e-05
2.70954e-05
2.64759e-05
1.36306e-05
1.35178e-05
1.34003e-05
1.3301e-05
1.31841e-05
1.30857e-05
1.40322e-05
1.39167e-05
1.38005e-05
1.37153e-05
1.35422e-05
1.35207e-05
3.29832e-05
3.20578e-05
3.10105e-05
2.99025e-05
2.85111e-05
2.77449e-05
6.07181e-05
5.81275e-05
5.56079e-05
5.32238e-05
8.28886e-05
7.95059e-05
7.63098e-05
7.32938e-05
9.53072e-05
9.18969e-05
8.83885e-05
8.47526e-05
9.93776e-05
9.59314e-05
9.21449e-05
8.88276e-05
8.4561e-05
9.53809e-05
9.19563e-05
8.83105e-05
8.50539e-05
8.1407e-05
8.29273e-05
7.95915e-05
7.6333e-05
7.34186e-05
7.0415e-05
6.09366e-05
5.83065e-05
5.57877e-05
5.33241e-05
5.1071e-05
3.30596e-05
3.2108e-05
3.10719e-05
2.98998e-05
2.88208e-05
1.40325e-05
1.39169e-05
1.38002e-05
1.37204e-05
1.35336e-05
1.37485e-05
1.36306e-05
1.35129e-05
1.34063e-05
1.32969e-05
1.31881e-05
3.10766e-05
3.02663e-05
2.9236e-05
2.80439e-05
2.73811e-05
2.63702e-05
5.88517e-05
5.65094e-05
5.41528e-05
5.17819e-05
4.95012e-05
4.75527e-05
8.19181e-05
7.89133e-05
7.5873e-05
7.28338e-05
7.02061e-05
6.67639e-05
9.46571e-05
9.15114e-05
8.82181e-05
8.48533e-05
8.18963e-05
7.79284e-05
9.51817e-05
9.18351e-05
8.83022e-05
8.51408e-05
8.1516e-05
9.1509e-05
8.81625e-05
8.45868e-05
8.14442e-05
7.80384e-05
7.97326e-05
7.6454e-05
7.32806e-05
7.04311e-05
6.75986e-05
5.90396e-05
5.637e-05
5.38565e-05
5.1273e-05
4.94579e-05
3.25092e-05
3.10795e-05
2.97937e-05
2.8527e-05
2.7636e-05
1.34474e-05
1.33356e-05
1.32254e-05
1.31444e-05
1.29834e-05
1.23507e-05
1.22494e-05
1.21492e-05
1.2054e-05
1.1958e-05
1.18721e-05
2.52344e-05
2.46733e-05
2.35536e-05
2.29756e-05
2.20042e-05
2.15853e-05
4.88169e-05
4.73458e-05
4.52073e-05
4.3032e-05
4.15449e-05
3.98854e-05
7.06719e-05
6.80197e-05
6.52877e-05
6.26068e-05
6.02096e-05
5.79022e-05
8.28058e-05
7.98605e-05
7.68468e-05
7.38202e-05
7.10631e-05
6.81963e-05
8.28402e-05
7.97937e-05
7.66071e-05
7.37422e-05
7.07661e-05
7.88795e-05
7.57381e-05
7.26673e-05
6.99054e-05
6.7159e-05
6.79741e-05
6.50863e-05
6.23303e-05
5.97237e-05
5.75489e-05
4.96196e-05
4.6982e-05
4.47519e-05
4.21704e-05
4.15772e-05
2.59336e-05
2.4641e-05
2.35403e-05
2.23328e-05
2.17717e-05
1.19333e-05
1.18313e-05
1.17398e-05
1.16569e-05
1.15731e-05
1.01013e-05
1.00265e-05
9.95412e-06
9.88363e-06
9.8151e-06
9.7494e-06
1.67873e-05
1.62523e-05
1.5682e-05
1.50138e-05
1.46117e-05
1.41232e-05
3.38136e-05
3.2592e-05
3.12759e-05
2.96195e-05
2.88172e-05
2.75915e-05
5.11381e-05
4.92321e-05
4.70425e-05
4.45641e-05
4.32275e-05
4.13582e-05
6.14074e-05
5.88892e-05
5.64454e-05
5.40342e-05
5.15193e-05
4.98241e-05
6.07831e-05
5.82557e-05
5.58384e-05
5.34241e-05
5.1344e-05
5.66371e-05
5.42998e-05
5.20134e-05
4.96302e-05
4.79616e-05
4.72771e-05
4.55523e-05
4.33787e-05
4.10109e-05
4.03034e-05
3.28126e-05
3.11516e-05
2.98535e-05
2.82684e-05
2.77687e-05
1.56973e-05
1.49885e-05
1.43825e-05
1.37197e-05
1.32287e-05
9.63916e-06
9.57042e-06
9.50503e-06
9.44076e-06
9.37769e-06
6.99515e-06
6.94929e-06
6.90428e-06
6.86003e-06
6.81738e-06
6.77669e-06
7.47945e-06
7.2379e-06
6.99242e-06
6.77089e-06
6.60088e-06
6.36785e-06
1.61261e-05
1.55149e-05
1.49042e-05
1.41686e-05
1.38178e-05
1.31828e-05
2.65523e-05
2.56591e-05
2.45613e-05
2.33563e-05
2.26981e-05
2.17863e-05
3.32005e-05
3.20973e-05
3.09078e-05
2.9766e-05
2.86284e-05
2.77224e-05
3.32078e-05
3.20796e-05
3.11277e-05
2.99232e-05
2.89708e-05
3.04345e-05
2.93579e-05
2.8342e-05
2.71728e-05
2.65995e-05
2.4548e-05
2.38493e-05
2.30381e-05
2.20197e-05
2.16335e-05
1.62995e-05
1.57515e-05
1.51009e-05
1.46094e-05
1.41501e-05
7.26523e-06
7.04044e-06
6.79433e-06
6.60836e-06
6.37008e-06
6.76194e-06
6.7181e-06
6.67529e-06
6.63404e-06
6.59476e-06
3.52336e-06
3.50175e-06
3.48061e-06
3.4601e-06
3.44052e-06
3.42102e-06
6.80677e-06
6.76164e-06
6.71765e-06
6.67473e-06
6.63394e-06
6.59467e-06
9.71142e-06
9.63869e-06
9.57041e-06
9.50349e-06
1.20384e-05
1.19318e-05
1.18315e-05
1.174e-05
1.16575e-05
1.3565e-05
1.34488e-05
1.33371e-05
1.32281e-05
1.31401e-05
1.40349e-05
1.39185e-05
1.38172e-05
1.36789e-05
1.36363e-05
1.36324e-05
1.35245e-05
1.33985e-05
1.33029e-05
1.32028e-05
1.22514e-05
1.21536e-05
1.20544e-05
1.19646e-05
1.18751e-05
1.00277e-05
9.9558e-06
9.88591e-06
9.81801e-06
9.75221e-06
6.94996e-06
6.90527e-06
6.8613e-06
6.8187e-06
6.77803e-06
3.50196e-06
3.48068e-06
3.46023e-06
3.44082e-06
3.42134e-06
)
;

boundaryField
{
    inlet
    {
        type            calculated;
        value           nonuniform List<scalar> 0();
    }
    ami1
    {
        type            cyclicAMI;
        value           nonuniform List<scalar> 0();
    }
    walls
    {
        type            nutkWallFunction;
        blending        stepwise;
        value           uniform 0;
    }
    ami2
    {
        type            cyclicAMI;
        value           nonuniform List<scalar> 0();
    }
    outlet
    {
        type            calculated;
        value           nonuniform List<scalar> 0();
    }
    procBoundary5to6
    {
        type            processor;
        value           nonuniform List<scalar> 
177
(
3.40239e-06
3.40239e-06
6.73382e-06
9.67841e-06
9.67841e-06
9.67841e-06
1.16915e-05
1.29807e-05
1.29807e-05
1.32817e-05
2.5962e-05
1.27328e-05
2.48627e-05
1.13251e-05
9.19331e-06
6.51667e-06
6.51667e-06
6.51667e-06
3.38326e-06
6.52026e-06
6.39153e-06
6.52026e-06
6.39153e-06
6.39153e-06
6.39153e-06
1.31738e-05
1.96441e-05
2.3987e-05
2.5962e-05
2.48627e-05
2.48627e-05
1.86584e-05
3.60745e-05
1.1797e-05
2.4493e-05
6.13108e-06
6.69578e-06
6.69578e-06
9.19791e-06
1.23755e-05
1.23755e-05
1.23755e-05
2.46155e-05
3.52483e-05
4.1871e-05
4.46519e-05
4.29152e-05
6.17074e-05
3.60745e-05
2.4493e-05
2.4493e-05
1.26511e-05
9.61931e-06
1.95646e-05
9.61931e-06
1.13298e-05
1.28311e-05
1.86315e-05
3.60396e-05
2.48889e-05
3.60396e-05
4.56746e-05
4.97816e-05
6.16729e-05
5.78907e-05
7.10811e-05
6.03904e-05
6.17074e-05
7.44763e-05
6.17074e-05
6.17074e-05
4.96899e-05
6.13395e-05
3.49722e-05
4.43786e-05
1.95646e-05
2.51628e-05
1.16979e-05
1.28311e-05
2.48889e-05
4.56746e-05
4.56746e-05
4.95658e-05
6.16729e-05
6.7315e-05
7.10811e-05
7.784e-05
7.44763e-05
7.13797e-05
6.13395e-05
4.43786e-05
2.51628e-05
2.51628e-05
1.29917e-05
1.35557e-05
1.33248e-05
1.30914e-05
4.95658e-05
2.61801e-05
4.68851e-05
2.50157e-05
4.95658e-05
4.95658e-05
6.7315e-05
6.7315e-05
7.784e-05
7.784e-05
7.784e-05
7.75713e-05
7.4623e-05
6.45801e-05
4.75627e-05
2.74092e-05
1.35557e-05
1.30914e-05
2.50157e-05
4.43952e-05
6.12198e-05
7.15161e-05
7.47352e-05
7.15282e-05
6.19599e-05
4.58919e-05
2.62355e-05
1.29568e-05
1.1784e-05
2.06161e-05
3.72105e-05
5.31964e-05
6.2589e-05
6.49205e-05
6.15844e-05
5.27769e-05
3.83762e-05
2.07001e-05
1.14898e-05
9.68451e-06
1.37234e-05
2.59524e-05
3.84591e-05
4.64106e-05
4.78361e-05
4.46413e-05
3.74032e-05
2.60273e-05
1.29266e-05
9.31699e-06
6.73713e-06
6.40069e-06
9.43959e-06
1.29553e-05
9.37759e-06
2.08764e-05
1.15735e-05
2.64384e-05
1.29818e-05
2.75446e-05
2.53111e-05
2.06746e-05
1.37369e-05
6.39753e-06
6.55794e-06
3.40382e-06
9.43959e-06
6.55893e-06
9.37759e-06
9.43959e-06
9.43959e-06
1.15735e-05
1.29818e-05
1.29818e-05
1.3403e-05
1.30836e-05
1.17877e-05
9.68699e-06
6.73797e-06
3.40363e-06
)
;
    }
    procBoundary5to7
    {
        type            processor;
        value           nonuniform List<scalar> 
131
(
3.52161e-06
6.99286e-06
1.00983e-05
1.23478e-05
1.3746e-05
1.4153e-05
1.3563e-05
1.2037e-05
9.70962e-06
6.80468e-06
3.52223e-06
6.8037e-06
7.38108e-06
1.67498e-05
2.55464e-05
3.13152e-05
3.41052e-05
3.32442e-05
2.66232e-05
1.60075e-05
7.38442e-06
6.99478e-06
9.70844e-06
1.59774e-05
3.40071e-05
4.9275e-05
5.93101e-05
6.44377e-05
6.20409e-05
5.11866e-05
3.39892e-05
1.67779e-05
1.01025e-05
1.20364e-05
2.6773e-05
5.11496e-05
7.14792e-05
8.2797e-05
8.69909e-05
8.3757e-05
7.14782e-05
4.9301e-05
2.56077e-05
1.23541e-05
1.35647e-05
3.33602e-05
6.23098e-05
8.39948e-05
9.57852e-05
9.96168e-05
9.5685e-05
8.29217e-05
5.94908e-05
3.13999e-05
1.37528e-05
1.41571e-05
1.41571e-05
3.43052e-05
3.43052e-05
6.44993e-05
6.44993e-05
8.72496e-05
8.72496e-05
9.97042e-05
9.97042e-05
0.000103766
9.96781e-05
8.71893e-05
6.4676e-05
3.42604e-05
1.41585e-05
1.38753e-05
3.27789e-05
6.21888e-05
8.56182e-05
9.86074e-05
9.95545e-05
9.95545e-05
9.57584e-05
8.3868e-05
6.22028e-05
3.33299e-05
1.3567e-05
1.24593e-05
2.65352e-05
5.12829e-05
7.39897e-05
8.65427e-05
8.69765e-05
8.69765e-05
8.29427e-05
7.14949e-05
5.1267e-05
2.67052e-05
1.20403e-05
1.01798e-05
1.75512e-05
3.57844e-05
5.34352e-05
6.49966e-05
6.44379e-05
6.44379e-05
5.96004e-05
4.9297e-05
3.4085e-05
1.60575e-05
9.71221e-06
7.04264e-06
7.65694e-06
1.69084e-05
2.78889e-05
3.46505e-05
3.41796e-05
3.41796e-05
3.1441e-05
2.56546e-05
1.68198e-05
7.40799e-06
6.80661e-06
3.54498e-06
6.85292e-06
9.78723e-06
1.2143e-05
1.36862e-05
1.41585e-05
1.41585e-05
1.37537e-05
1.23552e-05
1.01039e-05
6.99624e-06
3.52322e-06
)
;
    }
}


// ************************************************************************* //
