/*--------------------------------*- C++ -*----------------------------------*\
| =========                 |                                                 |
| \\      /  F ield         | OpenFOAM: The Open Source CFD Toolbox           |
|  \\    /   O peration     | Version:  2212                                  |
|   \\  /    A nd           | Website:  www.openfoam.com                      |
|    \\/     M anipulation  |                                                 |
\*---------------------------------------------------------------------------*/
FoamFile
{
    version     2.0;
    format      ascii;
    arch        "LSB;label=32;scalar=64";
    class       surfaceScalarField;
    location    "2.2";
    object      phi;
}
// * * * * * * * * * * * * * * * * * * * * * * * * * * * * * * * * * * * * * //

dimensions      [0 3 -1 0 0 0 0];

oriented        oriented;

internalField   nonuniform List<scalar> 
1755
(
5.79357e-08
-3.40902e-08
3.47096e-08
5.73454e-08
-3.4115e-08
3.47054e-08
5.67836e-08
-3.41479e-08
3.47096e-08
5.62334e-08
-3.4178e-08
3.47283e-08
-3.42029e-08
3.4753e-08
1.88199e-07
-6.42743e-08
3.20326e-08
1.86396e-07
-6.43174e-08
3.20051e-08
1.84659e-07
-6.4393e-08
3.19824e-08
1.82969e-07
-6.44733e-08
3.19853e-08
-6.45767e-08
3.2028e-08
3.68159e-07
-8.91091e-08
2.83829e-08
3.64654e-07
-8.91544e-08
2.83425e-08
3.61244e-07
-8.92586e-08
2.82747e-08
3.57925e-07
-8.936e-08
2.82055e-08
-8.94698e-08
2.81354e-08
5.24304e-07
-1.07205e-07
2.3413e-08
5.19161e-07
-1.07251e-07
2.3241e-08
5.14279e-07
-1.07324e-07
2.29461e-08
5.09589e-07
-1.07393e-07
2.27237e-08
5.05e-07
-1.07457e-07
2.25754e-08
-1.07488e-07
2.24247e-08
6.2987e-07
-1.17141e-07
1.62743e-08
6.23693e-07
-1.17229e-07
1.61548e-08
6.17689e-07
-1.17325e-07
1.60058e-08
6.11832e-07
-1.17395e-07
1.58594e-08
6.06071e-07
-1.17437e-07
1.57401e-08
-1.17447e-07
1.55892e-08
6.59556e-07
-1.18067e-07
6.93706e-09
6.53661e-07
-1.18146e-07
6.81227e-09
6.47862e-07
-1.18204e-07
6.67832e-09
6.42124e-07
-1.18212e-07
6.55504e-09
6.36448e-07
-1.18178e-07
6.41793e-09
6.30903e-07
-1.1814e-07
6.23747e-09
-1.18108e-07
6.08423e-07
-1.09405e-07
-3.59792e-09
6.03442e-07
-1.09407e-07
-3.75765e-09
5.98534e-07
-1.09401e-07
-3.89597e-09
5.9367e-07
-1.09351e-07
-3.99644e-09
5.88899e-07
-1.09247e-07
-4.15985e-09
5.84322e-07
-1.09121e-07
-4.44266e-09
-1.09016e-07
4.92383e-07
-9.15089e-08
-1.40794e-08
4.8861e-07
-9.14478e-08
-1.41862e-08
4.84888e-07
-9.14034e-08
-1.42749e-08
4.81199e-07
-9.13568e-08
-1.43051e-08
4.77538e-07
-9.12901e-08
-1.42966e-08
4.73942e-07
-9.12064e-08
-1.43184e-08
-9.11001e-08
-1.43701e-08
3.37486e-07
-6.61894e-08
-2.24305e-08
3.34668e-07
-6.61438e-08
-2.24857e-08
3.31924e-07
-6.61088e-08
-2.2551e-08
3.29226e-07
-6.60962e-08
-2.25626e-08
3.26564e-07
-6.60789e-08
-2.25495e-08
3.24004e-07
-6.60216e-08
-2.2624e-08
-2.27264e-08
1.76989e-07
-3.47047e-08
-2.98368e-08
1.75414e-07
-3.46982e-08
-2.98708e-08
1.73906e-07
-3.47015e-08
-2.98986e-08
1.72412e-07
-3.47242e-08
-2.98782e-08
1.70923e-07
-3.47494e-08
-2.98407e-08
-3.47547e-08
-2.98682e-08
5.7937e-08
-3.40799e-08
5.73429e-08
-3.41041e-08
5.6779e-08
-3.41376e-08
5.62219e-08
-3.41671e-08
5.56672e-08
-3.41946e-08
-3.42372e-08
1.77012e-07
-2.9849e-08
6.61865e-08
1.7545e-07
-2.98833e-08
6.61504e-08
1.73949e-07
-2.99098e-08
6.61208e-08
1.72476e-07
-2.99027e-08
6.61039e-08
1.71022e-07
-2.9852e-08
6.60588e-08
6.60027e-08
4.81979e-07
-5.54577e-08
6.07693e-08
4.78862e-07
-5.54896e-08
6.07279e-08
4.75762e-07
-5.55164e-08
6.06886e-08
4.72682e-07
-5.55269e-08
6.06898e-08
-5.54774e-08
6.07488e-08
7.98239e-07
-7.73692e-08
5.28214e-08
7.95626e-07
-7.73347e-08
5.28006e-08
7.92945e-07
-7.7321e-08
5.27597e-08
7.90153e-07
-7.72871e-08
5.27585e-08
7.87226e-07
-7.72204e-08
5.28045e-08
-7.72201e-08
5.27652e-08
1.02598e-06
-9.32423e-08
4.10544e-08
1.02409e-06
-9.32207e-08
4.10223e-08
1.02203e-06
-9.3231e-08
4.09132e-08
1.01983e-06
-9.32261e-08
4.08573e-08
1.01753e-06
-9.31894e-08
4.08471e-08
-9.31869e-08
4.07185e-08
1.16014e-06
-1.01846e-07
2.63216e-08
1.15863e-06
-1.01852e-07
2.62905e-08
1.15706e-06
-1.01873e-07
2.62198e-08
1.15544e-06
-1.01896e-07
2.61488e-08
1.15382e-06
-1.0191e-07
2.60872e-08
-1.01945e-07
2.59036e-08
1.19646e-06
-1.02956e-07
9.03327e-09
1.19543e-06
-1.02978e-07
8.97502e-09
1.19436e-06
-1.03023e-07
8.89069e-09
1.19331e-06
-1.03089e-07
8.7986e-09
1.19227e-06
-1.03161e-07
8.71025e-09
-1.03211e-07
8.52479e-09
1.13925e-06
-9.65358e-08
-9.44434e-09
1.13865e-06
-9.65828e-08
-9.5508e-09
1.13801e-06
-9.66409e-08
-9.64074e-09
1.13734e-06
-9.67472e-08
-9.67276e-09
1.13661e-06
-9.6888e-08
-9.69451e-09
-9.70032e-08
-9.81962e-09
9.97873e-07
-8.26775e-08
-2.70075e-08
9.96846e-07
-8.26738e-08
-2.70687e-08
9.95719e-07
-8.26642e-08
-2.71244e-08
9.94452e-07
-8.2731e-08
-2.70545e-08
9.93021e-07
-8.28265e-08
-2.6927e-08
9.91443e-07
-8.2834e-08
-2.69097e-08
-8.28455e-08
7.7444e-07
-6.07644e-08
-4.19816e-08
7.71982e-07
-6.07152e-08
-4.19866e-08
7.69451e-07
-6.06707e-08
-4.2014e-08
7.66813e-07
-6.06924e-08
-4.19629e-08
7.64055e-07
-6.07454e-08
-4.18731e-08
7.61219e-07
-6.07006e-08
-4.19214e-08
-6.06759e-08
4.82021e-07
-3.2026e-08
-5.54189e-08
4.78884e-07
-3.19992e-08
-5.54492e-08
4.75769e-07
-3.19752e-08
-5.54798e-08
4.72664e-07
-3.19908e-08
-5.54749e-08
4.69558e-07
-3.20224e-08
-5.54577e-08
4.66503e-07
-3.19951e-08
-5.55179e-08
-5.55611e-08
1.88235e-07
-6.42467e-08
1.86424e-07
-6.42924e-08
1.84683e-07
-6.43718e-08
1.82981e-07
-6.44554e-08
1.81307e-07
-6.45433e-08
-6.46508e-08
3.37549e-07
-2.24571e-08
9.14911e-08
3.34753e-07
-2.2503e-08
9.14495e-08
3.32023e-07
-2.25648e-08
9.14157e-08
3.29349e-07
-2.2585e-08
9.13625e-08
3.26728e-07
-2.25968e-08
9.12763e-08
3.24206e-07
-2.26561e-08
9.11807e-08
9.11062e-08
7.74444e-07
-4.20184e-08
8.26702e-08
7.72009e-07
-4.20269e-08
8.26869e-08
7.69507e-07
-4.20571e-08
8.26834e-08
7.66891e-07
-4.20163e-08
8.27363e-08
7.64157e-07
-4.19282e-08
8.28151e-08
-4.19401e-08
8.28411e-08
1.13058e-06
-5.98785e-08
7.00435e-08
1.13108e-06
-5.98285e-08
7.01025e-08
1.13143e-06
-5.97913e-08
7.01445e-08
1.13163e-06
-5.96868e-08
7.02345e-08
1.13169e-06
-5.95449e-08
7.03582e-08
-5.95186e-08
7.03786e-08
1.3733e-06
-7.34889e-08
5.25108e-08
1.37538e-06
-7.34376e-08
5.25479e-08
1.37736e-06
-7.34067e-08
5.2551e-08
1.37926e-06
-7.33293e-08
5.26013e-08
1.38111e-06
-7.32246e-08
5.2673e-08
-7.31899e-08
5.26212e-08
1.51435e-06
-8.15156e-08
3.14042e-08
1.51727e-06
-8.14919e-08
3.14252e-08
1.52012e-06
-8.14737e-08
3.14343e-08
1.52295e-06
-8.14549e-08
3.14451e-08
1.5258e-06
-8.14422e-08
3.145e-08
-8.14526e-08
3.13609e-08
1.55582e-06
-8.36383e-08
7.78229e-09
1.5592e-06
-8.36635e-08
7.76621e-09
1.56257e-06
-8.37014e-08
7.75435e-09
1.56594e-06
-8.37732e-08
7.7479e-09
1.56934e-06
-8.38642e-08
7.72924e-09
-8.39222e-08
7.61146e-09
1.50293e-06
-7.99703e-08
-1.66128e-08
1.5064e-06
-8.00421e-08
-1.66423e-08
1.50983e-06
-8.01161e-08
-1.66561e-08
1.51326e-06
-8.02464e-08
-1.66309e-08
1.51673e-06
-8.04063e-08
-1.66222e-08
-8.04912e-08
1.36178e-06
-7.00336e-08
-3.96999e-08
1.36447e-06
-7.00966e-08
-3.96991e-08
1.36706e-06
-7.01447e-08
-3.96863e-08
1.36958e-06
-7.02436e-08
-3.95811e-08
1.37205e-06
-7.03685e-08
-3.9435e-08
-7.03722e-08
-3.94192e-08
1.13064e-06
-5.28166e-08
-5.98354e-08
1.13113e-06
-5.28005e-08
-5.9777e-08
1.13148e-06
-5.27636e-08
-5.97369e-08
1.13167e-06
-5.27754e-08
-5.96293e-08
1.13174e-06
-5.28071e-08
-5.94978e-08
-5.27472e-08
-5.94824e-08
7.98353e-07
-2.83815e-08
-7.73119e-08
7.95723e-07
-2.83407e-08
-7.72792e-08
7.93024e-07
-2.82725e-08
-7.72722e-08
7.90216e-07
-2.82101e-08
-7.72322e-08
7.87286e-07
-2.8145e-08
-7.71895e-08
7.84262e-07
-2.80279e-08
-7.72138e-08
3.68287e-07
-8.90673e-08
3.64774e-07
-8.91198e-08
3.61361e-07
-8.92317e-08
3.58031e-07
-8.93354e-08
3.54781e-07
-8.94388e-08
-8.95442e-08
4.92493e-07
-1.41252e-08
1.09398e-07
4.88753e-07
-1.42065e-08
1.09396e-07
4.85065e-07
-1.42883e-08
1.09392e-07
4.81421e-07
-1.43294e-08
1.09337e-07
4.77811e-07
-1.4346e-08
1.09232e-07
4.74249e-07
-1.43715e-08
1.09114e-07
-1.44074e-08
9.97955e-07
-2.70832e-08
9.65079e-08
9.9696e-07
-2.71029e-08
9.6578e-08
9.95849e-07
-2.71411e-08
9.66466e-08
9.94586e-07
-2.70849e-08
9.67548e-08
9.93166e-07
-2.69876e-08
9.68774e-08
9.91611e-07
-2.69701e-08
9.69948e-08
1.3617e-06
-3.97434e-08
7.99694e-08
1.36437e-06
-3.97225e-08
8.0056e-08
1.36695e-06
-3.97056e-08
8.01318e-08
1.36947e-06
-3.96244e-08
8.02487e-08
1.37195e-06
-3.94989e-08
8.03891e-08
-3.94894e-08
1.60786e-06
-5.00655e-08
5.83506e-08
1.61232e-06
-5.00379e-08
5.84033e-08
1.61672e-06
-5.00115e-08
5.84508e-08
1.62112e-06
-4.99471e-08
5.85241e-08
1.62555e-06
-4.98645e-08
5.86096e-08
-4.98669e-08
1.75259e-06
-5.68145e-08
3.28911e-08
1.75786e-06
-5.67983e-08
3.29149e-08
1.76312e-06
-5.67842e-08
3.29432e-08
1.7684e-06
-5.67647e-08
3.29862e-08
1.7737e-06
-5.67427e-08
3.30258e-08
-5.67452e-08
1.79857e-06
-5.96084e-08
5.01476e-09
1.80415e-06
-5.96285e-08
5.0104e-09
1.80976e-06
-5.96511e-08
5.01581e-09
1.81539e-06
-5.96854e-08
5.03735e-09
1.82104e-06
-5.97041e-08
5.03391e-09
1.74903e-06
-5.83483e-08
-2.32946e-08
1.75446e-06
-5.83982e-08
-2.33023e-08
1.7599e-06
-5.84432e-08
-2.32969e-08
1.76537e-06
-5.8521e-08
-2.32673e-08
-5.85884e-08
-2.32747e-08
1.60791e-06
-5.2512e-08
-5.00294e-08
1.61237e-06
-5.25556e-08
-5.00032e-08
1.61677e-06
-5.25522e-08
-4.99755e-08
1.62117e-06
-5.25996e-08
-4.99042e-08
1.62562e-06
-5.26454e-08
-4.98251e-08
-5.25611e-08
1.37332e-06
-4.10606e-08
-7.34493e-08
1.37541e-06
-4.1031e-08
-7.33885e-08
1.37739e-06
-4.09156e-08
-7.33538e-08
1.3793e-06
-4.08634e-08
-7.32743e-08
1.38117e-06
-4.08301e-08
-7.31866e-08
-4.06699e-08
1.02609e-06
-2.34158e-08
-9.31822e-08
1.0242e-06
-2.3247e-08
-9.31655e-08
1.02214e-06
-2.29503e-08
-9.31811e-08
1.01994e-06
-2.27296e-08
-9.31669e-08
1.01764e-06
-2.25719e-08
-9.31438e-08
-2.23978e-08
5.24598e-07
-1.07161e-07
5.19443e-07
-1.07212e-07
5.14546e-07
-1.07285e-07
5.0983e-07
-1.07349e-07
5.05229e-07
-1.0741e-07
-1.07432e-07
6.08655e-07
-3.63626e-09
1.18065e-07
6.03713e-07
-3.79207e-09
1.18131e-07
5.98849e-07
-3.92655e-09
1.18182e-07
5.9404e-07
-4.04498e-09
1.18191e-07
5.89315e-07
-4.21545e-09
1.18172e-07
-4.47645e-09
1.18151e-07
1.13934e-06
-9.51976e-09
1.02935e-07
1.13875e-06
-9.59511e-09
1.02971e-07
1.13811e-06
-9.66351e-09
1.03022e-07
1.13744e-06
-9.70041e-09
1.03079e-07
1.13672e-06
-9.77083e-09
1.03152e-07
1.03225e-07
1.50282e-06
-1.66627e-08
8.36319e-08
1.50628e-06
-1.6675e-08
8.36734e-08
1.50971e-06
-1.66802e-08
8.37186e-08
1.51314e-06
-1.66619e-08
8.37823e-08
-1.67074e-08
1.74892e-06
-2.33272e-08
5.96116e-08
1.75435e-06
-2.33326e-08
5.96351e-08
1.75978e-06
-2.33237e-08
5.9661e-08
1.76525e-06
-2.33064e-08
5.97019e-08
-2.33412e-08
1.89516e-06
-2.84898e-08
3.17708e-08
1.90146e-06
-2.84931e-08
3.17804e-08
1.90777e-06
-2.84908e-08
3.17948e-08
1.91412e-06
-2.84884e-08
3.18217e-08
-2.85031e-08
1.94345e-06
-3.17685e-08
1.72916e-09
1.95002e-06
-3.17773e-08
1.72766e-09
1.9566e-06
-3.17887e-08
1.73041e-09
1.96321e-06
-3.18028e-08
1.73919e-09
-3.17984e-08
1.73165e-09
1.8952e-06
-3.28923e-08
-2.84627e-08
1.9015e-06
-3.29125e-08
-2.84674e-08
1.90782e-06
-3.29378e-08
-2.8468e-08
1.91418e-06
-3.29735e-08
-2.84614e-08
-3.29538e-08
-2.84679e-08
1.75254e-06
-3.14068e-08
-5.6779e-08
1.75781e-06
-3.14204e-08
-5.67654e-08
1.76307e-06
-3.14206e-08
-5.67528e-08
1.76836e-06
-3.14391e-08
-5.67325e-08
-3.13783e-08
-5.67216e-08
1.51428e-06
-2.63408e-08
-8.14693e-08
1.5172e-06
-2.62802e-08
-8.14508e-08
1.52005e-06
-2.61876e-08
-8.14377e-08
1.52289e-06
-2.61378e-08
-8.14165e-08
-2.60254e-08
-8.14064e-08
1.16018e-06
-1.62761e-08
-1.01788e-07
1.15869e-06
-1.615e-08
-1.018e-07
1.15714e-06
-1.59969e-08
-1.01824e-07
1.15554e-06
-1.58664e-08
-1.01838e-07
-1.57272e-08
-1.01852e-07
6.30307e-07
-1.17103e-07
6.24115e-07
-1.1717e-07
6.18082e-07
-1.17249e-07
6.12187e-07
-1.1732e-07
6.06413e-07
-1.17364e-07
6.59958e-07
6.89379e-09
1.1715e-07
6.54093e-07
6.76511e-09
1.1723e-07
6.48317e-07
6.62703e-09
1.17331e-07
6.42623e-07
6.47265e-09
1.17412e-07
6.37028e-07
6.32422e-09
1.17444e-07
6.1913e-09
1.19653e-06
8.97271e-09
1.01835e-07
1.19548e-06
8.91808e-09
1.01862e-07
1.1944e-06
8.84272e-09
1.01888e-07
1.19333e-06
8.70108e-09
1.01917e-07
1.19227e-06
1.01964e-07
1.55571e-06
7.72692e-09
8.15127e-08
1.55908e-06
7.71931e-09
8.15066e-08
1.56242e-06
7.71956e-09
8.14937e-08
7.64507e-09
8.14752e-08
1.79842e-06
4.97757e-09
5.6813e-08
1.804e-06
4.97401e-09
5.67959e-08
1.80963e-06
4.98168e-09
5.67768e-08
4.93593e-09
5.67509e-08
1.94337e-06
1.69924e-09
2.84886e-08
1.94995e-06
1.69797e-09
2.84821e-08
1.95655e-06
1.69955e-09
2.84703e-08
1.67473e-09
2.84514e-08
1.99189e-06
-1.72886e-09
-1.70352e-09
1.99875e-06
-1.72636e-09
-1.70679e-09
2.00562e-06
-1.72812e-09
-1.71587e-09
2.0125e-06
-1.73625e-09
-1.72706e-09
-1.72661e-09
-1.71155e-09
1.94343e-06
-5.01092e-09
-3.17441e-08
1.95e-06
-5.00491e-09
-3.17559e-08
1.95658e-06
-5.01072e-09
-3.17719e-08
1.9632e-06
-5.02285e-09
-3.17907e-08
-4.97054e-09
-3.17878e-08
1.79849e-06
-7.77267e-09
-5.95733e-08
1.80407e-06
-7.7567e-09
-5.95954e-08
1.80968e-06
-7.7458e-09
-5.96211e-08
1.81532e-06
-7.74504e-09
-5.9659e-08
-7.65923e-09
-5.96778e-08
1.55576e-06
-9.01863e-09
-8.35963e-08
1.55913e-06
-8.96108e-09
-8.36217e-08
1.56249e-06
-8.87674e-09
-8.36606e-08
1.56586e-06
-8.79909e-09
-8.37363e-08
-8.65311e-09
-8.38114e-08
1.19654e-06
-6.92079e-09
-1.02907e-07
1.19551e-06
-6.80086e-09
-1.02927e-07
1.19445e-06
-6.67258e-09
-1.02971e-07
1.19341e-06
-6.55883e-09
-1.03032e-07
-6.39798e-09
-1.03089e-07
6.59911e-07
-1.18015e-07
6.54028e-07
-1.18087e-07
6.48243e-07
-1.18137e-07
6.42507e-07
-1.18143e-07
-1.18108e-07
6.36649e-07
1.63593e-08
1.07184e-07
6.30341e-07
1.62573e-08
1.07201e-07
6.24197e-07
1.61156e-08
1.07259e-07
6.18209e-07
1.59642e-08
1.07355e-07
6.12351e-07
1.58209e-08
1.07449e-07
1.56529e-08
1.07528e-07
1.16168e-06
2.63289e-08
9.32471e-08
1.16023e-06
2.631e-08
9.32324e-08
1.15873e-06
2.62372e-08
9.32392e-08
1.15716e-06
2.61733e-08
9.32506e-08
1.15554e-06
2.61122e-08
9.3245e-08
2.59496e-08
9.32483e-08
1.51137e-06
3.13473e-08
7.35644e-08
1.51432e-06
3.13727e-08
7.35012e-08
1.51721e-06
3.13835e-08
7.3468e-08
1.52007e-06
3.13979e-08
7.34103e-08
1.52292e-06
3.1407e-08
7.33244e-08
3.13258e-08
7.32848e-08
1.74725e-06
3.28352e-08
5.01129e-08
1.7525e-06
3.28577e-08
5.00775e-08
1.75775e-06
3.28846e-08
5.00463e-08
1.76301e-06
3.29212e-08
4.99915e-08
1.7683e-06
3.29502e-08
4.9912e-08
3.29097e-08
4.98982e-08
1.88884e-06
2.33284e-08
1.89511e-06
3.17397e-08
2.33314e-08
1.9014e-06
3.17587e-08
2.3324e-08
1.90771e-06
3.17812e-08
2.33018e-08
1.91405e-06
3.17991e-08
2.3263e-08
3.17907e-08
2.32843e-08
1.9434e-06
2.84623e-08
-4.97826e-09
1.94996e-06
2.84722e-08
-4.98026e-09
1.95654e-06
2.84791e-08
-4.99312e-09
1.96314e-06
2.84787e-08
-5.0121e-09
2.84934e-08
-4.96391e-09
1.89519e-06
2.33009e-08
-3.28604e-08
1.90147e-06
2.33101e-08
-3.28819e-08
1.90778e-06
2.33078e-08
-3.29103e-08
1.91414e-06
2.32832e-08
-3.29495e-08
2.33149e-08
-3.29255e-08
1.749e-06
1.66226e-08
-5.83071e-08
1.75442e-06
1.66527e-08
-5.83582e-08
1.75985e-06
1.667e-08
-5.8407e-08
1.76533e-06
1.66295e-08
-5.84909e-08
1.66626e-08
-5.85209e-08
1.50289e-06
9.45325e-09
-7.99195e-08
1.50635e-06
9.56168e-09
-7.99919e-08
1.50978e-06
9.65068e-09
-8.0066e-08
1.51322e-06
9.66571e-09
-8.02202e-08
9.73574e-09
-8.03531e-08
1.13932e-06
3.60962e-09
-9.6487e-08
1.13872e-06
3.77049e-09
-9.65342e-08
1.13809e-06
3.90496e-09
-9.65942e-08
1.13743e-06
3.99101e-09
-9.66982e-08
4.17109e-09
-9.68285e-08
6.08704e-07
-1.0937e-07
6.03752e-07
-1.09365e-07
5.98871e-07
-1.09351e-07
5.94018e-07
-1.09299e-07
-1.09185e-07
5.29953e-07
2.34658e-08
8.90952e-08
5.24652e-07
2.33996e-08
8.91021e-08
5.1954e-07
2.32128e-08
8.91576e-08
5.14676e-07
2.29336e-08
8.92858e-08
5.10001e-07
2.27073e-08
8.94167e-08
2.25236e-08
8.95411e-08
1.02792e-06
4.10346e-08
7.73966e-08
1.02616e-06
4.10232e-08
7.73771e-08
1.02427e-06
4.09597e-08
7.73743e-08
1.02222e-06
4.08934e-08
7.73477e-08
1.02001e-06
4.08563e-08
7.7308e-08
4.07753e-08
7.72875e-08
1.37122e-06
5.24048e-08
5.99757e-08
1.37338e-06
5.24694e-08
5.9896e-08
1.37545e-06
5.2491e-08
5.98732e-08
1.37742e-06
5.2534e-08
5.97961e-08
1.37933e-06
5.26023e-08
5.96738e-08
5.25697e-08
5.96422e-08
1.60343e-06
5.82421e-08
3.9814e-08
1.6079e-06
5.83078e-08
3.97705e-08
1.61231e-06
5.83631e-08
3.97614e-08
1.61671e-06
5.84353e-08
3.96916e-08
1.62114e-06
5.85235e-08
3.95668e-08
5.85366e-08
3.95557e-08
1.74359e-06
1.66574e-08
1.74897e-06
5.95804e-08
1.66727e-08
1.75436e-06
5.96135e-08
1.6682e-08
1.75977e-06
5.9651e-08
1.66795e-08
1.76523e-06
5.96968e-08
1.6634e-08
5.97164e-08
1.66693e-08
1.7985e-06
5.67856e-08
-7.71491e-09
1.80405e-06
5.67811e-08
-7.7031e-09
1.80963e-06
5.67792e-08
-7.69755e-09
1.81525e-06
5.67693e-08
-7.70606e-09
5.67734e-08
-7.62695e-09
1.75256e-06
5.00412e-08
-3.13579e-08
1.75781e-06
5.00185e-08
-3.13686e-08
1.76305e-06
4.99953e-08
-3.1368e-08
1.76834e-06
4.99256e-08
-3.13922e-08
4.99008e-08
-3.13329e-08
1.60791e-06
3.97188e-08
-5.2465e-08
1.61235e-06
3.97176e-08
-5.2503e-08
1.61673e-06
3.97082e-08
-5.24987e-08
1.62115e-06
3.95797e-08
-5.25649e-08
3.95017e-08
-5.25629e-08
1.36175e-06
2.70307e-08
-6.99793e-08
1.36443e-06
2.70854e-08
-7.00343e-08
1.36701e-06
2.71405e-08
-7.00809e-08
1.36953e-06
2.7053e-08
-7.02088e-08
2.69623e-08
-7.02973e-08
9.97956e-07
1.40913e-08
-8.26324e-08
9.96943e-07
1.41943e-08
-8.263e-08
9.95832e-07
1.42812e-08
-8.26237e-08
9.94565e-07
1.42989e-08
-8.26777e-08
1.43148e-08
-8.27745e-08
4.92594e-07
-9.14834e-08
4.88846e-07
-9.14229e-08
4.8515e-07
-9.13732e-08
4.81476e-07
-9.13269e-08
-9.12317e-08
3.71935e-07
2.84117e-08
6.42421e-08
3.68394e-07
2.83808e-08
6.42623e-08
3.64908e-07
2.83258e-08
6.43177e-08
3.61515e-07
2.82666e-08
6.4412e-08
3.58219e-07
2.82077e-08
6.45051e-08
2.81004e-08
6.46301e-08
8.00958e-07
5.27748e-08
5.5449e-08
7.98448e-07
5.27921e-08
5.54764e-08
7.95881e-07
5.27434e-08
5.55232e-08
7.93217e-07
5.27381e-08
5.55401e-08
7.90416e-07
5.27736e-08
5.55431e-08
5.2744e-08
5.5551e-08
1.13011e-06
6.98974e-08
4.21184e-08
1.13073e-06
6.99954e-08
4.20745e-08
1.1312e-06
7.00389e-08
4.21003e-08
1.13154e-06
7.0128e-08
4.20696e-08
1.13171e-06
7.02577e-08
4.20162e-08
7.02914e-08
4.20062e-08
1.35913e-06
7.98309e-08
2.7115e-08
1.36185e-06
7.99302e-08
2.71092e-08
1.36448e-06
8.00062e-08
2.71643e-08
1.36704e-06
8.01225e-08
2.71351e-08
1.36955e-06
8.02781e-08
2.70437e-08
8.03658e-08
2.70339e-08
1.49952e-06
9.47691e-09
1.50298e-06
8.35975e-08
9.54532e-09
1.50641e-06
8.36421e-08
9.6188e-09
1.50982e-06
8.37031e-08
9.68696e-09
1.51324e-06
8.37896e-08
9.70192e-09
8.38599e-08
9.77453e-09
1.55583e-06
8.14745e-08
-8.94875e-09
1.55918e-06
8.14613e-08
-8.87405e-09
1.56252e-06
8.14617e-08
-8.78831e-09
1.56586e-06
8.14532e-08
-8.71415e-09
8.14546e-08
-8.5784e-09
1.51433e-06
7.346e-08
-2.6278e-08
1.51723e-06
7.34055e-08
-2.62135e-08
1.52006e-06
7.33775e-08
-2.61128e-08
1.52289e-06
7.32913e-08
-2.60569e-08
7.32327e-08
-2.59425e-08
1.37333e-06
5.98547e-08
-4.10098e-08
1.3754e-06
5.98066e-08
-4.09736e-08
1.37736e-06
5.97699e-08
-4.085e-08
1.37925e-06
5.96443e-08
-4.08069e-08
5.95523e-08
-4.07381e-08
1.13062e-06
4.20045e-08
-5.27709e-08
1.13112e-06
4.2013e-08
-5.27383e-08
1.13147e-06
4.20396e-08
-5.27038e-08
1.13166e-06
4.19899e-08
-5.27369e-08
4.19083e-08
-5.27393e-08
7.7457e-07
2.2441e-08
-6.07295e-08
7.72136e-07
2.24951e-08
-6.06789e-08
7.69633e-07
2.25564e-08
-6.06373e-08
7.67015e-07
2.25729e-08
-6.06428e-08
2.25818e-08
-6.07045e-08
3.37665e-07
-6.61723e-08
3.34865e-07
-6.61282e-08
3.32139e-07
-6.60902e-08
3.29457e-07
-6.60721e-08
-6.60306e-08
1.90175e-07
3.20178e-08
3.40831e-08
1.88331e-07
3.2007e-08
3.40997e-08
1.86536e-07
3.19862e-08
3.41269e-08
1.84793e-07
3.19943e-08
3.416e-08
1.83095e-07
3.20103e-08
3.41927e-08
3.20251e-08
3.42293e-08
4.8531e-07
6.07193e-08
2.98638e-08
4.82195e-07
6.0723e-08
2.9875e-08
4.79107e-07
6.06919e-08
2.99057e-08
4.76035e-07
6.07035e-08
2.99026e-08
4.72983e-07
6.07166e-08
2.98894e-08
6.07331e-08
2.98763e-08
7.76968e-07
8.25367e-08
2.24704e-08
7.74682e-07
8.2611e-08
2.24729e-08
7.72316e-07
8.26288e-08
2.25295e-08
7.69838e-07
8.26913e-08
2.25596e-08
7.67229e-07
8.27644e-08
8.28229e-08
9.9906e-07
9.641e-08
1.40323e-08
9.98165e-07
9.64885e-08
1.41273e-08
9.97174e-07
9.65489e-08
1.42351e-08
9.96057e-07
9.66418e-08
1.43008e-08
9.94774e-07
9.6762e-08
1.43291e-08
9.68814e-08
1.14007e-06
3.48238e-09
1.13954e-06
1.0291e-07
3.66155e-09
1.13894e-06
1.02941e-07
3.81912e-09
1.13831e-06
1.02997e-07
3.96988e-09
1.13763e-06
1.03069e-07
4.07161e-09
1.03132e-07
1.19668e-06
1.01801e-07
-6.86881e-09
1.19566e-06
1.01812e-07
-6.72793e-09
1.19462e-06
1.0184e-07
-6.59206e-09
1.19357e-06
1.01863e-07
-6.45399e-09
1.01888e-07
-6.31139e-09
1.16032e-06
9.31904e-08
-1.62209e-08
1.15883e-06
9.31754e-08
-1.60899e-08
1.15729e-06
9.31925e-08
-1.59281e-08
1.1557e-06
9.31822e-08
-1.57834e-08
9.3166e-08
-1.5636e-08
1.02617e-06
7.73149e-08
-2.33718e-08
1.02429e-06
7.72934e-08
-2.32081e-08
1.02226e-06
7.72845e-08
-2.29099e-08
1.02008e-06
7.72399e-08
-2.26851e-08
7.72005e-08
-2.25062e-08
7.98453e-07
5.5423e-08
-2.83563e-08
7.95852e-07
5.54638e-08
-2.83078e-08
7.93183e-07
5.54899e-08
-2.82399e-08
7.90391e-07
5.54815e-08
-2.8186e-08
5.5459e-08
-2.80976e-08
4.82205e-07
2.9837e-08
-3.20147e-08
4.79098e-07
2.98749e-08
-3.19835e-08
4.76016e-07
2.98976e-08
-3.19629e-08
4.72943e-07
2.98839e-08
-3.19725e-08
2.98405e-08
-3.20099e-08
1.77091e-07
-3.46977e-08
1.75528e-07
-3.46899e-08
1.74028e-07
-3.46926e-08
1.72551e-07
-3.47115e-08
-3.47354e-08
5.85971e-08
3.47075e-08
5.79871e-08
3.47097e-08
5.74013e-08
3.47127e-08
5.68307e-08
3.47306e-08
5.62708e-08
3.47525e-08
3.47687e-08
1.7876e-07
6.62179e-08
1.77147e-07
6.61978e-08
1.75596e-07
6.61692e-08
1.7408e-07
6.61491e-08
1.72591e-07
3.40603e-07
9.15646e-08
3.37758e-07
9.15159e-08
3.34985e-07
9.14715e-08
9.14214e-08
4.96506e-07
1.09392e-07
4.92764e-07
1.09385e-07
4.89084e-07
1.09387e-07
4.85455e-07
1.09351e-07
1.09299e-07
6.13947e-07
6.08945e-07
1.18048e-07
6.04062e-07
1.18089e-07
5.99266e-07
1.18117e-07
1.18124e-07
6.60265e-07
1.17128e-07
6.54438e-07
1.17188e-07
6.48709e-07
1.17254e-07
6.43056e-07
1.17322e-07
1.17371e-07
6.30617e-07
1.07179e-07
6.2449e-07
1.07225e-07
6.18523e-07
1.07293e-07
6.12702e-07
1.0736e-07
1.07424e-07
5.24849e-07
8.90749e-08
5.19746e-07
8.91198e-08
5.14897e-07
8.92321e-08
5.10233e-07
8.93389e-08
8.94502e-08
3.68478e-07
6.42463e-08
3.64999e-07
6.42906e-08
3.61623e-07
6.43676e-08
3.58331e-07
6.44451e-08
6.45571e-08
1.88342e-07
3.40771e-08
1.86548e-07
3.41009e-08
1.84821e-07
3.41318e-08
1.83133e-07
3.41597e-08
3.41885e-08
5.79737e-08
5.73847e-08
5.6824e-08
5.62722e-08
)
;

boundaryField
{
    inlet
    {
        type            calculated;
        value           nonuniform List<scalar> 0();
    }
    ami1
    {
        type            cyclicAMI;
        value           nonuniform List<scalar> 0();
    }
    walls
    {
        type            calculated;
        value           nonuniform List<scalar> 
250
(
2.90979e-14
2.43942e-14
1.84387e-14
1.28555e-14
6.40674e-15
3.83864e-22
-6.40674e-15
-1.28555e-14
-1.84387e-14
-2.43942e-14
-2.90979e-14
2.90979e-14
2.43942e-14
1.84387e-14
1.28555e-14
6.40674e-15
3.23376e-22
-6.40674e-15
-1.28555e-14
-1.84387e-14
-2.43942e-14
-2.90979e-14
2.90979e-14
2.43942e-14
1.84387e-14
1.28555e-14
6.40674e-15
3.83864e-22
-6.40674e-15
-1.28555e-14
-1.84387e-14
-2.43942e-14
-2.90979e-14
2.90979e-14
2.43942e-14
1.84387e-14
1.28555e-14
6.40674e-15
3.84122e-22
-6.40674e-15
-1.28555e-14
-1.84387e-14
-2.43942e-14
-2.90979e-14
2.90979e-14
2.43942e-14
1.84387e-14
1.28555e-14
6.40674e-15
3.84122e-22
-6.40674e-15
-1.28555e-14
-1.84387e-14
-2.43942e-14
-2.90979e-14
1.28555e-14
6.40674e-15
3.84122e-22
-6.40674e-15
-1.28555e-14
-1.84387e-14
-2.43942e-14
-2.90979e-14
3.84122e-22
-6.40674e-15
-1.28555e-14
-1.84387e-14
2.90979e-14
2.43942e-14
1.84387e-14
1.28555e-14
6.40674e-15
3.83864e-22
-6.40674e-15
-1.28555e-14
-1.84387e-14
-2.43942e-14
-2.90979e-14
2.90979e-14
2.43942e-14
1.84387e-14
1.28555e-14
6.40674e-15
3.23376e-22
-6.40674e-15
-1.28555e-14
-1.84387e-14
-2.43942e-14
-2.90979e-14
2.90979e-14
2.43942e-14
1.84387e-14
1.28555e-14
6.40674e-15
3.83864e-22
-6.40674e-15
-1.28555e-14
-1.84387e-14
-2.43942e-14
-2.90979e-14
2.90979e-14
2.43942e-14
1.84387e-14
1.28555e-14
6.40674e-15
3.84122e-22
-6.40674e-15
-1.28555e-14
-1.84387e-14
-2.43942e-14
-2.90979e-14
2.90979e-14
2.43942e-14
1.84387e-14
1.28555e-14
6.40674e-15
3.84122e-22
-6.40674e-15
-1.28555e-14
-1.84387e-14
-2.43942e-14
-2.90979e-14
2.90979e-14
2.43942e-14
1.84387e-14
1.28555e-14
6.40674e-15
-2.90979e-14
-2.43942e-14
-1.84387e-14
-1.28555e-14
-6.40674e-15
-2.90979e-14
-2.43942e-14
-1.84387e-14
-1.28555e-14
-6.40674e-15
3.8472e-22
6.40674e-15
1.28555e-14
1.84387e-14
2.43942e-14
2.90979e-14
-2.90979e-14
-2.43942e-14
-1.84387e-14
-1.28555e-14
-6.40674e-15
8.29071e-22
6.40674e-15
1.28555e-14
1.84387e-14
2.43942e-14
2.90979e-14
-2.90979e-14
-2.43942e-14
-1.84387e-14
-1.28555e-14
-6.40674e-15
3.83944e-22
6.40674e-15
1.28555e-14
1.84387e-14
2.43942e-14
2.90979e-14
-2.90979e-14
-2.43942e-14
-1.28555e-14
-6.40674e-15
3.83944e-22
6.40674e-15
1.28555e-14
1.84387e-14
2.43942e-14
2.90979e-14
-2.90979e-14
-2.43942e-14
3.83944e-22
6.40674e-15
1.28555e-14
1.84387e-14
2.43942e-14
2.90979e-14
6.40674e-15
1.28555e-14
1.84387e-14
2.43942e-14
2.90979e-14
-2.90979e-14
-2.43942e-14
-1.84387e-14
-1.28555e-14
-6.40674e-15
3.8472e-22
6.40674e-15
1.28555e-14
1.84387e-14
2.43942e-14
2.90979e-14
-2.90979e-14
-2.43942e-14
-1.84387e-14
-1.28555e-14
-6.40674e-15
8.29071e-22
6.40674e-15
1.28555e-14
1.84387e-14
2.43942e-14
2.90979e-14
-2.90979e-14
-2.43942e-14
-1.84387e-14
-1.28555e-14
-6.40674e-15
3.83944e-22
6.40674e-15
1.28555e-14
1.84387e-14
2.43942e-14
2.90979e-14
-2.90979e-14
-2.43942e-14
-1.84387e-14
-1.28555e-14
-6.40674e-15
3.83944e-22
6.40674e-15
1.28555e-14
1.84387e-14
2.43942e-14
2.90979e-14
-2.90979e-14
-2.43942e-14
-1.84387e-14
-1.28555e-14
-6.40674e-15
3.83944e-22
6.40674e-15
1.28555e-14
1.84387e-14
2.43942e-14
2.90979e-14
-2.43942e-14
-1.84387e-14
-1.28555e-14
-6.40674e-15
3.83944e-22
-1.84387e-14
-1.28555e-14
)
;
    }
    ami2
    {
        type            cyclicAMI;
        value           nonuniform List<scalar> 0();
    }
    outlet
    {
        type            calculated;
        value           nonuniform List<scalar> 0();
    }
    procBoundary5to6
    {
        type            processor;
        value           nonuniform List<scalar> 
177
(
5.56834e-08
-3.47634e-08
1.81314e-07
3.54683e-07
8.95723e-08
-2.80337e-08
5.00491e-07
6.00441e-07
1.17448e-07
6.25524e-07
6.03994e-09
5.79916e-07
-4.68679e-09
4.70397e-07
3.2157e-07
-6.59404e-08
1.69524e-07
2.98878e-08
5.51497e-08
1.69633e-07
-2.98499e-08
-6.59732e-08
4.69587e-07
5.55014e-08
-6.07392e-08
7.84214e-07
1.0152e-06
1.15226e-06
1.19125e-06
1.13577e-06
9.70993e-08
9.89762e-07
-2.69424e-08
7.58288e-07
-4.19641e-08
4.63482e-07
-3.19824e-08
1.79725e-07
3.21813e-07
-2.27394e-08
7.61339e-07
-8.28192e-08
1.13165e-06
1.38288e-06
1.52861e-06
1.57272e-06
1.52017e-06
-1.66931e-08
1.37444e-06
1.13167e-06
5.26726e-08
7.81162e-07
-2.79136e-08
-7.72192e-08
3.51647e-07
4.70738e-07
1.09025e-07
9.89942e-07
-2.70191e-08
9.7099e-08
1.37436e-06
8.04876e-08
1.62993e-06
5.8624e-08
1.77896e-06
3.2987e-08
1.82666e-06
-5.97053e-08
4.95254e-09
1.77091e-06
5.8574e-08
1.63001e-06
-4.98259e-08
1.38296e-06
-7.31604e-08
1.0153e-06
-9.31524e-08
5.0072e-07
5.84753e-07
1.13592e-06
-9.90401e-09
1.5166e-06
8.38581e-08
1.77075e-06
5.97382e-08
1.92047e-06
3.18362e-08
1.96981e-06
1.92053e-06
1.77368e-06
1.52576e-06
1.15395e-06
1.55587e-08
6.00788e-07
-1.17366e-07
6.31543e-07
1.17444e-07
8.57668e-09
1.19122e-06
8.46776e-09
1.01999e-07
1.56579e-06
-8.14826e-08
1.81529e-06
-5.67545e-08
1.96318e-06
-1.63891e-09
-2.84621e-08
2.01931e-06
1.96976e-06
1.82097e-06
1.56926e-06
1.19239e-06
6.36853e-07
6.06614e-07
1.15396e-06
1.52574e-06
1.77358e-06
1.92034e-06
1.96969e-06
1.92045e-06
1.77083e-06
1.51669e-06
1.13673e-06
5.89266e-07
5.05464e-07
1.01771e-06
1.38117e-06
1.62551e-06
1.77066e-06
1.82086e-06
1.77362e-06
1.62559e-06
1.37201e-06
9.93159e-07
4.77837e-07
3.55029e-07
7.87509e-07
1.1318e-06
1.37199e-06
1.51664e-06
1.56922e-06
1.52572e-06
1.3811e-06
1.13174e-06
7.64272e-07
3.26838e-07
1.81471e-07
4.69949e-07
2.25776e-08
7.64507e-07
2.26384e-08
9.93366e-07
1.43839e-08
1.13692e-06
4.23432e-09
1.19254e-06
1.15411e-06
1.01781e-06
7.8749e-07
4.69867e-07
1.71096e-07
5.57314e-08
6.61311e-08
1.71163e-07
6.60728e-08
3.32272e-07
-9.13687e-08
4.81854e-07
5.94513e-07
-1.18114e-07
6.37489e-07
6.07013e-07
5.057e-07
3.55127e-07
1.81492e-07
5.57253e-08
)
;
    }
    procBoundary5to7
    {
        type            processor;
        value           nonuniform List<scalar> 
131
(
-5.8555e-08
-1.90047e-07
-3.71707e-07
-5.29621e-07
-6.36209e-07
-6.65568e-07
-6.13487e-07
-4.962e-07
-3.40375e-07
-1.78637e-07
-5.85617e-08
-1.78639e-07
-4.85107e-07
-8.00766e-07
-1.02775e-06
-1.16158e-06
-1.19745e-06
-1.13982e-06
-9.98803e-07
-7.76802e-07
-4.85177e-07
-1.90094e-07
-3.40396e-07
-7.76784e-07
-1.12994e-06
-1.37114e-06
-1.5114e-06
-1.55245e-06
-1.49943e-06
-1.35903e-06
-1.13e-06
-8.00895e-07
-3.71848e-07
-4.96275e-07
-9.98834e-07
-1.35897e-06
-1.60337e-06
-1.74733e-06
-1.793e-06
-1.74361e-06
-1.60341e-06
-1.37116e-06
-1.02787e-06
-5.2992e-07
-6.13686e-07
-1.13988e-06
-1.49934e-06
-1.74352e-06
-1.88888e-06
-1.93689e-06
-1.88891e-06
-1.74727e-06
-1.51132e-06
-1.16164e-06
-6.36642e-07
-6.65937e-07
-1.17086e-07
-1.1975e-06
-1.01823e-07
-1.55234e-06
-8.15348e-08
-1.79287e-06
-5.68331e-08
-1.93681e-06
-2.84901e-08
-1.98503e-06
-1.93687e-06
-1.79293e-06
-1.55238e-06
-1.19752e-06
-6.65919e-07
-6.43106e-07
-1.16307e-06
-1.50842e-06
-1.74201e-06
-1.88257e-06
3.17262e-08
-1.93685e-06
-1.88891e-06
-1.74359e-06
-1.4994e-06
-1.1399e-06
-6.13739e-07
-5.35329e-07
-1.02964e-06
-1.36901e-06
-1.59897e-06
-1.73822e-06
5.95493e-08
-1.79297e-06
-1.74732e-06
-1.60343e-06
-1.35901e-06
-9.98871e-07
-4.96389e-07
-3.75493e-07
-8.03374e-07
-1.12937e-06
-1.35636e-06
-1.49607e-06
8.35617e-08
-1.55248e-06
-1.51139e-06
-1.37118e-06
-1.12998e-06
-7.76909e-07
-3.40535e-07
-1.92034e-07
-4.88426e-07
-7.79138e-07
-9.99851e-07
-1.14056e-06
1.02892e-07
-1.19765e-06
-1.16176e-06
-1.02794e-06
-8.00976e-07