/*--------------------------------*- C++ -*----------------------------------*\
| =========                 |                                                 |
| \\      /  F ield         | OpenFOAM: The Open Source CFD Toolbox           |
|  \\    /   O peration     | Version:  2212                                  |
|   \\  /    A nd           | Website:  www.openfoam.com                      |
|    \\/     M anipulation  |                                                 |
\*---------------------------------------------------------------------------*/
FoamFile
{
    version     2.0;
    format      ascii;
    arch        "LSB;label=32;scalar=64";
    class       volScalarField;
    location    "1.55";
    object      p;
}
// * * * * * * * * * * * * * * * * * * * * * * * * * * * * * * * * * * * * * //

dimensions      [0 2 -2 0 0 0 0];

internalField   nonuniform List<scalar> 
678
(
0.000628122
0.000515698
0.000401088
0.000285721
0.000173261
5.34498e-05
0.000622785
0.000510271
0.000395968
0.000281658
0.00016967
5.2255e-05
0.000618025
0.000506577
0.000392435
0.00027854
0.000167691
5.12978e-05
0.00050664
0.000392918
0.000279373
0.000168519
5.11882e-05
0.000508643
0.000394589
0.000280614
0.00016922
5.11947e-05
0.000399056
0.000284175
0.000171441
5.24014e-05
0.000405332
0.000289559
0.000175152
5.44583e-05
0.000409503
0.000292411
0.000176327
5.52167e-05
0.000408253
0.000290761
0.000174325
5.43869e-05
0.000524033
0.000410459
0.000292819
0.000176115
5.52387e-05
0.000517355
0.000404145
0.000287389
0.000173444
5.33072e-05
0.000522346
0.000406849
0.00029054
0.000175479
5.51412e-05
0.000633453
0.000521748
0.000405845
0.000289305
0.000175613
5.54755e-05
0.000509087
0.000395286
0.00028141
0.000170288
5.34291e-05
0.000503568
0.000391246
0.000279176
0.000168139
5.32066e-05
0.000500601
0.000387825
0.000276077
0.000165621
5.30259e-05
0.000501339
0.000387706
0.000275683
0.000164999
5.34383e-05
0.000501501
0.000387817
0.000275566
0.000164607
5.35702e-05
0.000393348
0.000280892
0.000169773
5.50766e-05
0.000400867
0.000286512
0.000173953
5.54885e-05
0.000409106
0.000292039
0.000176613
5.57318e-05
0.000512269
0.000399186
0.000283184
0.000169543
5.19524e-05
0.000405895
0.000289155
0.000173934
5.4241e-05
0.000514753
0.000401146
0.00028641
0.00017372
5.5073e-05
0.000485229
0.00037555
0.000266759
0.000158345
5.13622e-05
0.000475141
0.000367005
0.000259986
0.000152991
5.20753e-05
0.000466637
0.000358569
0.000252473
0.000147554
5.15195e-05
0.000464908
0.000356582
0.000251023
0.000146607
5.18654e-05
0.000464415
0.00035565
0.000250381
0.000146124
5.15895e-05
0.000472917
0.000362089
0.000255694
0.000150312
5.17916e-05
0.000485251
0.000372675
0.000264419
0.000157613
5.12133e-05
0.000394733
0.000281184
0.000170191
5.36716e-05
0.000507682
0.000394462
0.000279423
0.000167164
5.09165e-05
0.00040828
0.000291557
0.000175964
5.49039e-05
0.000393629
0.000280794
0.000169477
5.514e-05
0.000472319
0.000362767
0.000256405
0.000150661
5.22119e-05
0.000462155
0.000355751
0.000252126
0.000148759
5.52052e-05
0.000454065
0.000348934
0.000246855
0.000145655
5.55109e-05
0.000453221
0.000348426
0.000246645
0.000145779
5.60802e-05
0.000563279
0.000453417
0.000348531
0.000246906
0.000145909
5.58233e-05
0.000461681
0.000354896
0.000251566
0.000148589
5.51182e-05
0.000474018
0.000365287
0.000259169
0.000153086
5.18967e-05
0.000503166
0.000389878
0.000277957
0.000167666
5.33024e-05
0.000506632
0.000392928
0.000278898
0.000167532
5.09224e-05
0.000518867
0.000404189
0.000288524
0.000174518
5.41804e-05
0.000499864
0.000386602
0.000274888
0.000164307
5.35786e-05
0.000576574
0.000464065
0.000356015
0.000251035
0.000146615
5.17682e-05
0.000562943
0.00045431
0.0003497
0.000247741
0.00014636
5.59977e-05
0.000553792
0.000446854
0.000344308
0.00024432
0.000145695
5.75733e-05
0.000552249
0.000445876
0.000343807
0.000244246
0.000146097
5.82604e-05
0.000553821
0.000447273
0.000344691
0.000244466
0.000145657
5.74984e-05
0.000563658
0.000455034
0.000350013
0.000247673
0.000146233
5.56548e-05
0.000577333
0.000466801
0.000358774
0.000252893
0.000148118
5.14665e-05
0.00061467
0.000499766
0.000386927
0.000275273
0.000165061
5.27101e-05
0.000506261
0.000392116
0.000278911
0.000168063
5.1018e-05
0.000512524
0.000397593
0.000283027
0.000170824
5.19757e-05
0.000499451
0.00038643
0.000274866
0.000164334
5.31489e-05
0.000689366
0.000575356
0.000464267
0.000356893
0.000251605
0.000147177
5.2287e-05
0.000672935
0.000562566
0.00045558
0.00035111
0.000248534
0.000146929
5.65307e-05
0.000661946
0.000552933
0.000447967
0.000345696
0.000245288
0.000146505
5.83401e-05
0.000550441
0.00044559
0.000344144
0.000244788
0.000146195
5.88009e-05
0.00055234
0.000446828
0.000344867
0.000244929
0.000146402
5.83353e-05
0.000562338
0.000455093
0.000350496
0.000247978
0.000146504
5.62799e-05
0.000576003
0.000466349
0.000358124
0.000251836
0.000147054
5.19559e-05
0.000615389
0.000500615
0.000387207
0.000274987
0.000164318
5.30866e-05
0.000624862
0.000510009
0.000395433
0.000281885
0.000170275
5.21496e-05
0.000620322
0.000506485
0.000392377
0.000279245
0.000168449
5.10785e-05
0.000614273
0.000499989
0.000387221
0.000275175
0.000164743
5.25584e-05
0.000577327
0.000467548
0.000359456
0.000253129
0.000148118
5.14434e-05
0.000563413
0.00045625
0.000351639
0.00024891
0.000146972
5.58847e-05
0.000553638
0.000448033
0.000345772
0.000245286
0.000146133
5.76533e-05
0.00055246
0.000447075
0.000345171
0.000245158
0.000146521
5.83656e-05
0.000553958
0.000448095
0.000345699
0.000245224
0.000146086
5.76268e-05
0.000563242
0.000455931
0.000351152
0.000248305
0.000146359
5.58077e-05
0.000576552
0.00046706
0.000358776
0.000252079
0.000146669
5.15009e-05
0.000613943
0.000500407
0.000387663
0.00027536
0.000164348
5.3401e-05
0.000629988
0.000515237
0.000400605
0.000286672
0.000173901
5.42301e-05
0.000617521
0.000503872
0.000390313
0.000278069
0.000167855
5.12068e-05
0.000615696
0.000502565
0.000390054
0.000277752
0.000167071
5.29972e-05
0.000586353
0.000476754
0.000368121
0.000259969
0.000152641
5.14401e-05
0.00057328
0.00046495
0.000358479
0.000253718
0.000149396
5.49622e-05
0.000563235
0.000456055
0.000351449
0.000248562
0.000146497
5.58454e-05
0.000562531
0.000455612
0.000351239
0.000248537
0.000146869
5.64593e-05
0.000563855
0.000456612
0.000351852
0.00024891
0.000146869
5.5789e-05
0.000573343
0.000465065
0.000358588
0.000253729
0.000149383
5.49693e-05
0.000585054
0.00047518
0.000366365
0.000258277
0.000151106
5.17334e-05
0.000619261
0.000505681
0.000392702
0.000280034
0.000168858
5.49003e-05
0.000634123
0.000518492
0.000402892
0.000288235
0.000174694
5.4995e-05
0.000617868
0.000503741
0.000389729
0.000277199
0.000167127
5.12877e-05
0.000620221
0.000506321
0.000392732
0.000279915
0.000169473
5.35286e-05
0.000597259
0.000486093
0.000376387
0.000266595
0.000157503
5.08023e-05
0.000585134
0.000475503
0.000366767
0.000258667
0.000151277
5.16749e-05
0.000576797
0.000467483
0.000359357
0.000252649
0.000147045
5.15917e-05
0.000576406
0.000466807
0.000358913
0.000252563
0.000147514
5.22633e-05
0.000577698
0.000468302
0.000360256
0.000253719
0.000148499
5.15493e-05
0.000586377
0.000476809
0.000368278
0.000260222
0.000152969
5.16189e-05
0.000597218
0.000485909
0.000376069
0.000266318
0.000157733
5.11663e-05
0.000625554
0.000511261
0.000397207
0.0002838
0.00017235
5.50671e-05
0.000632683
0.000517173
0.000401319
0.000286387
0.000172697
5.41232e-05
0.000622391
0.000507655
0.000393021
0.000279816
0.000168816
5.21784e-05
0.000632761
0.000517452
0.000401501
0.000286682
0.000174676
5.56327e-05
0.000625577
0.000511227
0.000397173
0.000283727
0.000172232
5.50363e-05
0.000619179
0.000505704
0.000392855
0.000280203
0.000168697
5.46774e-05
0.000613505
0.000500228
0.000387611
0.000275446
0.00016446
5.3388e-05
0.000615113
0.000500407
0.000387123
0.000275129
0.000164438
5.30752e-05
0.00061392
0.000499675
0.000386941
0.000275105
0.000164865
5.25955e-05
0.000615206
0.000502025
0.000389585
0.000277489
0.000166982
5.29805e-05
0.000619662
0.000505812
0.000392278
0.000279585
0.000169234
5.3422e-05
0.000632481
0.000517152
0.000401303
0.000286561
0.000174218
5.52252e-05
0.000634481
0.000518675
0.000402619
0.000287572
0.000173871
5.47812e-05
0.000627449
0.000512459
0.000397393
0.000283313
0.000172133
5.33774e-05
0.000634037
0.000518353
0.000402296
0.00028726
0.000173844
5.49261e-05
0.000854634
0.000744082
0.000632064
0.000516655
0.000400753
0.00028582
0.000172695
5.43518e-05
0.0007454
0.000633402
0.00051773
0.000402186
0.000287731
0.000174492
5.49688e-05
0.00074078
0.000628925
0.000514136
0.000399532
0.000285824
0.000173432
5.40711e-05
0.000623497
0.000508778
0.000393992
0.000280691
0.000169704
5.18118e-05
0.000618318
0.000504102
0.000390078
0.000277545
0.000167455
5.08746e-05
0.000616013
0.000502369
0.00038887
0.000276833
0.000167008
5.09735e-05
0.000616646
0.000502628
0.000388725
0.000276311
0.000166445
5.10471e-05
0.000621467
0.000506764
0.000392226
0.000279132
0.000168254
5.19297e-05
0.000627099
0.000512068
0.000397014
0.000282965
0.000171728
5.311e-05
)
;

boundaryField
{
    inlet
    {
        type            zeroGradient;
    }
    ami1
    {
        type            cyclicAMI;
        value           nonuniform List<scalar> 0();
    }
    walls
    {
        type            zeroGradient;
    }
    ami2
    {
        type            cyclicAMI;
        value           nonuniform List<scalar> 0();
    }
    outlet
    {
        type            fixedValue;
        value           uniform 0;
    }
    procBoundary6to5
    {
        type            processor;
        value           nonuniform List<scalar> 
177
(
0.000738989
0.000635378
0.000733549
0.000728232
0.000617476
0.000620379
0.000617476
0.000620042
0.000513352
0.000513352
0.000513352
0.000519521
0.000519521
0.00052333
0.000522105
0.000522105
0.000634463
0.000522273
0.00062769
0.000635378
0.000635378
0.000521597
0.000743542
0.000620379
0.000625772
0.000620379
0.000616027
0.000614928
0.000616236
0.000615541
0.000507686
0.000507686
0.000507686
0.000514603
0.000514603
0.000522273
0.000522273
0.000622386
0.000521597
0.000521597
0.000625772
0.000507021
0.000597954
0.000587183
0.000578278
0.000576609
0.000577458
0.000577458
0.000587062
0.000599646
0.000508949
0.000508949
0.000508949
0.000508949
0.000618186
0.000522936
0.000522936
0.000507021
0.000507021
0.000507021
0.000586461
0.000586461
0.00057364
0.00057364
0.000564081
0.000564081
0.00056259
0.00056259
0.00056259
0.000676359
0.000573697
0.000573697
0.000573697
0.000586675
0.000586675
0.00061698
0.00061698
0.000617952
0.000630743
0.000615154
0.000615154
0.000691449
0.000691449
0.000675464
0.000675464
0.000665228
0.000665228
0.000663128
0.00066495
0.000675773
0.000690671
0.000730154
0.000620162
0.000620162
0.000620162
0.000625334
0.000625334
0.000731891
0.000615087
0.000615087
0.000615087
0.000803672
0.000690356
0.000785835
0.000674794
0.000774244
0.000659801
0.000664237
0.000659801
0.000662562
0.000673405
0.00068849
0.000730904
0.000737377
0.00073165
0.000729666
0.000690356
0.000674794
0.000664237
0.000662621
0.000664632
0.000674665
0.000689434
0.000728607
0.000741908
0.000728347
0.000728792
0.00069938
0.000685644
0.000674825
0.000673473
0.000675115
0.000685435
0.000698592
0.000732756
0.000746205
0.000729354
0.00073262
0.000710847
0.000698465
0.000689655
0.000688829
0.00069021
0.000699404
0.000711141
0.000738134
0.00074477
0.000734032
0.000744469
0.00085004
0.000738038
0.000738038
0.000732345
0.000732345
0.000727894
0.000727894
0.000730373
0.0007291
0.000728449
0.000732128
0.000744296
0.00074677
0.000739168
0.000856905
0.000746065
0.000746065
0.000967381
0.000855538
0.000855538
0.000851658
0.000735948
0.000735948
0.000729942
0.000726952
0.000728126
0.000733216
0.000738989
)
;
    }
}


// ************************************************************************* //
