/*--------------------------------*- C++ -*----------------------------------*\
| =========                 |                                                 |
| \\      /  F ield         | OpenFOAM: The Open Source CFD Toolbox           |
|  \\    /   O peration     | Version:  2212                                  |
|   \\  /    A nd           | Website:  www.openfoam.com                      |
|    \\/     M anipulation  |                                                 |
\*---------------------------------------------------------------------------*/
FoamFile
{
    version     2.0;
    format      ascii;
    arch        "LSB;label=32;scalar=64";
    class       volScalarField;
    location    "1.6";
    object      epsilon;
}
// * * * * * * * * * * * * * * * * * * * * * * * * * * * * * * * * * * * * * //

dimensions      [0 2 -3 0 0 0 0];

internalField   nonuniform List<scalar> 
678
(
0.0862452
0.0845352
0.0828555
0.0811628
0.0794945
0.0319661
0.0312838
0.0306339
0.0300063
0.0293847
0.0213343
0.0208379
0.0203646
0.0199113
0.0194829
0.0164197
0.0159922
0.0155879
0.0152052
0.0148481
0.0145094
0.0142693
0.0138828
0.01352
0.0131737
0.0128461
0.0125345
0.0134185
0.013075
0.012735
0.012382
0.0120511
0.0117513
0.011472
0.013601
0.0132387
0.0128806
0.0125227
0.0122052
0.0119091
0.01163
0.0149925
0.0145825
0.0142111
0.0138578
0.0135123
0.0131756
0.0128432
0.0187225
0.0182568
0.0178152
0.0173864
0.0169725
0.016554
0.0161464
0.0292121
0.0285546
0.0279338
0.0273282
0.0267365
0.0261456
0.0862683
0.084561
0.0828818
0.0812086
0.0795764
0.0779986
0.0292136
0.0285583
0.0279388
0.0273296
0.026713
0.0260834
0.01177
0.0115187
0.0111972
0.0108669
0.0105333
0.00790579
0.00773269
0.00754498
0.00723997
0.00707429
0.00685952
0.00645799
0.00632611
0.00619556
0.00593336
0.00581795
0.00561726
0.00582898
0.00566431
0.00555045
0.00533834
0.00522953
0.00504375
0.00556056
0.00541497
0.00527224
0.00511493
0.00499139
0.0048046
0.0055649
0.00542146
0.00528211
0.00506874
0.00494592
0.00475125
0.00595188
0.00579856
0.00565048
0.00536076
0.00523206
0.00501376
0.00486355
0.0071018
0.00691603
0.00673175
0.00640659
0.00625386
0.00600636
0.00583232
0.0117738
0.0115226
0.0112
0.0108673
0.0105678
0.0102978
0.00999936
0.0319882
0.0313054
0.0306552
0.0300287
0.0294224
0.0288322
0.0187364
0.0182736
0.0178349
0.0174088
0.0169964
0.016589
0.0161601
0.00709895
0.00690999
0.00672746
0.00640365
0.0062519
0.0060351
0.00510757
0.00499039
0.00485478
0.0046087
0.00449568
0.00431381
0.00457372
0.00446096
0.00434374
0.00418465
0.00407684
0.00390096
0.00448656
0.00433687
0.00419679
0.0040632
0.0039529
0.00381135
0.00443873
0.00429627
0.00415904
0.00402544
0.00391094
0.00378945
0.00444955
0.0043033
0.00416429
0.00402933
0.00391545
0.00378421
0.00453782
0.00441795
0.00430436
0.00410224
0.00398949
0.00381036
0.00511964
0.00500176
0.00487176
0.00461801
0.00451154
0.00432415
0.00791179
0.00773665
0.00754787
0.00724203
0.00707671
0.0068444
0.00671427
0.0213564
0.0208592
0.0203848
0.0199305
0.019499
0.0190889
0.0150095
0.0146013
0.0142321
0.0138816
0.0135381
0.0132035
0.0128707
0.00594144
0.00578671
0.00563971
0.0053575
0.00522285
0.00500866
0.00490062
0.00449478
0.00438184
0.00425564
0.00410943
0.00398682
0.0038229
0.00430034
0.00420258
0.00403993
0.00388708
0.00370236
0.00361419
0.00433836
0.00421407
0.0040564
0.00390222
0.00371726
0.00364053
0.00435848
0.00423522
0.00407385
0.00391837
0.00372245
0.0037085
0.00432767
0.00421199
0.00405379
0.00388804
0.00374295
0.00430396
0.00420445
0.00404226
0.00388247
0.00371009
0.00362649
0.00457528
0.00446447
0.00435049
0.0041822
0.00407593
0.00393512
0.00646082
0.00632994
0.00619643
0.00593742
0.00581266
0.0056469
0.0164387
0.01601
0.0156046
0.0152201
0.0148611
0.0145191
0.0136184
0.0132589
0.0128967
0.0125546
0.0122233
0.0119329
0.00555904
0.00541061
0.00526169
0.00507674
0.00494056
0.00476479
0.00441442
0.00428694
0.00415377
0.00402986
0.00392738
0.00431686
0.00420541
0.00404696
0.00387388
0.00375026
0.00440114
0.00424243
0.0041119
0.00393756
0.003823
0.00445407
0.00429244
0.00415124
0.00397811
0.00385081
0.00440265
0.00424622
0.00411167
0.00394021
0.00380904
0.00433113
0.00420447
0.00404577
0.00387836
0.00373958
0.00448191
0.00433182
0.00419201
0.00406192
0.00396102
0.00582765
0.00569216
0.00554584
0.00535174
0.00522059
0.0142837
0.0138963
0.0135329
0.0131852
0.0128562
0.0125411
0.013438
0.0130925
0.0127568
0.0123958
0.0120792
0.0117649
0.00555365
0.00542549
0.0052731
0.00515042
0.00493114
0.00483707
0.00444697
0.00430002
0.00416298
0.00406352
0.00435582
0.00423485
0.00406679
0.00391071
0.00446045
0.00429685
0.00414553
0.00399895
0.0045119
0.00434242
0.00420621
0.00402505
0.00391783
0.00444969
0.00429092
0.00414522
0.00397115
0.00384627
0.0043472
0.00422096
0.0040607
0.0038881
0.00375666
0.00442931
0.0042864
0.00414926
0.00402068
0.00392297
0.0055494
0.00541895
0.00527323
0.00513817
0.00495479
0.0134299
0.0130861
0.0127464
0.0123942
0.0120627
0.014676
0.0142869
0.0139126
0.0135277
0.0131963
0.0128643
0.00599257
0.00583893
0.0056975
0.00550225
0.00537843
0.0051842
0.00464405
0.00448304
0.00433362
0.00419225
0.00407823
0.00395301
0.00449486
0.00432925
0.00416914
0.00401331
0.00383885
0.00374808
0.00459998
0.00441117
0.00423947
0.00407803
0.00390045
0.00380344
0.00446312
0.00429854
0.00414509
0.00396718
0.00384188
0.00439837
0.00424219
0.00410487
0.00393
0.0038013
0.00431922
0.0041991
0.00403981
0.00386702
0.00373468
0.00444184
0.00429179
0.0041517
0.004019
0.00391546
0.00555352
0.00541046
0.00526609
0.0050634
0.00493047
0.0136109
0.0132503
0.0128939
0.0125386
0.0122184
0.016873
0.0164376
0.0160144
0.0156025
0.0152281
0.0148664
0.00665092
0.00652034
0.00631534
0.00616603
0.00592425
0.00577951
0.00474812
0.00461754
0.00448603
0.00432599
0.004201
0.00401393
0.00446007
0.00430212
0.00415031
0.00399282
0.00382569
0.00368793
0.00448502
0.00431364
0.00414907
0.00399453
0.00382507
0.00370117
0.0043424
0.0041835
0.00404574
0.00387304
0.00374146
0.00432273
0.00419844
0.0040366
0.00386323
0.00372768
0.00429858
0.00419177
0.00403166
0.00385848
0.00371614
0.00453159
0.00440579
0.00428788
0.00410044
0.00396555
0.00594722
0.00578918
0.00564036
0.00535089
0.00520622
0.0150028
0.0145946
0.0142254
0.0138737
0.0135264
0.0218614
0.0213516
0.0208585
0.020386
0.0199356
0.0195093
0.00809675
0.00793014
0.00774627
0.00745505
0.00726999
0.00702084
0.00524231
0.00512716
0.00500066
0.00474893
0.0046319
0.00443416
0.00466209
0.00452972
0.00440359
0.00422458
0.0041001
0.00391002
0.00459657
0.00442916
0.00427733
0.00413381
0.00400474
0.00387886
0.00444156
0.00428693
0.00414279
0.00400868
0.00391002
0.00447641
0.00432396
0.00418211
0.00404983
0.00394756
0.0045693
0.00445584
0.00434021
0.00417599
0.00405661
0.00511434
0.00499469
0.00485761
0.0046122
0.00447738
0.00709834
0.00690557
0.00672561
0.00640211
0.00622114
0.0187344
0.0182732
0.0178345
0.0174072
0.0169903
0.0326808
0.0319859
0.0313207
0.0306797
0.0300567
0.0294432
0.0121121
0.011844
0.0115155
0.0111869
0.010892
0.0105643
0.00731183
0.00711719
0.00693349
0.00661077
0.0064503
0.00619715
0.00609675
0.00594167
0.00578703
0.00552568
0.00538149
0.00516054
0.00573583
0.00556169
0.00539165
0.00523504
0.00504044
0.00490807
0.00557366
0.00542127
0.00527117
0.005092
0.00495845
0.00582312
0.00568247
0.00553358
0.00533691
0.00520709
0.00645253
0.00631932
0.00618217
0.00592956
0.00578029
0.0079074
0.00774354
0.00749788
0.00728106
0.00701782
0.0117775
0.0115285
0.0112003
0.0108852
0.010547
0.0292326
0.0285818
0.0279652
0.0273582
0.0267472
0.088073
0.0863479
0.0846527
0.0829736
0.0813048
0.0797017
0.0298972
0.0292312
0.0286021
0.0279933
0.0273906
0.0267855
0.019215
0.0187387
0.0182895
0.0178553
0.0154536
0.0150159
0.0146152
0.0142492
0.0139027
0.0140034
0.0136263
0.0132685
0.0129158
0.0125657
0.0134406
0.0130979
0.0127606
0.012414
0.0120798
0.0142891
0.0139033
0.0135411
0.0131968
0.0128704
0.0164394
0.0160137
0.0156098
0.0152285
0.0148719
0.0213544
0.0208616
0.0203884
0.0199356
0.0195091
0.0319968
0.0313192
0.0306726
0.0300468
0.0294309
0.0863106
0.0846198
0.0829432
0.0812558
0.0796356
)
;

boundaryField
{
    inlet
    {
        type            fixedValue;
        value           nonuniform List<scalar> 0();
    }
    ami1
    {
        type            cyclicAMI;
        value           nonuniform List<scalar> 0();
    }
    walls
    {
        type            epsilonWallFunction;
        blending        stepwise;
        value           nonuniform List<scalar> 
250
(
0.0862452
0.0319661
0.0213343
0.0164197
0.0142693
0.0134185
0.013601
0.0149925
0.0187225
0.0292121
0.0862683
0.0845352
0.0312838
0.0208379
0.0159922
0.0138828
0.013075
0.0132387
0.0145825
0.0182568
0.0285546
0.084561
0.0828555
0.0306339
0.0203646
0.0155879
0.01352
0.012735
0.0128806
0.0142111
0.0178152
0.0279338
0.0828818
0.0811628
0.0300063
0.0199113
0.0152052
0.0131737
0.012382
0.0125227
0.0138578
0.0173864
0.0273282
0.0812086
0.0794945
0.0293847
0.0194829
0.0148481
0.0128461
0.0120511
0.0122052
0.0135123
0.0169725
0.0267365
0.0795764
0.0145094
0.0125345
0.0117513
0.0119091
0.0131756
0.016554
0.0261456
0.0779986
0.011472
0.01163
0.0128432
0.0161464
0.0862683
0.0319882
0.0213564
0.0164387
0.0142837
0.0134299
0.0136109
0.0150028
0.0187344
0.0292326
0.0863106
0.084561
0.0313054
0.0208592
0.01601
0.0138963
0.0130861
0.0132503
0.0145946
0.0182732
0.0285818
0.0846198
0.0828818
0.0306552
0.0203848
0.0156046
0.0135329
0.0127464
0.0128939
0.0142254
0.0178345
0.0279652
0.0829432
0.0812086
0.0300287
0.0199305
0.0152201
0.0131852
0.0123942
0.0125386
0.0138737
0.0174072
0.0273582
0.0812558
0.0795764
0.0294224
0.019499
0.0148611
0.0128562
0.0120627
0.0122184
0.0135264
0.0169903
0.0267472
0.0796356
0.0779986
0.0288322
0.0190889
0.0145191
0.0125411
0.088073
0.0298972
0.019215
0.0154536
0.0140034
0.0863479
0.0292312
0.0187387
0.0150159
0.0136263
0.0134406
0.0142891
0.0164394
0.0213544
0.0319968
0.0863106
0.0846527
0.0286021
0.0182895
0.0146152
0.0132685
0.0130979
0.0139033
0.0160137
0.0208616
0.0313192
0.0846198
0.0829736
0.0279933
0.0178553
0.0142492
0.0129158
0.0127606
0.0135411
0.0156098
0.0203884
0.0306726
0.0829432
0.0813048
0.0273906
0.0139027
0.0125657
0.012414
0.0131968
0.0152285
0.0199356
0.0300468
0.0812558
0.0797017
0.0267855
0.0120798
0.0128704
0.0148719
0.0195091
0.0294309
0.0796356
0.014676
0.016873
0.0218614
0.0326808
0.088073
0.0862452
0.0292136
0.0187364
0.0150095
0.0136184
0.013438
0.0142869
0.0164376
0.0213516
0.0319859
0.0863479
0.0845352
0.0285583
0.0182736
0.0146013
0.0132589
0.0130925
0.0139126
0.0160144
0.0208585
0.0313207
0.0846527
0.0828555
0.0279388
0.0178349
0.0142321
0.0128967
0.0127568
0.0135277
0.0156025
0.020386
0.0306797
0.0829736
0.0811628
0.0273296
0.0174088
0.0138816
0.0125546
0.0123958
0.0131963
0.0152281
0.0199356
0.0300567
0.0813048
0.0794945
0.026713
0.0169964
0.0135381
0.0122233
0.0120792
0.0128643
0.0148664
0.0195093
0.0294432
0.0797017
0.0260834
0.016589
0.0132035
0.0119329
0.0117649
0.0161601
0.0128707
)
;
    }
    ami2
    {
        type            cyclicAMI;
        value           nonuniform List<scalar> 0();
    }
    outlet
    {
        type            zeroGradient;
    }
    procBoundary5to6
    {
        type            processor;
        value           nonuniform List<scalar> 
177
(
0.07782
0.07782
0.0287867
0.0190818
0.0190818
0.0190818
0.0141871
0.0122408
0.0122408
0.011212
0.00481674
0.0113514
0.00478478
0.0125131
0.0157403
0.0255367
0.0255367
0.0255367
0.0764808
0.0254808
0.0103224
0.0254808
0.0103224
0.0103224
0.0103224
0.00682729
0.00563204
0.00506158
0.00481674
0.00478478
0.00478478
0.00492014
0.00384953
0.00582722
0.00437085
0.00983413
0.0282524
0.0282524
0.0157392
0.00597082
0.00597082
0.00597082
0.00434415
0.00392919
0.00382998
0.00380502
0.00381189
0.00378108
0.00384953
0.00437085
0.00437085
0.0067048
0.0186971
0.00564798
0.0186971
0.0125364
0.0116518
0.00493343
0.00386303
0.00479261
0.00386303
0.00392236
0.00368593
0.00379014
0.00371181
0.00386588
0.00374186
0.00378108
0.00389698
0.00378108
0.00378108
0.00366872
0.00377649
0.00396053
0.00395202
0.00564798
0.00518461
0.0141937
0.0116518
0.00479261
0.00392236
0.00392236
0.00406061
0.00379014
0.00393835
0.00386588
0.004033
0.00389698
0.00384956
0.00377649
0.00395202
0.00518461
0.00518461
0.0122437
0.0117585
0.0114924
0.0125522
0.00406061
0.00482127
0.00393262
0.00518939
0.00406061
0.00406061
0.00393835
0.00393835
0.004033
0.004033
0.004033
0.00395775
0.00389192
0.00379778
0.00391935
0.00494366
0.0117585
0.0125522
0.00518939
0.00395189
0.00379408
0.00384392
0.0038875
0.00384668
0.00377812
0.00390547
0.00489435
0.0119156
0.0145301
0.00574985
0.00402802
0.00373034
0.00374624
0.00378292
0.00376925
0.00375152
0.00395906
0.00515871
0.013179
0.0191055
0.00697318
0.00444921
0.00392927
0.00387022
0.00390369
0.00393784
0.004042
0.00445874
0.0061138
0.0165609
0.0288535
0.0103454
0.0174298
0.00613534
0.0170235
0.00515566
0.0135584
0.00487481
0.0122483
0.00491875
0.00516961
0.00574326
0.00696362
0.0103247
0.0261215
0.0781187
0.0174298
0.02617
0.0170235
0.0174298
0.0174298
0.0135584
0.0122483
0.0122483
0.0117843
0.01256
0.0145343
0.0191062
0.0288388
0.0780279
)
;
    }
    procBoundary5to7
    {
        type            processor;
        value           nonuniform List<scalar> 
131
(
0.0880582
0.0326643
0.021838
0.0168485
0.0146526
0.0137847
0.0139829
0.0154321
0.0192036
0.0299065
0.0880868
0.0299054
0.012139
0.0080789
0.00666232
0.00602098
0.00574246
0.00570343
0.00606564
0.00727942
0.0121491
0.0326883
0.0192154
0.00727922
0.00520387
0.00474476
0.00461312
0.00450897
0.00454016
0.00463097
0.00521552
0.00808934
0.02186
0.0154468
0.00610209
0.00465832
0.004378
0.0044157
0.00443781
0.00440457
0.00438191
0.00475162
0.00665653
0.0168672
0.0140003
0.0057211
0.00453295
0.00439351
0.00451055
0.00457446
0.00451485
0.00441129
0.0046057
0.00598533
0.0146677
0.0138048
0.0138048
0.00574133
0.00574133
0.00452223
0.00452223
0.00443346
0.00443346
0.00457684
0.00457684
0.00464222
0.00457195
0.00442974
0.00450058
0.00573386
0.013796
0.0150871
0.00622821
0.00478268
0.00462777
0.00475712
0.00458399
0.00458399
0.00451144
0.00439924
0.00453009
0.00568574
0.0139915
0.0173204
0.00690875
0.00496496
0.00458873
0.00461809
0.00444007
0.00444007
0.00440787
0.00437829
0.00462749
0.00606012
0.0154402
0.0223804
0.00837315
0.0054387
0.0048695
0.00470154
0.00451492
0.00451492
0.00459616
0.00474573
0.00520466
0.00727526
0.0192125
0.0333924
0.0125039
0.00756855
0.00633699
0.00595324
0.00573141
0.00573141
0.00598661
0.00664708
0.00807734
0.0121536
0.0299221
0.0899269
0.0306034
0.0197124
0.0158999
0.0143978
0.0138058
0.0138058
0.0146721
0.0168667
0.0218557
0.0326918
0.0881227
)
;
    }
}


// ************************************************************************* //
