/*--------------------------------*- C++ -*----------------------------------*\
| =========                 |                                                 |
| \\      /  F ield         | OpenFOAM: The Open Source CFD Toolbox           |
|  \\    /   O peration     | Version:  2212                                  |
|   \\  /    A nd           | Website:  www.openfoam.com                      |
|    \\/     M anipulation  |                                                 |
\*---------------------------------------------------------------------------*/
FoamFile
{
    version     2.0;
    format      ascii;
    arch        "LSB;label=32;scalar=64";
    class       volScalarField;
    location    "1.3";
    object      nut;
}
// * * * * * * * * * * * * * * * * * * * * * * * * * * * * * * * * * * * * * //

dimensions      [0 2 -1 0 0 0 0];

internalField   nonuniform List<scalar> 
678
(
3.47218e-06
3.44891e-06
3.42681e-06
3.40458e-06
3.3832e-06
6.90925e-06
6.86133e-06
6.81479e-06
6.7701e-06
6.72545e-06
9.99131e-06
9.91419e-06
9.84107e-06
9.77046e-06
9.70559e-06
1.2202e-05
1.2095e-05
1.19958e-05
1.19027e-05
1.18149e-05
1.17371e-05
1.35684e-05
1.34443e-05
1.33342e-05
1.32224e-05
1.31217e-05
1.30279e-05
1.39441e-05
1.38202e-05
1.371e-05
1.35682e-05
1.3469e-05
1.33608e-05
1.32681e-05
1.33255e-05
1.32054e-05
1.30851e-05
1.297e-05
1.28592e-05
1.27657e-05
1.26707e-05
1.17927e-05
1.16901e-05
1.15943e-05
1.14959e-05
1.13997e-05
1.13074e-05
1.12208e-05
9.52831e-06
9.44783e-06
9.37106e-06
9.29483e-06
9.21755e-06
9.14494e-06
9.07905e-06
6.68625e-06
6.63555e-06
6.58725e-06
6.54011e-06
6.49447e-06
6.44898e-06
3.47202e-06
3.44876e-06
3.42667e-06
3.4046e-06
3.38316e-06
3.36304e-06
6.68742e-06
6.63669e-06
6.58841e-06
6.54119e-06
6.494e-06
6.44469e-06
6.46999e-06
6.1778e-06
5.99765e-06
5.78956e-06
5.58291e-06
1.47229e-05
1.38303e-05
1.33744e-05
1.26605e-05
1.21983e-05
1.15326e-05
2.2798e-05
2.14383e-05
2.0674e-05
1.9517e-05
1.89343e-05
1.78668e-05
2.82537e-05
2.67658e-05
2.5595e-05
2.41851e-05
2.34292e-05
2.20728e-05
3.07384e-05
2.93948e-05
2.79162e-05
2.6392e-05
2.52145e-05
2.37176e-05
2.86075e-05
2.70498e-05
2.57676e-05
2.41566e-05
2.33516e-05
2.18111e-05
2.20751e-05
2.05863e-05
1.96752e-05
1.82283e-05
1.75158e-05
1.62908e-05
1.48829e-05
1.3311e-05
1.24008e-05
1.19132e-05
1.11168e-05
1.06024e-05
9.82089e-06
9.10274e-06
6.46522e-06
6.17752e-06
5.99555e-06
5.78877e-06
5.58783e-06
5.42271e-06
5.1494e-06
6.9098e-06
6.86241e-06
6.81604e-06
6.77141e-06
6.72865e-06
6.68654e-06
9.53161e-06
9.4512e-06
9.37412e-06
9.29774e-06
9.22145e-06
9.14835e-06
9.07953e-06
1.3377e-05
1.24907e-05
1.19885e-05
1.12302e-05
1.06868e-05
9.81456e-06
2.9145e-05
2.71911e-05
2.60393e-05
2.43263e-05
2.34357e-05
2.1894e-05
4.36828e-05
4.10706e-05
3.8759e-05
3.63222e-05
3.49998e-05
3.29407e-05
5.29174e-05
4.98378e-05
4.71163e-05
4.45237e-05
4.20661e-05
3.97188e-05
5.64884e-05
5.3273e-05
5.04381e-05
4.77392e-05
4.50243e-05
4.24581e-05
5.43092e-05
5.10711e-05
4.81916e-05
4.53701e-05
4.30489e-05
4.01954e-05
4.41444e-05
4.15193e-05
3.92727e-05
3.6691e-05
3.53246e-05
3.31232e-05
2.90243e-05
2.70104e-05
2.5967e-05
2.41752e-05
2.32793e-05
2.17324e-05
1.47226e-05
1.38489e-05
1.33909e-05
1.26863e-05
1.22503e-05
1.16895e-05
1.08186e-05
9.9934e-06
9.91773e-06
9.84516e-06
9.77495e-06
9.70848e-06
9.64771e-06
1.17987e-05
1.1695e-05
1.1599e-05
1.15004e-05
1.14044e-05
1.13123e-05
1.12272e-05
2.21764e-05
2.07719e-05
1.97928e-05
1.84044e-05
1.76974e-05
1.64338e-05
1.4863e-05
4.47488e-05
4.19946e-05
3.94944e-05
3.71019e-05
3.53124e-05
3.31477e-05
6.27641e-05
5.86598e-05
5.6038e-05
5.3431e-05
5.18325e-05
4.76397e-05
7.34348e-05
6.87393e-05
6.59067e-05
6.30108e-05
6.10938e-05
5.6274e-05
7.72553e-05
7.23801e-05
6.94273e-05
6.65024e-05
6.43686e-05
5.90906e-05
7.40349e-05
6.93025e-05
6.63284e-05
6.37318e-05
6.06638e-05
6.2712e-05
5.86042e-05
5.59907e-05
5.347e-05
5.15244e-05
4.78954e-05
4.37062e-05
4.10347e-05
3.87867e-05
3.63422e-05
3.49481e-05
3.27234e-05
2.28316e-05
2.1498e-05
2.07269e-05
1.96106e-05
1.89457e-05
1.78626e-05
1.22053e-05
1.20994e-05
1.2001e-05
1.19081e-05
1.18204e-05
1.17386e-05
1.33314e-05
1.32099e-05
1.30925e-05
1.29709e-05
1.28658e-05
1.27729e-05
2.87796e-05
2.72741e-05
2.58973e-05
2.43298e-05
2.34605e-05
2.18336e-05
5.41551e-05
5.10493e-05
4.82534e-05
4.53873e-05
4.28207e-05
7.42869e-05
6.95368e-05
6.65643e-05
6.41141e-05
6.05694e-05
8.68059e-05
8.10358e-05
7.75463e-05
7.47567e-05
7.05735e-05
9.06136e-05
8.47791e-05
8.1156e-05
7.82329e-05
7.41941e-05
8.67109e-05
8.10024e-05
7.74731e-05
7.4648e-05
7.08553e-05
7.36367e-05
6.89679e-05
6.60263e-05
6.35226e-05
6.03799e-05
5.31205e-05
5.00163e-05
4.72604e-05
4.45574e-05
4.20303e-05
2.81043e-05
2.67604e-05
2.55821e-05
2.42682e-05
2.33611e-05
1.35719e-05
1.34486e-05
1.3338e-05
1.32271e-05
1.31265e-05
1.30287e-05
1.39473e-05
1.38272e-05
1.37047e-05
1.35818e-05
1.34667e-05
1.33675e-05
3.05649e-05
2.92683e-05
2.77288e-05
2.6668e-05
2.50197e-05
2.37281e-05
5.65569e-05
5.33803e-05
5.05184e-05
4.735e-05
7.74016e-05
7.25639e-05
6.97403e-05
6.66551e-05
9.05362e-05
8.47538e-05
8.13895e-05
7.76871e-05
9.48397e-05
8.86104e-05
8.49407e-05
8.1999e-05
7.7368e-05
9.07035e-05
8.49123e-05
8.12528e-05
7.83735e-05
7.42886e-05
7.75595e-05
7.27013e-05
6.96418e-05
6.71409e-05
6.36839e-05
5.67267e-05
5.34953e-05
5.06369e-05
4.78662e-05
4.49593e-05
3.06038e-05
2.92859e-05
2.78145e-05
2.66128e-05
2.50936e-05
1.39477e-05
1.38238e-05
1.37116e-05
1.35747e-05
1.34726e-05
1.36898e-05
1.35862e-05
1.34326e-05
1.33418e-05
1.32243e-05
1.31271e-05
2.96688e-05
2.81775e-05
2.69141e-05
2.54931e-05
2.4709e-05
2.33534e-05
5.58989e-05
5.2771e-05
4.9948e-05
4.72617e-05
4.45752e-05
4.19881e-05
7.81024e-05
7.32677e-05
6.99778e-05
6.68468e-05
6.44544e-05
6.02216e-05
9.07979e-05
8.56849e-05
8.19459e-05
7.84336e-05
7.56246e-05
7.10758e-05
9.04374e-05
8.47571e-05
8.12173e-05
7.8431e-05
7.43804e-05
8.68005e-05
8.11017e-05
7.75857e-05
7.48468e-05
7.09872e-05
7.42365e-05
6.95336e-05
6.65308e-05
6.41117e-05
6.07656e-05
5.45377e-05
5.13098e-05
4.84204e-05
4.55066e-05
4.29833e-05
2.8786e-05
2.72164e-05
2.59274e-05
2.43443e-05
2.33107e-05
1.33281e-05
1.32102e-05
1.30873e-05
1.29767e-05
1.28657e-05
1.23095e-05
1.22032e-05
1.20943e-05
1.20004e-05
1.19049e-05
1.18207e-05
2.39624e-05
2.2726e-05
2.15427e-05
2.08756e-05
1.97778e-05
1.90124e-05
4.61215e-05
4.34456e-05
4.10605e-05
3.87116e-05
3.71058e-05
3.51547e-05
6.67851e-05
6.23392e-05
5.95618e-05
5.68173e-05
5.4646e-05
5.16924e-05
7.86824e-05
7.39034e-05
7.06724e-05
6.75501e-05
6.50327e-05
6.14865e-05
7.80983e-05
7.29385e-05
6.98823e-05
6.73867e-05
6.39918e-05
7.3693e-05
6.90665e-05
6.61378e-05
6.37558e-05
6.05585e-05
6.2812e-05
5.87108e-05
5.61388e-05
5.38822e-05
5.1199e-05
4.42389e-05
4.16907e-05
3.93611e-05
3.68229e-05
3.52623e-05
2.21459e-05
2.06857e-05
1.97502e-05
1.83583e-05
1.74568e-05
1.17948e-05
1.16931e-05
1.15978e-05
1.15001e-05
1.14052e-05
1.00675e-05
9.98908e-06
9.91391e-06
9.84154e-06
9.77208e-06
9.70877e-06
1.56221e-05
1.46746e-05
1.41023e-05
1.3404e-05
1.28847e-05
1.23159e-05
3.11648e-05
2.9005e-05
2.77224e-05
2.59445e-05
2.50291e-05
2.3473e-05
4.73416e-05
4.45421e-05
4.19953e-05
3.93222e-05
3.789e-05
3.57778e-05
5.7578e-05
5.43725e-05
5.14293e-05
4.86416e-05
4.5771e-05
4.35687e-05
5.6623e-05
5.36392e-05
5.08409e-05
4.80829e-05
4.52831e-05
5.32034e-05
5.01602e-05
4.74335e-05
4.47425e-05
4.22522e-05
4.37724e-05
4.1156e-05
3.88833e-05
3.64438e-05
3.49641e-05
2.90698e-05
2.71359e-05
2.59109e-05
2.42835e-05
2.32651e-05
1.33449e-05
1.24878e-05
1.19031e-05
1.1189e-05
1.05725e-05
9.52967e-06
9.4506e-06
9.37411e-06
9.2977e-06
9.22074e-06
6.95787e-06
6.90988e-06
6.86252e-06
6.81656e-06
6.77192e-06
6.72726e-06
6.82736e-06
6.52322e-06
6.2853e-06
6.06778e-06
5.85333e-06
5.62552e-06
1.42224e-05
1.33653e-05
1.2795e-05
1.19939e-05
1.15792e-05
1.07827e-05
2.38594e-05
2.23188e-05
2.12288e-05
1.97941e-05
1.90601e-05
1.77267e-05
3.07022e-05
2.91289e-05
2.75474e-05
2.63058e-05
2.47618e-05
2.36607e-05
3.06134e-05
2.94856e-05
2.81524e-05
2.65779e-05
2.551e-05
2.81518e-05
2.68487e-05
2.57153e-05
2.44366e-05
2.35129e-05
2.28564e-05
2.15535e-05
2.0748e-05
1.96913e-05
1.89951e-05
1.47218e-05
1.39415e-05
1.32588e-05
1.27442e-05
1.22665e-05
6.46995e-06
6.189e-06
6.00266e-06
5.80683e-06
5.59121e-06
6.68646e-06
6.63601e-06
6.58769e-06
6.54052e-06
6.49248e-06
3.49611e-06
3.4726e-06
3.44999e-06
3.42727e-06
3.40482e-06
3.38375e-06
6.73919e-06
6.68857e-06
6.63947e-06
6.59133e-06
6.54413e-06
6.49607e-06
9.61358e-06
9.53234e-06
9.45542e-06
9.37823e-06
1.19161e-05
1.17992e-05
1.17001e-05
1.16032e-05
1.15082e-05
1.3459e-05
1.33324e-05
1.32161e-05
1.30977e-05
1.29801e-05
1.395e-05
1.38288e-05
1.37138e-05
1.35835e-05
1.34783e-05
1.35713e-05
1.3451e-05
1.33387e-05
1.32323e-05
1.31317e-05
1.22044e-05
1.20988e-05
1.20007e-05
1.19085e-05
1.1822e-05
9.99235e-06
9.91695e-06
9.84412e-06
9.77388e-06
9.7093e-06
6.90956e-06
6.86207e-06
6.81552e-06
6.771e-06
6.7264e-06
3.47191e-06
3.44857e-06
3.4265e-06
3.40408e-06
3.38304e-06
)
;

boundaryField
{
    inlet
    {
        type            calculated;
        value           nonuniform List<scalar> 0();
    }
    ami1
    {
        type            cyclicAMI;
        value           nonuniform List<scalar> 0();
    }
    walls
    {
        type            nutkWallFunction;
        blending        stepwise;
        value           uniform 0;
    }
    ami2
    {
        type            cyclicAMI;
        value           nonuniform List<scalar> 0();
    }
    outlet
    {
        type            calculated;
        value           nonuniform List<scalar> 0();
    }
    procBoundary5to6
    {
        type            processor;
        value           nonuniform List<scalar> 
177
(
3.36378e-06
3.36378e-06
6.68626e-06
9.64949e-06
9.64949e-06
9.64949e-06
1.16641e-05
1.29482e-05
1.29482e-05
1.31853e-05
2.13975e-05
1.25916e-05
1.93931e-05
1.11417e-05
9.01982e-06
6.40391e-06
6.40391e-06
6.40391e-06
3.34539e-06
6.40598e-06
5.14104e-06
6.40598e-06
5.14104e-06
5.14104e-06
5.14104e-06
1.03528e-05
1.61826e-05
2.00074e-05
2.13975e-05
1.93931e-05
1.93931e-05
1.29997e-05
2.92661e-05
8.11929e-06
1.91142e-05
4.72371e-06
6.64754e-06
6.64754e-06
9.02168e-06
8.68128e-06
8.68128e-06
8.68128e-06
1.92435e-05
2.93639e-05
3.57626e-05
3.81914e-05
3.59789e-05
5.46172e-05
2.92661e-05
1.91142e-05
1.91142e-05
9.74119e-06
9.59081e-06
1.60213e-05
9.59081e-06
1.11456e-05
1.26882e-05
1.29732e-05
2.89683e-05
1.93475e-05
2.89683e-05
3.83646e-05
4.25476e-05
5.44914e-05
5.06492e-05
6.3776e-05
5.34776e-05
5.46172e-05
6.70438e-05
5.46172e-05
5.46172e-05
4.28051e-05
5.43814e-05
2.8911e-05
3.79203e-05
1.60213e-05
2.1139e-05
1.16663e-05
1.26882e-05
1.93475e-05
3.83646e-05
3.83646e-05
4.29033e-05
5.44914e-05
6.04148e-05
6.3776e-05
7.06036e-05
6.70438e-05
6.4032e-05
5.43814e-05
3.79203e-05
2.1139e-05
2.1139e-05
1.29473e-05
1.33613e-05
1.32773e-05
1.30369e-05
4.29033e-05
2.12474e-05
4.05542e-05
2.12042e-05
4.29033e-05
4.29033e-05
6.04148e-05
6.04148e-05
7.06036e-05
7.06036e-05
7.06036e-05
7.01511e-05
6.71247e-05
5.73769e-05
4.06963e-05
2.27616e-05
1.33613e-05
1.30369e-05
2.12042e-05
3.79452e-05
5.39141e-05
6.42225e-05
6.72231e-05
6.40356e-05
5.45303e-05
3.86213e-05
2.07485e-05
1.27745e-05
1.17424e-05
1.72134e-05
3.15401e-05
4.60805e-05
5.50967e-05
5.7651e-05
5.44546e-05
4.57864e-05
3.13421e-05
1.5271e-05
1.13115e-05
9.65186e-06
1.11206e-05
2.08553e-05
3.1762e-05
3.90928e-05
4.09099e-05
3.81271e-05
3.12584e-05
2.05773e-05
9.25971e-06
9.14521e-06
6.68788e-06
5.15233e-06
9.29962e-06
9.40711e-06
9.2241e-06
1.5589e-05
1.14114e-05
2.10737e-05
1.28716e-05
2.29297e-05
2.13128e-05
1.71984e-05
1.10488e-05
5.12666e-06
6.44554e-06
3.36419e-06
9.29962e-06
6.44898e-06
9.2241e-06
9.29962e-06
9.29962e-06
1.14114e-05
1.28716e-05
1.28716e-05
1.33692e-05
1.30394e-05
1.17437e-05
9.65027e-06
6.68634e-06
3.36326e-06
)
;
    }
    procBoundary5to7
    {
        type            processor;
        value           nonuniform List<scalar> 
131
(
3.49585e-06
6.9579e-06
1.00675e-05
1.23075e-05
1.36899e-05
1.40676e-05
1.34512e-05
1.19112e-05
9.61109e-06
6.73942e-06
3.4957e-06
6.74057e-06
6.96478e-06
1.59004e-05
2.45351e-05
2.98492e-05
3.22938e-05
3.07261e-05
2.40877e-05
1.45524e-05
6.95935e-06
6.95864e-06
9.61452e-06
1.46472e-05
3.18421e-05
4.7418e-05
5.62936e-05
6.09014e-05
5.8129e-05
4.79073e-05
3.16497e-05
1.5899e-05
1.00699e-05
1.19165e-05
2.43862e-05
4.87632e-05
6.81364e-05
7.93665e-05
8.34422e-05
8.00587e-05
6.80581e-05
4.7414e-05
2.45962e-05
1.23119e-05
1.34571e-05
3.09272e-05
5.83516e-05
8.03905e-05
9.33929e-05
9.73098e-05
9.32449e-05
7.95317e-05
5.64834e-05
2.99115e-05
1.36951e-05
1.40731e-05
1.40731e-05
3.25436e-05
3.25436e-05
6.0887e-05
6.0887e-05
8.36297e-05
8.36297e-05
9.72387e-05
9.72387e-05
0.00010161
9.73838e-05
8.37201e-05
6.11416e-05
3.25159e-05
1.40722e-05
1.38198e-05
3.14001e-05
5.93554e-05
8.37487e-05
9.68767e-05
9.70728e-05
9.70728e-05
9.3345e-05
8.02279e-05
5.83368e-05
3.09063e-05
1.34551e-05
1.24168e-05
2.55979e-05
4.95314e-05
7.1954e-05
8.44205e-05
8.41795e-05
8.41795e-05
7.96188e-05
6.81153e-05
4.79553e-05
2.41741e-05
1.1915e-05
1.01458e-05
1.68326e-05
3.40489e-05
5.10249e-05
6.14869e-05
6.08649e-05
6.08649e-05
5.66186e-05
4.7417e-05
3.16702e-05
1.4604e-05
9.61369e-06
7.00723e-06
7.26349e-06
1.55674e-05
2.60184e-05
3.2516e-05
3.22998e-05
3.22998e-05
2.99299e-05
2.4623e-05
1.59021e-05
6.97274e-06
6.74076e-06
3.52005e-06
6.7936e-06
9.70034e-06
1.20471e-05
1.3592e-05
1.40752e-05
1.40752e-05
1.36955e-05
1.23115e-05
1.00693e-05
6.95875e-06
3.49588e-06
)
;
    }
}


// ************************************************************************* //
