/*--------------------------------*- C++ -*----------------------------------*\
| =========                 |                                                 |
| \\      /  F ield         | OpenFOAM: The Open Source CFD Toolbox           |
|  \\    /   O peration     | Version:  2212                                  |
|   \\  /    A nd           | Website:  www.openfoam.com                      |
|    \\/     M anipulation  |                                                 |
\*---------------------------------------------------------------------------*/
FoamFile
{
    version     2.0;
    format      ascii;
    arch        "LSB;label=32;scalar=64";
    class       volScalarField;
    location    "1.7";
    object      epsilon;
}
// * * * * * * * * * * * * * * * * * * * * * * * * * * * * * * * * * * * * * //

dimensions      [0 2 -3 0 0 0 0];

internalField   nonuniform List<scalar> 
689
(
0.172467
0.164402
0.15718
0.150848
0.145107
0.140035
0.135648
0.131764
0.0745311
0.0698591
0.065834
0.0624193
0.0593136
0.0565639
0.0542129
0.0521562
0.0614765
0.0565586
0.0523709
0.0488597
0.045866
0.0433096
0.0410719
0.0390822
0.0373042
0.0762216
0.0675264
0.0605688
0.0548807
0.0500973
0.0461073
0.0427014
0.0397792
0.0372481
0.0350283
0.0330678
0.0313262
0.0719601
0.0638021
0.0571354
0.0516198
0.0470086
0.0431261
0.0398165
0.0369636
0.0344699
0.032276
0.0303329
0.0286008
0.0691542
0.0615373
0.0552476
0.0499919
0.0455521
0.0417757
0.0385371
0.0357322
0.0332665
0.0310816
0.0291378
0.027404
0.0674122
0.0603834
0.054478
0.0494811
0.0452165
0.0415626
0.0384053
0.0356432
0.0331953
0.0310227
0.0290921
0.027373
0.0688403
0.0621155
0.0563541
0.0514121
0.0471603
0.0435013
0.0402937
0.0374665
0.0349713
0.0327656
0.0308101
0.0290647
0.0780587
0.0697666
0.0632841
0.057955
0.053368
0.0493809
0.0459229
0.0429243
0.0402959
0.0379907
0.0359739
0.104429
0.0923735
0.0840818
0.0773483
0.0717103
0.067145
0.0630876
0.0596427
0.0565579
0.0538371
0.0514105
0.234479
0.213775
0.196513
0.183125
0.172756
0.164727
0.157523
0.151159
0.145411
0.140262
0.135802
0.0717332
0.0670172
0.0629123
0.0594943
0.0563987
0.0537008
0.0513193
0.0493338
0.0354843
0.0330086
0.0307319
0.0287976
0.0270403
0.0254284
0.0240245
0.0229004
0.0317692
0.0287807
0.0262375
0.0240612
0.0221926
0.0205896
0.0192035
0.01793
0.0169327
0.0465311
0.0404272
0.0353781
0.03117
0.0275185
0.0246088
0.0224598
0.0205678
0.0189169
0.0174735
0.0162031
0.0150798
0.0467448
0.0405367
0.0355137
0.0313635
0.0278476
0.0247374
0.0221831
0.0200605
0.0183852
0.0169053
0.0156007
0.0144442
0.0468213
0.0406945
0.0356615
0.0314647
0.0279378
0.0248401
0.0221649
0.0198986
0.0181428
0.0166678
0.0153551
0.0141856
0.0465099
0.0407017
0.0356164
0.0313201
0.0277161
0.0245457
0.0218286
0.019651
0.0180013
0.0165321
0.0152277
0.0140727
0.0457556
0.0409824
0.0355441
0.0310483
0.0272839
0.0240496
0.0217197
0.01986
0.0182263
0.0167945
0.0155386
0.0144285
0.046472
0.0419901
0.0362861
0.0314167
0.0280827
0.0255443
0.0233659
0.0214883
0.0198545
0.0184266
0.0171797
0.0558803
0.0497814
0.0437312
0.039346
0.0360042
0.0331804
0.0309056
0.0289137
0.0271412
0.0254885
0.0241185
0.110023
0.0972683
0.0880245
0.0807494
0.0748738
0.070091
0.066007
0.0625625
0.0594597
0.0566796
0.0542961
0.0580428
0.0533777
0.0493394
0.0458532
0.0428445
0.0402126
0.0379157
0.035907
0.034125
0.0312943
0.0280373
0.0255191
0.0233455
0.0214746
0.0198459
0.0184246
0.0171827
0.0161165
0.0300792
0.02655
0.0236421
0.0212142
0.0191692
0.0174283
0.015933
0.0146322
0.0135087
0.0476439
0.0413071
0.0360076
0.0315685
0.0278257
0.0246744
0.0220338
0.0197877
0.0178642
0.016206
0.0147681
0.0135133
0.0498793
0.0431252
0.037551
0.0329048
0.0289979
0.0256839
0.0228654
0.0204595
0.0184112
0.0166492
0.0151211
0.0137878
0.0507644
0.0438968
0.0382024
0.0334496
0.0294544
0.0260683
0.0231789
0.020705
0.0185954
0.0167887
0.0152274
0.0138673
0.0499336
0.0432651
0.0376641
0.0329572
0.0289913
0.02563
0.022773
0.0203442
0.0182801
0.0165084
0.0149789
0.0136502
0.0475586
0.0413364
0.0360092
0.0314926
0.0276912
0.0244893
0.021808
0.0195524
0.0176362
0.015995
0.0145757
0.0133338
0.045273
0.0394471
0.0344275
0.0301041
0.0265588
0.0236442
0.0212164
0.0191718
0.0174307
0.0159349
0.0146371
0.0482683
0.0416064
0.0363958
0.0319209
0.0288711
0.0263013
0.0241151
0.0222382
0.020627
0.0192411
0.0179158
0.0853344
0.075471
0.0678788
0.0617789
0.0567062
0.0524582
0.0489341
0.0459327
0.0433619
0.0411184
0.0391149
0.0516092
0.0472513
0.0435355
0.0402956
0.0374509
0.0349472
0.0327397
0.0307874
0.0290531
0.0311477
0.0272876
0.024047
0.0217268
0.0198646
0.0182297
0.0167978
0.015542
0.0144379
0.031494
0.0276891
0.0244883
0.0218095
0.0195553
0.0176396
0.0159986
0.0145787
0.0133408
0.0520933
0.0450349
0.0391752
0.0342705
0.030139
0.0266415
0.0236694
0.021138
0.0189697
0.0171024
0.0154859
0.0140787
0.0558
0.0481754
0.0418526
0.0365752
0.0321395
0.0283877
0.0251971
0.0224691
0.0201243
0.0181017
0.0163504
0.0148264
0.0571722
0.0493425
0.0428446
0.0374225
0.0328691
0.0290202
0.0257468
0.0229475
0.0205422
0.0184666
0.016668
0.0151031
0.0557791
0.0481598
0.0418472
0.0365723
0.0321344
0.0283782
0.0251823
0.0224507
0.0201062
0.0180845
0.0163332
0.0148093
0.0520747
0.045018
0.0391698
0.0342685
0.0301378
0.0266402
0.0236676
0.0211358
0.0189674
0.0171002
0.0154839
0.014077
0.0476048
0.0412958
0.0360093
0.0315638
0.0278186
0.0246688
0.0220279
0.0197822
0.0178596
0.0162022
0.0147651
0.0465547
0.04042
0.0354027
0.0311742
0.0275266
0.0246257
0.0224759
0.0205811
0.0189278
0.0174822
0.0162033
0.0762548
0.0675531
0.0605987
0.0548731
0.0501273
0.0461484
0.042737
0.0398134
0.0372731
0.0350465
0.0330767
0.0496963
0.0453399
0.0416376
0.0384497
0.0356676
0.033208
0.0310288
0.0290944
0.027375
0.0313023
0.0276825
0.0245012
0.0218159
0.0196537
0.0180012
0.016531
0.0152273
0.0140739
0.0329432
0.0289778
0.0256196
0.022768
0.0203433
0.0182813
0.0165108
0.0149819
0.0136541
0.0557892
0.0481781
0.0418559
0.0365738
0.0321328
0.028376
0.0251808
0.0224503
0.0201067
0.0180856
0.0163347
0.014811
0.0602376
0.051985
0.0451331
0.0394099
0.0345997
0.0305323
0.0270733
0.0241155
0.0215734
0.0193784
0.0174746
0.0158168
0.0618382
0.0533613
0.0463211
0.0404392
0.0354952
0.0313148
0.0277597
0.0247198
0.0221069
0.0198504
0.0178928
0.0161881
0.0602342
0.0519766
0.0451258
0.0394049
0.0345967
0.0305306
0.0270723
0.0241148
0.0215729
0.0193779
0.0174742
0.0158167
0.0558002
0.0481593
0.0418379
0.0365646
0.0321322
0.0283825
0.0251937
0.0224665
0.0201221
0.0180997
0.0163489
0.0148269
0.0498856
0.0431
0.0375285
0.032887
0.0289831
0.0256713
0.0228578
0.0204527
0.0184033
0.0166417
0.0151141
0.0467446
0.0405369
0.035515
0.0313627
0.0278441
0.0247342
0.0221818
0.0200599
0.0183844
0.0169042
0.0155941
0.0719665
0.0638193
0.0571594
0.0516456
0.047032
0.0431451
0.0398308
0.036974
0.0344771
0.0322793
0.0303328
0.0571601
0.0493295
0.0428349
0.0374161
0.0328653
0.0290187
0.025747
0.0229487
0.020544
0.018469
0.016671
0.0151069
0.0618482
0.0533668
0.0463248
0.040442
0.0354976
0.031317
0.0277618
0.0247218
0.0221089
0.0198524
0.0178949
0.0161903
0.063515
0.0548118
0.0475822
0.0415389
0.0364568
0.0321582
0.0285018
0.025375
0.0226873
0.0203657
0.0183515
0.0165972
0.0618482
0.0533695
0.0463245
0.04044
0.0354951
0.0313147
0.0277599
0.0247203
0.0221078
0.0198515
0.0178942
0.0161899
0.0571692
0.0493257
0.042827
0.0374082
0.0328586
0.0290128
0.0257421
0.0229445
0.0205404
0.0184655
0.0166676
0.0151052
0.0507713
0.0438541
0.038159
0.0334146
0.0294274
0.0260475
0.0231655
0.0206947
0.0185863
0.0167797
0.0152192
0.0468764
0.0407041
0.035658
0.0314551
0.0279231
0.0248244
0.0221588
0.0198879
0.0181318
0.0166587
0.015344
0.0692088
0.0616021
0.0553107
0.0500483
0.0456004
0.0418153
0.0385676
0.0357554
0.033284
0.0310955
0.0291483
)
;

boundaryField
{
    inlet
    {
        type            fixedValue;
        value           nonuniform List<scalar> 0();
    }
    ami1
    {
        type            cyclicAMI;
        value           nonuniform List<scalar> 0();
    }
    walls
    {
        type            epsilonWallFunction;
        blending        stepwise;
        value           nonuniform List<scalar> 
227
(
0.0762216
0.0719601
0.0691542
0.0674122
0.0688403
0.0780587
0.104429
0.234479
0.0675264
0.0638021
0.0615373
0.0603834
0.0621155
0.0697666
0.0923735
0.213775
0.0605688
0.0571354
0.0552476
0.054478
0.0563541
0.0632841
0.0840818
0.196513
0.0614765
0.0548807
0.0516198
0.0499919
0.0494811
0.0514121
0.057955
0.0773483
0.183125
0.172467
0.0745311
0.0565586
0.0500973
0.0470086
0.0455521
0.0452165
0.0471603
0.053368
0.0717103
0.172756
0.164402
0.0698591
0.0523709
0.0461073
0.0431261
0.0417757
0.0415626
0.0435013
0.0493809
0.067145
0.164727
0.15718
0.065834
0.0488597
0.0427014
0.0398165
0.0385371
0.0384053
0.0402937
0.0459229
0.0630876
0.157523
0.150848
0.0624193
0.045866
0.0397792
0.0369636
0.0357322
0.0356432
0.0374665
0.0429243
0.0596427
0.151159
0.145107
0.0593136
0.0433096
0.0372481
0.0344699
0.0332665
0.0331953
0.0349713
0.0402959
0.0565579
0.145411
0.140035
0.0565639
0.0410719
0.0350283
0.032276
0.0310816
0.0310227
0.0327656
0.0379907
0.0538371
0.140262
0.135648
0.0542129
0.0390822
0.0330678
0.0303329
0.0291378
0.0290921
0.0308101
0.0359739
0.0514105
0.135802
0.131764
0.0521562
0.0373042
0.0313262
0.0286008
0.027404
0.027373
0.0290647
0.234479
0.110023
0.0853344
0.0762548
0.0719665
0.0692088
0.213775
0.0972683
0.075471
0.0675531
0.0638193
0.0616021
0.196513
0.0880245
0.0678788
0.0605987
0.0571594
0.0553107
0.183125
0.0807494
0.0617789
0.0548731
0.0516456
0.0500483
0.172756
0.0748738
0.0567062
0.0501273
0.047032
0.0456004
0.164727
0.070091
0.0524582
0.0461484
0.0431451
0.0418153
0.157523
0.066007
0.0489341
0.042737
0.0398308
0.0385676
0.151159
0.0625625
0.0459327
0.0398134
0.036974
0.0357554
0.145411
0.0594597
0.0433619
0.0372731
0.0344771
0.033284
0.140262
0.0566796
0.0411184
0.0350465
0.0322793
0.0310955
0.135802
0.0542961
0.0391149
0.0330767
0.0303328
0.0291483
0.0580428
0.0516092
0.0496963
0.172467
0.0717332
0.0533777
0.0472513
0.0453399
0.164402
0.0670172
0.0493394
0.0435355
0.0416376
0.15718
0.0629123
0.0458532
0.0402956
0.0384497
0.150848
0.0594943
0.0428445
0.0374509
0.0356676
0.145107
0.0563987
0.0402126
0.0349472
0.033208
0.140035
0.0537008
0.0379157
0.0327397
0.0310288
0.135648
0.0513193
0.035907
0.0307874
0.0290944
0.131764
0.0493338
0.034125
0.0290531
0.027375
)
;
    }
    ami2
    {
        type            cyclicAMI;
        value           nonuniform List<scalar> 
48
(
0.0745862
0.0720929
0.0706626
0.0703305
0.0725805
0.0828899
0.118247
0.181229
0.0512233
0.0511431
0.0505988
0.0491341
0.0479166
0.0496127
0.0618885
0.0976319
0.0514728
0.0542152
0.055039
0.0537749
0.0508896
0.0483658
0.0529151
0.0805041
0.0564051
0.0605399
0.0619746
0.0604133
0.0563956
0.0514537
0.0512366
0.0746042
0.0604186
0.0652759
0.0669957
0.065274
0.06054
0.0542192
0.0511446
0.0720988
0.0619686
0.0670008
0.0687906
0.0670008
0.0619727
0.0550418
0.0506268
0.0706956
)
;
    }
    outlet
    {
        type            zeroGradient;
    }
    procBoundary0to1
    {
        type            processor;
        value           nonuniform List<scalar> 
138
(
0.0545485
0.0500183
0.0455911
0.0418132
0.0385667
0.0357533
0.0332806
0.0310914
0.0291434
0.0274072
0.0356327
0.031432
0.0279055
0.0248132
0.0221514
0.0198849
0.0181296
0.0166578
0.0153485
0.0141824
0.0499594
0.0432631
0.0376505
0.0376505
0.0334386
0.0294451
0.0260615
0.0231748
0.0207024
0.0185941
0.0167886
0.0152287
0.0138698
0.0507813
0.0438853
0.038191
0.0334386
0.0294451
0.0260615
0.0231748
0.0207024
0.0185941
0.0167886
0.0152287
0.0138698
0.0558213
0.0481802
0.0418554
0.0365782
0.0321427
0.0283906
0.0251997
0.0224715
0.0201266
0.0181041
0.0163531
0.0148296
0.0602509
0.0519952
0.0451405
0.0394157
0.0346046
0.0305365
0.0270769
0.0241187
0.0215763
0.0193811
0.0174772
0.0158195
0.0618456
0.0533745
0.0463318
0.0404471
0.0355011
0.0313195
0.0277637
0.0247233
0.0221101
0.0198533
0.0178956
0.0161909
0.0602513
0.0519873
0.0451333
0.0394106
0.0346012
0.0305343
0.0270754
0.0241176
0.0215754
0.0193802
0.0174764
0.0158189
0.0557917
0.0481709
0.0418509
0.0365713
0.0321316
0.0283752
0.0251799
0.0224493
0.0201054
0.0180842
0.0163334
0.0148113
0.0498959
0.0432549
0.0376527
0.032944
0.0289783
0.0256181
0.0227642
0.0203382
0.0182743
0.0165027
0.0149736
0.0464532
0.0406433
0.0355742
0.0312918
0.0276917
0.024528
0.0218196
0.0196445
0.0179933
0.0165243
0.0152192
0.0674322
0.060411
0.0545098
0.0495162
0.045254
0.0416003
0.0384408
0.0356753
0.0332238
0.031047
0.0291123
)
;
    }
    procBoundary0to2
    {
        type            processor;
        value           nonuniform List<scalar> 
28
(
0.183126
0.0805798
0.0805798
0.0852178
0.0753699
0.0677576
0.0677576
0.0774094
0.0774094
0.0394298
0.0394298
0.0394298
0.0483356
0.041635
0.0363526
0.0363526
0.0633594
0.0363015
0.0452535
0.0394686
0.0344189
0.0344189
0.0564497
0.0354394
0.047528
0.041294
0.0359738
0.0359738
)
;
    }
    procBoundary0to8
    {
        type            processor;
        value           nonuniform List<scalar> 
29
(
0.128047
0.0502857
0.0357386
0.0297654
0.0270493
0.0476032
0.0216076
0.0156455
0.0140533
0.013398
0.0325617
0.0150493
0.0124683
0.0124072
0.0126228
0.0274986
0.0134383
0.0122439
0.01285
0.0135029
0.0258377
0.0130412
0.0124931
0.0134853
0.0143755
0.0147081
0.0137476
0.0147079
0.0150724
)
;
    }
    procBoundary0to9
    {
        type            processor;
        value           nonuniform List<scalar> 
40
(
0.0258571
0.0258367
0.0275074
0.0341559
0.0341559
0.0494192
0.131886
0.013129
0.0130394
0.0134395
0.0160573
0.0160573
0.022809
0.0522211
0.0126811
0.0124915
0.0122451
0.0134836
0.0134836
0.0169468
0.0373124
0.0137458
0.0134849
0.0128515
0.0135052
0.0135052
0.0150492
0.0313186
0.014377
0.0135042
0.0137875
0.0137875
0.0144108
0.0285988
0.0147092
0.0137478
0.0138682
0.0138682
0.014154
0.0274186
)
;
    }
}


// ************************************************************************* //
