/*--------------------------------*- C++ -*----------------------------------*\
| =========                 |                                                 |
| \\      /  F ield         | OpenFOAM: The Open Source CFD Toolbox           |
|  \\    /   O peration     | Version:  2212                                  |
|   \\  /    A nd           | Website:  www.openfoam.com                      |
|    \\/     M anipulation  |                                                 |
\*---------------------------------------------------------------------------*/
FoamFile
{
    version     2.0;
    format      ascii;
    arch        "LSB;label=32;scalar=64";
    class       volScalarField;
    location    "1.7";
    object      nut;
}
// * * * * * * * * * * * * * * * * * * * * * * * * * * * * * * * * * * * * * //

dimensions      [0 2 -1 0 0 0 0];

internalField   nonuniform List<scalar> 
689
(
4.41541e-06
4.34272e-06
4.27501e-06
4.2126e-06
4.15496e-06
4.10191e-06
4.05749e-06
4.01588e-06
9.27217e-06
9.05254e-06
8.86457e-06
8.69511e-06
8.53997e-06
8.3956e-06
8.27473e-06
8.16176e-06
1.43741e-05
1.39586e-05
1.35844e-05
1.32513e-05
1.29569e-05
1.26967e-05
1.2463e-05
1.22494e-05
1.20591e-05
2.06168e-05
1.97181e-05
1.90093e-05
1.83806e-05
1.78176e-05
1.73112e-05
1.68551e-05
1.64454e-05
1.60745e-05
1.57383e-05
1.54321e-05
1.51536e-05
2.3288e-05
2.24031e-05
2.16046e-05
2.0882e-05
2.0231e-05
1.96473e-05
1.91225e-05
1.86481e-05
1.8215e-05
1.78185e-05
1.7453e-05
1.71151e-05
2.39214e-05
2.30714e-05
2.22817e-05
2.1561e-05
2.09072e-05
2.03169e-05
1.97837e-05
1.92992e-05
1.88527e-05
1.84374e-05
1.80518e-05
1.76935e-05
2.25655e-05
2.17737e-05
2.10573e-05
2.04095e-05
1.98237e-05
1.9293e-05
1.88095e-05
1.8364e-05
1.79483e-05
1.75602e-05
1.71983e-05
1.68606e-05
1.98514e-05
1.89703e-05
1.83119e-05
1.7764e-05
1.72801e-05
1.68423e-05
1.6436e-05
1.60565e-05
1.57025e-05
1.53725e-05
1.5065e-05
1.47779e-05
1.55917e-05
1.48089e-05
1.43047e-05
1.39039e-05
1.35496e-05
1.32224e-05
1.29179e-05
1.26361e-05
1.23751e-05
1.21338e-05
1.19151e-05
1.03573e-05
9.86847e-06
9.52255e-06
9.28349e-06
9.0748e-06
8.88888e-06
8.70868e-06
8.54302e-06
8.39095e-06
8.2519e-06
8.12489e-06
5.06189e-06
4.82902e-06
4.6346e-06
4.50705e-06
4.41529e-06
4.34052e-06
4.27396e-06
4.21238e-06
4.15564e-06
4.10365e-06
4.05813e-06
9.0859e-06
8.90157e-06
8.71116e-06
8.5439e-06
8.389e-06
8.24687e-06
8.12222e-06
8.00992e-06
2.79449e-05
2.57643e-05
2.38529e-05
2.21021e-05
2.04279e-05
1.89755e-05
1.78187e-05
1.66302e-05
5.76469e-05
5.40691e-05
5.08016e-05
4.77585e-05
4.49338e-05
4.23283e-05
3.98745e-05
3.77615e-05
3.539e-05
8.89583e-05
8.41077e-05
7.97018e-05
7.57524e-05
7.26513e-05
6.94613e-05
6.54952e-05
6.19465e-05
5.86997e-05
5.57065e-05
5.29493e-05
5.03671e-05
0.000102915
9.71651e-05
9.17218e-05
8.67523e-05
8.23895e-05
7.89922e-05
7.5684e-05
7.24611e-05
6.8834e-05
6.5521e-05
6.24608e-05
5.96205e-05
0.000107958
0.000101611
9.59607e-05
9.09356e-05
8.64149e-05
8.27516e-05
7.96558e-05
7.6837e-05
7.34073e-05
6.99331e-05
6.67569e-05
6.38505e-05
0.000102785
9.67739e-05
9.19748e-05
8.77817e-05
8.39557e-05
8.09447e-05
7.84055e-05
7.55823e-05
7.19479e-05
6.86373e-05
6.55983e-05
6.28124e-05
9.01506e-05
8.33265e-05
8.01728e-05
7.73118e-05
7.47916e-05
7.28406e-05
6.96824e-05
6.61645e-05
6.28907e-05
5.98238e-05
5.69512e-05
5.42797e-05
6.95349e-05
6.32811e-05
6.10471e-05
5.96853e-05
5.6941e-05
5.36672e-05
5.05439e-05
4.75893e-05
4.47617e-05
4.2102e-05
3.96785e-05
3.69027e-05
3.32415e-05
3.12729e-05
2.94355e-05
2.74616e-05
2.56279e-05
2.37572e-05
2.20777e-05
2.04592e-05
1.90366e-05
1.77985e-05
1.08048e-05
1.02429e-05
9.82201e-06
9.51953e-06
9.27259e-06
9.04691e-06
8.8615e-06
8.6945e-06
8.54132e-06
8.39983e-06
8.27642e-06
1.39218e-05
1.3561e-05
1.32296e-05
1.29209e-05
1.2636e-05
1.2372e-05
1.21289e-05
1.1909e-05
1.17057e-05
6.0045e-05
5.70552e-05
5.36701e-05
5.04843e-05
4.74831e-05
4.46039e-05
4.1931e-05
3.94496e-05
3.70746e-05
0.000102838
9.84675e-05
9.41719e-05
8.999e-05
8.59168e-05
8.196e-05
7.8144e-05
7.45286e-05
7.09988e-05
0.000150722
0.000143845
0.00013729
0.000131149
0.00012551
0.00012027
0.000115244
0.000110507
0.000106021
0.000101758
9.77054e-05
9.38434e-05
0.000170219
0.000162037
0.000154439
0.000147425
0.000140983
0.000135107
0.000129701
0.000124686
0.000119901
0.000115353
0.000111043
0.000106959
0.000176261
0.000167738
0.000159977
0.000152869
0.000146343
0.000140366
0.000134904
0.000129886
0.000125132
0.000120582
0.000116239
0.000112117
0.000170052
0.000161817
0.000154497
0.000147878
0.000141823
0.000136281
0.000131168
0.000126376
0.000121786
0.000117409
0.000113224
0.00010922
0.0001514
0.000144159
0.000137789
0.000132087
0.000126841
0.000121966
0.000117279
0.000112728
0.000108325
0.000104073
0.000100005
9.61475e-05
0.000117256
0.000111777
0.00010681
0.000102566
9.83822e-05
9.4199e-05
9.00752e-05
8.60407e-05
8.21135e-05
7.83116e-05
7.46885e-05
6.56e-05
6.23871e-05
5.93248e-05
5.71281e-05
5.37824e-05
5.06455e-05
4.76758e-05
4.49008e-05
4.23272e-05
3.98741e-05
3.78854e-05
1.62009e-05
1.54813e-05
1.48807e-05
1.43837e-05
1.39555e-05
1.35816e-05
1.3249e-05
1.29561e-05
1.26971e-05
1.24642e-05
1.22527e-05
1.77725e-05
1.72896e-05
1.68491e-05
1.644e-05
1.60584e-05
1.57023e-05
1.53707e-05
1.50622e-05
1.47754e-05
7.71342e-05
7.4796e-05
7.28461e-05
6.96409e-05
6.61161e-05
6.2829e-05
5.97513e-05
5.686e-05
5.4191e-05
0.000132124
0.000126843
0.000121938
0.000117226
0.000112654
0.000108234
0.00010397
9.98931e-05
9.60173e-05
0.000190418
0.000181731
0.000173734
0.000166377
0.000159604
0.000153356
0.00014756
0.000142115
0.000136982
0.000132127
0.000127521
0.000123148
0.00021076
0.000201336
0.00019269
0.000184713
0.000177341
0.000170515
0.000164176
0.000158274
0.000152769
0.000147593
0.000142695
0.000138056
0.000217085
0.000207542
0.000198797
0.000190719
0.00018323
0.000176274
0.000169805
0.00016378
0.000158148
0.000152861
0.000147875
0.000143157
0.000210794
0.000201552
0.00019299
0.000185077
0.000177761
0.000170987
0.000164697
0.000158834
0.000153341
0.000148173
0.000143292
0.00013867
0.000190429
0.000181805
0.000173791
0.000166425
0.000159652
0.000153408
0.00014762
0.000142183
0.000137057
0.000132206
0.000127603
0.000123231
0.000150741
0.000143787
0.000137216
0.00013114
0.000125552
0.000120341
0.000115348
0.000110633
0.000106158
0.0001019
9.78409e-05
8.88601e-05
8.3988e-05
7.95086e-05
7.5652e-05
7.25846e-05
6.94034e-05
6.54647e-05
6.19419e-05
5.87116e-05
5.57319e-05
5.29791e-05
2.06221e-05
1.97214e-05
1.90079e-05
1.83761e-05
1.78131e-05
1.731e-05
1.68563e-05
1.64467e-05
1.60766e-05
1.57407e-05
1.54338e-05
2.04315e-05
1.98386e-05
1.93036e-05
1.88174e-05
1.837e-05
1.79527e-05
1.75633e-05
1.72001e-05
1.68616e-05
8.7768e-05
8.40438e-05
8.11279e-05
7.85099e-05
7.56319e-05
7.20026e-05
6.86884e-05
6.56357e-05
6.28365e-05
0.00014784
0.000141832
0.000136316
0.000131206
0.000126407
0.000121808
0.000117421
0.000113223
0.000109207
0.000210729
0.000201419
0.000192886
0.000185017
0.000177734
0.000170981
0.000164703
0.000158844
0.00015335
0.000148178
0.000143292
0.000138664
0.000232284
0.000222453
0.000213366
0.000204941
0.000197112
0.000189823
0.000183024
0.000176671
0.000170719
0.000165128
0.000159861
0.000154891
0.000239101
0.00022914
0.000219912
0.000211342
0.000203366
0.000195931
0.000188988
0.000182492
0.000176404
0.000170683
0.000165295
0.000160215
0.000232303
0.000222492
0.000213406
0.000204974
0.000197137
0.000189841
0.000183038
0.000176681
0.000170727
0.000165134
0.000159865
0.000154891
0.000210759
0.000201408
0.000192768
0.000184783
0.000177406
0.00017058
0.000164239
0.000158337
0.000152831
0.000147653
0.000142749
0.000138094
0.000170184
0.000162138
0.000154545
0.000147528
0.000141092
0.000135227
0.000129809
0.0001248
0.000120028
0.000115478
0.000111162
0.000102899
9.71471e-05
9.17074e-05
8.67552e-05
8.24165e-05
7.90342e-05
7.5728e-05
7.25054e-05
6.88781e-05
6.55646e-05
6.25062e-05
2.32877e-05
2.23994e-05
2.16029e-05
2.08832e-05
2.02341e-05
1.96516e-05
1.91273e-05
1.86527e-05
1.82191e-05
1.78222e-05
1.74557e-05
0.000217055
0.000207516
0.000198777
0.000190713
0.000183241
0.0001763
0.000169841
0.000163821
0.000158192
0.0001529
0.000147903
0.000143169
0.000239041
0.000229095
0.000219879
0.000211321
0.000203358
0.000195934
0.000189
0.000182511
0.000176425
0.000170704
0.000165313
0.000160227
0.000246081
0.000236021
0.000226656
0.000217941
0.000209823
0.000202248
0.000195167
0.000188535
0.00018231
0.000176457
0.00017094
0.000165739
0.000239043
0.000229074
0.000219868
0.000211322
0.000203365
0.000195942
0.000189006
0.000182512
0.000176422
0.000170697
0.000165302
0.00016021
0.000217064
0.00020757
0.000198846
0.000190779
0.000183296
0.000176344
0.000169872
0.000163841
0.000158201
0.000152903
0.000147902
0.000143148
0.000176199
0.000167872
0.000160153
0.000153049
0.000146518
0.000140534
0.000135046
0.000130013
0.000125248
0.00012069
0.000116335
0.000107803
0.000101601
9.60104e-05
9.10204e-05
8.65304e-05
8.28829e-05
7.97538e-05
7.6948e-05
7.35118e-05
7.00182e-05
6.68435e-05
2.39259e-05
2.30792e-05
2.22915e-05
2.15719e-05
2.09185e-05
2.03281e-05
1.97942e-05
1.93086e-05
1.88608e-05
1.84441e-05
1.80583e-05
)
;

boundaryField
{
    inlet
    {
        type            calculated;
        value           nonuniform List<scalar> 0();
    }
    ami1
    {
        type            cyclicAMI;
        value           nonuniform List<scalar> 0();
    }
    walls
    {
        type            nutkWallFunction;
        blending        stepwise;
        value           uniform 0;
    }
    ami2
    {
        type            cyclicAMI;
        value           nonuniform List<scalar> 
48
(
2.31897e-05
2.54135e-05
2.54609e-05
2.33984e-05
2.14593e-05
1.81491e-05
1.24751e-05
7.52496e-06
9.39396e-05
0.00010762
0.000112949
0.000108579
9.4915e-05
7.30787e-05
4.19184e-05
1.36211e-05
0.000154588
0.000174366
0.00018088
0.000175347
0.000156475
0.000121438
7.16581e-05
1.90484e-05
0.000195102
0.000215571
0.000222144
0.000215805
0.000195104
0.000154593
9.38877e-05
2.31925e-05
0.000215773
0.000237489
0.00024441
0.000237498
0.00021557
0.000174347
0.000107611
2.54136e-05
0.000222128
0.000244379
0.000251475
0.000244381
0.000222135
0.000180851
0.000112875
2.54639e-05
)
;
    }
    outlet
    {
        type            calculated;
        value           nonuniform List<scalar> 0();
    }
    procBoundary0to1
    {
        type            processor;
        value           nonuniform List<scalar> 
138
(
2.10644e-05
2.15664e-05
2.09145e-05
2.03248e-05
1.97914e-05
1.93061e-05
1.88585e-05
1.8442e-05
1.80555e-05
1.7696e-05
9.18735e-05
9.10162e-05
8.65135e-05
8.28567e-05
7.97288e-05
7.69185e-05
7.34893e-05
7.00001e-05
6.68055e-05
6.38798e-05
0.000170014
0.000161806
0.000154503
0.000154503
0.000152903
0.000146385
0.000140415
0.000134957
0.00012994
0.000125183
0.000120623
0.000116265
0.000112127
0.000176171
0.000167759
0.000160008
0.000152903
0.000146385
0.000140415
0.000134957
0.00012994
0.000125183
0.000120623
0.000116265
0.000112127
0.000210642
0.000201292
0.000192673
0.000184712
0.000177353
0.00017054
0.00016421
0.000158315
0.00015281
0.000147632
0.000142725
0.000138075
0.000232226
0.000222397
0.000213323
0.000204912
0.000197097
0.000189822
0.000183035
0.00017669
0.000170743
0.000165154
0.000159884
0.000154908
0.000239071
0.000229067
0.000219841
0.000211288
0.000203332
0.000195916
0.000188988
0.000182503
0.000176422
0.000170704
0.000165316
0.000160231
0.000232219
0.00022242
0.000213348
0.000204931
0.000197109
0.000189826
0.000183032
0.000176681
0.000170729
0.000165136
0.000159863
0.000154883
0.000210698
0.000201448
0.000192928
0.000185057
0.000177771
0.000171014
0.000164731
0.000158865
0.000153364
0.000148184
0.000143289
0.000138624
0.000170126
0.000161804
0.000154512
0.000147931
0.000141904
0.000136379
0.000131265
0.000126459
0.000121863
0.000117476
0.000113277
0.000102888
9.69186e-05
9.21183e-05
8.79202e-05
8.41122e-05
8.11041e-05
7.85454e-05
7.57116e-05
7.20761e-05
6.87491e-05
6.57335e-05
2.25707e-05
2.17807e-05
2.10636e-05
2.04151e-05
1.98295e-05
1.92994e-05
1.88163e-05
1.83709e-05
1.7955e-05
1.75664e-05
1.72043e-05
)
;
    }
    procBoundary0to2
    {
        type            processor;
        value           nonuniform List<scalar> 
28
(
4.50807e-06
9.52325e-06
9.52325e-06
1.6199e-05
1.54807e-05
1.48821e-05
1.48821e-05
9.28969e-06
9.28969e-06
2.94277e-05
2.94277e-05
2.94277e-05
6.55481e-05
6.24488e-05
5.95031e-05
5.95031e-05
1.43077e-05
6.10612e-05
0.000117423
0.000111776
0.000106857
0.000106857
1.83236e-05
8.04435e-05
0.000151483
0.000144231
0.000137845
0.000137845
)
;
    }
    procBoundary0to8
    {
        type            processor;
        value           nonuniform List<scalar> 
29
(
3.97721e-06
8.05933e-06
1.18835e-05
1.4895e-05
1.68033e-05
7.91025e-06
1.5789e-05
3.43507e-05
4.81581e-05
5.71382e-05
1.15206e-05
3.51271e-05
6.7927e-05
9.02411e-05
0.000103091
1.45078e-05
5.16047e-05
9.23225e-05
0.000118957
0.000133595
1.65463e-05
6.01538e-05
0.000105303
0.000134205
0.000150126
0.000155338
0.000138611
0.000155356
0.00016076
)
;
    }
    procBoundary0to9
    {
        type            processor;
        value           nonuniform List<scalar> 
40
(
1.73626e-05
1.65465e-05
1.45114e-05
1.17105e-05
1.17105e-05
8.01337e-06
4.01716e-06
6.12555e-05
6.01512e-05
5.16557e-05
3.7309e-05
3.7309e-05
1.68237e-05
8.16396e-06
0.000108169
0.000105313
9.23946e-05
7.12673e-05
7.12673e-05
3.54677e-05
1.20587e-05
0.000138607
0.000134206
0.000119004
9.40387e-05
9.40387e-05
5.05878e-05
1.51533e-05
0.000150115
0.000133605
0.00010706
0.00010706
5.985e-05
1.71183e-05
0.00015533
0.000138573
0.000112138
0.000112138
6.40336e-05
1.77025e-05
)
;
    }
}


// ************************************************************************* //
