/*--------------------------------*- C++ -*----------------------------------*\
| =========                 |                                                 |
| \\      /  F ield         | OpenFOAM: The Open Source CFD Toolbox           |
|  \\    /   O peration     | Version:  2212                                  |
|   \\  /    A nd           | Website:  www.openfoam.com                      |
|    \\/     M anipulation  |                                                 |
\*---------------------------------------------------------------------------*/
FoamFile
{
    version     2.0;
    format      ascii;
    arch        "LSB;label=32;scalar=64";
    class       volScalarField;
    location    "2.05";
    object      epsilon;
}
// * * * * * * * * * * * * * * * * * * * * * * * * * * * * * * * * * * * * * //

dimensions      [0 2 -3 0 0 0 0];

internalField   nonuniform List<scalar> 
693
(
0.0982524
0.0962936
0.0944094
0.0926105
0.0908478
0.0891607
0.0366143
0.0358087
0.0350511
0.0343256
0.0336243
0.0329505
0.0247899
0.024165
0.023584
0.0230235
0.0224837
0.0219698
0.0194864
0.0189049
0.0183677
0.0178649
0.0173919
0.0169482
0.0171074
0.0165656
0.0160593
0.0155941
0.0151558
0.0147502
0.0162449
0.0156929
0.0151745
0.0147085
0.0142857
0.0139056
0.0164553
0.0158994
0.0153907
0.0149382
0.0145224
0.014144
0.0179916
0.0174665
0.0169666
0.0165074
0.0160714
0.0156496
0.0221605
0.0215581
0.0209796
0.0204491
0.0199485
0.0194873
0.0338395
0.0330637
0.0323255
0.0316285
0.0309657
0.0303431
0.0982599
0.0963224
0.0944169
0.092616
0.0908415
0.0891454
0.0338356
0.0330579
0.0323226
0.0316294
0.0309708
0.0303525
0.0139959
0.0136168
0.0132536
0.0128717
0.0125186
0.012139
0.00951125
0.00926905
0.00893767
0.00863376
0.00840998
0.0080789
0.00791552
0.00770903
0.00735521
0.00717471
0.00686389
0.00666232
0.00731678
0.00700358
0.00674446
0.00645683
0.00623431
0.00602098
0.00702139
0.00671786
0.0064446
0.00617924
0.0059546
0.00574246
0.00702523
0.00672316
0.0064778
0.00616381
0.00597594
0.00570343
0.00751847
0.0070925
0.00689172
0.00654773
0.00638832
0.00606564
0.00869849
0.00839211
0.00817817
0.00780275
0.00761772
0.00727942
0.0140174
0.0135958
0.0132763
0.0128772
0.0125306
0.0121491
0.0366239
0.0358188
0.0350601
0.0343316
0.0336289
0.0329532
0.0221597
0.0215532
0.0209788
0.0204501
0.0199522
0.0194935
0.0086751
0.00842956
0.00814839
0.00781132
0.00761982
0.00727922
0.00648114
0.00616522
0.00594
0.00565343
0.00549024
0.00520387
0.00592452
0.00567433
0.00542357
0.00522578
0.00493258
0.00474476
0.00585511
0.0055412
0.00522043
0.00497014
0.0047835
0.00461312
0.00582907
0.00551285
0.00521518
0.00496316
0.00470984
0.00450897
0.00579808
0.00548411
0.00520553
0.00492282
0.00471426
0.00454016
0.00583
0.00551396
0.00531242
0.0050965
0.00492219
0.00463097
0.00652324
0.00616079
0.00596683
0.00565622
0.00550959
0.00521552
0.00961833
0.00920017
0.00898562
0.00862803
0.00842519
0.00808934
0.0248
0.024176
0.0235928
0.0230319
0.0224921
0.0219781
0.0179993
0.0174676
0.0169763
0.0165126
0.0160828
0.0156631
0.00738312
0.00716359
0.00680088
0.00661749
0.00630231
0.00610209
0.00581806
0.00551962
0.00528763
0.00509064
0.00486586
0.00465832
0.005745
0.00542559
0.00513855
0.00487978
0.00465006
0.004378
0.00587806
0.00553324
0.00521977
0.00493798
0.00469261
0.0044157
0.0059379
0.00558423
0.00526292
0.0049744
0.00471876
0.00443781
0.00585752
0.00551546
0.00520584
0.00492506
0.00467938
0.00440457
0.0057439
0.00542481
0.00513982
0.00488178
0.0046517
0.00438191
0.00593248
0.00566803
0.00543014
0.00521099
0.0049436
0.00475162
0.00804276
0.00763363
0.00743314
0.00714881
0.0068633
0.00665653
0.0194982
0.0189195
0.0183794
0.0178774
0.0174038
0.0169602
0.0164629
0.0159093
0.0154035
0.0149498
0.0145359
0.0141581
0.00701432
0.00671606
0.00645303
0.00617226
0.00595898
0.0057211
0.00578919
0.00547748
0.00519433
0.00490624
0.00469724
0.00453295
0.0058475
0.0055045
0.00519383
0.00491242
0.00466569
0.00439351
0.00608457
0.00571389
0.00537797
0.00507401
0.00480516
0.00451055
0.00619732
0.00581401
0.00546734
0.00515371
0.00487623
0.00457446
0.00609269
0.00572049
0.00538357
0.00507907
0.00481129
0.00451485
0.00586675
0.00552298
0.00520938
0.00492859
0.00468502
0.00441129
0.00584145
0.00552672
0.00520651
0.00496071
0.00477746
0.0046057
0.00731745
0.00698698
0.00676634
0.0064276
0.0062504
0.00598533
0.017125
0.0165815
0.0160746
0.0156087
0.0151687
0.0147628
0.016258
0.0157092
0.0151916
0.0147255
0.0143038
0.0139233
0.00700955
0.0067078
0.0064364
0.00617875
0.00593587
0.00574133
0.00581029
0.00549339
0.00519741
0.00494495
0.0046699
0.00452223
0.0059115
0.00555977
0.00524049
0.00495442
0.00469225
0.00443346
0.00617618
0.0057957
0.00545118
0.00514027
0.00485823
0.00457684
0.00630072
0.00590857
0.00555365
0.00523241
0.00494621
0.00464222
0.0061908
0.0058086
0.00546277
0.00514992
0.00487332
0.00457195
0.00592042
0.00556897
0.00524953
0.00496299
0.00470806
0.00442974
0.00581469
0.0054986
0.00520206
0.00495415
0.00469556
0.00450058
0.00700895
0.0067068
0.00643598
0.00617284
0.00594199
0.00573386
0.0162577
0.0157061
0.0151864
0.0147194
0.014296
0.0139157
0.0171243
0.0165842
0.0160798
0.0156134
0.0151792
0.00731799
0.00698771
0.00676498
0.0064167
0.00622821
0.00583546
0.00552213
0.00520148
0.00495292
0.00478268
0.00585777
0.00551349
0.00519919
0.00492579
0.00462777
0.00607548
0.00570423
0.00536746
0.00506847
0.00475712
0.00618497
0.00580321
0.00545754
0.00514553
0.0048635
0.00458399
0.00609267
0.00571953
0.00538196
0.00507687
0.00480747
0.00451144
0.00585497
0.00551153
0.00520151
0.00491934
0.00467256
0.00439924
0.00579304
0.00547828
0.00520108
0.00491667
0.00470569
0.00453009
0.00701998
0.0067188
0.00647878
0.00616156
0.0059764
0.00568574
0.0164621
0.015906
0.015397
0.0149447
0.0145288
0.014151
0.0189205
0.0183823
0.0178824
0.0174132
0.00774053
0.0073883
0.00713295
0.00690875
0.00591795
0.00566635
0.00542886
0.00517222
0.00496496
0.00573804
0.00541683
0.00512865
0.00487968
0.00458873
0.00584724
0.00550341
0.00519111
0.0049154
0.00461809
0.00592391
0.00557082
0.00525018
0.00496345
0.00470025
0.00444007
0.00587725
0.00553003
0.00521514
0.00493181
0.00468323
0.00440787
0.00574747
0.00542534
0.00514058
0.00488132
0.00465138
0.00437829
0.00583051
0.00551015
0.00530369
0.00509139
0.00491824
0.00462749
0.00750741
0.00709483
0.00688745
0.00654281
0.00637878
0.00606012
0.017995
0.0174707
0.0169714
0.016513
0.0160778
0.0156568
0.0241782
0.0235964
0.0230382
0.0225014
0.00926081
0.00893841
0.00862855
0.00837315
0.00647858
0.00616884
0.00594043
0.00563296
0.0054387
0.00581814
0.00551553
0.00528409
0.0050802
0.0048695
0.00579033
0.00547783
0.00519377
0.00491382
0.00470154
0.00581897
0.00550032
0.00520567
0.00495587
0.00468308
0.00451492
0.00585284
0.00553302
0.0052236
0.00496016
0.00476407
0.00459616
0.00593417
0.00566975
0.00543352
0.00520158
0.0049468
0.00474573
0.00647785
0.00615371
0.00594807
0.00564272
0.0054997
0.00520466
0.00867052
0.00841553
0.00815487
0.007801
0.00760752
0.00727526
0.0221654
0.021564
0.0209868
0.0204577
0.0199588
0.019499
0.0358213
0.0350648
0.034344
0.0336473
0.0136137
0.0132143
0.0128975
0.0125039
0.00866888
0.00841557
0.00816526
0.00779982
0.00756855
0.00738824
0.00713735
0.0068414
0.00656781
0.00633699
0.00701231
0.00671213
0.00644221
0.00617143
0.00595324
0.00701232
0.00670747
0.00643518
0.00616691
0.00596048
0.00573141
0.00733619
0.00698972
0.00676601
0.00642642
0.00624219
0.00598661
0.00804284
0.00763089
0.00742407
0.00715059
0.00685231
0.00664708
0.00956377
0.00918425
0.00896137
0.00861118
0.00841038
0.00807734
0.0140042
0.0135972
0.0132587
0.0128759
0.0125182
0.0121536
0.0338481
0.0330754
0.0323411
0.0316477
0.0309879
0.0303674
0.0963203
0.0944668
0.0926553
0.0909095
0.0330661
0.0323367
0.0316477
0.0309974
0.0221718
0.0215675
0.0209929
0.0204653
0.0199739
0.0180109
0.0174825
0.0169879
0.0165255
0.0160992
0.0164754
0.0159217
0.0154161
0.0149601
0.0145518
0.0162678
0.0157182
0.0152007
0.0147337
0.0143128
0.0139289
0.0171295
0.0165878
0.0160824
0.0156177
0.0151793
0.0147742
0.0195008
0.0189228
0.0183843
0.0178832
0.0174108
0.0169692
0.0248014
0.0241798
0.0235987
0.0230397
0.0225016
0.0219895
0.0366303
0.0358288
0.0350733
0.0343487
0.0336483
0.0329752
0.0982928
0.0963593
0.0944676
0.0926725
0.0909088
0.0892154
)
;

boundaryField
{
    inlet
    {
        type            fixedValue;
        value           nonuniform List<scalar> 0();
    }
    ami1
    {
        type            cyclicAMI;
        value           nonuniform List<scalar> 0();
    }
    walls
    {
        type            epsilonWallFunction;
        blending        stepwise;
        value           nonuniform List<scalar> 
248
(
0.0982524
0.0366143
0.0247899
0.0194864
0.0171074
0.0162449
0.0164553
0.0179916
0.0221605
0.0338395
0.0982599
0.0962936
0.0358087
0.024165
0.0189049
0.0165656
0.0156929
0.0158994
0.0174665
0.0215581
0.0330637
0.0963224
0.0944094
0.0350511
0.023584
0.0183677
0.0160593
0.0151745
0.0153907
0.0169666
0.0209796
0.0323255
0.0944169
0.0926105
0.0343256
0.0230235
0.0178649
0.0155941
0.0147085
0.0149382
0.0165074
0.0204491
0.0316285
0.092616
0.0908478
0.0336243
0.0224837
0.0173919
0.0151558
0.0142857
0.0145224
0.0160714
0.0199485
0.0309657
0.0908415
0.0891607
0.0329505
0.0219698
0.0169482
0.0147502
0.0139056
0.014144
0.0156496
0.0194873
0.0303431
0.0891454
0.0982599
0.0366239
0.0248
0.0194982
0.017125
0.0162577
0.0164621
0.017995
0.0221654
0.0338481
0.0982928
0.0963224
0.0358188
0.024176
0.0189195
0.0165815
0.0157061
0.015906
0.0174707
0.021564
0.0330754
0.0963593
0.0944169
0.0350601
0.0235928
0.0183794
0.0160746
0.0151864
0.015397
0.0169714
0.0209868
0.0323411
0.0944676
0.092616
0.0343316
0.0230319
0.0178774
0.0156087
0.0147194
0.0149447
0.016513
0.0204577
0.0316477
0.0926725
0.0908415
0.0336289
0.0224921
0.0174038
0.0151687
0.014296
0.0145288
0.0160778
0.0199588
0.0309879
0.0909088
0.0891454
0.0329532
0.0219781
0.0169602
0.0147628
0.0139157
0.014151
0.0156568
0.019499
0.0303674
0.0892154
0.0221718
0.0180109
0.0164754
0.0162678
0.0171295
0.0195008
0.0248014
0.0366303
0.0982928
0.0963203
0.0330661
0.0215675
0.0174825
0.0159217
0.0157182
0.0165878
0.0189228
0.0241798
0.0358288
0.0963593
0.0944668
0.0323367
0.0209929
0.0169879
0.0154161
0.0152007
0.0160824
0.0183843
0.0235987
0.0350733
0.0944676
0.0926553
0.0316477
0.0204653
0.0165255
0.0149601
0.0147337
0.0156177
0.0178832
0.0230397
0.0343487
0.0926725
0.0909095
0.0309974
0.0199739
0.0160992
0.0145518
0.0143128
0.0151793
0.0174108
0.0225016
0.0336483
0.0909088
0.0139289
0.0147742
0.0169692
0.0219895
0.0329752
0.0892154
0.0982524
0.0338356
0.0221597
0.0179993
0.0164629
0.016258
0.0171243
0.0962936
0.0330579
0.0215532
0.0174676
0.0159093
0.0157092
0.0165842
0.0189205
0.0241782
0.0358213
0.0963203
0.0944094
0.0323226
0.0209788
0.0169763
0.0154035
0.0151916
0.0160798
0.0183823
0.0235964
0.0350648
0.0944668
0.0926105
0.0316294
0.0204501
0.0165126
0.0149498
0.0147255
0.0156134
0.0178824
0.0230382
0.034344
0.0926553
0.0908478
0.0309708
0.0199522
0.0160828
0.0145359
0.0143038
0.0151792
0.0174132
0.0225014
0.0336473
0.0909095
0.0891607
0.0303525
0.0194935
0.0156631
0.0141581
0.0139233
)
;
    }
    ami2
    {
        type            cyclicAMI;
        value           nonuniform List<scalar> 0();
    }
    outlet
    {
        type            zeroGradient;
    }
    procBoundary7to5
    {
        type            processor;
        value           nonuniform List<scalar> 
131
(
0.0875365
0.032298
0.0214764
0.0165266
0.0143668
0.0135437
0.013774
0.0152314
0.0190486
0.0297425
0.0875161
0.0297551
0.01177
0.00790579
0.00645799
0.00582898
0.00556056
0.0055649
0.00595188
0.0071018
0.0117738
0.0322991
0.0190573
0.00709895
0.00510757
0.00457372
0.00448656
0.00443873
0.00444955
0.00453782
0.00511964
0.00791179
0.0214847
0.0152454
0.00594144
0.00449478
0.00430034
0.00433836
0.00435848
0.00432767
0.00430396
0.00457528
0.00646082
0.0165394
0.0137888
0.00555904
0.00441442
0.00431686
0.00440114
0.00445407
0.00440265
0.00433113
0.00448191
0.00582765
0.0143798
0.0135624
0.0147666
0.00555365
0.00599257
0.00444697
0.00464405
0.00435582
0.00449486
0.00446045
0.00459998
0.0045119
0.00444969
0.0043472
0.00442931
0.0055494
0.0135538
0.0147666
0.00599257
0.00464405
0.00449486
0.00459998
0.00459998
0.00446312
0.00439837
0.00431922
0.00444184
0.00555352
0.0137816
0.0169647
0.00665092
0.00474812
0.00446007
0.00448502
0.00448502
0.0043424
0.00432273
0.00429858
0.00453159
0.00594722
0.0152393
0.0219883
0.00809675
0.00524231
0.00466209
0.00459657
0.00459657
0.00444156
0.00447641
0.0045693
0.00511434
0.00709834
0.0190612
0.0329728
0.0121121
0.00731183
0.00609675
0.00573583
0.00573583
0.00557366
0.00582312
0.00645253
0.0079074
0.0117775
0.0297665
0.0892382
0.0303732
0.0195095
0.0156742
0.0141627
0.0141627
0.0135675
0.0143914
0.0165492
0.0214981
0.0323228
0.0875926
)
;
    }
    procBoundary7to8
    {
        type            processor;
        value           nonuniform List<scalar> 
68
(
0.100336
0.0374947
0.0254817
0.0201117
0.0177037
0.0346866
0.014501
0.00994785
0.00832031
0.00761878
0.022824
0.00914664
0.0068193
0.00620955
0.00616589
0.0185802
0.00779651
0.00618085
0.0060782
0.00622742
0.0169819
0.00730328
0.00610132
0.00619988
0.00646588
0.00658876
0.0167865
0.00730011
0.0061225
0.00627199
0.00656994
0.00670468
0.0177211
0.0195019
0.0076069
0.00792372
0.00614878
0.00621034
0.00645918
0.00657757
0.0195019
0.00792372
0.00792372
0.00620274
0.0060728
0.00619957
0.0062821
0.0248035
0.00954173
0.00954173
0.00681655
0.00617839
0.0061019
0.00612935
0.0366324
0.0140651
0.0140651
0.00914765
0.0077879
0.0073008
0.00730293
0.0982926
0.033854
0.033854
0.0228392
0.0185937
0.0169938
0.0167973
)
;
    }
    procBoundary7to9
    {
        type            processor;
        value           nonuniform List<scalar> 
59
(
0.01678
0.0169777
0.018584
0.0228336
0.0346926
0.100366
0.00731197
0.00730504
0.00774611
0.00913019
0.014496
0.0375096
0.00613808
0.00610719
0.00617564
0.00675183
0.00988722
0.0254991
0.00629431
0.00620699
0.0060759
0.0061946
0.00824391
0.0201297
0.0064738
0.00621735
0.00615191
0.00759858
0.0177225
0.00658262
0.00627852
0.00612599
0.00729889
0.0167905
0.00647402
0.00620522
0.00610383
0.00730043
0.0169854
0.00622732
0.00607872
0.00617879
0.00774969
0.018588
0.00616239
0.00620016
0.00680683
0.00912398
0.0228364
0.00760658
0.00824954
0.00994669
0.0144965
0.0347005
0.0177246
0.0201318
0.0254997
0.0375143
0.100384
)
;
    }
}


// ************************************************************************* //
