/*--------------------------------*- C++ -*----------------------------------*\
| =========                 |                                                 |
| \\      /  F ield         | OpenFOAM: The Open Source CFD Toolbox           |
|  \\    /   O peration     | Version:  2212                                  |
|   \\  /    A nd           | Website:  www.openfoam.com                      |
|    \\/     M anipulation  |                                                 |
\*---------------------------------------------------------------------------*/
FoamFile
{
    version     2.0;
    format      ascii;
    arch        "LSB;label=32;scalar=64";
    class       volScalarField;
    location    "0.9";
    object      p;
}
// * * * * * * * * * * * * * * * * * * * * * * * * * * * * * * * * * * * * * //

dimensions      [0 2 -2 0 0 0 0];

internalField   nonuniform List<scalar> 
682
(
0.00314975
0.00301791
0.00288773
0.00275935
0.00263276
0.00250797
0.00238495
0.00226372
0.00214424
0.00202658
0.00191066
0.00314731
0.00301595
0.0028862
0.00275835
0.00263234
0.00250805
0.0023854
0.00226449
0.00214534
0.00202839
0.00191334
0.00314038
0.0030097
0.00288048
0.00275328
0.00262805
0.00250455
0.00238232
0.00226182
0.00214307
0.00202698
0.00191311
0.00325776
0.00312914
0.0030017
0.00287579
0.00275039
0.00262652
0.00250397
0.00238218
0.00226189
0.00214338
0.00202726
0.00191313
0.00325662
0.0031298
0.00300403
0.00287906
0.00275418
0.00263045
0.00250782
0.00238598
0.00226553
0.00214675
0.00203003
0.0019158
0.00325649
0.00312837
0.00300097
0.00287437
0.00274853
0.00262435
0.00250154
0.0023798
0.00225957
0.00214111
0.00202458
0.00191046
0.0031362
0.00300649
0.00287807
0.0027511
0.00262566
0.00250176
0.00237941
0.00225866
0.00213954
0.00202214
0.00190631
0.00313753
0.00300717
0.00287836
0.00275122
0.00262575
0.00250188
0.00237971
0.00225907
0.00214014
0.00202291
0.001907
0.00313301
0.00300299
0.00287441
0.00274788
0.002623
0.00249962
0.00237787
0.00225757
0.00213941
0.00202327
0.00190781
0.00325661
0.00312662
0.00299746
0.00286942
0.00274353
0.00262001
0.00249793
0.00237638
0.00225642
0.00213863
0.00202292
0.00190878
0.00326057
0.00313224
0.00300454
0.00287803
0.00275221
0.00262821
0.00250561
0.00238381
0.00226348
0.0021451
0.00202886
0.00191502
0.00325707
0.00312719
0.00299817
0.0028702
0.00274352
0.00261882
0.00249574
0.00237399
0.00225397
0.00213578
0.00201947
0.00190553
0.00309976
0.00297101
0.002844
0.00271853
0.00259458
0.00247216
0.00235125
0.00223169
0.00211325
0.00199537
0.00187821
0.00310199
0.0029728
0.00284546
0.00271971
0.00259545
0.00247283
0.00235196
0.0022325
0.00211393
0.00199554
0.0018782
0.00310277
0.00297374
0.00284665
0.00272103
0.00259637
0.0024736
0.00235341
0.00223458
0.00211654
0.00199883
0.00188151
0.00323463
0.00310413
0.00297575
0.00284895
0.00272387
0.00259986
0.00247762
0.00235739
0.00223859
0.0021215
0.00200561
0.00188912
0.00325314
0.00312349
0.00299516
0.00286815
0.00274274
0.00261916
0.00249688
0.00237501
0.00225485
0.00213699
0.00202099
0.00190631
0.00325943
0.00312742
0.0029969
0.0028683
0.00274135
0.00261639
0.00249302
0.00237105
0.00225094
0.00213301
0.00201708
0.00190329
0.00308691
0.00295828
0.00283154
0.00270647
0.00258296
0.00246094
0.0023403
0.00222082
0.00210222
0.00198389
0.00186571
0.00308924
0.00296037
0.00283343
0.00270816
0.00258444
0.00246229
0.00234164
0.00222218
0.0021034
0.0019846
0.00186629
0.00309379
0.00296498
0.00283811
0.00271277
0.0025888
0.00246653
0.00234623
0.00222708
0.00210782
0.00198843
0.00187068
0.00323216
0.00310149
0.00297273
0.00284581
0.00272032
0.00259594
0.00247337
0.00235341
0.0022345
0.00211602
0.00199837
0.00188131
0.00326016
0.00312962
0.00300034
0.00287232
0.00274592
0.00262107
0.00249772
0.00237581
0.0022555
0.00213716
0.00202045
0.00190425
0.00327566
0.00314164
0.00300966
0.00287966
0.00275157
0.00262514
0.00250062
0.00237756
0.00225666
0.00213799
0.0020214
0.00190679
0.00308198
0.00295328
0.00282651
0.00270148
0.00257804
0.00245608
0.00233548
0.00221599
0.0020974
0.00197934
0.00186138
0.00308744
0.00295888
0.00283217
0.00270713
0.00258364
0.00246167
0.00234115
0.00222174
0.00210304
0.00198445
0.0018663
0.00322895
0.0030985
0.00296988
0.00284297
0.00271765
0.00259386
0.00247163
0.00235106
0.00223165
0.00211304
0.00199504
0.00187805
0.00326293
0.00313228
0.00300278
0.00287456
0.00274784
0.00262276
0.00249916
0.00237719
0.00225669
0.0021377
0.00202052
0.00190466
0.00328134
0.00314703
0.0030149
0.00288466
0.00275624
0.00262961
0.00250482
0.00238185
0.0022608
0.00214149
0.00202405
0.00190853
0.00308012
0.00295155
0.00282488
0.00269992
0.00257656
0.00245465
0.00233406
0.00221459
0.00209606
0.00197818
0.00186044
0.00308708
0.00295853
0.00283181
0.00270677
0.00258329
0.00246128
0.00234062
0.00222111
0.00210249
0.00198415
0.00186588
0.00323078
0.00310016
0.00297137
0.00284426
0.00271878
0.00259484
0.00247243
0.00235151
0.00223192
0.00211343
0.00199548
0.00187823
0.00326712
0.00313598
0.00300611
0.00287763
0.00275065
0.00262524
0.00250139
0.00237912
0.00225845
0.0021394
0.00202206
0.00190627
0.00328249
0.00314882
0.00301699
0.0028869
0.00275857
0.00263203
0.00250731
0.00238439
0.00226329
0.00214398
0.00202653
0.00191094
0.00308193
0.00295323
0.00282646
0.00270143
0.002578
0.00245605
0.00233546
0.002216
0.00209743
0.00197939
0.00186151
0.00308936
0.00296048
0.00283352
0.00270825
0.00258456
0.00246243
0.00234177
0.00222232
0.00210357
0.0019848
0.00186647
0.00323367
0.00310239
0.00297309
0.00284561
0.00271981
0.00259554
0.00247295
0.00235202
0.00223254
0.00211404
0.00199565
0.00187825
0.00326939
0.00313738
0.00300692
0.00287806
0.00275089
0.00262542
0.0025016
0.00237945
0.00225885
0.00214
0.00202282
0.00190696
0.00327923
0.00314647
0.00301519
0.00288559
0.00275781
0.00263184
0.00250761
0.00238506
0.00226427
0.00214521
0.00202838
0.00191354
0.00308726
0.00295865
0.00283196
0.00270693
0.00258343
0.00246146
0.00234095
0.00222157
0.0021029
0.00198433
0.00186633
0.00309378
0.00296497
0.0028381
0.00271277
0.00258878
0.00246654
0.00234618
0.00222703
0.00210792
0.00198854
0.00187067
0.00323425
0.00310302
0.00297396
0.0028468
0.0027211
0.0025964
0.00247378
0.00235333
0.00223439
0.00211672
0.00199901
0.00188161
0.00326448
0.00313276
0.00300285
0.00287436
0.00274772
0.00262282
0.00249946
0.00237778
0.00225752
0.00213934
0.00202322
0.00190784
0.00327121
0.00313972
0.00300912
0.00288003
0.00275292
0.00262773
0.00250427
0.00238221
0.00226185
0.00214306
0.00202697
0.00191324
0.00309807
0.00296952
0.00284274
0.00271748
0.00259369
0.00247147
0.00235087
0.00223147
0.00211292
0.00199491
0.00187796
0.00310114
0.00297255
0.00284578
0.00272036
0.00259595
0.00247352
0.00235333
0.00223437
0.00211625
0.0019985
0.00188129
0.00323454
0.00310387
0.00297581
0.00284922
0.00272397
0.00259997
0.00247779
0.00235753
0.00223862
0.00212183
0.00200584
0.00188919
0.00325651
0.00312646
0.00299733
0.00286936
0.00274342
0.00261997
0.0024977
0.0023765
0.00225669
0.00213856
0.00202292
0.00190875
0.00325766
0.00312891
0.00300128
0.00287526
0.0027501
0.00262631
0.00250376
0.00238209
0.00226192
0.00214336
0.00202729
0.00191331
0.00313231
0.00300295
0.0028748
0.00274811
0.002623
0.00249938
0.00237738
0.00225684
0.00213788
0.00202063
0.00190459
0.00312963
0.00300053
0.0028726
0.0027462
0.00262139
0.00249798
0.00237607
0.00225566
0.00213746
0.00202061
0.00190423
0.00325326
0.00312369
0.00299533
0.00286832
0.00274288
0.0026194
0.00249694
0.00237533
0.0022552
0.00213708
0.00202106
0.00190625
0.00326065
0.00313252
0.00300454
0.00287783
0.00275218
0.00262819
0.00250559
0.0023839
0.00226371
0.00214494
0.00202881
0.00191506
0.00325662
0.00312971
0.00300378
0.00287865
0.00275391
0.00263024
0.00250765
0.00238593
0.00226558
0.00214666
0.00203001
0.00191597
0.00314774
0.00301554
0.00288516
0.00275669
0.00263005
0.00250526
0.00238228
0.00226118
0.00214177
0.00202425
0.00190856
0.00314227
0.0030101
0.00287995
0.00275181
0.00262543
0.00250097
0.00237791
0.00225696
0.00213812
0.00202146
0.00190677
0.00325967
0.00312796
0.00299715
0.00286836
0.00274149
0.00261651
0.00249323
0.0023713
0.00225129
0.00213292
0.0020171
0.00190334
0.00325721
0.00312748
0.0029984
0.00287032
0.0027437
0.00261897
0.00249592
0.00237422
0.00225424
0.00213579
0.00201952
0.00190571
0.00325658
0.00312847
0.00300096
0.00287423
0.00274848
0.00262432
0.00250155
0.00237989
0.00225973
0.00214108
0.00202458
0.00191064
)
;

boundaryField
{
    inlet
    {
        type            zeroGradient;
    }
    ami1
    {
        type            cyclicAMI;
        value           nonuniform List<scalar> 0();
    }
    walls
    {
        type            zeroGradient;
    }
    ami2
    {
        type            cyclicAMI;
        value           nonuniform List<scalar> 0();
    }
    outlet
    {
        type            fixedValue;
        value           nonuniform List<scalar> 0();
    }
    procBoundary9to0
    {
        type            processor;
        value           nonuniform List<scalar> 
40
(
0.00328303
0.00327971
0.00327157
0.00327157
0.0033869
0.00338395
0.00338515
0.00326724
0.00326948
0.00326461
0.00326461
0.00338752
0.00338908
0.00338751
0.00323071
0.00323358
0.00323417
0.00323417
0.00336757
0.00338374
0.00339235
0.00321771
0.0032204
0.00322486
0.00322486
0.00336536
0.00339203
0.00341163
0.00321285
0.00321809
0.00321809
0.00336176
0.00339478
0.00341819
0.0032108
0.00321766
0.00321766
0.00336374
0.00339955
0.00341826
)
;
    }
    procBoundary9to1
    {
        type            processor;
        value           nonuniform List<scalar> 
30
(
0.00321281
0.00322036
0.00322036
0.00336754
0.00340304
0.00341328
0.00321809
0.00322485
0.00322485
0.00336824
0.00339807
0.00340338
0.00322884
0.00323204
0.00323204
0.00336733
0.00338757
0.00338703
0.00326289
0.00326018
0.00326018
0.00338369
0.00338936
0.00338414
0.00328174
0.00327606
0.00327606
0.00339271
0.00338776
0.00338535
)
;
    }
    procBoundary9to7
    {
        type            processor;
        value           nonuniform List<scalar> 
59
(
0.00179538
0.0017979
0.00179797
0.0017983
0.00180123
0.00179613
0.00179103
0.00179176
0.00179226
0.00179378
0.00180041
0.00179129
0.00176323
0.00176397
0.00176711
0.00177388
0.00179122
0.00178848
0.00175007
0.00175121
0.00175674
0.00176696
0.001789
0.00179145
0.00174542
0.00175117
0.0017636
0.00178945
0.00179344
0.00174445
0.00175018
0.00176336
0.00179111
0.00179588
0.00174563
0.00175137
0.00176403
0.00179181
0.00179825
0.00175136
0.00175666
0.00176705
0.00179234
0.00179824
0.00176365
0.00176669
0.00177369
0.00179389
0.00179861
0.00178926
0.00178871
0.00179119
0.00180066
0.00180156
0.00179309
0.00179136
0.00178867
0.00179155
0.00179643
)
;
    }
    procBoundary9to8
    {
        type            processor;
        value           nonuniform List<scalar> 
132
(
0.00314791
0.00301576
0.00288542
0.00275694
0.0026303
0.00250543
0.00238239
0.00226118
0.00214163
0.00202396
0.00190819
0.00313249
0.00300315
0.00287499
0.00274829
0.00262312
0.00249955
0.00237738
0.00225681
0.00213771
0.00202038
0.00190459
0.00309809
0.00296953
0.00284273
0.00271742
0.00259358
0.00247137
0.00235077
0.00223141
0.00211295
0.00199522
0.00187833
0.00308728
0.00295867
0.00283196
0.00270689
0.00258337
0.00246142
0.00234094
0.00222161
0.00210306
0.00198468
0.00186655
0.00308008
0.00295146
0.00282476
0.00269979
0.00257642
0.00245451
0.00233391
0.00221444
0.00209591
0.00197802
0.00186033
0.00308008
0.00295146
0.00282476
0.00269979
0.00257642
0.00245451
0.00233391
0.00221444
0.00209591
0.00197802
0.00186033
0.00307762
0.00294918
0.00282263
0.00269778
0.00257449
0.00245264
0.00233208
0.00221263
0.00209414
0.00197638
0.00185889
0.00308009
0.00295151
0.00282485
0.00269991
0.00257655
0.00245465
0.00233406
0.00221459
0.00209605
0.00197813
0.00186035
0.00308691
0.00295832
0.00283163
0.00270661
0.00258315
0.00246116
0.00234052
0.002221
0.00210236
0.00198397
0.00186572
0.00309972
0.00297103
0.00284409
0.00271868
0.00259478
0.0024724
0.00235149
0.00223189
0.00211334
0.00199526
0.00187781
0.00313592
0.00300619
0.00287778
0.0027508
0.00262537
0.00250151
0.00237922
0.00225856
0.00213949
0.00202209
0.00190619
0.00314943
0.00301751
0.00288724
0.00275879
0.0026322
0.00250743
0.00238448
0.00226338
0.00214412
0.00202679
0.00191142
)
;
    }
}


// ************************************************************************* //
