/*--------------------------------*- C++ -*----------------------------------*\
| =========                 |                                                 |
| \\      /  F ield         | OpenFOAM: The Open Source CFD Toolbox           |
|  \\    /   O peration     | Version:  2212                                  |
|   \\  /    A nd           | Website:  www.openfoam.com                      |
|    \\/     M anipulation  |                                                 |
\*---------------------------------------------------------------------------*/
FoamFile
{
    version     2.0;
    format      ascii;
    arch        "LSB;label=32;scalar=64";
    class       volScalarField;
    location    "1";
    object      epsilon;
}
// * * * * * * * * * * * * * * * * * * * * * * * * * * * * * * * * * * * * * //

dimensions      [0 2 -3 0 0 0 0];

internalField   nonuniform List<scalar> 
680
(
0.270387
0.246462
0.227034
0.211699
0.202782
0.194783
0.173208
0.149997
0.131662
0.117189
0.1065
0.0994534
0.148913
0.128031
0.111353
0.0979454
0.0871987
0.0790204
0.144442
0.123392
0.106521
0.0928588
0.0817405
0.0733048
0.143352
0.122227
0.105239
0.0914131
0.0801319
0.0718698
0.143294
0.122141
0.10511
0.091216
0.0798147
0.0711791
0.170932
0.14432
0.123212
0.106252
0.0924506
0.0811663
0.0728947
0.175187
0.148784
0.12784
0.111064
0.0975013
0.0865291
0.0782038
0.203
0.173115
0.149849
0.131404
0.116707
0.105569
0.0980143
0.299992
0.270387
0.246462
0.227034
0.211699
0.202781
0.194784
0.173115
0.149849
0.131404
0.116707
0.10557
0.0980145
0.109798
0.0932277
0.0801893
0.0696746
0.0607124
0.0565753
0.111171
0.0927171
0.0781969
0.0666516
0.0571616
0.0502477
0.11776
0.0977853
0.0820984
0.0696294
0.0595997
0.051371
0.122279
0.101373
0.084952
0.0718953
0.061403
0.0529409
0.122268
0.10136
0.0849368
0.0718814
0.0613926
0.052924
0.143524
0.117736
0.0977564
0.0820668
0.0695983
0.0595722
0.0513328
0.13486
0.111156
0.0926998
0.0781826
0.0666493
0.0571976
0.0498
0.131268
0.109797
0.0932272
0.0801889
0.0696742
0.060712
0.0565757
0.203066
0.173208
0.149997
0.131662
0.117189
0.1065
0.0994537
0.148785
0.12784
0.111064
0.0975015
0.0865288
0.078201
0.111157
0.0927005
0.0781829
0.0666495
0.057198
0.0497994
0.123892
0.102261
0.0853477
0.0719601
0.0612251
0.0526395
0.138336
0.113799
0.0946175
0.0794461
0.0673162
0.0575521
0.146784
0.120659
0.100215
0.0840342
0.0710929
0.0606337
0.146777
0.120649
0.100204
0.0840222
0.0710805
0.0606167
0.17012
0.138322
0.113781
0.094597
0.0794236
0.0672936
0.0575194
0.15193
0.123891
0.10226
0.0853473
0.0719597
0.0612245
0.0526393
0.134873
0.111172
0.092717
0.0781967
0.0666513
0.0571612
0.0502482
0.175275
0.148914
0.128031
0.111353
0.0979454
0.087199
0.0790235
0.14432
0.123213
0.106252
0.0924507
0.0811662
0.0728943
0.117737
0.0977569
0.0820669
0.0695982
0.0595719
0.0513334
0.138323
0.113782
0.0945971
0.0794235
0.0672935
0.0575189
0.158286
0.129961
0.107788
0.0902408
0.0762075
0.0648274
0.169486
0.139171
0.115393
0.0965486
0.0814518
0.0691107
0.169484
0.139169
0.115391
0.0965465
0.0814521
0.0691394
0.194892
0.158286
0.129961
0.107788
0.0902407
0.0762074
0.0648274
0.17013
0.138336
0.113799
0.0946172
0.0794457
0.0673157
0.0575516
0.143543
0.117761
0.0977857
0.0820986
0.0696294
0.0595997
0.0513709
0.171016
0.144442
0.123393
0.106521
0.092859
0.0817407
0.0733054
0.143294
0.122141
0.10511
0.091216
0.0798146
0.0711787
0.122268
0.101359
0.0849363
0.0718808
0.0613918
0.0529234
0.146776
0.120649
0.100204
0.0840217
0.0710799
0.0606158
0.169484
0.139169
0.115391
0.0965464
0.0814519
0.0691391
0.182022
0.149548
0.124012
0.103737
0.0874641
0.0741347
0.182022
0.149548
0.124012
0.103737
0.0874641
0.0741348
0.208558
0.169486
0.139171
0.115393
0.0965484
0.0814517
0.0691108
0.180585
0.146784
0.120659
0.100215
0.084034
0.0710926
0.0606335
0.149255
0.12228
0.101374
0.0849523
0.0718955
0.0614032
0.0529412
0.169961
0.143352
0.122228
0.10524
0.0914134
0.0801322
0.0718702
0.143352
0.122227
0.105239
0.0914131
0.0801319
0.07187
0.122279
0.101373
0.0849517
0.0718949
0.0614024
0.0529403
0.146784
0.120659
0.100215
0.084034
0.0710926
0.0606334
0.169486
0.139171
0.115393
0.0965486
0.0814519
0.069111
0.182022
0.149548
0.124012
0.103737
0.0874642
0.074135
0.182022
0.149548
0.124012
0.103737
0.0874642
0.0741349
0.208556
0.169484
0.139169
0.115391
0.0965465
0.0814521
0.0691397
0.180578
0.146776
0.120649
0.100204
0.0840222
0.0710805
0.0606169
0.149245
0.122267
0.101359
0.0849367
0.0718814
0.0613926
0.0529243
0.169921
0.143294
0.122141
0.10511
0.091216
0.0798147
0.0711788
0.144442
0.123392
0.106521
0.0928589
0.0817407
0.0733054
0.11776
0.0977853
0.0820985
0.0696295
0.0595998
0.0513712
0.138336
0.113799
0.0946177
0.0794464
0.0673167
0.0575527
0.158286
0.129961
0.107788
0.0902412
0.0762081
0.0648282
0.169484
0.139169
0.115391
0.0965466
0.0814522
0.0691397
0.169486
0.139171
0.115393
0.0965485
0.0814518
0.069111
0.194892
0.158286
0.129961
0.107788
0.0902409
0.0762078
0.0648281
0.170119
0.138322
0.113781
0.0945972
0.0794239
0.0672941
0.0575197
0.143524
0.117736
0.0977563
0.0820667
0.0695982
0.059572
0.0513331
0.170932
0.144319
0.123212
0.106252
0.0924505
0.081166
0.0728944
0.148914
0.128031
0.111353
0.0979455
0.0871993
0.0790241
0.111172
0.0927174
0.0781975
0.0666522
0.0571622
0.0502496
0.123892
0.102261
0.0853483
0.0719608
0.061226
0.0526407
0.138323
0.113782
0.0945976
0.0794242
0.0672943
0.0575198
0.146777
0.120649
0.100204
0.084022
0.0710803
0.0606163
0.146784
0.120659
0.100215
0.0840338
0.0710925
0.0606333
0.17013
0.138336
0.113799
0.0946175
0.079446
0.0673162
0.0575521
0.15193
0.123891
0.102261
0.0853477
0.0719602
0.0612252
0.0526397
0.13486
0.111156
0.0926998
0.0781826
0.0666492
0.0571974
0.0497989
0.175187
0.148784
0.12784
0.111064
0.0975011
0.0865284
0.0781999
0.173209
0.149998
0.131663
0.117189
0.106501
0.0994549
0.109798
0.093228
0.0801897
0.0696749
0.060713
0.0565762
0.111157
0.0927007
0.0781832
0.0666497
0.0571982
0.0498
0.117737
0.0977569
0.0820669
0.0695982
0.0595719
0.0513332
0.122268
0.101359
0.0849362
0.0718807
0.0613917
0.0529232
0.122278
0.101373
0.0849516
0.0718949
0.0614024
0.0529402
0.143543
0.117761
0.0977858
0.0820987
0.0696296
0.0595998
0.0513712
0.134873
0.111172
0.0927175
0.0781974
0.066652
0.0571619
0.0502488
0.131268
0.109797
0.0932273
0.080189
0.0696744
0.0607122
0.0565756
0.203
0.173115
0.149849
0.131404
0.116707
0.105569
0.0980137
0.270387
0.246462
0.227035
0.211699
0.202782
0.194783
0.173115
0.149849
0.131404
0.116708
0.10557
0.0980143
0.148785
0.12784
0.111064
0.0975014
0.0865286
0.0781997
0.14432
0.123213
0.106252
0.0924505
0.081166
0.0728942
0.143294
0.122141
0.10511
0.0912158
0.0798144
0.0711787
0.143352
0.122227
0.105239
0.091413
0.0801318
0.0718697
0.171016
0.144442
0.123393
0.106521
0.092859
0.0817407
0.0733056
0.175275
0.148914
0.128031
0.111353
0.0979455
0.0871992
0.0790244
0.203066
0.173209
0.149997
0.131662
0.117189
0.106501
0.0994561
0.299992
0.270387
0.246462
0.227034
0.211699
0.202781
0.194783
0.369396
0.291965
0.229134
0.195535
0.124054
0.104266
0.0887232
0.0784969
0.0801367
0.0721404
0.065038
0.141858
0.117316
0.0961825
0.0817435
0.062794
0.0542764
0.0462167
0.0397737
0.0520697
0.0430996
0.03692
0.0966753
0.0807367
0.0690231
0.0543658
0.0439298
0.0368422
0.0462359
0.0400498
0.0347009
0.0746581
0.0657348
0.0584645
0.0497301
0.0416946
0.0356632
0.0478263
0.0414308
0.0360233
)
;

boundaryField
{
    inlet
    {
        type            fixedValue;
        value           nonuniform List<scalar> 0();
    }
    ami1
    {
        type            cyclicAMI;
        value           nonuniform List<scalar> 
100
(
0.133525
0.085295
0.0737449
0.0725891
0.0766962
0.0859997
0.0994955
0.0854877
0.0871462
0.133525
0.087146
0.0619947
0.0516196
0.0488944
0.0509872
0.0505503
0.0499181
0.049149
0.0619942
0.0852942
0.0854823
0.0491308
0.050132
0.053744
0.0563372
0.0562484
0.0535379
0.0501332
0.051623
0.0737443
0.0994904
0.049908
0.053534
0.0599982
0.0635753
0.0637191
0.0599996
0.0537466
0.0489229
0.072591
0.0859986
0.0505511
0.0562482
0.0637186
0.0682066
0.0682068
0.063576
0.0563383
0.0509935
0.0766975
0.0766971
0.0509921
0.0563379
0.0635763
0.0682073
0.0682068
0.0637204
0.0562499
0.0505526
0.0859989
0.072591
0.0489232
0.0537474
0.0600002
0.0637201
0.0635763
0.0600009
0.0535355
0.0499089
0.0994912
0.0737453
0.0516245
0.0501339
0.0535349
0.0562483
0.0563383
0.0537431
0.0501314
0.0491309
0.0854817
0.0852961
0.0619957
0.0491321
0.0499082
0.0505509
0.0509926
0.0489229
0.0516193
0.0619946
0.0871454
0.133526
0.0871463
0.0854817
0.0994903
0.0859987
0.0766971
0.0725912
0.0737451
0.0852958
0.133525
)
;
    }
    walls
    {
        type            epsilonWallFunction;
        blending        stepwise;
        value           nonuniform List<scalar> 
283
(
0.299992
0.203066
0.175275
0.171016
0.169961
0.169921
0.170932
0.175187
0.203
0.299992
0.270387
0.173208
0.148914
0.144442
0.143352
0.143294
0.144319
0.148784
0.173115
0.270387
0.246462
0.149997
0.128031
0.123393
0.122228
0.122141
0.123212
0.12784
0.149849
0.246462
0.227034
0.131662
0.111353
0.106521
0.10524
0.10511
0.106252
0.111064
0.131404
0.227034
0.211699
0.117189
0.0979454
0.092859
0.0914134
0.091216
0.0924505
0.0975011
0.116707
0.211699
0.202781
0.1065
0.087199
0.0817407
0.0801322
0.0798147
0.081166
0.0865284
0.105569
0.202781
0.194784
0.0994537
0.0790235
0.0733054
0.0718702
0.0711788
0.0728944
0.0781999
0.0980137
0.194783
0.170932
0.175187
0.203
0.299992
0.270387
0.173208
0.148913
0.144442
0.143352
0.143294
0.14432
0.148784
0.173115
0.270387
0.246462
0.149997
0.128031
0.123392
0.122227
0.122141
0.123212
0.12784
0.149849
0.246462
0.227034
0.131662
0.111353
0.106521
0.105239
0.10511
0.106252
0.111064
0.131404
0.227034
0.211699
0.117189
0.0979454
0.0928588
0.0914131
0.091216
0.0924506
0.0975013
0.116707
0.211699
0.202782
0.1065
0.0871987
0.0817405
0.0801319
0.0798147
0.0811663
0.0865291
0.105569
0.202781
0.194783
0.0994534
0.0790204
0.0733048
0.0718698
0.0711791
0.0728947
0.0782038
0.0980143
0.194784
0.270387
0.173115
0.148785
0.14432
0.143294
0.143352
0.144442
0.148914
0.173209
0.270387
0.246462
0.149849
0.12784
0.123213
0.122141
0.122227
0.123392
0.128031
0.149998
0.246462
0.227034
0.131404
0.111064
0.106252
0.10511
0.105239
0.106521
0.111353
0.131663
0.227035
0.211699
0.116707
0.0975015
0.0924507
0.091216
0.0914131
0.0928589
0.0979455
0.117189
0.211699
0.202782
0.10557
0.0865288
0.0811662
0.0798146
0.0801319
0.0817407
0.0871993
0.106501
0.202782
0.194783
0.0980145
0.078201
0.0728943
0.0711787
0.07187
0.0733054
0.0790241
0.0994549
0.194783
0.171016
0.175275
0.203066
0.299992
0.270387
0.173115
0.148785
0.14432
0.143294
0.143352
0.144442
0.148914
0.173209
0.270387
0.246462
0.149849
0.12784
0.123213
0.122141
0.122227
0.123393
0.128031
0.149997
0.246462
0.227035
0.131404
0.111064
0.106252
0.10511
0.105239
0.106521
0.111353
0.131662
0.227034
0.211699
0.116708
0.0975014
0.0924505
0.0912158
0.091413
0.092859
0.0979455
0.117189
0.211699
0.202782
0.10557
0.0865286
0.081166
0.0798144
0.0801318
0.0817407
0.0871992
0.106501
0.202781
0.194783
0.0980143
0.0781997
0.0728942
0.0711787
0.0718697
0.0733056
0.0790244
0.0994561
0.194783
0.369396
0.124054
0.0801367
0.291965
0.104266
0.0721404
0.229134
0.0887232
0.065038
0.195535
0.0784969
0.369396
0.141858
0.0966753
0.0746581
0.291965
0.117316
0.0807367
0.0657348
0.229134
0.0961825
0.0690231
0.0584645
0.195535
0.0817435
)
;
    }
    ami2
    {
        type            cyclicAMI;
        value           nonuniform List<scalar> 
12
(
0.221068
0.100213
0.0830367
0.106604
0.0675313
0.0563772
0.0843023
0.0599671
0.0493169
0.0739752
0.0537779
0.0515536
)
;
    }
    outlet
    {
        type            zeroGradient;
    }
    procBoundary2to0
    {
        type            processor;
        value           nonuniform List<scalar> 
28
(
0.176181
0.0718843
0.0592845
0.0729058
0.0633076
0.0592845
0.0566906
0.0723049
0.0601262
0.0354815
0.0318529
0.0314491
0.0462171
0.0402994
0.0318529
0.0352708
0.0601262
0.0314491
0.0477734
0.0414034
0.0302027
0.0360788
0.0524357
0.030867
0.0522293
0.0451706
0.0314632
0.0392807
)
;
    }
    procBoundary2to1
    {
        type            processor;
        value           nonuniform List<scalar> 9(0.0671222 0.0598877 0.0537887 0.045564 0.0399567 0.0350763 0.050053 0.043223 0.037587);
    }
    procBoundary2to3
    {
        type            processor;
        value           nonuniform List<scalar> 
110
(
0.299992
0.203066
0.175275
0.171017
0.169961
0.169921
0.169921
0.204938
0.208959
0.241425
0.336378
0.203001
0.131267
0.134873
0.143544
0.149256
0.149246
0.149246
0.177325
0.165912
0.159233
0.24146
0.175187
0.134859
0.151929
0.17013
0.180585
0.180579
0.180579
0.211899
0.188837
0.165924
0.209021
0.170932
0.143522
0.170119
0.194892
0.208558
0.208556
0.208556
0.242788
0.211908
0.177343
0.204998
0.169921
0.149245
0.180578
0.208556
0.223737
0.223737
0.223737
0.259499
0.224903
0.184589
0.20393
0.169961
0.149256
0.180585
0.208558
0.223737
0.223737
0.223737
0.259498
0.224897
0.184581
0.203902
0.171017
0.143544
0.170131
0.194892
0.208556
0.208558
0.208558
0.242788
0.211899
0.177325
0.204938
0.175275
0.134873
0.15193
0.170119
0.180578
0.180585
0.180585
0.211908
0.188837
0.165912
0.208959
0.203066
0.131267
0.134859
0.143522
0.149245
0.149256
0.149256
0.177343
0.165924
0.159234
0.241424
0.299992
0.203001
0.175187
0.170932
0.169921
0.16996
0.16996
0.204998
0.209021
0.24146
0.336378
)
;
    }
}


// ************************************************************************* //
