/*--------------------------------*- C++ -*----------------------------------*\
| =========                 |                                                 |
| \\      /  F ield         | OpenFOAM: The Open Source CFD Toolbox           |
|  \\    /   O peration     | Version:  2212                                  |
|   \\  /    A nd           | Website:  www.openfoam.com                      |
|    \\/     M anipulation  |                                                 |
\*---------------------------------------------------------------------------*/
FoamFile
{
    version     2.0;
    format      ascii;
    arch        "LSB;label=32;scalar=64";
    class       volScalarField;
    location    "1";
    object      k;
}
// * * * * * * * * * * * * * * * * * * * * * * * * * * * * * * * * * * * * * //

dimensions      [0 2 -2 0 0 0 0];

internalField   nonuniform List<scalar> 
680
(
0.00442978
0.00416428
0.0039423
0.00376233
0.00365405
0.00356179
0.00545383
0.00495501
0.00454258
0.00420348
0.003944
0.00376787
0.00629065
0.005688
0.00518285
0.00475832
0.00440427
0.0041264
0.00703315
0.00633231
0.00574141
0.00523982
0.00481316
0.0044728
0.00742743
0.00667877
0.006045
0.0055038
0.00504206
0.00469113
0.00742513
0.00667515
0.00603928
0.00549474
0.00502679
0.00465421
0.00786813
0.00702854
0.00632516
0.00573019
0.00522206
0.00478694
0.0044502
0.00700985
0.00628637
0.00568135
0.00517231
0.00474133
0.00437678
0.00408409
0.00606228
0.0054515
0.00495113
0.00453557
0.00418982
0.00391678
0.00372279
0.00474763
0.00442978
0.00416427
0.00394229
0.00376233
0.00365403
0.0035618
0.00545149
0.00495113
0.00453557
0.00418982
0.0039168
0.00372284
0.0102696
0.00908301
0.00808949
0.00725194
0.00655592
0.00588094
0.0126189
0.0111513
0.00992311
0.0088873
0.00801228
0.00726114
0.0142424
0.012576
0.0111772
0.00999322
0.00898325
0.00811784
0.015086
0.0133161
0.0118271
0.0105632
0.00948117
0.00854792
0.015083
0.0133115
0.0118204
0.0105533
0.00946643
0.00851341
0.0162413
0.0142363
0.012567
0.0111639
0.00997352
0.00895442
0.00807224
0.0143848
0.0126145
0.0111448
0.00991343
0.0088725
0.00798818
0.00723271
0.0116998
0.0102696
0.009083
0.00808949
0.00725193
0.0065559
0.00588091
0.00606383
0.00545382
0.00495501
0.00454258
0.00420347
0.00394399
0.00376788
0.00628638
0.00568136
0.00517231
0.00474134
0.00437677
0.00408397
0.0126146
0.0111448
0.00991344
0.00887251
0.00798819
0.00723269
0.0165879
0.0146323
0.0129921
0.011605
0.01042
0.00937088
0.0191833
0.0169171
0.0150132
0.0134002
0.0120204
0.0108167
0.0205067
0.0180849
0.0160468
0.0143173
0.012834
0.0115304
0.0205053
0.0180829
0.0160442
0.0143138
0.0128294
0.0115246
0.021902
0.0191808
0.0169137
0.0150085
0.0133936
0.0120099
0.0107881
0.0189404
0.0165879
0.0146323
0.0129921
0.0116049
0.01042
0.00937087
0.0143878
0.0126189
0.0111513
0.0099231
0.00888729
0.00801226
0.00726115
0.00701261
0.00629066
0.00568801
0.00518286
0.00475832
0.00440428
0.00412649
0.00702855
0.00632517
0.0057302
0.00522207
0.00478694
0.00445019
0.0142363
0.012567
0.0111639
0.00997352
0.00895441
0.00807221
0.0191809
0.0169138
0.0150085
0.0133936
0.0120099
0.010788
0.0224675
0.0198157
0.0175822
0.0156855
0.014057
0.012622
0.0241351
0.021295
0.0188979
0.0168585
0.0151017
0.0135364
0.0241348
0.0212946
0.0188974
0.0168581
0.0151027
0.0135463
0.0256404
0.0224675
0.0198157
0.0175822
0.0156855
0.014057
0.0126221
0.0219037
0.0191833
0.0169171
0.0150132
0.0134002
0.0120204
0.0108168
0.0162455
0.0142424
0.012576
0.0111772
0.00999322
0.00898324
0.00811793
0.00787115
0.00703317
0.00633233
0.00574142
0.00523983
0.00481317
0.00447282
0.00742512
0.00667515
0.00603928
0.00549474
0.00502679
0.00465421
0.0150829
0.0133115
0.0118204
0.0105533
0.00946642
0.00851341
0.0205052
0.0180829
0.0160441
0.0143138
0.0128294
0.0115245
0.0241348
0.0212946
0.0188974
0.0168581
0.0151026
0.0135462
0.0259743
0.0229319
0.0203579
0.0181638
0.0162707
0.014587
0.0259743
0.0229319
0.0203579
0.0181638
0.0162707
0.014587
0.0275248
0.0241351
0.021295
0.0188979
0.0168585
0.0151017
0.0135364
0.0234087
0.0205067
0.0180849
0.0160468
0.0143173
0.012834
0.0115303
0.0172104
0.0150861
0.0133161
0.0118271
0.0105632
0.00948117
0.00854793
0.00832005
0.00742745
0.00667879
0.00604501
0.00550381
0.00504207
0.00469114
0.00742743
0.00667877
0.006045
0.0055038
0.00504206
0.00469114
0.015086
0.013316
0.0118271
0.0105632
0.00948117
0.00854794
0.0205067
0.0180849
0.0160468
0.0143173
0.012834
0.0115303
0.0241351
0.021295
0.0188979
0.0168585
0.0151017
0.0135364
0.0259743
0.0229319
0.0203579
0.0181638
0.0162707
0.014587
0.0259743
0.0229319
0.0203579
0.0181638
0.0162707
0.014587
0.0275246
0.0241348
0.0212946
0.0188974
0.0168581
0.0151026
0.0135463
0.0234077
0.0205052
0.0180829
0.0160441
0.0143138
0.0128294
0.0115246
0.0172082
0.0150829
0.0133115
0.0118204
0.0105533
0.00946643
0.00851344
0.00831856
0.00742513
0.00667515
0.00603929
0.00549474
0.00502679
0.00465421
0.00703315
0.00633231
0.00574141
0.00523982
0.00481316
0.00447282
0.0142424
0.012576
0.0111772
0.00999323
0.00898327
0.00811797
0.0191833
0.0169171
0.0150132
0.0134002
0.0120205
0.0108169
0.0224675
0.0198158
0.0175822
0.0156856
0.014057
0.0126221
0.0241348
0.0212946
0.0188974
0.0168581
0.0151027
0.0135463
0.0241351
0.021295
0.0188979
0.0168585
0.0151017
0.0135364
0.0256404
0.0224675
0.0198157
0.0175822
0.0156855
0.014057
0.0126222
0.021902
0.0191808
0.0169137
0.0150085
0.0133936
0.0120099
0.0107881
0.0162413
0.0142363
0.012567
0.0111639
0.00997351
0.00895441
0.00807223
0.00786813
0.00702854
0.00632516
0.00573019
0.00522206
0.00478694
0.0044502
0.00629065
0.00568801
0.00518285
0.00475832
0.00440429
0.00412651
0.0126189
0.0111513
0.00992312
0.00888731
0.0080123
0.00726121
0.0165879
0.0146323
0.0129922
0.011605
0.01042
0.00937096
0.0191809
0.0169138
0.0150085
0.0133937
0.0120099
0.0107881
0.0205052
0.0180829
0.0160441
0.0143138
0.0128294
0.0115245
0.0205067
0.0180848
0.0160468
0.0143173
0.012834
0.0115303
0.0219037
0.0191833
0.0169171
0.0150132
0.0134002
0.0120204
0.0108168
0.0189404
0.0165879
0.0146323
0.0129921
0.011605
0.01042
0.00937089
0.0143848
0.0126145
0.0111448
0.00991343
0.0088725
0.00798818
0.00723269
0.00700984
0.00628637
0.00568135
0.0051723
0.00474133
0.00437676
0.00408393
0.00545383
0.00495501
0.00454258
0.00420348
0.00394401
0.0037679
0.0102696
0.00908302
0.0080895
0.00725195
0.00655594
0.00588097
0.0126146
0.0111448
0.00991345
0.00887253
0.00798821
0.00723271
0.0142363
0.012567
0.0111639
0.00997352
0.00895441
0.00807221
0.0150829
0.0133115
0.0118204
0.0105533
0.00946641
0.0085134
0.015086
0.013316
0.0118271
0.0105632
0.00948115
0.00854792
0.0162455
0.0142424
0.012576
0.0111772
0.00999322
0.00898325
0.00811797
0.0143878
0.0126189
0.0111513
0.0099231
0.00888729
0.00801227
0.00726117
0.0116998
0.0102696
0.009083
0.00808949
0.00725193
0.00655591
0.00588093
0.00606228
0.00545149
0.00495113
0.00453557
0.00418982
0.00391678
0.00372282
0.00442978
0.00416428
0.0039423
0.00376233
0.00365405
0.00356178
0.0054515
0.00495114
0.00453558
0.00418983
0.0039168
0.00372283
0.00628638
0.00568136
0.00517231
0.00474133
0.00437676
0.00408392
0.00702855
0.00632517
0.00573019
0.00522206
0.00478693
0.00445018
0.00742512
0.00667514
0.00603928
0.00549473
0.00502678
0.00465419
0.00742742
0.00667877
0.00604499
0.0055038
0.00504206
0.00469113
0.00787115
0.00703316
0.00633232
0.00574142
0.00523983
0.00481317
0.00447283
0.00701261
0.00629066
0.00568801
0.00518286
0.00475832
0.00440428
0.00412653
0.00606383
0.00545383
0.00495501
0.00454258
0.00420347
0.003944
0.00376792
0.00474763
0.00442978
0.00416427
0.00394229
0.00376233
0.00365405
0.00356178
0.00477373
0.00408949
0.00348516
0.00314002
0.00382057
0.00341246
0.00307293
0.0028401
0.00369015
0.00344622
0.00322267
0.00422215
0.00372298
0.00326462
0.00293251
0.00416033
0.00374142
0.00337217
0.00312919
0.00581522
0.00519816
0.0047182
0.00422951
0.00374805
0.00337384
0.00541883
0.00491488
0.00448503
0.00753792
0.00680926
0.00618444
0.00412115
0.00377932
0.00349054
0.00673289
0.00603469
0.00546778
0.00867567
0.00793472
0.00725812
)
;

boundaryField
{
    inlet
    {
        type            fixedValue;
        value           nonuniform List<scalar> 0();
    }
    ami1
    {
        type            cyclicAMI;
        value           nonuniform List<scalar> 
100
(
0.00387705
0.00405337
0.00415684
0.00441006
0.00477176
0.00465521
0.00450839
0.00407689
0.00381485
0.00387701
0.00381489
0.005339
0.00692044
0.00773119
0.00811837
0.00801938
0.00768604
0.00691378
0.00533895
0.00405332
0.00407685
0.00691389
0.00881027
0.0102549
0.0108967
0.0108922
0.0101705
0.00881023
0.00692037
0.00415675
0.00450848
0.00768608
0.0101705
0.0119334
0.0127488
0.0127834
0.0119335
0.0102549
0.00773105
0.00441005
0.00465521
0.00801927
0.0108921
0.0127833
0.013764
0.0137641
0.0127488
0.0108966
0.0081183
0.00477176
0.00477174
0.00811829
0.0108966
0.0127488
0.0137641
0.0137641
0.0127834
0.0108921
0.00801933
0.00465522
0.00441005
0.00773114
0.010255
0.0119335
0.0127834
0.0127488
0.0119335
0.0101705
0.00768612
0.00450848
0.00415678
0.00692047
0.00881034
0.0101706
0.0108921
0.0108966
0.0102549
0.00881028
0.0069139
0.00407683
0.00405338
0.00533904
0.00691394
0.00768612
0.00801928
0.00811827
0.00773106
0.00692044
0.00533901
0.00381487
0.00387707
0.0038149
0.00407683
0.00450847
0.00465519
0.00477174
0.00441006
0.00415679
0.00405338
0.00387705
)
;
    }
    walls
    {
        type            kqRWallFunction;
        value           nonuniform List<scalar> 
283
(
0.00474763
0.00606383
0.00701261
0.00787115
0.00832005
0.00831856
0.00786813
0.00700984
0.00606228
0.00474763
0.00442978
0.00545382
0.00629066
0.00703317
0.00742745
0.00742513
0.00702854
0.00628637
0.00545149
0.00442978
0.00416427
0.00495501
0.00568801
0.00633233
0.00667879
0.00667515
0.00632516
0.00568135
0.00495113
0.00416427
0.00394229
0.00454258
0.00518286
0.00574142
0.00604501
0.00603929
0.00573019
0.0051723
0.00453557
0.00394229
0.00376233
0.00420347
0.00475832
0.00523983
0.00550381
0.00549474
0.00522206
0.00474133
0.00418982
0.00376233
0.00365403
0.00394399
0.00440428
0.00481317
0.00504207
0.00502679
0.00478694
0.00437676
0.00391678
0.00365405
0.0035618
0.00376788
0.00412649
0.00447282
0.00469114
0.00465421
0.0044502
0.00408393
0.00372282
0.00356178
0.00786813
0.00700985
0.00606228
0.00474763
0.00442978
0.00545383
0.00629065
0.00703315
0.00742743
0.00742513
0.00702854
0.00628637
0.0054515
0.00442978
0.00416428
0.00495501
0.005688
0.00633231
0.00667877
0.00667515
0.00632516
0.00568135
0.00495113
0.00416427
0.0039423
0.00454258
0.00518285
0.00574141
0.006045
0.00603928
0.00573019
0.00517231
0.00453557
0.00394229
0.00376233
0.00420348
0.00475832
0.00523982
0.0055038
0.00549474
0.00522206
0.00474133
0.00418982
0.00376233
0.00365405
0.003944
0.00440427
0.00481316
0.00504206
0.00502679
0.00478694
0.00437678
0.00391678
0.00365403
0.00356179
0.00376787
0.0041264
0.0044728
0.00469113
0.00465421
0.0044502
0.00408409
0.00372279
0.0035618
0.00442978
0.00545149
0.00628638
0.00702855
0.00742512
0.00742743
0.00703315
0.00629065
0.00545383
0.00442978
0.00416428
0.00495113
0.00568136
0.00632517
0.00667515
0.00667877
0.00633231
0.00568801
0.00495501
0.00416428
0.0039423
0.00453557
0.00517231
0.0057302
0.00603928
0.006045
0.00574141
0.00518285
0.00454258
0.0039423
0.00376233
0.00418982
0.00474134
0.00522207
0.00549474
0.0055038
0.00523982
0.00475832
0.00420348
0.00376233
0.00365405
0.0039168
0.00437677
0.00478694
0.00502679
0.00504206
0.00481316
0.00440429
0.00394401
0.00365405
0.00356179
0.00372284
0.00408397
0.00445019
0.00465421
0.00469114
0.00447282
0.00412651
0.0037679
0.00356178
0.00787115
0.00701261
0.00606383
0.00474763
0.00442978
0.0054515
0.00628638
0.00702855
0.00742512
0.00742742
0.00703316
0.00629066
0.00545383
0.00442978
0.00416428
0.00495114
0.00568136
0.00632517
0.00667514
0.00667877
0.00633232
0.00568801
0.00495501
0.00416427
0.0039423
0.00453558
0.00517231
0.00573019
0.00603928
0.00604499
0.00574142
0.00518286
0.00454258
0.00394229
0.00376233
0.00418983
0.00474133
0.00522206
0.00549473
0.0055038
0.00523983
0.00475832
0.00420347
0.00376233
0.00365405
0.0039168
0.00437676
0.00478693
0.00502678
0.00504206
0.00481317
0.00440428
0.003944
0.00365405
0.00356178
0.00372283
0.00408392
0.00445018
0.00465419
0.00469113
0.00447283
0.00412653
0.00376792
0.00356178
0.00477373
0.00382057
0.00369015
0.00408949
0.00341246
0.00344622
0.00348516
0.00307293
0.00322267
0.00314002
0.0028401
0.00477373
0.00422215
0.00422951
0.00412115
0.00408949
0.00372298
0.00374805
0.00377932
0.00348516
0.00326462
0.00337384
0.00349054
0.00314002
0.00293251
)
;
    }
    ami2
    {
        type            cyclicAMI;
        value           nonuniform List<scalar> 
12
(
0.00462586
0.00402115
0.00381782
0.00443613
0.00434249
0.00612596
0.00445011
0.00565032
0.00795272
0.00430762
0.00711973
0.00906073
)
;
    }
    outlet
    {
        type            zeroGradient;
    }
    procBoundary2to0
    {
        type            processor;
        value           nonuniform List<scalar> 
28
(
0.00293183
0.00268185
0.0030348
0.00405577
0.0036695
0.0030348
0.00340686
0.00270189
0.00307806
0.00294692
0.00433548
0.00413681
0.00677269
0.00614845
0.00433548
0.00559691
0.00307806
0.00413681
0.00889681
0.00806743
0.00565267
0.00734979
0.00324385
0.00499793
0.0104371
0.009482
0.00665436
0.00864833
)
;
    }
    procBoundary2to1
    {
        type            processor;
        value           nonuniform List<scalar> 9(0.00411596 0.00382068 0.00355891 0.00730069 0.00662029 0.00602571 0.00972694 0.00880316 0.00801318);
    }
    procBoundary2to3
    {
        type            processor;
        value           nonuniform List<scalar> 
110
(
0.00474763
0.00606384
0.00701261
0.00787115
0.00832006
0.00831856
0.00831856
0.00887992
0.00788414
0.00680511
0.00512423
0.00606228
0.0116998
0.0143878
0.0162455
0.0172104
0.0172082
0.0172082
0.018675
0.0165376
0.0134421
0.0068059
0.00700985
0.0143848
0.0189404
0.0219037
0.0234087
0.0234077
0.0234077
0.0251986
0.0217986
0.0165397
0.00788599
0.00786813
0.0162413
0.021902
0.0256404
0.0275248
0.0275246
0.0275246
0.0294677
0.0251998
0.0186779
0.00888193
0.00831856
0.0172082
0.0234077
0.0275246
0.0295946
0.0295946
0.0295946
0.0316004
0.0269171
0.0197863
0.00939456
0.00832006
0.0172104
0.0234087
0.0275248
0.0295946
0.0295946
0.0295946
0.0316002
0.0269164
0.0197848
0.00939357
0.00787115
0.0162455
0.0219037
0.0256404
0.0275246
0.0275248
0.0275248
0.0294677
0.0251986
0.018675
0.00887992
0.00701261
0.0143878
0.0189404
0.021902
0.0234077
0.0234087
0.0234087
0.0251998
0.0217986
0.0165376
0.00788414
0.00606384
0.0116998
0.0143848
0.0162413
0.0172082
0.0172104
0.0172104
0.0186779
0.0165397
0.0134421
0.00680511
0.00474763
0.00606228
0.00700985
0.00786813
0.00831855
0.00832005
0.00832005
0.00888193
0.00788598
0.0068059
0.00512423
)
;
    }
}


// ************************************************************************* //
