/*--------------------------------*- C++ -*----------------------------------*\
| =========                 |                                                 |
| \\      /  F ield         | OpenFOAM: The Open Source CFD Toolbox           |
|  \\    /   O peration     | Version:  2212                                  |
|   \\  /    A nd           | Website:  www.openfoam.com                      |
|    \\/     M anipulation  |                                                 |
\*---------------------------------------------------------------------------*/
FoamFile
{
    version     2.0;
    format      ascii;
    arch        "LSB;label=32;scalar=64";
    class       volScalarField;
    location    "1";
    object      nut;
}
// * * * * * * * * * * * * * * * * * * * * * * * * * * * * * * * * * * * * * //

dimensions      [0 2 -1 0 0 0 0];

internalField   nonuniform List<scalar> 
680
(
6.53163e-06
6.33244e-06
6.16098e-06
6.01781e-06
5.92602e-06
5.86177e-06
1.54552e-05
1.47315e-05
1.41054e-05
1.35698e-05
1.31451e-05
1.28474e-05
2.39166e-05
2.2743e-05
2.17109e-05
2.08049e-05
2.00207e-05
1.9393e-05
3.08213e-05
2.92469e-05
2.78513e-05
2.66104e-05
2.55074e-05
2.45623e-05
3.46351e-05
3.28449e-05
3.12505e-05
2.98235e-05
2.8553e-05
2.75582e-05
3.46275e-05
3.28324e-05
3.12299e-05
2.97896e-05
2.84932e-05
2.73893e-05
3.25958e-05
3.08069e-05
2.92235e-05
2.78128e-05
2.65471e-05
2.54088e-05
2.44515e-05
2.5244e-05
2.39048e-05
2.27238e-05
2.16789e-05
2.07507e-05
1.99246e-05
1.91957e-05
1.62936e-05
1.54503e-05
1.47231e-05
1.40896e-05
1.35374e-05
1.30787e-05
1.2726e-05
6.76218e-06
6.53163e-06
6.33244e-06
6.16097e-06
6.0178e-06
5.926e-06
5.86177e-06
1.54503e-05
1.47231e-05
1.40896e-05
1.35374e-05
1.30787e-05
1.27262e-05
8.64478e-05
7.96447e-05
7.34461e-05
6.79323e-05
6.37135e-05
5.50186e-05
0.000128912
0.000120707
0.000113331
0.000106653
0.000101077
9.44357e-05
0.000155028
0.000145563
0.000136953
0.000129081
0.000121861
0.000115453
0.000167511
0.000157424
0.000148193
0.000139681
0.000131758
0.000124215
0.000167457
0.000157337
0.00014805
0.000139446
0.000131371
0.000123253
0.00016541
0.000154926
0.000145399
0.00013668
0.000128629
0.000121136
0.000114245
0.000138092
0.000128841
0.00012059
0.000113131
0.000106301
0.000100406
9.45399e-05
9.38505e-05
8.64485e-05
7.9645e-05
7.34463e-05
6.79325e-05
6.37137e-05
5.50175e-05
1.62967e-05
1.54552e-05
1.47315e-05
1.41054e-05
1.35698e-05
1.31451e-05
1.28474e-05
2.39048e-05
2.27238e-05
2.16789e-05
2.07507e-05
1.99246e-05
1.91953e-05
0.00012884
0.000120589
0.00011313
0.000106301
0.000100406
9.45405e-05
0.000199887
0.000188434
0.000177997
0.000168437
0.000159605
0.000150138
0.000239415
0.000226338
0.000214396
0.00020342
0.00019318
0.000182968
0.000257842
0.000243957
0.000231253
0.000219538
0.000208517
0.000197341
0.00025782
0.000243923
0.000231202
0.000219461
0.000208404
0.000197198
0.000253779
0.000239379
0.000226283
0.000214309
0.000203278
0.000192906
0.000182104
0.00021251
0.000199887
0.000188434
0.000177997
0.000168438
0.000159606
0.000150138
0.000138137
0.000128912
0.000120707
0.000113331
0.000106653
0.000101077
9.4435e-05
2.52512e-05
2.39166e-05
2.2743e-05
2.17109e-05
2.08049e-05
2.00208e-05
1.93931e-05
3.08069e-05
2.92235e-05
2.78128e-05
2.65471e-05
2.54088e-05
2.44515e-05
0.000154925
0.000145398
0.00013668
0.00012863
0.000121136
0.000114242
0.000239378
0.000226282
0.000214309
0.000203278
0.000192906
0.000182103
0.000287018
0.000271925
0.000258118
0.00024538
0.000233361
0.000221178
0.00030932
0.000293258
0.000278543
0.000264933
0.000251996
0.000238617
0.000309314
0.00029325
0.000278533
0.000264926
0.000252027
0.000238869
0.000303598
0.000287018
0.000271925
0.000258118
0.00024538
0.000233362
0.000221181
0.000253803
0.000239415
0.000226338
0.000214396
0.00020342
0.000193181
0.000182971
0.000165473
0.000155027
0.000145563
0.000136953
0.00012908
0.000121861
0.000115456
3.26047e-05
3.08213e-05
2.92469e-05
2.78513e-05
2.66105e-05
2.55074e-05
2.45623e-05
3.46275e-05
3.28324e-05
3.12299e-05
2.97896e-05
2.84932e-05
2.73895e-05
0.000167457
0.000157337
0.000148051
0.000139447
0.000131372
0.000123254
0.00025782
0.000243924
0.000231202
0.000219461
0.000208405
0.000197198
0.000309314
0.00029325
0.000278533
0.000264926
0.000252027
0.000238867
0.000333587
0.000316476
0.000300777
0.000286235
0.00027241
0.000258317
0.000333586
0.000316476
0.000300777
0.000286236
0.00027241
0.000258317
0.000326938
0.00030932
0.000293258
0.000278543
0.000264933
0.000251996
0.000238617
0.000273097
0.000257842
0.000243957
0.000231253
0.000219538
0.000208517
0.000197339
0.000178605
0.00016751
0.000157423
0.000148192
0.00013968
0.000131757
0.000124214
3.66562e-05
3.46351e-05
3.28449e-05
3.12505e-05
2.98235e-05
2.85531e-05
2.75582e-05
3.46351e-05
3.28449e-05
3.12505e-05
2.98235e-05
2.85531e-05
2.75582e-05
0.000167511
0.000157424
0.000148193
0.000139681
0.000131759
0.000124216
0.000257842
0.000243957
0.000231253
0.000219539
0.000208518
0.00019734
0.00030932
0.000293258
0.000278543
0.000264933
0.000251996
0.000238616
0.000333586
0.000316476
0.000300777
0.000286235
0.00027241
0.000258317
0.000333586
0.000316476
0.000300777
0.000286235
0.00027241
0.000258316
0.000326934
0.000309314
0.00029325
0.000278533
0.000264926
0.000252027
0.000238868
0.000273082
0.00025782
0.000243924
0.000231202
0.00021946
0.000208403
0.000197196
0.000178572
0.000167457
0.000157337
0.00014805
0.000139446
0.000131371
0.000123253
3.66515e-05
3.46275e-05
3.28324e-05
3.12299e-05
2.97897e-05
2.84932e-05
2.73895e-05
3.08212e-05
2.92469e-05
2.78512e-05
2.66104e-05
2.55074e-05
2.45624e-05
0.000155028
0.000145563
0.000136953
0.000129081
0.000121861
0.000115456
0.000239415
0.000226338
0.000214395
0.00020342
0.00019318
0.00018297
0.000287018
0.000271925
0.000258118
0.000245379
0.000233361
0.000221179
0.000309314
0.00029325
0.000278533
0.000264926
0.000252027
0.000238868
0.00030932
0.000293258
0.000278543
0.000264933
0.000251996
0.000238616
0.000303598
0.000287018
0.000271925
0.000258118
0.000245379
0.000233361
0.00022118
0.000253779
0.000239379
0.000226282
0.000214308
0.000203277
0.000192905
0.000182102
0.00016541
0.000154926
0.000145399
0.00013668
0.00012863
0.000121136
0.000114243
3.25958e-05
3.08069e-05
2.92235e-05
2.78128e-05
2.65471e-05
2.54088e-05
2.44515e-05
2.39166e-05
2.2743e-05
2.17109e-05
2.08049e-05
2.00208e-05
1.93932e-05
0.000128912
0.000120707
0.00011333
0.000106652
0.000101076
9.4434e-05
0.000199887
0.000188433
0.000177996
0.000168436
0.000159604
0.000150137
0.000239378
0.000226282
0.000214308
0.000203277
0.000192905
0.000182102
0.00025782
0.000243923
0.000231202
0.000219461
0.000208404
0.000197197
0.000257842
0.000243957
0.000231253
0.000219538
0.000208517
0.000197338
0.000253803
0.000239415
0.000226337
0.000214395
0.00020342
0.00019318
0.00018297
0.00021251
0.000199887
0.000188434
0.000177997
0.000168437
0.000159605
0.000150138
0.000138092
0.000128841
0.00012059
0.000113131
0.000106302
0.000100407
9.45416e-05
2.5244e-05
2.39048e-05
2.27238e-05
2.16789e-05
2.07507e-05
1.99246e-05
1.91952e-05
1.54552e-05
1.47315e-05
1.41054e-05
1.35698e-05
1.31451e-05
1.28474e-05
8.64478e-05
7.96447e-05
7.3446e-05
6.79322e-05
6.37133e-05
5.50182e-05
0.00012884
0.000120589
0.00011313
0.000106301
0.000100406
9.45399e-05
0.000154925
0.000145398
0.00013668
0.00012863
0.000121136
0.000114243
0.000167457
0.000157337
0.000148051
0.000139447
0.000131372
0.000123254
0.00016751
0.000157423
0.000148193
0.000139681
0.000131759
0.000124216
0.000165473
0.000155027
0.000145563
0.000136953
0.00012908
0.000121861
0.000115456
0.000138137
0.000128912
0.000120706
0.00011333
0.000106652
0.000101076
9.44343e-05
9.38505e-05
8.64485e-05
7.9645e-05
7.34462e-05
6.79324e-05
6.37136e-05
5.50181e-05
1.62936e-05
1.54503e-05
1.47231e-05
1.40896e-05
1.35374e-05
1.30787e-05
1.27262e-05
6.53163e-06
6.33244e-06
6.16098e-06
6.01781e-06
5.92602e-06
5.86174e-06
1.54503e-05
1.47231e-05
1.40896e-05
1.35374e-05
1.30787e-05
1.27262e-05
2.39048e-05
2.27238e-05
2.16789e-05
2.07507e-05
1.99245e-05
1.91952e-05
3.08069e-05
2.92234e-05
2.78128e-05
2.65471e-05
2.54087e-05
2.44515e-05
3.46275e-05
3.28324e-05
3.12299e-05
2.97896e-05
2.84932e-05
2.73893e-05
3.46351e-05
3.28449e-05
3.12505e-05
2.98235e-05
2.85531e-05
2.75582e-05
3.26047e-05
3.08213e-05
2.92469e-05
2.78513e-05
2.66105e-05
2.55074e-05
2.45624e-05
2.52512e-05
2.39166e-05
2.2743e-05
2.17109e-05
2.08049e-05
2.00208e-05
1.93933e-05
1.62967e-05
1.54552e-05
1.47315e-05
1.41054e-05
1.35698e-05
1.31451e-05
1.28474e-05
6.76218e-06
6.53163e-06
6.33244e-06
6.16098e-06
6.01781e-06
5.92603e-06
5.86173e-06
5.55221e-06
5.15525e-06
4.77088e-06
4.53818e-06
1.05898e-05
1.00516e-05
9.57879e-06
9.24819e-06
1.52932e-05
1.48167e-05
1.43716e-05
1.13098e-05
1.06332e-05
9.9727e-06
9.46819e-06
2.48073e-05
2.32115e-05
2.21444e-05
2.2157e-05
5.84507e-05
5.64246e-05
5.42667e-05
1.66536e-05
1.56597e-05
1.48422e-05
4.86103e-05
4.9489e-05
4.91391e-05
0.000110603
0.000104194
9.91979e-05
2.0474e-05
1.95558e-05
1.87558e-05
8.20401e-05
7.86092e-05
7.54473e-05
0.000141639
0.000136767
0.000131616
)
;

boundaryField
{
    inlet
    {
        type            calculated;
        value           nonuniform List<scalar> 0();
    }
    ami1
    {
        type            cyclicAMI;
        value           nonuniform List<scalar> 
100
(
1.38916e-05
1.83343e-05
2.12242e-05
2.54139e-05
3.05414e-05
2.74507e-05
2.52134e-05
1.96944e-05
1.54659e-05
1.38914e-05
1.54662e-05
4.61279e-05
8.93933e-05
0.000110651
0.000117844
0.00011638
0.000108557
8.93865e-05
4.61269e-05
1.83341e-05
1.96981e-05
8.9423e-05
0.000140062
0.000176376
0.000189865
0.000190002
0.000174012
0.000140058
8.93828e-05
2.12235e-05
2.52198e-05
0.000108575
0.000174023
0.000213761
0.00023024
0.000230972
0.00021376
0.000176368
0.000110581
2.5411e-05
2.7451e-05
0.000116375
0.000189999
0.000230971
0.000250167
0.000250167
0.000230238
0.000189859
0.000117829
3.05397e-05
3.05398e-05
0.000117832
0.000189861
0.000230237
0.000250166
0.000250167
0.000230967
0.000189995
0.000116372
2.74513e-05
2.54111e-05
0.000110583
0.000176368
0.000213759
0.000230968
0.000230236
0.000213755
0.00017402
0.000108574
2.52194e-05
2.12236e-05
8.93828e-05
0.00014006
0.000174023
0.000189999
0.000189859
0.000176379
0.000140064
8.94233e-05
1.96979e-05
1.83342e-05
4.6128e-05
8.94222e-05
0.000108576
0.000116376
0.000117829
0.000110582
8.93937e-05
4.61282e-05
1.54662e-05
1.38916e-05
1.54663e-05
1.96978e-05
2.52194e-05
2.74507e-05
3.05396e-05
2.5411e-05
2.12237e-05
1.83345e-05
1.38916e-05
)
;
    }
    walls
    {
        type            nutkWallFunction;
        blending        stepwise;
        value           uniform 0;
    }
    ami2
    {
        type            cyclicAMI;
        value           nonuniform List<scalar> 
12
(
1.52022e-05
1.58736e-05
1.60005e-05
1.92952e-05
2.51655e-05
6.64248e-05
2.19793e-05
5.31671e-05
0.000115438
2.26565e-05
9.02205e-05
0.000143914
)
;
    }
    outlet
    {
        type            calculated;
        value           nonuniform List<scalar> 0();
    }
    procBoundary2to0
    {
        type            processor;
        value           nonuniform List<scalar> 
28
(
4.39098e-06
9.00486e-06
1.39817e-05
2.03061e-05
1.91426e-05
1.39817e-05
1.84264e-05
9.08677e-06
1.41818e-05
2.20282e-05
5.31088e-05
4.8974e-05
8.93229e-05
8.44259e-05
5.31088e-05
7.99327e-05
1.41818e-05
4.8974e-05
0.000149117
0.000141474
9.52147e-05
0.000134753
1.80608e-05
7.2833e-05
0.000187709
0.000179137
0.000126664
0.000171367
)
;
    }
    procBoundary2to1
    {
        type            processor;
        value           nonuniform List<scalar> 9(2.27153e-05 2.19375e-05 2.11927e-05 0.000105281 9.87203e-05 9.31633e-05 0.000170124 0.000161363 0.00015375);
    }
    procBoundary2to3
    {
        type            processor;
        value           nonuniform List<scalar> 
110
(
6.76218e-06
1.62968e-05
2.52512e-05
3.26047e-05
3.66562e-05
3.66515e-05
3.66515e-05
3.46288e-05
2.67726e-05
1.72636e-05
7.02543e-06
1.62936e-05
9.38514e-05
0.000138136
0.000165472
0.000178604
0.000178572
0.000178572
0.000177008
0.000148357
0.000102128
1.72651e-05
2.5244e-05
0.000138093
0.000212511
0.000253802
0.000273097
0.000273082
0.000273082
0.000269691
0.000226472
0.000148384
2.67771e-05
3.25958e-05
0.000165411
0.00025378
0.000303598
0.000326937
0.000326934
0.000326934
0.00032189
0.000269706
0.000177046
3.46344e-05
3.66515e-05
0.000178573
0.000273083
0.000326934
0.000352314
0.000352314
0.000352314
0.000346331
0.000289938
0.000190882
3.89506e-05
3.66562e-05
0.000178605
0.000273097
0.000326937
0.000352314
0.000352314
0.000352314
0.000346328
0.000289929
0.000190863
3.89477e-05
3.26047e-05
0.000165472
0.000253802
0.000303598
0.000326934
0.000326937
0.000326937
0.00032189
0.000269691
0.000177008
3.46288e-05
2.52512e-05
0.000138136
0.00021251
0.00025378
0.000273083
0.000273097
0.000273097
0.000269706
0.000226472
0.000148357
2.67726e-05
1.62967e-05
9.38513e-05
0.000138093
0.000165411
0.000178573
0.000178605
0.000178605
0.000177046
0.000148384
0.000102128
1.72636e-05
6.76218e-06
1.62936e-05
2.5244e-05
3.25958e-05
3.66515e-05
3.66561e-05
3.66561e-05
3.46344e-05
2.67771e-05
1.72651e-05
7.02543e-06
)
;
    }
}


// ************************************************************************* //
