/*--------------------------------*- C++ -*----------------------------------*\
| =========                 |                                                 |
| \\      /  F ield         | OpenFOAM: The Open Source CFD Toolbox           |
|  \\    /   O peration     | Version:  2212                                  |
|   \\  /    A nd           | Website:  www.openfoam.com                      |
|    \\/     M anipulation  |                                                 |
\*---------------------------------------------------------------------------*/
FoamFile
{
    version     2.0;
    format      ascii;
    arch        "LSB;label=32;scalar=64";
    class       volScalarField;
    location    "1";
    object      p;
}
// * * * * * * * * * * * * * * * * * * * * * * * * * * * * * * * * * * * * * //

dimensions      [0 2 -2 0 0 0 0];

internalField   nonuniform List<scalar> 
680
(
0.00588369
0.00572151
0.00555485
0.00537837
0.00514158
0.00468694
0.00588759
0.00572061
0.00554474
0.00534506
0.00507755
0.0046254
0.00587515
0.00571052
0.00553783
0.00535158
0.00514704
0.00491432
0.00589391
0.00574085
0.00558828
0.00543677
0.00529004
0.0051583
0.00590635
0.00576686
0.00563596
0.00551625
0.00541032
0.00532603
0.00591921
0.00578931
0.00567478
0.0055818
0.00552275
0.00551813
0.00606413
0.00592163
0.00578799
0.00566835
0.00557012
0.00550959
0.00550982
0.00605217
0.00590126
0.00575342
0.00560891
0.00547152
0.005357
0.00529767
0.0060607
0.00590351
0.00574652
0.00558733
0.00541937
0.00522042
0.00492624
0.00604302
0.00588371
0.00572155
0.00555491
0.00537844
0.00514167
0.00468708
0.00590349
0.00574648
0.00558727
0.00541929
0.0052203
0.00492604
0.0059263
0.00575756
0.00558308
0.00539921
0.00521996
0.00512143
0.00589058
0.00572142
0.0055491
0.00537289
0.00519929
0.00505315
0.00590127
0.00574029
0.00557967
0.00541997
0.00526306
0.00511146
0.00590763
0.00576004
0.00561889
0.00548426
0.00535712
0.00523645
0.00591987
0.00577955
0.00564889
0.00552817
0.00542036
0.00532416
0.00607834
0.00592518
0.00577809
0.00563806
0.00550681
0.00539117
0.00529641
0.00606886
0.0059067
0.00574583
0.0055845
0.00542079
0.00525542
0.00508855
0.00609312
0.00592632
0.00575759
0.00558313
0.00539928
0.00522006
0.00512156
0.00605099
0.00588761
0.00572064
0.00554479
0.00534512
0.00507763
0.00462549
0.00590123
0.00575338
0.00560885
0.00547143
0.00535687
0.00529747
0.00590668
0.0057458
0.00558445
0.00542073
0.00525535
0.00508849
0.00585612
0.00569267
0.00553003
0.00536997
0.00521865
0.00507529
0.00584083
0.00568099
0.00552211
0.00536417
0.00520875
0.005052
0.00583731
0.00568506
0.00553561
0.00538775
0.00524265
0.00509418
0.00584323
0.00569366
0.00554722
0.00540206
0.0052575
0.0051024
0.00600985
0.00585154
0.00569682
0.00554499
0.00539608
0.00525176
0.00510344
0.00602108
0.00585613
0.00569268
0.00553004
0.00536998
0.00521865
0.00507525
0.00605839
0.00589059
0.00572144
0.00554912
0.00537292
0.00519934
0.00505321
0.00603623
0.00587516
0.00571053
0.00553786
0.00535163
0.00514711
0.00491444
0.00592159
0.00578794
0.00566828
0.00557003
0.00550948
0.00550967
0.00592514
0.00577805
0.00563801
0.00550676
0.00539113
0.00529641
0.00585153
0.0056968
0.00554497
0.00539607
0.00525177
0.0051035
0.00581603
0.00565975
0.0055049
0.00535114
0.00519924
0.00504077
0.00580197
0.00564741
0.00549454
0.00534334
0.00519538
0.0050416
0.00580311
0.00564882
0.00549598
0.0053443
0.00519463
0.00503664
0.0059747
0.00581603
0.00565974
0.00550489
0.00535112
0.00519921
0.00504072
0.0060027
0.00584082
0.00568098
0.0055221
0.00536415
0.0052087
0.0050519
0.00606304
0.00590126
0.00574029
0.00557967
0.00541996
0.00526304
0.00511142
0.00604753
0.0058939
0.00574085
0.00558829
0.00543679
0.00529008
0.00515839
0.00591917
0.00578927
0.00567472
0.00558173
0.00552266
0.00551802
0.00591983
0.00577951
0.00564885
0.00552812
0.00542032
0.00532414
0.00584321
0.00569364
0.0055472
0.00540205
0.00525749
0.00510241
0.0058031
0.00564882
0.00549598
0.0053443
0.00519463
0.00503665
0.00578275
0.00562771
0.00547379
0.00532047
0.00516837
0.00500833
0.00578275
0.0056277
0.00547378
0.00532047
0.00516837
0.00500832
0.00595925
0.00580196
0.0056474
0.00549453
0.00534332
0.00519536
0.00504156
0.0059943
0.00583729
0.00568504
0.00553559
0.00538771
0.0052426
0.0050941
0.00606054
0.00590761
0.00576002
0.00561887
0.00548424
0.0053571
0.00523641
0.00605154
0.00590633
0.00576684
0.00563594
0.00551625
0.00541032
0.00532605
0.00590632
0.00576682
0.00563591
0.00551621
0.00541026
0.00532596
0.0059076
0.00576
0.00561885
0.00548421
0.00535706
0.00523637
0.00583729
0.00568504
0.00553558
0.00538771
0.0052426
0.00509409
0.00580196
0.0056474
0.00549453
0.00534333
0.00519537
0.00504158
0.00578275
0.00562771
0.00547379
0.00532047
0.00516837
0.00500832
0.00578275
0.00562771
0.00547379
0.00532047
0.00516837
0.00500832
0.00596008
0.00580311
0.00564882
0.00549598
0.0053443
0.00519463
0.00503664
0.00599829
0.00584322
0.00569365
0.0055472
0.00540205
0.00525749
0.0051024
0.0060684
0.00591985
0.00577953
0.00564887
0.00552815
0.00542036
0.00532418
0.00605903
0.00591919
0.00578929
0.00567476
0.00558178
0.00552272
0.00551811
0.00589389
0.00574083
0.00558826
0.00543675
0.00529004
0.00515834
0.00590125
0.00574027
0.00557965
0.00541994
0.00526302
0.00511139
0.00584082
0.00568097
0.00552209
0.00536414
0.0052087
0.0050519
0.00581603
0.00565975
0.00550489
0.00535113
0.00519923
0.00504075
0.00580311
0.00564883
0.00549599
0.00534431
0.00519464
0.00503665
0.00580197
0.00564741
0.00549455
0.00534335
0.00519538
0.00504159
0.0059747
0.00581603
0.00565975
0.0055049
0.00535115
0.00519925
0.00504077
0.00600984
0.00585154
0.00569681
0.00554499
0.00539609
0.0052518
0.00510353
0.00607832
0.00592516
0.00577807
0.00563804
0.00550679
0.00539117
0.00529645
0.00606411
0.0059216
0.00578796
0.00566831
0.00557007
0.00550953
0.00550974
0.00587514
0.00571051
0.00553783
0.0053516
0.00514708
0.00491442
0.00589057
0.00572142
0.0055491
0.0053729
0.00519932
0.00505321
0.00585612
0.00569267
0.00553003
0.00536998
0.00521866
0.0050753
0.00585154
0.00569682
0.00554499
0.00539609
0.00525179
0.00510352
0.00584323
0.00569366
0.00554722
0.00540207
0.00525752
0.00510243
0.00583731
0.00568507
0.00553561
0.00538775
0.00524264
0.00509414
0.00600271
0.00584083
0.00568099
0.00552212
0.00536418
0.00520874
0.00505196
0.00602108
0.00585613
0.00569268
0.00553005
0.00536999
0.00521868
0.00507532
0.00606884
0.00590669
0.00574581
0.00558448
0.00542076
0.00525538
0.00508852
0.00605215
0.00590124
0.0057534
0.00560887
0.00547146
0.00535691
0.00529752
0.00588759
0.00572061
0.00554475
0.00534508
0.00507759
0.00462547
0.0059263
0.00575756
0.00558309
0.00539923
0.00522
0.00512148
0.00590668
0.00574581
0.00558447
0.00542075
0.00525538
0.00508854
0.00592516
0.00577808
0.00563804
0.0055068
0.00539118
0.00529646
0.00591986
0.00577955
0.00564889
0.00552817
0.00542038
0.00532419
0.00590763
0.00576004
0.0056189
0.00548426
0.00535712
0.00523643
0.00606305
0.00590128
0.00574031
0.00557969
0.00541998
0.00526307
0.00511145
0.0060584
0.00589059
0.00572144
0.00554912
0.00537292
0.00519933
0.00505321
0.00609312
0.00592631
0.00575757
0.0055831
0.00539923
0.00521999
0.00512144
0.00606069
0.00590349
0.0057465
0.0055873
0.00541932
0.00522032
0.00492606
0.00588369
0.00572151
0.00555486
0.00537839
0.00514161
0.00468698
0.00590348
0.00574648
0.00558728
0.00541931
0.00522032
0.00492608
0.00590124
0.00575339
0.00560887
0.00547146
0.00535691
0.00529753
0.00592161
0.00578797
0.00566832
0.00557008
0.00550954
0.00550975
0.00591921
0.00578931
0.00567477
0.00558179
0.00552274
0.00551811
0.00590635
0.00576686
0.00563596
0.00551627
0.00541033
0.00532605
0.00604755
0.00589392
0.00574087
0.00558831
0.0054368
0.00529009
0.0051584
0.00603623
0.00587516
0.00571053
0.00553786
0.00535162
0.0051471
0.00491442
0.00605099
0.0058876
0.00572062
0.00554477
0.00534509
0.00507758
0.00462544
0.00604301
0.0058837
0.00572152
0.00555488
0.0053784
0.0051416
0.00468694
0.00554908
0.00484308
0.0043796
0.00425646
0.00554741
0.0049061
0.00445723
0.00429829
0.00519465
0.00489142
0.00458398
0.00557772
0.00491461
0.00443834
0.00426068
0.00530154
0.00488725
0.00455312
0.00434673
0.00505131
0.0048166
0.00458513
0.00535496
0.00495309
0.00458949
0.00512876
0.00488419
0.00465392
0.00503214
0.00483274
0.00464139
0.00511087
0.00488234
0.00462987
0.00502532
0.00485118
0.00466397
0.004898
0.00473008
0.00458938
)
;

boundaryField
{
    inlet
    {
        type            zeroGradient;
    }
    ami1
    {
        type            cyclicAMI;
        value           nonuniform List<scalar> 
100
(
0.00476644
0.00471678
0.00490411
0.00511291
0.0052855
0.00543218
0.00542436
0.00528791
0.00497642
0.00476657
0.00497621
0.00496689
0.00491645
0.00500209
0.0050997
0.00516507
0.00512855
0.00495931
0.004967
0.00471687
0.00528771
0.00495927
0.00491511
0.00493047
0.00497008
0.00497317
0.00496102
0.00491507
0.00491649
0.00490424
0.0054242
0.00512856
0.00496109
0.00491617
0.00491543
0.00490957
0.00491613
0.00493037
0.00500205
0.005113
0.00543206
0.00516506
0.00497319
0.00490958
0.00488945
0.00488945
0.00491539
0.00496999
0.00509966
0.00528553
0.00528542
0.00509962
0.00496999
0.0049154
0.00488945
0.00488945
0.00490957
0.00497316
0.00516509
0.00543216
0.00511293
0.00500201
0.00493036
0.00491615
0.00490958
0.00491542
0.00491618
0.00496112
0.0051286
0.0054243
0.00490423
0.00491649
0.00491511
0.0049611
0.0049732
0.00497004
0.00493044
0.00491514
0.00495931
0.00528777
0.00471686
0.00496694
0.00495932
0.00512861
0.00516511
0.00509968
0.00500207
0.00491649
0.00496689
0.00497622
0.00476648
0.00497626
0.00528778
0.0054243
0.00543217
0.00528553
0.005113
0.00490422
0.00471681
0.00476643
)
;
    }
    walls
    {
        type            zeroGradient;
    }
    ami2
    {
        type            cyclicAMI;
        value           nonuniform List<scalar> 
12
(
0.00552655
0.00546151
0.00517485
0.00553459
0.0054072
0.0051884
0.00534148
0.00527009
0.00517356
0.00514318
0.00513377
0.00506107
)
;
    }
    outlet
    {
        type            fixedValue;
        value           nonuniform List<scalar> 0();
    }
    procBoundary2to0
    {
        type            processor;
        value           nonuniform List<scalar> 
28
(
0.0041615
0.00418251
0.0043813
0.00490317
0.00480439
0.0043813
0.00463077
0.00414232
0.00435959
0.00418859
0.00438142
0.0044453
0.00481174
0.00466649
0.00438142
0.00452737
0.00435959
0.0044453
0.00486548
0.00469064
0.00444241
0.00454795
0.0044219
0.00447323
0.00484022
0.00467093
0.00442509
0.00452977
)
;
    }
    procBoundary2to1
    {
        type            processor;
        value           nonuniform List<scalar> 9(0.00491805 0.00478675 0.00461099 0.00491098 0.00475074 0.00459497 0.00487043 0.00469798 0.0045497);
    }
    procBoundary2to3
    {
        type            processor;
        value           nonuniform List<scalar> 
110
(
0.00604301
0.00605098
0.00603623
0.00604754
0.00605156
0.00605905
0.00605905
0.0062121
0.00620601
0.00621851
0.00620086
0.00606069
0.00609311
0.00605839
0.00606305
0.00606055
0.00606842
0.00606842
0.00623676
0.00623361
0.00626003
0.00621277
0.00605215
0.00606884
0.00602107
0.0060027
0.00599431
0.0059983
0.0059983
0.00617248
0.00618876
0.00622693
0.00619618
0.0060641
0.00607831
0.00600983
0.0059747
0.00595926
0.00596008
0.00596008
0.0061366
0.00616772
0.00622657
0.00620197
0.00605902
0.00606839
0.00599828
0.00596008
0.00594003
0.00594002
0.00594002
0.00611996
0.00615702
0.00621739
0.00620037
0.00605153
0.00606052
0.00599429
0.00595925
0.00594002
0.00594002
0.00594002
0.00612054
0.00615972
0.00622271
0.00620489
0.00604752
0.00606303
0.00600269
0.0059747
0.00596008
0.00595925
0.00595925
0.0061366
0.00617247
0.00623675
0.00621209
0.00603621
0.00605838
0.00602107
0.00600984
0.0059983
0.00599431
0.00599431
0.00616772
0.00618876
0.00623359
0.006206
0.00605098
0.00609311
0.00606884
0.00607833
0.00606842
0.00606055
0.00606055
0.00622658
0.00622693
0.00626003
0.0062185
0.006043
0.00606068
0.00605215
0.00606412
0.00605904
0.00605156
0.00605156
0.00620198
0.00619618
0.00621276
0.00620085
)
;
    }
}


// ************************************************************************* //
