/*--------------------------------*- C++ -*----------------------------------*\
| =========                 |                                                 |
| \\      /  F ield         | OpenFOAM: The Open Source CFD Toolbox           |
|  \\    /   O peration     | Version:  2212                                  |
|   \\  /    A nd           | Website:  www.openfoam.com                      |
|    \\/     M anipulation  |                                                 |
\*---------------------------------------------------------------------------*/
FoamFile
{
    version     2.0;
    format      ascii;
    arch        "LSB;label=32;scalar=64";
    class       surfaceScalarField;
    location    "1";
    object      phi;
}
// * * * * * * * * * * * * * * * * * * * * * * * * * * * * * * * * * * * * * //

dimensions      [0 3 -1 0 0 0 0];

oriented        oriented;

internalField   nonuniform List<scalar> 
1769
(
1.52482e-07
1.92741e-09
1.41502e-09
1.4961e-07
1.85065e-09
1.02201e-09
1.47347e-07
1.78482e-09
4.78276e-10
1.46902e-07
1.33013e-09
-8.85209e-10
1.50476e-07
2.05627e-10
-3.77947e-09
-1.32658e-08
-2.76935e-08
4.24392e-07
6.42236e-09
2.77087e-09
4.18039e-07
5.79746e-09
2.40621e-09
4.13259e-07
4.8497e-09
1.71523e-09
4.12174e-07
2.50893e-09
-9.3462e-11
4.19652e-07
-2.32054e-09
-4.95259e-09
-1.48369e-08
-2.04749e-08
7.30701e-07
6.77596e-09
7.36946e-09
7.23978e-07
5.5613e-09
6.95967e-09
7.18752e-07
3.83617e-09
6.23929e-09
7.15497e-07
1.04232e-09
4.72145e-09
7.14826e-07
-3.66279e-09
2.01377e-09
-1.24792e-08
-3.58317e-09
9.76963e-07
3.87314e-09
9.3139e-09
9.7051e-07
2.7842e-09
9.23012e-09
9.64016e-07
1.2068e-09
9.12326e-09
9.57202e-07
-1.13614e-09
8.99253e-09
9.49277e-07
-4.65576e-09
8.91825e-09
-1.00151e-08
9.25369e-09
1.10644e-06
-7.31279e-10
1.00103e-08
1.09998e-06
-1.22419e-09
1.04687e-08
1.09202e-06
-2.08683e-09
1.12586e-08
1.08191e-06
-3.5129e-09
1.24869e-08
1.06923e-06
-6.05365e-09
1.40781e-08
-1.0468e-08
1.61024e-08
1.10455e-06
-4.85342e-09
1.03463e-08
1.09669e-06
-4.44007e-09
1.10697e-08
1.08635e-06
-4.07913e-09
1.23317e-08
1.07205e-06
-3.62952e-09
1.44193e-08
1.05189e-06
-3.17589e-09
1.72806e-08
-4.14909e-09
2.27524e-08
9.81311e-07
-7.77065e-09
9.74157e-09
9.73473e-07
-6.90693e-09
9.89215e-09
9.64583e-07
-5.84002e-09
1.02903e-08
9.53849e-07
-4.44117e-09
1.10954e-08
9.39918e-07
-2.20743e-09
1.25096e-08
9.21073e-07
1.18963e-09
1.44797e-08
4.56768e-09
2.25306e-08
7.36924e-07
-6.69311e-09
7.9174e-09
7.28191e-07
-6.0057e-09
7.83184e-09
7.19672e-07
-5.14916e-09
7.82911e-09
7.1122e-07
-3.9022e-09
7.91315e-09
7.02249e-07
-1.27244e-09
8.03561e-09
6.90838e-07
4.13112e-09
8.46999e-09
2.16972e-08
8.96913e-09
4.31119e-07
-1.72631e-09
3.21163e-09
4.23495e-07
-1.41498e-09
3.03411e-09
4.16497e-07
-1.02197e-09
2.87032e-09
4.10467e-07
-4.78252e-10
2.60621e-09
4.06732e-07
8.85186e-10
1.57815e-09
4.09046e-07
3.77955e-09
-1.96165e-09
2.76929e-08
-1.91708e-08
1.55825e-07
2.03362e-09
1.52482e-07
1.92744e-09
1.4961e-07
1.85072e-09
1.47347e-07
1.785e-09
1.46901e-07
1.33048e-09
1.50475e-07
2.06282e-10
-1.32655e-08
4.23495e-07
3.03397e-09
6.00577e-09
4.16498e-07
2.87011e-09
5.14916e-09
4.10468e-07
2.60581e-09
3.90208e-09
4.06734e-07
1.57729e-09
1.27199e-09
4.0905e-07
-1.96329e-09
-4.13212e-09
-1.91746e-08
-2.16989e-08
8.07035e-07
5.41493e-09
4.94674e-09
8.03371e-07
4.82611e-09
4.11338e-09
8.00756e-07
3.99795e-09
2.93827e-09
7.9858e-07
2.58069e-09
1.07942e-09
7.93771e-07
-2.19275e-10
-1.88733e-09
-5.04939e-09
-6.41118e-09
1.11977e-06
6.1786e-09
8.28025e-09
1.11878e-06
5.20669e-09
7.57044e-09
1.11844e-06
3.95057e-09
6.62534e-09
1.11826e-06
2.22148e-09
5.26748e-09
1.11687e-06
-1.91814e-10
3.36779e-09
-3.46117e-09
1.55392e-09
1.35606e-06
3.79286e-09
1.10594e-08
1.35688e-06
2.86744e-09
1.07439e-08
1.35783e-06
1.66981e-09
1.04568e-08
1.35875e-06
1.00035e-10
1.01946e-08
1.35944e-06
-1.98103e-09
1.00148e-08
-4.28774e-09
1.03335e-08
1.47949e-06
-5.3511e-10
1.25542e-08
1.48096e-06
-8.41985e-10
1.27038e-08
1.48205e-06
-1.30903e-09
1.315e-08
1.48267e-06
-1.99316e-09
1.39597e-08
1.48263e-06
-2.94e-09
1.50742e-08
-3.94382e-09
1.6346e-08
1.47827e-06
-4.4307e-09
1.28858e-08
1.47912e-06
-3.89751e-09
1.32725e-08
1.47937e-06
-3.31882e-09
1.40945e-08
1.47897e-06
-2.65484e-09
1.54737e-08
1.47784e-06
-1.89372e-09
1.73657e-08
-1.20057e-09
1.9297e-08
1.35388e-06
-6.93117e-09
1.18454e-08
1.35365e-06
-6.04978e-09
1.17428e-08
1.3532e-06
-5.03933e-09
1.18749e-08
1.35243e-06
-3.76322e-09
1.23136e-08
1.35118e-06
-2.02313e-09
1.31272e-08
1.34907e-06
4.19644e-10
1.42777e-08
4.05203e-09
1.56014e-08
1.12049e-06
-5.64343e-09
9.2859e-09
1.11833e-06
-4.94695e-09
8.8887e-09
1.11669e-06
-4.11365e-09
8.54452e-09
1.11559e-06
-2.93883e-09
8.19178e-09
1.11497e-06
-1.08059e-09
7.70709e-09
1.11514e-06
1.88553e-09
6.84349e-09
6.40979e-09
5.21896e-09
8.11591e-07
-3.05348e-09
5.94037e-09
8.07034e-07
-2.77089e-09
5.41507e-09
8.03371e-07
-2.40629e-09
4.82639e-09
8.00755e-07
-1.71547e-09
3.99855e-09
7.98578e-07
9.29427e-11
2.58189e-09
7.93768e-07
4.95181e-09
-2.17519e-10
2.04739e-08
-5.04663e-09
4.31657e-07
6.95235e-09
4.24392e-07
6.42233e-09
4.18039e-07
5.79755e-09
4.13258e-07
4.84994e-09
4.12172e-07
2.50934e-09
4.19651e-07
-2.32004e-09
-1.48367e-08
7.28192e-07
7.8317e-09
6.90694e-09
7.19672e-07
7.8288e-09
5.83991e-09
7.11221e-07
7.91244e-09
4.44086e-09
7.02252e-07
8.03412e-09
2.20668e-09
6.90845e-07
8.46729e-09
-1.19146e-09
8.96702e-09
-4.56927e-09
1.11833e-06
8.88843e-09
6.04957e-09
1.11669e-06
8.54406e-09
5.03907e-09
1.11559e-06
8.19092e-09
3.76275e-09
1.11497e-06
7.70559e-09
2.02228e-09
1.11513e-06
6.84149e-09
-4.2084e-10
5.21907e-09
-4.05063e-09
1.41754e-06
7.85336e-09
7.49962e-09
1.41973e-06
7.22502e-09
6.69501e-09
1.4222e-06
6.56079e-09
5.78454e-09
1.42466e-06
5.80344e-09
4.71323e-09
1.42646e-06
4.92081e-09
3.48463e-09
4.09823e-09
2.49052e-09
1.63642e-06
4.54686e-09
9.45366e-09
1.64147e-06
3.96127e-09
8.96069e-09
1.64667e-06
3.31033e-09
8.50425e-09
1.65203e-06
2.55581e-09
8.07942e-09
1.65757e-06
1.68546e-09
7.71369e-09
7.89937e-10
7.63357e-09
1.75129e-06
-2.14929e-10
1.07005e-08
1.75771e-06
-3.31733e-10
1.0572e-08
1.76405e-06
-4.91462e-10
1.0615e-08
1.77043e-06
-6.91882e-10
1.08304e-08
1.77693e-06
-9.03982e-10
1.11667e-08
-1.02087e-09
1.15709e-08
1.75077e-06
-4.71995e-09
1.09327e-08
1.75702e-06
-4.24392e-09
1.09324e-08
1.76323e-06
-3.76084e-09
1.11579e-08
1.76965e-06
-3.251e-09
1.16098e-08
1.77664e-06
-2.71939e-09
1.21894e-08
-2.20361e-09
1.26704e-08
1.63083e-06
-8.27015e-09
1.03096e-08
1.63542e-06
-7.49985e-09
9.93399e-09
1.64004e-06
-6.69531e-09
9.70319e-09
1.64476e-06
-5.78498e-09
9.62566e-09
1.64965e-06
-4.71386e-09
9.69769e-09
1.65484e-06
-3.48532e-09
9.84644e-09
-2.49072e-09
9.89152e-09
1.41572e-06
-8.90598e-09
8.50054e-09
1.41754e-06
-8.28052e-09
7.85358e-09
1.41973e-06
-7.57092e-09
7.22541e-09
1.4222e-06
-6.62619e-09
6.56143e-09
1.42466e-06
-5.2689e-09
5.80442e-09
1.42647e-06
-3.36995e-09
4.92206e-09
-1.55615e-09
4.09923e-09
1.12145e-06
-7.65788e-09
7.02003e-09
1.11977e-06
-7.36958e-09
6.17867e-09
1.11878e-06
-6.95999e-09
5.20695e-09
1.11844e-06
-6.23993e-09
3.95112e-09
1.11825e-06
-4.72265e-09
2.2225e-09
1.11687e-06
-2.01586e-09
-1.90293e-10
3.58026e-09
-3.46117e-09
7.38424e-07
7.69155e-09
7.307e-07
6.77592e-09
7.23977e-07
5.56136e-09
7.1875e-07
3.83638e-09
7.15494e-07
1.04283e-09
7.1482e-07
-3.66165e-09
-1.24772e-08
9.73473e-07
9.89196e-09
4.85331e-09
9.64583e-07
1.02899e-08
4.43986e-09
9.53851e-07
1.10946e-08
4.07876e-09
9.39921e-07
1.25081e-08
3.62886e-09
9.21077e-07
1.44773e-08
3.17467e-09
2.25289e-08
4.14812e-09
1.35365e-06
1.17425e-08
4.43053e-09
1.3532e-06
1.18745e-08
3.89735e-09
1.35243e-06
1.23129e-08
3.31866e-09
1.35118e-06
1.3126e-08
2.65471e-09
1.34907e-06
1.42763e-08
1.8939e-09
1.56019e-08
1.20245e-09
1.63542e-06
9.93373e-09
4.71985e-09
1.64004e-06
9.70283e-09
4.24388e-09
1.64475e-06
9.62517e-09
3.76093e-09
1.64964e-06
9.69709e-09
3.25133e-09
1.65484e-06
9.84595e-09
2.72026e-09
9.89182e-09
2.20555e-09
1.8368e-06
5.64659e-09
5.51041e-09
1.84496e-06
5.35151e-09
5.15553e-09
1.85316e-06
5.09795e-09
4.82945e-09
1.86154e-06
4.87452e-09
4.52602e-09
1.8702e-06
4.64448e-09
4.25037e-09
4.37924e-09
4.08579e-09
1.94202e-06
-7.55748e-12
6.11154e-09
1.95202e-06
-1.45358e-11
5.93828e-09
1.96191e-06
-2.60684e-11
5.85042e-09
1.97181e-06
-3.6539e-11
5.84245e-09
1.98176e-06
-4.51165e-11
5.90042e-09
-5.44107e-11
5.98708e-09
1.94194e-06
-5.51049e-09
6.20459e-09
1.95194e-06
-5.15553e-09
6.07333e-09
1.96187e-06
-4.82931e-09
6.03518e-09
1.97189e-06
-4.52561e-09
6.07679e-09
1.98212e-06
-4.24952e-09
6.16258e-09
-4.08427e-09
6.20845e-09
1.82857e-06
-1.00041e-08
5.98978e-09
1.8368e-06
-9.45384e-09
5.64672e-09
1.84496e-06
-8.96091e-09
5.35166e-09
1.85316e-06
-8.50448e-09
5.0981e-09
1.86154e-06
-8.07959e-09
4.87461e-09
1.87021e-06
-7.71349e-09
4.64439e-09
-7.63233e-09
4.37881e-09
1.63151e-06
-1.14316e-08
5.09747e-09
1.63642e-06
-1.10597e-08
4.54692e-09
1.64147e-06
-1.07443e-08
3.96137e-09
1.64667e-06
-1.04575e-08
3.31045e-09
1.65203e-06
-1.01957e-08
2.55585e-09
1.65757e-06
-1.00158e-08
1.68521e-09
-1.03309e-08
7.89008e-10
1.35542e-06
-9.41608e-09
4.5583e-09
1.35606e-06
-9.31411e-09
3.79285e-09
1.35688e-06
-9.23053e-09
2.86751e-09
1.35783e-06
-9.12402e-09
1.66996e-09
1.35875e-06
-8.99391e-09
1.00225e-10
1.35945e-06
-8.92036e-09
-1.98115e-09
-9.25411e-09
-4.29037e-09
9.83374e-07
4.66498e-09
9.76962e-07
3.87312e-09
9.70509e-07
2.78425e-09
9.64014e-07
1.20702e-09
9.57198e-07
-1.13558e-09
9.49271e-07
-4.65455e-09
-1.0013e-08
1.10455e-06
1.03461e-08
7.31069e-10
1.09669e-06
1.10694e-08
1.22389e-09
1.08635e-06
1.23312e-08
2.08639e-09
1.07205e-06
1.44184e-08
3.51225e-09
1.0519e-06
1.72789e-08
6.05263e-09
2.27504e-08
1.04666e-08
1.47827e-06
1.28855e-08
5.34967e-10
1.47912e-06
1.32722e-08
8.41871e-10
1.47936e-06
1.4094e-08
1.30902e-09
1.47897e-06
1.5473e-08
1.9934e-09
1.47784e-06
1.73647e-08
2.94085e-09
1.92961e-08
3.94611e-09
1.75077e-06
1.09324e-08
2.14883e-10
1.75702e-06
1.0932e-08
3.31799e-10
1.76323e-06
1.11574e-08
4.91756e-10
1.76965e-06
1.16092e-08
6.92602e-10
1.77664e-06
1.21887e-08
9.05475e-10
1.26699e-08
1.02359e-09
1.94194e-06
6.20437e-09
7.49945e-12
1.95194e-06
6.07304e-09
1.45684e-11
1.96187e-06
6.03483e-09
2.62628e-11
1.97189e-06
6.07638e-09
3.70075e-11
1.98212e-06
6.16211e-09
4.59933e-11
6.2079e-09
5.58892e-11
2.04142e-06
1.74894e-11
-1.76593e-11
2.05343e-06
2.37837e-11
-2.39273e-11
2.06531e-06
2.98437e-11
-2.99234e-11
2.07723e-06
3.38384e-11
-3.38009e-11
2.0893e-06
3.30766e-11
-3.28579e-11
2.63712e-11
-2.59219e-11
2.04142e-06
-6.11169e-09
1.76354e-11
2.05343e-06
-5.93839e-09
2.39454e-11
2.06531e-06
-5.85045e-09
3.00117e-11
2.07723e-06
-5.84232e-09
3.3997e-11
2.0893e-06
-5.9e-09
3.32153e-11
-5.98626e-09
2.65446e-11
1.93178e-06
-1.09892e-08
-5.30103e-12
1.94202e-06
-1.07007e-08
-7.54904e-12
1.95202e-06
-1.05722e-08
-1.45812e-11
1.96191e-06
-1.06152e-08
-2.62199e-11
1.97181e-06
-1.08305e-08
-3.68873e-11
1.98176e-06
-1.11666e-08
-4.57664e-11
-1.157e-08
-5.54398e-11
1.74467e-06
-1.25989e-08
-1.40956e-10
1.75129e-06
-1.25544e-08
-2.14998e-10
1.75772e-06
-1.27042e-08
-3.31882e-10
1.76405e-06
-1.31505e-08
-4.91781e-10
1.77043e-06
-1.39605e-08
-6.92548e-10
1.77693e-06
-1.5075e-08
-9.053e-10
-1.63459e-08
-1.02315e-09
1.4777e-06
-9.76431e-09
-3.36801e-10
1.47949e-06
-1.00105e-08
-5.35149e-10
1.48096e-06
-1.0469e-08
-8.42047e-10
1.48205e-06
-1.12591e-08
-1.30917e-09
1.48267e-06
-1.24878e-08
-1.99351e-09
1.48264e-06
-1.40793e-08
-2.9409e-09
-1.61034e-08
-3.94599e-09
1.11185e-06
-4.34962e-10
1.10644e-06
-7.3125e-10
1.09998e-06
-1.2241e-09
1.09201e-06
-2.08665e-09
1.0819e-06
-3.51253e-09
1.06922e-06
-6.05288e-09
-1.04668e-08
1.10644e-06
1.00102e-08
-3.87344e-09
1.09998e-06
1.04686e-08
-2.78464e-09
1.09202e-06
1.12585e-08
-1.20749e-09
1.08191e-06
1.24869e-08
1.13497e-09
1.06923e-06
1.4078e-08
4.65375e-09
1.61016e-08
1.0012e-08
1.47949e-06
1.2554e-08
-3.7931e-09
1.48096e-06
1.27036e-08
-2.86775e-09
1.48205e-06
1.31497e-08
-1.67018e-09
1.48267e-06
1.39594e-08
-1.00412e-10
1.48264e-06
1.50736e-08
1.98103e-09
1.63444e-08
4.29045e-09
1.75129e-06
1.07002e-08
-4.54705e-09
1.75772e-06
1.05715e-08
-3.96146e-09
1.76405e-06
1.06144e-08
-3.31048e-09
1.77043e-06
1.08295e-08
-2.55583e-09
1.77693e-06
1.11654e-08
-1.68511e-09
1.15688e-08
-7.88779e-10
1.94202e-06
6.11118e-09
-5.64679e-09
1.95202e-06
5.93779e-09
-5.35171e-09
1.96191e-06
5.84976e-09
-5.09813e-09
1.97181e-06
5.84155e-09
-4.87463e-09
1.98176e-06
5.89919e-09
-4.64441e-09
5.98544e-09
-4.37879e-09
2.04142e-06
-1.79814e-11
-6.20466e-09
2.05343e-06
-2.43485e-11
-6.07337e-09
2.06531e-06
-3.04726e-11
-6.03519e-09
2.07723e-06
-3.45135e-11
-6.07676e-09
2.0893e-06
-3.37747e-11
-6.16246e-09
-2.71433e-11
-6.20815e-09
2.04142e-06
-6.20489e-09
-6.1116e-09
2.05343e-06
-6.07367e-09
-5.93832e-09
2.06531e-06
-6.03555e-09
-5.85041e-09
2.07723e-06
-6.0772e-09
-5.84235e-09
2.0893e-06
-6.16299e-09
-5.90015e-09
-6.20876e-09
-5.98658e-09
1.93171e-06
-1.11384e-08
-5.9002e-09
1.94194e-06
-1.0933e-08
-5.5105e-09
1.95194e-06
-1.09327e-08
-5.15561e-09
1.96187e-06
-1.11583e-08
-4.82952e-09
1.97189e-06
-1.16102e-08
-4.52604e-09
1.98212e-06
-1.21899e-08
-4.25031e-09
-1.2671e-08
-4.08554e-09
1.74431e-06
-1.28079e-08
-5.20722e-09
1.75077e-06
-1.2886e-08
-4.71998e-09
1.75702e-06
-1.32728e-08
-4.24403e-09
1.76323e-06
-1.40948e-08
-3.76112e-09
1.76965e-06
-1.54741e-08
-3.25159e-09
1.77664e-06
-1.73663e-08
-2.72063e-09
-1.92978e-08
-2.20606e-09
1.47691e-06
-9.95304e-09
-4.95423e-09
1.47826e-06
-1.03464e-08
-4.43066e-09
1.47912e-06
-1.10698e-08
-3.89749e-09
1.47936e-06
-1.23318e-08
-3.31881e-09
1.47897e-06
-1.44194e-08
-2.6549e-09
1.47784e-06
-1.72804e-08
-1.89416e-09
-2.27522e-08
-1.2027e-09
1.11077e-06
-5.26267e-09
1.10455e-06
-4.85335e-09
1.09669e-06
-4.43992e-09
1.08635e-06
-4.07883e-09
1.07205e-06
-3.6289e-09
1.05189e-06
-3.17467e-09
-4.14786e-09
9.76963e-07
9.31392e-09
-6.77626e-09
9.7051e-07
9.23025e-09
-5.56174e-09
9.64015e-07
9.12363e-09
-3.83684e-09
9.572e-07
8.99334e-09
-1.04342e-09
9.49274e-07
8.91954e-09
3.66072e-09
9.25284e-09
1.24756e-08
1.35606e-06
1.10594e-08
-6.17892e-09
1.35688e-06
1.07438e-08
-5.20715e-09
1.35783e-06
1.04568e-08
-3.95129e-09
1.35875e-06
1.01947e-08
-2.22262e-09
1.35945e-06
1.00145e-08
1.90261e-10
1.03291e-08
3.46117e-09
1.63642e-06
9.45338e-09
-7.85369e-09
1.64147e-06
8.9603e-09
-7.22548e-09
1.64667e-06
8.5037e-09
-6.56146e-09
1.65204e-06
8.0786e-09
-5.80443e-09
1.65758e-06
7.71228e-09
-4.92222e-09
7.63089e-09
-4.09994e-09
1.8368e-06
5.51002e-09
-9.93407e-09
1.84496e-06
5.15497e-09
-9.70327e-09
1.85316e-06
4.82868e-09
-9.62576e-09
1.86154e-06
4.52493e-09
-9.69787e-09
1.87021e-06
4.24883e-09
-9.84691e-09
4.08363e-09
-9.89281e-09
1.94194e-06
7.07221e-12
-1.09328e-08
1.95194e-06
1.39912e-11
-1.09325e-08
1.96187e-06
2.54782e-11
-1.1158e-08
1.97189e-06
3.59315e-11
-1.161e-08
1.98212e-06
4.4557e-11
-1.21896e-08
5.39299e-11
-1.26708e-08
1.94202e-06
-5.64712e-09
-1.07007e-08
1.95202e-06
-5.35216e-09
-1.05721e-08
1.96191e-06
-5.09873e-09
-1.06151e-08
1.97181e-06
-4.87544e-09
-1.08305e-08
1.98176e-06
-4.64552e-09
-1.11665e-08
-4.38026e-09
-1.15701e-08
1.82857e-06
-1.03099e-08
-1.00041e-08
1.8368e-06
-9.93428e-09
-9.45379e-09
1.84496e-06
-9.70353e-09
-8.96085e-09
1.85316e-06
-9.62609e-09
-8.50444e-09
1.86154e-06
-9.69828e-09
-8.0796e-09
1.8702e-06
-9.84746e-09
-7.71366e-09
-9.89351e-09
-7.63298e-09
1.63083e-06
-1.18455e-08
-8.27007e-09
1.63542e-06
-1.1743e-08
-7.49975e-09
1.64004e-06
-1.1875e-08
-6.69518e-09
1.64475e-06
-1.23137e-08
-5.78481e-09
1.64964e-06
-1.31272e-08
-4.71365e-09
1.65484e-06
-1.42778e-08
-3.48523e-09
-1.56036e-08
-2.49129e-09
1.35388e-06
-9.74161e-09
-6.9311e-09
1.35365e-06
-9.89216e-09
-6.04968e-09
1.3532e-06
-1.02902e-08
-5.03914e-09
1.35243e-06
-1.10951e-08
-3.76286e-09
1.35118e-06
-1.25089e-08
-2.02248e-09
1.34906e-06
-1.44785e-08
4.20513e-10
-2.25304e-08
4.05018e-09
9.81311e-07
-7.77065e-09
9.73472e-07
-6.90688e-09
9.64582e-07
-5.83987e-09
9.53849e-07
-4.44078e-09
9.39918e-07
-2.20655e-09
9.21073e-07
1.1917e-09
4.56988e-09
7.30701e-07
7.36948e-09
-6.42251e-09
7.23977e-07
6.95979e-09
-5.79767e-09
7.1875e-07
6.23959e-09
-4.85e-09
7.15494e-07
4.72217e-09
-2.50936e-09
7.1482e-07
2.01514e-09
2.32002e-09
-3.58132e-09
1.48366e-08
1.11977e-06
8.28021e-09
-5.41514e-09
1.11878e-06
7.57044e-09
-4.8264e-09
1.11844e-06
6.62546e-09
-3.9984e-09
1.11825e-06
5.26785e-09
-2.58141e-09
1.11687e-06
3.36841e-09
2.18457e-10
1.554e-09
5.0485e-09
1.41754e-06
7.49942e-09
-8.88868e-09
1.41973e-06
6.69474e-09
-8.54444e-09
1.4222e-06
5.78421e-09
-8.1915e-09
1.42466e-06
4.71286e-09
-7.7065e-09
1.42647e-06
3.48416e-09
-6.84286e-09
2.4897e-09
-5.22091e-09
1.63542e-06
4.71953e-09
-1.17428e-08
1.64004e-06
4.24345e-09
-1.18749e-08
1.64475e-06
3.76034e-09
-1.23135e-08
1.64965e-06
3.25053e-09
-1.3127e-08
1.65484e-06
2.71917e-09
-1.42775e-08
2.20406e-09
-1.56034e-08
1.75077e-06
2.14541e-10
-1.28859e-08
1.75702e-06
3.31301e-10
-1.32727e-08
1.76323e-06
4.91034e-10
-1.40946e-08
1.76965e-06
6.9156e-10
-1.54739e-08
1.77664e-06
9.03974e-10
-1.73659e-08
1.02144e-09
-1.92974e-08
1.75129e-06
-4.54731e-09
-1.25544e-08
1.75772e-06
-3.96185e-09
-1.27041e-08
1.76405e-06
-3.31106e-09
-1.31503e-08
1.77043e-06
-2.55668e-09
-1.39602e-08
1.77693e-06
-1.6864e-09
-1.50746e-08
-7.90853e-10
-1.63454e-08
1.63151e-06
-8.50077e-09
-1.14315e-08
1.63642e-06
-7.85383e-09
-1.10596e-08
1.64147e-06
-7.22568e-09
-1.07442e-08
1.64667e-06
-6.56171e-09
-1.04573e-08
1.65203e-06
-5.80475e-09
-1.01953e-08
1.65757e-06
-4.92268e-09
-1.00152e-08
-4.10089e-09
-1.03303e-08
1.41572e-06
-9.28603e-09
-8.9059e-09
1.41754e-06
-8.88881e-09
-8.28037e-09
1.41973e-06
-8.54454e-09
-7.57066e-09
1.4222e-06
-8.19161e-09
-6.62575e-09
1.42466e-06
-7.7066e-09
-5.26818e-09
1.42646e-06
-6.84291e-09
-3.36883e-09
-5.2211e-09
-1.55513e-09
1.12049e-06
-7.91743e-09
-5.64338e-09
1.11833e-06
-7.83184e-09
-4.94686e-09
1.11669e-06
-7.82902e-09
-4.11346e-09
1.11559e-06
-7.91281e-09
-2.93843e-09
1.11497e-06
-8.03472e-09
-1.07973e-09
1.11513e-06
-8.46819e-09
1.88695e-09
-8.96831e-09
6.41078e-09
7.36924e-07
-6.69314e-09
7.28191e-07
-6.00571e-09
7.19671e-07
-5.14912e-09
7.1122e-07
-3.90203e-09
7.02251e-07
-1.27191e-09
6.90842e-07
4.13235e-09
2.16996e-08
4.24391e-07
2.77082e-09
-1.92741e-09
4.18038e-07
2.40617e-09
-1.85067e-09
4.13258e-07
1.71525e-09
-1.78489e-09
4.12172e-07
-9.32846e-11
-1.33023e-09
4.1965e-07
-4.95238e-09
-2.05606e-10
-2.04737e-08
1.32653e-08
8.07034e-07
4.94667e-09
-3.03406e-09
8.03371e-07
4.11331e-09
-2.87023e-09
8.00756e-07
2.93824e-09
-2.606e-09
7.98579e-07
1.0795e-09
-1.57766e-09
7.9377e-07
-1.88713e-09
1.96284e-09
-6.41062e-09
1.91739e-08
1.11833e-06
6.04942e-09
-7.83182e-09
1.11669e-06
5.03887e-09
-7.82899e-09
1.11559e-06
3.7625e-09
-7.91275e-09
1.11497e-06
2.02201e-09
-8.03464e-09
1.11513e-06
-4.21211e-10
-8.46812e-09
-4.05101e-09
-8.96813e-09
1.35365e-06
4.43034e-09
-9.89213e-09
1.3532e-06
3.89709e-09
-1.02902e-08
1.35243e-06
3.31829e-09
-1.1095e-08
1.35118e-06
2.65419e-09
-1.25088e-08
1.34907e-06
1.89318e-09
-1.44783e-08
1.20137e-09
-2.25302e-08
1.47826e-06
5.34785e-10
-1.03464e-08
1.47912e-06
8.41585e-10
-1.10697e-08
1.47936e-06
1.30858e-09
-1.23317e-08
1.47897e-06
1.99274e-09
-1.44191e-08
1.47784e-06
2.93986e-09
-1.728e-08
3.94461e-09
-2.27517e-08
1.47949e-06
-3.7932e-09
-1.00104e-08
1.48096e-06
-2.86794e-09
-1.04689e-08
1.48205e-06
-1.67049e-09
-1.1259e-08
1.48267e-06
-1.00813e-10
-1.24875e-08
1.48264e-06
1.98026e-09
-1.40789e-08
4.28912e-09
-1.61028e-08
1.35542e-06
-7.02026e-09
-9.41604e-09
1.35606e-06
-6.17892e-09
-9.31406e-09
1.35688e-06
-5.20719e-09
-9.23045e-09
1.35783e-06
-3.95134e-09
-9.12386e-09
1.35875e-06
-2.22266e-09
-8.99359e-09
1.35944e-06
1.90178e-10
-8.91983e-09
3.46062e-09
-9.25333e-09
1.12145e-06
-5.94049e-09
-7.65783e-09
1.11977e-06
-5.41516e-09
-7.36951e-09
1.11878e-06
-4.8264e-09
-6.95986e-09
1.11844e-06
-3.99838e-09
-6.23969e-09
1.11825e-06
-2.58134e-09
-4.72225e-09
1.11687e-06
2.18572e-10
-2.0152e-09
5.04867e-09
3.58095e-09
8.11591e-07
-3.21162e-09
-3.0535e-09
8.07034e-07
-3.03407e-09
-2.7709e-09
8.03371e-07
-2.87022e-09
-2.40625e-09
8.00755e-07
-2.60598e-09
-1.71537e-09
7.98579e-07
-1.57762e-09
9.31617e-11
7.9377e-07
1.96282e-09
4.95215e-09
1.91741e-08
2.04737e-08
4.31119e-07
-1.72632e-09
4.23494e-07
-1.41499e-09
4.16497e-07
-1.02199e-09
4.10468e-07
-4.78266e-10
4.06733e-07
8.85195e-10
4.09049e-07
3.77944e-09
2.7694e-08
1.52482e-07
1.41499e-09
1.4961e-07
1.02198e-09
1.47347e-07
4.78231e-10
1.46902e-07
-8.85213e-10
1.50476e-07
-3.77944e-09
-2.76939e-08
4.23494e-07
6.00569e-09
4.16497e-07
5.14905e-09
4.10468e-07
3.90191e-09
4.06733e-07
1.2718e-09
4.09049e-07
-4.13237e-09
-2.16994e-08
7.28191e-07
6.90682e-09
7.19672e-07
5.83975e-09
7.1122e-07
4.44059e-09
7.02251e-07
2.20635e-09
6.90843e-07
-1.19192e-09
-4.5701e-09
9.73473e-07
4.85322e-09
9.64583e-07
4.43972e-09
9.5385e-07
4.07853e-09
9.39919e-07
3.62854e-09
9.21074e-07
3.17423e-09
4.14729e-09
1.10455e-06
7.31042e-10
1.09669e-06
1.22381e-09
1.08635e-06
2.08624e-09
1.07205e-06
3.51201e-09
1.05189e-06
6.05223e-09
1.04659e-08
1.10644e-06
-3.87339e-09
1.09998e-06
-2.7846e-09
1.09202e-06
-1.20747e-09
1.0819e-06
1.13501e-09
1.06922e-06
4.65384e-09
1.00118e-08
9.83374e-07
-7.6917e-09
9.76963e-07
-6.77611e-09
9.70509e-07
-5.56158e-09
9.64014e-07
-3.83664e-09
9.57199e-07
-1.04308e-09
9.49272e-07
3.66135e-09
1.24767e-08
7.38424e-07
-6.95237e-09
7.307e-07
-6.42233e-09
7.23977e-07
-5.7975e-09
7.1875e-07
-4.84978e-09
7.15494e-07
-2.50906e-09
7.1482e-07
2.32056e-09
1.48375e-08
4.31657e-07
-2.03357e-09
4.24392e-07
-1.92738e-09
4.18039e-07
-1.85062e-09
4.13258e-07
-1.78481e-09
4.12173e-07
-1.33016e-09
4.19651e-07
-2.05517e-10
1.32655e-08
1.55825e-07
1.52482e-07
1.4961e-07
1.47347e-07
1.46902e-07
1.50476e-07
1.31621e-07
-1.05501e-08
5.83948e-08
1.04955e-07
-2.15602e-08
4.82261e-08
9.238e-08
-2.91667e-08
4.17427e-08
-3.24422e-08
3.88395e-08
3.17827e-07
-3.71402e-08
5.88659e-08
2.84671e-07
-4.27939e-08
5.43892e-08
2.64597e-07
-5.30642e-08
4.39722e-08
3.74037e-08
4.88784e-07
3.431e-08
4.83712e-07
3.7134e-08
3.41604e-08
3.52996e-07
4.39896e-09
9.65148e-08
3.09613e-07
-9.15026e-10
9.25249e-08
2.78856e-07
-1.07712e-08
8.3272e-08
-1.82871e-08
6.20113e-07
-2.84442e-08
8.48598e-08
6.15811e-07
-2.74033e-08
8.51791e-08
6.03398e-07
-3.29605e-08
7.85749e-08
8.43559e-07
6.02722e-08
8.49345e-07
6.21086e-08
6.07942e-08
5.76521e-07
9.33831e-10
1.17705e-07
5.45381e-07
3.61693e-09
1.20049e-07
-7.81188e-10
1.14756e-07
8.63269e-07
-2.58864e-08
1.00795e-07
8.70703e-07
-2.19076e-08
1.0327e-07
-2.2364e-08
1.01581e-07
1.11107e-06
7.96197e-08
1.11538e-06
8.08064e-08
8.02436e-08
7.23473e-07
-3.90546e-09
7.11762e-07
2.97058e-10
3.05536e-10
1.04983e-06
-1.72344e-08
1.05384e-06
-1.42873e-08
-1.34022e-08
1.2913e-06
1.29846e-06
)
;

boundaryField
{
    inlet
    {
        type            calculated;
        value           nonuniform List<scalar> 0();
    }
    ami1
    {
        type            cyclicAMI;
        value           nonuniform List<scalar> 
100
(
1.91436e-07
4.41699e-07
7.16051e-07
9.37559e-07
1.05358e-06
1.02282e-06
8.89826e-07
6.6474e-07
4.22221e-07
1.91433e-07
4.2223e-07
7.65582e-07
1.11015e-06
1.35919e-06
1.48205e-06
1.47855e-06
1.35075e-06
1.11653e-06
7.6558e-07
4.41696e-07
6.64748e-07
1.11652e-06
1.42665e-06
1.66358e-06
1.78351e-06
1.78445e-06
1.66084e-06
1.42665e-06
1.11015e-06
7.16041e-07
8.89831e-07
1.35074e-06
1.66083e-06
1.87926e-06
1.99178e-06
1.99261e-06
1.87927e-06
1.66358e-06
1.3592e-06
9.37553e-07
1.02283e-06
1.47855e-06
1.78445e-06
1.99261e-06
2.10149e-06
2.10149e-06
1.99178e-06
1.78352e-06
1.48205e-06
1.05357e-06
1.05358e-06
1.48205e-06
1.78352e-06
1.99178e-06
2.10149e-06
2.10149e-06
1.99261e-06
1.78445e-06
1.47855e-06
1.02282e-06
9.37557e-07
1.3592e-06
1.66358e-06
1.87927e-06
1.99261e-06
1.99178e-06
1.87926e-06
1.66083e-06
1.35074e-06
8.89825e-07
7.1604e-07
1.11015e-06
1.42665e-06
1.66084e-06
1.78445e-06
1.78352e-06
1.66358e-06
1.42665e-06
1.11652e-06
6.64744e-07
4.41695e-07
7.65581e-07
1.11652e-06
1.35074e-06
1.47855e-06
1.48205e-06
1.3592e-06
1.11015e-06
7.65582e-07
4.22229e-07
1.91435e-07
4.22228e-07
6.64745e-07
8.89827e-07
1.02282e-06
1.05358e-06
9.37554e-07
7.1604e-07
4.41697e-07
1.91435e-07
)
;
    }
    walls
    {
        type            calculated;
        value           nonuniform List<scalar> 
283
(
0
0
0
0
0
0
0
0
0
0
0
0
0
0
0
0
0
0
0
0
0
0
0
0
0
0
0
0
0
0
0
0
0
0
0
0
0
0
0
0
0
0
0
0
0
0
0
0
0
0
0
0
0
0
0
0
0
0
0
0
0
0
0
0
0
0
0
0
0
0
0
0
0
0
0
0
0
0
0
0
0
0
0
0
0
0
0
0
0
0
0
0
0
0
0
0
0
0
0
0
0
0
0
0
0
0
0
0
0
0
0
0
0
0
0
0
0
0
0
0
0
0
0
0
0
0
0
0
0
0
0
0
0
0
0
0
0
0
0
0
0
0
0
0
0
0
0
0
0
0
0
0
0
0
0
0
0
0
0
0
0
0
0
0
0
0
0
0
0
0
0
0
0
0
0
0
0
0
0
0
0
0
0
0
0
0
0
0
0
0
0
0
0
0
0
0
0
0
0
0
0
0
0
0
0
0
0
0
0
0
0
0
0
0
0
0
0
0
0
0
0
0
0
0
0
0
0
0
0
0
0
0
0
0
0
0
0
0
0
0
0
0
0
0
0
0
0
0
0
0
0
0
0
0
0
0
0
0
2.90979e-14
2.43942e-14
1.84387e-14
2.90979e-14
2.43942e-14
1.84387e-14
2.90979e-14
2.43942e-14
1.84387e-14
2.90979e-14
2.43942e-14
-2.90979e-14
-2.43942e-14
-1.84387e-14
-1.28555e-14
-2.90979e-14
-2.43942e-14
-1.84387e-14
-1.28555e-14
-2.90979e-14
-2.43942e-14
-1.84387e-14
-1.28555e-14
-2.90979e-14
-2.43942e-14
)
;
    }
    ami2
    {
        type            cyclicAMI;
        value           nonuniform List<scalar> 
12
(
-1.79465e-07
-3.50102e-07
-4.82682e-07
-3.95515e-07
-6.13263e-07
-8.37135e-07
-5.98645e-07
-8.52384e-07
-1.10937e-06
-7.30399e-07
-1.0472e-06
-1.28575e-06
)
;
    }
    outlet
    {
        type            calculated;
        value           nonuniform List<scalar> 0();
    }
    procBoundary2to0
    {
        type            processor;
        value           nonuniform List<scalar> 
28
(
8.59836e-08
2.54248e-07
-5.94971e-08
-7.75523e-08
-7.48557e-08
4.75806e-07
-7.93192e-08
2.59614e-07
7.63697e-08
5.89909e-07
-3.92983e-08
7.19032e-08
-6.08309e-08
-5.81639e-08
8.49481e-07
-5.97312e-08
5.14678e-07
8.69279e-07
-4.69373e-08
-4.49169e-08
1.11839e-06
-4.48226e-08
6.96396e-07
1.05497e-06
-3.14173e-08
-3.00761e-08
1.30449e-06
-2.92193e-08
)
;
    }
    procBoundary2to1
    {
        type            processor;
        value           nonuniform List<scalar> 9(1.28538e-07 1.31463e-07 1.29817e-07 1.11499e-07 1.13845e-07 1.14159e-07 8.82506e-08 8.94432e-08 9.00281e-08);
    }
    procBoundary2to3
    {
        type            processor;
        value           nonuniform List<scalar> 
110
(
-1.55825e-07
-4.31657e-07
-7.38424e-07
-9.83374e-07
-1.11185e-06
-1.11077e-06
5.2627e-09
-9.88545e-07
-7.45919e-07
-4.39298e-07
-1.59585e-07
-4.31119e-07
-8.11591e-07
-1.12145e-06
-1.35542e-06
-1.47771e-06
-1.47691e-06
4.95426e-09
-1.35401e-06
-1.12315e-06
-8.1691e-07
-4.3963e-07
-7.36924e-07
-1.12049e-06
-1.41572e-06
-1.63151e-06
-1.74467e-06
-1.74431e-06
5.20724e-09
-1.62623e-06
-1.4143e-06
-1.12377e-06
-7.46821e-07
-9.81312e-07
-1.35388e-06
-1.63083e-06
-1.82857e-06
-1.93178e-06
-1.93171e-06
5.90023e-09
-1.82015e-06
-1.62668e-06
-1.35497e-06
-9.89763e-07
-1.11077e-06
-1.47691e-06
-1.74431e-06
-1.93171e-06
-2.0291e-06
-2.0291e-06
6.36985e-09
-1.92116e-06
-1.73783e-06
-1.47564e-06
-1.11651e-06
-1.11185e-06
-1.47771e-06
-1.74468e-06
-1.93178e-06
-2.0291e-06
-2.0291e-06
6.43148e-09
-1.92111e-06
-1.73757e-06
-1.47515e-06
-1.1159e-06
-9.83374e-07
-1.35542e-06
-1.63151e-06
-1.82857e-06
-1.93171e-06
-1.93178e-06
5.99011e-09
-1.82015e-06
-1.62623e-06
-1.354e-06
-9.88544e-07
-7.38424e-07
-1.12145e-06
-1.41572e-06
-1.63083e-06
-1.74431e-06
-1.74467e-06
5.09778e-09
-1.62668e-06
-1.4143e-06
-1.12315e-06
-7.45919e-07
-4.31657e-07
-8.11591e-07
-1.12049e-06
-1.35388e-06
-1.47691e-06
-1.47771e-06
4.55858e-09
-1.35497e-06
-1.12377e-06
-8.1691e-07
-4.39297e-07
-1.55825e-07
-4.31119e-07
-7.36924e-07
-9.81311e-07
-1.11077e-06
-1.11185e-06
4.66518e-09
-9.89763e-07
-7.46821e-07
-4.39629e-07
-1.59585e-07
)
;
    }
}


// ************************************************************************* //
