/*--------------------------------*- C++ -*----------------------------------*\
| =========                 |                                                 |
| \\      /  F ield         | OpenFOAM: The Open Source CFD Toolbox           |
|  \\    /   O peration     | Version:  2212                                  |
|   \\  /    A nd           | Website:  www.openfoam.com                      |
|    \\/     M anipulation  |                                                 |
\*---------------------------------------------------------------------------*/
FoamFile
{
    version     2.0;
    format      ascii;
    arch        "LSB;label=32;scalar=64";
    class       volVectorField;
    location    "1";
    object      U;
}
// * * * * * * * * * * * * * * * * * * * * * * * * * * * * * * * * * * * * * //

dimensions      [0 1 -1 0 0 0 0];

internalField   nonuniform List<vector> 
680
(
(0.0460627 0.000116351 3.34906e-05)
(0.0451279 0.000121053 -4.64613e-06)
(0.0443535 0.0001362 -5.53239e-05)
(0.0438932 0.000132956 -0.000205869)
(0.0443634 8.50317e-05 -0.000432938)
(0.0434114 -0.00199358 -0.00308662)
(0.0667219 0.000564002 0.000368242)
(0.0656548 0.000516835 0.000352492)
(0.0647726 0.000444271 0.000300564)
(0.0642667 0.000269963 9.52415e-05)
(0.064688 -5.98365e-05 -0.000261673)
(0.0625766 -0.000569872 -0.000590852)
(0.0819684 0.000935145 0.000899385)
(0.0811535 0.000781959 0.000886885)
(0.0804716 0.000575735 0.000849467)
(0.0799839 0.000193811 0.000724831)
(0.0797622 -0.00050407 0.000487414)
(0.0790145 -0.00220972 -7.88586e-05)
(0.0909179 0.000647953 0.00118256)
(0.0903206 0.000453339 0.00119926)
(0.0897188 0.000180072 0.00121728)
(0.0891057 -0.000225328 0.00124621)
(0.0884335 -0.000840654 0.0013034)
(0.0875868 -0.00183423 0.00142834)
(0.094572 0.000143533 0.00126702)
(0.094073 2.76963e-05 0.00134841)
(0.0934707 -0.000152792 0.00147755)
(0.0927137 -0.000437137 0.00166892)
(0.0917292 -0.000903839 0.00190873)
(0.0906722 -0.00165387 0.00223095)
(0.0944523 -0.000332726 0.0013079)
(0.0938622 -0.000340704 0.00141814)
(0.0931102 -0.000376773 0.00159891)
(0.0920781 -0.000449268 0.00189065)
(0.0906438 -0.000604888 0.00225301)
(0.0889197 -0.000637191 0.00293995)
(0.0913645 -0.000836542 0.00120551)
(0.0906708 -0.000718148 0.00124613)
(0.0899049 -0.000577184 0.00131919)
(0.0890143 -0.000406508 0.00144574)
(0.0878842 -0.000144739 0.00166315)
(0.086408 0.000218537 0.00193988)
(0.0848083 0.000155474 0.00344651)
(0.0827422 -0.00102846 0.000935676)
(0.0817547 -0.000889689 0.000960893)
(0.0807926 -0.000716125 0.00100314)
(0.0798426 -0.000481598 0.00106747)
(0.0788664 -6.29367e-05 0.00115909)
(0.077785 0.000664023 0.0013396)
(0.0764366 0.00201951 0.00159808)
(0.0678444 -0.00053508 0.000398435)
(0.0666144 -0.000436564 0.000407347)
(0.065473 -0.000300444 0.000425207)
(0.0644473 -9.07226e-05 0.000441554)
(0.0636515 0.0002985 0.000378579)
(0.0634354 0.00108127 0.000159622)
(0.0624165 0.00389832 -0.00169833)
(0.0471253 -6.99632e-05 0.000120409)
(0.0460627 -3.3513e-05 0.000116331)
(0.0451279 4.62749e-06 0.000121038)
(0.0443534 5.52964e-05 0.000136189)
(0.043893 0.000205838 0.000132959)
(0.0443631 0.000432934 8.50767e-05)
(0.0434115 0.00308692 -0.00199359)
(0.0666144 0.000407357 0.000436547)
(0.065473 0.000425207 0.00030042)
(0.0644474 0.000441535 9.06978e-05)
(0.0636517 0.000378512 -0.000298538)
(0.0634359 0.000159479 -0.00108132)
(0.0624172 -0.00169868 -0.0038984)
(0.0876751 0.000389329 0.000281871)
(0.0872274 0.000363409 0.000189957)
(0.0868816 0.000334487 4.61181e-05)
(0.0866249 0.00025646 -0.000212118)
(0.0862758 -5.28402e-05 -0.000750435)
(0.086239 -0.000980728 -0.00195045)
(0.0968484 0.000757183 0.000915345)
(0.0967327 0.000651712 0.000858496)
(0.0966756 0.000511114 0.000767158)
(0.096662 0.00030739 0.000613456)
(0.0966114 -6.93648e-06 0.000371095)
(0.0967424 -0.000509578 6.80411e-05)
(0.102361 0.000560942 0.00137777)
(0.102417 0.000416015 0.00137393)
(0.102484 0.000231345 0.00137888)
(0.102558 -1.29323e-05 0.00139347)
(0.102622 -0.00032761 0.00143152)
(0.102786 -0.000668172 0.00155838)
(0.104739 0.000161395 0.00161922)
(0.104857 6.85447e-05 0.0016631)
(0.104949 -5.61286e-05 0.00175439)
(0.105009 -0.000227011 0.00190589)
(0.10504 -0.000454472 0.0021116)
(0.105262 -0.000709126 0.00234248)
(0.10467 -0.000292126 0.00165729)
(0.104752 -0.00027345 0.00173386)
(0.104792 -0.000262421 0.00187946)
(0.104783 -0.000260097 0.00211961)
(0.104742 -0.000268412 0.00245665)
(0.104988 -0.000267153 0.00280765)
(0.102229 -0.000696184 0.00144554)
(0.102217 -0.000583532 0.00146681)
(0.102194 -0.000456362 0.00152654)
(0.102149 -0.000300036 0.00164223)
(0.102069 -9.37093e-05 0.00183376)
(0.101962 0.000179092 0.00210287)
(0.102196 0.000453071 0.00241663)
(0.0969565 -0.000797289 0.00102473)
(0.0967481 -0.000676103 0.00101837)
(0.096584 -0.000528702 0.00102929)
(0.096465 -0.000331964 0.00105846)
(0.0963893 -5.34107e-05 0.00110641)
(0.09636 0.000342709 0.00116426)
(0.0965667 0.00085033 0.001137)
(0.0882111 -0.000354852 0.000420457)
(0.087675 -0.000281916 0.000389331)
(0.0872274 -0.000190007 0.000363416)
(0.0868815 -4.61986e-05 0.000334523)
(0.0866248 0.000211985 0.000256566)
(0.0862756 0.000750218 -5.26376e-05)
(0.0862386 0.00195 -0.000980328)
(0.0679097 -0.00037421 0.000611326)
(0.0667218 -0.000368264 0.000563973)
(0.0656548 -0.000352531 0.000516815)
(0.0647725 -0.000300623 0.000444267)
(0.0642666 -9.53226e-05 0.000269976)
(0.0646878 0.000261582 -5.98092e-05)
(0.0625763 0.000590673 -0.000569827)
(0.0817547 0.000960898 0.000889686)
(0.0807927 0.00100312 0.000716113)
(0.0798426 0.0010674 0.000481568)
(0.0788666 0.00115894 6.28683e-05)
(0.0777855 0.00133927 -0.000664186)
(0.0764373 0.0015977 -0.00201972)
(0.0967482 0.00101835 0.000676071)
(0.096584 0.00102924 0.000528664)
(0.096465 0.00105836 0.000331897)
(0.0963893 0.00110622 5.32868e-05)
(0.09636 0.00116401 -0.000342872)
(0.0965665 0.00113719 -0.000850189)
(0.103091 0.00103663 0.000948676)
(0.103237 0.000980575 0.000845498)
(0.103407 0.000923147 0.000720864)
(0.103591 0.000852411 0.000562821)
(0.103773 0.000750988 0.000368124)
(0.104113 0.000640609 0.000228141)
(0.106819 0.000716818 0.00132197)
(0.107144 0.000631632 0.00127008)
(0.107478 0.000538585 0.00122349)
(0.107823 0.000431608 0.00118262)
(0.108186 0.000308979 0.00115204)
(0.108647 0.000177373 0.00117115)
(0.108523 0.000237091 0.00154577)
(0.108927 0.00018521 0.00154257)
(0.10932 0.000124983 0.00156697)
(0.109711 5.30612e-05 0.00162345)
(0.11012 -2.81528e-05 0.00170409)
(0.110626 -0.000104063 0.00180021)
(0.108496 -0.000286745 0.00158161)
(0.108889 -0.000262152 0.00159979)
(0.109272 -0.000240266 0.00165671)
(0.109658 -0.000218399 0.00175876)
(0.110081 -0.000195447 0.00189387)
(0.110624 -0.000165843 0.0020298)
(0.106466 -0.000788126 0.00143253)
(0.106766 -0.000699649 0.00140349)
(0.107066 -0.000608063 0.00139895)
(0.10737 -0.000507547 0.00142315)
(0.107681 -0.000393951 0.00147854)
(0.108022 -0.000269772 0.00155495)
(0.108515 -0.000152203 0.00162558)
(0.102973 -0.00104241 0.00109865)
(0.103091 -0.00094871 0.00103665)
(0.103237 -0.000845548 0.000980625)
(0.103407 -0.000720945 0.000923239)
(0.103591 -0.000562949 0.000852564)
(0.103774 -0.000368302 0.000751208)
(0.104113 -0.000228322 0.000640828)
(0.0970223 -0.000961822 0.000849214)
(0.0968484 -0.000915386 0.000757181)
(0.0967326 -0.000858567 0.000651735)
(0.0966755 -0.000767278 0.000511177)
(0.096662 -0.000613649 0.000307517)
(0.0966113 -0.000371375 -6.71866e-06)
(0.0967425 -6.8282e-05 -0.000509341)
(0.0828709 -0.000900838 0.00105786)
(0.0819684 -0.000899412 0.000935127)
(0.0811535 -0.000886931 0.000781952)
(0.0804715 -0.000849546 0.00057574)
(0.0799837 -0.000724969 0.000193848)
(0.0797617 -0.000487658 -0.000503998)
(0.0790139 7.84544e-05 -0.00220964)
(0.0906708 0.00124612 0.000718138)
(0.0899049 0.00131915 0.000577163)
(0.0890144 0.00144565 0.000406469)
(0.0878844 0.00166296 0.000144661)
(0.0864084 0.00193959 -0.000218709)
(0.0848088 0.00344669 -0.000155731)
(0.102217 0.00146678 0.000583508)
(0.102194 0.00152649 0.000456338)
(0.102149 0.00164213 0.000300004)
(0.102069 0.00183359 9.36638e-05)
(0.101962 0.00210264 -0.000179128)
(0.102196 0.00241669 -0.000452881)
(0.106766 0.00140345 0.000699631)
(0.107066 0.00139889 0.000608047)
(0.10737 0.00142307 0.000507534)
(0.107681 0.00147843 0.00039395)
(0.108021 0.00155483 0.000269809)
(0.108515 0.00162556 0.000152344)
(0.109302 0.000944884 0.000907502)
(0.109789 0.000904307 0.000848624)
(0.110274 0.00087375 0.000793616)
(0.110766 0.000850728 0.000741541)
(0.111283 0.000829417 0.000694518)
(0.111884 0.000800645 0.00066887)
(0.110462 0.000334483 0.00104583)
(0.111037 0.000309833 0.00101975)
(0.111601 0.000285534 0.00100895)
(0.112164 0.000262222 0.00101122)
(0.112741 0.000238898 0.00102318)
(0.113388 0.000218017 0.00104103)
(0.110458 -0.000335015 0.00106413)
(0.111033 -0.000311647 0.00104713)
(0.111598 -0.000290015 0.00104785)
(0.112164 -0.000269852 0.00106295)
(0.112752 -0.000250895 0.00108509)
(0.113413 -0.00023743 0.00109963)
(0.108807 -0.000972062 0.000996504)
(0.109302 -0.000907517 0.000944906)
(0.109789 -0.000848632 0.000904339)
(0.110274 -0.000793613 0.00087379)
(0.110766 -0.000741513 0.00085077)
(0.111283 -0.000694437 0.000829445)
(0.111884 -0.0006687 0.000800626)
(0.106502 -0.00138149 0.000799952)
(0.106819 -0.001322 0.000716833)
(0.107144 -0.00127012 0.00063166)
(0.107478 -0.00122355 0.000538629)
(0.107823 -0.00118269 0.000431666)
(0.108186 -0.0011521 0.000309034)
(0.108648 -0.00117109 0.00017737)
(0.10232 -0.00139335 0.000682763)
(0.102361 -0.0013778 0.000560937)
(0.102417 -0.001374 0.000416026)
(0.102484 -0.00137899 0.000231376)
(0.102558 -0.00139364 -1.28735e-05)
(0.102622 -0.00143169 -0.000327559)
(0.102786 -0.00155782 -0.000668503)
(0.0915103 -0.00117029 0.000791741)
(0.0909178 -0.00118259 0.000647938)
(0.0903205 -0.00119931 0.000453333)
(0.0897187 -0.00121737 0.000180085)
(0.0891054 -0.00124637 -0.000225278)
(0.0884331 -0.00130369 -0.000840528)
(0.0875864 -0.00142871 -0.001834)
(0.0944524 0.00130788 0.000332703)
(0.0938623 0.0014181 0.000340669)
(0.0931103 0.00159884 0.000376719)
(0.0920782 0.00189053 0.000449188)
(0.090644 0.00225278 0.000604756)
(0.0889201 0.00293993 0.000637225)
(0.10467 0.00165726 0.000292109)
(0.104752 0.00173381 0.000273438)
(0.104792 0.00187938 0.000262422)
(0.104783 0.00211949 0.000260127)
(0.104742 0.00245649 0.00026851)
(0.104988 0.00280747 0.000267402)
(0.108496 0.00158158 0.000286741)
(0.108889 0.00159974 0.000262163)
(0.109272 0.00165665 0.000240306)
(0.109658 0.00175868 0.000218491)
(0.110081 0.00189377 0.000195631)
(0.110624 0.00202972 0.000166173)
(0.110458 0.0010641 0.00033501)
(0.111033 0.00104709 0.000311656)
(0.111598 0.0010478 0.000290046)
(0.112164 0.00106288 0.000269922)
(0.112752 0.00108501 0.000251023)
(0.113413 0.00109955 0.000237635)
(0.111341 0.000379022 0.000374517)
(0.112004 0.000367097 0.000361015)
(0.112655 0.000359683 0.000352181)
(0.113303 0.000356153 0.000347941)
(0.113968 0.000354476 0.000347218)
(0.114684 0.000350215 0.000346241)
(0.111341 -0.000374533 0.000379044)
(0.112004 -0.000361026 0.000367124)
(0.112655 -0.000352181 0.000359714)
(0.113303 -0.000347921 0.000356187)
(0.113968 -0.000347169 0.000354514)
(0.114684 -0.000346159 0.000350264)
(0.109869 -0.00108772 0.000359682)
(0.110462 -0.00104585 0.000334489)
(0.111037 -0.00101977 0.000309837)
(0.111601 -0.00100896 0.00028553)
(0.112164 -0.00101121 0.000262202)
(0.112741 -0.00102314 0.000238848)
(0.113388 -0.00104092 0.000217931)
(0.108104 -0.00157083 0.000282861)
(0.108523 -0.0015458 0.000237087)
(0.108927 -0.00154261 0.0001852)
(0.10932 -0.00156702 0.000124961)
(0.109711 -0.00162351 5.30076e-05)
(0.11012 -0.00170413 -2.82697e-05)
(0.110627 -0.00180018 -0.000104272)
(0.104604 -0.00160489 0.0002353)
(0.104739 -0.00161925 0.000161388)
(0.104857 -0.00166315 6.85389e-05)
(0.104949 -0.00175447 -5.61389e-05)
(0.105009 -0.001906 -0.00022704)
(0.10504 -0.00211174 -0.000454561)
(0.105262 -0.00234246 -0.000709374)
(0.0949973 -0.00121728 0.000225318)
(0.0945719 -0.00126705 0.000143533)
(0.0940729 -0.00134845 2.77047e-05)
(0.0934706 -0.00147761 -0.000152768)
(0.0927135 -0.00166902 -0.000437081)
(0.0917289 -0.0019089 -0.000903723)
(0.0906719 -0.00223113 -0.00165365)
(0.094572 0.00126701 -0.000143567)
(0.094073 0.0013484 -2.77458e-05)
(0.0934708 0.00147754 0.000152717)
(0.0927137 0.00166892 0.000437018)
(0.0917292 0.00190874 0.000903647)
(0.0906724 0.00223091 0.00165359)
(0.104739 0.0016192 -0.000161418)
(0.104857 0.00166308 -6.85682e-05)
(0.104949 0.00175437 5.6113e-05)
(0.10501 0.00190587 0.00022702)
(0.10504 0.00211156 0.000454551)
(0.105262 0.00234225 0.000709385)
(0.108523 0.00154573 -0.000237103)
(0.108927 0.00154253 -0.000185211)
(0.10932 0.00156692 -0.000124963)
(0.109711 0.00162337 -5.29976e-05)
(0.11012 0.00170397 2.82989e-05)
(0.110627 0.00180001 0.000104337)
(0.110462 0.00104579 -0.000334495)
(0.111037 0.0010197 -0.000309838)
(0.111602 0.00100887 -0.000285526)
(0.112164 0.0010111 -0.000262189)
(0.112741 0.00102302 -0.000238824)
(0.113388 0.0010408 -0.000217883)
(0.111341 0.000374475 -0.000379047)
(0.112004 0.00036096 -0.000367122)
(0.112655 0.000352107 -0.000359705)
(0.113303 0.000347843 -0.000356167)
(0.113968 0.000347089 -0.000354478)
(0.114684 0.000346079 -0.000350201)
(0.111341 -0.000379081 -0.000374519)
(0.112004 -0.000367165 -0.000361013)
(0.112655 -0.000359759 -0.000352171)
(0.113303 -0.000356235 -0.000347918)
(0.113968 -0.000354563 -0.000347176)
(0.114684 -0.000350305 -0.000346177)
(0.109865 -0.00109961 -0.000360057)
(0.110458 -0.00106417 -0.000335017)
(0.111033 -0.00104717 -0.000311659)
(0.111598 -0.0010479 -0.000290043)
(0.112164 -0.00106299 -0.00026991)
(0.112752 -0.00108514 -0.000250998)
(0.113413 -0.00109966 -0.000237588)
(0.108085 -0.00159361 -0.00031541)
(0.108496 -0.00158165 -0.000286753)
(0.108889 -0.00159983 -0.000262174)
(0.109272 -0.00165676 -0.000240314)
(0.109658 -0.00175882 -0.000218496)
(0.110081 -0.00189395 -0.000195635)
(0.110624 -0.00202989 -0.000166171)
(0.104559 -0.00162849 -0.000317612)
(0.10467 -0.00165732 -0.000292126)
(0.104752 -0.00173389 -0.000273455)
(0.104792 -0.00187949 -0.000262437)
(0.104783 -0.00211964 -0.000260139)
(0.104742 -0.0024567 -0.000268521)
(0.104988 -0.00280769 -0.000267396)
(0.0949283 -0.00123892 -0.000338905)
(0.0944523 -0.00130791 -0.000332719)
(0.0938621 -0.00141815 -0.000340687)
(0.0931101 -0.00159892 -0.000376739)
(0.0920779 -0.00189065 -0.000449205)
(0.0906436 -0.00225296 -0.000604758)
(0.0889195 -0.00293999 -0.000637126)
(0.0909179 0.00118257 -0.000647994)
(0.0903206 0.00119928 -0.0004534)
(0.0897188 0.00121733 -0.00018017)
(0.0891056 0.00124631 0.000225167)
(0.0884333 0.0013036 0.000840378)
(0.0875867 0.0014286 0.00183378)
(0.102361 0.00137777 -0.000560979)
(0.102417 0.00137394 -0.000416068)
(0.102484 0.00137891 -0.00023142)
(0.102558 0.00139353 1.2827e-05)
(0.102622 0.00143153 0.000327514)
(0.102787 0.00155756 0.00066847)
(0.106819 0.00132195 -0.000716855)
(0.107144 0.00127005 -0.00063168)
(0.107478 0.00122345 -0.000538647)
(0.107823 0.00118256 -0.000431685)
(0.108186 0.00115193 -0.000309061)
(0.108648 0.00117087 -0.00017741)
(0.109302 0.000907457 -0.00094492)
(0.109789 0.000848559 -0.000904353)
(0.110274 0.000793525 -0.000873805)
(0.110766 0.00074141 -0.000850793)
(0.111283 0.000694321 -0.000829484)
(0.111884 0.000668578 -0.000800686)
(0.110458 0.00033496 -0.00106415)
(0.111033 0.000311585 -0.00104714)
(0.111598 0.000289948 -0.00104787)
(0.112164 0.000269785 -0.00106296)
(0.112752 0.000250835 -0.00108509)
(0.113413 0.000237382 -0.00109962)
(0.110462 -0.000334541 -0.00104584)
(0.111037 -0.000309901 -0.00101976)
(0.111601 -0.000285611 -0.00100895)
(0.112164 -0.000262306 -0.00101121)
(0.112741 -0.000238983 -0.00102315)
(0.113388 -0.000218094 -0.00104096)
(0.108807 -0.000996542 -0.000972054)
(0.109302 -0.000944952 -0.000907512)
(0.109789 -0.000904394 -0.000848632)
(0.110274 -0.000873858 -0.000793623)
(0.110766 -0.000850862 -0.000741542)
(0.111283 -0.000829579 -0.0006945)
(0.111884 -0.000800813 -0.000668815)
(0.106466 -0.00143256 -0.000788117)
(0.106766 -0.00140352 -0.000699641)
(0.107066 -0.00139898 -0.000608059)
(0.10737 -0.00142318 -0.000507552)
(0.10768 -0.00147859 -0.000393977)
(0.108021 -0.00155504 -0.00026985)
(0.108515 -0.0016258 -0.000152397)
(0.102229 -0.00144556 -0.00069617)
(0.102217 -0.00146683 -0.000583516)
(0.102194 -0.00152655 -0.000456342)
(0.102149 -0.00164223 -0.000300007)
(0.102069 -0.00183373 -9.36699e-05)
(0.101962 -0.00210283 0.000179117)
(0.102196 -0.00241691 0.000452867)
(0.0913644 -0.00120552 -0.000836532)
(0.0906707 -0.00124614 -0.000718132)
(0.0899048 -0.00131919 -0.000577156)
(0.0890143 -0.00144571 -0.000406456)
(0.0878841 -0.00166306 -0.000144634)
(0.086408 -0.00193972 0.000218743)
(0.0848085 -0.00344685 0.000155827)
(0.0819684 0.000899389 -0.000935175)
(0.0811535 0.000886899 -0.000782003)
(0.0804715 0.000849501 -0.000575793)
(0.0799837 0.000724913 -0.000193923)
(0.0797617 0.000487592 0.0005039)
(0.0790138 -7.85232e-05 0.00220947)
(0.0968484 0.000915345 -0.00075722)
(0.0967327 0.000858502 -0.000651765)
(0.0966755 0.000767183 -0.000511197)
(0.096662 0.000613519 -0.000307523)
(0.0966114 0.000371187 6.74259e-06)
(0.0967425 6.79913e-05 0.0005094)
(0.103091 0.000948656 -0.00103667)
(0.103237 0.000845473 -0.000980639)
(0.103407 0.000720837 -0.000923243)
(0.103591 0.000562798 -0.000852558)
(0.103773 0.000368102 -0.000751211)
(0.104113 0.000228088 -0.000640915)
(0.106766 0.000699593 -0.0014035)
(0.107066 0.000607994 -0.00139896)
(0.10737 0.000507464 -0.00142316)
(0.107681 0.000393857 -0.00147856)
(0.108021 0.000269686 -0.00155501)
(0.108515 0.000152174 -0.00162577)
(0.108496 0.000286696 -0.00158163)
(0.108889 0.0002621 -0.00159981)
(0.109272 0.000240217 -0.00165673)
(0.109658 0.000218366 -0.00175879)
(0.110081 0.000195457 -0.00189392)
(0.110624 0.000165933 -0.00202987)
(0.108523 -0.000237141 -0.00154578)
(0.108927 -0.000185268 -0.0015426)
(0.10932 -0.000125048 -0.001567)
(0.109711 -5.31228e-05 -0.00162348)
(0.11012 2.81134e-05 -0.0017041)
(0.110627 0.000104065 -0.00180015)
(0.106502 -0.00079999 -0.00138148)
(0.106819 -0.000716879 -0.00132198)
(0.107144 -0.000631715 -0.0012701)
(0.107478 -0.000538696 -0.00122352)
(0.107823 -0.000431756 -0.00118265)
(0.108186 -0.000309171 -0.00115206)
(0.108648 -0.000177615 -0.0011711)
(0.102973 -0.00109868 -0.00104239)
(0.103091 -0.00103669 -0.000948684)
(0.103237 -0.000980654 -0.000845512)
(0.103407 -0.000923259 -0.00072089)
(0.103591 -0.000852572 -0.000562868)
(0.103773 -0.000751225 -0.000368196)
(0.104113 -0.000640957 -0.000228248)
(0.0969564 -0.00102476 -0.000797269)
(0.0967481 -0.00101839 -0.000676076)
(0.0965839 -0.0010293 -0.000528662)
(0.0964649 -0.00105844 -0.000331898)
(0.0963892 -0.00110634 -5.32968e-05)
(0.0963598 -0.00116419 0.000342858)
(0.0965663 -0.00113743 0.000850162)
(0.0827422 -0.000935692 -0.00102845)
(0.0817547 -0.000960906 -0.000889673)
(0.0807926 -0.00100314 -0.0007161)
(0.0798425 -0.00106745 -0.000481547)
(0.0788665 -0.001159 -6.28304e-05)
(0.0777853 -0.00133937 0.000664257)
(0.0764369 -0.00159782 0.00201986)
(0.0667218 0.000368241 -0.000563999)
(0.0656547 0.000352492 -0.000516834)
(0.0647725 0.00030057 -0.000444281)
(0.0642665 9.52672e-05 -0.00026997)
(0.0646877 -0.000261644 5.98603e-05)
(0.0625764 -0.000590707 0.00056986)
(0.087675 0.000281869 -0.000389338)
(0.0872274 0.000189953 -0.000363426)
(0.0868815 4.61201e-05 -0.000334517)
(0.0866248 -0.0002121 -0.000256519)
(0.0862757 -0.000750413 5.2767e-05)
(0.0862388 -0.00195028 0.000980558)
(0.0967481 0.000676052 -0.00101837)
(0.0965839 0.000528639 -0.00102928)
(0.096465 0.000331867 -0.00105843)
(0.0963893 5.3255e-05 -0.00110633)
(0.0963599 -0.000342902 -0.00116418)
(0.0965665 -0.000850228 -0.00113742)
(0.102217 0.000583483 -0.00146681)
(0.102194 0.000456301 -0.00152654)
(0.102149 0.000299951 -0.00164221)
(0.102069 9.35925e-05 -0.00183371)
(0.101962 -0.000179222 -0.00210281)
(0.102196 -0.000453003 -0.00241691)
(0.10467 0.000292082 -0.00165731)
(0.104752 0.000273398 -0.00173387)
(0.104792 0.000262362 -0.00187947)
(0.104783 0.00026004 -0.00211961)
(0.104742 0.000268386 -0.00245665)
(0.104988 0.000267219 -0.00280765)
(0.104739 -0.000161438 -0.00161924)
(0.104857 -6.86005e-05 -0.00166313)
(0.104949 5.60606e-05 -0.00175444)
(0.105009 0.000226939 -0.00190596)
(0.10504 0.000454426 -0.00211167)
(0.105262 0.000709196 -0.00234238)
(0.10232 -0.000682802 -0.00139333)
(0.102361 -0.000560985 -0.00137778)
(0.102417 -0.000416083 -0.00137397)
(0.102484 -0.000231443 -0.00137894)
(0.102558 1.27937e-05 -0.00139357)
(0.102622 0.000327461 -0.00143158)
(0.102786 0.000668359 -0.00155766)
(0.0970223 -0.000849249 -0.000961797)
(0.0968484 -0.000757217 -0.000915351)
(0.0967326 -0.000651767 -0.000858516)
(0.0966755 -0.000511198 -0.000767202)
(0.0966619 -0.000307518 -0.00061354)
(0.0966112 6.75369e-06 -0.000371218)
(0.0967423 0.000509332 -6.81464e-05)
(0.0882111 -0.000420486 -0.000354827)
(0.087675 -0.000389359 -0.000281882)
(0.0872273 -0.000363439 -0.00018996)
(0.0868815 -0.000334531 -4.61305e-05)
(0.0866248 -0.000256529 0.00021209)
(0.0862757 5.27568e-05 0.000750393)
(0.0862389 0.000980662 0.00195044)
(0.0678444 -0.000398451 -0.000535062)
(0.0666144 -0.000407361 -0.00043654)
(0.0654729 -0.000425217 -0.00030041)
(0.0644473 -0.000441552 -9.06835e-05)
(0.0636516 -0.000378548 0.000298556)
(0.0634358 -0.000159536 0.00108135)
(0.0624171 0.00169862 0.00389847)
(0.0460627 3.34916e-05 -0.000116341)
(0.0451279 -4.64237e-06 -0.000121045)
(0.0443534 -5.53243e-05 -0.000136197)
(0.0438931 -0.000205869 -0.000132951)
(0.0443633 -0.000432935 -8.50157e-05)
(0.043411 -0.00308645 0.00199356)
(0.0666143 0.000436549 -0.000407355)
(0.0654729 0.000300417 -0.000425208)
(0.0644473 9.06872e-05 -0.00044154)
(0.0636516 -0.000298546 -0.000378539)
(0.0634357 -0.00108133 -0.000159523)
(0.062417 -0.00389841 0.00169863)
(0.0817547 0.000889673 -0.000960906)
(0.0807926 0.000716095 -0.00100313)
(0.0798426 0.000481533 -0.00106743)
(0.0788665 6.28131e-05 -0.00115899)
(0.0777853 -0.000664262 -0.00133936)
(0.076437 -0.00201986 -0.0015978)
(0.0906708 0.000718122 -0.00124614)
(0.0899049 0.000577139 -0.00131918)
(0.0890143 0.000406426 -0.00144569)
(0.0878842 0.000144597 -0.00166304)
(0.0864081 -0.000218786 -0.00193969)
(0.0848087 -0.000155889 -0.00344684)
(0.0944523 0.000332695 -0.0013079)
(0.0938622 0.000340654 -0.00141814)
(0.0931102 0.00037669 -0.0015989)
(0.0920781 0.000449144 -0.00189062)
(0.0906438 0.000604683 -0.00225292)
(0.0889197 0.00063705 -0.00293994)
(0.094572 -0.000143566 -0.00126704)
(0.0940729 -2.77493e-05 -0.00134844)
(0.0934707 0.000152708 -0.00147759)
(0.0927136 0.000437002 -0.00166899)
(0.091729 0.000903621 -0.00190884)
(0.0906721 0.00165352 -0.00223105)
(0.0915103 -0.000791775 -0.00117028)
(0.0909179 -0.000647982 -0.00118258)
(0.0903205 -0.000453388 -0.00119929)
(0.0897187 -0.000180155 -0.00121735)
(0.0891055 0.000225193 -0.00124633)
(0.0884331 0.000840431 -0.00130362)
(0.0875864 0.00183381 -0.00142861)
(0.0828708 -0.00105788 -0.000900816)
(0.0819684 -0.000935154 -0.000899387)
(0.0811535 -0.000781981 -0.000886901)
(0.0804715 -0.000575764 -0.000849504)
(0.0799836 -0.000193879 -0.000724907)
(0.0797617 0.000503985 -0.000487571)
(0.0790138 0.00220964 7.85832e-05)
(0.0679097 -0.000611346 -0.000374186)
(0.0667218 -0.000563992 -0.000368234)
(0.0656547 -0.00051683 -0.00035249)
(0.0647725 -0.000444272 -0.000300569)
(0.0642666 -0.000269962 -9.52622e-05)
(0.0646878 5.98824e-05 0.000261644)
(0.0625764 0.00056982 0.000590718)
(0.0471253 -0.00012043 -6.99325e-05)
(0.0460627 -0.000116352 -3.34833e-05)
(0.0451279 -0.000121056 4.65229e-06)
(0.0443534 -0.000136207 5.53328e-05)
(0.0438931 -0.00013296 0.000205881)
(0.0443633 -8.50146e-05 0.000432962)
(0.043411 0.00199354 0.0030864)
(0.0572603 -0.000359562 0.00445387)
(0.0442012 0.000232695 0.00157345)
(0.0384748 0.000389608 0.000360006)
(0.035082 0.000354704 0.000125445)
(0.0658151 0.00091256 0.00367975)
(0.0602615 0.000584316 0.00390146)
(0.0562703 0.000575903 0.00214321)
(0.0531876 0.000571896 0.000804156)
(0.0704786 0.00273518 0.00271842)
(0.0704816 0.00218424 0.00306791)
(0.0697803 0.00156789 0.00205877)
(0.0741847 -0.000699143 0.00442996)
(0.0665657 -0.00051887 0.00452803)
(0.0601726 3.89331e-05 0.00321759)
(0.0550908 0.000324828 0.00188402)
(0.0874591 -0.000318388 0.00591911)
(0.0879931 -0.000138799 0.00565989)
(0.0868457 0.000272782 0.00411848)
(0.0848153 0.000518249 0.00274587)
(0.0944077 0.000746827 0.00364356)
(0.0952923 0.000780053 0.00406334)
(0.095582 0.000812229 0.00361304)
(0.0850493 -0.00196362 0.00456171)
(0.0812085 -0.00156442 0.00509854)
(0.077046 -0.000774009 0.00424031)
(0.0963821 -0.000850507 0.00417173)
(0.0977258 -0.000647725 0.00479999)
(0.0979831 -0.000301629 0.00436107)
(0.104388 1.6148e-05 0.00318579)
(0.104786 7.64172e-05 0.00351926)
(0.105112 0.000205587 0.00346861)
(0.0863064 -0.00241473 0.00295207)
(0.0851827 -0.0022126 0.00383398)
(0.0837232 -0.00174239 0.00365887)
(0.101549 -0.00108221 0.00300165)
(0.10197 -0.00100608 0.00352476)
(0.102209 -0.000862048 0.00360868)
(0.107771 -0.000376118 0.00263757)
(0.10838 -0.000345714 0.0029406)
(0.108862 -0.000276993 0.00305304)
)
;

boundaryField
{
    inlet
    {
        type            fixedValue;
        value           nonuniform List<vector> 0();
    }
    ami1
    {
        type            cyclicAMI;
        value           nonuniform List<vector> 
100
(
(0.0582458 -0.00161167 -0.00305524)
(0.0697921 -0.00114462 -0.000902977)
(0.0802879 -0.00220226 0.000336328)
(0.0871039 -0.00205545 0.0020042)
(0.0900086 -0.00162879 0.00313368)
(0.0868478 -0.000675703 0.00380632)
(0.082239 0.000133345 0.00409969)
(0.074399 0.00193735 0.00231112)
(0.0667079 0.00350347 -0.000468305)
(0.0582454 0.00305526 -0.00161133)
(0.0667092 -0.000468897 -0.00350359)
(0.0823145 -0.00103076 -0.00216136)
(0.0957024 -0.000626155 0.000179461)
(0.102544 -0.000781681 0.00167937)
(0.104805 -0.000731106 0.00252843)
(0.104502 -0.000259544 0.00298849)
(0.101711 0.000441916 0.00261475)
(0.0963898 0.000922808 0.00134736)
(0.0823141 0.00216098 -0.00103029)
(0.0697918 0.000902638 -0.00114448)
(0.0743999 0.00231073 -0.00193751)
(0.0963893 0.00134754 -0.000922634)
(0.103628 0.000553836 0.000137353)
(0.108677 0.000107267 0.00115818)
(0.110639 -0.000127757 0.00179953)
(0.110693 -0.000147408 0.00202123)
(0.108454 -7.96047e-05 0.00158482)
(0.103628 -0.000137483 0.000553994)
(0.0957025 -0.000179651 -0.000625979)
(0.0802868 -0.000336796 -0.00220222)
(0.0822396 0.00409978 -0.000133443)
(0.101711 0.00261485 -0.000441662)
(0.108454 0.00158486 7.97582e-05)
(0.112001 0.000763338 0.00063927)
(0.113505 0.000209648 0.00102143)
(0.113554 -0.000222717 0.00106688)
(0.112001 -0.000639087 0.000763315)
(0.108677 -0.00115811 0.000107284)
(0.102545 -0.00167888 -0.000782006)
(0.0871032 -0.00200452 -0.00205526)
(0.0868482 0.00380619 0.000675716)
(0.104502 0.00298834 0.000259836)
(0.110693 0.00202119 0.000147789)
(0.113554 0.00106679 0.000222943)
(0.114897 0.00034138 0.000336562)
(0.114897 -0.000336463 0.000341442)
(0.113505 -0.00102128 0.000209553)
(0.11064 -0.00179944 -0.000127966)
(0.104805 -0.00252837 -0.0007314)
(0.0900083 -0.00313374 -0.00162864)
(0.0900089 0.00313349 0.00162856)
(0.104805 0.00252819 0.000731436)
(0.11064 0.00179931 0.000128066)
(0.113505 0.00102117 -0.00020948)
(0.114897 0.000336379 -0.000341358)
(0.114897 -0.000341474 -0.000336484)
(0.113554 -0.00106689 -0.000222887)
(0.110693 -0.00202131 -0.000147778)
(0.104502 -0.00298841 -0.000259803)
(0.0868476 -0.00380625 -0.000675641)
(0.0871036 0.00200426 0.00205497)
(0.102545 0.00167841 0.000782067)
(0.108677 0.00115785 -0.000107292)
(0.112001 0.000638953 -0.000763356)
(0.113554 0.000222662 -0.00106686)
(0.113505 -0.000209722 -0.00102134)
(0.112001 -0.000763502 -0.000639224)
(0.108454 -0.00158508 -7.98107e-05)
(0.10171 -0.00261506 0.000441645)
(0.0822391 -0.00409991 0.000133529)
(0.0802867 0.000336665 0.002202)
(0.0957025 0.000179311 0.000626007)
(0.103628 0.000137197 -0.000554124)
(0.108454 7.9541e-05 -0.00158505)
(0.110693 0.000147503 -0.00202132)
(0.11064 0.000127733 -0.00179945)
(0.108677 -0.000107552 -0.00115811)
(0.103628 -0.000554216 -0.000137445)
(0.0963891 -0.00134791 0.000922551)
(0.0743995 -0.002311 0.00193763)
(0.0697918 -0.0009027 0.00114461)
(0.0823143 -0.00216119 0.00103063)
(0.0963893 -0.000922717 -0.00134782)
(0.101711 -0.000441825 -0.00261505)
(0.104502 0.000259602 -0.00298843)
(0.104805 0.000731193 -0.00252832)
(0.102545 0.000781825 -0.00167868)
(0.0957023 0.000625888 -0.00017954)
(0.0823144 0.00103069 0.00216128)
(0.066709 0.000468706 0.0035037)
(0.0582456 -0.00305507 0.00161163)
(0.066709 -0.00350362 0.000468781)
(0.0743997 -0.00193762 -0.0023109)
(0.0822393 -0.000133593 -0.00409992)
(0.0868479 0.000675544 -0.00380622)
(0.0900085 0.00162848 -0.00313364)
(0.0871033 0.00205507 -0.0020044)
(0.0802867 0.0022022 -0.000336676)
(0.0697919 0.00114464 0.00090272)
(0.0582456 0.00161164 0.00305509)
)
;
    }
    walls
    {
        type            noSlip;
    }
    ami2
    {
        type            cyclicAMI;
        value           nonuniform List<vector> 
12
(
(0.0712968 -0.000148257 0.00386729)
(0.0726674 0.00111584 0.00297815)
(0.0707585 0.00273648 0.00152673)
(0.0815799 -0.00071997 0.00364779)
(0.086884 -0.000226106 0.00459037)
(0.0937902 0.000701089 0.00302224)
(0.0876671 -0.00177524 0.00339261)
(0.0953837 -0.00080535 0.00344817)
(0.104226 -6.42804e-06 0.00293208)
(0.0870289 -0.00211734 0.00222502)
(0.101338 -0.0010193 0.00261001)
(0.107289 -0.00037998 0.0025045)
)
;
    }
    outlet
    {
        type            zeroGradient;
    }
    procBoundary2to0
    {
        type            processor;
        value           nonuniform List<vector> 
28
(
(0.0331096 0.000266496 0.000109957)
(0.0514079 0.000451457 0.000328288)
(0.0687314 0.00105904 0.00119732)
(0.0713893 0.00341283 -0.000631704)
(0.0732095 0.00282912 0.000232923)
(0.0687314 0.00105904 0.00119732)
(0.0745828 0.00216492 0.000346447)
(0.0517477 0.000350091 0.000968093)
(0.0728207 -0.000185575 0.00326206)
(0.0828954 0.000579748 0.00194224)
(0.0953554 0.000790394 0.00295456)
(0.0974154 -2.23191e-06 0.0036366)
(0.0979887 0.000955485 0.00169946)