/*--------------------------------*- C++ -*----------------------------------*\
| =========                 |                                                 |
| \\      /  F ield         | OpenFOAM: The Open Source CFD Toolbox           |
|  \\    /   O peration     | Version:  2212                                  |
|   \\  /    A nd           | Website:  www.openfoam.com                      |
|    \\/     M anipulation  |                                                 |
\*---------------------------------------------------------------------------*/
FoamFile
{
    version     2.0;
    format      ascii;
    arch        "LSB;label=32;scalar=64";
    class       volScalarField;
    location    "0.4";
    object      k;
}
// * * * * * * * * * * * * * * * * * * * * * * * * * * * * * * * * * * * * * //

dimensions      [0 2 -2 0 0 0 0];

internalField   nonuniform List<scalar> 
678
(
0.00339859
0.0033989
0.00339902
0.00339912
0.0033992
0.00339927
0.00344548
0.00344599
0.00344625
0.00344648
0.00344674
0.00344704
0.0036239
0.00362374
0.00362369
0.00362378
0.00362401
0.00362433
0.00378513
0.00378531
0.00378564
0.0037861
0.00378657
0.00388533
0.0038854
0.00388566
0.00388606
0.00388651
0.00392117
0.0039214
0.00392183
0.00392231
0.0038911
0.00389129
0.00389172
0.00389221
0.00378712
0.00378722
0.00378761
0.00378813
0.00362108
0.00362139
0.00362196
0.00362261
0.00343255
0.0034321
0.00343224
0.00343267
0.00343325
0.0033989
0.00339863
0.00339859
0.00339873
0.00339895
0.00343241
0.00343262
0.00343289
0.00343324
0.00343364
0.00485823
0.00485884
0.00485936
0.00486012
0.00486113
0.0048624
0.00565279
0.00565266
0.00565309
0.00565394
0.00565507
0.00617269
0.00617302
0.00617371
0.00617478
0.00617604
0.00649505
0.00649542
0.00649612
0.00649717
0.00649835
0.00664024
0.00664067
0.00664142
0.0066425
0.00664368
0.00658879
0.00658906
0.00658978
0.0065908
0.00659193
0.00632065
0.00632094
0.00632171
0.0063228
0.00579701
0.00579752
0.00579877
0.00580043
0.00485772
0.00485835
0.00485978
0.00486173
0.00344576
0.00344544
0.0034456
0.00344603
0.00344658
0.00362102
0.00362143
0.00362205
0.0036227
0.00579709
0.0057968
0.00579767
0.00579903
0.00580068
0.00704083
0.00704104
0.00704172
0.00704274
0.00704391
0.00781121
0.0078115
0.00781226
0.00781318
0.0078141
0.00826053
0.00826071
0.00826133
0.00826197
0.00826271
0.00842997
0.00842997
0.00843046
0.00843091
0.00843153
0.00831004
0.00830975
0.00831017
0.00831076
0.0083114
0.00786569
0.00786585
0.00786648
0.00786728
0.00786815
0.00704061
0.00704071
0.00704122
0.00704226
0.00704355
0.0056509
0.00565152
0.00565292
0.00565472
0.00362287
0.00362264
0.00362294
0.00362348
0.00362408
0.00378686
0.00378704
0.00378752
0.00378812
0.00632108
0.00632098
0.00632175
0.00632296
0.00786641
0.00786641
0.007867
0.00786775
0.0078686
0.00884258
0.00884221
0.00884168
0.00884206
0.00884218
0.00940459
0.00940364
0.00940227
0.00940167
0.00940176
0.0095984
0.00959692
0.00959509
0.00959428
0.00959394
0.00941869
0.00941845
0.00941779
0.00941706
0.00941714
0.00941708
0.00884192
0.00884125
0.00884086
0.00884132
0.00884149
0.00781083
0.0078109
0.00781174
0.00781281
0.00781387
0.00617222
0.0061726
0.00617352
0.0061749
0.00617649
0.00378526
0.00378534
0.00378569
0.00378624
0.00378683
0.00389018
0.00389029
0.00389075
0.00389141
0.0038921
0.00658892
0.00658891
0.00658956
0.00659076
0.00659213
0.00830929
0.00830928
0.00830978
0.0083102
0.00831105
0.00831179
0.00941969
0.00941911
0.00941802
0.00941742
0.00941757
0.0094173
0.0100611
0.01006
0.010058
0.0100564
0.0100554
0.0100548
0.0102733
0.0102726
0.0102708
0.0102689
0.0102675
0.0102667
0.0100579
0.0100576
0.0100565
0.0100553
0.0100545
0.010054
0.00940089
0.00940086
0.00940055
0.0094005
0.00940036
0.00940036
0.00825864
0.00825882
0.00825953
0.00826045
0.00826158
0.00826256
0.006494
0.00649436
0.00649516
0.00649638
0.00649788
0.00649943
0.00388532
0.00388552
0.00388594
0.00388653
0.00388713
0.00392027
0.00392051
0.00392102
0.00392169
0.00392235
0.00664005
0.00664041
0.00664143
0.00664283
0.00664431
0.00842853
0.00842882
0.00842917
0.00842948
0.00843025
0.00843121
0.00843206
0.00959614
0.0095957
0.00959485
0.00959411
0.00959419
0.0095941
0.0095939
0.0102739
0.0102723
0.0102707
0.0102692
0.010268
0.0102671
0.0102664
0.0104967
0.010495
0.0104926
0.0104906
0.0104892
0.0104883
0.0102707
0.0102699
0.0102684
0.0102669
0.010266
0.0102655
0.00959328
0.00959304
0.00959249
0.00959253
0.00959236
0.00959245
0.00842736
0.00842748
0.00842821
0.00842917
0.00843035
0.00843134
0.00663926
0.00663969
0.00664059
0.00664193
0.00664356
0.00664514
0.00392081
0.00392093
0.00392131
0.00392189
0.00392259
0.00392327
0.00388502
0.00388502
0.00388524
0.00388566
0.00388623
0.00388681
0.0064941
0.00649446
0.00649526
0.0064964
0.00649784
0.00649936
0.00825971
0.00825967
0.00826036
0.00826124
0.00826236
0.00826336
0.00940263
0.0094019
0.00940091
0.00940102
0.00940089
0.00940108
0.0100593
0.0100579
0.010056
0.0100548
0.0100541
0.0100537
0.0102713
0.0102702
0.0102684
0.0102669
0.010266
0.0102654
0.0100564
0.0100557
0.0100544
0.0100535
0.010053
0.0100527
0.00941515
0.00941491
0.00941447
0.00941482
0.00941502
0.00941532
0.00830696
0.00830709
0.00830787
0.00830895
0.00831025
0.00831136
0.00658813
0.00658833
0.00658916
0.0065905
0.00659214
0.00659375
0.00389102
0.00389113
0.0038915
0.00389209
0.0038928
0.00389349
0.00378535
0.00378542
0.00378566
0.00378606
0.00378658
0.00378712
0.00617223
0.00617259
0.00617334
0.0061745
0.00617592
0.00617747
0.00781032
0.00781067
0.00781151
0.00781264
0.00781398
0.00781519
0.00884014
0.00884015
0.00884033
0.00884069
0.00884138
0.00884196
0.00941674
0.00941647
0.0094159
0.00941605
0.00941606
0.00941627
0.00959355
0.00959316
0.00959248
0.00959253
0.00959242
0.00959255
0.00939944
0.00939917
0.00939874
0.0093991
0.00939933
0.00939965
0.00883792
0.00883774
0.00883831
0.00883906
0.00884003
0.0088408
0.00786345
0.0078638
0.00786474
0.00786607
0.00786762
0.00786899
0.00631966
0.00631985
0.00632063
0.00632194
0.00632358
0.00632526
0.00378747
0.00378754
0.00378785
0.00378837
0.00378903
0.00378968
0.00362364
0.00362367
0.0036238
0.00362407
0.00362446
0.00362491
0.00565281
0.00565274
0.00565322
0.00565411
0.00565539
0.00565687
0.00704066
0.00704092
0.00704166
0.00704286
0.00704437
0.00704585
0.00786482
0.00786517
0.007866
0.00786715
0.00786851
0.00786972
0.00830787
0.00830809
0.00830885
0.00830987
0.00831108
0.00831212
0.00842755
0.00842772
0.00842849
0.00842953
0.00843077
0.00843181
0.00825805
0.00825827
0.00825912
0.0082603
0.0082617
0.00826288
0.00780891
0.00780932
0.00781031
0.0078117
0.00781332
0.00781472
0.00703937
0.00703979
0.00704075
0.00704223
0.00704398
0.00704566
0.00579852
0.00579861
0.00579925
0.00580045
0.00580199
0.00580369
0.00362262
0.00362264
0.00362286
0.00362326
0.0036238
0.00362437
0.00344741
0.0034471
0.00344701
0.00344711
0.00344737
0.0034477
0.00486239
0.00486153
0.00486162
0.00486218
0.0048632
0.00486455
0.00579751
0.00579793
0.0057989
0.00580027
0.00580186
0.00580353
0.00631959
0.00632005
0.00632097
0.00632228
0.00632391
0.00632552
0.00658847
0.00658891
0.00658983
0.00659116
0.00659274
0.00659429
0.00663943
0.00663996
0.00664099
0.00664244
0.00664413
0.00664576
0.00649378
0.00649428
0.00649531
0.00649679
0.00649854
0.00650026
0.00617202
0.0061723
0.00617319
0.00617458
0.00617629
0.00617806
0.00565201
0.00565213
0.0056528
0.00565403
0.0056556
0.00565734
0.00486095
0.00486094
0.00486134
0.00486223
0.00486349
0.00486501
0.00343368
0.00343369
0.00343381
0.00343407
0.00343445
0.00343489
0.00339992
0.00339976
0.00339959
0.00339952
0.0033996
0.00339977
0.00343412
0.00343376
0.0034337
0.00343387
0.0034342
0.00343462
0.00362198
0.00362144
0.00362133
0.00362168
0.00362218
0.00362278
0.00362344
0.00362408
0.00378712
0.00378705
0.00378721
0.0037876
0.00378819
0.00378889
0.00378958
0.00389136
0.00389118
0.00389129
0.00389166
0.00389224
0.00389293
0.0038936
0.0039209
0.00392106
0.00392147
0.00392208
0.0039228
0.0039235
0.00388489
0.00388505
0.00388546
0.00388605
0.00388676
0.00388746
0.00378526
0.00378537
0.0037857
0.00378622
0.00378686
0.00378751
0.0036234
0.00362345
0.00362368
0.00362408
0.0036246
0.00362515
0.00344665
0.00344667
0.00344681
0.00344708
0.00344746
0.0034479
0.00339947
0.00339953
0.00339957
0.00339965
0.0033998
0.00339998
)
;

boundaryField
{
    inlet
    {
        type            fixedValue;
        value           nonuniform List<scalar> 0();
    }
    ami1
    {
        type            cyclicAMI;
        value           nonuniform List<scalar> 0();
    }
    walls
    {
        type            kqRWallFunction;
        value           nonuniform List<scalar> 
244
(
0.00339859
0.00344548
0.0036239
0.0033989
0.00344599
0.00362374
0.00378513
0.00388533
0.00343255
0.0033989
0.00339902
0.00344625
0.00362369
0.00378531
0.0038854
0.00392117
0.0038911
0.00378712
0.00362108
0.0034321
0.00339863
0.00339912
0.00344648
0.00362378
0.00378564
0.00388566
0.0039214
0.00389129
0.00378722
0.00362139
0.00343224
0.00339859
0.0033992
0.00344674
0.00362401
0.0037861
0.00388606
0.00392183
0.00389172
0.00378761
0.00362196
0.00343267
0.00339873
0.00339927
0.00344704
0.00362433
0.00378657
0.00388651
0.00392231
0.00389221
0.00378813
0.00362261
0.00343325
0.00339895
0.00392081
0.00389102
0.00378747
0.00362262
0.00343368
0.00339947
0.0033989
0.00344576
0.00362287
0.00378526
0.00388532
0.00392093
0.00389113
0.00378754
0.00362264
0.00343369
0.00339953
0.00339863
0.00344544
0.00362264
0.00378534
0.00388552
0.00392131
0.0038915
0.00378785
0.00362286
0.00343381
0.00339957
0.00339859
0.0034456
0.00362294
0.00378569
0.00388594
0.00392189
0.00389209
0.00378837
0.00362326
0.00343407
0.00339965
0.00339873
0.00344603
0.00362348
0.00378624
0.00388653
0.00392259
0.0038928
0.00378903
0.0036238
0.00343445
0.0033998
0.00339895
0.00344658
0.00362408
0.00378683
0.00388713
0.00392327
0.00389349
0.00378968
0.00362437
0.00343489
0.00339998
0.00362198
0.00362144
0.00378712
0.00389136
0.00339992
0.00343412
0.00362133
0.00378705
0.00389118
0.0039209
0.00388489
0.00378526
0.0036234
0.00344665
0.00339947
0.00339976
0.00343376
0.00362168
0.00378721
0.00389129
0.00392106
0.00388505
0.00378537
0.00362345
0.00344667
0.00339953
0.00339959
0.0034337
0.00362218
0.0037876
0.00389166
0.00392147
0.00388546
0.0037857
0.00362368
0.00344681
0.00339957
0.00339952
0.00343387
0.00362278
0.00378819
0.00389224
0.00392208
0.00388605
0.00378622
0.00362408
0.00344708
0.00339965
0.0033996
0.0034342
0.00362344
0.00378889
0.00389293
0.0039228
0.00388676
0.00378686
0.0036246
0.00344746
0.0033998
0.00339977
0.00343462
0.00362408
0.00378958
0.0038936
0.0039235
0.00388746
0.00378751
0.00362515
0.0034479
0.00339998
0.00339859
0.00388502
0.00378535
0.00362364
0.00344741
0.00339992
0.0033989
0.00343241
0.00389018
0.00392027
0.00388502
0.00378542
0.00362367
0.0034471
0.00339976
0.00339902
0.00343262
0.00362102
0.00378686
0.00389029
0.00392051
0.00388524
0.00378566
0.0036238
0.00344701
0.00339959
0.00339912
0.00343289
0.00362143
0.00378704
0.00389075
0.00392102
0.00388566
0.00378606
0.00362407
0.00344711
0.00339952
0.0033992
0.00343324
0.00362205
0.00378752
0.00389141
0.00392169
0.00388623
0.00378658
0.00362446
0.00344737
0.0033996
0.00339927
0.00343364
0.0036227
0.00378812
0.0038921
0.00392235
0.00388681
0.00378712
0.00362491
0.0034477
0.00339977
)
;
    }
    ami2
    {
        type            cyclicAMI;
        value           nonuniform List<scalar> 0();
    }
    outlet
    {
        type            zeroGradient;
    }
    procBoundary6to5
    {
        type            processor;
        value           nonuniform List<scalar> 
177
(
0.0033992
0.00343205
0.00344628
0.00362349
0.00378519
0.00565315
0.00378519
0.00388525
0.00392104
0.00392104
0.00392104
0.00389108
0.00389108
0.00378729
0.00362146
0.00362146
0.00343332
0.00485867
0.0033992
0.00343205
0.00343205
0.00362114
0.00486064
0.00565315
0.00579844
0.00565315
0.00617266
0.00649486
0.00664013
0.00658869
0.00632063
0.00632063
0.00632063
0.0057975
0.0057975
0.00485867
0.00485867
0.00344639
0.00362114
0.00362114
0.00579844
0.00632103
0.00704055
0.00781038
0.00825926
0.00842848
0.00830906
0.00830906
0.00786476
0.00704036
0.00565115
0.00565115
0.00565115
0.00565115
0.00362338
0.00378704
0.00378704
0.00632103
0.00632103
0.00632103
0.00786545
0.00786545
0.00884099
0.00884099
0.00940256
0.00940256
0.00959662
0.00959662
0.00959662
0.00941441
0.00884065
0.00884065
0.00884065
0.00781004
0.00781004
0.00617235
0.00617235
0.00378538
0.00389048
0.0065885
0.0065885
0.0083077
0.0083077
0.00941697
0.00941697
0.0100576
0.0100576
0.0102686
0.0100539
0.00939753
0.0082571
0.00649385
0.00388516
0.00388516
0.00388516
0.00392029
0.00392029
0.0066388
0.00663941
0.00663941
0.00663941
0.00842623
0.00825853
0.00959188
0.00940042
0.0102678
0.0104932
0.0100564
0.0104932
0.0102667
0.00959012
0.0084258
0.00663912
0.00392089
0.00388492
0.00649363
0.00825853
0.00940042
0.0100564
0.0102674
0.0100527
0.00941236
0.00830562
0.00658801
0.00389115
0.00378536
0.00617218
0.00780935
0.00883794
0.00941385
0.00959049
0.00939666
0.00883594
0.00786269
0.00631973
0.0037876
0.00362364
0.00565297
0.00704047
0.00786381
0.00830638
0.00842592
0.00825666
0.00780811
0.00703926
0.00579876
0.00362271
0.00344763
0.00486319
0.00579788
0.00579742
0.00579742
0.00631948
0.00631948
0.0065883
0.0065883
0.00663912
0.00649362
0.00617204
0.00565224
0.00486124
0.00343372
0.00339995
0.00343398
0.00343444
0.00343444
0.00362201
0.003787
0.003787
0.00389115
0.00392093
0.00392093
0.00388494
0.00378532
0.00362346
0.00344669
0.00339941
)
;
    }
}


// ************************************************************************* //
