/*--------------------------------*- C++ -*----------------------------------*\
| =========                 |                                                 |
| \\      /  F ield         | OpenFOAM: The Open Source CFD Toolbox           |
|  \\    /   O peration     | Version:  2212                                  |
|   \\  /    A nd           | Website:  www.openfoam.com                      |
|    \\/     M anipulation  |                                                 |
\*---------------------------------------------------------------------------*/
FoamFile
{
    version     2.0;
    format      ascii;
    arch        "LSB;label=32;scalar=64";
    class       volScalarField;
    location    "1.65";
    object      epsilon;
}
// * * * * * * * * * * * * * * * * * * * * * * * * * * * * * * * * * * * * * //

dimensions      [0 2 -3 0 0 0 0];

internalField   nonuniform List<scalar> 
6840
(
90.5034
12.1248
4.38869
2.46658
1.63315
1.18306
0.902005
0.72065
0.594564
0.502468
0.432621
0.379196
0.33616
0.299604
0.269755
0.245427
0.225314
0.208404
0.194464
0.178572
58.5856
14.5696
6.08946
3.33295
2.08217
1.40266
0.998645
0.740276
0.56589
0.443907
0.355995
0.290889
0.24135
0.20292
0.172985
0.149643
0.131059
0.116015
0.103921
0.0944416
45.0226
13.4729
5.73075
3.07322
1.86023
1.22699
0.873573
0.649776
0.49701
0.389479
0.311288
0.252974
0.208976
0.175206
0.148808
0.127864
0.111081
0.0974935
0.0864381
0.0777454
38.7028
13.0541
5.74336
3.08733
1.88066
1.2275
0.869481
0.645389
0.492599
0.384791
0.307039
0.249064
0.205005
0.171025
0.144453
0.123405
0.106533
0.0928638
0.0817423
0.0733157
36.0571
12.8529
5.76645
3.10212
1.89476
1.2267
0.866514
0.644002
0.492275
0.383997
0.305844
0.247983
0.204007
0.170068
0.143504
0.12244
0.105538
0.0918351
0.0806828
0.0722009
36.0571
12.8529
5.76645
3.10212
1.89476
1.2267
0.866515
0.644003
0.492276
0.383998
0.305845
0.247984
0.204007
0.170066
0.1435
0.122434
0.10553
0.0918215
0.0806514
0.0719566
38.7028
13.0541
5.74336
3.08733
1.88066
1.22751
0.869483
0.645392
0.492601
0.384793
0.307041
0.249066
0.205004
0.171023
0.144447
0.123395
0.106516
0.0928367
0.0817041
0.0732368
45.0226
13.4729
5.73075
3.07322
1.86023
1.22699
0.873575
0.649778
0.497011
0.389481
0.311289
0.252975
0.208974
0.175203
0.148803
0.127854
0.111064
0.0974663
0.0864263
0.0777463
58.5856
14.5696
6.08946
3.33295
2.08217
1.40266
0.998645
0.740276
0.56589
0.443907
0.355995
0.290888
0.24135
0.202906
0.172973
0.149627
0.131035
0.11598
0.1039
0.0943738
90.5034
12.1248
4.38869
2.46658
1.63315
1.18306
0.902004
0.720649
0.594563
0.502467
0.432622
0.379192
0.336162
0.299598
0.269754
0.245427
0.225313
0.208403
0.194458
0.178564
58.5856
14.5696
6.08946
3.33295
2.08217
1.40266
0.998646
0.740276
0.56589
0.443907
0.355996
0.290889
0.24135
0.202914
0.172972
0.149625
0.131034
0.115981
0.1039
0.094376
16.5373
9.49238
5.0127
2.8606
1.75746
1.14759
0.786927
0.562044
0.41536
0.315937
0.246319
0.196203
0.159193
0.131212
0.109725
0.0931167
0.0800351
0.0695543
0.0603109
0.0549371
13.6679
8.73671
5.07741
3.05388
1.92223
1.26609
0.869289
0.618631
0.453959
0.342034
0.26365
0.207311
0.165901
0.134846
0.111145
0.092683
0.0781567
0.0666216
0.0571491
0.0497571
12.9054
8.33993
5.07879
3.15547
2.02775
1.35121
0.933541
0.666464
0.489552
0.368603
0.283614
0.222399
0.177342
0.143544
0.117765
0.0977869
0.0820983
0.069628
0.0595916
0.051388
12.6882
8.1544
5.07113
3.20039
2.0794
1.39506
0.967837
0.692729
0.509646
0.384027
0.295517
0.231664
0.184612
0.149284
0.122313
0.101415
0.0849998
0.0719481
0.0614568
0.0529569
12.6882
8.1544
5.07113
3.20039
2.0794
1.39506
0.967835
0.692726
0.509644
0.384024
0.295513
0.231659
0.184606
0.149274
0.122297
0.101399
0.0849819
0.0719269
0.0614319
0.0529215
12.9054
8.33993
5.07879
3.15547
2.02775
1.3512
0.933538
0.666459
0.489548
0.368598
0.283607
0.22239
0.177328
0.14352
0.117735
0.0977553
0.0820614
0.0695838
0.0595351
0.0512274
13.6679
8.73671
5.0774
3.05388
1.92223
1.26609
0.869287
0.618628
0.453956
0.34203
0.263645
0.207305
0.165892
0.134831
0.11112
0.0926576
0.078128
0.0665896
0.0570959
0.049761
16.5373
9.49238
5.0127
2.8606
1.75746
1.14759
0.786927
0.562044
0.41536
0.315937
0.246319
0.196203
0.159193
0.131216
0.109721
0.093116
0.0800359
0.0695556
0.0603134
0.0549435
58.5856
14.5696
6.08946
3.33295
2.08217
1.40266
0.998645
0.740275
0.565889
0.443906
0.355994
0.290888
0.24135
0.202915
0.172985
0.149644
0.131061
0.116017
0.103924
0.0944403
45.0226
13.4729
5.73075
3.07322
1.86023
1.22699
0.873575
0.649778
0.497012
0.389481
0.31129
0.252976
0.208977
0.175205
0.148803
0.127854
0.111064
0.0974676
0.0864268
0.0777481
13.6679
8.73671
5.0774
3.05388
1.92223
1.26609
0.869287
0.618628
0.453956
0.34203
0.263645
0.207304
0.165892
0.134832
0.111118
0.0926563
0.0781259
0.0665859
0.0570972
0.0497584
11.8601
7.76395
4.99734
3.24076
2.14419
1.45499
1.0141
0.725633
0.532153
0.399146
0.305541
0.238216
0.188818
0.151907
0.123866
0.102227
0.0853069
0.0719136
0.0611639
0.0525595
11.6229
7.60535
5.0103
3.34209
2.26848
1.57142
1.11236
0.804589
0.594205
0.447519
0.343212
0.267636
0.211902
0.170124
0.13833
0.113789
0.0946039
0.079429
0.0672916
0.0574975
11.5726
7.56718
5.02065
3.38345
2.32103
1.62326
1.15829
0.843158
0.625693
0.472852
0.363488
0.283858
0.224911
0.180595
0.146797
0.120673
0.100232
0.0840527
0.0711094
0.0606322
11.5726
7.56718
5.02065
3.38344
2.32103
1.62326
1.15828
0.843155
0.625691
0.47285
0.363485
0.283854
0.224906
0.180587
0.146785
0.120662
0.100219
0.084038
0.0710954
0.0606409
11.6229
7.60535
5.0103
3.34209
2.26848
1.57142
1.11236
0.804586
0.594202
0.447514
0.343207
0.267629
0.211893
0.17011
0.138312
0.11377
0.0945824
0.0794047
0.0672673
0.0575065
11.8601
7.76395
4.99734
3.24076
2.14419
1.45499
1.0141
0.725633
0.532153
0.399146
0.305542
0.238217
0.18882
0.151908
0.123864
0.102227
0.085308
0.0719154
0.0611668
0.052566
13.6679
8.73671
5.07741
3.05388
1.92223
1.26609
0.869289
0.618631
0.453959
0.342034
0.26365
0.207311
0.165902
0.134851
0.11114
0.0926809
0.0781559
0.0666214
0.0571491
0.0497606
45.0226
13.4729
5.73075
3.07322
1.86023
1.22699
0.873573
0.649776
0.497009
0.389479
0.311288
0.252974
0.208975
0.175205
0.148808
0.127864
0.111081
0.0974934
0.0864371
0.0777334
38.7028
13.0541
5.74336
3.08733
1.88066
1.22751
0.869483
0.645392
0.492601
0.384793
0.307041
0.249066
0.205006
0.171023
0.144447
0.123395
0.106517
0.0928376
0.081705
0.0732303
12.9054
8.33993
5.07879
3.15547
2.02775
1.3512
0.933539
0.666459
0.489548
0.368598
0.283607
0.22239
0.177329
0.143525
0.117731
0.0977531
0.0820598
0.069582
0.0595336
0.0512251
11.6229
7.60535
5.0103
3.34209
2.26848
1.57142
1.11236
0.804586
0.594202
0.447514
0.343207
0.267629
0.211893
0.170111
0.138311
0.113769
0.0945812
0.0794031
0.0672652
0.0575039
11.4933
7.5119
5.02843
3.434
2.3892
1.6928
1.22111
0.896486
0.669455
0.50812
0.391654
0.306283
0.242781
0.194884
0.158277
0.129949
0.107772
0.0902203
0.0761807
0.0647747
11.4757
7.50136
5.04297
3.47002
2.43665
1.74299
1.26863
0.938712
0.705583
0.538335
0.416593
0.326727
0.259498
0.208556
0.169484
0.139166
0.115386
0.0965394
0.0814431
0.0691292
11.4757
7.50136
5.04297
3.47002
2.43665
1.74299
1.26863
0.938711
0.705582
0.538334
0.416592
0.326726
0.259496
0.208554
0.169481
0.139163
0.115382
0.0965354
0.0814382
0.0691235
11.4933
7.5119
5.02843
3.434
2.3892
1.6928
1.22111
0.896486
0.669455
0.508121
0.391654
0.306283
0.242782
0.194885
0.158276
0.129948
0.107772
0.090221
0.0761817
0.0647762
11.6229
7.60535
5.0103
3.34209
2.26848
1.57142
1.11236
0.804589
0.594205
0.447519
0.343213
0.267636
0.211903
0.170125
0.138328
0.113788
0.0946041
0.0794296
0.0672927
0.0574993
12.9054
8.33993
5.07879
3.15547
2.02775
1.35121
0.933541
0.666464
0.489552
0.368603
0.283614
0.222399
0.177342
0.143547
0.117762
0.0977853
0.0820974
0.0696273
0.0595909
0.0513865
38.7028
13.0541
5.74336
3.08733
1.88066
1.2275
0.869481
0.645389
0.492599
0.38479
0.307039
0.249064
0.205005
0.171025
0.144452
0.123404
0.106532
0.0928629
0.0817411
0.0733125
36.0571
12.8529
5.76645
3.10212
1.89476
1.2267
0.866515
0.644003
0.492276
0.383998
0.305845
0.247984
0.204007
0.170067
0.143501
0.122435
0.105531
0.0918229
0.0806536
0.0719564
12.6882
8.1544
5.07113
3.20039
2.0794
1.39506
0.967836
0.692726
0.509644
0.384024
0.295514
0.231659
0.184606
0.149276
0.122297
0.101399
0.084982
0.0719271
0.0614322
0.0529214
11.5726
7.56718
5.02065
3.38344
2.32103
1.62326
1.15828
0.843155
0.625691
0.47285
0.363485
0.283854
0.224906
0.180588
0.146785
0.120661
0.100219
0.0840378
0.0710951
0.0606414
11.4757
7.50136
5.04297
3.47002
2.43665
1.74299
1.26863
0.938711
0.705582
0.538334
0.416591
0.326726
0.259496
0.208554
0.16948
0.139163
0.115382
0.0965352
0.0814382
0.0691249
11.4647
7.49683
5.0577
3.50272
2.48038
1.79068
1.31522
0.981304
0.742923
0.570208
0.443348
0.348965
0.277885
0.223733
0.182016
0.149538
0.123999
0.103719
0.0874401
0.0740666
11.4647
7.49683
5.0577
3.50272
2.48038
1.79068
1.31522
0.981304
0.742923
0.570208
0.443348
0.348965
0.277885
0.223733
0.182016
0.149538
0.123999
0.10372
0.0874402
0.0740658
11.4757
7.50136
5.04297
3.47002
2.43665
1.74299
1.26863
0.938712
0.705583
0.538335
0.416593
0.326727
0.259498
0.208557
0.169483
0.139166
0.115386
0.0965392
0.0814431
0.0691298
11.5726
7.56718
5.02065
3.38345
2.32103
1.62326
1.15829
0.843158
0.625693
0.472852
0.363488
0.283858
0.224911
0.180595
0.146797
0.120673
0.100232
0.0840522
0.0711088
0.0606318
12.6882
8.1544
5.07113
3.20039
2.0794
1.39506
0.967837
0.692729
0.509646
0.384027
0.295516
0.231663
0.184611
0.149283
0.122315
0.101416
0.085
0.0719479
0.0614565
0.0529564
36.0571
12.8529
5.76645
3.10212
1.89476
1.2267
0.866514
0.644001
0.492275
0.383997
0.305844
0.247983
0.204007
0.170069
0.143503
0.122439
0.105537
0.0918342
0.0806815
0.0721973
36.0571
12.8529
5.76645
3.10212
1.89476
1.2267
0.866514
0.644002
0.492275
0.383997
0.305844
0.247983
0.204007
0.170068
0.143504
0.12244
0.105539
0.0918355
0.0806834
0.0722007
12.6882
8.1544
5.07113
3.20039
2.0794
1.39506
0.967837
0.692729
0.509646
0.384027
0.295517
0.231664
0.184612
0.149285
0.122313
0.101416
0.0850011
0.07195
0.0614593
0.0529598
11.5726
7.56718
5.02065
3.38345
2.32103
1.62326
1.15829
0.843158
0.625693
0.472853
0.363488
0.283858
0.224912
0.180596
0.146796
0.120674
0.100233
0.084054
0.0711111
0.0606349
11.4757
7.50136
5.04297
3.47002
2.43665
1.74299
1.26863
0.938712
0.705583
0.538335
0.416593
0.326727
0.259498
0.208556
0.169484
0.139166
0.115386
0.0965398
0.0814437
0.0691314
11.4647
7.49683
5.0577
3.50272
2.48038
1.79068
1.31522
0.981304
0.742923
0.570208
0.443348
0.348965
0.277885
0.223732
0.182016
0.149538
0.123999
0.103719
0.0874403
0.0740666
11.4647
7.49683
5.0577
3.50272
2.48038
1.79068
1.31522
0.981304
0.742923
0.570208
0.443348
0.348965
0.277885
0.223733
0.182016
0.149538
0.123999
0.103719
0.0874401
0.0740656
11.4757
7.50136
5.04297
3.47002
2.43665
1.74299
1.26863
0.938711
0.705582
0.538334
0.416591
0.326726
0.259496
0.208554
0.16948
0.139162
0.115382
0.0965346
0.0814375
0.0691236
11.5726
7.56718
5.02065
3.38344
2.32103
1.62326
1.15828
0.843155
0.625691
0.472849
0.363484
0.283853
0.224904
0.180586
0.146787
0.120662
0.100218
0.0840366
0.0710936
0.0606397
12.6882
8.1544
5.07113
3.20039
2.07939
1.39506
0.967835
0.692726
0.509644
0.384024
0.295513
0.231659
0.184604
0.149271
0.122303
0.101402
0.084983
0.0719274
0.0614321
0.0529214
36.0571
12.8529
5.76645
3.10212
1.89476
1.2267
0.866515
0.644002
0.492275
0.383998
0.305844
0.247983
0.204007
0.170067
0.1435
0.122434
0.10553
0.0918214
0.080651
0.0719535
38.7028
13.0541
5.74336
3.08733
1.88066
1.2275
0.869481
0.645389
0.492599
0.38479
0.307039
0.249064
0.205004
0.171025
0.144453
0.123405
0.106533
0.092863
0.0817413
0.0733151
12.9054
8.33993
5.07879
3.15547
2.02775
1.35121
0.933541
0.666464
0.489552
0.368603
0.283614
0.2224
0.177342
0.143545
0.117765
0.0977877
0.0820997
0.0696299
0.0595938
0.0513904
11.6229
7.60535
5.0103
3.34209
2.26848
1.57142
1.11236
0.804589
0.594205
0.447519
0.343213
0.267636
0.211902
0.170124
0.13833
0.113789
0.0946051
0.0794306
0.0672936
0.0575011
11.4933
7.5119
5.02843
3.434
2.3892
1.6928
1.22111
0.896486
0.669455
0.508121
0.391654
0.306283
0.242781
0.194884
0.158278
0.129949
0.107772
0.0902206
0.0761812
0.0647755
11.4757
7.50136
5.04297
3.47002
2.43665
1.74299
1.26863
0.938711
0.705582
0.538334
0.416591
0.326726
0.259496
0.208554
0.169481
0.139163
0.115382
0.0965346
0.0814374
0.0691227
11.4757
7.50136
5.04297
3.47002
2.43665
1.74299
1.26863
0.938712
0.705583
0.538335
0.416592
0.326727
0.259498
0.208556
0.169484
0.139166
0.115386
0.096539
0.0814427
0.0691294
11.4933
7.5119
5.02843
3.434
2.3892
1.6928
1.22111
0.896485
0.669454
0.50812
0.391654
0.306283
0.242782
0.194885
0.158276
0.129948
0.107771
0.0902203
0.076181
0.0647755
11.6229
7.60535
5.0103
3.34209
2.26848
1.57142
1.11236
0.804586
0.594202
0.447514
0.343207
0.267628
0.211892
0.17011
0.138312
0.113769
0.0945813
0.0794033
0.0672656
0.0575047
12.9054
8.33993
5.07879
3.15547
2.02775
1.3512
0.933537
0.66646
0.489548
0.368598
0.283607
0.22239
0.177328
0.14352
0.117736
0.0977558
0.0820617
0.069584
0.0595352
0.0512275
38.7028
13.0541
5.74336
3.08733
1.88066
1.22751
0.869483
0.645391
0.492601
0.384792
0.307041
0.249065
0.205004
0.171022
0.144447
0.123395
0.106516
0.0928367
0.0817037
0.0732268
45.0226
13.4729
5.73075
3.07322
1.86023
1.22699
0.873573
0.649776
0.497009
0.389479
0.311287
0.252973
0.208975
0.175205
0.148807
0.127863
0.11108
0.0974914
0.0864366
0.0777411
13.6679
8.73671
5.07741
3.05388
1.92223
1.26609
0.869289
0.618631
0.453959
0.342034
0.26365
0.207311
0.165901
0.134846
0.111145
0.0926836
0.0781576
0.0666235
0.0571453
0.0497607
11.8601
7.76395
4.99734
3.24076
2.14419
1.45499
1.0141
0.725633
0.532153
0.399146
0.305541
0.238216
0.188818
0.151907
0.123866
0.102228
0.0853074
0.071914
0.0611645
0.0525635
11.6229
7.60535
5.0103
3.34209
2.26848
1.57142
1.11236
0.804586
0.594202
0.447514
0.343207
0.267628
0.211892
0.17011
0.138311
0.113769
0.0945808
0.0794023
0.0672644
0.0575017
11.5726
7.56718
5.02065
3.38344
2.32103
1.62326
1.15828
0.843155
0.625691
0.472849
0.363484
0.283853
0.224905
0.180587
0.146785
0.120661
0.100217
0.0840361
0.071093
0.060638
11.5726
7.56718
5.02065
3.38345
2.32103
1.62326
1.15829
0.843158
0.625693
0.472852
0.363488
0.283858
0.224911
0.180596
0.146796
0.120673
0.100232
0.0840525
0.0711094
0.060633
11.6229
7.60535
5.0103
3.34209
2.26848
1.57142
1.11236
0.804589
0.594205
0.447519
0.343213
0.267636
0.211903
0.170125
0.138328
0.113788
0.0946043
0.07943
0.0672931
0.0574993
11.8601
7.76395
4.99734
3.24076
2.14419
1.45499
1.0141
0.725632
0.532153
0.399146
0.305541
0.238217
0.188819
0.151908
0.123864
0.102227
0.0853073
0.0719146
0.0611646
0.0525605
13.6679
8.73671
5.0774
3.05388
1.92223
1.26609
0.869287
0.618628
0.453956
0.34203
0.263645
0.207305
0.165892
0.134831
0.11112
0.0926575
0.0781277
0.066589
0.057095
0.0497612
45.0226
13.4729
5.73075
3.07322
1.86023
1.22699
0.873574
0.649777
0.497011
0.389481
0.311289
0.252975
0.208974
0.175203
0.148803
0.127854
0.111064
0.0974667
0.0864267
0.0777442
58.5856
14.5696
6.08946
3.33295
2.08217
1.40266
0.998645
0.740275
0.565889
0.443906
0.355994
0.290888
0.241349
0.202919
0.172984
0.149641
0.131056
0.116011
0.103916
0.0944332
16.5373
9.49238
5.0127
2.8606
1.75746
1.14759
0.786927
0.562044
0.41536
0.315937
0.246318
0.196203
0.159192
0.131211
0.109724
0.0931158
0.0800339
0.0695525
0.0603089
0.0549388
13.6679
8.73671
5.0774
3.05388
1.92223
1.26609
0.869287
0.618628
0.453956
0.34203
0.263645
0.207304
0.165891
0.134831
0.111118
0.0926555
0.0781248
0.0665846
0.0570958
0.049756
12.9054
8.33993
5.07879
3.15547
2.02775
1.3512
0.933538
0.666458
0.489547
0.368598
0.283607
0.222389
0.177329
0.143525
0.117731
0.0977525
0.0820591
0.0695813
0.0595328
0.0512241
12.6882
8.1544
5.07113
3.20039
2.07939
1.39506
0.967835
0.692726
0.509644
0.384024
0.295513
0.231659
0.184606
0.149276
0.122296
0.101399
0.0849817
0.071927
0.061432
0.0529211
12.6882
8.1544
5.07113
3.20039
2.0794
1.39506
0.967837
0.692729
0.509646
0.384027
0.295517
0.231664
0.184612
0.149286
0.122313
0.101415
0.085001
0.0719499
0.0614593
0.0529595
12.9054
8.33993
5.07879
3.15547
2.02775
1.35121
0.933542
0.666463
0.489552
0.368603
0.283614
0.222399
0.177343
0.143547
0.117762
0.0977863
0.082099
0.0696294
0.0595933
0.0513893
13.6679
8.73671
5.07741
3.05388
1.92223
1.26609
0.869289
0.61863
0.453959
0.342034
0.26365
0.207311
0.165902
0.134851
0.11114
0.0926812
0.0781564
0.0666227
0.0571446
0.04976
16.5373
9.49238
5.0127
2.8606
1.75746
1.14759
0.786927
0.562044
0.415359
0.315937
0.246318
0.196203
0.159193
0.131215
0.10972
0.0931152
0.0800348
0.0695541
0.0603116
0.0549441
58.5856
14.5696
6.08946
3.33295
2.08217
1.40266
0.998644
0.740276
0.56589
0.443907
0.355995
0.290888
0.24135
0.202906
0.172972
0.149627
0.131035
0.115981
0.103901
0.0943705
90.5034
12.1248
4.38869
2.46658
1.63315
1.18306
0.902004
0.720649
0.594563
0.502468
0.43262
0.379195
0.336158
0.299602
0.269752
0.245423
0.225308
0.208396
0.194449
0.178556
58.5856
14.5696
6.08946
3.33295
2.08217
1.40266
0.998645
0.740275
0.56589
0.443907
0.355995
0.290888
0.241348
0.202912
0.17297
0.149623
0.131031
0.115977
0.103895
0.0943699
45.0226
13.4729
5.73075
3.07322
1.86023
1.22699
0.873575
0.649778
0.497011
0.389481
0.31129
0.252976
0.208976
0.175204
0.148802
0.127853
0.111063
0.0974664
0.0864255
0.0777461
38.7028
13.0541
5.74336
3.08733
1.88066
1.22751
0.869482
0.645392
0.492601
0.384793
0.307041
0.249066
0.205005
0.171023
0.144447
0.123395
0.106516
0.0928372
0.0817048
0.07323
36.0571
12.8529
5.76645
3.10212
1.89476
1.2267
0.866515
0.644003
0.492276
0.383998
0.305845
0.247984
0.204007
0.170067
0.143501
0.122435
0.105531
0.091823
0.0806543
0.0719605
36.0571
12.8529
5.76645
3.10212
1.89476
1.2267
0.866514
0.644001
0.492275
0.383997
0.305844
0.247983
0.204007
0.170068
0.143504
0.12244
0.105539
0.0918357
0.0806839
0.0722052
38.7028
13.0541
5.74336
3.08733
1.88066
1.2275
0.869481
0.645389
0.492599
0.38479
0.307039
0.249064
0.205004
0.171025
0.144452
0.123404
0.106532
0.0928629
0.0817414
0.073316
45.0226
13.4729
5.73075
3.07322
1.86023
1.22699
0.873573
0.649776
0.49701
0.389479
0.311287
0.252973
0.208975
0.175205
0.148807
0.127863
0.11108
0.0974918
0.0864374
0.0777421
58.5856
14.5696
6.08946
3.33295
2.08217
1.40266
0.998644
0.740275
0.565889
0.443906
0.355994
0.290888
0.24135
0.202915
0.172984
0.149643
0.131059
0.116014
0.103921
0.0944368
90.5034
12.1248
4.38869
2.46658
1.63315
1.18306
0.902004
0.720649
0.594564
0.502468
0.432622
0.379192
0.336163
0.299598
0.269754
0.245427
0.225314
0.208404
0.194457
0.17857
0.221394
0.206565
0.19305
0.180803
0.170489
0.162858
0.15603
0.150013
0.144489
0.13958
0.13527
0.131522
0.127767
0.124228
0.120835
0.117692
0.114666
0.111866
0.109191
0.106679
0.104249
0.101903
0.099729
0.0976319
0.0956536
0.0937299
0.0918488
0.0899871
0.0881623
0.0863501
0.0846398
0.0829602
0.0812708
0.0795962
0.077898
0.0764311
0.075027
0.0735998
0.0723859
0.0704709
0.104724
0.0942353
0.0858702
0.0789869
0.0733299
0.0690605
0.0652457
0.0620174
0.0590314
0.0563493
0.0540186
0.0520514
0.0501569
0.048462
0.0468203
0.0452942
0.0438929
0.0426001
0.0414111
0.0402932
0.0392344
0.0382321
0.0372982
0.0364327
0.0356244
0.0348575
0.0341168
0.0333955
0.0326872
0.0319896
0.0313089
0.0306554
0.030027
0.0294054
0.0288007
0.0282142
0.0276584
0.0271237
0.0266229
0.0260514
0.0825115
0.0735657
0.0663658
0.0604236
0.0557674
0.0517804
0.0484434
0.0455754
0.0431079
0.0409287
0.0389728
0.0372065
0.0356577
0.0343143
0.0329524
0.0317261
0.0306203
0.0296314
0.0286936
0.0278046
0.0269825
0.0261572
0.0253872
0.0246914
0.0240644
0.0234795
0.0229134
0.0223651
0.0218425
0.0213362
0.0208416
0.0203646
0.0199109
0.0194773
0.0190659
0.018669
0.0182769
0.0178976
0.0175405
0.0171724
0.074902
0.066389
0.0596246
0.0541327
0.0495502
0.0457188
0.0424285
0.039591
0.0371154
0.0349314
0.0329929
0.0312599
0.029706
0.0283262
0.0270789
0.0259493
0.0249077
0.0240083
0.0230697
0.0221971
0.0214313
0.020716
0.0200424
0.0194105
0.0188272
0.0182863
0.017782
0.0173039
0.0168529
0.0164215
0.0159953
0.0155882
0.0152052
0.014845
0.0145037
0.0141757
0.0138587
0.0135552
0.0132668
0.0129854
0.0713148
0.0632903
0.0567744
0.0513803
0.0468561
0.0430284
0.0397531
0.0369229
0.0344425
0.0322539
0.0303116
0.0285774
0.0270163
0.0256309
0.0243894
0.0232719
0.0222537
0.0213212
0.0204704
0.0196827
0.0190047
0.0182911
0.0176289
0.0170316
0.0164852
0.0159787
0.0155097
0.0150689
0.014657
0.0142706
0.0138873
0.0135222
0.0131763
0.0128458
0.0125319
0.0122323
0.0119515
0.0116813
0.0114233
0.0111803
0.069392
0.0617884
0.055507
0.050242
0.0457763
0.0419607
0.0386796
0.035836
0.0333389
0.0311299
0.029167
0.0274167
0.0258508
0.02445
0.0231926
0.0220613
0.0210474
0.0201359
0.0193093
0.0185564
0.0178722
0.0172428
0.0166825
0.0161343
0.015579
0.0150651
0.0146005
0.0141772
0.0137924
0.013425
0.0130829
0.0127461
0.0123947
0.0120603
0.0117571
0.0114729
0.0112117
0.0109557
0.0107066
0.0104716
0.0686552
0.0612913
0.0551622
0.0500046
0.0456147
0.0418548
0.0386064
0.0357716
0.0332705
0.0310604
0.0291034
0.0273669
0.0258158
0.0244368
0.0232032
0.0220956
0.0211
0.0202037
0.0194003
0.0186708
0.0180104
0.0173989
0.0168268
0.0162953
0.0157451
0.0152501
0.0148002
0.0143837
0.0139989
0.013617
0.0132571
0.0129042
0.012544
0.0122257
0.0119266
0.011643
0.0113637
0.0110879
0.0108174
0.0105582
0.0703919
0.0631701
0.0570533
0.051874
0.0474516
0.0436671
0.0403674
0.0374784
0.0349469
0.0327217
0.030758
0.0290104
0.0274525
0.0260805
0.0248535
0.0237491
0.0227628
0.0218689
0.0210579
0.0203168
0.0196564
0.0190039
0.0183805
0.0178128
0.0172946
0.016801
0.0163385
0.0158973
0.0154581
0.0150193
0.014613
0.0142404
0.0138902
0.0135446
0.0132069
0.0128739
0.0125398
0.0122153
0.0119001
0.0115965
0.0775675
0.0700283
0.0635732
0.0581234
0.0533759
0.0492895
0.0457995
0.0427932
0.0401683
0.0378736
0.035867
0.0340594
0.0325104
0.0310951
0.029872
0.0286402
0.0275043
0.0265077
0.0256121
0.0247767
0.0240067
0.0232826
0.0225977
0.0219566
0.0213542
0.0207738
0.0202356
0.0197222
0.0192396
0.0187644
0.0183058
0.0178617
0.0174365
0.0170218
0.0166052
0.0161931
0.0157852
0.0153883
0.0150131
0.0146519
0.101793
0.0922353
0.0841529
0.0771168
0.071357
0.0667935
0.0628069
0.0594317
0.0563917
0.0536639
0.0512798
0.0493155
0.0475558
0.0456518
0.0439858
0.04244
0.0410144
0.0396944
0.0384763
0.0373418
0.0362866
0.0353093
0.0344235
0.0335927
0.0328086
0.0320576
0.0313408
0.0306448
0.0299637
0.0292809
0.0286284
0.0280052
0.027401
0.0268085
0.0262194
0.0255944
0.0250218
0.0244578
0.0239542
0.0233764
0.221411
0.206605
0.193115
0.180785
0.170939
0.163404
0.156529
0.150424
0.144845
0.139804
0.135467
0.131586
0.127875
0.124323
0.120939
0.117784
0.114768
0.111949
0.109251
0.106734
0.104274
0.101935
0.0997432
0.0976631
0.0956831
0.0937754
0.0918894
0.0900255
0.0881957
0.0863772
0.0846692
0.0829904
0.0813173
0.0796792
0.0780865
0.0765326
0.0750234
0.0735424
0.072269
0.0702547
0.101769
0.0922489
0.0841649
0.0771933
0.0712711
0.0664998
0.0625424
0.0592355
0.0562083
0.0535389
0.0511682
0.0492608
0.0475189
0.0456211
0.0439453
0.0424029
0.0409732
0.0396584
0.0384484
0.0373225
0.0362732
0.0353029
0.0344169
0.0335869
0.0328012
0.0320519
0.031334
0.0306395
0.0299605
0.0292797
0.0286292
0.0280071
0.0274001
0.0267867
0.0261476
0.025557
0.0250093
0.0244839
0.024003
0.023452
0.055855
0.0498469
0.0437505
0.0394298
0.0354843
0.0330086
0.0307319
0.0287976
0.0270403
0.0254284
0.0240245
0.0229004
0.0216076
0.020745
0.0197103
0.0189289
0.0180711
0.017385
0.0166981
0.0161065
0.0155286
0.0149493
0.014501
0.0139959
0.0136168
0.0132536
0.0128717
0.0125186
0.012139
0.01177
0.0115187
0.0111972
0.0108669
0.0105333
0.0103224
0.0100389
0.00969661
0.00940645
0.00915311
0.0088807
0.0483356
0.041635
0.0363526
0.0317692
0.0287807
0.0262375
0.0240612
0.0221926
0.0205896
0.0192035
0.01793
0.0169327
0.0156455
0.0150116
0.014029
0.0134968
0.0126948
0.0122495
0.0116127
0.0112053
0.010766
0.0102666
0.00994785
0.00951125
0.00926905
0.00893767
0.00863376
0.00840998
0.0080789
0.00790579
0.00773269
0.00754498
0.00723997
0.00707429
0.00685952
0.00682729
0.00662444
0.00641386
0.00612833
0.00590086
0.0465311
0.0404272
0.0353781
0.03117
0.0275185
0.0246088
0.0224598
0.0205678
0.0189169
0.0174735
0.0162031
0.0150798
0.0140533
0.0131872
0.0124008
0.0116983
0.0110733
0.0105049
0.0100226
0.00948341
0.00913903
0.00861038
0.00832031
0.00791552
0.00770903
0.00735521
0.00717471
0.00686389
0.00666232
0.00645799
0.00632611
0.00619556
0.00593336
0.00581795
0.00561726
0.00563204
0.00547659
0.00533384
0.00506431
0.00492272
0.0467448
0.0405367
0.0355137
0.0313635
0.0278476
0.0247374
0.0221831
0.0200605
0.0183852
0.0169053
0.0156007
0.0144442
0.013398
0.0125054
0.011705
0.0109875
0.0103442
0.00976594
0.00924529
0.00877324
0.00834924
0.00796306
0.00761878
0.00731678
0.00700358
0.00674446
0.00645683
0.00623431
0.00602098
0.00582898
0.00566431
0.00555045
0.00533834
0.00522953
0.00504375
0.00506158
0.00491981
0.00479533
0.00455683
0.00441734
0.0468213
0.0406945
0.0356615
0.0314647
0.0279378
0.0248401
0.0221649
0.0198986
0.0181428
0.0166678
0.0153551
0.0141856
0.013129
0.0122192
0.0114052
0.0106781
0.010028
0.00944565
0.00892276
0.00845227
0.00802841
0.00764682
0.00731197
0.00702139
0.00671786
0.0064446
0.00617924
0.0059546
0.00574246
0.00556056
0.00541497
0.00527224
0.00511493
0.00499139
0.0048046
0.00481674
0.00468679
0.00450188
0.00439504
0.00414307
0.0465099
0.0407017
0.0356164
0.0313201
0.0277161
0.0245457
0.0218286
0.019651
0.0180013
0.0165321
0.0152277
0.0140727
0.0130394
0.0121424
0.0113416
0.0106261
0.00998698
0.0094136
0.00889868
0.00843466
0.00801623
0.00763838
0.00730504
0.00702523
0.00672316
0.0064778
0.00616381
0.00597594
0.00570343
0.0055649
0.00542146
0.00528211
0.00506874
0.00494592
0.00475125
0.00478478
0.00464411
0.00445657
0.00434441
0.00407074
0.0457556
0.0409824
0.0355441
0.0310483
0.0272839
0.0240496
0.0217197
0.01986
0.0182263
0.0167945
0.0155386
0.0144285
0.0134395
0.012579
0.011804
0.0111038
0.0104773
0.00990053
0.00938902
0.00891908
0.00850036
0.00812021
0.00774611
0.00751847
0.0070925
0.00689172
0.00654773
0.00638832
0.00606564
0.00595188
0.00579856
0.00565048
0.00536076
0.00523206
0.00501376
0.00486355
0.00492014
0.00473352
0.00457443
0.00423302
0.046472
0.0419901
0.0362861
0.0314167
0.0280827
0.0255443
0.0233659
0.0214883
0.0198545
0.0184266
0.0171797
0.0160573
0.0150893
0.0142279
0.013445
0.012669
0.01212
0.0113437
0.0109285
0.0103053
0.00996606
0.00943201
0.00913019
0.00869849
0.00839211
0.00817817
0.00780275
0.00761772
0.00727942
0.0071018
0.00691603
0.00673175
0.00640659
0.00625386
0.00600636
0.00583232
0.00582722
0.00557305
0.00537161
0.00502895
0.0558803
0.0497814
0.0437312
0.039346
0.0360042
0.0331804
0.0309056
0.0289137
0.0271412
0.0254885
0.0241185
0.022809
0.0216844
0.0207627
0.0197645
0.0189276
0.0181071
0.0173959
0.0167128
0.0161227
0.0155229
0.0149728
0.014496
0.0140174
0.0135958
0.0132763
0.0128772
0.0125306
0.0121491
0.0117738
0.0115226
0.0112
0.0108673
0.0105678
0.0102978
0.00999936
0.00983413
0.0095184
0.00915919
0.00884291
0.104765
0.0943055
0.0859684
0.0792135
0.0737579
0.0694353
0.0655075
0.0622114
0.0592082
0.0564616
0.0541342
0.0520835
0.0501999
0.0485052
0.0468617
0.0453395
0.043929
0.0426418
0.0414389
0.0403206
0.0392557
0.0382481
0.0373157
0.0364489
0.0356451
0.0348792
0.0341412
0.0334196
0.0327114
0.0320129
0.0313327
0.0306799
0.0300516
0.029442
0.0288505
0.0282511
0.0276922
0.027134
0.0266105
0.0260115
0.077577
0.0700556
0.0636304
0.0582204
0.053384
0.0491956
0.045692
0.042693
0.0400788
0.0378029
0.0358085
0.0340473
0.032491
0.0310772
0.0298652
0.0286237
0.0274966
0.0264999
0.0256145
0.0247767
0.0240115
0.0232862
0.0226057
0.0219642
0.0213574
0.0207817
0.0202438
0.0197315
0.0192494
0.0187759
0.0183199
0.0178788
0.017456
0.0170435
0.0166355
0.0162003
0.0157862
0.015398
0.0150386
0.0146912
0.0464551
0.0419604
0.0363015
0.0312943
0.0280373
0.0255191
0.0233455
0.0214746
0.0198459
0.0184246
0.0171827
0.0161165
0.0150493
0.0142717
0.0133748
0.0127982
0.0119334
0.0114802
0.0107876
0.0103735
0.0099566
0.00945376
0.00914664
0.0086751
0.00842956
0.00814839
0.00781132
0.00761982
0.00727922
0.00709895
0.00690999
0.00672746
0.00640365
0.0062519
0.0060351
0.00597082
0.00573511
0.00548198
0.00523379
0.00504527
0.0452535
0.0394686
0.0344189
0.0300792
0.02655
0.0236421
0.0212142
0.0191692
0.0174283
0.015933
0.0146322
0.0135087
0.0124683
0.0116033
0.0108077
0.0101179
0.00942291
0.00881429
0.00833098
0.00793955
0.00754278
0.00714563
0.0068193
0.00648114
0.00616522
0.00594
0.00565343
0.00549024
0.00520387
0.00510757
0.00499039
0.00485478
0.0046087
0.00449568
0.00431381
0.00434415
0.00421434
0.00410065
0.00385196
0.00371814
0.0476439
0.0413071
0.0360076
0.0315685
0.0278257
0.0246744
0.0220338
0.0197877
0.0178642
0.016206
0.0147681
0.0135133
0.0124072
0.0114393
0.0105805
0.00981732
0.00913422
0.00851546
0.00796928
0.0074795
0.00704329
0.00664674
0.00620955
0.00592452
0.00567433
0.00542357
0.00522578
0.00493258
0.00474476
0.00457372
0.00446096
0.00434374
0.00418465
0.00407684
0.00390096
0.00392919
0.00381327
0.00370531
0.00355235
0.00342161
0.0498793
0.0431252
0.037551
0.0329048
0.0289979
0.0256839
0.0228654
0.0204595
0.0184112
0.0166492
0.0151211
0.0137878
0.0126228
0.0115971
0.0106908
0.00988689
0.00917127
0.00853125
0.00795809
0.00744332
0.00698025
0.00656743
0.00616589
0.00585511
0.0055412
0.00522043
0.00497014
0.0047835
0.00461312
0.00448656
0.00433687
0.00419679
0.0040632
0.0039529
0.00381135
0.00382998
0.00370974
0.00359054
0.00347437
0.00336105
0.0507644
0.0438968
0.0382024
0.0334496
0.0294544
0.0260683
0.0231789
0.020705
0.0185954
0.0167887
0.0152274
0.0138673
0.0126811
0.0116372
0.0107155
0.00989883
0.00917234
0.00852317
0.00794219
0.0074219
0.00695374
0.00653671
0.00613808
0.00582907
0.00551285
0.00521518
0.00496316
0.00470984
0.00450897
0.00443873
0.00429627
0.00415904
0.00402544
0.00391094
0.00378945
0.00380502
0.00368462
0.00356463
0.00344762
0.00332997
0.0499336
0.0432651
0.0376641
0.0329572
0.0289913
0.02563
0.022773
0.0203442
0.0182801
0.0165084
0.0149789
0.0136502
0.0124915
0.0114752
0.0105772
0.00978141
0.00907301
0.00843995
0.00787335
0.00736609
0.0069078
0.00649969
0.00610719
0.00579808
0.00548411
0.00520553
0.00492282
0.00471426
0.00454016