/*--------------------------------*- C++ -*----------------------------------*\
| =========                 |                                                 |
| \\      /  F ield         | OpenFOAM: The Open Source CFD Toolbox           |
|  \\    /   O peration     | Version:  2212                                  |
|   \\  /    A nd           | Website:  www.openfoam.com                      |
|    \\/     M anipulation  |                                                 |
\*---------------------------------------------------------------------------*/
FoamFile
{
    version     2.0;
    format      ascii;
    arch        "LSB;label=32;scalar=64";
    class       volScalarField;
    location    "1.65";
    object      nut;
}
// * * * * * * * * * * * * * * * * * * * * * * * * * * * * * * * * * * * * * //

dimensions      [0 2 -1 0 0 0 0];

internalField   nonuniform List<scalar> 
6840
(
4.5356e-05
2.3208e-05
1.65396e-05
1.36493e-05
1.18966e-05
1.06844e-05
9.76074e-06
9.05708e-06
8.49468e-06
8.03127e-06
7.64042e-06
7.312e-06
7.02427e-06
6.75992e-06
6.52764e-06
6.32545e-06
6.14853e-06
5.99335e-06
5.86707e-06
5.71639e-06
0.000107685
6.77183e-05
5.06311e-05
4.14159e-05
3.54048e-05
3.10367e-05
2.77137e-05
2.50816e-05
2.29334e-05
2.11506e-05
1.96505e-05
1.83712e-05
1.72629e-05
1.62932e-05
1.54491e-05
1.47204e-05
1.4084e-05
1.35239e-05
1.30429e-05
1.26747e-05
0.000160509
0.00010736
8.07408e-05
6.55975e-05
5.54896e-05
4.83025e-05
4.3131e-05
3.90791e-05
3.57392e-05
3.29496e-05
3.0578e-05
2.85352e-05
2.67743e-05
2.52464e-05
2.39086e-05
2.27287e-05
2.1686e-05
2.07609e-05
1.99442e-05
1.92796e-05
0.000198681
0.0001383
0.000105187
8.55269e-05
7.25012e-05
6.28901e-05
5.60611e-05
5.07593e-05
4.6388e-05
4.27217e-05
3.96252e-05
3.69553e-05
3.46331e-05
3.26027e-05
3.08178e-05
2.92408e-05
2.78409e-05
2.65927e-05
2.54822e-05
2.4588e-05
0.000218609
0.000155003
0.000118661
9.65069e-05
8.18824e-05
7.08356e-05
6.30856e-05
5.71436e-05
5.22485e-05
4.80966e-05
4.45832e-05
4.15729e-05
3.89539e-05
3.66613e-05
3.46432e-05
3.28574e-05
3.12696e-05
2.98529e-05
2.85971e-05
2.76202e-05
0.000218609
0.000155003
0.000118661
9.65069e-05
8.18824e-05
7.08356e-05
6.30857e-05
5.71436e-05
5.22486e-05
4.80967e-05
4.45833e-05
4.15732e-05
3.89543e-05
3.6662e-05
3.46442e-05
3.2859e-05
3.12719e-05
2.98555e-05
2.85926e-05
2.75232e-05
0.000198681
0.0001383
0.000105187
8.55269e-05
7.25012e-05
6.28902e-05
5.60611e-05
5.07594e-05
4.63882e-05
4.2722e-05
3.96256e-05
3.69558e-05
3.4634e-05
3.26041e-05
3.08202e-05
2.92446e-05
2.78468e-05
2.66016e-05
2.549e-05
2.45012e-05
0.000160509
0.00010736
8.07408e-05
6.55975e-05
5.54896e-05
4.83025e-05
4.3131e-05
3.90791e-05
3.57393e-05
3.29498e-05
3.05783e-05
2.85356e-05
2.6775e-05
2.52477e-05
2.39107e-05
2.27325e-05
2.16922e-05
2.07721e-05
1.99572e-05
1.92061e-05
0.000107685
6.77183e-05
5.06311e-05
4.14159e-05
3.54048e-05
3.10367e-05
2.77137e-05
2.50816e-05
2.29334e-05
2.11506e-05
1.96506e-05
1.83713e-05
1.72631e-05
1.62938e-05
1.54501e-05
1.47222e-05
1.40874e-05
1.35307e-05
1.30547e-05
1.26933e-05
4.5356e-05
2.3208e-05
1.65396e-05
1.36493e-05
1.18966e-05
1.06844e-05
9.76074e-06
9.05708e-06
8.49468e-06
8.03126e-06
7.64044e-06
7.31198e-06
7.02428e-06
6.75989e-06
6.52765e-06
6.32546e-06
6.14853e-06
5.99333e-06
5.86702e-06
5.71616e-06
0.000107685
6.77183e-05
5.06311e-05
4.14159e-05
3.54048e-05
3.10367e-05
2.77137e-05
2.50816e-05
2.29334e-05
2.11506e-05
1.96506e-05
1.83713e-05
1.72631e-05
1.62938e-05
1.54502e-05
1.47223e-05
1.40875e-05
1.35308e-05
1.3055e-05
1.26937e-05
0.000528907
0.000369984
0.000305097
0.000261371
0.000228528
0.000202476
0.000181114
0.000163073
0.000147539
0.000133983
0.000122048
0.000111465
0.000102134
9.38602e-05
8.64509e-05
7.96505e-05
7.3441e-05
6.77411e-05
6.35967e-05
5.72027e-05
0.000663952
0.000488458
0.000404619
0.000347248
0.000305036
0.000272128
0.000245318
0.000222889
0.000203756
0.00018718
0.000172655
0.000159815
0.000148374
0.000138116
0.000128865
0.000120622
0.000113175
0.000106331
0.000100428
9.45959e-05
0.00071288
0.000556432
0.000466397
0.000402355
0.000354426
0.000317051
0.000286675
0.000261255
0.000239582
0.000220847
0.000204446
0.000189954
0.000177052
0.000165481
0.000155034
0.000145575
0.000136964
0.000129083
0.000121853
0.000115494
0.000728543
0.000588231
0.000496002
0.000429132
0.00037851
0.000338935
0.000306819
0.000279975
0.000257074
0.000237259
0.000219914
0.000204583
0.000190926
0.000178678
0.00016763
0.000157608
0.000148482
0.000140132
0.000132449
0.000125433
0.000728543
0.000588231
0.000496002
0.000429132
0.00037851
0.000338935
0.00030682
0.000279976
0.000257076
0.000237261
0.000219917
0.000204588
0.000190933
0.000178689
0.00016765
0.000157632
0.000148512
0.000140172
0.000132499
0.00012548
0.00071288
0.000556432
0.000466397
0.000402355
0.000354426
0.000317051
0.000286676
0.000261258
0.000239585
0.000220851
0.000204452
0.000189963
0.000177066
0.000165509
0.000155074
0.000145624
0.000137028
0.000129168
0.000121968
0.000115884
0.000663952
0.000488458
0.000404619
0.000347248
0.000305036
0.000272128
0.000245319
0.00022289
0.000203758
0.000187182
0.000172659
0.000159821
0.000148382
0.000138132
0.000128896
0.000120659
0.000113222
0.000106389
0.00010053
9.46555e-05
0.000528907
0.000369984
0.000305097
0.000261371
0.000228528
0.000202475
0.000181114
0.000163073
0.000147539
0.000133983
0.000122048
0.000111465
0.000102133
9.38553e-05
8.64541e-05
7.96519e-05
7.34409e-05
6.77398e-05
6.35947e-05
5.71935e-05
0.000107685
6.77183e-05
5.06311e-05
4.14159e-05
3.54048e-05
3.10367e-05
2.77137e-05
2.50816e-05
2.29334e-05
2.11506e-05
1.96505e-05
1.83712e-05
1.72628e-05
1.62932e-05
1.54491e-05
1.47204e-05
1.4084e-05
1.35239e-05
1.30428e-05
1.26744e-05
0.000160509
0.00010736
8.07408e-05
6.55975e-05
5.54896e-05
4.83025e-05
4.3131e-05
3.90791e-05
3.57393e-05
3.29498e-05
3.05783e-05
2.85356e-05
2.67751e-05
2.52477e-05
2.39107e-05
2.27327e-05
2.16924e-05
2.07722e-05
1.99574e-05
1.92056e-05
0.000663952
0.000488458
0.000404619
0.000347248
0.000305036
0.000272128
0.000245319
0.00022289
0.000203758
0.000187183
0.000172659
0.000159822
0.000148384
0.000138132
0.000128898
0.000120661
0.000113226
0.000106397
0.00010053
9.46647e-05
0.000786827
0.000662293
0.000567974
0.000495805
0.000439463
0.000394562
0.000357974
0.000327451
0.000301489
0.000279049
0.000259396
0.000241999
0.000226467
0.000212499
0.000199862
0.000188396
0.000177935
0.000168332
0.000159533
0.000151076
0.000809324
0.000713906
0.000631505
0.000562574
0.000505377
0.000457786
0.000417841
0.000383939
0.000354803
0.000329449
0.000307154
0.000287377
0.000269697
0.000253788
0.000239389
0.000226302
0.000214344
0.000203345
0.000193102
0.000183116
0.000814958
0.000730426
0.000654634
0.000589044
0.000533067
0.000485439
0.000444764
0.000409794
0.000379472
0.000352934
0.000329495
0.000308635
0.000289949
0.000273115
0.000257871
0.000244001
0.00023132
0.000219642
0.000208697
0.00019783
0.000814958
0.000730426
0.000654634
0.000589044
0.000533067
0.000485439
0.000444765
0.000409795
0.000379473
0.000352936
0.000329498
0.00030864
0.000289955
0.000273125
0.000257888
0.000244022
0.000231347
0.000219676
0.000208731
0.00019776
0.000809324
0.000713906
0.000631505
0.000562574
0.000505377
0.000457786
0.000417842
0.000383941
0.000354805
0.000329452
0.000307159
0.000287383
0.000269707
0.000253806
0.000239417
0.000226338
0.00021439
0.000203404
0.000193163
0.000183015
0.000786827
0.000662293
0.000567974
0.000495805
0.000439463
0.000394562
0.000357974
0.000327451
0.000301489
0.000279048
0.000259395
0.000241998
0.000226463
0.000212495
0.000199865
0.000188396
0.000177932
0.000168328
0.000159525
0.000151053
0.000663952
0.000488458
0.000404619
0.000347248
0.000305035
0.000272128
0.000245318
0.000222889
0.000203756
0.00018718
0.000172655
0.000159815
0.000148373
0.00013811
0.00012887
0.000120625
0.000113177
0.000106332
0.000100429
9.45889e-05
0.000160509
0.00010736
8.07408e-05
6.55975e-05
5.54896e-05
4.83025e-05
4.3131e-05
3.90791e-05
3.57392e-05
3.29496e-05
3.0578e-05
2.85351e-05
2.67743e-05
2.52464e-05
2.39083e-05
2.27288e-05
2.1686e-05
2.07608e-05
1.99438e-05
1.92787e-05
0.000198681
0.0001383
0.000105187
8.55269e-05
7.25012e-05
6.28902e-05
5.60611e-05
5.07594e-05
4.63882e-05
4.2722e-05
3.96256e-05
3.69558e-05
3.4634e-05
3.2604e-05
3.08201e-05
2.92447e-05
2.78469e-05
2.66018e-05
2.54903e-05
2.45015e-05
0.00071288
0.000556432
0.000466397
0.000402355
0.000354426
0.000317051
0.000286676
0.000261258
0.000239585
0.000220851
0.000204452
0.000189964
0.000177066
0.000165503
0.000155079
0.000145628
0.000137032
0.000129173
0.000121975
0.000115885
0.000809324
0.000713906
0.000631505
0.000562574
0.000505377
0.000457786
0.000417842
0.000383941
0.000354806
0.000329452
0.00030716
0.000287384
0.000269708
0.000253805
0.000239419
0.00022634
0.000214393
0.000203409
0.00019317
0.000183024
0.000823497
0.000753987
0.000688491
0.000628748
0.000575387
0.000528266
0.000486845
0.000450441
0.000418361
0.000389972
0.000364725
0.000342158
0.000321888
0.000303593
0.000287009
0.000271913
0.000258098
0.000245342
0.000233279
0.000220976
0.000826292
0.000764347
0.000706102
0.000651936
0.00060223
0.000557103
0.000516428
0.000479912
0.00044718
0.000417831
0.000391474
0.000367748
0.000346329
0.000326933
0.000309313
0.000293248
0.000278524
0.000264889
0.000251878
0.000238275
0.000826292
0.000764347
0.000706102
0.000651936
0.00060223
0.000557103
0.000516428
0.000479912
0.00044718
0.000417832
0.000391475
0.000367749
0.00034633
0.000326936
0.000309317
0.000293253
0.000278531
0.000264897
0.000251889
0.000238276
0.000823497
0.000753987
0.000688491
0.000628748
0.000575387
0.000528266
0.000486845
0.000450441
0.000418361
0.000389972
0.000364724
0.000342157
0.000321886
0.000303591
0.00028701
0.000271913
0.000258097
0.000245341
0.000233276
0.00022097
0.000809324
0.000713906
0.000631505
0.000562574
0.000505377
0.000457785
0.000417841
0.000383939
0.000354803
0.000329448
0.000307154
0.000287376
0.000269695
0.000253785
0.000239391
0.000226303
0.000214344
0.000203344
0.000193099
0.000183111
0.00071288
0.000556432
0.000466397
0.000402355
0.000354426
0.00031705
0.000286675
0.000261255
0.000239582
0.000220847
0.000204446
0.000189954
0.000177051
0.000165478
0.000155037
0.000145577
0.000136965
0.000129084
0.000121854
0.000115497
0.000198681
0.0001383
0.000105187
8.55269e-05
7.25012e-05
6.28901e-05
5.60611e-05
5.07593e-05
4.6388e-05
4.27217e-05
3.96252e-05
3.69552e-05
3.46331e-05
3.26027e-05
3.08176e-05
2.92407e-05
2.78408e-05
2.65927e-05
2.5482e-05
2.4587e-05
0.000218609
0.000155003
0.000118661
9.65069e-05
8.18824e-05
7.08356e-05
6.30857e-05
5.71436e-05
5.22486e-05
4.80967e-05
4.45833e-05
4.15732e-05
3.89543e-05
3.66619e-05
3.46442e-05
3.2859e-05
3.1272e-05
2.98557e-05
2.85928e-05
2.75236e-05
0.000728543
0.000588231
0.000496002
0.000429132
0.00037851
0.000338935
0.00030682
0.000279976
0.000257076
0.000237261
0.000219917
0.000204588
0.000190933
0.000178688
0.000167651
0.000157633
0.000148514
0.000140174
0.000132502
0.00012548
0.000814958
0.000730426
0.000654634
0.000589044
0.000533067
0.000485439
0.000444765
0.000409795
0.000379473
0.000352936
0.000329499
0.00030864
0.000289956
0.000273125
0.000257889
0.000244023
0.000231348
0.000219678
0.000208734
0.000197758
0.000826292
0.000764347
0.000706102
0.000651936
0.00060223
0.000557103
0.000516428
0.000479912
0.000447181
0.000417832
0.000391475
0.000367749
0.000346331
0.000326936
0.000309317
0.000293253
0.000278531
0.000264898
0.00025189
0.000238274
0.000828382
0.0007726
0.000721137
0.00067296
0.000627781
0.00058562
0.000546546
0.000510578
0.000477646
0.000447612
0.000420283
0.00039544
0.000372855
0.000352302
0.000333566
0.000316444
0.000300716
0.00028609
0.000271974
0.000256817
0.000828382
0.0007726
0.000721137
0.00067296
0.000627781
0.00058562
0.000546546
0.000510578
0.000477646
0.000447612
0.000420283
0.00039544
0.000372855
0.000352301
0.000333566
0.000316444
0.000300716
0.00028609
0.000271973
0.000256817
0.000826292
0.000764347
0.000706102
0.000651936
0.00060223
0.000557103
0.000516428
0.000479911
0.00044718
0.000417831
0.000391474
0.000367747
0.000346328
0.000326933
0.000309314
0.000293248
0.000278524
0.000264889
0.000251878
0.00023827
0.000814958
0.000730426
0.000654634
0.000589044
0.000533067
0.000485439
0.000444764
0.000409794
0.000379472
0.000352934
0.000329495
0.000308635
0.00028995
0.000273115
0.00025787
0.000244001
0.00023132
0.000219643
0.000208698
0.000197828
0.000728543
0.000588231
0.000496002
0.000429132
0.00037851
0.000338935
0.000306819
0.000279974
0.000257074
0.000237258
0.000219914
0.000204583
0.000190927
0.00017868
0.000167627
0.000157606
0.000148481
0.000140132
0.000132449
0.000125432
0.000218609
0.000155003
0.000118661
9.65069e-05
8.18824e-05
7.08356e-05
6.30856e-05
5.71436e-05
5.22485e-05
4.80966e-05
4.45831e-05
4.15729e-05
3.89539e-05
3.66613e-05
3.46431e-05
3.28573e-05
3.12695e-05
2.98527e-05
2.8597e-05
2.76204e-05
0.000218609
0.000155003
0.000118661
9.65069e-05
8.18824e-05
7.08356e-05
6.30856e-05
5.71436e-05
5.22485e-05
4.80966e-05
4.45831e-05
4.15729e-05
3.89538e-05
3.66613e-05
3.46432e-05
3.28573e-05
3.12695e-05
2.98528e-05
2.85971e-05
2.76204e-05
0.000728543
0.000588231
0.000496002
0.000429132
0.00037851
0.000338935
0.000306819
0.000279975
0.000257074
0.000237258
0.000219913
0.000204583
0.000190925
0.000178677
0.00016763
0.000157608
0.00014848
0.000140129
0.000132445
0.000125428
0.000814958
0.000730426
0.000654634
0.000589044
0.000533067
0.000485439
0.000444764
0.000409794
0.000379472
0.000352934
0.000329495
0.000308635
0.000289949
0.000273114
0.000257871
0.000244
0.000231318
0.000219639
0.000208693
0.00019782
0.000826292
0.000764347
0.000706102
0.000651936
0.00060223
0.000557103
0.000516428
0.000479912
0.00044718
0.000417831
0.000391474
0.000367747
0.000346329
0.000326933
0.000309312
0.000293247
0.000278523
0.000264888
0.000251876
0.000238267
0.000828382
0.0007726
0.000721137
0.00067296
0.000627781
0.00058562
0.000546546
0.000510578
0.000477646
0.000447612
0.000420283
0.00039544
0.000372855
0.000352302
0.000333566
0.000316444
0.000300716
0.00028609
0.000271973
0.000256816
0.000828382
0.0007726
0.000721137
0.00067296
0.000627781
0.00058562
0.000546546
0.000510578
0.000477646
0.000447612
0.000420283
0.00039544
0.000372855
0.000352302
0.000333566
0.000316444
0.000300716
0.00028609
0.000271973
0.000256817
0.000826292
0.000764347
0.000706102
0.000651936
0.00060223
0.000557103
0.000516428
0.000479912
0.00044718
0.000417832
0.000391475
0.000367749
0.000346331
0.000326936
0.000309318
0.000293254
0.000278532
0.000264899
0.00025189
0.000238273
0.000814958
0.000730426
0.000654634
0.000589044
0.000533067
0.000485439
0.000444765
0.000409795
0.000379473
0.000352936
0.000329499
0.00030864
0.000289957
0.000273127
0.000257886
0.000244022
0.000231348
0.000219679
0.000208735
0.000197759
0.000728543
0.000588231
0.000496002
0.000429132
0.00037851
0.000338935
0.00030682
0.000279976
0.000257076
0.00023726
0.000219916
0.000204588
0.000190934
0.000178694
0.000167643
0.000157628
0.000148509
0.00014017
0.000132497
0.000125473
0.000218609
0.000155003
0.000118661
9.65069e-05
8.18824e-05
7.08356e-05
6.30857e-05
5.71436e-05
5.22486e-05
4.80967e-05
4.45833e-05
4.15732e-05
3.89543e-05
3.6662e-05
3.46442e-05
3.28589e-05
3.12718e-05
2.98554e-05
2.85925e-05
2.75233e-05
0.000198681
0.0001383
0.000105187
8.55269e-05
7.25012e-05
6.28901e-05
5.60611e-05
5.07593e-05
4.6388e-05
4.27217e-05
3.96252e-05
3.69552e-05
3.46331e-05
3.26026e-05
3.08177e-05
2.92407e-05
2.78408e-05
2.65926e-05
2.5482e-05
2.45877e-05
0.00071288
0.000556432
0.000466397
0.000402355
0.000354426
0.00031705
0.000286675
0.000261255
0.000239582
0.000220847
0.000204446
0.000189953
0.000177051
0.00016548
0.000155034
0.000145573
0.000136961
0.000129078
0.000121846
0.000115486
0.000809324
0.000713906
0.000631505
0.000562574
0.000505377
0.000457785
0.000417841
0.000383939
0.000354803
0.000329448
0.000307154
0.000287376
0.000269696
0.000253786
0.000239387
0.0002263
0.00021434
0.00020334
0.000193093
0.0001831
0.000823497
0.000753987
0.000688491
0.000628748
0.000575387
0.000528266
0.000486845
0.000450441
0.000418361
0.000389972
0.000364724
0.000342158
0.000321887
0.000303592
0.000287007
0.000271911
0.000258096
0.00024534
0.000233274
0.00022097
0.000826292
0.000764347
0.000706102
0.000651936
0.00060223
0.000557103
0.000516428
0.000479912
0.00044718
0.000417832
0.000391475
0.000367749
0.000346331
0.000326936
0.000309317
0.000293253
0.000278531
0.000264899
0.000251891
0.000238279
0.000826292
0.000764347
0.000706102
0.000651936
0.00060223
0.000557103
0.000516428
0.000479912
0.00044718
0.000417831
0.000391474
0.000367747
0.000346329
0.000326933
0.000309312
0.000293247
0.000278524
0.000264889
0.000251879
0.000238272
0.000823497
0.000753987
0.000688491
0.000628748
0.000575387
0.000528266
0.000486845
0.000450441
0.000418361
0.000389972
0.000364725
0.000342158
0.000321886
0.000303591
0.00028701
0.000271913
0.000258098
0.000245341
0.000233276
0.000220968
0.000809324
0.000713906
0.000631505
0.000562574
0.000505377
0.000457786
0.000417842
0.000383941
0.000354805
0.000329452
0.000307159
0.000287384
0.000269707
0.000253805
0.000239417
0.000226338
0.000214392
0.000203406
0.000193165
0.000183015
0.00071288
0.000556432
0.000466397
0.000402355
0.000354426
0.000317051
0.000286676
0.000261258
0.000239585
0.000220851
0.000204452
0.000189963
0.000177066
0.000165508
0.000155073
0.000145623
0.000137027
0.000129166
0.000121966
0.000115871
0.000198681
0.0001383
0.000105187
8.55269e-05
7.25012e-05
6.28902e-05
5.60611e-05
5.07594e-05
4.63882e-05
4.2722e-05
3.96255e-05
3.69558e-05
3.4634e-05
3.26041e-05
3.08201e-05
2.92445e-05
2.78467e-05
2.66016e-05
2.549e-05
2.45014e-05
0.000160509
0.00010736
8.07408e-05
6.55975e-05
5.54896e-05
4.83025e-05
4.3131e-05
3.90791e-05
3.57392e-05
3.29496e-05
3.0578e-05
2.85351e-05
2.67743e-05
2.52463e-05
2.39085e-05
2.27287e-05
2.16858e-05
2.07607e-05
1.99439e-05
1.92791e-05
0.000663952
0.000488458
0.000404619
0.000347248
0.000305035
0.000272128
0.000245318
0.000222889
0.000203756
0.00018718
0.000172655
0.000159815
0.000148373
0.000138115
0.000128864
0.00012062
0.000113171
0.000106324
0.00010043
9.45799e-05
0.000786827
0.000662293
0.000567974
0.000495805
0.000439463
0.000394562
0.000357974
0.000327451
0.000301489
0.000279049
0.000259395
0.000241999
0.000226466
0.000212498
0.00019986
0.000188393
0.000177931
0.000168327
0.000159525
0.000151052
0.000809324
0.000713906
0.000631505
0.000562574
0.000505377
0.000457786
0.000417842
0.000383941
0.000354805
0.000329452
0.00030716
0.000287384
0.000269708
0.000253805
0.000239417
0.000226338
0.000214392
0.000203408
0.000193167
0.000183023
0.000814958
0.000730426
0.000654634
0.000589044
0.000533067
0.000485439
0.000444765
0.000409795
0.000379473
0.000352936
0.000329499
0.00030864
0.000289956
0.000273126
0.000257889
0.000244023
0.00023135
0.00021968
0.000208738
0.000197767
0.000814958
0.000730426
0.000654634
0.000589044
0.000533067
0.000485439
0.000444764
0.000409794
0.000379472
0.000352934
0.000329495
0.000308635
0.000289949
0.000273114
0.000257871
0.000244001
0.000231321
0.000219642
0.000208698
0.000197827
0.000809324
0.000713906
0.000631505
0.000562574
0.000505377
0.000457785
0.000417841
0.000383939
0.000354803
0.000329448
0.000307154
0.000287376
0.000269695
0.000253785
0.000239391
0.000226303
0.000214343
0.000203342
0.000193096
0.000183107
0.000786827
0.000662293
0.000567974
0.000495805
0.000439463
0.000394562
0.000357974
0.000327451
0.000301489
0.000279049
0.000259395
0.000241998
0.000226464
0.000212495
0.000199865
0.000188396
0.000177933
0.000168328
0.000159527
0.000151068
0.000663952
0.000488458
0.000404619
0.000347248
0.000305036
0.000272128
0.000245319
0.00022289
0.000203758
0.000187182
0.000172659
0.000159821
0.000148382
0.000138131
0.000128896
0.000120659
0.000113222
0.000106389
0.00010053
9.46527e-05
0.000160509
0.00010736
8.07408e-05
6.55975e-05
5.54896e-05
4.83025e-05
4.3131e-05
3.90791e-05
3.57393e-05
3.29498e-05
3.05783e-05
2.85356e-05
2.6775e-05
2.52477e-05
2.39107e-05
2.27325e-05
2.16922e-05
2.0772e-05
1.99571e-05
1.92056e-05
0.000107685
6.77183e-05
5.06311e-05
4.14159e-05
3.54048e-05
3.10367e-05
2.77137e-05
2.50816e-05
2.29334e-05
2.11506e-05
1.96505e-05
1.83712e-05
1.72629e-05
1.62932e-05
1.54491e-05
1.47203e-05
1.40839e-05
1.35238e-05
1.30426e-05
1.26742e-05
0.000528907
0.000369984
0.000305097
0.000261371
0.000228528
0.000202476
0.000181114
0.000163073
0.000147539
0.000133983
0.000122048
0.000111465
0.000102134
9.38602e-05
8.64499e-05
7.96495e-05
7.34398e-05
6.77393e-05
6.35946e-05
5.71908e-05
0.000663952
0.000488458
0.000404619
0.000347248
0.000305036
0.000272128
0.000245319
0.00022289
0.000203758
0.000187183
0.000172659
0.000159822
0.000148384
0.000138132
0.000128897
0.000120661
0.000113225
0.000106396
0.000100527
9.46597e-05
0.00071288
0.000556432
0.000466397
0.000402355
0.000354426
0.000317051
0.000286676
0.000261258
0.000239585
0.000220851
0.000204452
0.000189964
0.000177066
0.000165503
0.000155079
0.000145627
0.000137031
0.000129172
0.000121973
0.000115881
0.000728543
0.000588231
0.000496002
0.000429132
0.00037851
0.000338935
0.00030682
0.000279976
0.000257076
0.00023726
0.000219916
0.000204588
0.000190933
0.000178687
0.000167652
0.000157633
0.000148513
0.000140173
0.000132501
0.000125481
0.000728543
0.000588231
0.000496002
0.000429132
0.00037851
0.000338935
0.000306819
0.000279974
0.000257074
0.000237258
0.000219913
0.000204583
0.000190925
0.000178676
0.00016763
0.000157608
0.00014848
0.00014013
0.000132446
0.000125429
0.00071288
0.000556432
0.000466397
0.000402355
0.000354426
0.00031705
0.000286675
0.000261256
0.000239582
0.000220847
0.000204446
0.000189953
0.000177051
0.000165478
0.000155037
0.000145575
0.000136962
0.000129079
0.000121848
0.00011549
0.000663952
0.000488458
0.000404619
0.000347248
0.000305035
0.000272128
0.000245318
0.000222889
0.000203756
0.00018718
0.000172655
0.000159815
0.000148372
0.000138109
0.000128869
0.000120624
0.000113175
0.000106327
0.000100434
9.45868e-05
0.000528907
0.000369984
0.000305097
0.000261371
0.000228528
0.000202475
0.000181114
0.000163073
0.000147539
0.000133983
0.000122048
0.000111465
0.000102133
9.38551e-05
8.6454e-05
7.96518e-05
7.34409e-05
6.77397e-05
6.35957e-05
5.71879e-05
0.000107685
6.77183e-05
5.06311e-05
4.14159e-05
3.54048e-05
3.10367e-05
2.77137e-05
2.50816e-05
2.29334e-05
2.11506e-05
1.96506e-05
1.83713e-05
1.72631e-05
1.62938e-05
1.54501e-05
1.47222e-05
1.40874e-05
1.35307e-05
1.30548e-05
1.2693e-05
4.5356e-05
2.3208e-05
1.65396e-05
1.36493e-05
1.18966e-05
1.06844e-05
9.76074e-06
9.05708e-06
8.49468e-06
8.03127e-06
7.64042e-06
7.312e-06
7.02426e-06
6.75992e-06
6.52763e-06
6.32542e-06
6.1485e-06
5.99329e-06
5.86697e-06
5.71603e-06
0.000107685
6.77183e-05
5.06311e-05
4.14159e-05
3.54048e-05
3.10367e-05
2.77137e-05
2.50816e-05
2.29334e-05
2.11506e-05
1.96506e-05
1.83713e-05
1.72631e-05
1.62938e-05
1.54502e-05
1.47222e-05
1.40874e-05
1.35307e-05
1.30549e-05
1.26931e-05
0.000160509
0.00010736
8.07408e-05
6.55975e-05
5.54896e-05
4.83025e-05
4.3131e-05
3.90791e-05
3.57393e-05
3.29498e-05
3.05783e-05
2.85356e-05
2.67751e-05
2.52477e-05
2.39107e-05
2.27326e-05
2.16923e-05
2.07722e-05
1.99573e-05
1.92058e-05
0.000198681
0.0001383
0.000105187
8.55269e-05
7.25012e-05
6.28902e-05
5.60611e-05
5.07594e-05
4.63882e-05
4.2722e-05
3.96256e-05
3.69558e-05
3.4634e-05
3.2604e-05
3.082e-05
2.92447e-05
2.78469e-05
2.66018e-05
2.54904e-05
2.45023e-05
0.000218609
0.000155003
0.000118661
9.65069e-05
8.18824e-05
7.08356e-05
6.30857e-05
5.71436e-05
5.22486e-05
4.80967e-05
4.45833e-05
4.15732e-05
3.89543e-05
3.66619e-05
3.46442e-05
3.2859e-05
3.1272e-05
2.98557e-05
2.85929e-05
2.75242e-05
0.000218609
0.000155003
0.000118661
9.65069e-05
8.18824e-05
7.08356e-05
6.30856e-05
5.71436e-05
5.22485e-05
4.80966e-05
4.45831e-05
4.15729e-05
3.89538e-05
3.66613e-05
3.46432e-05
3.28573e-05
3.12696e-05
2.98528e-05
2.85971e-05
2.76191e-05
0.000198681
0.0001383
0.000105187
8.55269e-05
7.25012e-05
6.28901e-05
5.60611e-05
5.07593e-05
4.6388e-05
4.27217e-05
3.96252e-05
3.69552e-05
3.46331e-05
3.26026e-05
3.08176e-05
2.92407e-05
2.78408e-05
2.65926e-05
2.5482e-05
2.45876e-05
0.000160509
0.00010736
8.07408e-05
6.55975e-05
5.54896e-05
4.83025e-05
4.3131e-05
3.90791e-05
3.57392e-05
3.29496e-05
3.0578e-05
2.85351e-05
2.67742e-05
2.52464e-05
2.39083e-05
2.27287e-05
2.16859e-05
2.07608e-05
1.9944e-05
1.92792e-05
0.000107685
6.77183e-05
5.06311e-05
4.14159e-05
3.54048e-05
3.10367e-05
2.77137e-05
2.50816e-05
2.29334e-05
2.11506e-05
1.96505e-05
1.83711e-05
1.72628e-05
1.62932e-05
1.5449e-05
1.47204e-05
1.4084e-05
1.35238e-05
1.30426e-05
1.26741e-05
4.5356e-05
2.3208e-05
1.65396e-05
1.36493e-05
1.18966e-05
1.06844e-05
9.76074e-06
9.05708e-06
8.49468e-06
8.03125e-06
7.64043e-06
7.31197e-06
7.02427e-06
6.75987e-06
6.52764e-06
6.32543e-06
6.1485e-06
5.99328e-06
5.86691e-06
5.71598e-06
4.94119e-06
4.76125e-06
4.60727e-06
4.49596e-06
4.4057e-06
4.33192e-06
4.26402e-06
4.20333e-06
4.1478e-06
4.09782e-06
4.05372e-06
4.01346e-06
3.976e-06
3.93681e-06
3.90103e-06
3.86543e-06
3.83257e-06
3.80003e-06
3.76952e-06
3.74019e-06
3.71119e-06
3.68349e-06
3.65664e-06
3.63144e-06
3.60676e-06
3.58256e-06
3.55882e-06
3.53497e-06
3.51116e-06
3.48727e-06
3.46445e-06
3.44185e-06
3.41919e-06
3.39602e-06
3.3718e-06
3.35125e-06
3.33053e-06
3.30934e-06
3.29089e-06
3.26031e-06
1.06119e-05
1.01332e-05
9.7901e-06
9.48561e-06
9.22709e-06
9.01469e-06
8.82947e-06
8.6669e-06
8.51631e-06
8.38171e-06
8.26349e-06
8.1535e-06
8.05813e-06
7.96177e-06
7.8708e-06
7.78037e-06
7.69989e-06
7.62145e-06
7.54956e-06
7.48085e-06
7.41331e-06
7.35003e-06
7.28921e-06
7.23284e-06
7.17915e-06
7.1274e-06
7.07683e-06
7.02684e-06
6.97788e-06
6.92812e-06
6.87976e-06
6.83179e-06
6.78543e-06
6.73951e-06
6.69238e-06
6.6477e-06
6.60448e-06
6.56158e-06
6.52064e-06
6.47283e-06
1.60187e-05
1.53418e-05
1.47984e-05
1.42969e-05
1.38915e-05
1.3527e-05
1.32054e-05
1.29209e-05
1.26696e-05
1.24439e-05
1.2238e-05
1.20487e-05
1.18774e-05
1.17253e-05
1.15655e-05
1.14173e-05
1.12828e-05
1.11577e-05
1.10373e-05
1.09225e-05
1.08119e-05
1.07002e-05
1.05938e-05
1.04964e-05
1.04061e-05
1.03214e-05
1.0238e-05
1.01559e-05
1.00761e-05
9.99692e-06
9.92076e-06
9.84429e-06
9.77108e-06
9.69856e-06
9.62618e-06
9.55986e-06
9.49342e-06
9.42672e-06
9.36263e-06
9.29563e-06
2.04592e-05
1.96811e-05
1.89689e-05
1.83352e-05
1.77654e-05
1.7264e-05
1.68156e-05
1.64134e-05
1.60524e-05
1.57237e-05
1.54228e-05
1.51466e-05
1.48906e-05
1.46554e-05
1.4435e-05
1.42299e-05
1.40351e-05
1.38605e-05
1.36759e-05
1.35021e-05
1.33435e-05
1.31931e-05
1.30472e-05
1.29085e-05
1.27775e-05
1.26544e-05
1.25368e-05
1.24235e-05
1.23163e-05
1.22102e-05
1.2106e-05
1.19991e-05
1.19031e-05
1.18056e-05
1.17145e-05
1.16217e-05
1.15356e-05
1.14494e-05
1.13671e-05
1.12832e-05
2.33951e-05
2.24392e-05
2.16037e-05
2.08682e-05
2.02167e-05
1.96381e-05
1.91185e-05
1.86475e-05
1.82166e-05
1.78208e-05
1.74563e-05
1.71183e-05
1.68055e-05
1.65129e-05
1.62422e-05
1.59889e-05
1.57507e-05
1.55261e-05
1.53161e-05
1.51147e-05
1.49382e-05
1.47494e-05
1.45688e-05
1.43997e-05
1.42452e-05
1.40972e-05
1.39589e-05
1.38258e-05
1.37006e-05
1.35769e-05
1.34615e-05
1.33352e-05
1.32286e-05
1.31126e-05
1.30044e-05
1.28955e-05
1.27948e-05
1.2699e-05
1.26047e-05
1.2514e-05
2.40924e-05
2.31564e-05
2.23297e-05
2.15954e-05
2.09384e-05
2.03489e-05
1.98155e-05
1.93286e-05
1.88779e-05
1.84593e-05
1.8069e-05
1.7706e-05
1.73703e-05
1.70528e-05
1.67565e-05
1.648e-05
1.62242e-05
1.59866e-05
1.57644e-05
1.55562e-05
1.53624e-05
1.51789e-05
1.50128e-05
1.48475e-05
1.46751e-05
1.4511e-05
1.43613e-05
1.42218e-05
1.40943e-05
1.39668e-05
1.3849e-05
1.37288e-05
1.36211e-05
1.34785e-05
1.33688e-05
1.32576e-05
1.31512e-05
1.30534e-05
1.29553e-05
1.2859e-05
2.26127e-05
2.18375e-05
2.11225e-05
2.04692e-05
1.98752e-05
1.93374e-05
1.88476e-05
1.83953e-05
1.79722e-05
1.75771e-05
1.72089e-05
1.6866e-05
1.65471e-05
1.62486e-05
1.59709e-05
1.57127e-05
1.54728e-05
1.525e-05
1.50444e-05
1.48529e-05
1.46753e-05
1.45072e-05
1.43473e-05
1.41952e-05
1.40336e-05
1.38841e-05
1.37488e-05
1.36196e-05
1.34996e-05
1.33766e-05
1.32633e-05
1.31385e-05
1.30421e-05
1.29033e-05
1.28056e-05
1.27027e-05
1.25971e-05
1.2498e-05
1.23972e-05
1.22974e-05
1.94326e-05
1.8883e-05
1.8327e-05
1.77979e-05
1.73097e-05
1.68642e-05
1.64513e-05
1.60661e-05
1.57063e-05
1.53718e-05
1.50609e-05
1.47713e-05
1.45029e-05
1.42562e-05
1.40272e-05
1.38147e-05
1.36191e-05
1.34374e-05
1.32682e-05
1.31102e-05
1.29657e-05
1.28225e-05
1.26826e-05
1.25459e-05
1.24262e-05
1.23071e-05
1.21962e-05
1.20871e-05
1.19776e-05
1.18667e-05
1.17604e-05
1.16595e-05
1.15669e-05
1.14717e-05
1.13768e-05
1.12805e-05
1.11794e-05
1.10867e-05
1.09927e-05
1.08979e-05
1.53754e-05
1.4803e-05
1.43348e-05
1.39281e-05
1.35658e-05
1.3229e-05
1.2915e-05
1.26285e-05
1.23655e-05
1.21249e-05
1.19054e-05
1.17007e-05
1.15191e-05
1.13477e-05
1.1191e-05
1.1037e-05
1.08831e-05
1.07521e-05
1.06261e-05
1.05115e-05
1.03995e-05
1.02955e-05
1.0194e-05
1.00942e-05
1.0006e-05
9.91512e-06
9.83007e-06
9.74668e-06
9.66825e-06
9.59034e-06
9.51661e-06
9.4401e-06
9.36676e-06
9.29322e-06
9.21975e-06
9.14058e-06
9.06266e-06
8.99054e-06
8.91826e-06
8.84432e-06
1.03653e-05
9.86075e-06
9.55872e-06
9.30728e-06
9.07775e-06
8.87965e-06
8.69369e-06
8.52986e-06
8.37893e-06
8.24423e-06
8.11537e-06
8.00937e-06
7.91365e-06
7.80284e-06
7.70455e-06
7.61192e-06
7.52455e-06
7.44289e-06
7.36557e-06
7.29297e-06
7.22305e-06
7.15786e-06
7.09748e-06
7.041e-06
6.98708e-06
6.93349e-06
6.88229e-06
6.83173e-06
6.7832e-06
6.73341e-06
6.68489e-06
6.63685e-06
6.59014e-06
6.54326e-06
6.4967e-06
6.4456e-06
6.40005e-06
6.35374e-06
6.31068e-06
6.25969e-06
4.94089e-06
4.76173e-06
4.60674e-06
4.4964e-06
4.4064e-06
4.3335e-06
4.2663e-06
4.2058e-06
4.15067e-06
4.10016e-06
4.0549e-06
4.01559e-06
3.97684e-06
3.93767e-06
3.90131e-06
3.8662e-06
3.83297e-06
3.80081e-06
3.77015e-06
3.74063e-06
3.71171e-06
3.68366e-06
3.65714e-06
3.63178e-06
3.60737e-06
3.583e-06
3.55936e-06
3.53544e-06
3.51155e-06
3.48767e-06
3.4649e-06
3.44231e-06
3.41972e-06
3.39699e-06
3.37438e-06
3.35162e-06
3.33028e-06
3.30848e-06
3.28941e-06
3.25709e-06
1.03615e-05
9.8632e-06
9.56378e-06
9.3079e-06
9.08491e-06
8.88051e-06
8.68875e-06
8.52381e-06