/*--------------------------------*- C++ -*----------------------------------*\
| =========                 |                                                 |
| \\      /  F ield         | OpenFOAM: The Open Source CFD Toolbox           |
|  \\    /   O peration     | Version:  2212                                  |
|   \\  /    A nd           | Website:  www.openfoam.com                      |
|    \\/     M anipulation  |                                                 |
\*---------------------------------------------------------------------------*/
FoamFile
{
    version     2.0;
    format      ascii;
    arch        "LSB;label=32;scalar=64";
    class       volScalarField;
    location    "1.65";
    object      p;
}
// * * * * * * * * * * * * * * * * * * * * * * * * * * * * * * * * * * * * * //

dimensions      [0 2 -2 0 0 0 0];

internalField   nonuniform List<scalar> 
6840
(
0.0178573
0.0107429
0.00845147
0.00791365
0.00763929
0.00741709
0.00723048
0.0070641
0.00690302
0.00674371
0.00658627
0.00643065
0.00627608
0.00612153
0.00596714
0.00581411
0.00566268
0.00550853
0.00534279
0.00515045
0.0106785
0.00994469
0.0088518
0.00818583
0.00778325
0.00750954
0.0072984
0.00711223
0.00693792
0.00677077
0.00660831
0.00644891
0.00629134
0.006135
0.00598012
0.00582734
0.00567683
0.00552681
0.00537663
0.00521222
0.0103303
0.00947875
0.00871449
0.00815536
0.0077792
0.00751118
0.00729552
0.00710261
0.0069242
0.00675574
0.00659237
0.00643192
0.00627394
0.00611841
0.00596525
0.00581445
0.00566632
0.00552193
0.00538379
0.00525878
0.00992097
0.00915824
0.00853947
0.00808814
0.00774416
0.0074751
0.00725543
0.00706654
0.00689857
0.00674092
0.00658494
0.00642915
0.00627426
0.00612087
0.00596931
0.00581995
0.0056734
0.00553062
0.00539318
0.00526966
0.00978673
0.00904554
0.00845737
0.00804923
0.00772724
0.00746045
0.0072388
0.00704796
0.00687686
0.00671961
0.00656884
0.00641754
0.00626474
0.00611199
0.00596043
0.00581055
0.00566267
0.00551697
0.00537271
0.00523329
0.00978673
0.00904554
0.00845736
0.00804922
0.00772723
0.00746043
0.00723877
0.0070479
0.00687676
0.00671944
0.00656858
0.00641713
0.0062641
0.00611099
0.00595887
0.00580813
0.0056589
0.0055112
0.00536443
0.00521829
0.00992096
0.00915823
0.00853946
0.00808813
0.00774413
0.00747505
0.00725534
0.00706639
0.00689832
0.00674052
0.00658428
0.00642809
0.00627256
0.00611815
0.00596496
0.00581298
0.00566219
0.0055127
0.00536493
0.00521647
0.0103303
0.00947875
0.00871448
0.00815534
0.00777917
0.00751113
0.00729543
0.00710245
0.00692394
0.00675531
0.00659166
0.00643077
0.00627205
0.0061153
0.00596015
0.00580602
0.00565227
0.00549834
0.00534361
0.00517958
0.0106785
0.0099447
0.0088518
0.00818583
0.00778324
0.00750951
0.00729835
0.00711214
0.00693776
0.0067705
0.00660786
0.00644816
0.00629009
0.00613291
0.00597667
0.00582161
0.0056671
0.0055102
0.0053481
0.00515284
0.0178573
0.0107429
0.00845149
0.00791366
0.00763931
0.00741711
0.0072305
0.00706412
0.00690304
0.00674373
0.0065863
0.00643068
0.00627611
0.00612156
0.00596716
0.00581415
0.00566274
0.00550861
0.00534286
0.00515049
0.0106785
0.00994468
0.00885179
0.00818582
0.00778322
0.0075095
0.00729833
0.00711212
0.00693774
0.00677048
0.00660783
0.00644814
0.00629006
0.00613289
0.00597665
0.00582158
0.00566705
0.00551013
0.00534801
0.0051528
0.00996195
0.00993025
0.00920204
0.00849155
0.00804521
0.00772929
0.00747045
0.00724287
0.00703842
0.00685028
0.00667292
0.00650281
0.00633723
0.00617452
0.00601429
0.00585688
0.00570211
0.00554933
0.00540455
0.00527677
0.00903648
0.00916267
0.0088598
0.0084436
0.00807648
0.00775787
0.00747937
0.00723901
0.00702657
0.00683227
0.00664939
0.00647475
0.00630652
0.00614321
0.00598383
0.005828
0.00567593
0.00552857
0.00538886
0.00526388
0.0086181
0.00866161
0.00849605
0.00823312
0.00795275
0.00768142
0.00743041
0.00720404
0.00700101
0.0068145
0.00663772
0.00646751
0.00630233
0.00614127
0.00598392
0.00583011
0.00567974
0.00553308
0.00539102
0.00525441
0.0084021
0.00842392
0.00829672
0.00807919
0.00784674
0.00761755
0.00739469
0.00718146
0.00698057
0.00679307
0.00661641
0.00644711
0.00628342
0.00612422
0.0059685
0.00581576
0.00566573
0.00551858
0.0053746
0.00523372
0.00840209
0.00842392
0.00829671
0.00807918
0.00784673
0.00761752
0.00739465
0.0071814
0.00698046
0.0067929
0.00661615
0.0064467
0.00628281
0.00612331
0.00596715
0.00581377
0.00566293
0.00551487
0.00537088
0.0052293
0.0086181
0.00866161
0.00849604
0.0082331
0.00795272
0.00768137
0.00743032
0.00720389
0.00700077
0.00681412
0.00663711
0.00646653
0.0063008
0.00613887
0.00598017
0.00582428
0.00567084
0.00551983
0.00537208
0.00522319
0.00903648
0.00916267
0.0088598
0.0084436
0.00807646
0.00775784
0.00747931
0.00723891
0.0070264
0.00683198
0.00664891
0.00647395
0.00630522
0.00614109
0.00598033
0.00582223
0.00566636
0.0055126
0.00536044
0.00520831
0.00996197
0.00993027
0.00920205
0.00849156
0.00804523
0.00772931
0.00747047
0.00724289
0.00703845
0.0068503
0.00667295
0.00650284
0.00633726
0.00617455
0.00601432
0.00585692
0.00570217
0.0055494
0.00540465
0.00527689
0.0106786
0.0099447
0.00885181
0.00818585
0.00778327
0.00750955
0.00729841
0.00711225
0.00693794
0.00677079
0.00660833
0.00644895
0.00629138
0.00613502
0.00598014
0.00582739
0.0056769
0.00552689
0.00537674
0.0052123
0.0103302
0.00947874
0.00871447
0.00815533
0.00777916
0.00751111
0.00729541
0.00710243
0.00692393
0.00675529
0.00659165
0.00643075
0.00627204
0.00611529
0.00596014
0.005806
0.00565223
0.00549826
0.00534346
0.00517935
0.00903647
0.00916266
0.00885979
0.00844358
0.00807645
0.00775782
0.0074793
0.00723889
0.00702638
0.00683196
0.00664889
0.00647394
0.00630521
0.00614106
0.00598031
0.0058222
0.00566631
0.00551252
0.0053603
0.00520807
0.00846698
0.00856796
0.00845641
0.00823095
0.00797523
0.00771686
0.00745853
0.00721703
0.00699933
0.00679938
0.00661225
0.0064349
0.00626492
0.00610034
0.00593991
0.0057828
0.00562825
0.00547527
0.00532241
0.00516531
0.00809899
0.00816705
0.00811467
0.00796771
0.00778287
0.00757779
0.00736716
0.00716034
0.00695939
0.00676725
0.00658511
0.00641119
0.00624352
0.00608078
0.0059221
0.00576678
0.00561408
0.00546354
0.00531488
0.00516512
0.0079159
0.00798033
0.00795085
0.007826
0.00766698
0.00749328
0.00730696
0.00711893
0.00693279
0.0067494
0.00657035
0.00639667
0.00622874
0.00606592
0.00590758
0.00575345
0.00560251
0.00545415
0.00530942
0.00516523
0.00791589
0.00798032
0.00795085
0.007826
0.00766697
0.00749326
0.00730694
0.00711889
0.00693274
0.00674931
0.00657022
0.00639647
0.00622845
0.0060655
0.00590703
0.00575279
0.00560175
0.00545342
0.00530944
0.00516537
0.00809899
0.00816705
0.00811467
0.0079677
0.00778286
0.00757777
0.00736713
0.00716028
0.00695929
0.00676709
0.00658485
0.00641078
0.00624291
0.00607987
0.00592079
0.00576494
0.0056116
0.0054605
0.00531235
0.00516127
0.00846699
0.00856797
0.00845642
0.00823097
0.00797524
0.00771688
0.00745855
0.00721705
0.00699936
0.0067994
0.00661227
0.00643493
0.00626496
0.00610039
0.00593996
0.00578286
0.00562831
0.00547535
0.00532249
0.00516539
0.00903649
0.00916269
0.00885982
0.00844362
0.00807649
0.00775789
0.00747939
0.00723903
0.0070266
0.0068323
0.00664942
0.00647478
0.00630656
0.00614327
0.00598389
0.00582807
0.00567601
0.00552866
0.00538894
0.00526391
0.0103303
0.00947877
0.0087145
0.00815537
0.00777922
0.0075112
0.00729554
0.00710263
0.00692423
0.00675576
0.0065924
0.00643196
0.00627399
0.00611845
0.0059653
0.00581451
0.0056664
0.00552203
0.00538391
0.00525893
0.00992095
0.00915822
0.00853945
0.00808812
0.00774412
0.00747504
0.00725533
0.00706638
0.00689831
0.00674051
0.00658428
0.00642809
0.00627257
0.00611815
0.00596496
0.00581296
0.00566214
0.00551259
0.00536469
0.00521597
0.00861809
0.0086616
0.00849603
0.00823309
0.00795271
0.00768135
0.00743031
0.00720388
0.00700076
0.00681411
0.0066371
0.00646653
0.0063008
0.00613887
0.00598016
0.00582427
0.00567082
0.00551979
0.00537203
0.00522317
0.00809898
0.00816704
0.00811466
0.00796769
0.00778285
0.00757776
0.00736711
0.00716027
0.00695928
0.00676707
0.00658484
0.00641077
0.00624289
0.00607986
0.00592078
0.00576493
0.0056116
0.00546052
0.00531242
0.00516143
0.0078011
0.00786024
0.00784831
0.00775292
0.00761331
0.00744784
0.00726769
0.00708328
0.00689942
0.00671923
0.00654435
0.00637467
0.00620963
0.00604866
0.00589127
0.00573693
0.00558503
0.00543561
0.00529001
0.00514231
0.00764998
0.00771287
0.00771663
0.00764298
0.00752285
0.00737646
0.00721355
0.00704213
0.00686802
0.00669453
0.00652355
0.00635597
0.00619213
0.00603197
0.00587527
0.00572174
0.00557086
0.0054229
0.00527983
0.00513449
0.00764998
0.00771288
0.00771663
0.00764298
0.00752285
0.00737646
0.00721355
0.00704213
0.00686801
0.00669452
0.00652353
0.00635594
0.00619209
0.00603191
0.00587521
0.00572169
0.00557084
0.00542297
0.00528019
0.00513495
0.00780111
0.00786025
0.00784832
0.00775293
0.00761332
0.00744785
0.00726771
0.0070833
0.00689944
0.00671925
0.00654437
0.00637469
0.00620965
0.00604869
0.00589131
0.00573697
0.00558506
0.00543564
0.00529004
0.00514233
0.008099
0.00816706
0.00811468
0.00796772
0.00778289
0.00757781
0.00736718
0.00716037
0.00695942
0.00676728
0.00658515
0.00641123
0.00624357
0.00608084
0.00592217
0.00576685
0.00561417
0.00546366
0.00531502
0.0051653
0.00861812
0.00866163
0.00849606
0.00823314
0.00795277
0.00768144
0.00743043
0.00720406
0.00700104
0.00681454
0.00663776
0.00646756
0.00630239
0.00614134
0.00598401
0.00583021
0.00567985
0.00553321
0.00539115
0.00525454
0.00992098
0.00915825
0.00853949
0.00808816
0.00774418
0.00747512
0.00725546
0.00706657
0.0068986
0.00674096
0.00658498
0.0064292
0.00627432
0.00612093
0.00596938
0.00582003
0.00567349
0.00553072
0.00539327
0.00526971
0.00978672
0.00904553
0.00845735
0.00804921
0.00772722
0.00746042
0.00723876
0.0070479
0.00687676
0.00671945
0.00656859
0.00641715
0.00626412
0.00611101
0.00595889
0.00580813
0.00565889
0.00551115
0.00536433
0.00521811
0.00840209
0.00842391
0.0082967
0.00807918
0.00784672
0.00761752
0.00739464
0.0071814
0.00698046
0.0067929
0.00661615
0.00644671
0.00628283
0.00612333
0.00596717
0.00581379
0.00566295
0.0055149
0.00537096
0.00522947
0.00791589
0.00798032
0.00795084
0.00782599
0.00766697
0.00749326
0.00730694
0.00711889
0.00693273
0.00674931
0.00657022
0.00639648
0.00622846
0.00606552
0.00590706
0.00575281
0.00560179
0.00545347
0.00530955
0.00516559
0.00764998
0.00771287
0.00771663
0.00764298
0.00752285
0.00737645
0.00721355
0.00704212
0.00686801
0.00669452
0.00652352
0.00635594
0.00619209
0.00603191
0.00587521
0.0057217
0.00557085
0.00542299
0.00528022
0.00513502
0.00750719
0.00757669
0.00759881
0.00754626
0.00744501
0.00731408
0.00716417
0.00700321
0.00683677
0.00666855
0.00650095
0.0063354
0.0061727
0.00601317
0.00585684
0.00570356
0.00555284
0.0054048
0.00526073
0.00511973
0.00750719
0.0075767
0.00759881
0.00754627
0.00744502
0.00731409
0.00716417
0.00700322
0.00683678
0.00666856
0.00650095
0.00633541
0.00617271
0.00601317
0.00585685
0.00570356
0.00555284
0.0054048
0.00526072
0.00511972
0.00764999
0.00771288
0.00771664
0.00764299
0.00752287
0.00737647
0.00721357
0.00704215
0.00686803
0.00669455
0.00652357
0.00635599
0.00619216
0.006032
0.0058753
0.00572177
0.00557089
0.00542294
0.00527987
0.00513453
0.00791591
0.00798034
0.00795087
0.00782602
0.007667
0.0074933
0.00730699
0.00711895
0.00693282
0.00674943
0.00657039
0.00639671
0.00622879
0.00606598
0.00590765
0.00575353
0.0056026
0.00545425
0.00530954
0.00516537
0.00840211
0.00842394
0.00829673
0.00807921
0.00784676
0.00761757
0.00739471
0.00718149
0.0069806
0.00679311
0.00661646
0.00644716
0.00628349
0.0061243
0.00596859
0.00581585
0.00566584
0.0055187
0.00537474
0.0052339
0.00978675
0.00904556
0.00845738
0.00804925
0.00772726
0.00746047
0.00723883
0.00704799
0.00687689
0.00671964
0.00656888
0.0064176
0.0062648
0.00611207
0.00596051
0.00581063
0.00566275
0.00551705
0.00537278
0.00523334
0.00978673
0.00904554
0.00845736
0.00804923
0.00772724
0.00746045
0.00723881
0.00704797
0.00687687
0.00671962
0.00656886
0.00641757
0.00626477
0.00611203
0.00596047
0.00581058
0.0056627
0.00551698
0.0053727
0.00523326
0.00840209
0.00842392
0.00829671
0.00807919
0.00784674
0.00761755
0.00739469
0.00718147
0.00698058
0.00679308
0.00661643
0.00644713
0.00628346
0.00612426
0.00596855
0.0058158
0.00566577
0.00551863
0.00537466
0.0052338
0.00791589
0.00798033
0.00795085
0.007826
0.00766698
0.00749328
0.00730697
0.00711893
0.0069328
0.00674941
0.00657037
0.00639669
0.00622876
0.00606595
0.00590762
0.00575349
0.00560255
0.0054542
0.00530948
0.00516531
0.00764998
0.00771287
0.00771663
0.00764298
0.00752285
0.00737646
0.00721356
0.00704214
0.00686802
0.00669454
0.00652356
0.00635598
0.00619215
0.00603199
0.00587529
0.00572176
0.00557088
0.00542293
0.00527987
0.00513454
0.00750719
0.0075767
0.00759881
0.00754627
0.00744502
0.00731408
0.00716417
0.00700322
0.00683678
0.00666856
0.00650095
0.00633541
0.00617271
0.00601317
0.00585685
0.00570357
0.00555285
0.00540482
0.00526074
0.00511975
0.00750719
0.0075767
0.00759882
0.00754627
0.00744502
0.00731409
0.00716418
0.00700322
0.00683678
0.00666856
0.00650096
0.00633541
0.00617271
0.00601318
0.00585685
0.00570357
0.00555285
0.00540482
0.00526074
0.00511975
0.00764999
0.00771288
0.00771664
0.00764299
0.00752287
0.00737647
0.00721357
0.00704214
0.00686802
0.00669454
0.00652354
0.00635596
0.00619211
0.00603194
0.00587523
0.00572172
0.00557088
0.00542301
0.00528024
0.00513502
0.00791591
0.00798034
0.00795086
0.00782601
0.00766699
0.00749328
0.00730696
0.00711892
0.00693276
0.00674934
0.00657025
0.00639651
0.00622849
0.00606555
0.00590709
0.00575285
0.00560183
0.00545352
0.00530958
0.0051656
0.00840211
0.00842394
0.00829673
0.0080792
0.00784675
0.00761754
0.00739467
0.00718142
0.00698049
0.00679293
0.00661619
0.00644675
0.00628287
0.00612337
0.00596722
0.00581386
0.00566303
0.00551499
0.00537105
0.00522956
0.00978674
0.00904556
0.00845738
0.00804924
0.00772725
0.00746045
0.00723879
0.00704792
0.00687679
0.00671948
0.00656862
0.00641718
0.00626416
0.00611106
0.00595895
0.0058082
0.00565897
0.00551127
0.00536448
0.0052183
0.00992097
0.00915824
0.00853947
0.00808814
0.00774416
0.00747511
0.00725544
0.00706655
0.00689858
0.00674094
0.00658496
0.00642918
0.0062743
0.00612091
0.00596936
0.00582001
0.00567347
0.00553069
0.00539325
0.00526973
0.0086181
0.00866161
0.00849605
0.00823312
0.00795275
0.00768142
0.00743042
0.00720405
0.00700103
0.00681452
0.00663775
0.00646755
0.00630238
0.00614132
0.00598398
0.00583018
0.00567982
0.00553317
0.0053911
0.00525446
0.00809899
0.00816705
0.00811467
0.00796771
0.00778288
0.00757779
0.00736717
0.00716036
0.00695941
0.00676727
0.00658514
0.00641122
0.00624356
0.00608082
0.00592215
0.00576683
0.00561414
0.0054636
0.00531493
0.00516515
0.00780111
0.00786025
0.00784831
0.00775293
0.00761332
0.00744785
0.0072677
0.0070833
0.00689943
0.00671924
0.00654437
0.00637469
0.00620965
0.00604869
0.00589131
0.00573697
0.00558507
0.00543565
0.00529005
0.00514235
0.00764999
0.00771288
0.00771664
0.00764298
0.00752286
0.00737646
0.00721356
0.00704213
0.00686802
0.00669453
0.00652354
0.00635595
0.0061921
0.00603193
0.00587523
0.00572172
0.00557087
0.00542301
0.00528025
0.00513504
0.00764999
0.00771288
0.00771664
0.00764299
0.00752286
0.00737647
0.00721357
0.00704215
0.00686803
0.00669455
0.00652357
0.00635599
0.00619215
0.00603199
0.00587529
0.00572177
0.00557089
0.00542294
0.00527988
0.00513456
0.00780112
0.00786026
0.00784833
0.00775294
0.00761333
0.00744786
0.00726772
0.00708331
0.00689944
0.00671925
0.00654437
0.0063747
0.00620966
0.0060487
0.00589131
0.00573697
0.00558507
0.00543566
0.00529006
0.00514238
0.008099
0.00816706
0.00811468
0.00796772
0.00778288
0.00757778
0.00736714
0.0071603
0.00695931
0.00676711
0.00658487
0.0064108
0.00624293
0.0060799
0.00592082
0.00576498
0.00561165
0.00546057
0.00531247
0.00516147
0.00861811
0.00866162
0.00849605
0.00823312
0.00795274
0.00768139
0.00743034
0.00720392
0.0070008
0.00681415
0.00663714
0.00646657
0.00630085
0.00613892
0.00598022
0.00582434
0.00567091
0.0055199
0.00537216
0.0052233
0.00992098
0.00915825
0.00853948
0.00808814
0.00774414
0.00747507
0.00725536
0.00706641
0.00689834
0.00674055
0.00658431
0.00642813
0.00627261
0.0061182
0.00596502
0.00581304
0.00566224
0.00551273
0.0053649
0.00521629
0.0103303
0.00947875
0.00871449
0.00815536
0.00777921
0.00751119
0.00729553
0.00710262
0.00692422
0.00675576
0.0065924
0.00643196
0.00627399
0.00611846
0.00596532
0.00581453
0.00566641
0.00552203
0.00538391
0.00525893
0.00903648
0.00916268
0.00885981
0.00844361
0.00807648
0.00775788
0.00747938
0.00723902
0.00702659
0.0068323
0.00664942
0.00647479
0.00630657
0.00614327
0.0059839
0.00582809
0.00567603
0.00552868
0.00538898
0.00526399
0.00846699
0.00856796
0.00845641
0.00823096
0.00797523
0.00771687
0.00745854
0.00721704
0.00699935
0.0067994
0.00661228
0.00643493
0.00626497
0.00610039
0.00593997
0.00578287
0.00562833
0.00547535
0.00532247
0.00516532
0.00809898
0.00816705
0.00811466
0.0079677
0.00778286
0.00757777
0.00736713
0.00716029
0.00695929
0.00676709
0.00658486
0.0064108
0.00624293
0.0060799
0.00592082
0.00576498
0.00561165
0.00546057
0.00531246
0.00516144
0.0079159
0.00798033
0.00795085
0.007826
0.00766698
0.00749327
0.00730695
0.0071189
0.00693275
0.00674933
0.00657024
0.00639649
0.00622847
0.00606554
0.00590708
0.00575283
0.00560181
0.0054535
0.00530956
0.00516558
0.00791591
0.00798034
0.00795086
0.00782602
0.00766699
0.00749329
0.00730698
0.00711895
0.00693281
0.00674942
0.00657038
0.0063967
0.00622877
0.00606596
0.00590763
0.00575349
0.00560255
0.0054542
0.00530949
0.00516534
0.008099
0.00816706
0.00811469
0.00796773
0.00778289
0.00757781
0.00736719
0.00716037
0.00695942
0.00676728
0.00658514
0.00641122
0.00624355
0.00608082
0.00592215
0.00576682
0.00561413
0.00546361
0.00531496
0.00516526
0.008467
0.00856798
0.00845643
0.00823098
0.00797525
0.00771689
0.00745856
0.00721706
0.00699937
0.00679941
0.00661228
0.00643494
0.00626497
0.00610039
0.00593997
0.00578285
0.0056283
0.00547533
0.00532248
0.0051654
0.0090365
0.00916269
0.00885982
0.00844361
0.00807648
0.00775785
0.00747933
0.00723892
0.00702641
0.006832
0.00664893
0.00647398
0.00630525
0.00614112
0.00598037
0.00582227
0.00566639
0.00551261
0.00536041
0.00520822
0.0103303
0.00947876
0.0087145
0.00815536
0.00777919
0.00751114
0.00729545
0.00710247
0.00692396
0.00675533
0.00659169
0.0064308
0.00627209
0.00611534
0.0059602
0.00580607
0.00565232
0.00549838
0.00534365
0.00517963
0.0106785
0.00994469
0.00885181
0.00818584
0.00778326
0.00750954
0.00729841
0.00711224
0.00693794
0.00677079
0.00660833
0.00644895
0.00629139
0.00613506
0.00598019
0.00582743
0.00567695
0.00552695
0.00537682
0.00521246
0.00996196
0.00993026
0.00920205
0.00849156
0.00804522
0.0077293
0.00747046
0.00724288
0.00703844
0.0068503
0.00667295
0.00650285
0.00633728
0.00617458
0.00601437
0.00585698
0.00570224
0.00554948
0.00540475
0.00527704
0.00903648
0.00916267
0.0088598
0.00844359
0.00807646
0.00775783
0.00747931
0.00723891
0.0070264
0.00683199
0.00664892
0.00647397
0.00630525
0.00614112
0.00598038
0.00582229
0.00566642
0.00551266
0.00536047
0.00520825
0.0086181
0.00866161
0.00849604
0.0082331
0.00795272
0.00768137
0.00743032
0.0072039
0.00700078
0.00681413
0.00663712
0.00646656
0.00630083
0.00613891
0.00598021
0.00582433
0.0056709
0.00551989
0.00537213
0.00522326
0.0084021
0.00842392
0.00829671
0.00807919
0.00784674
0.00761753
0.00739466
0.00718141
0.00698048
0.00679292
0.00661617
0.00644673
0.00628284
0.00612335
0.00596719
0.00581382
0.00566297
0.00551493
0.00537098
0.00522949
0.00840211
0.00842394
0.00829673
0.0080792
0.00784676
0.00761756
0.0073947
0.00718148
0.00698059
0.00679309
0.00661644
0.00644714
0.00628346
0.00612426
0.00596854
0.00581579
0.00566576
0.00551861
0.00537464
0.00523378
0.00861812
0.00866163
0.00849607
0.00823314
0.00795277
0.00768144
0.00743043
0.00720406
0.00700104
0.00681453
0.00663775
0.00646754
0.00630237
0.00614131
0.00598397
0.00583015
0.00567977
0.00553311
0.00539104
0.00525443
0.0090365
0.0091627
0.00885983
0.00844363
0.0080765
0.0077579
0.0074794
0.00723904
0.0070266
0.00683231
0.00664942
0.00647478
0.00630656
0.00614326
0.00598388
0.00582804
0.00567597
0.00552859
0.00538886
0.00526386
0.00996198
0.00993028
0.00920207
0.00849158
0.00804524
0.00772932
0.00747048
0.0072429
0.00703846
0.00685031
0.00667296
0.00650286
0.00633728
0.00617457
0.00601434
0.00585694
0.00570218
0.00554938
0.0054046
0.00527682
0.0106786
0.00994471
0.00885182
0.00818585
0.00778326
0.00750953
0.00729836
0.00711216
0.00693778
0.00677051
0.00660787
0.00644818
0.00629011
0.00613294
0.0059767
0.00582164
0.00566713
0.00551022
0.00534814
0.00515292
0.0178573
0.0107429
0.00845148
0.00791365
0.0076393
0.0074171
0.00723049
0.00706412
0.00690304
0.00674373
0.0065863
0.00643069
0.00627613
0.0061216
0.00596722
0.00581421
0.0056628
0.00550868
0.00534298
0.00515075
0.0106785
0.00994469
0.0088518
0.00818582
0.00778323
0.00750951
0.00729834
0.00711214
0.00693776
0.0067705
0.00660786
0.00644817
0.00629011
0.00613295
0.00597672
0.00582167
0.00566717
0.00551028
0.00534822
0.00515308
0.0103303
0.00947874
0.00871447
0.00815534
0.00777917
0.00751112
0.00729543
0.00710245
0.00692394
0.00675531
0.00659167
0.00643079
0.00627208
0.00611534
0.0059602
0.00580607
0.00565233
0.0054984
0.00534367
0.00517965
0.00992096
0.00915823
0.00853946
0.00808813
0.00774413
0.00747505
0.00725534
0.00706639
0.00689833
0.00674053
0.00658429
0.00642812
0.0062726
0.00611818
0.005965
0.00581302
0.00566221
0.00551269
0.00536482
0.00521615
0.00978673
0.00904555
0.00845737
0.00804923
0.00772723
0.00746044
0.00723877
0.00704791
0.00687677
0.00671946
0.0065686
0.00641716
0.00626413
0.00611102
0.0059589
0.00580815
0.00565891
0.00551119
0.00536438
0.00521818
0.00978674
0.00904556
0.00845738
0.00804924
0.00772725
0.00746047
0.00723882
0.00704798
0.00687688
0.00671963
0.00656886
0.00641757
0.00626477
0.00611203
0.00596046
0.00581057
0.00566268
0.00551695
0.00537266
0.00523319
0.00992099
0.00915826
0.00853949
0.00808816
0.00774418
0.00747512
0.00725545
0.00706656
0.00689859
0.00674095
0.00658497
0.00642918
0.0062743
0.0061209
0.00596934
0.00581997
0.00567342
0.00553061
0.00539313
0.00526955
0.0103303
0.00947877
0.00871451
0.00815538
0.00777923
0.0075112
0.00729555
0.00710263
0.00692423
0.00675577
0.0065924
0.00643196
0.00627398
0.00611844
0.00596529
0.00581449
0.00566635
0.00552194
0.00538376
0.00525871
0.0106786
0.00994472
0.00885183
0.00818586
0.00778328
0.00750957
0.00729842
0.00711226
0.00693795
0.0067708
0.00660834
0.00644896
0.00629139
0.00613504
0.00598015
0.00582739
0.00567688
0.00552684
0.00537665
0.00521217
0.0178574
0.0107429
0.0084515
0.00791367
0.00763932
0.00741712
0.00723051
0.00706414
0.00690305
0.00674374
0.00658631
0.00643069
0.00627613
0.00612158
0.00596718
0.00581417
0.00566275
0.00550861
0.00534285
0.00515045
0.00526862
0.00492394
0.00468564
0.00454097
0.00440179
0.00426047
0.00411904
0.00397817
0.00383865
0.00369985
0.00356217
0.00342591
0.00329262
0.00316073
0.00302919
0.00289818
0.00276798
0.00263949
0.00251262
0.00238772
0.00226346
0.00214033
0.00201851
0.00189835
0.00177962
0.00166108
0.00154351
0.0014266
0.00131093
0.0011973
0.00108356
0.000968598
0.000854261
0.000741394
0.00062925
0.000516705
0.000402675
0.000287128
0.000173951
5.33546e-05
0.00529766
0.00497815
0.00469654
0.00453173
0.0043917
0.00425122
0.00411021
0.00396985
0.00383036
0.00369129
0.00355337
0.00341666
0.00328269
0.00315
0.00301737
0.00288562
0.00275519
0.00262679
0.00250006
0.00237531
0.00225135
0.00212899
0.00200862
0.00188976
0.00177164
0.00165328
0.00153576
0.00141906
0.00130361
0.00119022
0.00107694
0.000962381
0.00084832
0.000735768
0.000623896
0.000511494
0.000397721
0.000283016
0.000170052
5.19574e-05
0.00523861
0.00498478
0.00472084
0.00453968
0.00439016
0.00424142
0.00409458
0.00395237
0.0038128
0.00367456
0.00353775
0.00340164
0.0032678
0.00313559
0.00300402
0.00287366
0.00274458
0.00261715
0.00249102
0.00236647
0.00224235
0.00212005
0.00199994
0.00188115
0.0017629
0.00164466
0.0015276
0.00141129
0.00129632
0.00118342
0.00107081
0.000956921
0.000843514
0.000731332
0.000619886
0.000508197
0.000394798
0.000280441
0.000168383
5.13013e-05
0.0051893
0.00498075
0.00475201
0.00456722
0.00440951
0.00425818
0.00411103
0.00396795
0.00382768
0.00368919
0.00355213
0.0034164
0.00328241
0.0031498
0.00301811
0.00288756
0.00275828
0.00263036
0.00250348
0.00237796
0.0022532
0.00212918
0.00200599
0.00188421
0.00176415
0.00164538
0.00152789
0.00141146
0.00129656
0.00118287
0.0010696
0.000955451
0.000842095
0.000730265
0.00061958
0.000508515
0.000395309
0.000281111
0.0001693
5.14573e-05
0.00514961
0.00496038
0.00475626
0.00457875
0.00441802
0.00426437
0.00411582
0.00397182
0.00383114
0.00369244
0.0035553
0.00341966
0.0032857
0.00315322
0.00302188
0.0028916
0.00276255
0.00263474
0.00250816
0.0023828
0.00225876
0.00213583
0.00201351
0.00189185
0.00177135
0.00165218
0.00153462
0.00141856
0.00130334
0.0011884
0.00107358
0.000958935
0.0008454
0.000732945
0.000621624
0.000509975
0.000396195
0.000281783
0.000169825
5.13449e-05
0.00510468
0.00493013
0.00474906
0.00458029
0.00442085
0.00426758
0.00411937
0.00397576
0.00383554
0.00369712
0.00355997
0.00342417
0.0032899
0.00315709
0.00302542
0.00289504
0.00276598
0.00263816
0.00251162
0.00238636
0.00226239
0.00213966
0.00201824
0.00189753
0.00177694
0.001657
0.00153867
0.00142209
0.0013069
0.0011927
0.00107887
0.000965267
0.000852143
0.000739093
0.000627065
0.000514824
0.000400354
0.000285613
0.000172499
5.22868e-05
0.00505363
0.00489491
0.00473565
0.0045749
0.00441834
0.00426734
0.00412113
0.00397885
0.00383893
0.00370014
0.00356249
0.00342627
0.0032915
0.00315795
0.00302568
0.00289506
0.00276602
0.00263835
0.00251198
0.00238699
0.00226331
0.00214086
0.00201976
0.00189923
0.00177878
0.00165899
0.00154118
0.00142497
0.00131019
0.00119688
0.00108328
0.000969175
0.000856004
0.000743726
0.000632604
0.000521175
0.000406858
0.000291361
0.000176446
5.4271e-05
0.00500541
0.00486552
0.00471868
0.00456272
0.00441044
0.00426318
0.00411947
0.00397774
0.00383739
0.00369838
0.00356091
0.00342509
0.00329054
0.0031566
0.00302354
0.00289233
0.00276306
0.00263558
0.00250961
0.00238493
0.00226152
0.00213922
0.00201842
0.00189803
0.00177896
0.00166153
0.00154525
0.00142951
0.00131482
0.0012019
0.00108826
0.000973516
0.000860066
0.00074794
0.000635872
0.000524436
0.000410935
0.000294493
0.000177919
5.51789e-05
0.00502944
0.0048725
0.00470508
0.00454536
0.00439603
0.00425056
0.00410705
0.00396588
0.00382672
0.003689
0.00355287
0.00341845
0.00328533
0.00315361
0.00302354
0.00289483
0.002766
0.00263838
0.00251244
0.0023876
0.0022639
0.00214116
0.00201977
0.00189948
0.00178157
0.00166443
0.00154783
0.00143166
0.0013163
0.00120289
0.00108901
0.00097366
0.000859391
0.000746818
0.000634521
0.000522869
0.000409224
0.000292667
0.000175969
5.44056e-05
0.00515934
0.00490786
0.00470438
0.0045564
0.00441291
0.00426731
0.00412336
0.0039821
0.00384308
0.00370503
0.00356788
0.00343291
0.00330038
0.00316899
0.00303893
0.00290978
0.00278028
0.00265183
0.00252507
0.00239969
0.00227546
0.00215189
0.00202915
0.00190786
0.00178874
0.00167033
0.00155251
0.00143555
0.00131974
0.00120608
0.00109206
0.000976383
0.000861413
0.000748055
0.000635474
0.000523926
0.000410693
0.000294132
0.000177344
5.51735e-05
0.00526848
0.00492391
0.00468538
0.00454069
0.00440109
0.00425965
0.00411915
0.00397842
0.00383897
0.00370021
0.00356234
0.00342668
0.00329347
0.00316082
0.00302894
0.00289823
0.0027681
0.00263952
0.00251279
0.00238755
0.00226358
0.00214058
0.00201882
0.00189861
0.00177983
0.00166147
0.00154373
0.00142684
0.00131114
0.00119755
0.00108382
0.000968765
0.000854382
0.000741375
0.000629133
0.000517738
0.000404691
0.00028876
0.000174728
5.31773e-05
0.00515937
0.00490785
0.00470468
0.00455666
0.00441356
0.00426824
0.00412341
0.00398193
0.00384277
0.00370463
0.00356768
0.00343207
0.00329943
0.0031688
0.00303914
0.00290958
0.00277999
0.00265167
0.00252473
0.00239975
0.00227519
0.00215149
0.00202859
0.00190737
0.0017883
0.00166971
0.00155208
0.00143511
0.00131936
0.00120566
0.00109163
0.000976108
0.000861267
0.000748207
0.000635965
0.000523044
0.000408247
0.000291912
0.000176247
5.52151e-05
0.00513385
0.00492866
0.00472642
0.00456519
0.00441953
0.00427354
0.00412912
0.00398777
0.00384832
0.00371016
0.00357352
0.00343762
0.00330395
0.00317166
0.00304009
0.00290902
0.0027791
0.00265096
0.00252423
0.00239952
0.00227486
0.00215165
0.00202952
0.00190868
0.00178947
0.00167019
0.0015522
0.00143482
0.00131872
0.00120501
0.00109103
0.00097511
0.00085985
0.000746394
0.000634388
0.000522346
0.000407705
0.00029126
0.000176759
5.57741e-05
0.00508213
0.004905
0.00472173
0.00455744
0.0044053
0.00425583
0.00410978
0.00396706
0.00382704
0.00368927
0.00355316
0.00341851
0.00328472
0.00315236
0.0030216
0.00289183
0.00276322
0.00263601
0.00251016
0.0023851
0.00226079
0.00213755
0.00201552
0.00189466
0.00177519
0.00165691
0.00153959
0.00142305
0.00130771
0.00119329
0.00107893
0.000964041
0.000849871
0.000736392
0.00062394
0.000511925
0.00039843
0.000283869
0.000171739
5.40323e-05
0.00509198
0.00492246
0.00474672
0.00458167
0.00442488
0.0042721
0.0041234
0.00397904
0.00383801
0.00369931
0.00356235
0.0034274
0.00329338
0.0031604
0.00302893
0.00289865
0.00276962
0.00264169
0.00251508
0.00238941
0.00226521
0.00214158
0.00201898
0.00189786
0.00177784
0.00165915
0.00154109
0.00142424
0.00130826
0.00119208
0.00107619
0.0009614
0.00084746
0.000733716
0.000620563
0.000507608
0.000394473
0.000281628
0.000170197
5.40206e-05
0.00507178
0.00490872
0.00474609
0.00458839
0.00443429
0.00428273
0.00413414
0.00398886
0.00384656
0.00370683
0.00356922
0.00343343
0.00329895
0.00316563
0.00303379
0.0029034
0.0027742
0.00264615
0.00251939
0.0023937
0.00226908
0.00214528
0.00202268
0.0019014
0.00178113
0.00166217
0.00154452
0.00142778
0.00131153
0.00119522
0.00107896
0.000963802
0.000849288
0.000734587
0.000619687
0.000504871
0.000391094
0.000278756
0.000167753
5.36901e-05
0.00503879
0.00488389
0.00473843
0.00458879
0.00443831
0.00429007
0.00414374
0.00399885
0.00385596
0.00371552
0.00357724
0.00344069
0.00330552
0.00317171
0.00303925
0.00290803
0.00277814
0.00264955
0.00252224
0.00239612