/*--------------------------------*- C++ -*----------------------------------*\
| =========                 |                                                 |
| \\      /  F ield         | OpenFOAM: The Open Source CFD Toolbox           |
|  \\    /   O peration     | Version:  2212                                  |
|   \\  /    A nd           | Website:  www.openfoam.com                      |
|    \\/     M anipulation  |                                                 |
\*---------------------------------------------------------------------------*/
FoamFile
{
    version     2.0;
    format      ascii;
    arch        "LSB;label=32;scalar=64";
    class       volVectorField;
    location    "1.65";
    object      U;
}
// * * * * * * * * * * * * * * * * * * * * * * * * * * * * * * * * * * * * * //

dimensions      [0 1 -1 0 0 0 0];

internalField   nonuniform List<vector> 
6840
(
(0.0956456 -0.00836005 -0.00836005)
(0.0904939 0.00152203 0.00152204)
(0.0790682 0.00242975 0.00242976)
(0.0713011 0.00148774 0.00148776)
(0.0661792 0.000830428 0.000830458)
(0.0623222 0.000563625 0.000563675)
(0.0592201 0.000426204 0.000426264)
(0.0566837 0.000323708 0.000323775)
(0.0545478 0.000252691 0.000252796)
(0.0526939 0.000202055 0.000202228)
(0.0510529 0.00016548 0.000165683)
(0.0495857 0.000139093 0.000139277)
(0.0482598 0.000118651 0.000118804)
(0.0470465 0.000101495 0.000102216)
(0.0459309 8.56603e-05 8.78746e-05)
(0.0449035 6.99183e-05 7.51858e-05)
(0.0439648 5.39136e-05 6.43303e-05)
(0.043114 3.14474e-05 5.30742e-05)
(0.0424486 2.95833e-05 7.79717e-05)
(0.0408655 -0.00039376 -0.000230294)
(0.0999088 0.001297 0.000712558)
(0.0969668 0.00365591 0.00274724)
(0.0935345 0.00264025 0.00211811)
(0.089589 0.00182053 0.00162054)
(0.0858317 0.00152895 0.00139047)
(0.0825893 0.00135156 0.00116093)
(0.079864 0.00117981 0.000896793)
(0.0775648 0.00104137 0.00069162)
(0.0755538 0.000944317 0.000559632)
(0.0737443 0.000868322 0.000478454)
(0.0720892 0.000797807 0.000430462)
(0.0705585 0.000728089 0.00040183)
(0.069132 0.000663218 0.000383998)
(0.0677923 0.000607257 0.000373953)
(0.0665237 0.000559382 0.000370764)
(0.0653138 0.00051289 0.000370309)
(0.0641638 0.000457297 0.000365176)
(0.0630631 0.000387454 0.000350185)
(0.0620804 0.000300437 0.000342871)
(0.0603684 0.00029905 0.000472014)
(0.099413 0.000345243 0.000270233)
(0.0988664 0.00201911 0.00187489)
(0.0979215 0.00257326 0.00218895)
(0.0963659 0.0023801 0.00190827)
(0.0946334 0.0021145 0.00162643)
(0.0929724 0.00192739 0.00141813)
(0.0913644 0.00180258 0.00127028)
(0.0898544 0.00170743 0.00115851)
(0.0884553 0.00160834 0.00106745)
(0.0871591 0.00150032 0.000994334)
(0.0859584 0.00139375 0.000943936)
(0.0848385 0.00129629 0.000913212)
(0.0837806 0.00120923 0.000897084)
(0.0827696 0.00113038 0.000890758)
(0.0817949 0.00105769 0.000890903)
(0.0808488 0.000989974 0.00089586)
(0.0799223 0.000924463 0.000904322)
(0.079 0.000854176 0.000914438)
(0.0780536 0.000799993 0.0009646)
(0.0768288 0.00087684 0.00124637)
(0.0995405 0.000245048 0.0003219)
(0.0992576 0.00105564 0.00154092)
(0.098849 0.0015024 0.00211441)
(0.0981249 0.00157952 0.00209153)
(0.0973373 0.00151494 0.00188595)
(0.0965857 0.00144664 0.00166555)
(0.0958668 0.00141052 0.00149743)
(0.0952001 0.00137964 0.00137062)
(0.094573 0.00133429 0.0012833)
(0.0939304 0.00126384 0.00122705)
(0.0933057 0.00117523 0.00118894)
(0.0926972 0.00108111 0.00116515)
(0.0920965 0.000991817 0.00115199)
(0.0914971 0.00091148 0.00114725)
(0.0908949 0.000840491 0.00114857)
(0.090286 0.000777496 0.00115453)
(0.0896659 0.000721261 0.00116474)
(0.0890271 0.000673061 0.00118264)
(0.0883378 0.000643268 0.00123237)
(0.0875644 0.000710932 0.00142966)
(0.0993802 3.37798e-05 5.89893e-05)
(0.0992678 0.000274404 0.00120004)
(0.0989806 0.000432388 0.00188841)
(0.098475 0.000483465 0.00200627)
(0.0979962 0.000478808 0.00191429)
(0.0975722 0.000465385 0.00173413)
(0.0971835 0.000452522 0.00154634)
(0.0968352 0.000441684 0.00138704)
(0.0965376 0.000435009 0.00126755)
(0.0962871 0.000426396 0.00119549)
(0.0960195 0.000408141 0.00116602)
(0.0957361 0.000382714 0.00116088)
(0.0954377 0.000355508 0.00116548)
(0.095116 0.000329857 0.00117428)
(0.0947668 0.000307225 0.00118606)
(0.09439 0.000288422 0.00120028)
(0.0939864 0.000274982 0.00121664)
(0.0935584 0.000269458 0.00123568)
(0.0930914 0.000273932 0.00126499)
(0.0925343 0.000314096 0.00135211)
(0.0993802 -3.37748e-05 5.89847e-05)
(0.0992678 -0.000274378 0.00120003)
(0.0989806 -0.000432334 0.0018884)
(0.098475 -0.000483377 0.00200627)
(0.0979963 -0.000478667 0.00191428)
(0.0975723 -0.000465161 0.00173412)
(0.0971836 -0.000452169 0.00154632)
(0.0968355 -0.000441131 0.001387)
(0.096538 -0.00043414 0.00126751)
(0.0962878 -0.000425024 0.00119545)
(0.0960205 -0.000405965 0.00116601)
(0.0957377 -0.000379259 0.00116093)
(0.09544 -0.000350024 0.00116564)
(0.0951192 -0.000321145 0.00117465)
(0.0947714 -0.000293433 0.00118679)
(0.0943962 -0.000266566 0.00120138)
(0.0939946 -0.000239418 0.00121758)
(0.0935686 -0.000211336 0.00123396)
(0.0931193 -0.0001853 0.00125007)
(0.0926208 -0.000173937 0.00128566)
(0.0995405 -0.000245046 0.000321899)
(0.0992576 -0.00105563 0.00154092)
(0.098849 -0.00150237 0.0021144)
(0.098125 -0.00157947 0.00209152)
(0.0973374 -0.00151486 0.00188594)
(0.096586 -0.00144652 0.00166552)
(0.0958672 -0.00141033 0.00149739)
(0.0952007 -0.00137935 0.00137055)
(0.094574 -0.00133386 0.00128321)
(0.093932 -0.00126321 0.00122694)
(0.0933082 -0.00117422 0.00118885)
(0.0927012 -0.00107945 0.00116512)
(0.0921026 -0.000988984 0.00115206)
(0.0915068 -0.000906596 0.00114744)
(0.0909101 -0.000832139 0.00114869)
(0.09031 -0.000763065 0.00115423)
(0.0897035 -0.000695498 0.00116252)
(0.0890879 -0.000624899 0.00117167)
(0.0884679 -0.000550523 0.00118187)
(0.0878729 -0.000470857 0.00115496)
(0.099413 -0.000345246 0.000270232)
(0.0988664 -0.00201912 0.00187489)
(0.0979215 -0.00257327 0.00218895)
(0.096366 -0.00238011 0.00190826)
(0.0946336 -0.00211452 0.00162642)
(0.0929726 -0.00192743 0.00141811)
(0.0913647 -0.00180264 0.00127026)
(0.089855 -0.00170753 0.00115846)
(0.0884563 -0.00160851 0.00106738)
(0.0871607 -0.0015006 0.000994222)
(0.085961 -0.0013942 0.000943748)
(0.0848427 -0.00129697 0.000912928)
(0.0837874 -0.0012102 0.000896658)
(0.082781 -0.00113171 0.000890067)
(0.0818145 -0.0010595 0.000889601)
(0.080883 -0.000992429 0.000893217)
(0.0799824 -0.000927005 0.000898325)
(0.0791116 -0.000852233 0.000897297)
(0.0782945 -0.000764756 0.000903043)
(0.0773969 -0.000600472 0.000758294)
(0.0999088 -0.001297 0.000712557)
(0.0969668 -0.00365593 0.00274724)
(0.0935345 -0.00264028 0.0021181)
(0.0895891 -0.00182058 0.00162053)
(0.0858317 -0.00152903 0.00139046)
(0.0825894 -0.00135169 0.00116092)
(0.0798641 -0.00118007 0.000896755)
(0.0775651 -0.00104184 0.000691565)
(0.0755544 -0.000945112 0.00055955)
(0.0737452 -0.000869645 0.000478338)
(0.0720908 -0.000799986 0.000430334)
(0.0705611 -0.000731654 0.000401742)
(0.0691362 -0.000669065 0.000384028)
(0.0677994 -0.000616816 0.000373738)
(0.0665363 -0.000575238 0.000369626)
(0.0653367 -0.000539454 0.000366832)
(0.0642052 -0.000503136 0.000359993)
(0.0631409 -0.000461638 0.000333831)
(0.0622698 -0.00041185 0.000296403)
(0.060898 -0.00010079 -0.00019085)
(0.0956456 0.00836005 -0.00836005)
(0.0904939 -0.00152204 0.00152203)
(0.0790682 -0.00242976 0.00242975)
(0.0713011 -0.00148776 0.00148773)
(0.0661792 -0.000830464 0.000830426)
(0.0623222 -0.000563681 0.00056362)
(0.0592201 -0.000426274 0.000426197)
(0.0566837 -0.000323788 0.000323699)
(0.0545477 -0.000252813 0.000252678)
(0.0526938 -0.000202252 0.000202039)
(0.0510528 -0.000165713 0.000165457)
(0.0495856 -0.000139317 0.000139063)
(0.0482598 -0.000118851 0.000118606)
(0.0470463 -0.000102288 0.00010146)
(0.0459307 -8.79758e-05 8.56336e-05)
(0.0449032 -7.52851e-05 6.98577e-05)
(0.0439644 -6.44454e-05 5.38434e-05)
(0.0431134 -5.3208e-05 3.13717e-05)
(0.0424479 -7.81462e-05 2.95438e-05)
(0.040864 0.000230122 -0.000393728)
(0.0999088 0.000712558 0.001297)
(0.0969668 0.00274724 0.00365593)
(0.0935345 0.0021181 0.00264029)
(0.0895891 0.00162053 0.00182058)
(0.0858317 0.00139046 0.00152903)
(0.0825894 0.00116092 0.00135168)
(0.0798642 0.00089676 0.00118005)
(0.0775651 0.000691571 0.00104182)
(0.0755544 0.000559557 0.000945084)
(0.0737453 0.000478348 0.000869608)
(0.0720909 0.000430344 0.000799931)
(0.0705612 0.000401756 0.00073158)
(0.0691364 0.000384048 0.000668976)
(0.0677997 0.00037377 0.000616757)
(0.0665365 0.000369653 0.000575156)
(0.0653371 0.000366841 0.000539337)
(0.0642058 0.000359993 0.000503001)
(0.0631417 0.000333832 0.000461545)
(0.0622708 0.000296334 0.000411706)
(0.0609001 -0.000191201 0.000100543)
(0.100226 0.000720815 0.000720819)
(0.09996 0.00198273 0.00198274)
(0.0997822 0.00245186 0.00245187)
(0.0987879 0.00241967 0.00241969)
(0.0972752 0.00220088 0.00220093)
(0.0957742 0.00181157 0.00181165)
(0.0943918 0.00138253 0.00138266)
(0.093162 0.00107028 0.00107051)
(0.0920737 0.000854207 0.000854592)
(0.0911092 0.000702071 0.000702704)
(0.0902529 0.000590186 0.000591191)
(0.0894817 0.000505745 0.000507357)
(0.0887744 0.000442503 0.000445224)
(0.0881215 0.000393324 0.000398123)
(0.0875203 0.000349909 0.000358574)
(0.0869695 0.000306628 0.000322365)
(0.0864512 0.000261989 0.000289644)
(0.0859411 0.000224087 0.000275897)
(0.0854325 0.000127011 0.000226296)
(0.0850214 -0.00020779 -8.66067e-06)
(0.10014 0.000775028 0.000869257)
(0.100454 0.00196244 0.00196359)
(0.100911 0.0024276 0.00233453)
(0.100978 0.00252669 0.00244126)
(0.100694 0.00242641 0.00233672)
(0.100224 0.00219775 0.00211235)
(0.099708 0.00191717 0.00182303)
(0.0991821 0.00166666 0.00157515)
(0.0986862 0.00146433 0.00138924)
(0.0982371 0.00129868 0.00124925)
(0.0978407 0.00116249 0.00114577)
(0.0974931 0.0010507 0.00107133)
(0.0971891 0.000958846 0.00101786)
(0.0969233 0.000881562 0.000977811)
(0.0966898 0.000814956 0.00094789)
(0.0964824 0.000756766 0.00092812)
(0.0962934 0.000704181 0.000918954)
(0.096114 0.000654562 0.000920247)
(0.0959372 0.000604296 0.0009363)
(0.0959136 0.000524067 0.000924542)
(0.100093 0.000445945 0.000763201)
(0.100504 0.00119454 0.00174901)
(0.101105 0.00158691 0.00212953)
(0.101634 0.00174059 0.00223461)
(0.101979 0.00178255 0.00228686)
(0.102171 0.00172952 0.00223554)
(0.102252 0.00160896 0.00211532)
(0.102277 0.00146179 0.00196372)
(0.102279 0.00130771 0.00180088)
(0.102271 0.00116108 0.00165087)
(0.102265 0.00103609 0.00154108)
(0.102263 0.000931604 0.00146303)
(0.102268 0.000841876 0.00140719)
(0.102279 0.000764558 0.00136816)
(0.102296 0.0006969 0.00134234)
(0.102316 0.000637428 0.00132732)
(0.102338 0.000584682 0.00132218)
(0.10236 0.000537692 0.00132846)
(0.102385 0.000497237 0.00135159)
(0.102518 0.0004496 0.00137642)
(0.100087 0.000144404 0.000707013)
(0.100477 0.000390547 0.00161776)
(0.101066 0.000541205 0.00203458)
(0.101694 0.000610299 0.00211746)
(0.102269 0.000636252 0.00214973)
(0.102743 0.000627184 0.00217894)
(0.103125 0.000595382 0.00213283)
(0.103429 0.00055021 0.00204238)
(0.103682 0.000505329 0.00193211)
(0.103902 0.000463529 0.00182479)
(0.104101 0.000422013 0.00172464)
(0.104293 0.000381951 0.0016351)
(0.104479 0.000346743 0.00156975)
(0.104657 0.000316564 0.00153071)
(0.104824 0.000290126 0.00150964)
(0.104981 0.000267765 0.00149873)
(0.105127 0.000249187 0.00149419)
(0.105265 0.000233378 0.00149417)
(0.105392 0.000218495 0.00149618)
(0.105602 0.000205745 0.00149557)
(0.100087 -0.000144397 0.000707011)
(0.100477 -0.000390526 0.00161776)
(0.101066 -0.000541168 0.00203457)
(0.101694 -0.000610241 0.00211746)
(0.102269 -0.00063616 0.00214971)
(0.102743 -0.000627042 0.00217892)
(0.103125 -0.000595163 0.00213281)
(0.103429 -0.000549868 0.00204235)
(0.103683 -0.000504794 0.00193204)
(0.103902 -0.000462697 0.00182469)
(0.104102 -0.000420749 0.00172454)
(0.104294 -0.000380028 0.00163501)
(0.104481 -0.000343773 0.00156966)
(0.104659 -0.000311877 0.00153061)
(0.104827 -0.000282543 0.00150937)
(0.104985 -0.000255539 0.00149777)
(0.105132 -0.000229631 0.00149143)
(0.105268 -0.000202597 0.00148638)
(0.105397 -0.000172154 0.00147482)
(0.10561 -0.000125307 0.00144389)
(0.100093 -0.000445943 0.000763199)
(0.100504 -0.00119454 0.00174901)
(0.101105 -0.0015869 0.00212952)
(0.101635 -0.00174057 0.00223459)
(0.101979 -0.00178252 0.00228683)
(0.102172 -0.00172948 0.0022355)
(0.102253 -0.0016089 0.00211526)
(0.102277 -0.0014617 0.00196363)
(0.102279 -0.00130756 0.00180074)
(0.102272 -0.00116084 0.00165065)
(0.102266 -0.00103571 0.00154074)
(0.102266 -0.00093096 0.0014625)
(0.102272 -0.000840714 0.00140635)
(0.102285 -0.000762355 0.00136669)
(0.102305 -0.000692584 0.00133954)
(0.102331 -0.000629412 0.00132179)
(0.10236 -0.000569873 0.00131075)
(0.102392 -0.000509727 0.00130273)
(0.102437 -0.00044231 0.0012893)
(0.102568 -0.000339875 0.00120714)
(0.10014 -0.000775032 0.000869253)
(0.100454 -0.00196245 0.00196358)
(0.100911 -0.00242761 0.00233452)
(0.100978 -0.00252672 0.00244124)
(0.100694 -0.00242645 0.00233669)
(0.100224 -0.00219782 0.0021123)
(0.0997082 -0.00191728 0.00182294)
(0.0991824 -0.00166684 0.00157501)
(0.0986867 -0.00146462 0.00138901)
(0.0982378 -0.00129914 0.00124889)
(0.097842 -0.00116319 0.00114519)
(0.0974951 -0.00105174 0.00107037)
(0.0971924 -0.000960366 0.00101619)
(0.0969289 -0.000883852 0.000974841)
(0.0966998 -0.000818406 0.000942353)
(0.0965002 -0.000761937 0.000917607)
(0.0963255 -0.000712576 0.000898819)
(0.0961738 -0.000666083 0.000879009)
(0.0960478 -0.000615335 0.000847525)
(0.0960063 -0.000504058 0.000694553)
(0.100226 -0.00072082 0.000720816)
(0.09996 -0.00198274 0.00198273)
(0.0997822 -0.00245188 0.00245186)
(0.0987879 -0.0024197 0.00241966)
(0.0972752 -0.00220094 0.00220088)
(0.0957742 -0.00181167 0.00181156)
(0.0943918 -0.00138269 0.00138252)
(0.093162 -0.00107054 0.00107027)
(0.0920736 -0.000854635 0.000854196)
(0.0911092 -0.000702759 0.000702057)
(0.0902528 -0.000591265 0.000590164)
(0.0894816 -0.000507438 0.000505704)
(0.0887743 -0.000445282 0.000442407)
(0.0881214 -0.000398284 0.000393312)
(0.08752 -0.000358867 0.000349989)
(0.086969 -0.00032263 0.000306623)
(0.0864507 -0.000289973 0.000261998)
(0.0859403 -0.000276316 0.000224165)
(0.0854313 -0.000226926 0.000127311)
(0.0850197 7.15796e-06 -0.000206568)
(0.0999088 -0.000712557 0.001297)
(0.0969668 -0.00274724 0.00365591)
(0.0935345 -0.00211811 0.00264025)
(0.089589 -0.00162054 0.00182053)
(0.0858317 -0.00139048 0.00152894)
(0.0825893 -0.00116094 0.00135155)
(0.0798639 -0.000896811 0.0011798)
(0.0775647 -0.000691641 0.00104136)
(0.0755538 -0.000559659 0.000944301)
(0.0737442 -0.000478489 0.000868301)
(0.0720891 -0.000430511 0.000797782)
(0.0705584 -0.00040189 0.000728056)
(0.0691318 -0.000384072 0.000663169)
(0.067792 -0.000374004 0.000607163)
(0.0665235 -0.000370815 0.000559285)
(0.0653134 -0.000370399 0.000512784)
(0.0641632 -0.000365316 0.000457206)
(0.0630623 -0.000350371 0.00038736)
(0.0620792 -0.000343128 0.000300461)
(0.0603662 -0.000472384 0.000299113)
(0.099413 0.000270232 0.000345246)
(0.0988664 0.00187489 0.00201912)
(0.0979215 0.00218895 0.00257327)
(0.096366 0.00190826 0.0023801)
(0.0946336 0.00162642 0.00211451)
(0.0929726 0.00141812 0.00192741)
(0.0913647 0.00127026 0.00180262)
(0.089855 0.00115847 0.00170751)
(0.0884563 0.00106739 0.00160847)
(0.0871607 0.000994231 0.00150055)
(0.0859611 0.000943757 0.00139413)
(0.0848428 0.000912938 0.00129687)
(0.0837875 0.000896656 0.00121006)
(0.0827812 0.00089009 0.00113156)
(0.0818148 0.000889655 0.00105936)
(0.0808834 0.000893232 0.000992228)
(0.0799831 0.000898267 0.000926728)
(0.0791127 0.000897145 0.000851912)
(0.078296 0.000902733 0.000764498)
(0.0773993 0.000757855 0.000600633)
(0.10014 0.000869254 0.000775031)
(0.100454 0.00196358 0.00196245)
(0.100911 0.00233453 0.00242761)
(0.100978 0.00244125 0.00252671)
(0.100694 0.00233669 0.00242644)
(0.100224 0.0021123 0.00219779)
(0.0997082 0.00182294 0.00191724)
(0.0991824 0.00157501 0.00166679)
(0.0986867 0.00138903 0.00146456)
(0.0982379 0.0012489 0.00129907)
(0.097842 0.00114521 0.0011631)
(0.0974952 0.0010704 0.00105163)
(0.0971925 0.00101621 0.000960219)
(0.0969291 0.000974845 0.000883638)
(0.0967 0.000942353 0.00081812)
(0.0965005 0.000917567 0.000761561)
(0.0963259 0.000898705 0.000712075)
(0.0961744 0.000878662 0.00066532)
(0.0960487 0.00084693 0.000614242)
(0.0960072 0.000693528 0.000502287)
(0.10006 0.000641411 0.000641415)
(0.100501 0.0016451 0.00164511)
(0.101149 0.00221252 0.00221252)
(0.101738 0.00244016 0.00244017)
(0.102204 0.00244221 0.00244223)
(0.102501 0.00231389 0.00231393)
(0.102644 0.0020931 0.00209317)
(0.102713 0.00186988 0.00187)
(0.102738 0.00167242 0.00167261)
(0.10275 0.00150696 0.00150727)
(0.102767 0.00136999 0.00137049)
(0.102797 0.00125736 0.00125816)
(0.102844 0.00116534 0.00116667)
(0.10291 0.00109 0.00109224)
(0.102995 0.00102774 0.0010316)
(0.103098 0.000975699 0.000982514)
(0.103219 0.000931298 0.000943615)
(0.103361 0.000890899 0.000913712)
(0.103534 0.000845137 0.000888317)
(0.103779 0.000766973 0.000853958)
(0.100046 0.000395737 0.000540248)
(0.10048 0.00104492 0.0013841)
(0.101154 0.00147548 0.00192296)
(0.101913 0.00170545 0.00219254)
(0.102632 0.00178043 0.00229398)
(0.103301 0.00174539 0.00227811)
(0.103893 0.00163508 0.00218536)
(0.104389 0.00149295 0.00205209)
(0.104816 0.00134734 0.00190433)
(0.105193 0.00121348 0.00176469)
(0.105534 0.00109628 0.00164193)
(0.105853 0.000996309 0.0015377)
(0.106158 0.000910988 0.00145195)
(0.106456 0.000837671 0.00138303)
(0.106751 0.000774263 0.00132892)
(0.107045 0.000719845 0.00128726)
(0.107341 0.000671663 0.00125608)
(0.107642 0.000625186 0.00123323)
(0.107956 0.000574217 0.00121487)
(0.10833 0.00051665 0.00120374)
(0.100039 0.000131349 0.000478755)
(0.100448 0.000350541 0.00123473)
(0.101114 0.000505158 0.00174638)
(0.101909 0.000597325 0.00202662)
(0.102729 0.000638804 0.00215174)
(0.103529 0.000638617 0.00218582)
(0.104298 0.000605128 0.00215226)
(0.105008 0.000560257 0.00207783)
(0.105643 0.000511745 0.00197838)
(0.106217 0.00046457 0.00186991)
(0.106739 0.00042163 0.00176392)
(0.107221 0.000383795 0.00166762)
(0.10767 0.000350861 0.00158604)
(0.108098 0.000322194 0.00152142)
(0.108511 0.000297131 0.00147261)
(0.108914 0.000275838 0.00143725)
(0.109305 0.000256823 0.00141079)
(0.109686 0.000237816 0.00138986)
(0.110066 0.000216184 0.00136943)
(0.110501 0.000194893 0.0013536)
(0.100039 -0.000131346 0.000478753)
(0.100448 -0.000350531 0.00123473)
(0.101114 -0.000505142 0.00174637)
(0.101909 -0.0005973 0.00202661)
(0.102729 -0.000638765 0.00215173)
(0.103529 -0.000638557 0.0021858)
(0.104298 -0.000605038 0.00215223)
(0.105008 -0.000560115 0.00207778)
(0.105644 -0.000511525 0.00197832)
(0.106217 -0.000464237 0.00186981)
(0.106739 -0.000421136 0.00176377)
(0.107221 -0.000383057 0.0016674)
(0.107671 -0.000349733 0.00158576)
(0.108098 -0.000320423 0.00152103)
(0.108512 -0.000294333 0.00147199)
(0.108915 -0.000271493 0.00143612)
(0.109305 -0.000250581 0.00140849)
(0.109685 -0.00022944 0.00138493)
(0.110063 -0.000205531 0.00135839)
(0.1105 -0.000176365 0.00132543)
(0.100046 -0.000395738 0.000540243)
(0.10048 -0.00104492 0.0013841)
(0.101154 -0.00147548 0.00192295)
(0.101913 -0.00170545 0.00219252)
(0.102632 -0.00178043 0.00229396)
(0.103301 -0.0017454 0.00227807)
(0.103893 -0.00163509 0.0021853)
(0.104389 -0.00149295 0.002052)
(0.104816 -0.00134733 0.00190418)
(0.105193 -0.00121346 0.00176445)
(0.105534 -0.00109623 0.00164154)
(0.105853 -0.000996215 0.00153708)
(0.106159 -0.000910792 0.00145096)
(0.106458 -0.000837261 0.00138138)
(0.106753 -0.000773411 0.00132612)
(0.107048 -0.000718363 0.00128228)
(0.107344 -0.000669261 0.00124698)
(0.107645 -0.000621537 0.00121557)
(0.10796 -0.000569161 0.00117881)
(0.108336 -0.000513252 0.00112095)
(0.10006 -0.000641416 0.00064141)
(0.100501 -0.00164511 0.0016451)
(0.101149 -0.00221253 0.00221251)
(0.101738 -0.00244018 0.00244015)
(0.102204 -0.00244225 0.0024422)
(0.102501 -0.00231396 0.00231388)
(0.102644 -0.0020932 0.00209309)
(0.102713 -0.00187005 0.00186987)
(0.102738 -0.00167268 0.00167241)
(0.10275 -0.00150735 0.00150695)
(0.102767 -0.00137059 0.00136997)
(0.102797 -0.00125829 0.00125733)
(0.102844 -0.00116684 0.00116531)
(0.10291 -0.0010925 0.00109)
(0.102995 -0.00103196 0.00102775)
(0.103098 -0.000982958 0.00097571)
(0.103218 -0.000944201 0.00093134)
(0.103361 -0.000914518 0.000891019)
(0.103534 -0.000889432 0.000845393)
(0.103779 -0.000855719 0.000767692)
(0.10014 -0.000869257 0.000775028)
(0.100454 -0.00196359 0.00196244)
(0.100911 -0.00233454 0.0024276)
(0.100978 -0.00244128 0.00252669)
(0.100694 -0.00233674 0.00242641)
(0.100224 -0.00211237 0.00219774)
(0.099708 -0.00182305 0.00191716)
(0.0991821 -0.00157518 0.00166665)
(0.0986862 -0.00138929 0.00146432)
(0.098237 -0.00124931 0.00129867)
(0.0978407 -0.00114584 0.00116247)
(0.097493 -0.00107143 0.00105067)
(0.0971889 -0.00101796 0.000958794)
(0.0969231 -0.00097802 0.000881552)
(0.0966895 -0.000948175 0.000814965)
(0.096482 -0.000928432 0.000756739)
(0.0962929 -0.000919384 0.00070419)
(0.0961134 -0.000920877 0.000654664)
(0.0959365 -0.000936987 0.000604416)
(0.0959131 -0.00092447 0.000523647)
(0.099413 -0.000270232 0.000345243)
(0.0988664 -0.00187489 0.00201911)
(0.0979215 -0.00218895 0.00257326)
(0.0963659 -0.00190827 0.00238009)
(0.0946334 -0.00162644 0.00211449)
(0.0929723 -0.00141814 0.00192738)
(0.0913644 -0.0012703 0.00180257)
(0.0898543 -0.00115853 0.00170742)
(0.0884552 -0.00106748 0.00160831)
(0.087159 -0.000994368 0.00150029)
(0.0859583 -0.000943977 0.00139372)
(0.0848384 -0.000913265 0.00129625)
(0.0837804 -0.000897154 0.00120918)
(0.0827693 -0.000890824 0.0011303)
(0.0817946 -0.000890961 0.00105757)
(0.0808484 -0.000895957 0.000989863)
(0.0799218 -0.00090451 0.00092442)
(0.0789993 -0.000914778 0.000854254)
(0.0780523 -0.000965051 0.000800186)
(0.0768274 -0.00124564 0.000876542)
(0.0995405 0.000321899 0.000245045)
(0.0992576 0.00154092 0.00105563)
(0.098849 0.0021144 0.00150237)
(0.098125 0.00209152 0.00157946)
(0.0973374 0.00188594 0.00151485)
(0.096586 0.00166553 0.0014465)
(0.0958672 0.00149739 0.0014103)
(0.0952007 0.00137056 0.00137931)
(0.094574 0.00128321 0.00133381)
(0.093932 0.00122694 0.00126313)
(0.0933082 0.00118885 0.00117412)
(0.0927012 0.00116512 0.00107931)
(0.0921027 0.00115204 0.000988817)
(0.0915069 0.00114743 0.000906396)
(0.0909103 0.00114865 0.000831888)
(0.0903104 0.00115411 0.000762725)
(0.0897042 0.00116224 0.000695022)
(0.0890892 0.0011711 0.000624242)
(0.0884702 0.00118074 0.000549601)
(0.087876 0.00115327 0.000469842)
(0.100093 0.000763199 0.000445942)
(0.100504 0.00174901 0.00119453)
(0.101105 0.00212952 0.00158689)
(0.101635 0.00223459 0.00174056)
(0.101979 0.00228683 0.00178249)
(0.102172 0.00223551 0.00172945)
(0.102253 0.00211527 0.00160886)
(0.102277 0.00196364 0.00146164)
(0.102279 0.00180075 0.00130749)
(0.102272 0.00165066 0.00116075)
(0.102266 0.00154074 0.0010356)
(0.102266 0.00146251 0.000930816)
(0.102272 0.00140633 0.000840521)
(0.102285 0.00136668 0.000762112)
(0.102305 0.00133951 0.000692258)
(0.102331 0.00132166 0.00062896)
(0.10236 0.00131047 0.000569259)
(0.102392 0.00130223 0.000508886)
(0.102437 0.00128872 0.000441251)
(0.102567 0.00120847 0.00033945)
(0.100046 0.000540244 0.000395737)
(0.10048 0.0013841 0.00104492)
(0.101154 0.00192296 0.00147547)
(0.101913 0.00219252 0.00170543)
(0.102632 0.00229396 0.00178041)
(0.103301 0.00227808 0.00174536)
(0.103893 0.00218531 0.00163504)
(0.104389 0.00205201 0.00149289)
(0.104816 0.00190419 0.00134726)
(0.105193 0.00176446 0.00121336)
(0.105534 0.00164155 0.00109611)
(0.105853 0.00153709 0.000996055)
(0.106159 0.00145097 0.000910581)
(0.106458 0.00138138 0.000836977)
(0.106753 0.00132611 0.000773036)
(0.107048 0.00128224 0.000717877)
(0.107344 0.00124689 0.000668629)
(0.107644 0.00121543 0.000620705)
(0.10796 0.00117863 0.000568071)
(0.108335 0.00112079 0.000511812)
(0.100036 0.000323143 0.000323144)
(0.100429 0.000868675 0.000868675)
(0.10108 0.0012624 0.00126239)
(0.101891 0.00150438 0.00150438)
(0.102756 0.00162161 0.0016216)
(0.103616 0.00164278 0.00164277)
(0.104445 0.00160467 0.00160466)
(0.105222 0.00152633 0.00152632)
(0.105936 0.0014268 0.0014268)
(0.10659 0.00132193 0.00132194)
(0.107193 0.00122216 0.00122219)
(0.107753 0.00113247 0.00113251)
(0.108279 0.00105435 0.00105441)
(0.10878 0.000987531 0.000987604)
(0.10926 0.000930897 0.000930997)
(0.109725 0.00088283 0.000883055)
(0.110179 0.000840999 0.000841697)
(0.110627 0.000801661 0.000803927)
(0.111079 0.000759583 0.000766433)
(0.111583 0.000712922 0.000736965)
(0.100031 0.000107083 0.000281363)
(0.100395 0.000293063 0.000768578)
(0.101024 0.00043411 0.00113298)
(0.101843 0.000526284 0.00136906)
(0.102751 0.000576442 0.00150122)
(0.103688 0.000591887 0.00155388)
(0.104617 0.000582552 0.00154868)
(0.105515 0.000558025 0.00150746)
(0.106365 0.000524515 0.00144338)
(0.107161 0.000487535 0.00136663)
(0.107903 0.000451329 0.00128576)
(0.108593 0.000418241 0.00120726)
(0.109239 0.000389201 0.00113544)
(0.109848 0.000364208 0.00107255)
(0.110428 0.000342674 0.00101949)
(0.110985 0.000323441 0.000976551)
(0.111521 0.000305539 0.000942006)
(0.112042 0.00028752 0.000912785)
(0.112559 0.000267294 0.000886255)
(0.113124 0.000246967 0.000867649)
(0.100031 -0.000107084 0.000281362)
(0.100395 -0.000293063 0.000768577)
(0.101024 -0.000434111 0.00113298)
(0.101843 -0.000526284 0.00136906)
(0.102751 -0.000576442 0.00150122)
(0.103688 -0.000591883 0.00155388)
(0.104617 -0.00058254 0.00154868)
(0.105515 -0.000558003 0.00150745)
(0.106365 -0.000524479 0.00144337)
(0.107161 -0.000487478 0.00136661)
(0.107903 -0.000451236 0.00128574)
(0.108593 -0.000418084 0.00120722)
(0.109239 -0.000388921 0.00113539)
(0.109848 -0.00036371 0.00107249)
(0.110428 -0.000341832 0.00101945)
(0.110984 -0.000322165 0.00097658)
(0.111521 -0.000303963 0.000941981)
(0.112041 -0.000286208 0.000912223)
(0.112558 -0.000267881 0.000883715)
(0.113123 -0.000253426 0.000857485)
(0.100036 -0.000323146 0.000323143)
(0.100429 -0.00086868 0.000868672)
(0.10108 -0.00126241 0.00126239)
(0.101891 -0.0015044 0.00150438)
(0.102756 -0.00162163 0.0016216)
(0.103616 -0.00164281 0.00164277)
(0.104445 -0.00160471 0.00160466)
(0.105222 -0.00152639 0.00152632)
(0.105936 -0.00142688 0.00142679)
(0.10659 -0.00132204 0.00132192)
(0.107193 -0.00122231 0.00122215)
(0.107753 -0.00113267 0.00113245)
(0.108279 -0.00105462 0.00105433)
(0.10878 -0.000987878 0.000987505)
(0.10926 -0.000931348 0.000930858)
(0.109725 -0.000883493 0.000882765)
(0.110179 -0.000842247 0.000840891)
(0.110627 -0.000804614 0.000801473)
(0.111079 -0.000767276 0.000759238)
(0.111584 -0.000737954 0.000712335)
(0.100046 -0.000540249 0.000395737)
(0.10048 -0.00138411 0.00104492)
(0.101154 -0.00192297 0.00147547)
(0.101913 -0.00219255 0.00170544)
(0.102632 -0.002294 0.00178042)
(0.103301 -0.00227814 0.00174538)
(0.103893 -0.0021854 0.00163507)
(0.104389 -0.00205214 0.00149294)
(0.104816 -0.0019044 0.00134733)
(0.105193 -0.00176478 0.00121346)
(0.105534 -0.00164204 0.00109626)
(0.105852 -0.00153784 0.000996291)
(0.106158 -0.00145213 0.000910969)
(0.106456 -0.00138327 0.000837663)
(0.106751 -0.00132924 0.000774259)
(0.107045 -0.00128766 0.000719819)
(0.107341 -0.00125659 0.000671609)
(0.107642 -0.00123387 0.000625088)
(0.107956 -0.00121565 0.000574008)
(0.108329 -0.00120454 0.000516202)
(0.100093 -0.000763201 0.000445944)
(0.100504 -0.00174901 0.00119454)
(0.101105 -0.00212953 0.00158691)
(0.101634 -0.00223462 0.00174059)
(0.101979 -0.00228687 0.00178254)
(0.102171 -0.00223556 0.00172951)
(0.102252 -0.00211534 0.00160895)
(0.102277 -0.00196376 0.00146178)
(0.102279 -0.00180093 0.0013077)
(0.102271 -0.00165093 0.00116107)
(0.102265 -0.00154115 0.00103608)
(0.102263 -0.00146312 0.000931589)
(0.102268 -0.0014073 0.000841853)
(0.102279 -0.00136832 0.00076455)
(0.102296 -0.00134255 0.000696911)
(0.102316 -0.00132755 0.00063742)
(0.102338 -0.00132248 0.000584669)
(0.10236 -0.00132884 0.000537674)
(0.102384 -0.00135205 0.00049716)
(0.102517 -0.00137682 0.000449295)
(0.0995405 -0.0003219 0.000245047)
(0.0992576 -0.00154092 0.00105564)
(0.098849 -0.00211441 0.00150239)
(0.0981249 -0.00209154 0.00157951)
(0.0973373 -0.00188596 0.00151493)
(0.0965857 -0.00166556 0.00144663)
(0.0958668 -0.00149744 0.0014105)
(0.0952001 -0.00137064 0.00137962)
(0.094573 -0.00128332 0.00133427)
(0.0939303 -0.00122708 0.00126382)
(0.0933056 -0.00118898 0.00117521)
(0.0926971 -0.0011652 0.00108108)
(0.0920963 -0.00115205 0.000991778)
(0.0914969 -0.00114731 0.00091141)
(0.0908946 -0.00114864 0.000840395)
(0.0902856 -0.00115462 0.000777413)
(0.0896654 -0.00116488 0.000721219)
(0.0890265 -0.00118286 0.000673094)
(0.0883371 -0.00123269 0.000643434)
(0.0875635 -0.00143 0.000711393)
(0.0993802 5.89817e-05 3.37748e-05)
(0.0992678 0.00120003 0.000274376)
(0.0989806 0.00188841 0.000432333)
(0.098475 0.00200627 0.000483372)
(0.0979963 0.00191428 0.000478657)
(0.0975723 0.00173412 0.000465145)
(0.0971836 0.00154632 0.000452145)
(0.0968355 0.001387 0.000441097)
(0.096538 0.00126751 0.000434091)
(0.0962878 0.00119545 0.000424957)
(0.0960205 0.00116601 0.000405875)
(0.0957377 0.00116092 0.00037914)
(0.09544 0.00116562 0.000349868)
(0.0951192 0.00117461 0.000320938)
(0.0947715 0.0011867 0.000293157)
(0.0943964 0.00120122 0.000266194)
(0.0939949 0.00121727 0.000238887)
(0.0935692 0.00123337 0.000210539)
(0.0931204 0.00124898 0.000184038)
(0.0926222 0.00128406 0.000171893)
(0.100087 0.000707012 0.000144396)
(0.100477 0.00161776 0.000390523)
(0.101066 0.00203458 0.000541161)
(0.101694 0.00211746 0.000610227)
(0.102269 0.00214972 0.000636139)
(0.102743 0.00217892 0.000627011)
(0.103125 0.00213281 0.000595121)
(0.103429 0.00204235 0.000549813)
(0.103683 0.00193205 0.000504722)
(0.103902 0.0018247 0.000462604)
(0.104102 0.00172455 0.000420629)
(0.104294 0.00163501 0.000379873)
(0.104481 0.00156965 0.000343573)
(0.104659 0.00153059 0.000311621)
(0.104827 0.0015093 0.000282213)
(0.104985 0.00149762 0.000255109)
(0.105132 0.00149117 0.000229081)
(0.105267 0.00148597 0.000201919)
(0.105396 0.0014744 0.000171412)
(0.105608 0.00144445 0.00012502)
(0.100039 0.000478753 0.000131344)