/*--------------------------------*- C++ -*----------------------------------*\
| =========                 |                                                 |
| \\      /  F ield         | OpenFOAM: The Open Source CFD Toolbox           |
|  \\    /   O peration     | Version:  2212                                  |
|   \\  /    A nd           | Website:  www.openfoam.com                      |
|    \\/     M anipulation  |                                                 |
\*---------------------------------------------------------------------------*/
FoamFile
{
    version     2.0;
    format      ascii;
    arch        "LSB;label=32;scalar=64";
    class       volScalarField;
    location    "0.2";
    object      epsilon;
}
// * * * * * * * * * * * * * * * * * * * * * * * * * * * * * * * * * * * * * //

dimensions      [0 2 -3 0 0 0 0];

internalField   nonuniform List<scalar> 
6840
(
90.5029
12.1247
4.3909
2.46622
1.64448
1.18805
0.918399
0.756896
0.6519
0.580295
0.531351
0.497038
0.472925
0.455693
0.443357
0.434748
0.428688
0.424172
0.42213
0.430788
58.5857
14.5718
6.0967
3.35017
2.10908
1.44921
1.06788
0.83431
0.684779
0.58609
0.520542
0.474827
0.442449
0.419269
0.402623
0.391107
0.382542
0.375295
0.368071
0.358557
45.0228
13.4743
5.73546
3.08371
1.87008
1.25331
0.919831
0.718108
0.582973
0.492183
0.430825
0.388825
0.359622
0.338892
0.323713
0.312578
0.304191
0.297408
0.29154
0.292607
38.703
13.0554
5.74744
3.09658
1.88869
1.25261
0.914824
0.712157
0.575507
0.482048
0.418202
0.374284
0.343832
0.322492
0.307306
0.29604
0.287539
0.280851
0.275547
0.276561
36.0572
12.8542
5.77021
3.11046
1.9013
1.25034
0.910138
0.708562
0.573
0.479682
0.415187
0.370289
0.338806
0.316585
0.300796
0.289349
0.280757
0.274135
0.26912
0.269363
36.0572
12.8542
5.77022
3.11046
1.9013
1.25035
0.910142
0.708567
0.573006
0.47969
0.415197
0.370303
0.338823
0.316601
0.300836
0.289427
0.280887
0.274357
0.269544
0.267547
38.703
13.0554
5.74745
3.09658
1.8887
1.25261
0.914832
0.712167
0.57552
0.482064
0.418226
0.37432
0.343899
0.322672
0.307529
0.296314
0.287928
0.281473
0.276316
0.272736
45.0228
13.4743
5.73546
3.08372
1.87009
1.25331
0.919838
0.718118
0.582985
0.492201
0.430852
0.388865
0.359671
0.33901
0.323931
0.312906
0.304698
0.298326
0.292948
0.289555
58.5857
14.5718
6.0967
3.35017
2.10908
1.44921
1.06788
0.834313
0.684781
0.586096
0.520544
0.474799
0.442144
0.419174
0.40314
0.391598
0.382936
0.376247
0.370068
0.363496
90.5029
12.1247
4.3909
2.46622
1.64448
1.18805
0.9184
0.756896
0.651904
0.580286
0.531354
0.497045
0.472767
0.455564
0.443529
0.434955
0.428828
0.424252
0.422156
0.430758
58.5857
14.5718
6.0967
3.35017
2.10908
1.44921
1.06788
0.834313
0.684782
0.586094
0.520549
0.474837
0.442466
0.419299
0.40268
0.39121
0.382735
0.37615
0.370033
0.363515
16.5373
9.49261
5.01451
2.86537
1.76739
1.16414
0.81208
0.597412
0.462002
0.374102
0.316153
0.276933
0.24933
0.23293
0.22035
0.211307
0.204399
0.199089
0.194777
0.19561
13.6679
8.73686
5.07858
3.05722
1.92901
1.27863
0.889416
0.647786
0.492873
0.390964
0.322223
0.274604
0.241629
0.219101
0.202476
0.192196
0.184624
0.178946
0.174822
0.173788
12.9054
8.34004
5.07965
3.15805
2.03309
1.36177
0.951263
0.692674
0.524782
0.413125
0.33744
0.285308
0.24893
0.223118
0.204557
0.190928
0.181452
0.175356
0.171055
0.169566
12.6881
8.1545
5.07188
3.20266
2.08422
1.40489
0.984599
0.7178
0.543587
0.4271
0.347756
0.292888
0.254468
0.227269
0.207758
0.193457
0.182642
0.17559
0.170938
0.168845
12.6881
8.1545
5.07188
3.20266
2.08422
1.4049
0.984602
0.717803
0.543591
0.427105
0.347761
0.292894
0.254481
0.22734
0.207776
0.193462
0.182641
0.175548
0.170736
0.167895
12.9054
8.34004
5.07965
3.15805
2.03309
1.36178
0.951269
0.692681
0.52479
0.413134
0.337449
0.285313
0.248909
0.22283
0.204434
0.190845
0.181441
0.175266
0.170653
0.16781
13.6679
8.73686
5.07858
3.05722
1.92901
1.27863
0.88942
0.647791
0.492878
0.39097
0.322221
0.274583
0.241694
0.2191
0.202446
0.192152
0.184602
0.178916
0.174935
0.173845
16.5373
9.49261
5.01451
2.86537
1.76739
1.16414
0.812081
0.597413
0.462003
0.374103
0.316161
0.276907
0.249778
0.232993
0.220644
0.211282
0.204461
0.199141
0.194822
0.195627
58.5857
14.5718
6.0967
3.35017
2.10908
1.44921
1.06788
0.834311
0.684779
0.586092
0.520537
0.474788
0.442122
0.419132
0.403067
0.39148
0.382731
0.375387
0.368099
0.358534
45.0228
13.4743
5.73546
3.08372
1.87009
1.25331
0.919839
0.718118
0.582986
0.4922
0.430849
0.388861
0.359677
0.338979
0.323855
0.312821
0.304628
0.298281
0.292927
0.289575
13.6679
8.73686
5.07858
3.05722
1.92901
1.27863
0.88942
0.647791
0.492878
0.39097
0.322229
0.274611
0.241637
0.21911
0.20248
0.192203
0.18462
0.178919
0.174929
0.173799
11.86
7.76391
4.99792
3.24282
2.14895
1.46399
1.02899
0.747904
0.562813
0.438746
0.354189
0.29564
0.254706
0.225742
0.204987
0.190241
0.179651
0.171994
0.166508
0.16315
11.6227
7.60521
5.0107
3.34379
2.27257
1.57933
1.1256
0.824567
0.622029
0.483842
0.388311
0.321479
0.274245
0.240552
0.216331
0.198806
0.186103
0.176899
0.170251
0.16573
11.5724
7.56699
5.02099
3.38506
2.32496
1.6309
1.17109
0.862477
0.652624
0.508134
0.407453
0.336536
0.286107
0.249954
0.223833
0.204829
0.190951
0.180855
0.17355
0.168494
11.5724
7.56699
5.02099
3.38506
2.32497
1.6309
1.17109
0.86248
0.652627
0.508138
0.407457
0.336541
0.286115
0.249967
0.223842
0.204832
0.190948
0.180833
0.17347
0.168241
11.6227
7.60521
5.0107
3.34379
2.27257
1.57933
1.1256
0.824571
0.622035
0.483848
0.388319
0.321489
0.274259
0.240541
0.21631
0.198787
0.186085
0.176855
0.17011
0.16525
11.86
7.76391
4.99792
3.24282
2.14895
1.46399
1.02899
0.747905
0.562814
0.438747
0.35419
0.295647
0.254736
0.225758
0.204971
0.190216
0.179632
0.171982
0.166502
0.163156
13.6679
8.73686
5.07858
3.05722
1.92901
1.27863
0.889417
0.647787
0.492873
0.390964
0.322215
0.274577
0.241693
0.219124
0.202459
0.19215
0.184604
0.17894
0.174827
0.173806
45.0228
13.4743
5.73546
3.08372
1.87008
1.25331
0.919832
0.71811
0.582974
0.492185
0.430827
0.388825
0.359601
0.33888
0.323739
0.31262
0.304229
0.297435
0.291552
0.292579
38.703
13.0554
5.74745
3.09658
1.8887
1.25262
0.914833
0.712168
0.57552
0.482064
0.418225
0.374315
0.343879
0.322565
0.307422
0.296231
0.287869
0.281433
0.276289
0.272712
12.9054
8.34004
5.07965
3.15805
2.03309
1.36178
0.951269
0.692681
0.52479
0.413134
0.33745
0.285319
0.248943
0.22313
0.204567
0.190929
0.181435
0.175265
0.170659
0.167843
11.6227
7.60521
5.0107
3.34379
2.27257
1.57933
1.1256
0.824571
0.622034
0.483847
0.388317
0.321486
0.274252
0.240559
0.216338
0.19881
0.186099
0.176866
0.170124
0.165282
11.493
7.51164
5.02876
3.43566
2.39318
1.70032
1.23353
0.915093
0.695349
0.542084
0.434127
0.357397
0.302425
0.262774
0.233987
0.212973
0.197581
0.18626
0.177885
0.17165
11.4754
7.50107
5.04333
3.47179
2.4408
1.75069
1.28115
0.95728
0.731256
0.571904
0.458538
0.377239
0.318528
0.275885
0.244724
0.22184
0.204983
0.192512
0.183214
0.176166
11.4754
7.50107
5.04333
3.47179
2.4408
1.75069
1.28115
0.957281
0.731257
0.571906
0.458541
0.377244
0.318537
0.275899
0.244734
0.221843
0.204981
0.192503
0.18319
0.176104
11.493
7.51164
5.02876
3.43566
2.39318
1.70032
1.23353
0.915094
0.69535
0.542087
0.434132
0.357409
0.30245
0.262788
0.233979
0.212963
0.19757
0.186248
0.17787
0.171621
11.6227
7.60521
5.0107
3.34379
2.27257
1.57933
1.1256
0.824568
0.622031
0.483844
0.388315
0.321487
0.274263
0.240563
0.216323
0.198794
0.18609
0.176887
0.170238
0.165712
12.9054
8.34004
5.07965
3.15805
2.03309
1.36177
0.951265
0.692675
0.524783
0.413126
0.337441
0.285309
0.248941
0.223131
0.204554
0.190918
0.181443
0.17535
0.171051
0.169564
38.703
13.0554
5.74744
3.09658
1.88869
1.25261
0.914825
0.712158
0.575508
0.482049
0.418203
0.374283
0.343826
0.322488
0.307315
0.296054
0.287554
0.280865
0.27556
0.276572
36.0572
12.8542
5.77022
3.11046
1.9013
1.25035
0.910143
0.708568
0.573007
0.47969
0.415198
0.370304
0.338829
0.316622
0.300852
0.28943
0.280884
0.274352
0.26954
0.26754
12.6881
8.1545
5.07188
3.20266
2.08422
1.4049
0.984603
0.717804
0.543591
0.427105
0.347761
0.292893
0.254472
0.227268
0.207759
0.193459
0.182638
0.17555
0.170739
0.167906
11.5724
7.56699
5.02099
3.38506
2.32497
1.6309
1.17109
0.862479
0.652627
0.508137
0.407456
0.336538
0.286109
0.249955
0.223833
0.204829
0.190948
0.180837
0.173481
0.168269
11.4754
7.50107
5.04333
3.47179
2.4408
1.75069
1.28115
0.95728
0.731256
0.571904
0.458538
0.377238
0.318526
0.275881
0.24472
0.221837
0.20498
0.192508
0.183202
0.176134
11.4643
7.49651
5.05815
3.50475
2.48493
1.79887
1.32821
1.00025
0.768815
0.603824
0.485189
0.39927
0.33667
0.290841
0.257111
0.232175
0.213692
0.199915
0.189512
0.181378
11.4643
7.49651
5.05815
3.50475
2.48493
1.79887
1.32821
1.00025
0.768816
0.603825
0.485192
0.399275
0.33668
0.290857
0.257122
0.232178
0.213692
0.199912
0.189505
0.181366
11.4754
7.50107
5.04333
3.47179
2.4408
1.75069
1.28115
0.957282
0.731258
0.571907
0.458544
0.377253
0.318558
0.2759
0.244711
0.221827
0.204971
0.1925
0.183202
0.176152
11.5724
7.56699
5.02099
3.38506
2.32497
1.6309
1.17109
0.862479
0.652626
0.508137
0.407457
0.336545
0.286123
0.249961
0.223822
0.204815
0.190939
0.180843
0.173538
0.168477
12.6881
8.1545
5.07188
3.20266
2.08422
1.4049
0.984603
0.717803
0.543589
0.427102
0.347758
0.292891
0.254473
0.227268
0.207751
0.19345
0.182634
0.175585
0.170928
0.168815
36.0572
12.8542
5.77022
3.11046
1.9013
1.25034
0.910138
0.708562
0.573001
0.479683
0.415188
0.37029
0.338807
0.31659
0.300804
0.289358
0.280766
0.274145
0.269132
0.269389
36.0572
12.8542
5.77022
3.11046
1.9013
1.25034
0.91014
0.708564
0.573001
0.479683
0.415187
0.37029
0.338809
0.316591
0.300804
0.289354
0.28076
0.274137
0.269123
0.269376
12.6881
8.1545
5.07188
3.20266
2.08422
1.40489
0.9846
0.7178
0.543588
0.4271
0.347756
0.292887
0.254466
0.227262
0.207753
0.193454
0.18264
0.17559
0.170935
0.168827
11.5724
7.56699
5.02099
3.38506
2.32496
1.6309
1.17109
0.862478
0.652625
0.508134
0.407452
0.336535
0.286105
0.24995
0.223829
0.204825
0.190949
0.180855
0.173553
0.168502
11.4754
7.50107
5.04333
3.47179
2.4408
1.75069
1.28115
0.95728
0.731256
0.571904
0.458538
0.377238
0.318526
0.27588
0.244719
0.221836
0.204981
0.192512
0.183219
0.176181
11.4643
7.49651
5.05815
3.50475
2.48493
1.79887
1.32822
1.00025
0.768816
0.603824
0.485189
0.39927
0.33667
0.290841
0.257111
0.232174
0.213691
0.199915
0.189512
0.18138
11.4643
7.49651
5.05815
3.50475
2.48493
1.79887
1.32822
1.00025
0.768817
0.603825
0.485192
0.399276
0.33668
0.290856
0.257122
0.232177
0.21369
0.199911
0.189506
0.181372
11.4754
7.50107
5.04333
3.47179
2.4408
1.75069
1.28115
0.957283
0.731258
0.571908
0.458545
0.377254
0.318559
0.2759
0.244711
0.221826
0.204968
0.192494
0.183185
0.176107
11.5724
7.56699
5.02099
3.38506
2.32497
1.6309
1.1711
0.862482
0.652629
0.50814
0.407461
0.336549
0.286128
0.249965
0.223826
0.204818
0.190936
0.180823
0.173462
0.168235
12.6881
8.1545
5.07188
3.20266
2.08422
1.4049
0.984637
0.717813
0.543595
0.427108
0.347765
0.292898
0.25448
0.227275
0.207758
0.193455
0.182632
0.175544
0.17073
0.16788
36.0572
12.8542
5.77022
3.11046
1.9013
1.25035
0.910132
0.708563
0.573007
0.479694
0.415202
0.370308
0.33883
0.316623
0.300854
0.289436
0.280892
0.274363
0.269566
0.267552
38.703
13.0554
5.74744
3.09658
1.88869
1.25261
0.914825
0.712158
0.575508
0.482048
0.418203
0.374285
0.343833
0.322494
0.307309
0.296042
0.287541
0.280853
0.275549
0.276561
12.9054
8.34004
5.07965
3.15805
2.03309
1.36177
0.951264
0.692675
0.524782
0.413126
0.337441
0.285308
0.248931
0.223118
0.204557
0.190928
0.181452
0.175356
0.171055
0.16957
11.6227
7.60521
5.0107
3.34379
2.27257
1.57933
1.1256
0.824568
0.62203
0.483843
0.388312
0.32148
0.274245
0.240552
0.216332
0.198805
0.186102
0.176898
0.17025
0.165726
11.493
7.51164
5.02876
3.43566
2.39318
1.70032
1.23353
0.915094
0.69535
0.542085
0.434128
0.357399
0.302427
0.262775
0.233989
0.212973
0.197579
0.186257
0.17788
0.171638
11.4754
7.50107
5.04333
3.47179
2.4408
1.75069
1.28115
0.957283
0.731257
0.571905
0.45854
0.377241
0.318531
0.275886
0.244726
0.221839
0.204979
0.192503
0.183193
0.176112
11.4754
7.50107
5.04333
3.47179
2.4408
1.7507
1.28115
0.957278
0.731255
0.571904
0.45854
0.377244
0.318536
0.275896
0.244731
0.221838
0.204978
0.192506
0.183208
0.17616
11.493
7.51164
5.02876
3.43566
2.39318
1.70033
1.23353
0.91509
0.695348
0.542086
0.434132
0.357409
0.30245
0.262787
0.233976
0.212959
0.197566
0.186245
0.177869
0.171626
11.6227
7.60521
5.0107
3.34379
2.27257
1.57933
1.12559
0.824561
0.622031
0.483849
0.388322
0.321495
0.27427
0.24057
0.216329
0.198796
0.186084
0.176851
0.170104
0.165241
12.9054
8.34004
5.07965
3.15805
2.03309
1.36175
0.951122
0.692644
0.524785
0.413139
0.337457
0.285325
0.248956
0.223145
0.204566
0.190919
0.181426
0.175254
0.170638
0.167765
38.703
13.0554
5.74745
3.09658
1.8887
1.25262
0.914913
0.712243
0.575573
0.4821
0.418248
0.374329
0.343883
0.322566
0.307434
0.296247
0.287886
0.28145
0.276311
0.272758
45.0228
13.4743
5.73546
3.08372
1.87008
1.25331
0.919831
0.718109
0.582973
0.492184
0.430826
0.388826
0.359623
0.338893
0.323714
0.312579
0.304191
0.297407
0.291532
0.292564
13.6679
8.73686
5.07858
3.05722
1.92901
1.27863
0.889417
0.647787
0.492873
0.390965
0.322223
0.274605
0.24163
0.219102
0.202477
0.192197
0.184625
0.178947
0.174823
0.173805
11.86
7.76391
4.99792
3.24282
2.14895
1.46399
1.02899
0.747906
0.562814
0.438747
0.35419
0.295642
0.254708
0.225744
0.20499
0.190242
0.179651
0.171994
0.166509
0.163163
11.6227
7.60521
5.0107
3.34379
2.27257
1.57933
1.1256
0.824572
0.622035
0.483849
0.388319
0.321488
0.274255
0.240562
0.216341
0.198811
0.186098
0.176863
0.170115
0.165256
11.5724
7.56699
5.02099
3.38506
2.32497
1.6309
1.17109
0.862478
0.652626
0.508138
0.407458
0.336542
0.286114
0.24996
0.223839
0.204831
0.190947
0.180832
0.173469
0.168239
11.5724
7.56699
5.02099
3.38506
2.32496
1.6309
1.17109
0.862472
0.652622
0.508134
0.407454
0.336539
0.286112
0.249961
0.223836
0.204825
0.190945
0.180848
0.173542
0.168481
11.6227
7.60521
5.0107
3.34379
2.27257
1.57933
1.1256
0.824566
0.62203
0.483844
0.388314
0.321484
0.274252
0.240533
0.2163
0.198779
0.186084
0.176885
0.170239
0.165713
11.86
7.76391
4.99792
3.24282
2.14895
1.46399
1.02899
0.747905
0.562815
0.438748
0.354193
0.295649
0.254737
0.225758
0.20497
0.190214
0.179629
0.17198
0.1665
0.163154
13.6679
8.73686
5.07858
3.05722
1.92901
1.27862
0.889408
0.647789
0.492883
0.390976
0.322228
0.274591
0.241705
0.219135
0.202465
0.192157
0.1846
0.178912
0.17493
0.173836
45.0228
13.4743
5.73546
3.08372
1.87009
1.25331
0.919868
0.718155
0.58302
0.492229
0.430871
0.388875
0.359667
0.338975
0.323888
0.312869
0.304671
0.298311
0.292944
0.289568
58.5857
14.5718
6.0967
3.35017
2.10908
1.44921
1.06788
0.834312
0.684781
0.586092
0.520545
0.474829
0.442451
0.419271
0.402624
0.391107
0.382542
0.375292
0.368054
0.358516
16.5373
9.49261
5.01451
2.86537
1.76739
1.16414
0.812081
0.597413
0.462003
0.374103
0.316155
0.276935
0.249332
0.232931
0.220352
0.211308
0.204399
0.199088
0.194775
0.195607
13.6679
8.73686
5.07858
3.05722
1.92901
1.27863
0.889421
0.647792
0.492879
0.390972
0.322231
0.274614
0.24164
0.219112
0.202483
0.192204
0.18462
0.178919
0.174928
0.173841
12.9054
8.34004
5.07965
3.15805
2.03309
1.36178
0.951265
0.69268
0.524791
0.413137
0.337454
0.285322
0.248946
0.223133
0.204571
0.190931
0.181434
0.175262
0.170649
0.167806
12.6881
8.1545
5.07188
3.20266
2.08422
1.40488
0.984547
0.717788
0.543589
0.427107
0.347765
0.292897
0.254478
0.227279
0.207767
0.193463
0.18264
0.175547
0.170733
0.167887
12.6881
8.1545
5.07188
3.20266
2.08422
1.40488
0.984545
0.717784
0.543586
0.427103
0.347761
0.292893
0.254479
0.227335
0.207771
0.193456
0.182641
0.175587
0.170931
0.168817
12.9054
8.34004
5.07965
3.15805
2.03309
1.36177
0.95126
0.692673
0.524784
0.413129
0.337443
0.285305
0.2489
0.22282
0.204424
0.190843
0.181457
0.175358
0.171056
0.169568
13.6679
8.73686
5.07858
3.05722
1.92901
1.27863
0.889418
0.647788
0.492876
0.390968
0.322218
0.27458
0.241688
0.219093
0.202442
0.192146
0.184607
0.178944
0.17483
0.173809
16.5373
9.49261
5.01451
2.86537
1.76739
1.16414
0.812081
0.597416
0.462009
0.374109
0.316168
0.276913
0.249781
0.232994
0.220644
0.211282
0.20446
0.19914
0.194822
0.195628
58.5857
14.5718
6.0967
3.35017
2.10908
1.44921
1.06789
0.834332
0.684806
0.586119
0.520562
0.474812
0.442149
0.419163
0.403121
0.391582
0.382924
0.376241
0.37007
0.363507
90.5029
12.1247
4.3909
2.46622
1.64448
1.18805
0.9184
0.756898
0.651902
0.580297
0.531354
0.49704
0.472927
0.455695
0.443358
0.434748
0.428686
0.424169
0.422115
0.430739
58.5857
14.5718
6.0967
3.35017
2.10908
1.44921
1.06788
0.834317
0.684787
0.586099
0.520554
0.474842
0.44247
0.419302
0.402681
0.39121
0.382734
0.376145
0.370019
0.363474
45.0228
13.4743
5.73546
3.08372
1.87009
1.25331
0.919842
0.718123
0.582992
0.492207
0.430855
0.388866
0.359681
0.338981
0.323856
0.312822
0.304628
0.298278
0.292916
0.289536
38.703
13.0554
5.74745
3.09658
1.8887
1.25262
0.914842
0.71218
0.575532
0.482075
0.418234
0.374323
0.343884
0.322568
0.307424
0.296232
0.28787
0.281435
0.276292
0.272723
36.0572
12.8542
5.77022
3.11046
1.9013
1.25035
0.910174
0.708601
0.573033
0.47971
0.415212
0.370315
0.338835
0.316623
0.30085
0.28943
0.280886
0.274356
0.26955
0.267546
36.0572
12.8542
5.77021
3.11046
1.9013
1.25035
0.91017
0.708597
0.573028
0.479704
0.415204
0.370301
0.338812
0.316577
0.300794
0.289356
0.280768
0.274147
0.269134
0.269388
38.703
13.0554
5.74744
3.09658
1.88869
1.25261
0.914835
0.712172
0.575522
0.482062
0.418216
0.374298
0.343861
0.322607
0.307421
0.296131
0.287606
0.280898
0.27558
0.276584
45.0228
13.4743
5.73546
3.08372
1.87008
1.25331
0.919832
0.718112
0.582979
0.492192
0.430836
0.388838
0.359625
0.338933
0.323798
0.312672
0.304269
0.297464
0.291572
0.292592
58.5857
14.5718
6.0967
3.35017
2.10908
1.44921
1.06788
0.834319
0.684792
0.586106
0.52055
0.4748
0.442134
0.419145
0.403081
0.391495
0.382744
0.375399
0.368111
0.358546
90.5029
12.1247
4.3909
2.46623
1.64447
1.18802
0.918378
0.756894
0.651911
0.580298
0.531366
0.497056
0.472775
0.455568
0.44353
0.434955
0.428829
0.424255
0.422162
0.430768
0.624034
0.534876
0.52196
0.521546
0.523412
0.525695
0.527449
0.528943
0.530235
0.531321
0.532231
0.532806
0.533445
0.534126
0.534573
0.534885
0.535144
0.535345
0.535495
0.535603
0.53568
0.535848
0.535828
0.535681
0.535789
0.535832
0.535808
0.535915
0.535868
0.5357
0.535793
0.535825
0.535791
0.535955
0.535508
0.535803
0.535854
0.535824
0.535928
0.535759
0.403525
0.381217
0.383015
0.387913
0.39152
0.394321
0.396892
0.399028
0.400809
0.402289
0.403523
0.404606
0.405384
0.405962
0.406524
0.406986
0.407343
0.407616
0.407824
0.407977
0.408098
0.408143
0.408175
0.408212
0.408208
0.40821
0.408225
0.408213
0.408203
0.408212
0.408198
0.408194
0.408209
0.408164
0.407823
0.408443
0.408344
0.408259
0.408223
0.40823
0.329673
0.304643
0.298582
0.298662
0.300242
0.302131
0.303949
0.305563
0.306955
0.308135
0.309122
0.309943
0.310616
0.311187
0.311669
0.312061
0.312372
0.312615
0.3128
0.31294
0.313039
0.313102
0.313125
0.313126
0.313132
0.313141
0.313145
0.31314
0.313119
0.313101
0.313102
0.313114
0.313128
0.31317
0.313393
0.313333
0.313242
0.313188
0.313159
0.313135
0.30032
0.284555
0.278842
0.277442
0.27805
0.279189
0.280484
0.281758
0.282934
0.283979
0.284887
0.285654
0.286315
0.286886
0.287364
0.287751
0.288058
0.288298
0.288483
0.288623
0.288725
0.288791
0.288814
0.288804
0.288795
0.288789
0.288783
0.288774
0.288754
0.288738
0.288739
0.288745
0.288745
0.288719
0.288625
0.28867
0.288719
0.288747
0.28876
0.288756
0.283588
0.273368
0.268791
0.267104
0.266889
0.267409
0.268275
0.269268
0.270262
0.271192
0.272028
0.272769
0.273455
0.274035
0.27451
0.274891
0.275193
0.275429
0.275613
0.275752
0.275853
0.275915
0.275945
0.275896
0.27585
0.275818
0.275798
0.275786
0.275775
0.275768
0.275764
0.275764
0.275765
0.275764
0.27577
0.275818
0.275811
0.275798
0.27579
0.275785
0.275317
0.27003
0.267047
0.26567
0.265327
0.26561
0.266257
0.267086
0.267968
0.268825
0.269611
0.270304
0.270908
0.271424
0.271857
0.272212
0.272498
0.272724
0.272902
0.273037
0.273137
0.273206
0.273246
0.273263
0.27327
0.273274
0.273276
0.273276
0.273274
0.273271
0.27327
0.273271
0.273272
0.273271
0.273267
0.273272
0.273271
0.273273
0.273276
0.27328
0.27921
0.275609
0.273082
0.271747
0.27138
0.271616
0.272218
0.273011
0.273865
0.274697
0.275454
0.276108
0.276691
0.277198
0.277626
0.277977
0.27826
0.278484
0.278659
0.278793
0.278891
0.27896
0.279
0.279024
0.279044
0.279061
0.279072
0.279079
0.279076
0.279073
0.279075
0.279079
0.279083
0.279081
0.279071
0.279061
0.279056
0.27906
0.279069
0.279074
0.303714
0.292762
0.288176
0.2861
0.28602
0.286532
0.287349
0.288293
0.289247
0.29014
0.290911
0.291509
0.292152
0.292711
0.293167
0.293533
0.293822
0.294048
0.294224
0.294357
0.294454
0.294518
0.294547
0.294562
0.294589
0.294616
0.294635
0.294644
0.294632
0.29462
0.294627
0.294641
0.29465
0.294643
0.294608
0.294555
0.294555
0.29458
0.294606
0.294613
0.348114
0.319914
0.313363
0.312847
0.3136
0.314817
0.31615
0.317445
0.318635
0.31969
0.320631
0.321603
0.322196
0.322657
0.323057
0.323397
0.323677
0.3239
0.324074
0.324206
0.324294
0.324367
0.324386
0.324396
0.324422
0.324452
0.324475
0.324482
0.324467
0.324453
0.324462
0.324478
0.324487
0.324469
0.324375
0.324077
0.324168
0.324298
0.324385
0.32442
0.364672
0.373251
0.385655
0.394067
0.399289
0.402921
0.405629
0.407768
0.409513
0.410972
0.412259
0.41331
0.414034
0.414655
0.415171
0.415577
0.4159
0.416152
0.416345
0.416488
0.416602
0.416646
0.416675
0.416713
0.416719
0.41674
0.416771
0.416772
0.416765
0.416773
0.416764
0.41677
0.416786
0.416768
0.416745
0.416935
0.416767
0.416696
0.416711
0.416746
0.623918
0.534664
0.52168
0.520971
0.523263
0.52554
0.52739
0.528925
0.530214
0.531304
0.532045
0.53289
0.53368
0.534186
0.534558
0.534866
0.535111
0.5353
0.535444
0.535549
0.535624
0.535791
0.535772
0.535632
0.535748
0.535799
0.535782
0.535891
0.535849
0.535687
0.535787
0.535825
0.535796
0.535924
0.535799
0.535774
0.535796
0.535785
0.535865
0.535716
0.364805
0.373519
0.386013
0.395231
0.399894
0.40302
0.405651
0.407777
0.409536
0.410994
0.412208
0.413272
0.414018
0.414577
0.415126
0.415576
0.415923
0.416187
0.416386
0.416532
0.416647
0.416691
0.416717
0.41675
0.416752
0.416767
0.416792
0.416788
0.416777
0.416782
0.41677
0.416771
0.416783
0.416719
0.416259
0.41685
0.41679
0.416764
0.416764
0.416789
0.21751
0.200159
0.196827
0.19554
0.197863
0.199435
0.200508
0.201394
0.20216
0.202825
0.203399
0.203911
0.204338
0.204652
0.204927
0.205151
0.205332
0.205475
0.205587
0.205672
0.205739
0.205794
0.205834
0.205871
0.205878
0.205878
0.205879
0.205887
0.205901
0.205913
0.205907
0.205897
0.205902
0.206
0.207167
0.205281
0.205727
0.205861
0.205889
0.205899
0.189527
0.176667
0.170349
0.169628
0.169139
0.169416
0.16993
0.170518
0.171101
0.171637
0.172121
0.172548
0.172913
0.173216
0.17347
0.173681
0.173852
0.173988
0.174095
0.174178
0.174243
0.174293
0.174334
0.174366
0.174382
0.174392
0.174401
0.174409
0.174417
0.174422
0.174421
0.174419
0.174411
0.174332
0.173647
0.174078
0.174311
0.174393
0.174413
0.174413
0.180052
0.171629
0.165494
0.162342
0.161033
0.160687
0.160801
0.161106
0.161499
0.161917
0.162329
0.162712
0.163041
0.163316
0.163551
0.163749
0.163913
0.164046
0.164152
0.164236
0.164305
0.164363
0.164422
0.164479
0.164511
0.16453
0.164541
0.164551
0.164563
0.164574
0.164573
0.16457
0.164576
0.164617
0.164883
0.164673
0.16459
0.164571
0.164562
0.164555
0.173158
0.166917
0.16254
0.160051
0.15868
0.158016
0.157846
0.157953
0.158209
0.158536
0.158882
0.159192
0.159312
0.15949
0.159682
0.159859
0.160012
0.160139
0.160243
0.160327
0.160398
0.160469
0.16058
0.160839
0.16095
0.160999
0.161022
0.161037
0.161061
0.161076
0.161071
0.161066
0.161062
0.161071
0.161081
0.160909
0.161007
0.161041
0.161046
0.161044
0.167788
0.163846
0.161023
0.159156
0.158039
0.157461
0.157272
0.157337
0.157553
0.157849
0.158182
0.158523
0.158819
0.159066
0.159281
0.159465
0.159619
0.159745
0.159847
0.15993
0.159999
0.160063
0.16014
0.160208
0.160238
0.160256
0.160267
0.16028
0.160307
0.160324
0.160317
0.16031
0.160307
0.160314
0.160333
0.160337
0.160333
0.160321
0.160308
0.160297
0.16589
0.163331
0.161322
0.159943
0.159154
0.158688
0.158631
0.15877
0.159027
0.15935
0.159707
0.160094
0.160395
0.160636
0.160848
0.161031
0.161184
0.161309
0.16141
0.161491
0.161558
0.161618
0.161687
0.161733
0.161744
0.161754
0.161763
0.161775
0.161806
0.161824
0.161812
0.161805
0.161802
0.161815
0.161853
0.161892
0.161875
0.161844
0.161819
0.161805
0.169571
0.166545
0.164333
0.162927
0.162257
0.162146
0.162286
0.162573
0.162934
0.163336
0.163781
0.164472
0.164544
0.164728
0.164928
0.165113
0.165269
0.165396
0.165497
0.165578
0.165642
0.165696
0.165742
0.165779
0.165797
0.16581
0.165821
0.165832
0.165846
0.16586
0.16586
0.165856
0.165862
0.165877
0.165925
0.16605
0.16601
0.165939
0.165885
0.165856
0.180296
0.174825
0.171711
0.170832
0.170849
0.171178
0.171669
0.172209
0.17275
0.173253
0.173664
0.17345
0.174184
0.174691
0.175001
0.175221
0.175388
0.175519
0.175621
0.1757
0.175762
0.175812
0.175855
0.175881
0.175895
0.175908
0.17592
0.175932
0.175943
0.175951
0.175951
0.175952
0.175956
0.17598
0.176095
0.17686
0.176305
0.176055
0.175974
0.175944
0.217563
0.200213
0.196947
0.197315
0.198316
0.199495
0.200513
0.201394
0.20216
0.202824
0.203415
0.203904
0.204301
0.204646
0.204921
0.205141
0.205317
0.205456
0.205564
0.205647
0.205712
0.205767
0.205806
0.205846
0.205854
0.205857
0.205861
0.205873
0.205889
0.205905
0.205901
0.205893
0.205888
0.205892
0.20588
0.205525
0.205833
0.205883
0.205882
0.205886
0.403396
0.380891
0.382597
0.386827
0.390959
0.394263
0.396909
0.39906
0.400831
0.4023
0.403588
0.404657
0.405366
0.406007
0.406542
0.406959
0.407288
0.407543
0.407739
0.407885
0.408002
0.408046
0.408081
0.40813
0.408136
0.408153
0.408181
0.40818
0.408178
0.408196
0.408186
0.408189
0.408204
0.408187
0.408181
0.408424
0.408264
0.408174
0.408163
0.408189
0.348186
0.32006
0.313591
0.312629
0.313472
0.31475
0.316135
0.317467
0.318682
0.319753
0.32067
0.32144
0.322063
0.32259
0.323035
0.3234
0.323689
0.323915
0.324088
0.324218
0.324304
0.324377
0.324395
0.324403
0.324429
0.324458
0.32448
0.324486
0.32447
0.324454
0.324462
0.324476
0.324479
0.324445
0.324331
0.324076
0.324199
0.32434
0.324424
0.324452
0.18028
0.1748
0.171754
0.171576
0.17107
0.17126
0.171693
0.17222
0.172756
0.173263
0.173724
0.174137
0.174489
0.174782
0.175029
0.175233
0.175398
0.175529
0.175632
0.175711
0.175773
0.175822
0.175866
0.17589
0.175905
0.175917
0.175928
0.175938
0.175949
0.175955
0.175955
0.175957
0.175968
0.17602
0.176253
0.176998
0.176338
0.176066
0.175984
0.175955
0.164341
0.159713
0.156335
0.154925
0.154208
0.153997
0.154068
0.154293
0.154603
0.154947
0.155299
0.155649
0.155958
0.156215
0.156435
0.156617
0.156767
0.156887
0.156984
0.157061
0.157124
0.15718
0.157241
0.157281
0.157297
0.157309
0.157319
0.157332
0.157356
0.157373
0.157368
0.157364
0.157359
0.157338
0.157225
0.157276
0.157362
0.157369
0.157361
0.15735
0.163582
0.159271
0.156013
0.153885
0.152598
0.152031
0.151817
0.15183
0.151981
0.152215
0.152497
0.152812
0.153094
0.153316
0.153507
0.153668
0.153801
0.15391
0.153999
0.154073
0.15414
0.154209
0.154299
0.154356
0.154368
0.154375
0.154384
0.154404
0.154452
0.154478
0.154465
0.154455
0.154455
0.154473
0.154524
0.154535
0.154505
0.154472
0.15444
0.154418
0.164348
0.16038
0.157406
0.155339
0.153993
0.153202
0.152809
0.152717
0.15277
0.152937
0.153174
0.153462
0.153726
0.153922
0.154091
0.154236
0.154357
0.154457
0.15454
0.154612
0.154681
0.154759
0.154871
0.154956
0.154976
0.154986
0.154995
0.155016
0.155066
0.155101
0.155095
0.155078
0.155083
0.155103
0.155159
0.155173
0.15515
0.1551
0.155057
0.155025
0.163641
0.160176
0.157603
0.155783
0.154572
0.153831
0.153439
0.153332
0.153364
0.153513
0.153739
0.154027
0.154302
0.154508
0.154684
0.15483
0.154951
0.155051
0.155133
0.155205
0.155273
0.155352
0.155463
0.155535
0.155543
0.155548
0.155549
0.155569
0.155617
0.155655
0.155646
0.155629
0.155636
0.155661
0.155733
0.155763
0.155729
0.155666
0.155613
0.155576
0.161686
0.158769
0.156563
0.154982
0.153937
0.153314
0.153014
0.152959
0.153037
0.153215
0.15346
0.153758
0.154027
0.154231
0.154406
0.154554
0.154677
0.154778
0.154862
0.154933
0.154999
0.155072
0.155167
0.155236
0.155247
0.155252
0.155262
0.155279
0.155326
0.155362
0.155354
0.155338
0.155347
0.155381
0.155472
0.155486
0.155446
0.155381
0.155328
0.155291
0.160665
0.15758
0.155258
0.153649
0.152749
0.152322
0.152173
0.15222
0.152388
0.152629
0.152919
0.153252
0.153518
0.153724
0.153906
0.154062
0.154193
0.1543
0.154388
0.154462
0.154527
0.154594
0.154677
0.154733
0.154743
0.154751
0.15476
0.15478
0.154828
0.154856
0.154841
0.154831
0.154836
0.154866
0.154941
0.154979
0.154938
0.154885
0.154837
0.154805
0.164346
0.159791
0.156466
0.154884
0.154166
0.153965
0.154047
0.15428
0.154595
0.154943
0.155296
0.155588
0.155899
0.156182
0.156416
0.156605
0.156756
0.156876
0.156972
0.157049
0.157112
0.157168
0.157226
0.157267
0.157282
0.157295
0.157306
0.157322
0.15735
0.157369
0.157361
0.157357
0.157362
0.15738
0.157423
0.157412
0.157434
0.157401
0.157368
0.157345
0.190065
0.177672
0.171305
0.169346
0.16914
0.169427
0.169943
0.17053
0.171112
0.171648
0.172132
0.17256
0.172917
0.17322
0.173472
0.173678
0.173843
0.173973
0.174076
0.174156
0.174219
0.174268
0.174306
0.174338
0.174354
0.174366
0.174379
0.174391
0.174402
0.174412
0.174411
0.174413
0.174416
0.174427
0.174467
0.174707
0.174533
0.174449
0.174419
0.174403
0.329514
0.304331
0.298224
0.298673
0.300334
0.302239
0.304043
0.305638
0.30701
0.308171
0.309144
0.309945
0.31062
0.311179
0.311636
0.312
0.312287
0.31251
0.312683
0.312813
0.312907
0.312969
0.312997
0.313013
0.31304
0.313069
0.313089
0.313101
0.313091
0.313081
0.313089
0.313105
0.313118
0.313119
0.313096
0.313029
0.313053
0.313088
0.313107
0.313107
0.303902
0.293034
0.288521
0.28629
0.286138
0.286627
0.287448
0.288406
0.289375
0.290287
0.291101
0.291787
0.292356
0.292841
0.29325
0.293584
0.293853
0.294065
0.294231
0.294358
0.294451
0.294513
0.29454
0.294556
0.294583
0.294611
0.294631
0.29464
0.294628
0.294616
0.294623
0.294636
0.294642