/*--------------------------------*- C++ -*----------------------------------*\
| =========                 |                                                 |
| \\      /  F ield         | OpenFOAM: The Open Source CFD Toolbox           |
|  \\    /   O peration     | Version:  2212                                  |
|   \\  /    A nd           | Website:  www.openfoam.com                      |
|    \\/     M anipulation  |                                                 |
\*---------------------------------------------------------------------------*/
FoamFile
{
    version     2.0;
    format      ascii;
    arch        "LSB;label=32;scalar=64";
    class       volScalarField;
    location    "0.2";
    object      k;
}
// * * * * * * * * * * * * * * * * * * * * * * * * * * * * * * * * * * * * * //

dimensions      [0 2 -2 0 0 0 0];

internalField   nonuniform List<scalar> 
6840
(
0.213565
0.0559162
0.0284061
0.0193351
0.0147296
0.0118768
0.00994525
0.00865866
0.00775771
0.00711021
0.00663948
0.0062986
0.00604709
0.00586115
0.00572373
0.00562434
0.0055527
0.0054993
0.00547462
0.00553155
0.264759
0.104708
0.0585522
0.0392356
0.0287565
0.0222696
0.0180091
0.0150977
0.013052
0.0115945
0.0105452
0.00980585
0.00925029
0.00883507
0.00852918
0.00830734
0.00813908
0.00800132
0.00786535
0.00768752
0.283364
0.126778
0.0717213
0.0473834
0.0339287
0.0258593
0.0208535
0.0174859
0.0150425
0.0132493
0.0119438
0.0109963
0.0103055
0.00980029
0.009421
0.00913352
0.00891256
0.00873441
0.00858079
0.0085571
0.2923
0.141637
0.0819494
0.0542202
0.03898
0.0294999
0.0237163
0.0198374
0.0170288
0.0149367
0.0133961
0.0122635
0.0114328
0.010824
0.0103765
0.0100426
0.00978337
0.00957731
0.00941219
0.00939671
0.295944
0.148787
0.087213
0.0577266
0.0415674
0.0312826
0.0250975
0.0209915
0.0180333
0.0158094
0.0141501
0.012918
0.0120108
0.0113422
0.0108492
0.0104842
0.0102061
0.00998768
0.00981888
0.0097887
0.295944
0.148787
0.087213
0.0577267
0.0415675
0.0312827
0.0250976
0.0209916
0.0180334
0.0158096
0.0141504
0.0129184
0.0120114
0.0113429
0.0108505
0.0104866
0.0102101
0.00999421
0.00982712
0.00974755
0.2923
0.141637
0.0819495
0.0542203
0.0389801
0.0295
0.0237165
0.0198377
0.0170291
0.0149371
0.0133967
0.0122645
0.0114345
0.0108283
0.0103824
0.01005
0.0097942
0.00959487
0.00943537
0.00931856
0.283364
0.126778
0.0717213
0.0473834
0.0339288
0.0258594
0.0208536
0.0174861
0.0150428
0.0132498
0.0119445
0.0109974
0.0103068
0.009803
0.0094262
0.0091415
0.00892516
0.00875694
0.00861951
0.00853563
0.264759
0.104708
0.0585522
0.0392356
0.0287566
0.0222696
0.0180091
0.0150977
0.0130521
0.0115946
0.0105453
0.00980566
0.00924603
0.00883406
0.00853765
0.00831564
0.00814659
0.00801735
0.00790655
0.00780342
0.213565
0.0559162
0.0284061
0.0193351
0.0147296
0.0118768
0.00994526
0.00865866
0.00775774
0.00711017
0.00663945
0.00629883
0.0060459
0.00585981
0.00572521
0.00562644
0.00555427
0.00550026
0.00547501
0.00553137
0.264759
0.104708
0.0585522
0.0392356
0.0287566
0.0222696
0.0180091
0.0150977
0.0130521
0.0115946
0.0105453
0.00980607
0.00925067
0.00883573
0.00853041
0.00830959
0.00814321
0.00801577
0.00790584
0.00780354
0.311746
0.197553
0.130417
0.0913159
0.0671852
0.0515177
0.0409543
0.0336525
0.0285243
0.0248848
0.0222833
0.0204187
0.0190725
0.0180722
0.0173279
0.0167683
0.016342
0.0159891
0.0156383
0.0151018
0.317541
0.217766
0.151139
0.108701
0.0810581
0.0625333
0.0497986
0.0408645
0.0345068
0.0299401
0.0266433
0.0242539
0.0225181
0.0212464
0.0203076
0.0195961
0.0190462
0.0185985
0.0181755
0.0176702
0.319723
0.227085
0.162284
0.118917
0.0896873
0.0696339
0.0556343
0.0456972
0.0385535
0.0333724
0.0295929
0.0268246
0.0247906
0.0232905
0.0221798
0.0213491
0.0207116
0.0201985
0.0197498
0.0192867
0.320485
0.230872
0.167226
0.123672
0.0938332
0.0731117
0.0585318
0.0481238
0.0406035
0.035123
0.0311066
0.0281514
0.0259693
0.0243521
0.0231483
0.022247
0.0215628
0.0210218
0.0205693
0.0201506
0.320485
0.230872
0.167226
0.123672
0.0938333
0.0731118
0.058532
0.048124
0.0406038
0.0351233
0.0311071
0.0281521
0.0259703
0.0243533
0.0231504
0.0222508
0.0215693
0.0210339
0.0205954
0.0202173
0.319723
0.227085
0.162284
0.118917
0.0896875
0.0696341
0.0556346
0.0456976
0.038554
0.0333731
0.0295939
0.0268262
0.024793
0.0232952
0.0221865
0.021359
0.0207274
0.0202278
0.0198127
0.0194313
0.317541
0.217766
0.151139
0.108701
0.0810582
0.0625335
0.0497988
0.0408648
0.0345072
0.0299407
0.0266443
0.0242556
0.0225205
0.0212498
0.0203119
0.0196041
0.0190603
0.0186241
0.0182257
0.017785
0.311746
0.197553
0.130417
0.0913159
0.0671852
0.0515177
0.0409543
0.0336525
0.0285243
0.0248848
0.0222835
0.0204194
0.0190704
0.0180703
0.0173266
0.0167699
0.0163437
0.0159905
0.015639
0.0151015
0.264759
0.104708
0.0585522
0.0392356
0.0287565
0.0222696
0.0180091
0.0150977
0.013052
0.0115945
0.0105451
0.00980542
0.00924562
0.00883324
0.00853621
0.00831318
0.00814229
0.00800288
0.00786596
0.00768733
0.283364
0.126778
0.0717213
0.0473834
0.0339288
0.0258594
0.0208536
0.0174861
0.0150428
0.0132498
0.0119444
0.0109972
0.0103069
0.00980254
0.00942467
0.00913976
0.00892367
0.00875591
0.00861895
0.00853574
0.317541
0.217766
0.151139
0.108701
0.0810582
0.0625335
0.0497988
0.0408648
0.0345072
0.0299406
0.0266441
0.024255
0.0225198
0.0212491
0.020312
0.0196035
0.0190593
0.0186231
0.018225
0.0177849
0.322006
0.239042
0.177649
0.13378
0.102684
0.0805602
0.0646994
0.0532395
0.0449082
0.0388242
0.0343664
0.0310922
0.0286808
0.0268972
0.0255722
0.0245749
0.0238083
0.0231934
0.0226483
0.0220746
0.323294
0.245636
0.187567
0.144714
0.113244
0.0901227
0.0730866
0.0604948
0.0511656
0.0442439
0.0391033
0.0352816
0.0324352
0.0303093
0.0287142
0.0275076
0.0265802
0.0258409
0.0252053
0.0245744
0.323715
0.247839
0.191172
0.148996
0.117644
0.0943087
0.0769048
0.0638996
0.0541699
0.0468878
0.0414374
0.0373569
0.0342987
0.0320019
0.0302699
0.0289549
0.0279434
0.0271426
0.0264716
0.0258464
0.323715
0.247839
0.191172
0.148996
0.117644
0.0943087
0.0769049
0.0638997
0.0541701
0.046888
0.0414377
0.0373573
0.0342993
0.0320027
0.0302712
0.028957
0.0279476
0.0271522
0.0264971
0.0259225
0.323294
0.245636
0.187567
0.144714
0.113244
0.0901228
0.0730867
0.060495
0.0511659
0.0442442
0.0391038
0.0352823
0.0324362
0.0303104
0.0287162
0.0275114
0.0265876
0.0258575
0.0252493
0.0247005
0.322006
0.239042
0.177649
0.13378
0.102684
0.0805602
0.0646994
0.0532396
0.0449082
0.0388242
0.0343665
0.0310924
0.028681
0.0268971
0.0255719
0.0245748
0.0238086
0.0231938
0.0226486
0.0220747
0.317541
0.217766
0.151139
0.108701
0.0810581
0.0625334
0.0497986
0.0408645
0.0345068
0.0299402
0.0266435
0.0242544
0.0225184
0.0212458
0.0203062
0.0195958
0.0190465
0.0185991
0.0181759
0.01767
0.283364
0.126778
0.0717213
0.0473834
0.0339287
0.0258593
0.0208535
0.0174859
0.0150425
0.0132494
0.0119439
0.0109964
0.0103052
0.00979997
0.00942155
0.00913444
0.00891345
0.00873509
0.00858117
0.00855678
0.2923
0.141637
0.0819495
0.0542203
0.0389801
0.0295001
0.0237165
0.0198377
0.0170291
0.0149371
0.0133967
0.0122645
0.0114342
0.0108262
0.0103799
0.0100482
0.00979294
0.00959398
0.00943473
0.00931792
0.319723
0.227085
0.162284
0.118917
0.0896875
0.0696341
0.0556346
0.0456976
0.038554
0.0333731
0.0295939
0.0268261
0.0247928
0.0232938
0.022185
0.0213577
0.0207266
0.0202272
0.0198121
0.0194307
0.323294
0.245636
0.187567
0.144714
0.113244
0.0901228
0.0730867
0.060495
0.0511659
0.0442442
0.0391038
0.0352822
0.0324362
0.0303106
0.0287164
0.0275113
0.0265874
0.0258573
0.0252491
0.0247005
0.32429
0.250888
0.196218
0.155102
0.124029
0.100478
0.0826003
0.0690244
0.0587249
0.0509246
0.0450281
0.0405767
0.0372171
0.0346788
0.0327547
0.0312864
0.0301508
0.0292473
0.0284884
0.0277879
0.324592
0.252433
0.199011
0.158783
0.128169
0.104725
0.0867166
0.0728757
0.062252
0.0541177
0.0479071
0.0431762
0.0395771
0.0368384
0.0347492
0.033146
0.0319
0.0309051
0.0300674
0.0292927
0.324592
0.252433
0.199011
0.158783
0.128169
0.104725
0.0867166
0.0728758
0.062252
0.0541178
0.0479073
0.0431764
0.0395774
0.0368387
0.0347495
0.0331466
0.0319011
0.0309076
0.0300732
0.0293063
0.32429
0.250888
0.196218
0.155102
0.124029
0.100478
0.0826003
0.0690245
0.058725
0.0509247
0.0450282
0.0405768
0.0372173
0.0346787
0.0327545
0.0312863
0.0301508
0.0292473
0.0284884
0.0277878
0.323294
0.245636
0.187567
0.144714
0.113244
0.0901227
0.0730866
0.0604948
0.0511657
0.0442439
0.0391034
0.0352817
0.0324354
0.0303092
0.028714
0.0275075
0.0265803
0.025841
0.0252055
0.0245745
0.319723
0.227085
0.162284
0.118917
0.0896873
0.0696339
0.0556343
0.0456973
0.0385535
0.0333724
0.029593
0.0268248
0.0247907
0.0232904
0.0221795
0.0213491
0.0207117
0.0201987
0.0197502
0.0192871
0.2923
0.141637
0.0819494
0.0542202
0.03898
0.0294999
0.0237163
0.0198374
0.0170288
0.0149367
0.0133961
0.0122635
0.0114326
0.0108239
0.0103766
0.010043
0.00978374
0.00957766
0.0094125
0.00939686
0.295944
0.148787
0.087213
0.0577267
0.0415675
0.0312827
0.0250976
0.0209917
0.0180335
0.0158096
0.0141504
0.0129185
0.0120115
0.0113433
0.0108508
0.0104867
0.01021
0.00999412
0.00982699
0.00974739
0.320485
0.230872
0.167226
0.123672
0.0938333
0.0731118
0.058532
0.048124
0.0406038
0.0351233
0.0311071
0.0281521
0.0259704
0.0243537
0.0231507
0.0222508
0.0215693
0.0210338
0.0205953
0.0202172
0.323715
0.247839
0.191172
0.148996
0.117644
0.0943087
0.0769049
0.0638998
0.0541701
0.046888
0.0414377
0.0373572
0.0342992
0.0320026
0.0302712
0.028957
0.0279476
0.0271522
0.0264971
0.0259227
0.324592
0.252433
0.199011
0.158783
0.128169
0.104725
0.0867166
0.0728758
0.062252
0.0541178
0.0479072
0.0431763
0.0395773
0.0368386
0.0347495
0.0331466
0.0319012
0.0309077
0.0300733
0.0293066
0.324847
0.253723
0.20143
0.162113
0.132072
0.108877
0.0908686
0.0768611
0.0659778
0.0575462
0.0510372
0.0460291
0.0421847
0.0392358
0.03697
0.0352196
0.0338504
0.0327489
0.0318107
0.0309223
0.324847
0.253723
0.20143
0.162113
0.132072
0.108877
0.0908687
0.0768612
0.0659779
0.0575463
0.0510373
0.0460292
0.0421848
0.0392359
0.03697
0.0352196
0.0338503
0.0327489
0.0318107
0.0309222
0.324592
0.252433
0.199011
0.158783
0.128169
0.104725
0.0867166
0.0728758
0.062252
0.0541179
0.0479073
0.0431765
0.0395774
0.0368384
0.034749
0.0331459
0.0319
0.0309052
0.0300675
0.0292927
0.323715
0.247839
0.191172
0.148996
0.117644
0.0943087
0.0769048
0.0638997
0.05417
0.0468879
0.0414376
0.037357
0.0342989
0.0320018
0.0302698
0.0289548
0.0279435
0.0271428
0.0264718
0.0258466
0.320485
0.230872
0.167226
0.123672
0.0938333
0.0731118
0.0585318
0.0481238
0.0406035
0.035123
0.0311067
0.0281515
0.0259694
0.0243521
0.0231484
0.0222472
0.0215631
0.0210221
0.0205697
0.0201513
0.295944
0.148787
0.087213
0.0577266
0.0415674
0.0312826
0.0250975
0.0209915
0.0180333
0.0158094
0.0141501
0.012918
0.0120108
0.0113423
0.0108493
0.0104844
0.0102063
0.00998793
0.0098192
0.00978938
0.295944
0.148787
0.087213
0.0577266
0.0415674
0.0312826
0.0250975
0.0209915
0.0180333
0.0158094
0.0141501
0.012918
0.0120108
0.0113424
0.0108493
0.0104843
0.0102062
0.00998774
0.00981896
0.00978905
0.320485
0.230872
0.167226
0.123672
0.0938332
0.0731117
0.0585319
0.0481238
0.0406035
0.035123
0.0311067
0.0281515
0.0259694
0.0243522
0.0231485
0.0222472
0.0215629
0.0210219
0.0205694
0.0201508
0.323715
0.247839
0.191172
0.148996
0.117644
0.0943087
0.0769048
0.0638996
0.05417
0.0468878
0.0414374
0.0373569
0.0342987
0.0320019
0.03027
0.028955
0.0279435
0.0271427
0.0264716
0.0258465
0.324592
0.252433
0.199011
0.158783
0.128169
0.104725
0.0867166
0.0728758
0.062252
0.0541178
0.0479071
0.0431762
0.0395771
0.0368384
0.0347492
0.0331461
0.0319001
0.0309052
0.0300675
0.0292928
0.324847
0.253723
0.20143
0.162113
0.132072
0.108877
0.0908687
0.0768612
0.0659778
0.0575462
0.0510373
0.0460291
0.0421847
0.0392358
0.03697
0.0352197
0.0338504
0.0327489
0.0318108
0.0309223
0.324847
0.253723
0.20143
0.162113
0.132072
0.108878
0.0908687
0.0768612
0.0659779
0.0575463
0.0510374
0.0460293
0.0421848
0.0392359
0.03697
0.0352196
0.0338504
0.0327489
0.0318108
0.0309223
0.324592
0.252433
0.199011
0.158783
0.128169
0.104725
0.0867167
0.0728758
0.0622521
0.0541179
0.0479074
0.0431766
0.0395776
0.0368387
0.0347493
0.0331465
0.0319011
0.0309077
0.0300733
0.0293065
0.323715
0.247839
0.191172
0.148996
0.117644
0.0943088
0.0769049
0.0638998
0.0541702
0.0468882
0.0414379
0.0373575
0.0342995
0.0320027
0.030271
0.028957
0.0279477
0.0271523
0.0264973
0.0259228
0.320485
0.230872
0.167226
0.123672
0.0938333
0.0731119
0.0585319
0.0481239
0.0406038
0.0351235
0.0311073
0.0281523
0.0259705
0.0243537
0.0231507
0.0222509
0.0215694
0.0210341
0.0205957
0.0202178
0.295944
0.148787
0.087213
0.0577267
0.0415675
0.0312827
0.0250975
0.0209916
0.0180334
0.0158096
0.0141505
0.0129185
0.0120115
0.0113433
0.0108509
0.0104868
0.0102102
0.00999436
0.0098274
0.00974789
0.2923
0.141637
0.0819494
0.0542202
0.03898
0.0294999
0.0237163
0.0198374
0.0170288
0.0149367
0.0133961
0.0122636
0.0114328
0.010824
0.0103765
0.0100427
0.00978341
0.00957734
0.0094122
0.00939656
0.319723
0.227085
0.162284
0.118917
0.0896873
0.0696339
0.0556343
0.0456973
0.0385535
0.0333724
0.0295929
0.0268247
0.0247907
0.0232905
0.0221799
0.0213492
0.0207117
0.0201985
0.0197498
0.0192867
0.323294
0.245636
0.187567
0.144714
0.113244
0.0901227
0.0730866
0.0604948
0.0511657
0.0442439
0.0391034
0.0352816
0.0324353
0.0303093
0.0287143
0.0275077
0.0265803
0.0258409
0.0252053
0.0245743
0.32429
0.250888
0.196218
0.155102
0.124029
0.100478
0.0826004
0.0690245
0.058725
0.0509247
0.0450282
0.0405767
0.0372172
0.0346789
0.0327548
0.0312865
0.0301508
0.0292473
0.0284884
0.0277878
0.324592
0.252433
0.199011
0.158783
0.128169
0.104725
0.0867167
0.0728758
0.0622521
0.0541179
0.0479073
0.0431765
0.0395774
0.0368387
0.0347497
0.0331467
0.0319012
0.0309077
0.0300733
0.0293064
0.324592
0.252433
0.199011
0.158783
0.128169
0.104725
0.0867166
0.0728758
0.062252
0.0541179
0.0479073
0.0431764
0.0395773
0.0368386
0.0347493
0.0331461
0.0319001
0.0309052
0.0300675
0.0292928
0.32429
0.250888
0.196218
0.155102
0.124029
0.100478
0.0826003
0.0690245
0.058725
0.0509248
0.0450284
0.040577
0.0372175
0.0346789
0.0327546
0.0312864
0.0301509
0.0292474
0.0284885
0.0277879
0.323294
0.245636
0.187567
0.144714
0.113244
0.0901228
0.0730867
0.0604951
0.0511662
0.0442446
0.0391042
0.0352826
0.0324365
0.0303107
0.0287163
0.0275114
0.0265876
0.0258576
0.0252494
0.0247007
0.319723
0.227085
0.162284
0.118917
0.0896873
0.0696338
0.0556352
0.0456988
0.038555
0.0333739
0.0295945
0.0268266
0.0247932
0.0232939
0.0221849
0.0213577
0.0207268
0.0202276
0.0198128
0.0194319
0.2923
0.141637
0.0819495
0.0542203
0.03898
0.0295001
0.0237174
0.0198387
0.0170299
0.0149377
0.0133971
0.0122647
0.0114342
0.0108261
0.0103801
0.0100486
0.00979336
0.00959443
0.00943531
0.00931904
0.283364
0.126778
0.0717213
0.0473834
0.0339287
0.0258593
0.0208535
0.0174859
0.0150425
0.0132494
0.0119438
0.0109963
0.0103055
0.00980031
0.00942102
0.00913354
0.00891258
0.00873439
0.00858066
0.0085564
0.317541
0.217766
0.151139
0.108701
0.0810581
0.0625334
0.0497986
0.0408645
0.0345068
0.0299401
0.0266434
0.0242539
0.0225181
0.0212465
0.0203077
0.0195962
0.0190462
0.0185985
0.0181753
0.0176696
0.322006
0.239042
0.177649
0.13378
0.102684
0.0805602
0.0646994
0.0532396
0.0449082
0.0388242
0.0343665
0.0310923
0.0286809
0.0268973
0.0255723
0.0245749
0.0238084
0.0231934
0.0226482
0.0220743
0.323294
0.245636
0.187567
0.144714
0.113244
0.0901228
0.0730867
0.060495
0.051166
0.0442443
0.0391039
0.0352824
0.0324363
0.0303108
0.0287165
0.0275114
0.0265875
0.0258574
0.0252491
0.0247003
0.323715
0.247839
0.191172
0.148996
0.117644
0.0943087
0.0769049
0.0638998
0.0541703
0.0468882
0.0414379
0.0373575
0.0342995
0.0320028
0.0302713
0.0289571
0.0279477
0.0271523
0.0264971
0.0259226
0.323715
0.247839
0.191172
0.148996
0.117644
0.0943087
0.0769048
0.0638997
0.0541701
0.0468881
0.0414377
0.0373572
0.034299
0.0320021
0.0302701
0.0289551
0.0279436
0.0271428
0.0264718
0.0258466
0.323294
0.245636
0.187567
0.144714
0.113244
0.0901228
0.0730866
0.0604949
0.0511658
0.0442441
0.0391036
0.0352819
0.0324355
0.0303093
0.0287142
0.0275079
0.0265806
0.0258413
0.0252057
0.0245747
0.322006
0.239042
0.177649
0.13378
0.102684
0.0805603
0.0646995
0.0532397
0.0449084
0.0388245
0.0343668
0.0310927
0.0286813
0.0268973
0.0255721
0.024575
0.0238088
0.023194
0.0226489
0.022075
0.317541
0.217766
0.151139
0.108701
0.0810582
0.0625335
0.0497993
0.0408656
0.034508
0.0299414
0.0266448
0.024256
0.0225205
0.0212489
0.0203109
0.0196034
0.0190599
0.018624
0.0182258
0.0177855
0.283364
0.126778
0.0717213
0.0473834
0.0339288
0.0258593
0.020854
0.0174866
0.0150433
0.0132502
0.0119448
0.0109976
0.0103067
0.00980236
0.00942536
0.0091408
0.00892467
0.00875666
0.00861946
0.0085359
0.264759
0.104708
0.0585522
0.0392356
0.0287565
0.0222696
0.0180091
0.0150977
0.0130521
0.0115946
0.0105452
0.00980588
0.00925032
0.00883509
0.0085292
0.00830735
0.00813908
0.00800126
0.0078652
0.00768698
0.311746
0.197553
0.130417
0.0913159
0.0671853
0.0515177
0.0409543
0.0336525
0.0285244
0.0248848
0.0222834
0.0204188
0.0190725
0.0180723
0.017328
0.0167683
0.016342
0.0159891
0.0156381
0.015101
0.317541
0.217766
0.151139
0.108701
0.0810583
0.0625335
0.0497988
0.0408649
0.0345073
0.0299408
0.0266443
0.0242552
0.0225199
0.0212492
0.0203121
0.0196035
0.0190593
0.0186231
0.0182249
0.0177844
0.319723
0.227085
0.162284
0.118917
0.0896875
0.0696341
0.0556347
0.0456979
0.0385543
0.0333734
0.0295942
0.0268263
0.024793
0.0232939
0.0221851
0.0213578
0.0207266
0.0202273
0.0198123
0.019431
0.320485
0.230872
0.167226
0.123672
0.0938332
0.0731117
0.0585323
0.0481246
0.0406044
0.0351239
0.0311076
0.0281525
0.0259706
0.0243538
0.0231508
0.0222509
0.0215693
0.0210339
0.0205955
0.0202175
0.320485
0.230872
0.167226
0.123672
0.0938332
0.0731116
0.0585322
0.0481244
0.0406041
0.0351235
0.0311071
0.0281519
0.0259697
0.0243521
0.0231484
0.0222473
0.0215632
0.0210222
0.0205698
0.0201512
0.319723
0.227085
0.162284
0.118917
0.0896873
0.0696339
0.0556345
0.0456975
0.0385539
0.0333728
0.0295933
0.0268251
0.0247912
0.0232922
0.0221816
0.0213508
0.0207127
0.0201994
0.0197506
0.0192873
0.317541
0.217766
0.151139
0.108701
0.0810582
0.0625334
0.0497987
0.0408647
0.0345071
0.0299405
0.0266438
0.0242548
0.022519
0.0212474
0.0203079
0.0195971
0.0190475
0.0185998
0.0181764
0.0176704
0.311746
0.197553
0.130417
0.0913159
0.0671853
0.0515178
0.0409547
0.033653
0.0285248
0.0248853
0.0222839
0.0204197
0.0190706
0.0180705
0.0173267
0.01677
0.0163438
0.0159906
0.0156392
0.0151018
0.264759
0.104708
0.0585523
0.0392356
0.0287566
0.0222697
0.0180093
0.015098
0.0130524
0.0115949
0.0105455
0.00980582
0.00924611
0.00883392
0.00853741
0.00831542
0.00814644
0.00801728
0.00790658
0.00780359
0.213565
0.0559162
0.0284061
0.0193351
0.0147296
0.0118768
0.00994526
0.00865867
0.00775773
0.00711022
0.0066395
0.00629862
0.00604711
0.00586116
0.00572374
0.00562434
0.00555269
0.00549927
0.0054745
0.00553116
0.264759
0.104708
0.0585522
0.0392356
0.0287566
0.0222696
0.0180091
0.0150978
0.0130521
0.0115947
0.0105453
0.00980612
0.00925071
0.00883576
0.00853044
0.0083096
0.00814321
0.00801571
0.00790567
0.00780302
0.283364
0.126778
0.0717213
0.0473834
0.0339288
0.0258594
0.0208537
0.0174862
0.0150429
0.0132498
0.0119445
0.0109973
0.010307
0.00980258
0.0094247
0.00913977
0.00892368
0.00875588
0.0086188
0.00853517
0.2923
0.141637
0.0819495
0.0542203
0.0389801
0.0295001
0.0237166
0.0198379
0.0170293
0.0149373
0.0133969
0.0122646
0.0114343
0.0108262
0.0103799
0.0100483
0.00979297
0.00959403
0.00943484
0.00931823
0.295944
0.148787
0.087213
0.0577267
0.0415675
0.0312827
0.025098
0.0209922
0.0180339
0.0158099
0.0141507
0.0129187
0.0120116
0.0113434
0.0108508
0.0104867
0.0102101
0.00999419
0.00982716
0.00974763
0.295944
0.148787
0.087213
0.0577266
0.0415674
0.0312826
0.0250979
0.0209921
0.0180338
0.0158097
0.0141504
0.0129183
0.0120109
0.0113421
0.0108492
0.0104844
0.0102063
0.00998798
0.00981923
0.00978935
0.2923
0.141637
0.0819494
0.0542202
0.03898
0.0294999
0.0237164
0.0198376
0.017029
0.0149369
0.0133963
0.0122638
0.0114333
0.0108263
0.0103792
0.0100446
0.0097848
0.00957835
0.00941294
0.00939711
0.283364
0.126778
0.0717213
0.0473834
0.0339287
0.0258593
0.0208536
0.017486
0.0150426
0.0132495
0.011944
0.0109966
0.0103055
0.00980091
0.0094227
0.00913544
0.00891422
0.00873565
0.00858156
0.00855704
0.264759
0.104708
0.0585523
0.0392356
0.0287566
0.0222697
0.0180092
0.0150979
0.0130522
0.0115947
0.0105453
0.00980557
0.00924575
0.00883341
0.00853641
0.0083134
0.00814249
0.00800307
0.00786614
0.00768751
0.213565
0.0559162
0.0284061
0.0193351
0.0147297
0.0118768
0.00994517
0.00865863
0.00775776
0.00711022
0.00663951
0.0062989
0.00604595
0.00585984
0.00572523
0.00562645
0.00555429
0.0055003
0.00547507
0.00553147
0.00626185
0.00565658
0.00553433
0.0055178
0.0055286
0.00554272
0.00555443
0.00556487
0.00557407
0.00558206
0.00558892
0.00559499
0.0056006
0.00560475
0.00560754
0.00560993
0.00561208
0.00561383
0.00561522
0.00561631
0.00561721
0.00561829
0.00561932
0.0056196
0.00561967
0.00561931
0.00561907
0.00561945
0.00562013
0.00562006
0.00561991
0.00561942
0.00561914
0.00562018
0.00561829
0.00562054
0.00562004
0.00561946
0.00561976
0.00561981
0.00746715
0.00712038
0.00712262
0.00716877
0.00720954
0.00724267
0.00727235
0.00729776
0.00731922
0.0073375
0.00735291
0.00736674
0.00737809
0.0073867
0.00739403
0.00740013
0.00740515
0.00740922
0.00741247
0.007415
0.00741696
0.00741829
0.00741968
0.0074208
0.00742083
0.0074207
0.00742063
0.00742057
0.00742096
0.0074214
0.00742118
0.0074208
0.00742069
0.00742011
0.00741655
0.00742328
0.00742291
0.00742164
0.00742105
0.00742142
0.00835925
0.00789187
0.00774731
0.0077306
0.00774731
0.00777332
0.00780023
0.00782518
0.00784745
0.00786702
0.00788403
0.00789866
0.00791125
0.00792201
0.00793109
0.00793871
0.00794497
0.00795003
0.00795408
0.00795725
0.00795967
0.00796142
0.00796245
0.00796325
0.00796356
0.00796374
0.00796382
0.00796383
0.00796376
0.00796369
0.00796368
0.00796374
0.0079639
0.00796464
0.00796835
0.00796766
0.00796619
0.00796514
0.0079646
0.00796434
0.0090019
0.00866234
0.0085194
0.00846866
0.00846848
0.00848294
0.00850321
0.00852504
0.00854642
0.00856636
0.00858439
0.00860041
0.00861465
0.0086271
0.00863776
0.00864669
0.00865404
0.00866
0.00866477
0.00866853
0.0086714
0.00867341
0.00867468
0.00867509
0.00867515
0.00867511
0.00867507
0.00867501
0.00867488
0.00867477
0.00867473
0.00867474
0.00867471
0.0086743
0.00867267
0.00867352
0.00867437
0.00867486
0.00867512
0.00867524
0.00931037
0.00907162
0.00895271
0.00890112
0.00888069
0.00888294
0.00889478
0.00891147
0.00893006
0.0089487
0.00896637
0.00898275
0.00899839
0.00901212
0.00902375
0.00903342
0.00904135
0.00904778
0.00905294
0.009057
0.00906011
0.00906228
0.00906343
0.00906295
0.00906226
0.00906178
0.0090615
0.00906134
0.00906121
0.00906111
0.00906107
0.00906108
0.00906113
0.00906116
0.00906131
0.00906234
0.00906224
0.009062
0.00906184
0.00906179
0.00932677
0.00920625
0.00912709
0.00908184
0.00906107
0.00905687
0.00906307
0.00907558
0.0090914
0.00910839
0.00912508
0.00914058
0.00915471
0.00916725
0.00917814
0.0091874
0.00919512
0.00920147
0.0092066
0.00921067
0.0092138
0.00921609
0.00921759
0.00921843
0.00921891
0.00921923
0.00921946
0.0092196
0.00921964
0.00921965
0.00921967
0.00921973
0.00921979
0.00921979
0.00921973
0.00921987
0.0092199
0.00921991
0.00922002
0.00922015
0.0092655
0.00914937
0.00906524
0.00901422
0.00898908
0.00898209
0.0089863
0.00899732
0.00901194
0.00902785
0.00904343
0.00905769
0.00907088
0.00908278
0.0090932
0.00910208
0.00910948
0.00911557
0.00912048
0.00912439
0.0091274
0.00912962
0.00913111
0.00913212
0.00913288
0.00913347
0.00913391
0.00913418
0.00913425
0.00913427
0.00913435
0.00913447
0.00913456
0.00913454
0.00913434
0.00913419
0.00913407
0.00913414
0.00913436
0.00913455
0.00916005
0.00886597
0.00872216
0.00866259
0.00863507
0.00863541
0.00864478
0.00865893
0.00867512
0.0086915
0.00870664
0.00871897
0.00873224
0.00874415
0.00875425
0.00876264
0.00876953
0.00877514
0.00877964
0.0087832
0.00878595
0.00878796
0.00878933
0.00879027
0.00879101
0.00879161
0.00879206
0.00879234
0.00879241
0.00879242
0.0087925
0.00879262
0.0087927
0.00879258
0.00879209
0.00879118
0.00879098
0.00879136
0.00879187
0.0087923
0.00871657
0.00814775
0.00799733
0.00796773
0.00797307
0.00798822
0.00800678
0.00802596
0.00804446
0.00806166
0.00807752
0.00809436
0.0081054
0.00811402
0.00812157
0.00812818
0.00813382
0.00813851
0.00814231
0.00814533
0.00814762
0.00814934
0.00815063
0.00815144
0.00815206
0.00815254
0.00815289
0.00815314
0.00815322
0.00815326
0.00815334
0.0081534
0.00815339
0.00815311
0.00815183
0.00814708
0.00814825
0.00815023
0.00815172
0.00815256
0.00688323
0.00696722
0.00711999
0.00723115
0.0072975
0.0073429
0.00737641
0.00740264
0.00742414
0.00744211
0.00745814
0.00747289
0.00748309
0.00749104
0.00749761
0.00750318
0.00750785
0.00751168
0.00751475
0.00751715
0.00751902
0.00752036
0.00752182
0.00752295
0.0075231
0.00752307
0.00752314
0.0075233
0.00752376
0.00752427
0.00752405
0.00752375
0.00752355
0.00752337
0.00752356
0.00752468
0.00752326
0.00752249
0.00752268
0.00752358
0.00626119
0.00565516
0.00553258
0.00551291
0.00552538
0.00554074
0.00555376
0.0055647
0.00557406
0.00558212
0.00558923
0.00559633
0.00560117
0.00560439
0.00560721
0.00560972
0.0056118
0.00561349
0.00561485
0.00561592
0.00561681
0.00561788
0.00561891
0.00561923
0.00561937
0.00561905
0.00561885
0.00561928
0.00561998
0.00561996
0.00561984
0.00561937
0.00561906
0.00561943
0.0056197
0.00562024
0.00561972
0.00561908
0.00561934
0.0056195
0.00688468
0.00697044
0.00712479
0.00724419
0.00730536
0.00734554
0.00737719
0.00740296
0.00742432
0.00744237
0.00745755
0.00747118
0.00748226
0.00749054
0.00749756
0.0075034
0.00750822
0.00751214
0.00751527
0.0075177
0.00751959
0.00752092
0.00752234
0.00752345
0.00752352
0.00752343
0.00752343
0.00752349
0.00752392
0.00752439
0.00752413
0.00752378
0.00752357
0.00752276
0.00751784
0.00752418
0.00752414
0.00752352
0.0075235
0.00752413
0.0123302
0.0129238
0.0133008
0.0135395
0.013688
0.0137892
0.0138647
0.0139244
0.0139736
0.0140149
0.0140498
0.0140789
0.0141034
0.0141241
0.0141412
0.0141553
0.0141668
0.0141761
0.0141836
0.0141893
0.0141938
0.014197
0.0141992
0.0142005
0.0142015
0.0142022
0.0142027
0.014203
0.014203
0.0142029
0.014203
0.0142031
0.0142031
0.0142027
0.0141998
0.0142028
0.0142034
0.0142035
0.0142036
0.0142036
0.0151651
0.0153421
0.0155145
0.015653
0.0157677
0.0158597
0.0159348
0.0159978
0.0160516
0.016098
0.016138
0.0161721
0.0162013
0.0162261
0.0162471
0.0162646
0.016279
0.0162907
0.0163001
0.0163075
0.0163131
0.0163173
0.01632
0.0163217
0.0163228
0.0163236
0.0163242
0.0163246
0.0163247
0.0163246
0.0163246
0.0163248
0.0163252
0.0163261
0.0163293
0.0163282
0.0163271
0.0163264
0.0163261
0.0163259
0.0172129
0.0171628
0.0171669
0.0172016
0.0172506
0.0173043
0.017358
0.01741
0.0174592
0.0175043
0.0175448
0.0175807
0.0176124
0.0176397
0.017663
0.0176826
0.0176988
0.017712
0.0177226
0.0177311
0.0177377
0.0177425
0.0177458
0.0177476
0.0177485
0.0177492
0.0177496
0.01775
0.0177503
0.0177504
0.0177504
0.0177504
0.0177504
0.0177502
0.0177494
0.0177502
0.0177508
0.0177512
0.0177514
0.0177516
0.0185102
0.0183535
0.0182629
0.0182227
0.018219
0.0182352
0.0182649
0.0183025
0.0183434
0.018384
0.0184224
0.0184579
0.0184902
0.0185183
0.0185425
0.0185629
0.0185799
0.0185939
0.0186053
0.0186144
0.0186214
0.0186267
0.0186303
0.0186319
0.0186327
0.0186333
0.0186338
0.0186342
0.0186345
0.0186348
0.0186348
0.0186349
0.0186351
0.0186352
0.0186357
0.0186364
0.0186363
0.0186361
0.018636
0.0186361
0.0191437
0.0189136
0.0187669
0.0186846
0.0186482
0.0186445
0.0186583
0.0186848
0.0187185
0.0187548
0.0187905
0.018824
0.0188544
0.0188814
0.0189048
0.018925
0.0189419
0.018956
0.0189675
0.0189767
0.0189839
0.0189894
0.0189935
0.0189962
0.0189979
0.0189991
0.0190001
0.0190007
0.0190013
0.0190017
0.0190018
0.0190019
0.0190021
0.0190022
0.0190026
0.0190028
0.0190027
0.0190027
0.0190028
0.0190029
0.0189931
0.018759
0.0186047
0.018516
0.0184749
0.0184683
0.0184792
0.0185031
0.0185348
0.0185694
0.0186036
0.0186357
0.0186649
0.0186908
0.0187136
0.0187331
0.0187495
0.0187632
0.0187743
0.0187833
0.0187903
0.0187957
0.0187997
0.0188025
0.0188045
0.0188059
0.018807
0.0188078
0.0188085
0.0188088
0.018809
0.0188092
0.0188094
0.0188095
0.0188098
0.0188099
0.0188097
0.0188096
0.0188097
0.0188098
0.0180885
0.0178626
0.017738
0.0176812
0.0176691
0.0176776
0.0177009
0.0177329
0.0177691
0.0178055
0.0178397
0.0178699
0.0178991
0.0179249
0.0179471
0.0179658
0.0179813
0.0179941
0.0180045
0.0180128
0.0180193
0.0180242
0.0180278
0.0180304
0.0180323
0.0180337
0.0180348
0.0180355
0.0180361
0.0180364
0.0180365
0.0180368
0.0180369
0.0180369
0.0180368
0.0180372
0.0180367
0.0180363
0.0180365
0.0180368
0.0161663
0.0160871
0.016092
0.0161282
0.0161779
0.0162296
0.0162793
0.0163263
0.0163701
0.0164102
0.0164463
0.0164796
0.0165068
0.0165296
0.016549
0.0165655
0.0165791
0.0165904
0.0165995
0.0166067
0.0166123
0.0166165
0.0166194
0.0166215
0.0166231
0.0166244
0.0166254
0.0166261
0.0166264
0.0166265
0.0166267
0.0166269
0.016627
0.0166267
0.0166254
0.016622
0.0166228
0.0166242
0.0166256
0.0166264
0.0123264
0.0129155
0.0132908
0.0135285
0.0136826
0.0137876
0.0138646
0.0139247
0.0139738
0.0140149
0.0140497
0.0140814
0.0141056
0.014125
0.0141411
0.0141546
0.0141657
0.0141747
0.014182
0.0141877
0.014192
0.0141952
0.0141975
0.014199
0.0142002
0.0142012
0.0142019
0.0142024
0.0142025
0.0142026
0.0142027
0.0142029
0.014203
0.0142028
0.0142017
0.0141996
0.0141998
0.0142007
0.0142018
0.0142025
0.00746589
0.00711647
0.00711691
0.00715692
0.00720243
0.00724059
0.00727205
0.00729792
0.00731952
0.00733767
0.00735379
0.00736814
0.00737848
0.00738687
0.0073938
0.0073996
0.0074044
0.00740831
0.00741143
0.00741388
0.00741579
0.00741711
0.00741857
0.00741975
0.00741996
0.00741997
0.00742008
0.00742018
0.00742065
0.00742118
0.00742098
0.00742073
0.00742057
0.00742039
0.00742079
0.00742239
0.00742113
0.00742021
0.00742019
0.00742085
0.0087175
0.00815001
0.00800063
0.00796507
0.00797131
0.00798746
0.00800675
0.00802642
0.0080452
0.00806251
0.00807803
0.00809158
0.00810321
0.00811306
0.00812136
0.00812832
0.00813409
0.00813879