/*--------------------------------*- C++ -*----------------------------------*\
| =========                 |                                                 |
| \\      /  F ield         | OpenFOAM: The Open Source CFD Toolbox           |
|  \\    /   O peration     | Version:  2212                                  |
|   \\  /    A nd           | Website:  www.openfoam.com                      |
|    \\/     M anipulation  |                                                 |
\*---------------------------------------------------------------------------*/
FoamFile
{
    version     2.0;
    format      ascii;
    arch        "LSB;label=32;scalar=64";
    class       volScalarField;
    location    "0.2";
    object      nut;
}
// * * * * * * * * * * * * * * * * * * * * * * * * * * * * * * * * * * * * * //

dimensions      [0 2 -1 0 0 0 0];

internalField   nonuniform List<scalar> 
6840
(
4.53564e-05
2.32085e-05
1.65391e-05
1.36428e-05
1.1874e-05
1.06858e-05
9.69266e-06
8.91473e-06
8.30862e-06
7.84077e-06
7.46671e-06
7.18359e-06
6.95895e-06
6.78477e-06
6.65039e-06
6.54859e-06
6.47307e-06
6.41674e-06
6.39005e-06
6.39254e-06
0.000107685
6.77149e-05
5.06098e-05
4.13558e-05
3.52877e-05
3.0799e-05
2.73341e-05
2.45887e-05
2.23897e-05
2.06436e-05
1.92262e-05
1.82254e-05
1.74057e-05
1.6756e-05
1.62615e-05
1.58808e-05
1.55853e-05
1.5353e-05
1.51268e-05
1.48339e-05
0.000160509
0.000107355
8.07179e-05
6.5527e-05
5.54008e-05
4.80195e-05
4.25493e-05
3.83203e-05
3.49329e-05
3.21e-05
2.98007e-05
2.79886e-05
2.65787e-05
2.5507e-05
2.46761e-05
2.40193e-05
2.35018e-05
2.30865e-05
2.27299e-05
2.25222e-05
0.000198681
0.000138295
0.000105162
8.54442e-05
7.24043e-05
6.25272e-05
5.53349e-05
4.97322e-05
4.5348e-05
4.16544e-05
3.862e-05
3.61637e-05
3.42137e-05
3.26963e-05
3.15333e-05
3.0661e-05
2.99586e-05
2.93936e-05
2.89353e-05
2.87345e-05
0.000218609
0.000154997
0.000118635
9.64207e-05
8.17897e-05
7.044e-05
6.22869e-05
5.59696e-05
5.10784e-05
4.6894e-05
4.34027e-05
4.05595e-05
3.83208e-05
3.65721e-05
3.52178e-05
3.41895e-05
3.33911e-05
3.27497e-05
3.22419e-05
3.2015e-05
0.000218609
0.000154997
0.000118635
9.64208e-05
8.17898e-05
7.04401e-05
6.22871e-05
5.59699e-05
5.10788e-05
4.68945e-05
4.34035e-05
4.05607e-05
3.83226e-05
3.65747e-05
3.52221e-05
3.41959e-05
3.34016e-05
3.2766e-05
3.22452e-05
3.1962e-05
0.000198681
0.000138295
0.000105162
8.54443e-05
7.24044e-05
6.25274e-05
5.53352e-05
4.97327e-05
4.53487e-05
4.16555e-05
3.86216e-05
3.61662e-05
3.42176e-05
3.27043e-05
3.15468e-05
3.06779e-05
2.99845e-05
2.94363e-05
2.89971e-05
2.86548e-05
0.000160509
0.000107355
8.0718e-05
6.55271e-05
5.54009e-05
4.80196e-05
4.25495e-05
3.83207e-05
3.49335e-05
3.21008e-05
2.98022e-05
2.79913e-05
2.65818e-05
2.55122e-05
2.46867e-05
2.40361e-05
2.35291e-05
2.31343e-05
2.28254e-05
2.26455e-05
0.000107685
6.77149e-05
5.06098e-05
4.13558e-05
3.52877e-05
3.0799e-05
2.73341e-05
2.45888e-05
2.23898e-05
2.06437e-05
1.92265e-05
1.82258e-05
1.74016e-05
1.67559e-05
1.62729e-05
1.58925e-05
1.5598e-05
1.53756e-05
1.52032e-05
1.50769e-05
4.53564e-05
2.32085e-05
1.65391e-05
1.36428e-05
1.1874e-05
1.06858e-05
9.69266e-06
8.91472e-06
8.30863e-06
7.84079e-06
7.4666e-06
7.184e-06
6.95852e-06
6.78358e-06
6.65126e-06
6.55037e-06
6.4746e-06
6.41779e-06
6.39057e-06
6.39257e-06
0.000107685
6.77149e-05
5.06098e-05
4.13559e-05
3.52877e-05
3.0799e-05
2.73341e-05
2.45888e-05
2.23898e-05
2.06437e-05
1.92264e-05
1.82259e-05
1.74064e-05
1.67573e-05
1.62638e-05
1.58852e-05
1.55932e-05
1.53735e-05
1.52019e-05
1.50766e-05
0.000528909
0.000370019
0.000305268
0.000261912
0.000229857
0.000205188
0.000185884
0.000170609
0.0001585
0.000148977
0.000141352
0.000135495
0.000131305
0.000126194
0.000122637
0.000119758
0.00011759
0.00011557
0.000113002
0.000104932
0.000663956
0.000488504
0.000404813
0.00034784
0.00030655
0.000275247
0.000250941
0.000232008
0.000217429
0.000206354
0.000198273
0.000192796
0.000188867
0.000185425
0.000183311
0.00017982
0.000176835
0.000173971
0.000170068
0.000161697
0.000712886
0.000556484
0.000466614
0.000403008
0.00035608
0.000320464
0.000292837
0.000271327
0.000254912
0.000242625
0.000233571
0.000226985
0.000222198
0.000218808
0.000216443
0.000214849
0.000212769
0.000209391
0.000205227
0.000197433
0.00072855
0.000588286
0.000496227
0.000429804
0.0003802
0.000342431
0.000313161
0.000290375
0.000272961
0.000259953
0.000250423
0.000243524
0.000238523
0.000234841
0.000232126
0.000230251
0.000229115
0.000226507
0.000222764
0.000216436
0.00072855
0.000588286
0.000496228
0.000429804
0.0003802
0.000342431
0.000313161
0.000290376
0.000272962
0.000259956
0.000250427
0.000243531
0.000238529
0.000234791
0.000232148
0.000230323
0.000229254
0.000226822
0.000223593
0.000219105
0.000712886
0.000556484
0.000466614
0.000403008
0.000356081
0.000320465
0.000292839
0.000271329
0.000254916
0.00024263
0.000233582
0.000227007
0.00022226
0.00021918
0.000216704
0.000215142
0.000213107
0.000210108
0.000207022
0.000202502
0.000663956
0.000488504
0.000404814
0.000347841
0.00030655
0.000275247
0.000250942
0.00023201
0.000217431
0.000206359
0.000198288
0.000192838
0.000188856
0.000185485
0.000183416
0.000180008
0.000177119
0.000174479
0.000170896
0.000163752
0.000528909
0.000370019
0.000305268
0.000261912
0.000229857
0.000205188
0.000185884
0.000170609
0.0001585
0.000148978
0.000141352
0.000135517
0.000131041
0.000126134
0.000122456
0.000119795
0.00011758
0.00011556
0.000112985
0.000104919
0.000107685
6.77149e-05
5.06098e-05
4.13558e-05
3.52877e-05
3.0799e-05
2.73341e-05
2.45887e-05
2.23897e-05
2.06435e-05
1.92263e-05
1.82253e-05
1.74009e-05
1.67545e-05
1.62703e-05
1.58879e-05
1.55899e-05
1.53552e-05
1.5128e-05
1.48341e-05
0.000160509
0.000107355
8.0718e-05
6.55271e-05
5.54009e-05
4.80196e-05
4.25495e-05
3.83207e-05
3.49335e-05
3.21008e-05
2.9802e-05
2.79906e-05
2.65819e-05
2.55122e-05
2.46845e-05
2.40334e-05
2.35266e-05
2.31324e-05
2.2824e-05
2.26446e-05
0.000663956
0.000488504
0.000404814
0.000347841
0.00030655
0.000275248
0.000250942
0.00023201
0.000217431
0.000206358
0.000198281
0.000192809
0.000188889
0.000185465
0.000183386
0.000179949
0.000177083
0.000174457
0.00017089
0.000163794
0.000786839
0.000662383
0.000568299
0.00049671
0.000441595
0.000398975
0.000366126
0.000341087
0.000322499
0.000309196
0.000300107
0.000294295
0.000290661
0.000288433
0.000287113
0.000285706
0.000283969
0.000281487
0.000277254
0.000268806
0.000809341
0.000714027
0.000631916
0.000563668
0.000507877
0.000462848
0.000427105
0.00039944
0.000378781
0.00036412
0.000354397
0.000348486
0.000345254
0.000343704
0.000343018
0.000342546
0.000341669
0.000339728
0.000335844
0.000327948
0.000814978
0.000730564
0.000655092
0.000590239
0.000535754
0.000490816
0.000454525
0.00042608
0.000404665
0.000389389
0.000379272
0.000373209
0.000370058
0.00036875
0.000368418
0.00036838
0.000368026
0.000366619
0.000363394
0.000356828
0.000814978
0.000730564
0.000655092
0.000590239
0.000535754
0.000490816
0.000454525
0.000426081
0.000404666
0.00038939
0.000379273
0.000373211
0.00037006
0.000368751
0.000368434
0.000368428
0.000368143
0.000366923
0.000364262
0.000359473
0.000809341
0.000714027
0.000631916
0.000563668
0.000507877
0.000462848
0.000427105
0.000399441
0.000378782
0.000364122
0.0003544
0.000348489
0.000345256
0.000343745
0.000343099
0.000342673
0.000341894
0.000340251
0.000337296
0.000332287
0.000786839
0.000662383
0.000568299
0.00049671
0.000441595
0.000398975
0.000366126
0.000341087
0.000322499
0.000309196
0.000300108
0.000294292
0.00029063
0.000288409
0.000287128
0.000285743
0.000284006
0.000281516
0.000277273
0.0002688
0.000663956
0.000488504
0.000404813
0.00034784
0.00030655
0.000275247
0.000250941
0.000232008
0.000217429
0.000206354
0.000198281
0.000192823
0.000188822
0.000185396
0.0001833
0.000179857
0.000176861
0.000173988
0.00017007
0.000161679
0.000160509
0.000107355
8.07179e-05
6.5527e-05
5.54008e-05
4.80195e-05
4.25493e-05
3.83203e-05
3.49329e-05
3.21e-05
2.98009e-05
2.79893e-05
2.65785e-05
2.55062e-05
2.4677e-05
2.40209e-05
2.35036e-05
2.3088e-05
2.27311e-05
2.25227e-05
0.000198681
0.000138295
0.000105162
8.54443e-05
7.24044e-05
6.25274e-05
5.53352e-05
4.97327e-05
4.53487e-05
4.16555e-05
3.86216e-05
3.61661e-05
3.42173e-05
3.2702e-05
3.15423e-05
3.06756e-05
2.99829e-05
2.94351e-05
2.8996e-05
2.86534e-05
0.000712886
0.000556484
0.000466614
0.000403008
0.000356081
0.000320465
0.000292839
0.000271329
0.000254916
0.00024263
0.00023358
0.000227001
0.000222225
0.000218859
0.000216535
0.000215021
0.000213097
0.000210097
0.000207003
0.000202448
0.000809341
0.000714027
0.000631916
0.000563668
0.000507877
0.000462848
0.000427105
0.000399441
0.000378782
0.000364122
0.0003544
0.000348492
0.000345264
0.000343725
0.000343059
0.000342632
0.000341863
0.000340223
0.000337263
0.000332224
0.000823524
0.000754168
0.000689065
0.000630186
0.000578517
0.000534388
0.000497802
0.000468579
0.000446359
0.000430558
0.000420332
0.000414614
0.000412202
0.000411896
0.000412665
0.000413647
0.00041409
0.000413328
0.000410618
0.000404864
0.000826325
0.000764563
0.000706772
0.000653577
0.000605722
0.000563808
0.000528258
0.000499309
0.000476957
0.000460892
0.000450472
0.00044475
0.000442571
0.000442708
0.000444074
0.000445724
0.000446794
0.000446526
0.000444096
0.000438367
0.000826325
0.000764563
0.000706772
0.000653577
0.000605722
0.000563808
0.000528259
0.000499309
0.000476957
0.000460892
0.000450471
0.000444747
0.000442564
0.000442692
0.000444064
0.000445732
0.000446828
0.000446617
0.000444326
0.00043893
0.000823524
0.000754168
0.000689065
0.000630186
0.000578517
0.000534388
0.000497802
0.000468579
0.000446359
0.000430557
0.000420329
0.000414604
0.000412172
0.000411873
0.000412674
0.000413664
0.000414112
0.000413355
0.000410654
0.000404929
0.000809341
0.000714027
0.000631916
0.000563668
0.000507877
0.000462848
0.000427105
0.00039944
0.000378781
0.00036412
0.000354396
0.00034848
0.000345234
0.000343687
0.000343026
0.000342566
0.000341695
0.000339755
0.000335874
0.000327989
0.000712886
0.000556484
0.000466614
0.000403008
0.00035608
0.000320464
0.000292837
0.000271327
0.000254912
0.000242625
0.000233572
0.000226986
0.000222191
0.000218795
0.000216441
0.000214859
0.000212782
0.000209404
0.000205239
0.000197443
0.000198681
0.000138295
0.000105162
8.54442e-05
7.24043e-05
6.25272e-05
5.53349e-05
4.97322e-05
4.5348e-05
4.16544e-05
3.862e-05
3.61637e-05
3.42134e-05
3.26959e-05
3.15333e-05
3.06616e-05
2.99594e-05
2.93943e-05
2.89359e-05
2.87342e-05
0.000218609
0.000154997
0.000118635
9.64207e-05
8.17897e-05
7.04401e-05
6.22871e-05
5.59699e-05
5.10788e-05
4.68945e-05
4.34035e-05
4.05607e-05
3.83226e-05
3.65749e-05
3.52221e-05
3.41963e-05
3.34018e-05
3.27659e-05
3.22449e-05
3.19618e-05
0.00072855
0.000588286
0.000496228
0.000429804
0.0003802
0.000342431
0.000313161
0.000290376
0.000272962
0.000259956
0.000250427
0.000243532
0.000238538
0.000234872
0.000232173
0.000230328
0.000229257
0.000226818
0.000223586
0.000219088
0.000814978
0.000730564
0.000655092
0.000590239
0.000535754
0.000490816
0.000454525
0.000426081
0.000404666
0.000389391
0.000379274
0.000373213
0.000370067
0.000368768
0.000368448
0.000368434
0.000368143
0.000366916
0.000364241
0.000359417
0.000826325
0.000764563
0.000706772
0.000653577
0.000605722
0.000563808
0.000528259
0.000499309
0.000476957
0.000460892
0.000450473
0.000444752
0.000442576
0.000442718
0.00044409
0.000445746
0.000446832
0.000446609
0.000444299
0.000438862
0.000828423
0.000772864
0.000721938
0.000674873
0.000631755
0.000593089
0.000559503
0.000531556
0.000509585
0.000493589
0.000483177
0.000477575
0.000475716
0.000476378
0.000478432
0.000480837
0.000482593
0.000482825
0.000480567
0.000474461
0.000828423
0.000772864
0.000721938
0.000674873
0.000631755
0.000593089
0.000559503
0.000531555
0.000509585
0.000493589
0.000483175
0.00047757
0.000475704
0.000476355
0.000478411
0.000480828
0.000482593
0.000482832
0.000480582
0.000474491
0.000826325
0.000764563
0.000706772
0.000653577
0.000605722
0.000563808
0.000528258
0.000499309
0.000476957
0.000460891
0.000450468
0.000444738
0.000442536
0.000442683
0.000444092
0.000445747
0.000446819
0.000446553
0.000444125
0.000438404
0.000814978
0.000730564
0.000655092
0.000590239
0.000535754
0.000490816
0.000454525
0.00042608
0.000404665
0.000389389
0.00037927
0.000373202
0.00037004
0.00036874
0.000368433
0.000368402
0.000368053
0.000366648
0.000363425
0.00035687
0.00072855
0.000588286
0.000496227
0.000429804
0.0003802
0.000342431
0.00031316
0.000290374
0.00027296
0.000259953
0.000250423
0.000243523
0.000238521
0.000234844
0.000232134
0.000230262
0.000229129
0.00022652
0.000222785
0.000216489
0.000218609
0.000154997
0.000118635
9.64207e-05
8.17897e-05
7.044e-05
6.22869e-05
5.59696e-05
5.10784e-05
4.68939e-05
4.34026e-05
4.05594e-05
3.83208e-05
3.65721e-05
3.52178e-05
3.41897e-05
3.33914e-05
3.27502e-05
3.22425e-05
3.20165e-05
0.000218609
0.000154997
0.000118635
9.64207e-05
8.17897e-05
7.044e-05
6.22869e-05
5.59696e-05
5.10784e-05
4.6894e-05
4.34027e-05
4.05595e-05
3.83208e-05
3.65722e-05
3.52179e-05
3.41897e-05
3.33913e-05
3.27499e-05
3.22421e-05
3.20158e-05
0.00072855
0.000588286
0.000496227
0.000429804
0.0003802
0.000342431
0.000313161
0.000290375
0.000272961
0.000259953
0.000250423
0.000243525
0.000238526
0.000234851
0.000232134
0.000230257
0.00022912
0.000226509
0.000222769
0.000216465
0.000814978
0.000730564
0.000655092
0.000590239
0.000535754
0.000490816
0.000454525
0.00042608
0.000404665
0.00038939
0.000379272
0.00037321
0.000370061
0.000368757
0.000368426
0.000368388
0.000368032
0.000366621
0.000363389
0.000356813
0.000826325
0.000764563
0.000706772
0.000653577
0.000605722
0.000563808
0.000528258
0.000499309
0.000476957
0.000460892
0.000450472
0.000444751
0.000442575
0.000442716
0.000444084
0.000445733
0.0004468
0.000446527
0.000444087
0.000438335
0.000828423
0.000772864
0.000721938
0.000674873
0.000631755
0.000593089
0.000559503
0.000531555
0.000509585
0.000493589
0.000483177
0.000477575
0.000475716
0.000476379
0.000478433
0.000480839
0.000482596
0.000482828
0.000480568
0.000474457
0.000828423
0.000772864
0.000721938
0.000674873
0.000631755
0.000593089
0.000559502
0.000531555
0.000509584
0.000493589
0.000483176
0.000477571
0.000475705
0.000476357
0.000478413
0.000480832
0.000482598
0.000482835
0.000480581
0.000474478
0.000826325
0.000764563
0.000706772
0.000653577
0.000605722
0.000563808
0.000528258
0.000499309
0.000476957
0.000460892
0.00045047
0.00044474
0.000442539
0.000442688
0.000444101
0.000445764
0.000446857
0.00044664
0.000444341
0.000438929
0.000814978
0.000730564
0.000655092
0.000590239
0.000535754
0.000490816
0.000454525
0.000426081
0.000404667
0.000389392
0.000379273
0.000373207
0.000370047
0.000368752
0.000368457
0.000368452
0.000368168
0.000366947
0.000364284
0.000359493
0.00072855
0.000588286
0.000496228
0.000429805
0.0003802
0.00034243
0.000313149
0.000290371
0.000272961
0.000259956
0.000250428
0.000243531
0.000238534
0.000234866
0.000232174
0.000230334
0.000229268
0.000226832
0.000223607
0.000219136
0.000218609
0.000154997
0.000118635
9.64208e-05
8.17898e-05
7.04401e-05
6.22871e-05
5.59698e-05
5.10786e-05
4.68944e-05
4.34034e-05
4.05606e-05
3.83226e-05
3.65748e-05
3.5222e-05
3.41963e-05
3.34019e-05
3.27663e-05
3.22444e-05
3.19637e-05
0.000198681
0.000138295
0.000105162
8.54442e-05
7.24043e-05
6.25272e-05
5.53349e-05
4.97322e-05
4.5348e-05
4.16544e-05
3.862e-05
3.61637e-05
3.42137e-05
3.26964e-05
3.15334e-05
3.06611e-05
2.99587e-05
2.93936e-05
2.89352e-05
2.87335e-05
0.000712886
0.000556484
0.000466614
0.000403008
0.00035608
0.000320464
0.000292837
0.000271327
0.000254912
0.000242625
0.000233572
0.000226985
0.000222198
0.00021881
0.000216445
0.000214851
0.00021277
0.000209392
0.000205226
0.000197428
0.000809341
0.000714027
0.000631916
0.000563668
0.000507877
0.000462848
0.000427105
0.00039944
0.000378781
0.00036412
0.000354397
0.000348487
0.000345254
0.000343705
0.000343019
0.000342549
0.000341673
0.000339731
0.000335847
0.000327954
0.000823524
0.000754168
0.000689065
0.000630187
0.000578517
0.000534388
0.000497802
0.000468579
0.00044636
0.000430558
0.000420332
0.000414614
0.000412202
0.000411896
0.000412664
0.00041365
0.000414095
0.000413335
0.000410629
0.00040489
0.000826325
0.000764563
0.000706772
0.000653577
0.000605722
0.000563808
0.000528258
0.000499309
0.000476957
0.000460893
0.000450473
0.000444752
0.000442573
0.000442713
0.000444083
0.000445744
0.000446835
0.000446619
0.000444321
0.000438912
0.000826325
0.000764563
0.000706772
0.000653577
0.000605722
0.000563807
0.000528258
0.00049931
0.000476959
0.000460894
0.000450473
0.000444748
0.000442564
0.000442695
0.000444064
0.000445728
0.000446806
0.000446543
0.000444114
0.000438386
0.000823524
0.000754168
0.000689065
0.000630186
0.000578517
0.000534388
0.000497802
0.000468581
0.000446362
0.00043056
0.000420332
0.000414607
0.000412177
0.000411878
0.000412682
0.000413674
0.000414123
0.000413364
0.000410659
0.000404924
0.000809341
0.000714027
0.000631916
0.000563668
0.000507877
0.000462849
0.00042711
0.000399448
0.000378788
0.000364127
0.000354403
0.000348489
0.000345248
0.000343712
0.000343071
0.000342656
0.000341895
0.00034026
0.00033731
0.00033231
0.000712886
0.000556484
0.000466614
0.000403008
0.000356081
0.000320469
0.00029289
0.000271357
0.000254931
0.000242639
0.000233586
0.000227004
0.00022222
0.000218846
0.000216532
0.000215031
0.000213112
0.000210117
0.000207042
0.000202569
0.000198681
0.000138295
0.000105162
8.54443e-05
7.24044e-05
6.25272e-05
5.53347e-05
4.97326e-05
4.53488e-05
4.16556e-05
3.86217e-05
3.61663e-05
3.42172e-05
3.27017e-05
3.15424e-05
3.06762e-05
2.99838e-05
2.9436e-05
2.89972e-05
2.86555e-05
0.000160509
0.000107355
8.07179e-05
6.5527e-05
5.54008e-05
4.80195e-05
4.25493e-05
3.83203e-05
3.49329e-05
3.21e-05
2.98007e-05
2.79886e-05
2.65787e-05
2.5507e-05
2.46761e-05
2.40193e-05
2.35018e-05
2.30865e-05
2.27299e-05
2.25218e-05
0.000663956
0.000488504
0.000404813
0.00034784
0.00030655
0.000275247
0.000250941
0.000232008
0.000217429
0.000206354
0.000198273
0.000192796
0.000188867
0.000185425
0.000183311
0.00017982
0.000176835
0.00017397
0.000170062
0.000161671
0.000786839
0.000662383
0.000568299
0.00049671
0.000441595
0.000398975
0.000366126
0.000341087
0.000322499
0.000309196
0.000300108
0.000294295
0.000290661
0.000288433
0.000287112
0.000285707
0.00028397
0.000281487
0.000277251
0.00026878
0.000809341
0.000714027
0.000631916
0.000563668
0.000507877
0.000462848
0.000427105
0.000399442
0.000378783
0.000364123
0.000354401
0.000348493
0.000345264
0.000343724
0.000343057
0.000342632
0.000341867
0.000340231
0.00033728
0.000332271
0.000814978
0.000730564
0.000655092
0.000590239
0.000535754
0.000490816
0.000454527
0.000426083
0.000404669
0.000389394
0.000379277
0.000373214
0.000370065
0.000368764
0.000368442
0.000368433
0.000368148
0.000366928
0.000364266
0.000359478
0.000814978
0.000730564
0.000655092
0.000590239
0.000535754
0.000490816
0.000454527
0.000426084
0.000404669
0.000389394
0.000379276
0.000373211
0.000370057
0.000368746
0.000368419
0.000368392
0.000368044
0.00036664
0.000363417
0.000356861
0.000809341
0.000714027
0.000631916
0.000563668
0.000507877
0.000462848
0.000427105
0.000399442
0.000378784
0.000364123
0.0003544
0.000348487
0.000345251
0.000343731
0.000343068
0.000342601
0.000341714
0.000339766
0.000335879
0.000327991
0.000786839
0.000662383
0.000568299
0.00049671
0.000441595
0.000398976
0.000366126
0.000341089
0.000322502
0.0003092
0.000300111
0.000294295
0.000290634
0.000288414
0.000287135
0.000285751
0.000284015
0.000281525
0.000277281
0.00026881
0.000663956
0.000488504
0.000404814
0.000347841
0.00030655
0.000275249
0.00025095
0.000232019
0.000217439
0.000206364
0.000198292
0.000192838
0.000188847
0.000185439
0.000183379
0.00017999
0.000177114
0.00017448
0.000170904
0.00016377
0.000160509
0.000107355
8.0718e-05
6.55271e-05
5.54009e-05
4.80196e-05
4.25495e-05
3.8321e-05
3.49337e-05
3.2101e-05
2.98024e-05
2.79915e-05
2.65818e-05
2.55115e-05
2.46856e-05
2.40352e-05
2.35286e-05
2.3134e-05
2.28254e-05
2.26459e-05
0.000107685
6.77149e-05
5.06098e-05
4.13558e-05
3.52877e-05
3.0799e-05
2.73341e-05
2.45887e-05
2.23897e-05
2.06436e-05
1.92262e-05
1.82254e-05
1.74057e-05
1.6756e-05
1.62615e-05
1.58808e-05
1.55853e-05
1.53529e-05
1.51269e-05
1.48336e-05
0.000528909
0.000370019
0.000305268
0.000261912
0.000229857
0.000205188
0.000185885
0.000170609
0.0001585
0.000148978
0.000141353
0.000135495
0.000131305
0.000126194
0.000122637
0.000119758
0.00011759
0.000115569
0.000113
0.000104922
0.000663956
0.000488504
0.000404814
0.000347841
0.00030655
0.000275248
0.000250942
0.000232011
0.000217432
0.000206359
0.000198282
0.00019281
0.000188889
0.000185465
0.000183385
0.000179949
0.000177084
0.000174457
0.000170888
0.000163746
0.000712886
0.000556484
0.000466614
0.000403008
0.000356081
0.000320465
0.000292841
0.000271333
0.000254919
0.000242633
0.000233583
0.000227002
0.000222226
0.000218858
0.000216532
0.000215019
0.000213099
0.000210102
0.000207018
0.0002025
0.00072855
0.000588286
0.000496228
0.000429804
0.0003802
0.000342434
0.000313182
0.00029039
0.000272971
0.000259962
0.000250431
0.000243534
0.000238537
0.000234864
0.000232165
0.000230324
0.000229256
0.000226825
0.000223598
0.000219118
0.00072855
0.000588286
0.000496227
0.000429804
0.0003802
0.000342433
0.000313182
0.000290389
0.00027297
0.00025996
0.000250428
0.000243527
0.000238519
0.000234773
0.000232113
0.000230258
0.000229123
0.000226519
0.000222783
0.000216485
0.000712886
0.000556484
0.000466614
0.000403008
0.00035608
0.000320464
0.00029284
0.000271331
0.000254916
0.000242629
0.000233576
0.000226994
0.000222235
0.000219134
0.000216619
0.000214978
0.000212786
0.000209407
0.000205241
0.000197444
0.000663956
0.000488504
0.000404813
0.00034784
0.00030655
0.000275247
0.000250941
0.00023201
0.000217431
0.000206357
0.000198283
0.000192827
0.000188837
0.000185449
0.000183346
0.000179885
0.000176876
0.000173996
0.000170075
0.000161682
0.000528909
0.000370019
0.000305268
0.000261912
0.000229857
0.000205189
0.000185887
0.000170613
0.000158504
0.000148981
0.000141354
0.000135519
0.000131043
0.000126135
0.000122456
0.000119797
0.000117582
0.000115562
0.000112988
0.000104923
0.000107685
6.77149e-05
5.06098e-05
4.13559e-05
3.52877e-05
3.07992e-05
2.73345e-05
2.45891e-05
2.239e-05
2.06438e-05
1.92266e-05
1.82259e-05
1.74017e-05
1.67558e-05
1.62727e-05
1.58924e-05
1.55979e-05
1.53756e-05
1.52032e-05
1.50771e-05
4.53564e-05
2.32085e-05
1.65391e-05
1.36428e-05
1.1874e-05
1.06858e-05
9.69265e-06
8.91473e-06
8.30862e-06
7.84077e-06
7.46671e-06
7.18359e-06
6.95896e-06
6.78477e-06
6.6504e-06
6.54859e-06
6.47307e-06
6.41673e-06
6.38999e-06
6.39235e-06
0.000107685
6.77149e-05
5.06098e-05
4.13558e-05
3.52877e-05
3.0799e-05
2.73341e-05
2.45887e-05
2.23898e-05
2.06437e-05
1.92264e-05
1.82259e-05
1.74064e-05
1.67573e-05
1.62639e-05
1.58852e-05
1.55932e-05
1.53735e-05
1.52018e-05
1.50763e-05
0.000160509
0.000107355
8.0718e-05
6.55271e-05
5.54009e-05
4.80196e-05
4.25495e-05
3.83207e-05
3.49335e-05
3.21008e-05
2.9802e-05
2.79907e-05
2.65819e-05
2.55122e-05
2.46845e-05
2.40334e-05
2.35267e-05
2.31324e-05
2.2824e-05
2.26446e-05
0.000198681
0.000138295
0.000105162
8.54443e-05
7.24044e-05
6.25273e-05
5.53351e-05
4.97327e-05
4.53488e-05
4.16556e-05
3.86216e-05
3.61662e-05
3.42174e-05
3.27021e-05
3.15423e-05
3.06756e-05
2.9983e-05
2.94352e-05
2.89963e-05
2.86542e-05
0.000218609
0.000154997
0.000118635
9.64208e-05
8.17898e-05
7.04399e-05
6.22869e-05
5.597e-05
5.1079e-05
4.68947e-05
4.34037e-05
4.05609e-05
3.83228e-05
3.6575e-05
3.52221e-05
3.41962e-05
3.34018e-05
3.2766e-05
3.22448e-05
3.19626e-05
0.000218609
0.000154997
0.000118635
9.64207e-05
8.17897e-05
7.04399e-05
6.22868e-05
5.59697e-05
5.10785e-05
4.68941e-05
4.34028e-05
4.05597e-05
3.8321e-05
3.65722e-05
3.52181e-05
3.41895e-05
3.33914e-05
3.27502e-05
3.22425e-05
3.20164e-05
0.000198681
0.000138295
0.000105162
8.54442e-05
7.24043e-05
6.25272e-05
5.53348e-05
4.97322e-05
4.5348e-05
4.16545e-05
3.86201e-05
3.61639e-05
3.4214e-05
3.26988e-05
3.15381e-05
3.06637e-05
2.99605e-05
2.9395e-05
2.89364e-05
2.87346e-05
0.000160509
0.000107355
8.07179e-05
6.5527e-05
5.54008e-05
4.80196e-05
4.25495e-05
3.83205e-05
3.49331e-05
3.21001e-05
2.9801e-05
2.79894e-05
2.65787e-05
2.55071e-05
2.46785e-05
2.40221e-05
2.35045e-05
2.30887e-05
2.27316e-05
2.25231e-05
0.000107685
6.77149e-05
5.06098e-05
4.13558e-05
3.52877e-05
3.07992e-05
2.73345e-05
2.4589e-05
2.23899e-05
2.06436e-05
1.92264e-05
1.82254e-05
1.7401e-05
1.67547e-05
1.62705e-05
1.58881e-05
1.55901e-05
1.53554e-05
1.51282e-05
1.48344e-05
4.53564e-05
2.32085e-05
1.65391e-05
1.36427e-05
1.18742e-05
1.06861e-05
9.69272e-06
8.91468e-06
8.30858e-06
7.84076e-06
7.46657e-06
7.184e-06
6.95854e-06
6.7836e-06
6.65128e-06
6.5504e-06
6.47463e-06
6.41782e-06
6.39062e-06
6.39264e-06
5.6551e-06
5.3839e-06
5.28124e-06
5.25391e-06
5.25568e-06
5.25962e-06
5.26432e-06
5.26919e-06
5.27375e-06
5.27806e-06
5.282e-06
5.28776e-06
5.29203e-06
5.29311e-06
5.29395e-06
5.29538e-06
5.29686e-06
5.29819e-06
5.29933e-06
5.30032e-06
5.30125e-06
5.30162e-06
5.30376e-06
5.30575e-06
5.30481e-06
5.3037e-06
5.30349e-06
5.30315e-06
5.3049e-06
5.30644e-06
5.30523e-06
5.30398e-06
5.3038e-06
5.30414e-06
5.30499e-06
5.30631e-06
5.30487e-06
5.30407e-06
5.30361e-06
5.30538e-06
1.2436e-05
1.19695e-05
1.19208e-05
1.19233e-05
1.19482e-05
1.19727e-05
1.19928e-05
1.20121e-05
1.20291e-05
1.20448e-05
1.20585e-05
1.20715e-05
1.20855e-05
1.20964e-05
1.21037e-05
1.21099e-05
1.21157e-05
1.21209e-05
1.21254e-05
1.21291e-05
1.21319e-05
1.2135e-05
1.21386e-05
1.21411e-05
1.21413e-05
1.21408e-05
1.21402e-05
1.21403e-05
1.21419e-05
1.21431e-05
1.21428e-05
1.21416e-05
1.21408e-05
1.21403e-05
1.21388e-05
1.21424e-05
1.21441e-05
1.21424e-05
1.21416e-05
1.21426e-05
1.90763e-05
1.83997e-05
1.80917e-05
1.8009e-05
1.79917e-05
1.79995e-05
1.80159e-05
1.80356e-05
1.80562e-05
1.80768e-05
1.80971e-05
1.81162e-05
1.81346e-05
1.81506e-05
1.81641e-05
1.81762e-05
1.81867e-05
1.81958e-05
1.82035e-05
1.82099e-05
1.82152e-05
1.82196e-05
1.82229e-05
1.82266e-05
1.82276e-05
1.82279e-05
1.8228e-05
1.82284e-05
1.82293e-05
1.823e-05
1.82299e-05
1.82295e-05
1.82294e-05
1.82303e-05
1.82343e-05
1.82347e-05
1.82333e-05
1.82316e-05
1.82308e-05
1.8231e-05
2.42843e-05
2.37326e-05
2.34263e-05
2.32648e-05
2.3213e-05
2.31973e-05
2.32007e-05
2.32145e-05
2.32341e-05
2.32567e-05
2.32803e-05
2.33046e-05
2.33278e-05
2.33487e-05
2.33675e-05
2.33844e-05
2.33992e-05
2.34119e-05
2.34227e-05
2.34316e-05
2.34388e-05
2.34444e-05
2.34494e-05
2.34524e-05
2.34535e-05
2.34538e-05
2.3454e-05
2.34544e-05
2.34553e-05
2.3456e-05
2.34557e-05
2.34553e-05
2.34551e-05
2.3455e-05
2.34538e-05
2.34548e-05
2.34554e-05
2.34557e-05
2.34561e-05
2.34571e-05
2.75099e-05
2.70935e-05
2.68372e-05
2.66964e-05
2.65953e-05
2.65571e-05
2.6542e-05
2.65435e-05
2.65562e-05
2.65757e-05
2.65988e-05
2.66235e-05
2.66494e-05
2.66741e-05
2.66968e-05
2.67169e-05
2.67345e-05
2.67495e-05
2.67623e-05
2.67728e-05
2.67813e-05
2.67881e-05
2.6792e-05
2.67939e-05
2.67944e-05
2.67946e-05
2.67949e-05
2.67951e-05
2.67953e-05
2.67955e-05
2.67956e-05
2.67957e-05
2.67959e-05
2.67961e-05
2.67965e-05
2.67978e-05
2.6798e-05
2.67978e-05
2.67977e-05
2.67979e-05
2.84363e-05
2.82486e-05
2.8075e-05
2.79414e-05
2.78497e-05
2.77942e-05
2.77646e-05
2.77549e-05
2.77601e-05
2.77752e-05
2.77957e-05
2.78188e-05
2.78426e-05
2.78658e-05
2.78876e-05
2.79075e-05
2.79251e-05
2.79404e-05
2.79534e-05
2.79643e-05
2.79731e-05
2.79799e-05
2.79849e-05
2.79882e-05
2.79904e-05
2.7992e-05
2.79932e-05
2.7994e-05
2.79945e-05
2.79948e-05
2.79951e-05
2.79954e-05
2.79956e-05
2.79957e-05
2.79957e-05
2.79961e-05
2.79963e-05
2.79963e-05
2.79966e-05
2.7997e-05
2.76725e-05
2.73358e-05
2.70837e-05
2.69113e-05
2.67975e-05
2.67326e-05
2.66985e-05
2.66863e-05
2.66896e-05
2.67028e-05
2.67214e-05
2.67423e-05
2.67638e-05
2.67849e-05
2.6805e-05
2.68234e-05
2.68398e-05
2.6854e-05
2.68661e-05
2.68763e-05
2.68845e-05
2.6891e-05
2.68958e-05
2.68994e-05
2.6902e-05
2.69039e-05
2.69054e-05
2.69064e-05
2.6907e-05
2.69074e-05
2.69077e-05
2.6908e-05
2.69082e-05
2.69083e-05
2.69081e-05
2.69081e-05
2.69079e-05
2.69079e-05
2.69084e-05
2.69089e-05
2.48642e-05
2.41646e-05
2.37592e-05
2.36059e-05
2.34627e-05
2.34226e-05
2.34067e-05
2.34065e-05
2.34167e-05
2.34328e-05
2.34523e-05
2.34704e-05
2.34901e-05
2.35093e-05
2.35269e-05
2.35427e-05
2.35565e-05
2.35685e-05
2.35786e-05
2.35871e-05
2.35941e-05
2.35997e-05
2.36048e-05
2.36086e-05
2.36104e-05
2.36114e-05
2.36123e-05
2.36131e-05
2.36145e-05
2.36155e-05
2.36153e-05
2.36149e-05
2.36146e-05
2.36145e-05
2.36147e-05
2.3614e-05
2.3613e-05
2.3613e-05
2.36136e-05
2.36154e-05
1.96432e-05
1.8676e-05
1.8369e-05
1.82633e-05
1.82439e-05
1.82425e-05
1.82501e-05
1.82628e-05
1.82786e-05
1.82962e-05
1.83144e-05
1.83353e-05
1.83515e-05
1.83643e-05
1.83757e-05
1.83862e-05
1.83959e-05
1.84044e-05
1.84117e-05
1.84178e-05
1.84232e-05
1.84268e-05
1.84316e-05
1.84347e-05
1.8436e-05
1.84365e-05
1.84368e-05
1.84375e-05
1.84387e-05
1.84397e-05
1.84395e-05
1.84389e-05
1.84383e-05
1.84381e-05
1.84376e-05
1.84331e-05
1.84333e-05
1.84347e-05
1.84365e-05
1.84384e-05
1.1693e-05
1.17047e-05
1.18305e-05
1.19423e-05
1.20034e-05
1.20436e-05
1.20727e-05
1.20949e-05
1.21134e-05
1.21289e-05
1.21432e-05
1.21603e-05
1.21722e-05
1.21798e-05
1.2186e-05
1.21922e-05
1.21979e-05
1.22029e-05
1.22073e-05
1.22109e-05
1.22136e-05
1.22167e-05
1.22206e-05
1.22231e-05
1.22234e-05
1.22227e-05
1.2222e-05
1.22225e-05
1.22242e-05
1.22256e-05
1.22252e-05
1.2224e-05
1.22229e-05
1.22229e-05
1.22242e-05
1.22222e-05
1.22225e-05
1.22221e-05
1.22223e-05
1.22242e-05
5.65495e-06
5.38334e-06
5.28073e-06
5.25037e-06
5.25107e-06
5.25742e-06
5.26364e-06
5.26904e-06
5.27394e-06
5.27835e-06
5.28443e-06
5.28946e-06
5.29077e-06
5.29184e-06
5.29349e-06
5.29516e-06
5.29667e-06
5.298e-06
5.29914e-06
5.30012e-06
5.30104e-06
5.30141e-06
5.30355e-06
5.30555e-06
5.30465e-06
5.30356e-06
5.30334e-06
5.30307e-06
5.30481e-06
5.30637e-06
5.30516e-06
5.30391e-06
5.3036e-06
5.30303e-06
5.30478e-06
5.30603e-06
5.30485e-06
5.30375e-06
5.30344e-06
5.30522e-06
1.16936e-05
1.17071e-05
1.18354e-05
1.19501e-05
1.20111e-05
1.20494e-05
1.20746e-05
1.20957e-05