/*--------------------------------*- C++ -*----------------------------------*\
| =========                 |                                                 |
| \\      /  F ield         | OpenFOAM: The Open Source CFD Toolbox           |
|  \\    /   O peration     | Version:  2212                                  |
|   \\  /    A nd           | Website:  www.openfoam.com                      |
|    \\/     M anipulation  |                                                 |
\*---------------------------------------------------------------------------*/
FoamFile
{
    version     2.0;
    format      ascii;
    arch        "LSB;label=32;scalar=64";
    class       volScalarField;
    location    "0.2";
    object      p;
}
// * * * * * * * * * * * * * * * * * * * * * * * * * * * * * * * * * * * * * //

dimensions      [0 2 -2 0 0 0 0];

internalField   nonuniform List<scalar> 
6840
(
0.019061
0.0119461
0.00965519
0.00911564
0.00884079
0.00861789
0.00842265
0.00824378
0.00807126
0.00790175
0.00773485
0.00757432
0.00741943
0.00726632
0.00711507
0.00696633
0.00681935
0.0066712
0.00650023
0.00617719
0.0118826
0.0111474
0.0100533
0.00938598
0.00897971
0.00869863
0.00847618
0.00827817
0.00809249
0.00791526
0.00774423
0.00758153
0.00742602
0.00727351
0.00712493
0.00698155
0.00684507
0.0067166
0.00659589
0.00646147
0.0115328
0.0106794
0.00991334
0.00935186
0.00897072
0.0086941
0.00846861
0.00826574
0.00807797
0.00790226
0.007735
0.00757461
0.00741999
0.00727057
0.00712654
0.0069887
0.00685948
0.0067439
0.00665488
0.00661147
0.0111226
0.010359
0.00973836
0.00928424
0.00893701
0.00866252
0.00843399
0.00823327
0.00805267
0.00788639
0.00772713
0.00757165
0.00741979
0.00727159
0.00712775
0.00698978
0.0068595
0.00673921
0.00663408
0.00655363
0.0109874
0.0102462
0.00965754
0.00924779
0.00892349
0.00865437
0.00842705
0.00822651
0.00804412
0.00787525
0.0077158
0.00756299
0.00741388
0.00726625
0.00712064
0.00697829
0.00683997
0.00670551
0.00657516
0.00645263
0.0109874
0.0102462
0.00965751
0.00924775
0.00892342
0.00865426
0.00842687
0.00822623
0.00804365
0.00787448
0.00771454
0.00756095
0.00741059
0.00726096
0.00711226
0.00696503
0.0068192
0.00667432
0.00653066
0.00638944
0.0111225
0.010359
0.00973829
0.00928414
0.00893686
0.00866227
0.00843357
0.00823258
0.00805152
0.00788449
0.00772401
0.00756652
0.00741136
0.00725787
0.00710545
0.00695344
0.0068004
0.00664497
0.00648703
0.00632611
0.0115327
0.0106794
0.00991327
0.00935176
0.00897057
0.00869383
0.00846816
0.00826502
0.0080768
0.00790036
0.00773187
0.00756937
0.00741113
0.00725575
0.00710176
0.00694632
0.0067856
0.00661322
0.00641937
0.0061857
0.0118826
0.0111474
0.0100533
0.00938592
0.00897961
0.00869848
0.00847594
0.00827778
0.00809185
0.00791425
0.00774261
0.00757884
0.00742079
0.00726404
0.00711016
0.00695721
0.00680047
0.00662912
0.00640415
0.00604997
0.019061
0.0119461
0.00965517
0.00911562
0.00884077
0.00861786
0.00842262
0.00824375
0.00807124
0.00790176
0.00773494
0.00757451
0.00741908
0.00726502
0.00711432
0.00696683
0.00682013
0.00667173
0.00650061
0.00617765
0.0118826
0.0111474
0.0100533
0.00938598
0.00897968
0.00869855
0.00847601
0.00827784
0.0080919
0.00791426
0.00774255
0.00757871
0.00742124
0.00726537
0.00711088
0.00695668
0.00679969
0.00662856
0.00640375
0.00604954
0.0111642
0.0111314
0.0104024
0.0096881
0.00923391
0.00890593
0.00863392
0.00839212
0.00817326
0.00797256
0.00778548
0.0076092
0.00744177
0.00728195
0.00712732
0.0069756
0.00682531
0.00667394
0.00652877
0.0064053
0.0102365
0.0103618
0.0100568
0.009638
0.00926689
0.00894197
0.00865469
0.00840363
0.00818091
0.00797859
0.0077909
0.00761309
0.00744396
0.00728427
0.0071323
0.00698673
0.00684657
0.00671237
0.00659726
0.00651775
0.00981806
0.00986151
0.00969316
0.00942659
0.00914181
0.00886459
0.00860698
0.00837416
0.00816343
0.00796892
0.00778674
0.00761392
0.00744875
0.00729025
0.00713807
0.00699257
0.00685393
0.00672318
0.00660855
0.00651607
0.00960162
0.00962358
0.00949544
0.00927614
0.00904194
0.00880953
0.00858065
0.00836224
0.00815705
0.00796361
0.00778151
0.00760906
0.00744425
0.00728552
0.00713185
0.00698245
0.00683703
0.0066962
0.00656408
0.00644096
0.00960159
0.00962354
0.00949539
0.00927606
0.00904182
0.00880936
0.0085804
0.00836185
0.00815644
0.00796265
0.00777996
0.00760661
0.00744038
0.00727941
0.00712227
0.00696778
0.00681502
0.00666373
0.00651566
0.00636949
0.00981798
0.00986143
0.00969306
0.00942645
0.00914161
0.00886429
0.0086065
0.00837335
0.00816212
0.00796681
0.00778333
0.00760842
0.00744
0.00727623
0.00711542
0.00695626
0.00679685
0.00663488
0.00647022
0.00630124
0.0102364
0.0103617
0.0100567
0.0096379
0.00926675
0.00894176
0.00865434
0.00840305
0.00817994
0.00797699
0.00778823
0.00760867
0.00743709
0.00727334
0.00711343
0.00695437
0.00679233
0.00662248
0.00644157
0.00624778
0.0111641
0.0111314
0.0104024
0.00968808
0.00923388
0.00890591
0.0086339
0.00839209
0.00817324
0.00797254
0.00778543
0.00760911
0.00744159
0.00728164
0.00712705
0.00697562
0.00682558
0.00667431
0.00652917
0.00640574
0.0118826
0.0111474
0.0100533
0.009386
0.00897973
0.00869864
0.00847619
0.00827819
0.00809251
0.00791531
0.00774435
0.00758172
0.00742563
0.00727222
0.00712421
0.00698205
0.00684583
0.00671714
0.00659629
0.00646194
0.0115328
0.0106795
0.00991336
0.00935185
0.00897065
0.00869392
0.00846824
0.0082651
0.00807687
0.00790042
0.00773194
0.00756948
0.0074114
0.00725616
0.00710191
0.00694609
0.0067853
0.006613
0.00641914
0.00618545
0.0102365
0.0103618
0.0100568
0.00963796
0.00926681
0.00894181
0.00865439
0.0084031
0.00817999
0.00797707
0.00778838
0.00760891
0.00743701
0.00727268
0.00711303
0.00695461
0.00679259
0.00662256
0.00644155
0.00624774
0.00966437
0.00976561
0.00965321
0.00942792
0.0091736
0.00891412
0.00865282
0.00840848
0.00818881
0.00798786
0.00779993
0.00762089
0.00744899
0.00728311
0.00712224
0.00696567
0.00681077
0.00665583
0.0065054
0.0063577
0.00929654
0.00936459
0.00931166
0.00916323
0.00897819
0.0087761
0.00856795
0.00836253
0.00816389
0.00797413
0.0077936
0.0076207
0.00745374
0.00729161
0.00713357
0.00697896
0.00682709
0.00667881
0.00653959
0.00640334
0.00911318
0.00917754
0.00914736
0.00902151
0.00886268
0.00869248
0.00851377
0.00833045
0.00814665
0.00796667
0.00779133
0.00762005
0.0074533
0.00729126
0.00713285
0.0069769
0.00682295
0.00667177
0.0065265
0.00638166
0.00911315
0.00917751
0.00914732
0.00902144
0.00886257
0.00869234
0.00851359
0.00833017
0.00814623
0.00796604
0.00779039
0.0076186
0.00745106
0.00728782
0.0071276
0.00696903
0.00681142
0.00665473
0.0064996
0.00634201
0.00929649
0.00936453
0.00931158
0.00916311
0.00897803
0.00877589
0.00856764
0.00836205
0.00816319
0.00797306
0.0077919
0.00761804
0.00744964
0.00728518
0.00712336
0.00696318
0.00680363
0.00664392
0.00648463
0.00632186
0.00966435
0.00976559
0.00965319
0.00942789
0.00917358
0.0089141
0.0086528
0.00840845
0.00818879
0.00798783
0.00779987
0.00762081
0.00744913
0.00728357
0.00712255
0.00696557
0.00681053
0.0066556
0.00650513
0.00635726
0.0102365
0.0103618
0.0100568
0.00963801
0.0092669
0.00894198
0.00865469
0.00840363
0.00818089
0.00797856
0.00779079
0.00761289
0.00744409
0.00728493
0.00713261
0.00698645
0.00684629
0.00671228
0.00659727
0.00651771
0.0115328
0.0106795
0.00991338
0.0093519
0.00897077
0.00869414
0.00846864
0.00826577
0.008078
0.0079023
0.00773503
0.00757459
0.00741981
0.00727022
0.00712638
0.00698887
0.00685973
0.00674411
0.00665508
0.00661175
0.0111226
0.010359
0.00973838
0.00928423
0.00893695
0.00866235
0.00843365
0.00823266
0.00805159
0.00788456
0.00772409
0.00756664
0.00741155
0.00725805
0.00710548
0.00695334
0.00680023
0.0066448
0.00648691
0.00632604
0.00981805
0.0098615
0.00969313
0.00942652
0.00914167
0.00886435
0.00860656
0.0083734
0.00816217
0.00796686
0.00778338
0.00760847
0.00743994
0.00727608
0.00711537
0.00695634
0.00679691
0.00663489
0.00647024
0.00630132
0.00929653
0.00936458
0.00931162
0.00916315
0.00897806
0.00877592
0.00856767
0.00836207
0.00816321
0.00797307
0.0077919
0.007618
0.00744949
0.00728497
0.0071233
0.00696326
0.00680373
0.00664402
0.00648473
0.00632197
0.00899709
0.009056
0.00904387
0.00894863
0.00880971
0.00864575
0.00846996
0.00829158
0.00811492
0.0079423
0.00777416
0.00760969
0.00744795
0.00728828
0.00713019
0.00697315
0.00681677
0.00666189
0.00651137
0.00635656
0.00884509
0.00890757
0.00891105
0.00883779
0.00871916
0.00857559
0.00841845
0.00825513
0.00809015
0.00792624
0.00776429
0.00760415
0.00744556
0.00728837
0.0071322
0.00697625
0.00682025
0.00666581
0.00651628
0.00636094
0.00884507
0.00890755
0.00891103
0.00883777
0.00871913
0.00857555
0.00841839
0.00825505
0.00809004
0.00792607
0.00776405
0.0076038
0.00744504
0.00728762
0.00713112
0.00697474
0.00681825
0.00666333
0.00651329
0.00635719
0.00899707
0.00905599
0.00904386
0.00894861
0.00880969
0.00864573
0.00846994
0.00829157
0.00811491
0.0079423
0.00777416
0.0076097
0.007448
0.00728835
0.00713023
0.00697315
0.00681674
0.00666184
0.00651131
0.00635648
0.00929655
0.00936459
0.00931166
0.00916323
0.00897819
0.0087761
0.00856795
0.00836252
0.00816388
0.00797411
0.00779358
0.00762068
0.00745377
0.00729173
0.00713367
0.00697894
0.00682701
0.0066787
0.00653943
0.0064031
0.00981809
0.00986155
0.00969319
0.00942662
0.00914184
0.00886461
0.00860699
0.00837417
0.00816343
0.00796891
0.00778671
0.00761386
0.00744875
0.00729035
0.00713812
0.0069925
0.00685385
0.00672312
0.00660846
0.00651587
0.0111226
0.0103591
0.00973841
0.00928429
0.00893706
0.00866256
0.00843403
0.00823331
0.0080527
0.00788641
0.00772714
0.00757163
0.00741971
0.00727145
0.00712763
0.00698977
0.00685959
0.00673932
0.00663417
0.00655371
0.0109875
0.0102463
0.00965759
0.00924782
0.0089235
0.00865433
0.00842694
0.00822629
0.00804371
0.00787453
0.00771459
0.00756099
0.00741064
0.007261
0.00711227
0.00696501
0.00681915
0.00667426
0.00653061
0.00638939
0.00960167
0.00962361
0.00949547
0.00927613
0.00904189
0.00880942
0.00858045
0.00836189
0.00815648
0.00796268
0.00777999
0.00760661
0.00744034
0.00727936
0.00712228
0.0069678
0.00681503
0.00666372
0.00651563
0.00636946
0.0091132
0.00917756
0.00914736
0.00902148
0.00886261
0.00869237
0.00851361
0.00833019
0.00814624
0.00796605
0.00779039
0.00761859
0.00745103
0.00728776
0.00712755
0.00696902
0.00681141
0.00665472
0.0064996
0.00634201
0.00884509
0.00890757
0.00891105
0.00883778
0.00871914
0.00857556
0.0084184
0.00825506
0.00809004
0.00792607
0.00776405
0.00760379
0.00744503
0.00728759
0.00713108
0.00697471
0.00681823
0.00666332
0.00651327
0.00635718
0.00870114
0.0087701
0.00879185
0.00873963
0.00864012
0.00851315
0.00837025
0.00821853
0.00806297
0.00790655
0.00775047
0.00759476
0.00743899
0.0072823
0.00712506
0.00696977
0.00681699
0.00666676
0.00652323
0.00637431
0.00870113
0.00877009
0.00879184
0.00873962
0.00864011
0.00851315
0.00837024
0.00821853
0.00806296
0.00790655
0.00775047
0.00759476
0.007439
0.00728231
0.00712507
0.00696979
0.006817
0.00666677
0.00652323
0.00637432
0.00884508
0.00890756
0.00891104
0.00883778
0.00871915
0.00857559
0.00841844
0.00825513
0.00809014
0.00792623
0.00776429
0.00760415
0.00744557
0.00728839
0.00713222
0.00697625
0.00682023
0.00666578
0.00651625
0.00636091
0.0091132
0.00917756
0.00914737
0.00902152
0.00886269
0.00869249
0.00851377
0.00833044
0.00814664
0.00796666
0.00779131
0.00762004
0.0074533
0.00729128
0.00713287
0.00697689
0.00682291
0.00667172
0.00652644
0.00638161
0.00960167
0.00962362
0.00949548
0.00927617
0.00904197
0.00880955
0.00858067
0.00836225
0.00815706
0.00796361
0.00778149
0.00760903
0.00744422
0.00728551
0.00713184
0.00698242
0.00683698
0.00669613
0.006564
0.00644085
0.0109875
0.0102462
0.00965758
0.00924784
0.00892353
0.00865441
0.00842708
0.00822654
0.00804415
0.00787526
0.0077158
0.00756298
0.00741384
0.00726618
0.00712057
0.00697825
0.00683994
0.00670547
0.00657508
0.0064525
0.0109875
0.0102463
0.00965761
0.00924786
0.00892356
0.00865444
0.00842711
0.00822657
0.00804417
0.0078753
0.00771584
0.00756303
0.00741391
0.00726627
0.00712065
0.00697829
0.00683995
0.00670548
0.00657512
0.00645256
0.0096017
0.00962364
0.0094955
0.0092762
0.009042
0.00880958
0.00858069
0.00836228
0.00815709
0.00796364
0.00778153
0.00760907
0.00744425
0.00728551
0.00713184
0.00698244
0.00683701
0.00669618
0.00656404
0.0064409
0.00911322
0.00917758
0.00914739
0.00902154
0.00886271
0.00869251
0.00851379
0.00833046
0.00814666
0.00796668
0.00779134
0.00762005
0.00745329
0.00729124
0.00713283
0.00697688
0.00682293
0.00667175
0.00652648
0.00638165
0.0088451
0.00890758
0.00891106
0.0088378
0.00871917
0.0085756
0.00841846
0.00825514
0.00809016
0.00792624
0.00776429
0.00760415
0.00744556
0.00728836
0.00713218
0.00697623
0.00682023
0.00666579
0.00651626
0.00636092
0.00870113
0.00877009
0.00879184
0.00873963
0.00864011
0.00851315
0.00837025
0.00821853
0.00806297
0.00790655
0.00775047
0.00759476
0.00743899
0.0072823
0.00712506
0.00696977
0.00681699
0.00666676
0.00652323
0.00637431
0.00870112
0.00877008
0.00879184
0.00873962
0.00864011
0.00851315
0.00837024
0.00821853
0.00806296
0.00790655
0.00775047
0.00759476
0.00743899
0.00728231
0.00712507
0.00696978
0.00681699
0.00666676
0.00652323
0.00637432
0.00884506
0.00890755
0.00891102
0.00883776
0.00871912
0.00857554
0.00841838
0.00825505
0.00809003
0.00792606
0.00776404
0.00760379
0.00744503
0.00728762
0.00713112
0.00697473
0.00681823
0.00666331
0.00651327
0.00635718
0.00911317
0.00917753
0.00914733
0.00902145
0.00886258
0.00869234
0.00851359
0.00833016
0.00814621
0.00796602
0.00779036
0.00761857
0.00745103
0.0072878
0.0071276
0.00696903
0.0068114
0.0066547
0.00649959
0.00634202
0.00960163
0.00962358
0.00949543
0.00927609
0.00904185
0.00880939
0.00858042
0.00836186
0.00815644
0.00796264
0.00777994
0.00760657
0.00744031
0.00727936
0.00712228
0.00696778
0.00681499
0.00666368
0.0065156
0.00636945
0.0109875
0.0102462
0.00965755
0.00924779
0.00892346
0.0086543
0.00842691
0.00822626
0.00804368
0.0078745
0.00771455
0.00756095
0.00741057
0.00726093
0.0071122
0.00696497
0.00681914
0.00667424
0.00653054
0.0063893
0.0111226
0.0103591
0.00973843
0.00928431
0.00893708
0.00866258
0.00843405
0.00823333
0.00805272
0.00788644
0.00772717
0.00757169
0.00741982
0.00727162
0.00712777
0.00698981
0.00685954
0.00673926
0.00663415
0.00655374
0.00981811
0.00986156
0.00969321
0.00942664
0.00914186
0.00886462
0.00860701
0.00837418
0.00816345
0.00796894
0.00778676
0.00761393
0.00744875
0.00729025
0.00713807
0.00699258
0.00685393
0.00672316
0.0066085
0.00651592
0.00929657
0.00936461
0.00931168
0.00916325
0.0089782
0.00877611
0.00856796
0.00836254
0.00816389
0.00797413
0.0077936
0.0076207
0.00745373
0.0072916
0.00713356
0.00697894
0.00682706
0.00667877
0.0065395
0.00640317
0.00899708
0.009056
0.00904387
0.00894862
0.0088097
0.00864575
0.00846996
0.00829158
0.00811491
0.0079423
0.00777416
0.00760969
0.00744795
0.00728828
0.00713018
0.00697314
0.00681676
0.00666187
0.00651134
0.00635651
0.00884507
0.00890755
0.00891103
0.00883777
0.00871913
0.00857555
0.00841839
0.00825505
0.00809003
0.00792607
0.00776404
0.00760379
0.00744503
0.00728759
0.00713109
0.00697472
0.00681824
0.00666333
0.00651328
0.00635719
0.00884506
0.00890755
0.00891103
0.00883777
0.00871914
0.00857558
0.00841844
0.00825512
0.00809014
0.00792622
0.00776428
0.00760414
0.00744556
0.00728838
0.0071322
0.00697625
0.00682024
0.0066658
0.00651627
0.00636093
0.00899706
0.00905597
0.00904384
0.0089486
0.00880968
0.00864572
0.00846993
0.00829155
0.00811489
0.00794228
0.00777414
0.00760968
0.00744798
0.00728833
0.00713022
0.00697314
0.00681673
0.00666184
0.00651132
0.0063565
0.00929649
0.00936454
0.00931158
0.00916311
0.00897803
0.00877589
0.00856764
0.00836203
0.00816316
0.00797302
0.00779184
0.00761795
0.00744951
0.00728509
0.0071234
0.00696325
0.00680366
0.00664394
0.00648468
0.00632195
0.00981801
0.00986146
0.00969308
0.00942647
0.00914163
0.00886432
0.00860652
0.00837336
0.00816213
0.00796681
0.00778332
0.00760839
0.00743993
0.00727618
0.00711541
0.00695626
0.0067968
0.0066348
0.00647014
0.00630116
0.0111226
0.010359
0.00973833
0.00928417
0.00893689
0.00866229
0.0084336
0.00823262
0.00805156
0.00788453
0.00772406
0.00756659
0.00741145
0.0072579
0.00710535
0.0069533
0.00680027
0.00664483
0.00648684
0.00632586
0.0115328
0.0106795
0.0099134
0.00935192
0.00897079
0.00869416
0.00846866
0.00826579
0.00807802
0.00790231
0.00773505
0.00757465
0.00742003
0.00727061
0.00712658
0.00698875
0.00685954
0.006744
0.00665505
0.00661176
0.0102365
0.0103618
0.0100568
0.00963803
0.00926692
0.00894199
0.00865471
0.00840364
0.00818092
0.0079786
0.00779091
0.00761309
0.00744396
0.00728428
0.00713232
0.00698676
0.00684661
0.00671243
0.00659732
0.00651774
0.00966437
0.00976561
0.00965321
0.00942791
0.00917359
0.00891412
0.00865281
0.00840847
0.00818881
0.00798785
0.00779992
0.00762088
0.00744898
0.0072831
0.00712224
0.00696567
0.00681075
0.00665578
0.00650525
0.00635735
0.0092965
0.00936454
0.00931159
0.00916313
0.00897804
0.0087759
0.00856765
0.00836206
0.0081632
0.00797306
0.00779189
0.00761799
0.00744948
0.00728497
0.0071233
0.00696326
0.00680372
0.00664399
0.00648468
0.00632189
0.00911315
0.00917751
0.00914732
0.00902144
0.00886257
0.00869234
0.00851359
0.00833017
0.00814622
0.00796602
0.00779037
0.00761858
0.00745102
0.00728776
0.00712756
0.00696902
0.00681141
0.00665472
0.0064996
0.00634201
0.00911316
0.00917752
0.00914733
0.00902149
0.00886266
0.00869246
0.00851375
0.00833042
0.00814662
0.00796664
0.00779131
0.00762003
0.0074533
0.00729127
0.00713285
0.00697687
0.00682291
0.00667173
0.00652646
0.00638163
0.00929651
0.00936455
0.00931162
0.00916319
0.00897815
0.00877606
0.00856791
0.00836249
0.00816385
0.0079741
0.00779358
0.00762072
0.00745386
0.00729178
0.00713359
0.00697884
0.00682694
0.00667867
0.00653941
0.0064031
0.00966433
0.00976557
0.00965317
0.00942787
0.00917355
0.00891408
0.00865277
0.00840843
0.00818876
0.0079878
0.00779985
0.00762079
0.00744911
0.00728355
0.00712253
0.00696554
0.0068105
0.00665557
0.0065051
0.00635724
0.0102364
0.0103617
0.0100567
0.00963791
0.00926675
0.00894176
0.00865434
0.00840306
0.00817995
0.00797701
0.00778825
0.0076087
0.00743714
0.00727335
0.00711335
0.00695427
0.00679224
0.00662238
0.00644143
0.00624759
0.0115328
0.0106794
0.0099133
0.00935179
0.00897059
0.00869385
0.00846818
0.00826506
0.00807684
0.0079004
0.00773192
0.00756944
0.0074112
0.00725578
0.00710171
0.00694623
0.00678549
0.00661309
0.00641919
0.00618544
0.0118826
0.0111474
0.0100533
0.00938602
0.00897975
0.00869866
0.00847621
0.00827821
0.00809252
0.00791529
0.00774425
0.00758156
0.00742605
0.00727354
0.00712496
0.00698159
0.00684514
0.00671672
0.00659611
0.00646188
0.0111642
0.0111314
0.0104024
0.0096881
0.00923391
0.00890593
0.00863392
0.00839211
0.00817326
0.00797256
0.00778547
0.0076092
0.00744177
0.00728196
0.00712733
0.00697563
0.00682537
0.00667407
0.00652899
0.00640563
0.0102364
0.0103617
0.0100567
0.00963793
0.00926678
0.00894178
0.00865437
0.00840308
0.00817997
0.00797705
0.00778837
0.0076089
0.007437
0.00727267
0.00711303
0.00695462
0.00679261
0.0066226
0.00644158
0.00624776
0.009818
0.00986145
0.00969307
0.00942647
0.00914163
0.00886431
0.00860652
0.00837337
0.00816214
0.00796683
0.00778336
0.00760845
0.00743993
0.00727607
0.00711536
0.00695633
0.0067969
0.00663487
0.00647019
0.00630121
0.00960159
0.00962354
0.0094954
0.00927606
0.00904183
0.00880937
0.00858041
0.00836185
0.00815644
0.00796264
0.00777995
0.00760658
0.00744032
0.00727935
0.00712227
0.00696779
0.00681502
0.00666371
0.00651563
0.00636946
0.00960161
0.00962356
0.00949543
0.00927612
0.00904192
0.00880951
0.00858063
0.00836222
0.00815703
0.00796359
0.00778149
0.00760905
0.00744426
0.00728553
0.00713181
0.00698238
0.00683697
0.00669615
0.00656403
0.00644088
0.00981803
0.00986149
0.00969313
0.00942656
0.00914178
0.00886455
0.00860694
0.00837412
0.00816339
0.00796888
0.0077867
0.00761387
0.00744879
0.00729037
0.00713809
0.00699246
0.00685383
0.00672312
0.00660847
0.00651589
0.0102364
0.0103617
0.0100567
0.00963796
0.00926685
0.00894193
0.00865465
0.00840358
0.00818086
0.00797852
0.00779075
0.00761284
0.00744403
0.0072849
0.00713266
0.0069865
0.00684631
0.00671228
0.00659725
0.00651769
0.0111641
0.0111314
0.0104024
0.00968806
0.00923386
0.00890587
0.00863387
0.00839208
0.00817323
0.00797253
0.00778543
0.00760911
0.00744159
0.00728164
0.00712704
0.0069756
0.00682555
0.00667426
0.00652909
0.00640562
0.0118826
0.0111474
0.0100533
0.00938593
0.00897962
0.00869848
0.00847594
0.00827779
0.00809187
0.00791427
0.00774265
0.00757888
0.00742084
0.00726407
0.00711015
0.00695716
0.00680039
0.00662902
0.006404
0.00604977
0.019061
0.0119461
0.00965519
0.00911564
0.00884079
0.00861788
0.00842265
0.00824377
0.00807125
0.00790175
0.00773485
0.00757432
0.00741943
0.00726633
0.00711508
0.00696635
0.0068194
0.00667129
0.00650041
0.00617756
0.0118826
0.0111474
0.0100533
0.00938594
0.00897963
0.0086985
0.00847596
0.0082778
0.00809186
0.00791423
0.00774252
0.00757868
0.00742122
0.00726535
0.00711087
0.00695669
0.00679971
0.00662863
0.0064039
0.00604983
0.0115328
0.0106794
0.00991329
0.00935178
0.00897058
0.00869385
0.00846818
0.00826504
0.00807682
0.00790037
0.00773189
0.00756944
0.00741137
0.00725613
0.00710189
0.00694608
0.00678531
0.00661304
0.00641925
0.00618562
0.0111225
0.010359
0.0097383
0.00928415
0.00893688
0.00866228
0.00843359
0.0082326
0.00805154
0.00788451
0.00772405
0.0075666
0.00741151
0.00725802
0.00710546
0.00695332
0.00680021
0.00664479
0.0064869
0.00632601
0.0109874
0.0102462
0.00965751
0.00924775
0.00892342
0.00865426
0.00842688
0.00822623
0.00804366
0.00787448
0.00771454
0.00756095
0.00741059
0.00726096
0.00711224
0.00696499
0.00681914
0.00667426
0.0065306
0.00638938
0.0109874
0.0102462
0.00965753
0.00924778
0.00892348
0.00865436
0.00842704
0.00822651
0.00804412
0.00787524
0.00771579
0.00756297
0.00741385
0.00726621
0.0071206
0.00697828
0.00683996
0.0067055
0.00657513
0.00645256
0.0111226
0.010359
0.00973834
0.00928422
0.00893699
0.00866249
0.00843397
0.00823326
0.00805266
0.00788637
0.00772709
0.00757157
0.00741962
0.00727142
0.00712771
0.00698988
0.00685966
0.00673937
0.00663422
0.00655377
0.0115328
0.0106794
0.00991331
0.00935183
0.00897069
0.00869407
0.00846857
0.00826571
0.00807795
0.00790225
0.00773498
0.00757454
0.00741975
0.0072702
0.00712642
0.00698894
0.00685979
0.00674415
0.00665511
0.00661177
0.0118826
0.0111474
0.0100533
0.00938594
0.00897967
0.00869858
0.00847613
0.00827814
0.00809247
0.00791528
0.00774432
0.00758169
0.0074256
0.0072722
0.00712422
0.00698208
0.00684585
0.00671716
0.00659629
0.00646192
0.019061
0.0119461
0.00965514
0.00911559
0.00884074
0.00861784
0.00842261
0.00824374
0.00807123
0.00790176
0.00773494
0.00757451
0.00741908
0.00726502
0.00711431
0.00696682
0.00682011
0.00667169
0.00650054
0.00617755
0.00650058
0.00599159
0.00572945
0.00559762
0.00546624
0.00532263
0.00517436
0.00502452
0.00487336
0.00472107
0.00456781
0.00441423
0.00426103
0.0041075
0.00395325
0.00379867
0.00364403
0.00348931
0.00333454
0.0031797
0.00302473
0.00286949
0.0027144
0.00255991
0.00240538
0.00225025
0.00209483
0.00193924
0.0017839
0.00162923
0.00147458
0.00131937
0.00116391
0.00100858
0.000852942
0.000698078
0.000543649
0.000388234
0.000232551
7.73569e-05
0.00663563
0.00612828
0.00575652
0.00558797
0.00545517
0.00531317
0.00516661
0.00501876
0.00486929
0.00471829
0.00456613
0.00441324
0.00426015
0.00410671
0.00395271
0.00379837
0.00364386
0.00348924
0.00333453
0.00317973
0.00302484
0.00286979
0.00271476
0.00255997
0.00240516
0.00225008
0.00209481
0.00193947
0.00178419
0.00162922
0.0014743
0.00131916
0.00116393
0.00100882
0.000852946
0.000697783
0.000543499
0.000388301
0.000232794
7.75311e-05
0.00653605
0.00618265
0.00586095
0.0056579
0.0054949
0.00533618
0.00517996
0.0050262
0.00487345
0.0047207
0.00456771
0.00441435
0.00426066
0.00410674
0.00395264
0.00379834
0.00364389
0.00348929
0.0033346
0.00317982
0.00302499
0.00287012
0.00271516
0.00256007
0.00240494
0.00224986
0.00209477
0.00193966
0.00178449
0.00162927
0.00147405
0.0013189
0.00116373
0.00100844
0.000853192
0.000698257
0.000543345
0.000388169
0.000232913
7.76674e-05
0.00638874
0.00613271
0.00587737
0.00567662
0.00550595
0.00534416
0.00518602
0.00503049
0.00487632
0.0047226
0.0045689
0.00441508
0.00426112
0.00410698
0.00395272
0.00379836
0.00364386
0.00348927
0.00333459
0.00317983
0.00302501
0.00287014
0.00271518
0.00256012
0.00240499
0.00224986
0.00209475
0.00193963
0.00178449
0.00162929
0.0014741
0.00131896
0.00116386
0.00100876
0.000853461
0.000698126
0.000542998
0.000387903
0.000232764
7.7621e-05
0.00627688
0.0060721
0.00586597
0.00568189
0.00551295
0.00535069
0.00519174
0.005035
0.00487965
0.00472497
0.00457054
0.00441617
0.0042618
0.00410741
0.00395299
0.00379852
0.00364396
0.00348932
0.00333461
0.00317984
0.00302502
0.00287017
0.00271525
0.00256021
0.00240507
0.00224991
0.00209477
0.00193963
0.00178448
0.0016293
0.00147412
0.00131895
0.00116379
0.00100861
0.000853385
0.000698219
0.000543115
0.000387959
0.000232763
7.76031e-05
0.00618217
0.00601237
0.00584188
0.00567408
0.00551091
0.0053512
0.00519349
0.00503701
0.00488144
0.00472644
0.00457171
0.00441709
0.0042625
0.00410791
0.00395333
0.00379873
0.00364409
0.00348939
0.00333464
0.00317984
0.00302499
0.00287009
0.00271513
0.00256008
0.00240497
0.00224984
0.00209472
0.0019396
0.00178447
0.0016293
0.00147413
0.00131897
0.00116383
0.00100869
0.000853508
0.000698296
0.000543073
0.000387864
0.000232686
7.75725e-05
0.00608873
0.00595666
0.00581598
0.00566194
0.0055054
0.00534924
0.00519326
0.0050375
0.00488213
0.0047271
0.00457228
0.00441751
0.00426279
0.00410814
0.00395352
0.00379887
0.00364417
0.00348944
0.00333466
0.00317984
0.00302497
0.00287006
0.00271508
0.00256002
0.00240491
0.00224981
0.00209471
0.00193961
0.00178447
0.0016293
0.00147413
0.00131899
0.00116387
0.00100875
0.000853576
0.000698325
0.000543048
0.000387815
0.000232657
7.75664e-05
0.00601844
0.00591807
0.00579307
0.00564749
0.00549698
0.00534467
0.00519086
0.00503628
0.00488152
0.00472682
0.0045722
0.00441748
0.00426271
0.00410809
0.0039535
0.00379886
0.00364416
0.00348943
0.00333464
0.00317982
0.00302496
0.00287004
0.00271505
0.00255997
0.00240486
0.00224978
0.00209472
0.00193962
0.0017845
0.0016293
0.00147412
0.00131902
0.00116395
0.00100885
0.000853683
0.000698342
0.000542959
0.000387749
0.000232644
7.7575e-05
0.00610736
0.00596376
0.00580376
0.00565083
0.00549836
0.00534453
0.00519012
0.00503552
0.00488084
0.00472617
0.00457145
0.00441702
0.00426282
0.00410832
0.00395364
0.00379891
0.00364417
0.0034894
0.00333461
0.00317978
0.00302491
0.00287
0.00271501
0.00255993
0.00240484
0.0022498
0.00209473
0.00193965
0.00178449
0.0016293
0.00147413
0.00131907
0.00116403
0.00100904
0.000854052
0.000698505
0.000542706
0.000387507
0.000232547
7.7551e-05
0.00626108
0.00596732
0.00576146
0.00562489
0.00548516
0.00533593
0.005184
0.00503126
0.00487784
0.00472385
0.00456964
0.00441591
0.00426229
0.00410804
0.00395343
0.00379873
0.003644
0.00348926
0.00333449
0.00317966
0.00302474
0.00286965
0.00271461
0.00255985
0.00240508
0.00225002
0.00209476
0.00193942
0.00178417
0.00162926
0.00147441
0.00131931
0.00116407
0.00100876
0.000853472
0.000698455
0.000543282
0.000387818
0.000232449
7.74115e-05
0.00650107
0.00599199
0.00572992
0.00559759
0.00546534
0.00532185
0.00517414
0.00502449
0.00487327
0.00472064
0.00456738
0.00441463
0.00426171
0.00410772
0.0039532
0.00379859
0.00364392
0.00348922
0.00333447
0.00317963
0.00302467
0.00286943
0.00271434
0.00255984
0.00240532
0.0022502
0.00209479
0.00193923
0.0017839
0.00162925
0.00147463
0.00131946
0.00116406
0.00100852
0.000853205
0.000698473
0.000543498
0.000387963
0.000232365
7.7301e-05
0.00626043
0.0059668
0.00576091
0.00562506
0.00548622
0.00533664
0.00518414
0.00503125
0.00487788
0.0047241
0.00457
0.00441582
0.00426186
0.00410779
0.00395336
0.00379875
0.00364407
0.00348933
0.00333454
0.00317969
0.00302476
0.00286967
0.00271463
0.00255987
0.0024051
0.00225003
0.00209477
0.00193943
0.00178416
0.00162924
0.00147437
0.00131926
0.00116409
0.00100909
0.000853154
0.000697694
0.000543248
0.000388052
0.000232633
7.74772e-05
0.00626846
0.00601347
0.00579917
0.00563149
0.0054782
0.00532611
0.00517486
0.00502402
0.00487259
0.00472029
0.00456749
0.00441423
0.00426043
0.00410636
0.0039522
0.00379791
0.00364348
0.00348892
0.00333427
0.00317954
0.00302473
0.00286994
0.00271506
0.00255996
0.00240477
0.00224971
0.00209467
0.00193965
0.00178459
0.00162932
0.00147403
0.0013189
0.00116379
0.00100866
0.000853785
0.000698473
0.000542876
0.000387777
0.000232843
7.76984e-05
0.00635077
0.00614724
0.00591735
0.00570945
0.00552707
0.00535754
0.00519486
0.00503641
0.00488014
0.00472492
0.00457031
0.00441599
0.00426155
0.00410708
0.00395266
0.00379822
0.00364369
0.00348908
0.0033344
0.00317965
0.00302486
0.00287005
0.00271513
0.00256
0.0024048
0.0022497
0.00209467
0.00193964
0.00178458
0.00162932
0.00147403
0.00131885
0.00116369
0.00100848
0.000853795
0.000698641
0.000542885
0.00038774
0.000232835
7.76728e-05
0.00627115
0.00609932
0.00591019
0.00571978
0.00554082
0.00537042
0.00520536
0.00504412
0.0048856
0.00472878
0.00457297
0.00441773
0.00426272
0.0041079
0.00395322
0.00379857
0.00364391
0.00348921
0.00333448
0.00317969
0.00302487
0.00287
0.00271506
0.00255998
0.00240485
0.00224974
0.00209466
0.00193959
0.00178448
0.0016293
0.00147411
0.00131897
0.0011639
0.00100888
0.000853652
0.000698176
0.000542843
0.000387774
0.000232776
7.76138e-05
0.00619415
0.00603486
0.00587381
0.00570259
0.0055331
0.00536791
0.0052057
0.00504567
0.00488739
0.00473043
0.00457436
0.00441883
0.00426361
0.0041086
0.00395371
0.0037989
0.00364412
0.00348933
0.00333454
0.00317971
0.00302483
0.0028699
0.00271489
0.00255983
0.00240478
0.00224972
0.00209465
0.00193955
0.00178443
0.00162928
0.00147411
0.00131895
0.00116379
0.00100863
0.000853501
0.000698326
0.000543084
0.000387931
0.000232826
7.76108e-05
0.00614198
0.0059845
0.00583421
0.00567583
0.00551573
0.00535681
0.00519893
0.00504179
0.00488531
0.00472936
0.00457384
0.00441864
0.00426361
0.00410867
0.0039538
0.00379898
0.00364418
0.00348938
0.00333456
0.00317971
0.00302482
0.00286987
0.00271486
0.00255982
0.00240476
0.0022497
0.00209462
0.00193952
0.0017844
0.00162927
0.00147412
0.00131897
0.00116382