/*--------------------------------*- C++ -*----------------------------------*\
| =========                 |                                                 |
| \\      /  F ield         | OpenFOAM: The Open Source CFD Toolbox           |
|  \\    /   O peration     | Version:  2212                                  |
|   \\  /    A nd           | Website:  www.openfoam.com                      |
|    \\/     M anipulation  |                                                 |
\*---------------------------------------------------------------------------*/
FoamFile
{
    version     2.0;
    format      ascii;
    arch        "LSB;label=32;scalar=64";
    class       surfaceScalarField;
    location    "0.2";
    object      phi;
}
// * * * * * * * * * * * * * * * * * * * * * * * * * * * * * * * * * * * * * //

dimensions      [0 3 -1 0 0 0 0];

oriented        oriented;

internalField   nonuniform List<scalar> 
19019
(
3.32264e-07
1.08975e-09
1.08963e-09
2.79188e-07
2.6538e-08
2.65381e-08
2.49234e-07
1.49769e-08
1.4977e-08
2.29313e-07
9.96037e-09
9.96086e-09
2.15005e-07
7.15338e-09
7.1548e-09
2.03612e-07
5.69502e-09
5.69761e-09
1.94525e-07
4.54111e-09
4.54579e-09
1.87365e-07
3.57548e-09
3.58527e-09
1.8171e-07
2.8188e-09
2.83609e-09
1.7725e-07
2.21523e-09
2.2447e-09
1.7374e-07
1.73042e-09
1.77984e-09
1.70996e-07
1.33015e-09
1.41308e-09
1.68879e-07
9.88832e-10
1.12835e-09
1.67253e-07
6.95698e-10
9.30947e-10
1.66023e-07
4.25025e-10
8.04449e-10
1.65132e-07
1.26122e-10
7.64884e-10
1.64552e-07
-2.91914e-10
8.72139e-10
1.64633e-07
-1.12505e-09
1.04364e-09
1.66736e-07
-3.317e-09
1.21474e-09
-1.36446e-08
-6.95477e-09
6.31362e-07
3.59378e-09
7.40802e-09
6.14551e-07
2.26774e-08
2.06716e-08
5.86554e-07
2.43597e-08
1.86134e-08
5.62157e-07
1.87233e-08
1.5635e-08
5.40648e-07
1.52255e-08
1.34367e-08
5.2271e-07
1.27553e-08
1.08781e-08
5.08344e-07
1.06986e-08
8.20788e-09
4.96869e-07
8.91605e-09
6.13492e-09
4.87633e-07
7.37117e-09
4.68381e-09
4.80196e-07
6.00368e-09
3.6484e-09
4.74237e-07
4.79353e-09
2.89581e-09
4.69462e-07
3.79625e-09
2.3091e-09
4.65608e-07
3.0023e-09
1.84002e-09
4.62512e-07
2.29825e-09
1.49379e-09
4.60031e-07
1.6535e-09
1.25312e-09
4.5793e-07
1.08936e-09
1.13765e-09
4.5592e-07
6.08518e-10
1.10919e-09
4.53757e-07
4.90052e-11
9.89124e-10
4.51865e-07
-1.35023e-09
-7.48784e-11
2.53489e-09
1.23626e-09
8.90363e-07
2.8606e-09
6.34173e-09
8.82506e-07
1.34235e-08
1.71115e-08
8.70555e-07
1.781e-08
1.85003e-08
8.55649e-07
1.67863e-08
1.68436e-08
8.41159e-07
1.49035e-08
1.48122e-08
8.27901e-07
1.32219e-08
1.27906e-08
8.16077e-07
1.17572e-08
1.07658e-08
8.05799e-07
1.02954e-08
8.89862e-09
7.9716e-07
8.74458e-09
7.26577e-09
7.90119e-07
7.18095e-09
5.86401e-09
7.8447e-07
5.7397e-09
4.70263e-09
7.79981e-07
4.50163e-09
3.78365e-09
7.76401e-07
3.50115e-09
3.08105e-09
7.73449e-07
2.72526e-09
2.52519e-09
7.70849e-07
2.14197e-09
2.11237e-09
7.68307e-07
1.73595e-09
1.89518e-09
7.65394e-07
1.56342e-09
1.95746e-09
7.61345e-07
1.73617e-09
2.36258e-09
7.54534e-07
2.45931e-09
3.00088e-09
7.94851e-09
7.61643e-09
1.07431e-06
1.06985e-09
5.57333e-09
1.06826e-06
5.58957e-09
1.38923e-08
1.06148e-06
8.43247e-09
1.61483e-08
1.05371e-06
8.92541e-09
1.56376e-08
1.04579e-06
8.34309e-09
1.44782e-08
1.03844e-06
7.54275e-09
1.30299e-08
1.03194e-06
6.77307e-09
1.14836e-08
1.02636e-06
6.00679e-09
9.86549e-09
1.02165e-06
5.23802e-09
8.21948e-09
1.01767e-06
4.5003e-09
6.66064e-09
1.01429e-06
3.7838e-09
5.34119e-09
1.01145e-06
3.07602e-09
4.26606e-09
1.00907e-06
2.45495e-09
3.41666e-09
1.00702e-06
1.99592e-09
2.78104e-09
1.00509e-06
1.73046e-09
2.34778e-09
1.00302e-06
1.69082e-09
2.11515e-09
1.00055e-06
1.89762e-09
2.13453e-09
9.97356e-07
2.47323e-09
2.45467e-09
9.93138e-07
3.6709e-09
3.0071e-09
7.08817e-09
5.3172e-09
1.16915e-06
1.1121e-13
4.90893e-09
1.16313e-06
5.1628e-13
1.16023e-08
1.15735e-06
1.1003e-12
1.42116e-08
1.15212e-06
1.83078e-12
1.41542e-08
1.1471e-06
3.06725e-12
1.33599e-08
1.14237e-06
5.28311e-12
1.22728e-08
1.13814e-06
8.80291e-12
1.09925e-08
1.13457e-06
1.46966e-11
9.56118e-09
1.13167e-06
2.44462e-11
8.11017e-09
1.12941e-06
4.06719e-11
6.72235e-09
1.12767e-06
6.71607e-11
5.45917e-09
1.1263e-06
1.10136e-10
4.33634e-09
1.12516e-06
1.80252e-10
3.40906e-09
1.12416e-06
2.94309e-10
2.70738e-09
1.1232e-06
4.77768e-10
2.2124e-09
1.1222e-06
7.79558e-10
1.90526e-09
1.1211e-06
1.23401e-09
1.76451e-09
1.11986e-06
1.94065e-09
1.77806e-09
1.11865e-06
2.9998e-09
1.88002e-09
4.78513e-09
2.66825e-09
1.16915e-06
-1.0696e-09
4.90891e-09
1.16313e-06
-5.58874e-09
1.16021e-08
1.15735e-06
-8.43096e-09
1.42114e-08
1.15213e-06
-8.92294e-09
1.41537e-08
1.14711e-06
-8.33889e-09
1.33589e-08
1.14238e-06
-7.53534e-09
1.22711e-08
1.13816e-06
-6.76022e-09
1.09893e-08
1.1346e-06
-5.98526e-09
9.55584e-09
1.13173e-06
-5.20198e-09
8.1012e-09
1.1295e-06
-4.4397e-09
6.70807e-09
1.12781e-06
-3.68372e-09
5.43755e-09
1.12653e-06
-2.91075e-09
4.30048e-09
1.12555e-06
-2.17851e-09
3.34654e-09
1.12477e-06
-1.53523e-09
2.60172e-09
1.12418e-06
-9.64214e-10
2.03657e-09
1.12373e-06
-3.86105e-10
1.61813e-09
1.12338e-06
2.72811e-10
1.30463e-09
1.12314e-06
1.11476e-09
1.06712e-09
1.12301e-06
2.28822e-09
8.47564e-10
3.87376e-09
9.13176e-10
1.07431e-06
-2.86061e-09
5.57333e-09
1.06826e-06
-1.34235e-08
1.38922e-08
1.06149e-06
-1.78098e-08
1.61478e-08
1.05371e-06
-1.67861e-08
1.56362e-08
1.0458e-06
-1.49029e-08
1.44757e-08
1.03846e-06
-1.32207e-08
1.30261e-08
1.03198e-06
-1.17552e-08
1.14773e-08
1.02643e-06
-1.02924e-08
9.85499e-09
1.02177e-06
-8.74009e-09
8.20441e-09
1.01786e-06
-7.17272e-09
6.63527e-09
1.01461e-06
-5.72491e-09
5.29611e-09
1.01199e-06
-4.47492e-09
4.18817e-09
1.00997e-06
-3.44418e-09
3.28195e-09
1.00849e-06
-2.60252e-09
2.54726e-09
1.00748e-06
-1.90453e-09
1.94566e-09
1.00694e-06
-1.26917e-09
1.42462e-09
1.00687e-06
-5.91729e-10
9.39181e-10
1.00724e-06
3.21346e-10
4.19725e-10
1.00765e-06
2.09091e-09
-2.15281e-10
5.49749e-09
-9.0388e-10
8.90364e-07
-3.59382e-09
6.3417e-09
8.82506e-07
-2.26777e-08
1.71112e-08
8.70557e-07
-2.43602e-08
1.84994e-08
8.55654e-07
-1.87242e-08
1.68419e-08
8.41169e-07
-1.52275e-08
1.48098e-08
8.2792e-07
-1.27589e-08
1.27871e-08
8.16108e-07
-1.07048e-08
1.07607e-08
8.05853e-07
-8.92715e-09
8.88983e-09
7.97252e-07
-7.39025e-09
7.25168e-09
7.90275e-07
-6.03618e-09
5.84039e-09
7.84737e-07
-4.84851e-09
4.66206e-09
7.80436e-07
-3.88622e-09
3.71238e-09
7.77171e-07
-3.12649e-09
2.94702e-09
7.74759e-07
-2.46901e-09
2.27846e-09
7.73111e-07
-1.95004e-09
1.69312e-09
7.72283e-07
-1.61599e-09
1.17499e-09
7.72493e-07
-1.39589e-09
5.94383e-10
7.74011e-07
-9.45084e-10
-2.51913e-10
7.7713e-07
6.84688e-10
-1.71287e-09
6.66424e-09
-4.70479e-09
6.31362e-07
-1.08978e-09
7.40797e-09
6.14551e-07
-2.65383e-08
2.06713e-08
5.86555e-07
-1.49774e-08
1.86128e-08
5.62158e-07
-9.96121e-09
1.56339e-08
5.40651e-07
-7.15516e-09
1.34351e-08
5.22715e-07
-5.69788e-09
1.0875e-08
5.08354e-07
-4.54601e-09
8.20263e-09
4.96885e-07
-3.58554e-09
6.12722e-09
4.87659e-07
-2.83657e-09
4.67175e-09
4.8024e-07
-2.24554e-09
3.62907e-09
4.7431e-07
-1.78093e-09
2.86222e-09
4.69591e-07
-1.41271e-09
2.24551e-09
4.65858e-07
-1.12762e-09
1.73397e-09
4.62993e-07
-9.31363e-10
1.32745e-09
4.60891e-07
-7.99291e-10
9.51231e-10
4.59443e-07
-7.59404e-10
5.9112e-10
4.5878e-07
-8.7178e-10
1.38866e-10
4.59833e-07
-1.04658e-09
-9.51471e-10
4.65397e-07
-1.2187e-09
-3.66067e-09
6.94893e-09
-1.4083e-08
3.32264e-07
1.08959e-09
2.79188e-07
2.65378e-08
2.49234e-07
1.49765e-08
2.29313e-07
9.95999e-09
2.15005e-07
7.15295e-09
2.03612e-07
5.6947e-09
1.94525e-07
4.54082e-09
1.87364e-07
3.57525e-09
1.81709e-07
2.8187e-09
1.77248e-07
2.21541e-09
1.73737e-07
1.73076e-09
1.70995e-07
1.32881e-09
1.68881e-07
9.86679e-10
1.67255e-07
6.94554e-10
1.66036e-07
4.19759e-10
1.65155e-07
1.2156e-10
1.64572e-07
-2.88965e-10
1.64645e-07
-1.11944e-09
1.66737e-07
-3.31148e-09
-1.36402e-08
6.31362e-07
7.40798e-09
3.59369e-09
6.14551e-07
2.06714e-08
2.26776e-08
5.86555e-07
1.86127e-08
2.436e-08
5.62158e-07
1.56337e-08
1.87241e-08
5.40651e-07
1.34349e-08
1.52273e-08
5.22715e-07
1.08747e-08
1.27588e-08
5.08354e-07
8.20232e-09
1.07048e-08
4.96885e-07
6.12674e-09
8.92707e-09
4.87661e-07
4.67092e-09
7.38969e-09
4.80244e-07
3.62759e-09
6.03417e-09
4.74319e-07
2.86134e-09
4.84316e-09
4.69603e-07
2.25127e-09
3.87736e-09
4.65857e-07
1.74138e-09
3.133e-09
4.62957e-07
1.32367e-09
2.50722e-09
4.60826e-07
9.48873e-10
1.98649e-09
4.59378e-07
5.9507e-10
1.6181e-09
4.58734e-07
1.39166e-10
1.37761e-09
4.59809e-07
-9.55283e-10
9.23694e-10
4.65393e-07
-3.66586e-09
-7.03586e-10
-1.4088e-08
-6.68171e-09
9.23615e-07
7.03946e-09
7.03956e-09
9.25356e-07
1.98008e-08
1.98011e-08
9.17343e-07
2.26191e-08
2.262e-08
9.04606e-07
2.20023e-08
2.20038e-08
8.91217e-07
2.01291e-08
2.01317e-08
8.78739e-07
1.71129e-08
1.71179e-08
8.67812e-07
1.36642e-08
1.36727e-08
8.58609e-07
1.0726e-08
1.07395e-08
8.51077e-07
8.43199e-09
8.45448e-09
8.45062e-07
6.62671e-09
6.66398e-09
8.4032e-07
5.21888e-09
5.28014e-09
8.36694e-07
4.04316e-09
4.14386e-09
8.34e-07
3.05479e-09
3.22056e-09
8.31939e-07
2.30248e-09
2.57544e-09
8.30292e-07
1.70054e-09
2.1491e-09
8.28983e-07
1.15539e-09
1.88549e-09
8.28036e-07
5.13839e-10
1.68185e-09
8.27224e-07
-4.86707e-10
1.33282e-09
8.2533e-07
-2.23679e-09
3.89343e-10
-5.08191e-09
-1.91439e-09
1.15892e-06
5.27888e-09
6.10172e-09
1.16574e-06
1.39591e-08
1.61309e-08
1.16849e-06
1.78499e-08
2.05246e-08
1.16671e-06
1.89111e-08
2.1713e-08
1.16246e-06
1.83712e-08
2.08164e-08
1.15702e-06
1.66575e-08
1.86935e-08
1.1513e-06
1.42966e-08
1.58444e-08
1.14592e-06
1.19176e-08
1.30941e-08
1.14117e-06
9.74057e-09
1.07031e-08
1.13719e-06
7.80276e-09
8.67377e-09
1.13395e-06
6.17378e-09
6.97938e-09
1.13139e-06
4.82118e-09
5.56952e-09
1.12937e-06
3.71914e-09
4.43329e-09
1.12779e-06
2.84799e-09
3.56271e-09
1.12648e-06
2.17531e-09
2.95117e-09
1.12525e-06
1.66969e-09
2.605e-09
1.12395e-06
1.2777e-09
2.49537e-09
1.12233e-06
9.31147e-10
2.56327e-09
1.1197e-06
6.23091e-10
2.7766e-09
9.65479e-10
3.61823e-09
1.32763e-06
2.71676e-09
4.9297e-09
1.33541e-06
7.10135e-09
1.29723e-08
1.34284e-06
9.48511e-09
1.70799e-08
1.34839e-06
1.04163e-08
1.85844e-08
1.35181e-06
1.05473e-08
1.88803e-08
1.35352e-06
9.96876e-09
1.80129e-08
1.35404e-06
8.8978e-09
1.63617e-08
1.35385e-06
7.67335e-09
1.42993e-08
1.35327e-06
6.42363e-09
1.21095e-08
1.35253e-06
5.23055e-09
9.97489e-09
1.35176e-06
4.19447e-09
8.0928e-09
1.35101e-06
3.3266e-09
6.51107e-09
1.3503e-06
2.6302e-09
5.21814e-09
1.34961e-06
2.11056e-09
4.20717e-09
1.3489e-06
1.76174e-09
3.47181e-09
1.3481e-06
1.58094e-09
3.00607e-09
1.3471e-06
1.58037e-09
2.82382e-09
1.34579e-06
1.78307e-09
2.91601e-09
1.34393e-06
2.22552e-09
3.26595e-09
3.05008e-09
4.1718e-09
1.41518e-06
1.94491e-13
4.19403e-09
1.42278e-06
5.40381e-13
1.10956e-08
1.43148e-06
8.96787e-13
1.50037e-08
1.43964e-06
1.61566e-12
1.6402e-08
1.44672e-06
2.93767e-12
1.68286e-08
1.45231e-06
4.92988e-12
1.66397e-08
1.45652e-06
8.1689e-12
1.56732e-08
1.45961e-06
1.36885e-11
1.41372e-08
1.46177e-06
2.23027e-11
1.23509e-08
1.46319e-06
3.63589e-11
1.04898e-08
1.46412e-06
5.88975e-11
8.66979e-09
1.46471e-06
9.51614e-11
6.97295e-09
1.46508e-06
1.53668e-10
5.51782e-09
1.46528e-06
2.47756e-10
4.3723e-09
1.46534e-06
3.97918e-10
3.51389e-09
1.46529e-06
6.31764e-10
2.90531e-09
1.46513e-06
9.8576e-10
2.51898e-09
1.46484e-06
1.50975e-09
2.33955e-09
1.46435e-06
2.24045e-09
2.3563e-09
3.11343e-09
2.69595e-09
1.41518e-06
-2.71652e-09
4.19393e-09
1.42278e-06
-7.10074e-09
1.10954e-08
1.43148e-06
-9.48404e-09
1.50032e-08
1.43965e-06
-1.04143e-08
1.64009e-08
1.44672e-06
-1.05437e-08
1.68266e-08
1.45233e-06
-9.96275e-09
1.66364e-08
1.45654e-06
-8.88771e-09
1.56679e-08
1.45964e-06
-7.65579e-09
1.41286e-08
1.46182e-06
-6.39636e-09
1.23372e-08
1.46329e-06
-5.18545e-09
1.04679e-08
1.46427e-06
-4.11904e-09
8.63568e-09
1.46495e-06
-3.2027e-09
6.91734e-09
1.46545e-06
-2.42853e-09
5.42504e-09
1.46586e-06
-1.77793e-09
4.22104e-09
1.46623e-06
-1.20744e-09
3.27081e-09
1.46662e-06
-6.64414e-10
2.52143e-09
1.46707e-06
-9.05969e-11
1.92905e-09
1.46759e-06
6.00229e-10
1.46352e-09
1.46806e-06
1.50412e-09
1.10929e-09
2.58306e-09
9.29723e-10
1.32763e-06
-5.27896e-09
4.92953e-09
1.33541e-06
-1.39592e-08
1.29718e-08
1.34284e-06
-1.78501e-08
1.70787e-08
1.3484e-06
-1.89113e-08
1.85818e-08
1.35182e-06
-1.83716e-08
1.88756e-08
1.35354e-06
-1.66585e-08
1.80058e-08
1.35408e-06
-1.42985e-08
1.63501e-08
1.35392e-06
-1.192e-08
1.42807e-08
1.35339e-06
-9.74599e-09
1.20809e-08
1.35272e-06
-7.81091e-09
9.92821e-09
1.35207e-06
-6.18375e-09
8.01327e-09
1.35151e-06
-4.83351e-09
6.37867e-09
1.3511e-06
-3.74124e-09
5.00157e-09
1.3509e-06
-2.88041e-09
3.84901e-09
1.35096e-06
-2.19242e-09
2.87873e-09
1.35131e-06
-1.63201e-09
2.04233e-09
1.35198e-06
-1.10955e-09
1.28588e-09
1.35293e-06
-4.67871e-10
5.34804e-10
1.35394e-06
5.48632e-10
-2.7159e-10
2.20939e-09
-1.03972e-09
1.15892e-06
-7.03957e-09
6.10153e-09
1.16574e-06
-1.98012e-08
1.61302e-08
1.16849e-06
-2.26199e-08
2.05231e-08
1.16671e-06
-2.20037e-08
2.17103e-08
1.16247e-06
-2.01314e-08
2.08122e-08
1.15703e-06
-1.71176e-08
1.86872e-08
1.15133e-06
-1.36724e-08
1.58342e-08
1.14596e-06
-1.07393e-08
1.30766e-08
1.14125e-06
-8.45445e-09
1.06737e-08
1.13732e-06
-6.66377e-09
8.62467e-09
1.13418e-06
-5.2767e-09
6.89666e-09
1.13175e-06
-4.12966e-09
5.43032e-09
1.12997e-06
-3.21639e-09
4.20776e-09
1.12877e-06
-2.60481e-09
3.19683e-09
1.12811e-06
-2.16741e-09
2.33347e-09
1.12797e-06
-1.8727e-09
1.55988e-09
1.12837e-06
-1.66885e-09
7.52651e-10
1.12925e-06
-1.32891e-09
-2.78469e-10
1.1302e-06
-3.91752e-10
-1.71405e-09
1.91232e-09
-3.43873e-09
9.23615e-07
-7.40803e-09
7.03945e-09
9.25356e-07
-2.06717e-08
1.98007e-08
9.17343e-07
-1.86132e-08
2.26192e-08
9.04606e-07
-1.56348e-08
2.20024e-08
8.91217e-07
-1.34364e-08
2.01292e-08
8.78739e-07
-1.08778e-08
1.7113e-08
8.67813e-07
-8.20757e-09
1.36643e-08
8.58609e-07
-6.13473e-09
1.07263e-08
8.51078e-07
-4.68407e-09
8.43243e-09
8.45066e-07
-3.64941e-09
6.62689e-09
8.40332e-07
-2.89631e-09
5.21567e-09
8.36722e-07
-2.30297e-09
4.02871e-09
8.34022e-07
-1.83194e-09
3.04947e-09
8.3191e-07
-1.49626e-09
2.33128e-09
8.30228e-07
-1.25456e-09
1.72023e-09
8.28935e-07
-1.13358e-09
1.14495e-09
8.28011e-07
-1.10956e-09
5.03269e-10
8.27212e-07
-9.93098e-10
-4.88164e-10
8.25321e-07
6.99451e-11
-2.23156e-09
-1.2414e-09
-5.07487e-09
6.31362e-07
3.59364e-09
6.14551e-07
2.26772e-08
5.86554e-07
2.43594e-08
5.62157e-07
1.8723e-08
5.40648e-07
1.52253e-08
5.2271e-07
1.27552e-08
5.08344e-07
1.06986e-08
4.96869e-07
8.91613e-09
4.87632e-07
7.37168e-09
4.80192e-07
6.00557e-09
4.74228e-07
4.79868e-09
4.69449e-07
3.80462e-09
4.65609e-07
2.99457e-09
4.62549e-07
2.25853e-09
4.60097e-07
1.617e-09
4.57996e-07
1.08933e-09
4.55966e-07
6.30794e-10
4.5378e-07
7.34666e-11
4.51867e-07
-1.32818e-09
2.55048e-09
8.90363e-07
6.34167e-09
2.86056e-09
8.82506e-07
1.71111e-08
1.34234e-08
8.70557e-07
1.84993e-08
1.78097e-08
8.55654e-07
1.68418e-08
1.6786e-08
8.41168e-07
1.48096e-08
1.49029e-08
8.27919e-07
1.27869e-08
1.32208e-08
8.16108e-07
1.07604e-08
1.17554e-08
8.05853e-07
8.88946e-09
1.02926e-08
7.97252e-07
7.25115e-09
8.74017e-09
7.90274e-07
5.83933e-09
7.17251e-09
7.84733e-07
4.65984e-09
5.72418e-09
7.80427e-07
3.70985e-09
4.47352e-09
7.7716e-07
2.95252e-09
3.44721e-09
7.74752e-07
2.29729e-09
2.61789e-09
7.73104e-07
1.70997e-09
1.92443e-09
7.7227e-07
1.17595e-09
1.27629e-09
7.7248e-07
5.82818e-10
5.84146e-10
7.74007e-07
-2.66002e-10
-3.37284e-10
7.77137e-07
-1.72657e-09
-2.10644e-09
-4.71565e-09
-5.51572e-09
1.15892e-06
6.10154e-09
5.27893e-09
1.16574e-06
1.61302e-08
1.39592e-08
1.16849e-06
2.0523e-08
1.78501e-08
1.16671e-06
2.17102e-08
1.89114e-08
1.16247e-06
2.08121e-08
1.83717e-08
1.15703e-06
1.8687e-08
1.66587e-08
1.15133e-06
1.58341e-08
1.42988e-08
1.14596e-06
1.30765e-08
1.19204e-08
1.14125e-06
1.06738e-08
9.74655e-09
1.13731e-06
8.62521e-09
7.81189e-09
1.13417e-06
6.89857e-09
6.18604e-09
1.13175e-06
5.43486e-09
4.83779e-09
1.12997e-06
4.2089e-09
3.74011e-09
1.12879e-06
3.1887e-09
2.87001e-09
1.12813e-06
2.32686e-09
2.18659e-09
1.128e-06
1.56089e-09
1.63576e-09
1.12839e-06
7.54184e-10
1.11415e-09
1.12927e-06
-2.79895e-10
4.69302e-10
1.1302e-06
-1.7174e-09
-5.49654e-10
-3.43946e-09
-2.20878e-09
1.37714e-06
4.56629e-09
4.56644e-09
1.38568e-06
1.18592e-08
1.18597e-08
1.39414e-06
1.62931e-08
1.62941e-08
1.40107e-06
1.8246e-08
1.82477e-08
1.40595e-06
1.83716e-08
1.83744e-08
1.40872e-06
1.73057e-08
1.73104e-08
1.40973e-06
1.53319e-08
1.53395e-08
1.40972e-06
1.30829e-08
1.30951e-08
1.40925e-06
1.09153e-08
1.0935e-08
1.40861e-06
8.95287e-09
8.98479e-09
1.40799e-06
7.22375e-09
7.27552e-09
1.40745e-06
5.72652e-09
5.81005e-09
1.40705e-06
4.45753e-09
4.59153e-09
1.40678e-06
3.39955e-09
3.61292e-09
1.40667e-06
2.52852e-09
2.86518e-09
1.4067e-06
1.80408e-09
2.32782e-09
1.40685e-06
1.15318e-09
1.94892e-09
1.40698e-06
4.91985e-10
1.66039e-09
1.40683e-06
-1.96874e-10
1.40559e-09
-6.6271e-10
1.20173e-09
1.53312e-06
2.35989e-09
3.64546e-09
1.54215e-06
6.2073e-09
9.59807e-09
1.55315e-06
8.79008e-09
1.35774e-08
1.56415e-06
1.01635e-08
1.56736e-08
1.57442e-06
1.05623e-08
1.64118e-08
1.58345e-06
1.01921e-08
1.61055e-08
1.59078e-06
9.31325e-09
1.50444e-08
1.59654e-06
8.15399e-09
1.34683e-08
1.60098e-06
6.91278e-09
1.16707e-08
1.60434e-06
5.71786e-09
9.85029e-09
1.60687e-06
4.6452e-09
8.14059e-09
1.60877e-06
3.72334e-09
6.6158e-09
1.61019e-06
2.95022e-09
5.31115e-09
1.61123e-06
2.31668e-09
4.24126e-09
1.61201e-06
1.81686e-09
3.40991e-09
1.61257e-06
1.44136e-09
2.80999e-09
1.61295e-06
1.17348e-09
2.42203e-09
1.61314e-06
1.00021e-09
2.21663e-09
1.6131e-06
9.28625e-10
2.18005e-09
1.01378e-09
2.337e-09
1.61423e-06
1.54872e-13
3.09525e-09
1.62327e-06
3.5265e-13
8.25874e-09
1.63519e-06
5.81175e-13
1.188e-08
1.64785e-06
1.00042e-12
1.39067e-08
1.66046e-06
1.71061e-12
1.47741e-08
1.67245e-06
2.71869e-12
1.48413e-08
1.68316e-06
4.32724e-12
1.42725e-08
1.69227e-06
6.92454e-12
1.31701e-08
1.6998e-06
1.10646e-11
1.17222e-08
1.70587e-06
1.75557e-11
1.01222e-08
1.71065e-06
2.77368e-11
8.50881e-09
1.71432e-06
4.38471e-11
6.98342e-09
1.71709e-06
6.92523e-11
5.62386e-09
1.7192e-06
1.09152e-10
4.47698e-09
1.7208e-06
1.71467e-10
3.55923e-09
1.72202e-06
2.66513e-10
2.86e-09
1.72295e-06
4.07856e-10
2.34917e-09
1.72368e-06
6.14917e-10
1.99814e-09
1.72426e-06
9.02967e-10
1.79745e-09
1.24482e-09
1.79647e-09
1.61423e-06
-2.35975e-09
3.09513e-09
1.62328e-06
-6.20701e-09
8.25842e-09
1.63519e-06
-8.78962e-09
1.18794e-08
1.64785e-06
-1.01627e-08
1.39055e-08
1.66047e-06
-1.05611e-08
1.4772e-08
1.67246e-06
-1.01903e-08
1.4838e-08
1.68317e-06
-9.31028e-09
1.42677e-08
1.69229e-06
-8.14908e-09
1.31623e-08
1.69984e-06
-6.90527e-09
1.17098e-08
1.70593e-06
-5.70584e-09
1.01024e-08
1.71074e-06
-4.62553e-09
8.47745e-09
1.71446e-06
-3.692e-09
6.9335e-09
1.71731e-06
-2.90107e-09
5.54462e-09
1.71952e-06
-2.23721e-09
4.35251e-09
1.72128e-06
-1.68482e-09
3.36628e-09
1.72273e-06
-1.22372e-09
2.56656e-09
1.72397e-06
-8.22308e-10
1.91478e-09
1.72511e-06
-4.38189e-10
1.37545e-09
1.72622e-06
-3.55296e-11
9.38446e-10
3.85218e-10
6.97201e-10
1.53312e-06
-4.56645e-09
3.64521e-09
1.54215e-06
-1.18597e-08
9.59738e-09
1.55316e-06
-1.6294e-08
1.35761e-08
1.56415e-06
-1.82475e-08
1.56712e-08
1.57443e-06
-1.83742e-08
1.64078e-08
1.58346e-06
-1.73101e-08
1.60993e-08
1.5908e-06
-1.53391e-08
1.50342e-08
1.59658e-06
-1.30945e-08
1.34522e-08
1.60104e-06
-1.09342e-08
1.1645e-08
1.60444e-06
-8.98353e-09
9.80873e-09
1.60703e-06
-7.27345e-09
8.07309e-09
1.60901e-06
-5.80731e-09
6.50721e-09
1.61057e-06
-4.5914e-09
5.13845e-09
1.61183e-06
-3.61816e-09
3.96727e-09
1.61292e-06
-2.87093e-09
2.97756e-09
1.61393e-06
-2.32916e-09
2.14035e-09
1.61492e-06
-1.94724e-09
1.4133e-09
1.61593e-06
-1.65782e-09
7.48862e-10
1.61688e-06
-1.40212e-09
1.3943e-10
-1.19558e-09
-3.03776e-10
1.37714e-06
-6.10171e-09
4.56625e-09
1.38568e-06
-1.61309e-08
1.18592e-08
1.39414e-06
-2.05245e-08
1.62931e-08
1.40107e-06
-2.17128e-08
1.82461e-08
1.40595e-06
-2.08161e-08
1.83717e-08
1.40872e-06
-1.86932e-08
1.73058e-08
1.40973e-06
-1.5844e-08
1.53319e-08
1.40972e-06
-1.30937e-08
1.30828e-08
1.40925e-06
-1.07025e-08
1.0915e-08
1.40861e-06
-8.67277e-09
8.95227e-09
1.40799e-06
-6.97697e-09
7.22248e-09
1.40745e-06
-5.56412e-09
5.72477e-09
1.40704e-06
-4.4306e-09
4.45856e-09
1.40678e-06
-3.56902e-09
3.40575e-09
1.40666e-06
-2.95672e-09
2.53481e-09
1.40669e-06
-2.60387e-09
1.80591e-09
1.40684e-06
-2.49406e-09
1.15219e-09
1.40698e-06
-2.56441e-09
4.90375e-10
1.40684e-06
-2.77929e-09
-1.99045e-10
-3.61765e-09
-6.66935e-10
1.15892e-06
-6.3417e-09
5.27883e-09
1.16574e-06
-1.71114e-08
1.3959e-08
1.16849e-06
-1.85001e-08
1.78499e-08
1.16671e-06
-1.68434e-08
1.89111e-08
1.16246e-06
-1.48119e-08
1.83712e-08
1.15702e-06
-1.27903e-08
1.66575e-08
1.1513e-06
-1.07655e-08
1.42967e-08
1.14592e-06
-8.89841e-09
1.19176e-08
1.14117e-06
-7.26586e-09
9.74054e-09
1.13719e-06
-5.86473e-09
7.80241e-09
1.13396e-06
-4.70456e-09
6.17214e-09
1.13139e-06
-3.78545e-09
4.81704e-09
1.12937e-06
-3.07348e-09
3.71857e-09
1.12778e-06
-2.50336e-09
2.85678e-09
1.12645e-06
-2.09401e-09
2.18237e-09
1.12522e-06
-1.8962e-09
1.66866e-09
1.12392e-06
-1.97117e-09
1.27587e-09
1.12232e-06
-2.37746e-09
9.32176e-10
1.11969e-06
-3.01472e-09
6.26348e-10
-7.62455e-09
9.67344e-10
8.90363e-07
2.86052e-09
8.82506e-07
1.34234e-08
8.70555e-07
1.78098e-08
8.55649e-07
1.67862e-08
8.41159e-07
1.49034e-08
8.27902e-07
1.32219e-08
8.16077e-07
1.17572e-08
8.058e-07
1.02956e-08
7.9716e-07
8.74486e-09
7.9012e-07
7.18161e-09
7.84473e-07
5.74112e-09
7.79988e-07
4.50373e-09
7.7641e-07
3.49854e-09
7.73455e-07
2.71107e-09
7.70854e-07
2.12382e-09
7.68315e-07
1.7313e-09
7.65402e-07
1.57332e-09
7.61346e-07
1.75178e-09
7.54526e-07
2.47663e-09
7.96389e-09
1.07431e-06
5.57331e-09
1.06958e-09
1.06826e-06
1.38922e-08
5.58877e-09
1.06149e-06
1.61477e-08
8.43098e-09
1.05371e-06
1.56361e-08
8.92298e-09
1.0458e-06
1.44756e-08
8.33898e-09
1.03846e-06
1.3026e-08
7.53549e-09
1.03198e-06
1.14771e-08
6.76043e-09
1.02643e-06
9.85487e-09
5.98557e-09
1.02177e-06
8.2044e-09
5.20244e-09
1.01786e-06
6.63553e-09
4.44046e-09
1.0146e-06
5.29689e-09
3.68519e-09
1.01197e-06
4.18961e-09
2.9136e-09
1.00995e-06
3.2847e-09
2.18468e-09
1.00847e-06
2.55322e-09
1.54423e-09
1.00747e-06
1.95214e-09
9.71179e-10
1.00694e-06
1.42549e-09
3.87258e-10
1.00686e-06
9.3462e-10
-2.7676e-10
1.00723e-06
4.12331e-10
-1.12111e-09
1.00765e-06
-2.23945e-10
-2.29449e-09
-9.15374e-10
-3.88026e-09
1.32763e-06
4.92955e-09
2.71651e-09
1.33541e-06
1.29718e-08
7.10073e-09
1.34284e-06
1.70786e-08
9.48405e-09
1.3484e-06
1.85816e-08
1.04143e-08
1.35182e-06
1.88754e-08
1.05438e-08
1.35354e-06
1.80057e-08
9.9629e-09
1.35408e-06
1.635e-08
8.88793e-09
1.35392e-06
1.42807e-08
7.65612e-09
1.35339e-06
1.2081e-08
6.39685e-09
1.35272e-06
9.92858e-09
5.18621e-09
1.35207e-06
8.01399e-09
4.12015e-09
1.35151e-06
6.37922e-09
3.20358e-09
1.35111e-06
4.99927e-09
2.42667e-09
1.35092e-06
3.846e-09
1.77432e-09
1.35097e-06
2.8796e-09
1.20635e-09
1.35132e-06
2.04434e-09
6.65642e-10
1.35199e-06
1.28592e-09
9.21419e-11
1.35294e-06
5.32825e-10
-5.99202e-10
1.35394e-06
-2.75435e-10
-1.5037e-09
-1.04538e-09
-2.5832e-09
1.53312e-06
3.64526e-09
2.35976e-09
1.54215e-06
9.5974e-09
6.20703e-09
1.55316e-06
1.35761e-08
8.78967e-09
1.56415e-06
1.56711e-08
1.01628e-08
1.57443e-06
1.64077e-08
1.05612e-08
1.58346e-06
1.60992e-08
1.01905e-08
1.5908e-06
1.50341e-08
9.31055e-09
1.59658e-06
1.34522e-08
8.14943e-09
1.60104e-06
1.1645e-08
6.90574e-09
1.60444e-06
9.80884e-09
5.70642e-09
1.60703e-06
8.07321e-09
4.62614e-09
1.60902e-06
6.50691e-09
3.69209e-09
1.61058e-06
5.13666e-09
2.89947e-09
1.61184e-06
3.96432e-09
2.23418e-09
1.61292e-06
2.97552e-09
1.6826e-09
1.61393e-06
2.13992e-09
1.22354e-09
1.61493e-06
1.41367e-09
8.23726e-10
1.61593e-06
7.4938e-10
4.40545e-10
1.61688e-06
1.39888e-10
3.85131e-11
-3.03189e-10
-3.81594e-10
1.68027e-06
1.88914e-09
1.88919e-09
1.6893e-06
5.07935e-09
5.07957e-09
1.70166e-06
7.40038e-09
7.40089e-09
1.71541e-06
8.79654e-09
8.79743e-09
1.72941e-06
9.40462e-09
9.40608e-09
1.74285e-06
9.38558e-09
9.38793e-09
1.75511e-06
8.90461e-09
8.90825e-09
1.76583e-06
8.09893e-09
8.10457e-09
1.77491e-06
7.11459e-09
7.12352e-09
1.78241e-06
6.07056e-09
6.08474e-09
1.7885e-06
5.05232e-09
5.07482e-09
1.79336e-06
4.11243e-09
4.14788e-09
1.7972e-06
3.27654e-09
3.33173e-09
1.80021e-06
2.55276e-09
2.63724e-09
1.80259e-06
1.94253e-09
2.06905e-09
1.80447e-06
1.44143e-09
1.62565e-09
1.80598e-06
1.03345e-09
1.29159e-09
1.80721e-06
6.98635e-10
1.03993e-09
1.80823e-06
4.42116e-10
8.53071e-10
3.33533e-10
7.43577e-10
1.7569e-06
4.92723e-14
1.61511e-09
1.76586e-06
7.26297e-14
4.37667e-09
1.77865e-06
5.95089e-14
6.48984e-09
1.79352e-06
5.78888e-14
7.83594e-09
1.80918e-06
7.55514e-14
8.51815e-09
1.82474e-06
1.07295e-13
8.66752e-09
1.8395e-06
1.87434e-13
8.41325e-09
1.85292e-06
3.12171e-13
7.84572e-09
1.8647e-06
4.70613e-13
7.06389e-09
1.87472e-06
6.58565e-13
6.1672e-09
1.88304e-06
8.96441e-13
5.2398e-09
1.88979e-06
1.26745e-12
4.34522e-09
1.89516e-06
1.9742e-12
3.52544e-09
1.89939e-06
3.56145e-12
2.79827e-09
1.9027e-06
7.04375e-12
2.18371e-09
1.90528e-06
1.39072e-11
1.70757e-09
1.90728e-06
2.652e-11
1.35465e-09
1.90885e-06
4.91809e-11
1.08364e-09
1.91015e-06
8.9226e-11
8.49767e-10
1.577e-10
8.14758e-10
1.7569e-06
-1.88918e-09
1.61505e-09
1.76586e-06
-5.07954e-09
4.37647e-09
1.77865e-06
-7.40083e-09
6.48944e-09
1.79352e-06
-8.79734e-09
7.83523e-09
1.80918e-06
-9.40594e-09
8.517e-09
1.82474e-06
-9.38774e-09
8.66571e-09
1.83951e-06
-8.90799e-09
8.41058e-09
1.85293e-06
-8.10423e-09
7.84159e-09
1.86471e-06
-7.12309e-09
7.05742e-09
1.87474e-06
-6.08424e-09
6.15709e-09
1.88307e-06
-5.07429e-09
5.22402e-09
1.88983e-06
-4.14753e-09
4.32075e-09
1.89522e-06
-3.332e-09
3.48791e-09
1.89947e-06
-2.63823e-09
2.74155e-09
1.90281e-06
-2.0701e-09
2.09951e-09
1.90544e-06
-1.62605e-09
1.5853e-09
1.90749e-06
-1.29119e-09
1.18248e-09
1.9091e-06
-1.03885e-09
8.52157e-10
1.91042e-06
-8.51419e-10
5.59749e-10
-7.41544e-10
4.94085e-10
1.68027e-06
-3.64548e-09
1.88911e-09
1.6893e-06
-9.59805e-09
5.07932e-09
1.70166e-06
-1.35773e-08
7.4004e-09
1.71541e-06
-1.56734e-08
8.79658e-09
1.72941e-06
-1.64115e-08
9.40467e-09
1.74285e-06
-1.61052e-08
9.38563e-09
1.75511e-06
-1.50439e-08
8.90465e-09
1.76583e-06
-1.34677e-08
8.09896e-09
1.7749e-06
-1.16699e-08
7.11461e-09
1.78241e-06
-9.84928e-09
6.07061e-09
1.78849e-06
-8.13928e-09
5.05247e-09
1.79335e-06
-6.61438e-09
4.11289e-09
1.79719e-06
-5.31062e-09
3.27768e-09
1.80021e-06
-4.24242e-09
2.55454e-09
1.80259e-06
-3.41162e-09
1.94415e-09
1.80447e-06
-2.8108e-09
1.44222e-09
1.80598e-06
-2.42181e-09
1.03338e-09
1.80721e-06
-2.21575e-09
6.97875e-10
1.80823e-06
-2.17844e-09
4.40778e-10
-2.3344e-09
3.31655e-10
1.53312e-06
-4.92971e-09
2.35986e-09
1.54215e-06
-1.29723e-08
6.20727e-09
1.55315e-06
-1.70797e-08
8.79009e-09
1.56415e-06
-1.85842e-08
1.01636e-08
1.57442e-06
-1.888e-08
1.05623e-08
1.58345e-06
-1.80125e-08
1.01921e-08
1.59078e-06
-1.63612e-08
9.31321e-09
1.59654e-06
-1.42987e-08
8.1539e-09
1.60098e-06
-1.21088e-08
6.91264e-09
1.60434e-06
-9.97402e-09
5.71762e-09
1.60687e-06
-8.09141e-09
4.64486e-09
1.60877e-06
-6.50893e-09
3.72324e-09
1.61018e-06
-5.21631e-09
2.95138e-09
1.61123e-06
-4.20697e-09
2.31965e-09
1.61201e-06
-3.47219e-09
1.82006e-09
1.61256e-06
-3.0061e-09
1.44292e-09
1.61295e-06
-2.82426e-09
1.17321e-09
1.61314e-06
-2.91726e-09
9.98551e-10
1.6131e-06
-3.26753e-09
9.25693e-10
-4.1716e-09
1.00955e-09
1.32763e-06
-5.57331e-09
2.71672e-09
1.33541e-06
-1.38922e-08
7.10131e-09
1.34284e-06
-1.61481e-08
9.48511e-09
1.34839e-06
-1.56374e-08
1.04163e-08
1.35181e-06
-1.4478e-08
1.05473e-08
1.35352e-06
-1.30297e-08
9.96872e-09
1.35404e-06
-1.14833e-08
8.89773e-09
1.35385e-06
-9.86517e-09
7.67324e-09
1.35328e-06
-8.21923e-09
6.42348e-09
1.35253e-06
-6.66042e-09
5.23025e-09
1.35176e-06
-5.3409e-09
4.19383e-09
1.35101e-06
-4.26525e-09
3.32574e-09
1.35029e-06
-3.41355e-09
2.63052e-09
1.34961e-06
-2.77478e-09
2.11321e-09
1.34889e-06
-2.34222e-09
1.76479e-09
1.34809e-06
-2.11424e-09
1.58226e-09
1.3471e-06
-2.13807e-09
1.58064e-09
1.34579e-06
-2.46078e-09
1.78331e-09
1.34394e-06
-3.01445e-09
2.22562e-09
-5.32576e-09
3.04852e-09
1.07431e-06
1.06979e-09
1.06826e-06
5.58949e-09
1.06148e-06
8.43239e-09
1.05371e-06
8.92537e-09
1.04579e-06
8.34309e-09
1.03844e-06
7.54277e-09
1.03194e-06
6.7731e-09
1.02636e-06
6.00684e-09
1.02165e-06
5.23805e-09
1.01767e-06
4.50027e-09
1.01429e-06
3.78374e-09
1.01145e-06
3.0757e-09
1.00908e-06
2.45311e-09
1.00703e-06
1.99113e-09
1.00508e-06
1.72502e-09
1.00301e-06
1.68967e-09
1.00055e-06
1.90163e-09
9.97356e-07
2.48064e-09
9.93138e-07
3.68039e-09
7.0993e-09
1.16915e-06
4.90892e-09
-8.59117e-14
1.16313e-06
1.1602e-08
-4.25985e-13
1.15735e-06
1.42113e-08
-9.59337e-13
1.15212e-06
1.41535e-08
-1.71056e-12
1.14711e-06
1.33587e-08
-2.93274e-12
1.14238e-06
1.22708e-08
-5.12452e-12
1.13816e-06
1.09891e-08
-8.60784e-12
1.1346e-06
9.55565e-09
-1.44391e-11
1.13173e-06
8.10112e-09
-2.4071e-11
1.1295e-06
6.7082e-09
-4.01155e-11
1.12781e-06
5.43808e-09
-6.63283e-11
1.12653e-06
4.30176e-09
-1.08883e-10
1.12555e-06
3.34906e-09
-1.78231e-10
1.12478e-06
2.60452e-09
-2.91272e-10
1.12419e-06
2.03797e-09
-4.74757e-10
1.12373e-06
1.6178e-09
-7.78175e-10
1.12339e-06
1.30288e-09
-1.23462e-09
1.12314e-06
1.06451e-09
-1.94244e-09
1.12301e-06
8.4436e-10
-3.00167e-09
9.09281e-10
-4.78619e-09
1.41518e-06
4.19397e-09
-1.70594e-13
1.42278e-06
1.10953e-08
-4.99075e-13
1.43148e-06
1.50031e-08
-8.89306e-13
1.43965e-06
1.64007e-08
-1.61592e-12
1.44672e-06
1.68263e-08
-2.92085e-12
1.45233e-06
1.66362e-08
-4.88823e-12
1.45654e-06
1.56677e-08
-8.08823e-12
1.45964e-06
1.41284e-08
-1.35577e-11
1.46182e-06
1.23371e-08
-2.21059e-11
1.46329e-06
1.04679e-08
-3.60957e-11
1.46427e-06
8.63585e-09
-5.86247e-11
1.46495e-06
6.91773e-09
-9.51211e-11
1.46545e-06
5.4256e-09
-1.5429e-10
1.46586e-06
4.22132e-09
-2.48885e-10
1.46623e-06
3.27074e-09
-3.98625e-10
1.46663e-06
2.52109e-09
-6.31672e-10
1.46708e-06
1.92815e-09
-9.85218e-10
1.46759e-06
1.46201e-09
-1.50891e-09
1.46806e-06
1.10709e-09
-2.23932e-09
9.27004e-10
-3.11211e-09
1.61423e-06
3.09519e-09
-1.19775e-13
1.62328e-06
8.25845e-09
-3.11255e-13
1.63519e-06
1.18793e-08
-5.6908e-13
1.64785e-06