/*--------------------------------*- C++ -*----------------------------------*\
| =========                 |                                                 |
| \\      /  F ield         | OpenFOAM: The Open Source CFD Toolbox           |
|  \\    /   O peration     | Version:  2212                                  |
|   \\  /    A nd           | Website:  www.openfoam.com                      |
|    \\/     M anipulation  |                                                 |
\*---------------------------------------------------------------------------*/
FoamFile
{
    version     2.0;
    format      ascii;
    arch        "LSB;label=32;scalar=64";
    class       volVectorField;
    location    "0.2";
    object      U;
}
// * * * * * * * * * * * * * * * * * * * * * * * * * * * * * * * * * * * * * //

dimensions      [0 1 -1 0 0 0 0];

internalField   nonuniform List<vector> 
6840
(
(0.0956457 -0.00836033 -0.00836033)
(0.0904969 0.00152371 0.00152373)
(0.079075 0.00242461 0.00242473)
(0.0713091 0.00149267 0.00149286)
(0.06621 0.000832951 0.000833285)
(0.0624093 0.000551937 0.000552531)
(0.0593747 0.000408668 0.000409754)
(0.0569721 0.000305539 0.000307521)
(0.0550816 0.000224658 0.000228014)
(0.0535824 0.000162264 0.000167825)
(0.0524083 0.000115812 0.000124986)
(0.0514924 7.9709e-05 9.49499e-05)
(0.0507721 4.99939e-05 7.5518e-05)
(0.05022 2.39178e-05 6.64563e-05)
(0.0497969 3.82407e-06 6.64944e-05)
(0.0494874 -3.18134e-05 7.89107e-05)
(0.0492702 -8.51038e-05 0.000113492)
(0.0491859 -0.000199047 0.000160874)
(0.0495562 -0.000429418 0.000184496)
(0.0489193 -0.00239032 -0.00100452)
(0.099908 0.00129842 0.000712235)
(0.0969612 0.00365752 0.00274433)
(0.0935367 0.00264137 0.00210954)
(0.089625 0.00181143 0.00158905)
(0.0859335 0.00150362 0.00133388)
(0.0828103 0.00129486 0.00108184)
(0.0802838 0.00109351 0.00080147)
(0.0782854 0.000901247 0.00057094)
(0.0766865 0.000737385 0.000414029)
(0.0754004 0.000597029 0.000312037)
(0.07436 0.000474873 0.000243701)
(0.073549 0.000371184 0.000197096)
(0.0728753 0.000283378 0.00016425)
(0.0723371 0.000203226 0.000138335)
(0.0719072 0.000121904 0.000119425)
(0.0715616 3.72058e-05 0.000116777)
(0.0712541 -6.60934e-05 0.000135616)
(0.0709402 -0.000227901 0.000168224)
(0.0706415 -0.000628055 0.000177941)
(0.0700901 -0.000655011 0.00111369)
(0.0994131 0.000346515 0.00027147)
(0.0988631 0.00202482 0.00187322)
(0.0979299 0.00256917 0.00217151)
(0.0964055 0.00236345 0.00187035)
(0.0947171 0.00206738 0.00156062)
(0.0931468 0.00181627 0.0012922)
(0.0917164 0.00160305 0.00106379)
(0.0904663 0.0014047 0.000868822)
(0.0894114 0.00120237 0.000695511)
(0.0885398 0.000996429 0.000546471)
(0.0878364 0.000799118 0.000427334)
(0.0872773 0.000627721 0.000339954)
(0.0868327 0.000488591 0.00027943)
(0.0864765 0.000373414 0.000234812)
(0.0861716 0.000275905 0.000203161)
(0.0858915 0.000192672 0.000190653)
(0.0855972 0.000129533 0.000214557)
(0.0852195 9.0239e-05 0.000289239)
(0.0846764 5.1145e-05 0.00039969)
(0.0840859 0.000564583 0.00133348)
(0.0995408 0.000245677 0.00032277)
(0.099258 0.00105642 0.00154279)
(0.0988519 0.0015001 0.00209754)
(0.0981408 0.00156569 0.00205286)
(0.0973855 0.0014718 0.00181576)
(0.0966675 0.00134973 0.00155013)
(0.0960102 0.00123615 0.00130879)
(0.0954429 0.00111285 0.00108791)
(0.0949718 0.000972154 0.000882544)
(0.0945729 0.000824155 0.000697265)
(0.094226 0.000679321 0.000545307)
(0.0939374 0.000542078 0.00042568)
(0.0936979 0.000423523 0.000335257)
(0.0934959 0.000331792 0.000270394)
(0.0933156 0.00026918 0.000228209)
(0.0931356 0.00023681 0.000208058)
(0.0929297 0.000237537 0.000216533)
(0.0926701 0.000281636 0.000262033)
(0.0923268 0.000417697 0.000331519)
(0.0920356 0.000951462 0.000736435)
(0.0993806 3.39014e-05 6.00209e-05)
(0.099269 0.000273611 0.00120095)
(0.0989821 0.000430436 0.00188261)
(0.0984795 0.000477479 0.00198349)
(0.098008 0.000464038 0.00186215)
(0.0975995 0.000432199 0.00163948)
(0.0972076 0.000394529 0.00140596)
(0.0968678 0.000353785 0.00117563)
(0.0965917 0.000313268 0.000957606)
(0.0963738 0.00027725 0.000758602)
(0.0962035 0.000242935 0.000592807)
(0.0960763 0.000207925 0.000460177)
(0.0959679 0.000176766 0.000356518)
(0.0958772 0.000157226 0.00027868)
(0.0957951 0.000155104 0.000224776)
(0.0957148 0.000177581 0.000193297)
(0.0956271 0.000225614 0.000180654)
(0.0955258 0.000320336 0.00018479)
(0.0954058 0.000484993 0.000198405)
(0.0953398 0.000816793 0.000351886)
(0.0993806 -3.3872e-05 5.99836e-05)
(0.099269 -0.000273469 0.00120091)
(0.0989822 -0.000430147 0.00188259)
(0.0984796 -0.000477 0.00198345)
(0.0980084 -0.000463235 0.0018621)
(0.0976002 -0.000430801 0.00163938)
(0.0972088 -0.000392188 0.00140572)
(0.0968699 -0.000349863 0.00117517)
(0.0965952 -0.000306714 0.000956812)
(0.0963797 -0.000266354 0.000757391)
(0.096213 -0.00022495 0.000590954)
(0.0960918 -0.000178313 0.00045708)
(0.0959932 -0.00012803 0.000351134)
(0.0959179 -7.73569e-05 0.000269386)
(0.095861 -2.46446e-05 0.000208988)
(0.0958183 3.7064e-05 0.000167987)
(0.0957841 0.00011782 0.000140345)
(0.0957577 0.000228709 0.00012242)
(0.09574 0.000382874 0.000107532)
(0.0957723 0.000590179 0.000156986)
(0.0995408 -0.000245663 0.000322769)
(0.0992581 -0.00105636 0.00154279)
(0.0988521 -0.00149998 0.00209748)
(0.0981412 -0.00156549 0.00205275)
(0.0973864 -0.00147143 0.00181561)
(0.096669 -0.00134908 0.00154991)
(0.0960129 -0.00123499 0.00130842)
(0.0954477 -0.00111101 0.00108709)
(0.09498 -0.000969187 0.000881321)
(0.0945866 -0.0008191 0.000695126)
(0.094249 -0.000671004 0.000541525)
(0.0939757 -0.000528405 0.000419032)
(0.0937615 -0.000400029 0.000323323)
(0.0936015 -0.000291192 0.000249437)
(0.0934877 -0.00019932 0.000192157)
(0.0934168 -0.000109043 0.000145171)
(0.0933866 -9.16747e-06 0.000102316)
(0.0934004 0.000124035 5.74632e-05)
(0.0934551 0.000332237 2.06247e-06)
(0.0935286 0.000663378 -5.41454e-05)
(0.0994131 -0.000346522 0.00027147)
(0.0988631 -0.00202486 0.00187319)
(0.0979301 -0.00256927 0.0021714)
(0.0964059 -0.00236361 0.00187014)
(0.0947178 -0.00206765 0.00156033)
(0.0931483 -0.00181674 0.00129175)
(0.0917191 -0.00160387 0.00106313)
(0.0904709 -0.00140598 0.000867691)
(0.0894192 -0.00120445 0.000693715)
(0.088553 -0.000999792 0.000543408)
(0.0878589 -0.000804596 0.000422104)
(0.0873159 -0.000636582 0.000330969)
(0.0868978 -0.000500759 0.000262141)
(0.0865876 -0.000388411 0.000202007)
(0.0863624 -0.000298512 0.000148842)
(0.0862227 -0.000230123 0.000101014)
(0.086185 -0.000171366 4.13455e-05)
(0.0862801 -9.17176e-05 -4.74553e-05)
(0.0865458 0.000117324 -0.000204749)
(0.0865388 0.000685485 -0.000595288)
(0.099908 -0.00129843 0.000712228)
(0.0969612 -0.0036576 0.00274428)
(0.0935368 -0.0026415 0.00210943)
(0.0896252 -0.00181169 0.00158883)
(0.0859339 -0.00150412 0.00133358)
(0.0828109 -0.00129571 0.00108125)
(0.0802849 -0.0010949 0.000800515)
(0.0782873 -0.000904041 0.000569452)
(0.0766897 -0.000742266 0.000411683)
(0.0754057 -0.000605384 0.000308298)
(0.0743689 -0.00048887 0.000237587)
(0.0735654 -0.000394365 0.000186635)
(0.0728999 -0.00032066 0.000145082)
(0.0723887 -0.000263849 0.00010435)
(0.0720141 -0.000223766 6.18896e-05)
(0.0717401 -0.000211491 2.01258e-05)
(0.0715798 -0.000233205 -3.78603e-05)
(0.0716112 -0.000268318 -0.000158072)
(0.0720132 -0.000285094 -0.000373455)
(0.0709337 0.000129792 -0.0010938)
(0.0956457 0.00836033 -0.00836033)
(0.0904969 -0.00152376 0.00152369)
(0.079075 -0.00242472 0.00242462)
(0.0713091 -0.00149288 0.00149264)
(0.06621 -0.000833313 0.000832896)
(0.0624093 -0.000552556 0.000551881)
(0.0593747 -0.000409771 0.000408594)
(0.0569721 -0.000307545 0.000305468)
(0.0550815 -0.000228059 0.000224601)
(0.053582 -0.000167897 0.000162221)
(0.0524077 -0.000125097 0.000115788)
(0.0514928 -9.47675e-05 7.93563e-05)
(0.0507704 -7.54139e-05 4.9689e-05)
(0.0502183 -6.72061e-05 2.45586e-05)
(0.0498017 -6.67061e-05 3.96212e-06)
(0.0494939 -7.8394e-05 -3.23185e-05)
(0.0492761 -0.000113144 -8.52594e-05)
(0.0491905 -0.000160813 -0.000198798)
(0.0495581 -0.000184727 -0.000429174)
(0.0489189 0.0010043 -0.00238985)
(0.099908 0.000712227 0.00129841)
(0.0969612 0.00274428 0.00365756)
(0.0935368 0.00210943 0.00264142)
(0.0896252 0.00158882 0.00181163)
(0.0859339 0.00133358 0.00150405)
(0.0828109 0.00108126 0.00129565)
(0.0802849 0.000800519 0.00109484)
(0.0782873 0.000569441 0.00090397)
(0.0766898 0.00041162 0.000742142)
(0.075406 0.00030811 0.00060512)
(0.0743697 0.000237216 0.000488402)
(0.0735658 0.000186286 0.000393761)
(0.0729043 0.00014592 0.000321041)
(0.0723888 0.000106799 0.000266439)
(0.0720007 6.36979e-05 0.00022681)
(0.0717292 1.98419e-05 0.000212011)
(0.0715717 -3.92927e-05 0.000232286)
(0.071606 -0.000159553 0.000267009)
(0.0720111 -0.000374614 0.000283919)
(0.0709337 -0.00109468 -0.000130931)
(0.100225 0.00072154 0.000721556)
(0.0999607 0.00197543 0.0019755)
(0.0997933 0.002428 0.0024282)
(0.0988137 0.00238904 0.00238938)
(0.0973228 0.00216306 0.00216361)
(0.0958735 0.00176878 0.00176984)
(0.0945836 0.00133259 0.00133439)
(0.0934892 0.000996386 0.000999356)
(0.092587 0.000755426 0.000760386)
(0.0918574 0.000577924 0.000586194)
(0.0912819 0.000448252 0.000462017)
(0.090829 0.000337938 0.000360847)
(0.0904953 0.000240392 0.000278646)
(0.0902466 0.000169215 0.000233474)
(0.0900485 0.000109241 0.000218311)
(0.0898885 4.06091e-05 0.000225867)
(0.0897664 -6.60744e-05 0.000245896)
(0.0896699 -0.00026418 0.00025982)
(0.0895787 -0.000665313 0.000191574)
(0.0895444 -0.0015032 -0.000166084)
(0.10014 0.000775035 0.000869596)
(0.100458 0.00195785 0.00195865)
(0.100916 0.00241023 0.00231334)
(0.100982 0.00249151 0.00239558)
(0.100708 0.00235996 0.00226041)
(0.100254 0.00208685 0.0019936)
(0.0997613 0.00175005 0.00165247)
(0.0992736 0.00142938 0.00133587)
(0.0988311 0.00115674 0.00107817)
(0.0984519 0.000926959 0.000868741)
(0.098141 0.000734474 0.000699782)
(0.0978899 0.000572178 0.000562893)
(0.0976961 0.000437293 0.000455296)
(0.0975436 0.000324577 0.000373789)
(0.0974222 0.000229406 0.000320492)
(0.0973161 0.000147689 0.000302615)
(0.0972088 6.65561e-05 0.000321164)
(0.0970774 -3.27967e-05 0.000373186)
(0.0969244 -0.000162318 0.000452542)
(0.0969264 -0.000223988 0.000627116)
(0.100094 0.000445536 0.000763177)
(0.100506 0.00119102 0.0017446)
(0.101104 0.00157699 0.00211344)
(0.101632 0.00171682 0.00219665)
(0.10197 0.00173414 0.00221143)
(0.102156 0.00163362 0.00210544)
(0.102232 0.0014535 0.0019086)
(0.102241 0.00124816 0.00166303)
(0.102207 0.00103518 0.00139648)
(0.102153 0.000829921 0.00113456)
(0.102094 0.000655175 0.000910875)
(0.102036 0.00051267 0.000729721)
(0.10198 0.000398184 0.000585533)
(0.101927 0.000309635 0.000475729)
(0.101876 0.000244218 0.000398448)
(0.10182 0.000198456 0.000352542)
(0.101753 0.000171671 0.000343259)
(0.101663 0.000163943 0.000372268)
(0.101557 0.000180547 0.000433773)
(0.101593 0.000255979 0.000582329)
(0.100087 0.000144207 0.000707007)
(0.100477 0.000388996 0.00161481)
(0.101064 0.000536347 0.00202151)
(0.101689 0.000599988 0.00208881)
(0.102253 0.000614953 0.00209743)
(0.102701 0.000591048 0.00207329)
(0.103041 0.000531677 0.00195008)
(0.1033 0.000461474 0.00175234)
(0.103482 0.00039142 0.00152667)
(0.103605 0.000326243 0.00129406)
(0.103685 0.000267625 0.00106434)
(0.103737 0.000216267 0.000845293)
(0.103769 0.000176355 0.000659181)
(0.103788 0.000151268 0.000518836)
(0.103797 0.000141704 0.000417762)
(0.103797 0.000149305 0.000348297)
(0.103789 0.000177099 0.000306334)
(0.10377 0.000230907 0.000290506)
(0.103752 0.000315093 0.000296429)
(0.103819 0.000425542 0.000348394)
(0.100087 -0.00014416 0.000707001)
(0.100477 -0.000388864 0.0016148)
(0.101064 -0.000536125 0.00202149)
(0.101689 -0.000599597 0.00208871)
(0.102253 -0.000614245 0.00209722)
(0.102701 -0.00058985 0.00207295)
(0.103043 -0.000529666 0.00194952)
(0.103302 -0.000458082 0.00175146)
(0.103485 -0.000385866 0.00152527)
(0.10361 -0.000317165 0.00129185)
(0.103693 -0.000252903 0.0010611)
(0.103749 -0.000192436 0.000839963)
(0.103789 -0.000137807 0.000649763)
(0.10382 -8.8993e-05 0.000503056)
(0.103847 -4.1251e-05 0.000391826)
(0.103873 1.11768e-05 0.00030621)
(0.103902 7.4924e-05 0.000239966)
(0.103935 0.000157451 0.000189788)
(0.103978 0.000264597 0.000150705)
(0.104065 0.000385537 0.000130702)
(0.100094 -0.000445528 0.00076317)
(0.100506 -0.001191 0.00174457)
(0.101105 -0.00157696 0.00211335)
(0.101632 -0.00171673 0.00219633)
(0.101971 -0.00173398 0.00221081)
(0.102157 -0.00163333 0.00210456)
(0.102235 -0.00145305 0.00190719)
(0.102245 -0.0012473 0.00166083)
(0.102213 -0.00103414 0.00139336)
(0.102164 -0.000828089 0.00112952)
(0.102112 -0.000651661 0.000901956)
(0.102065 -0.000506611 0.000714558)
(0.102027 -0.000388335 0.000560311)
(0.102003 -0.000292397 0.000432882)
(0.101997 -0.000212191 0.000325704)
(0.102012 -0.000139969 0.000232238)
(0.10205 -6.76743e-05 0.000147)
(0.102111 1.80375e-05 6.10809e-05)
(0.102195 0.000136401 -3.66349e-05)
(0.102287 0.000290022 -0.000135661)
(0.10014 -0.000775054 0.000869576)
(0.100458 -0.00195791 0.00195856)
(0.100916 -0.00241035 0.00231309)
(0.100983 -0.00249176 0.00239514)
(0.100709 -0.0023604 0.00225973)
(0.100255 -0.00208765 0.00199262)
(0.099763 -0.00175139 0.00165092)
(0.0992765 -0.00143154 0.00133318)
(0.0988361 -0.0011603 0.00107371)
(0.0984606 -0.000932812 0.000861327)
(0.0981555 -0.000743943 0.000687247)
(0.0979139 -0.000587328 0.000541538)
(0.0977361 -0.000462303 0.000419788)
(0.0976089 -0.000365704 0.000314988)
(0.0975289 -0.000294141 0.000220545)
(0.0974948 -0.000247408 0.000131476)
(0.0975049 -0.000216695 2.96333e-05)
(0.0975625 -0.000182575 -0.000115416)
(0.0976568 -0.00011152 -0.000332918)
(0.0977299 4.75127e-05 -0.000630375)
(0.100225 -0.000721559 0.000721538)
(0.0999607 -0.0019755 0.00197542)
(0.0997933 -0.0024282 0.002428)
(0.0988137 -0.00238938 0.00238903)
(0.0973228 -0.00216359 0.00216305)
(0.0958735 -0.00176982 0.00176877)
(0.0945836 -0.00133437 0.00133257)
(0.0934893 -0.000999357 0.000996392)
(0.092587 -0.000760419 0.00075546)
(0.0918576 -0.00058619 0.000577911)
(0.0912825 -0.000461414 0.000447623)
(0.0908309 -0.000358264 0.000335303)
(0.0904994 -0.000278203 0.000239852)
(0.090247 -0.000239815 0.000175471)
(0.0900415 -0.000222428 0.000113395)
(0.089882 -0.000223378 3.83962e-05)
(0.0897626 -0.00024298 -6.86559e-05)
(0.0896682 -0.000258427 -0.000265239)
(0.0895777 -0.000191398 -0.000665214)
(0.0895435 0.000165757 -0.00150276)
(0.099908 -0.000712232 0.0012984)
(0.0969612 -0.00274432 0.00365748)
(0.0935367 -0.00210953 0.00264129)
(0.089625 -0.00158902 0.00181136)
(0.0859336 -0.00133385 0.00150353)
(0.0828103 -0.0010818 0.00129479)
(0.0802838 -0.000801437 0.00109345)
(0.0782854 -0.000570924 0.00090119)
(0.0766864 -0.000414068 0.000737375)
(0.0754 -0.00031221 0.000597146)
(0.0743592 -0.00024407 0.000475174)
(0.0735486 -0.000197444 0.000371562)
(0.0728709 -0.000163351 0.000282679)
(0.072337 -0.00013566 0.000200391)
(0.0719209 -0.000117414 0.000119089)
(0.0715728 -0.000117121 3.67886e-05)
(0.0712621 -0.000137074 -6.44696e-05)
(0.0709452 -0.00016964 -0.00022571)
(0.0706434 -0.000178817 -0.000625978)
(0.0700895 -0.00111432 -0.000653589)
(0.0994131 0.00027147 0.000346507)
(0.0988631 0.0018732 0.00202482)
(0.0979301 0.00217141 0.00256923)
(0.0964059 0.00187014 0.00236358)
(0.0947178 0.00156034 0.00206763)
(0.0931483 0.00129176 0.00181673)
(0.0917191 0.00106315 0.00160386)
(0.0904709 0.000867698 0.00140597)
(0.0894192 0.000693693 0.0012044)
(0.0885529 0.000543305 0.000999645)
(0.0878587 0.000421789 0.000804157)
(0.0873151 0.000330402 0.000635678)
(0.0868971 0.000262675 0.000500916)
(0.0865868 0.000204748 0.00039183)
(0.086361 0.000151717 0.000302875)
(0.0862214 0.000101766 0.000231492)
(0.0861837 3.96606e-05 0.00016971)
(0.0862792 -4.97561e-05 8.91146e-05)
(0.0865458 -0.000207001 -0.000119845)
(0.0865401 -0.000597477 -0.000688019)
(0.10014 0.000869581 0.000775046)
(0.100458 0.00195856 0.0019579)
(0.100916 0.00231309 0.00241035)
(0.100983 0.00239513 0.00249177)
(0.100709 0.00225973 0.00236042)
(0.100255 0.00199262 0.00208767)
(0.0997629 0.00165092 0.00175142)
(0.0992765 0.00133317 0.00143157)
(0.098836 0.0010737 0.00116034)
(0.0984603 0.000861323 0.000932866)
(0.0981551 0.000687332 0.000744112)
(0.0979135 0.000541985 0.000587833)
(0.0977355 0.000420189 0.000462593)
(0.0976092 0.000314715 0.000365157)
(0.0975313 0.000220274 0.000293727)
(0.0974975 0.000131517 0.000247671)
(0.0975075 2.95224e-05 0.000216991)
(0.0975645 -0.00011585 0.00018255)
(0.0976579 -0.000333538 0.000111355)
(0.0977299 -0.000630418 -4.70518e-05)
(0.10006 0.000640418 0.000640446)
(0.100504 0.00163751 0.00163762)
(0.101149 0.00219176 0.00219198)
(0.101733 0.00239706 0.00239745)
(0.102184 0.00236562 0.00236627)
(0.102455 0.00219336 0.00219443)
(0.102576 0.00191177 0.00191348)
(0.102608 0.00161338 0.00161619)
(0.102585 0.00133509 0.0013397)
(0.102539 0.00108899 0.00109656)
(0.102491 0.000875278 0.000887693)
(0.102447 0.000690977 0.000711298)
(0.102413 0.000534204 0.00056734)
(0.102388 0.000402034 0.000455804)
(0.102375 0.000289689 0.000376392)
(0.102372 0.000189171 0.000327644)
(0.102379 8.78508e-05 0.000305375)
(0.102389 -2.90381e-05 0.000302752)
(0.102403 -0.000166805 0.000312146)
(0.102468 -0.000282951 0.00034104)
(0.100046 0.000394501 0.000539778)
(0.10048 0.00103939 0.00137924)
(0.101151 0.00146132 0.00190684)
(0.101899 0.00167572 0.00215629)
(0.102604 0.00172664 0.00222448)
(0.103247 0.00165607 0.00215482)
(0.103784 0.00150238 0.00199028)
(0.104208 0.00130587 0.00176419)
(0.104539 0.00110116 0.00151824)
(0.10479 0.000907221 0.00127589)
(0.104979 0.000733574 0.00105199)
(0.105121 0.00058335 0.000854741)
(0.105227 0.000456305 0.000688083)
(0.105306 0.000350788 0.000553782)
(0.105364 0.000264781 0.000452651)
(0.105407 0.000195309 0.000384616)
(0.105436 0.000137701 0.000348359)
(0.105454 8.75458e-05 0.000340506)
(0.10547 4.55076e-05 0.000358329)
(0.105535 2.76314e-05 0.000409691)
(0.100039 0.000130923 0.000478919)
(0.100448 0.000348449 0.00123226)
(0.101109 0.00049978 0.00173524)
(0.101895 0.000585446 0.0019976)
(0.102698 0.000617292 0.00209161)
(0.103471 0.000601569 0.00207759)
(0.104185 0.00055438 0.00197826)
(0.1048 0.000489117 0.00180858)
(0.105317 0.000417221 0.00159713)
(0.105737 0.000347028 0.00137)
(0.106071 0.000283708 0.00114554)
(0.10633 0.000229636 0.000936821)
(0.106527 0.00018534 0.000753169)
(0.106675 0.000150772 0.000600016)
(0.106788 0.000126156 0.000478837)
(0.106873 0.00011192 0.000388391)
(0.106938 0.000108438 0.000325834)
(0.106988 0.000116673 0.000287597)
(0.107035 0.000136772 0.00027217)
(0.107112 0.000166746 0.000286247)
(0.100039 -0.000130889 0.000478907)
(0.100448 -0.000348367 0.00123222)
(0.101109 -0.000499645 0.00173516)
(0.101895 -0.000585222 0.00199745)
(0.102698 -0.000616919 0.00209134)
(0.103471 -0.000600964 0.00207715)
(0.104186 -0.000553389 0.00197762)
(0.104801 -0.000487522 0.00180752)
(0.105318 -0.000414682 0.00159543)
(0.10574 -0.000342983 0.00136727)
(0.106075 -0.000277264 0.00114114)
(0.106337 -0.000219414 0.000929705)
(0.106537 -0.000169188 0.000741724)
(0.106692 -0.000125227 0.000581771)
(0.106812 -8.58222e-05 0.000450131)
(0.10691 -4.89539e-05 0.000344099)
(0.106991 -1.17923e-05 0.000259364)
(0.107064 2.92191e-05 0.000191361)
(0.107136 7.68332e-05 0.000138955)
(0.107223 0.000127015 0.000111243)
(0.100046 -0.000394506 0.000539746)
(0.10048 -0.00103941 0.00137915)
(0.101151 -0.00146136 0.00190665)
(0.101899 -0.00167579 0.00215595)
(0.102605 -0.00172676 0.00222389)
(0.103247 -0.00165629 0.00215387)
(0.103785 -0.0015028 0.0019887)
(0.10421 -0.00130654 0.00176169)
(0.104542 -0.00110227 0.00151417)
(0.104795 -0.000908993 0.00126922)
(0.104987 -0.000736377 0.00104105)
(0.105134 -0.000587835 0.00083692)
(0.105247 -0.000463573 0.000659365)
(0.105337 -0.000362091 0.00050765)
(0.105412 -0.00028122 0.000378915)
(0.105479 -0.000218237 0.000268587)
(0.105543 -0.000168514 0.000170155)
(0.105608 -0.000125695 7.63762e-05)
(0.105678 -8.42543e-05 -1.4226e-05)
(0.105762 -4.0654e-05 -8.6135e-05)
(0.10006 -0.000640451 0.000640412)
(0.100505 -0.00163762 0.00163751)
(0.101149 -0.00219197 0.00219177)
(0.101733 -0.00239743 0.00239707)
(0.102184 -0.00236624 0.00236564)
(0.102455 -0.00219439 0.00219337)
(0.102576 -0.00191344 0.00191177)
(0.102608 -0.00161612 0.00161337)
(0.102585 -0.0013396 0.00133506)
(0.102539 -0.00109639 0.0010889)
(0.102491 -0.000887376 0.000875054)
(0.102447 -0.000710823 0.000690621)
(0.102412 -0.000567207 0.000534214)
(0.102387 -0.000456466 0.000402843)
(0.102374 -0.000377118 0.000290537)
(0.102372 -0.000327775 0.000189395)
(0.102378 -0.0003052 8.77814e-05)
(0.102388 -0.000302561 -2.9047e-05)
(0.102403 -0.000311929 -0.000166741)
(0.102469 -0.000340485 -0.000283036)
(0.10014 -0.000869601 0.000775025)
(0.100458 -0.00195865 0.00195784)
(0.100916 -0.00231333 0.00241022)
(0.100982 -0.00239557 0.00249151)
(0.100708 -0.00226039 0.00235996)
(0.100254 -0.00199357 0.00208685)
(0.0997613 -0.00165244 0.00175005)
(0.0992736 -0.00133585 0.00142938)
(0.0988312 -0.00107815 0.00115675)
(0.0984522 -0.000868725 0.000926956)
(0.0981414 -0.000699659 0.000734348)
(0.0978902 -0.000562314 0.000571659)
(0.0976967 -0.000454579 0.000436859)
(0.0975431 -0.000373782 0.000325009)
(0.0974196 -0.000320768 0.000229931)
(0.0973134 -0.000302676 0.000147724)
(0.0972063 -0.000321374 6.66665e-05)
(0.0970756 -0.000373622 -3.23114e-05)
(0.0969236 -0.000453091 -0.000161568)
(0.0969278 -0.000627488 -0.000223583)
(0.0994131 -0.000271472 0.000346498)
(0.0988631 -0.00187323 0.00202478)
(0.0979299 -0.00217152 0.00256912)
(0.0964055 -0.00187034 0.0023634)
(0.0947171 -0.00156062 0.00206734)
(0.0931468 -0.00129219 0.00181623)
(0.0917165 -0.00106377 0.00160301)
(0.0904663 -0.000868824 0.00140468)
(0.0894114 -0.000695549 0.00120239)
(0.0885398 -0.000546601 0.00099656)
(0.0878365 -0.000427696 0.000799541)
(0.0872779 -0.000340546 0.000628578)
(0.0868333 -0.000278754 0.000488322)
(0.0864771 -0.000231506 0.000370001)
(0.0861727 -0.00019979 0.000271549)
(0.0858924 -0.000190317 0.000191652)
(0.085598 -0.000216613 0.000131691)
(0.08522 -0.000291533 9.33466e-05)
(0.084676 -0.00040177 5.42245e-05)
(0.0840849 -0.00133463 0.000566847)
(0.0995408 0.00032277 0.000245656)
(0.0992581 0.00154279 0.00105635)
(0.0988521 0.00209748 0.00149997)
(0.0981412 0.00205275 0.00156548)
(0.0973864 0.00181561 0.00147143)
(0.096669 0.00154991 0.00134909)
(0.0960129 0.00130842 0.00123501)
(0.0954477 0.00108709 0.00111104)
(0.0949799 0.000881334 0.000969223)
(0.0945865 0.000695165 0.000819152)
(0.0942486 0.000541625 0.000671115)
(0.093975 0.000419262 0.00052863)
(0.0937604 0.000324049 0.00040074)
(0.0935995 0.00025078 0.000292622)
(0.0934861 0.000193246 0.000200589)
(0.0934161 0.000145207 0.000109202)
(0.0933862 0.00010155 8.52185e-06)
(0.0933998 5.63399e-05 -0.000124972)
(0.0934544 7.56098e-07 -0.000333356)
(0.0935278 -5.56885e-05 -0.000664941)
(0.100094 0.000763173 0.000445523)
(0.100506 0.00174457 0.00119099)
(0.101105 0.00211334 0.00157696)
(0.101632 0.00219631 0.00171674)
(0.101971 0.00221079 0.00173399)
(0.102157 0.00210454 0.00163335)
(0.102235 0.00190718 0.00145308)
(0.102245 0.00166083 0.00124735)
(0.102213 0.00139337 0.00103421)
(0.102164 0.00112956 0.000828218)
(0.102112 0.000902039 0.00065188)
(0.102065 0.000714612 0.000506812)
(0.102028 0.000559943 0.000387898)
(0.102004 0.000432635 0.000291474)
(0.101998 0.000326236 0.000211873)
(0.102013 0.00023272 0.000140278)
(0.102051 0.000146919 6.80485e-05)
(0.102112 6.0575e-05 -1.78321e-05)
(0.102196 -3.75224e-05 -0.000136424)
(0.102287 -0.000136991 -0.000290267)
(0.100046 0.000539752 0.000394503)
(0.10048 0.00137915 0.00103941)
(0.101151 0.00190664 0.00146137)
(0.101899 0.00215593 0.0016758)
(0.102605 0.00222387 0.00172678)
(0.103247 0.00215385 0.00165632)
(0.103785 0.00198868 0.00150284)
(0.10421 0.00176168 0.00130659)
(0.104542 0.00151418 0.00110235)
(0.104795 0.00126925 0.000909107)
(0.104987 0.0010411 0.000736524)
(0.105134 0.000836951 0.000587951)
(0.105247 0.000659224 0.000463422)
(0.105337 0.000507345 0.000361597)
(0.105412 0.000378695 0.000280779)
(0.105479 0.000268532 0.000218154)
(0.105544 0.000170139 0.000168711)
(0.105609 7.6308e-05 0.000126035)
(0.105678 -1.43646e-05 8.47066e-05)
(0.105762 -8.63126e-05 4.12608e-05)
(0.100036 0.000322767 0.000322784)
(0.100428 0.000865226 0.000865287)
(0.101076 0.00125152 0.00125165)
(0.101878 0.00147908 0.0014793)
(0.102724 0.00157338 0.00157375)
(0.103551 0.00156507 0.00156565)
(0.104328 0.001481 0.00148192)
(0.105016 0.00134337 0.00134482)
(0.105607 0.00117682 0.00117912)
(0.1061 0.0010012 0.00100486)
(0.106503 0.000830729 0.000836572)
(0.106826 0.00067394 0.000683207)
(0.107083 0.000534963 0.000549507)
(0.107284 0.000415011 0.000437537)
(0.107442 0.000313591 0.000347906)
(0.107567 0.00022866 0.000279805)
(0.107666 0.00015676 0.000230723)
(0.107746 9.43939e-05 0.000197142)
(0.10782 4.24161e-05 0.000177546)
(0.107909 1.30782e-05 0.00017161)
(0.100031 0.000106967 0.000281708)
(0.100395 0.00029182 0.000767281)
(0.101021 0.000430176 0.00112572)
(0.101832 0.000516988 0.00134888)
(0.10272 0.000558596 0.00145998)
(0.103622 0.000562062 0.00148287)
(0.104496 0.000536965 0.00143851)
(0.105307 0.000491453 0.00134018)
(0.106028 0.000434198 0.00120465)
(0.10665 0.000372469 0.00104964)
(0.107172 0.000311622 0.000889821)
(0.107599 0.000255023 0.00073631)
(0.107942 0.000204332 0.000597235)
(0.108212 0.000160081 0.000477894)
(0.108424 0.000122852 0.000380985)
(0.10859 9.34255e-05 0.000304571)
(0.108718 7.15664e-05 0.000244133)
(0.108817 5.61871e-05 0.000197245)
(0.108904 4.73541e-05 0.000163497)
(0.109001 4.95423e-05 0.000147189)
(0.100031 -0.00010696 0.000281697)
(0.100395 -0.000291808 0.000767246)
(0.101021 -0.000430169 0.00112565)
(0.101832 -0.000516985 0.00134876)
(0.10272 -0.000558595 0.00145977)
(0.103622 -0.000562065 0.00148255)
(0.104497 -0.000536961 0.00143804)
(0.105307 -0.000491437 0.00133944)
(0.106029 -0.000434175 0.00120349)
(0.106651 -0.000372444 0.00104782)
(0.107173 -0.000311602 0.000886959)
(0.107601 -0.000255006 0.000731828)
(0.107944 -0.000204284 0.00059027)
(0.108216 -0.000159852 0.000467201)
(0.10843 -0.00012206 0.000364825)
(0.108597 -9.13439e-05 0.000280676)
(0.108728 -6.68857e-05 0.000209818)
(0.10883 -4.65171e-05 0.000149806)
(0.10892 -2.85737e-05 0.000101313)
(0.109015 -1.51347e-05 7.49066e-05)
(0.100036 -0.000322787 0.000322761)
(0.100428 -0.000865287 0.00086522)
(0.101076 -0.00125164 0.00125152)
(0.101878 -0.00147929 0.00147908)
(0.102724 -0.00157373 0.00157339)
(0.103551 -0.00156562 0.00156508)
(0.104328 -0.00148188 0.00148101)
(0.105016 -0.00134477 0.00134338)
(0.105607 -0.00117905 0.00117683)
(0.1061 -0.00100477 0.00100121)
(0.106503 -0.000836464 0.000830744)
(0.106826 -0.000683113 0.000674005)
(0.107082 -0.000549508 0.00053515)
(0.107284 -0.000437677 0.000415299)
(0.107442 -0.000348076 0.000313824)
(0.107567 -0.00027988 0.000228748)
(0.107666 -0.000230683 0.000156726)
(0.107746 -0.000197009 9.42828e-05)
(0.10782 -0.000177327 4.22425e-05)
(0.107909 -0.000171321 1.28389e-05)
(0.100046 -0.000539782 0.000394494)
(0.10048 -0.00137924 0.00103938)
(0.101151 -0.00190683 0.00146132)
(0.101899 -0.00215627 0.00167573)
(0.102604 -0.00222444 0.00172665)
(0.103247 -0.00215477 0.00165607)
(0.103784 -0.00199022 0.00150237)
(0.104208 -0.00176411 0.00130586)
(0.104539 -0.00151814 0.00110114)
(0.10479 -0.00127575 0.000907175)
(0.104979 -0.00105179 0.000733499)
(0.105121 -0.000854503 0.000583294)
(0.105227 -0.000687934 0.000456486)
(0.105306 -0.000553851 0.000351325)
(0.105364 -0.000452808 0.00026533)
(0.105407 -0.000384698 0.00019553)
(0.105436 -0.000348369 0.000137632)
(0.105453 -0.000340485 8.73044e-05)
(0.10547 -0.000358256 4.51173e-05)
(0.105535 -0.00040948 2.70643e-05)
(0.100094 -0.00076318 0.000445528)
(0.100506 -0.00174459 0.001191)
(0.101104 -0.00211343 0.00157699)
(0.101632 -0.00219663 0.00171682)
(0.10197 -0.0022114 0.00173414)
(0.102156 -0.0021054 0.00163361)
(0.102232 -0.00190854 0.00145349)
(0.102241 -0.00166297 0.00124815)
(0.102207 -0.00139643 0.00103516)
(0.102153 -0.0011345 0.000829863)
(0.102094 -0.00091075 0.000655029)
(0.102036 -0.000729469 0.000512452)
(0.10198 -0.000585177 0.000398273)
(0.101927 -0.000475415 0.000310309)
(0.101875 -0.000398248 0.000244874)
(0.10182 -0.000352504 0.000198619)
(0.101753 -0.000343446 0.000171624)
(0.101663 -0.000372662 0.00016396)
(0.101558 -0.000434295 0.000180653)
(0.101594 -0.000582656 0.000255864)
(0.0995408 -0.000322769 0.000245666)
(0.099258 -0.00154279 0.0010564)
(0.0988519 -0.00209754 0.00150008)
(0.0981408 -0.00205285 0.00156567)
(0.0973855 -0.00181574 0.00147178)
(0.0966675 -0.00155011 0.00134972)
(0.0960102 -0.00130877 0.00123614)
(0.0954429 -0.00108789 0.00111284)
(0.0949718 -0.000882529 0.000972158)
(0.094573 -0.000697262 0.000824171)
(0.0942262 -0.000545325 0.000679358)
(0.0939378 -0.00042567 0.000542091)
(0.0936986 -0.000334868 0.000423167)
(0.0934966 -0.000269365 0.000330791)
(0.0933159 -0.000227205 0.000268253)
(0.0931352 -0.000207774 0.000236842)
(0.0929293 -0.000216995 0.000238274)
(0.0926699 -0.000262917 0.000282785)
(0.0923268 -0.000332511 0.000419151)
(0.0920357 -0.000737703 0.000953162)
(0.0993806 5.99879e-05 3.38724e-05)
(0.099269 0.0012009 0.000273477)
(0.0989822 0.00188258 0.000430157)
(0.0984796 0.00198343 0.000477009)
(0.0980084 0.00186207 0.000463247)
(0.0976001 0.00163935 0.000430818)
(0.0972088 0.00140569 0.000392212)
(0.0968699 0.00117515 0.000349899)
(0.0965952 0.000956803 0.00030677)
(0.0963796 0.00075741 0.000266448)
(0.096213 0.000591022 0.000225116)
(0.0960918 0.000457243 0.000178625)
(0.0959932 0.000351461 0.000128645)
(0.0959182 0.000269821 7.82017e-05)
(0.0958614 0.000209304 2.53077e-05)
(0.0958189 0.000168042 -3.68798e-05)
(0.0957846 0.000140155 -0.000118086)
(0.0957581 0.000122067 -0.000229211)
(0.0957402 0.000107091 -0.000383343)
(0.0957723 0.000156436 -0.000590454)
(0.100087 0.000707003 0.00014416)
(0.100477 0.0016148 0.000388865)
(0.101064 0.00202147 0.000536124)
(0.101689 0.00208868 0.000599598)
(0.102253 0.00209718 0.00061425)
(0.102701 0.00207291 0.000589859)
(0.103042 0.00194948 0.000529683)
(0.103302 0.00175143 0.000458109)
(0.103485 0.00152525 0.000385908)
(0.10361 0.00129185 0.000317226)