/*--------------------------------*- C++ -*----------------------------------*\
| =========                 |                                                 |
| \\      /  F ield         | OpenFOAM: The Open Source CFD Toolbox           |
|  \\    /   O peration     | Version:  2212                                  |
|   \\  /    A nd           | Website:  www.openfoam.com                      |
|    \\/     M anipulation  |                                                 |
\*---------------------------------------------------------------------------*/
FoamFile
{
    version     2.0;
    format      ascii;
    arch        "LSB;label=32;scalar=64";
    class       surfaceVectorField;
    location    "0.2";
    object      Uf;
}
// * * * * * * * * * * * * * * * * * * * * * * * * * * * * * * * * * * * * * //

dimensions      [0 1 -1 0 0 0 0];

internalField   nonuniform List<vector> 
19019
(
(0.0993484 -0.00341831 -0.0034183)
(0.0973533 0.00106176 -0.00148522)
(0.0973533 -0.00148524 0.00106174)
(0.0834784 0.00197416 0.00197423)
(0.0930868 0.0032706 0.0025333)
(0.0930868 0.00253327 0.00327063)
(0.074522 0.00195864 0.00195879)
(0.0848689 0.0016367 0.00178797)
(0.0848689 0.00178784 0.00163678)
(0.0685655 0.00116281 0.00116307)
(0.0786472 0.0010746 0.00121289)
(0.0786473 0.00121269 0.0010748)
(0.0642873 0.000692444 0.000692908)
(0.074112 0.000784707 0.000848885)
(0.0741121 0.000848594 0.000785132)
(0.0608809 0.000480302 0.000481143)
(0.0705827 0.000643208 0.000644158)
(0.070583 0.000643628 0.000643981)
(0.0581639 0.000357104 0.000358637)
(0.0677517 0.000533017 0.000479138)
(0.0677521 0.000478218 0.000534392)
(0.0560228 0.000265099 0.000267767)
(0.0655111 0.000435725 0.000349751)
(0.0655118 0.000348188 0.000438389)
(0.054332 0.000193461 0.00019792)
(0.0637374 0.000353835 0.000258045)
(0.0637387 0.000255467 0.000358433)
(0.0529985 0.000139038 0.000146406)
(0.0623235 0.000282972 0.000194394)
(0.0623258 0.000190168 0.000290712)
(0.0519489 9.77604e-05 0.000109968)
(0.061203 0.000221845 0.000150476)
(0.0612069 0.000143533 0.00023474)
(0.0511287 6.48514e-05 8.5234e-05)
(0.0603292 0.000168328 0.000119441)
(0.0603359 0.000107942 0.000189878)
(0.0504956 3.69559e-05 7.09872e-05)
(0.0596275 0.000120102 9.7415e-05)
(0.0596391 7.81657e-05 0.000156303)
(0.0500093 1.3871e-05 6.64754e-05)
(0.059081 7.5728e-05 8.3566e-05)
(0.0591017 5.13248e-05 0.000136641)
(0.0496417 -1.39947e-05 7.27025e-05)
(0.0586552 3.15476e-05 7.62718e-05)
(0.0586927 2.65073e-05 0.000128487)
(0.0493753 -5.84586e-05 9.62012e-05)
(0.0583312 -2.51772e-05 8.1817e-05)
(0.0583984 -6.27364e-06 0.000140537)
(0.0492018 -0.000142075 0.000137183)
(0.0580778 -0.000111917 0.000102263)
(0.0582051 -5.1976e-05 0.000186402)
(0.0492261 -0.000314232 0.000172685)
(0.0579015 -0.000275 0.00012624)
(0.0581683 -0.000143918 0.000270748)
(0.0498547 -0.00140987 -0.000410012)
(0.0580038 -0.000651264 9.8847e-05)
(0.0585525 -0.000306973 0.000396521)
(0.0574011 -0.00218417 -0.000441299)
(0.0577391 -0.00165271 -0.00028007)
(0.0984543 0.00247797 0.00172828)
(0.0996867 0.000440144 0.000345686)
(0.100049 0.00105757 0.0007513)
(0.0958328 0.00314944 0.00242694)
(0.0978116 0.00273844 0.00228078)
(0.0982908 0.00280729 0.00215762)
(0.0914671 0.0022264 0.0018493)
(0.0955009 0.00300355 0.00229177)
(0.09631 0.00243293 0.00198315)
(0.0876625 0.00165753 0.00146147)
(0.0926566 0.00229113 0.00180604)
(0.093698 0.00196367 0.00169983)
(0.0843084 0.00139924 0.00120786)
(0.0898607 0.00186016 0.00147619)
(0.090982 0.00169256 0.00145871)
(0.0815111 0.00119419 0.000941655)
(0.0874317 0.00157498 0.0011943)
(0.0886008 0.00141014 0.00116398)
(0.079271 0.000997381 0.000686205)
(0.0853953 0.00134925 0.000929688)
(0.0866224 0.00112129 0.000853889)
(0.0774816 0.000819316 0.000492484)
(0.0837315 0.00114869 0.000712875)
(0.0850247 0.00088311 0.000619083)
(0.0760413 0.000667207 0.000363033)
(0.0823758 0.000965875 0.000547946)
(0.0837347 0.000700288 0.000461562)
(0.0748816 0.000535951 0.000277869)
(0.081275 0.000795209 0.000424534)
(0.0826952 0.000555289 0.000355357)
(0.0739524 0.000423029 0.000220398)
(0.0803853 0.000637384 0.000332674)
(0.0818609 0.000438607 0.000282964)
(0.0732077 0.000327281 0.000180673)
(0.079687 0.000503111 0.000267716)
(0.0812087 0.000339552 0.000229969)
(0.0726068 0.000243302 0.000151292)
(0.0791157 0.000393497 0.000222942)
(0.0806856 0.00025386 0.000190362)
(0.072124 0.000162565 0.00012888)
(0.0786588 0.000294637 0.000187471)
(0.0802758 0.000181547 0.000164985)
(0.071737 7.9555e-05 0.000118101)
(0.0782848 0.00020169 0.000161146)
(0.0799486 0.000112856 0.000155184)
(0.0714094 -1.44438e-05 0.000126196)
(0.0779685 0.000114577 0.000152887)
(0.0796853 3.9748e-05 0.000167562)
(0.071096 -0.000146997 0.00015192)
(0.0776669 2.92931e-05 0.000174013)
(0.07946 -5.76296e-05 0.000204375)
(0.0707587 -0.000427978 0.000173082)
(0.0773245 -8.0094e-05 0.00022451)
(0.0792424 -0.00022404 0.000255701)
(0.0704637 -0.000641533 0.000645817)
(0.0769165 -0.000324726 0.000276951)
(0.0790357 -0.000616438 0.000250111)
(0.0763476 -7.42144e-05 0.00122587)
(0.0787135 -0.000997604 0.000624873)
(0.099374 0.00118567 0.00107235)
(0.0994732 0.000350691 0.000308113)
(0.0997476 0.000611785 0.000781063)
(0.098497 0.002297 0.00202237)
(0.0990489 0.00157911 0.00172018)
(0.0995969 0.00201952 0.00200036)
(0.0971632 0.00246631 0.00202093)
(0.0983636 0.00212686 0.0021514)
(0.0993037 0.00245186 0.00208472)
(0.0954995 0.00221541 0.00171549)
(0.0972217 0.00202009 0.00196392)
(0.0985115 0.00235025 0.00186376)
(0.0938822 0.00194183 0.00142641)
(0.0959722 0.0018076 0.00168556)
(0.0974737 0.00212621 0.00162172)
(0.0924026 0.00170966 0.00117799)
(0.0948028 0.001622 0.00141962)
(0.0964173 0.00187514 0.00138902)
(0.0910829 0.00150388 0.000966304)
(0.093736 0.00146075 0.00118636)
(0.0954182 0.00161915 0.00115726)
(0.0899358 0.00130354 0.000782166)
(0.0928071 0.00129383 0.000978271)
(0.0945189 0.00137594 0.000945632)
(0.0889716 0.0010994 0.000620991)
(0.0920268 0.00110953 0.000787227)
(0.0937458 0.00115022 0.000764339)
(0.0881857 0.000897773 0.000486903)
(0.0913775 0.000918023 0.000618034)
(0.0931008 0.000940783 0.000613255)
(0.0875552 0.00071342 0.000383644)
(0.0908418 0.000736829 0.000481382)
(0.092578 0.000751896 0.000492542)
(0.0870542 0.000558156 0.000309692)
(0.0904099 0.000577798 0.000377938)
(0.0921606 0.000589991 0.00040064)
(0.0866547 0.000431003 0.000257121)
(0.0900618 0.000447171 0.000303066)
(0.0918314 0.000457051 0.000333037)
(0.0863252 0.000324659 0.000218987)
(0.0897781 0.00034481 0.00024936)
(0.0915689 0.000345869 0.000281299)
(0.0860349 0.000234288 0.000196907)
(0.0895318 0.000266766 0.000213494)
(0.0913484 0.000251368 0.000246338)
(0.0857512 0.000161103 0.000202605)
(0.0892988 0.000210133 0.00019804)
(0.0911484 0.000170472 0.000237004)
(0.0854262 0.000109886 0.000251898)
(0.0890461 0.000180251 0.000215466)
(0.0909401 0.000101391 0.00026649)
(0.0849742 7.0692e-05 0.000344464)
(0.088724 0.000190549 0.000278937)
(0.0906758 3.88662e-05 0.000345906)
(0.084214 0.000307864 0.000866584)
(0.0882748 0.000273638 0.00037977)
(0.0903122 -3.54589e-05 0.000464002)
(0.0878251 0.000916771 0.00109393)
(0.0899943 0.000224358 0.00108634)
(0.0996491 0.000651049 0.00093278)
(0.0994629 0.000129975 0.000193492)
(0.0997996 0.000375314 0.00074197)
(0.0990872 0.00127826 0.00182017)
(0.0992634 0.000637116 0.00137204)
(0.0998419 0.00114923 0.00181325)
(0.0984592 0.0015329 0.0020752)
(0.0989153 0.00097022 0.00199188)
(0.0999061 0.00153095 0.00207465)
(0.0977378 0.00151874 0.00193431)
(0.0983055 0.00103729 0.00201922)
(0.0997745 0.00161383 0.0019868)
(0.0970034 0.00141076 0.00168294)
(0.0976883 0.000975407 0.0018376)
(0.099531 0.00156518 0.00182747)
(0.0963216 0.00129294 0.00142946)
(0.0971208 0.000889889 0.00159202)
(0.099236 0.00145329 0.00163709)
(0.0957187 0.0011745 0.00119835)
(0.0965926 0.000807878 0.00135386)
(0.0989221 0.00131212 0.0014375)
(0.0952015 0.0010425 0.000985225)
(0.096136 0.000724877 0.00112839)
(0.0986244 0.0011547 0.0012303)
(0.0947643 0.000898155 0.000789905)
(0.0957597 0.000639808 0.000917677)
(0.0983577 0.000984399 0.00102124)
(0.0943951 0.000751738 0.000621286)
(0.0954489 0.00055684 0.000726949)
(0.0981205 0.000813793 0.000824836)
(0.0940811 0.000610699 0.000485493)
(0.0951879 0.000473076 0.00056911)
(0.0979082 0.000658539 0.00066043)
(0.0938177 0.000482801 0.000380468)
(0.0949778 0.000386832 0.000443307)
(0.0977273 0.000521583 0.000528238)
(0.0935978 0.000377658 0.000302826)
(0.094802 0.000309599 0.000346307)
(0.097574 0.000407004 0.000424879)
(0.0934075 0.000300486 0.000249302)
(0.0946542 0.000252463 0.000275073)
(0.0974417 0.000318296 0.000348037)
(0.0932279 0.000252995 0.000218134)
(0.0945217 0.000220185 0.000227294)
(0.0973216 0.000255495 0.000296055)
(0.0930359 0.000237173 0.000212295)
(0.0943901 0.000217477 0.000201979)
(0.0971999 0.000217701 0.000268834)
(0.0928069 0.000259587 0.000239283)
(0.0942418 0.000247075 0.000200863)
(0.0970592 0.000206326 0.000273563)
(0.0925109 0.000349667 0.000296776)
(0.0940592 0.000326014 0.00022743)
(0.0968787 0.000227015 0.000316331)
(0.0921195 0.000684579 0.000533977)
(0.0938245 0.000491558 0.000271549)
(0.0966467 0.000307256 0.000382583)
(0.0936428 0.000945439 0.000556297)
(0.0965085 0.000625677 0.00066253)
(0.0996727 0.000153756 0.000630484)
(0.0993806 1.56282e-08 6.00022e-05)
(0.0997135 0.000103895 0.000688284)
(0.0991601 0.000352024 0.00154178)
(0.099269 7.25519e-08 0.00120093)
(0.0998384 0.000340546 0.00162147)
(0.0986673 0.000453957 0.00193305)
(0.0989822 1.54623e-07 0.0018826)
(0.0999634 0.000482264 0.00198251)
(0.0982214 0.000470759 0.00192282)
(0.0984795 2.57276e-07 0.00198347)
(0.0999918 0.000531785 0.00197164)
(0.0977934 0.000448119 0.00175082)
(0.0980082 4.31035e-07 0.00186212)
(0.100008 0.000528832 0.0018595)
(0.0973897 0.000413364 0.00152272)
(0.0975998 7.42426e-07 0.00163943)
(0.100003 0.000499452 0.00170742)
(0.0970292 0.000374157 0.00129079)
(0.0972082 1.23706e-06 0.00140584)
(0.0999567 0.000451732 0.00152906)
(0.096725 0.000333527 0.00106662)
(0.0968688 2.06529e-06 0.0011754)
(0.0998988 0.000397976 0.00132968)
(0.096478 0.000295259 0.000858104)
(0.0965934 3.43539e-06 0.000957209)
(0.0998386 0.000344622 0.0011275)
(0.0962851 0.000260093 0.000675704)
(0.0963768 5.71555e-06 0.000757996)
(0.0997815 0.000296051 0.000933979)
(0.0961366 0.00022543 0.000526492)
(0.0962082 9.43797e-06 0.00059188)
(0.0997292 0.000251387 0.000757867)
(0.0960198 0.000192345 0.000408347)
(0.0960841 1.54772e-05 0.000458629)
(0.0996861 0.000209616 0.000601436)
(0.0959231 0.000166996 0.000317599)
(0.0959805 2.53306e-05 0.000353826)
(0.0996441 0.000175074 0.000472253)
(0.0958373 0.000156165 0.000251728)
(0.0958976 4.13588e-05 0.000274033)
(0.0996052 0.000153438 0.000374249)
(0.0957555 0.000166343 0.000209037)
(0.0958281 6.71399e-05 0.000216882)
(0.0995659 0.000148168 0.000304557)
(0.0956708 0.000201598 0.000186976)
(0.0957666 0.00010955 0.000180642)
(0.0995233 0.000163917 0.000260253)
(0.0955769 0.000272975 0.000182722)
(0.0957056 0.000173413 0.0001605)
(0.0994732 0.000202658 0.000238194)
(0.0954707 0.000402665 0.000191598)
(0.0956418 0.000272717 0.000153605)
(0.099411 0.000278265 0.000235898)
(0.0953677 0.000650893 0.000275146)
(0.0955729 0.000421557 0.000152969)
(0.0993388 0.000404855 0.000243264)
(0.0955561 0.000672445 0.000254436)
(0.0993358 0.000631964 0.000342059)
(0.0996727 -0.000153671 0.000630446)
(0.0994629 -0.000129942 0.000193472)
(0.0997135 -0.000103859 0.000688283)
(0.0991601 -0.000351808 0.00154175)
(0.0992634 -0.000637 0.00137202)
(0.0998385 -0.000340409 0.00162145)
(0.0986674 -0.000453573 0.00193302)
(0.0989154 -0.000970008 0.00199184)
(0.0999634 -0.000482007 0.0019825)
(0.0982216 -0.000470117 0.00192277)
(0.0983058 -0.00103694 0.00201915)
(0.099992 -0.000531349 0.00197159)
(0.0977939 -0.000447018 0.00175074)
(0.0976889 -0.000974819 0.0018375)
(0.100009 -0.000528075 0.0018594)
(0.0973906 -0.000411494 0.00152255)
(0.0971219 -0.000888853 0.00159185)
(0.100004 -0.000498151 0.00170725)
(0.0970308 -0.000371026 0.00129045)
(0.0965946 -0.000806084 0.00135354)
(0.0999579 -0.000449551 0.00152873)
(0.0967277 -0.000328289 0.00106599)
(0.0961395 -0.000721885 0.00112774)
(0.0999007 -0.000394309 0.00132913)
(0.0964826 -0.000286534 0.000857102)
(0.0957656 -0.000634794 0.000916628)
(0.0998419 -0.000338548 0.00112657)
(0.0962927 -0.000245652 0.000674172)
(0.0954588 -0.000548408 0.000725199)
(0.0997869 -0.000286024 0.000932518)
(0.0961489 -0.000201632 0.000524017)
(0.0952043 -0.000459156 0.000566162)
(0.099738 -0.000234959 0.000755724)
(0.0960398 -0.000153172 0.000404107)
(0.095005 -0.000363873 0.000438207)
(0.0997004 -0.00018276 0.000597863)
(0.0959556 -0.000102694 0.00031026)
(0.094847 -0.000271257 0.000337261)
(0.0996671 -0.000131189 0.000465858)
(0.0958898 -5.10007e-05 0.000239187)
(0.0947282 -0.000188645 0.00025931)
(0.0996419 -8.19374e-05 0.000363292)
(0.0958391 6.20975e-06 0.000188488)
(0.0946421 -0.000114129 0.000200318)
(0.0996242 -3.19699e-05 0.000286169)
(0.0958005 7.74422e-05 0.000154166)
(0.0945849 -3.68799e-05 0.000156142)
(0.0996138 2.50288e-05 0.000230181)
(0.0957712 0.000173265 0.000131383)
(0.0945528 5.29076e-05 0.000120778)
(0.0996096 9.74611e-05 0.00018989)
(0.0957507 0.000305792 0.000114976)
(0.094547 0.000169278 8.97177e-05)
(0.099611 0.000194708 0.000161726)
(0.0957391 0.000486527 0.000132259)
(0.0945665 0.0003326 5.61832e-05)
(0.0996219 0.000326572 0.000138028)
(0.0946199 0.000558588 5.65886e-05)
(0.0996804 0.000493076 0.00015658)
(0.0996492 -0.00065101 0.000932779)
(0.0994732 -0.000350692 0.000308113)
(0.0997996 -0.000375304 0.000741972)
(0.0990873 -0.00127817 0.00182013)
(0.0990489 -0.00157912 0.00172016)
(0.099842 -0.00114919 0.00181325)
(0.0984594 -0.00153274 0.00207511)
(0.0983638 -0.00212686 0.00215131)
(0.0999063 -0.00153087 0.0020746)
(0.0977384 -0.00151846 0.00193418)
(0.0972221 -0.00202009 0.00196376)
(0.0997748 -0.00161368 0.00198663)
(0.0970046 -0.00141026 0.00168276)
(0.095973 -0.00180756 0.00168533)
(0.0995318 -0.00156492 0.00182715)
(0.0963237 -0.00129204 0.00142916)
(0.0948043 -0.00162192 0.00141927)
(0.0992374 -0.00145282 0.00163662)
(0.0957224 -0.001173 0.00119775)
(0.0937387 -0.00146059 0.00118583)
(0.0989246 -0.0013113 0.00143673)
(0.0952078 -0.0010401 0.000984204)
(0.0928118 -0.00129361 0.000977281)
(0.0986288 -0.00115335 0.00122901)
(0.094775 -0.000894144 0.000788223)
(0.0920347 -0.00110923 0.0007857)
(0.0983652 -0.000982377 0.00101941)
(0.0944131 -0.000745052 0.000618326)
(0.0913909 -0.000917435 0.000615408)
(0.0981328 -0.000810318 0.000821758)
(0.0941111 -0.000599704 0.000480279)
(0.0908645 -0.000735738 0.000476814)
(0.0979288 -0.000652585 0.000654923)
(0.0938678 -0.000464217 0.000371177)
(0.0904484 -0.000575756 0.000369978)
(0.0977613 -0.000511653 0.000518661)
(0.0936807 -0.000345611 0.00028638)
(0.0901262 -0.000442296 0.000288231)
(0.0976299 -0.000390157 0.000408263)
(0.0935435 -0.000245256 0.000220797)
(0.0898866 -0.000333189 0.000222014)
(0.0975334 -0.000289031 0.000319206)
(0.0934502 -0.000154182 0.000168664)
(0.0897138 -0.000242728 0.000167002)
(0.0974699 -0.000203989 0.00024666)
(0.0934 -5.91053e-05 0.000123744)
(0.0896065 -0.000159984 0.000118586)
(0.0974391 -0.000123363 0.00018501)
(0.0933931 5.74336e-05 7.98897e-05)
(0.0895723 -7.23531e-05 6.45139e-05)
(0.0974411 -3.75904e-05 0.000129379)
(0.0934277 0.000228136 2.97628e-05)
(0.0896292 4.61098e-05 -6.91977e-06)
(0.0974769 7.21028e-05 7.28828e-05)
(0.093466 0.000497807 -2.60415e-05)
(0.0897956 0.000281189 -0.000122697)
(0.0975455 0.000236355 8.92929e-06)
(0.0898265 0.000731586 -0.000354458)
(0.0976277 0.00048133 -4.90933e-05)
(0.099374 -0.00118569 0.00107233)
(0.0996867 -0.000440152 0.000345682)
(0.0997476 -0.000611799 0.000781055)
(0.0984971 -0.00229707 0.0020223)
(0.0978116 -0.00273851 0.00228074)
(0.0995969 -0.00201957 0.0020003)
(0.0971635 -0.00246644 0.00202077)
(0.095501 -0.00300369 0.00229166)
(0.0993039 -0.00245197 0.00208455)
(0.0955001 -0.00221563 0.00171523)
(0.0926568 -0.00229137 0.00180584)
(0.0985118 -0.00235045 0.00186345)
(0.0938833 -0.0019422 0.00142604)
(0.0898612 -0.00186059 0.0014759)
(0.0974744 -0.00212656 0.00162126)
(0.0924046 -0.00171031 0.00117744)
(0.0874328 -0.00157574 0.00119381)
(0.0964186 -0.00187576 0.00138832)
(0.0910864 -0.00150493 0.000965411)
(0.0853971 -0.00135053 0.000928923)
(0.0954204 -0.00162021 0.00115619)
(0.0899418 -0.00130521 0.000780703)
(0.0837346 -0.00115096 0.000711609)
(0.0945227 -0.00137763 0.000943811)
(0.0889818 -0.00110212 0.000618562)
(0.0823811 -0.000969719 0.000545932)
(0.0937523 -0.001153 0.000761402)
(0.0882031 -0.000902194 0.000482756)
(0.0812839 -0.000801704 0.000421242)
(0.0931119 -0.000945341 0.000608358)
(0.0875849 -0.000720589 0.000376536)
(0.0804003 -0.000648314 0.000327246)
(0.0925968 -0.000759299 0.000484258)
(0.0871049 -0.000568671 0.000296555)
(0.0797132 -0.000521164 0.000258414)
(0.0921925 -0.000601877 0.000386412)
(0.0867405 -0.000444585 0.000232074)
(0.0791584 -0.00042043 0.000204958)
(0.091885 -0.00047517 0.000307509)
(0.0864713 -0.000343461 0.000175425)
(0.0787371 -0.000335059 0.000154091)
(0.091659 -0.000372786 0.000236175)
(0.0862874 -0.000264317 0.000124928)
(0.0784292 -0.00027075 0.00010608)
(0.0915005 -0.000293287 0.000170775)
(0.086195 -0.000200744 7.11797e-05)
(0.0782153 -0.000234503 6.20417e-05)
(0.0914095 -0.000236321 0.000108989)
(0.0862184 -0.000131542 -3.05486e-06)
(0.0781098 -0.000221992 3.99032e-06)
(0.0913938 -0.000191704 3.41693e-05)
(0.0863879 1.28033e-05 -0.000126102)
(0.0781697 -0.000193299 -0.000107073)
(0.0914716 -0.00013402 -7.70228e-05)
(0.086736 0.000401405 -0.000400019)
(0.0785108 -2.01331e-05 -0.000331337)
(0.0916584 9.81327e-06 -0.000256117)
(0.0779107 0.000679869 -0.000989066)
(0.0916883 0.000388181 -0.000598538)
(0.0984543 -0.00247802 0.00172825)
(0.0973533 -0.00106177 -0.00148523)
(0.100049 -0.00105758 0.000751286)
(0.0958329 -0.00314955 0.00242686)
(0.0930868 -0.00327067 0.00253326)
(0.0982908 -0.00280736 0.00215754)
(0.0914672 -0.00222659 0.00184913)
(0.0848689 -0.00163684 0.00178787)
(0.0963101 -0.00243308 0.00198299)
(0.0876628 -0.00165791 0.00146121)
(0.0786473 -0.00107486 0.00121269)
(0.0936982 -0.00196395 0.00169954)
(0.0843089 -0.00139992 0.00120742)
(0.0741121 -0.000785205 0.000848578)
(0.0909822 -0.00169306 0.00145824)
(0.081512 -0.0011953 0.000940884)
(0.070583 -0.000644043 0.000643606)
(0.0886011 -0.00141103 0.00116309)
(0.0792725 -0.000999471 0.000684983)
(0.0677521 -0.000534451 0.000478186)
(0.086623 -0.00112279 0.0008524)
(0.0774841 -0.000823154 0.000490567)
(0.0655118 -0.000438453 0.000348162)
(0.0850258 -0.000885865 0.000616663)
(0.0760455 -0.000673825 0.00035999)
(0.0637386 -0.000358521 0.000255464)
(0.0837365 -0.000705016 0.000457596)
(0.0748884 -0.000547127 0.000272942)
(0.0623255 -0.00029084 0.000190205)
(0.0826983 -0.000563274 0.000348825)
(0.0739637 -0.000441618 0.000212111)
(0.0612062 -0.000234891 0.000143607)
(0.0818662 -0.000451707 0.000271943)
(0.0732279 -0.000357513 0.000165858)
(0.0603359 -0.000189894 0.000107803)
(0.0812186 -0.000360571 0.000210715)
(0.0726458 -0.000292254 0.000124716)
(0.0596363 -0.000156377 7.78155e-05)
(0.0807012 -0.000289471 0.000158015)
(0.072199 -0.000243807 8.31197e-05)
(0.0591006 -0.000136807 5.11679e-05)
(0.0803047 -0.000242985 0.000111875)
(0.0718712 -0.000217628 4.10077e-05)
(0.0587009 -0.000127801 2.61023e-05)
(0.0800051 -0.000214015 6.31947e-05)
(0.0716454 -0.000222348 -8.86727e-06)
(0.0584066 -0.000139757 -6.61605e-06)
(0.0797818 -0.000207902 7.40307e-06)
(0.071542 -0.000250761 -9.79664e-05)
(0.0582118 -0.000186185 -5.17149e-05)
(0.0796396 -0.000227802 -7.43967e-05)
(0.0717062 -0.000276706 -0.000265764)
(0.0581731 -0.000270941 -0.000143349)
(0.0796152 -0.000241962 -0.000257221)
(0.0725739 -7.7651e-05 -0.000733629)
(0.0585545 -0.000396939 -0.000306474)
(0.079799 -0.000173525 -0.000667406)
(0.0577389 0.000279416 -0.00165204)
(0.0791828 0.000486695 -0.00207653)
(0.0993484 0.00341829 -0.00341832)
(0.0973533 0.00148524 0.00106174)
(0.0834784 -0.00197424 0.00197415)
(0.0930868 -0.00253331 0.00327056)
(0.074522 -0.0019588 0.00195863)
(0.0848689 -0.00178794 0.00163664)
(0.0685655 -0.0011631 0.00116277)
(0.0786472 -0.00121288 0.00107453)
(0.0642873 -0.000692934 0.000692388)
(0.074112 -0.000848884 0.000784631)
(0.0608809 -0.000481164 0.000480237)
(0.0705827 -0.00064416 0.000643149)
(0.0581639 -0.000358658 0.000357031)
(0.0677517 -0.000479144 0.000532963)
(0.0560228 -0.000267802 0.000265034)
(0.0655111 -0.000349768 0.000435675)
(0.0543319 -0.000197978 0.000193411)
(0.0637373 -0.000258087 0.000353794)
(0.052998 -0.000146497 0.000139005)
(0.0623232 -0.000194483 0.000282952)
(0.051948 -0.000109932 9.75723e-05)
(0.0612023 -0.000150616 0.000221823)
(0.0511283 -8.50907e-05 6.45226e-05)
(0.0603292 -0.000119386 0.00016812)
(0.0504961 -7.131e-05 3.71238e-05)
(0.0596247 -9.71336e-05 0.000119881)
(0.0500099 -6.69561e-05 1.42603e-05)
(0.0590799 -8.33399e-05 7.56552e-05)
(0.0496454 -7.25501e-05 -1.41782e-05)
(0.0586636 -7.58102e-05 3.08747e-05)
(0.049382 -9.5769e-05 -5.8789e-05)
(0.0583396 -8.15379e-05 -2.58308e-05)
(0.0492077 -0.000136978 -0.000142029)
(0.0580846 -0.000102531 -0.000111545)
(0.0492295 -0.00017277 -0.000313986)
(0.0579063 -0.000126627 -0.00027422)
(0.0498553 0.000409787 -0.00140951)
(0.0580057 -9.92168e-05 -0.000650491)
(0.0574007 0.000441041 -0.00218353)
(0.0984543 0.00172825 0.00247799)
(0.100049 0.000751289 0.00105757)
(0.0996867 0.000345679 0.000440133)
(0.0958328 0.00242685 0.00314949)
(0.0982908 0.00215756 0.00280734)
(0.0978116 0.00228075 0.00273847)
(0.0914672 0.00184913 0.00222652)
(0.0963101 0.00198298 0.00243304)
(0.095501 0.00229167 0.00300364)
(0.0876628 0.0014612 0.00165784)
(0.0936981 0.00169952 0.00196392)
(0.0926568 0.00180584 0.00229134)
(0.0843089 0.00120742 0.00139985)
(0.0909822 0.00145823 0.00169301)
(0.0898612 0.00147591 0.00186056)
(0.081512 0.000940889 0.00119524)
(0.0886011 0.00116307 0.00141099)
(0.0874328 0.00119382 0.00157573)
(0.0792725 0.00068498 0.000999406)
(0.086623 0.000852368 0.00112275)
(0.0853971 0.000928944 0.00135052)
(0.0774841 0.000490531 0.000823056)
(0.0850258 0.000616611 0.000885806)
(0.0837346 0.000711617 0.00115094)
(0.0760456 0.000359865 0.000673631)
(0.0837365 0.000457504 0.000704915)
(0.0823811 0.000545893 0.000969645)
(0.074889 0.000272663 0.000546761)
(0.0826984 0.000348659 0.0005631)
(0.081284 0.000421074 0.000801447)
(0.0739651 0.000211751 0.000441082)
(0.0818663 0.000271831 0.000451636)
(0.0804006 0.00032681 0.000647629)
(0.0732298 0.000166103 0.000357401)
(0.081218 0.000211363 0.000361242)
(0.0797131 0.000257796 0.000519987)
(0.0726456 0.00012636 0.00029374)
(0.0807018 0.000158994 0.000289995)
(0.0791605 0.000205826 0.000421133)
(0.0721934 8.52485e-05 0.000246624)
(0.0803046 0.000111633 0.000242113)
(0.0787367 0.0001574 0.000339882)
(0.0718611 4.17699e-05 0.00021941)
(0.0800007 6.279e-05 0.000214068)
(0.0784212 0.00010881 0.000275519)
(0.0716353 -9.72539e-06 0.000222149)
(0.0797786 7.56965e-06 0.000209016)
(0.0782087 6.20062e-05 0.000234854)
(0.0715348 -9.94229e-05 0.000249648)
(0.0796368 -7.45837e-05 0.000228356)
(0.0781047 2.08028e-06 0.000219812)
(0.0717024 -0.000267084 0.000275464)
(0.0796131 -0.000257759 0.000241773)
(0.0781664 -0.000109197 0.000190705)
(0.0725732 -0.000734649 7.64941e-05)
(0.0797982 -0.000668017 0.000172982)
(0.0785096 -0.00033319 1.78322e-05)
(0.0791832 -0.00207704 -0.000487401)
(0.0779114 -0.000990688 -0.00068203)
(0.10008 0.00134848 0.00134853)
(0.100186 0.000799398 0.000805578)
(0.100186 0.000805564 0.000799418)
(0.100269 0.00220171 0.00220185)
(0.100191 0.00230638 0.00206548)
(0.100191 0.0020654 0.00230646)
(0.0994003 0.00240852 0.00240879)
(0.100314 0.00261406 0.00243091)
(0.100314 0.0024307 0.00261424)
(0.0980201 0.00227605 0.00227649)
(0.0998205 0.00252726 0.0024184)
(0.0998206 0.00241802 0.0025276)
(0.0965693 0.00196592 0.00196672)
(0.0988945 0.00230872 0.0022242)
(0.0988947 0.0022236 0.00230928)
(0.0952172 0.00155068 0.00155212)
(0.0979075 0.0019638 0.00188738)
(0.0979079 0.00188638 0.00196482)
(0.0940332 0.00116449 0.00116687)
(0.0969875 0.00157149 0.00149507)
(0.0969882 0.00149341 0.00157321)
(0.0930359 0.000875906 0.000879871)
(0.0961747 0.00123559 0.0011666)
(0.0961761 0.00116381 0.00123838)
(0.0922198 0.000666675 0.00067329)
(0.0954859 0.000971502 0.000916504)
(0.0954882 0.000911862 0.000976136)
(0.0915681 0.000513088 0.000524106)
(0.0949191 0.000762472 0.000723861)
(0.0949229 0.000716136 0.000770162)
(0.0910543 0.000393095 0.000411432)
(0.0944664 0.000598381 0.000577378)
(0.0944729 0.000564469 0.000611082)
(0.0906613 0.000289165 0.000319747)
(0.0941072 0.000460324 0.000458584)
(0.0941181 0.000437018 0.000481302)
(0.0903694 0.000204804 0.00025606)
(0.0938384 0.000342793 0.000363827)
(0.0938567 0.000327745 0.000377495)
(0.0901461 0.000139228 0.000225893)
(0.0936343 0.000250571 0.000301279)
(0.0936648 0.000240646 0.000308062)
(0.0899676 7.49248e-05 0.000222089)
(0.0934719 0.000172014 0.000267765)
(0.0935225 0.000164859 0.000267434)
(0.0898259 -1.27327e-05 0.000235882)
(0.0933369 9.36453e-05 0.000262457)
(0.0934212 8.72001e-05 0.000251195)
(0.0897232 -0.000165127 0.000252858)
(0.0932217 -5.59339e-06 0.000280525)
(0.0933604 -1.6293e-05 0.000251196)
(0.0896352 -0.000464747 0.000225697)
(0.093109 -0.000161085 0.000311204)
(0.0933351 -0.000187933 0.000249542)
(0.08943 -0.00108426 1.27451e-05)
(0.0929891 -0.000419081 0.000316398)
(0.0933296 -0.000497918 0.000200663)
(0.0929716 -0.000811282 0.000230443)
(0.0933447 -0.00105888 2.48017e-05)
(0.100173 0.00136644 0.00141413)
(0.100118 0.000577049 0.000811434)
(0.100102 0.000699362 0.000700646)
(0.100763 0.00218404 0.002136)
(0.100481 0.00157831 0.00185397)
(0.10048 0.00181663 0.00185867)
(0.101 0.00245087 0.00235446)
(0.101006 0.00204465 0.00222364)
(0.101026 0.00232787 0.00236168)
(0.100846 0.00242573 0.002328)
(0.101293 0.00217443 0.00231002)
(0.101337 0.00246688 0.00249757)
(0.100479 0.00222341 0.00212701)
(0.101312 0.00211196 0.00224622)
(0.101406 0.00237874 0.00239172)
(0.100008 0.00191845 0.00182303)
(0.101164 0.00191174 0.00205461)
(0.101295 0.00214848 0.00214537)
(0.0995146 0.00158971 0.00149417)
(0.100944 0.00163775 0.00178033)
(0.101092 0.00183443 0.00181574)
(0.099049 0.00129306 0.00120702)
(0.100693 0.00136306 0.00149607)
(0.100851 0.00152251 0.00149927)
(0.0986388 0.00104185 0.000973453)
(0.100446 0.00111225 0.00123292)
(0.100606 0.00124573 0.00122525)
(0.0982942 0.000830717 0.000784261)
(0.100223 0.000889207 0.000997486)
(0.100385 0.00100695 0.000993454)
(0.0980149 0.000653326 0.000631338)
(0.100032 0.00070134 0.000801646)
(0.100198 0.00080346 0.000800733)
(0.0977933 0.000504736 0.000509094)
(0.0998734 0.000544654 0.000642884)
(0.100045 0.000629972 0.000641198)
(0.097619 0.000380935 0.000414542)
(0.0997459 0.000416334 0.000517206)
(0.0999268 0.00048422 0.000513805)
(0.0974822 0.000276992 0.00034714)
(0.099641 0.000314159 0.000421976)
(0.0998346 0.000362328 0.00041822)
(0.0973686 0.000188547 0.000311554)
(0.0995529 0.000233674 0.000357284)
(0.0997644 0.000259418 0.000354505)
(0.0972628 0.000107122 0.00031189)
(0.0994711 0.000170034 0.000326154)
(0.0997074 0.000169347 0.000324744)
(0.0971503 1.68797e-05 0.000347175)
(0.0993832 0.000115406 0.000331476)
(0.0996539 7.93639e-05 0.000327503)
(0.0970104 -9.75571e-05 0.000412864)
(0.0992714 6.05674e-05 0.000372609)
(0.0995893 -2.74237e-05 0.000358012)
(0.0967826 -0.000193153 0.000539829)
(0.0991411 5.52061e-06 0.000444242)
(0.0995155 -0.000159028 0.000413443)
(0.0991593 2.28481e-05 0.000608775)
(0.0995473 -0.000241232 0.000545505)
(0.100242 0.000818276 0.00125389)
(0.10009 0.000294142 0.000735337)
(0.100071 0.00041492 0.00060267)
(0.100829 0.001384 0.00192902)
(0.100492 0.00078974 0.0016803)
(0.100493 0.00112007 0.00158263)
(0.101391 0.00164691 0.00215505)
(0.101085 0.00107001 0.00206865)
(0.101127 0.00152904 0.00207744)
(0.101809 0.00172548 0.00220404)
(0.10166 0.00118598 0.00214523)
(0.101759 0.00170627 0.0022555)
(0.102068 0.00168388 0.00215844)
(0.102108 0.0012022 0.002157)
(0.102273 0.00173905 0.00229076)
(0.102197 0.00154356 0.00200702)
(0.102423 0.00113179 0.00209045)
(0.102677 0.001651 0.00218647)
(0.102236 0.00135083 0.00178581)
(0.102629 0.00100474 0.00192915)
(0.102973 0.00148154 0.00198814)
(0.102222 0.00114167 0.00152975)
(0.10276 0.000862753 0.00170676)
(0.10318 0.00127897 0.00173937)
(0.102178 0.000932551 0.00126552)
(0.102831 0.000719528 0.00146022)
(0.10332 0.00106901 0.00147464)
(0.102122 0.000742548 0.00102272)
(0.102864 0.000583838 0.00121274)
(0.103412 0.00086846 0.0012161)
(0.102064 0.000583922 0.000820298)
(0.102873 0.00046701 0.000986181)
(0.103472 0.000693727 0.000987907)
(0.102007 0.000455427 0.000657627)
(0.102869 0.000370001 0.000786544)
(0.103509 0.000547191 0.000796092)
(0.101954 0.00035391 0.000530631)
(0.102856 0.000292547 0.000621865)
(0.10353 0.000426503 0.000639405)
(0.101902 0.000276927 0.000437088)
(0.102839 0.000234914 0.000497088)
(0.10354 0.000329767 0.000517163)
(0.101848 0.000221337 0.000375495)
(0.102817 0.000196676 0.000408138)
(0.103541 0.000254556 0.000428809)
(0.101787 0.000185064 0.0003479)
(0.102788 0.00017783 0.000350761)
(0.103533 0.000197658 0.000373926)
(0.101712 0.000167807 0.000357763)
(0.10275 0.000179921 0.000325656)
(0.103512 0.000156491 0.000354642)
(0.101613 0.000172245 0.000403021)
(0.102695 0.00020597 0.000333019)
(0.103473 0.000128965 0.000370008)
(0.101473 0.000218263 0.000508051)
(0.102632 0.000261213 0.000367778)
(0.103425 0.000118359 0.00041744)
(0.102684 0.000360963 0.000469644)
(0.103475 0.000150828 0.000533263)
(0.100243 0.000266601 0.00116091)
(0.100087 2.52752e-08 0.000707004)
(0.100064 0.000135538 0.000537483)
(0.100782 0.000462672 0.00181816)
(0.100477 7.02255e-08 0.00161481)
(0.100463 0.00036918 0.00142155)
(0.101398 0.000568168 0.00205516)
(0.101064 1.16543e-07 0.0020215)
(0.101086 0.000520238 0.00192144)
(0.101976 0.00060747 0.00209312)
(0.101689 2.09964e-07 0.00208876)
(0.101788 0.000595097 0.0020995)
(0.102477 0.000603 0.00208536)
(0.102253 3.81767e-07 0.00209733)
(0.102466 0.000618336 0.00215381)
(0.102874 0.000561362 0.00201168)
(0.102701 6.40666e-07 0.00207312)
(0.10307 0.000598187 0.00213014)