/*--------------------------------*- C++ -*----------------------------------*\
| =========                 |                                                 |
| \\      /  F ield         | OpenFOAM: The Open Source CFD Toolbox           |
|  \\    /   O peration     | Version:  2212                                  |
|   \\  /    A nd           | Website:  www.openfoam.com                      |
|    \\/     M anipulation  |                                                 |
\*---------------------------------------------------------------------------*/
FoamFile
{
    version     2.0;
    format      ascii;
    arch        "LSB;label=32;scalar=64";
    class       volScalarField;
    location    "0.05";
    object      epsilon;
}
// * * * * * * * * * * * * * * * * * * * * * * * * * * * * * * * * * * * * * //

dimensions      [0 2 -3 0 0 0 0];

internalField   nonuniform List<scalar> 
6840
(
90.5276
12.3018
4.6869
2.77605
2.1702
1.92984
1.81644
1.76408
1.73487
1.71956
1.71215
1.70902
1.70913
1.7134
1.71484
1.71188
1.70771
1.70402
1.70066
1.73347
58.6044
14.8813
6.7435
4.37275
3.45488
3.04358
2.84961
2.75047
2.6895
2.65875
2.6444
2.63852
2.63923
2.6496
2.6531
2.64288
2.63255
2.62326
2.61127
2.62858
45.0431
13.6798
6.21135
3.80793
2.98487
2.62078
2.4445
2.35693
2.3124
2.28945
2.2779
2.2722
2.26941
2.26879
2.26815
2.26617
2.26313
2.2579
2.25157
2.28171
38.7261
13.2504
6.21077
3.807
2.97126
2.60364
2.42485
2.33584
2.29085
2.26795
2.25636
2.25054
2.24766
2.24622
2.24517
2.24356
2.2408
2.23614
2.23096
2.25549
36.0814
13.0451
6.21237
3.80931
2.9704
2.61622
2.43588
2.34421
2.29758
2.27387
2.26185
2.25576
2.25263
2.25089
2.24962
2.24811
2.2456
2.24125
2.23613
2.25328
36.0814
13.0451
6.21237
3.80932
2.97041
2.61622
2.43588
2.34421
2.29758
2.27387
2.26185
2.25576
2.25261
2.25075
2.24954
2.24809
2.24565
2.24135
2.2358
2.24709
38.7261
13.2504
6.21077
3.807
2.97126
2.60364
2.42485
2.33584
2.29086
2.26798
2.25643
2.25085
2.24824
2.24771
2.24611
2.24405
2.24116
2.23654
2.23027
2.23707
45.0431
13.6798
6.21135
3.80793
2.98486
2.62077
2.4445
2.35693
2.31241
2.2895
2.278
2.27246
2.27055
2.26994
2.26828
2.26626
2.26322
2.25821
2.25061
2.25249
58.6044
14.8813
6.74347
4.37272
3.45485
3.04356
2.84959
2.75047
2.68952
2.65884
2.64483
2.64252
2.65136
2.65471
2.64481
2.63576
2.62955
2.62234
2.6111
2.5882
90.5276
12.3018
4.68689
2.77603
2.17018
1.92982
1.81644
1.76408
1.73488
1.71958
1.71217
1.71045
1.71408
1.71542
1.71253
1.70876
1.7059
1.7032
1.70035
1.73307
58.6044
14.8813
6.7435
4.37275
3.45488
3.04358
2.84961
2.75047
2.6895
2.65875
2.6444
2.63852
2.63923
2.6496
2.65311
2.64292
2.63264
2.62361
2.61163
2.58895
16.5578
9.5873
5.29398
3.35563
2.4595
2.03552
1.83688
1.74735
1.71672
1.70022
1.69182
1.68724
1.68232
1.66791
1.66564
1.67722
1.67886
1.67688
1.67323
1.67473
13.6779
8.82361
5.33153
3.51301
2.59435
2.12839
1.88674
1.76404
1.70366
1.67606
1.66258
1.65537
1.65098
1.64694
1.6452
1.64588
1.64547
1.64384
1.64206
1.64539
12.9099
8.44298
5.33163
3.6052
2.69062
2.21025
1.9585
1.82717
1.75865
1.72367
1.70593
1.69695
1.69237
1.68977
1.68823
1.68715
1.6858
1.68392
1.68234
1.68568
12.6903
8.26585
5.32705
3.65116
2.74397
2.2598
2.00243
1.86659
1.79546
1.75859
1.73962
1.72992
1.72496
1.72234
1.72073
1.71943
1.7179
1.71582
1.71373
1.71504
12.6903
8.26585
5.32705
3.65116
2.74397
2.2598
2.00243
1.86659
1.79546
1.75859
1.73962
1.72992
1.72499
1.72281
1.72085
1.71946
1.71791
1.71576
1.71328
1.71326
12.9099
8.44298
5.33163
3.6052
2.69062
2.21025
1.9585
1.82717
1.75865
1.72367
1.70591
1.69684
1.69168
1.68707
1.68736
1.68688
1.68582
1.68383
1.68128
1.68122
13.6779
8.82361
5.33152
3.513
2.59434
2.12838
1.88673
1.76404
1.70366
1.67602
1.66239
1.65462
1.64882
1.6462
1.64686
1.64691
1.64596
1.64395
1.64139
1.64166
16.5578
9.58729
5.29397
3.35562
2.45948
2.03551
1.83687
1.74734
1.71671
1.70016
1.69145
1.68488
1.66933
1.66663
1.67831
1.68071
1.67997
1.67728
1.6734
1.67485
58.6044
14.8813
6.74346
4.37271
3.45485
3.04355
2.84959
2.75047
2.68951
2.65883
2.64483
2.64251
2.65131
2.65456
2.64466
2.63565
2.62942
2.622
2.61085
2.62779
45.0431
13.6798
6.21136
3.80794
2.98488
2.62078
2.44451
2.35694
2.3124
2.28945
2.27791
2.27221
2.26943
2.26882
2.2682
2.26626
2.26334
2.25836
2.25083
2.2531
13.6779
8.82361
5.33153
3.51301
2.59435
2.12839
1.88674
1.76404
1.70366
1.67606
1.66258
1.65537
1.65098
1.64694
1.64521
1.64589
1.64546
1.64371
1.64121
1.64125
11.866
7.85246
5.23417
3.66653
2.77002
2.26935
1.99365
1.84465
1.76589
1.72479
1.70352
1.69246
1.68654
1.68306
1.6811
1.68005
1.6789
1.67717
1.675
1.67393
11.628
7.70045
5.25547
3.77442
2.89904
2.39082
2.1001
1.93639
1.84576
1.79645
1.77002
1.756
1.74857
1.74453
1.74219
1.74058
1.73901
1.73703
1.73453
1.73217
11.5773
7.66673
5.27306
3.82379
2.95957
2.45099
2.15551
1.98627
1.89087
1.838
1.80917
1.79366
1.78537
1.7809
1.7783
1.77645
1.77468
1.77247
1.76956
1.76602
11.5773
7.66673
5.27306
3.82379
2.95957
2.45099
2.15551
1.98627
1.89087
1.838
1.80916
1.79364
1.78535
1.7809
1.7783
1.77645
1.77467
1.77243
1.76939
1.76548
11.628
7.70045
5.25546
3.77442
2.89904
2.39082
2.1001
1.93639
1.84575
1.79644
1.76999
1.75591
1.74836
1.7442
1.74203
1.74054
1.73901
1.73697
1.73424
1.73114
11.866
7.85245
5.23416
3.66652
2.77001
2.26935
1.99364
1.84465
1.76588
1.72476
1.70342
1.6922
1.68604
1.68283
1.68138
1.68037
1.67913
1.67733
1.67519
1.67432
13.6779
8.82361
5.33152
3.51299
2.59433
2.12837
1.88673
1.76403
1.70365
1.67601
1.66239
1.65464
1.64891
1.64646
1.64702
1.64699
1.64601
1.64412
1.64239
1.64641
45.0431
13.6798
6.21134
3.80791
2.98485
2.62075
2.44448
2.35691
2.31239
2.28947
2.27796
2.27239
2.27027
2.26933
2.26768
2.2658
2.26283
2.25771
2.25145
2.28123
38.7261
13.2505
6.21077
3.80701
2.97127
2.60365
2.42486
2.33584
2.29085
2.26796
2.25637
2.25056
2.24769
2.24627
2.24525
2.24367
2.24101
2.2365
2.23031
2.2373
12.9099
8.44299
5.33164
3.6052
2.69062
2.21025
1.9585
1.82717
1.75866
1.72367
1.70593
1.69695
1.69237
1.68977
1.68824
1.68716
1.68581
1.68377
1.68119
1.681
11.628
7.70045
5.25547
3.77442
2.89904
2.39082
2.1001
1.93639
1.84576
1.79646
1.77003
1.75601
1.74857
1.74453
1.74218
1.74058
1.73899
1.73693
1.73416
1.731
11.4958
7.61228
5.28535
3.87872
3.02912
2.51881
2.21515
2.03685
1.93387
1.87546
1.84291
1.82505
1.81535
1.81005
1.80697
1.80485
1.80291
1.80056
1.79727
1.79255
11.4771
7.60541
5.30815
3.9248
3.08619
2.5775
2.27054
2.08726
1.97944
1.91714
1.88178
1.86205
1.85118
1.84518
1.84167
1.83927
1.83712
1.83455
1.83094
1.82549
11.4771
7.60541
5.30815
3.9248
3.08619
2.5775
2.27054
2.08726
1.97944
1.91714
1.88178
1.86205
1.85119
1.84521
1.84169
1.83927
1.83712
1.83455
1.83091
1.82541
11.4958
7.61228
5.28535
3.87872
3.02912
2.51881
2.21515
2.03685
1.93387
1.87546
1.84291
1.82505
1.81536
1.81003
1.80694
1.80484
1.80292
1.80057
1.7973
1.79259
11.628
7.70045
5.25546
3.77441
2.89904
2.39082
2.1001
1.93639
1.84575
1.79644
1.77
1.75595
1.74848
1.74448
1.74223
1.74066
1.73908
1.73709
1.7346
1.73227
12.9099
8.44298
5.33163
3.60519
2.69061
2.21024
1.95849
1.82716
1.75865
1.72366
1.70592
1.69693
1.69217
1.68968
1.68836
1.68726
1.68591
1.68399
1.6824
1.68566
38.7261
13.2504
6.21075
3.80698
2.97124
2.6036
2.42481
2.3358
2.29082
2.26794
2.25638
2.25065
2.24789
2.24644
2.24511
2.24342
2.24073
2.23619
2.23119
2.25619
36.0814
13.0451
6.21238
3.80932
2.97041
2.61622
2.43589
2.34422
2.29759
2.27388
2.26186
2.25578
2.25268
2.25099
2.24974
2.24822
2.24572
2.24138
2.23579
2.24699
12.6903
8.26585
5.32705
3.65117
2.74397
2.2598
2.00244
1.86659
1.79546
1.75859
1.73963
1.72993
1.72495
1.7223
1.72071
1.71943
1.7179
1.71576
1.71329
1.71339
11.5773
7.66673
5.27306
3.8238
2.95957
2.45099
2.15552
1.98627
1.89087
1.83801
1.80917
1.79366
1.78537
1.78089
1.77829
1.77645
1.77466
1.77243
1.76939
1.76551
11.4771
7.60541
5.30815
3.9248
3.08619
2.57751
2.27054
2.08726
1.97944
1.91714
1.88178
1.86205
1.85117
1.84517
1.84166
1.83926
1.83711
1.83455
1.83092
1.82543
11.4647
7.60417
5.3311
3.96781
3.13965
2.63323
2.32373
2.13597
2.02353
1.95734
1.91909
1.89738
1.88523
1.87844
1.87435
1.87172
1.86933
1.8665
1.86255
1.85658
11.4647
7.60417
5.3311
3.96781
3.13965
2.63324
2.32374
2.13598
2.02354
1.95735
1.91909
1.89739
1.88525
1.87848
1.87439
1.87174
1.86934
1.86651
1.86255
1.85657
11.4771
7.60541
5.30815
3.9248
3.0862
2.57751
2.27055
2.08727
1.97945
1.91715
1.88179
1.86208
1.85125
1.84522
1.84165
1.83925
1.83711
1.83455
1.83095
1.8255
11.5773
7.66673
5.27305
3.82379
2.95957
2.45099
2.15552
1.98628
1.89087
1.83801
1.80917
1.79366
1.78539
1.7809
1.77829
1.77645
1.77468
1.77248
1.76957
1.76603
12.6903
8.26585
5.32704
3.65116
2.74397
2.2598
2.00246
1.8666
1.79545
1.75858
1.73962
1.72992
1.72492
1.72229
1.72072
1.71945
1.71793
1.71586
1.71376
1.71502
36.0814
13.0451
6.21237
3.8093
2.97037
2.61616
2.43579
2.34412
2.29751
2.27382
2.26182
2.25577
2.2527
2.251
2.24971
2.24818
2.24566
2.24134
2.2363
2.25361
36.0814
13.0451
6.21237
3.80932
2.97041
2.61622
2.43588
2.34422
2.29759
2.27388
2.26186
2.25578
2.25268
2.25098
2.24973
2.2482
2.24567
2.24131
2.2362
2.2534
12.6903
8.26585
5.32705
3.65117
2.74397
2.2598
2.00244
1.86659
1.79546
1.75859
1.73963
1.72993
1.72495
1.7223
1.72071
1.71943
1.71791
1.71584
1.71375
1.71504
11.5773
7.66673
5.27306
3.8238
2.95957
2.45099
2.15552
1.98627
1.89088
1.83801
1.80917
1.79366
1.78537
1.78089
1.77829
1.77645
1.77468
1.77248
1.76958
1.76606
11.4771
7.60541
5.30815
3.9248
3.0862
2.57751
2.27055
2.08727
1.97945
1.91714
1.88178
1.86205
1.85117
1.84517
1.84166
1.83926
1.83712
1.83456
1.83097
1.82554
11.4647
7.60417
5.3311
3.96781
3.13965
2.63324
2.32375
2.13598
2.02354
1.95735
1.91909
1.89738
1.88523
1.87844
1.87436
1.87172
1.86933
1.86651
1.86256
1.8566
11.4647
7.60417
5.3311
3.96782
3.13966
2.63325
2.32377
2.136
2.02355
1.95735
1.91909
1.89739
1.88526
1.87848
1.87439
1.87174
1.86934
1.86651
1.86255
1.85659
11.4771
7.60541
5.30815
3.9248
3.0862
2.57752
2.27057
2.08728
1.97946
1.91715
1.8818
1.86208
1.85125
1.84522
1.84165
1.83925
1.8371
1.83454
1.83092
1.82542
11.5773
7.66673
5.27305
3.82379
2.95956
2.45098
2.15552
1.98627
1.89087
1.83801
1.80918
1.79367
1.78539
1.7809
1.77829
1.77645
1.77467
1.77243
1.76939
1.76545
12.6903
8.26585
5.32705
3.65116
2.74397
2.25985
2.00283
1.86667
1.79547
1.75859
1.73962
1.72992
1.72492
1.72229
1.72072
1.71945
1.71792
1.71578
1.71328
1.71318
36.0814
13.0451
6.21237
3.80931
2.97038
2.61616
2.43566
2.34405
2.29747
2.2738
2.26181
2.25576
2.2527
2.251
2.24972
2.2482
2.24573
2.24145
2.23597
2.24747
38.7261
13.2504
6.21077
3.807
2.97126
2.60364
2.42485
2.33584
2.29085
2.26796
2.25636
2.25055
2.24769
2.24626
2.24522
2.24361
2.24086
2.23624
2.23118
2.25612
12.9099
8.44298
5.33163
3.6052
2.69062
2.21025
1.9585
1.82717
1.75866
1.72367
1.70593
1.69695
1.69237
1.68977
1.68824
1.68716
1.68582
1.68395
1.68238
1.68565
11.628
7.70045
5.25547
3.77442
2.89904
2.39082
2.10011
1.9364
1.84576
1.79646
1.77003
1.75601
1.74857
1.74453
1.74219
1.74059
1.73903
1.73705
1.73459
1.73228
11.4958
7.61228
5.28535
3.87873
3.02913
2.51881
2.21516
2.03686
1.93387
1.87546
1.84292
1.82506
1.81535
1.81005
1.80697
1.80485
1.80292
1.80058
1.79731
1.79262
11.4771
7.60541
5.30815
3.9248
3.0862
2.57752
2.27057
2.08728
1.97945
1.91714
1.88178
1.86205
1.85118
1.84519
1.84168
1.83927
1.83712
1.83455
1.83093
1.82543
11.4771
7.60541
5.30815
3.9248
3.08621
2.57755
2.27058
2.08725
1.97944
1.91713
1.88178
1.86205
1.85119
1.8452
1.84169
1.83927
1.83712
1.83456
1.83096
1.82552
11.4958
7.61228
5.28535
3.87872
3.02912
2.51881
2.21514
2.03683
1.93386
1.87546
1.84292
1.82505
1.81536
1.81003
1.80694
1.80484
1.80292
1.80057
1.7973
1.7926
11.628
7.70044
5.25545
3.77439
2.89897
2.39067
2.09985
1.93628
1.84574
1.79646
1.77002
1.75597
1.74849
1.74448
1.74223
1.74065
1.73906
1.73699
1.73424
1.73111
12.9099
8.44298
5.33162
3.60517
2.69051
2.2098
1.95649
1.82655
1.75854
1.72368
1.70595
1.69695
1.69217
1.68967
1.68836
1.68726
1.6859
1.68384
1.68126
1.68111
38.7261
13.2505
6.21077
3.80704
2.97152
2.60431
2.42615
2.33675
2.29126
2.26811
2.25643
2.25066
2.24789
2.24644
2.24513
2.24348
2.2409
2.23649
2.23037
2.23745
45.0431
13.6798
6.21135
3.80793
2.98487
2.62077
2.4445
2.35693
2.3124
2.28945
2.27791
2.27221
2.26943
2.26881
2.26818
2.2662
2.26317
2.25795
2.25158
2.28127
13.6779
8.82361
5.33153
3.513
2.59434
2.12839
1.88674
1.76404
1.70367
1.67606
1.66258
1.65537
1.65098
1.64695
1.64522
1.64589
1.6455
1.64392
1.64231
1.64638
11.866
7.85246
5.23417
3.66653
2.77002
2.26935
1.99365
1.84466
1.7659
1.72479
1.70352
1.69247
1.68655
1.68306
1.68111
1.68006
1.67893
1.67723
1.67515
1.67431
11.628
7.70045
5.25546
3.77442
2.89904
2.39082
2.1001
1.93639
1.84576
1.79645
1.77003
1.75601
1.74858
1.74453
1.74219
1.74059
1.73901
1.73697
1.73424
1.73115
11.5773
7.66672
5.27305
3.82379
2.95955
2.45096
2.15545
1.98622
1.89084
1.83799
1.80916
1.79366
1.78537
1.78091
1.77831
1.77646
1.77467
1.77244
1.7694
1.7655
11.5773
7.66672
5.27305
3.82379
2.95956
2.45097
2.15545
1.98621
1.89084
1.83799
1.80916
1.79365
1.78536
1.7809
1.7783
1.77645
1.77468
1.77248
1.76958
1.76604
11.628
7.70044
5.25546
3.7744
2.89901
2.39078
2.10008
1.93643
1.84582
1.7965
1.77003
1.75593
1.74837
1.7442
1.74202
1.74054
1.73903
1.73706
1.73459
1.73227
11.866
7.85245
5.23415
3.66648
2.76991
2.2692
1.99366
1.8451
1.76624
1.72497
1.70353
1.69225
1.68606
1.68283
1.68137
1.68037
1.67913
1.67733
1.67519
1.67432
13.6779
8.82361
5.33152
3.51297
2.59424
2.12799
1.88608
1.76504
1.70447
1.67638
1.66255
1.6547
1.64892
1.64646
1.64701
1.64698
1.64599
1.64396
1.6414
1.64166
45.0431
13.6798
6.21137
3.8079
2.9849
2.62135
2.44592
2.35781
2.31232
2.28927
2.27779
2.27227
2.27022
2.26932
2.26769
2.26587
2.26302
2.25814
2.25065
2.25268
58.6044
14.8813
6.74348
4.37274
3.45488
3.04359
2.84963
2.7505
2.68952
2.65877
2.64441
2.63852
2.63924
2.64961
2.65311
2.64289
2.63258
2.62326
2.61116
2.62795
16.5578
9.5873
5.29398
3.35563
2.4595
2.03552
1.83688
1.74736
1.71673
1.70022
1.69182
1.68724
1.68233
1.66792
1.66565
1.67723
1.67888
1.67693
1.67331
1.67482
13.6779
8.82361
5.33153
3.51301
2.59434
2.12839
1.88674
1.76404
1.70367
1.67606
1.66258
1.65538
1.65098
1.64695
1.64522
1.64589
1.64548
1.64375
1.64133
1.64164
12.9099
8.44298
5.33163
3.6052
2.69061
2.21023
1.95843
1.82713
1.75864
1.72367
1.70594
1.69695
1.69237
1.68978
1.68824
1.68716
1.68581
1.6838
1.68127
1.68123
12.6903
8.26585
5.32704
3.65115
2.74393
2.25964
2.00174
1.86633
1.79538
1.75857
1.73962
1.72993
1.72497
1.72235
1.72074
1.71944
1.71791
1.71577
1.71329
1.71328
12.6903
8.26585
5.32704
3.65115
2.74393
2.25966
2.0019
1.86636
1.79539
1.75858
1.73963
1.72993
1.725
1.72281
1.72085
1.71946
1.71792
1.71584
1.71375
1.71503
12.9099
8.44298
5.33163
3.60518
2.69059
2.21019
1.95843
1.82721
1.75876
1.72375
1.70596
1.69687
1.69168
1.68707
1.68735
1.68688
1.68583
1.68397
1.6824
1.68565
13.6779
8.82361
5.33151
3.51297
2.59426
2.12806
1.88631
1.76517
1.70453
1.67638
1.66255
1.65467
1.64883
1.6462
1.64685
1.64691
1.64598
1.64411
1.64239
1.64641
16.5578
9.58729
5.29396
3.35561
2.45962
2.03678
1.83881
1.75494
1.71902
1.70094
1.69171
1.68488
1.6693
1.66661
1.6783
1.6807
1.67997
1.67728
1.67342
1.67488
58.6044
14.8813
6.74351
4.37281
3.45602
3.0502
2.85117
2.73919
2.68298
2.65602
2.64372
2.64204
2.65116
2.6545
2.64463
2.63563
2.62947
2.62232
2.61114
2.58834
90.5276
12.3018
4.6869
2.77604
2.17019
1.92984
1.81645
1.76409
1.73488
1.71957
1.71216
1.70903
1.70913
1.7134
1.71484
1.71188
1.70772
1.70402
1.70059
1.73312
58.6044
14.8813
6.74349
4.37274
3.45488
3.0436
2.84964
2.75052
2.68954
2.65877
2.64441
2.63852
2.63924
2.64961
2.65311
2.64293
2.63265
2.62359
2.61148
2.58829
45.0431
13.6798
6.21135
3.80794
2.98489
2.62082
2.44457
2.35701
2.31246
2.2895
2.27793
2.27222
2.26943
2.26882
2.26819
2.26626
2.26333
2.25834
2.25071
2.25255
38.7261
13.2504
6.21077
3.80701
2.97131
2.60374
2.42504
2.33604
2.29101
2.26806
2.25642
2.25057
2.24769
2.24625
2.24522
2.24364
2.241
2.2365
2.23027
2.2371
36.0814
13.0451
6.21238
3.80934
2.9705
2.61647
2.43647
2.34472
2.29792
2.27407
2.26195
2.25581
2.25266
2.25091
2.24965
2.24815
2.24568
2.24138
2.23585
2.24717
36.0814
13.0451
6.21238
3.80933
2.9705
2.61648
2.43647
2.3447
2.2979
2.27405
2.26195
2.25581
2.25263
2.25076
2.24953
2.24807
2.2456
2.24129
2.23623
2.25349
38.7261
13.2504
6.21076
3.80701
2.97139
2.60392
2.42516
2.33595
2.29082
2.26793
2.2564
2.25084
2.24823
2.2477
2.24608
2.24398
2.24101
2.23629
2.23121
2.25617
45.0431
13.6798
6.21135
3.80786
2.9848
2.6211
2.44541
2.35731
2.31198
2.28911
2.27775
2.27232
2.27048
2.2699
2.26824
2.26618
2.26304
2.2578
2.25148
2.28123
58.6044
14.8813
6.7435
4.3728
3.456
3.05014
2.85103
2.73906
2.68289
2.65598
2.64371
2.64205
2.65122
2.65465
2.64478
2.63573
2.62945
2.62202
2.61088
2.62788
90.5276
12.3018
4.6869
2.77618
2.16951
1.93276
1.81935
1.76087
1.73175
1.71786
1.71145
1.71021
1.71401
1.71538
1.71251
1.70875
1.70589
1.70321
1.70037
1.73312
2.15364
2.09043
2.10331
2.12406
2.12752
2.12744
2.12731
2.12794
2.1288
2.12973
2.13154
2.13722
2.13894
2.13585
2.13256
2.13087
2.13015
2.12986
2.1298
2.1299
2.13033
2.13185
2.13738
2.139
2.13587
2.13253
2.13105
2.13193
2.13732
2.13894
2.13586
2.13242
2.13165
2.13434
2.13684
2.13873
2.1355
2.13219
2.13222
2.13734
2.83549
2.79542
2.81866
2.859
2.87284
2.87197
2.87347
2.87539
2.87725
2.87905
2.88219
2.89237
2.89635
2.88865
2.8834
2.88128
2.88042
2.88008
2.87999
2.88011
2.8807
2.88313
2.89289
2.89653
2.88863
2.8833
2.88163
2.88328
2.89267
2.89631
2.88849
2.88339
2.88297
2.88762
2.89314
2.89713
2.88868
2.88356
2.8842
2.89306
2.40663
2.31932
2.3222
2.33323
2.3462
2.35524
2.36097
2.36441
2.36648
2.36783
2.36906
2.37077
2.37182
2.37146
2.37085
2.3704
2.37015
2.37003
2.36999
2.37003
2.3702
2.3707
2.37183
2.37232
2.37142
2.37047
2.36993
2.3701
2.37116
2.37174
2.37106
2.37036
2.37028
2.37149
2.37489
2.37411
2.37235
2.37105
2.37064
2.3714
2.35569
2.26913
2.26169
2.2731
2.28484
2.29342
2.29903
2.30252
2.30461
2.30587
2.30675
2.30773
2.30859
2.30895
2.30905
2.30909
2.30911
2.30913
2.30914
2.30915
2.30918
2.30925
2.30945
2.30923
2.30855
2.30796
2.30762
2.30758
2.30789
2.30809
2.30784
2.30756
2.30737
2.30715
2.30633
2.30722
2.30758
2.30759
2.30764
2.30792
2.32245
2.25666
2.24387
2.25063
2.25989
2.2675
2.27275
2.27609
2.2781
2.27929
2.28008
2.28087
2.28213
2.28307
2.28361
2.28389
2.28403
2.2841
2.28413
2.28414
2.28412
2.28402
2.28367
2.28266
2.28178
2.28124
2.28095
2.28083
2.28081
2.28081
2.28077
2.28073
2.28071
2.28074
2.28096
2.28161
2.28139
2.28109
2.28092
2.28085
2.30495
2.25541
2.24833
2.25495
2.26376
2.27101
2.27605
2.27927
2.28121
2.28234
2.28299
2.28343
2.28383
2.28417
2.28441
2.28458
2.28468
2.28474
2.28477
2.28478
2.28478
2.28475
2.28466
2.28444
2.28419
2.284
2.28388
2.28382
2.2838
2.28379
2.28377
2.28375
2.28374
2.28373
2.28371
2.2837
2.28371
2.28373
2.28375
2.28377
2.28776
2.25333
2.25168
2.26048
2.27007
2.27756
2.28268
2.28591
2.28783
2.2889
2.28945
2.28959
2.28982
2.29006
2.29026
2.29041
2.2905
2.29056
2.2906
2.29063
2.29064
2.29066
2.29069
2.29067
2.29059
2.2905
2.29045
2.29043
2.29045
2.29047
2.29044
2.2904
2.29036
2.29033
2.29028
2.2902
2.29017
2.29019
2.29027
2.29035
2.29666
2.27792
2.28331
2.29483
2.30556
2.31352
2.31884
2.32216
2.32414
2.32531
2.32597
2.32533
2.32578
2.32614
2.32635
2.32648
2.32656
2.32661
2.32665
2.3267
2.32678
2.32697
2.32739
2.32762
2.32737
2.32707
2.32691
2.32698
2.32735
2.32756
2.32731
2.327
2.32683
2.32682
2.32703
2.32702
2.32674
2.32658
2.32674
2.3272
2.37676
2.35891
2.36858
2.38334
2.39592
2.40486
2.41064
2.41421
2.41646
2.41833
2.42093
2.42445
2.42235
2.4204
2.4193
2.41881
2.41863
2.41861
2.41863
2.41872
2.41896
2.41961
2.42101
2.42173
2.42093
2.42005
2.41959
2.41989
2.4211
2.42174
2.42091
2.41999
2.41945
2.41944
2.41969
2.41748
2.41793
2.41851
2.41937
2.42096
2.69892
2.78987
2.83651
2.8652
2.88366
2.89516
2.90209
2.90623
2.9092
2.91314
2.92429
2.93037
2.9218
2.9153
2.91254
2.91143
2.91104
2.91093
2.91097
2.91115
2.91182
2.9144
2.92459
2.92858
2.92054
2.91499
2.91326
2.91499
2.92475
2.92861
2.92053
2.91494
2.91309
2.9147
2.92436
2.93252
2.92146
2.91492
2.91542
2.92464
2.15268
2.08827
2.09852
2.11024
2.11781
2.12282
2.12583
2.12764
2.12907
2.13118
2.13715
2.13947
2.13634
2.13271
2.13078
2.12996
2.12965
2.12957
2.12959
2.12972
2.13016
2.13169
2.13724
2.13889
2.13579
2.13248
2.13103
2.13192
2.13731
2.13892
2.13579
2.13249
2.13096
2.13179
2.13729
2.1409
2.13697
2.13243
2.13205
2.13712
2.70135
2.7937
2.84384
2.89173
2.9056
2.90441
2.90549
2.90728
2.90907
2.91086
2.91409
2.9246
2.92871
2.92067
2.91501
2.91267
2.91171
2.91134
2.91126
2.91139
2.91203
2.91459
2.92476
2.9287
2.92063
2.91504
2.91328
2.915
2.92476
2.92865
2.92061
2.91521
2.91464
2.91922
2.924
2.9276
2.91939
2.9147
2.91565
2.92506
1.73213
1.70146
1.70034
1.69206
1.70872
1.72269
1.72852
1.73113
1.73246
1.73309
1.73236
1.72543
1.72511
1.73241
1.73406
1.73434
1.73436
1.73435
1.73434
1.73429
1.73409
1.73291
1.72571
1.72523
1.73244
1.73403
1.73421
1.73297
1.72569
1.72518
1.73241
1.734
1.73372
1.7298
1.7293
1.72306
1.73175
1.73378
1.73303
1.72582
1.66861
1.63213
1.6238
1.63132
1.63427
1.6395
1.64333
1.64564
1.64696
1.6476
1.64754
1.64634
1.64625
1.64768
1.64847
1.64878
1.64887
1.64889
1.64889
1.64886
1.64874
1.64822
1.64674
1.64645
1.64774
1.64842
1.64855
1.6481
1.64663
1.64634
1.64766
1.64832
1.64822
1.64663
1.6414
1.64472
1.64722
1.6482
1.64806
1.6467
1.70096
1.67063
1.65773
1.65398
1.65498
1.65745
1.65974
1.66143
1.66254
1.66322
1.66357
1.66353
1.66345
1.66363
1.66375
1.66383
1.66388
1.66389
1.6639
1.6639
1.66387
1.66383
1.66367
1.66375
1.66402
1.66415
1.66418
1.66414
1.66391
1.66383
1.66402
1.66413
1.6643
1.66479
1.66658
1.66474
1.66426
1.66417
1.66412
1.66392
1.72194
1.69801
1.68711
1.68506
1.68632
1.68861
1.69067
1.69221
1.69326
1.69392
1.69427
1.69416
1.69253
1.6918
1.69154
1.69145
1.69143
1.69143
1.69144
1.69145
1.69149
1.69162
1.69211
1.69393
1.69464
1.69485
1.6949
1.69493
1.69497
1.69499
1.69495
1.69493
1.69495
1.69503
1.69499
1.69349
1.69437
1.69473
1.69487
1.69496
1.72336
1.70442
1.6961
1.69518
1.69687
1.69915
1.70119
1.70272
1.70377
1.70445
1.70487
1.70509
1.70504
1.70494
1.70488
1.70485
1.70484
1.70485
1.70485
1.70486
1.70489
1.70494
1.70507
1.70528
1.7054
1.70544
1.70545
1.70546
1.70548
1.70549
1.70548
1.70546
1.70546
1.70546
1.70542
1.70526
1.70534
1.70539
1.70542
1.70544
1.70072
1.68792
1.68275
1.68314
1.68527
1.68793
1.6901
1.69167
1.69273
1.69344
1.69406
1.69475
1.69459
1.69432
1.69421
1.69418
1.69418
1.69419
1.6942
1.69421
1.69423
1.69427
1.69438
1.69444
1.69439
1.69435
1.69434
1.69436
1.69444
1.69446
1.69438
1.69434
1.69433
1.69435
1.69441
1.69438
1.69438
1.69433
1.69431
1.69435
1.665
1.65405
1.65083
1.65258
1.65566
1.65869
1.66113
1.66282
1.6639
1.66454
1.6652
1.66755
1.66602
1.66549
1.66544
1.66547
1.6655
1.66553
1.66554
1.66554
1.66551
1.66539
1.66516
1.66509
1.66527
1.66542
1.66547
1.66539
1.66516
1.66508
1.66525
1.6654
1.66546
1.66541
1.66535
1.66579
1.66558
1.6654
1.66523
1.66496
1.64471
1.63431
1.63368
1.63775
1.6426
1.64673
1.64968
1.65157
1.6526
1.65264
1.65072
1.64652
1.65147
1.65344
1.6541
1.65431
1.65438
1.6544
1.65441
1.6544
1.65428
1.65378
1.6523
1.65203
1.65339
1.6541
1.65425
1.65381
1.65232
1.65204
1.65338
1.65407
1.65421
1.65382
1.65293
1.65682
1.65438
1.65396
1.65352
1.65209
1.73277
1.70242
1.70437
1.71177
1.71903
1.7247
1.72849
1.73086
1.73218
1.73179
1.72488
1.7244
1.73196
1.73383
1.73413
1.73416
1.73416
1.73417
1.73417
1.73414
1.73395
1.73278
1.7256
1.72514
1.73238
1.73399
1.73418
1.73296
1.72568
1.72516
1.73237
1.73397
1.7341
1.73272
1.7247
1.71869
1.73049
1.73318
1.73267
1.72553
2.83285
2.79067
2.8099
2.83451
2.85225
2.86354
2.87045
2.87458
2.87753
2.88136
2.89202
2.89716
2.88908
2.8833
2.88089
2.8799
2.87953
2.87941
2.87942
2.87958
2.8802
2.88267
2.89247
2.89623
2.88842
2.88317
2.88157
2.88325
2.89264
2.89627
2.88842
2.88313
2.88143
2.88306
2.89257
2.90109
2.89011
2.8835
2.88383
2.89261
2.37822
2.36104
2.3705
2.38379
2.39738
2.4062
2.41165
2.41496
2.41695
2.41828
2.41952
2.42117
2.42194
2.42107
2.42005
2.41934
2.41895
2.41876
2.4187
2.41876
2.41898
2.41961
2.421
2.42172
2.42091
2.42003
2.41958
2.41987
2.4211
2.42175
2.42096
2.42016
2.41987
2.42029
2.42016
2.41794
2.41857
2.41906
2.41978
2.42127
1.64446
1.63409
1.63375
1.63927
1.64093
1.64571
1.64934
1.65155
1.65282
1.65343
1.65335
1.6521
1.65196
1.65338
1.65413
1.6544
1.65447
1.65448
1.65447
1.65445
1.65432
1.65382
1.65232
1.65205
1.6534
1.6541
1.65425
1.65381
1.65232
1.65205
1.6534
1.65409
1.65417
1.65368
1.65448
1.6584
1.65528
1.65451
1.65387
1.65234
1.64934
1.63838
1.63495
1.63615
1.63812
1.64075
1.64302
1.64467
1.64575
1.64635
1.64655
1.64637
1.64638
1.64676
1.6471
1.64731
1.64741
1.64746
1.64747
1.64745
1.64736
1.64713
1.6467
1.64655
1.64684
1.6471
1.64719
1.64705
1.64666
1.64653
1.64682
1.64707
1.64712
1.64688
1.64648
1.64703
1.64718
1.6472
1.64705
1.64667
1.70369
1.69636
1.69306
1.69313
1.69432
1.69619
1.69791
1.69927
1.70023
1.70085
1.70117
1.70129
1.70136
1.70148
1.70159
1.70167
1.70172
1.70175
1.70176
1.70175
1.70171
1.70165
1.70156
1.70154
1.70163
1.70173
1.70177
1.70173
1.70163
1.70159
1.70166
1.70174
1.70179
1.70177
1.70166
1.70171
1.70177
1.70178
1.70172
1.70161
1.74138
1.73673
1.73469
1.7348
1.73589
1.73747
1.73895
1.74013
1.741
1.74158
1.74194
1.74213
1.74208
1.74197
1.7419
1.74187
1.74185
1.74184
1.74184
1.74185
1.74187
1.74193
1.74207
1.7423
1.74243
1.74251
1.74254
1.74256
1.74257
1.74258
1.74257
1.74258
1.7426
1.74264
1.74268
1.74257
1.74254
1.74254
1.74253
1.74251
1.75212
1.74926
1.74831
1.74888
1.75026
1.75188
1.75334
1.75449
1.75533
1.75591
1.75631
1.75659
1.7567
1.75669
1.75665
1.75661
1.75659
1.75658
1.75657
1.75658
1.75661
1.75666
1.75677
1.75685
1.75688
1.75689
1.75689
1.7569
1.75693
1.75694
1.75693
1.75692
1.75693
1.75697
1.75705
1.75704
1.75698
1.75692
1.75687
1.75685
1.73521
1.73299
1.73262
1.73353
1.7352
1.73696
1.7385
1.73968
1.74053
1.74111
1.74152
1.74185
1.74197
1.74199
1.74199
1.74199
1.74198
1.74198
1.74198
1.74199
1.74199
1.74201
1.74204
1.74206
1.74206
1.74206
1.74206
1.74206
1.74208
1.74208
1.74206
1.74207
1.74209
1.74214
1.74224
1.74233
1.74219
1.74209
1.74202
1.74197
1.69571
1.69186
1.69098
1.69192
1.69383
1.69578
1.69746
1.69873
1.69959
1.7001
1.70036
1.70055
1.70077
1.70091
1.70103
1.7011
1.70114
1.70116
1.70117
1.70116
1.70112
1.70104
1.70092
1.70087
1.70093
1.70102
1.70106
1.70101
1.70091
1.70086
1.70093
1.70102
1.70108
1.70108
1.70106
1.70111
1.70108
1.70102
1.70091
1.70077
1.65047
1.63995
1.63645
1.63709
1.63921
1.64154
1.64349
1.64489
1.64576
1.64609
1.64591
1.64563
1.64628
1.64682
1.64715
1.64732
1.64739
1.64743
1.64743
1.64741
1.64733
1.6471
1.64667
1.64653
1.64682
1.64708
1.64718
1.64705
1.64666
1.64652
1.64681
1.64708
1.64718
1.64708
1.64681
1.64698
1.64695
1.64695
1.64683
1.64648
1.67544
1.64027
1.63134
1.63283
1.63697
1.64093
1.64388
1.64582
1.6469
1.64711
1.64607
1.64629
1.64754
1.64828
1.64857
1.64865
1.64867
1.64868
1.64868
1.64866
1.64854
1.64804
1.64658
1.64632
1.64764
1.64835
1.64851
1.64807
1.64661
1.64633
1.64764
1.64833
1.64846
1.64794
1.6463
1.64581
1.647
1.64778
1.6477
1.64642
2.40352
2.3143
2.31759
2.33225
2.34545
2.35481
2.36081
2.36447
2.36673
2.36842
2.37021
2.37105
2.37061
2.36995
2.36945
2.36915
2.369
2.36894
2.36895
2.36901
2.3692
2.36975
2.371
2.37167
2.371
2.37023
2.36981
2.37003
2.37112
2.37171
2.37101
2.37021
2.36978
2.37
2.37105
2.3717
2.37084
2.37008
2.37008
2.37102
2.29924
2.28172
2.28734
2.29796
2.30795
2.31537
2.32044
2.32369
2.32567
2.32687
2.32763
2.32823
2.32828
2.32777
2.32725
2.32692
2.32674
2.32665
2.32662
2.32663
2.32669
2.32687
2.3273
2.32753
2.32729
2.32701
2.32687
2.32696
2.32734
2.32757
2.32734
2.32708
2.32699
2.32719
2.3276
2.3286
2.32778
2.32716
2.32704
2.32739
1.66147
1.64916
1.64598
1.65063
1.65438
1.65791
1.66056
1.66241
1.66359
1.66428
1.66462
1.66466
1.66485
1.66517
1.6654
1.66552
1.66556
1.66557
1.66557
1.66556
1.66551
1.66539
1.66516
1.66507
1.66525
1.6654
1.66546
1.66537
1.66515
1.66508
1.66526
1.66542
1.66546
1.66532
1.66493
1.66279
1.66463
1.66523
1.66527
1.66505
1.69504
1.6908
1.68971
1.69102
1.69304
1.6952
1.69703
1.69844
1.69942
1.70005
1.70038
1.70053
1.70064
1.70081
1.70096
1.70108
1.70114
1.70117
1.70118
1.70117
1.70113
1.70104
1.70092
1.70087
1.70093
1.70101
1.70105
1.70101
1.70091
1.70087
1.70094
1.70102
1.70105
1.70099
1.7008
1.70078
1.70093
1.70101
1.70097
1.70086
1.75589
1.75529
1.75574
1.75702
1.75867
1.76035
1.7618
1.76295
1.76379
1.76437
1.76475
1.765
1.76515
1.76522
1.76528
1.76531
1.76533
1.76534
1.76534
1.76534
1.76534
1.76535
1.76537
1.76538
1.76536
1.76537
1.76538
1.76538
1.76539
1.76539
1.76538
1.7654
1.76544
1.76548
1.76554
1.76553
1.76547
1.76541
1.76534
1.76529
1.79664
1.79782
1.79929
1.80097
1.80267
1.80426
1.80559
1.80664
1.80742
1.80799
1.80839
1.80872
1.80888
1.8089
1.80887
1.80884
1.80881
1.8088
1.80879
1.8088
1.80883
1.8089
1.80903
1.80908
1.80905
1.80903
1.80902
1.80904
1.80909
1.80911
1.80908
1.80908
1.80911
1.80919
1.80933
1.8093
1.80916
1.80906
1.80899
1.80894
1.80978
1.81168
1.81361
1.81554
1.81737
1.81898
1.82031
1.82134
1.82211
1.82268
1.82311
1.82347
1.82369
1.8237
1.82366
1.82362
1.82358
1.82355
1.82354
1.82356
1.8236
1.82369
1.82384
1.82386
1.8238
1.82374
1.82372
1.82373
1.82379
1.82381
1.82378
1.82377
1.8238
1.82389
1.82406
1.82403
1.82387
1.82375
1.82366
1.82362
1.79547
1.79706
1.79884
1.80072
1.80255
1.80419
1.80554
1.80658
1.80735
1.80791
1.80832
1.80865
1.80884
1.80888
1.80888
1.80886
1.80884
1.80883
1.80883
1.80883
1.80886
1.80891
1.809
1.80902
1.80898
1.80894
1.80892
1.80893
1.80897
1.80899
1.80896
1.80896
1.809
1.80912
1.8092
1.80912
1.80902
1.80892
1.80885
1.80881
1.75607
1.75557
1.75607
1.75734
1.75898
1.76061
1.76201
1.7631
1.76388
1.76441
1.76475
1.76502
1.7652
1.76529
1.76534
1.76537
1.76538
1.76539
1.76539
1.76539
1.76538
1.76538
1.76539
1.76539
1.76537
1.76537
1.76537
1.76537
1.76537
1.76536
1.76536
1.76538
1.76542
1.76547
1.76555
1.76552
1.76541
1.76534
1.76527
1.76522
1.70391
1.69661
1.6935
1.69351
1.69479
1.69658
1.69819
1.69944
1.7003
1.70081
1.70104
1.70116
1.70139
1.7016
1.70174
1.70182
1.70186
1.70188
1.70188
1.70187
1.70183
1.70175
1.70164
1.70159
1.70165
1.70173
1.70177
1.70173
1.70162
1.70158
1.70164
1.70173
1.70178
1.70175
1.70167
1.70157
1.70159
1.70162
1.70158
1.70148
1.69914
1.66786
1.65476
1.65315
1.6551
1.65766
1.65994