/*--------------------------------*- C++ -*----------------------------------*\
| =========                 |                                                 |
| \\      /  F ield         | OpenFOAM: The Open Source CFD Toolbox           |
|  \\    /   O peration     | Version:  2212                                  |
|   \\  /    A nd           | Website:  www.openfoam.com                      |
|    \\/     M anipulation  |                                                 |
\*---------------------------------------------------------------------------*/
FoamFile
{
    version     2.0;
    format      ascii;
    arch        "LSB;label=32;scalar=64";
    class       volScalarField;
    location    "0.05";
    object      k;
}
// * * * * * * * * * * * * * * * * * * * * * * * * * * * * * * * * * * * * * //

dimensions      [0 2 -2 0 0 0 0];

internalField   nonuniform List<scalar> 
6840
(
0.213599
0.0563169
0.0294068
0.02064
0.0170453
0.0155656
0.0147666
0.014357
0.014128
0.014005
0.0139422
0.0139115
0.013905
0.0139228
0.013928
0.0139138
0.0138919
0.013871
0.0138528
0.0140474
0.264797
0.105739
0.0616003
0.0450887
0.0377584
0.0341469
0.03226
0.0312122
0.0305809
0.0302442
0.0300733
0.0299907
0.0299759
0.030032
0.0300492
0.0299776
0.0299012
0.029827
0.0297293
0.0298545
0.283419
0.127671
0.0746444
0.0525126
0.043554
0.0392392
0.0369372
0.0357012
0.0350333
0.0346672
0.0344717
0.0343698
0.0343194
0.0342968
0.0342831
0.0342571
0.0342196
0.0341599
0.0340919
0.0344189
0.292374
0.142609
0.0850628
0.0600855
0.0493947
0.0444685
0.0418057
0.0403657
0.0395906
0.0391743
0.0389518
0.0388339
0.0387718
0.0387389
0.0387167
0.0386906
0.0386522
0.0385923
0.0385317
0.0388513
0.296028
0.149801
0.0903333
0.0638868
0.0522789
0.0472203
0.0443928
0.0428436
0.0420043
0.0415527
0.0413111
0.0411822
0.041113
0.0410739
0.0410473
0.0410208
0.0409833
0.0409244
0.0408619
0.041105
0.296028
0.149801
0.0903334
0.0638868
0.0522789
0.0472203
0.0443928
0.0428437
0.0420044
0.0415528
0.0413112
0.0411824
0.0411131
0.0410728
0.0410467
0.0410209
0.0409843
0.0409258
0.0408561
0.0410118
0.292374
0.142609
0.0850628
0.0600855
0.0493947
0.0444685
0.0418057
0.0403658
0.0395907
0.0391746
0.0389529
0.0388372
0.0387811
0.0387545
0.0387276
0.0386969
0.0386571
0.0385974
0.0385201
0.0385947
0.283419
0.127671
0.0746443
0.0525126
0.0435539
0.0392392
0.0369372
0.0357013
0.0350335
0.0346678
0.0344733
0.0343745
0.0343303
0.0343094
0.0342852
0.0342577
0.0342206
0.0341635
0.0340795
0.0340785
0.264797
0.105739
0.0616002
0.0450885
0.0377583
0.0341468
0.0322599
0.0312122
0.0305811
0.0302449
0.0300767
0.0300177
0.0300571
0.0300681
0.0299976
0.0299301
0.02988
0.0298208
0.0297287
0.0295419
0.213599
0.0563169
0.0294067
0.02064
0.0170452
0.0155655
0.0147666
0.014357
0.0141281
0.0140053
0.0139417
0.0139185
0.0139296
0.0139331
0.0139187
0.0138987
0.0138824
0.0138661
0.0138507
0.0140448
0.264797
0.105739
0.0616003
0.0450887
0.0377584
0.0341469
0.03226
0.0312122
0.0305809
0.0302442
0.0300733
0.0299907
0.0299759
0.030032
0.0300493
0.0299781
0.0299022
0.0298307
0.0297338
0.0295477
0.312002
0.200073
0.13795
0.105398
0.0879925
0.0786531
0.0735912
0.0708323
0.069301
0.0684631
0.0680168
0.0677869
0.0676806
0.0676567
0.0676271
0.0675555
0.0674509
0.0672918
0.0670118
0.0664239
0.317947
0.220813
0.159365
0.123978
0.104081
0.0929114
0.0866749
0.0832114
0.0812946
0.0802315
0.0796482
0.0793332
0.0791637
0.0790661
0.0790001
0.0789331
0.0788298
0.0786567
0.0783704
0.0779268
0.320257
0.230508
0.171042
0.134996
0.113909
0.101756
0.0947978
0.0908425
0.0886147
0.0873701
0.0866797
0.0862991
0.0860876
0.0859632
0.0858758
0.08579
0.0856739
0.0854901
0.0852016
0.0847932
0.32109
0.234521
0.176299
0.140184
0.118696
0.106157
0.0988959
0.0947251
0.092351
0.0910125
0.0902646
0.0898491
0.0896165
0.0894792
0.0893823
0.0892877
0.0891629
0.0889689
0.0886651
0.0882257
0.32109
0.234521
0.176299
0.140184
0.118696
0.106157
0.098896
0.0947251
0.0923511
0.0910127
0.0902649
0.0898495
0.0896169
0.0894791
0.0893831
0.0892893
0.0891654
0.0889726
0.0886701
0.0882276
0.320257
0.230508
0.171042
0.134996
0.113909
0.101756
0.0947978
0.0908426
0.088615
0.0873707
0.0866811
0.0863019
0.0860935
0.0859757
0.085888
0.0857999
0.0856822
0.0855001
0.0852156
0.0848031
0.317947
0.220813
0.159365
0.123978
0.104081
0.0929112
0.0866749
0.0832115
0.0812951
0.0802328
0.0796511
0.0793385
0.0791706
0.0790796
0.0790134
0.0789388
0.0788324
0.0786627
0.0783858
0.0779546
0.312002
0.200073
0.13795
0.105397
0.0879921
0.0786528
0.073591
0.0708323
0.0693015
0.0684649
0.0680225
0.0678051
0.067728
0.0676793
0.0676109
0.0675317
0.0674328
0.0672804
0.0670034
0.0664117
0.264797
0.105739
0.0616002
0.0450885
0.0377582
0.0341467
0.0322599
0.0312122
0.0305811
0.0302449
0.0300766
0.0300175
0.0300567
0.0300669
0.0299963
0.029929
0.0298786
0.0298172
0.029725
0.0298476
0.283419
0.127671
0.0746444
0.0525127
0.043554
0.0392393
0.0369373
0.0357013
0.0350334
0.0346672
0.0344718
0.0343699
0.0343196
0.0342972
0.0342838
0.0342584
0.0342222
0.0341654
0.0340822
0.0340848
0.317947
0.220813
0.159365
0.123978
0.104081
0.0929115
0.086675
0.0832115
0.0812947
0.0802316
0.0796483
0.0793334
0.0791641
0.0790668
0.0790014
0.0789356
0.0788347
0.0786667
0.0783907
0.077963
0.322735
0.243306
0.187937
0.152081
0.129891
0.1165
0.108542
0.103867
0.101152
0.0995928
0.0987054
0.0982049
0.0979216
0.0977527
0.0976344
0.097521
0.0973715
0.09714
0.0967728
0.0962108
0.324234
0.250729
0.199254
0.164903
0.142824
0.128983
0.120453
0.11527
0.112163
0.110325
0.109251
0.108629
0.108267
0.108046
0.107889
0.107742
0.107557
0.107279
0.106844
0.106165
0.324761
0.253357
0.203583
0.17015
0.148395
0.134553
0.125887
0.120538
0.117281
0.115326
0.114167
0.113486
0.113085
0.112838
0.112661
0.112495
0.112291
0.111988
0.111512
0.110763
0.324761
0.253357
0.203583
0.17015
0.148395
0.134553
0.125887
0.120538
0.117281
0.115326
0.114167
0.113487
0.113086
0.112839
0.112662
0.112496
0.112293
0.111991
0.111517
0.110772
0.324234
0.250729
0.199254
0.164903
0.142823
0.128983
0.120453
0.11527
0.112163
0.110326
0.109252
0.108631
0.108269
0.108049
0.107893
0.107745
0.10756
0.107285
0.106853
0.106179
0.322735
0.243305
0.187937
0.15208
0.12989
0.1165
0.108542
0.103867
0.101152
0.0995935
0.0987071
0.0982076
0.0979245
0.0977565
0.0976382
0.0975222
0.0973707
0.0971386
0.0967714
0.0962093
0.317947
0.220813
0.159365
0.123978
0.10408
0.092911
0.0866746
0.0832112
0.0812947
0.0802324
0.0796504
0.0793368
0.0791664
0.0790716
0.0790054
0.0789316
0.0788252
0.0786526
0.0783671
0.0779217
0.283419
0.127671
0.0746443
0.0525125
0.0435538
0.039239
0.036937
0.0357011
0.0350333
0.0346675
0.0344728
0.0343733
0.0343272
0.0343036
0.0342788
0.0342524
0.0342157
0.0341572
0.0340898
0.0344123
0.292374
0.142609
0.0850628
0.0600856
0.0493948
0.0444686
0.0418058
0.0403658
0.0395906
0.0391743
0.0389519
0.0388341
0.0387722
0.0387396
0.0387177
0.0386921
0.0386551
0.038597
0.0385207
0.0385971
0.320257
0.230508
0.171043
0.134996
0.113909
0.101757
0.094798
0.0908426
0.0886149
0.0873703
0.08668
0.0862995
0.0860884
0.0859644
0.0858777
0.0857931
0.0856792
0.0854995
0.0852165
0.0848057
0.324234
0.250729
0.199254
0.164903
0.142824
0.128983
0.120454
0.11527
0.112163
0.110325
0.109252
0.108629
0.108267
0.108047
0.10789
0.107743
0.107559
0.107285
0.106853
0.10618
0.325497
0.257097
0.209845
0.177882
0.156723
0.142959
0.134134
0.128554
0.125077
0.122942
0.121651
0.120877
0.120413
0.120122
0.119913
0.119719
0.119484
0.119143
0.118609
0.117763
0.325926
0.259184
0.213594
0.182835
0.162355
0.148875
0.140098
0.134451
0.130868
0.128628
0.127247
0.126406
0.125895
0.125571
0.125335
0.125116
0.124854
0.124478
0.123895
0.122971
0.325926
0.259184
0.213594
0.182835
0.162355
0.148875
0.140098
0.134451
0.130868
0.128628
0.127248
0.126407
0.125896
0.125572
0.125336
0.125116
0.124855
0.124479
0.123897
0.122975
0.325497
0.257097
0.209845
0.177882
0.156723
0.142959
0.134134
0.128554
0.125077
0.122943
0.121651
0.120878
0.120415
0.120124
0.119914
0.11972
0.119485
0.119143
0.118609
0.117764
0.324234
0.250729
0.199254
0.164903
0.142823
0.128983
0.120453
0.11527
0.112163
0.110326
0.109252
0.10863
0.108269
0.108048
0.107891
0.107742
0.107557
0.10728
0.106845
0.106167
0.320257
0.230507
0.171042
0.134995
0.113909
0.101756
0.0947972
0.0908419
0.0886143
0.08737
0.08668
0.0862997
0.0860883
0.0859648
0.0858779
0.0857915
0.0856747
0.0854915
0.085205
0.0848006
0.292374
0.142609
0.0850627
0.0600854
0.0493945
0.0444682
0.0418053
0.0403653
0.0395902
0.0391741
0.0389521
0.0388353
0.0387749
0.0387416
0.0387161
0.038689
0.0386513
0.0385925
0.0385338
0.0388577
0.296028
0.149801
0.0903334
0.0638868
0.052279
0.0472204
0.0443929
0.0428437
0.0420044
0.0415528
0.0413113
0.0411825
0.0411136
0.041075
0.0410486
0.0410222
0.040985
0.0409262
0.0408561
0.041011
0.32109
0.234521
0.176299
0.140184
0.118696
0.106157
0.0988961
0.0947252
0.0923512
0.0910127
0.0902649
0.0898496
0.0896174
0.0894806
0.0893839
0.0892898
0.0891657
0.0889729
0.0886704
0.0882277
0.324761
0.253357
0.203583
0.17015
0.148395
0.134553
0.125888
0.120538
0.117281
0.115326
0.114167
0.113486
0.113085
0.112838
0.112662
0.112496
0.112293
0.111991
0.111518
0.110773
0.325926
0.259184
0.213594
0.182835
0.162355
0.148875
0.140098
0.134451
0.130868
0.128628
0.127248
0.126406
0.125895
0.125571
0.125335
0.125116
0.124855
0.12448
0.123897
0.122975
0.326315
0.261053
0.217048
0.187548
0.16787
0.1548
0.146169
0.140519
0.136866
0.134538
0.133075
0.132163
0.131626
0.131273
0.131007
0.130757
0.13046
0.13004
0.129401
0.128407
0.326315
0.261053
0.217048
0.187548
0.16787
0.1548
0.146169
0.140519
0.136866
0.134538
0.133075
0.132163
0.131627
0.131274
0.131008
0.130758
0.13046
0.13004
0.129401
0.128408
0.325926
0.259184
0.213594
0.182835
0.162355
0.148875
0.140098
0.134452
0.130868
0.128628
0.127248
0.126407
0.125897
0.125572
0.125335
0.125116
0.124854
0.124479
0.123896
0.122973
0.32476
0.253357
0.203583
0.17015
0.148394
0.134553
0.125887
0.120538
0.117281
0.115325
0.114167
0.113487
0.113086
0.112839
0.112661
0.112495
0.112291
0.111989
0.111515
0.110766
0.32109
0.234521
0.176298
0.140184
0.118696
0.106156
0.098895
0.0947241
0.0923502
0.091012
0.0902645
0.0898495
0.0896176
0.0894806
0.0893836
0.0892889
0.0891644
0.088971
0.0886688
0.088232
0.296028
0.149801
0.0903333
0.0638867
0.0522786
0.0472198
0.0443919
0.0428427
0.0420035
0.0415522
0.0413109
0.0411824
0.0411138
0.0410751
0.0410483
0.0410215
0.040984
0.0409255
0.0408639
0.0411088
0.296028
0.149801
0.0903334
0.0638868
0.052279
0.0472204
0.0443928
0.0428437
0.0420044
0.0415528
0.0413112
0.0411825
0.0411135
0.0410749
0.0410484
0.0410218
0.0409841
0.0409252
0.0408628
0.0411063
0.32109
0.234521
0.176299
0.140184
0.118696
0.106157
0.0988961
0.0947252
0.0923512
0.0910127
0.0902649
0.0898495
0.0896173
0.0894804
0.0893835
0.089289
0.0891642
0.0889703
0.0886669
0.0882285
0.324761
0.253357
0.203583
0.17015
0.148395
0.134553
0.125888
0.120538
0.117281
0.115326
0.114167
0.113486
0.113085
0.112838
0.112661
0.112496
0.112291
0.111989
0.111514
0.110765
0.325926
0.259184
0.213594
0.182835
0.162355
0.148875
0.140099
0.134452
0.130868
0.128628
0.127248
0.126406
0.125895
0.125571
0.125335
0.125116
0.124855
0.124479
0.123896
0.122973
0.326315
0.261053
0.217048
0.187548
0.16787
0.1548
0.146169
0.14052
0.136866
0.134538
0.133075
0.132163
0.131626
0.131273
0.131007
0.130757
0.13046
0.130041
0.129401
0.128408
0.326315
0.261053
0.217048
0.187548
0.16787
0.1548
0.14617
0.14052
0.136866
0.134538
0.133075
0.132164
0.131627
0.131274
0.131008
0.130758
0.13046
0.130041
0.129402
0.128408
0.325926
0.259184
0.213594
0.182835
0.162355
0.148876
0.140099
0.134452
0.130868
0.128628
0.127248
0.126407
0.125897
0.125572
0.125335
0.125116
0.124855
0.12448
0.123898
0.122976
0.324761
0.253357
0.203583
0.17015
0.148395
0.134553
0.125888
0.120539
0.117281
0.115326
0.114167
0.113487
0.113086
0.112839
0.112662
0.112496
0.112293
0.111992
0.11152
0.110775
0.32109
0.234521
0.176299
0.140184
0.118696
0.106157
0.0988947
0.0947245
0.0923509
0.0910125
0.0902647
0.0898496
0.0896176
0.0894808
0.089384
0.0892899
0.0891661
0.0889743
0.0886736
0.088234
0.296028
0.149801
0.0903334
0.0638868
0.0522788
0.0472199
0.0443908
0.0428422
0.0420034
0.0415521
0.0413108
0.0411824
0.0411138
0.0410752
0.0410484
0.0410219
0.040985
0.0409268
0.0408582
0.0410165
0.292374
0.142609
0.0850628
0.0600855
0.0493947
0.0444685
0.0418057
0.0403658
0.0395906
0.0391743
0.0389519
0.0388341
0.0387721
0.0387394
0.0387172
0.0386913
0.0386529
0.0385933
0.0385338
0.038857
0.320257
0.230508
0.171042
0.134996
0.113909
0.101757
0.0947979
0.0908426
0.0886149
0.0873703
0.08668
0.0862994
0.0860882
0.085964
0.0858767
0.0857912
0.0856753
0.0854921
0.085205
0.0847995
0.324234
0.250729
0.199254
0.164903
0.142824
0.128983
0.120454
0.115271
0.112163
0.110326
0.109252
0.108629
0.108267
0.108047
0.10789
0.107742
0.107558
0.107281
0.106845
0.106167
0.325497
0.257097
0.209845
0.177882
0.156723
0.142959
0.134134
0.128555
0.125077
0.122943
0.121651
0.120877
0.120413
0.120123
0.119914
0.119719
0.119485
0.119144
0.11861
0.117764
0.325926
0.259184
0.213594
0.182835
0.162356
0.148876
0.1401
0.134452
0.130869
0.128629
0.127248
0.126407
0.125895
0.125571
0.125335
0.125116
0.124855
0.12448
0.123898
0.122976
0.325926
0.259184
0.213594
0.182835
0.162356
0.148877
0.1401
0.134452
0.130869
0.128629
0.127248
0.126407
0.125896
0.125572
0.125336
0.125116
0.124855
0.124479
0.123896
0.122973
0.325497
0.257097
0.209846
0.177883
0.156724
0.14296
0.134135
0.128555
0.125077
0.122943
0.121651
0.120878
0.120415
0.120124
0.119914
0.119719
0.119485
0.119144
0.11861
0.117765
0.324234
0.250729
0.199254
0.164903
0.142824
0.128984
0.120455
0.115272
0.112165
0.110326
0.109252
0.10863
0.108268
0.108048
0.107891
0.107743
0.10756
0.107285
0.106854
0.106182
0.320257
0.230508
0.171043
0.134996
0.11391
0.10176
0.0948078
0.0908527
0.0886213
0.0873734
0.0866813
0.0863001
0.0860884
0.0859651
0.0858789
0.0857936
0.085679
0.0854997
0.0852179
0.0848089
0.292374
0.142609
0.0850628
0.0600857
0.0493974
0.0444751
0.0418186
0.0403754
0.0395956
0.0391764
0.0389529
0.0388354
0.038775
0.0387417
0.0387164
0.03869
0.0386536
0.0385965
0.0385212
0.0385991
0.283419
0.127671
0.0746444
0.0525126
0.0435539
0.0392392
0.0369372
0.0357012
0.0350334
0.0346672
0.0344717
0.0343699
0.0343196
0.034297
0.0342834
0.0342575
0.03422
0.0341602
0.0340914
0.0344129
0.317947
0.220813
0.159365
0.123978
0.104081
0.0929114
0.086675
0.0832115
0.0812947
0.0802317
0.0796483
0.0793334
0.079164
0.0790665
0.0790007
0.0789338
0.0788306
0.0786574
0.07837
0.0779229
0.322735
0.243306
0.187937
0.152081
0.129891
0.116501
0.108542
0.103868
0.101153
0.0995931
0.0987058
0.0982052
0.0979219
0.097753
0.0976347
0.0975214
0.0973721
0.0971405
0.0967731
0.0962105
0.324234
0.250729
0.199254
0.164903
0.142824
0.128984
0.120454
0.115271
0.112164
0.110326
0.109252
0.10863
0.108268
0.108047
0.107891
0.107743
0.10756
0.107285
0.106853
0.10618
0.324761
0.253357
0.203583
0.170151
0.148395
0.134554
0.125889
0.12054
0.117283
0.115327
0.114168
0.113487
0.113086
0.112838
0.112662
0.112496
0.112293
0.111992
0.111519
0.110773
0.324761
0.253357
0.203583
0.170151
0.148395
0.134554
0.125889
0.12054
0.117282
0.115327
0.114168
0.113487
0.113086
0.112839
0.112662
0.112496
0.112292
0.111989
0.111514
0.110766
0.324234
0.250729
0.199254
0.164903
0.142824
0.128984
0.120455
0.115272
0.112164
0.110326
0.109252
0.108631
0.108269
0.108048
0.107892
0.107743
0.107558
0.107281
0.106845
0.106167
0.322735
0.243305
0.187937
0.152081
0.129891
0.116502
0.108545
0.10387
0.101153
0.0995925
0.0987055
0.0982062
0.0979234
0.0977557
0.0976377
0.097522
0.0973708
0.0971389
0.0967721
0.0962107
0.317947
0.220813
0.159365
0.123978
0.104082
0.0929187
0.0866908
0.083225
0.0812978
0.0802307
0.0796477
0.0793348
0.0791653
0.0790712
0.079006
0.0789335
0.0788296
0.078662
0.0783869
0.077958
0.283419
0.127671
0.0746445
0.0525126
0.0435548
0.0392444
0.0369506
0.03571
0.0350337
0.0346651
0.0344708
0.034372
0.0343265
0.0343034
0.0342791
0.0342533
0.0342182
0.0341626
0.0340799
0.0340805
0.264797
0.105739
0.0616003
0.0450886
0.0377584
0.034147
0.0322602
0.0312124
0.0305811
0.0302443
0.0300734
0.0299908
0.029976
0.0300321
0.0300493
0.0299777
0.0299013
0.0298268
0.0297279
0.0298491
0.312002
0.200073
0.13795
0.105398
0.0879925
0.0786534
0.0735917
0.0708329
0.0693016
0.0684636
0.0680171
0.0677871
0.0676808
0.0676569
0.0676273
0.0675557
0.067451
0.0672914
0.067009
0.0664142
0.317947
0.220813
0.159365
0.123978
0.104081
0.0929121
0.0866762
0.0832128
0.0812959
0.0802325
0.0796489
0.0793337
0.0791643
0.0790669
0.0790015
0.0789356
0.0788346
0.0786662
0.0783886
0.0779565
0.320257
0.230508
0.171043
0.134996
0.11391
0.101758
0.094801
0.0908459
0.0886177
0.0873723
0.0866812
0.0863001
0.0860885
0.0859642
0.0858774
0.0857928
0.085679
0.0854994
0.0852161
0.0848043
0.32109
0.234521
0.176299
0.140185
0.118697
0.10616
0.0989021
0.0947315
0.0923561
0.091016
0.0902668
0.0898505
0.0896175
0.08948
0.0893832
0.0892891
0.0891654
0.0889731
0.0886713
0.0882297
0.32109
0.234521
0.176299
0.140185
0.118697
0.10616
0.0989018
0.0947312
0.0923559
0.0910159
0.0902668
0.0898505
0.0896174
0.0894791
0.0893828
0.0892887
0.0891641
0.0889704
0.0886676
0.0882297
0.320257
0.230508
0.171042
0.134996
0.11391
0.101758
0.0948014
0.0908468
0.0886179
0.087372
0.0866813
0.0863017
0.0860931
0.085975
0.0858867
0.0857978
0.0856783
0.0854931
0.0852054
0.0848001
0.317947
0.220813
0.159365
0.123978
0.104081
0.092916
0.0866846
0.0832193
0.0812941
0.0802288
0.0796472
0.0793358
0.0791688
0.0790783
0.079012
0.0789368
0.0788285
0.0786542
0.0783679
0.077922
0.312002
0.200073
0.13795
0.105397
0.087994
0.0786638
0.073603
0.0708167
0.0692806
0.0684493
0.068013
0.0678004
0.0677255
0.0676783
0.0676103
0.0675313
0.0674325
0.0672806
0.0670042
0.0664135
0.264797
0.105739
0.0616004
0.0450885
0.0377621
0.034166
0.0322611
0.0311445
0.0305407
0.0302259
0.0300681
0.0300141
0.0300551
0.0300664
0.029996
0.029929
0.0298793
0.0298206
0.029729
0.029543
0.213599
0.0563169
0.0294068
0.02064
0.0170453
0.0155656
0.0147667
0.0143571
0.0141281
0.0140051
0.0139423
0.0139115
0.013905
0.0139228
0.013928
0.0139138
0.0138919
0.0138709
0.0138522
0.0140451
0.264797
0.105739
0.0616003
0.0450886
0.0377584
0.0341471
0.0322604
0.0312126
0.0305813
0.0302444
0.0300735
0.0299908
0.0299759
0.0300321
0.0300493
0.0299781
0.0299021
0.0298303
0.0297322
0.0295429
0.283419
0.127671
0.0746444
0.0525127
0.0435542
0.0392397
0.036938
0.0357021
0.0350341
0.0346678
0.0344721
0.0343701
0.0343197
0.0342972
0.0342837
0.0342583
0.0342221
0.0341651
0.0340807
0.0340793
0.292374
0.142609
0.0850628
0.0600856
0.0493953
0.0444697
0.0418078
0.0403681
0.0395926
0.0391757
0.0389527
0.0388345
0.0387723
0.0387394
0.0387173
0.0386918
0.0386549
0.0385968
0.0385202
0.0385951
0.296028
0.149801
0.0903334
0.063887
0.05228
0.0472231
0.0443991
0.0428496
0.0420086
0.0415554
0.0413127
0.0411831
0.0411135
0.0410742
0.0410477
0.0410214
0.0409845
0.0409261
0.0408567
0.0410128
0.296028
0.149801
0.0903334
0.0638869
0.05228
0.0472231
0.0443991
0.0428494
0.0420084
0.0415552
0.0413125
0.0411831
0.0411134
0.0410729
0.0410466
0.0410206
0.0409834
0.0409249
0.0408631
0.0411073
0.292374
0.142609
0.0850628
0.0600856
0.0493961
0.0444712
0.0418087
0.040367
0.0395906
0.0391741
0.0389525
0.038837
0.0387809
0.0387542
0.0387271
0.038696
0.0386548
0.038594
0.0385342
0.0388574
0.283419
0.127671
0.0746444
0.0525124
0.0435538
0.039242
0.0369458
0.035705
0.0350301
0.0346631
0.0344701
0.0343728
0.0343292
0.0343088
0.0342845
0.0342567
0.0342183
0.0341585
0.0340903
0.0344124
0.264797
0.105739
0.0616003
0.0450884
0.037762
0.0341655
0.0322601
0.0311434
0.0305399
0.0302255
0.030068
0.0300142
0.0300556
0.0300675
0.0299972
0.0299297
0.0298789
0.0298174
0.0297254
0.0298483
0.213599
0.0563169
0.0294067
0.0206411
0.0170405
0.0155706
0.0147774
0.0143429
0.0141133
0.0139963
0.0139373
0.0139169
0.0139291
0.0139329
0.0139185
0.0138987
0.0138823
0.0138661
0.0138508
0.0140451
0.0144726
0.0140964
0.0141364
0.0142199
0.0142389
0.0142452
0.0142518
0.0142587
0.0142647
0.0142699
0.0142776
0.0142984
0.0143044
0.0142951
0.0142836
0.014277
0.0142738
0.0142724
0.0142721
0.0142725
0.0142743
0.0142801
0.0142997
0.0143051
0.0142954
0.0142836
0.0142775
0.0142804
0.0142994
0.0143047
0.0142953
0.014283
0.0142796
0.0142891
0.0142972
0.0143053
0.014295
0.0142821
0.0142816
0.0142996
0.0278818
0.0275961
0.0277359
0.0279766
0.0280818
0.0281015
0.0281249
0.0281485
0.0281666
0.0281816
0.0282018
0.028256
0.0282794
0.0282417
0.0282144
0.0282027
0.0281975
0.0281952
0.0281946
0.0281952
0.0281986
0.0282117
0.0282618
0.028282
0.0282424
0.028214
0.0282045
0.0282128
0.0282603
0.0282803
0.0282412
0.0282143
0.0282117
0.0282356
0.0282625
0.0282885
0.0282447
0.0282162
0.0282186
0.0282626
0.0319115
0.0311245
0.0311373
0.0312448
0.031373
0.0314658
0.0315271
0.0315663
0.0315912
0.0316078
0.0316217
0.031638
0.0316484
0.0316471
0.0316428
0.0316393
0.0316372
0.0316361
0.0316357
0.0316361
0.0316376
0.0316419
0.0316511
0.0316552
0.0316482
0.0316403
0.0316355
0.0316364
0.0316446
0.0316494
0.0316444
0.0316387
0.0316377
0.0316473
0.0316748
0.031669
0.0316551
0.0316446
0.0316411
0.0316465
0.0362562
0.0353372
0.035226
0.0353408
0.0354717
0.0355736
0.0356443
0.0356905
0.0357198
0.0357381
0.0357509
0.0357629
0.0357731
0.0357782
0.0357804
0.0357814
0.0357819
0.0357821
0.0357823
0.0357825
0.0357828
0.0357835
0.0357852
0.035783
0.0357764
0.0357704
0.0357667
0.0357657
0.0357683
0.03577
0.035768
0.0357653
0.0357634
0.035761
0.0357534
0.0357617
0.0357656
0.0357658
0.0357661
0.0357684
0.0386575
0.0378945
0.0377288
0.0377969
0.0379076
0.0380048
0.0380762
0.038124
0.0381546
0.0381736
0.0381862
0.0381973
0.0382125
0.0382241
0.0382311
0.038235
0.038237
0.038238
0.0382385
0.0382387
0.0382385
0.0382374
0.0382335
0.0382225
0.0382129
0.0382066
0.0382029
0.0382012
0.0382006
0.0382005
0.0382001
0.0381997
0.0381995
0.0381997
0.0382019
0.0382088
0.0382069
0.0382038
0.0382018
0.038201
0.039344
0.0387656
0.0386693
0.0387428
0.0388516
0.0389468
0.039017
0.0390644
0.0390947
0.0391133
0.0391246
0.0391321
0.0391383
0.0391433
0.0391469
0.0391493
0.0391508
0.0391517
0.0391522
0.0391524
0.0391525
0.0391521
0.039151
0.0391485
0.0391455
0.0391431
0.0391415
0.0391405
0.0391402
0.03914
0.0391397
0.0391395
0.0391394
0.0391393
0.0391394
0.0391399
0.0391397
0.0391395
0.0391395
0.0391396
0.0382245
0.0378599
0.0378349
0.0379345
0.0380505
0.0381465
0.0382158
0.0382622
0.0382915
0.0383091
0.0383187
0.0383225
0.0383266
0.0383306
0.0383335
0.0383355
0.0383368
0.0383376
0.0383381
0.0383384
0.0383387
0.038339
0.0383392
0.0383389
0.0383381
0.0383371
0.0383364
0.038336
0.0383361
0.0383362
0.038336
0.0383356
0.0383352
0.0383348
0.0383345
0.038334
0.0383335
0.0383335
0.038334
0.0383347
0.0355749
0.0354356
0.0354921
0.0356133
0.0357327
0.0358265
0.0358927
0.0359365
0.0359644
0.0359819
0.0359921
0.0359893
0.0359949
0.0359992
0.0360014
0.0360026
0.0360034
0.0360039
0.0360043
0.0360048
0.0360058
0.0360079
0.0360122
0.0360146
0.0360125
0.0360095
0.0360077
0.0360083
0.0360118
0.0360139
0.0360117
0.0360087
0.0360068
0.0360065
0.0360084
0.0360082
0.0360058
0.0360045
0.0360058
0.0360101
0.0316701
0.0315442
0.0316218
0.0317524
0.031871
0.0319603
0.0320216
0.0320617
0.0320883
0.0321093
0.0321342
0.0321649
0.0321507
0.0321356
0.0321264
0.0321218
0.0321199
0.0321193
0.0321195
0.0321202
0.0321224
0.032128
0.0321395
0.0321456
0.0321399
0.0321328
0.0321289
0.0321311
0.0321407
0.0321459
0.0321396
0.0321322
0.0321277
0.0321276
0.0321298
0.0321118
0.0321161
0.0321206
0.032127
0.0321387
0.0269541
0.0275764
0.0278879
0.0280812
0.0282104
0.0282951
0.0283493
0.0283836
0.0284074
0.0284342
0.0284952
0.0285319
0.0284899
0.0284552
0.0284395
0.0284327
0.0284299
0.028429
0.0284291
0.0284302
0.0284341
0.0284481
0.0285004
0.0285225
0.0284826
0.0284534
0.0284437
0.0284524
0.0285017
0.0285228
0.0284826
0.0284531
0.0284428
0.0284508
0.0284989
0.0285427
0.0284869
0.0284528
0.0284551
0.0285011
0.0144679
0.0140866
0.0141165
0.0141685
0.0142054
0.0142312
0.0142475
0.0142579
0.0142657
0.0142753
0.0142976
0.0143062
0.014297
0.0142842
0.0142766
0.014273
0.0142714
0.0142709
0.0142709
0.0142715
0.0142734
0.0142792
0.0142989
0.0143045
0.0142949
0.0142832
0.0142773
0.0142803
0.0142993
0.0143046
0.014295
0.0142833
0.0142771
0.0142798
0.014299
0.0143115
0.0142993
0.0142831
0.014281
0.0142987
0.0269719
0.0276034
0.0279323
0.0282239
0.028329
0.0283467
0.0283682
0.0283901
0.0284078
0.0284227
0.0284431
0.0284988
0.0285226
0.028483
0.0284535
0.0284404
0.0284345
0.028432
0.0284313
0.0284321
0.0284357
0.0284495
0.0285016
0.0285234
0.0284833
0.0284539
0.0284439
0.0284526
0.0285019
0.0285231
0.0284831
0.0284548
0.0284512
0.0284745
0.0284967
0.0285203
0.0284784
0.0284525
0.0284567
0.0285036
0.0602756
0.0612416
0.0618132
0.0622265
0.0625037
0.0626714
0.0627794
0.0628511
0.0628987
0.0629325
0.0629628
0.0630008
0.0630206
0.0630085
0.0629917
0.0629798
0.062973
0.0629695
0.0629684
0.0629694
0.0629737
0.0629859
0.0630133
0.0630264
0.0630109
0.0629926
0.0629835
0.0629887
0.0630121
0.0630244
0.0630097
0.0629935
0.0629907
0.0630041
0.0630231
0.0630241
0.0630083
0.0629932
0.0629943
0.0630129
0.0708344
0.0713708
0.0718773
0.0722755
0.0725988
0.0728296
0.072982
0.0730804
0.0731436
0.0731849
0.0732134
0.0732324
0.0732479
0.0732578
0.0732582
0.073256
0.0732537
0.0732523
0.0732519
0.0732526
0.0732546
0.073258
0.0732602
0.0732624
0.0732622
0.0732568
0.0732517
0.0732507
0.0732512
0.0732541
0.0732566
0.0732544
0.0732539
0.0732577
0.0732699
0.073267
0.0732649
0.0732595
0.0732558
0.0732528
0.0779849
0.0782701
0.0786473
0.0790289
0.0793429
0.0795804
0.0797478
0.0798603
0.0799333
0.07998
0.0800102
0.0800307
0.0800474
0.0800599
0.0800674
0.0800713
0.0800731
0.0800739
0.0800744
0.0800748
0.080075
0.0800745
0.0800721
0.0800674
0.0800625
0.0800578
0.0800541
0.0800517
0.0800504
0.0800502
0.0800507
0.0800504
0.080049
0.0800456
0.0800403
0.080046
0.0800509
0.0800524
0.0800519
0.0800506
0.0823352
0.0825768
0.0829194
0.0832724
0.0835734
0.0838063
0.0839748
0.0840905
0.0841669
0.0842162
0.0842484
0.0842716
0.0842916
0.0843063
0.0843159
0.0843216
0.0843249
0.0843266
0.0843276
0.0843281
0.0843279
0.0843266
0.0843229
0.0843146
0.084306
0.0842997
0.0842954
0.0842929
0.0842917
0.0842911
0.0842907
0.0842904
0.0842903
0.0842906
0.0842925
0.0842959
0.0842953
0.0842937
0.0842921
0.084291
0.0839633
0.0842028
0.084539
0.0848821
0.0851753
0.0854035
0.0855696
0.0856843
0.0857603
0.0858091
0.0858402
0.0858605
0.0858745
0.0858844
0.0858911
0.0858956
0.0858983
0.0859
0.0859011
0.0859017
0.085902
0.0859018
0.0859009
0.0858984
0.0858947
0.0858912
0.0858887
0.0858871
0.0858865
0.085886
0.0858855
0.0858851
0.085885
0.0858851
0.0858858
0.0858863
0.0858859
0.0858851
0.0858844
0.0858841
0.0828909
0.0830774
0.0833803
0.0837035
0.0839833
0.084202
0.0843613
0.0844714
0.0845441
0.0845903
0.0846184
0.0846356
0.0846471
0.0846554
0.0846611
0.0846648
0.0846671
0.0846686
0.0846696
0.0846703
0.0846709
0.0846713
0.0846713
0.0846707
0.0846696
0.0846683
0.0846671
0.0846662
0.0846657
0.0846654
0.0846652
0.084665
0.0846646
0.0846642
0.0846639
0.0846635
0.0846626
0.084662
0.0846619
0.0846616
0.0791381
0.0792172
0.079461
0.0797598
0.0800272
0.0802361
0.0803872
0.0804907
0.0805587
0.0806009
0.0806238
0.0806333
0.080647
0.0806575
0.0806629
0.0806654
0.0806668
0.0806676
0.0806684
0.0806692
0.0806703
0.0806714
0.0806722
0.0806733
0.0806742
0.0806738
0.0806728
0.080672
0.0806715
0.0806718
0.0806725
0.080672
0.0806707
0.0806689
0.0806667
0.0806664
0.0806652
0.0806651
0.0806657
0.0806657
0.0724355
0.0724533
0.0727159
0.0730412
0.0733171
0.0735228
0.0736663
0.0737624
0.0738257
0.0738684
0.0738974
0.0739226
0.0739299
0.0739267
0.0739211
0.0739171
0.0739149
0.0739142
0.0739144
0.0739156
0.0739182
0.0739225
0.0739267
0.073932
0.0739352
0.073932
0.0739284
0.0739282
0.0739291
0.0739325
0.0739347
0.0739309
0.073926
0.0739223
0.0739156
0.0739041
0.073913
0.0739178
0.0739212
0.0739222
0.0602416
0.0611936
0.0617569
0.0621582
0.0624414
0.0626341
0.062761
0.062843
0.0628974
0.0629418
0.0629906
0.0630244
0.0630099
0.0629892
0.0629746
0.0629666
0.0629628
0.0629613
0.0629614
0.0629631
0.0629679
0.0629806
0.0630087
0.0630228
0.0630082
0.0629908
0.0629824
0.062988
0.0630116
0.0630237
0.0630082
0.0629901
0.0629806
0.0629842
0.0630044
0.0630149
0.0629998
0.0629849
0.062987
0.0630067
0.0278624
0.0275634
0.0276826
0.0278448
0.0279705
0.0280546
0.0281091
0.0281436
0.0281676
0.0281938
0.0282523
0.0282833
0.0282438
0.0282132
0.0281997
0.0281937
0.0281911
0.0281902
0.0281902
0.0281912
0.0281948
0.0282082
0.0282586
0.0282795
0.0282406
0.0282129
0.0282039
0.0282124
0.02826
0.0282799
0.0282407
0.0282127
0.0282033
0.0282116
0.0282593
0.0283058
0.0282501
0.0282152
0.0282163
0.02826
0.0316829
0.0315634
0.0316409
0.0317605
0.031888
0.0319756
0.0320329
0.0320699
0.0320937
0.0321098
0.0321234
0.0321389
0.0321466
0.0321407
0.0321327
0.0321266
0.0321229
0.032121
0.0321203
0.0321207
0.0321226
0.0321281
0.0321395
0.0321456
0.0321398
0.0321327
0.0321288
0.032131
0.0321407
0.032146
0.0321402
0.0321338
0.0321311
0.032134
0.0321324
0.0321149
0.0321207
0.0321248
0.0321303
0.0321414
0.0724545
0.0724801
0.0727404
0.0730474
0.0733291
0.0735394
0.0736813
0.0737743
0.0738346
0.073874
0.0739006
0.073917
0.0739285
0.073934
0.073931
0.0739256
0.0739212
0.0739186
0.0739176
0.073918
0.0739201
0.073924
0.0739279
0.0739329
0.0739359
0.0739325
0.0739287
0.0739285
0.0739295
0.0739332
0.0739362
0.0739338
0.0739315
0.0739306
0.0739305
0.0739233
0.0739282
0.0739292
0.0739296
0.0739291
0.0894081
0.0896145
0.0899474
0.0903029
0.0906076
0.0908477
0.0910227
0.0911436
0.0912244
0.0912773
0.0913116
0.0913332
0.0913474
0.0913566
0.0913599
0.09136
0.091359
0.091358
0.0913577
0.0913581
0.0913592
0.0913608
0.0913622
0.0913639
0.0913653
0.0913644
0.0913626
0.0913614
0.091361
0.091362
0.0913638
0.091364
0.0913639
0.0913639
0.0913644
0.0913672
0.0913666
0.0913649
0.0913629
0.0913606
0.0993536
0.0996729
0.100053
0.100426
0.100747
0.101003
0.101194
0.10133
0.101423
0.101484
0.101525
0.101551
0.101568
0.101578
0.101585
0.101588
0.101589
0.10159
0.10159
0.101591
0.101591
0.101592
0.101593
0.101593
0.101592
0.10159
0.101588
0.101587
0.101587
0.101587
0.101587
0.101587
0.101587
0.101588