/*--------------------------------*- C++ -*----------------------------------*\
| =========                 |                                                 |
| \\      /  F ield         | OpenFOAM: The Open Source CFD Toolbox           |
|  \\    /   O peration     | Version:  2212                                  |
|   \\  /    A nd           | Website:  www.openfoam.com                      |
|    \\/     M anipulation  |                                                 |
\*---------------------------------------------------------------------------*/
FoamFile
{
    version     2.0;
    format      ascii;
    arch        "LSB;label=32;scalar=64";
    class       volScalarField;
    location    "0.05";
    object      nut;
}
// * * * * * * * * * * * * * * * * * * * * * * * * * * * * * * * * * * * * * //

dimensions      [0 2 -1 0 0 0 0];

internalField   nonuniform List<scalar> 
6840
(
4.53587e-05
2.32034e-05
1.66055e-05
1.38113e-05
1.20491e-05
1.12993e-05
1.08039e-05
1.0516e-05
1.03547e-05
1.02658e-05
1.0218e-05
1.01916e-05
1.01814e-05
1.01821e-05
1.01812e-05
1.01779e-05
1.01707e-05
1.01621e-05
1.01555e-05
1.02451e-05
0.000107681
6.76193e-05
5.06434e-05
4.1843e-05
3.71395e-05
3.44794e-05
3.2869e-05
3.18774e-05
3.12948e-05
3.09634e-05
3.07807e-05
3.06801e-05
3.06414e-05
3.06359e-05
3.06306e-05
3.06026e-05
3.05662e-05
3.05225e-05
3.04621e-05
3.05168e-05
0.000160499
0.000107237
8.07329e-05
6.5175e-05
5.71969e-05
5.28754e-05
5.0232e-05
4.86701e-05
4.77687e-05
4.72442e-05
4.69497e-05
4.67895e-05
4.67099e-05
4.66611e-05
4.66371e-05
4.66072e-05
4.65675e-05
4.65126e-05
4.64579e-05
4.67281e-05
0.000198663
0.000138136
0.000104852
8.53491e-05
7.39029e-05
6.83545e-05
6.48676e-05
6.27807e-05
6.15786e-05
6.08989e-05
6.05188e-05
6.03085e-05
6.01929e-05
6.01292e-05
6.00882e-05
6.00506e-05
6.00052e-05
5.99437e-05
5.98946e-05
6.02301e-05
0.000218587
0.00015482
0.000118217
9.64312e-05
8.28095e-05
7.67055e-05
7.28134e-05
7.04723e-05
6.9113e-05
6.83401e-05
6.79067e-05
6.76659e-05
6.75322e-05
6.74558e-05
6.74066e-05
6.73648e-05
6.73169e-05
6.72539e-05
6.72022e-05
6.74863e-05
0.000218587
0.00015482
0.000118217
9.64312e-05
8.28095e-05
7.67055e-05
7.28134e-05
7.04723e-05
6.91131e-05
6.83402e-05
6.79069e-05
6.76664e-05
6.75331e-05
6.74564e-05
6.74071e-05
6.73657e-05
6.73184e-05
6.72553e-05
6.71928e-05
6.7366e-05
0.000198663
0.000138136
0.000104852
8.53491e-05
7.3903e-05
6.83545e-05
6.48676e-05
6.27807e-05
6.15787e-05
6.08993e-05
6.05204e-05
6.03104e-05
6.02059e-05
6.01377e-05
6.00969e-05
6.0057e-05
6.00105e-05
5.9949e-05
5.98771e-05
5.99263e-05
0.000160499
0.000107237
8.07329e-05
6.5175e-05
5.71969e-05
5.28754e-05
5.0232e-05
4.86702e-05
4.77689e-05
4.72448e-05
4.6952e-05
4.67972e-05
4.67161e-05
4.66717e-05
4.664e-05
4.66069e-05
4.65684e-05
4.65161e-05
4.64438e-05
4.64023e-05
0.000107681
6.76194e-05
5.06435e-05
4.1843e-05
3.71396e-05
3.44794e-05
3.2869e-05
3.18775e-05
3.1295e-05
3.09639e-05
3.07824e-05
3.06887e-05
3.06668e-05
3.06505e-05
3.0621e-05
3.05882e-05
3.05579e-05
3.05206e-05
3.04629e-05
3.03474e-05
4.53588e-05
2.32034e-05
1.66055e-05
1.38114e-05
1.20491e-05
1.12993e-05
1.08039e-05
1.05161e-05
1.03547e-05
1.0266e-05
1.0217e-05
1.01934e-05
1.0188e-05
1.01852e-05
1.01813e-05
1.01745e-05
1.01675e-05
1.01598e-05
1.01542e-05
1.02437e-05
0.000107681
6.76193e-05
5.06434e-05
4.1843e-05
3.71396e-05
3.44795e-05
3.2869e-05
3.18775e-05
3.12948e-05
3.09634e-05
3.07807e-05
3.06801e-05
3.06414e-05
3.06359e-05
3.06306e-05
3.06031e-05
3.05672e-05
3.0526e-05
3.0467e-05
3.03504e-05
0.00052912
0.000375771
0.000323523
0.000297941
0.000283326
0.000273526
0.000265347
0.00025842
0.00025178
0.000248114
0.000246106
0.000245108
0.000245054
0.000246996
0.000247117
0.000244892
0.000243896
0.000243033
0.00024154
0.000237109
0.000665171
0.00049733
0.000428725
0.000393778
0.000375799
0.000365031
0.000358359
0.000353265
0.000349126
0.000345656
0.00034341
0.000342182
0.000341628
0.000341622
0.000341411
0.000340693
0.000339886
0.000338731
0.000336634
0.000332161
0.000715015
0.000566392
0.000493844
0.000454939
0.000434016
0.000421624
0.000412968
0.000406483
0.00040186
0.000398579
0.000396384
0.00039499
0.000394121
0.000393586
0.000393145
0.000392612
0.000391861
0.000390619
0.000388352
0.000383874
0.00073118
0.000598852
0.000525113
0.000484407
0.000462099
0.000448815
0.000439584
0.000432638
0.000427514
0.000423918
0.000421524
0.000419994
0.000419025
0.000418377
0.000417862
0.000417293
0.000416498
0.000415189
0.000412862
0.000408469
0.00073118
0.000598852
0.000525114
0.000484407
0.000462099
0.000448815
0.000439584
0.000432638
0.000427515
0.000423919
0.000421527
0.000419998
0.00041902
0.000418261
0.000417841
0.000417302
0.000416519
0.000415238
0.000413018
0.000408911
0.000715015
0.000566392
0.000493844
0.000454939
0.000434016
0.000421624
0.000412968
0.000406484
0.000401862
0.000398585
0.000396401
0.00039504
0.000394336
0.000394331
0.000393459
0.000392764
0.000391934
0.00039073
0.000388724
0.000384984
0.000665171
0.00049733
0.000428725
0.000393778
0.000375798
0.000365031
0.000358359
0.000353266
0.000349131
0.000345676
0.000343475
0.000342383
0.000342134
0.000341892
0.000341182
0.000340528
0.000339807
0.00033876
0.000336903
0.000333152
0.00052912
0.000375771
0.000323522
0.00029794
0.000283326
0.000273526
0.000265347
0.00025842
0.000251785
0.000248135
0.0002462
0.000245583
0.000247308
0.000247353
0.000245133
0.000244211
0.000243602
0.000242893
0.000241454
0.000237004
0.000107681
6.76194e-05
5.06435e-05
4.1843e-05
3.71395e-05
3.44794e-05
3.2869e-05
3.18775e-05
3.1295e-05
3.09639e-05
3.07824e-05
3.06886e-05
3.06665e-05
3.06498e-05
3.06201e-05
3.05872e-05
3.05565e-05
3.05171e-05
3.04583e-05
3.05119e-05
0.000160499
0.000107237
8.07329e-05
6.5175e-05
5.71969e-05
5.28754e-05
5.0232e-05
4.86701e-05
4.77687e-05
4.72442e-05
4.69497e-05
4.67897e-05
4.67101e-05
4.66616e-05
4.66378e-05
4.66086e-05
4.65704e-05
4.65183e-05
4.64467e-05
4.64071e-05
0.000665171
0.00049733
0.000428725
0.000393779
0.000375799
0.000365031
0.00035836
0.000353265
0.000349127
0.000345657
0.000343411
0.000342183
0.000341631
0.000341627
0.000341421
0.000340713
0.000339929
0.000338844
0.000336983
0.000333307
0.000790007
0.000678486
0.000607324
0.000567722
0.000548171
0.000538264
0.000531848
0.000526361
0.000521469
0.000517562
0.000514729
0.000512849
0.000511685
0.000510977
0.000510334
0.000509468
0.000508254
0.000506362
0.000503192
0.000497683
0.00081368
0.000734741
0.000679902
0.000648411
0.000633269
0.000626268
0.000621786
0.000617568
0.000613436
0.000609786
0.000606901
0.000604797
0.000603325
0.00060226
0.000601321
0.000600224
0.000598705
0.000596306
0.000592321
0.000585612
0.0008199
0.000753528
0.000707399
0.000681418
0.000669654
0.000664792
0.000661692
0.000658341
0.000654688
0.000651249
0.000648399
0.000646233
0.000644651
0.000643446
0.00064237
0.000641143
0.000639456
0.000636804
0.000632444
0.000625222
0.0008199
0.000753528
0.000707399
0.000681418
0.000669654
0.000664792
0.000661692
0.000658341
0.000654689
0.000651251
0.000648404
0.000646243
0.000644666
0.00064346
0.000642384
0.00064116
0.00063948
0.000636854
0.000632563
0.000625512
0.00081368
0.000734741
0.000679902
0.000648411
0.000633268
0.000626268
0.000621786
0.000617568
0.000613439
0.000609795
0.000606924
0.000604849
0.000603426
0.000602403
0.000601409
0.000600275
0.000598748
0.000596384
0.000592521
0.000586125
0.000790007
0.000678486
0.000607323
0.000567721
0.00054817
0.000538263
0.000531847
0.000526362
0.000521474
0.000517578
0.000514774
0.000512956
0.000511866
0.000511085
0.00051029
0.000509382
0.000508177
0.000506298
0.00050312
0.000497551
0.000665171
0.00049733
0.000428724
0.000393778
0.000375798
0.00036503
0.000358358
0.000353264
0.000349129
0.000345673
0.000343467
0.000342363
0.00034208
0.000341769
0.000341081
0.000340451
0.000339736
0.000338638
0.000336538
0.000331911
0.000160499
0.000107237
8.07329e-05
6.5175e-05
5.71968e-05
5.28753e-05
5.02319e-05
4.867e-05
4.77687e-05
4.72445e-05
4.69515e-05
4.67953e-05
4.67134e-05
4.66686e-05
4.66351e-05
4.66018e-05
4.6563e-05
4.65092e-05
4.64545e-05
4.67197e-05
0.000198663
0.000138136
0.000104852
8.5349e-05
7.3903e-05
6.83545e-05
6.48677e-05
6.27807e-05
6.15786e-05
6.0899e-05
6.05189e-05
6.03087e-05
6.01932e-05
6.01298e-05
6.00892e-05
6.00523e-05
6.00085e-05
5.99487e-05
5.9878e-05
5.99278e-05
0.000715015
0.000566392
0.000493845
0.000454939
0.000434017
0.000421625
0.000412968
0.000406484
0.00040186
0.00039858
0.000396386
0.000394994
0.000394127
0.000393597
0.000393161
0.000392638
0.000391909
0.000390738
0.000388752
0.000385056
0.00081368
0.000734742
0.000679903
0.000648411
0.000633269
0.000626269
0.000621786
0.000617568
0.000613436
0.000609786
0.000606902
0.000604799
0.000603328
0.000602266
0.00060133
0.000600242
0.000598744
0.000596397
0.000592551
0.000586184
0.000829465
0.000781489
0.000749838
0.000734207
0.000729776
0.000730245
0.000730998
0.000730221
0.000728064
0.000725336
0.000722716
0.000720535
0.000718832
0.000717462
0.000716189
0.000714707
0.000712674
0.00070953
0.00070447
0.00069629
0.000833007
0.000794944
0.000773529
0.000766553
0.000768689
0.000773905
0.000777998
0.000779465
0.000778693
0.000776712
0.000774412
0.000772306
0.000770571
0.000769096
0.00076767
0.000765987
0.000763681
0.00076015
0.000754526
0.000745537
0.000833007
0.000794944
0.000773529
0.000766552
0.000768689
0.000773904
0.000777998
0.000779464
0.000778692
0.000776713
0.000774414
0.000772309
0.000770575
0.000769098
0.000767672
0.000765991
0.000763689
0.000760166
0.000754562
0.000745613
0.000829465
0.000781488
0.000749838
0.000734206
0.000729775
0.000730243
0.000730997
0.000730219
0.000728064
0.000725339
0.000722724
0.000720551
0.000718853
0.000717487
0.000716209
0.000714716
0.000712676
0.000709529
0.000704466
0.000696282
0.00081368
0.000734741
0.000679902
0.00064841
0.000633268
0.000626267
0.000621784
0.000617566
0.000613436
0.000609791
0.000606916
0.000604828
0.000603374
0.000602294
0.000601319
0.000600209
0.000598688
0.000596294
0.000592314
0.000585604
0.000715015
0.000566391
0.000493844
0.000454938
0.000434015
0.000421622
0.000412964
0.000406479
0.000401857
0.00039858
0.000396389
0.000394999
0.000394173
0.000393623
0.000393134
0.000392599
0.000391845
0.000390615
0.000388367
0.000383946
0.000198663
0.000138136
0.000104852
8.53491e-05
7.39029e-05
6.83544e-05
6.48674e-05
6.27804e-05
6.15784e-05
6.08989e-05
6.05192e-05
6.03097e-05
6.01962e-05
6.01316e-05
6.0088e-05
6.00493e-05
6.0004e-05
5.99431e-05
5.98949e-05
6.0231e-05
0.000218587
0.00015482
0.000118217
9.64312e-05
8.28095e-05
7.67055e-05
7.28134e-05
7.04724e-05
6.91131e-05
6.83402e-05
6.79068e-05
6.76661e-05
6.75325e-05
6.74565e-05
6.74075e-05
6.7366e-05
6.73188e-05
6.72557e-05
6.71933e-05
6.73662e-05
0.00073118
0.000598852
0.000525114
0.000484407
0.000462099
0.000448816
0.000439584
0.000432638
0.000427515
0.000423918
0.000421526
0.000419997
0.000419034
0.0004184
0.000417883
0.000417313
0.000416524
0.000415242
0.000413017
0.00040888
0.0008199
0.000753528
0.0007074
0.000681419
0.000669654
0.000664793
0.000661693
0.000658342
0.000654689
0.000651249
0.000648399
0.000646235
0.000644654
0.000643452
0.00064238
0.000641158
0.000639483
0.000636859
0.000632571
0.00062552
0.000833007
0.000794944
0.00077353
0.000766553
0.00076869
0.000773905
0.000777999
0.000779466
0.000778693
0.000776713
0.000774413
0.000772307
0.000770573
0.0007691
0.000767676
0.000765993
0.000763692
0.000760168
0.000754563
0.000745612
0.000835901
0.000806584
0.000795313
0.000797839
0.000807805
0.000819019
0.000827495
0.000831991
0.000833149
0.000832266
0.000830498
0.000828531
0.000827105
0.000825653
0.000824099
0.000822114
0.000819429
0.000815398
0.000809114
0.000799299
0.000835901
0.000806584
0.000795312
0.000797839
0.000807804
0.000819018
0.000827494
0.000831989
0.000833147
0.000832265
0.000830497
0.000828531
0.000827103
0.000825647
0.000824094
0.000822111
0.000819429
0.000815399
0.000809118
0.000799305
0.000833007
0.000794944
0.000773529
0.000766553
0.000768689
0.000773904
0.000777996
0.000779462
0.000778691
0.000776711
0.000774412
0.000772306
0.000770567
0.000769096
0.00076768
0.000765994
0.000763688
0.000760158
0.000754537
0.000745553
0.0008199
0.000753528
0.000707399
0.000681418
0.000669653
0.000664791
0.00066169
0.000658338
0.000654686
0.000651248
0.0006484
0.000646238
0.000644658
0.000643455
0.000642379
0.000641149
0.000639463
0.000636816
0.000632466
0.000625262
0.00073118
0.000598852
0.000525113
0.000484406
0.000462097
0.00044881
0.000439569
0.000432626
0.000427508
0.000423915
0.000421525
0.000419999
0.000419043
0.000418403
0.000417876
0.000417301
0.000416505
0.000415201
0.00041289
0.000408531
0.000218587
0.00015482
0.000118217
9.64313e-05
8.28094e-05
7.67054e-05
7.28131e-05
7.04719e-05
6.91126e-05
6.83398e-05
6.79066e-05
6.76661e-05
6.75329e-05
6.74568e-05
6.74072e-05
6.73653e-05
6.73173e-05
6.72546e-05
6.72036e-05
6.7489e-05
0.000218587
0.00015482
0.000118217
9.64312e-05
8.28095e-05
7.67055e-05
7.28134e-05
7.04723e-05
6.91131e-05
6.83402e-05
6.79068e-05
6.7666e-05
6.75325e-05
6.74563e-05
6.74072e-05
6.73655e-05
6.73176e-05
6.72546e-05
6.7203e-05
6.74874e-05
0.00073118
0.000598852
0.000525114
0.000484407
0.000462099
0.000448816
0.000439584
0.000432638
0.000427515
0.000423918
0.000421525
0.000419997
0.000419034
0.000418398
0.000417879
0.000417306
0.000416508
0.000415198
0.000412875
0.000408494
0.0008199
0.000753528
0.0007074
0.000681419
0.000669654
0.000664793
0.000661693
0.000658342
0.000654689
0.000651249
0.000648399
0.000646235
0.000644653
0.000643451
0.000642376
0.000641151
0.000639464
0.000636813
0.000632454
0.000625235
0.000833007
0.000794944
0.00077353
0.000766553
0.00076869
0.000773905
0.000777999
0.000779466
0.000778693
0.000776713
0.000774413
0.000772307
0.000770573
0.0007691
0.000767675
0.000765991
0.000763686
0.000760154
0.000754529
0.000745537
0.000835901
0.000806584
0.000795313
0.00079784
0.000807805
0.00081902
0.000827495
0.00083199
0.000833149
0.000832267
0.000830499
0.000828532
0.000827106
0.000825653
0.0008241
0.000822114
0.000819431
0.000815399
0.000809116
0.000799301
0.000835901
0.000806584
0.000795313
0.00079784
0.000807805
0.000819019
0.000827492
0.000831987
0.000833147
0.000832266
0.000830498
0.000828531
0.000827103
0.000825647
0.000824094
0.000822112
0.00081943
0.000815401
0.00080912
0.000799308
0.000833007
0.000794944
0.00077353
0.000766554
0.000768692
0.000773907
0.000777999
0.000779465
0.000778693
0.000776712
0.000774412
0.000772306
0.000770567
0.000769096
0.000767681
0.000765997
0.000763696
0.000760175
0.000754575
0.000745632
0.0008199
0.000753528
0.0007074
0.00068142
0.000669658
0.0006648
0.0006617
0.000658348
0.000654693
0.000651251
0.000648401
0.000646238
0.000644658
0.000643456
0.000642383
0.000641158
0.000639483
0.000636866
0.00063259
0.000625562
0.00073118
0.000598852
0.000525114
0.000484407
0.000462099
0.000448804
0.000439486
0.000432612
0.000427509
0.000423918
0.000421526
0.00042
0.000419044
0.000418405
0.00041788
0.000417309
0.000416523
0.000415251
0.000413051
0.000408988
0.000218587
0.00015482
0.000118217
9.64314e-05
8.28097e-05
7.67059e-05
7.28136e-05
7.04725e-05
6.91131e-05
6.83402e-05
6.79068e-05
6.76662e-05
6.7533e-05
6.74569e-05
6.74075e-05
6.73658e-05
6.73186e-05
6.72559e-05
6.71945e-05
6.73698e-05
0.000198663
0.000138136
0.000104852
8.53491e-05
7.3903e-05
6.83545e-05
6.48677e-05
6.27807e-05
6.15786e-05
6.0899e-05
6.05189e-05
6.03086e-05
6.01931e-05
6.01295e-05
6.00886e-05
6.0051e-05
6.00057e-05
5.99443e-05
5.98953e-05
6.02307e-05
0.000715015
0.000566392
0.000493845
0.000454939
0.000434017
0.000421625
0.000412968
0.000406484
0.00040186
0.00039858
0.000396386
0.000394993
0.000394125
0.000393593
0.000393152
0.000392619
0.000391869
0.000390631
0.000388372
0.000383939
0.00081368
0.000734742
0.000679903
0.000648411
0.000633269
0.000626269
0.000621787
0.000617569
0.000613437
0.000609787
0.000606903
0.000604799
0.000603327
0.000602264
0.000601325
0.000600229
0.000598711
0.000596311
0.000592321
0.000585601
0.000829465
0.000781489
0.000749838
0.000734207
0.000729778
0.000730247
0.000731001
0.000730223
0.000728067
0.000725339
0.000722718
0.000720537
0.000718833
0.000717464
0.000716191
0.000714709
0.000712676
0.000709532
0.000704467
0.00069628
0.000833007
0.000794944
0.00077353
0.000766554
0.000768692
0.000773909
0.000778003
0.00077947
0.0007787
0.000776719
0.000774417
0.000772309
0.000770573
0.000769098
0.000767673
0.000765992
0.000763692
0.00076017
0.000754566
0.000745617
0.000833007
0.000794944
0.00077353
0.000766555
0.000768693
0.000773907
0.000778003
0.000779477
0.000778703
0.00077672
0.000774418
0.000772311
0.000770575
0.000769098
0.000767672
0.00076599
0.000763686
0.000760156
0.000754535
0.000745548
0.000829465
0.000781489
0.00074984
0.000734211
0.000729785
0.000730259
0.000731017
0.000730237
0.000728073
0.000725341
0.000722723
0.000720548
0.00071885
0.000717486
0.000716209
0.000714717
0.000712678
0.000709533
0.000704473
0.000696294
0.00081368
0.000734742
0.000679904
0.000648418
0.000633289
0.000626319
0.000621878
0.000617626
0.000613459
0.000609794
0.000606911
0.000604822
0.00060337
0.000602294
0.000601324
0.000600222
0.000598723
0.00059638
0.000592535
0.000586162
0.000715015
0.000566392
0.000493846
0.000454944
0.000434041
0.000421738
0.000413479
0.000406712
0.000401945
0.000398607
0.000396394
0.000394999
0.000394173
0.000393626
0.000393143
0.000392618
0.000391886
0.000390723
0.000388748
0.00038506
0.000198663
0.000138136
0.000104852
8.53488e-05
7.39047e-05
6.83572e-05
6.4873e-05
6.2786e-05
6.15832e-05
6.09012e-05
6.05201e-05
6.031e-05
6.01963e-05
6.01318e-05
6.00886e-05
6.00505e-05
6.00068e-05
5.99476e-05
5.98778e-05
5.993e-05
0.000160499
0.000107237
8.07329e-05
6.5175e-05
5.71969e-05
5.28754e-05
5.0232e-05
4.86701e-05
4.77687e-05
4.72442e-05
4.69497e-05
4.67896e-05
4.671e-05
4.66613e-05
4.66373e-05
4.66074e-05
4.65676e-05
4.65124e-05
4.64564e-05
4.67206e-05
0.000665171
0.00049733
0.000428725
0.000393779
0.000375799
0.000365031
0.000358359
0.000353265
0.000349127
0.000345657
0.000343411
0.000342183
0.00034163
0.000341624
0.000341414
0.000340696
0.000339886
0.000338721
0.000336578
0.000331927
0.000790007
0.000678486
0.000607324
0.000567722
0.000548171
0.000538266
0.00053185
0.000526364
0.000521472
0.000517565
0.000514732
0.000512851
0.000511687
0.000510978
0.000510335
0.000509469
0.000508252
0.00050635
0.000503151
0.000497566
0.00081368
0.000734742
0.000679903
0.000648413
0.000633272
0.000626276
0.000621796
0.00061758
0.000613448
0.000609796
0.000606909
0.000604803
0.00060333
0.000602266
0.00060133
0.000600242
0.000598742
0.00059639
0.00059253
0.000586134
0.0008199
0.000753528
0.0007074
0.000681422
0.000669663
0.000664813
0.000661731
0.000658379
0.000654719
0.00065127
0.000648413
0.000646242
0.000644656
0.00064345
0.000642376
0.000641156
0.000639481
0.000636859
0.000632573
0.000625526
0.0008199
0.000753528
0.000707401
0.000681422
0.000669664
0.000664813
0.000661731
0.00065838
0.000654717
0.000651268
0.000648413
0.000646248
0.000644667
0.000643459
0.000642382
0.000641155
0.000639466
0.000636815
0.000632459
0.000625246
0.00081368
0.000734742
0.000679904
0.000648416
0.000633281
0.000626293
0.000621811
0.000617572
0.000613426
0.000609779
0.000606909
0.000604838
0.000603418
0.000602396
0.000601401
0.000600262
0.000598718
0.000596309
0.000592321
0.000585607
0.000790007
0.000678486
0.000607326
0.000567729
0.000548196
0.000538318
0.000531873
0.000526258
0.000521375
0.000517504
0.000514725
0.000512927
0.00051185
0.000511077
0.000510286
0.000509381
0.000508178
0.000506303
0.000503128
0.000497564
0.000665171
0.00049733
0.000428726
0.000393784
0.000375822
0.000365157
0.000358615
0.000353179
0.000348988
0.000345583
0.000343411
0.000342335
0.000342068
0.000341766
0.000341087
0.000340468
0.000339778
0.000338752
0.000336911
0.000333181
0.000160499
0.000107237
8.07329e-05
6.51755e-05
5.71985e-05
5.28777e-05
5.02393e-05
4.86758e-05
4.77712e-05
4.72421e-05
4.69494e-05
4.67941e-05
4.67125e-05
4.66683e-05
4.66355e-05
4.66029e-05
4.65659e-05
4.6515e-05
4.6444e-05
4.64039e-05
0.000107681
6.76194e-05
5.06435e-05
4.1843e-05
3.71396e-05
3.44795e-05
3.28692e-05
3.18776e-05
3.1295e-05
3.09635e-05
3.07808e-05
3.06802e-05
3.06415e-05
3.0636e-05
3.06306e-05
3.06026e-05
3.05661e-05
3.0522e-05
3.04606e-05
3.05133e-05
0.00052912
0.000375771
0.000323522
0.000297941
0.000283327
0.000273528
0.00026535
0.000258422
0.000251783
0.000248117
0.000246107
0.000245109
0.000245055
0.000246997
0.000247118
0.000244892
0.000243893
0.000243022
0.000241508
0.000237026
0.000665171
0.00049733
0.000428725
0.000393779
0.000375801
0.000365037
0.00035837
0.000353276
0.000349136
0.000345663
0.000343415
0.000342186
0.000341632
0.000341627
0.000341421
0.000340711
0.000339925
0.000338831
0.000336941
0.000333172
0.000715015
0.000566392
0.000493845
0.000454941
0.000434024
0.000421644
0.000413009
0.000406521
0.000401888
0.000398598
0.000396396
0.000394998
0.000394128
0.000393594
0.000393157
0.000392634
0.000391906
0.000390731
0.000388731
0.000384992
0.00073118
0.000598852
0.000525115
0.000484411
0.000462115
0.000448872
0.00043979
0.000432755
0.000427581
0.000423955
0.000421544
0.000420005
0.000419032
0.000418382
0.000417868
0.000417304
0.000416519
0.000415242
0.000413027
0.000408925
0.00073118
0.000598852
0.000525115
0.000484411
0.000462114
0.000448867
0.000439752
0.000432746
0.000427576
0.000423951
0.000421543
0.000420005
0.000419023
0.000418261
0.000417839
0.000417296
0.000416505
0.000415199
0.00041288
0.000408508
0.000715015
0.000566392
0.000493845
0.000454942
0.000434026
0.00042165
0.000413014
0.000406513
0.000401863
0.000398577
0.000396391
0.000395032
0.00039433
0.000394324
0.000393449
0.000392746
0.000391896
0.000390633
0.000388372
0.000383943
0.000665171
0.00049733
0.000428725
0.000393782
0.000375813
0.000365123
0.00035852
0.000353106
0.000348944
0.000345565
0.000343407
0.000342349
0.000342117
0.000341882
0.000341172
0.000340512
0.00033977
0.000338654
0.000336544
0.000331913
0.00052912
0.000375771
0.000323522
0.00029794
0.000283323
0.000273431
0.000265153
0.000257188
0.000251296
0.000247909
0.000246093
0.000245549
0.000247293
0.000247347
0.000245131
0.000244209
0.000243602
0.000242893
0.000241458
0.000237013
0.000107681
6.76193e-05
5.06434e-05
4.1842e-05
3.71347e-05
3.44431e-05
3.28533e-05
3.187e-05
3.12884e-05
3.09577e-05
3.0778e-05
3.0687e-05
3.0665e-05
3.06493e-05
3.06199e-05
3.05873e-05
3.05573e-05
3.05203e-05
3.04631e-05
3.0348e-05
4.53588e-05
2.32034e-05
1.66055e-05
1.38113e-05
1.20491e-05
1.12993e-05
1.0804e-05
1.05161e-05
1.03547e-05
1.02659e-05
1.0218e-05
1.01916e-05
1.01814e-05
1.01821e-05
1.01812e-05
1.01779e-05
1.01707e-05
1.0162e-05
1.01551e-05
1.02439e-05
0.000107681
6.76194e-05
5.06435e-05
4.1843e-05
3.71396e-05
3.44796e-05
3.28693e-05
3.18778e-05
3.12951e-05
3.09636e-05
3.07809e-05
3.06802e-05
3.06415e-05
3.0636e-05
3.06307e-05
3.06031e-05
3.05671e-05
3.05255e-05
3.04655e-05
3.03484e-05
0.000160499
0.000107237
8.07329e-05
6.5175e-05
5.71971e-05
5.28758e-05
5.02326e-05
4.86709e-05
4.77694e-05
4.72448e-05
4.69502e-05
4.67899e-05
4.67103e-05
4.66616e-05
4.66378e-05
4.66085e-05
4.65702e-05
4.65176e-05
4.64451e-05
4.64033e-05
0.000198663
0.000138136
0.000104852
8.53491e-05
7.39035e-05
6.83554e-05
6.48692e-05
6.27827e-05
6.15805e-05
6.09005e-05
6.052e-05
6.03093e-05
6.01935e-05
6.01298e-05
6.00891e-05
6.0052e-05
6.00082e-05
5.99483e-05
5.98771e-05
5.99267e-05
0.000218587
0.00015482
0.000118217
9.64312e-05
8.28102e-05
7.6707e-05
7.28167e-05
7.04766e-05
6.91169e-05
6.8343e-05
6.79086e-05
6.76671e-05
6.7533e-05
6.74564e-05
6.74071e-05
6.73656e-05
6.73184e-05
6.72555e-05
6.71933e-05
6.73668e-05
0.000218587
0.00015482
0.000118217
9.64312e-05
8.28103e-05
7.6707e-05
7.28164e-05
7.04766e-05
6.91167e-05
6.83427e-05
6.79085e-05
6.76672e-05
6.75335e-05
6.74565e-05
6.7407e-05
6.73653e-05
6.73173e-05
6.72545e-05
6.7203e-05
6.74877e-05
0.000198663
0.000138136
0.000104852
8.5349e-05
7.3904e-05
6.83556e-05
6.48688e-05
6.27815e-05
6.15796e-05
6.0899e-05
6.05198e-05
6.031e-05
6.02055e-05
6.01372e-05
6.00962e-05
6.00558e-05
6.00078e-05
5.99451e-05
5.98956e-05
6.02309e-05
0.000160499
0.000107237
8.0733e-05
6.51757e-05
5.71978e-05
5.28764e-05
5.02366e-05
4.86726e-05
4.77685e-05
4.72403e-05
4.69485e-05
4.67953e-05
4.67147e-05
4.66709e-05
4.66392e-05
4.66057e-05
4.65657e-05
4.65108e-05
4.64552e-05
4.67199e-05
0.000107681
6.76193e-05
5.06434e-05
4.1842e-05
3.71346e-05
3.44428e-05
3.28527e-05
3.18693e-05
3.12878e-05
3.09574e-05
3.07778e-05
3.06871e-05
3.06653e-05
3.065e-05
3.06207e-05
3.05878e-05
3.05568e-05
3.05173e-05
3.04586e-05
3.05124e-05
4.53588e-05
2.32034e-05
1.66053e-05
1.38122e-05
1.20462e-05
1.12894e-05
1.08025e-05
1.05146e-05
1.03518e-05
1.02632e-05
1.02149e-05
1.01924e-05
1.01877e-05
1.0185e-05
1.01812e-05
1.01744e-05
1.01675e-05
1.01598e-05
1.01542e-05
1.02439e-05
8.75312e-06
8.55513e-06
8.55097e-06
8.56779e-06
8.57674e-06
8.58459e-06
8.59307e-06
8.59898e-06
8.60266e-06
8.60514e-06
8.6072e-06
8.60925e-06
8.60959e-06
8.61082e-06
8.61022e-06
8.60912e-06
8.60823e-06
8.6077e-06
8.60749e-06
8.60759e-06
8.60801e-06
8.60886e-06
8.6102e-06
8.61018e-06
8.61116e-06
8.61033e-06
8.60897e-06
8.60895e-06
8.61011e-06
8.61001e-06
8.6111e-06
8.61006e-06
8.60911e-06
8.60967e-06
8.60938e-06
8.61159e-06
8.61215e-06
8.61002e-06
8.60927e-06
8.61032e-06
2.4675e-05
2.45183e-05
2.45632e-05
2.46388e-05
2.47048e-05
2.47469e-05
2.47753e-05
2.48002e-05
2.4816e-05
2.48271e-05
2.48355e-05
2.48434e-05
2.48504e-05
2.48501e-05
2.48473e-05
2.48449e-05
2.48432e-05
2.48422e-05
2.48418e-05
2.48419e-05
2.48428e-05
2.48449e-05
2.4849e-05
2.48532e-05
2.48515e-05
2.48475e-05
2.48452e-05
2.48455e-05
2.48483e-05
2.48522e-05
2.48506e-05
2.48472e-05
2.48462e-05
2.48482e-05
2.48481e-05
2.48595e-05
2.48552e-05
2.48491e-05
2.48478e-05
2.4849e-05
3.80827e-05
3.75912e-05
3.75756e-05
3.76565e-05
3.77565e-05
3.78342e-05
3.78895e-05
3.79286e-05
3.79553e-05
3.79736e-05
3.79873e-05
3.79989e-05
3.8007e-05
3.80097e-05
3.80092e-05
3.8008e-05
3.80069e-05
3.80062e-05
3.80059e-05
3.80061e-05
3.8007e-05
3.80093e-05
3.80134e-05
3.80154e-05
3.80131e-05
3.80092e-05
3.80062e-05
3.80058e-05
3.80086e-05
3.80107e-05
3.80095e-05
3.80072e-05
3.80061e-05
3.80098e-05
3.80214e-05
3.80198e-05
3.80145e-05
3.80103e-05
3.80083e-05
3.80093e-05
5.02215e-05
4.95275e-05
4.93783e-05
4.94512e-05
4.95623e-05
4.96609e-05
4.97367e-05
4.97903e-05
4.98267e-05
4.98508e-05
4.98674e-05
4.98796e-05
4.98896e-05
4.9896e-05
4.99e-05
4.99018e-05
4.99026e-05
4.99031e-05
4.99034e-05
4.99036e-05
4.9904e-05
4.99044e-05
4.99046e-05
4.99032e-05
4.98997e-05
4.98954e-05
4.98925e-05
4.98906e-05
4.9891e-05
4.98917e-05
4.98914e-05
4.98901e-05
4.98887e-05
4.98866e-05
4.98834e-05
4.98872e-05
4.98903e-05
4.98907e-05
4.98905e-05
4.9891e-05
5.79112e-05
5.72701e-05
5.70942e-05
5.71282e-05
5.72277e-05
5.73288e-05
5.74112e-05
5.74714e-05
5.75127e-05
5.75399e-05
5.7558e-05
5.75714e-05
5.75856e-05
5.75968e-05
5.76042e-05
5.76087e-05
5.76112e-05
5.76126e-05
5.76133e-05
5.76136e-05
5.76135e-05
5.76127e-05
5.76099e-05
5.76025e-05
5.75954e-05
5.759e-05
5.75864e-05
5.75843e-05
5.7583e-05
5.75826e-05
5.75825e-05
5.75823e-05
5.7582e-05
5.7582e-05
5.75831e-05
5.75874e-05
5.75872e-05
5.75856e-05
5.7584e-05
5.75829e-05
6.04419e-05
5.99667e-05
5.9857e-05
5.99084e-05
6.00107e-05
6.01129e-05
6.01962e-05
6.02574e-05
6.02994e-05
6.0327e-05
6.03447e-05
6.03561e-05
6.03647e-05
6.03711e-05
6.03757e-05
6.03788e-05
6.03807e-05
6.03819e-05
6.03826e-05
6.0383e-05
6.03832e-05
6.03829e-05
6.0382e-05
6.038e-05
6.03775e-05
6.03751e-05
6.03732e-05
6.03719e-05
6.03712e-05
6.03709e-05
6.03707e-05
6.03705e-05
6.03704e-05
6.03704e-05
6.03711e-05
6.0373e-05
6.03723e-05
6.03713e-05
6.03706e-05
6.03702e-05
5.748e-05
5.72501e-05
5.72164e-05
5.72941e-05
5.74017e-05
5.75017e-05
5.75816e-05
5.76399e-05
5.76798e-05
5.77058e-05
5.77209e-05
5.77286e-05
5.77356e-05
5.77413e-05
5.77451e-05
5.77473e-05
5.77487e-05
5.77496e-05
5.77502e-05
5.77507e-05
5.77511e-05
5.77514e-05
5.77513e-05
5.77511e-05
5.77508e-05
5.77499e-05
5.7749e-05
5.77484e-05
5.77479e-05
5.77479e-05
5.77481e-05
5.77479e-05
5.77475e-05
5.77473e-05
5.77474e-05
5.77481e-05
5.77473e-05
5.77467e-05
5.77464e-05
5.77464e-05
4.95946e-05
4.96116e-05
4.96523e-05
4.97411e-05
4.98424e-05
4.99319e-05
5.00017e-05
5.00523e-05
5.00871e-05
5.01105e-05
5.01249e-05
5.01308e-05
5.01365e-05
5.01407e-05
5.01425e-05
5.01432e-05
5.01435e-05
5.01437e-05
5.01441e-05
5.01446e-05
5.01455e-05
5.01472e-05
5.01501e-05
5.01521e-05
5.01514e-05
5.01495e-05
5.01481e-05
5.0148e-05
5.01498e-05
5.01513e-05
5.01505e-05
5.01486e-05
5.01472e-05
5.01467e-05
5.01475e-05
5.01471e-05
5.01464e-05
5.0146e-05
5.01465e-05
5.01485e-05
3.79802e-05
3.79639e-05
3.7995e-05
3.80724e-05
3.8156e-05
3.82274e-05
3.82822e-05
3.83215e-05
3.83491e-05
3.83697e-05
3.8388e-05
3.84056e-05
3.84049e-05
3.83997e-05
3.83951e-05
3.83919e-05
3.83902e-05
3.83892e-05
3.83892e-05
3.83897e-05
3.8391e-05
3.83941e-05
3.83994e-05
3.84027e-05
3.84015e-05
3.83986e-05
3.83966e-05
3.8397e-05
3.84007e-05
3.8403e-05
3.84014e-05
3.83983e-05
3.8396e-05
3.83958e-05
3.8397e-05
3.83891e-05
3.83925e-05
3.83939e-05
3.83955e-05
3.83982e-05
2.42271e-05
2.45321e-05
2.4677e-05
2.47696e-05
2.4838e-05
2.48882e-05
2.4924e-05
2.49487e-05
2.49651e-05
2.49783e-05
2.49901e-05
2.50023e-05
2.50019e-05
2.49967e-05
2.49929e-05
2.49903e-05
2.49887e-05
2.4988e-05
2.4988e-05
2.49884e-05
2.49895e-05
2.49919e-05
2.49965e-05
2.50012e-05
2.49999e-05
2.49962e-05
2.4994e-05
2.49945e-05
2.49975e-05
2.50015e-05
2.5e-05
2.49961e-05
2.49939e-05
2.49942e-05
2.49959e-05
2.50029e-05
2.49996e-05
2.49958e-05
2.49956e-05
2.49974e-05
8.75139e-06
8.55197e-06
8.54639e-06
8.56171e-06
8.57554e-06
8.58637e-06
8.5939e-06
8.59908e-06
8.60274e-06
8.60581e-06
8.60858e-06
8.60966e-06
8.61113e-06
8.61036e-06
8.60902e-06
8.60794e-06
8.60731e-06
8.607e-06
8.60698e-06
8.60715e-06
8.60761e-06
8.60849e-06
8.60986e-06
8.60987e-06
8.61091e-06
8.61014e-06
8.60886e-06
8.60889e-06
8.61006e-06
8.60999e-06
8.61094e-06
8.61015e-06
8.60885e-06
8.60884e-06
8.60973e-06
8.61029e-06
8.61144e-06
8.61015e-06
8.60926e-06
8.6101e-06
2.42373e-05
2.45464e-05
2.46918e-05
2.47924e-05
2.48582e-05
2.48995e-05
2.49279e-05
2.49511e-05
2.49668e-05
2.49777e-05
2.49858e-05
2.49937e-05