/*--------------------------------*- C++ -*----------------------------------*\
| =========                 |                                                 |
| \\      /  F ield         | OpenFOAM: The Open Source CFD Toolbox           |
|  \\    /   O peration     | Version:  2212                                  |
|   \\  /    A nd           | Website:  www.openfoam.com                      |
|    \\/     M anipulation  |                                                 |
\*---------------------------------------------------------------------------*/
FoamFile
{
    version     2.0;
    format      ascii;
    arch        "LSB;label=32;scalar=64";
    class       volVectorField;
    location    "0.05";
    object      U;
}
// * * * * * * * * * * * * * * * * * * * * * * * * * * * * * * * * * * * * * //

dimensions      [0 1 -1 0 0 0 0];

internalField   nonuniform List<vector> 
6840
(
(0.0956498 -0.00838695 -0.00838695)
(0.0910538 0.00167693 0.00167696)
(0.0794846 0.0022989 0.00229894)
(0.0722254 0.00120173 0.00120179)
(0.0683122 0.00047852 0.000478606)
(0.066169 0.00019638 0.000196505)
(0.0649228 9.41696e-05 9.43166e-05)
(0.0642005 4.60699e-05 4.6262e-05)
(0.063781 2.28182e-05 2.30861e-05)
(0.0635482 1.20626e-05 1.24601e-05)
(0.0634222 5.88309e-06 6.5036e-06)
(0.0633563 2.3809e-06 3.31517e-06)
(0.0633233 1.66777e-06 3.22606e-06)
(0.0633158 4.59517e-07 2.98749e-06)
(0.0633129 -2.33954e-06 2.40133e-06)
(0.0632989 -3.9386e-06 4.50744e-06)
(0.0632833 -5.8345e-06 9.76207e-06)
(0.0632866 -2.14737e-05 9.25735e-06)
(0.0633754 -6.79464e-05 -6.2324e-06)
(0.0631112 -0.000495824 -0.000282123)
(0.0998679 0.00122239 0.000646868)
(0.0969925 0.00364906 0.00274012)
(0.0938613 0.00240359 0.0020135)
(0.0906466 0.00139704 0.00137026)
(0.0880365 0.00089324 0.00100734)
(0.0862811 0.00055808 0.000711808)
(0.0851959 0.000321666 0.000464098)
(0.0845305 0.00017832 0.000292158)
(0.0841172 0.000100031 0.000179666)
(0.0838771 5.55585e-05 0.000106046)
(0.0837407 2.8801e-05 5.91104e-05)
(0.0836656 1.20026e-05 2.95613e-05)
(0.0836258 1.52663e-06 9.75267e-06)
(0.0836193 -9.37511e-07 2.81543e-06)
(0.08361 2.02168e-06 5.24389e-06)
(0.0835803 6.56272e-06 8.04602e-06)
(0.0835547 5.10683e-06 7.00257e-06)
(0.0835249 -4.80379e-06 3.21937e-06)
(0.0834759 -3.50352e-05 8.5524e-06)
(0.0831393 0.000247625 0.000340852)
(0.0992862 0.000186811 7.2937e-05)
(0.0987527 0.00184991 0.00173274)
(0.0979898 0.00218209 0.002028)
(0.0966499 0.00168742 0.00167674)
(0.0952452 0.00108111 0.00126827)
(0.0941174 0.000588286 0.000898863)
(0.0933169 0.000299127 0.000600646)
(0.0927712 0.000155749 0.000396621)
(0.0924087 9.03955e-05 0.000258971)
(0.0921755 5.3758e-05 0.000163112)
(0.09203 3.03622e-05 9.70637e-05)
(0.0919412 1.42957e-05 5.2268e-05)
(0.0918877 2.10504e-06 2.24751e-05)
(0.0918567 3.57743e-07 7.66761e-06)
(0.0918371 9.82501e-06 7.41509e-06)
(0.0918211 2.43113e-05 1.08049e-05)
(0.0918053 3.4002e-05 1.01505e-05)
(0.0917786 4.52758e-05 9.48962e-06)
(0.0917139 7.75247e-05 2.41537e-05)
(0.0915766 0.000238155 0.000166075)
(0.0995575 0.000248771 0.000358961)
(0.0991673 0.0010217 0.00167968)
(0.0986935 0.00128937 0.00207305)
(0.0979377 0.00111029 0.00190326)
(0.0971362 0.000773488 0.00155522)
(0.0964052 0.000491694 0.00116651)
(0.0958049 0.000290028 0.000818387)
(0.09535 0.000166875 0.000548507)
(0.0950258 9.63208e-05 0.000355915)
(0.0948046 5.68858e-05 0.000226402)
(0.0946589 3.45726e-05 0.000139715)
(0.0945656 2.18208e-05 8.25873e-05)
(0.0945071 1.50752e-05 4.60779e-05)
(0.0944717 1.26512e-05 2.37383e-05)
(0.0944511 1.50596e-05 1.14196e-05)
(0.0944418 2.10283e-05 4.50762e-06)
(0.0944407 3.08974e-05 -2.55436e-06)
(0.0944474 4.83573e-05 -1.09254e-05)
(0.0944505 8.71537e-05 -1.33823e-05)
(0.0943984 0.000191047 5.01673e-05)
(0.0993674 2.82273e-05 5.40381e-05)
(0.0991977 0.000235666 0.00131932)
(0.0988424 0.000350271 0.00194605)
(0.0982129 0.000341082 0.00194304)
(0.0975733 0.000257849 0.00169072)
(0.0969999 0.000169005 0.00132279)
(0.0965023 0.000101712 0.000947405)
(0.0961037 5.78224e-05 0.000639817)
(0.095806 3.24837e-05 0.000411651)
(0.0955931 1.83692e-05 0.000259467)
(0.0954475 1.06283e-05 0.000159344)
(0.0953514 6.55714e-06 9.42948e-05)
(0.0952907 4.72858e-06 5.27962e-05)
(0.0952546 4.9494e-06 2.69265e-05)
(0.0952355 7.35045e-06 1.10092e-05)
(0.0952295 1.1805e-05 3.25845e-07)
(0.0952349 1.84145e-05 -1.08874e-05)
(0.0952528 2.80054e-05 -2.46791e-05)
(0.0952743 4.21523e-05 -3.83675e-05)
(0.0952437 7.03433e-05 -9.65951e-06)
(0.0993674 -2.82257e-05 5.40411e-05)
(0.0991977 -0.000235653 0.00131931)
(0.0988424 -0.00035024 0.00194605)
(0.098213 -0.000341036 0.00194303)
(0.0975734 -0.000257776 0.00169071)
(0.097 -0.000168877 0.00132276)
(0.0965024 -0.000101487 0.000947368)
(0.0961039 -5.7434e-05 0.000639747)
(0.0958063 -3.18398e-05 0.000411549)
(0.0955934 -1.73431e-05 0.000259324)
(0.0954479 -9.0602e-06 0.000159163)
(0.095352 -4.25305e-06 9.40777e-05)
(0.0952917 -1.65296e-06 5.26936e-05)
(0.0952563 -7.99704e-07 2.69213e-05)
(0.0952389 -6.59641e-07 1.08855e-05)
(0.095235 2.97673e-07 -2.62415e-07)
(0.0952427 2.3558e-06 -1.21602e-05)
(0.0952621 5.15291e-06 -2.74885e-05)
(0.095289 5.851e-06 -4.56423e-05)
(0.0952836 5.06267e-06 -2.69047e-05)
(0.0995575 -0.000248773 0.000358958)
(0.0991673 -0.0010217 0.00167968)
(0.0986935 -0.00128936 0.00207303)
(0.0979378 -0.00111028 0.00190325)
(0.0971363 -0.000773458 0.00155519)
(0.0964054 -0.000491623 0.00116645)
(0.0958052 -0.000289883 0.000818264)
(0.0953505 -0.000166594 0.000548279)
(0.0950266 -9.58025e-05 0.00035551)
(0.0948058 -5.60675e-05 0.000225737)
(0.0946606 -3.34373e-05 0.00013875)
(0.0945676 -2.04792e-05 8.15631e-05)
(0.0945104 -1.35848e-05 4.5585e-05)
(0.0944783 -1.11529e-05 2.41847e-05)
(0.094463 -1.14511e-05 1.16563e-05)
(0.0944609 -1.20475e-05 1.84596e-06)
(0.0944685 -1.22648e-05 -9.10302e-06)
(0.0944849 -1.20837e-05 -2.4406e-05)
(0.0945136 -1.28558e-05 -4.60583e-05)
(0.0945499 -2.38138e-05 -3.13434e-05)
(0.0992862 -0.000186835 7.29738e-05)
(0.0987527 -0.00184993 0.00173276)
(0.0979898 -0.00218212 0.00202801)
(0.0966499 -0.00168745 0.00167673)
(0.0952453 -0.00108114 0.00126823)
(0.0941176 -0.000588302 0.000898791)
(0.0933172 -0.000299098 0.000600486)
(0.0927718 -0.000155573 0.000396275)
(0.0924097 -8.9835e-05 0.000258223)
(0.092177 -5.22212e-05 0.000161482)
(0.0920322 -2.69129e-05 9.38574e-05)
(0.0919439 -9.09642e-06 4.77742e-05)
(0.0918936 -3.71149e-06 2.17052e-05)
(0.0918657 -1.03409e-05 1.39562e-05)
(0.0918503 -2.19975e-05 1.14778e-05)
(0.0918463 -2.66459e-05 5.58571e-06)
(0.0918516 -2.88472e-05 -5.62283e-06)
(0.0918669 -3.08321e-05 -2.3224e-05)
(0.0919029 -2.60581e-05 -5.53636e-05)
(0.0919662 -2.42584e-05 -6.87604e-05)
(0.0998679 -0.00122243 0.000646898)
(0.0969925 -0.00364909 0.00274013)
(0.0938614 -0.00240363 0.00201351)
(0.0906466 -0.0013971 0.00137026)
(0.0880366 -0.000893317 0.00100731)
(0.0862813 -0.000558158 0.000711749)
(0.0851962 -0.000321722 0.000463968)
(0.0845313 -0.000178279 0.000291837)
(0.084119 -9.96909e-05 0.000178937)
(0.0838811 -5.45335e-05 0.00010452)
(0.0837477 -2.69559e-05 5.6786e-05)
(0.0836733 -1.02875e-05 2.60526e-05)
(0.0836485 -5.45529e-06 9.78343e-06)
(0.0836314 -9.13656e-06 7.73634e-06)
(0.0836029 -1.55701e-05 6.01733e-06)
(0.0835847 -2.07202e-05 1.37951e-06)
(0.0835741 -2.61291e-05 -7.39228e-06)
(0.0835769 -2.99572e-05 -2.77548e-05)
(0.0836251 -2.72497e-06 -9.84617e-05)
(0.08361 0.000134563 -0.000310608)
(0.0956498 0.00838696 -0.00838696)
(0.0910538 -0.00167696 0.00167696)
(0.0794847 -0.00229893 0.00229893)
(0.0722254 -0.00120177 0.00120178)
(0.0683122 -0.000478583 0.000478575)
(0.0661691 -0.000196478 0.000196453)
(0.0649231 -9.42808e-05 9.42287e-05)
(0.0642012 -4.61786e-05 4.6075e-05)
(0.0637825 -2.2878e-05 2.26841e-05)
(0.0635515 -1.20072e-05 1.16582e-05)
(0.0634271 -6.02035e-06 5.40886e-06)
(0.0633616 -4.26553e-06 3.23188e-06)
(0.0633364 -3.47162e-06 1.87515e-06)
(0.0633251 -1.51618e-06 -1.21452e-06)
(0.0633079 -2.38527e-06 -2.39616e-06)
(0.0632906 -6.42808e-06 -1.98858e-06)
(0.0632746 -1.03586e-05 -5.26772e-06)
(0.0632785 -8.96719e-06 -2.1348e-05)
(0.0633687 6.46262e-06 -6.7779e-05)
(0.0631038 0.00028161 -0.000494894)
(0.0998679 0.000646852 0.00122238)
(0.0969925 0.00274008 0.00364908)
(0.0938613 0.00201347 0.00240363)
(0.0906466 0.00137023 0.00139711)
(0.0880365 0.00100729 0.000893319)
(0.0862812 0.000711751 0.000558167)
(0.0851959 0.00046401 0.000321782)
(0.0845306 0.000292035 0.000178509)
(0.0841173 0.0001795 0.000100372)
(0.0838774 0.000105809 5.61378e-05)
(0.0837413 5.87425e-05 2.97848e-05)
(0.0836668 2.88937e-05 1.34476e-05)
(0.083628 8.51426e-06 4.2989e-06)
(0.0836234 6.48959e-07 3.5057e-06)
(0.0836172 1.59219e-06 9.68548e-06)
(0.0835944 1.04225e-06 1.9949e-05)
(0.0835819 -5.93743e-06 2.79353e-05)
(0.0835842 -2.66545e-05 3.18276e-05)
(0.0836314 -9.78911e-05 3.50403e-06)
(0.0836161 -0.000311127 -0.000134771)
(0.100198 0.000715024 0.000715027)
(0.0998861 0.00195947 0.00195949)
(0.0998436 0.00226409 0.00226412)
(0.0991071 0.00199323 0.00199327)
(0.0980827 0.00154688 0.00154694)
(0.0972284 0.00109258 0.00109266)
(0.0966165 0.000721613 0.000721743)
(0.0962007 0.000447567 0.000447769)
(0.0959282 0.000265828 0.00026615)
(0.0957502 0.000157184 0.000157712)
(0.0956367 9.26457e-05 9.35247e-05)
(0.0955629 5.70659e-05 5.85597e-05)
(0.0955107 4.38646e-05 4.64578e-05)
(0.0954692 3.00237e-05 3.45317e-05)
(0.0954456 2.03374e-06 9.94047e-06)
(0.0954395 -1.65554e-05 -2.34774e-06)
(0.0954325 -2.00811e-05 5.10786e-06)
(0.0954123 -3.37343e-05 1.36396e-05)
(0.0953705 -8.07445e-05 7.58416e-06)
(0.0953406 -0.000130495 1.15553e-05)
(0.10013 0.000759168 0.000894614)
(0.100429 0.00188267 0.00197577)
(0.100929 0.00212712 0.00217814)
(0.101049 0.00193064 0.00206246)
(0.100862 0.00153274 0.00175344)
(0.100579 0.0011176 0.00136858)
(0.100295 0.000766684 0.0010064)
(0.100049 0.000500232 0.000703228)
(0.0998585 0.000311167 0.000465874)
(0.0997191 0.000187795 0.000297251)
(0.0996214 0.000112265 0.000185983)
(0.0995537 6.61184e-05 0.000113129)
(0.0995068 3.95652e-05 6.8031e-05)
(0.0994729 2.43113e-05 4.08391e-05)
(0.09945 1.44229e-05 2.37875e-05)
(0.0994347 9.65208e-06 1.47191e-05)
(0.0994201 9.24565e-06 1.22048e-05)
(0.0994001 1.10015e-05 1.48085e-05)
(0.0993711 1.975e-05 2.74089e-05)
(0.0993671 5.8119e-05 6.71607e-05)
(0.100091 0.000431654 0.000804474)
(0.100507 0.00110603 0.00179916)
(0.101083 0.00135584 0.00205887)
(0.101554 0.00132281 0.00200533)
(0.10181 0.00112136 0.00183041)
(0.101909 0.000856285 0.0015293)
(0.101909 0.000609593 0.00120365)
(0.101853 0.000414603 0.000902001)
(0.101774 0.00027327 0.000649699)
(0.101697 0.000175669 0.0004518)
(0.101632 0.000110849 0.000303949)
(0.101582 6.9508e-05 0.000197838)
(0.101545 4.45002e-05 0.00012483)
(0.101518 2.95435e-05 7.65882e-05)
(0.101499 2.06688e-05 4.56795e-05)
(0.101485 1.75378e-05 2.62458e-05)
(0.101473 2.01699e-05 1.36936e-05)
(0.101461 2.79088e-05 4.92396e-06)
(0.101452 4.32694e-05 2.11539e-06)
(0.101471 8.34788e-05 3.31587e-05)
(0.100086 0.000139579 0.000762146)
(0.10046 0.000359408 0.00171068)
(0.101018 0.000453266 0.00201622)
(0.101582 0.000455064 0.00196243)
(0.102006 0.000396594 0.00181695)
(0.102276 0.000311173 0.00157995)
(0.102425 0.000225434 0.00128265)
(0.102484 0.000154818 0.000993531)
(0.102484 0.00010293 0.000736824)
(0.102453 6.68049e-05 0.000526937)
(0.102413 4.26038e-05 0.00036438)
(0.102376 2.70601e-05 0.000243803)
(0.102345 1.78329e-05 0.000157703)
(0.102321 1.29177e-05 9.83164e-05)
(0.102304 1.09257e-05 5.82112e-05)
(0.102292 1.15339e-05 3.08308e-05)
(0.102282 1.48853e-05 1.09608e-05)
(0.102274 2.10529e-05 -5.10073e-06)
(0.102271 3.08392e-05 -1.48516e-05)
(0.102298 4.99286e-05 1.49598e-05)
(0.100086 -0.000139576 0.000762144)
(0.10046 -0.000359399 0.00171068)
(0.101018 -0.000453251 0.00201622)
(0.101582 -0.000455036 0.00196241)
(0.102006 -0.000396544 0.00181692)
(0.102277 -0.000311091 0.00157991)
(0.102425 -0.000225307 0.00128259)
(0.102484 -0.000154633 0.000993435)
(0.102484 -0.000102665 0.000736681)
(0.102454 -6.64214e-05 0.000526729)
(0.102414 -4.19793e-05 0.000364083)
(0.102376 -2.58259e-05 0.000243391)
(0.102346 -1.51959e-05 0.000157074)
(0.102323 -8.06313e-06 9.73166e-05)
(0.102307 -3.36509e-06 5.64688e-05)
(0.102297 -1.59506e-07 2.77021e-05)
(0.10229 2.67501e-06 5.71352e-06)
(0.102285 6.05563e-06 -1.35513e-05)
(0.102286 1.00021e-05 -2.81341e-05)
(0.102316 1.10303e-05 -6.69999e-06)
(0.100091 -0.000431655 0.000804472)
(0.100507 -0.00110603 0.00179915)
(0.101083 -0.00135584 0.00205885)
(0.101554 -0.0013228 0.00200528)
(0.10181 -0.00112134 0.00183034)
(0.101909 -0.000856244 0.00152918)
(0.101909 -0.00060953 0.00120346)
(0.101853 -0.000414529 0.000901716)
(0.101774 -0.000273229 0.000649277)
(0.101697 -0.000175775 0.000451191)
(0.101633 -0.000111226 0.000303143)
(0.101583 -6.99421e-05 0.000197015)
(0.101547 -4.36881e-05 0.000123987)
(0.101522 -2.62907e-05 7.40828e-05)
(0.101507 -1.59837e-05 4.00299e-05)
(0.101498 -1.16052e-05 1.62873e-05)
(0.101494 -1.03993e-05 -3.07828e-06)
(0.101492 -1.01661e-05 -2.26195e-05)
(0.101496 -1.12617e-05 -4.22521e-05)
(0.101528 -2.60461e-05 -3.61147e-05)
(0.10013 -0.000759171 0.000894614)
(0.100429 -0.00188267 0.00197576)
(0.100929 -0.00212714 0.00217811)
(0.101049 -0.00193065 0.0020624)
(0.100863 -0.00153275 0.00175335)
(0.100579 -0.00111759 0.00136842)
(0.100295 -0.00076664 0.00100614)
(0.100049 -0.000500145 0.0007028)
(0.0998582 -0.00031105 0.000465222)
(0.0997183 -0.000187815 0.000296391)
(0.0996201 -0.000112937 0.000185194)
(0.0995526 -6.81009e-05 0.000112872)
(0.0995056 -4.16505e-05 6.66406e-05)
(0.099476 -2.55256e-05 3.5994e-05)
(0.0994597 -1.78939e-05 1.59527e-05)
(0.0994512 -1.67981e-05 1.95022e-06)
(0.0994473 -1.9516e-05 -1.18959e-05)
(0.0994438 -2.4948e-05 -3.10937e-05)
(0.0994397 -3.60967e-05 -5.85504e-05)
(0.0994583 -6.90978e-05 -7.5148e-05)
(0.100198 -0.000715027 0.000715023)
(0.0998861 -0.0019595 0.0019595)
(0.0998436 -0.00226411 0.0022641)
(0.0991071 -0.00199325 0.00199322)
(0.0980827 -0.0015469 0.00154686)
(0.0972285 -0.00109256 0.0010925)
(0.0966166 -0.000721521 0.000721417)
(0.096201 -0.000447368 0.000447189)
(0.0959286 -0.00026566 0.000265353)
(0.0957504 -0.000158 0.000157473)
(0.0956357 -9.75526e-05 9.66544e-05)
(0.0955573 -6.94527e-05 6.7916e-05)
(0.0954988 -4.74405e-05 4.48127e-05)
(0.0954653 -1.59449e-05 1.14281e-05)
(0.0954542 1.5202e-06 -9.48741e-06)
(0.0954469 -2.72279e-06 -1.08597e-05)
(0.0954365 -1.09976e-05 -1.40158e-05)
(0.0954134 -1.71869e-05 -2.98271e-05)
(0.0953701 -9.09884e-06 -7.85308e-05)
(0.0953398 -1.23997e-05 -0.000129443)
(0.0998679 -0.000646895 0.00122243)
(0.0969925 -0.00274011 0.00364907)
(0.0938613 -0.0020135 0.00240362)
(0.0906466 -0.00137026 0.00139708)
(0.0880366 -0.00100732 0.000893266)
(0.0862812 -0.00071176 0.000558067)
(0.0851961 -0.000463975 0.000321567)
(0.0845311 -0.000291866 0.000178027)
(0.0841188 -0.000179016 9.92866e-05)
(0.0838807 -0.000104689 5.38769e-05)
(0.0837469 -5.71077e-05 2.5843e-05)
(0.083672 -2.66482e-05 8.47855e-06)
(0.0836462 -1.08809e-05 2.53863e-06)
(0.0836273 -9.69363e-06 4.51645e-06)
(0.0835953 -9.80359e-06 8.00787e-06)
(0.0835711 -7.97493e-06 7.90551e-06)
(0.0835472 -5.59225e-06 3.93111e-06)
(0.0835178 -2.14536e-06 -6.0048e-06)
(0.0834697 -8.31362e-06 -3.47893e-05)
(0.0831327 -0.000341331 0.00024827)
(0.0992862 7.29497e-05 0.000186822)
(0.0987527 0.00173273 0.00184991)
(0.0979898 0.00202796 0.00218209)
(0.0966499 0.00167668 0.00168741)
(0.0952453 0.0012682 0.0010811)
(0.0941175 0.000898778 0.000588271)
(0.093317 0.000600536 0.000299117)
(0.0927715 0.000396483 0.000155768)
(0.0924091 0.000258787 9.04722e-05)
(0.0921763 0.000162852 5.39132e-05)
(0.0920315 9.66667e-05 3.06393e-05)
(0.0919437 5.16541e-05 1.47614e-05)
(0.091892 2.12927e-05 2.80504e-06)
(0.0918644 5.51452e-06 1.15226e-06)
(0.091851 3.81714e-06 1.05094e-05)
(0.0918466 3.43249e-06 2.48302e-05)
(0.0918525 -3.3666e-06 3.21558e-05)
(0.0918687 -2.10222e-05 3.37156e-05)
(0.0919053 -5.45056e-05 2.7408e-05)
(0.0919691 -6.9457e-05 2.38391e-05)
(0.10013 0.000894607 0.000759172)
(0.100429 0.00197575 0.00188268)
(0.100929 0.00217811 0.00212715)
(0.101049 0.00206241 0.00193066)
(0.100862 0.00175338 0.00153278)
(0.100579 0.00136849 0.00111765)
(0.100295 0.00100627 0.00076677)
(0.100049 0.000703034 0.000500382)
(0.0998588 0.000465572 0.00031141)
(0.0997197 0.000296747 0.000188173)
(0.0996224 0.00018516 0.000112877)
(0.0995553 0.000111727 6.70899e-05)
(0.0995095 6.55808e-05 4.10877e-05)
(0.0994776 3.65396e-05 2.67349e-05)
(0.0994583 1.61305e-05 1.83267e-05)
(0.0994491 9.55237e-07 1.58131e-05)
(0.0994446 -1.27377e-05 1.86141e-05)
(0.0994414 -3.18229e-05 2.4328e-05)
(0.099438 -5.91874e-05 3.57278e-05)
(0.0994564 -7.57052e-05 6.87466e-05)
(0.100058 0.000641619 0.000641624)
(0.100546 0.00157976 0.00157978)
(0.101191 0.001976 0.00197602)
(0.101768 0.00194764 0.00194767)
(0.102159 0.00170781 0.00170786)
(0.102369 0.0013919 0.00139198)
(0.102468 0.00105082 0.00105095)
(0.102493 0.000745136 0.000745339)
(0.102477 0.000508554 0.000508874)
(0.102445 0.00033695 0.000337461)
(0.102412 0.000218177 0.000219001)
(0.102384 0.000138687 0.000140034)
(0.102361 8.71153e-05 8.93411e-05)
(0.102344 5.31487e-05 5.68499e-05)
(0.10233 2.95626e-05 3.57408e-05)
(0.102319 1.39642e-05 2.42536e-05)
(0.102309 4.16735e-06 2.11656e-05)
(0.102299 -3.39046e-06 2.43777e-05)
(0.102289 -8.34581e-06 3.56682e-05)
(0.102299 2.98932e-06 6.78601e-05)
(0.100047 0.00038591 0.000563608)
(0.100504 0.00097525 0.00138132)
(0.101167 0.00128218 0.00179066)
(0.101862 0.00133511 0.00186161)
(0.102464 0.00121343 0.00172573)
(0.102927 0.00100772 0.00146096)
(0.103269 0.000789062 0.00117374)
(0.103497 0.000599555 0.00091804)
(0.103638 0.000428559 0.000683574)
(0.10372 0.000291329 0.000486984)
(0.103765 0.00019303 0.000336899)
(0.103788 0.000125928 0.000227422)
(0.103797 8.14071e-05 0.00015033)
(0.1038 5.21894e-05 9.7606e-05)
(0.103799 3.31168e-05 6.2627e-05)
(0.103795 2.14875e-05 4.06782e-05)
(0.103789 1.55363e-05 2.8326e-05)
(0.103782 1.37056e-05 2.33275e-05)
(0.103777 1.66881e-05 2.67649e-05)
(0.103795 3.16855e-05 4.78723e-05)
(0.100041 0.000127127 0.000513192)
(0.100464 0.000323 0.00126734)
(0.101112 0.000432171 0.00167714)
(0.101828 0.00046093 0.00177983)
(0.102493 0.000428378 0.00169087)
(0.103052 0.000364299 0.00148666)
(0.103487 0.000284866 0.00121404)
(0.103815 0.000218253 0.000959799)
(0.104044 0.000161307 0.00075206)
(0.104195 0.000113356 0.000566947)
(0.10429 7.63823e-05 0.000409557)
(0.104347 5.0125e-05 0.000283515)
(0.104379 3.28703e-05 0.000191092)
(0.104395 2.1843e-05 0.000125651)
(0.104403 1.51023e-05 8.07483e-05)
(0.104405 1.14965e-05 5.08021e-05)
(0.104404 1.03748e-05 3.15057e-05)
(0.104399 1.12504e-05 2.00598e-05)
(0.1044 1.44487e-05 1.69855e-05)
(0.104423 2.23296e-05 2.97996e-05)
(0.100041 -0.000127128 0.000513189)
(0.100464 -0.000323001 0.00126733)
(0.101112 -0.000432174 0.00167712)
(0.101828 -0.000460931 0.00177981)
(0.102493 -0.000428376 0.00169084)
(0.103052 -0.000364295 0.00148662)
(0.103487 -0.000284863 0.00121399)
(0.103815 -0.000218255 0.000959722)
(0.104044 -0.000161311 0.000751947)
(0.104195 -0.000113334 0.000566787)
(0.10429 -7.62351e-05 0.000409316)
(0.104347 -4.96073e-05 0.000283112)
(0.104379 -3.15576e-05 0.000190368)
(0.104396 -1.93852e-05 0.000124373)
(0.104405 -1.14711e-05 7.86822e-05)
(0.104407 -6.56748e-06 4.75851e-05)
(0.104407 -3.53416e-06 2.65342e-05)
(0.104404 -1.51422e-06 1.24868e-05)
(0.104406 -2.905e-07 5.70647e-06)
(0.10443 -1.14752e-06 1.33117e-05)
(0.100047 -0.000385912 0.000563602)
(0.100504 -0.000975256 0.0013813)
(0.101167 -0.00128218 0.00179063)
(0.101862 -0.00133512 0.00186156)
(0.102464 -0.00121345 0.00172567)
(0.102927 -0.00100775 0.00146087)
(0.103269 -0.000789121 0.00117361)
(0.103497 -0.00059968 0.000917853)
(0.103637 -0.000428803 0.000683313)
(0.10372 -0.000291769 0.000486628)
(0.103765 -0.000193701 0.000336401)
(0.103788 -0.000126643 0.00022657)
(0.103799 -8.15606e-05 0.000148512)
(0.103802 -5.16234e-05 9.40787e-05)
(0.103802 -3.28554e-05 5.69966e-05)
(0.103799 -2.23642e-05 3.20811e-05)
(0.103796 -1.74617e-05 1.48148e-05)
(0.103791 -1.62889e-05 2.08372e-06)
(0.103791 -1.91997e-05 -5.74446e-06)
(0.103812 -3.23297e-05 -4.07237e-07)
(0.100058 -0.000641623 0.000641618)
(0.100546 -0.00157977 0.00157976)
(0.101191 -0.00197601 0.00197599)
(0.101768 -0.00194766 0.00194763)
(0.102159 -0.00170783 0.00170779)
(0.102369 -0.00139193 0.00139187)
(0.102468 -0.00105086 0.00105077)
(0.102493 -0.000745241 0.000745081)
(0.102476 -0.000508842 0.000508568)
(0.102444 -0.000337674 0.000337213)
(0.102411 -0.000219703 0.000218943)
(0.102383 -0.000141075 0.000139817)
(0.102361 -8.91075e-05 8.69886e-05)
(0.102344 -5.47175e-05 5.11011e-05)
(0.10233 -3.4131e-05 2.8007e-05)
(0.10232 -2.4451e-05 1.4219e-05)
(0.102311 -2.21121e-05 5.14681e-06)
(0.102301 -2.52542e-05 -2.45327e-06)
(0.102292 -3.61521e-05 -7.73207e-06)
(0.102302 -6.77947e-05 3.13298e-06)
(0.10013 -0.000894613 0.000759166)
(0.100429 -0.00197576 0.00188266)
(0.100929 -0.00217812 0.00212712)
(0.101049 -0.00206243 0.00193062)
(0.100862 -0.00175339 0.00153271)
(0.100579 -0.00136849 0.00111754)
(0.100295 -0.00100625 0.000766578)
(0.100049 -0.000702976 0.000500027)
(0.0998579 -0.000465511 0.000310841)
(0.0997178 -0.000296871 0.00018746)
(0.0996191 -0.000185944 0.000112322)
(0.0995509 -0.000114074 6.70668e-05)
(0.0995028 -6.87339e-05 3.99885e-05)
(0.0994713 -4.0057e-05 2.30142e-05)
(0.0994516 -2.35851e-05 1.41071e-05)
(0.0994372 -1.56682e-05 1.09535e-05)
(0.0994231 -1.30973e-05 1.03938e-05)
(0.0994029 -1.54567e-05 1.1809e-05)
(0.0993738 -2.76996e-05 2.02993e-05)
(0.0993704 -6.66502e-05 5.78307e-05)
(0.0992862 -7.29679e-05 0.00018683)
(0.0987527 -0.00173275 0.00184992)
(0.0979898 -0.00202799 0.00218209)
(0.0966499 -0.00167671 0.0016874)
(0.0952453 -0.00126822 0.00108108)
(0.0941175 -0.000898789 0.000588216)
(0.0933171 -0.0006005 0.000298979)
(0.0927715 -0.000396323 0.000155427)
(0.0924091 -0.000258338 8.96717e-05)
(0.092176 -0.000161704 5.19992e-05)
(0.0920305 -9.42438e-05 2.65683e-05)
(0.0919411 -4.84053e-05 8.51372e-06)
(0.0918889 -2.2781e-05 2.80551e-06)
(0.0918576 -1.58452e-05 9.53204e-06)
(0.0918363 -1.53018e-05 2.13813e-05)
(0.0918208 -1.23356e-05 2.6732e-05)
(0.0918043 -8.39113e-06 3.10771e-05)
(0.0917768 -7.37728e-06 4.25029e-05)
(0.0917116 -2.39394e-05 7.68236e-05)
(0.0915733 -0.000166999 0.000239383)
(0.0995575 0.000358958 0.000248765)
(0.0991673 0.00167966 0.00102168)
(0.0986935 0.002073 0.00128934)
(0.0979377 0.00190322 0.00111025)
(0.0971362 0.00155517 0.000773443)
(0.0964053 0.00116647 0.000491628)
(0.095805 0.000818337 0.000289941)
(0.0953503 0.000548448 0.000166743)
(0.0950263 0.000355841 9.61183e-05)
(0.0948054 0.000226293 5.65698e-05)
(0.0946603 0.000139523 3.40406e-05)
(0.0945679 8.22485e-05 2.09108e-05)
(0.0945109 4.54481e-05 1.35062e-05)
(0.094478 2.25586e-05 9.81452e-06)
(0.0944616 9.2118e-06 9.68363e-06)
(0.0944587 6.3927e-07 1.12114e-05)
(0.0944672 -9.32603e-06 1.22758e-05)
(0.0944846 -2.44626e-05 1.20815e-05)
(0.0945144 -4.65274e-05 1.23488e-05)
(0.0945514 -3.22815e-05 2.26081e-05)
(0.100091 0.00080447 0.000431657)
(0.100507 0.00179915 0.00110604)
(0.101083 0.00205885 0.00135585)
(0.101554 0.00200529 0.00132282)
(0.10181 0.00183037 0.00112136)
(0.101909 0.00152923 0.000856278)
(0.101909 0.00120355 0.000609578)
(0.101853 0.00090185 0.000414574)
(0.101775 0.000649465 0.000273211)
(0.101698 0.000451413 0.000175551)
(0.101633 0.000303289 0.000110606)
(0.101584 0.000196689 6.90171e-05)
(0.101548 0.000122817 4.35418e-05)
(0.101524 7.30961e-05 2.77495e-05)
(0.101508 3.96977e-05 1.74248e-05)
(0.101498 1.61433e-05 1.17662e-05)
(0.101494 -3.11759e-06 9.91768e-06)
(0.101491 -2.27793e-05 9.61246e-06)
(0.101495 -4.25616e-05 1.09121e-05)
(0.101527 -3.65456e-05 2.60348e-05)
(0.100047 0.000563604 0.000385914)
(0.100504 0.0013813 0.000975262)
(0.101167 0.00179064 0.00128219)
(0.101862 0.00186157 0.00133513)
(0.102464 0.00172569 0.00121345)
(0.102927 0.00146088 0.00100774)
(0.103269 0.00117361 0.0007891)
(0.103497 0.000917844 0.000599623)
(0.103638 0.000683292 0.000428671)
(0.10372 0.000486546 0.000291488)
(0.103766 0.000336174 0.000193236)
(0.103789 0.000226223 0.0001262)
(0.103799 0.000148354 8.17788e-05)
(0.103802 9.436e-05 5.27321e-05)
(0.103802 5.73278e-05 3.39513e-05)
(0.1038 3.21125e-05 2.27674e-05)
(0.103796 1.46532e-05 1.74014e-05)
(0.10379 1.88112e-06 1.61604e-05)
(0.103789 -5.87351e-06 1.92959e-05)
(0.10381 -3.82901e-07 3.27892e-05)
(0.100039 0.000328852 0.000328857)
(0.100447 0.000838946 0.00083896)
(0.10109 0.00113442 0.00113444)
(0.101827 0.00122703 0.00122705)
(0.102534 0.00117835 0.00117838)
(0.103145 0.00104102 0.00104107)
(0.10364 0.00086274 0.000862825)
(0.104022 0.000683422 0.00068355)
(0.104307 0.000517998 0.000518184)
(0.104511 0.000381579 0.000381853)
(0.10465 0.000275556 0.000275966)
(0.104743 0.000192313 0.000192933)
(0.104803 0.000130839 0.000131793)
(0.104841 8.70441e-05 8.85249e-05)
(0.104865 5.67754e-05 5.90781e-05)
(0.104878 3.65428e-05 4.00817e-05)
(0.104885 2.3648e-05 2.89728e-05)
(0.104888 1.61211e-05 2.38898e-05)
(0.104895 1.35235e-05 2.43835e-05)
(0.104919 1.85059e-05 3.34058e-05)
(0.100035 0.000107403 0.000296158)
(0.10041 0.000277625 0.000764779)
(0.101023 0.00038203 0.00104934)
(0.101757 0.00042077 0.00115649)
(0.102487 0.00040975 0.00113345)
(0.103152 0.000367086 0.00102805)
(0.103712 0.000309534 0.000876688)
(0.104162 0.000249462 0.000712212)
(0.104512 0.000192021 0.000560218)
(0.104774 0.000141613 0.000425095)
(0.104966 0.000102896 0.000315483)
(0.1051 7.34238e-05 0.000231194)
(0.105191 5.04307e-05 0.000164338)
(0.105251 3.35402e-05 0.000114555)
(0.105291 2.21103e-05 7.93088e-05)
(0.105316 1.48708e-05 5.46539e-05)
(0.105331 1.07218e-05 3.84113e-05)
(0.10534 8.7171e-06 2.89245e-05)
(0.105353 8.3699e-06 2.51107e-05)
(0.105381 1.05893e-05 2.71445e-05)
(0.100035 -0.000107408 0.000296156)
(0.10041 -0.000277638 0.000764773)
(0.101023 -0.000382048 0.00104933)
(0.101757 -0.000420792 0.00115648)
(0.102487 -0.000409776 0.00113344)
(0.103152 -0.000367121 0.00102804)
(0.103712 -0.000309584 0.000876672)
(0.104162 -0.000249535 0.000712186)
(0.104511 -0.00019212 0.000560172)
(0.104774 -0.000141737 0.000425013)
(0.104966 -0.000103001 0.000315336)
(0.1051 -7.34352e-05 0.000230927)
(0.105191 -5.02445e-05 0.000163858)
(0.105252 -3.31234e-05 0.000113756)
(0.105291 -2.15744e-05 7.80991e-05)
(0.105317 -1.43477e-05 5.28979e-05)
(0.105332 -1.02393e-05 3.58832e-05)
(0.105341 -8.20651e-06 2.53327e-05)
(0.105354 -7.66689e-06 2.01381e-05)
(0.105382 -9.49116e-06 2.03906e-05)
(0.100039 -0.000328856 0.000328851)
(0.100447 -0.000838958 0.000838946)
(0.10109 -0.00113444 0.00113442)
(0.101827 -0.00122705 0.00122703)
(0.102534 -0.00117838 0.00117836)
(0.103145 -0.00104107 0.00104105)
(0.10364 -0.00086283 0.000862808)
(0.104022 -0.000683569 0.000683518)
(0.104307 -0.000518258 0.000518148)
(0.104511 -0.000381986 0.000381785)
(0.10465 -0.000276114 0.000275781)
(0.104743 -0.000193018 0.000192493)
(0.104803 -0.000131639 0.00013079)
(0.104841 -8.80933e-05 8.66656e-05)
(0.104864 -5.86328e-05 5.6291e-05)
(0.104878 -3.98443e-05 3.61934e-05)
(0.104885 -2.89194e-05 2.34307e-05)
(0.104888 -2.39044e-05 1.59256e-05)
(0.104895 -2.43576e-05 1.3243e-05)
(0.104919 -3.32669e-05 1.80854e-05)
(0.100047 -0.000563607 0.000385907)
(0.100504 -0.00138131 0.000975243)
(0.101167 -0.00179065 0.00128217)
(0.101862 -0.00186159 0.0013351)
(0.102464 -0.00172571 0.00121343)
(0.102927 -0.00146094 0.00100775)
(0.103269 -0.0011737 0.000789139)
(0.103496 -0.000918003 0.00059968)
(0.103637 -0.000683549 0.000428755)
(0.10372 -0.000487013 0.000291657)
(0.103765 -0.000337034 0.00019352)
(0.103787 -0.000227603 0.000126369)
(0.103797 -0.000150257 8.11617e-05)
(0.1038 -9.71762e-05 5.10674e-05)
(0.103799 -6.231e-05 3.20335e-05)
(0.103795 -4.07364e-05 2.10863e-05)
(0.10379 -2.8585e-05 1.55608e-05)
(0.103782 -2.36155e-05 1.37638e-05)
(0.103778 -2.69928e-05 1.65057e-05)
(0.103796 -4.79871e-05 3.11462e-05)
(0.100091 -0.000804471 0.000431651)
(0.100507 -0.00179915 0.00110602)
(0.101083 -0.00205885 0.00135583)
(0.101554 -0.00200529 0.00132279)
(0.10181 -0.00183036 0.00112133)
(0.101909 -0.00152923 0.000856267)
(0.101909 -0.00120356 0.000609592)
(0.101853 -0.000901877 0.00041462)
(0.101774 -0.000649526 0.000273344)
(0.101697 -0.000451568 0.000175931)
(0.101632 -0.000303697 0.000111467)
(0.101581 -0.000197794 7.03288e-05)
(0.101545 -0.000125136 4.43402e-05)
(0.101518 -7.71183e-05 2.79511e-05)
(0.101499 -4.63479e-05 1.94044e-05)
(0.101485 -2.66985e-05 1.75216e-05)
(0.101474 -1.38569e-05 2.06879e-05)
(0.101462 -5.09303e-06 2.8419e-05)
(0.101453 -2.56606e-06 4.3578e-05)
(0.101473 -3.4034e-05 8.35065e-05)
(0.0995575 -0.000358958 0.000248769)
(0.0991673 -0.00167967 0.00102169)
(0.0986935 -0.00207301 0.00128935)
(0.0979377 -0.00190323 0.00111025)
(0.0971362 -0.00155517 0.000773433)
(0.0964053 -0.00116645 0.000491594)
(0.095805 -0.00081829 0.000289868)
(0.0953501 -0.000548331 0.00016663)
(0.095026 -0.000355616 9.59707e-05)
(0.0948048 -0.000225932 5.64465e-05)
(0.0946589 -0.000139081 3.41272e-05)
(0.0945648 -8.21249e-05 2.16574e-05)
(0.0945059 -4.64665e-05 1.55009e-05)
(0.0944705 -2.54345e-05 1.42552e-05)
(0.0944516 -1.35204e-05 1.69928e-05)
(0.0944433 -5.34857e-06 2.18307e-05)
(0.094442 2.80258e-06 3.0722e-05)
(0.0944479 1.13856e-05 4.81925e-05)
(0.0944508 1.34263e-05 8.76788e-05)
(0.0943989 -5.10181e-05 0.000192548)
(0.0993674 5.40151e-05 2.82255e-05)
(0.0991977 0.00131931 0.000235648)
(0.0988424 0.00194604 0.000350243)
(0.0982129 0.00194302 0.000341038)
(0.0975733 0.00169071 0.000257783)
(0.097 0.00132278 0.000168903)
(0.0965024 0.000947412 0.000101546)
(0.0961039 0.000639835 5.75484e-05)
(0.0958062 0.000411686 3.20363e-05)
(0.0955935 0.00025951 1.76504e-05)
(0.0954481 0.000159368 9.48736e-06)
(0.0953524 9.42595e-05 4.75591e-06)
(0.0952923 5.26312e-05 1.87675e-06)
(0.0952571 2.65237e-05 2.93338e-07)
(0.0952392 1.02921e-05 -4.38521e-07)
(0.0952349 -7.79355e-07 -1.16602e-06)
(0.0952425 -1.24801e-05 -2.75405e-06)
(0.0952621 -2.77132e-05 -5.36385e-06)
(0.095289 -4.59451e-05 -6.14814e-06)
(0.0952837 -2.73447e-05 -5.6971e-06)
(0.100086 0.000762143 0.000139577)
(0.10046 0.00171067 0.000359403)