/*--------------------------------*- C++ -*----------------------------------*\
| =========                 |                                                 |
| \\      /  F ield         | OpenFOAM: The Open Source CFD Toolbox           |
|  \\    /   O peration     | Version:  2212                                  |
|   \\  /    A nd           | Website:  www.openfoam.com                      |
|    \\/     M anipulation  |                                                 |
\*---------------------------------------------------------------------------*/
FoamFile
{
    version     2.0;
    format      ascii;
    arch        "LSB;label=32;scalar=64";
    class       volScalarField;
    location    "3";
    object      k;
}
// * * * * * * * * * * * * * * * * * * * * * * * * * * * * * * * * * * * * * //

dimensions      [0 2 -2 0 0 0 0];

internalField   nonuniform List<scalar> 
690
(
0.0043081
0.00397569
0.00368899
0.00730641
0.006621
0.00602483
0.00969898
0.00880083
0.00801776
0.00428109
0.00397191
0.00370249
0.00346647
0.0032587
0.00307493
0.00291228
0.00276802
0.00263789
0.00251967
0.00241228
0.00231445
0.00750748
0.00680468
0.00619466
0.00566271
0.00519871
0.00479192
0.00443539
0.00412436
0.00384769
0.00359774
0.00337212
0.00316851
0.00999957
0.00907782
0.0082706
0.00756182
0.0069393
0.00639038
0.00590447
0.00547306
0.00508903
0.0047455
0.00443654
0.00415757
0.00412726
0.00385065
0.0036037
0.00338519
0.00319213
0.00302135
0.00287082
0.00273662
0.00261537
0.00250543
0.00240542
0.00231388
0.00729815
0.00661936
0.00603178
0.00552078
0.00507412
0.00468151
0.0043389
0.00403651
0.00376448
0.00351918
0.0032982
0.00309881
0.00972977
0.0088334
0.00805007
0.00736357
0.00676003
0.00622748
0.00575583
0.00533703
0.00496364
0.00462894
0.00432745
0.00405496
0.0114459
0.0104012
0.00948788
0.00868589
0.0079788
0.007353
0.00679709
0.0063016
0.00585846
0.00546072
0.00510247
0.00477872
0.0124926
0.0113643
0.0103751
0.00950453
0.00873528
0.00805305
0.00744586
0.00690362
0.00641784
0.00598124
0.00558764
0.00523183
0.012843
0.0116872
0.0106738
0.0097811
0.00899153
0.0082906
0.00766623
0.00710824
0.00660801
0.00615821
0.00575255
0.00538578
0.0124928
0.0113644
0.0103749
0.00950409
0.00873474
0.00805249
0.00744533
0.00690315
0.00641742
0.00598088
0.00558732
0.00523154
0.0114476
0.0103988
0.0094831
0.00868011
0.00797296
0.00734764
0.00679254
0.00629799
0.00585583
0.00545908
0.00510183
0.004779
0.00970425
0.00880485
0.00802164
0.00733641
0.00673483
0.00620483
0.00573624
0.00532077
0.00495103
0.00462018
0.00432268
0.00730417
0.00661855
0.0060231
0.0055062
0.00505644
0.00466339
0.00432192
0.0040233
0.0037563
0.00351595
0.00329983
0.00430284
0.00397172
0.00368662
0.00343995
0.00322347
0.00303201
0.00286323
0.00271378
0.00258053
0.00246129
0.00235425
0.00396474
0.0036769
0.00343488
0.00323028
0.003053
0.00289964
0.00276468
0.00264494
0.00253714
0.00243971
0.00235124
0.00227027
0.00675259
0.00612189
0.00558107
0.00511571
0.00471272
0.00436094
0.00404821
0.00376844
0.00351743
0.00329191
0.00308905
0.00290624
0.00889667
0.00808339
0.00737233
0.00675008
0.00620392
0.00572281
0.00529722
0.00491866
0.00458016
0.00427588
0.00400108
0.00375221
0.0104747
0.00950986
0.00867048
0.00793607
0.00729052
0.00672069
0.00621565
0.00576619
0.00536451
0.00500403
0.00467923
0.00438554
0.0114461
0.0103989
0.00948394
0.00868118
0.007974
0.00734856
0.00679331
0.00629862
0.00585634
0.00545952
0.00510221
0.00477941
0.0117698
0.010698
0.00975979
0.00893521
0.0082077
0.00756347
0.00699095
0.00648044
0.00602378
0.00561396
0.00524491
0.00491154
0.0114446
0.0103994
0.00948615
0.00868444
0.00797767
0.00735214
0.00679643
0.00630106
0.00585798
0.00546027
0.00510202
0.00477825
0.0104746
0.00950903
0.00866985
0.00793577
0.00729042
0.00672065
0.0062156
0.00576607
0.00536429
0.00500369
0.00467881
0.00438479
0.00887025
0.00805255
0.00733706
0.00671213
0.00616579
0.00568657
0.0052645
0.00489054
0.00455692
0.00425756
0.00398788
0.00673312
0.00607637
0.00552208
0.00505196
0.00464853
0.00430028
0.00399698
0.00372787
0.00348688
0.00327018
0.00307565
0.00416985
0.00382395
0.00352685
0.00328112
0.00306623
0.00287852
0.00271714
0.0025778
0.00245679
0.00235002
0.00225526
0.00373567
0.00343821
0.00318743
0.00299587
0.00284522
0.00271711
0.00260687
0.00251018
0.00242437
0.00234546
0.00227327
0.00220793
0.00588844
0.0052879
0.00480601
0.00441243
0.00407592
0.00378151
0.00352103
0.00328847
0.0030817
0.00289411
0.00272555
0.00257038
0.0075968
0.00688374
0.00626444
0.00573225
0.00527381
0.00487491
0.00452395
0.00421198
0.00393166
0.00367859
0.00344906
0.00324085
0.00887046
0.00805372
0.0073385
0.00671342
0.00616687
0.00568751
0.00526539
0.0048915
0.004558
0.00425884
0.00398914
0.00374523
0.00970354
0.00880659
0.00802434
0.0073393
0.00673753
0.0062072
0.00573826
0.00532245
0.00495244
0.0046214
0.00432375
0.00405505
0.00999873
0.00907649
0.00826954
0.00756215
0.00694019
0.00639139
0.00590538
0.00547381
0.00508957
0.00474583
0.0044367
0.00415758
0.00972882
0.00883204
0.00804883
0.00736274
0.00675956
0.00622724
0.00575573
0.00533697
0.00496353
0.00462874
0.00432718
0.00405456
0.00889626
0.00808487
0.00737422
0.0067519
0.00620543
0.00572391
0.00529791
0.00491894
0.0045801
0.00427553
0.00400059
0.00375118
0.00759764
0.00688497
0.00626629
0.00573438
0.00527562
0.00487604
0.00452435
0.00421161
0.00393061
0.00367689
0.00344768
0.00583149
0.0052094
0.00471655
0.00431602
0.00398466
0.00370218
0.00345629
0.00323466
0.00303203
0.00284793
0.00268218
0.00391335
0.00357535
0.00326656
0.00302283
0.00282481
0.00266302
0.00253004
0.00242057
0.00232382
0.00223707
0.00215952
0.00340821
0.003082
0.00287618
0.00273307
0.00262518
0.00254281
0.00246662
0.0023954
0.00232426
0.00226046
0.00220293
0.00215492
0.00461263
0.00396016
0.00355467
0.00328216
0.00307396
0.00289633
0.00273492
0.00257838
0.00241934
0.00228438
0.00216245
0.00206443
0.00583112
0.0052133
0.00472107
0.00432092
0.00399025
0.0037084
0.00346312
0.00324281
0.00304048
0.00285688
0.0026892
0.00253738
0.00673384
0.00607759
0.00552363
0.00505424
0.00465112
0.00430318
0.00400001
0.00373111
0.00349038
0.00327418
0.00307888
0.00290299
0.00730593
0.00661993
0.00602418
0.00550763
0.00505829
0.00466581
0.00432434
0.00402558
0.00375847
0.00351813
0.00330171
0.00310693
0.0075076
0.00680309
0.00619261
0.00566204
0.00519901
0.0047927
0.00443632
0.0041252
0.00384843
0.00359835
0.00337261
0.00316893
0.00729754
0.00661816
0.00603043
0.00551965
0.00507329
0.0046809
0.00433845
0.00403608
0.00376403
0.00351869
0.00329769
0.00309823
0.00675159
0.00612266
0.00558184
0.00511603
0.00471265
0.0043605
0.00404749
0.00376756
0.00351642
0.00329084
0.00308804
0.0029048
0.00588808
0.00529082
0.00480915
0.0044144
0.00407653
0.00378119
0.00352004
0.00328723
0.00308001
0.00289269
0.00272371
0.00461299
0.00395998
0.00355396
0.00328001
0.00306951
0.00288988
0.00272751
0.00256781
0.00240739
0.00227192
0.00216169
0.00362359
0.00329965
0.00300398
0.00278835
0.00263055
0.00251318
0.00241932
0.00233754
0.00226012
0.00219223
0.00213542
0.00362759
0.00333737
0.00308086
0.00291469
0.00280445
0.0027299
0.00266617
0.00260682
0.00254927
0.00249835
0.00245176
0.00241008
0.00362389
0.00329961
0.00300407
0.00278898
0.00263211
0.00251563
0.00242236
0.00234183
0.00226487
0.00219775
0.00213785
0.00208886
0.00391404
0.00357533
0.00326661
0.00302353
0.00282639
0.00266524
0.0025328
0.00242397
0.00232745
0.00224114
0.00216342
0.00209365
0.00417029
0.00382259
0.00352492
0.00328014
0.00306609
0.00287907
0.00271825
0.00257932
0.00245868
0.00235231
0.00225812
0.00217293
0.00430395
0.00397115
0.00368519
0.00343869
0.0032226
0.00303165
0.00286321
0.0027141
0.00258115
0.00246219
0.00235559
0.00225959
0.00428034
0.00397104
0.00370159
0.00346585
0.00325841
0.00307488
0.00291238
0.00276814
0.00263806
0.0025199
0.00241258
0.00231484
0.00412733
0.00385061
0.0036035
0.00338493
0.00319188
0.00302115
0.00287065
0.00273646
0.00261521
0.00250528
0.00240528
0.00231375
0.00396459
0.0036759
0.00343364
0.00322918
0.00305209
0.00289882
0.00276395
0.00264428
0.00253653
0.00243912
0.00235075
0.00226971
0.00373512
0.00343761
0.00318698
0.0029955
0.00284459
0.00271662
0.00260636
0.00250981
0.00242403
0.00234514
0.00227187
0.00340833
0.00308289
0.00287676
0.00273289
0.00262472
0.00254079
0.00246457
0.00239263
0.00232115
0.00225667
0.00220237
0.00362842
0.00333746
0.00308087
0.0029141
0.0028034
0.00272784
0.00266358
0.0026035
0.00254569
0.00249419
0.00244962
)
;

boundaryField
{
    inlet
    {
        type            fixedValue;
        value           nonuniform List<scalar> 0();
    }
    ami1
    {
        type            cyclicAMI;
        value           nonuniform List<scalar> 0();
    }
    walls
    {
        type            kqRWallFunction;
        value           nonuniform List<scalar> 
259
(
0.00430284
0.00416985
0.00391335
0.00362359
0.00362842
0.00397172
0.00382395
0.00357535
0.00329965
0.00333746
0.00368662
0.00352685
0.00326656
0.00300398
0.00308087
0.00343995
0.00328112
0.00302283
0.00278835
0.0029141
0.00322347
0.00306623
0.00282481
0.00263055
0.0028034
0.00303201
0.00287852
0.00266302
0.00251318
0.00272784
0.00286323
0.00271714
0.00253004
0.00241932
0.00266358
0.00271378
0.0025778
0.00242057
0.00233754
0.0026035
0.00258053
0.00245679
0.00232382
0.00226012
0.00254569
0.00246129
0.00235002
0.00223707
0.00219223
0.00249419
0.00235425
0.00225526
0.00215952
0.00213542
0.00244962
0.00362759
0.00362389
0.00391404
0.00417029
0.00430395
0.00428034
0.00412733
0.00396459
0.00373512
0.00340833
0.00362842
0.00333737
0.00329961
0.00357533
0.00382259
0.00397115
0.00397104
0.00385061
0.0036759
0.00343761
0.00308289
0.00333746
0.00308086
0.00300407
0.00326661
0.00352492
0.00368519
0.00370159
0.0036035
0.00343364
0.00318698
0.00287676
0.00308087
0.00291469
0.00278898
0.00302353
0.00328014
0.00343869
0.00346585
0.00338493
0.00322918
0.0029955
0.00273289
0.0029141
0.00280445
0.00263211
0.00282639
0.00306609
0.0032226
0.00325841
0.00319188
0.00305209
0.00284459
0.00262472
0.0028034
0.0027299
0.00251563
0.00266524
0.00287907
0.00303165
0.00307488
0.00302115
0.00289882
0.00271662
0.00254079
0.00272784
0.00266617
0.00242236
0.0025328
0.00271825
0.00286321
0.00291238
0.00287065
0.00276395
0.00260636
0.00246457
0.00266358
0.00260682
0.00234183
0.00242397
0.00257932
0.0027141
0.00276814
0.00273646
0.00264428
0.00250981
0.00239263
0.0026035
0.00254927
0.00226487
0.00232745
0.00245868
0.00258115
0.00263806
0.00261521
0.00253653
0.00242403
0.00232115
0.00254569
0.00249835
0.00219775
0.00224114
0.00235231
0.00246219
0.0025199
0.00250528
0.00243912
0.00234514
0.00225667
0.00249419
0.00245176
0.00213785
0.00216342
0.00225812
0.00235559
0.00241258
0.00240528
0.00235075
0.00227187
0.00220237
0.00244962
0.00241008
0.00208886
0.00209365
0.00217293
0.00225959
0.00231484
0.00231375
0.00226971
0.0043081
0.00428109
0.00412726
0.00396474
0.00373567
0.00340821
0.00362759
0.00397569
0.00397191
0.00385065
0.0036769
0.00343821
0.003082
0.00333737
0.00368899
0.00370249
0.0036037
0.00343488
0.00318743
0.00287618
0.00308086
0.00346647
0.00338519
0.00323028
0.00299587
0.00273307
0.00291469
0.0032587
0.00319213
0.003053
0.00284522
0.00262518
0.00280445
0.00307493
0.00302135
0.00289964
0.00271711
0.00254281
0.0027299
0.00291228
0.00287082
0.00276468
0.00260687
0.00246662
0.00266617
0.00276802
0.00273662
0.00264494
0.00251018
0.0023954
0.00260682
0.00263789
0.00261537
0.00253714
0.00242437
0.00232426
0.00254927
0.00251967
0.00250543
0.00243971
0.00234546
0.00226046
0.00249835
0.00241228
0.00240542
0.00235124
0.00227327
0.00220293
0.00245176
0.00231445
0.00231388
0.00227027
0.00220793
0.00215492
0.00241008
)
;
    }
    ami2
    {
        type            cyclicAMI;
        value           nonuniform List<scalar> 
61
(
0.00450108
0.00767943
0.0102199
0.00445651
0.00789835
0.0105299
0.00427881
0.00768991
0.0102439
0.0120454
0.0131388
0.0135045
0.0131389
0.0120501
0.0102229
0.00767861
0.00449834
0.00413154
0.00709589
0.00935756
0.0110333
0.0120494
0.0123857
0.0120446
0.0110331
0.0093325
0.00709156
0.00437275
0.00391491
0.00622886
0.00799356
0.00933266
0.0102225
0.0105296
0.0102433
0.00935718
0.00799387
0.00616813
0.00410302
0.00359291
0.00492378
0.00616803
0.00709198
0.00767946
0.00789851
0.00768956
0.00709519
0.00622843
0.00492377
0.00376489
0.00358807
0.00376515
0.00410345
0.00437303
0.0044989
0.00445607
0.00427885
0.00413142
0.00391443
0.0035928
0.00358834
)
;
    }
    outlet
    {
        type            zeroGradient;
    }
    procBoundary1to0
    {
        type            processor;
        value           nonuniform List<scalar> 
138
(
0.00344099
0.00344099
0.00322359
0.00303183
0.00286296
0.00271348
0.00258019
0.00246098
0.0023542
0.00225825
0.00550241
0.00550241
0.00505361
0.00466141
0.00432082
0.00402283
0.00375618
0.00351613
0.00329993
0.00310525
0.011444
0.0103971
0.00732989
0.00948217
0.00732989
0.00673111
0.00620277
0.00573517
0.0053203
0.00495092
0.00462032
0.00432296
0.00405447
0.0117714
0.0106991
0.00976051
0.00893564
0.00820797
0.00756366
0.00699112
0.00648061
0.00602397
0.00561418
0.00524517
0.00491183
0.0117714
0.0106991
0.00976051
0.00893564
0.00820797
0.00756366
0.00699112
0.00648061
0.00602397
0.00561418
0.00524517
0.00491183
0.0128433
0.0116869
0.0106733
0.00978061
0.00899114
0.00829032
0.00766604
0.00710811
0.00660793
0.00615815
0.00575252
0.00538575
0.0132043
0.0120215
0.0109831
0.0100677
0.00925747
0.00853771
0.00789609
0.00732227
0.00680748
0.00634429
0.00592635
0.00554833
0.0128433
0.011687
0.0106732
0.00978032
0.0089907
0.00828982
0.00766553
0.00710764
0.0066075
0.00615778
0.0057522
0.00538549
0.0117699
0.0106972
0.00975855
0.00893386
0.00820644
0.00756238
0.00699005
0.00647972
0.00602323
0.00561354
0.0052446
0.00491139
0.009997
0.00907392
0.00826671
0.0075593
0.00693751
0.00638901
0.00590337
0.00547215
0.00508824
0.00474478
0.00443586
0.00750626
0.00680087
0.00618994
0.00565916
0.0051961
0.00478998
0.00443381
0.00412304
0.0038466
0.0035968
0.0033712
0.00428029
0.00397095
0.00370136
0.00346551
0.00325797
0.0030744
0.00291186
0.00276768
0.00263761
0.0025194
0.00241174
)
;
    }
    procBoundary1to2
    {
        type            processor;
        value           nonuniform List<scalar> 9(0.00417005 0.00382165 0.00352426 0.00673242 0.0060729 0.0055179 0.00886478 0.00804687 0.0073309);
    }
    procBoundary1to8
    {
        type            processor;
        value           nonuniform List<scalar> 
33
(
0.00222463
0.00298451
0.00390509
0.00222928
0.00291842
0.00380827
0.00448543
0.00490942
0.00505351
0.00219498
0.00273974
0.00352594
0.00411898
0.00448693
0.00460978
0.00214812
0.0024312
0.00304857
0.00352241
0.00381119
0.00390503
0.00210538
0.00194894
0.00239169
0.00273927
0.00292933
0.00298459
0.0023658
0.00204025
0.00203081
0.00209509
0.00217234
0.00222494
)
;
    }
    procBoundary1to9
    {
        type            processor;
        value           nonuniform List<scalar> 
30
(
0.00490928
0.00448658
0.00405371
0.00405371
0.00310371
0.00225763
0.0044851
0.0041182
0.00374249
0.00374249
0.00289588
0.00216967
0.0038079
0.00352473
0.00323693
0.00323693
0.00252316
0.00208896
0.00291784
0.00273818
0.00256635
0.00256635
0.00204784
0.00208389
0.002229
0.00219455
0.00220569
0.00220569
0.00215117
0.00240586
)
;
    }
}


// ************************************************************************* //
