/*--------------------------------*- C++ -*----------------------------------*\
| =========                 |                                                 |
| \\      /  F ield         | OpenFOAM: The Open Source CFD Toolbox           |
|  \\    /   O peration     | Version:  2212                                  |
|   \\  /    A nd           | Website:  www.openfoam.com                      |
|    \\/     M anipulation  |                                                 |
\*---------------------------------------------------------------------------*/
FoamFile
{
    version     2.0;
    format      ascii;
    arch        "LSB;label=32;scalar=64";
    class       volScalarField;
    location    "3";
    object      nut;
}
// * * * * * * * * * * * * * * * * * * * * * * * * * * * * * * * * * * * * * //

dimensions      [0 2 -1 0 0 0 0];

internalField   nonuniform List<scalar> 
690
(
2.32545e-05
2.23345e-05
2.15148e-05
0.000104405
9.83183e-05
9.28535e-05
0.000169352
0.000161515
0.000154044
2.42316e-05
2.32911e-05
2.24588e-05
2.17122e-05
2.10385e-05
2.04275e-05
1.98729e-05
1.93682e-05
1.89029e-05
1.84711e-05
1.80707e-05
1.76987e-05
0.000111495
0.000104209
9.80409e-05
9.25621e-05
8.77641e-05
8.3466e-05
8.00257e-05
7.75094e-05
7.40984e-05
7.027e-05
6.68859e-05
6.38426e-05
0.000179175
0.000169989
0.000161684
0.000154082
0.000147208
0.000140958
0.000135283
0.000130129
0.000125277
0.000120641
0.000116244
0.000112088
2.28096e-05
2.20493e-05
2.13382e-05
2.06828e-05
2.00825e-05
1.95344e-05
1.9037e-05
1.85821e-05
1.81615e-05
1.77717e-05
1.741e-05
1.70726e-05
0.000103255
9.74231e-05
9.24279e-05
8.78301e-05
8.35653e-05
7.96574e-05
7.69683e-05
7.37301e-05
6.97712e-05
6.61881e-05
6.294e-05
5.99634e-05
0.00017212
0.000163251
0.000155382
0.000148254
0.000141729
0.000135746
0.00013029
0.000125198
0.000120333
0.000115728
0.000111372
0.000107251
0.000211106
0.000202012
0.000193498
0.000185565
0.000178194
0.000171336
0.000164955
0.00015901
0.000153453
0.000148222
0.000143279
0.000138603
0.000233093
0.000223525
0.000214597
0.000206248
0.000198434
0.000191119
0.000184267
0.000177846
0.00017182
0.000166154
0.000160818
0.000155782
0.000238825
0.000229713
0.000221001
0.000212718
0.000204875
0.000197472
0.000190499
0.000183937
0.000177763
0.000171952
0.000166475
0.000161309
0.000233101
0.00022353
0.000214591
0.000206233
0.000198416
0.0001911
0.00018425
0.000177831
0.000171807
0.000166144
0.000160809
0.000155776
0.000211761
0.00020226
0.000193503
0.000185447
0.00017803
0.000171185
0.000164849
0.000158956
0.000153445
0.00014827
0.000143392
0.000138784
0.000169419
0.000161646
0.000154195
0.000147296
0.000140973
0.000135208
0.000129991
0.00012517
0.000120607
0.00011628
0.000112162
0.000103272
9.78465e-05
9.25912e-05
8.78745e-05
8.35942e-05
7.97795e-05
7.71415e-05
7.44712e-05
7.08979e-05
6.7495e-05
6.4463e-05
2.32385e-05
2.23228e-05
2.15096e-05
2.07772e-05
2.01156e-05
1.95122e-05
1.89637e-05
1.84645e-05
1.80072e-05
1.75878e-05
1.72029e-05
1.96224e-05
1.90486e-05
1.84931e-05
1.79747e-05
1.74907e-05
1.70502e-05
1.66462e-05
1.62829e-05
1.59469e-05
1.56358e-05
1.53473e-05
1.50784e-05
8.78815e-05
8.15936e-05
7.86183e-05
7.54229e-05
7.25237e-05
6.97013e-05
6.59923e-05
6.23513e-05
5.90324e-05
5.59749e-05
5.31579e-05
5.05433e-05
0.000148564
0.000141516
0.000135239
0.000129511
0.000124216
0.000119238
0.000114476
0.000109932
0.000105605
0.000101476
9.75218e-05
9.37597e-05
0.000190047
0.000180916
0.00017276
0.000165397
0.000158697
0.000152548
0.00014684
0.000141497
0.000136467
0.000131712
0.000127203
0.000122917
0.000211681
0.000202261
0.000193528
0.000185481
0.000178064
0.000171215
0.000164872
0.000158972
0.000153455
0.000148276
0.000143397
0.000138786
0.000217439
0.000208489
0.000199954
0.00019191
0.000184373
0.000177332
0.000170767
0.000164646
0.000158925
0.000153558
0.000148505
0.000143735
0.00021102
0.000201854
0.000193369
0.000185474
0.000178133
0.000171295
0.00016493
0.000158992
0.000153439
0.000148211
0.000143271
0.000138596
0.000190036
0.000180905
0.00017281
0.000165462
0.000158758
0.000152598
0.000146878
0.000141523
0.000136485
0.000131722
0.000127205
0.000122906
0.00014813
0.000141599
0.00013519
0.00012928
0.000123879
0.000118954
0.000114405
0.000110065
0.000105897
0.000101902
9.81076e-05
8.15161e-05
7.99674e-05
7.72059e-05
7.45335e-05
7.16999e-05
6.9109e-05
6.63092e-05
6.30905e-05
6.01235e-05
5.73662e-05
5.48275e-05
2.01806e-05
1.9396e-05
1.86956e-05
1.80485e-05
1.74648e-05
1.69327e-05
1.64568e-05
1.60328e-05
1.5656e-05
1.53161e-05
1.50082e-05
1.51918e-05
1.48068e-05
1.43923e-05
1.39573e-05
1.36052e-05
1.32947e-05
1.30232e-05
1.27798e-05
1.25598e-05
1.23552e-05
1.21636e-05
1.19865e-05
6.31046e-05
5.82844e-05
5.65793e-05
5.48082e-05
5.20682e-05
4.91624e-05
4.6551e-05
4.40936e-05
4.18279e-05
3.96299e-05
3.77013e-05
3.5603e-05
0.000113999
0.000107942
0.000102766
9.83042e-05
9.43326e-05
9.05231e-05
8.68758e-05
8.33439e-05
7.98912e-05
7.65262e-05
7.32761e-05
7.01535e-05
0.000148179
0.00014172
0.000135224
0.000129306
0.000123894
0.000118966
0.000114416
0.000110081
0.000105924
0.000101945
9.81615e-05
9.4573e-05
0.000169522
0.000161766
0.00015435
0.000147467
0.000141134
0.000135349
0.000130094
0.000125245
0.000120664
0.000116323
0.000112198
0.000108279
0.00017911
0.000169875
0.000161588
0.000154088
0.000147253
0.000141001
0.00013532
0.000130159
0.000125292
0.000120641
0.000116237
0.000112078
0.000172107
0.000163204
0.000155347
0.000148229
0.000141709
0.000135726
0.00013029
0.000125186
0.000120304
0.000115696
0.000111343
0.000107219
0.000148586
0.000141384
0.000135267
0.00012958
0.000124286
0.000119293
0.000114497
0.000109921
0.00010558
0.00010144
9.74853e-05
9.36839e-05
0.000114049
0.000107701
0.000102785
9.83744e-05
9.4369e-05
9.0534e-05
8.68614e-05
8.3296e-05
7.98091e-05
7.64124e-05
7.31675e-05
5.71002e-05
5.67487e-05
5.50647e-05
5.27876e-05
5.06875e-05
4.84449e-05
4.63259e-05
4.41835e-05
4.20178e-05
3.98966e-05
3.79242e-05
1.56249e-05
1.50302e-05
1.45011e-05
1.39694e-05
1.35139e-05
1.3126e-05
1.27976e-05
1.25228e-05
1.2276e-05
1.20488e-05
1.18413e-05
1.02453e-05
9.72155e-06
9.39464e-06
9.15631e-06
8.96741e-06
8.82777e-06
8.69256e-06
8.5679e-06
8.44195e-06
8.32389e-06
8.21603e-06
8.12655e-06
3.13199e-05
2.67738e-05
2.55702e-05
2.50182e-05
2.45487e-05
2.38827e-05
2.29642e-05
2.18029e-05
2.03892e-05
1.92202e-05
1.81553e-05
1.75134e-05
5.70959e-05
5.7023e-05
5.52935e-05
5.3099e-05
5.10712e-05
4.8837e-05
4.67361e-05
4.46213e-05
4.24506e-05
4.03117e-05
3.83059e-05
3.63806e-05
8.15113e-05
7.98577e-05
7.71114e-05
7.45615e-05
7.17445e-05
6.92027e-05
6.64209e-05
6.32255e-05
6.02816e-05
5.75507e-05
5.49957e-05
5.26264e-05
0.000103377
9.75216e-05
9.23749e-05
8.78062e-05
8.36226e-05
7.99136e-05
7.72107e-05
7.45402e-05
7.09765e-05
6.75827e-05
6.45472e-05
6.18003e-05
0.000111383
0.000104053
9.7894e-05
9.25617e-05
8.78141e-05
8.35107e-05
8.00667e-05
7.75338e-05
7.41353e-05
7.0304e-05
6.69156e-05
6.38702e-05
0.000103235
9.74095e-05
9.24012e-05
8.78053e-05
8.35447e-05
7.96368e-05
7.69484e-05
7.37014e-05
6.97433e-05
6.61604e-05
6.29131e-05
5.99364e-05
8.78304e-05
8.15989e-05
7.86217e-05
7.54135e-05
7.25107e-05
6.96604e-05
6.59376e-05
6.22972e-05
5.89774e-05
5.59217e-05
5.31074e-05
5.04636e-05
6.30815e-05
5.83424e-05
5.66507e-05
5.48147e-05
5.20129e-05
4.91102e-05
4.64928e-05
4.40317e-05
4.17526e-05
3.95975e-05
3.75778e-05
3.1308e-05
2.67546e-05
2.55301e-05
2.49389e-05
2.44114e-05
2.37063e-05
2.27783e-05
2.15684e-05
2.01374e-05
1.89433e-05
1.82229e-05
1.03435e-05
9.92548e-06
9.51256e-06
9.19407e-06
8.94437e-06
8.74929e-06
8.58841e-06
8.44949e-06
8.31257e-06
8.18615e-06
8.08233e-06
4.81383e-06
4.65823e-06
4.50153e-06
4.39052e-06
4.31012e-06
4.25518e-06
4.2065e-06
4.16185e-06
4.11818e-06
4.07667e-06
4.03857e-06
4.00488e-06
1.03437e-05
9.92528e-06
9.51386e-06
9.19548e-06
8.94724e-06
8.75361e-06
8.59358e-06
8.45717e-06
8.32238e-06
8.19808e-06
8.08752e-06
7.99742e-06
1.56257e-05
1.50299e-05
1.45027e-05
1.3972e-05
1.35194e-05
1.31328e-05
1.28056e-05
1.25324e-05
1.22847e-05
1.20595e-05
1.1852e-05
1.16619e-05
2.01823e-05
1.93924e-05
1.86884e-05
1.80463e-05
1.74661e-05
1.69361e-05
1.64617e-05
1.60389e-05
1.56627e-05
1.53239e-05
1.50178e-05
1.47341e-05
2.32424e-05
2.23213e-05
2.15022e-05
2.07735e-05
2.01137e-05
1.95123e-05
1.89652e-05
1.84675e-05
1.80108e-05
1.75922e-05
1.72085e-05
1.68557e-05
2.42299e-05
2.32888e-05
2.24567e-05
2.17098e-05
2.10367e-05
2.04266e-05
1.98729e-05
1.93684e-05
1.89036e-05
1.84723e-05
1.80722e-05
1.77005e-05
2.2809e-05
2.2047e-05
2.13354e-05
2.068e-05
2.00801e-05
1.95324e-05
1.90355e-05
1.8581e-05
1.81606e-05
1.7771e-05
1.74094e-05
1.7072e-05
1.96214e-05
1.90471e-05
1.84896e-05
1.79709e-05
1.74874e-05
1.70469e-05
1.66432e-05
1.62802e-05
1.59442e-05
1.56332e-05
1.53451e-05
1.50759e-05
1.51909e-05
1.48081e-05
1.43931e-05
1.39591e-05
1.36048e-05
1.32942e-05
1.30222e-05
1.27787e-05
1.25593e-05
1.23539e-05
1.21588e-05
1.02462e-05
9.72378e-06
9.3972e-06
9.15765e-06
8.96798e-06
8.82497e-06
8.68938e-06
8.56305e-06
8.43561e-06
8.31551e-06
8.21427e-06
4.81431e-06
4.65825e-06
4.50175e-06
4.39028e-06
4.30967e-06
4.25373e-06
4.2045e-06
4.15925e-06
4.11451e-06
4.07261e-06
4.03645e-06
)
;

boundaryField
{
    inlet
    {
        type            calculated;
        value           nonuniform List<scalar> 0();
    }
    ami1
    {
        type            cyclicAMI;
        value           nonuniform List<scalar> 0();
    }
    walls
    {
        type            nutkWallFunction;
        blending        stepwise;
        value           uniform 0;
    }
    ami2
    {
        type            cyclicAMI;
        value           nonuniform List<scalar> 
61
(
2.53888e-05
0.000108158
0.000173764
2.54976e-05
0.000114722
0.000182661
2.35414e-05
0.000108942
0.000176599
0.000216121
0.000238129
0.000244539
0.000238134
0.000216219
0.000173814
0.000107603
2.53804e-05
2.18778e-05
9.35035e-05
0.000154412
0.000194653
0.000216179
0.000222621
0.000216076
0.000194643
0.00015267
8.99281e-05
2.30671e-05
1.80946e-05
6.88483e-05
0.000118939
0.000152699
0.000173864
0.00018263
0.000176584
0.000154414
0.000118961
6.67387e-05
1.89325e-05
1.21606e-05
3.82994e-05
6.67373e-05
8.99276e-05
0.000107653
0.00011467
0.000108931
9.34702e-05
6.88298e-05
3.82907e-05
1.35888e-05
7.56367e-06
1.35891e-05
1.8933e-05
2.30682e-05
2.53824e-05
2.54967e-05
2.35413e-05
2.18767e-05
1.80923e-05
1.21599e-05
7.56368e-06
)
;
    }
    outlet
    {
        type            calculated;
        value           nonuniform List<scalar> 0();
    }
    procBoundary1to0
    {
        type            processor;
        value           nonuniform List<scalar> 
138
(
2.07838e-05
2.07838e-05
2.01162e-05
1.95105e-05
1.89613e-05
1.84619e-05
1.80045e-05
1.75854e-05
1.72012e-05
1.68485e-05
8.75538e-05
8.75538e-05
8.33982e-05
7.96517e-05
7.71137e-05
7.44725e-05
7.08965e-05
6.75042e-05
6.44714e-05
6.17252e-05
0.000211719
0.000202209
0.000147049
0.00019345
0.000147049
0.00014081
0.000135118
0.000129943
0.000125149
0.000120602
0.000116286
0.000112173
0.000108262
0.00021748
0.000208517
0.000199976
0.000191924
0.000184383
0.000177342
0.000170778
0.000164656
0.000158934
0.000153568
0.000148515
0.000143743
0.00021748
0.000208517
0.000199976
0.000191924
0.000184383
0.000177342
0.000170778
0.000164656
0.000158934
0.000153568
0.000148515
0.000143743
0.000238846
0.000229689
0.00022097
0.00021269
0.000204853
0.000197455
0.000190486
0.000183927
0.000177755
0.000171945
0.000166469
0.000161304
0.000246805
0.000237039
0.000227976
0.000219483
0.000211492
0.00020396
0.000196859
0.000190166
0.000183857
0.000177909
0.000172298
0.000167003
0.000238844
0.000229702
0.000220973
0.000212683
0.00020484
0.00019744
0.00019047
0.000183912
0.000177742
0.000171934
0.000166461
0.000161298
0.000217381
0.000208389
0.000199846
0.000191813
0.000184295
0.000177275
0.000170726
0.000164617
0.000158905
0.000153544
0.000148495
0.000143737
0.000179184
0.00016989
0.000161501
0.000153945
0.000147099
0.000140868
0.00013521
0.000130075
0.000125228
0.000120593
0.0001162
0.000111402
0.000103994
9.77838e-05
9.24272e-05
8.76754e-05
8.34036e-05
7.99523e-05
7.74587e-05
7.40692e-05
7.02439e-05
6.68545e-05
2.42287e-05
2.32886e-05
2.24559e-05
2.1709e-05
2.10355e-05
2.0425e-05
1.98708e-05
1.93665e-05
1.89015e-05
1.84699e-05
1.80687e-05
)
;
    }
    procBoundary1to2
    {
        type            processor;
        value           nonuniform List<scalar> 9(2.01813e-05 1.9389e-05 1.86854e-05 8.14607e-05 7.96954e-05 7.68818e-05 0.000147995 0.000141116 0.000134683);
    }
    procBoundary1to8
    {
        type            processor;
        value           nonuniform List<scalar> 
33
(
1.73508e-05
6.1059e-05
0.000108194
1.67555e-05
5.71695e-05
0.00010339
0.000134191
0.00015103
0.000156432
1.48248e-05
4.80087e-05
9.01413e-05
0.000118854
0.000134442
0.000139253
1.18218e-05
3.40871e-05
6.69744e-05
9.10713e-05
0.00010456
0.000108206
8.03374e-06
1.60745e-05
3.4315e-05
5.01639e-05
5.91573e-05
6.10544e-05
3.96892e-06
7.9077e-06
1.14888e-05
1.44705e-05
1.65288e-05
1.73524e-05
)
;
    }
    procBoundary1to9
    {
        type            processor;
        value           nonuniform List<scalar> 
30
(
0.000151021
0.000134419
0.000108252
0.000108252
6.16322e-05
1.68484e-05
0.0001342
0.00011884
9.44484e-05
9.44484e-05
5.22655e-05
1.47231e-05
0.000103401
9.01284e-05
6.989e-05
6.989e-05
3.57276e-05
1.16494e-05
5.7143e-05
4.79475e-05
3.53597e-05
3.53597e-05
1.68284e-05
7.98761e-06
1.67544e-05
1.48228e-05
1.19797e-05
1.19797e-05
8.11904e-06
4.00081e-06
)
;
    }
}


// ************************************************************************* //
