/*--------------------------------*- C++ -*----------------------------------*\
| =========                 |                                                 |
| \\      /  F ield         | OpenFOAM: The Open Source CFD Toolbox           |
|  \\    /   O peration     | Version:  2212                                  |
|   \\  /    A nd           | Website:  www.openfoam.com                      |
|    \\/     M anipulation  |                                                 |
\*---------------------------------------------------------------------------*/
FoamFile
{
    version     2.0;
    format      ascii;
    arch        "LSB;label=32;scalar=64";
    class       volScalarField;
    location    "3";
    object      p;
}
// * * * * * * * * * * * * * * * * * * * * * * * * * * * * * * * * * * * * * //

dimensions      [0 2 -2 0 0 0 0];

internalField   nonuniform List<scalar> 
690
(
0.00506051
0.00487561
0.00468196
0.00499181
0.00484202
0.00469712
0.00491651
0.00476212
0.00462387
0.00501827
0.00484725
0.00467015
0.00450382
0.00434739
0.00419733
0.00405167
0.00391031
0.00377245
0.00363592
0.00350004
0.00336511
0.0049832
0.00482072
0.00466735
0.00451656
0.00436708
0.00422018
0.00407573
0.00393281
0.00379147
0.00365224
0.00351505
0.00337943
0.00490394
0.00474457
0.00460229
0.00445753
0.0043114
0.00416726
0.00402519
0.00388374
0.00374292
0.00360406
0.00346743
0.00333252
0.00499034
0.00483025
0.00466129
0.00450058
0.00434764
0.00419913
0.00405424
0.00391313
0.00377439
0.00363671
0.00350034
0.00336508
0.00495688
0.00479578
0.00464298
0.00449285
0.00434592
0.00420166
0.00405914
0.00391843
0.0037796
0.00364244
0.0035067
0.00337223
0.00487958
0.00472565
0.00458947
0.00444669
0.00430109
0.00415735
0.00401532
0.00387413
0.00373448
0.00359704
0.00346156
0.00332762
0.00484687
0.00469437
0.0045642
0.00442539
0.00428202
0.00413974
0.00399898
0.00385919
0.00372061
0.0035836
0.00344818
0.00331422
0.0048258
0.00467373
0.00454685
0.00441058
0.00426909
0.00412829
0.00398875
0.00384995
0.00371201
0.00357524
0.00343982
0.00330586
0.00481655
0.00466423
0.00453917
0.004404
0.00426334
0.00412348
0.00398465
0.00384639
0.0037089
0.00357248
0.00343728
0.00330345
0.00482579
0.00467373
0.00454687
0.0044106
0.00426908
0.00412828
0.00398872
0.00384991
0.00371196
0.00357518
0.00343974
0.00330577
0.00485797
0.00470426
0.00457253
0.00443284
0.00428892
0.00414624
0.00400511
0.00386483
0.00372561
0.0035879
0.00345182
0.00331731
0.0049166
0.00476274
0.00462467
0.00447782
0.00432801
0.00418097
0.00403601
0.00389199
0.00374912
0.00360865
0.0034706
0.00499182
0.00484218
0.00469732
0.00454314
0.00438832
0.00423694
0.00408854
0.0039424
0.00379858
0.00365725
0.0035181
0.00506078
0.00487534
0.00468143
0.00450708
0.0043481
0.00419642
0.00404944
0.00390739
0.00376904
0.0036322
0.0034963
0.00495912
0.00481552
0.00464828
0.004493
0.00434881
0.0042061
0.00406319
0.00392119
0.00378043
0.00364088
0.00350265
0.00336624
0.00490018
0.00475284
0.00461901
0.00447368
0.00432912
0.00418793
0.00404842
0.00391051
0.00377387
0.00363807
0.00350296
0.00336882
0.00485335
0.00471127
0.00459128
0.00445092
0.00430343
0.00415794
0.00401466
0.00387351
0.00373453
0.00359753
0.00346214
0.00332806
0.00486473
0.00471503
0.00458668
0.00444559
0.00429891
0.00415409
0.00401123
0.00386971
0.00372988
0.00359196
0.00345575
0.00332107
0.00485797
0.00470426
0.00457254
0.00443288
0.00428899
0.00414631
0.00400519
0.00386492
0.00372573
0.00358803
0.00345197
0.00331745
0.00484676
0.00469269
0.00456169
0.00442349
0.00428111
0.00413956
0.00399941
0.0038601
0.00372171
0.00358466
0.00344914
0.00331507
0.00484688
0.00469441
0.00456426
0.00442542
0.004282
0.00413969
0.00399889
0.00385908
0.00372048
0.00358345
0.00344802
0.00331409
0.00486467
0.00471501
0.00458672
0.00444557
0.0042988
0.00415392
0.00401103
0.00386948
0.00372963
0.0035917
0.00345545
0.00332085
0.00490932
0.00476993
0.00464289
0.00449263
0.00433706
0.00418553
0.00403664
0.00388973
0.00374613
0.00360568
0.00346741
0.00501082
0.00487126
0.00472031
0.00455452
0.00439238
0.00423554
0.00408258
0.00393379
0.00378904
0.00364772
0.00350847
0.00512713
0.00491447
0.00469057
0.00450073
0.0043357
0.00418263
0.00403678
0.0038964
0.00375888
0.00362312
0.00348886
0.00499372
0.00481886
0.00463149
0.00447898
0.00434169
0.00420098
0.00405723
0.00391406
0.00377218
0.00363169
0.00349308
0.00335612
0.00494655
0.00477663
0.00462292
0.00447039
0.00432451
0.00418284
0.00404287
0.003904
0.00376677
0.00363114
0.00349659
0.00336202
0.00489644
0.00476147
0.00463698
0.00448307
0.00432429
0.00417139
0.00402367
0.00387916
0.00373806
0.00360006
0.00346412
0.00332941
0.00490941
0.00477005
0.004643
0.00449285
0.00433738
0.00418585
0.00403697
0.00389007
0.0037465
0.00360608
0.003468
0.00333159
0.00491645
0.00476258
0.0046247
0.00447801
0.00432826
0.00418117
0.00403617
0.00389215
0.00374929
0.00360885
0.00347085
0.00333476
0.00490386
0.00474466
0.00460259
0.00445788
0.00431162
0.00416735
0.00402521
0.00388374
0.0037429
0.00360399
0.00346732
0.00333239
0.00487959
0.0047257
0.00458954
0.00444673
0.00430107
0.00415727
0.00401521
0.00387402
0.00373436
0.00359691
0.00346138
0.00332745
0.00485326
0.00471121
0.00459127
0.00445084
0.00430327
0.00415775
0.00401445
0.0038733
0.00373432
0.00359729
0.00346174
0.00332774
0.00489625
0.00476116
0.00463661
0.00448254
0.00432378
0.00417098
0.00402328
0.0038788
0.00373778
0.00359974
0.00346311
0.00503306
0.00486824
0.00469208
0.00452113
0.00436035
0.00420574
0.00405603
0.00391031
0.00376863
0.00363119
0.00349526
0.00521916
0.00493561
0.00465788
0.00445987
0.00429869
0.00415066
0.00401017
0.00387512
0.00374237
0.00361047
0.0034796
0.00517992
0.00485441
0.00461196
0.00447276
0.00434194
0.00420172
0.00406103
0.00392186
0.00378225
0.00364217
0.00350305
0.00336728
0.00510642
0.00485639
0.00463251
0.00447138
0.00432822
0.00418817
0.00405104
0.00391558
0.00378055
0.00364573
0.00351161
0.00337825
0.00503303
0.00486828
0.00469216
0.00452126
0.0043605
0.00420588
0.00405619
0.00391047
0.00376866
0.0036309
0.00349574
0.00336117
0.00501096
0.00487141
0.0047203
0.00455452
0.00439243
0.00423562
0.00408269
0.00393392
0.00378913
0.0036478
0.00350882
0.00337132
0.00499163
0.00484197
0.00469723
0.00454315
0.00438837
0.00423699
0.00408858
0.00394246
0.00379866
0.00365737
0.0035183
0.00338087
0.00498308
0.00482076
0.00466755
0.00451681
0.00436727
0.00422029
0.0040758
0.0039329
0.00379155
0.00365228
0.00351503
0.00337935
0.00495694
0.00479586
0.00464304
0.0044929
0.00434595
0.00420167
0.00405916
0.00391845
0.00377961
0.00364241
0.0035066
0.00337208
0.00490037
0.00475302
0.00461905
0.00447366
0.00432914
0.00418798
0.00404848
0.00391054
0.00377388
0.00363799
0.00350258
0.00336831
0.00494677
0.00477675
0.00462281
0.0044702
0.00432433
0.00418268
0.0040427
0.00390381
0.00376668
0.00363134
0.00349594
0.00510686
0.00485687
0.00463294
0.00447188
0.00432864
0.00418844
0.00405123
0.00391571
0.00378066
0.00364598
0.00351221
0.00532129
0.00490492
0.00457114
0.00440599
0.00428049
0.00414819
0.00401668
0.00388762
0.00375757
0.00362539
0.00349477
0.00532269
0.00486147
0.00456913
0.00443622
0.00431468
0.0041782
0.00404145
0.00390671
0.00377149
0.00363541
0.00349964
0.00336663
0.0053209
0.00490446
0.00457054
0.00440517
0.00427967
0.00414761
0.00401623
0.00388723
0.00375732
0.00362571
0.00349364
0.00336379
0.00521871
0.00493509
0.00465734
0.00445925
0.00429814
0.0041503
0.00400992
0.00387498
0.00374229
0.00361036
0.00347913
0.00334891
0.00512696
0.00491422
0.00469012
0.00450018
0.00433519
0.00418223
0.00403651
0.00389621
0.00375873
0.00362301
0.00348865
0.00335587
0.00506074
0.00487527
0.00468116
0.00450672
0.00434775
0.0041962
0.00404931
0.00390729
0.00376896
0.00363214
0.00349624
0.00336172
0.00501839
0.00484719
0.00466991
0.00450362
0.00434739
0.0041975
0.00405191
0.00391054
0.00377264
0.00363607
0.00350014
0.00336516
0.00499039
0.00483026
0.00466128
0.00450057
0.00434767
0.0041992
0.00405435
0.00391325
0.00377451
0.00363681
0.00350044
0.00336515
0.00495925
0.00481566
0.00464847
0.00449319
0.004349
0.00420625
0.00406331
0.00392129
0.00378053
0.00364099
0.00350285
0.00336638
0.00499383
0.00481893
0.00463163
0.00447925
0.00434192
0.00420101
0.00405717
0.00391399
0.00377213
0.00363185
0.0034936
0.00518023
0.00485479
0.00461241
0.00447329
0.00434234
0.00420197
0.00406117
0.00392202
0.00378236
0.00364185
0.00350414
0.00532302
0.00486185
0.00456962
0.0044369
0.00431533
0.00417865
0.00404179
0.00390702
0.00377172
0.00363506
0.00350066
)
;

boundaryField
{
    inlet
    {
        type            zeroGradient;
    }
    ami1
    {
        type            cyclicAMI;
        value           nonuniform List<scalar> 0();
    }
    walls
    {
        type            zeroGradient;
    }
    ami2
    {
        type            cyclicAMI;
        value           nonuniform List<scalar> 
61
(
0.00512083
0.00509018
0.00502019
0.00508601
0.00506935
0.00500393
0.00505577
0.00504717
0.00498667
0.00496053
0.00494461
0.00493811
0.0049446
0.00496897
0.00502017
0.00509018
0.00512111
0.00501282
0.0050258
0.00498231
0.00497866
0.00496896
0.00496068
0.00496053
0.00497863
0.00503042
0.00511379
0.00516835
0.0050469
0.00508653
0.00503671
0.00503044
0.00502007
0.00500385
0.00498667
0.00498228
0.00503664
0.00513157
0.00522433
0.00517056
0.0051732
0.00513149
0.00511382
0.00509004
0.00506926
0.00504722
0.00502594
0.00508671
0.00517351
0.00527472
0.00525606
0.00527443
0.00522401
0.00516819
0.00512103
0.00508616
0.00505584
0.00501294
0.00504703
0.00517081
0.00525633
)
;
    }
    outlet
    {
        type            fixedValue;
        value           nonuniform List<scalar> 0();
    }
    procBoundary1to0
    {
        type            processor;
        value           nonuniform List<scalar> 
138
(
0.00450749
0.00450749
0.00434812
0.00419608
0.00404894
0.00390692
0.00376863
0.00363185
0.00349599
0.00336153
0.00454291
0.00454291
0.00438812
0.00423679
0.00408837
0.00394221
0.00379844
0.00365721
0.00351822
0.00338087
0.00485781
0.00470399
0.00447724
0.00457225
0.00447724
0.00432784
0.00418106
0.00403615
0.00389212
0.00374928
0.00360889
0.00347095
0.00333492
0.00484673
0.0046926
0.00456153
0.00442332
0.004281
0.00413952
0.0039994
0.00386012
0.00372175
0.00358474
0.00344923
0.00331518
0.00484673
0.0046926
0.00456153
0.00442332
0.004281
0.00413952
0.0039994
0.00386012
0.00372175
0.00358474
0.00344923
0.00331518
0.00481652
0.00466418
0.00453911
0.00440394
0.00426329
0.00412345
0.00398464
0.00384639
0.00370892
0.00357252
0.00343734
0.00330352
0.00480794
0.00465504
0.00453106
0.00439642
0.00425605
0.00411691
0.00397892
0.00384132
0.00370432
0.00356831
0.0034335
0.00329999
0.00481653
0.0046642
0.00453915
0.00440398
0.00426332
0.00412346
0.00398464
0.00384638
0.00370889
0.00357247
0.00343727
0.00330344
0.00484674
0.00469263
0.00456162
0.00442343
0.00428108
0.00413955
0.00399941
0.00386009
0.00372169
0.00358464
0.00344912
0.00331504
0.00490388
0.00474462
0.00460248
0.00445775
0.00431154
0.00416731
0.0040252
0.00388372
0.00374285
0.00360392
0.00346726
0.00498322
0.00482087
0.00466756
0.00451676
0.00436722
0.00422027
0.0040758
0.00393288
0.0037915
0.00365219
0.00351489
0.00501851
0.00484735
0.00467012
0.00450379
0.00434748
0.00419751
0.00405187
0.00391048
0.00377258
0.00363601
0.00350008
)
;
    }
    procBoundary1to2
    {
        type            processor;
        value           nonuniform List<scalar> 9(0.00512733 0.00491488 0.00469087 0.00501089 0.00487139 0.00472001 0.00490909 0.00476951 0.00464234);
    }
    procBoundary1to8
    {
        type            processor;
        value           nonuniform List<scalar> 
33
(
0.00323137
0.00324519
0.00319925
0.00323106
0.0032391
0.00319516
0.00318167
0.00317335
0.00317105
0.00323133
0.00323577
0.00319554
0.00318799
0.0031844
0.0031824
0.0032206
0.00322826
0.00319614
0.00319717
0.00320045
0.00319909
0.00323308
0.00324565
0.00322745
0.00323567
0.00324512
0.00324507
0.00323507
0.00323477
0.00321882
0.00322399
0.0032285
0.00323135
)
;
    }
    procBoundary1to9
    {
        type            processor;
        value           nonuniform List<scalar> 
30
(
0.00317326
0.00318428
0.0033346
0.0033346
0.00338075
0.00336164
0.00318156
0.00318793
0.00333124
0.00333124
0.0033711
0.00335583
0.00319507
0.00319569
0.0033285
0.0033285
0.00336056
0.0033489
0.00323901
0.00323591
0.00336123
0.00336123
0.00337877
0.00336482
0.00323096
0.00323103
0.00335654
0.00335654
0.00336826
0.00336773
)
;
    }
}


// ************************************************************************* //
