/*--------------------------------*- C++ -*----------------------------------*\
| =========                 |                                                 |
| \\      /  F ield         | OpenFOAM: The Open Source CFD Toolbox           |
|  \\    /   O peration     | Version:  2212                                  |
|   \\  /    A nd           | Website:  www.openfoam.com                      |
|    \\/     M anipulation  |                                                 |
\*---------------------------------------------------------------------------*/
FoamFile
{
    version     2.0;
    format      ascii;
    arch        "LSB;label=32;scalar=64";
    class       surfaceScalarField;
    location    "3";
    object      phi;
}
// * * * * * * * * * * * * * * * * * * * * * * * * * * * * * * * * * * * * * //

dimensions      [0 3 -1 0 0 0 0];

oriented        oriented;

internalField   nonuniform List<scalar> 
1805
(
8.53334e-07
2.49096e-09
1.23965e-07
8.44809e-07
4.08964e-09
1.25762e-07
4.80155e-09
1.2629e-07
1.16839e-06
-5.10082e-09
1.08286e-07
1.17126e-06
-3.61703e-09
1.09134e-07
-2.54088e-09
1.09911e-07
1.40385e-06
8.66562e-08
1.40844e-06
8.6922e-08
8.72202e-08
8.79516e-07
9.65059e-09
1.2027e-07
8.73733e-07
1.01157e-08
1.2143e-07
8.67523e-07
1.03738e-08
1.22126e-07
8.60619e-07
1.05698e-08
1.22342e-07
8.53082e-07
1.0724e-08
1.22144e-07
8.45022e-07
1.08366e-08
1.21701e-07
8.36541e-07
1.09078e-08
1.21157e-07
8.2775e-07
1.09304e-08
1.20573e-07
8.18738e-07
1.08898e-08
1.20023e-07
8.09546e-07
1.0811e-08
1.1952e-07
8.00273e-07
1.06992e-08
1.19062e-07
1.05513e-08
1.18622e-07
1.20924e-06
1.08814e-08
1.05003e-07
1.21123e-06
1.14225e-08
1.05839e-07
1.21315e-06
1.17864e-08
1.06577e-07
1.2148e-06
1.20413e-08
1.0714e-07
1.21608e-06
1.22313e-08
1.07458e-07
1.21694e-06
1.23986e-08
1.07525e-07
1.21736e-06
1.25393e-08
1.07411e-07
1.21739e-06
1.25824e-08
1.07207e-07
1.21712e-06
1.25066e-08
1.06909e-07
1.21664e-06
1.23857e-08
1.06519e-07
1.21598e-06
1.22546e-08
1.06091e-07
1.21042e-08
1.0565e-07
1.44493e-06
8.31664e-08
1.44993e-06
8.3606e-08
1.45506e-06
8.38956e-08
1.46026e-06
8.41113e-08
1.46541e-06
8.42801e-08
1.47046e-06
8.43962e-08
1.47536e-06
8.44615e-08
1.48006e-06
8.44727e-08
1.48452e-06
8.44206e-08
1.48876e-06
8.43154e-08
1.49284e-06
8.41731e-08
8.40045e-08
8.09699e-07
1.62365e-08
1.0843e-07
8.062e-07
1.61957e-08
1.08733e-07
8.02976e-07
1.59638e-08
1.09387e-07
7.99502e-07
1.58938e-08
1.09922e-07
7.95647e-07
1.60226e-08
1.09977e-07
7.91369e-07
1.62792e-08
1.097e-07
7.86635e-07
1.65811e-08
1.0931e-07
7.81414e-07
1.68589e-08
1.08935e-07
7.75718e-07
1.71058e-08
1.08613e-07
7.6956e-07
1.73269e-08
1.0835e-07
7.63026e-07
1.7516e-08
1.08081e-07
1.76658e-08
1.07832e-07
1.15478e-06
2.55259e-08
9.40829e-08
1.15656e-06
2.56537e-08
9.46058e-08
1.15854e-06
2.56041e-08
9.49579e-08
1.1606e-06
2.55463e-08
9.5427e-08
1.16266e-06
2.55728e-08
9.58482e-08
1.16464e-06
2.56954e-08
9.61215e-08
1.16649e-06
2.58692e-08
9.62782e-08
1.16819e-06
2.60286e-08
9.63334e-08
1.16972e-06
2.61862e-08
9.62984e-08
1.17103e-06
2.63588e-08
9.61854e-08
1.17208e-06
2.65309e-08
9.60205e-08
2.66873e-08
9.58271e-08
1.39667e-06
3.09262e-08
7.30109e-08
1.40166e-06
3.10779e-08
7.31886e-08
1.40686e-06
3.11312e-08
7.3164e-08
1.41217e-06
3.11033e-08
7.32496e-08
1.4175e-06
3.10664e-08
7.34578e-08
1.42281e-06
3.10527e-08
7.37276e-08
1.42806e-06
3.10593e-08
7.40152e-08
1.43322e-06
3.10735e-08
7.42753e-08
1.43824e-06
3.10975e-08
7.44889e-08
1.44312e-06
3.11358e-08
7.46545e-08
1.44786e-06
3.11843e-08
7.47762e-08
3.12365e-08
7.48633e-08
1.57693e-06
3.31643e-08
4.79795e-08
1.58369e-06
3.32501e-08
4.78481e-08
1.59071e-06
3.32858e-08
4.76678e-08
1.59788e-06
3.32641e-08
4.75661e-08
1.60509e-06
3.32164e-08
4.75825e-08
1.6123e-06
3.31578e-08
4.76971e-08
1.61945e-06
3.3096e-08
4.78907e-08
1.62649e-06
3.30347e-08
4.81382e-08
1.6334e-06
3.29773e-08
4.84126e-08
1.64017e-06
3.29266e-08
4.86883e-08
1.6468e-06
3.28818e-08
4.89538e-08
3.28437e-08
4.9204e-08
1.68977e-06
3.20118e-08
2.12239e-08
1.69778e-06
3.20575e-08
2.09136e-08
1.70597e-06
3.20777e-08
2.06923e-08
1.71427e-06
3.20753e-08
2.05515e-08
1.7226e-06
3.20599e-08
2.04826e-08
1.73091e-06
3.20328e-08
2.04814e-08
1.73916e-06
3.20009e-08
2.05415e-08
1.7473e-06
3.19668e-08
2.06582e-08
1.75531e-06
3.19318e-08
2.08221e-08
1.76317e-06
3.18968e-08
2.10198e-08
1.77087e-06
3.18609e-08
2.1237e-08
3.18272e-08
2.14615e-08
1.72789e-06
2.78309e-08
-6.18865e-09
1.7364e-06
2.77329e-08
-6.44231e-09
1.74508e-06
2.76862e-08
-6.57614e-09
1.75381e-06
2.76677e-08
-6.62466e-09
1.76255e-06
2.76655e-08
-6.64001e-09
1.77125e-06
2.76808e-08
-6.64234e-09
1.77989e-06
2.77089e-08
-6.62378e-09
1.78844e-06
2.7749e-08
-6.57893e-09
1.79686e-06
2.78008e-08
-6.50815e-09
1.80513e-06
2.78618e-08
-6.41779e-09
1.81323e-06
2.7931e-08
-6.31623e-09
2.8003e-08
-6.20829e-09
1.68977e-06
2.1225e-08
-3.31662e-08
1.69778e-06
2.09164e-08
-3.32527e-08
1.70598e-06
2.0697e-08
-3.32902e-08
1.71428e-06
2.05587e-08
-3.32697e-08
1.72261e-06
2.04924e-08
-3.32223e-08
1.73092e-06
2.04933e-08
-3.31632e-08
1.73917e-06
2.05549e-08
-3.31003e-08
1.74732e-06
2.06728e-08
-3.30376e-08
1.75533e-06
2.08376e-08
-3.29788e-08
1.76319e-06
2.10358e-08
-3.29269e-08
1.77089e-06
2.12536e-08
-3.28804e-08
2.14778e-08
-3.28406e-08
1.57943e-06
1.32482e-08
-5.88748e-08
1.58588e-06
1.25309e-08
-5.87309e-08
1.59266e-06
1.19243e-08
-5.87175e-08
1.59963e-06
1.1531e-08
-5.86896e-08
1.60665e-06
1.13307e-08
-5.86057e-08
1.61363e-06
1.12856e-08
-5.84823e-08
1.62049e-06
1.13711e-08
-5.83362e-08
1.62719e-06
1.15852e-08
-5.81892e-08
1.63371e-06
1.1897e-08
-5.80569e-08
1.64005e-06
1.226e-08
-5.79419e-08
1.64624e-06
1.26411e-08
-5.78463e-08
-5.77706e-08
1.40384e-06
5.11635e-09
-8.24283e-08
1.40842e-06
3.61063e-09
-8.25952e-08
1.41337e-06
2.52277e-09
-8.27979e-08
1.41825e-06
1.97975e-09
-8.27576e-08
1.42285e-06
1.77255e-09
-8.25237e-08
1.42713e-06
1.77865e-09
-8.21613e-08
1.43108e-06
1.94769e-09
-8.17399e-08
1.43475e-06
2.29295e-09
-8.13345e-08
1.43814e-06
2.78235e-09
-8.09491e-08
1.44136e-06
3.29439e-09
-8.06133e-08
3.80139e-09
-8.0317e-08
1.16842e-06
-2.48459e-09
-1.03117e-07
1.17128e-06
-4.09121e-09
-1.04303e-07
1.17326e-06
-4.80135e-09
-1.04575e-07
1.17403e-06
-4.97933e-09
-1.04097e-07
1.17375e-06
-4.896e-09
-1.03324e-07
1.17263e-06
-4.65052e-09
-1.02421e-07
1.17087e-06
-4.30962e-09
-1.01462e-07
1.16867e-06
-3.88518e-09
-1.0054e-07
1.16628e-06
-3.38052e-09
-9.97333e-08
1.16384e-06
-2.86827e-09
-9.90367e-08
-2.35885e-09
-9.84697e-08
8.53269e-07
-1.1915e-07
8.4474e-07
-1.2132e-07
8.34712e-07
-1.2105e-07
8.23426e-07
-1.19687e-07
8.11275e-07
-1.1807e-07
7.98655e-07
-1.16512e-07
7.85912e-07
-1.15166e-07
7.73326e-07
-1.14038e-07
7.61121e-07
-1.13114e-07
7.49405e-07
-1.12336e-07
-1.11731e-07
6.6077e-07
2.12848e-08
8.84714e-08
6.59795e-07
2.18675e-08
8.78409e-08
6.58508e-07
2.15299e-08
8.91434e-08
6.56993e-07
2.13403e-08
9.00968e-08
6.55204e-07
2.1536e-08
9.02293e-08
6.52933e-07
2.18821e-08
9.00892e-08
6.50091e-07
2.22471e-08
8.99041e-08
6.46718e-07
2.26131e-08
8.96954e-08
6.42864e-07
2.29569e-08
8.95106e-08
6.38562e-07
2.32661e-08
8.93862e-08
6.33813e-07
2.35371e-08
8.9293e-08
2.3765e-08
8.92024e-08
1.01155e-06
3.78991e-08
7.5678e-08
1.01503e-06
3.82448e-08
7.47461e-08
1.01807e-06
3.84146e-08
7.50338e-08
1.02059e-06
3.83479e-08
7.5901e-08
1.02295e-06
3.83568e-08
7.6667e-08
1.02526e-06
3.84423e-08
7.72471e-08
1.02752e-06
3.85769e-08
7.76879e-08
1.02968e-06
3.87901e-08
7.79998e-08
1.03168e-06
3.90563e-08
7.82002e-08
1.03348e-06
3.93392e-08
7.83099e-08
1.03505e-06
3.96154e-08
7.83732e-08
3.98679e-08
7.84047e-08
1.26632e-06
5.09946e-08
5.69877e-08
1.27097e-06
5.09077e-08
5.58759e-08
1.2762e-06
5.09959e-08
5.53519e-08
1.28132e-06
5.09557e-08
5.55187e-08
1.28628e-06
5.08474e-08
5.60126e-08
1.29108e-06
5.07392e-08
5.66306e-08
1.29573e-06
5.06573e-08
5.72821e-08
1.30027e-06
5.06256e-08
5.79014e-08
1.30472e-06
5.06448e-08
5.84529e-08
1.30909e-06
5.07009e-08
5.89185e-08
1.3134e-06
5.0784e-08
5.93032e-08
5.08801e-08
5.96368e-08
1.45916e-06
5.88735e-08
3.57613e-08
1.46443e-06
5.87292e-08
3.47581e-08
1.47045e-06
5.87143e-08
3.39294e-08
1.4767e-06
5.86867e-08
3.35814e-08
1.48295e-06
5.86045e-08
3.35795e-08
1.48908e-06
5.84832e-08
3.38197e-08
1.49504e-06
5.83391e-08
3.42458e-08
1.50082e-06
5.8194e-08
3.47898e-08
1.50645e-06
5.80627e-08
3.53656e-08
1.51197e-06
5.79488e-08
3.59232e-08
1.5174e-06
5.78557e-08
3.64556e-08
5.77815e-08
3.69584e-08
1.57943e-06
6.06323e-08
1.32495e-08
1.58587e-06
6.06658e-08
1.2533e-08
1.59265e-06
6.07072e-08
1.19243e-08
1.59962e-06
6.07401e-08
1.15278e-08
1.60663e-06
6.07444e-08
1.13249e-08
1.6136e-06
6.07169e-08
1.12789e-08
1.62046e-06
6.06605e-08
1.13642e-08
1.62715e-06
6.05815e-08
1.1578e-08
1.63366e-06
6.04882e-08
1.18887e-08
1.63999e-06
6.03874e-08
1.22503e-08
1.64617e-06
6.02843e-08
1.26288e-08
6.01821e-08
1.30119e-08
1.61894e-06
5.67139e-08
-9.31163e-09
1.6261e-06
5.67921e-08
-9.73542e-09
1.63337e-06
5.68533e-08
-9.99317e-09
1.64074e-06
5.69057e-08
-1.01534e-08
1.64814e-06
5.69646e-08
-1.02633e-08
1.65553e-06
5.7029e-08
-1.03405e-08
1.66285e-06
5.70968e-08
-1.0381e-08
1.67005e-06
5.71639e-08
-1.0367e-08
1.6771e-06
5.72235e-08
-1.02942e-08
1.68398e-06
5.72707e-08
-1.01831e-08
1.6907e-06
5.73046e-08
-1.00529e-08
5.73255e-08
-9.90964e-09
1.57693e-06
4.79828e-08
-3.09273e-08
1.58369e-06
4.78534e-08
-3.10796e-08
1.59072e-06
4.76746e-08
-3.11349e-08
1.59789e-06
4.75763e-08
-3.11085e-08
1.6051e-06
4.75968e-08
-3.10725e-08
1.61231e-06
4.7715e-08
-3.10592e-08
1.61946e-06
4.79113e-08
-3.10657e-08
1.62651e-06
4.81605e-08
-3.10796e-08
1.63342e-06
4.84362e-08
-3.11035e-08
1.6402e-06
4.87124e-08
-3.11418e-08
1.64683e-06
4.89789e-08
-3.11893e-08
4.92278e-08
-3.1241e-08
1.45916e-06
3.57638e-08
-5.0996e-08
1.46443e-06
3.47622e-08
-5.09102e-08
1.47046e-06
3.3933e-08
-5.1002e-08
1.47672e-06
3.35874e-08
-5.09611e-08
1.48297e-06
3.3589e-08
-5.08515e-08
1.48912e-06
3.38314e-08
-5.07423e-08
1.49509e-06
3.42593e-08
-5.06598e-08
1.50089e-06
3.48044e-08
-5.0628e-08
1.50653e-06
3.53825e-08
-5.06481e-08
1.51207e-06
3.594e-08
-5.07045e-08
1.51751e-06
3.6478e-08
-5.07827e-08
-5.08758e-08
1.27544e-06
2.09114e-08
-7.00619e-08
1.2798e-06
1.81894e-08
-7.03834e-08
1.28452e-06
1.68495e-08
-7.04358e-08
1.28877e-06
1.66782e-08
-7.01035e-08
1.29251e-06
1.69772e-08
-6.96498e-08
1.29578e-06
1.76261e-08
-6.92265e-08
1.29866e-06
1.85212e-08
-6.88812e-08
1.30128e-06
1.9488e-08
-6.86407e-08
1.30381e-06
2.03787e-08
-6.84669e-08
1.30631e-06
2.12077e-08
-6.83853e-08
2.19744e-08
-6.83465e-08
1.03724e-06
4.04212e-09
-8.87318e-08
1.04043e-06
1.02957e-09
-9.03367e-08
1.0413e-06
8.15228e-10
-8.94126e-08
1.04007e-06
1.49529e-09
-8.7687e-08
1.03748e-06
2.40433e-09
-8.61587e-08
1.03407e-06
3.48499e-09
-8.48663e-08
1.03036e-06
4.62367e-09
-8.38586e-08
1.0267e-06
5.71084e-09
-8.31039e-08
1.02325e-06
6.66761e-09
-8.25718e-08
1.02013e-06
7.53415e-09
-8.22354e-08
8.29592e-09
-8.20267e-08
7.31497e-07
-1.04815e-07
7.18016e-07
-1.06809e-07
7.02464e-07
-1.04682e-07
6.85885e-07
-1.01613e-07
6.69268e-07
-9.90487e-08
6.53361e-07
-9.71199e-08
6.38561e-07
-9.57411e-08
6.2506e-07
-9.48269e-08
6.12851e-07
-9.42374e-08
6.0186e-07
-9.38112e-08
-9.35168e-08
4.61206e-07
2.46844e-08
5.9169e-08
4.62137e-07
2.68312e-08
6.00787e-08
4.60865e-07
2.67166e-08
6.36992e-08
4.59168e-07
2.67317e-08
6.50619e-08
4.57275e-07
2.71555e-08
6.49666e-08
4.55054e-07
2.76161e-08
6.46946e-08
4.52538e-07
2.80213e-08
6.43989e-08
4.4977e-07
2.83887e-08
6.40747e-08
4.46766e-07
2.8685e-08
6.38293e-08
4.43553e-07
2.889e-08
6.37094e-08
4.40146e-07
2.9027e-08
6.36735e-08
2.91876e-08
6.35785e-08
8.07622e-07
4.98408e-08
4.99148e-08
8.11294e-07
5.09084e-08
4.69972e-08
8.13408e-07
5.10401e-08
4.85961e-08
8.14412e-07
5.07265e-08
5.09028e-08
8.15171e-07
5.05081e-08
5.25549e-08
8.15883e-07
5.04944e-08
5.3657e-08
8.16567e-07
5.0607e-08
5.44185e-08
8.17221e-07
5.07841e-08
5.49501e-08
8.17832e-07
5.09974e-08
5.52773e-08
8.18349e-07
5.12346e-08
5.5448e-08
8.18772e-07
5.14541e-08
5.55236e-08
5.16606e-08
5.5651e-08
1.07188e-06
7.00652e-08
3.57564e-08
1.07602e-06
7.03868e-08
3.2258e-08
1.08007e-06
7.04308e-08
3.19125e-08
1.08327e-06
7.01005e-08
3.29428e-08
1.08589e-06
6.96485e-08
3.42552e-08
1.08811e-06
6.92251e-08
3.56751e-08
1.09013e-06
6.88804e-08
3.69899e-08
1.09206e-06
6.86392e-08
3.81149e-08
1.09403e-06
6.84632e-08
3.90263e-08
1.09608e-06
6.83776e-08
3.97253e-08
1.09823e-06
6.83555e-08
4.02464e-08
6.83616e-08
4.07028e-08
1.27542e-06
8.24308e-08
2.09141e-08
1.27978e-06
8.25986e-08
1.81946e-08
1.28448e-06
8.27978e-08
1.68558e-08
1.28872e-06
8.27573e-08
1.66867e-08
1.29244e-06
8.25253e-08
1.69836e-08
1.29568e-06
8.21652e-08
1.76353e-08
1.29853e-06
8.17466e-08
1.853e-08
1.30112e-06
8.13428e-08
1.94952e-08
1.30361e-06
8.09584e-08
2.03837e-08
1.30607e-06
8.06229e-08
2.12152e-08
1.30859e-06
8.03325e-08
2.19668e-08
8.00765e-08
2.26603e-08
1.40384e-06
8.66591e-08
5.12565e-09
1.40841e-06
8.69336e-08
3.62673e-09
1.41336e-06
8.72401e-08
2.53178e-09
1.41822e-06
8.74356e-08
1.98421e-09
1.42282e-06
8.74823e-08
1.77435e-09
1.42708e-06
8.73956e-08
1.78385e-09
1.43102e-06
8.72161e-08
1.95651e-09
1.43466e-06
8.69733e-08
2.30311e-09
1.43803e-06
8.66863e-08
2.79081e-09
1.44123e-06
8.63763e-08
3.30044e-09
1.44433e-06
8.60586e-08
3.80049e-09
8.57414e-08
4.30149e-09
1.44492e-06
8.31676e-08
-1.08712e-08
1.44992e-06
8.36127e-08
-1.14136e-08
1.45505e-06
8.39094e-08
-1.17857e-08
1.46024e-06
8.41318e-08
-1.20479e-08
1.4654e-06
8.43046e-08
-1.22385e-08
1.47043e-06
8.44222e-08
-1.24048e-08
1.47533e-06
8.44885e-08
-1.2544e-08
1.48002e-06
8.45009e-08
-1.25882e-08
1.48448e-06
8.44491e-08
-1.25151e-08
1.48872e-06
8.4343e-08
-1.2397e-08
1.4928e-06
8.4199e-08
-1.22687e-08
8.40268e-08
-1.21187e-08
1.39666e-06
7.30143e-08
-2.55277e-08
1.40165e-06
7.31956e-08
-2.56551e-08
1.40686e-06
7.31722e-08
-2.56049e-08
1.41217e-06
7.32628e-08
-2.55484e-08
1.4175e-06
7.34761e-08
-2.55767e-08
1.42282e-06
7.37491e-08
-2.57e-08
1.42808e-06
7.40388e-08
-2.58751e-08
1.43323e-06
7.43001e-08
-2.60356e-08
1.43826e-06
7.45137e-08
-2.61945e-08
1.44315e-06
7.46785e-08
-2.63686e-08
1.4479e-06
7.48035e-08
-2.65414e-08
7.48911e-08
-2.66982e-08
1.26633e-06
5.69936e-08
-3.79065e-08
1.27098e-06
5.58846e-08
-3.82549e-08
1.27622e-06
5.53553e-08
-3.84241e-08
1.28135e-06
5.55276e-08
-3.83568e-08
1.28632e-06
5.60262e-08
-3.83664e-08
1.29113e-06
5.66453e-08
-3.84521e-08
1.2958e-06
5.72984e-08
-3.85872e-08
1.30036e-06
5.79183e-08
-3.8801e-08
1.30482e-06
5.84674e-08
-3.90685e-08
1.30922e-06
5.89284e-08
-3.93525e-08
1.31354e-06
5.93291e-08
-3.96233e-08
-3.98704e-08
1.0719e-06
3.57662e-08
-4.98527e-08
1.07606e-06
3.22682e-08
-5.09275e-08
1.08014e-06
3.19057e-08
-5.10606e-08
1.08336e-06
3.29398e-08
-5.07425e-08
1.08601e-06
3.42523e-08
-5.05245e-08
1.08827e-06
3.56708e-08
-5.05132e-08
1.09033e-06
3.69886e-08
-5.06252e-08
1.09229e-06
3.81149e-08
-5.08009e-08
1.09429e-06
3.90216e-08
-5.10178e-08
1.09639e-06
3.96981e-08
-5.12609e-08
4.02555e-08
-5.14565e-08
8.27928e-07
9.03208e-09
-6.53967e-08
8.30642e-07
5.95295e-09
-6.67358e-08
8.29384e-07
8.06227e-09
-6.43106e-08
8.25972e-07
1.06845e-08
-6.20204e-08
8.21789e-07
1.30368e-08
-6.076e-08
8.17581e-07
1.50547e-08
-6.00421e-08
8.13732e-07
1.66549e-08
-5.96756e-08
8.10393e-07
1.78662e-08
-5.95165e-08
8.07552e-07
1.87812e-08
-5.94899e-08
8.05173e-07
1.94769e-08
-5.96349e-08
1.99744e-08
-5.97208e-08
5.31332e-07
-7.99143e-08
5.10363e-07
-7.98872e-08
4.89301e-07
-7.55572e-08
4.70693e-07
-7.23209e-08
4.54912e-07
-7.02309e-08
4.42001e-07
-6.91539e-08
4.31557e-07
-6.86414e-08
4.23005e-07
-6.84089e-08
4.15761e-07
-6.82127e-08
4.0941e-07
-6.79825e-08
-6.78275e-08
2.5282e-07
3.48977e-08
2.41535e-08
2.4724e-07
3.52979e-08
3.03607e-08
2.43999e-07
3.24472e-08
3.44929e-08
2.42501e-07
3.10784e-08
3.54821e-08
2.41181e-07
3.1085e-08
3.52017e-08
2.39656e-07
3.12195e-08
3.49996e-08
2.37838e-07
3.13644e-08
3.48531e-08
2.35728e-07
3.14774e-08
3.47075e-08
2.3344e-07
3.15593e-08
3.45575e-08
2.31091e-07
3.16267e-08
3.44323e-08
2.28721e-07
3.17122e-08
3.43315e-08
3.17495e-08
3.42438e-08
5.5997e-07
6.53943e-08
1.50536e-08
5.59862e-07
6.67349e-08
1.56677e-08
5.56261e-07
6.43025e-08
2.03419e-08
5.5211e-07
6.20178e-08
2.41147e-08
5.48282e-07
6.07622e-08
2.6706e-08
5.45044e-07
6.0043e-08
2.80711e-08
5.42345e-07
5.96786e-08
2.88035e-08
5.40011e-07
5.9522e-08
2.92401e-08
5.37827e-07
5.9494e-08
2.95267e-08
5.3561e-07
5.95739e-08
2.97174e-08
5.33277e-07
5.9738e-08
2.98313e-08
5.97843e-08
2.99541e-08
8.27912e-07
8.87324e-08
9.03836e-09
8.30588e-07
9.03404e-08
5.97576e-09
8.2929e-07
8.94136e-08
8.09996e-09
8.25834e-07
8.76911e-08
1.07257e-08
8.21606e-07
8.61623e-08
1.30824e-08
8.17359e-07
8.48663e-08
1.5099e-08
8.13474e-07
8.38607e-08
1.66927e-08
8.1011e-07
8.31061e-08
1.78948e-08
8.0726e-07
8.257e-08
1.88004e-08
8.04857e-07
8.22169e-08
1.94855e-08
8.02804e-07
8.20402e-08
1.99973e-08
8.1914e-08
2.03378e-08
1.03723e-06
1.03113e-07
4.05582e-09
1.0404e-06
1.043e-07
1.0588e-09
1.04125e-06
1.04576e-07
8.48571e-10
1.03999e-06
1.04099e-07
1.53531e-09
1.03736e-06
1.03326e-07
2.44774e-09
1.03391e-06
1.02421e-07
3.53263e-09
1.03017e-06
1.01462e-07
4.67103e-09
1.02648e-06
1.00541e-07
5.75406e-09
1.02299e-06
9.97345e-08
6.70341e-09
1.01982e-06
9.90362e-08
7.56388e-09
1.01703e-06
9.84786e-08
8.32216e-09
9.80087e-08
8.97237e-09
1.16843e-06
1.08275e-07
-2.47962e-09
1.1713e-06
1.09131e-07
-4.07931e-09
1.17328e-06
1.0992e-07
-4.78557e-09
1.17403e-06
1.10286e-07
-4.95825e-09
1.17374e-06
1.10265e-07
-4.87179e-09
1.1726e-06
1.09969e-07
-4.62197e-09
1.1708e-06
1.0949e-07
-4.27825e-09
1.16858e-06
1.08915e-07
-3.8524e-09
1.16616e-06
1.08294e-07
-3.34938e-09
1.1637e-06
1.07642e-07
-2.84035e-09
1.1613e-06
1.07019e-07
-2.33653e-09
1.06433e-07
-1.83916e-09
1.20925e-06
1.04997e-07
-9.6502e-09
1.21124e-06
1.05836e-07
-1.01112e-08
1.21316e-06
1.06581e-07
-1.0366e-08
1.21481e-06
1.0715e-07
-1.05597e-08
1.21607e-06
1.07473e-07
-1.0712e-08
1.21692e-06
1.07541e-07
-1.0825e-08
1.21733e-06
1.0743e-07
-1.0897e-08
1.21735e-06
1.0723e-07
-1.0922e-08
1.21708e-06
1.06934e-07
-1.08856e-08
1.2166e-06
1.06545e-07
-1.08124e-08
1.21594e-06
1.06117e-07
-1.0707e-08
1.05675e-07
-1.05641e-08
1.15478e-06
9.40787e-08
-1.62392e-08
1.15655e-06
9.46012e-08
-1.61967e-08
1.15854e-06
9.49584e-08
-1.59643e-08
1.1606e-06
9.5433e-08
-1.58948e-08
1.16266e-06
9.58576e-08
-1.60242e-08
1.16465e-06
9.61331e-08
-1.6281e-08
1.1665e-06
9.62913e-08
-1.65834e-08
1.16821e-06
9.63484e-08
-1.68616e-08
1.16974e-06
9.63147e-08
-1.71098e-08
1.17105e-06
9.62026e-08
-1.73335e-08
1.17211e-06
9.60427e-08
-1.75264e-08
9.58552e-08
-1.76794e-08
1.01155e-06
7.56698e-08
-2.12884e-08
1.01503e-06
7.47334e-08
-2.18725e-08
1.01808e-06
7.50273e-08
-2.15386e-08
1.0206e-06
7.59009e-08
-2.13526e-08
1.02298e-06
7.66685e-08
-2.15492e-08
1.0253e-06
7.72481e-08
-2.18928e-08
1.02757e-06
7.76904e-08
-2.2256e-08
1.02974e-06
7.80045e-08
-2.2621e-08
1.03175e-06
7.82017e-08
-2.29647e-08
1.03357e-06
7.83064e-08
-2.32786e-08
1.03515e-06
7.83928e-08
-2.356e-08
-2.38004e-08
8.07615e-07
4.99046e-08
-2.46924e-08
8.1129e-07
4.69811e-08
-2.68496e-08
8.13419e-07
4.85816e-08
-2.6744e-08
8.1445e-07
5.08922e-08
-2.67644e-08
8.15237e-07
5.25481e-08
-2.71915e-08
8.15973e-07
5.36482e-08
-2.76487e-08
8.16676e-07
5.44115e-08
-2.80489e-08
8.17344e-07
5.49467e-08
-2.84117e-08
8.17957e-07
5.52752e-08
-2.87041e-08
8.1851e-07
5.53907e-08
-2.88975e-08
5.55423e-08
-2.90659e-08
5.59938e-07
1.50525e-08
-3.48982e-08
5.59815e-07
1.56661e-08
-3.52979e-08
5.56202e-07
2.03354e-08
-3.24513e-08
5.52048e-07
2.41134e-08
-3.10874e-08
5.48221e-07
2.67061e-08
-3.10913e-08
5.44986e-07
2.80693e-08
-3.12275e-08
5.42291e-07
2.8803e-08
-3.13718e-08
5.39958e-07
2.92413e-08
-3.14787e-08
5.37768e-07
2.95321e-08
-3.15566e-08
5.35489e-07
2.96877e-08
-3.1652e-08
2.98459e-08
-3.1705e-08
2.93644e-07
-4.28179e-08
2.70101e-07
-4.06775e-08
2.53933e-07
-3.90539e-08
2.4366e-07
-3.79338e-08
2.36886e-07
-3.67515e-08
2.31995e-07
-3.61932e-08
2.28099e-07
-3.59421e-08
2.24695e-07
-3.57636e-08
2.21604e-07
-3.55891e-08
2.1875e-07
-3.54403e-08
-3.5296e-08
9.76636e-08
4.28187e-08
8.73481e-08
4.06762e-08
8.27901e-08
3.90509e-08
8.03347e-08
3.79375e-08
7.87801e-08
3.67564e-08
7.75831e-08
3.61966e-08
7.64922e-08
3.59441e-08
7.54342e-08
3.57655e-08
7.44011e-08
3.55906e-08
7.33998e-08
3.54337e-08
7.24296e-08
3.53018e-08
3.51818e-08
2.93674e-07
7.99084e-08
2.70147e-07
7.98706e-08
2.5401e-07
7.55298e-08
2.43772e-07
7.22899e-08
2.37038e-07
7.01961e-08
2.32186e-07
6.91199e-08
2.28323e-07
6.86102e-08
2.24945e-07
6.83841e-08
2.21864e-07
6.8198e-08
2.19024e-07
6.79913e-08
2.16365e-07
6.77928e-08
6.77071e-08
5.3138e-07
1.04793e-07
5.10455e-07
1.06772e-07
4.89443e-07
1.04641e-07
4.70891e-07
1.01568e-07
4.55168e-07
9.90014e-08
4.42314e-07
9.70735e-08
4.31919e-07
9.56977e-08
4.23407e-07
9.47912e-08
4.16194e-07
9.42113e-08
4.09871e-07
9.38e-08
4.04171e-07
9.34898e-08
9.33006e-08
7.31515e-07
1.19136e-07
7.18047e-07
1.21298e-07
7.02514e-07
1.21024e-07
6.8596e-07
1.19657e-07
6.69373e-07
1.18036e-07
6.53504e-07
1.16475e-07
6.38745e-07
1.15128e-07
6.25287e-07
1.14003e-07
6.13119e-07
1.13083e-07
6.02171e-07
1.12312e-07
5.92277e-07
1.11706e-07
1.11256e-07
8.53268e-07
1.23965e-07
8.44734e-07
1.25753e-07
8.34704e-07
1.26267e-07
8.23426e-07
1.25977e-07
8.11287e-07
1.25303e-07
7.98685e-07
1.24456e-07
7.8596e-07
1.23575e-07
7.73395e-07
1.22715e-07
7.61212e-07
1.21916e-07
7.49518e-07
1.21166e-07
7.38365e-07
1.20522e-07
1.19965e-07
8.79489e-07
1.20274e-07
8.73699e-07
1.21432e-07
8.6748e-07
1.2212e-07
8.6057e-07
1.22327e-07
8.53033e-07
1.22128e-07
8.44977e-07
1.21688e-07
8.36503e-07
1.21151e-07
8.27722e-07
1.20575e-07
8.1872e-07
1.20032e-07
8.09539e-07
1.19535e-07
8.00273e-07
1.19081e-07
1.18642e-07
8.09688e-07
1.08431e-07
8.06191e-07
1.08733e-07
8.02965e-07
1.09381e-07
7.99487e-07
1.0991e-07
7.95628e-07
1.09963e-07
7.91347e-07
1.09688e-07
7.8661e-07
1.09305e-07
7.81387e-07
1.08937e-07
7.75689e-07
1.0862e-07
7.69531e-07
1.0836e-07
7.62999e-07
1.08087e-07
1.07826e-07
6.60753e-07
8.84701e-08
6.59775e-07
8.78383e-08
6.58487e-07
8.91312e-08
6.56968e-07
9.00766e-08
6.55175e-07
9.02063e-08
6.52898e-07
9.0073e-08
6.50051e-07
8.98953e-08
6.46674e-07
8.96928e-08
6.42816e-07
8.95139e-08
6.38505e-07
8.93919e-08
6.33755e-07
8.92769e-08
4.61193e-07
5.9158e-08
4.62123e-07
6.00591e-08
4.60839e-07
6.36712e-08
4.59128e-07
6.50234e-08
4.57227e-07
6.49159e-08
4.54997e-07
6.46541e-08
4.52478e-07
6.43655e-08
4.49709e-07
6.40505e-08
4.46702e-07
6.38168e-08
4.43469e-07
6.37268e-08
6.36406e-08
2.52794e-07
2.41516e-08
2.47197e-07
3.03577e-08
2.4393e-07
3.4487e-08
2.42398e-07
3.5468e-08
2.41039e-07
3.51836e-08
2.39484e-07
3.49819e-08
2.37639e-07
3.48391e-08
2.35513e-07
3.46976e-08
2.33222e-07
3.45514e-08
2.30867e-07
3.44302e-08
3.43316e-08
9.76548e-08
8.73349e-08
8.2768e-08
8.03021e-08
7.87342e-08
7.7523e-08
7.642e-08
7.5354e-08
7.43163e-08
7.33062e-08
)
;

boundaryField
{
    inlet
    {
        type            calculated;
        value           nonuniform List<scalar> 0();
    }
    ami1
    {
        type            cyclicAMI;
        value           nonuniform List<scalar> 0();
    }
    walls
    {
        type            calculated;
        value           nonuniform List<scalar> 
259
(
-6.40674e-15
-1.28555e-14
-1.84387e-14
-2.43942e-14
-2.90979e-14
-6.40674e-15
-1.28555e-14
-1.84387e-14
-2.43942e-14
-2.90979e-14
-6.40674e-15
-1.28555e-14
-1.84387e-14
-2.43942e-14
-2.90979e-14
-6.40674e-15
-1.28555e-14
-1.84387e-14
-2.43942e-14
-2.90979e-14
-6.40674e-15
-1.28555e-14
-1.84387e-14
-2.43942e-14
-2.90979e-14
-6.40674e-15
-1.28555e-14
-1.84387e-14
-2.43942e-14
-2.90979e-14
-6.40674e-15
-1.28555e-14
-1.84387e-14
-2.43942e-14
-2.90979e-14
-6.40674e-15
-1.28555e-14
-1.84387e-14
-2.43942e-14
-2.90979e-14
-6.40674e-15
-1.28555e-14
-1.84387e-14
-2.43942e-14
-2.90979e-14
-6.40674e-15
-1.28555e-14
-1.84387e-14
-2.43942e-14
-2.90979e-14
-6.40674e-15
-1.28555e-14
-1.84387e-14
-2.43942e-14
-2.90979e-14
-2.90979e-14
-2.43942e-14
-1.84387e-14
-1.28555e-14
-6.40674e-15
8.11752e-22
6.40674e-15
1.28555e-14
1.84387e-14
2.43942e-14
2.90979e-14
-2.90979e-14
-2.43942e-14
-1.84387e-14
-1.28555e-14
-6.40674e-15
2.85975e-22
6.40674e-15
1.28555e-14
1.84387e-14
2.43942e-14
2.90979e-14
-2.90979e-14
-2.43942e-14
-1.84387e-14
-1.28555e-14
-6.40674e-15
8.11929e-22
6.40674e-15
1.28555e-14
1.84387e-14
2.43942e-14
2.90979e-14
-2.90979e-14
-2.43942e-14
-1.84387e-14
-1.28555e-14
-6.40674e-15
8.1201e-22
6.40674e-15
1.28555e-14
1.84387e-14
2.43942e-14
2.90979e-14
-2.90979e-14
-2.43942e-14
-1.84387e-14
-1.28555e-14
-6.40674e-15
8.1201e-22
6.40674e-15
1.28555e-14
1.84387e-14
2.43942e-14
2.90979e-14
-2.90979e-14
-2.43942e-14
-1.84387e-14
-1.28555e-14
-6.40674e-15
2.85797e-22
6.40674e-15
1.28555e-14
1.84387e-14
2.43942e-14
2.90979e-14
-2.90979e-14
-2.43942e-14
-1.84387e-14
-1.28555e-14
-6.40674e-15
8.1201e-22
6.40674e-15
1.28555e-14
1.84387e-14
2.43942e-14
2.90979e-14
-2.90979e-14
-2.43942e-14
-1.84387e-14
-1.28555e-14
-6.40674e-15
8.11929e-22
6.40674e-15
1.28555e-14
1.84387e-14
2.43942e-14
2.90979e-14
-2.90979e-14
-2.43942e-14
-1.84387e-14
-1.28555e-14
-6.40674e-15
8.11929e-22
6.40674e-15
1.28555e-14
1.84387e-14
2.43942e-14
2.90979e-14
-2.90979e-14
-2.43942e-14
-1.84387e-14
-1.28555e-14
-6.40674e-15
8.27261e-22
6.40674e-15
1.28555e-14
1.84387e-14
2.43942e-14
2.90979e-14
-2.90979e-14
-2.43942e-14
-1.84387e-14
-1.28555e-14
-6.40674e-15
8.11752e-22
6.40674e-15
1.28555e-14
1.84387e-14
2.43942e-14
2.90979e-14
-2.90979e-14
-2.43942e-14
-1.84387e-14
-1.28555e-14
-6.40674e-15
8.11752e-22
6.40674e-15
1.28555e-14
-6.40674e-15
8.11752e-22
6.40674e-15
1.28555e-14
1.84387e-14
2.43942e-14
2.90979e-14
-6.40674e-15
2.85975e-22
6.40674e-15
1.28555e-14
1.84387e-14
2.43942e-14
2.90979e-14
-6.40674e-15
8.11929e-22
6.40674e-15
1.28555e-14
1.84387e-14
2.43942e-14
2.90979e-14
8.1201e-22
6.40674e-15
1.28555e-14
1.84387e-14
2.43942e-14
2.90979e-14
8.1201e-22
6.40674e-15
1.28555e-14
1.84387e-14
2.43942e-14
2.90979e-14
2.85797e-22
6.40674e-15
1.28555e-14
1.84387e-14
2.43942e-14
2.90979e-14
8.1201e-22
6.40674e-15
1.28555e-14
1.84387e-14
2.43942e-14
2.90979e-14
8.11929e-22
6.40674e-15
1.28555e-14
1.84387e-14
2.43942e-14
2.90979e-14
8.11929e-22
6.40674e-15
1.28555e-14
1.84387e-14
2.43942e-14
2.90979e-14
8.27261e-22
6.40674e-15
1.28555e-14
1.84387e-14
2.43942e-14
2.90979e-14
8.11752e-22
6.40674e-15
1.28555e-14
1.84387e-14
2.43942e-14
2.90979e-14
8.11752e-22
6.40674e-15
1.28555e-14
1.84387e-14
2.43942e-14
2.90979e-14
)
;
    }
    ami2
    {
        type            cyclicAMI;
        value           nonuniform List<scalar> 
61
(
-8.60628e-07
-1.16597e-06
-1.39994e-06
-8.85472e-07
-1.20719e-06
-1.43987e-06
-8.14095e-07
-1.15315e-06
-1.39191e-06
-1.57044e-06
-1.68202e-06
-1.71968e-06
-1.68202e-06
-1.57321e-06
-1.39994e-06
-1.16598e-06
-8.60573e-07
-6.62096e-07
-1.00976e-06
-1.26339e-06
-1.45482e-06
-1.57321e-06
-1.61189e-06
-1.57044e-06
-1.45482e-06
-1.27295e-06
-1.03475e-06
-7.4179e-07
-4.56588e-07
-8.07016e-07
-1.07088e-06
-1.27294e-06
-1.39994e-06
-1.43987e-06
-1.39191e-06
-1.2634e-06
-1.07088e-06
-8.24529e-07
-5.47201e-07
-2.52702e-07
-5.55605e-07
-8.24532e-07
-1.03475e-06
-1.16598e-06
-1.20719e-06
-1.15315e-06
-1.00975e-06
-8.0701e-07
-5.55584e-07
-3.15688e-07
-1.16329e-07
-3.1571e-07
-5.47227e-07
-7.41803e-07
-8.60577e-07
-8.85448e-07
-8.14083e-07
-6.6208e-07
-4.56573e-07
-2.52685e-07
-1.16321e-07
)
;
    }
    outlet
    {
        type            calculated;
        value           nonuniform List<scalar> 0();
    }
    procBoundary1to0
    {
        type            processor;
        value           nonuniform List<scalar> 
138
(
8.34769e-07
-1.26008e-07
-1.25333e-07
-1.24477e-07
-1.23583e-07
-1.22713e-07
-1.21901e-07
-1.21139e-07
-1.20488e-07
-1.19927e-07
1.17325e-06
-1.10268e-07
-1.10242e-07
-1.09946e-07
-1.09464e-07
-1.08885e-07
-1.08261e-07
-1.0761e-07
-1.0699e-07
-1.06409e-07
-1.32478e-08
-1.25396e-08
1.4134e-06
-1.19402e-08
-8.74105e-08
-8.74562e-08
-8.73701e-08
-8.71895e-08
-8.69448e-08
-8.66575e-08
-8.63499e-08
-8.60367e-08
-8.57251e-08
9.31382e-09
9.73518e-09
9.98702e-09
1.0142e-08
1.02504e-08
1.03278e-08
1.03692e-08
1.03558e-08
1.02832e-08
1.01724e-08
1.00428e-08
9.9009e-09
-5.67102e-08
-5.67848e-08
-5.68427e-08
-5.6892e-08
-5.69482e-08
-5.70103e-08
-5.7076e-08
-5.71414e-08
-5.72001e-08
-5.72474e-08
-5.72823e-08
-5.73058e-08
-2.78282e-08
-2.77279e-08
-2.76793e-08
-2.76589e-08
-2.7655e-08
-2.76685e-08
-2.76952e-08
-2.77341e-08
-2.7785e-08
-2.7846e-08
-2.79155e-08
-2.79882e-08
2.16361e-09
2.25e-09
2.2959e-09
2.30149e-09
2.29416e-09
2.2889e-09
2.27538e-09
2.25177e-09
2.22017e-09
2.18237e-09
2.14023e-09
2.09599e-09
3.20152e-08
3.20612e-08
3.20822e-08
3.20801e-08
3.20645e-08
3.20366e-08
3.20034e-08
3.19676e-08
3.19307e-08
3.18938e-08
3.18558e-08
3.18195e-08
6.06352e-08
6.0669e-08
6.07104e-08
6.07423e-08
6.07448e-08
6.0715e-08
6.06564e-08
6.05752e-08
6.04798e-08
6.03768e-08
6.02714e-08
6.01675e-08
8.6662e-08
8.69377e-08
8.7243e-08
8.74356e-08
8.7479e-08
8.73899e-08
8.72077e-08
8.69623e-08
8.66732e-08
8.63612e-08
8.60404e-08
1.08281e-07
1.0914e-07
1.09924e-07
1.10287e-07
1.10264e-07
1.09969e-07
1.09489e-07
1.08913e-07
1.0829e-07
1.07637e-07
1.07011e-07
1.23969e-07
1.25757e-07
1.26277e-07
1.25994e-07
1.25325e-07
1.24481e-07
1.23599e-07
1.22739e-07
1.21939e-07
1.21184e-07
1.20537e-07
)
;
    }
    procBoundary1to2
    {
        type            processor;
        value           nonuniform List<scalar> 9(-1.19162e-07 -1.21327e-07 -1.21052e-07 -1.03118e-07 -1.04296e-07 -1.04565e-07 -8.24194e-08 -8.25849e-08 -8.27848e-08);
    }
    procBoundary1to8
    {
        type            processor;
        value           nonuniform List<scalar> 
33
(
7.91027e-07
1.21519e-06
1.49676e-06
7.5615e-07
1.17288e-06
1.45246e-06
1.6533e-06
1.77841e-06
1.82117e-06
6.28678e-07
1.03637e-06
1.31761e-06
1.52274e-06
1.65222e-06
1.69726e-06
4.36582e-07
8.19053e-07
1.10046e-06
1.31117e-06
1.44738e-06
1.49672e-06
2.26306e-07
5.30939e-07
8.01039e-07
1.01462e-06
1.15901e-06
1.21514e-06
7.14918e-08
2.13794e-07
3.98916e-07
5.83294e-07
7.27817e-07
7.91032e-07
)
;
    }
    procBoundary1to9
    {
        type            processor;
        value           nonuniform List<scalar> 
30
(
1.77844e-06
1.6523e-06
1.30239e-08