/*--------------------------------*- C++ -*----------------------------------*\
| =========                 |                                                 |
| \\      /  F ield         | OpenFOAM: The Open Source CFD Toolbox           |
|  \\    /   O peration     | Version:  2212                                  |
|   \\  /    A nd           | Website:  www.openfoam.com                      |
|    \\/     M anipulation  |                                                 |
\*---------------------------------------------------------------------------*/
FoamFile
{
    version     2.0;
    format      ascii;
    arch        "LSB;label=32;scalar=64";
    class       volVectorField;
    location    "3";
    object      U;
}
// * * * * * * * * * * * * * * * * * * * * * * * * * * * * * * * * * * * * * //

dimensions      [0 1 -1 0 0 0 0];

internalField   nonuniform List<vector> 
690
(
(0.0912754 -0.00174607 -0.000977291)
(0.0904506 -0.002098 -0.0012165)
(0.089535 -0.00229603 -0.00120302)
(0.104063 -0.00186394 -0.000581158)
(0.104336 -0.0021144 -0.000650769)
(0.104528 -0.00226514 -0.000706471)
(0.109583 -0.00163608 -0.000357001)
(0.109933 -0.0017722 -0.000350916)
(0.110285 -0.00189127 -0.00036293)
(0.0908246 -0.00148691 -0.000507369)
(0.0902211 -0.00160652 -0.000718186)
(0.0896531 -0.00171323 -0.000827504)
(0.0889873 -0.00178327 -0.00082536)
(0.0882413 -0.00181578 -0.000754065)
(0.0874321 -0.00182038 -0.000656012)
(0.0865756 -0.00180678 -0.000557548)
(0.0856878 -0.00178728 -0.000457769)
(0.0847698 -0.00176662 -0.000361222)
(0.0838277 -0.00174337 -0.000269991)
(0.0828737 -0.0017146 -0.000188493)
(0.0819183 -0.00167951 -0.000109444)
(0.10486 -0.001672 -0.000266726)
(0.105043 -0.00176203 -0.000367473)
(0.105213 -0.00181999 -0.000476288)
(0.105366 -0.00185884 -0.000553968)
(0.105496 -0.00188667 -0.000586474)
(0.105591 -0.00191081 -0.000575426)
(0.105647 -0.00193132 -0.000534376)
(0.105662 -0.00193302 -0.000483562)
(0.10565 -0.00190918 -0.000423166)
(0.105617 -0.001877 -0.00035034)
(0.105567 -0.00184503 -0.000274383)
(0.105503 -0.0018102 -0.000199087)
(0.110299 -0.00147746 -4.36876e-05)
(0.110695 -0.00155683 -8.59962e-05)
(0.111062 -0.00161027 -0.00012394)
(0.111454 -0.00164817 -0.000154072)
(0.111854 -0.0016761 -0.000172251)
(0.112247 -0.00169658 -0.000177463)
(0.112627 -0.00170892 -0.000170795)
(0.112994 -0.00171079 -0.000154938)
(0.113344 -0.00170186 -0.000131741)
(0.113677 -0.00168485 -0.000103296)
(0.113995 -0.00166299 -7.07903e-05)
(0.1143 -0.00163804 -3.5669e-05)
(0.0865017 -0.00112984 -0.000211117)
(0.0860418 -0.0011142 -0.000344114)
(0.0857432 -0.00110246 -0.000442075)
(0.0854055 -0.0011334 -0.000495387)
(0.0850159 -0.00118855 -0.000485583)
(0.084577 -0.00124587 -0.000428826)
(0.0841002 -0.00129451 -0.000349428)
(0.0835728 -0.00133551 -0.000266073)
(0.0829877 -0.00136941 -0.000189599)
(0.0823537 -0.00139514 -0.000122275)
(0.0816763 -0.00141217 -6.35693e-05)
(0.0809602 -0.00142125 -9.54743e-06)
(0.102882 -0.00123003 3.53284e-05)
(0.103032 -0.0012827 -9.14387e-05)
(0.103194 -0.00129068 -0.000178413)
(0.103376 -0.00129236 -0.00025255)
(0.103562 -0.00130581 -0.000305154)
(0.103744 -0.00133469 -0.000327188)
(0.103915 -0.00137016 -0.000325309)
(0.104073 -0.00139628 -0.000311641)
(0.104219 -0.00141714 -0.000285644)
(0.104346 -0.00143898 -0.000246496)
(0.104451 -0.0014598 -0.000199334)
(0.104534 -0.00147648 -0.000148223)
(0.109002 -0.00112055 0.000364241)
(0.109392 -0.00116154 0.000296687)
(0.109764 -0.00117441 0.000262686)
(0.11017 -0.00117504 0.000238154)
(0.110591 -0.00117884 0.000213816)
(0.11101 -0.00118899 0.000190891)
(0.111423 -0.0012037 0.000170815)
(0.111829 -0.00122023 0.000156078)
(0.112228 -0.00123705 0.000148958)
(0.112616 -0.00125354 0.00014914)
(0.112992 -0.00126913 0.000154803)
(0.113357 -0.00128314 0.000164415)
(0.112389 -0.00080945 0.000585867)
(0.112873 -0.000821833 0.000580636)
(0.113334 -0.000825793 0.000577741)
(0.113837 -0.000821843 0.000573722)
(0.114356 -0.000815284 0.000565283)
(0.114873 -0.000808969 0.000552563)
(0.115386 -0.000803672 0.000536146)
(0.115893 -0.000799317 0.000517221)
(0.116392 -0.000796139 0.00049762)
(0.11688 -0.000794523 0.000478943)
(0.117358 -0.00079445 0.000461861)
(0.117827 -0.000795538 0.000446589)
(0.114192 -0.000403886 0.000626031)
(0.114737 -0.000410726 0.000651371)
(0.115253 -0.00041355 0.000665494)
(0.115806 -0.000411351 0.000671213)
(0.116374 -0.000406846 0.000672258)
(0.11694 -0.000400672 0.00066874)
(0.117501 -0.00039386 0.000661402)
(0.118057 -0.000386964 0.000650611)
(0.118604 -0.000380373 0.000636812)
(0.119141 -0.000374215 0.0006206)
(0.119668 -0.000368143 0.000602244)
(0.120184 -0.00036259 0.000583058)
(0.114736 8.49045e-05 0.000546328)
(0.115308 8.74994e-05 0.000566229)
(0.115846 8.77403e-05 0.000576326)
(0.116418 8.68304e-05 0.000576915)
(0.117006 8.57905e-05 0.000574542)
(0.117588 8.52186e-05 0.000573401)
(0.118165 8.46194e-05 0.00057065)
(0.118737 8.37171e-05 0.000565238)
(0.119302 8.25017e-05 0.000557666)
(0.119858 8.10517e-05 0.000548619)
(0.120403 7.94792e-05 0.000538678)
(0.120937 7.78585e-05 0.000528239)
(0.114192 0.000625817 0.000404281)
(0.114737 0.000650878 0.000411211)
(0.115253 0.000664756 0.000414225)
(0.115806 0.000670215 0.000412175)
(0.116375 0.000670994 0.000407716)
(0.116941 0.000667221 0.000401503)
(0.117502 0.000659654 0.000394557)
(0.118057 0.000648663 0.000387471)
(0.118605 0.000634712 0.000380662)
(0.119143 0.000618467 0.000374308)
(0.11967 0.0006001 0.000367981)
(0.120186 0.000580926 0.000362097)
(0.112575 0.0011878 0.000312422)
(0.113038 0.00124526 0.00029755)
(0.113481 0.00128979 0.000291197)
(0.113968 0.00131883 0.000286315)
(0.114474 0.0013327 0.000278162)
(0.114977 0.00133311 0.000266363)
(0.115472 0.00132107 0.000251959)
(0.115956 0.00129754 0.000236595)
(0.116428 0.0012646 0.000221847)
(0.116887 0.00122566 0.000208468)
(0.117334 0.00118406 0.000196673)
(0.117771 0.00114206 0.000186655)
(0.109583 0.00163561 0.000357862)
(0.109932 0.0017727 0.000352491)
(0.110283 0.00189269 0.000365198)
(0.110666 0.00197137 0.000366387)
(0.111044 0.00201186 0.000348705)
(0.111394 0.00202077 0.000314239)
(0.111714 0.00200599 0.000272209)
(0.112011 0.00196871 0.000227784)
(0.112285 0.00191553 0.000183462)
(0.112543 0.00185369 0.000140825)
(0.112789 0.00178888 0.000101207)
(0.104065 0.00186037 0.000580792)
(0.104339 0.00211633 0.000651686)
(0.10453 0.00226969 0.000708557)
(0.10465 0.00233257 0.000711329)
(0.104675 0.00234574 0.000664437)
(0.10461 0.00232981 0.000587683)
(0.104476 0.00228985 0.000492504)
(0.104293 0.00222158 0.000388124)
(0.104084 0.00212753 0.000288739)
(0.103867 0.00203523 0.00019531)
(0.10365 0.00194792 0.000112353)
(0.0912668 0.00174639 0.00097661)
(0.0904429 0.00209743 0.00121567)
(0.0895278 0.00229344 0.00120267)
(0.0884014 0.00233356 0.00108442)
(0.0871339 0.00229933 0.000936108)
(0.0857948 0.00223222 0.000779732)
(0.0844356 0.00215334 0.000623166)
(0.0830833 0.00206832 0.000476334)
(0.081756 0.00198019 0.000345698)
(0.0804767 0.00189139 0.00022608)
(0.079256 0.00180303 0.000130669)
(0.078602 -0.000414397 0.000221515)
(0.0783436 -0.000490235 0.000155828)
(0.0782972 -0.000481246 2.09849e-05)
(0.0781729 -0.000503543 -9.63201e-05)
(0.0779659 -0.000580787 -0.000137331)
(0.07772 -0.000681646 -0.000124058)
(0.0774169 -0.000781379 -8.99641e-05)
(0.0770477 -0.000869994 -5.37345e-05)
(0.0766166 -0.000944258 -2.27924e-05)
(0.0761313 -0.00100428 3.24815e-06)
(0.0755935 -0.00105088 2.71092e-05)
(0.0750055 -0.00108513 5.12697e-05)
(0.0979243 -0.000451112 0.000486606)
(0.0982307 -0.00059171 0.000416158)
(0.0984898 -0.00064862 0.000342039)
(0.0987543 -0.000663248 0.000258951)
(0.098996 -0.00069488 0.000188545)
(0.0992191 -0.000734939 0.000127938)
(0.0994413 -0.000776783 7.71144e-05)
(0.0996576 -0.000827084 4.38729e-05)
(0.0998594 -0.00088162 2.67674e-05)
(0.100044 -0.000934702 2.19013e-05)
(0.100208 -0.00098319 2.5922e-05)
(0.100349 -0.00102479 3.34579e-05)
(0.105789 -0.000633569 0.000860944)
(0.106134 -0.000628514 0.000872178)
(0.106501 -0.000632205 0.000888633)
(0.10693 -0.000624143 0.000874778)
(0.107363 -0.000620219 0.000835147)
(0.107772 -0.000626934 0.000781135)
(0.108166 -0.000644069 0.000721781)
(0.10855 -0.000671085 0.000664398)
(0.108926 -0.000705395 0.000613407)
(0.109294 -0.000743376 0.000570272)
(0.109657 -0.000782058 0.000534596)
(0.110013 -0.000819465 0.000504679)
(0.110271 -0.000550447 0.00113495)
(0.110645 -0.000506182 0.00117641)
(0.111043 -0.000489961 0.00122466)
(0.111506 -0.000477147 0.00125031)
(0.111988 -0.000461852 0.00124991)
(0.11246 -0.000446092 0.00122821)
(0.112918 -0.000432452 0.0011893)
(0.113362 -0.000424061 0.00113913)
(0.113793 -0.000421407 0.00108375)
(0.114214 -0.000422877 0.00102818)
(0.114628 -0.000428392 0.00097462)
(0.115035 -0.000436876 0.000923731)
(0.112575 -0.000312171 0.00118776)
(0.113037 -0.000297271 0.00124537)
(0.11348 -0.000290763 0.00129018)
(0.113967 -0.000285853 0.00131965)
(0.114473 -0.000277841 0.00133395)
(0.114975 -0.000266281 0.00133466)
(0.11547 -0.00025216 0.00132282)
(0.115953 -0.000237077 0.00129945)
(0.116425 -0.000222573 0.00126664)
(0.116883 -0.000209434 0.00122784)
(0.11733 -0.000197937 0.00118645)
(0.117766 -0.000188133 0.0011444)
(0.113191 8.77697e-05 0.001055)
(0.1137 7.97039e-05 0.00110179)
(0.114176 7.1197e-05 0.0011277)
(0.114683 6.31492e-05 0.00114033)
(0.115205 5.66858e-05 0.00114716)
(0.115725 5.24462e-05 0.00114948)
(0.116241 5.06066e-05 0.00114754)
(0.11675 5.09579e-05 0.00114075)
(0.11725 5.32592e-05 0.00112878)
(0.117739 5.73684e-05 0.001113)
(0.118215 6.31315e-05 0.00109508)
(0.11868 7.02109e-05 0.00107587)
(0.112389 0.000585386 0.000809683)
(0.112873 0.000579807 0.000822263)
(0.113335 0.000576656 0.000826594)
(0.113837 0.000572268 0.000822945)
(0.114356 0.000563396 0.000816543)
(0.114874 0.000550271 0.00081026)
(0.115387 0.000533501 0.000804924)
(0.115894 0.0005143 0.000800486)
(0.116393 0.000494526 0.000797215)
(0.116882 0.000475791 0.000795472)
(0.11736 0.000458703 0.00079518)
(0.117829 0.000443696 0.000796044)
(0.110271 0.00113465 0.000550683)
(0.110646 0.00117586 0.000506547)
(0.111043 0.00122388 0.000490589)
(0.111507 0.00124901 0.000477839)
(0.11199 0.001248 0.000462491)
(0.112463 0.00122582 0.000446638)
(0.112921 0.00118656 0.000432891)
(0.113366 0.00113617 0.000424359)
(0.113798 0.00108063 0.000421738)
(0.114221 0.00102496 0.000423158)
(0.114636 0.000971009 0.000428307)
(0.115044 0.000920233 0.000436507)
(0.106562 0.00158784 0.000466891)
(0.106883 0.00180471 0.000422821)
(0.10722 0.00196209 0.000390609)
(0.107596 0.00202833 0.000344603)
(0.107943 0.00203137 0.000289544)
(0.108237 0.00198793 0.000233275)
(0.108489 0.00191134 0.000182336)
(0.108715 0.00181586 0.00014761)
(0.10893 0.00171548 0.000120206)
(0.109139 0.00161988 0.000104685)
(0.109347 0.00152751 9.69827e-05)
(0.100389 0.00192932 0.000747492)
(0.10073 0.00241836 0.000786183)
(0.100876 0.0026096 0.000706404)
(0.100858 0.00259039 0.000564873)
(0.100669 0.00250536 0.000412402)
(0.100361 0.0023715 0.000269399)
(0.100005 0.00220101 0.000144147)
(0.0996439 0.00202495 4.33911e-05)
(0.0992969 0.00187294 -3.11772e-05)
(0.098977 0.00173251 -8.31341e-05)
(0.0986884 0.00160664 -0.000112224)
(0.087405 0.00202056 0.0014437)
(0.0860327 0.00267265 0.00152382)
(0.084426 0.0027687 0.00133439)
(0.0825148 0.00266879 0.00106274)
(0.0804981 0.00250845 0.000776582)
(0.0785395 0.00231749 0.000520605)
(0.0767088 0.00212601 0.000326856)
(0.0750255 0.00194676 0.000190609)
(0.0734969 0.00178362 0.000102142)
(0.072121 0.00163856 4.14429e-05)
(0.0708857 0.00151003 5.16859e-06)
(0.0667821 0.000654343 0.000726967)
(0.0670517 0.000328579 0.000700972)
(0.0671263 0.000190455 0.000365712)
(0.0669329 3.83781e-05 0.000199926)
(0.0666308 -0.000140068 0.000169541)
(0.0663129 -0.000300384 0.000173472)
(0.0659736 -0.000430656 0.000188265)
(0.0655912 -0.000535681 0.000211621)
(0.0651712 -0.000616215 0.000230437)
(0.0647168 -0.000671685 0.000234284)
(0.0642394 -0.000710306 0.000229461)
(0.0637261 -0.000742339 0.00023237)
(0.0906724 0.000266666 0.000844294)
(0.0910654 3.445e-05 0.00110664)
(0.091341 -6.07351e-05 0.00103756)
(0.0914924 -8.34609e-05 0.000870833)
(0.0915841 -0.000116738 0.000721799)
(0.0916639 -0.000176152 0.000610413)
(0.0917399 -0.000248935 0.000530394)
(0.091815 -0.000323241 0.000473185)
(0.0918885 -0.000393951 0.000429759)
(0.0919532 -0.000458071 0.000396738)
(0.0920062 -0.000510417 0.000367925)
(0.0920435 -0.000559742 0.000349888)
(0.10079 -0.000370879 0.00133693)
(0.101108 -0.000329841 0.00160188)
(0.101426 -0.000268498 0.00169839)
(0.101764 -0.000208807 0.00167426)
(0.10205 -0.000169372 0.00159299)
(0.102276 -0.000156755 0.00148369)
(0.10247 -0.00016647 0.00136405)
(0.102652 -0.00019073 0.00125094)
(0.102835 -0.000224739 0.00114925)
(0.103023 -0.00026728 0.00106255)
(0.10322 -0.000313258 0.000990718)
(0.103427 -0.000357111 0.000926867)
(0.106561 -0.000467142 0.00158828)
(0.106881 -0.000423295 0.00180522)
(0.107217 -0.000390736 0.00196202)
(0.107593 -0.000344749 0.00202829)
(0.107938 -0.000289745 0.00203167)
(0.10823 -0.000233568 0.00198847)
(0.10848 -0.000182788 0.00191212)
(0.108703 -0.000148057 0.00181675)
(0.108915 -0.000120516 0.00171672)
(0.109121 -0.000104863 0.00162094)
(0.109327 -9.82931e-05 0.00152963)
(0.109539 -9.73379e-05 0.00144381)
(0.109583 -0.000357901 0.00163544)
(0.109931 -0.000352566 0.00177219)
(0.110282 -0.000365214 0.0018922)
(0.110664 -0.000366513 0.0019711)
(0.111042 -0.000349106 0.00201184)
(0.111391 -0.000314926 0.00202087)
(0.11171 -0.00027332 0.00200612)
(0.112005 -0.00022928 0.00196888)
(0.112278 -0.000185141 0.00191588)
(0.112534 -0.000142685 0.00185434)
(0.112779 -0.000103524 0.00179007)
(0.113018 -6.76752e-05 0.00172494)
(0.110299 -4.39926e-05 0.00147688)
(0.110694 -8.72023e-05 0.0015566)
(0.111061 -0.000126163 0.00161102)
(0.111453 -0.000157101 0.00164985)
(0.111853 -0.00017566 0.00167811)
(0.112245 -0.000180948 0.00169865)
(0.112625 -0.000174354 0.00171092)
(0.112991 -0.000158637 0.00171282)
(0.113341 -0.000135507 0.00170399)
(0.113674 -0.000106857 0.00168708)
(0.113992 -7.39436e-05 0.00166525)
(0.114297 -3.81349e-05 0.00164015)
(0.109002 0.000363995 0.00112082)
(0.109392 0.000295819 0.00116196)
(0.109763 0.000261169 0.00117514)
(0.110171 0.000235897 0.00117613)
(0.110592 0.000210994 0.00118024)
(0.111011 0.000187771 0.00119063)
(0.111424 0.000167495 0.00120549)
(0.111831 0.000152563 0.00122207)
(0.11223 0.00014537 0.00123897)
(0.112618 0.000145609 0.00125556)
(0.112994 0.000151208 0.00127111)
(0.11336 0.000161128 0.00128506)
(0.10579 0.000860439 0.000634128)
(0.106135 0.000871136 0.000629494)
(0.106502 0.000887613 0.000633857)
(0.106933 0.000873044 0.000625846)
(0.107366 0.000832708 0.000621957)
(0.107776 0.000778267 0.000628732)
(0.108171 0.000718615 0.000645925)
(0.108557 0.000661134 0.000673055)
(0.108934 0.00061031 0.000707542)
(0.109304 0.000567357 0.000745593)
(0.109668 0.00053056 0.000783688)
(0.110025 0.000500054 0.000820477)
(0.100791 0.00133609 0.000370948)
(0.101111 0.00160105 0.000330305)
(0.101431 0.00169921 0.000270512)
(0.101771 0.00167449 0.000210681)
(0.10206 0.0015924 0.000170916)
(0.102289 0.00148282 0.00015824)
(0.102487 0.00136296 0.000167911)
(0.102672 0.00124971 0.000192335)
(0.102858 0.00114845 0.00022661)
(0.10305 0.00106329 0.000270126)
(0.10325 0.000988925 0.00031411)
(0.0928683 0.0019422 0.000743)
(0.0933284 0.00260089 0.000719322)
(0.0933587 0.00260544 0.000412337)
(0.0930688 0.00234666 0.000127851)
(0.0926099 0.00205532 -4.77832e-05)
(0.0921229 0.00176215 -0.000147093)
(0.0916632 0.00150685 -0.000181666)
(0.0912557 0.00129729 -0.000176918)
(0.0909124 0.00113494 -0.000157545)
(0.0906239 0.00101479 -0.000126607)
(0.0903717 0.000917917 -9.04346e-05)
(0.0781101 0.00238084 0.00154392)
(0.0754762 0.00309274 0.00147431)
(0.0726561 0.00286791 0.0010422)
(0.0697445 0.00252125 0.000574886)
(0.0671843 0.0021525 0.000291938)
(0.0650929 0.00181531 0.000129483)
(0.0634188 0.00153259 4.93003e-05)
(0.06206 0.00130491 3.28083e-05)
(0.0609272 0.00112497 4.41152e-05)
(0.0599477 0.000987302 5.4756e-05)
(0.0590845 0.000891053 6.81348e-05)
(0.0514161 0.000581104 0.00129409)
(0.0509237 0.000500312 0.00121047)
(0.0505217 0.000555512 0.000401929)
(0.0499958 0.00046052 2.15239e-05)
(0.0496336 0.00029039 -1.84578e-06)
(0.0493582 0.000123071 -6.89753e-06)
(0.0490319 1.76904e-06 1.30195e-06)
(0.0486258 -8.38471e-05 2.55771e-05)
(0.0481587 -0.0001421 5.26475e-05)
(0.0476817 -0.000179105 7.489e-05)
(0.0471908 -0.000202723 9.01671e-05)
(0.0467238 -0.000222066 0.000107402)
(0.0791599 -0.000115598 0.00173666)
(0.0795808 -0.000111166 0.00218728)
(0.0794082 0.000156516 0.00175726)
(0.078769 0.000293045 0.00124903)
(0.0781453 0.000290837 0.000909903)
(0.0776414 0.000248768 0.000670986)
(0.077229 0.000196236 0.000492177)
(0.0768744 0.000144593 0.000360902)
(0.0765628 9.45063e-05 0.000280799)
(0.0762515 4.07552e-05 0.00024034)
(0.0759343 -1.32836e-05 0.000225701)
(0.075589 -3.8965e-05 0.000192327)
(0.0928685 -0.000743766 0.00194413)
(0.0933246 -0.000720466 0.0026031)
(0.0933504 -0.000411895 0.00260466)
(0.093056 -0.00012768 0.00234659)
(0.0925915 4.76116e-05 0.00205447)
(0.0921 0.000147054 0.00176063)
(0.0916362 0.000181027 0.00150593)
(0.0912249 0.000176284 0.00129675)
(0.0908796 0.000157544 0.00113385)
(0.0905879 0.000128576 0.00101028)
(0.0903408 9.04113e-05 0.000919353)
(0.0901208 5.39976e-05 0.000842896)
(0.100389 -0.000746852 0.0019277)
(0.100728 -0.000785969 0.00241594)
(0.100872 -0.000707184 0.00260769)
(0.100851 -0.000565857 0.00258796)
(0.10066 -0.000413156 0.0025033)
(0.100348 -0.000270062 0.00236851)
(0.0999877 -0.00014488 0.00219791)
(0.0996233 -4.40235e-05 0.00202227)
(0.0992729 3.06672e-05 0.00187077)
(0.0989494 8.33236e-05 0.00172998)
(0.0986587 0.000111005 0.00160688)
(0.0984053 0.000127179 0.00149585)
(0.104066 -0.000580396 0.00185806)
(0.104341 -0.000651363 0.00211239)
(0.104532 -0.00070881 0.00226763)
(0.104651 -0.000711953 0.00233164)
(0.104675 -0.000665072 0.00234539)
(0.104607 -0.000588371 0.00232846)
(0.104471 -0.000493257 0.00228747)
(0.104286 -0.000389013 0.0022188)
(0.104075 -0.000289745 0.00212507)
(0.103856 -0.000196228 0.00203314)
(0.103636 -0.000113765 0.00194724)
(0.103426 -4.18322e-05 0.00186353)
(0.104861 -0.000266 0.00166979)
(0.105045 -0.000367089 0.00175981)
(0.105214 -0.000476663 0.00181922)
(0.105367 -0.000555273 0.00185955)
(0.105496 -0.000588585 0.00188751)
(0.10559 -0.000577785 0.00191148)
(0.105645 -0.000537519 0.00193179)
(0.10566 -0.00048729 0.00193378)
(0.105647 -0.000427227 0.00191063)
(0.105614 -0.000354465 0.00187912)
(0.105563 -0.000278281 0.00184782)
(0.105499 -0.000202482 0.00181315)
(0.102882 3.5927e-05 0.00123016)
(0.103032 -9.1027e-05 0.00128266)
(0.103194 -0.000178818 0.0012906)
(0.103377 -0.0002538 0.00129262)
(0.103563 -0.000306934 0.00130646)
(0.103745 -0.000329236 0.00133546)
(0.103916 -0.000327553 0.00137124)
(0.104074 -0.0003142 0.00139768)
(0.104221 -0.000288467 0.00141896)
(0.104348 -0.000249548 0.00144124)
(0.104454 -0.000202825 0.0014625)
(0.104536 -0.000152035 0.00147949)
(0.0979243 0.000487267 0.000452123)
(0.0982302 0.000416944 0.000593264)
(0.09849 0.000342062 0.000650171)
(0.0987554 0.000258253 0.00066508)
(0.0989982 0.000187254 0.000696975)
(0.0992223 0.000126183 0.000737058)
(0.0994455 7.51022e-05 0.000779111)
(0.0996626 4.16731e-05 0.000829634)
(0.0998653 2.4615e-05 0.000884382)
(0.100051 2.04061e-05 0.000937811)
(0.100217 2.32857e-05 0.000986529)
(0.100359 2.96335e-05 0.00102823)
(0.0906722 0.000846153 -0.00026476)
(0.091064 0.00110992 -3.12492e-05)
(0.0913409 0.00104028 6.3442e-05)
(0.091495 0.000872711 8.5592e-05)
(0.0915902 0.000723662 0.000119574)
(0.0916728 0.000612599 0.00017966)
(0.091751 0.000532358 0.000252521)
(0.0918281 0.000474525 0.000326605)
(0.0919029 0.00043142 0.000397817)
(0.0919702 0.000397899 0.00046147)
(0.0920208 0.000367063 0.000512228)
(0.079157 0.00173677 0.000116053)
(0.0795741 0.0021871 0.000111282)
(0.0794007 0.00175677 -0.000156321)
(0.0787604 0.00124821 -0.000294177)
(0.0781361 0.000908506 -0.000293101)
(0.077633 0.000670199 -0.000250825)
(0.0772209 0.000491011 -0.000198089)
(0.076867 0.000359401 -0.000146531)
(0.076555 0.000278821 -9.59545e-05)
(0.0762426 0.00025261 -3.20593e-05)
(0.0759106 0.000217733 9.06364e-06)
(0.0608174 0.00187796 0.000668923)
(0.0569063 0.00252426 0.000831502)
(0.0536865 0.00213034 0.0004619)
(0.0510195 0.00152127 0.000162735)
(0.0491895 0.000944689 -9.3973e-06)
(0.0480465 0.000654154 -2.97362e-05)
(0.0471994 0.000511023 7.80784e-07)
(0.0464653 0.000422544 3.30253e-05)
(0.0457935 0.000351597 4.99723e-05)
(0.0451787 0.000292546 5.29858e-05)
(0.0446387 0.000245322 5.12316e-05)
(0.0396562 -0.000271806 0.00154322)
(0.0355595 0.000241663 0.000856935)
(0.0336028 0.000350744 0.000282023)
(0.0322366 0.000247542 0.00015344)
(0.0314131 0.000142552 0.000118685)
(0.030921 6.57407e-05 8.00746e-05)
(0.0304898 1.47811e-05 5.01864e-05)
(0.0300678 -1.42359e-05 3.3774e-05)
(0.0296477 -2.50551e-05 2.86816e-05)
(0.0292468 -2.99218e-05 2.91869e-05)
(0.0288528 -3.19209e-05 3.16881e-05)
(0.0284865 -3.13297e-05 3.39005e-05)
(0.0608223 -0.000668808 0.00187768)
(0.0569138 -0.000831611 0.00252303)
(0.0536981 -0.000461668 0.00212783)
(0.0510379 -0.000162559 0.00152038)
(0.0492171 9.38253e-06 0.000944004)
(0.0480825 2.98345e-05 0.000653237)
(0.0472416 -5.8495e-07 0.000510057)
(0.0465149 -3.32639e-05 0.000421655)
(0.0458451 -5.02242e-05 0.000351505)
(0.0452429 -5.26389e-05 0.000291934)
(0.0446742 -4.99127e-05 0.000243748)
(0.0441659 -4.74008e-05 0.000208942)
(0.078114 -0.00154191 0.00237886)
(0.0754869 -0.0014712 0.00308617)
(0.0726725 -0.00103806 0.00285967)
(0.0697687 -0.000570145 0.00251144)
(0.0672177 -0.000286841 0.00214169)
(0.0651344 -0.000124661 0.00180487)
(0.063468 -4.52736e-05 0.0015231)
(0.0621162 -2.99364e-05 0.0012973)
(0.0609878 -4.2386e-05 0.00111993)
(0.0600139 -5.62456e-05 0.000986901)
(0.0591477 -6.51382e-05 0.000885976)
(0.0583613 -8.06765e-05 0.000821708)
(0.0874069 -0.00144117 0.00201892)
(0.0860353 -0.00152036 0.00266739)
(0.0844301 -0.0013311 0.00276176)
(0.0825223 -0.00105943 0.00266048)
(0.0805086 -0.000773128 0.00249876)
(0.0785542 -0.000517146 0.00230707)
(0.0767282 -0.000323271 0.00211557)
(0.0750499 -0.000187283 0.00193698)
(0.0735264 -9.9397e-05 0.0017753)
(0.0721559 -3.98529e-05 0.00163216)
(0.0709229 -2.66273e-06 0.00150344)
(0.0698083 1.47716e-05 0.0013931)
(0.0912678 -0.000975365 0.00174645)
(0.0904419 -0.00121438 0.00209693)
(0.0895266 -0.00120083 0.00229091)
(0.088401 -0.00108231 0.00232889)
(0.0871345 -0.000933601 0.00229317)
(0.0857973 -0.000777069 0.00222534)
(0.0844394 -0.000620229 0.00214633)
(0.0830894 -0.000473401 0.00206125)
(0.0817645 -0.000342983 0.00197337)
(0.0804877 -0.000223881 0.00188524)
(0.0792685 -0.000128474 0.00179759)
(0.0781124 -5.7113e-05 0.00171118)
(0.0908217 -0.000507714 0.00148809)
(0.0902177 -0.000717901 0.00160731)
(0.0896489 -0.000825617 0.00171238)
(0.0889828 -0.00082213 0.00178033)
(0.0882364 -0.000750743 0.00181166)
(0.0874271 -0.000653677 0.00181607)
(0.0865713 -0.000556853 0.00180304)
(0.0856843 -0.000458615 0.00178441)
(0.0847674 -0.000363421 0.00176469)
(0.0838264 -0.000273237 0.00174266)
(0.0828734 -0.000192393 0.00171524)
(0.0819187 -0.000113828 0.00168141)
(0.0865004 -0.000211655 0.00113056)
(0.0860409 -0.000344411 0.00111475)
(0.0857422 -0.0004413 0.00110282)
(0.0854042 -0.000493416 0.00113347)
(0.0850141 -0.000483156 0.00118839)
(0.0845748 -0.000426787 0.00124563)
(0.0840978 -0.000348351 0.00129439)
(0.08357 -0.000266061 0.00133555)
(0.0829847 -0.000190558 0.00136974)
(0.0823506 -0.000123987 0.00139597)
(0.0816733 -6.54411e-05 0.00141368)
(0.080958 -1.12887e-05 0.00142339)
(0.0785999 0.000221403 0.000414763)
(0.0783416 0.000155608 0.000490475)
(0.0782949 2.12963e-05 0.00048204)
(0.0781702 -9.51541e-05 0.000505035)
(0.0779628 -0.000135794 0.000582667)
(0.0777162 -0.0001232 0.000683405)
(0.0774124 -9.00857e-05 0.000782951)
(0.0770426 -5.47618e-05 0.000871423)
(0.0766111 -2.44599e-05 0.00094565)
(0.0761251 1.78463e-06 0.00100606)
(0.075587 2.74703e-05 0.00105409)
(0.074999 5.48612e-05 0.00109088)
(0.0667797 0.000727962 -0.000653711)
(0.06705 0.000703093 -0.000327364)
(0.0671239 0.000370005 -0.000187589)
(0.0669284 0.000205256 -3.40402e-05)
(0.0666236 0.000175055 0.000145049)
(0.066305 0.000178164 0.000304842)
(0.065965 0.000191673 0.000434345)
(0.0655824 0.000213953 0.000538881)
(0.0651616 0.000231277 0.000618512)
(0.0647075 0.000231978 0.000672652)
(0.0642267 0.000233169 0.00071586)
(0.0514119 0.00129526 -0.000580821)
(0.0509167 0.00121237 -0.000499973)
(0.0505111 0.000404173 -0.000554716)
(0.0499788 2.71154e-05 -0.000458854)
(0.049608 3.91892e-06 -0.000288326)
(0.0493252 -1.37146e-06 -0.00012098)
(0.0489941 6.31269e-06 1.6987e-07)
(0.0485825 2.88254e-05 8.49276e-05)
(0.048115 5.43671e-05 0.000142622)
(0.047628 7.38862e-05 0.000179024)
(0.0471648 9.21482e-05 0.000205279)
(0.0396536 0.00154341 0.000271829)
(0.0355553 0.000857772 -0.000242062)
(0.0335965 0.000282791 -0.000351021)
(0.0322261 0.000153366 -0.000248053)
(0.0313978 0.000118698 -0.000143067)
(0.0308995 8.00929e-05 -6.6238e-05)
(0.0304638 5.03571e-05 -1.5151e-05)
(0.0300369 3.44519e-05 1.37472e-05)
(0.029616 2.91563e-05 2.4708e-05)
(0.0292064 2.97851e-05 3.01124e-05)
(0.0288256 3.13245e-05 3.1858e-05)
)
;

boundaryField
{
    inlet
    {
        type            fixedValue;
        value           nonuniform List<vector> 0();
    }
    ami1
    {
        type            cyclicAMI;
        value           nonuniform List<vector> 0();
    }
    walls
    {
        type            noSlip;
    }
    ami2
    {
        type            cyclicAMI;
        value           nonuniform List<vector> 
61
(
(0.0918057 -0.00159319 -0.000818745)
(0.103877 -0.00174967 -0.000551717)
(0.109369 -0.00159511 -0.000364417)
(0.0912114 -0.00140255 -0.000388623)
(0.104753 -0.00160011 -0.000227886)
(0.110051 -0.00144208 -1.15802e-05)
(0.086816 -0.00106668 -0.00011542)
(0.102778 -0.00118421 0.000121438)
(0.108738 -0.00110609 0.000418482)
(0.112067 -0.0008095 0.000599719)
(0.113827 -0.000403049 0.000622809)
(0.114358 8.57192e-05 0.000537789)
(0.113827 0.000622703 0.000403435)
(0.11227 0.00117073 0.00031726)
(0.109369 0.00159449 0.00036501)
(0.103878 0.0017467 0.000551379)
(0.0918004 0.0015934 0.000818275)
(0.0787697 -0.000372753 0.000290307)
(0.0976697 -0.000421338 0.000554392)
(0.105521 -0.000665198 0.000893943)
(0.110017 -0.000581505 0.00113916)
(0.11227 -0.000316984 0.00117065)
(0.112853 9.88533e-05 0.00103884)
(0.112067 0.000599438 0.000809761)
(0.110018 0.00113903 0.000581775)
(0.106336 0.0015315 0.000499132)
(0.100147 0.00173855 0.000696309)
(0.0883315 0.00173466 0.00121139)
(0.0664789 0.000649003 0.000575888)
(0.0904701 0.000342888 0.000666473)
(0.100549 -0.000399179 0.00123884)
(0.106335 -0.000499065 0.00153159)
(0.109369 -0.000364912 0.00159433)
(0.110051 -1.16829e-05 0.00144172)
(0.108738 0.000418404 0.0011064)
(0.105521 0.000893808 0.000665788)
(0.100549 0.0012387 0.000399596)
(0.0925646 0.00160308 0.000642243)
(0.0799939 0.00187515 0.00127896)
(0.0524344 0.000728183 0.000751314)
(0.0790078 4.07511e-05 0.00123837)
(0.0925652 -0.000642204 0.00160366)
(0.100147 -0.000695699 0.00173748)
(0.103879 -0.000550982 0.00174545)
(0.104753 -0.000227253 0.00159869)
(0.102778 0.000121916 0.00118446)
(0.0976695 0.000554855 0.000422075)
(0.0904696 0.000667628 -0.000341666)
(0.0790053 0.00123872 -4.02199e-05)
(0.0653534 0.0014988 0.00058645)
(0.0466435 0.000132667 0.00102425)
(0.0653578 -0.000586028 0.0014983)
(0.0799972 -0.0012775 0.00187374)
(0.0883331 -0.00120969 0.0017336)
(0.0918011 -0.000817252 0.00159341)
(0.091209 -0.000388791 0.00140361)
(0.0868147 -0.000115807 0.0010674)
(0.078768 0.000290351 0.000373231)
(0.0664767 0.000576516 -0.000648503)
(0.0524311 0.000752053 -0.000727903)
(0.0466406 0.00102452 -0.000132508)
)
;
    }
    outlet
    {
        type            zeroGradient;
    }
    procBoundary1to0
    {
        type            processor;
        value           nonuniform List<vector> 
138
(
(0.088406 -0.00233817 -0.00108442)
(0.088406 -0.00233817 -0.00108442)
(0.0871384 -0.00230422 -0.000935717)
(0.0857994 -0.00223549 -0.000778068)
(0.0844402 -0.00215446 -0.000619916)
(0.0830875 -0.00206747 -0.00047172)
(0.08176 -0.00197716 -0.000338987)
(0.0804811 -0.00188626 -0.000218341)
(0.0792607 -0.00179583 -0.00012233)
(0.0781044 -0.00170702 -5.09795e-05)
(0.104651 -0.00232853 -0.000708005)
(0.104651 -0.00232853 -0.000708005)
(0.104678 -0.00234464 -0.000660704)
(0.104614 -0.0023299 -0.000583912)
(0.10448 -0.00228962 -0.000488485)
(0.104297 -0.00221983 -0.000383839)
(0.104088 -0.00212413 -0.000284768)
(0.10387 -0.00203057 -0.00019196)
(0.103652 -0.00194355 -0.000110538)
(0.103442 -0.00185948 -3.98114e-05)
(0.112576 -0.00118716 -0.000311391)
(0.113039 -0.00124378 -0.000296155)
(0.110669 -0.00196947 -0.000363614)
(0.113482 -0.00128755 -0.000289563)
(0.110669 -0.00196947 -0.000363614)
(0.111048 -0.00201019 -0.000345947)
(0.111398 -0.00201941 -0.000311742)
(0.111718 -0.00200462 -0.000269809)
(0.112014 -0.00196688 -0.000225497)
(0.112288 -0.00191351 -0.000181549)
(0.112544 -0.00185169 -0.000139724)
(0.11279 -0.00178745 -0.000101453)
(0.113029 -0.00172259 -6.6448e-05)
(0.113191 -0.00105476 8.83222e-05)
(0.113701 -0.00110114 8.07391e-05)
(0.114176 -0.00112641 7.26327e-05)
(0.114684 -0.00113845 6.48895e-05)
(0.115206 -0.001145 5.8652e-05)
(0.115726 -0.0011473 5.46141e-05)
(0.116242 -0.00114545 5.29962e-05)
(0.116752 -0.00113875 5.35616e-05)
(0.117252 -0.00112693 5.59847e-05)
(0.11774 -0.00111137 6.00662e-05)
(0.118216 -0.00109376 6.56556e-05)
(0.118681 -0.00107492 7.23715e-05)
(0.113191 -0.00105476 8.83222e-05)
(0.113701 -0.00110114 8.07391e-05)
(0.114176 -0.00112641 7.26327e-05)
(0.114684 -0.00113845 6.48895e-05)
(0.115206 -0.001145 5.8652e-05)
(0.115726 -0.0011473 5.46141e-05)
(0.116242 -0.00114545 5.29962e-05)
(0.116752 -0.00113875 5.35616e-05)
(0.117252 -0.00112693 5.59847e-05)
(0.11774 -0.00111137 6.00662e-05)
(0.118216 -0.00109376 6.56556e-05)
(0.118681 -0.00107492 7.23715e-05)
(0.114737 -0.000545698 8.5225e-05)
(0.115308 -0.000565267 8.80849e-05)
(0.115846 -0.000575018 8.8529e-05)