/*--------------------------------*- C++ -*----------------------------------*\
| =========                 |                                                 |
| \\      /  F ield         | OpenFOAM: The Open Source CFD Toolbox           |
|  \\    /   O peration     | Version:  2212                                  |
|   \\  /    A nd           | Website:  www.openfoam.com                      |
|    \\/     M anipulation  |                                                 |
\*---------------------------------------------------------------------------*/
FoamFile
{
    version     2.0;
    format      ascii;
    arch        "LSB;label=32;scalar=64";
    class       surfaceVectorField;
    location    "3";
    object      Uf;
}
// * * * * * * * * * * * * * * * * * * * * * * * * * * * * * * * * * * * * * //

dimensions      [0 1 -1 0 0 0 0];

internalField   nonuniform List<vector> 
1805
(
(0.0909429 -0.00192204 -0.00109689)
(0.0973149 -0.00185265 -0.000788313)
(0.0910525 -0.0016158 -0.000734083)
(0.0900343 -0.00219702 -0.00120976)
(0.0970088 -0.00211 -0.000949144)
(0.0903371 -0.00185529 -0.00097159)
(0.0966164 -0.00222275 -0.000970671)
(0.0895934 -0.00200935 -0.00102486)
(0.104164 -0.00198917 -0.000615963)
(0.106709 -0.00176269 -0.000473145)
(0.104458 -0.00176628 -0.000411626)
(0.104419 -0.00218977 -0.00067862)
(0.10702 -0.00198006 -0.00050501)
(0.104687 -0.00193867 -0.000504563)
(0.107288 -0.00213839 -0.000538242)
(0.104868 -0.00204571 -0.000599058)
(0.109734 -0.00170414 -0.000353959)
(0.109938 -0.00155758 -0.000202909)
(0.110093 -0.00183174 -0.000356923)
(0.110311 -0.00166558 -0.000221168)
(0.110671 -0.00175233 -0.000247595)
(0.0905554 -0.00154671 -0.000612778)
(0.0974705 -0.00158225 -0.000392323)
(0.0886391 -0.00130515 -0.000343766)
(0.0899599 -0.00165987 -0.000772845)
(0.0972397 -0.00167862 -0.000552337)
(0.0881082 -0.00135682 -0.000520161)
(0.0893204 -0.00174825 -0.000826432)
(0.0970208 -0.00173554 -0.000665224)
(0.0876763 -0.00140374 -0.000624667)
(0.0886096 -0.00179953 -0.000789712)
(0.096743 -0.001772 -0.000703559)
(0.0871764 -0.00145429 -0.000653763)
(0.0878337 -0.00181808 -0.000705039)
(0.0964117 -0.00179341 -0.000682682)
(0.0866107 -0.00149874 -0.000619042)
(0.0870038 -0.00181358 -0.00060678)
(0.0960305 -0.0018032 -0.000626406)
(0.0859886 -0.00153044 -0.000546985)
(0.0861305 -0.00179703 -0.000507658)
(0.095606 -0.00180432 -0.000555332)
(0.0853241 -0.00154852 -0.000460469)
(0.0852255 -0.00177695 -0.000409495)
(0.095146 -0.00179695 -0.000478442)
(0.0846185 -0.00155955 -0.0003684)
(0.0842976 -0.001755 -0.000315607)
(0.0946569 -0.00177911 -0.000398396)
(0.0838688 -0.00156646 -0.000281931)
(0.0833512 -0.00172899 -0.000229242)
(0.0941455 -0.00175482 -0.000315425)
(0.0830825 -0.00156803 -0.000203335)
(0.0823964 -0.00169706 -0.000148969)
(0.0936193 -0.00172587 -0.000236361)
(0.0822684 -0.00156233 -0.000132409)
(0.093086 -0.00169145 -0.000159011)
(0.0814339 -0.00154947 -6.48456e-05)
(0.104949 -0.00171702 -0.0003171)
(0.107472 -0.00160426 -0.000155949)
(0.103863 -0.00144813 -0.000104739)
(0.105122 -0.00179101 -0.000421881)
(0.107758 -0.0016932 -0.000228057)
(0.104029 -0.00151937 -0.000219026)
(0.105289 -0.00183942 -0.000515128)
(0.108022 -0.00175662 -0.000301747)
(0.104195 -0.00155273 -0.000322871)
(0.105432 -0.00187276 -0.000570221)
(0.10829 -0.00180136 -0.000355687)
(0.104363 -0.00157322 -0.000402497)
(0.105543 -0.00189874 -0.00058095)
(0.108549 -0.00183258 -0.000380836)
(0.104521 -0.00159395 -0.000446637)
(0.105618 -0.00192107 -0.000554901)
(0.108787 -0.00185641 -0.00037739)
(0.10466 -0.00162062 -0.000453646)
(0.105654 -0.00193217 -0.000508969)
(0.108999 -0.00187336 -0.000352801)
(0.104773 -0.00164886 -0.000434226)
(0.105657 -0.0019211 -0.000453364)
(0.109183 -0.00187478 -0.000318827)
(0.104861 -0.00166298 -0.000403218)
(0.105634 -0.00189309 -0.000386753)
(0.109345 -0.0018577 -0.000276353)
(0.104929 -0.00166168 -0.000360046)
(0.105592 -0.00186101 -0.000312361)
(0.109488 -0.00183278 -0.000224844)
(0.104976 -0.0016567 -0.000303844)
(0.105535 -0.00182761 -0.000236735)
(0.109615 -0.00180587 -0.000169726)
(0.105004 -0.00165133 -0.000242207)
(0.109728 -0.00177602 -0.000113691)
(0.105014 -0.00164247 -0.000179038)
(0.110484 -0.00151715 -6.48419e-05)
(0.109646 -0.00129809 0.000158697)
(0.110867 -0.00158355 -0.000104968)
(0.110039 -0.001358 0.000104898)
(0.111258 -0.00162922 -0.000139006)
(0.110408 -0.00139104 6.87227e-05)
(0.111656 -0.00166213 -0.000163161)
(0.110808 -0.0014102 4.11745e-05)
(0.11205 -0.00168634 -0.000174857)
(0.111218 -0.001426 1.96994e-05)
(0.112436 -0.00170275 -0.000174129)
(0.111624 -0.00144129 5.43751e-06)
(0.112811 -0.00170985 -0.000162866)
(0.112021 -0.0014549 -2.02914e-06)
(0.11317 -0.00170632 -0.000143339)
(0.112407 -0.00146426 -2.52727e-06)
(0.113511 -0.00169336 -0.000117519)
(0.112782 -0.00146833 5.11868e-06)
(0.113836 -0.00167392 -8.70432e-05)
(0.113143 -0.00146816 1.95835e-05)
(0.114147 -0.00165051 -5.32296e-05)
(0.11349 -0.00146512 3.88448e-05)
(0.113825 -0.00145975 6.14586e-05)
(0.0862925 -0.00112202 -0.000277615)
(0.0942384 -0.00117929 -9.41842e-05)
(0.0824136 -0.000758422 -4.80394e-05)
(0.0859196 -0.00110833 -0.000393094)
(0.0940665 -0.00120481 -0.000222004)
(0.0820581 -0.000791091 -9.63287e-05)
(0.085576 -0.00111793 -0.000468731)
(0.0939852 -0.00119125 -0.000317574)
(0.0818899 -0.000781056 -0.000198924)
(0.0852058 -0.00116097 -0.000490485)
(0.0938932 -0.00119653 -0.000383697)
(0.0816627 -0.000807555 -0.000283588)
(0.084795 -0.00121721 -0.000457204)
(0.0937754 -0.00122291 -0.000405649)
(0.0813676 -0.000874263 -0.000293566)
(0.0843391 -0.00127019 -0.000389127)
(0.0936298 -0.00126001 -0.000387811)
(0.0810285 -0.000954266 -0.000251532)
(0.0838345 -0.00131501 -0.000307751)
(0.0934587 -0.00129842 -0.000346034)
(0.0806416 -0.00102942 -0.000191694)
(0.0832781 -0.00135246 -0.000227836)
(0.0932553 -0.00133086 -0.000295978)
(0.0801961 -0.00109504 -0.000133987)
(0.082671 -0.00138227 -0.000155937)
(0.0930154 -0.00135769 -0.000243573)
(0.0796907 -0.00114976 -8.44645e-05)
(0.0820148 -0.00140366 -9.29221e-05)
(0.0927409 -0.00138004 -0.000189943)
(0.0791336 -0.00119313 -4.39498e-05)
(0.0813184 -0.00141671 -3.65584e-05)
(0.092433 -0.00139739 -0.000137059)
(0.0785285 -0.00122548 -2.2329e-06)
(0.0920942 -0.00140853 -8.47958e-05)
(0.0778787 -0.00124759 3.65554e-05)
(0.10295 -0.00125636 -2.80551e-05)
(0.105817 -0.00121424 0.000201107)
(0.100337 -0.000831414 0.000199563)
(0.103109 -0.00128669 -0.000134926)
(0.106082 -0.00125512 0.00010137)
(0.100568 -0.000928806 0.000124592)
(0.103285 -0.00129152 -0.000215481)
(0.106344 -0.0012615 3.89278e-05)
(0.100779 -0.00096138 7.35167e-05)
(0.103469 -0.00129908 -0.000278852)
(0.106634 -0.00126395 -1.11438e-05)
(0.101004 -0.000969526 4.82942e-06)
(0.103653 -0.00132025 -0.000316171)
(0.106932 -0.0012763 -4.94199e-05)
(0.101218 -0.000992304 -5.65476e-05)
(0.10383 -0.00135243 -0.000326248)
(0.107228 -0.00129926 -7.12092e-05)
(0.101422 -0.00102688 -9.60385e-05)
(0.103994 -0.00138322 -0.000318475)
(0.107515 -0.00132681 -7.941e-05)
(0.101619 -0.00106557 -0.000118331)
(0.104146 -0.00140671 -0.000298643)
(0.107792 -0.00135034 -7.892e-05)
(0.101807 -0.00110405 -0.000125736)
(0.104283 -0.00142806 -0.00026607)
(0.108059 -0.00137136 -6.834e-05)
(0.101981 -0.00114216 -0.000119924)
(0.104399 -0.00144939 -0.000222915)
(0.108311 -0.00139236 -4.74961e-05)
(0.102138 -0.00118002 -0.000102678)
(0.104493 -0.00146814 -0.000173779)
(0.108546 -0.00141181 -1.99815e-05)
(0.102273 -0.00121505 -7.786e-05)
(0.108764 -0.00142808 1.14231e-05)
(0.102386 -0.00124452 -4.89518e-05)
(0.109172 -0.00114105 0.000330464)
(0.110648 -0.000957632 0.000469624)
(0.107361 -0.000873337 0.000588835)
(0.109563 -0.00116798 0.000279687)
(0.111083 -0.000985918 0.000432581)
(0.107728 -0.000890634 0.000564956)
(0.109969 -0.00117473 0.00025042)
(0.111498 -0.000996905 0.000414168)
(0.108097 -0.000898194 0.00056878)
(0.110384 -0.00117694 0.000225985)
(0.111952 -0.000995834 0.000399703)
(0.108516 -0.000894029 0.000556626)
(0.110801 -0.00118391 0.000202353)
(0.11242 -0.000993968 0.000382966)
(0.108942 -0.000893722 0.0005276)
(0.111216 -0.00119634 0.000180853)
(0.112887 -0.000995574 0.000364893)
(0.109356 -0.000902032 0.000490424)
(0.111627 -0.00121197 0.000163446)
(0.113348 -0.00100006 0.000346497)
(0.109759 -0.00091794 0.000451157)
(0.112029 -0.00122864 0.000152518)
(0.113804 -0.00100534 0.000329511)
(0.110155 -0.000939751 0.000416025)
(0.112422 -0.00124529 0.000149049)
(0.114251 -0.00101128 0.000316101)
(0.110541 -0.000965447 0.000387576)
(0.112803 -0.00126133 0.000151971)
(0.114687 -0.00101837 0.000307003)
(0.110919 -0.0009929 0.000365917)
(0.113174 -0.00127613 0.000159609)
(0.115113 -0.00102616 0.00030158)
(0.111289 -0.00102029 0.000350362)
(0.115529 -0.00103391 0.000299105)
(0.111649 -0.00104626 0.000339566)
(0.112603 -0.000815641 0.000583251)
(0.113276 -0.000609535 0.000605527)
(0.111311 -0.000677931 0.000861144)
(0.113086 -0.000823813 0.000579189)
(0.113789 -0.000619273 0.000615342)
(0.111739 -0.000661654 0.000877489)
(0.113588 -0.000823818 0.000575732)
(0.114278 -0.000623073 0.000620882)
(0.112168 -0.000655289 0.000901233)
(0.114099 -0.000818564 0.000569502)
(0.114805 -0.000620045 0.000621662)
(0.11265 -0.000646669 0.000914209)
(0.114615 -0.000812127 0.000558923)
(0.115348 -0.000614349 0.00061786)
(0.11315 -0.000635561 0.000911077)
(0.115129 -0.000806321 0.000544355)
(0.115889 -0.000607957 0.000609639)
(0.113645 -0.00062436 0.000894727)
(0.11564 -0.000801495 0.000526683)
(0.116426 -0.000601787 0.000597665)
(0.114129 -0.000614731 0.000867862)
(0.116143 -0.000797728 0.00050742)
(0.116957 -0.000596194 0.000582741)
(0.114604 -0.00060824 0.000834001)
(0.116636 -0.000795331 0.000488282)
(0.117479 -0.000591431 0.000566009)
(0.115068 -0.000605277 0.000796811)
(0.117119 -0.000794486 0.000470402)
(0.117992 -0.000587685 0.000548562)
(0.115523 -0.000605205 0.000759678)
(0.117593 -0.000794994 0.000454225)
(0.118494 -0.000584771 0.000530872)
(0.115968 -0.000607965 0.000724166)
(0.118986 -0.000582654 0.000513685)
(0.116405 -0.000612809 0.000690883)
(0.114434 -0.000407306 0.000638701)
(0.114463 -0.000162401 0.000586637)
(0.11337 -0.000357428 0.000910121)
(0.114977 -0.000412138 0.000658433)
(0.115021 -0.0001649 0.000609326)
(0.113873 -0.000353354 0.000950658)
(0.115531 -0.000412451 0.000668354)
(0.115548 -0.000165704 0.000621371)
(0.114352 -0.000351512 0.000979694)
(0.116093 -0.000409098 0.000671736)
(0.11611 -0.000164903 0.000624517)
(0.114871 -0.00034789 0.000997884)
(0.116657 -0.000403759 0.000670499)
(0.116688 -0.000163008 0.00062384)
(0.115408 -0.000341534 0.00100627)
(0.11722 -0.000397266 0.000665071)
(0.117262 -0.000159832 0.000621449)
(0.115941 -0.000332565 0.00100541)
(0.117779 -0.000390412 0.000656007)
(0.117831 -0.000156452 0.000616354)
(0.116468 -0.000321982 0.00099628)
(0.11833 -0.000383669 0.000643711)
(0.118395 -0.000153251 0.00060821)
(0.116987 -0.000310866 0.000979607)
(0.118873 -0.000377294 0.000628706)
(0.118951 -0.000150324 0.000597474)
(0.117496 -0.000300186 0.000956737)
(0.119405 -0.000371179 0.000611422)
(0.119498 -0.000147688 0.000584785)
(0.117994 -0.000290426 0.000929516)
(0.119926 -0.000365366 0.000592651)
(0.120034 -0.000145179 0.000570578)
(0.118479 -0.000281555 0.00089981)
(0.120559 -0.000143045 0.000555718)
(0.118955 -0.000273811 0.000869271)
(0.11499 8.62019e-05 0.000556279)
(0.114463 0.000355517 0.000475091)
(0.113951 8.60575e-05 0.000802641)
(0.115557 8.76198e-05 0.000571278)
(0.115021 0.000370024 0.000488389)
(0.114491 8.32701e-05 0.000836439)
(0.116134 8.72853e-05 0.00057662)
(0.115548 0.000376956 0.000494947)
(0.114997 7.90797e-05 0.000854659)
(0.116715 8.63104e-05 0.000575728)
(0.116111 0.000379272 0.000494206)
(0.115537 7.4589e-05 0.000861688)
(0.117297 8.55045e-05 0.000573971)
(0.116688 0.000379099 0.000490791)
(0.116091 7.08297e-05 0.000864246)
(0.117876 8.4919e-05 0.000572025)
(0.117263 0.00037663 0.000487138)
(0.116642 6.84001e-05 0.000864899)
(0.118451 8.41683e-05 0.000567944)
(0.117832 0.000372335 0.000482304)
(0.117188 6.71802e-05 0.000862628)
(0.11902 8.31094e-05 0.000561452)
(0.118396 0.000366282 0.00047606)
(0.117728 6.69493e-05 0.000856756)
(0.11958 8.17767e-05 0.000553143)
(0.118952 0.000358603 0.00046888)
(0.11826 6.75771e-05 0.000847346)
(0.120131 8.02654e-05 0.000543649)
(0.119498 0.000349646 0.000461196)
(0.118781 6.90033e-05 0.000835244)
(0.12067 7.86688e-05 0.000533459)
(0.120034 0.000339574 0.000453079)
(0.119291 7.12015e-05 0.000821558)
(0.120559 0.000329137 0.000444929)
(0.11979 7.40403e-05 0.000806939)
(0.114434 0.000638348 0.000407746)
(0.11337 0.000910009 0.000357754)
(0.113276 0.000605179 0.000609854)
(0.114977 0.000657817 0.000412718)
(0.113873 0.000950331 0.000353738)
(0.113789 0.000614679 0.000619739)
(0.115532 0.000667486 0.0004132)
(0.114352 0.000979136 0.000352064)
(0.114278 0.000619969 0.000623817)
(0.116094 0.000670605 0.000409945)
(0.114872 0.000997004 0.000348527)
(0.114805 0.000620433 0.000621011)
(0.116658 0.000669107 0.00040461)
(0.115409 0.00100505 0.000342121)
(0.115349 0.000616279 0.000615407)
(0.117221 0.000663437 0.00039803)
(0.115943 0.00100389 0.000333013)
(0.11589 0.000607725 0.000609008)
(0.11778 0.000654158 0.000391014)
(0.11647 0.000994534 0.000322222)
(0.116427 0.000595457 0.000602746)
(0.118331 0.000641688 0.000384066)
(0.116989 0.000977675 0.000310871)
(0.116958 0.000580293 0.000597008)
(0.118874 0.00062659 0.000377485)
(0.117499 0.000954663 0.000299959)
(0.117481 0.000563397 0.000592083)
(0.119406 0.000609283 0.000371145)
(0.117996 0.000927348 0.000289982)
(0.117993 0.000545904 0.000588178)
(0.119928 0.000590513 0.000365039)
(0.118483 0.000897542 0.000280833)
(0.118496 0.000528209 0.000585042)
(0.118959 0.000867013 0.00027282)
(0.118988 0.000511167 0.000582671)
(0.112782 0.00121653 0.000304986)
(0.111037 0.00141858 0.000335737)
(0.111402 0.00116145 0.00043721)
(0.113242 0.00126752 0.000294373)
(0.111441 0.00151594 0.000325845)
(0.11182 0.00121064 0.000407504)
(0.113726 0.00130431 0.000288756)
(0.111836 0.00159935 0.000329285)
(0.11224 0.00125695 0.000396263)
(0.114224 0.00132577 0.000282238)
(0.11227 0.00165309 0.000327601)
(0.112715 0.00128392 0.000386967)
(0.114726 0.0013329 0.000272262)
(0.112711 0.00167935 0.000314667)
(0.11321 0.00129003 0.000374236)
(0.115224 0.00132709 0.000259161)
(0.113135 0.00168339 0.000291281)
(0.113697 0.00127878 0.000359619)
(0.115714 0.0013093 0.000244277)
(0.11354 0.00166906 0.000262753)
(0.114173 0.00125275 0.000344907)
(0.116193 0.00128107 0.000229221)
(0.113928 0.00163697 0.000232583)
(0.114637 0.00121541 0.000332371)
(0.116658 0.00124513 0.000215158)
(0.114298 0.00159154 0.000202819)
(0.115089 0.00117086 0.000323308)
(0.117111 0.00120486 0.000202571)
(0.114653 0.00153921 0.000174544)
(0.11553 0.00112336 0.000317216)
(0.117553 0.00116306 0.000191664)
(0.114997 0.00148463 0.00014854)
(0.11596 0.00107543 0.00031386)
(0.116383 0.00102893 0.00031295)
(0.109733 0.00170416 0.000355176)
(0.106711 0.00176045 0.000473378)
(0.10804 0.00161011 0.000408854)
(0.110091 0.0018327 0.000358844)
(0.10702 0.00198107 0.000506257)
(0.108375 0.00178952 0.000390396)
(0.110478 0.00193203 0.000365792)
(0.107288 0.00214116 0.000540434)
(0.108718 0.00193004 0.00038622)
(0.110859 0.00199161 0.000357546)
(0.107534 0.00222003 0.000541885)
(0.109098 0.00200238 0.000363394)
(0.111219 0.00201631 0.000331472)
(0.107729 0.00224788 0.000508893)
(0.10946 0.00202336 0.000324999)
(0.111553 0.00201338 0.000293224)
(0.107863 0.00224323 0.000452457)
(0.109782 0.00200508 0.000277478)
(0.111863 0.00198735 0.000249996)
(0.107946 0.00221406 0.000382848)
(0.110067 0.00195812 0.000228295)
(0.112149 0.00194212 0.000205623)
(0.107993 0.00215893 0.00030733)
(0.110328 0.00189051 0.000186268)
(0.112414 0.00188461 0.000162144)
(0.108017 0.00208306 0.00023444)
(0.110572 0.00181296 0.00014945)
(0.112666 0.00182129 0.000121016)
(0.108027 0.00200417 0.000165445)
(0.110804 0.00173374 0.000120119)
(0.108032 0.00192648 0.000103347)
(0.111031 0.00165476 9.63747e-05)
(0.104166 0.00198835 0.000616239)
(0.0973115 0.00185163 0.000787763)
(0.102178 0.00189584 0.000666639)
(0.104422 0.00219301 0.000680121)
(0.097006 0.00211025 0.000949154)
(0.102486 0.00227749 0.000743275)
(0.104598 0.00230113 0.000709943)
(0.0966133 0.00222275 0.000971499)
(0.102654 0.00245221 0.00073707)
(0.104666 0.00233916 0.000687883)
(0.0960756 0.00224851 0.000911337)
(0.102703 0.00247119 0.000659244)
(0.104642 0.00233777 0.00062606)
(0.0954186 0.0022317 0.000811109)
(0.102619 0.00243235 0.000552286)
(0.104542 0.00230983 0.000540093)
(0.0946811 0.0021887 0.000692341)
(0.102429 0.00235443 0.000436157)
(0.104384 0.00225571 0.000440314)
(0.0939007 0.00213037 0.000564688)
(0.102181 0.00224595 0.000319945)
(0.104189 0.00217455 0.000338431)
(0.0931006 0.00205893 0.000437697)
(0.101906 0.00212132 0.000213651)
(0.103975 0.00208138 0.000242024)
(0.0923018 0.00197527 0.000321552)
(0.101627 0.00199693 0.000124821)
(0.103758 0.00199157 0.000153832)
(0.091524 0.00189074 0.000214083)
(0.101357 0.00187943 5.08681e-05)
(0.0907773 0.00180732 0.000124391)
(0.101103 0.00177188 -6.08948e-06)
(0.0909359 0.00192191 0.00109614)
(0.0892683 0.00188628 0.00121196)
(0.0900271 0.00219544 0.00120917)
(0.0881606 0.00240519 0.00140746)
(0.0889583 0.0023135 0.00114355)
(0.0868877 0.00255369 0.00131666)
(0.0877555 0.00231644 0.00101026)
(0.0853551 0.00251656 0.0011037)
(0.0864605 0.00226577 0.00085792)
(0.0836999 0.00241262 0.000869799)
(0.0851156 0.00219278 0.000701449)
(0.0820402 0.0022792 0.000654798)
(0.0837575 0.00211083 0.00054975)
(0.080437 0.00214117 0.000476144)
(0.0824162 0.00202425 0.000411016)
(0.0789134 0.00200665 0.000332419)
(0.0811155 0.00193579 0.000285889)
(0.077482 0.00187862 0.000220167)
(0.0798668 0.00184721 0.000178374)
(0.0761527 0.00176005 0.000128942)
(0.0749244 0.00165068 6.34248e-05)
(0.0785015 -0.000452316 0.000188672)
(0.0876502 -0.000484662 0.000365153)
(0.0723104 0.000171286 0.000366861)
(0.0783856 -0.000485741 8.84065e-05)
(0.0876563 -0.000606177 0.000302878)
(0.072333 -5.33823e-05 0.000438614)
(0.0782328 -0.000492395 -3.76676e-05)
(0.0877529 -0.000592874 0.000183545)
(0.072351 -0.000125478 0.000217536)
(0.0780527 -0.000542165 -0.000116825)
(0.0878107 -0.000599624 7.78701e-05)
(0.07219 -0.000213661 5.09037e-05)
(0.0778403 -0.000631216 -0.000130694)
(0.0878138 -0.00065319 2.22423e-05)
(0.0719323 -0.000344248 1.16757e-05)
(0.0775704 -0.000731513 -0.000107011)
(0.0877875 -0.000720313 -1.01578e-06)
(0.0716481 -0.00047628 1.64752e-05)
(0.0772329 -0.000825687 -7.18493e-05)
(0.0877304 -0.000785218 -9.52383e-06)
(0.0713257 -0.000590995 3.09183e-05)
(0.0768321 -0.000907126 -3.82635e-05)
(0.0876354 -0.000846999 -9.0934e-06)
(0.0709494 -0.000687179 5.17101e-05)
(0.0763742 -0.000974267 -9.77214e-06)
(0.0875007 -0.000903269 -3.86817e-06)
(0.0705243 -0.000764108 7.12441e-05)
(0.0758632 -0.00102758 1.51787e-05)
(0.0873292 -0.000952397 4.89143e-06)
(0.0700554 -0.000821455 8.36294e-05)
(0.075299 -0.00106801 3.91895e-05)
(0.0871198 -0.000993739 1.72043e-05)
(0.0695498 -0.000863913 9.29873e-05)
(0.0868731 -0.0010269 3.19126e-05)
(0.0690016 -0.000896631 0.000103236)
(0.0980014 -0.000521411 0.000451382)
(0.101676 -0.000549334 0.000668525)
(0.0941269 -7.29754e-05 0.000642318)
(0.0983388 -0.000620165 0.000379098)
(0.102 -0.00061268 0.00063469)
(0.0944786 -0.000263244 0.000769706)
(0.0986332 -0.000655934 0.000300495)
(0.102311 -0.000647787 0.00060485)
(0.0947463 -0.000341798 0.000720494)
(0.0988772 -0.000679064 0.000223748)
(0.102654 -0.000652526 0.000555065)
(0.0949516 -0.000360255 0.000587889)
(0.0991059 -0.000714909 0.000158242)
(0.102987 -0.00067041 0.000500305)
(0.0951148 -0.000392269 0.000469641)
(0.0993301 -0.000755861 0.000102526)
(0.103299 -0.000700348 0.000444587)
(0.0952628 -0.000442161 0.00037824)
(0.0995491 -0.000801934 6.04937e-05)
(0.103603 -0.000736987 0.000391678)
(0.0954084 -0.000499863 0.000307353)
(0.0997581 -0.000854352 3.53201e-05)
(0.103899 -0.000782663 0.000348875)
(0.0955508 -0.00056231 0.000255655)
(0.0999517 -0.000908161 2.43343e-05)
(0.104184 -0.000833116 0.000317285)
(0.0956855 -0.00062503 0.000220809)
(0.100126 -0.000958946 2.39116e-05)
(0.104456 -0.000883194 0.000295432)
(0.0958074 -0.000683804 0.000199969)
(0.100278 -0.00100399 2.96899e-05)
(0.104715 -0.000929888 0.000281388)
(0.095913 -0.00073431 0.000186762)
(0.104958 -0.000971611 0.000271701)
(0.0959997 -0.000779796 0.00017871)
(0.105899 -0.000631042 0.000866561)
(0.10796 -0.000565064 0.000986623)
(0.103196 -0.000497023 0.00108628)
(0.106287 -0.00063036 0.000880406)
(0.108319 -0.000545872 0.0010137)
(0.103528 -0.000473554 0.00124667)
(0.106725 -0.000628174 0.000881706)
(0.1087 -0.000549993 0.00104805)
(0.103869 -0.000443769 0.00132254)
(0.107153 -0.000622181 0.000854962)
(0.109146 -0.000542719 0.0010541)
(0.104251 -0.000408869 0.00129902)
(0.107568 -0.000623576 0.000808141)
(0.109603 -0.000532373 0.00103324)
(0.104607 -0.000386392 0.00122823)
(0.107969 -0.000635502 0.000751458)
(0.110043 -0.000526484 0.000994451)
(0.104922 -0.000382992 0.00113932)
(0.108358 -0.000657577 0.000693089)
(0.110467 -0.000527121 0.0009446)
(0.105212 -0.000396232 0.00104533)
(0.108738 -0.00068824 0.000638902)
(0.11088 -0.000536028 0.000890472)
(0.105491 -0.000421772 0.000955817)
(0.10911 -0.000724385 0.000591839)
(0.111283 -0.00055201 0.000837249)
(0.105767 -0.000455889 0.000875939)
(0.109475 -0.000762717 0.000552434)
(0.111677 -0.000572269 0.000788079)
(0.106042 -0.000496209 0.000808337)
(0.109835 -0.000800762 0.000519638)
(0.112064 -0.000595177 0.000743816)
(0.106319 -0.000538653 0.000752359)
(0.112445 -0.000618894 0.000703821)
(0.106597 -0.000579388 0.000703762)
(0.110424 -0.000528314 0.00115568)
(0.111402 -0.000436995 0.00116158)
(0.108358 -0.000508024 0.00135518)
(0.110823 -0.000498071 0.00120054)
(0.111819 -0.000407203 0.00121098)
(0.108704 -0.000463736 0.00149315)
(0.111279 -0.000483554 0.00123749)
(0.112239 -0.000395701 0.00125753)
(0.10907 -0.000438683 0.00160759)
(0.111752 -0.000469499 0.00125011)
(0.112714 -0.000386354 0.00128498)
(0.109488 -0.000408734 0.00165487)
(0.112225 -0.000453972 0.00123906)
(0.113208 -0.00037375 0.00129161)
(0.109899 -0.000373068 0.00165373)
(0.112689 -0.000439272 0.00120876)
(0.113695 -0.000359335 0.00128077)
(0.110279 -0.000336549 0.00161882)
(0.11314 -0.000428256 0.00116422)
(0.11417 -0.000344843 0.00125502)
(0.110629 -0.000303851 0.00155816)
(0.113577 -0.000422734 0.00111144)
(0.114634 -0.000332523 0.00121787)
(0.110959 -0.000282002 0.00148153)
(0.114003 -0.000422142 0.00105596)
(0.115085 -0.00032357 0.00117347)
(0.111277 -0.000266609 0.0014007)
(0.114421 -0.000425635 0.0010014)
(0.115524 -0.000317607 0.00112608)
(0.111587 -0.000259314 0.00132275)
(0.114832 -0.000432634 0.000949176)
(0.115954 -0.00031454 0.00107844)
(0.111894 -0.000258643 0.00124856)
(0.116375 -0.00031384 0.00103185)
(0.112201 -0.000262298 0.00117866)
(0.112782 -0.000304721 0.00121656)
(0.112881 -0.000117851 0.0011225)
(0.111036 -0.000335643 0.00141839)
(0.113242 -0.000294017 0.00126777)
(0.113367 -0.00011385 0.00117465)
(0.11144 -0.000325756 0.00151565)
(0.113726 -0.000288308 0.00130491)
(0.113826 -0.000113664 0.00120988)
(0.111836 -0.000329078 0.00159934)
(0.114223 -0.000281847 0.0013268)
(0.114323 -0.000114648 0.0012309)
(0.112269 -0.000327427 0.0016535)
(0.114724 -0.000272061 0.00133431)
(0.114837 -0.000113518 0.00124144)
(0.112709 -0.0003147 0.00168014)
(0.115222 -0.00025922 0.00132874)
(0.115348 -0.000109596 0.00124291)
(0.113133 -0.000291582 0.00168433)
(0.115712 -0.000244618 0.00131114)
(0.115853 -0.000103196 0.00123595)
(0.113536 -0.000263414 0.00167006)
(0.11619 -0.000229825 0.00128304)
(0.116349 -9.51153e-05 0.00122077)
(0.113923 -0.00023358 0.00163805)
(0.116654 -0.000216003 0.00124724)
(0.116835 -8.63146e-05 0.00119826)
(0.114293 -0.000204029 0.00159277)
(0.117106 -0.000203685 0.00120715)
(0.117308 -7.73085e-05 0.00117084)
(0.114647 -0.000175964 0.00154068)
(0.117548 -0.000193035 0.00116542)
(0.117769 -6.83816e-05 0.00114107)
(0.11499 -0.000150337 0.00148648)
(0.11822 -5.97235e-05 0.00111034)
(0.115325 -0.000127204 0.00143189)
(0.113419 8.37368e-05 0.0010784)
(0.112788 0.000336434 0.000931806)
(0.111705 2.01042e-05 0.00127185)
(0.113921 7.54504e-05 0.00111474)
(0.113284 0.000329694 0.000961378)
(0.112156 -6.28921e-06 0.00133362)
(0.114431 6.71731e-05 0.00113401)
(0.113753 0.000323432 0.000976486)
(0.112576 -3.06947e-05 0.00137239)
(0.114947 5.99175e-05 0.00114375)
(0.114257 0.000317016 0.000980956)
(0.113024 -5.06883e-05 0.00139717)
(0.115465 5.4566e-05 0.00114832)
(0.114778 0.000309219 0.000981146)
(0.113483 -6.35014e-05 0.00141405)
(0.115983 5.15264e-05 0.00114851)
(0.115297 0.000300431 0.000979145)
(0.113938 -6.83406e-05 0.0014253)
(0.116496 5.07822e-05 0.00114414)
(0.115811 0.000290986 0.000975511)
(0.114384 -6.58719e-05 0.00143049)
(0.117001 5.21085e-05 0.00113476)
(0.11632 0.000281387 0.000969915)
(0.114819 -5.77332e-05 0.00142742)
(0.117494 5.53138e-05 0.00112089)
(0.116819 0.00027254 0.000962326)
(0.115242 -4.49367e-05 0.00141563)
(0.117977 6.025e-05 0.00110404)
(0.117308 0.0002652 0.000953604)
(0.115651 -2.83945e-05 0.00139806)
(0.118447 6.66712e-05 0.00108548)
(0.117785 0.000259585 0.000944539)
(0.116046 -8.78408e-06 0.00137744)
(0.118252 0.000255684 0.00093541)
(0.116428 1.29858e-05 0.00135473)
(0.112603 0.000582596 0.000815973)
(0.111311 0.000860723 0.000678169)
(0.110648 0.000469261 0.000957864)
(0.113086 0.000578231 0.000824428)
(0.111739 0.000876811 0.00066205)
(0.111083 0.000431727 0.000986319)
(0.113588 0.000574462 0.00082477)
(0.112168 0.000900379 0.000655995)
(0.111498 0.00041286 0.000997669)
(0.1141 0.000567832 0.000819744)
(0.112651 0.000912912 0.000647556)
(0.111952 0.000397835 0.000996922)
(0.114615 0.000556834 0.000813401)
(0.113152 0.000909228 0.0006365)
(0.112421 0.000380593 0.00099527)
(0.11513 0.000541886 0.000807592)
(0.113646 0.000892395 0.00062527)
(0.112887 0.000362167 0.000997001)
(0.115641 0.000523901 0.000802705)
(0.114131 0.000865158 0.00061557)
(0.113349 0.000343496 0.00100155)
(0.116144 0.000504413 0.00079885)
(0.114607 0.000831052 0.000608967)
(0.113805 0.000326277 0.00100682)
(0.116637 0.000485158 0.000796343)
(0.115072 0.000793692 0.000605975)
(0.114252 0.000312748 0.00101277)
(0.117121 0.000467247 0.000795326)
(0.115527 0.000756484 0.000605814)
(0.114689 0.000303653 0.00101986)
(0.117595 0.000451199 0.000795612)
(0.115973 0.000720805 0.000608278)
(0.115116 0.000298194 0.00102752)
(0.116411 0.00068768 0.000612869)
(0.115531 0.000296008 0.00103513)
(0.110425 0.00115525 0.000528615)
(0.108358 0.00135483 0.000508008)
(0.10796 0.000986194 0.00056537)
(0.110824 0.00119987 0.000498568)
(0.108705 0.00149259 0.000463669)
(0.10832 0.00101287 0.000546443)
(0.11128 0.00123645 0.000484214)
(0.109071 0.0016071 0.000438928)
(0.108701 0.00104714 0.000551095)
(0.111753 0.00124851 0.000470165)
(0.10949 0.00165405 0.000409003)
(0.109148 0.00105256 0.000543874)
(0.112227 0.00123691 0.000454564)
(0.109903 0.00165241 0.000373283)
(0.109605 0.00103104 0.0005335)
(0.112692 0.00120619 0.000439764)
(0.110284 0.00161719 0.000336669)
(0.110046 0.000991791 0.000527596)
(0.113144 0.00116136 0.000428625)
(0.110636 0.00155628 0.000303837)
(0.110472 0.000941623 0.000528228)
(0.113582 0.0011084 0.000423049)
(0.110968 0.00147948 0.000281922)
(0.110886 0.000887343 0.000537145)
(0.11401 0.00105279 0.000422448)
(0.111288 0.00139836 0.000266618)
(0.11129 0.000834134 0.000553254)
(0.114428 0.000997984 0.000425733)
(0.1116 0.00132041 0.000259368)
(0.111685 0.000785016 0.000573539)
(0.11484 0.000945621 0.000432407)
(0.111908 0.00124541 0.000257938)
(0.112074 0.000739977 0.000595942)
(0.112456 0.000699754 0.000619287)
(0.106661 0.00169628 0.000444856)
(0.103333 0.00177571 0.000613746)
(0.103569 0.00144643 0.000381737)
(0.107026 0.0018834 0.000406715)
(0.103665 0.00217638 0.00061336)
(0.10389 0.00169289 0.000354619)
(0.107421 0.00199521 0.000367606)
(0.103902 0.00237415 0.000556487)
(0.104217 0.00182392 0.000322351)
(0.107776 0.00202985 0.000317074)
(0.104072 0.00240028 0.000460561)
(0.104575 0.00184223 0.00026671)
(0.108089 0.00200965 0.000261409)
(0.104139 0.00235729 0.000354552)
(0.104892 0.00179871 0.000211744)
(0.108362 0.00194963 0.000207805)
(0.104117 0.00226274 0.000252881)
(0.105152 0.00171922 0.000172374)
(0.108603 0.0018636 0.000164973)
(0.104051 0.00213185 0.000163023)
(0.105376 0.00161959 0.000150915)
(0.108823 0.00176567 0.000133908)
(0.103971 0.00199021 9.37221e-05)
(0.105581 0.00151488 0.000146794)
(0.109033 0.00166768 0.000112446)
(0.103891 0.0018596 4.16185e-05)
(0.105781 0.00141408 0.000151511)
(0.109243 0.00157369 0.000100834)
(0.103824 0.0017379 7.01461e-06)
(0.105981 0.00132396 0.000166846)
(0.103772 0.00162524 -1.19009e-05)
(0.106185 0.00124107 0.000186403)
(0.10049 0.00217384 0.000766837)
(0.0934853 0.00208589 0.00112515)
(0.096451 0.00191991 0.000701551)
(0.1008 0.00251398 0.000746293)
(0.092915 0.00256192 0.00117898)
(0.0968541 0.00251024 0.000741177)
(0.100884 0.0026 0.000635639)
(0.0921293 0.00260605 0.00103423)
(0.0969397 0.0026087 0.000555864)
(0.100765 0.00254788 0.000488638)
(0.0911043 0.00251245 0.000821339)
(0.0967789 0.00246148 0.000332562)
(0.100514 0.00243843 0.000340901)
(0.0899439 0.00238315 0.000597491)
(0.0964491 0.00226517 0.000159217)
(0.100183 0.00228625 0.000206773)
(0.0887581 0.00222506 0.00039484)
(0.0960472 0.00204546 3.25512e-05)
(0.0998243 0.00211298 9.37688e-05)
(0.0876178 0.00205484 0.000233956)
(0.0956367 0.00182898 -4.94778e-05)
(0.0994698 0.00194894 6.10699e-06)
(0.0865537 0.00188991 0.000115214)
(0.0952514 0.001634 -9.87223e-05)
(0.0991355 0.00180273 -5.71556e-05)
(0.0855785 0.00174315 3.40277e-05)
(0.0949063 0.00147594 -0.000125816)
(0.0988325 0.00166957 -9.76788e-05)
(0.0846971 0.00160902 -2.19722e-05)
(0.0946029 0.00134694 -0.000132174)
(0.0839051 0.00148995 -5.43148e-05)
(0.0943333 0.00123701 -0.00012504)
(0.0869041 0.0023466 0.00148376)
(0.0824574 0.00222052 0.00151546)
(0.0853025 0.00272068 0.00142911)
(0.0804135 0.00292167 0.00155465)
(0.0834549 0.00271875 0.00119857)
(0.0781609 0.00283865 0.00121742)
(0.0814853 0.00258862 0.000919661)
(0.0757172 0.00258462 0.000790382)