/*--------------------------------*- C++ -*----------------------------------*\
| =========                 |                                                 |
| \\      /  F ield         | OpenFOAM: The Open Source CFD Toolbox           |
|  \\    /   O peration     | Version:  2212                                  |
|   \\  /    A nd           | Website:  www.openfoam.com                      |
|    \\/     M anipulation  |                                                 |
\*---------------------------------------------------------------------------*/
FoamFile
{
    version     2.0;
    format      ascii;
    arch        "LSB;label=32;scalar=64";
    class       volScalarField;
    location    "0.3";
    object      epsilon;
}
// * * * * * * * * * * * * * * * * * * * * * * * * * * * * * * * * * * * * * //

dimensions      [0 2 -3 0 0 0 0];

internalField   nonuniform List<scalar> 
6840
(
90.5034
12.1248
4.38887
2.46662
1.63356
1.18392
0.904203
0.724196
0.601009
0.513149
0.449194
0.402212
0.367863
0.342387
0.322762
0.307896
0.29677
0.288373
0.283682
0.283614
58.5856
14.5697
6.08994
3.33432
2.0848
1.40749
1.00671
0.752516
0.584016
0.468633
0.387732
0.33004
0.288409
0.258745
0.236077
0.21908
0.206478
0.196717
0.188092
0.178119
45.0226
13.473
5.73106
3.07402
1.86101
1.22941
0.878172
0.657059
0.509325
0.406271
0.332717
0.27986
0.241597
0.213671
0.193011
0.17761
0.1659
0.1566
0.149001
0.14432
38.7028
13.0541
5.74361
3.08801
1.8813
1.22975
0.874013
0.652616
0.503735
0.401075
0.327241
0.273718
0.234621
0.205839
0.184507
0.168607
0.156649
0.14748
0.140221
0.136459
36.0571
12.853
5.7667
3.10272
1.89526
1.22875
0.870794
0.650808
0.502818
0.399846
0.3254
0.271489
0.232067
0.202992
0.181382
0.165204
0.152997
0.143701
0.136618
0.133172
36.0571
12.853
5.7667
3.10272
1.89527
1.22875
0.8708
0.650816
0.502829
0.39986
0.325418
0.271513
0.232099
0.203033
0.181446
0.165301
0.153144
0.143918
0.136876
0.132512
38.7028
13.0541
5.74362
3.08802
1.88131
1.22976
0.874027
0.652634
0.503759
0.401105
0.327281
0.273774
0.234702
0.205981
0.184702
0.16888
0.157053
0.148103
0.141009
0.135562
45.0226
13.473
5.73106
3.07403
1.86102
1.22942
0.878185
0.657076
0.509349
0.406302
0.33276
0.279922
0.241688
0.213817
0.193233
0.177955
0.166443
0.157521
0.150699
0.146605
58.5856
14.5697
6.08994
3.33432
2.08481
1.40749
1.00671
0.75252
0.584024
0.468644
0.387754
0.330068
0.28846
0.258828
0.236214
0.219306
0.206832
0.197595
0.190608
0.185985
90.5034
12.1248
4.38887
2.46662
1.63356
1.18392
0.904203
0.724196
0.601009
0.513155
0.44918
0.402229
0.367904
0.342403
0.322742
0.307869
0.296759
0.288377
0.283683
0.283603
58.5856
14.5697
6.08994
3.33432
2.08481
1.40749
1.00671
0.75252
0.584024
0.468644
0.387749
0.330067
0.288451
0.258813
0.236195
0.219289
0.206833
0.197587
0.190602
0.185987
16.5373
9.4924
5.01283
2.86097
1.75834
1.14925
0.789783
0.566547
0.422015
0.325281
0.258806
0.212166
0.179082
0.155515
0.136989
0.125249
0.116722
0.109541
0.103806
0.102049
13.6679
8.73672
5.07748
3.05412
1.92279
1.26724
0.871364
0.622015
0.459151
0.349403
0.273558
0.220078
0.1816
0.153443
0.132622
0.117471
0.106325
0.0972659
0.0917297
0.0882383
12.9054
8.33993
5.07883
3.15564
2.02815
1.35212
0.935273
0.66935
0.494003
0.375006
0.29225
0.233552
0.191258
0.160384
0.137603
0.120641
0.107808
0.0979932
0.0902522
0.0862658
12.6882
8.15441
5.07117
3.20053
2.07975
1.39588
0.969426
0.69541
0.513808
0.390073
0.303687
0.242222
0.197808
0.165311
0.14128
0.123346
0.109846
0.0995632
0.0916215
0.0862397
12.6882
8.15441
5.07118
3.20053
2.07975
1.39589
0.969431
0.695415
0.513814
0.390081
0.303696
0.242234
0.197824
0.165344
0.141305
0.12337
0.10987
0.0995852
0.0916127
0.0857036
12.9054
8.33993
5.07884
3.15565
2.02816
1.35213
0.935283
0.669361
0.494017
0.375023
0.29227
0.233576
0.191281
0.160354
0.137617
0.120673
0.107844
0.0980187
0.0902479
0.0855877
13.6679
8.73672
5.07748
3.05412
1.92279
1.26725
0.87137
0.622023
0.459161
0.349414
0.273572
0.220096
0.181622
0.153465
0.132647
0.117502
0.106358
0.0972869
0.0920228
0.0893758
16.5373
9.4924
5.01283
2.86097
1.75834
1.14925
0.789783
0.566548
0.422015
0.325282
0.258806
0.212168
0.179085
0.155519
0.13699
0.125253
0.116731
0.109522
0.103816
0.10205
58.5856
14.5697
6.08994
3.33432
2.0848
1.40749
1.00671
0.752516
0.584016
0.468633
0.387737
0.330041
0.288417
0.258755
0.236089
0.219089
0.20647
0.19672
0.188093
0.178121
45.0226
13.473
5.73106
3.07403
1.86102
1.22942
0.878184
0.657075
0.509348
0.406302
0.332759
0.279921
0.241685
0.213803
0.193213
0.177934
0.166427
0.157508
0.150691
0.1466
13.6679
8.73672
5.07748
3.05412
1.92279
1.26725
0.87137
0.622022
0.45916
0.349414
0.273572
0.220095
0.18162
0.153468
0.132651
0.117503
0.106358
0.0972868
0.0920218
0.0893792
11.8601
7.76394
4.99736
3.24089
2.14453
1.45571
1.01547
0.727965
0.535817
0.404511
0.312964
0.248008
0.201207
0.167033
0.141826
0.123099
0.108991
0.0982556
0.0902908
0.0846911
11.6228
7.60534
5.01031
3.34217
2.26872
1.57197
1.11344
0.806472
0.597223
0.452018
0.349532
0.27609
0.222756
0.183586
0.154531
0.132787
0.116383
0.103934
0.0944675
0.0874465
11.5726
7.56715
5.02064
3.3835
2.32123
1.62375
1.15926
0.844879
0.628469
0.477024
0.369389
0.291797
0.235165
0.193394
0.162287
0.13892
0.121248
0.107801
0.0975318
0.0897836
11.5726
7.56715
5.02064
3.3835
2.32123
1.62375
1.15927
0.844883
0.628474
0.47703
0.369396
0.291806
0.235179
0.193414
0.162308
0.138937
0.121264
0.107813
0.0975282
0.0897196
11.6228
7.60534
5.01031
3.34217
2.26872
1.57197
1.11344
0.806479
0.59723
0.452028
0.349545
0.276107
0.222784
0.18361
0.154546
0.132806
0.116403
0.103952
0.094471
0.0873877
11.8601
7.76394
4.99736
3.24089
2.14453
1.45571
1.01547
0.727966
0.535817
0.404512
0.312965
0.248011
0.201215
0.16704
0.141824
0.123095
0.108987
0.0982517
0.0902862
0.0846803
13.6679
8.73672
5.07748
3.05412
1.92279
1.26724
0.871364
0.622016
0.459152
0.349403
0.273559
0.220079
0.181602
0.153447
0.132622
0.11747
0.106323
0.0972644
0.091729
0.0882359
45.0226
13.473
5.73106
3.07402
1.86101
1.22941
0.878171
0.657059
0.509325
0.406271
0.332717
0.279861
0.241596
0.213669
0.19301
0.177611
0.165901
0.156603
0.149002
0.144315
38.7028
13.0541
5.74362
3.08802
1.88131
1.22976
0.874027
0.652633
0.503759
0.401105
0.327281
0.273773
0.234697
0.205949
0.18467
0.168852
0.157032
0.148087
0.140997
0.135551
12.9054
8.33993
5.07884
3.15565
2.02816
1.35213
0.935283
0.669361
0.494017
0.375023
0.292269
0.233576
0.191286
0.160418
0.137643
0.120682
0.107847
0.0980202
0.0902495
0.0855994
11.6228
7.60534
5.01031
3.34217
2.26872
1.57197
1.11344
0.806478
0.59723
0.452027
0.349544
0.276103
0.222773
0.183605
0.154553
0.132811
0.116408
0.103957
0.0944793
0.0874123
11.4932
7.51186
5.0284
3.43403
2.38936
1.69321
1.22196
0.898001
0.671918
0.511854
0.396992
0.313551
0.252275
0.206853
0.172888
0.147284
0.127868
0.11306
0.101708
0.0929537
11.4757
7.50131
5.04293
3.47003
2.43678
1.74336
1.26941
0.940118
0.707875
0.541819
0.421594
0.33357
0.268485
0.219954
0.18347
0.155836
0.134797
0.118689
0.106278
0.096599
11.4757
7.50131
5.04294
3.47003
2.43678
1.74336
1.26941
0.940119
0.707877
0.541821
0.421597
0.333575
0.268494
0.21997
0.183483
0.155843
0.134801
0.118691
0.106279
0.0966167
11.4932
7.51186
5.0284
3.43403
2.38936
1.69321
1.22196
0.898002
0.671919
0.511855
0.396995
0.313559
0.252297
0.20687
0.172881
0.147277
0.12786
0.113052
0.101696
0.0929275
11.6228
7.60534
5.01031
3.34217
2.26872
1.57197
1.11344
0.806473
0.597223
0.452019
0.349534
0.276095
0.222769
0.183595
0.154525
0.132779
0.116375
0.103926
0.0944586
0.0874301
12.9054
8.33993
5.07883
3.15564
2.02815
1.35212
0.935274
0.66935
0.494004
0.375007
0.29225
0.233553
0.191261
0.160388
0.137602
0.120637
0.107804
0.0979895
0.0902485
0.0862679
38.7028
13.0541
5.74361
3.08801
1.8813
1.22975
0.874013
0.652615
0.503735
0.401075
0.327241
0.273718
0.234619
0.205838
0.184507
0.168608
0.156652
0.147483
0.140223
0.136456
36.0571
12.853
5.7667
3.10272
1.89527
1.22875
0.8708
0.650816
0.502829
0.39986
0.325418
0.271513
0.232101
0.20304
0.181452
0.165305
0.153146
0.143918
0.136875
0.13251
12.6882
8.15441
5.07118
3.20053
2.07975
1.39589
0.969431
0.695415
0.513814
0.390081
0.303696
0.242234
0.197821
0.165324
0.141296
0.123366
0.109868
0.0995846
0.0916133
0.0857082
11.5726
7.56715
5.02064
3.3835
2.32123
1.62375
1.15927
0.844883
0.628474
0.477029
0.369395
0.291804
0.235173
0.193402
0.162297
0.138931
0.121262
0.107813
0.0975336
0.0897383
11.4757
7.50131
5.04294
3.47003
2.43678
1.74336
1.26941
0.940119
0.707876
0.54182
0.421595
0.333571
0.268485
0.219953
0.183469
0.155836
0.134799
0.118693
0.106288
0.0966434
11.4646
7.49678
5.05765
3.50272
2.4805
1.79104
1.31597
0.98264
0.745092
0.573501
0.448078
0.355453
0.28644
0.234632
0.19545
0.165613
0.14279
0.125237
0.111629
0.100864
11.4646
7.49678
5.05765
3.50272
2.4805
1.79104
1.31597
0.98264
0.745093
0.573502
0.44808
0.355457
0.286447
0.234647
0.195461
0.165617
0.14279
0.125235
0.111624
0.100853
11.4757
7.50131
5.04294
3.47003
2.43678
1.74336
1.26941
0.940119
0.707876
0.54182
0.421598
0.33358
0.26851
0.21997
0.183457
0.155823
0.134785
0.118679
0.106268
0.0965862
11.5726
7.56715
5.02064
3.3835
2.32123
1.62375
1.15926
0.844881
0.62847
0.477025
0.369391
0.291803
0.235179
0.193402
0.162275
0.138907
0.121237
0.10779
0.0975222
0.0897706
12.6882
8.15441
5.07117
3.20053
2.07975
1.39589
0.969427
0.69541
0.513808
0.390073
0.303687
0.242224
0.197812
0.165313
0.141275
0.12334
0.10984
0.0995582
0.0916166
0.0862234
36.0571
12.853
5.7667
3.10272
1.89526
1.22875
0.870794
0.650808
0.502818
0.399846
0.3254
0.271489
0.232067
0.202992
0.181384
0.165206
0.153001
0.143705
0.136623
0.133183
36.0571
12.853
5.7667
3.10272
1.89526
1.22875
0.870794
0.650809
0.502818
0.399846
0.3254
0.271489
0.232068
0.202994
0.181385
0.165207
0.153
0.143702
0.136619
0.133177
12.6882
8.15441
5.07117
3.20053
2.07975
1.39588
0.969426
0.69541
0.513808
0.390073
0.303687
0.242222
0.197808
0.165308
0.141278
0.123344
0.109845
0.0995626
0.0916207
0.0862306
11.5726
7.56715
5.02064
3.3835
2.32123
1.62375
1.15926
0.84488
0.628469
0.477024
0.369389
0.291796
0.235164
0.193391
0.162283
0.138916
0.121246
0.1078
0.0975329
0.0897884
11.4757
7.50131
5.04293
3.47003
2.43678
1.74336
1.26941
0.940118
0.707875
0.541819
0.421594
0.333569
0.268483
0.21995
0.183465
0.155832
0.134794
0.118688
0.106281
0.0966101
11.4646
7.49678
5.05765
3.50272
2.4805
1.79104
1.31597
0.982641
0.745093
0.573501
0.448079
0.355454
0.28644
0.234632
0.19545
0.165612
0.14279
0.125237
0.111629
0.100866
11.4646
7.49678
5.05765
3.50272
2.4805
1.79104
1.31597
0.982642
0.745093
0.573502
0.44808
0.355457
0.286447
0.234647
0.195461
0.165616
0.142789
0.125235
0.111625
0.10086
11.4757
7.50131
5.04294
3.47003
2.43678
1.74337
1.26942
0.940121
0.707877
0.541822
0.421599
0.333582
0.268513
0.219973
0.18346
0.155826
0.134789
0.118682
0.106275
0.0966219
11.5726
7.56715
5.02064
3.3835
2.32123
1.62375
1.15927
0.844885
0.628475
0.47703
0.369398
0.291811
0.235189
0.193413
0.162288
0.138921
0.121251
0.107803
0.0975215
0.0897167
12.6882
8.15441
5.07118
3.20053
2.07975
1.39589
0.969435
0.695417
0.513815
0.390081
0.303697
0.242236
0.197826
0.165329
0.141294
0.123362
0.109863
0.09958
0.0916089
0.0856989
36.0571
12.853
5.7667
3.10272
1.89527
1.22876
0.870798
0.650815
0.502829
0.39986
0.325419
0.271514
0.232101
0.203039
0.181451
0.165305
0.153148
0.143922
0.13688
0.132518
38.7028
13.0541
5.74361
3.08801
1.8813
1.22975
0.874013
0.652616
0.503736
0.401076
0.327241
0.273719
0.234621
0.20584
0.184508
0.168609
0.156651
0.14748
0.140219
0.136452
12.9054
8.33993
5.07883
3.15564
2.02815
1.35212
0.935274
0.66935
0.494004
0.375007
0.29225
0.233552
0.191258
0.160384
0.137603
0.12064
0.107807
0.0979927
0.0902515
0.086272
11.6228
7.60534
5.01031
3.34217
2.26872
1.57197
1.11344
0.806473
0.597223
0.452019
0.349533
0.27609
0.222757
0.183586
0.154531
0.132786
0.116381
0.103932
0.0944653
0.0874398
11.4932
7.51186
5.0284
3.43403
2.38936
1.69321
1.22196
0.898002
0.671919
0.511854
0.396993
0.313552
0.252276
0.206854
0.172888
0.147283
0.127866
0.113058
0.101703
0.092939
11.4757
7.50131
5.04294
3.47003
2.43678
1.74337
1.26942
0.940121
0.707877
0.541821
0.421596
0.333573
0.268488
0.219957
0.183473
0.155838
0.134798
0.11869
0.106281
0.0966231
11.4757
7.50131
5.04294
3.47003
2.43678
1.74337
1.26942
0.940116
0.707874
0.541818
0.421594
0.333573
0.268491
0.219965
0.183479
0.155837
0.134794
0.118685
0.106274
0.0965957
11.4932
7.51186
5.0284
3.43403
2.38936
1.69322
1.22196
0.897999
0.671917
0.511854
0.396994
0.313559
0.252296
0.20687
0.17288
0.147274
0.127858
0.11305
0.101697
0.0929355
11.6228
7.60534
5.01031
3.34217
2.26872
1.57198
1.11344
0.806476
0.597229
0.452027
0.349545
0.276109
0.222785
0.183614
0.154546
0.132803
0.116399
0.103947
0.0944678
0.0873877
12.9054
8.33993
5.07884
3.15565
2.02816
1.35213
0.93527
0.669358
0.494017
0.375024
0.292271
0.233578
0.191291
0.160422
0.137641
0.120679
0.107843
0.0980161
0.0902457
0.085581
38.7028
13.0541
5.74362
3.08802
1.88131
1.22976
0.874038
0.652646
0.503769
0.401112
0.327286
0.273777
0.234699
0.20595
0.18467
0.168854
0.157035
0.148092
0.141005
0.135566
45.0226
13.473
5.73106
3.07402
1.86101
1.22941
0.878172
0.657059
0.509325
0.406271
0.332717
0.27986
0.241597
0.213671
0.193011
0.17761
0.1659
0.1566
0.148999
0.144311
13.6679
8.73672
5.07748
3.05412
1.92279
1.26724
0.871364
0.622016
0.459152
0.349403
0.273559
0.220078
0.1816
0.153444
0.132622
0.117471
0.106325
0.0972657
0.0917294
0.0882367
11.8601
7.76394
4.99736
3.24089
2.14453
1.45571
1.01547
0.727966
0.535817
0.404511
0.312964
0.248009
0.201208
0.167034
0.141828
0.123099
0.10899
0.098254
0.0902881
0.084683
11.6228
7.60534
5.01031
3.34217
2.26872
1.57198
1.11344
0.806479
0.59723
0.452028
0.349544
0.276104
0.222774
0.183606
0.154555
0.132811
0.116407
0.103954
0.0944726
0.0873895
11.5726
7.56715
5.02064
3.3835
2.32123
1.62375
1.15927
0.844884
0.628474
0.47703
0.369396
0.291806
0.235176
0.193406
0.162301
0.138933
0.121261
0.10781
0.0975263
0.089717
11.5726
7.56715
5.02064
3.3835
2.32123
1.62375
1.15926
0.844877
0.628468
0.477023
0.369389
0.291798
0.235169
0.193401
0.162293
0.138919
0.121245
0.107796
0.0975264
0.089774
11.6228
7.60534
5.01031
3.34217
2.26872
1.57197
1.11344
0.80647
0.597221
0.452018
0.349533
0.276093
0.222767
0.18359
0.154521
0.132777
0.116374
0.103925
0.0944591
0.0874317
11.8601
7.76394
4.99736
3.24089
2.14453
1.45571
1.01547
0.727964
0.535816
0.404511
0.312965
0.248011
0.201214
0.167039
0.141822
0.123093
0.108985
0.0982493
0.0902844
0.084679
13.6679
8.73672
5.07748
3.05412
1.92279
1.26725
0.87137
0.622023
0.459161
0.349415
0.273574
0.220098
0.181624
0.153472
0.13265
0.117502
0.106356
0.0972844
0.0920195
0.0893706
45.0226
13.473
5.73106
3.07403
1.86102
1.22942
0.878187
0.657082
0.509356
0.406308
0.332765
0.279926
0.241688
0.213804
0.193215
0.177936
0.16643
0.157513
0.150697
0.146611
58.5856
14.5697
6.08994
3.33432
2.0848
1.40749
1.00671
0.752516
0.584017
0.468634
0.387733
0.330041
0.28841
0.258745
0.236078
0.21908
0.206478
0.196717
0.188089
0.178114
16.5373
9.4924
5.01283
2.86097
1.75834
1.14925
0.789783
0.566548
0.422015
0.325282
0.258806
0.212167
0.179082
0.155516
0.136989
0.125249
0.116722
0.109541
0.103806
0.102046
13.6679
8.73672
5.07748
3.05412
1.92279
1.26725
0.87137
0.622023
0.459161
0.349414
0.273572
0.220096
0.181621
0.153469
0.132652
0.117503
0.106357
0.0972858
0.0920195
0.0893734
12.9054
8.33993
5.07884
3.15565
2.02816
1.35213
0.935283
0.669361
0.494017
0.375023
0.29227
0.233577
0.191288
0.160419
0.137644
0.120683
0.107846
0.0980188
0.0902473
0.0855835
12.6882
8.15441
5.07118
3.20053
2.07975
1.39589
0.969426
0.695415
0.513815
0.390082
0.303697
0.242235
0.197823
0.165327
0.1413
0.123367
0.109867
0.0995831
0.0916109
0.0856982
12.6882
8.15441
5.07117
3.20053
2.07975
1.39588
0.969422
0.695408
0.513808
0.390073
0.303688
0.242224
0.197812
0.165327
0.141287
0.123346
0.109844
0.0995609
0.0916186
0.0862244
12.9054
8.33993
5.07884
3.15564
2.02815
1.35212
0.935274
0.669349
0.494003
0.375007
0.29225
0.233553
0.191253
0.16032
0.137577
0.120629
0.107802
0.0979898
0.0902493
0.0862703
13.6679
8.73672
5.07748
3.05412
1.92279
1.26724
0.871365
0.622015
0.459152
0.349403
0.27356
0.22008
0.181601
0.15344
0.132618
0.117469
0.106324
0.0972653
0.0917314
0.0882374
16.5373
9.4924
5.01283
2.86097
1.75834
1.14925
0.789784
0.566548
0.422016
0.325283
0.258808
0.212169
0.179086
0.15552
0.13699
0.125253
0.116732
0.109522
0.103817
0.102052
58.5856
14.5697
6.08994
3.33432
2.08481
1.40749
1.00671
0.752525
0.584031
0.46865
0.387759
0.330073
0.288463
0.258827
0.23621
0.219302
0.20683
0.197595
0.19061
0.185991
90.5034
12.1248
4.38887
2.46662
1.63356
1.18392
0.904202
0.724196
0.60101
0.513149
0.449194
0.402213
0.367864
0.342388
0.322763
0.307897
0.29677
0.288374
0.283677
0.283598
58.5856
14.5697
6.08994
3.33432
2.08481
1.40749
1.00671
0.75252
0.584025
0.468646
0.387751
0.330068
0.288452
0.258814
0.236196
0.219289
0.206833
0.197587
0.1906
0.185977
45.0226
13.473
5.73106
3.07403
1.86102
1.22942
0.878184
0.657076
0.50935
0.406303
0.332761
0.279922
0.241686
0.213804
0.193214
0.177934
0.166427
0.157508
0.15069
0.146599
38.7028
13.0541
5.74362
3.08802
1.88131
1.22976
0.874028
0.652635
0.503762
0.401108
0.327283
0.273775
0.234699
0.205951
0.18467
0.168853
0.157032
0.148088
0.141
0.135557
36.0571
12.853
5.7667
3.10272
1.89527
1.22875
0.870804
0.650822
0.502834
0.399864
0.325422
0.271516
0.232103
0.20304
0.181451
0.165304
0.153146
0.143919
0.136878
0.132515
36.0571
12.853
5.7667
3.10272
1.89526
1.22875
0.870798
0.650815
0.502824
0.399851
0.325404
0.271493
0.232069
0.20299
0.181382
0.165206
0.153001
0.143706
0.136624
0.133183
38.7028
13.0541
5.74361
3.08801
1.8813
1.22975
0.874015
0.652618
0.503739
0.401079
0.327245
0.273722
0.234629
0.205874
0.184544
0.168639
0.156675
0.147499
0.140233
0.136462
45.0226
13.473
5.73106
3.07402
1.86101
1.22941
0.878172
0.65706
0.509327
0.406273
0.33272
0.279864
0.241603
0.213688
0.193034
0.177635
0.165921
0.156617
0.149013
0.144323
58.5856
14.5697
6.08994
3.33432
2.08481
1.40749
1.00671
0.752519
0.584021
0.468637
0.387741
0.330046
0.288422
0.258763
0.2361
0.219101
0.206481
0.19673
0.188102
0.178127
90.5034
12.1248
4.38888
2.46662
1.63356
1.18392
0.904204
0.724196
0.601012
0.513158
0.449184
0.402233
0.367907
0.342407
0.322747
0.307874
0.296763
0.288382
0.283689
0.283612
0.420543
0.354684
0.331169
0.324381
0.322732
0.323197
0.323854
0.324478
0.325065
0.325622
0.326144
0.326627
0.327064
0.327456
0.327814
0.328137
0.328419
0.328663
0.328873
0.329049
0.329195
0.329313
0.329404
0.329468
0.329516
0.329551
0.32958
0.329602
0.329616
0.329619
0.329623
0.329626
0.329622
0.329654
0.329477
0.32965
0.329653
0.329652
0.329652
0.329663
0.218739
0.193987
0.188126
0.187401
0.187393
0.187793
0.188378
0.188974
0.189532
0.190045
0.190518
0.190953
0.191348
0.19171
0.19204
0.192337
0.1926
0.192831
0.19303
0.1932
0.19334
0.193452
0.193537
0.193597
0.193642
0.193676
0.193703
0.193721
0.193731
0.193734
0.193737
0.19374
0.193743
0.193723
0.193602
0.193759
0.193788
0.193781
0.193777
0.193781
0.172292
0.1553
0.147517
0.144452
0.143104
0.14282
0.142854
0.143038
0.143294
0.143583
0.143883
0.144178
0.144463
0.144734
0.144987
0.145221
0.145433
0.145621
0.145785
0.145925
0.146043
0.146137
0.146209
0.146259
0.146295
0.146322
0.146343
0.146358
0.146366
0.14637
0.146373
0.146376
0.146383
0.146401
0.146475
0.146464
0.146439
0.146422
0.146416
0.146417
0.150592
0.140028
0.134339
0.131273
0.129711
0.128858
0.128567
0.128503
0.128586
0.128754
0.128969
0.129204
0.12945
0.129696
0.129932
0.130154
0.130356
0.130536
0.130695
0.130831
0.130945
0.131037
0.131103
0.131147
0.131177
0.131199
0.131217
0.131228
0.131235
0.131238
0.131241
0.131245
0.131248
0.131244
0.131218
0.131228
0.131244
0.131258
0.13127
0.131279
0.138841
0.132026
0.12769
0.124965
0.123289
0.122296
0.121802
0.121488
0.121457
0.121531
0.121673
0.121858
0.122078
0.122307
0.122531
0.122742
0.122935
0.123109
0.123263
0.123395
0.123507
0.123595
0.123655
0.123684
0.123702
0.123717
0.12373
0.123741
0.123746
0.12375
0.123753
0.123758
0.123763
0.123767
0.12377
0.123785
0.123786
0.123789
0.123792
0.123796
0.133004
0.129169
0.126067
0.123768
0.12216
0.121094
0.120443
0.1201
0.11997
0.119976
0.120069
0.120214
0.120391
0.120584
0.120783
0.120976
0.121157
0.121323
0.12147
0.121599
0.121707
0.121795
0.121859
0.121906
0.121942
0.121971
0.121995
0.122012
0.122021
0.122027
0.122032
0.122038
0.122043
0.122047
0.122046
0.12205
0.122052
0.122054
0.122061
0.122068
0.141117
0.134799
0.130422
0.127443
0.125483
0.124251
0.123519
0.123145
0.123
0.122997
0.123083
0.123219
0.12339
0.123581
0.123779
0.123971
0.124152
0.124318
0.124465
0.124593
0.124701
0.124789
0.124854
0.124905
0.124947
0.12498
0.125007
0.125026
0.125036
0.125042
0.125048
0.125055
0.12506
0.125062
0.125057
0.125053
0.125052
0.125055
0.125064
0.125074
0.157092
0.145301
0.138606
0.134894
0.132899
0.131835
0.131292
0.13107
0.131041
0.131124
0.13127
0.131431
0.131643
0.131869
0.132091
0.1323
0.132492
0.132663
0.132815
0.132946
0.133056
0.133146
0.133215
0.133268
0.13331
0.133344
0.133371
0.13339
0.133402
0.133407
0.133413
0.133418
0.133423
0.133423
0.133413
0.13339
0.133382
0.13339
0.133406
0.133423
0.178687
0.157937
0.150985
0.148441
0.147467
0.147082
0.147064
0.14718
0.147376
0.147619
0.147889
0.148223
0.148484
0.148715
0.148938
0.149151
0.149349
0.149528
0.149686
0.149823
0.149939
0.150033
0.150106
0.15016
0.150203
0.150237
0.150265
0.150285
0.150297
0.150303
0.150307
0.150311
0.150314
0.150309
0.150281
0.150171
0.150179
0.150221
0.150264
0.150297
0.182277
0.179819
0.182111
0.185065
0.187718
0.189362
0.190502
0.191348
0.192016
0.192583
0.193086
0.193563
0.193985
0.194341
0.194652
0.194932
0.195183
0.195406
0.195599
0.195764
0.195902
0.196013
0.196096
0.196159
0.196207
0.196246
0.196277
0.1963
0.196312
0.196318
0.196321
0.196325
0.196329
0.196324
0.196299
0.196207
0.19619
0.196221
0.196266
0.196307
0.420513
0.354585
0.331092
0.324036
0.322468
0.323103
0.323837
0.324489
0.325084
0.325641
0.326159
0.326664
0.327094
0.327482
0.327829
0.328134
0.328404
0.328641
0.328846
0.329019
0.329164
0.329281
0.329373
0.329439
0.329491
0.329531
0.329563
0.32959
0.329605
0.329611
0.329616
0.329618
0.329618
0.329611
0.329597
0.329556
0.329537
0.329541
0.329567
0.329605
0.182309
0.179904
0.182245
0.185404
0.187933
0.189449
0.190529
0.191349
0.192012
0.192581
0.193086
0.193538
0.193942
0.194306
0.194635
0.194928
0.195188
0.195416
0.195612
0.195779
0.195917
0.196029
0.196112
0.196173
0.19622
0.196257
0.196286
0.196307
0.196318
0.196323
0.196325
0.196327
0.196326
0.196295
0.196118
0.19626
0.196301
0.196314
0.19633
0.196349
0.11199
0.0998141
0.0958191
0.0941357
0.0943578
0.0945751
0.0947621
0.0949529
0.0951437
0.0953329
0.0955214
0.0957091
0.0958921
0.0960605
0.0962149
0.0963552
0.0964815
0.0965939
0.0966927
0.0967785
0.0968521
0.0969152
0.0969692
0.0970156
0.0970472
0.097069
0.0970851
0.0970986
0.0971115
0.0971249
0.0971293
0.0971314
0.0971352
0.0971738
0.0976511
0.0970199
0.0971097
0.0971389
0.0971424
0.0971421
0.0970409
0.0871728
0.0814306
0.0790961
0.0777542
0.0771291
0.0768194
0.0767242
0.0767095
0.076756
0.076846
0.076966
0.0771009
0.077227
0.0773461
0.0774571
0.0775595
0.077653
0.0777369
0.0778113
0.0778775
0.0779381
0.0779959
0.0780508
0.0780821
0.0781011
0.078115
0.0781292
0.0781478
0.0781695
0.0781735
0.0781745
0.0781699
0.0781592
0.0779994
0.0781231
0.0781737
0.0781864
0.0781823
0.0781785
0.0903222
0.0836704
0.0785311
0.075339
0.0733911
0.0722174
0.0714917
0.071052
0.0708277
0.0707602
0.0707678
0.0708421
0.0709356
0.0710202
0.0711085
0.0711974
0.0712838
0.0713655
0.0714412
0.071511
0.0715762
0.0716418
0.0717177
0.0717864
0.0718131
0.0718302
0.0718436
0.0718601
0.071891
0.0719214
0.0719203
0.0719074
0.0719049
0.0719252
0.0720327
0.0719993
0.0719607
0.0719309
0.0719142
0.0719015
0.0853831
0.080446
0.0767112
0.0739816
0.072041
0.0706955
0.0697864
0.0691953
0.0688459
0.0685966
0.0685323
0.068559
0.0685805
0.0686099
0.0686641
0.0687305
0.0688011
0.0688716
0.0689397
0.0690048
0.0690691
0.0691419
0.0692531
0.0693803
0.0694166
0.0694372
0.0694506
0.0694688
0.069514
0.0695505
0.0695391
0.0695269
0.0695176
0.0695252
0.0695619
0.0695411
0.0695496
0.0695401
0.0695255
0.0695124
0.0822222
0.078663
0.0757215
0.0734035
0.0716432
0.0703489
0.0694297
0.0688049
0.0684093
0.0681603
0.0680323
0.068056
0.0681141
0.0681545
0.0682098
0.0682736
0.0683405
0.0684072
0.068472
0.0685344
0.0685965
0.0686668
0.0687714
0.0688493
0.0688537
0.0688642
0.0688715
0.068889
0.0689389
0.0689788
0.0689642
0.0689497
0.0689408
0.0689478
0.0689924
0.0690254
0.069004
0.0689799
0.0689567
0.0689395
0.0831019
0.0794335
0.0764598
0.0741446
0.072403
0.071137
0.07025
0.0696565
0.0692994
0.0690403
0.0689723
0.0690108
0.0690691
0.0691095
0.0691662
0.0692315
0.0693002
0.0693686
0.0694346
0.0694974
0.0695587
0.0696249
0.0697166
0.0697871
0.0697963
0.0698096
0.0698194
0.0698385
0.0698897
0.0699294
0.0699145
0.0699007
0.0698928
0.0699035
0.0699561
0.0700113
0.0699852
0.0699524
0.0699226
0.069903
0.0856147
0.0814104
0.07815
0.0757678
0.0741012
0.0729649
0.0722535
0.0718051
0.0715638
0.0714853
0.0714936
0.0716502
0.0716647
0.0717187
0.0717877
0.0718648
0.0719437
0.07202
0.0720917
0.0721581
0.0722202
0.0722819
0.0723497
0.0724109
0.0724354
0.0724529
0.072468
0.0724869
0.0725206
0.072554
0.0725521
0.0725403
0.0725407
0.0725506
0.0725882
0.0726884
0.0726882
0.0726289
0.0725796
0.0725477
0.089373
0.0847743
0.0814149
0.079345
0.0783341
0.0778106
0.0775383
0.0774472
0.0774293
0.0774698
0.0775514
0.0774958
0.0777054
0.0778854
0.078018
0.0781293
0.0782286
0.0783183
0.0783989
0.0784708
0.0785349
0.0785939
0.0786497
0.0787041
0.0787345
0.0787547
0.0787707
0.0787872
0.0788086
0.0788337
0.0788368
0.0788385
0.0788398
0.0788503
0.0789037
0.0792069
0.0790457
0.0789161
0.0788619
0.0788372
0.112002
0.0998074
0.0957942
0.0945926
0.094473
0.0945695
0.0947508
0.0949492
0.0951447
0.0953364
0.0955272
0.0957149
0.0958966
0.096064
0.0962147
0.0963511
0.0964742
0.0965843
0.0966814
0.096766
0.0968389
0.0969016
0.0969553
0.0970029
0.0970344
0.0970571
0.0970749
0.0970903
0.0971047
0.0971211
0.0971262
0.0971279
0.0971298
0.0971346
0.0971558
0.0973325
0.09722
0.097151
0.0971295
0.0971249
0.218713
0.193898
0.187975
0.187117
0.187202
0.187712
0.188365
0.18899
0.189552
0.190061
0.190529
0.190972
0.19137
0.191726
0.192042
0.192327
0.192581
0.192805
0.192998
0.193164
0.193301
0.193412
0.193498
0.193561
0.193611
0.193651
0.193683
0.193707
0.19372
0.193726
0.193731
0.193736
0.193741
0.193738
0.19372
0.193651
0.193644
0.19367
0.193706
0.193738
0.178701
0.157978
0.151014
0.148404
0.147365
0.147085
0.14706
0.147179
0.147382
0.14763
0.147901
0.148175
0.148441
0.148693
0.148931
0.149152
0.149353
0.149533
0.149692
0.149828
0.149943
0.150037
0.15011
0.150164
0.150207
0.150241
0.150268
0.150288
0.1503
0.150305
0.150309
0.150312
0.150312
0.150303
0.150267
0.150173
0.150195
0.150243
0.150286
0.150316
0.0893789
0.0847923
0.0814393
0.0796335
0.0784311
0.0778592
0.0775638
0.0774636
0.0774394
0.0774752
0.0775558
0.0776685
0.0777971
0.0779182
0.0780321
0.0781386
0.0782368
0.0783264
0.078407
0.0784787
0.0785425
0.0786012
0.0786573
0.0787107
0.0787422
0.0787623
0.0787776
0.0787933
0.078813
0.0788359
0.078841
0.0788414
0.0788471
0.07887
0.0789749
0.0792464
0.0790358
0.0789179
0.0788705
0.0788486
0.0823346
0.0772102
0.0735142
0.0709937
0.0694068
0.0685398
0.0679025
0.0675058
0.0672893
0.0672104
0.0671986
0.067254
0.0673386
0.0674043
0.067473
0.0675422
0.0676101
0.0676751
0.0677363
0.067794
0.0678506
0.0679121
0.0679876
0.0680605
0.0680842
0.0680964
0.0681081
0.0681288
0.0681664
0.0682099
0.0682139
0.0681997
0.068202
0.0682113
0.0682258
0.0682653
0.068261
0.0682443
0.0682147
0.0681884
0.08251
0.0775371
0.0736794
0.0707829
0.068712
0.06727
0.066215
0.065638
0.065244
0.0650104
0.0649084
0.064939
0.0649904
0.0650007
0.0650273
0.0650638
0.0651061
0.0651519
0.0651992
0.0652489
0.0653053
0.0653808
0.0655077
0.0655958
0.0655872
0.0655917
0.0655963
0.0656224
0.0657055
0.065761
0.0657326
0.0657094
0.0657002
0.0657193
0.0657993
0.0658423
0.0657942
0.0657455
0.0657012
0.0656702
0.0828124
0.0780979
0.074379
0.0715079
0.0693382
0.067724
0.0665434
0.0657093
0.0651108
0.0647949
0.0646394
0.0646558
0.0647025
0.064671
0.0646655
0.0646741
0.0646931
0.0647204
0.0647548
0.0647974
0.0648549
0.0649458
0.0651126
0.0652114
0.065187
0.0651672
0.0651611
0.0651879
0.0652878
0.0653523
0.0653116
0.0652791
0.0652662
0.0652917
0.0653947
0.0654479
0.0653851
0.0653204
0.0652619
0.0652205
0.0827918
0.07817
0.0745578
0.0717566
0.0696116
0.0679942
0.066798
0.0659337
0.0653274
0.0649429
0.064747
0.0647704
0.0648112
0.0647594
0.064759
0.0647635
0.0647766
0.064798
0.0648277
0.0648669
0.0649225
0.0650142
0.0651888
0.0652896
0.0652564
0.0652152
0.0652158
0.0652452
0.0653514
0.0654197
0.0653752
0.06534
0.0653247
0.0653581
0.0654753
0.0655359
0.0654648
0.0653906
0.0653244
0.065278
0.0819345
0.0775559
0.0741105
0.0714284
0.0693743
0.0678234
0.0666887
0.0658764
0.0652943
0.0649942
0.0648362
0.0648398
0.0648635
0.0648329
0.0648258
0.0648339
0.0648531
0.0648811
0.0649159
0.064958
0.0650126
0.0650952
0.0652424
0.0653436
0.0653302
0.0653194
0.0653209
0.0653527
0.0654545
0.0655216
0.0654815
0.0654505
0.0654337
0.0654834
0.065624
0.0656679
0.0655823
0.0655062
0.0654421
0.0653978
0.0807479
0.0766031
0.07329
0.0707077
0.068796
0.0674069
0.066464
0.0658932
0.0655081
0.0652897
0.0651744
0.0652315
0.0652771
0.0652646
0.0652768
0.0653048
0.0653423
0.0653853
0.0654312
0.06548
0.0655356
0.065609
0.0657281
0.0658151
0.0658096
0.0658146
0.0658235
0.0658537
0.0659377
0.0659964
0.0659668
0.0659436
0.0659291
0.0659613
0.0660534
0.066115
0.0660632
0.0660059
0.0659524
0.0659131
0.0823322
0.0772164
0.073515
0.07096
0.0693379
0.0684908
0.0678725
0.0674875
0.0672814
0.0672138
0.0672263
0.0672768
0.0673246
0.0673874
0.0674559
0.0675256
0.0675936
0.0676589
0.0677207
0.067779
0.067836
0.0678978
0.0679702
0.0680445
0.0680661
0.0680791
0.0680927
0.0681154
0.0681557
0.0682037
0.0682027
0.0681942
0.0681927
0.0682082
0.0682489
0.068294
0.0682904
0.068254
0.06821
0.0681735
0.0972062
0.0873927
0.0816878
0.0790157
0.0777319
0.0771149
0.076813
0.0767224
0.0767121
0.0767641
0.0768627
0.0769891
0.0771093
0.0772267
0.0773398
0.0774471