/*--------------------------------*- C++ -*----------------------------------*\
| =========                 |                                                 |
| \\      /  F ield         | OpenFOAM: The Open Source CFD Toolbox           |
|  \\    /   O peration     | Version:  2212                                  |
|   \\  /    A nd           | Website:  www.openfoam.com                      |
|    \\/     M anipulation  |                                                 |
\*---------------------------------------------------------------------------*/
FoamFile
{
    version     2.0;
    format      ascii;
    arch        "LSB;label=32;scalar=64";
    class       volScalarField;
    location    "0.3";
    object      k;
}
// * * * * * * * * * * * * * * * * * * * * * * * * * * * * * * * * * * * * * //

dimensions      [0 2 -2 0 0 0 0];

internalField   nonuniform List<scalar> 
6840
(
0.213564
0.0559159
0.0283995
0.0193416
0.0146945
0.0118528
0.00989965
0.00853275
0.00752238
0.00675218
0.00615589
0.00569175
0.00533163
0.00505726
0.00484235
0.00466717
0.00453223
0.00443015
0.0043681
0.00435801
0.264759
0.104702
0.0585313
0.0391686
0.028633
0.022022
0.0175904
0.0144564
0.0121616
0.0104493
0.00914953
0.00815671
0.00739214
0.00681188
0.00636305
0.00600487
0.00572739
0.00551255
0.00532425
0.00512255
0.283364
0.126774
0.0717032
0.0473325
0.0338714
0.0256801
0.0205018
0.0168693
0.014182
0.0121531
0.0105813
0.00936444
0.00842237
0.00769344
0.0071283
0.00668847
0.00634553
0.00606906
0.00583901
0.00567832
0.292299
0.141633
0.0819312
0.0541695
0.0389278
0.0293072
0.0233182
0.0191613
0.0160708
0.0137533
0.0119523
0.0105452
0.00944497
0.00858458
0.00791151
0.0073853
0.00697357
0.00664906
0.00639029
0.00623595
0.295943
0.148782
0.0871953
0.0576789
0.0415233
0.0310914
0.0246911
0.0203035
0.0170432
0.0145677
0.012644
0.0111406
0.00996289
0.0090391
0.00831411
0.00774495
0.00729759
0.00694519
0.00667121
0.00652122
0.295943
0.148782
0.0871954
0.0576789
0.0415234
0.0310915
0.0246913
0.0203037
0.0170434
0.0145681
0.0126445
0.0111414
0.00996395
0.00904057
0.00831637
0.00774843
0.00730293
0.00695313
0.00668094
0.00650531
0.292299
0.141633
0.0819313
0.0541696
0.038928
0.0293074
0.0233185
0.0191617
0.0160714
0.0137541
0.0119534
0.0105468
0.00944741
0.0085887
0.00791749
0.00739406
0.00698694
0.00667023
0.00642042
0.00622892
0.283364
0.126774
0.0717033
0.0473326
0.0338715
0.0256803
0.020502
0.0168696
0.0141824
0.0121538
0.0105823
0.00936597
0.00842473
0.00769726
0.00713422
0.00669782
0.00636082
0.00609494
0.00588787
0.0057571
0.264759
0.104702
0.0585313
0.0391686
0.028633
0.0220221
0.0175904
0.0144565
0.0121617
0.0104495
0.00914988
0.00815725
0.00739302
0.0068134
0.00636592
0.00600988
0.00573564
0.0055322
0.00537912
0.00528229
0.213564
0.0559159
0.0283995
0.0193416
0.0146945
0.0118527
0.00989965
0.00853275
0.00752237
0.00675224
0.0061558
0.0056917
0.00533184
0.00505748
0.0048425
0.00466722
0.0045322
0.00443017
0.00436814
0.00435798
0.264759
0.104702
0.0585313
0.0391686
0.028633
0.0220221
0.0175904
0.0144565
0.0121617
0.0104495
0.00914984
0.00815722
0.00739299
0.00681329
0.00636567
0.00600959
0.00573531
0.00553212
0.005379
0.00528229
0.311746
0.197542
0.130361
0.0911597
0.0668374
0.0508837
0.0399295
0.0321427
0.0264574
0.0222273
0.0190377
0.0166123
0.0147582
0.0133383
0.0122561
0.0114083
0.0107457
0.0102232
0.0097713
0.00926268
0.31754
0.217755
0.151089
0.108561
0.0807453
0.0619364
0.0487996
0.0393554
0.032403
0.0271909
0.0232323
0.0201989
0.0178633
0.01606
0.0146667
0.0135838
0.0127365
0.0120668
0.0114972
0.0109206
0.319723
0.227074
0.162236
0.118784
0.089389
0.0690538
0.0546484
0.0441912
0.0364351
0.030584
0.0261128
0.0226655
0.0199922
0.0179122
0.0162905
0.0150234
0.0140293
0.0132427
0.012598
0.0119693
0.320484
0.230861
0.167179
0.123541
0.0935427
0.0725415
0.0575552
0.0466228
0.0384821
0.0323183
0.0275924
0.0239374
0.0210946
0.0188756
0.0171395
0.0157784
0.0147078
0.0138597
0.0131755
0.0125827
0.320484
0.230861
0.167179
0.123542
0.0935428
0.0725417
0.0575555
0.0466232
0.0384825
0.0323189
0.0275932
0.0239386
0.0210962
0.0188778
0.0171427
0.0157833
0.0147153
0.0138719
0.0131981
0.0126402
0.319723
0.227074
0.162236
0.118784
0.0893892
0.0690541
0.0546489
0.0441919
0.036436
0.0305852
0.0261146
0.0226679
0.0199957
0.0179176
0.0162985
0.0150351
0.0140472
0.0132726
0.0126554
0.0121262
0.31754
0.217755
0.151089
0.108561
0.0807455
0.0619367
0.0487999
0.0393558
0.0324036
0.0271918
0.0232336
0.0202008
0.017866
0.0160644
0.0146733
0.0135938
0.0127526
0.0120945
0.0115507
0.0110328
0.311746
0.197542
0.130361
0.0911597
0.0668374
0.0508837
0.0399295
0.0321427
0.0264574
0.0222273
0.0190378
0.0166124
0.0147582
0.0133384
0.0122563
0.0114085
0.010746
0.0102236
0.00977145
0.00926276
0.264759
0.104702
0.0585313
0.0391686
0.028633
0.022022
0.0175904
0.0144564
0.0121616
0.0104493
0.00914957
0.00815674
0.00739217
0.00681193
0.00636319
0.00600503
0.0057276
0.0055125
0.00532432
0.00512259
0.283364
0.126774
0.0717033
0.0473326
0.0338715
0.0256803
0.020502
0.0168696
0.0141824
0.0121538
0.0105823
0.00936596
0.00842469
0.00769703
0.00713388
0.00669745
0.00636045
0.00609465
0.00588766
0.00575692
0.31754
0.217755
0.151089
0.108561
0.0807455
0.0619367
0.0487999
0.0393558
0.0324036
0.0271918
0.0232336
0.0202008
0.017866
0.0160641
0.0146729
0.0135934
0.0127521
0.012094
0.0115503
0.0110325
0.322005
0.239027
0.177592
0.133628
0.102352
0.0799289
0.0636301
0.0515937
0.0425692
0.0357145
0.0304548
0.0263894
0.0232321
0.0207735
0.0188566
0.0173586
0.016183
0.0152537
0.0144944
0.0138215
0.323293
0.245618
0.187503
0.144549
0.112893
0.0894652
0.0719807
0.0587938
0.0487406
0.0410015
0.0349969
0.0303115
0.0266424
0.023763
0.0215004
0.0197197
0.0183132
0.0171916
0.0162703
0.01544
0.323714
0.24782
0.191103
0.148822
0.117278
0.0936322
0.0757744
0.0621665
0.051701
0.0435843
0.0372462
0.0322727
0.0283581
0.0252719
0.0228363
0.020912
0.0193872
0.0181687
0.0171713
0.0162952
0.323714
0.24782
0.191103
0.148822
0.117278
0.0936323
0.0757746
0.0621667
0.0517012
0.0435847
0.0372467
0.0322734
0.0283591
0.0252732
0.0228381
0.0209145
0.0193914
0.0181769
0.0171913
0.0163556
0.323293
0.245618
0.187503
0.144549
0.112893
0.0894654
0.071981
0.0587942
0.048741
0.0410021
0.0349977
0.0303127
0.026644
0.0237651
0.0215034
0.0197242
0.0183206
0.0172058
0.0163044
0.0155444
0.322005
0.239027
0.177592
0.133628
0.102352
0.0799289
0.0636301
0.0515937
0.0425692
0.0357145
0.0304548
0.0263895
0.0232321
0.0207735
0.0188565
0.0173586
0.0161831
0.0152539
0.0144946
0.0138216
0.31754
0.217755
0.151089
0.108561
0.0807453
0.0619365
0.0487996
0.0393554
0.032403
0.0271909
0.0232323
0.0201989
0.0178632
0.0160599
0.0146667
0.0135838
0.0127366
0.0120669
0.0114973
0.0109206
0.283364
0.126774
0.0717032
0.0473325
0.0338714
0.0256801
0.0205018
0.0168693
0.014182
0.0121531
0.0105813
0.00936444
0.00842234
0.0076934
0.00712825
0.00668844
0.00634556
0.00606911
0.00583904
0.00567822
0.292299
0.141633
0.0819313
0.0541696
0.038928
0.0293074
0.0233185
0.0191617
0.0160714
0.0137541
0.0119534
0.0105468
0.00944731
0.00858807
0.0079168
0.00739345
0.00698645
0.00666983
0.00642011
0.00622861
0.319723
0.227074
0.162236
0.118784
0.0893892
0.0690541
0.0546489
0.0441919
0.036436
0.0305852
0.0261146
0.0226679
0.0199957
0.0179173
0.0162979
0.0150346
0.0140468
0.0132722
0.0126551
0.0121258
0.323293
0.245618
0.187503
0.144549
0.112893
0.0894653
0.071981
0.0587942
0.048741
0.0410021
0.0349977
0.0303127
0.0266439
0.0237652
0.0215035
0.0197243
0.0183206
0.0172058
0.0163044
0.0155446
0.324288
0.250864
0.196135
0.154901
0.123622
0.0997437
0.0813941
0.0671932
0.0561274
0.0474521
0.0406181
0.0352172
0.030941
0.0275533
0.0248687
0.0227402
0.0210486
0.0196942
0.0185882
0.0176415
0.32459
0.252404
0.198915
0.158557
0.127722
0.103937
0.0854431
0.0709627
0.0595558
0.0505255
0.0433504
0.0376367
0.0330827
0.0294534
0.0265619
0.0242582
0.0224193
0.0209403
0.0197261
0.0186761
0.32459
0.252404
0.198915
0.158557
0.127723
0.103937
0.0854432
0.0709627
0.0595559
0.0505256
0.0433506
0.037637
0.0330831
0.0294538
0.0265624
0.0242589
0.0224205
0.0209432
0.0197343
0.018703
0.324288
0.250864
0.196135
0.154901
0.123622
0.0997438
0.0813941
0.0671932
0.0561274
0.0474521
0.0406182
0.0352173
0.0309413
0.0275533
0.0248685
0.02274
0.0210485
0.0196941
0.0185881
0.0176412
0.323293
0.245618
0.187503
0.144549
0.112893
0.0894652
0.0719807
0.0587939
0.0487406
0.0410015
0.0349969
0.0303116
0.0266425
0.0237629
0.0215003
0.0197196
0.0183132
0.0171917
0.0162703
0.01544
0.319723
0.227074
0.162236
0.118784
0.089389
0.0690538
0.0546484
0.0441912
0.0364351
0.030584
0.0261129
0.0226655
0.0199922
0.0179122
0.0162904
0.0150234
0.0140293
0.0132428
0.0125982
0.0119694
0.292299
0.141633
0.0819312
0.0541695
0.0389278
0.0293072
0.0233182
0.0191613
0.0160708
0.0137533
0.0119523
0.0105452
0.00944496
0.00858456
0.0079115
0.00738531
0.00697362
0.00664915
0.00639036
0.00623587
0.295943
0.148782
0.0871954
0.0576789
0.0415234
0.0310915
0.0246913
0.0203037
0.0170434
0.0145681
0.0126445
0.0111414
0.00996398
0.00904072
0.00831651
0.00774853
0.00730298
0.00695315
0.00668092
0.00650527
0.320484
0.230861
0.167179
0.123542
0.0935428
0.0725417
0.0575555
0.0466232
0.0384825
0.0323189
0.0275932
0.0239386
0.0210962
0.0188779
0.0171429
0.0157834
0.0147154
0.0138719
0.0131981
0.0126401
0.323714
0.24782
0.191103
0.148822
0.117278
0.0936323
0.0757746
0.0621667
0.0517012
0.0435846
0.0372467
0.0322733
0.028359
0.0252731
0.0228381
0.0209146
0.0193915
0.018177
0.0171914
0.0163559
0.32459
0.252404
0.198915
0.158557
0.127723
0.103937
0.0854432
0.0709627
0.0595559
0.0505256
0.0433505
0.0376369
0.0330829
0.0294537
0.0265624
0.024259
0.0224207
0.0209434
0.0197345
0.0187035
0.324844
0.253687
0.201315
0.161852
0.131571
0.108014
0.0894992
0.0748326
0.0631462
0.0537954
0.0462939
0.0402689
0.0354303
0.0315483
0.0284371
0.0259451
0.023946
0.0223302
0.0209958
0.0198318
0.324844
0.253687
0.201315
0.161852
0.131571
0.108014
0.0894992
0.0748326
0.0631462
0.0537955
0.0462939
0.0402689
0.0354304
0.0315484
0.0284372
0.025945
0.0239459
0.0223301
0.0209957
0.0198316
0.32459
0.252404
0.198915
0.158557
0.127723
0.103937
0.0854432
0.0709627
0.0595559
0.0505256
0.0433505
0.0376369
0.033083
0.0294534
0.0265616
0.024258
0.0224192
0.0209402
0.019726
0.018676
0.323714
0.24782
0.191103
0.148822
0.117278
0.0936322
0.0757744
0.0621665
0.051701
0.0435843
0.0372463
0.0322728
0.0283582
0.0252718
0.0228361
0.0209118
0.0193872
0.0181688
0.0171713
0.0162952
0.320484
0.230861
0.167179
0.123541
0.0935427
0.0725415
0.0575553
0.0466228
0.0384821
0.0323183
0.0275924
0.0239374
0.0210946
0.0188756
0.0171394
0.0157784
0.0147079
0.0138598
0.0131757
0.012583
0.295943
0.148782
0.0871953
0.0576789
0.0415233
0.0310914
0.0246911
0.0203035
0.0170432
0.0145677
0.012644
0.0111406
0.00996289
0.00903912
0.00831415
0.00774501
0.00729768
0.00694531
0.00667137
0.00652152
0.295943
0.148782
0.0871953
0.0576789
0.0415233
0.0310914
0.0246911
0.0203035
0.0170432
0.0145677
0.012644
0.0111406
0.0099629
0.00903915
0.00831418
0.00774502
0.00729765
0.00694525
0.00667127
0.00652136
0.320484
0.230861
0.167179
0.123541
0.0935427
0.0725415
0.0575552
0.0466228
0.0384821
0.0323183
0.0275924
0.0239374
0.0210946
0.0188756
0.0171395
0.0157785
0.0147079
0.0138598
0.0131756
0.0125828
0.323714
0.24782
0.191103
0.148822
0.117278
0.0936322
0.0757744
0.0621665
0.051701
0.0435843
0.0372462
0.0322727
0.0283581
0.0252719
0.0228363
0.020912
0.0193873
0.0181688
0.0171714
0.0162953
0.32459
0.252404
0.198915
0.158557
0.127722
0.103937
0.0854432
0.0709627
0.0595558
0.0505255
0.0433504
0.0376367
0.0330827
0.0294533
0.0265619
0.0242583
0.0224194
0.0209404
0.0197262
0.0186763
0.324844
0.253687
0.201315
0.161852
0.131571
0.108014
0.0894992
0.0748326
0.0631462
0.0537954
0.0462939
0.0402689
0.0354303
0.0315483
0.0284371
0.0259451
0.023946
0.0223302
0.0209958
0.0198318
0.324844
0.253687
0.201315
0.161852
0.131571
0.108014
0.0894992
0.0748327
0.0631462
0.0537955
0.0462939
0.040269
0.0354304
0.0315484
0.0284372
0.025945
0.0239459
0.0223301
0.0209957
0.0198317
0.32459
0.252404
0.198915
0.158557
0.127723
0.103937
0.0854433
0.0709628
0.0595559
0.0505257
0.0433507
0.0376371
0.0330833
0.0294537
0.0265621
0.0242588
0.0224205
0.0209432
0.0197344
0.0187032
0.323714
0.24782
0.191103
0.148822
0.117279
0.0936323
0.0757746
0.0621668
0.0517013
0.0435847
0.0372468
0.0322735
0.0283592
0.0252731
0.0228379
0.0209145
0.0193914
0.018177
0.0171914
0.0163558
0.320484
0.230861
0.167179
0.123542
0.0935428
0.0725417
0.0575555
0.0466232
0.0384826
0.0323189
0.0275933
0.0239386
0.0210963
0.0188779
0.0171428
0.0157834
0.0147154
0.0138721
0.0131983
0.0126404
0.295943
0.148782
0.0871954
0.0576789
0.0415234
0.0310915
0.0246913
0.0203037
0.0170434
0.0145681
0.0126445
0.0111414
0.00996398
0.0090407
0.0083165
0.00774854
0.00730302
0.00695323
0.00668106
0.0065055
0.292299
0.141633
0.0819312
0.0541695
0.0389278
0.0293072
0.0233182
0.0191613
0.0160708
0.0137533
0.0119523
0.0105452
0.00944498
0.0085846
0.00791154
0.00738533
0.00697361
0.00664909
0.00639028
0.00623575
0.319723
0.227074
0.162236
0.118784
0.089389
0.0690538
0.0546484
0.0441912
0.0364351
0.030584
0.0261129
0.0226655
0.0199922
0.0179122
0.0162905
0.0150235
0.0140293
0.0132427
0.012598
0.0119692
0.323293
0.245618
0.187503
0.144549
0.112893
0.0894652
0.0719807
0.0587939
0.0487406
0.0410015
0.0349969
0.0303116
0.0266424
0.023763
0.0215005
0.0197197
0.0183133
0.0171917
0.0162703
0.01544
0.324288
0.250864
0.196135
0.154901
0.123622
0.0997438
0.0813941
0.0671932
0.0561274
0.0474521
0.0406182
0.0352172
0.0309411
0.0275533
0.0248688
0.0227402
0.0210486
0.0196942
0.0185882
0.0176413
0.32459
0.252404
0.198915
0.158557
0.127723
0.103937
0.0854433
0.0709628
0.0595559
0.0505256
0.0433506
0.0376369
0.033083
0.0294537
0.0265624
0.024259
0.0224206
0.0209433
0.0197344
0.0187032
0.32459
0.252404
0.198915
0.158557
0.127723
0.103937
0.0854432
0.0709627
0.0595558
0.0505255
0.0433505
0.0376368
0.0330828
0.0294535
0.0265619
0.0242582
0.0224192
0.0209403
0.0197261
0.0186761
0.324288
0.250864
0.196135
0.154901
0.123622
0.0997438
0.0813941
0.0671932
0.0561274
0.0474521
0.0406183
0.0352174
0.0309413
0.0275533
0.0248685
0.02274
0.0210485
0.0196942
0.0185882
0.0176414
0.323293
0.245618
0.187503
0.144549
0.112893
0.0894654
0.071981
0.0587942
0.0487411
0.0410021
0.0349978
0.0303128
0.0266441
0.0237652
0.0215034
0.0197242
0.0183206
0.0172058
0.0163045
0.0155445
0.319723
0.227074
0.162236
0.118784
0.0893892
0.0690541
0.0546489
0.044192
0.0364361
0.0305854
0.0261147
0.0226681
0.0199958
0.0179173
0.0162979
0.0150346
0.0140469
0.0132724
0.0126554
0.0121263
0.292299
0.141633
0.0819313
0.0541696
0.038928
0.0293074
0.0233186
0.0191618
0.0160715
0.0137542
0.0119535
0.0105469
0.00944735
0.00858809
0.00791681
0.00739349
0.00698652
0.00666995
0.0064203
0.00622895
0.283364
0.126774
0.0717032
0.0473325
0.0338714
0.0256801
0.0205018
0.0168693
0.014182
0.0121531
0.0105813
0.00936444
0.00842237
0.00769345
0.00712831
0.00668848
0.00634555
0.00606907
0.00583898
0.00567813
0.31754
0.217755
0.151089
0.108561
0.0807453
0.0619365
0.0487996
0.0393554
0.032403
0.0271909
0.0232323
0.0201989
0.0178633
0.01606
0.0146668
0.0135838
0.0127366
0.0120668
0.0114972
0.0109205
0.322005
0.239027
0.177592
0.133628
0.102352
0.0799289
0.0636301
0.0515937
0.0425692
0.0357145
0.0304548
0.0263895
0.0232321
0.0207736
0.0188566
0.0173587
0.0161831
0.0152538
0.0144945
0.0138214
0.323293
0.245618
0.187503
0.144549
0.112893
0.0894654
0.071981
0.0587942
0.048741
0.0410021
0.0349977
0.0303127
0.026644
0.0237652
0.0215036
0.0197243
0.0183206
0.0172058
0.0163043
0.0155444
0.323714
0.24782
0.191103
0.148822
0.117279
0.0936323
0.0757746
0.0621667
0.0517013
0.0435847
0.0372467
0.0322734
0.0283591
0.0252732
0.0228381
0.0209146
0.0193915
0.018177
0.0171913
0.0163557
0.323714
0.24782
0.191103
0.148822
0.117278
0.0936323
0.0757745
0.0621665
0.051701
0.0435843
0.0372463
0.0322728
0.0283582
0.025272
0.0228363
0.020912
0.0193872
0.0181688
0.0171714
0.0162952
0.323293
0.245618
0.187503
0.144549
0.112893
0.0894652
0.0719808
0.0587938
0.0487406
0.0410015
0.034997
0.0303117
0.0266425
0.0237629
0.0215003
0.0197197
0.0183133
0.0171918
0.0162705
0.0154402
0.322005
0.239027
0.177592
0.133628
0.102352
0.0799289
0.0636301
0.0515937
0.0425693
0.0357146
0.0304549
0.0263896
0.0232322
0.0207736
0.0188566
0.0173587
0.0161832
0.015254
0.0144947
0.0138217
0.31754
0.217755
0.151089
0.108561
0.0807455
0.0619367
0.0488
0.0393559
0.0324038
0.0271919
0.0232337
0.0202009
0.0178661
0.0160641
0.0146729
0.0135935
0.0127523
0.0120943
0.0115507
0.0110329
0.283364
0.126774
0.0717033
0.0473326
0.0338715
0.0256803
0.020502
0.0168697
0.0141825
0.0121539
0.0105824
0.00936603
0.00842472
0.00769704
0.00713388
0.00669747
0.00636053
0.00609477
0.00588782
0.00575722
0.264759
0.104702
0.0585313
0.0391686
0.028633
0.022022
0.0175904
0.0144564
0.0121616
0.0104493
0.00914954
0.00815672
0.00739215
0.00681189
0.00636306
0.00600487
0.0057274
0.00551254
0.00532422
0.00512249
0.311746
0.197542
0.130361
0.0911597
0.0668374
0.0508837
0.0399295
0.0321427
0.0264574
0.0222273
0.0190378
0.0166124
0.0147582
0.0133383
0.0122561
0.0114083
0.0107458
0.0102233
0.00977127
0.00926256
0.31754
0.217755
0.151089
0.108561
0.0807455
0.0619367
0.0487999
0.0393558
0.0324037
0.0271918
0.0232336
0.0202008
0.0178661
0.0160642
0.014673
0.0135934
0.0127522
0.0120941
0.0115504
0.0110326
0.319723
0.227074
0.162236
0.118784
0.0893892
0.0690541
0.0546489
0.0441919
0.036436
0.0305853
0.0261147
0.022668
0.0199958
0.0179173
0.016298
0.0150346
0.0140468
0.0132722
0.0126552
0.0121261
0.320484
0.230861
0.167179
0.123542
0.0935428
0.0725416
0.0575555
0.0466233
0.0384826
0.032319
0.0275933
0.0239387
0.0210963
0.018878
0.0171429
0.0157834
0.0147154
0.013872
0.0131982
0.0126402
0.320484
0.230861
0.167179
0.123541
0.0935427
0.0725415
0.0575553
0.0466229
0.0384822
0.0323184
0.0275925
0.0239375
0.0210947
0.0188756
0.0171395
0.0157784
0.0147079
0.0138599
0.0131757
0.012583
0.319723
0.227074
0.162236
0.118784
0.089389
0.0690538
0.0546484
0.0441912
0.0364352
0.0305841
0.026113
0.0226655
0.0199922
0.0179126
0.0162912
0.0150241
0.0140299
0.0132433
0.0125985
0.0119696
0.31754
0.217755
0.151089
0.108561
0.0807453
0.0619365
0.0487996
0.0393554
0.032403
0.0271909
0.0232324
0.020199
0.0178634
0.0160604
0.0146673
0.0135844
0.0127371
0.0120674
0.0114977
0.0109209
0.311746
0.197542
0.130361
0.0911597
0.0668374
0.0508838
0.0399295
0.0321428
0.0264575
0.0222274
0.0190379
0.0166125
0.0147583
0.0133385
0.0122564
0.0114086
0.0107461
0.0102237
0.00977161
0.00926295
0.264759
0.104702
0.0585313
0.0391686
0.028633
0.0220221
0.0175905
0.0144565
0.0121618
0.0104495
0.00914994
0.0081573
0.00739306
0.0068134
0.00636585
0.0060098
0.00573559
0.00553218
0.00537914
0.00528239
0.213564
0.0559159
0.0283995
0.0193416
0.0146945
0.0118527
0.00989964
0.00853275
0.00752238
0.00675218
0.00615589
0.00569175
0.00533164
0.00505727
0.00484236
0.00466718
0.00453224
0.00443015
0.00436809
0.00435792
0.264759
0.104702
0.0585313
0.0391686
0.028633
0.0220221
0.0175904
0.0144565
0.0121617
0.0104495
0.00914986
0.00815723
0.007393
0.00681331
0.00636568
0.0060096
0.00573532
0.00553211
0.00537898
0.00528216
0.283364
0.126774
0.0717033
0.0473326
0.0338715
0.0256803
0.020502
0.0168696
0.0141825
0.0121538
0.0105824
0.00936599
0.00842471
0.00769705
0.0071339
0.00669746
0.00636046
0.00609467
0.00588767
0.00575695
0.292299
0.141633
0.0819313
0.0541696
0.038928
0.0293074
0.0233185
0.0191617
0.0160714
0.0137541
0.0119534
0.0105468
0.00944735
0.0085881
0.00791682
0.00739346
0.00698646
0.00666986
0.00642018
0.00622876
0.295943
0.148782
0.0871954
0.0576789
0.0415234
0.0310915
0.0246913
0.0203037
0.0170435
0.0145681
0.0126446
0.0111414
0.00996402
0.00904073
0.0083165
0.00774851
0.00730297
0.00695316
0.00668098
0.0065054
0.295943
0.148782
0.0871953
0.0576789
0.0415234
0.0310914
0.0246912
0.0203036
0.0170433
0.0145678
0.0126441
0.0111407
0.00996294
0.00903906
0.0083141
0.00774499
0.00729768
0.00694532
0.00667138
0.00652152
0.292299
0.141633
0.0819312
0.0541695
0.0389278
0.0293072
0.0233182
0.0191613
0.0160709
0.0137534
0.0119524
0.0105453
0.00944514
0.00858527
0.00791229
0.007386
0.00697417
0.00664957
0.00639064
0.00623605
0.283364
0.126774
0.0717033
0.0473325
0.0338714
0.0256802
0.0205018
0.0168693
0.014182
0.0121531
0.0105814
0.00936449
0.00842245
0.00769373
0.0071287
0.00668891
0.00634599
0.00606944
0.00583929
0.00567841
0.264759
0.104702
0.0585313
0.0391686
0.028633
0.0220221
0.0175904
0.0144564
0.0121617
0.0104493
0.00914962
0.00815679
0.00739222
0.00681205
0.00636335
0.00600521
0.00572779
0.00551268
0.00532447
0.00512272
0.213564
0.0559159
0.0283995
0.0193416
0.0146945
0.0118527
0.00989965
0.00853275
0.00752237
0.00675225
0.00615582
0.00569172
0.00533187
0.00505751
0.00484253
0.00466726
0.00453225
0.00443022
0.0043682
0.00435806
0.00507949
0.00448446
0.00426089
0.0041712
0.00414458
0.00414171
0.00414398
0.00414691
0.00415013
0.00415352
0.00415696
0.00416033
0.00416354
0.00416656
0.0041694
0.00417202
0.00417439
0.00417651
0.00417838
0.00418
0.00418137
0.0041825
0.0041834
0.00418408
0.00418459
0.00418498
0.00418528
0.00418551
0.00418566
0.00418573
0.00418578
0.0041858
0.00418578
0.00418607
0.00418475
0.00418586
0.00418592
0.00418597
0.00418603
0.00418614
0.00529742
0.00484235
0.00470013
0.00466026
0.0046474
0.00464617
0.00464973
0.00465521
0.00466116
0.00466716
0.00467309
0.00467883
0.00468431
0.00468951
0.00469442
0.00469901
0.00470324
0.00470706
0.00471045
0.00471341
0.00471593
0.004718
0.00471962
0.00472083
0.00472172
0.00472242
0.00472297
0.00472338
0.00472364
0.00472375
0.00472383
0.0047239
0.00472395
0.00472364
0.00472191
0.00472393
0.0047245
0.00472448
0.00472453
0.00472464
0.00574975
0.00535203
0.00514164
0.00504211
0.00499941
0.00497441
0.00496707
0.00496499
0.0049662
0.00496933
0.00497357
0.00497838
0.00498346
0.00498863
0.00499376
0.00499872
0.0050034
0.0050077
0.00501157
0.00501499
0.00501792
0.00502034
0.00502221
0.00502359
0.00502462
0.00502543
0.00502608
0.00502655
0.00502683
0.00502697
0.00502708
0.00502722
0.00502738
0.00502775
0.00502911
0.00502893
0.00502851
0.00502826
0.00502822
0.00502829
0.0060287
0.00572529
0.00554664
0.00544096
0.00537884
0.00534326
0.00532328
0.00531154
0.0053081
0.00530823
0.00531064
0.00531446
0.0053192
0.0053245
0.00533001
0.00533549
0.00534072
0.00534559
0.00535002
0.00535395
0.00535733
0.0053601
0.00536218
0.00536365
0.00536473
0.00536559
0.00536627
0.00536677
0.00536705
0.0053672
0.00536736
0.00536753
0.00536769
0.00536766
0.00536706
0.00536725
0.00536763
0.00536803
0.0053684
0.00536871
0.00614124
0.0059248
0.00577478
0.00567286
0.00560476
0.00556039
0.00553285
0.00551731
0.00550668
0.00550414
0.00550459
0.00550709
0.0055113
0.00551642
0.00552197
0.00552757
0.005533
0.0055381
0.00554276
0.00554693
0.00555052
0.00555344
0.00555553
0.00555674
0.00555762
0.00555839
0.00555907
0.00555959
0.00555987
0.00556004
0.00556023
0.00556046
0.00556069
0.00556085
0.00556092
0.00556129
0.00556136
0.00556151
0.00556168
0.00556189
0.00612837
0.00598012
0.00585977
0.00576814
0.00570125
0.00565415
0.0056225
0.0056026
0.00559152
0.00558619
0.00558495
0.00558621
0.0055892
0.00559339
0.00559829
0.00560349
0.00560868
0.00561365
0.00561826
0.0056224
0.005626
0.00562896
0.00563119
0.00563289
0.00563429
0.00563546
0.00563643
0.00563714
0.00563754
0.00563778
0.00563801
0.00563828
0.00563855
0.0056387
0.00563868
0.00563877
0.00563886
0.00563899
0.00563924
0.00563952
0.00624972
0.00601609
0.00585376
0.00574104
0.0056641
0.00561298
0.00558005
0.00556005
0.00555011
0.00554324
0.00554248
0.00554375
0.00554665
0.00555074
0.00555551
0.00556058
0.00556562
0.00557045
0.00557491
0.00557893
0.00558242
0.00558531
0.00558753
0.00558927
0.00559075
0.005592
0.00559301
0.00559375
0.00559415
0.00559438
0.00559463
0.0055949
0.00559516
0.00559526
0.00559511
0.00559496
0.00559493
0.00559507
0.00559538
0.00559572
0.00619313
0.00584777
0.00564105
0.00552001
0.00544976
0.00540888
0.00538533
0.00537352
0.00536539
0.00536408
0.00536505
0.00536711
0.00537099
0.00537574
0.00538084
0.00538596
0.00539091
0.00539553
0.00539976
0.00540352
0.00540679
0.0054095
0.00541163
0.00541329
0.00541465
0.00541577
0.00541669
0.00541737
0.00541777
0.00541799
0.00541819
0.0054184
0.00541858
0.00541861
0.00541837
0.00541779
0.00541758
0.00541776
0.00541821
0.0054187
0.00578904
0.00534906
0.00517041
0.00509753
0.00506853
0.00505429
0.00504615
0.00504461
0.00504544
0.00504804
0.00505184
0.00505735
0.00506201
0.00506642
0.00507093
0.00507544
0.00507981
0.00508391
0.00508764
0.00509096
0.00509384
0.00509623
0.00509812
0.00509958
0.00510073
0.00510168
0.00510245
0.00510303
0.0051034
0.00510358
0.00510372
0.00510386
0.00510395
0.00510387
0.0051033
0.00510113
0.00510117
0.00510199
0.00510289
0.00510364
0.00467218
0.00456187
0.00456967
0.00459788
0.00462714
0.00465128
0.00466706
0.00467841
0.00468723
0.00469467
0.00470135
0.0047079
0.0047138
0.00471902
0.00472375
0.00472813
0.00473219
0.00473588
0.00473918
0.00474207
0.00474453
0.00474657
0.00474819
0.00474941
0.00475035
0.00475111
0.00475172
0.00475219
0.00475249
0.00475263
0.00475271
0.00475279
0.00475284
0.00475275
0.0047523
0.00475049
0.00475032
0.00475093
0.00475171
0.00475249
0.00507945
0.00448382
0.00426077
0.00416861
0.00414282
0.00414114
0.00414388
0.00414703
0.00415033
0.00415372
0.00415711
0.0041606
0.00416379
0.00416678
0.00416951
0.00417201
0.00417429
0.00417636
0.00417819
0.00417978
0.00418114
0.00418227
0.00418317
0.00418387
0.00418441
0.00418483
0.00418516
0.00418542
0.00418558
0.00418567
0.00418573
0.00418575
0.00418576
0.0041857
0.00418563
0.00418499
0.00418482
0.00418494
0.00418526
0.00418563
0.00467252
0.00456295
0.0045715
0.00460162
0.00463017
0.00465272
0.00466742
0.00467836
0.00468708
0.00469455
0.00470129
0.0047075
0.00471324
0.00471855
0.00472348
0.00472804
0.00473222
0.00473599
0.00473933
0.00474225
0.00474474
0.00474679
0.0047484
0.00474961
0.00475052
0.00475125
0.00475183
0.00475228
0.00475256
0.00475269
0.00475276
0.00475281
0.0047528
0.00475232
0.00474983
0.00475159
0.00475226
0.00475254
0.00475285
0.00475319
0.00681145
0.00711173
0.00732405
0.00747062
0.00756049
0.0076165
0.00765321
0.00767922
0.0076993
0.00771616
0.00773113
0.00774471
0.00775719
0.00776882
0.00777974
0.00778994
0.00779933
0.00780783
0.00781541
0.00782203
0.00782767
0.00783229
0.00783586
0.00783848
0.0078405
0.00784215
0.00784351
0.00784451
0.0078451
0.00784533
0.00784552
0.00784573
0.00784587
0.00784556
0.007843
0.00784468
0.00784543
0.00784599
0.0078466
0.00784721
0.00893
0.00883914
0.00881916
0.00882386
0.00884064
0.00885866
0.0088751
0.00889042
0.00890454
0.0089182
0.00893164
0.00894474
0.00895753
0.00897006
0.00898224
0.00899387
0.00900476
0.00901476
0.00902377
0.00903172
0.00903854
0.00904414
0.00904846
0.00905167
0.00905419
0.00905628
0.00905797
0.00905923
0.00905996
0.00906034
0.00906066
0.00906103
0.00906147
0.00906203
0.00906349
0.00906321
0.00906286
0.00906289
0.00906319
0.00906358
0.0104454
0.0101618
0.00998129
0.00986986
0.00980198
0.00976317
0.0097408
0.00973326
0.00973171
0.00973553
0.00974272
0.00975203
0.00976284
0.00977458
0.00978667
0.00979862
0.00981008
0.00982079
0.00983055
0.00983924
0.00984674
0.0098529
0.0098576
0.00986108
0.00986385
0.00986619
0.00986811
0.00986954
0.00987038
0.00987091
0.00987136
0.00987193
0.00987244
0.00987264
0.00987244
0.00987273
0.00987309
0.00987372
0.0098744
0.00987501
0.0113761
0.0110155
0.0107564
0.0105742
0.0104487
0.0103646
0.0103101
0.010278
0.0102602
0.0102547
0.0102547
0.0102591
0.0102668
0.0102767
0.0102878
0.0102992
0.0103105
0.0103213
0.0103313
0.0103403
0.0103481
0.0103546
0.0103595
0.010363
0.0103659
0.0103684
0.0103705
0.0103721
0.0103731
0.0103738
0.0103744
0.010375
0.0103757
0.0103761
0.0103764
0.0103768
0.010377
0.0103774
0.0103779
0.0103785
0.0117461
0.0113889
0.0111122
0.0109047
0.0107536
0.0106469
0.0105744
0.0105277
0.0105003
0.0104858
0.0104818
0.0104826
0.0104874
0.0104951
0.0105046
0.0105152
0.010526
0.0105366
0.0105464
0.0105554
0.0105633
0.0105698
0.010575
0.0105791
0.0105825
0.0105854
0.0105878
0.0105896
0.0105908
0.0105916
0.0105922
0.0105929
0.0105936
0.010594
0.0105943
0.0105945
0.0105947
0.0105952
0.0105957
0.0105963
0.0116161
0.0112853
0.0110174
0.0108123
0.0106619
0.0105558
0.0104837
0.0104372
0.0104098
0.0103951
0.0103909
0.0103913
0.0103956
0.0104029
0.0104122
0.0104226
0.0104331
0.0104434
0.0104531
0.0104619
0.0104696
0.010476
0.0104812
0.0104853
0.0104888
0.0104917
0.0104941
0.0104959
0.010497
0.0104978
0.0104984
0.0104991
0.0104997
0.0105001
0.0105002
0.0105005
0.0105006
0.010501
0.0105014
0.010502
0.0110915
0.0107198
0.0104511
0.0102669
0.0101442
0.0100641
0.0100132
0.00998248
0.00996539
0.00995963
0.00995901
0.00996207
0.00996886
0.00997787
0.00998823
0.00999897
0.0100096
0.0100197
0.010029
0.0100375
0.0100448
0.010051
0.0100558
0.0100598
0.010063
0.0100657
0.0100679
0.0100695
0.0100705
0.0100712
0.0100717
0.0100724
0.0100729
0.0100732
0.0100731
0.0100735
0.0100733
0.0100732
0.0100737
0.0100743
0.00975848
0.00944534
0.00928417
0.00920574
0.0091666
0.00914518
0.00913717
0.00913431
0.009136
0.00914132
0.00914911
0.00915914
0.00916941
0.00917988
0.00919058
0.00920119
0.00921139
0.00922095
0.00922967
0.00923744
0.00924417
0.00924976
0.0092542
0.00925764
0.0092604
0.00926272
0.00926462
0.00926603
0.0092669
0.00926739
0.00926777
0.00926818
0.00926855
0.00926857
0.00926802
0.00926633
0.00926623
0.00926685
0.00926796
0.00926914
0.0068102
0.00710862
0.00732011
0.00746474
0.0075573
0.00761573
0.00765357
0.00767989
0.00769994
0.00771661
0.00773127
0.00774577
0.00775816
0.00776936
0.00777991
0.00778982
0.00779901
0.00780738
0.00781485
0.00782139
0.00782698
0.00783158
0.00783517
0.00783786
0.00783998
0.00784175
0.0078432
0.00784429
0.00784494
0.00784522
0.00784544
0.0078457
0.00784592
0.0078458
0.00784486
0.00784129
0.00784153
0.0078429
0.00784459
0.00784609
0.00529717
0.00484129
0.00469849
0.00465498
0.00464591
0.00464525
0.00464958
0.00465547
0.00466153
0.00466749
0.0046733
0.00467913
0.00468461
0.0046897
0.00469445
0.00469889
0.00470298
0.0047067
0.00471001
0.00471291
0.00471538
0.00471743
0.00471906
0.00472032
0.00472128
0.00472207
0.0047227
0.00472318
0.0047235