/*--------------------------------*- C++ -*----------------------------------*\
| =========                 |                                                 |
| \\      /  F ield         | OpenFOAM: The Open Source CFD Toolbox           |
|  \\    /   O peration     | Version:  2212                                  |
|   \\  /    A nd           | Website:  www.openfoam.com                      |
|    \\/     M anipulation  |                                                 |
\*---------------------------------------------------------------------------*/
FoamFile
{
    version     2.0;
    format      ascii;
    arch        "LSB;label=32;scalar=64";
    class       volScalarField;
    location    "0.3";
    object      nut;
}
// * * * * * * * * * * * * * * * * * * * * * * * * * * * * * * * * * * * * * //

dimensions      [0 2 -1 0 0 0 0];

internalField   nonuniform List<scalar> 
6840
(
4.5356e-05
2.32081e-05
1.65391e-05
1.36498e-05
1.18964e-05
1.06797e-05
9.75475e-06
9.04824e-06
8.47368e-06
7.99626e-06
7.59259e-06
7.24901e-06
6.95467e-06
6.72289e-06
6.53842e-06
6.36715e-06
6.2294e-06
6.12525e-06
6.05334e-06
6.02687e-06
0.000107685
6.77181e-05
5.06298e-05
4.14105e-05
3.53925e-05
3.10108e-05
2.76624e-05
2.49947e-05
2.27929e-05
2.09693e-05
1.94316e-05
1.81428e-05
1.70519e-05
1.614e-05
1.54354e-05
1.48131e-05
1.42982e-05
1.39029e-05
1.3564e-05
1.32588e-05
0.000160509
0.00010736
8.07394e-05
6.55925e-05
5.5483e-05
4.8277e-05
4.3077e-05
3.89791e-05
3.55402e-05
3.27191e-05
3.02864e-05
2.82011e-05
2.64253e-05
2.4931e-05
2.36937e-05
2.26688e-05
2.1844e-05
2.11687e-05
2.05936e-05
2.01074e-05
0.000198681
0.0001383
0.000105186
8.55212e-05
7.24943e-05
6.28603e-05
5.59905e-05
5.06332e-05
4.61441e-05
4.24455e-05
3.92897e-05
3.65636e-05
3.42198e-05
3.2222e-05
3.05315e-05
2.9114e-05
2.79399e-05
2.69793e-05
2.62103e-05
2.56476e-05
0.000218609
0.000155002
0.000118659
9.65013e-05
8.18763e-05
7.08045e-05
6.301e-05
5.70074e-05
5.19916e-05
4.77673e-05
4.42174e-05
4.11442e-05
3.84946e-05
3.62256e-05
3.42988e-05
3.26783e-05
3.13269e-05
3.02101e-05
2.93188e-05
2.874e-05
0.000218609
0.000155002
0.000118659
9.65014e-05
8.18763e-05
7.08046e-05
6.30102e-05
5.70077e-05
5.19921e-05
4.77682e-05
4.42186e-05
4.1146e-05
3.84975e-05
3.62299e-05
3.43054e-05
3.26884e-05
3.13426e-05
3.02334e-05
2.93487e-05
2.87425e-05
0.000198681
0.0001383
0.000105186
8.55213e-05
7.24945e-05
6.28605e-05
5.59909e-05
5.06338e-05
4.6145e-05
4.24472e-05
3.92921e-05
3.65673e-05
3.42256e-05
3.22308e-05
3.05454e-05
2.91361e-05
2.79749e-05
2.70372e-05
2.63101e-05
2.5759e-05
0.000160509
0.00010736
8.07394e-05
6.55926e-05
5.54831e-05
4.82771e-05
4.30773e-05
3.89795e-05
3.5541e-05
3.27203e-05
3.02883e-05
2.8204e-05
2.64301e-05
2.49386e-05
2.37057e-05
2.26882e-05
2.18777e-05
2.12248e-05
2.07037e-05
2.0347e-05
0.000107685
6.77181e-05
5.06298e-05
4.14105e-05
3.53925e-05
3.10109e-05
2.76625e-05
2.49948e-05
2.27931e-05
2.09695e-05
1.9432e-05
1.81437e-05
1.7053e-05
1.61421e-05
1.54404e-05
1.48226e-05
1.43149e-05
1.39399e-05
1.36623e-05
1.35023e-05
4.5356e-05
2.32081e-05
1.65391e-05
1.36498e-05
1.18964e-05
1.06797e-05
9.75474e-06
9.04825e-06
8.47365e-06
7.99631e-06
7.59261e-06
7.24858e-06
6.95446e-06
6.72316e-06
6.53921e-06
6.36786e-06
6.22957e-06
6.12523e-06
6.05343e-06
6.027e-06
0.000107685
6.77181e-05
5.06298e-05
4.14105e-05
3.53925e-05
3.10109e-05
2.76625e-05
2.49948e-05
2.27931e-05
2.09695e-05
1.94321e-05
1.81437e-05
1.70534e-05
1.61425e-05
1.54405e-05
1.48223e-05
1.43132e-05
1.39401e-05
1.36621e-05
1.35022e-05
0.000528907
0.000369986
0.000305109
0.000261417
0.000228654
0.000202761
0.000181686
0.000164124
0.000149283
0.000136696
0.000126038
0.000117065
0.000109461
0.000102961
9.8688e-05
9.35219e-05
8.90353e-05
8.587e-05
8.27798e-05
7.5667e-05
0.000663952
0.000488461
0.000404633
0.000347297
0.000305172
0.000272443
0.000245966
0.000224104
0.000205805
0.000190441
0.000177573
0.000166848
0.000158142
0.000151282
0.000145981
0.000141369
0.000137312
0.00013473
0.000129694
0.000121641
0.00071288
0.000556435
0.000466413
0.000402409
0.000354576
0.000317396
0.000287381
0.00026258
0.000241853
0.000224487
0.000209989
0.000197965
0.000188081
0.000180044
0.000173573
0.000168378
0.00016431
0.000161064
0.000158266
0.000149464
0.000728543
0.000588234
0.000496018
0.000429186
0.000378662
0.000339286
0.000307537
0.000281319
0.000259394
0.000240987
0.000225629
0.000212903
0.000202461
0.000193973
0.000187136
0.000181653
0.000177237
0.00017364
0.000170522
0.000165227
0.000728543
0.000588234
0.000496018
0.000429187
0.000378662
0.000339287
0.000307538
0.000281321
0.000259396
0.000240991
0.000225636
0.000212914
0.000202476
0.000193981
0.000187173
0.00018173
0.000177379
0.000173909
0.000171124
0.000167783
0.00071288
0.000556435
0.000466413
0.000402409
0.000354577
0.000317397
0.000287384
0.000262583
0.000241859
0.000224496
0.000210003
0.000197988
0.000188123
0.000180187
0.000173726
0.000168595
0.000164675
0.00016175
0.00015972
0.000154625
0.000663952
0.000488461
0.000404633
0.000347297
0.000305173
0.000272444
0.000245967
0.000224107
0.00020581
0.000190449
0.000177584
0.000166866
0.000158173
0.000151343
0.000146084
0.00014154
0.000137616
0.00013532
0.000130485
0.000122572
0.000528907
0.000369986
0.000305109
0.000261417
0.000228654
0.000202761
0.000181686
0.000164124
0.000149283
0.000136696
0.000126038
0.000117065
0.000109459
0.00010296
9.86894e-05
9.3522e-05
8.90326e-05
8.58912e-05
8.27745e-05
7.56675e-05
0.000107685
6.77181e-05
5.06298e-05
4.14105e-05
3.53925e-05
3.10108e-05
2.76624e-05
2.49947e-05
2.27929e-05
2.09692e-05
1.94315e-05
1.81429e-05
1.70516e-05
1.61397e-05
1.54354e-05
1.48133e-05
1.42998e-05
1.39024e-05
1.35643e-05
1.32589e-05
0.000160509
0.00010736
8.07394e-05
6.55926e-05
5.54831e-05
4.82771e-05
4.30773e-05
3.89795e-05
3.5541e-05
3.27203e-05
3.02883e-05
2.82041e-05
2.64302e-05
2.49388e-05
2.37059e-05
2.26884e-05
2.18774e-05
2.12245e-05
2.07033e-05
2.03464e-05
0.000663952
0.000488461
0.000404633
0.000347297
0.000305173
0.000272444
0.000245967
0.000224107
0.000205809
0.000190448
0.000177584
0.000166867
0.000158174
0.000151334
0.000146072
0.00014153
0.000137607
0.00013531
0.000130479
0.000122561
0.000786828
0.000662299
0.000567997
0.000495875
0.000439644
0.000394979
0.000358841
0.000329098
0.000304381
0.000283793
0.000266722
0.000252718
0.000241421
0.00023252
0.000225637
0.000220302
0.000216257
0.000213126
0.000209412
0.000203008
0.000809325
0.000713913
0.000631532
0.000562656
0.000505585
0.000458254
0.000418803
0.00038576
0.000358004
0.000334723
0.000315365
0.000299508
0.000286786
0.000276825
0.000269229
0.000263565
0.000259348
0.000255929
0.000252202
0.000245355
0.00081496
0.000730434
0.000654664
0.000589132
0.000533287
0.00048593
0.000445765
0.000411681
0.000382786
0.000358395
0.000338004
0.000321242
0.000307768
0.000297217
0.000289208
0.000283314
0.000278995
0.000275594
0.000272083
0.000266173
0.00081496
0.000730434
0.000654665
0.000589132
0.000533287
0.00048593
0.000445766
0.000411682
0.000382787
0.000358397
0.000338007
0.000321246
0.000307772
0.000297217
0.000289216
0.000283348
0.000279079
0.000275812
0.000272727
0.000268343
0.000809325
0.000713913
0.000631533
0.000562656
0.000505585
0.000458254
0.000418804
0.000385761
0.000358006
0.000334726
0.000315369
0.000299513
0.000286785
0.000276836
0.000269276
0.000263648
0.000259513
0.000256308
0.000253252
0.000248853
0.000786828
0.000662299
0.000567997
0.000495875
0.000439644
0.000394979
0.000358841
0.000329098
0.000304381
0.000283793
0.000266722
0.000252716
0.000241412
0.000232509
0.000225638
0.000220309
0.000216268
0.000213139
0.000209428
0.000203036
0.000663952
0.000488461
0.000404633
0.000347297
0.000305172
0.000272443
0.000245966
0.000224104
0.000205805
0.000190442
0.000177573
0.000166848
0.00015814
0.000151277
0.000145979
0.00014137
0.000137316
0.000134736
0.000129697
0.000121645
0.000160509
0.00010736
8.07394e-05
6.55926e-05
5.5483e-05
4.8277e-05
4.3077e-05
3.89791e-05
3.55402e-05
3.27191e-05
3.02864e-05
2.8201e-05
2.64252e-05
2.49309e-05
2.36935e-05
2.26685e-05
2.1844e-05
2.11686e-05
2.05936e-05
2.01074e-05
0.000198681
0.0001383
0.000105186
8.55213e-05
7.24945e-05
6.28605e-05
5.59908e-05
5.06338e-05
4.6145e-05
4.24472e-05
3.92921e-05
3.65673e-05
3.42256e-05
3.2231e-05
3.05455e-05
2.9136e-05
2.79749e-05
2.70368e-05
2.63097e-05
2.57586e-05
0.00071288
0.000556435
0.000466413
0.000402409
0.000354577
0.000317397
0.000287383
0.000262583
0.000241859
0.000224496
0.000210003
0.000197988
0.00018812
0.000180108
0.000173682
0.00016857
0.00016466
0.000161739
0.000159708
0.000154595
0.000809325
0.000713913
0.000631533
0.000562656
0.000505585
0.000458254
0.000418804
0.000385761
0.000358006
0.000334726
0.00031537
0.000299516
0.000286798
0.000276847
0.000269268
0.000263639
0.000259501
0.000256294
0.00025323
0.000248786
0.000823499
0.000753998
0.000688528
0.000628851
0.000575637
0.000528813
0.000487945
0.000452497
0.000421964
0.000395919
0.000374025
0.000355994
0.000341538
0.000330314
0.000321948
0.000315992
0.000311837
0.000308752
0.000305746
0.000301333
0.000826293
0.000764359
0.000706144
0.000652052
0.000602505
0.000557695
0.0005176
0.000482081
0.000450956
0.000424043
0.000401176
0.00038219
0.000366881
0.000354961
0.000346096
0.000339856
0.000335589
0.000332506
0.000329519
0.00032497
0.000826293
0.000764359
0.000706144
0.000652052
0.000602505
0.000557695
0.0005176
0.000482081
0.000450956
0.000424043
0.000401176
0.000382189
0.000366876
0.000354946
0.000346083
0.000339858
0.000335616
0.000332592
0.000329789
0.000325847
0.000823499
0.000753998
0.000688528
0.000628851
0.000575637
0.000528813
0.000487945
0.000452497
0.000421964
0.000395919
0.000374024
0.000355988
0.000341513
0.000330288
0.000321954
0.000316003
0.000311852
0.000308771
0.000305778
0.000301408
0.000809325
0.000713913
0.000631532
0.000562656
0.000505585
0.000458254
0.000418803
0.00038576
0.000358004
0.000334723
0.000315364
0.000299504
0.000286772
0.00027681
0.000269236
0.000263578
0.000259366
0.00025595
0.000252228
0.000245402
0.00071288
0.000556435
0.000466413
0.000402409
0.000354576
0.000317396
0.000287381
0.00026258
0.000241853
0.000224488
0.000209989
0.000197964
0.000188078
0.000180039
0.000173574
0.000168383
0.000164317
0.000161074
0.000158277
0.000149464
0.000198681
0.0001383
0.000105186
8.55212e-05
7.24943e-05
6.28603e-05
5.59904e-05
5.06332e-05
4.61441e-05
4.24455e-05
3.92897e-05
3.65637e-05
3.42199e-05
3.22221e-05
3.05315e-05
2.9114e-05
2.79398e-05
2.69794e-05
2.62104e-05
2.56474e-05
0.000218609
0.000155002
0.000118659
9.65014e-05
8.18763e-05
7.08046e-05
6.30102e-05
5.70077e-05
5.19921e-05
4.77681e-05
4.42186e-05
4.1146e-05
3.84974e-05
3.62299e-05
3.43055e-05
3.26886e-05
3.13428e-05
3.02336e-05
2.93488e-05
2.87426e-05
0.000728543
0.000588234
0.000496018
0.000429187
0.000378662
0.000339287
0.000307538
0.000281321
0.000259396
0.000240991
0.000225636
0.000212914
0.000202479
0.000194006
0.000187189
0.000181739
0.000177384
0.00017391
0.000171123
0.000167772
0.00081496
0.000730434
0.000654665
0.000589132
0.000533287
0.00048593
0.000445766
0.000411682
0.000382787
0.000358397
0.000338007
0.000321247
0.000307777
0.000297234
0.000289236
0.000283362
0.000279087
0.000275813
0.000272716
0.000268295
0.000826293
0.000764359
0.000706144
0.000652052
0.000602505
0.000557695
0.0005176
0.000482081
0.000450956
0.000424043
0.000401177
0.000382191
0.000366885
0.000354969
0.00034611
0.000339875
0.000335624
0.000332591
0.00032977
0.000325773
0.000828384
0.000772615
0.000721187
0.000673093
0.00062809
0.000586271
0.000547816
0.000512897
0.000481645
0.00045415
0.000430462
0.00041058
0.00039442
0.000381774
0.000372373
0.000365813
0.000361418
0.000358339
0.000355411
0.000350937
0.000828384
0.000772615
0.000721187
0.000673093
0.00062809
0.000586271
0.000547816
0.000512897
0.000481645
0.00045415
0.000430462
0.000410578
0.000394412
0.000381754
0.000372352
0.000365803
0.000361416
0.000358343
0.000355423
0.000350969
0.000826293
0.000764359
0.000706144
0.000652052
0.000602505
0.000557695
0.0005176
0.000482081
0.000450956
0.000424043
0.000401174
0.000382183
0.000366853
0.000354935
0.000346112
0.000339876
0.000335613
0.000332532
0.000329547
0.000325009
0.00081496
0.000730434
0.000654665
0.000589132
0.000533287
0.00048593
0.000445765
0.000411681
0.000382786
0.000358395
0.000338004
0.000321238
0.000307752
0.000297204
0.000289224
0.000283337
0.000279021
0.000275622
0.000272112
0.000266213
0.000728543
0.000588234
0.000496018
0.000429186
0.000378662
0.000339286
0.000307537
0.000281319
0.000259394
0.000240987
0.000225629
0.000212902
0.000202457
0.000193971
0.000187141
0.000181662
0.000177248
0.000173653
0.000170536
0.000165268
0.000218609
0.000155002
0.000118659
9.65013e-05
8.18763e-05
7.08045e-05
6.301e-05
5.70074e-05
5.19916e-05
4.77673e-05
4.42174e-05
4.11442e-05
3.84946e-05
3.62255e-05
3.42988e-05
3.26783e-05
3.13269e-05
3.02102e-05
2.93189e-05
2.87402e-05
0.000218609
0.000155002
0.000118659
9.65013e-05
8.18763e-05
7.08045e-05
6.301e-05
5.70074e-05
5.19916e-05
4.77673e-05
4.42174e-05
4.11442e-05
3.84946e-05
3.62256e-05
3.42989e-05
3.26784e-05
3.1327e-05
3.02102e-05
2.93189e-05
2.87401e-05
0.000728543
0.000588234
0.000496018
0.000429186
0.000378662
0.000339286
0.000307537
0.000281319
0.000259394
0.000240987
0.000225629
0.000212903
0.000202461
0.000193977
0.00018714
0.000181657
0.000177241
0.000173643
0.000170525
0.000165248
0.00081496
0.000730434
0.000654665
0.000589132
0.000533287
0.00048593
0.000445765
0.000411681
0.000382786
0.000358395
0.000338004
0.000321242
0.00030777
0.000297222
0.000289215
0.000283323
0.000279002
0.000275599
0.000272083
0.000266162
0.000826293
0.000764359
0.000706144
0.000652052
0.000602505
0.000557695
0.0005176
0.000482081
0.000450956
0.000424043
0.000401176
0.00038219
0.000366883
0.000354966
0.000346104
0.000339864
0.000335597
0.00033251
0.000329515
0.00032494
0.000828384
0.000772615
0.000721187
0.000673093
0.00062809
0.000586271
0.000547816
0.000512897
0.000481645
0.00045415
0.000430463
0.00041058
0.00039442
0.000381774
0.000372373
0.000365814
0.00036142
0.000358341
0.000355412
0.000350932
0.000828384
0.000772615
0.000721187
0.000673093
0.00062809
0.000586271
0.000547816
0.000512896
0.000481645
0.00045415
0.000430462
0.000410578
0.000394412
0.000381755
0.000372353
0.000365805
0.000361418
0.000358345
0.00035542
0.000350948
0.000826293
0.000764359
0.000706144
0.000652052
0.000602505
0.000557695
0.0005176
0.000482081
0.000450957
0.000424044
0.000401176
0.000382184
0.000366855
0.000354938
0.000346119
0.00033989
0.000335645
0.000332616
0.000329804
0.000325836
0.00081496
0.000730434
0.000654665
0.000589132
0.000533287
0.00048593
0.000445765
0.000411682
0.000382787
0.000358397
0.000338007
0.000321243
0.00030776
0.000297217
0.000289246
0.000283379
0.000279109
0.000275839
0.000272749
0.000268356
0.000728543
0.000588234
0.000496018
0.000429187
0.000378662
0.000339287
0.000307537
0.00028132
0.000259396
0.000240991
0.000225636
0.000212913
0.000202475
0.000194
0.000187191
0.000181745
0.000177392
0.000173921
0.000171136
0.000167798
0.000218609
0.000155002
0.000118659
9.65014e-05
8.18763e-05
7.08046e-05
6.30102e-05
5.70078e-05
5.19921e-05
4.77682e-05
4.42186e-05
4.1146e-05
3.84975e-05
3.62299e-05
3.43055e-05
3.26885e-05
3.13427e-05
3.02336e-05
2.93489e-05
2.87427e-05
0.000198681
0.0001383
0.000105186
8.55212e-05
7.24943e-05
6.28603e-05
5.59905e-05
5.06332e-05
4.61441e-05
4.24455e-05
3.92897e-05
3.65636e-05
3.42198e-05
3.2222e-05
3.05315e-05
2.9114e-05
2.79399e-05
2.69794e-05
2.62104e-05
2.56473e-05
0.00071288
0.000556435
0.000466413
0.000402409
0.000354576
0.000317396
0.000287381
0.00026258
0.000241853
0.000224488
0.000209989
0.000197965
0.000188082
0.000180045
0.000173574
0.00016838
0.000164312
0.000161066
0.000158268
0.000149452
0.000809325
0.000713913
0.000631532
0.000562656
0.000505585
0.000458254
0.000418803
0.00038576
0.000358004
0.000334723
0.000315365
0.000299508
0.000286786
0.000276826
0.00026923
0.000263568
0.000259353
0.000255935
0.000252209
0.000245374
0.000823499
0.000753998
0.000688528
0.000628851
0.000575637
0.000528813
0.000487945
0.000452497
0.000421964
0.000395919
0.000374025
0.000355994
0.000341537
0.000330314
0.000321948
0.000315995
0.000311842
0.000308759
0.00030576
0.000301375
0.000826293
0.000764359
0.000706144
0.000652052
0.000602505
0.000557695
0.0005176
0.000482081
0.000450956
0.000424044
0.000401177
0.000382191
0.000366883
0.000354965
0.000346103
0.000339871
0.000335625
0.000332597
0.000329787
0.000325831
0.000826293
0.000764359
0.000706144
0.000652052
0.000602505
0.000557694
0.0005176
0.000482082
0.000450957
0.000424044
0.000401176
0.000382189
0.000366875
0.000354945
0.000346079
0.000339852
0.000335595
0.000332517
0.000329531
0.000324982
0.000823499
0.000753998
0.000688528
0.000628851
0.000575637
0.000528813
0.000487945
0.000452498
0.000421965
0.00039592
0.000374025
0.000355989
0.000341515
0.000330289
0.000321958
0.000316009
0.00031186
0.000308779
0.000305779
0.000301388
0.000809325
0.000713913
0.000631533
0.000562656
0.000505585
0.000458254
0.000418804
0.000385762
0.000358007
0.000334727
0.00031537
0.000299513
0.000286786
0.000276833
0.000269277
0.000263654
0.000259523
0.00025632
0.000253263
0.000248856
0.00071288
0.000556435
0.000466413
0.000402409
0.000354577
0.000317398
0.000287388
0.000262586
0.000241861
0.000224498
0.000210004
0.000197988
0.000188117
0.000180104
0.000173683
0.000168575
0.000164669
0.00016175
0.000159722
0.00015464
0.000198681
0.0001383
0.000105186
8.55213e-05
7.24945e-05
6.28605e-05
5.59907e-05
5.06335e-05
4.61448e-05
4.2447e-05
3.9292e-05
3.65673e-05
3.42256e-05
3.2231e-05
3.05455e-05
2.9136e-05
2.79748e-05
2.70369e-05
2.63099e-05
2.57585e-05
0.000160509
0.00010736
8.07394e-05
6.55926e-05
5.5483e-05
4.8277e-05
4.3077e-05
3.89791e-05
3.55402e-05
3.27191e-05
3.02864e-05
2.82011e-05
2.64253e-05
2.4931e-05
2.36937e-05
2.26688e-05
2.18441e-05
2.11687e-05
2.05936e-05
2.01073e-05
0.000663952
0.000488461
0.000404633
0.000347297
0.000305172
0.000272443
0.000245966
0.000224104
0.000205805
0.000190442
0.000177573
0.000166848
0.000158143
0.000151282
0.000145981
0.000141369
0.000137313
0.000134731
0.000129693
0.00012164
0.000786828
0.000662299
0.000567997
0.000495875
0.000439644
0.000394979
0.000358841
0.000329098
0.000304381
0.000283793
0.000266723
0.000252718
0.000241421
0.00023252
0.000225636
0.000220303
0.00021626
0.000213131
0.000209419
0.000203026
0.000809325
0.000713913
0.000631533
0.000562656
0.000505585
0.000458254
0.000418804
0.000385761
0.000358006
0.000334726
0.00031537
0.000299516
0.000286798
0.000276846
0.000269267
0.00026364
0.000259505
0.000256301
0.000253246
0.000248846
0.00081496
0.000730434
0.000654665
0.000589132
0.000533287
0.00048593
0.000445765
0.000411682
0.000382787
0.000358398
0.000338008
0.000321247
0.000307776
0.00029723
0.00028923
0.00028336
0.000279089
0.00027582
0.000272734
0.000268352
0.00081496
0.000730434
0.000654665
0.000589132
0.000533287
0.00048593
0.000445765
0.000411682
0.000382787
0.000358397
0.000338006
0.000321242
0.000307765
0.000297208
0.000289198
0.000283316
0.000279005
0.000275609
0.000272101
0.000266203
0.000809325
0.000713913
0.000631532
0.000562656
0.000505585
0.000458254
0.000418803
0.000385761
0.000358005
0.000334724
0.000315366
0.000299507
0.000286775
0.000276817
0.000269244
0.000263585
0.000259372
0.000255955
0.000252231
0.000245401
0.000786828
0.000662299
0.000567997
0.000495875
0.000439644
0.000394979
0.000358841
0.000329099
0.000304382
0.000283794
0.000266723
0.000252717
0.000241415
0.000232512
0.000225643
0.000220315
0.000216275
0.000213147
0.000209436
0.000203044
0.000663952
0.000488461
0.000404633
0.000347297
0.000305173
0.000272444
0.000245968
0.000224108
0.000205811
0.00019045
0.000177585
0.000166867
0.000158172
0.000151331
0.000146072
0.000141533
0.000137612
0.00013532
0.00013049
0.000122583
0.000160509
0.00010736
8.07394e-05
6.55926e-05
5.54831e-05
4.82772e-05
4.30773e-05
3.89794e-05
3.55409e-05
3.27202e-05
3.02883e-05
2.8204e-05
2.64301e-05
2.49387e-05
2.37057e-05
2.26882e-05
2.18775e-05
2.12246e-05
2.07036e-05
2.03471e-05
0.000107685
6.77181e-05
5.06298e-05
4.14105e-05
3.53925e-05
3.10108e-05
2.76624e-05
2.49947e-05
2.27929e-05
2.09693e-05
1.94316e-05
1.81429e-05
1.7052e-05
1.61401e-05
1.54355e-05
1.48131e-05
1.42983e-05
1.39029e-05
1.35641e-05
1.32589e-05
0.000528907
0.000369986
0.000305109
0.000261417
0.000228654
0.000202761
0.000181686
0.000164124
0.000149283
0.000136696
0.000126038
0.000117065
0.000109461
0.000102961
9.86878e-05
9.35219e-05
8.90355e-05
8.58706e-05
8.27796e-05
7.56673e-05
0.000663952
0.000488461
0.000404633
0.000347297
0.000305173
0.000272444
0.000245967
0.000224107
0.00020581
0.000190449
0.000177584
0.000166867
0.000158174
0.000151334
0.000146071
0.00014153
0.000137608
0.000135312
0.000130484
0.000122571
0.00071288
0.000556435
0.000466413
0.000402409
0.000354577
0.000317397
0.000287384
0.000262583
0.000241859
0.000224497
0.000210004
0.000197988
0.00018812
0.000180108
0.00017368
0.00016857
0.000164662
0.000161742
0.000159714
0.000154629
0.000728543
0.000588234
0.000496018
0.000429187
0.000378662
0.000339287
0.00030754
0.000281322
0.000259397
0.000240992
0.000225637
0.000212915
0.000202479
0.000194003
0.000187185
0.000181738
0.000177385
0.000173913
0.000171129
0.000167796
0.000728543
0.000588234
0.000496018
0.000429186
0.000378662
0.000339286
0.000307539
0.000281321
0.000259395
0.000240988
0.00022563
0.000212904
0.000202459
0.000193953
0.000187127
0.000181653
0.000177242
0.000173649
0.000170533
0.000165266
0.00071288
0.000556435
0.000466413
0.000402409
0.000354576
0.000317396
0.000287382
0.00026258
0.000241854
0.000224489
0.00020999
0.000197966
0.000188086
0.000180125
0.000173621
0.000168409
0.000164332
0.000161084
0.000158283
0.000149464
0.000663952
0.000488461
0.000404633
0.000347297
0.000305172
0.000272443
0.000245966
0.000224104
0.000205806
0.000190442
0.000177573
0.000166849
0.000158143
0.000151292
0.000145996
0.000141383
0.000137326
0.000134744
0.000129701
0.000121648
0.000528907
0.000369986
0.000305109
0.000261417
0.000228654
0.000202762
0.000181686
0.000164124
0.000149284
0.000136697
0.000126038
0.000117065
0.00010946
0.000102961
9.86907e-05
9.35233e-05
8.90338e-05
8.58937e-05
8.2776e-05
7.56696e-05
0.000107685
6.77181e-05
5.06298e-05
4.14105e-05
3.53925e-05
3.10109e-05
2.76625e-05
2.49948e-05
2.2793e-05
2.09695e-05
1.9432e-05
1.81437e-05
1.7053e-05
1.61421e-05
1.54404e-05
1.48225e-05
1.43148e-05
1.39399e-05
1.36622e-05
1.35024e-05
4.5356e-05
2.32081e-05
1.65391e-05
1.36498e-05
1.18964e-05
1.06797e-05
9.75475e-06
9.04824e-06
8.47368e-06
7.99625e-06
7.59259e-06
7.249e-06
6.95467e-06
6.72289e-06
6.53843e-06
6.36716e-06
6.22941e-06
6.12526e-06
6.05341e-06
6.02695e-06
0.000107685
6.77181e-05
5.06298e-05
4.14105e-05
3.53925e-05
3.10109e-05
2.76625e-05
2.49948e-05
2.27931e-05
2.09695e-05
1.94321e-05
1.81437e-05
1.70534e-05
1.61425e-05
1.54405e-05
1.48223e-05
1.43132e-05
1.39401e-05
1.36621e-05
1.35022e-05
0.000160509
0.00010736
8.07394e-05
6.55926e-05
5.54831e-05
4.82771e-05
4.30773e-05
3.89795e-05
3.5541e-05
3.27202e-05
3.02883e-05
2.82041e-05
2.64302e-05
2.49388e-05
2.3706e-05
2.26884e-05
2.18774e-05
2.12246e-05
2.07035e-05
2.03469e-05
0.000198681
0.0001383
0.000105186
8.55213e-05
7.24945e-05
6.28605e-05
5.59908e-05
5.06338e-05
4.61449e-05
4.24471e-05
3.9292e-05
3.65673e-05
3.42256e-05
3.2231e-05
3.05455e-05
2.9136e-05
2.79749e-05
2.70368e-05
2.63098e-05
2.57586e-05
0.000218609
0.000155002
0.000118659
9.65014e-05
8.18763e-05
7.08046e-05
6.30101e-05
5.70076e-05
5.1992e-05
4.7768e-05
4.42185e-05
4.1146e-05
3.84974e-05
3.62299e-05
3.43055e-05
3.26885e-05
3.13427e-05
3.02335e-05
2.93488e-05
2.87427e-05
0.000218609
0.000155002
0.000118659
9.65013e-05
8.18763e-05
7.08045e-05
6.30099e-05
5.70073e-05
5.19915e-05
4.77672e-05
4.42173e-05
4.11441e-05
3.84946e-05
3.62256e-05
3.42988e-05
3.26782e-05
3.13269e-05
3.02102e-05
2.93189e-05
2.87403e-05
0.000198681
0.0001383
0.000105186
8.55212e-05
7.24943e-05
6.28603e-05
5.59905e-05
5.06331e-05
4.61441e-05
4.24455e-05
3.92897e-05
3.65636e-05
3.42198e-05
3.22218e-05
3.05314e-05
2.91141e-05
2.79401e-05
2.69799e-05
2.62109e-05
2.56477e-05
0.000160509
0.00010736
8.07394e-05
6.55926e-05
5.5483e-05
4.8277e-05
4.3077e-05
3.89791e-05
3.55402e-05
3.27191e-05
3.02864e-05
2.8201e-05
2.64252e-05
2.49308e-05
2.36935e-05
2.26686e-05
2.18444e-05
2.1169e-05
2.05939e-05
2.01077e-05
0.000107685
6.77181e-05
5.06298e-05
4.14105e-05
3.53925e-05
3.10109e-05
2.76624e-05
2.49947e-05
2.27929e-05
2.09692e-05
1.94315e-05
1.81429e-05
1.70516e-05
1.61397e-05
1.54354e-05
1.48134e-05
1.43e-05
1.39026e-05
1.35645e-05
1.32591e-05
4.5356e-05
2.32081e-05
1.65391e-05
1.36498e-05
1.18964e-05
1.06797e-05
9.75475e-06
9.04824e-06
8.47363e-06
7.99629e-06
7.5926e-06
7.24857e-06
6.95445e-06
6.72316e-06
6.53921e-06
6.36788e-06
6.2296e-06
6.12526e-06
6.05346e-06
6.02705e-06
5.5217e-06
5.10294e-06
4.93395e-06
4.82737e-06
4.79029e-06
4.77678e-06
4.7723e-06
4.76985e-06
4.76865e-06
4.76829e-06
4.76853e-06
4.7692e-06
4.77019e-06
4.77139e-06
4.77268e-06
4.77398e-06
4.77529e-06
4.7766e-06
4.77783e-06
4.77897e-06
4.77998e-06
4.78086e-06
4.7816e-06
4.78222e-06
4.7827e-06
4.78307e-06
4.78334e-06
4.78354e-06
4.78368e-06
4.78379e-06
4.78385e-06
4.78386e-06
4.78388e-06
4.78406e-06
4.78361e-06
4.78365e-06
4.78373e-06
4.78386e-06
4.78399e-06
4.78411e-06
1.15463e-05
1.08789e-05
1.05685e-05
1.04302e-05
1.03731e-05
1.03455e-05
1.03292e-05
1.03209e-05
1.03169e-05
1.03156e-05
1.0316e-05
1.03179e-05
1.03207e-05
1.03241e-05
1.0328e-05
1.03322e-05
1.03366e-05
1.0341e-05
1.03453e-05
1.03492e-05
1.03528e-05
1.03559e-05
1.03584e-05
1.03605e-05
1.0362e-05
1.03633e-05
1.03643e-05
1.0365e-05
1.03657e-05
1.0366e-05
1.03662e-05
1.03663e-05
1.03664e-05
1.03661e-05
1.0365e-05
1.03654e-05
1.03664e-05
1.03667e-05
1.03671e-05
1.03674e-05
1.72693e-05
1.66e-05
1.61289e-05
1.58396e-05
1.57191e-05
1.55932e-05
1.55436e-05
1.55105e-05
1.54904e-05
1.54787e-05
1.54729e-05
1.5471e-05
1.5472e-05
1.54752e-05
1.54799e-05
1.54857e-05
1.54921e-05
1.54987e-05
1.55052e-05
1.55114e-05
1.55171e-05
1.5522e-05
1.5526e-05
1.55292e-05
1.55317e-05
1.55338e-05
1.55356e-05
1.5537e-05
1.55379e-05
1.55383e-05
1.55387e-05
1.55391e-05
1.55395e-05
1.55398e-05
1.55404e-05
1.55404e-05
1.55405e-05
1.55407e-05
1.55411e-05
1.55415e-05
2.17214e-05
2.1068e-05
2.06111e-05
2.02964e-05
2.00744e-05
1.99409e-05
1.98368e-05
1.97592e-05
1.97208e-05
1.96961e-05
1.96813e-05
1.96736e-05
1.96713e-05
1.96732e-05
1.96781e-05
1.9685e-05
1.96931e-05
1.97017e-05
1.97104e-05
1.97188e-05
1.97264e-05
1.97331e-05
1.97384e-05
1.97426e-05
1.97461e-05
1.9749e-05
1.97515e-05
1.97534e-05
1.97545e-05
1.97551e-05
1.97558e-05
1.97565e-05
1.97571e-05
1.97575e-05
1.97571e-05
1.9757e-05
1.97573e-05
1.97581e-05
1.97591e-05
1.976e-05
2.44476e-05
2.39293e-05
2.35048e-05
2.3177e-05
2.29315e-05
2.27531e-05
2.26197e-05
2.25509e-05
2.24698e-05
2.24355e-05
2.24129e-05
2.23993e-05
2.2393e-05
2.23927e-05
2.23967e-05
2.24036e-05
2.24123e-05
2.24219e-05
2.24317e-05
2.24413e-05
2.24501e-05
2.24578e-05
2.24638e-05
2.24682e-05
2.24722e-05
2.24757e-05
2.24787e-05
2.24809e-05
2.24822e-05
2.2483e-05
2.24839e-05
2.24848e-05
2.24858e-05
2.24864e-05
2.24865e-05
2.24867e-05
2.2487e-05
2.24878e-05
2.24886e-05
2.24895e-05
2.54137e-05
2.49174e-05
2.45133e-05
2.41938e-05
2.39472e-05
2.37605e-05
2.36221e-05
2.35223e-05
2.34547e-05
2.34088e-05
2.33803e-05
2.33627e-05
2.33534e-05
2.33508e-05
2.33533e-05
2.33594e-05
2.33676e-05
2.33771e-05
2.3387e-05
2.33968e-05
2.34059e-05
2.34138e-05
2.34199e-05
2.3425e-05
2.34297e-05
2.34338e-05
2.34374e-05
2.344e-05
2.34415e-05
2.34425e-05
2.34435e-05
2.34446e-05
2.34457e-05
2.34463e-05
2.34462e-05
2.34463e-05
2.34467e-05
2.34472e-05
2.34481e-05
2.3449e-05
2.49107e-05
2.41648e-05
2.36462e-05
2.32759e-05
2.30102e-05
2.28208e-05
2.26874e-05
2.25935e-05
2.25393e-05
2.24841e-05
2.24622e-05
2.24478e-05
2.24401e-05
2.24384e-05
2.24411e-05
2.24471e-05
2.24551e-05
2.24642e-05
2.24736e-05
2.24829e-05
2.24915e-05
2.2499e-05
2.25049e-05
2.25098e-05
2.25143e-05
2.25182e-05
2.25216e-05
2.25241e-05
2.25255e-05
2.25263e-05
2.25273e-05
2.25283e-05
2.25293e-05
2.25298e-05
2.25294e-05
2.2529e-05
2.2529e-05
2.25295e-05
2.25304e-05
2.25315e-05
2.19739e-05
2.11814e-05
2.06624e-05
2.03296e-05
2.01129e-05
1.99722e-05
1.98805e-05
1.9827e-05
1.97715e-05
1.97492e-05
1.97344e-05
1.97255e-05
1.97221e-05
1.97231e-05
1.97273e-05
1.97337e-05
1.97414e-05
1.97497e-05
1.97581e-05
1.97662e-05
1.97736e-05
1.97801e-05
1.97854e-05
1.97897e-05
1.97934e-05
1.97966e-05
1.97993e-05
1.98013e-05
1.98026e-05
1.98033e-05
1.98041e-05
1.98047e-05
1.98054e-05
1.98057e-05
1.98054e-05
1.98045e-05
1.98041e-05
1.98043e-05
1.98052e-05
1.98063e-05
1.68796e-05
1.63047e-05
1.59353e-05
1.57546e-05
1.56788e-05
1.56316e-05
1.55832e-05
1.55614e-05
1.55458e-05
1.55362e-05
1.55312e-05
1.55301e-05
1.55313e-05
1.55343e-05
1.55386e-05
1.55441e-05
1.55502e-05
1.55566e-05
1.5563e-05
1.55691e-05
1.55746e-05
1.55795e-05
1.55836e-05
1.55868e-05
1.55894e-05
1.55916e-05
1.55935e-05
1.5595e-05
1.55959e-05
1.55965e-05
1.55968e-05
1.55972e-05
1.55975e-05
1.55976e-05
1.55971e-05
1.55952e-05
1.55946e-05
1.55952e-05
1.55962e-05
1.55974e-05
1.07783e-05
1.04158e-05
1.03199e-05
1.02809e-05
1.02651e-05
1.02824e-05
1.02904e-05
1.02947e-05
1.02976e-05
1.02999e-05
1.03024e-05
1.03056e-05
1.0309e-05
1.03129e-05
1.03171e-05
1.03214e-05
1.03258e-05
1.03301e-05
1.03343e-05
1.03382e-05
1.03417e-05
1.03447e-05
1.03474e-05
1.03494e-05
1.03509e-05
1.03522e-05
1.03532e-05
1.0354e-05
1.03547e-05
1.0355e-05
1.03552e-05
1.03553e-05
1.03554e-05
1.03552e-05
1.03546e-05
1.03515e-05
1.03517e-05
1.03527e-05
1.03538e-05
1.03549e-05
5.52199e-06
5.10292e-06
4.93481e-06
4.8265e-06
4.79015e-06
4.77685e-06
4.77231e-06
4.76999e-06
4.76884e-06
4.76846e-06
4.76865e-06
4.76929e-06
4.77032e-06
4.7715e-06
4.77272e-06
4.77399e-06
4.77529e-06
4.77657e-06
4.77779e-06
4.77891e-06
4.77991e-06
4.78078e-06
4.78153e-06
4.78215e-06
4.78264e-06
4.78302e-06
4.7833e-06
4.7835e-06
4.78366e-06
4.78379e-06
4.78385e-06
4.78386e-06
4.78387e-06
4.78384e-06
4.7839e-06
4.78302e-06
4.7829e-06
4.78312e-06
4.78347e-06
4.78377e-06
1.0778e-05
1.04158e-05
1.03206e-05
1.02789e-05
1.02668e-05
1.02841e-05
1.02905e-05
1.02945e-05
1.02972e-05