/*--------------------------------*- C++ -*----------------------------------*\
| =========                 |                                                 |
| \\      /  F ield         | OpenFOAM: The Open Source CFD Toolbox           |
|  \\    /   O peration     | Version:  2212                                  |
|   \\  /    A nd           | Website:  www.openfoam.com                      |
|    \\/     M anipulation  |                                                 |
\*---------------------------------------------------------------------------*/
FoamFile
{
    version     2.0;
    format      ascii;
    arch        "LSB;label=32;scalar=64";
    class       volScalarField;
    location    "0.3";
    object      p;
}
// * * * * * * * * * * * * * * * * * * * * * * * * * * * * * * * * * * * * * //

dimensions      [0 2 -2 0 0 0 0];

internalField   nonuniform List<scalar> 
6840
(
0.0186606
0.0115461
0.0092549
0.00871738
0.00844379
0.00822122
0.00803261
0.00786466
0.00770132
0.00753855
0.00737638
0.00721496
0.00705334
0.0068939
0.00673888
0.00658493
0.00642959
0.00627213
0.00608161
0.00572135
0.0114818
0.0107479
0.00965514
0.00898933
0.00858664
0.00831195
0.00809911
0.00791062
0.00773286
0.00756125
0.00739359
0.00722882
0.00706634
0.00690745
0.00675493
0.00660677
0.00646276
0.00632618
0.00619578
0.0060423
0.0111335
0.0102818
0.00951751
0.00895823
0.00858141
0.00831182
0.0080937
0.00789773
0.00771571
0.00754343
0.00737698
0.00721452
0.00705599
0.00690236
0.00675464
0.00661393
0.00648365
0.00636943
0.0062824
0.00623867
0.0107244
0.00996155
0.00934254
0.00889082
0.00854622
0.00827578
0.00805316
0.00785995
0.00768748
0.00752577
0.00736657
0.00720891
0.00705401
0.00690323
0.00675824
0.00662151
0.00649631
0.00638845
0.00631026
0.0062779
0.0105899
0.00984862
0.00926054
0.00885228
0.00852972
0.0082622
0.00803901
0.00784501
0.00766937
0.0075069
0.00735222
0.00719946
0.00704691
0.00689615
0.00674928
0.00660803
0.00647441
0.00635039
0.00623914
0.00614915
0.0105898
0.00984861
0.00926051
0.00885222
0.00852964
0.00826207
0.00803879
0.00784463
0.00766874
0.00750588
0.00735055
0.00719673
0.00704245
0.006889
0.00673787
0.00658957
0.00644487
0.00630409
0.00616841
0.00604101
0.0107244
0.0099615
0.00934248
0.00889072
0.00854605
0.00827549
0.00805263
0.00785904
0.00768595
0.00752329
0.00736253
0.00720227
0.00704309
0.00688541
0.00672908
0.00657336
0.00641726
0.00626014
0.00610175
0.00594139
0.0111335
0.0102818
0.00951747
0.00895815
0.00858125
0.00831151
0.00809316
0.00789682
0.00771418
0.00754093
0.00737289
0.00720783
0.007045
0.00688409
0.00672396
0.00656175
0.00639406
0.00621546
0.00601633
0.0057664
0.0114818
0.0107479
0.00965513
0.00898931
0.00858657
0.00831181
0.00809885
0.00791015
0.00773205
0.0075599
0.00739136
0.00722515
0.00706028
0.00689727
0.00673771
0.00657753
0.00641063
0.00622678
0.00598293
0.00559002
0.0186606
0.0115461
0.00925492
0.0087174
0.00844381
0.00822124
0.00803263
0.00786468
0.00770133
0.00753856
0.00737638
0.00721495
0.00705328
0.00689382
0.00673882
0.00658496
0.00642967
0.00627218
0.00608166
0.00572144
0.0114818
0.0107479
0.00965513
0.0089893
0.00858656
0.00831181
0.00809885
0.00791015
0.00773206
0.00755991
0.00739138
0.00722518
0.00706033
0.00689732
0.00673773
0.00657756
0.00641059
0.00622673
0.00598292
0.00558992
0.0107648
0.0107332
0.010005
0.0092942
0.00884667
0.00852827
0.00826601
0.00803391
0.00782367
0.00762881
0.00744363
0.00726483
0.00709141
0.00692306
0.00675896
0.00659795
0.00643885
0.006278
0.00612039
0.00598187
0.00983896
0.00996518
0.00966197
0.00924537
0.00887748
0.00855727
0.00827588
0.0080316
0.00781467
0.00761572
0.00742838
0.00724988
0.00707935
0.00691545
0.00675699
0.00660539
0.00646119
0.00632347
0.00620221
0.00611876
0.00942069
0.00946436
0.00929823
0.00903419
0.00875228
0.0084791
0.00822464
0.00799417
0.00778787
0.00759784
0.00741662
0.00724281
0.00707645
0.00691685
0.00676418
0.0066195
0.00648324
0.00635694
0.00624982
0.0061727
0.00920441
0.00922632
0.00909886
0.00888065
0.00864727
0.00841658
0.00819103
0.00797404
0.00776996
0.00757974
0.00740041
0.00722907
0.00706429
0.00690568
0.00675301
0.00660639
0.00646567
0.00633068
0.00620424
0.00608776
0.00920437
0.00922628
0.0090988
0.00888055
0.00864711
0.00841636
0.00819069
0.00797352
0.00776914
0.00757841
0.0073983
0.00722576
0.00705914
0.00689768
0.00674066
0.00658749
0.00643749
0.00629011
0.00614665
0.00600614
0.00942061
0.00946428
0.00929811
0.00903401
0.00875202
0.00847871
0.00822408
0.0079932
0.0077861
0.00759496
0.00741217
0.00723579
0.00706527
0.00689915
0.00673606
0.00657504
0.00641437
0.00625301
0.00609338
0.00593338
0.00983893
0.00996514
0.00966191
0.00924528
0.00887734
0.00855702
0.00827546
0.00803084
0.00781338
0.00761366
0.00742509
0.00724456
0.00707069
0.00690141
0.00673426
0.00656885
0.00640287
0.00623073
0.00605494
0.00587626
0.0107649
0.0107332
0.010005
0.00929422
0.00884669
0.00852828
0.00826603
0.00803392
0.00782368
0.00762881
0.00744363
0.00726483
0.0070914
0.00692304
0.00675894
0.00659794
0.00643886
0.00627805
0.00612046
0.00598199
0.0114818
0.010748
0.00965517
0.00898936
0.00858667
0.00831199
0.00809915
0.00791065
0.00773289
0.00756127
0.0073936
0.00722881
0.00706633
0.00690745
0.00675492
0.00660675
0.00646281
0.00632625
0.00619583
0.00604243
0.0111335
0.0102818
0.00951749
0.00895817
0.00858128
0.00831154
0.0080932
0.00789687
0.00771423
0.00754097
0.00737294
0.00720789
0.00704507
0.00688415
0.00672401
0.00656178
0.00639407
0.00621546
0.00601636
0.00576647
0.00983895
0.00996515
0.00966193
0.0092453
0.00887736
0.00855705
0.00827549
0.00803087
0.00781341
0.00761369
0.00742512
0.00724459
0.00707073
0.00690145
0.00673428
0.00656885
0.00640291
0.00623078
0.00605497
0.00587632
0.00926867
0.00936957
0.00925767
0.00903202
0.00877624
0.00851727
0.00825747
0.00801383
0.00779443
0.00759333
0.00740536
0.00722773
0.00705817
0.00689398
0.00673308
0.00657507
0.00641758
0.00625812
0.00609983
0.00594143
0.00890027
0.00896826
0.00891541
0.00876767
0.00858217
0.00837726
0.00816663
0.00795901
0.00775848
0.00756769
0.0073869
0.00721503
0.00705042
0.00689154
0.00673733
0.00658692
0.00643952
0.00629546
0.00615843
0.00602229
0.00871697
0.00878133
0.00875138
0.00862578
0.00846589
0.00829215
0.0081075
0.00792062
0.00773433
0.00755196
0.00737615
0.00720642
0.00704271
0.00688499
0.00673207
0.00658278
0.00643602
0.00629217
0.00615477
0.00601685
0.00871694
0.00878131
0.00875134
0.0086257
0.00846574
0.00829194
0.00810724
0.00792026
0.00773376
0.0075511
0.00737487
0.00720449
0.00703976
0.00688053
0.00672542
0.00657303
0.00642221
0.00627252
0.00612583
0.0059769
0.00890022
0.00896821
0.00891533
0.00876753
0.00858196
0.00837697
0.00816624
0.00795842
0.00775757
0.00756628
0.00738469
0.0072116
0.00704512
0.00688334
0.00672477
0.00656824
0.00641199
0.00625446
0.00609638
0.00593444
0.00926867
0.00936958
0.00925768
0.00903202
0.00877625
0.00851728
0.00825748
0.00801383
0.00779444
0.00759334
0.00740537
0.00722774
0.00705819
0.00689399
0.00673309
0.00657506
0.00641756
0.0062581
0.00609978
0.00594131
0.00983899
0.0099652
0.009662
0.00924541
0.00887753
0.00855732
0.00827593
0.00803165
0.00781472
0.00761576
0.00742841
0.00724992
0.00707939
0.00691548
0.00675701
0.00660541
0.00646119
0.0063235
0.00620228
0.00611881
0.0111335
0.0102819
0.00951756
0.00895828
0.00858147
0.00831188
0.00809377
0.0078978
0.00771577
0.00754348
0.00737702
0.00721457
0.00705603
0.00690239
0.00675466
0.00661395
0.00648369
0.0063695
0.00628249
0.00623884
0.0107244
0.00996154
0.00934253
0.00889077
0.00854611
0.00827555
0.0080527
0.00785912
0.00768603
0.00752337
0.0073626
0.00720235
0.00704319
0.00688549
0.00672913
0.00657339
0.0064173
0.00626018
0.00610181
0.00594146
0.00942065
0.00946432
0.00929816
0.00903406
0.00875207
0.00847877
0.00822414
0.00799326
0.00778616
0.00759502
0.00741223
0.00723583
0.0070653
0.00689919
0.00673612
0.00657511
0.00641444
0.00625307
0.00609343
0.00593345
0.00890024
0.00896823
0.00891536
0.00876756
0.00858199
0.008377
0.00816627
0.00795845
0.0077576
0.00756631
0.00738471
0.00721161
0.00704511
0.00688334
0.00672479
0.00656828
0.00641202
0.00625448
0.00609639
0.00593443
0.00860201
0.00866105
0.00864886
0.00855309
0.00841282
0.00824653
0.00806709
0.00788385
0.0077018
0.0075244
0.00735325
0.00718819
0.00702828
0.00687238
0.00671945
0.00656842
0.00641798
0.00626781
0.00611914
0.00596441
0.00845082
0.00851358
0.00851715
0.00844326
0.00832295
0.00817643
0.00801408
0.00784455
0.00767311
0.00750322
0.00733713
0.00717552
0.00701825
0.00686478
0.00671423
0.00656565
0.00641807
0.00627131
0.00612778
0.00597689
0.00845081
0.00851356
0.00851713
0.00844324
0.00832292
0.00817637
0.008014
0.00784444
0.00767295
0.00750298
0.00733678
0.007175
0.00701749
0.00686365
0.00671258
0.00656325
0.00641462
0.00626625
0.00611942
0.00596529
0.00860201
0.00866105
0.00864886
0.00855309
0.00841282
0.00824653
0.00806709
0.00788385
0.0077018
0.00752441
0.00735326
0.0071882
0.00702829
0.0068724
0.00671948
0.00656844
0.006418
0.00626783
0.00611918
0.00596447
0.00890029
0.00896828
0.00891544
0.0087677
0.0085822
0.00837729
0.00816667
0.00795905
0.00775851
0.00756773
0.00738693
0.00721506
0.00705046
0.00689158
0.00673737
0.00658696
0.00643954
0.00629546
0.0061584
0.0060222
0.00942073
0.00946441
0.00929829
0.00903425
0.00875235
0.00847917
0.00822472
0.00799424
0.00778794
0.0075979
0.00741668
0.00724287
0.00707651
0.0069169
0.00676423
0.00661954
0.00648326
0.00635695
0.00624979
0.00617258
0.0107245
0.0099616
0.00934261
0.00889089
0.00854629
0.00827586
0.00805324
0.00786004
0.00768756
0.00752585
0.00736664
0.00720898
0.00705407
0.00690328
0.00675829
0.00662155
0.00649636
0.0063885
0.00631032
0.00627798
0.0105899
0.00984867
0.00926057
0.00885229
0.00852971
0.00826214
0.00803886
0.00784471
0.00766881
0.00750596
0.00735062
0.00719679
0.00704251
0.00688906
0.00673793
0.00658962
0.00644492
0.00630414
0.00616846
0.00604105
0.00920443
0.00922634
0.00909886
0.00888061
0.00864718
0.00841643
0.00819077
0.0079736
0.00776922
0.00757848
0.00739836
0.00722582
0.00705919
0.00689774
0.00674073
0.00658756
0.00643755
0.00629016
0.00614669
0.00600618
0.00871698
0.00878135
0.00875138
0.00862574
0.00846578
0.00829199
0.00810729
0.0079203
0.00773381
0.00755115
0.00737492
0.00720453
0.0070398
0.00688057
0.00672545
0.00657306
0.00642224
0.00627253
0.00612583
0.00597688
0.00845083
0.00851358
0.00851714
0.00844326
0.00832294
0.00817639
0.00801402
0.00784445
0.00767296
0.007503
0.0073368
0.00717502
0.0070175
0.00686366
0.00671258
0.00656324
0.00641461
0.00626623
0.00611938
0.00596523
0.00830798
0.00837727
0.00839915
0.00834649
0.00824537
0.008115
0.00796644
0.00780775
0.00764447
0.00748065
0.00731893
0.00716052
0.00700566
0.00685394
0.00670458
0.00655631
0.00640787
0.0062613
0.00611898
0.00597477
0.00830797
0.00837726
0.00839915
0.00834649
0.00824537
0.008115
0.00796644
0.00780775
0.00764447
0.00748065
0.00731893
0.00716053
0.00700566
0.00685394
0.00670459
0.00655633
0.00640789
0.00626132
0.00611902
0.0059748
0.00845083
0.00851359
0.00851716
0.00844328
0.00832297
0.00817644
0.0080141
0.00784457
0.00767313
0.00750324
0.00733715
0.00717554
0.00701827
0.00686481
0.00671427
0.00656569
0.0064181
0.00627135
0.00612781
0.00597693
0.008717
0.00878137
0.00875141
0.00862582
0.00846594
0.0082922
0.00810754
0.00792067
0.00773437
0.00755201
0.0073762
0.00720647
0.00704275
0.00688504
0.00673213
0.00658284
0.00643607
0.00629221
0.00615481
0.00601689
0.00920446
0.00922637
0.00909891
0.00888071
0.00864733
0.00841665
0.00819111
0.00797412
0.00777004
0.00757982
0.00740048
0.00722914
0.00706436
0.00690574
0.00675307
0.00660644
0.00646571
0.0063307
0.00620424
0.00608775
0.0105899
0.00984868
0.0092606
0.00885234
0.00852979
0.00826228
0.00803909
0.0078451
0.00766945
0.00750698
0.0073523
0.00719953
0.00704698
0.00689621
0.00674934
0.00660808
0.00647446
0.00635042
0.00623915
0.00614916
0.0105899
0.0098487
0.00926061
0.00885235
0.00852979
0.00826228
0.00803908
0.00784509
0.00766944
0.00750697
0.00735229
0.00719952
0.00704697
0.00689621
0.00674934
0.00660809
0.00647447
0.00635044
0.00623918
0.00614918
0.00920447
0.00922638
0.00909892
0.00888072
0.00864734
0.00841665
0.00819111
0.00797412
0.00777003
0.00757981
0.00740047
0.00722913
0.00706435
0.00690574
0.00675307
0.00660645
0.00646571
0.00633071
0.00620425
0.00608775
0.00871701
0.00878137
0.00875142
0.00862583
0.00846594
0.0082922
0.00810755
0.00792067
0.00773437
0.00755201
0.0073762
0.00720647
0.00704275
0.00688503
0.0067321
0.00658281
0.00643605
0.00629219
0.00615479
0.00601687
0.00845084
0.00851359
0.00851716
0.00844328
0.00832297
0.00817645
0.0080141
0.00784457
0.00767313
0.00750324
0.00733715
0.00717554
0.00701827
0.00686479
0.00671425
0.00656566
0.00641808
0.00627132
0.00612779
0.0059769
0.00830797
0.00837726
0.00839915
0.00834649
0.00824537
0.008115
0.00796644
0.00780775
0.00764447
0.00748065
0.00731893
0.00716053
0.00700566
0.00685394
0.00670459
0.00655632
0.00640788
0.00626131
0.006119
0.00597478
0.00830796
0.00837726
0.00839915
0.00834649
0.00824536
0.00811499
0.00796644
0.00780775
0.00764447
0.00748065
0.00731893
0.00716052
0.00700566
0.00685394
0.00670459
0.00655633
0.00640789
0.00626133
0.00611901
0.0059748
0.00845081
0.00851357
0.00851714
0.00844325
0.00832293
0.00817638
0.00801401
0.00784445
0.00767296
0.007503
0.00733679
0.00717501
0.0070175
0.00686367
0.00671261
0.00656327
0.00641464
0.00626626
0.00611943
0.00596529
0.00871696
0.00878133
0.00875137
0.00862573
0.00846577
0.00829198
0.00810728
0.0079203
0.0077338
0.00755114
0.00737491
0.00720453
0.0070398
0.00688057
0.00672547
0.00657308
0.00642226
0.00627256
0.00612587
0.00597694
0.00920441
0.00922632
0.00909884
0.0088806
0.00864716
0.00841642
0.00819076
0.00797359
0.00776921
0.00757847
0.00739836
0.00722582
0.00705919
0.00689773
0.00674072
0.00658755
0.00643754
0.00629014
0.00614668
0.00600618
0.0105899
0.00984865
0.00926056
0.00885228
0.0085297
0.00826214
0.00803886
0.00784471
0.00766881
0.00750596
0.00735063
0.0071968
0.00704252
0.00688906
0.00673792
0.00658961
0.0064449
0.0063041
0.00616841
0.00604099
0.0107245
0.00996162
0.00934262
0.0088909
0.0085463
0.00827586
0.00805324
0.00786003
0.00768755
0.00752585
0.00736664
0.00720898
0.00705408
0.0069033
0.00675831
0.00662157
0.00649637
0.00638851
0.00631032
0.00627798
0.00942075
0.00946442
0.00929829
0.00903425
0.00875235
0.00847916
0.00822471
0.00799423
0.00778793
0.0075979
0.00741667
0.00724287
0.00707651
0.0069169
0.00676424
0.00661955
0.00648327
0.00635695
0.00624978
0.00617256
0.0089003
0.00896829
0.00891544
0.0087677
0.0085822
0.00837729
0.00816667
0.00795904
0.00775851
0.00756773
0.00738693
0.00721506
0.00705045
0.00689157
0.00673736
0.00658695
0.00643953
0.00629546
0.00615839
0.00602219
0.00860201
0.00866105
0.00864886
0.00855309
0.00841282
0.00824653
0.00806709
0.00788385
0.0077018
0.00752441
0.00735326
0.0071882
0.00702828
0.00687239
0.00671946
0.00656843
0.006418
0.00626784
0.00611918
0.00596447
0.0084508
0.00851356
0.00851713
0.00844324
0.00832292
0.00817637
0.008014
0.00784444
0.00767295
0.00750298
0.00733678
0.00717501
0.00701749
0.00686366
0.00671258
0.00656325
0.00641463
0.00626626
0.00611943
0.00596531
0.00845081
0.00851357
0.00851714
0.00844326
0.00832295
0.00817642
0.00801408
0.00784455
0.00767311
0.00750322
0.00733713
0.00717552
0.00701826
0.00686479
0.00671425
0.00656567
0.00641809
0.00627134
0.00612782
0.00597693
0.008602
0.00866104
0.00864885
0.00855308
0.00841281
0.00824652
0.00806708
0.00788385
0.0077018
0.0075244
0.00735325
0.0071882
0.00702828
0.0068724
0.00671948
0.00656844
0.006418
0.00626784
0.00611919
0.00596448
0.00890022
0.00896821
0.00891534
0.00876754
0.00858197
0.00837698
0.00816626
0.00795844
0.00775759
0.00756629
0.0073847
0.0072116
0.0070451
0.00688334
0.00672481
0.00656829
0.00641204
0.0062545
0.00609643
0.00593451
0.00942063
0.0094643
0.00929814
0.00903404
0.00875205
0.00847875
0.00822412
0.00799324
0.00778615
0.007595
0.00741222
0.00723583
0.0070653
0.00689918
0.00673611
0.00657509
0.00641441
0.00625302
0.00609338
0.00593338
0.0107244
0.00996152
0.0093425
0.00889075
0.00854609
0.00827553
0.00805268
0.0078591
0.00768601
0.00752336
0.0073626
0.00720236
0.00704319
0.00688549
0.00672911
0.00657336
0.00641726
0.00626011
0.00610171
0.00594132
0.0111335
0.0102819
0.00951759
0.00895831
0.00858148
0.00831189
0.00809378
0.00789781
0.00771579
0.0075435
0.00737705
0.00721459
0.00705606
0.00690243
0.00675471
0.006614
0.00648372
0.00636951
0.0062825
0.00623883
0.009839
0.00996522
0.00966201
0.00924542
0.00887753
0.00855732
0.00827593
0.00803165
0.00781472
0.00761576
0.00742842
0.00724992
0.0070794
0.0069155
0.00675703
0.00660543
0.00646123
0.00632352
0.00620226
0.00611879
0.00926868
0.00936958
0.00925768
0.00903203
0.00877625
0.00851728
0.00825748
0.00801384
0.00779444
0.00759334
0.00740537
0.00722774
0.00705819
0.00689399
0.00673309
0.00657508
0.00641758
0.00625811
0.00609978
0.00594131
0.00890022
0.00896821
0.00891533
0.00876754
0.00858197
0.00837698
0.00816625
0.00795843
0.00775758
0.00756629
0.00738469
0.00721159
0.00704509
0.00688333
0.00672479
0.00656828
0.00641203
0.00625449
0.00609641
0.00593446
0.00871694
0.00878131
0.00875134
0.0086257
0.00846574
0.00829194
0.00810725
0.00792026
0.00773377
0.00755111
0.00737488
0.0072045
0.00703977
0.00688055
0.00672543
0.00657305
0.00642224
0.00627255
0.00612586
0.00597694
0.00871696
0.00878133
0.00875137
0.00862578
0.00846589
0.00829215
0.0081075
0.00792062
0.00773433
0.00755197
0.00737616
0.00720643
0.00704272
0.00688501
0.00673209
0.0065828
0.00643604
0.00629219
0.0061548
0.00601689
0.00890026
0.00896825
0.0089154
0.00876766
0.00858216
0.00837725
0.00816662
0.007959
0.00775847
0.0075677
0.00738691
0.00721505
0.00705047
0.00689158
0.00673734
0.00658691
0.0064395
0.00629543
0.00615837
0.00602218
0.00926865
0.00936955
0.00925765
0.009032
0.00877622
0.00851725
0.00825745
0.00801381
0.00779442
0.00759333
0.00740536
0.00722774
0.00705819
0.006894
0.00673309
0.00657506
0.00641755
0.00625808
0.00609977
0.00594131
0.00983892
0.00996513
0.0096619
0.00924527
0.00887733
0.00855702
0.00827546
0.00803085
0.00781339
0.00761368
0.00742512
0.0072446
0.00707074
0.00690145
0.00673427
0.00656884
0.00640285
0.00623069
0.00605488
0.00587616
0.0111335
0.0102818
0.00951746
0.00895814
0.00858125
0.00831151
0.00809318
0.00789684
0.00771421
0.00754097
0.00737294
0.0072079
0.00704508
0.00688415
0.00672399
0.00656175
0.00639403
0.00621541
0.00601624
0.00576624
0.0114818
0.010748
0.0096552
0.00898939
0.0085867
0.00831202
0.00809918
0.00791068
0.00773292
0.00756131
0.00739364
0.00722887
0.00706639
0.0069075
0.00675498
0.00660682
0.00646281
0.00632624
0.00619586
0.00604244
0.0107649
0.0107332
0.010005
0.00929422
0.0088467
0.00852829
0.00826604
0.00803393
0.00782369
0.00762883
0.00744365
0.00726485
0.00709143
0.00692308
0.00675898
0.00659797
0.00643887
0.00627803
0.00612044
0.00598197
0.00983893
0.00996514
0.00966191
0.00924528
0.00887735
0.00855704
0.00827547
0.00803086
0.00781339
0.00761368
0.00742511
0.00724458
0.00707072
0.00690144
0.00673428
0.00656884
0.0064029
0.00623076
0.00605493
0.00587624
0.00942061
0.00946428
0.00929812
0.00903402
0.00875203
0.00847873
0.0082241
0.00799322
0.00778612
0.00759498
0.0074122
0.0072358
0.00706527
0.00689916
0.0067361
0.00657509
0.00641442
0.00625304
0.00609339
0.00593339
0.00920437
0.00922628
0.0090988
0.00888056
0.00864712
0.00841637
0.00819071
0.00797354
0.00776916
0.00757843
0.00739831
0.00722577
0.00705915
0.0068977
0.00674069
0.00658753
0.00643753
0.00629014
0.00614668
0.00600617
0.0092044
0.00922632
0.00909885
0.00888065
0.00864727
0.00841658
0.00819104
0.00797405
0.00776997
0.00757976
0.00740043
0.00722909
0.00706432
0.00690571
0.00675302
0.0066064
0.00646567
0.00633067
0.00620422
0.00608774
0.00942068
0.00946435
0.00929823
0.00903418
0.00875227
0.00847909
0.00822464
0.00799416
0.00778787
0.00759784
0.00741663
0.00724283
0.00707648
0.00691687
0.00676418
0.00661949
0.00648321
0.00635692
0.00624976
0.00617255
0.00983895
0.00996516
0.00966195
0.00924535
0.00887747
0.00855725
0.00827587
0.00803159
0.00781467
0.00761572
0.00742838
0.00724988
0.00707936
0.00691546
0.006757
0.00660541
0.00646118
0.00632347
0.00620224
0.00611877
0.0107648
0.0107331
0.010005
0.00929418
0.00884665
0.00852824
0.00826599
0.00803389
0.00782366
0.00762881
0.00744363
0.00726484
0.00709142
0.00692305
0.00675894
0.00659794
0.00643884
0.00627801
0.0061204
0.00598189
0.0114818
0.0107479
0.0096551
0.00898927
0.00858654
0.00831179
0.00809883
0.00791013
0.00773205
0.00755991
0.00739138
0.00722518
0.00706032
0.00689731
0.00673773
0.00657753
0.0064106
0.00622673
0.00598285
0.00558989
0.0186606
0.0115461
0.00925493
0.00871741
0.00844382
0.00822125
0.00803265
0.00786469
0.00770135
0.00753857
0.0073764
0.00721499
0.00705336
0.00689392
0.0067389
0.00658495
0.00642961
0.00627215
0.00608164
0.00572142
0.0114818
0.0107479
0.00965512
0.0089893
0.00858656
0.00831181
0.00809885
0.00791015
0.00773205
0.0075599
0.00739137
0.00722517
0.00706032
0.0068973
0.00673772
0.00657754
0.00641058
0.00622671
0.00598291
0.00558999
0.0111335
0.0102818
0.00951746
0.00895814
0.00858125
0.00831151
0.00809317
0.00789683
0.0077142
0.00754094
0.0073729
0.00720785
0.00704504
0.00688412
0.00672398
0.00656175
0.00639403
0.00621542
0.00601631
0.00576638
0.0107244
0.0099615
0.00934248
0.00889073
0.00854606
0.0082755
0.00805265
0.00785907
0.00768598
0.00752332
0.00736256
0.00720231
0.00704315
0.00688546
0.00672909
0.00657335
0.00641726
0.00626013
0.00610174
0.00594137
0.0105898
0.00984861
0.00926051
0.00885223
0.00852965
0.00826208
0.00803881
0.00784465
0.00766876
0.00750591
0.00735057
0.00719675
0.00704247
0.00688902
0.00673789
0.00658959
0.00644488
0.0063041
0.00616841
0.00604101
0.0105899
0.00984863
0.00926054
0.00885228
0.00852972
0.00826221
0.00803902
0.00784503
0.00766938
0.00750692
0.00735223
0.00719948
0.00704693
0.00689617
0.0067493
0.00660805
0.00647444
0.00635041
0.00623915
0.00614916
0.0107244
0.00996154
0.00934254
0.00889082
0.00854621
0.00827578
0.00805316
0.00785996
0.00768749
0.00752578
0.00736658
0.00720891
0.00705399
0.00690322
0.00675827
0.00662155
0.00649636
0.0063885
0.00631032
0.00627797
0.0111335
0.0102818
0.0095175
0.00895822
0.0085814
0.00831181
0.0080937
0.00789773
0.00771572
0.00754344
0.00737699
0.00721453
0.007056
0.00690237
0.00675466
0.00661395
0.0064837
0.0063695
0.00628248
0.00623881
0.0114818
0.0107479
0.00965513
0.00898932
0.00858663
0.00831194
0.0080991
0.00791061
0.00773286
0.00756126
0.0073936
0.00722882
0.00706633
0.00690745
0.00675493
0.00660675
0.00646282
0.00632625
0.00619581
0.00604239
0.0186605
0.0115461
0.00925489
0.00871736
0.00844377
0.0082212
0.0080326
0.00786465
0.00770132
0.00753856
0.00737639
0.00721497
0.00705331
0.00689385
0.00673883
0.00658496
0.00642967
0.00627216
0.0060816
0.00572137
0.00623122
0.00565294
0.00533078
0.00520555
0.00508907
0.00495854
0.00482294
0.00468502
0.00454519
0.00440401
0.00426197
0.00411927
0.003976
0.00383234
0.0036884
0.00354434
0.00340019
0.00325599
0.00311175
0.00296746
0.00282313
0.00267876
0.00253429
0.00238968
0.00224496
0.0021002
0.00195546
0.00181075
0.00166599
0.00152114
0.00137625
0.00123139
0.00108661
0.000941901
0.000796761
0.000651645
0.000506838
0.000361877
0.000217022
7.23417e-05
0.00634921
0.00577349
0.00535403
0.00518498
0.00506667
0.0049391
0.0048068
0.00467259
0.0045361
0.00439747
0.00425733
0.004116
0.00397372
0.00383078
0.0036874
0.00354373
0.00339986
0.00325582
0.00311168
0.00296745
0.00282316
0.0026788
0.00253434
0.00238973
0.002245
0.00210023
0.00195548
0.00181074
0.00166597
0.00152111
0.00137621
0.00123135
0.00108659
0.000941976
0.000796644
0.000651418
0.000506875
0.000362025
0.000217126
7.23683e-05
0.00621402
0.0058318
0.0054876
0.00528002
0.00512375
0.00497451
0.00482823
0.00468534
0.00454384
0.00440224
0.00426019
0.00411774
0.0039748
0.00383148
0.00368789
0.00354409
0.00340012
0.00325603
0.00311185
0.0029676
0.00282329
0.0026789
0.00253441
0.00238976
0.00224501
0.00210024
0.00195548
0.00181073
0.00166594
0.00152108
0.00137617
0.00123129
0.00108642
0.000941497
0.000796548
0.000651735
0.00050699
0.000362088
0.000217185
7.23908e-05
0.00603139
0.00577244
0.0055119
0.00530972
0.00514326
0.00498902
0.00483952
0.00469336
0.00454932
0.00440603
0.00426283
0.00411952
0.00397598
0.00383227
0.00368842
0.00354442
0.00340032
0.00325614
0.00311191
0.00296763
0.00282329
0.0026789
0.0025344
0.00238975
0.00224499
0.00210021
0.00195545
0.0018107
0.0016659
0.00152104
0.00137615
0.0012313
0.00108649
0.0009417
0.000796741
0.000651689
0.000506776
0.000361941
0.000217124
7.23769e-05
0.00589351
0.00569984
0.00549965
0.00532073
0.00515835
0.00500326
0.00485194
0.00470341
0.00455694
0.0044117
0.00426699
0.00412247
0.00397805
0.00383372
0.00368941
0.00354508
0.00340076
0.00325643
0.0031121
0.00296775
0.00282338
0.00267898
0.00253449
0.00238982
0.00224503
0.00210023
0.00195546
0.0018107
0.0016659
0.00152103
0.00137614
0.00123127
0.00108643
0.000941584
0.000796673
0.00065175
0.000506867
0.000362001
0.000217155
7.23818e-05
0.00577877
0.00563193
0.00547505
0.00531575
0.00515971
0.00500721
0.00485716
0.00470866
0.00456142
0.00441524
0.00426972
0.00412456
0.00397961
0.00383482
0.00369016
0.00354559
0.0034011
0.00325666
0.00311224
0.00296783
0.00282341
0.00267895
0.00253439
0.0023897
0.00224493
0.00210017
0.00195543
0.00181068
0.00166589
0.00152103
0.00137614
0.00123128
0.00108647
0.000941653
0.000796782
0.000651825
0.000506845
0.000361923
0.000217084
7.23533e-05
0.00567659
0.00557568
0.00545109
0.00530619
0.00515638
0.00500741
0.004859
0.00471093
0.00456362
0.00441715
0.00427125
0.00412573
0.00398043
0.00383538
0.00369054
0.00354587
0.00340129
0.00325678
0.00311231
0.00296786
0.00282341
0.00267893
0.00253436
0.00238966
0.0022449
0.00210016
0.00195543
0.0018107
0.00166592
0.00152105
0.00137616
0.00123132
0.00108653
0.000941742
0.000796885
0.000651869
0.000506796
0.000361829
0.000217012
7.23291e-05
0.00559094
0.00552607
0.00542493
0.00528984
0.00514701
0.00500272
0.00485678
0.00471006
0.00456344
0.00441722
0.00427141
0.00412585
0.00398051
0.00383542
0.00369055
0.00354584
0.00340124
0.00325672
0.00311225
0.0029678
0.00282336
0.00267888
0.00253432
0.00238965
0.0022449
0.00210016
0.00195543
0.00181071
0.00166594
0.00152109
0.00137621
0.00123138
0.00108661
0.000941862
0.000797043
0.000651952
0.000506705
0.000361678
0.000216911
7.22991e-05
0.00576797
0.00563026
0.00545564
0.0052955
0.00514805
0.0050013
0.00485433
0.00470778
0.0045616
0.00441573
0.0042701
0.00412494
0.00398014
0.00383527
0.0036904
0.00354567
0.00340108
0.00325658
0.00311213
0.00296771
0.00282329
0.00267884
0.00253431
0.00238965
0.00224491
0.00210017
0.00195544
0.00181073
0.00166597
0.00152113
0.00137624
0.00123142
0.00108669
0.000942024
0.000797378
0.000652099
0.000506432
0.000361396
0.00021677
7.22692e-05
0.00601414
0.00562823
0.00537537
0.00524939
0.00512448
0.00498539
0.00484285
0.0046996
0.00455573
0.00441146
0.00426703
0.00412269
0.00397843
0.003834
0.00368945
0.00354494
0.00340051
0.00325614
0.00311179
0.00296745
0.00282309
0.0026787
0.00253422
0.00238961
0.00224488
0.00210014
0.00195542
0.00181072
0.00166598
0.00152114
0.00137626
0.00123143
0.0010867
0.000942093
0.000797593
0.00065225
0.000506366
0.000361245
0.000216645
7.22165e-05
0.00623133
0.00565296
0.00533061
0.00520502
0.00508858
0.00495853
0.00482324
0.00468534
0.00454545
0.00440418
0.00426199
0.00411924
0.00397604
0.00383239
0.00368842
0.0035443
0.00340013
0.00325593
0.00311169
0.0029674
0.00282307
0.00267869
0.00253422
0.00238961
0.0022449
0.00210015
0.00195543
0.00181072
0.00166598
0.00152114
0.00137625
0.0012314
0.00108666
0.000942006
0.000797473
0.00065218
0.000506377
0.00036129
0.000216706
7.22634e-05
0.00601395
0.00562816
0.00537537
0.00524976
0.00512513
0.00498566
0.0048427
0.00469931
0.00455546
0.00441129
0.00426701
0.0041227
0.00397833
0.00383388
0.00368939
0.00354493
0.00340053
0.00325616
0.0031118
0.00296745
0.00282309
0.0026787
0.00253422
0.00238961
0.00224489
0.00210015
0.00195544
0.00181074
0.001666
0.00152117
0.00137629
0.00123146
0.00108676
0.000942235
0.000796854
0.000651349
0.000506623
0.000361768
0.000216954
7.2307e-05
0.0059704
0.00567191
0.00542534
0.0052567
0.0051106
0.00496686
0.00482549
0.00468538
0.00454479
0.00440329
0.00426111
0.00411836
0.00397513
0.00383152
0.00368768
0.00354371
0.00339965
0.00325552
0.00311134
0.00296712
0.00282285
0.00267853
0.00253409
0.00238951
0.00224481
0.0021001
0.0019554
0.0018107
0.00166596
0.00152111
0.00137622
0.00123137
0.00108653
0.000941681
0.000796991
0.000651972
0.000506686
0.000361746
0.000216988
7.23119e-05
0.00600947
0.00579057
0.00555781
0.00535219
0.00517395
0.00500963
0.00485361
0.00470339
0.00455627
0.00441057
0.00426567
0.00412122
0.00397694
0.00383274
0.00368857
0.00354441
0.00340022
0.00325599
0.00311173
0.00296744
0.0028231
0.0026787
0.00253419
0.00238954
0.00224482
0.00210011
0.0019554
0.00181069
0.00166591
0.00152104
0.00137615
0.00123128
0.00108639
0.000941413
0.000796849
0.000652066
0.000506789
0.000361843
0.000217096
7.23601e-05
0.00591005
0.00573755
0.00555001
0.00536337
0.00518912
0.00502437
0.00486606
0.00471274
0.00456288
0.00441526
0.004269
0.00412354
0.00397857
0.00383388
0.00368937
0.00354497
0.00340061
0.00325627
0.00311191
0.00296754
0.00282313
0.00267867
0.00253412
0.00238946
0.00224474
0.00210004
0.00195533
0.00181061
0.00166583
0.00152098
0.00137612
0.0012313
0.00108651
0.000941745
0.000796824
0.000651732
0.000506709
0.000361879
0.00021713
7.23661e-05
0.00582156
0.00566373
0.00550582
0.00534017
0.00517683
0.00501865
0.00486452
0.00471329
0.00456428
0.00441687
0.00427056
0.00412495
0.00397974
0.0038348
0.00369007
0.00354549
0.00340099
0.00325653
0.00311207
0.00296762
0.00282314
0.00267861
0.002534
0.00238932
0.00224465
0.00209997
0.00195528
0.00181055
0.00166576
0.00152093
0.00137609
0.00123125
0.00108641
0.000941557
0.000796703
0.000651817
0.000506888
0.000362028
0.000217217
7.23922e-05
0.00573138
0.00558376
0.00544848
0.00530039
0.00514928
0.00500029
0.00485282
0.00470612
0.00456002
0.00441442
0.00426923
0.0041243
0.00397949
0.00383476
0.00369012
0.00354556
0.00340106
0.00325658
0.00311211
0.00296763
0.00282314
0.00267859
0.00253397
0.0023893
0.00224462
0.00209995
0.00195525
0.00181052
0.00166574