/*--------------------------------*- C++ -*----------------------------------*\
| =========                 |                                                 |
| \\      /  F ield         | OpenFOAM: The Open Source CFD Toolbox           |
|  \\    /   O peration     | Version:  2212                                  |
|   \\  /    A nd           | Website:  www.openfoam.com                      |
|    \\/     M anipulation  |                                                 |
\*---------------------------------------------------------------------------*/
FoamFile
{
    version     2.0;
    format      ascii;
    arch        "LSB;label=32;scalar=64";
    class       surfaceScalarField;
    location    "0.3";
    object      phi;
}
// * * * * * * * * * * * * * * * * * * * * * * * * * * * * * * * * * * * * * //

dimensions      [0 3 -1 0 0 0 0];

oriented        oriented;

internalField   nonuniform List<scalar> 
19019
(
3.32249e-07
1.09704e-09
1.097e-09
2.79187e-07
2.65308e-08
2.65311e-08
2.49214e-07
1.49861e-08
1.49866e-08
2.29254e-07
9.97957e-09
9.98056e-09
2.14865e-07
7.19352e-09
7.19594e-09
2.03284e-07
5.78837e-09
5.79229e-09
1.93916e-07
4.6797e-09
4.68776e-09
1.86271e-07
3.81549e-09
3.83e-09
1.79835e-07
3.2055e-09
3.23079e-09
1.74342e-07
2.72482e-09
2.76775e-09
1.69652e-07
2.30917e-09
2.38074e-09
1.65672e-07
1.9313e-09
2.04956e-09
1.62334e-07
1.57089e-09
1.76712e-09
1.59564e-07
1.22103e-09
1.54886e-09
1.57292e-07
8.75727e-10
1.39753e-09
1.55523e-07
4.73558e-10
1.29571e-09
1.54264e-07
-9.08667e-11
1.34944e-09
1.5408e-07
-1.24961e-09
1.43385e-09
1.56717e-07
-4.22292e-09
1.58583e-09
-2.03364e-08
-9.0721e-09
6.31377e-07
3.58884e-09
7.40526e-09
6.14554e-07
2.26521e-08
2.07014e-08
5.86445e-07
2.43741e-08
1.87207e-08
5.61771e-07
1.88349e-08
1.58193e-08
5.39763e-07
1.55099e-08
1.36912e-08
5.20953e-07
1.33833e-08
1.12147e-08
5.05305e-07
1.1719e-08
8.60911e-09
4.9206e-07
1.03816e-08
6.67868e-09
4.80625e-07
9.27713e-09
5.3634e-09
4.70669e-07
8.23846e-09
4.44188e-09
4.61998e-07
7.20668e-09
3.77337e-09
4.54465e-07
6.19399e-09
3.27096e-09
4.47933e-07
5.20574e-09
2.89709e-09
4.42263e-07
4.28097e-09
2.61086e-09
4.37318e-07
3.44841e-09
2.37246e-09
4.32907e-07
2.62972e-09
2.25562e-09
4.28934e-07
1.66707e-09
2.21472e-09
4.25284e-07
4.24763e-10
1.97525e-09
4.23087e-07
-2.16666e-09
1.41325e-10
-1.84895e-09
-2.56853e-09
8.90372e-07
2.85314e-09
6.33564e-09
8.82482e-07
1.34115e-08
1.71306e-08
8.70376e-07
1.78568e-08
1.86235e-08
8.55178e-07
1.69306e-08
1.7102e-08
8.40155e-07
1.52703e-08
1.5263e-08
8.25944e-07
1.4009e-08
1.35849e-08
8.12628e-07
1.30708e-08
1.1964e-08
8.00383e-07
1.21441e-08
1.04828e-08
7.89425e-07
1.10514e-08
9.18334e-09
7.7982e-07
9.82465e-09
8.01871e-09
7.71476e-07
8.56858e-09
6.98251e-09
7.64248e-07
7.33559e-09
6.08627e-09
7.57965e-07
6.16236e-09
5.32668e-09
7.52432e-07
5.09563e-09
4.71858e-09
7.47403e-07
4.18223e-09
4.29514e-09
7.42534e-07
3.42587e-09
4.07347e-09
7.37252e-07
2.84966e-09
4.09937e-09
7.30662e-07
2.50387e-09
4.5108e-09
7.21206e-07
2.27432e-09
5.01509e-09
7.78966e-09
1.12226e-08
1.07431e-06
1.06666e-09
5.57283e-09
1.06822e-06
5.59086e-09
1.39092e-08
1.06137e-06
8.46118e-09
1.62446e-08
1.05343e-06
9.02228e-09
1.58502e-08
1.04526e-06
8.57102e-09
1.48685e-08
1.03757e-06
8.01804e-09
1.36853e-08
1.03052e-06
7.57632e-09
1.2538e-08
1.02413e-06
7.18175e-09
1.13548e-08
1.01819e-06
6.79975e-09
1.01909e-08
1.01264e-06
6.31677e-09
9.05869e-09
1.00757e-06
5.65896e-09
7.97775e-09
1.00299e-06
4.92537e-09
6.99561e-09
9.98798e-07
4.23029e-09
6.12126e-09
9.94862e-07
3.63936e-09
5.39257e-09
9.90978e-07
3.21167e-09
4.85457e-09
9.86822e-07
3.02244e-09
4.55945e-09
9.81828e-07
3.19948e-09
4.64453e-09
9.7526e-07
3.84763e-09
5.22432e-09
9.66047e-07
5.33621e-09
6.15137e-09
1.02583e-08
9.7073e-09
1.16914e-06
1.28404e-13
4.90974e-09
1.16312e-06
6.88989e-13
1.16137e-08
1.15731e-06
1.61136e-12
1.4266e-08
1.15204e-06
2.75181e-12
1.42881e-08
1.147e-06
4.5927e-12
1.3605e-08
1.14229e-06
7.8166e-12
1.27208e-08
1.13816e-06
1.33835e-11
1.16924e-08
1.13467e-06
2.26175e-11
1.06549e-08
1.13179e-06
3.7688e-11
9.6367e-09
1.12936e-06
6.23712e-11
8.68453e-09
1.12712e-06
1.02801e-10
7.79933e-09
1.12496e-06
1.68763e-10
6.91985e-09
1.12285e-06
2.75364e-10
6.06649e-09
1.12071e-06
4.46646e-10
5.33335e-09
1.11844e-06
7.21747e-10
4.75183e-09
1.11593e-06
1.17739e-09
4.35927e-09
1.113e-06
1.91572e-09
4.21668e-09
1.10944e-06
3.02566e-09
4.37776e-09
1.10522e-06
4.7736e-09
4.7855e-09
7.88056e-09
6.09499e-09
1.16914e-06
-1.06635e-09
4.90972e-09
1.16312e-06
-5.58974e-09
1.16135e-08
1.15731e-06
-8.45904e-09
1.42659e-08
1.15205e-06
-9.01872e-09
1.42876e-08
1.14701e-06
-8.56467e-09
1.36032e-08
1.14231e-06
-8.00649e-09
1.27173e-08
1.13819e-06
-7.55606e-09
1.16873e-08
1.13472e-06
-7.14721e-09
1.06464e-08
1.13187e-06
-6.74315e-09
9.622e-09
1.1295e-06
-6.22446e-09
8.66086e-09
1.12735e-06
-5.50691e-09
7.76271e-09
1.12533e-06
-4.67145e-09
6.86115e-09
1.12344e-06
-3.80946e-09
5.96812e-09
1.12168e-06
-2.95508e-09
5.16604e-09
1.12003e-06
-2.09393e-09
4.46728e-09
1.11843e-06
-1.11434e-09
3.88652e-09
1.11688e-06
3.9442e-11
3.43359e-09
1.1153e-06
1.50242e-09
3.09649e-09
1.11374e-06
3.52163e-09
2.81443e-09
6.33023e-09
2.82254e-09
1.07431e-06
-2.85316e-09
5.57284e-09
1.06822e-06
-1.34115e-08
1.39092e-08
1.06138e-06
-1.78567e-08
1.62439e-08
1.05344e-06
-1.69303e-08
1.58481e-08
1.04528e-06
-1.52694e-08
1.48646e-08
1.0376e-06
-1.40069e-08
1.36793e-08
1.03058e-06
-1.30671e-08
1.25286e-08
1.02424e-06
-1.21379e-08
1.13387e-08
1.01837e-06
-1.10426e-08
1.01663e-08
1.01294e-06
-9.81087e-09
9.01927e-09
1.00806e-06
-8.54421e-09
7.90978e-09
1.0038e-06
-7.28854e-09
6.876e-09
1.00016e-06
-6.07411e-09
5.91356e-09
9.97105e-07
-4.93894e-09
5.03413e-09
9.94667e-07
-3.89399e-09
4.23755e-09
9.92884e-07
-2.81349e-09
3.48231e-09
9.91789e-07
-1.58485e-09
2.71955e-09
9.91372e-07
4.14637e-11
1.87767e-09
9.91268e-07
2.87249e-09
7.5323e-10
8.20368e-09
-5.93791e-10
8.90372e-07
-3.58891e-09
6.33558e-09
8.82483e-07
-2.26526e-08
1.71301e-08
8.70379e-07
-2.43749e-08
1.86221e-08
8.55186e-07
-1.88363e-08
1.70994e-08
8.4017e-07
-1.5513e-08
1.52593e-08
8.25972e-07
-1.33886e-08
1.35798e-08
8.12677e-07
-1.17283e-08
1.19559e-08
8.00467e-07
-1.03974e-08
1.04689e-08
7.89568e-07
-9.30414e-09
9.16091e-09
7.80059e-07
-8.28354e-09
7.98129e-09
7.71877e-07
-7.27987e-09
6.91807e-09
7.64925e-07
-6.31077e-09
5.97367e-09
7.59114e-07
-5.39094e-09
5.12848e-09
7.54382e-07
-4.57559e-09
4.36832e-09
7.50739e-07
-3.92013e-09
3.66918e-09
7.48312e-07
-3.3263e-09
2.94032e-09
7.47395e-07
-2.68877e-09
2.02052e-09
7.48332e-07
-1.45661e-09
5.61222e-10
7.52063e-07
9.46607e-10
-1.806e-09
9.20298e-09
-6.66746e-09
6.31377e-07
-1.09707e-09
7.40517e-09
6.14554e-07
-2.65312e-08
2.07009e-08
5.86446e-07
-1.49867e-08
1.87198e-08
5.61773e-07
-9.98069e-09
1.58176e-08
5.39767e-07
-7.19617e-09
1.36891e-08
5.20961e-07
-5.79258e-09
1.12102e-08
5.05319e-07
-4.68807e-09
8.60184e-09
4.92085e-07
-3.83031e-09
6.66666e-09
4.80668e-07
-3.23099e-09
5.34357e-09
4.70743e-07
-2.76787e-09
4.40916e-09
4.62125e-07
-2.38069e-09
3.71899e-09
4.54683e-07
-2.04907e-09
3.18061e-09
4.48314e-07
-1.76673e-09
2.745e-09
4.42939e-07
-1.54909e-09
2.3492e-09
4.38509e-07
-1.39802e-09
1.90791e-09
4.35065e-07
-1.29645e-09
1.41387e-09
4.33007e-07
-1.3495e-09
7.1908e-10
4.33898e-07
-1.43336e-09
-9.14562e-10
4.40852e-07
-1.58632e-09
-4.42161e-09
9.07022e-09
-1.79154e-08
3.32249e-07
1.09699e-09
2.79187e-07
2.65307e-08
2.49214e-07
1.4986e-08
2.29254e-07
9.97947e-09
2.14865e-07
7.19335e-09
2.03284e-07
5.78815e-09
1.93916e-07
4.67948e-09
1.86271e-07
3.81525e-09
1.79835e-07
3.20532e-09
1.74342e-07
2.72468e-09
1.69653e-07
2.30887e-09
1.65673e-07
1.93045e-09
1.62337e-07
1.56983e-09
1.59568e-07
1.22025e-09
1.57294e-07
8.75538e-10
1.55523e-07
4.74455e-10
1.54264e-07
-9.00701e-11
1.5408e-07
-1.24912e-09
1.56715e-07
-4.22165e-09
-2.03355e-08
6.31377e-07
7.40518e-09
3.58885e-09
6.14554e-07
2.0701e-08
2.26524e-08
5.86446e-07
1.87198e-08
2.43748e-08
5.61773e-07
1.58176e-08
1.88362e-08
5.39767e-07
1.36891e-08
1.55128e-08
5.20961e-07
1.12102e-08
1.33884e-08
5.05319e-07
8.60194e-09
1.17281e-08
4.92085e-07
6.6668e-09
1.03971e-08
4.80668e-07
5.34373e-09
9.30407e-09
4.70743e-07
4.40931e-09
8.28363e-09
4.62124e-07
3.71941e-09
7.28037e-09
4.54681e-07
3.18107e-09
6.31132e-09
4.48312e-07
2.74528e-09
5.39085e-09
4.42937e-07
2.34954e-09
4.57483e-09
4.38508e-07
1.90776e-09
3.91985e-09
4.35063e-07
1.41258e-09
3.32749e-09
4.33005e-07
7.17942e-10
2.69009e-09
4.33897e-07
-9.1591e-10
1.45752e-09
4.40855e-07
-4.42353e-09
-9.48948e-10
-1.79188e-08
-9.21168e-09
9.23616e-07
7.03606e-09
7.0362e-09
9.25324e-07
1.98473e-08
1.98478e-08
9.1721e-07
2.27765e-08
2.27777e-08
9.04332e-07
2.22563e-08
2.22585e-08
8.9065e-07
2.05293e-08
2.0533e-08
8.77654e-07
1.77068e-08
1.77139e-08
8.65916e-07
1.44687e-08
1.44806e-08
8.55596e-07
1.1823e-08
1.18429e-08
8.46666e-07
9.80145e-09
9.83561e-09
8.39024e-07
8.21802e-09
8.27494e-09
8.32545e-07
6.93976e-09
7.0324e-09
8.27107e-07
5.86977e-09
6.02071e-09
8.22572e-07
4.96527e-09
5.2115e-09
8.18876e-07
4.12814e-09
4.5283e-09
8.1601e-07
3.2495e-09
3.89751e-09
8.13861e-07
2.38728e-09
3.42954e-09
8.12317e-07
1.4213e-09
3.05545e-09
8.11126e-07
-1.22213e-10
2.37305e-09
8.08901e-07
-2.78523e-09
7.27571e-10
-7.65873e-09
-3.49542e-09
1.1589e-06
5.28203e-09
6.10529e-09
1.1657e-06
1.39957e-08
1.61825e-08
1.16846e-06
1.79613e-08
2.06864e-08
1.16664e-06
1.91312e-08
2.20396e-08
1.16229e-06
1.87745e-08
2.13741e-08
1.15668e-06
1.73598e-08
1.95395e-08
1.15071e-06
1.53645e-08
1.70357e-08
1.14495e-06
1.33776e-08
1.46853e-08
1.1397e-06
1.15678e-08
1.26667e-08
1.13511e-06
9.89697e-09
1.09333e-08
1.13119e-06
8.40301e-09
9.4419e-09
1.12786e-06
7.11298e-09
8.16876e-09
1.12506e-06
5.99314e-09
7.10373e-09
1.12269e-06
4.99335e-09
6.22101e-09
1.12064e-06
4.07534e-09
5.51633e-09
1.11879e-06
3.25827e-09
5.05272e-09
1.117e-06
2.48576e-09
4.83253e-09
1.11495e-06
1.63889e-09
4.79107e-09
1.1117e-06
6.4234e-10
4.83837e-09
3.29289e-10
5.53374e-09
1.32763e-06
2.71955e-09
4.93422e-09
1.3354e-06
7.12144e-09
1.30084e-08
1.34287e-06
9.54618e-09
1.71921e-08
1.34848e-06
1.05485e-08
1.88188e-08
1.35201e-06
1.0805e-08
1.93115e-08
1.35384e-06
1.04448e-08
1.87681e-08
1.35457e-06
9.64076e-09
1.75289e-08
1.35474e-06
8.65905e-09
1.59068e-08
1.35461e-06
7.69085e-09
1.41931e-08
1.35434e-06
6.73735e-09
1.24971e-08
1.35397e-06
5.81158e-09
1.09303e-08
1.35357e-06
4.97135e-09
9.54462e-09
1.3531e-06
4.2421e-09
8.33894e-09
1.35252e-06
3.63875e-09
7.32591e-09
1.35174e-06
3.16984e-09
6.53831e-09
1.35067e-06
2.8615e-09
6.02822e-09
1.34921e-06
2.74903e-09
5.843e-09
1.34725e-06
2.85175e-09
5.97204e-09
1.34446e-06
3.2207e-09
6.36229e-09
4.16968e-09
7.35578e-09
1.41518e-06
2.69831e-13
4.19494e-09
1.4228e-06
7.92563e-13
1.11123e-08
1.43154e-06
1.31685e-12
1.50715e-08
1.43982e-06
2.3423e-12
1.6552e-08
1.44713e-06
4.27985e-12
1.71002e-08
1.45312e-06
7.35915e-12
1.71697e-08
1.45787e-06
1.20394e-11
1.65668e-08
1.46165e-06
2.00478e-11
1.55125e-08
1.46476e-06
3.3972e-11
1.41848e-08
1.46734e-06
5.60523e-11
1.27875e-08
1.46946e-06
8.99381e-11
1.13949e-08
1.4712e-06
1.44897e-10
1.00062e-08
1.47258e-06
2.33619e-10
8.70058e-09
1.47359e-06
3.74515e-10
7.5837e-09
1.47424e-06
5.95773e-10
6.67339e-09
1.47453e-06
9.37509e-10
5.99444e-09
1.47447e-06
1.45782e-09
5.56881e-09
1.47409e-06
2.21647e-09
5.39146e-09
1.47346e-06
3.25751e-09
5.38073e-09
4.55084e-09
5.6689e-09
1.41518e-06
-2.71922e-09
4.1948e-09
1.4228e-06
-7.12055e-09
1.1112e-08
1.43154e-06
-9.54463e-09
1.50709e-08
1.43983e-06
-1.05457e-08
1.65508e-08
1.44714e-06
-1.07997e-08
1.70972e-08
1.45313e-06
-1.04359e-08
1.71644e-08
1.4579e-06
-9.62644e-09
1.65586e-08
1.4617e-06
-8.63425e-09
1.54996e-08
1.46484e-06
-7.64772e-09
1.41642e-08
1.46747e-06
-6.66793e-09
1.27545e-08
1.46968e-06
-5.70104e-09
1.13436e-08
1.47155e-06
-4.78699e-09
9.92315e-09
1.47313e-06
-3.93735e-09
8.56209e-09
1.47445e-06
-3.13968e-09
7.35672e-09
1.47556e-06
-2.35454e-09
6.30676e-09
1.47651e-06
-1.53262e-09
5.41071e-09
1.47734e-06
-6.0114e-10
4.66373e-09
1.47806e-06
5.4563e-10
4.04027e-09
1.47864e-06
2.00724e-09
3.48716e-09
3.75674e-09
3.09467e-09
1.32763e-06
-5.28214e-09
4.93396e-09
1.3354e-06
-1.39959e-08
1.30077e-08
1.34287e-06
-1.79616e-08
1.71904e-08
1.34849e-06
-1.91316e-08
1.88148e-08
1.35203e-06
-1.87752e-08
1.93042e-08
1.35388e-06
-1.73615e-08
1.87571e-08
1.35463e-06
-1.53668e-08
1.75122e-08
1.35484e-06
-1.33804e-08
1.58792e-08
1.35478e-06
-1.15747e-08
1.41504e-08
1.35462e-06
-9.91094e-09
1.24283e-08
1.35443e-06
-8.42339e-09
1.08144e-08
1.35431e-06
-7.13812e-09
9.35062e-09
1.35429e-06
-6.02515e-09
8.01738e-09
1.35442e-06
-5.0296e-09
6.79362e-09
1.35475e-06
-4.10541e-09
5.66099e-09
1.35535e-06
-3.24423e-09
4.59953e-09
1.35624e-06
-2.33447e-09
3.55662e-09
1.35737e-06
-1.16034e-09
2.45682e-09
1.35835e-06
5.24912e-10
1.25203e-09
3.12685e-09
9.06197e-11
1.1589e-06
-7.03623e-09
6.105e-09
1.1657e-06
-1.98478e-08
1.61814e-08
1.16846e-06
-2.27777e-08
2.06841e-08
1.16665e-06
-2.22586e-08
2.20354e-08
1.1623e-06
-2.0533e-08
2.13677e-08
1.1567e-06
-1.7714e-08
1.95303e-08
1.15075e-06
-1.44807e-08
1.70209e-08
1.14502e-06
-1.18429e-08
1.46592e-08
1.13982e-06
-9.83554e-09
1.2623e-08
1.1353e-06
-8.27475e-09
1.08616e-08
1.13151e-06
-7.032e-09
9.32293e-09
1.12839e-06
-6.02033e-09
7.97054e-09
1.12593e-06
-5.21156e-09
6.77362e-09
1.12413e-06
-4.52849e-09
5.67216e-09
1.12299e-06
-3.89765e-09
4.60539e-09
1.12257e-06
-3.4305e-09
3.5459e-09
1.12296e-06
-3.05528e-09
2.35187e-09
1.12392e-06
-2.37357e-09
8.11979e-10
1.12456e-06
-7.30386e-10
-1.19539e-09
3.49356e-09
-3.61031e-09
9.23617e-07
-7.40528e-09
7.03604e-09
9.25324e-07
-2.07015e-08
1.98472e-08
9.1721e-07
-1.87208e-08
2.27765e-08
9.04332e-07
-1.58194e-08
2.22564e-08
8.9065e-07
-1.36914e-08
2.05293e-08
8.77654e-07
-1.12149e-08
1.77068e-08
8.65916e-07
-8.60931e-09
1.44686e-08
8.55596e-07
-6.67887e-09
1.18229e-08
8.46666e-07
-5.36351e-09
9.80137e-09
8.39025e-07
-4.44195e-09
8.2179e-09
8.32546e-07
-3.77312e-09
6.93945e-09
8.27107e-07
-3.27061e-09
5.86929e-09
8.22573e-07
-2.89677e-09
4.96464e-09
8.18877e-07
-2.61026e-09
4.12765e-09
8.16009e-07
-2.37229e-09
3.24984e-09
8.1386e-07
-2.25681e-09
2.38914e-09
8.12318e-07
-2.21597e-09
1.42257e-09
8.11127e-07
-1.97677e-09
-1.20259e-10
8.089e-07
-1.43712e-10
-2.78133e-09
2.56755e-09
-7.65601e-09
6.31377e-07
3.58875e-09
6.14554e-07
2.26519e-08
5.86445e-07
2.43739e-08
5.61771e-07
1.88347e-08
5.39763e-07
1.55097e-08
5.20953e-07
1.33831e-08
5.05305e-07
1.17187e-08
4.9206e-07
1.03813e-08
4.80625e-07
9.27683e-09
4.7067e-07
8.23812e-09
4.62e-07
7.206e-09
4.54467e-07
6.19313e-09
4.47935e-07
5.20506e-09
4.42264e-07
4.28054e-09
4.37319e-07
3.44841e-09
4.32908e-07
2.6295e-09
4.28935e-07
1.66704e-09
4.25283e-07
4.26142e-10
4.23081e-07
-2.16359e-09
-1.84473e-09
8.90372e-07
6.33557e-09
2.85311e-09
8.82483e-07
1.71301e-08
1.34115e-08
8.70379e-07
1.86221e-08
1.78567e-08
8.55186e-07
1.70993e-08
1.69303e-08
8.4017e-07
1.52592e-08
1.52695e-08
8.25971e-07
1.35798e-08
1.4007e-08
8.12677e-07
1.19559e-08
1.30672e-08
8.00467e-07
1.04689e-08
1.21381e-08
7.89567e-07
9.16096e-09
1.10429e-08
7.80058e-07
7.98143e-09
9.81134e-09
7.71876e-07
6.9184e-09
8.54489e-09
7.64924e-07
5.97386e-09
7.28916e-09
7.59113e-07
5.12794e-09
6.07443e-09
7.54381e-07
4.36762e-09
4.93941e-09
7.50735e-07
3.66939e-09
3.8963e-09
7.48305e-07
2.94108e-09
2.8168e-09
7.47386e-07
2.02098e-09
1.58812e-09
7.48322e-07
5.60576e-10
-3.93537e-11
7.52055e-07
-1.8088e-09
-2.87312e-09
-6.67202e-09
-8.20597e-09
1.1589e-06
6.10501e-09
5.28212e-09
1.1657e-06
1.61814e-08
1.39959e-08
1.16846e-06
2.0684e-08
1.79616e-08
1.16665e-06
2.20353e-08
1.91316e-08
1.1623e-06
2.13676e-08
1.87752e-08
1.1567e-06
1.95302e-08
1.73615e-08
1.15075e-06
1.70209e-08
1.53669e-08
1.14502e-06
1.46592e-08
1.33805e-08
1.13982e-06
1.2623e-08
1.1575e-08
1.1353e-06
1.08618e-08
9.91133e-09
1.13151e-06
9.32326e-09
8.42396e-09
1.12839e-06
7.9709e-09
7.1386e-09
1.12593e-06
6.77363e-09
6.02462e-09
1.12413e-06
5.67182e-09
5.02888e-09
1.12299e-06
4.60503e-09
4.10592e-09
1.12256e-06
3.54563e-09
3.24551e-09
1.12295e-06
2.3518e-09
2.33634e-09
1.12391e-06
8.11089e-10
1.16176e-09
1.12456e-06
-1.19777e-09
-5.24948e-10
-3.61268e-09
-3.12724e-09
1.37712e-06
4.57773e-09
4.57798e-09
1.38566e-06
1.19115e-08
1.19123e-08
1.39418e-06
1.64242e-08
1.64257e-08
1.40125e-06
1.85029e-08
1.85054e-08
1.40636e-06
1.88165e-08
1.88206e-08
1.40939e-06
1.8016e-08
1.80227e-08
1.4107e-06
1.63655e-08
1.63765e-08
1.41108e-06
1.44759e-08
1.44938e-08
1.41103e-06
1.26516e-08
1.26804e-08
1.41083e-06
1.09746e-08
1.10215e-08
1.41062e-06
9.4514e-09
9.52776e-09
1.41048e-06
8.07915e-09
8.20229e-09
1.41047e-06
6.84505e-09
7.04303e-09
1.41061e-06
5.71455e-09
6.03066e-09
1.41093e-06
4.65466e-09
5.15389e-09
1.41146e-06
3.6435e-09
4.41681e-09
1.41226e-06
2.60448e-09
3.7837e-09
1.41322e-06
1.45603e-09
3.18306e-09
1.41416e-06
1.81409e-10
2.519e-09
-9.72384e-10
1.7499e-09
1.53313e-06
2.36587e-09
3.64803e-09
1.54219e-06
6.23458e-09
9.62318e-09
1.55329e-06
8.85895e-09
1.36578e-08
1.56444e-06
1.03119e-08
1.58583e-08
1.57498e-06
1.08288e-08
1.67607e-08
1.58445e-06
1.0627e-08
1.66836e-08
1.59247e-06
9.93411e-09
1.59495e-08
1.59909e-06
9.00686e-09
1.47542e-08
1.6046e-06
7.98623e-09
1.3346e-08
1.6092e-06
6.98665e-09
1.18845e-08
1.61306e-06
6.05168e-09
1.04719e-08
1.61631e-06
5.20862e-09
9.16021e-09
1.61906e-06
4.45828e-09
7.97684e-09
1.62137e-06
3.78942e-09
6.9399e-09
1.6233e-06
3.19728e-09
6.06846e-09
1.62491e-06
2.68001e-09
5.38126e-09
1.62625e-06
2.22627e-09
4.88138e-09
1.62729e-06
1.82486e-09
4.5654e-09
1.62796e-06
1.48685e-09
4.38318e-09
1.33367e-09
4.31485e-09
1.61424e-06
2.03157e-13
3.09012e-09
1.62333e-06
4.86181e-13
8.2596e-09
1.63534e-06
8.07711e-13
1.19167e-08
1.64818e-06
1.3892e-12
1.40251e-08
1.66108e-06
2.43495e-12
1.50308e-08
1.67357e-06
3.8724e-12
1.52943e-08
1.68509e-06
6.22128e-12
1.49784e-08
1.69534e-06
1.00413e-11
1.42627e-08
1.70427e-06
1.64533e-11
1.32206e-08
1.712e-06
2.64349e-11
1.20188e-08
1.71864e-06
4.19651e-11
1.07622e-08
1.72428e-06
6.70116e-11
9.5124e-09
1.72901e-06
1.06624e-10
8.32325e-09
1.73297e-06
1.67915e-10
7.24465e-09
1.73627e-06
2.61467e-10
6.30791e-09
1.73901e-06
4.01954e-10
5.53359e-09
1.74126e-06
6.07611e-10
4.93141e-09
1.74308e-06
9.01169e-10
4.49567e-09
1.74445e-06
1.29798e-09
4.19704e-09
1.76074e-09
4.06666e-09
1.61424e-06
-2.3657e-09
3.08996e-09
1.62333e-06
-6.23419e-09
8.25912e-09
1.63534e-06
-8.85832e-09
1.19158e-08
1.64818e-06
-1.03108e-08
1.40233e-08
1.66108e-06
-1.08271e-08
1.50275e-08
1.67359e-06
-1.06246e-08
1.52891e-08
1.68511e-06
-9.93029e-09
1.49709e-08
1.69537e-06
-9.00047e-09
1.4251e-08
1.70432e-06
-7.97528e-09
1.32021e-08
1.71208e-06
-6.96881e-09
1.19895e-08
1.71878e-06
-6.0228e-09
1.07157e-08
1.72449e-06
-5.16085e-09
9.43826e-09
1.72933e-06
-4.38072e-09
8.20504e-09
1.73346e-06
-3.66405e-09
7.05827e-09
1.73701e-06
-2.99553e-09
6.01864e-09
1.74008e-06
-2.35774e-09
5.09442e-09
1.74279e-06
-1.71733e-09
4.28562e-09
1.74517e-06
-1.0246e-09
3.58231e-09
1.74723e-06
-2.42721e-10
2.97035e-09
5.92754e-10
2.53695e-09
1.53313e-06
-4.57799e-09
3.64766e-09
1.54219e-06
-1.19123e-08
9.62212e-09
1.5533e-06
-1.64257e-08
1.36558e-08
1.56445e-06
-1.85054e-08
1.58547e-08
1.57499e-06
-1.88206e-08
1.67546e-08
1.58447e-06
-1.80228e-08
1.66737e-08
1.5925e-06
-1.63765e-08
1.59342e-08
1.59914e-06
-1.44938e-08
1.47301e-08
1.60469e-06
-1.26802e-08
1.33086e-08
1.60934e-06
-1.10212e-08
1.18245e-08
1.61329e-06
-9.52726e-09
1.03733e-08
1.61668e-06
-8.20152e-09
9.0002e-09
1.61964e-06
-7.04208e-09
7.71949e-09
1.62227e-06
-6.02988e-09
6.52936e-09
1.62467e-06
-5.15337e-09
5.42128e-09
1.62694e-06
-4.41626e-09
4.38114e-09
1.62919e-06
-3.78302e-09
3.38083e-09
1.63142e-06
-3.18237e-09
2.38099e-09
1.63356e-06
-2.51807e-09
1.38839e-09
-1.74722e-09
5.64291e-10
1.37712e-06
-6.10529e-09
4.5777e-09
1.38566e-06
-1.61825e-08
1.19115e-08
1.39418e-06
-2.06865e-08
1.64243e-08
1.40125e-06
-2.20397e-08
1.8503e-08
1.40636e-06
-2.13742e-08
1.88166e-08
1.40939e-06
-1.95396e-08
1.80161e-08
1.4107e-06
-1.70358e-08
1.63656e-08
1.41108e-06
-1.46853e-08
1.4476e-08
1.41103e-06
-1.26666e-08
1.26516e-08
1.41083e-06
-1.09332e-08
1.09746e-08
1.41062e-06
-9.4415e-09
9.45125e-09
1.41048e-06
-8.16811e-09
8.07887e-09
1.41047e-06
-7.10282e-09
6.84474e-09
1.41061e-06
-6.22e-09
5.71442e-09
1.41093e-06
-5.51558e-09
4.65475e-09
1.41147e-06
-5.0525e-09
3.64364e-09
1.41226e-06
-4.83292e-09
2.60463e-09
1.41323e-06
-4.79265e-09
1.45647e-09
1.41417e-06
-4.84112e-09
1.82031e-10
-5.53504e-09
-9.72674e-10
1.1589e-06
-6.33564e-09
5.28199e-09
1.1657e-06
-1.71306e-08
1.39956e-08
1.16846e-06
-1.86235e-08
1.79613e-08
1.16664e-06
-1.7102e-08
1.91312e-08
1.16229e-06
-1.5263e-08
1.87745e-08
1.15668e-06
-1.3585e-08
1.73598e-08
1.15071e-06
-1.19641e-08
1.53646e-08
1.14495e-06
-1.04828e-08
1.33776e-08
1.13971e-06
-9.18333e-09
1.15678e-08
1.13511e-06
-8.01865e-09
9.89697e-09
1.13119e-06
-6.98226e-09
8.40295e-09
1.12786e-06
-6.08591e-09
7.11286e-09
1.12506e-06
-5.32626e-09
5.99299e-09
1.12269e-06
-4.71793e-09
4.99325e-09
1.12064e-06
-4.29411e-09
4.07539e-09
1.11879e-06
-4.0723e-09
3.25862e-09
1.117e-06
-4.09949e-09
2.48647e-09
1.11496e-06
-4.51324e-09
1.64078e-09
1.11171e-06
-5.01966e-09
6.45839e-10
-1.1228e-08
3.32627e-10
8.90372e-07
2.85308e-09
8.82482e-07
1.34113e-08
8.70376e-07
1.78566e-08
8.55178e-07
1.69304e-08
8.40155e-07
1.52702e-08
8.25944e-07
1.40089e-08
8.12628e-07
1.30707e-08
8.00383e-07
1.21439e-08
7.89425e-07
1.10513e-08
7.7982e-07
9.82451e-09
7.71476e-07
8.56843e-09
7.64248e-07
7.33569e-09
7.57964e-07
6.16276e-09
7.52431e-07
5.09602e-09
7.47403e-07
4.18208e-09
7.42535e-07
3.42504e-09
7.37254e-07
2.84864e-09
7.30662e-07
2.50494e-09
7.212e-07
2.27918e-09
7.79585e-09
1.07431e-06
5.57283e-09
1.06634e-09
1.06822e-06
1.39092e-08
5.58981e-09
1.06138e-06
1.62439e-08
8.45923e-09
1.05344e-06
1.58481e-08
9.01894e-09
1.04528e-06
1.48645e-08
8.56495e-09
1.0376e-06
1.36792e-08
8.00684e-09
1.03058e-06
1.25285e-08
7.55648e-09
1.02424e-06
1.13387e-08
7.14773e-09
1.01837e-06
1.01664e-08
6.74378e-09
1.01293e-06
9.01954e-09
6.22529e-09
1.00806e-06
7.91035e-09
5.50809e-09
1.0038e-06
6.8768e-09
4.6732e-09
1.00015e-06
5.91399e-09
3.81218e-09
9.97095e-07
5.03476e-09
2.95804e-09
9.94655e-07
4.23924e-09
2.0972e-09
9.9287e-07
3.48391e-09
1.11739e-09
9.91775e-07
2.7203e-09
-3.691e-11
9.91359e-07
1.87722e-09
-1.5007e-09
9.91255e-07
7.51267e-10
-3.52054e-09
-5.98002e-10
-6.32925e-09
1.32763e-06
4.93397e-09
2.71923e-09
1.3354e-06
1.30077e-08
7.12061e-09
1.34287e-06
1.71904e-08
9.5447e-09
1.34849e-06
1.88147e-08
1.05457e-08
1.35203e-06
1.93042e-08
1.07998e-08
1.35388e-06
1.8757e-08
1.04359e-08
1.35463e-06
1.75121e-08
9.62654e-09
1.35484e-06
1.58792e-08
8.63443e-09
1.35478e-06
1.41505e-08
7.64799e-09
1.35462e-06
1.24285e-08
6.66833e-09
1.35443e-06
1.08147e-08
5.70157e-09
1.35431e-06
9.35073e-09
4.7874e-09
1.3543e-06
8.01629e-09
3.93696e-09
1.35443e-06
6.79278e-09
3.13948e-09
1.35475e-06
5.66203e-09
2.35591e-09
1.35535e-06
4.60119e-09
1.53491e-09
1.35624e-06
3.55796e-09
6.03632e-10
1.35737e-06
2.45725e-09
-5.43319e-10
1.35835e-06
1.25075e-09
-2.00554e-09
8.6845e-11
-3.75612e-09
1.53313e-06
3.64768e-09
2.36571e-09
1.54219e-06
9.62212e-09
6.23422e-09
1.5533e-06
1.36558e-08
8.85833e-09
1.56445e-06
1.58546e-08
1.03108e-08
1.57499e-06
1.67545e-08
1.0827e-08
1.58447e-06
1.66736e-08
1.06245e-08
1.5925e-06
1.59341e-08
9.93027e-09
1.59914e-06
1.47301e-08
9.0005e-09
1.60469e-06
1.33086e-08
7.97538e-09
1.60934e-06
1.18246e-08
6.96901e-09
1.61329e-06
1.03734e-08
6.02309e-09
1.61668e-06
9.00021e-09
5.16115e-09
1.61964e-06
7.71924e-09
4.38087e-09
1.62227e-06
6.5291e-09
3.66429e-09
1.62467e-06
5.42151e-09
2.99624e-09
1.62695e-06
4.38176e-09
2.35892e-09
1.62919e-06
3.38144e-09
1.71876e-09
1.63142e-06
2.38121e-09
1.02609e-09
1.63356e-06
1.38774e-09
2.43976e-10
5.62542e-10
-5.91822e-10
1.68027e-06
1.88885e-09
1.88896e-09
1.68934e-06
5.08939e-09
5.08979e-09
1.70177e-06
7.43961e-09
7.44041e-09
1.71569e-06
8.89578e-09
8.89713e-09
1.73e-06
9.60215e-09
9.60437e-09
1.74394e-06
9.70446e-09
9.70811e-09
1.75701e-06
9.40422e-09
9.40991e-09
1.76886e-06
8.81468e-09
8.82324e-09
1.77939e-06
8.05369e-09
8.06686e-09
1.78865e-06
7.21868e-09
7.23942e-09
1.79671e-06
6.37432e-09
6.4073e-09
1.8037e-06
5.55875e-09
5.61081e-09
1.80973e-06
4.79012e-09
4.87176e-09
1.81493e-06
4.0742e-09
4.20062e-09
1.8194e-06
3.41079e-09
3.60292e-09
1.82329e-06
2.79495e-09
3.07903e-09
1.82671e-06
2.21874e-09
2.62212e-09
1.82976e-06
1.67447e-09
2.2213e-09
1.83251e-06
1.17599e-09
1.84761e-09
8.23222e-10
1.49863e-09
1.7569e-06
5.195e-14
1.61041e-09
1.76587e-06
7.11365e-14
4.3726e-09
1.77873e-06
4.3703e-14
6.50437e-09
1.79375e-06
2.297e-14
7.89595e-09
1.80973e-06
6.64488e-15
8.6562e-09
1.82581e-06
-2.31467e-14
8.91957e-09
1.84138e-06
-2.39669e-14
8.81403e-09
1.85601e-06
2.42246e-13
8.44782e-09
1.86939e-06
6.10809e-13
7.89315e-09
1.8814e-06
1.09012e-12
7.2242e-09
1.89203e-06
1.78036e-12
6.50189e-09
1.90133e-06
2.94911e-12
5.77071e-09
1.90937e-06
4.87941e-12
5.06324e-09
1.91628e-06
8.11448e-12
4.40371e-09
1.92218e-06
1.38543e-11
3.80662e-09
1.92721e-06
2.45186e-11
3.27546e-09
1.9315e-06
4.44348e-11
2.80884e-09
1.93517e-06
8.19154e-11
2.4222e-09
1.93835e-06
1.58785e-10
2.03578e-09
2.84223e-10
1.86097e-09
1.7569e-06
-1.88895e-09
1.61031e-09
1.76588e-06
-5.08976e-09
4.37227e-09
1.77873e-06
-7.44041e-09
6.50375e-09
1.79375e-06
-8.89717e-09
7.89485e-09
1.80973e-06
-9.60443e-09
8.65441e-09
1.82581e-06
-9.70816e-09
8.91677e-09
1.84138e-06
-9.40993e-09
8.80991e-09
1.85601e-06
-8.8232e-09
8.44153e-09
1.8694e-06
-8.06675e-09
7.88341e-09
1.88142e-06
-7.2392e-09
7.209e-09
1.89207e-06
-6.40692e-09
6.47813e-09
1.90139e-06
-5.61026e-09
5.73365e-09
1.90946e-06
-4.87112e-09
5.00573e-09
1.91641e-06
-4.20003e-09
4.31556e-09
1.92237e-06
-3.60238e-09
3.67404e-09
1.92749e-06
-3.07841e-09
3.08123e-09
1.9319e-06
-2.62143e-09
2.53416e-09
1.93574e-06
-2.22061e-09
2.0501e-09
1.93915e-06
-1.847e-09
1.56266e-09
-1.49826e-09
1.33196e-09
1.68027e-06
-3.64804e-09
1.88883e-09
1.68934e-06
-9.62316e-09
5.08939e-09
1.70177e-06
-1.36578e-08
7.43965e-09
1.71569e-06
-1.58584e-08
8.89585e-09
1.73e-06
-1.67608e-08
9.60223e-09
1.74394e-06
-1.66836e-08
9.70455e-09
1.75701e-06
-1.59495e-08
9.4043e-09
1.76886e-06
-1.47541e-08
8.81474e-09
1.77939e-06
-1.33458e-08
8.05372e-09
1.78865e-06
-1.18842e-08
7.21867e-09
1.79671e-06
-1.04714e-08
6.37426e-09
1.8037e-06
-9.15943e-09
5.55865e-09
1.80973e-06
-7.97588e-09
4.79006e-09
1.81493e-06
-6.93903e-09
4.07418e-09
1.8194e-06
-6.06769e-09
3.41068e-09
1.82329e-06
-5.38048e-09
2.79471e-09
1.82671e-06
-4.8805e-09
2.2185e-09
1.82976e-06
-4.56436e-09
1.6744e-09
1.83251e-06
-4.38166e-09
1.17632e-09
-4.31247e-09
8.24036e-10
1.53313e-06
-4.93422e-09
2.36585e-09
1.54219e-06
-1.30084e-08
6.23458e-09
1.55329e-06
-1.71921e-08
8.85899e-09
1.56444e-06
-1.88188e-08
1.0312e-08
1.57498e-06
-1.93116e-08
1.08288e-08
1.58445e-06
-1.87681e-08
1.06271e-08
1.59247e-06
-1.75289e-08
9.9342e-09
1.59909e-06
-1.59068e-08
9.00694e-09
1.6046e-06
-1.4193e-08
7.98629e-09
1.6092e-06
-1.24969e-08
6.98667e-09
1.61306e-06
-1.093e-08
6.05163e-09
1.61631e-06
-9.54406e-09
5.20849e-09
1.61906e-06
-8.33819e-09
4.45812e-09
1.62137e-06
-7.32508e-09
3.7893e-09
1.6233e-06
-6.53742e-09
3.19715e-09
1.62491e-06
-6.02736e-09
2.67973e-09
1.62625e-06
-5.84241e-09
2.22578e-09
1.62729e-06
-5.97193e-09
1.82408e-09
1.62797e-06
-6.36205e-09
1.4856e-09
-7.35346e-09
1.33172e-09
1.32763e-06
-5.57282e-09
2.71952e-09
1.3354e-06
-1.39092e-08
7.12141e-09
1.34287e-06
-1.62446e-08
9.54618e-09
1.34848e-06
-1.58502e-08
1.05486e-08
1.35201e-06
-1.48686e-08
1.0805e-08
1.35384e-06
-1.36853e-08
1.04448e-08
1.35457e-06
-1.2538e-08
9.64081e-09
1.35474e-06
-1.13548e-08
8.65911e-09
1.35461e-06
-1.01908e-08
7.69091e-09
1.35434e-06
-9.05865e-09
6.73741e-09
1.35398e-06
-7.97763e-09
5.81164e-09
1.35357e-06
-6.99543e-09
4.97143e-09
1.3531e-06
-6.12106e-09
4.24219e-09
1.35252e-06
-5.39222e-09
3.6388e-09
1.35175e-06
-4.85374e-09
3.16972e-09
1.35067e-06
-4.55828e-09
2.86114e-09
1.34921e-06
-4.64419e-09
2.74872e-09
1.34726e-06
-5.22557e-09
2.85167e-09
1.34447e-06
-6.15423e-09
3.22054e-09
-9.70909e-09
4.16815e-09
1.07431e-06
1.06663e-09
1.06822e-06
5.59078e-09
1.06137e-06
8.46106e-09
1.05343e-06
9.02217e-09
1.04526e-06
8.57093e-09
1.03757e-06
8.01798e-09
1.03052e-06
7.57628e-09
1.02413e-06
7.18172e-09
1.01819e-06
6.79969e-09
1.01264e-06
6.31671e-09
1.00757e-06
5.65892e-09
1.00299e-06
4.92543e-09
9.98799e-07
4.23046e-09
9.94864e-07
3.63945e-09
9.90981e-07
3.21124e-09
9.86826e-07
3.0217e-09
9.81832e-07
3.19904e-09
9.75263e-07
3.84849e-09
9.66049e-07
5.33928e-09
1.02628e-08
1.16914e-06
4.90971e-09
-1.33138e-13
1.16312e-06
1.16135e-08
-5.81712e-13
1.15731e-06
1.42659e-08
-1.29912e-12
1.15205e-06
1.42875e-08
-2.42578e-12
1.14701e-06
1.36032e-08
-4.23838e-12
1.14231e-06
1.27173e-08
-7.41196e-12
1.13819e-06
1.16872e-08
-1.29118e-11
1.13472e-06
1.06464e-08
-2.20569e-11
1.13187e-06
9.62202e-09
-3.70434e-11
1.1295e-06
8.66096e-09
-6.1618e-11
1.12735e-06
7.76298e-09
-1.01919e-10
1.12533e-06
6.8617e-09
-1.67716e-10
1.12344e-06
5.9691e-09
-2.74085e-10
1.12168e-06
5.16722e-09
-4.44939e-10
1.12003e-06
4.46808e-09
-7.19562e-10
1.11843e-06
3.88701e-09
-1.17495e-09
1.11688e-06
3.43381e-09
-1.91337e-09
1.1153e-06
3.09644e-09
-3.02374e-09
1.11374e-06
2.81402e-09
-4.77199e-09
2.82155e-09
-7.87909e-09
1.41518e-06
4.19482e-09
-2.38701e-13
1.4228e-06
1.1112e-08
-6.83303e-13
1.43154e-06
1.50708e-08
-1.23035e-12
1.43983e-06
1.65507e-08
-2.28379e-12
1.44714e-06
1.70971e-08
-4.22716e-12
1.45313e-06
1.71644e-08
-7.28869e-12
1.4579e-06
1.65586e-08
-1.19317e-11
1.4617e-06
1.54996e-08
-1.98831e-11
1.46484e-06
1.41642e-08
-3.37409e-11
1.46747e-06
1.27545e-08
-5.57502e-11
1.46968e-06
1.13438e-08
-8.95787e-11
1.47155e-06
9.92337e-09
-1.44536e-10
1.47313e-06
8.5625e-09
-2.33309e-10
1.47445e-06
7.35726e-09
-3.74051e-10
1.47556e-06
6.3073e-09
-5.94816e-10
1.47651e-06
5.41128e-09
-9.36029e-10
1.47734e-06
4.66417e-09
-1.45599e-09
1.47807e-06
4.04038e-09
-2.21437e-09
1.47864e-06
3.48663e-09
-3.25523e-09
3.09335e-09
-4.54866e-09
1.61424e-06
3.08998e-09
-1.66801e-13
1.62333e-06
8.25913e-09
-4.32852e-13
1.63534e-06
1.19158e-08
-8.05626e-13
1.64818e-06
1.40233e-08
-1.43426e-12
1.66108e-06
1.50274e-08