/*--------------------------------*- C++ -*----------------------------------*\
| =========                 |                                                 |
| \\      /  F ield         | OpenFOAM: The Open Source CFD Toolbox           |
|  \\    /   O peration     | Version:  2212                                  |
|   \\  /    A nd           | Website:  www.openfoam.com                      |
|    \\/     M anipulation  |                                                 |
\*---------------------------------------------------------------------------*/
FoamFile
{
    version     2.0;
    format      ascii;
    arch        "LSB;label=32;scalar=64";
    class       volVectorField;
    location    "0.3";
    object      U;
}
// * * * * * * * * * * * * * * * * * * * * * * * * * * * * * * * * * * * * * //

dimensions      [0 1 -1 0 0 0 0];

internalField   nonuniform List<vector> 
6840
(
(0.0956456 -0.0083601 -0.00836009)
(0.0904925 0.00152213 0.00152221)
(0.0790658 0.00242989 0.00243009)
(0.0713 0.00148899 0.00148933)
(0.0661844 0.000830224 0.00083083)
(0.0623379 0.000562544 0.000563555)
(0.0592537 0.000429765 0.000431847)
(0.0567439 0.000326848 0.000330446)
(0.0546563 0.000252918 0.000258821)
(0.0528862 0.000197518 0.000207052)
(0.0513716 0.000152952 0.000168316)
(0.050083 0.000114789 0.000139671)
(0.0489839 8.01322e-05 0.000120963)
(0.0480904 4.28121e-05 0.000110564)
(0.0473376 1.21068e-05 0.000108949)
(0.0467287 -3.74189e-05 0.000122369)
(0.0462782 -0.000117158 0.000166999)
(0.0460446 -0.000276438 0.000236874)
(0.0464506 -0.000555479 0.000289097)
(0.0457282 -0.00304156 -0.00128543)
(0.0999088 0.00129708 0.000712726)
(0.0969656 0.00365612 0.00274775)
(0.093533 0.00264025 0.0021181)
(0.0895915 0.00181859 0.00161639)
(0.0858454 0.00152354 0.00137945)
(0.0826222 0.00134181 0.0011437)
(0.0799317 0.00116392 0.000870308)
(0.0776929 0.00101244 0.000650457)
(0.0757808 0.000895732 0.000501258)
(0.0741213 0.000792174 0.000402543)
(0.0726735 0.00069056 0.000336414)
(0.0714154 0.000587836 0.000291987)
(0.0703176 0.00048317 0.000264045)
(0.0693783 0.000378961 0.000250768)
(0.0685606 0.000267352 0.000247941)
(0.0678264 0.000141262 0.000259155)
(0.06718 -2.97451e-05 0.000284184)
(0.066599 -0.000293438 0.000320077)
(0.0661212 -0.000891103 0.000253076)
(0.0654595 -0.00186943 0.000751474)
(0.0994131 0.000345297 0.000270557)
(0.0988656 0.00201973 0.00187559)
(0.0979216 0.00257188 0.00218744)
(0.0963707 0.00237766 0.00190276)
(0.0946449 0.00210767 0.00161473)
(0.0930003 0.00190924 0.00139125)
(0.0914288 0.00176539 0.00121735)
(0.0899845 0.00164347 0.00106808)
(0.088687 0.00150928 0.000932492)
(0.0875387 0.00135362 0.000807356)
(0.0865381 0.00118487 0.000694482)
(0.0856715 0.0010135 0.00059857)
(0.0849223 0.00084442 0.000520633)
(0.0842692 0.000684629 0.000463819)
(0.0836857 0.000541837 0.000434567)
(0.0831398 0.000409157 0.00043192)
(0.082593 0.000267824 0.000465702)
(0.0819423 0.000115973 0.000566887)
(0.0811036 -9.36385e-05 0.000680989)
(0.0801675 0.000439113 0.00201831)
(0.0995407 0.000245117 0.000322369)
(0.0992565 0.0010558 0.00154299)
(0.0988472 0.00150191 0.00211158)
(0.0981258 0.0015773 0.00208383)
(0.0973462 0.00150775 0.00187105)
(0.0966077 0.00143149 0.00163761)
(0.0959087 0.00138019 0.00144457)
(0.0952831 0.00132422 0.00127219)
(0.0947275 0.00124374 0.00112586)
(0.0941791 0.00113415 0.00099885)
(0.0936804 0.00100261 0.000875879)
(0.0932336 0.00086279 0.00076111)
(0.0928292 0.000727507 0.000659008)
(0.0924555 0.000604423 0.00057529)
(0.0920967 0.000501359 0.000515509)
(0.0917323 0.00042376 0.000484024)
(0.0913188 0.000387115 0.000499928)
(0.0907888 0.000395481 0.000587591)
(0.0900872 0.000475317 0.000708212)
(0.0894358 0.00108474 0.00132518)
(0.0993803 3.38236e-05 5.94377e-05)
(0.0992674 0.000274307 0.00120121)
(0.0989808 0.000432268 0.00188786)
(0.098475 0.000482798 0.00200099)
(0.0979994 0.000476712 0.00189951)
(0.0975861 0.000459776 0.00170504)
(0.097209 0.000440616 0.0014998)
(0.0968754 0.000422127 0.00131183)
(0.0966021 0.000407264 0.00114751)
(0.0963865 0.000391398 0.00100712)
(0.0961899 0.000366674 0.000885675)
(0.0959951 0.000332978 0.000779427)
(0.0958121 0.000298845 0.000682418)
(0.0956333 0.000274395 0.000597285)
(0.0954481 0.00026819 0.000528652)
(0.0952469 0.000292478 0.00048172)
(0.0950197 0.000362802 0.000464845)
(0.0947439 0.000490424 0.000485915)
(0.0943988 0.000733157 0.000541672)
(0.0941197 0.00126279 0.000769416)
(0.0993803 -3.37845e-05 5.93982e-05)
(0.0992674 -0.000274115 0.00120115)
(0.0989809 -0.000431846 0.00188784)
(0.0984752 -0.000482087 0.00200094)
(0.0979999 -0.000475514 0.00189937)
(0.0975871 -0.000457695 0.00170474)
(0.0972108 -0.000437022 0.00149936)
(0.0968784 -0.000416071 0.00131107)
(0.0966072 -0.000397146 0.00114609)
(0.0963953 -0.00037465 0.00100472)
(0.0962048 -0.00033911 0.000881732)
(0.0960194 -0.000287746 0.000773449)
(0.0958515 -0.000224904 0.000673231)
(0.0956974 -0.000153979 0.000581576)
(0.0955532 -7.24684e-05 0.000501067)
(0.0954153 2.85183e-05 0.000436644)
(0.0952824 0.000163188 0.000390063)
(0.095148 0.000348633 0.000360883)
(0.0950089 0.000613124 0.000345592)
(0.0948936 0.000989387 0.000393487)
(0.0995407 -0.0002451 0.000322369)
(0.0992566 -0.00105572 0.001543)
(0.0988475 -0.00150174 0.0021115)
(0.0981264 -0.00157701 0.00208367)
(0.0973474 -0.00150718 0.00187081)
(0.0966101 -0.00143039 0.00163724)
(0.0959128 -0.00137828 0.00144407)
(0.0952903 -0.00132098 0.0012712)
(0.09474 -0.00123882 0.00112365)
(0.0942001 -0.00112643 0.000994998)
(0.0937152 -0.000989832 0.000869799)
(0.0932914 -0.000840836 0.000750494)
(0.0929254 -0.000690597 0.000640277)
(0.092616 -0.000545369 0.000542477)
(0.0923611 -0.000405256 0.000458144)
(0.0921644 -0.000246202 0.000382249)
(0.0920296 -6.55473e-05 0.000307977)
(0.0919608 0.000166871 0.000234273)
(0.0919539 0.000505116 0.000137889)
(0.0918922 0.00103398 1.45116e-05)
(0.0994131 -0.00034531 0.000270556)
(0.0988657 -0.0020198 0.00187555)
(0.0979218 -0.00257205 0.00218726)
(0.0963712 -0.00237793 0.00190242)
(0.0946461 -0.00210811 0.00161426)
(0.0930026 -0.00190999 0.00139055)
(0.0914328 -0.00176652 0.00121618)
(0.0899915 -0.00164535 0.00106615)
(0.0886992 -0.00151245 0.000929323)
(0.0875591 -0.00135877 0.000802102)
(0.0865721 -0.00119295 0.000685673)
(0.085729 -0.00102584 0.00058324)
(0.0850196 -0.000863119 0.000493662)
(0.0844346 -0.000713152 0.000416797)
(0.0839675 -0.00058446 0.000351818)
(0.0836235 -0.000468843 0.000286017)
(0.0834333 -0.0003418 0.000205286)
(0.0834309 -0.000155853 5.59378e-05)
(0.0837019 0.000216054 -0.000186222)
(0.0835466 0.00111283 -0.000769932)
(0.0999087 -0.00129708 0.000712707)
(0.0969657 -0.00365625 0.00274768)
(0.0935331 -0.00264044 0.00211793)
(0.0895918 -0.00181897 0.00161606)
(0.0858459 -0.00152432 0.00137902)
(0.0826231 -0.00134309 0.00114284)
(0.0799332 -0.00116634 0.000868844)
(0.0776958 -0.00101665 0.000648003)
(0.0757859 -0.000902958 0.00049721)
(0.07413 -0.000804376 0.000395963)
(0.0726884 -0.000710809 0.000325641)
(0.0714411 -0.000621201 0.000274414)
(0.0703621 -0.000538089 0.000234842)
(0.0694562 -0.000469657 0.000201255)
(0.0687 -0.000420084 0.000160167)
(0.0680772 -0.000381226 0.000107203)
(0.0676452 -0.000369647 1.91301e-05)
(0.0675391 -0.000357608 -0.000179876)
(0.0680585 -0.000363404 -0.000437377)
(0.0665644 8.96344e-05 -0.00127599)
(0.0956456 0.00836009 -0.00836009)
(0.0904925 -0.0015222 0.00152214)
(0.0790658 -0.00243006 0.00242992)
(0.0713001 -0.00148932 0.00148901)
(0.0661844 -0.000830827 0.000830244)
(0.0623379 -0.000563552 0.000562562)
(0.0592537 -0.000431848 0.000429782)
(0.056744 -0.000330443 0.00032686)
(0.0546563 -0.000258817 0.000252934)
(0.0528862 -0.000207023 0.000197509)
(0.0513718 -0.000168257 0.000152903)
(0.0500831 -0.000139547 0.000114647)
(0.0489848 -0.000120952 8.00654e-05)
(0.0480914 -0.000110761 4.29783e-05)
(0.0473386 -0.000109081 1.2347e-05)
(0.0467295 -0.000122277 -3.73531e-05)
(0.0462779 -0.00016689 -0.000117143)
(0.0460447 -0.000236811 -0.000276345)
(0.0464504 -0.000289025 -0.000555447)
(0.0457275 0.0012854 -0.0030414)
(0.0999087 0.000712708 0.00129709)
(0.0969657 0.00274765 0.00365623)
(0.0935331 0.00211791 0.00264043)
(0.0895918 0.00161604 0.00181898)
(0.0858459 0.00137899 0.00152431)
(0.0826231 0.0011428 0.00134308)
(0.0799332 0.000868808 0.00116634)
(0.0776958 0.000647968 0.00101666)
(0.0757859 0.000497186 0.000902986)
(0.07413 0.000395931 0.00080441)
(0.0726883 0.000325647 0.00071088)
(0.0714409 0.000274328 0.000621287)
(0.0703618 0.000234745 0.000538151)
(0.0694559 0.000201445 0.000469664)
(0.0686999 0.000160394 0.000420069)
(0.0680771 0.000107186 0.000381268)
(0.0676446 1.89263e-05 0.000369716)
(0.0675392 -0.000180163 0.000357759)
(0.0680585 -0.000437683 0.000363347)
(0.0665645 -0.00127684 -8.9964e-05)
(0.100226 0.00072104 0.000721069)
(0.09996 0.00198187 0.00198201)
(0.0997839 0.00244906 0.00244939)
(0.0987931 0.00241534 0.0024159)
(0.0972839 0.00219389 0.00219476)
(0.0957923 0.00180308 0.00180471)
(0.0944303 0.00137189 0.00137456)
(0.0932325 0.00105403 0.00105855)
(0.0921928 0.000830186 0.00083782)
(0.0912973 0.00066915 0.000681848)
(0.0905343 0.000549429 0.000570381)
(0.0898903 0.00045455 0.000489155)
(0.089355 0.000377448 0.000434792)
(0.0889086 0.00030084 0.000396042)
(0.0885544 0.000205202 0.000364004)
(0.0882878 9.84998e-05 0.000365695)
(0.0880932 -4.10986e-05 0.000403558)
(0.0879388 -0.000309994 0.000424924)
(0.0878161 -0.000856716 0.000316018)
(0.0877406 -0.00213489 -0.000282889)
(0.10014 0.000775123 0.000869682)
(0.100455 0.00196207 0.00196374)
(0.100912 0.00242531 0.00233229)
(0.10098 0.00252048 0.00243367)
(0.100699 0.00241378 0.00232189)
(0.100234 0.00217628 0.00208575)
(0.099724 0.00188132 0.00177861)
(0.0992102 0.0016094 0.00150102)
(0.0987297 0.00137925 0.00127895)
(0.0983005 0.00117828 0.00109798)
(0.0979321 0.00100174 0.000949495)
(0.0976205 0.000846089 0.000829639)
(0.0973581 0.000706946 0.000735909)
(0.097135 0.000576653 0.000664932)
(0.0969457 0.000447803 0.000617139)
(0.0967828 0.000318295 0.000603604)
(0.0966269 0.000169903 0.000630191)
(0.0964572 -2.17566e-05 0.000696653)
(0.0962576 -0.000275981 0.000789845)
(0.0962907 -0.000473243 0.000993178)
(0.100093 0.000445975 0.000763701)
(0.100504 0.00119423 0.00174926)
(0.101105 0.00158557 0.00212706)
(0.101635 0.00173623 0.00222453)
(0.10198 0.00177242 0.00226188)
(0.102177 0.00170935 0.00219119)
(0.10226 0.00157231 0.00204306)
(0.102291 0.00140602 0.00185097)
(0.102293 0.00123645 0.00164378)
(0.102273 0.00106531 0.00143677)
(0.102245 0.000902452 0.00125191)
(0.102217 0.000760702 0.00109535)
(0.102185 0.000638029 0.000962308)
(0.102145 0.000530659 0.000854057)
(0.102096 0.000437101 0.000775089)
(0.102029 0.000358943 0.000733065)
(0.101933 0.000296129 0.000739685)
(0.101798 0.000243989 0.000793713)
(0.101635 0.000204297 0.000885466)
(0.1017 0.000240782 0.00107135)
(0.100087 0.000144471 0.000707412)
(0.100478 0.000390546 0.00161775)
(0.101067 0.000540746 0.00203173)
(0.101696 0.000608711 0.0021085)
(0.10227 0.000632941 0.0021273)
(0.10274 0.000620667 0.00213434)
(0.103117 0.000580969 0.0020566)
(0.103413 0.00052634 0.00192258)
(0.103656 0.000473123 0.00175772)
(0.103857 0.00042394 0.00158537)
(0.104022 0.000375036 0.00141479)
(0.104157 0.000326704 0.0012386)
(0.104267 0.00028515 0.0010709)
(0.104351 0.000256522 0.00093295)
(0.10441 0.000243079 0.00082463)
(0.104444 0.000248854 0.000748028)
(0.104451 0.000281522 0.000706806)
(0.104432 0.000347336 0.000702883)
(0.104399 0.00045328 0.000720108)
(0.104504 0.000605057 0.000782666)
(0.100087 -0.000144406 0.000707405)
(0.100478 -0.000390352 0.00161774)
(0.101067 -0.00054042 0.00203173)
(0.101696 -0.000608149 0.00210842)
(0.102271 -0.000631909 0.00212698)
(0.102741 -0.000618868 0.00213374)
(0.103119 -0.000578041 0.00205573)
(0.103416 -0.000521412 0.00192123)
(0.103661 -0.000464638 0.00175556)
(0.103864 -0.000409955 0.00158201)
(0.104033 -0.000352686 0.00140993)
(0.104176 -0.00029066 0.00123068)
(0.104297 -0.000226863 0.00105693)
(0.104399 -0.000162838 0.000909214)
(0.104485 -9.34746e-05 0.000785081)
(0.104557 -1.23563e-05 0.000682705)
(0.104619 8.83767e-05 0.00060157)
(0.104672 0.000218976 0.000538343)
(0.104725 0.000385505 0.000482012)
(0.104851 0.000578608 0.000444149)
(0.100094 -0.000445966 0.000763691)
(0.100505 -0.0011942 0.00174923)
(0.101106 -0.00158552 0.00212693)
(0.101635 -0.0017361 0.00222404)
(0.101981 -0.00177218 0.00226091)
(0.102179 -0.00170898 0.00218982)
(0.102263 -0.00157165 0.00204105)
(0.102297 -0.0014048 0.00184763)
(0.102302 -0.00123448 0.00163905)
(0.102289 -0.00106249 0.0014293)
(0.102272 -0.000897946 0.00123884)
(0.10226 -0.000752013 0.00107304)
(0.102254 -0.000622688 0.000924712)
(0.102258 -0.000504188 0.000790267)
(0.102274 -0.000391431 0.00066726)
(0.102308 -0.000278722 0.0005533)
(0.102363 -0.000155903 0.000440897)
(0.102439 -4.07502e-06 0.000317326)
(0.102538 0.000196997 0.000168606)
(0.102681 0.000450581 1.50619e-05)
(0.10014 -0.000775154 0.000869647)
(0.100455 -0.00196216 0.00196358)
(0.100912 -0.00242549 0.00233191)
(0.10098 -0.00252088 0.00243296)
(0.100699 -0.00241448 0.00232081)
(0.100235 -0.0021775 0.0020843)
(0.0997265 -0.00188327 0.00177638)
(0.0992144 -0.00161252 0.00149704)
(0.0987372 -0.00138467 0.00127227)
(0.0983133 -0.00118735 0.00108696)
(0.0979531 -0.00101626 0.000931104)
(0.0976553 -0.000869405 0.000798847)
(0.0974159 -0.000744476 0.000684221)
(0.0972304 -0.000636543 0.000577804)
(0.0971016 -0.000542389 0.000469885)
(0.0970358 -0.000464546 0.000354295)
(0.097033 -0.000390214 0.000206746)
(0.0970928 -0.000295083 -6.10341e-06)
(0.0972019 -0.000140294 -0.000308825)
(0.0972914 0.000157915 -0.000734752)
(0.100226 -0.000721073 0.000721043)
(0.09996 -0.00198198 0.00198186)
(0.0997839 -0.00244939 0.00244909)
(0.0987932 -0.0024159 0.00241536)
(0.0972839 -0.00219476 0.00219393)
(0.0957923 -0.0018047 0.00180312)
(0.0944303 -0.00137455 0.00137192)
(0.0932325 -0.00105853 0.00105406)
(0.0921929 -0.000837793 0.000830206)
(0.0912973 -0.000681809 0.00066916)
(0.0905343 -0.000570315 0.000549411)
(0.0898904 -0.000489051 0.000454487)
(0.089355 -0.000434696 0.000377373)
(0.0889086 -0.000396025 0.00030085)
(0.0885544 -0.000364086 0.000205359)
(0.0882877 -0.000365963 9.89014e-05)
(0.0880931 -0.000403533 -4.09017e-05)
(0.087939 -0.000424906 -0.000309813)
(0.087816 -0.000316317 -0.000856312)
(0.0877406 0.000282829 -0.00213477)
(0.0999088 -0.000712721 0.00129707)
(0.0969657 -0.00274775 0.00365612)
(0.093533 -0.0021181 0.00264024)
(0.0895916 -0.00161639 0.0018186)
(0.0858454 -0.00137945 0.00152354)
(0.0826222 -0.0011437 0.00134181)
(0.0799317 -0.000870305 0.00116392)
(0.0776929 -0.000650448 0.00101245)
(0.0757809 -0.000501242 0.000895737)
(0.0741213 -0.000402538 0.000792185)
(0.0726736 -0.000336371 0.000690531)
(0.0714156 -0.000292029 0.000587759)
(0.0703179 -0.000264088 0.000483026)
(0.0693785 -0.000250486 0.00037878)
(0.0685608 -0.000247565 0.000267361)
(0.0678265 -0.000259049 0.000141486)
(0.0671805 -0.000284371 -2.9551e-05)
(0.0665985 -0.000320396 -0.000293263)
(0.0661207 -0.000253425 -0.000890756)
(0.0654586 -0.000751693 -0.00186905)
(0.0994131 0.000270553 0.000345302)
(0.0988657 0.00187553 0.0020198)
(0.0979218 0.00218725 0.00257205)
(0.0963712 0.0019024 0.00237793)
(0.0946461 0.00161423 0.00210812)
(0.0930025 0.00139052 0.00190999)
(0.0914328 0.00121616 0.00176653)
(0.0899915 0.00106612 0.00164537)
(0.0886991 0.000929306 0.00151248)
(0.0875591 0.000802099 0.00135883)
(0.0865721 0.000685701 0.00119304)
(0.0857288 0.000583261 0.00102593)
(0.0850195 0.000493624 0.000863129)
(0.0844345 0.000416756 0.000713033)
(0.0839672 0.000351899 0.000584454)
(0.0836229 0.000286145 0.000469122)
(0.0834324 0.000205379 0.000342321)
(0.0834298 5.58335e-05 0.000156346)
(0.0837009 -0.000186701 -0.000216122)
(0.0835457 -0.000770798 -0.00111339)
(0.10014 0.000869645 0.000775153)
(0.100455 0.00196356 0.00196216)
(0.100912 0.00233189 0.0024255)
(0.10098 0.00243294 0.00252089)
(0.100699 0.00232079 0.00241449)
(0.100235 0.00208427 0.00217751)
(0.0997265 0.00177636 0.00188328)
(0.0992144 0.00149702 0.00161254)
(0.0987372 0.00127226 0.00138471)
(0.0983133 0.00108696 0.0011874)
(0.0979531 0.000931123 0.00101634)
(0.0976553 0.000798838 0.000869478)
(0.0974159 0.000684104 0.000744469)
(0.0972303 0.000577665 0.000636505)
(0.0971016 0.000469847 0.000542419)
(0.0970357 0.0003543 0.000464646)
(0.0970328 0.000206731 0.000390362)
(0.0970924 -6.26143e-06 0.000295167)
(0.0972014 -0.000309191 0.000140228)
(0.0972905 -0.000735193 -0.000157888)
(0.10006 0.000641536 0.000641588)
(0.100502 0.00164453 0.00164471)
(0.10115 0.00220968 0.00221003)
(0.101739 0.00243229 0.0024329)
(0.102203 0.00242668 0.00242767)
(0.102495 0.00228722 0.00228878)
(0.102633 0.00204743 0.00204996)
(0.102692 0.00179477 0.00179894)
(0.102699 0.00155949 0.00156635)
(0.102685 0.0013484 0.00135962)
(0.102668 0.00115949 0.00117783)
(0.102654 0.000989321 0.00101933)
(0.102648 0.000834776 0.000883716)
(0.102652 0.000690313 0.000769659)
(0.102668 0.000550392 0.000677969)
(0.102699 0.000410105 0.000612694)
(0.102746 0.000256862 0.000572943)
(0.10281 7.59918e-05 0.000551002)
(0.102891 -0.000138657 0.000531632)
(0.103038 -0.00034266 0.000507816)
(0.100046 0.000395678 0.00054033)
(0.100481 0.00104417 0.00138324)
(0.101155 0.00147311 0.00191905)
(0.101914 0.00170003 0.00218238)
(0.102629 0.00176988 0.00227255)
(0.103293 0.00172572 0.00223921)
(0.10387 0.00160224 0.00212212)
(0.104342 0.00144151 0.0019489)
(0.104737 0.00127144 0.00175654)
(0.105065 0.00110712 0.00156283)
(0.105339 0.000953662 0.00137846)
(0.10557 0.000814465 0.00120883)
(0.105765 0.000689311 0.00105748)
(0.105929 0.000575467 0.000927323)
(0.106067 0.00047027 0.000822233)
(0.106181 0.000371852 0.000746934)
(0.106276 0.000274991 0.000703094)
(0.106353 0.000175297 0.000691839)
(0.106421 7.48587e-05 0.000705294)
(0.106567 2.91366e-06 0.000747497)
(0.100039 0.000131319 0.000478673)
(0.100449 0.000350234 0.00123341)
(0.101115 0.000504239 0.00174178)
(0.10191 0.000595084 0.00201534)
(0.102725 0.000634011 0.00212918)
(0.103519 0.000630204 0.00214519)
(0.104273 0.000592561 0.00208536)
(0.104952 0.00054222 0.00197354)
(0.105545 0.000484047 0.00181903)
(0.106062 0.000425799 0.00164836)
(0.106507 0.00037104 0.0014739)
(0.106886 0.000321981 0.00130263)
(0.107207 0.000279547 0.00114089)
(0.107475 0.000243974 0.000995273)
(0.107698 0.000215821 0.000870762)
(0.107884 0.000196118 0.000771069)
(0.108037 0.0001862 0.000698093)
(0.108162 0.000186888 0.000650318)
(0.108272 0.000199651 0.000624291)
(0.108431 0.000225282 0.000626472)
(0.100039 -0.000131273 0.000478654)
(0.100449 -0.00035012 0.00123335)
(0.101115 -0.000504047 0.00174166)
(0.10191 -0.000594771 0.00201513)
(0.102726 -0.000633482 0.00212877)
(0.10352 -0.000629354 0.00214452)
(0.104274 -0.00059115 0.00208435)
(0.104954 -0.000539917 0.00197194)
(0.105548 -0.000480279 0.00181651)
(0.106066 -0.000419729 0.00164432)
(0.106513 -0.000361335 0.00146738)
(0.106897 -0.000306425 0.00129211)
(0.107223 -0.000254749 0.0011239)
(0.107499 -0.000204792 0.000968117)
(0.107736 -0.000154573 0.000827958)
(0.107939 -0.000101661 0.000704951)
(0.108117 -4.25714e-05 0.00059908)
(0.108273 2.72055e-05 0.00050835)
(0.108419 0.000109088 0.000431173)
(0.108587 0.000194086 0.000378253)
(0.100046 -0.00039569 0.000540281)
(0.100481 -0.00104421 0.00138309)
(0.101155 -0.00147319 0.00191875)
(0.101914 -0.00170013 0.00218184)
(0.10263 -0.00177006 0.00227162)
(0.103294 -0.0017261 0.0022377)
(0.103872 -0.00160293 0.00211975)
(0.104345 -0.00144261 0.00194511)
(0.104741 -0.0012731 0.00175062)
(0.105072 -0.00110977 0.00155324)
(0.105351 -0.00095797 0.00136255)
(0.105589 -0.000821146 0.00118273)
(0.105794 -0.00069973 0.00101503)
(0.105975 -0.000591501 0.000858799)
(0.106138 -0.000494351 0.000712674)
(0.106289 -0.000406492 0.000574464)
(0.106436 -0.000323613 0.000439792)
(0.10658 -0.000238619 0.000303568)
(0.106731 -0.000144318 0.000166677)
(0.106901 -4.18479e-05 5.02768e-05)
(0.10006 -0.000641589 0.000641536)
(0.100502 -0.0016447 0.00164454)
(0.10115 -0.00221002 0.00220969)
(0.101739 -0.0024329 0.00243231)
(0.102203 -0.00242767 0.0024267)
(0.102495 -0.00228878 0.00228723)
(0.102633 -0.00204996 0.00204745)
(0.102692 -0.00179893 0.00179478)
(0.102699 -0.00156632 0.00155949)
(0.102685 -0.00135958 0.0013484)
(0.102668 -0.00117776 0.00115947)
(0.102654 -0.00101921 0.000989282)
(0.102648 -0.000883562 0.000834724)
(0.102652 -0.000769528 0.000690303)
(0.102668 -0.000677896 0.000550448)
(0.102699 -0.000612654 0.000410186)
(0.102746 -0.000572919 0.000256951)
(0.10281 -0.00055101 7.61492e-05)
(0.102892 -0.000531623 -0.000138429)
(0.103039 -0.000507501 -0.000342511)
(0.10014 -0.000869682 0.000775121)
(0.100455 -0.00196374 0.00196207)
(0.100912 -0.00233229 0.00242532)
(0.10098 -0.00243368 0.0025205)
(0.100699 -0.00232189 0.0024138)
(0.100234 -0.00208575 0.00217629)
(0.0997241 -0.00177861 0.00188134)
(0.0992102 -0.00150101 0.00160942)
(0.0987297 -0.00127894 0.00137926)
(0.0983005 -0.00109796 0.00117829)
(0.0979322 -0.000949448 0.00100173)
(0.0976205 -0.000829568 0.000846063)
(0.0973581 -0.000735798 0.000706905)
(0.097135 -0.000664769 0.000576623)
(0.0969457 -0.000616979 0.000447832)
(0.0967829 -0.000603533 0.000318394)
(0.096627 -0.000630273 0.000170074)
(0.0964575 -0.000696925 -2.14312e-05)
(0.0962579 -0.000790272 -0.000275461)
(0.0962914 -0.000993448 -0.000472684)
(0.0994131 -0.000270556 0.000345289)
(0.0988656 -0.00187559 0.00201972)
(0.0979216 -0.00218743 0.00257187)
(0.0963707 -0.00190276 0.00237764)
(0.0946449 -0.00161473 0.00210765)
(0.0930003 -0.00139125 0.00190923)
(0.0914288 -0.00121735 0.00176537)
(0.0899845 -0.00106808 0.00164345)
(0.0886871 -0.000932481 0.00150926)
(0.0875388 -0.00080734 0.00135359)
(0.0865381 -0.00069444 0.00118483)
(0.0856716 -0.00059852 0.00101344)
(0.0849221 -0.000520599 0.000844396)
(0.084269 -0.000463753 0.000684715)
(0.0836856 -0.000434353 0.000541985)
(0.0831399 -0.000431585 0.000409216)
(0.0825934 -0.000465611 0.000267587)
(0.0819425 -0.00056722 0.000115984)
(0.0811034 -0.000681637 -9.30982e-05)
(0.0801663 -0.00201867 0.000440457)
(0.0995407 0.000322369 0.000245096)
(0.0992566 0.00154299 0.00105573)
(0.0988475 0.00211149 0.00150176)
(0.0981264 0.00208366 0.00157704)
(0.0973474 0.0018708 0.00150721)
(0.0966101 0.00163723 0.00143043)
(0.0959128 0.00144405 0.00137833)
(0.0952903 0.0012712 0.00132103)
(0.09474 0.00112365 0.00123889)
(0.0942 0.000995028 0.00112653)
(0.0937151 0.000869878 0.000989968)
(0.0932912 0.000750631 0.000841014)
(0.0929251 0.000640485 0.000690837)
(0.0926151 0.000542754 0.000545624)
(0.09236 0.000458448 0.000405775)
(0.0921632 0.000382462 0.000246761)
(0.0920283 0.000308012 6.596e-05)
(0.0919596 0.000234095 -0.000166663)
(0.0919527 0.000137577 -0.000505031)
(0.0918911 1.40209e-05 -0.00103402)
(0.100094 0.000763689 0.000445965)
(0.100504 0.00174922 0.00119421)
(0.101106 0.00212691 0.00158553)
(0.101635 0.00222402 0.00173611)
(0.101981 0.00226089 0.00177218)
(0.102179 0.0021898 0.00170899)
(0.102263 0.00204103 0.00157166)
(0.102297 0.00184762 0.00140482)
(0.102302 0.00163906 0.00123451)
(0.102289 0.00142932 0.00106255)
(0.102272 0.00123888 0.000898019)
(0.10226 0.00107304 0.000752059)
(0.102255 0.000924472 0.000622563)
(0.102258 0.000790079 0.000504082)
(0.102274 0.000667431 0.000391607)
(0.102308 0.000553561 0.000279034)
(0.102363 0.000441078 0.000156242)
(0.102439 0.000317359 4.36426e-06)
(0.102538 0.000168357 -0.000196848)
(0.102681 1.4352e-05 -0.000450656)
(0.100046 0.000540282 0.00039569)
(0.100481 0.00138308 0.00104421)
(0.101155 0.00191874 0.00147319)
(0.101914 0.00218182 0.00170013)
(0.10263 0.00227161 0.00177006)
(0.103294 0.00223769 0.0017261)
(0.103872 0.00211974 0.00160293)
(0.104345 0.00194511 0.00144262)
(0.104741 0.00175062 0.00127311)
(0.105072 0.00155325 0.0011098)
(0.105351 0.00136256 0.000958022)
(0.105589 0.00118273 0.000821212)
(0.105795 0.001015 0.000699788)
(0.105975 0.000858763 0.000591554)
(0.106138 0.000712698 0.000494437)
(0.10629 0.000574536 0.000406625)
(0.106436 0.00043986 0.000323782)
(0.106581 0.000303566 0.000238801)
(0.106731 0.000166526 0.000144493)
(0.106901 4.99224e-05 4.20376e-05)
(0.100036 0.000322819 0.000322853)
(0.100429 0.000867108 0.000867214)
(0.10108 0.0012584 0.0012586)
(0.101889 0.00149612 0.00149647)
(0.102748 0.00160696 0.00160752)
(0.103597 0.00161786 0.00161876)
(0.104412 0.00156402 0.00156541)
(0.105158 0.00146233 0.00146448)
(0.105826 0.0013332 0.00133658)
(0.106416 0.00119254 0.00119792)
(0.106931 0.0010507 0.00105932)
(0.107378 0.00091382 0.000927528)
(0.107765 0.000784763 0.000806417)
(0.108098 0.00066426 0.000698073)
(0.108384 0.000551962 0.000603921)
(0.108632 0.00044676 0.000524721)
(0.108847 0.000346743 0.000460094)
(0.109039 0.000249205 0.000408565)
(0.109218 0.000156721 0.000365784)
(0.109413 8.47056e-05 0.000327298)
(0.100031 0.000106927 0.00028094)
(0.100395 0.000292384 0.000766707)
(0.101023 0.000432498 0.00112841)
(0.101839 0.00052305 0.00135977)
(0.10274 0.000570547 0.00148447)
(0.103665 0.00058195 0.00152636)
(0.104574 0.000567229 0.00150665)
(0.105442 0.000534775 0.0014435)
(0.106244 0.000491023 0.00134769)
(0.106969 0.000441947 0.00123219)
(0.107615 0.000391721 0.00110774)
(0.108182 0.000342955 0.0009819)
(0.108675 0.000297008 0.000860533)
(0.1091 0.000254431 0.000748333)
(0.109463 0.000215375 0.000648422)
(0.109773 0.000179737 0.000562825)
(0.110036 0.0001476 0.000492448)
(0.110261 0.000119723 0.000435939)
(0.110464 9.82073e-05 0.000388296)
(0.110675 9.05384e-05 0.000349601)
(0.100031 -0.00010692 0.000280922)
(0.100395 -0.000292374 0.000766655)
(0.101023 -0.000432499 0.00112831)
(0.101839 -0.000523059 0.00135958)
(0.10274 -0.000570567 0.00148414)
(0.103665 -0.000581994 0.00152586)
(0.104574 -0.000567294 0.00150594)
(0.105443 -0.000534805 0.0014424)
(0.106244 -0.000491013 0.00134597)
(0.10697 -0.000441895 0.00122947)
(0.107616 -0.000391614 0.00110347)
(0.108185 -0.000342738 0.000975179)
(0.108679 -0.00029659 0.00085001)
(0.109106 -0.000253623 0.000732056)
(0.109472 -0.000213761 0.000623685)
(0.109786 -0.000176392 0.000526143)
(0.110055 -0.000140657 0.00043983)
(0.110288 -0.000105647 0.000363537)
(0.110501 -6.94864e-05 0.000294501)
(0.110712 -3.57378e-05 0.000240852)
(0.100036 -0.000322852 0.000322817)
(0.100429 -0.00086721 0.00086711)
(0.10108 -0.0012586 0.0012584)
(0.101889 -0.00149647 0.00149613)
(0.102748 -0.00160753 0.00160697)
(0.103597 -0.00161876 0.00161787)
(0.104412 -0.00156541 0.00156403)
(0.105158 -0.00146447 0.00146234)
(0.105826 -0.00133656 0.00133321)
(0.106416 -0.00119788 0.00119254)
(0.106931 -0.00105925 0.0010507)
(0.107378 -0.000927441 0.000913821)
(0.107765 -0.000806315 0.000784778)
(0.108098 -0.000697984 0.000664281)
(0.108384 -0.000603841 0.000551955)
(0.108632 -0.000524631 0.000446722)
(0.108847 -0.000459988 0.000346701)
(0.109038 -0.00040844 0.000249188)
(0.109218 -0.000365634 0.000156767)
(0.109413 -0.000327124 8.48279e-05)
(0.100046 -0.00054033 0.000395676)
(0.100481 -0.00138324 0.00104417)
(0.101155 -0.00191904 0.00147312)
(0.101914 -0.00218238 0.00170004)
(0.102629 -0.00227255 0.00176989)
(0.103293 -0.00223921 0.00172573)
(0.10387 -0.00212212 0.00160225)
(0.104342 -0.00194889 0.00144152)
(0.104737 -0.00175652 0.00127145)
(0.105065 -0.00156279 0.00110713)
(0.105339 -0.00137839 0.00095366)
(0.10557 -0.00120872 0.000814454)
(0.105765 -0.00105735 0.000689299)
(0.105929 -0.000927194 0.000575465)
(0.106067 -0.000822117 0.000470272)
(0.106181 -0.000746829 0.000371844)
(0.106277 -0.000702991 0.000274963)
(0.106353 -0.000691734 0.00017526)
(0.106422 -0.000705133 7.48002e-05)
(0.106568 -0.000747197 2.78291e-06)
(0.100093 -0.0007637 0.000445972)
(0.100504 -0.00174925 0.00119423)
(0.101105 -0.00212706 0.00158558)
(0.101635 -0.00222453 0.00173624)
(0.10198 -0.00226188 0.00177242)
(0.102177 -0.00219119 0.00170936)
(0.10226 -0.00204306 0.00157232)
(0.102291 -0.00185097 0.00140602)
(0.102293 -0.00164377 0.00123646)
(0.102273 -0.00143676 0.00106532)
(0.102245 -0.00125188 0.000902464)
(0.102217 -0.0010953 0.000760715)
(0.102185 -0.000962231 0.000638045)
(0.102145 -0.00085396 0.000530681)
(0.102096 -0.000774975 0.000437116)
(0.102029 -0.000732961 0.000358947)
(0.101933 -0.000739648 0.000296155)
(0.101799 -0.000793787 0.000244083)
(0.101635 -0.000885576 0.000204449)
(0.101701 -0.00107123 0.00024079)
(0.0995407 -0.000322368 0.000245112)
(0.0992566 -0.00154299 0.00105579)
(0.0988472 -0.00211158 0.00150189)
(0.0981258 -0.00208383 0.00157728)
(0.0973462 -0.00187106 0.00150774)
(0.0966077 -0.00163762 0.00143148)
(0.0959087 -0.00144457 0.00138018)
(0.0952831 -0.00127219 0.00132421)
(0.0947276 -0.00112586 0.00124373)
(0.0941791 -0.000998846 0.00113414)
(0.0936805 -0.000875866 0.00100261)
(0.0932336 -0.000761096 0.000862819)
(0.0928293 -0.000659009 0.000727572)
(0.0924556 -0.000575263 0.000604483)
(0.0920969 -0.000515368 0.000501313)
(0.0917327 -0.000483776 0.00042362)
(0.0913192 -0.000499814 0.000387101)
(0.0907891 -0.000587758 0.000395603)
(0.0900874 -0.000708615 0.000475792)
(0.089436 -0.00132519 0.00108522)
(0.0993803 5.93824e-05 3.37859e-05)
(0.0992674 0.00120116 0.000274126)
(0.0989809 0.00188784 0.00043188)
(0.0984752 0.00200093 0.000482124)
(0.0979999 0.00189936 0.000475556)
(0.0975871 0.00170474 0.000457743)
(0.0972108 0.00149936 0.000437079)
(0.0968784 0.00131107 0.000416142)
(0.0966072 0.0011461 0.000397228)
(0.0963953 0.00100474 0.000374753)
(0.0962048 0.000881772 0.000339246)
(0.0960194 0.000773528 0.000287938)
(0.0958515 0.000673364 0.000225198)
(0.0956974 0.000581776 0.000154367)
(0.0955532 0.000501237 7.28652e-05)
(0.0954153 0.000436744 -2.81583e-05)
(0.0952824 0.000390092 -0.00016287)
(0.095148 0.000360862 -0.000348373)
(0.0950089 0.00034553 -0.000612903)
(0.0948936 0.000393356 -0.0009891)
(0.100087 0.000707405 0.000144408)
(0.100478 0.00161773 0.000390363)
(0.101067 0.00203172 0.00054043)
(0.101696 0.00210841 0.000608156)
(0.102271 0.00212697 0.000631915)
(0.102741 0.00213373 0.000618876)
(0.103119 0.00205572 0.000578054)
(0.103416 0.00192122 0.000521434)
(0.103661 0.00175555 0.000464669)
(0.103864 0.00158201 0.000409998)
(0.104033 0.00140996 0.000352742)
(0.104176 0.00123073 0.000290719)
(0.104298 0.00105703 0.000226918)