/*--------------------------------*- C++ -*----------------------------------*\
| =========                 |                                                 |
| \\      /  F ield         | OpenFOAM: The Open Source CFD Toolbox           |
|  \\    /   O peration     | Version:  2212                                  |
|   \\  /    A nd           | Website:  www.openfoam.com                      |
|    \\/     M anipulation  |                                                 |
\*---------------------------------------------------------------------------*/
FoamFile
{
    version     2.0;
    format      ascii;
    arch        "LSB;label=32;scalar=64";
    class       surfaceVectorField;
    location    "0.3";
    object      Uf;
}
// * * * * * * * * * * * * * * * * * * * * * * * * * * * * * * * * * * * * * //

dimensions      [0 1 -1 0 0 0 0];

internalField   nonuniform List<vector> 
19019
(
(0.099344 -0.00341898 -0.00341894)
(0.0973536 0.00106248 -0.00148423)
(0.0973536 -0.00148424 0.00106248)
(0.0834782 0.00197601 0.00197615)
(0.0930859 0.00326906 0.00253374)
(0.0930859 0.00253366 0.00326915)
(0.0745162 0.00195944 0.00195971)
(0.0848619 0.00163573 0.00179245)
(0.0848619 0.00179226 0.00163593)
(0.068548 0.00115961 0.00116008)
(0.0786283 0.00107348 0.00122069)
(0.0786284 0.00122035 0.00107385)
(0.0642455 0.000696384 0.000697192)
(0.0740614 0.00078437 0.000861771)
(0.0740615 0.000861255 0.000785104)
(0.0607828 0.000496154 0.000497701)
(0.0704646 0.000648397 0.000663891)
(0.0704649 0.000662989 0.000649625)
(0.0579819 0.000378306 0.000381147)
(0.0675381 0.000544125 0.000502602)
(0.0675387 0.000500884 0.00054657)
(0.0556958 0.000289883 0.000294633)
(0.0651369 0.000462477 0.00037751)
(0.0651381 0.000374614 0.000466763)
(0.0537713 0.000225218 0.000232936)
(0.0631196 0.000402624 0.000293023)
(0.0631216 0.000288331 0.000409886)
(0.052129 0.000175235 0.000187684)
(0.0613938 0.000350207 0.000235446)
(0.0613973 0.000227929 0.000362274)
(0.0507268 0.00013387 0.000153994)
(0.059906 0.000299234 0.000195334)
(0.0599119 0.00018327 0.000319082)
(0.0495365 9.74605e-05 0.000130317)
(0.0586296 0.000247749 0.000167687)
(0.0586398 0.00014817 0.0002803)
(0.0485385 6.14722e-05 0.000115763)
(0.057531 0.000193463 0.000150192)
(0.0575488 0.000118225 0.000247234)
(0.0477105 2.74594e-05 0.000109756)
(0.0566191 0.0001355 0.000142233)
(0.0566502 8.9242e-05 0.000225089)
(0.0470309 -1.26561e-05 0.000115659)
(0.0558404 7.42851e-05 0.000141243)
(0.0558962 6.05275e-05 0.000214765)
(0.0465019 -7.72884e-05 0.000144684)
(0.0551813 -5.23171e-06 0.000154178)
(0.0552817 1.78175e-05 0.000221471)
(0.0461257 -0.000196798 0.000201936)
(0.0546523 -0.000126133 0.000188273)
(0.0548384 -4.96554e-05 0.00027046)
(0.0460706 -0.000415958 0.000262986)
(0.0542795 -0.000356395 0.000227522)
(0.0546562 -0.000189938 0.000367433)
(0.0468591 -0.00179852 -0.000498164)
(0.0543314 -0.000858559 0.000176265)
(0.0551076 -0.00039442 0.000513961)
(0.0536333 -0.00316375 -0.000814724)
(0.054076 -0.00209711 -0.000399624)
(0.0984567 0.0024766 0.00173024)
(0.0996871 0.000439333 0.000345735)
(0.100049 0.00105657 0.000751277)
(0.0958333 0.00314819 0.00243292)
(0.0978151 0.00273351 0.002283)
(0.0982929 0.00280906 0.0021617)
(0.0914501 0.00222942 0.00186725)
(0.0954951 0.00300161 0.00230262)
(0.0963038 0.00244147 0.00199691)
(0.0876023 0.00167106 0.00149792)
(0.0926225 0.00229794 0.00183429)
(0.0936703 0.00197796 0.00172363)
(0.0841704 0.00143267 0.00126158)
(0.0897797 0.00188675 0.00152462)
(0.0909157 0.00171428 0.00149075)
(0.0812372 0.00125286 0.001007)
(0.0872623 0.0016445 0.00127357)
(0.0884601 0.00144683 0.00120295)
(0.078797 0.00108818 0.000760383)
(0.085072 0.00146951 0.00103984)
(0.0863584 0.00117245 0.000897185)
(0.0767316 0.000954086 0.000575857)
(0.0831885 0.00132937 0.000850808)
(0.0845811 0.000963527 0.000673044)
(0.0749485 0.000843953 0.0004519)
(0.0815512 0.00120805 0.000708949)
(0.0830557 0.000812832 0.000523879)
(0.073396 0.000741367 0.000369478)
(0.0801202 0.0010845 0.000599713)
(0.0817348 0.000694447 0.000424818)
(0.0720439 0.000639198 0.000314201)
(0.0788723 0.00095328 0.000512846)
(0.0805906 0.000593621 0.000359312)
(0.0708691 0.000535503 0.000278016)
(0.0777893 0.000817827 0.000444603)
(0.0796047 0.000502118 0.000316774)
(0.0698506 0.000431065 0.000257407)
(0.0768473 0.000679937 0.000392574)
(0.0787562 0.000416284 0.000292667)
(0.0689663 0.000323156 0.000249355)
(0.076036 0.000545486 0.00035772)
(0.0780354 0.000330536 0.000282735)
(0.0681952 0.000204307 0.000253548)
(0.075323 0.000418157 0.000342382)
(0.0774232 0.000233784 0.00028524)
(0.0675073 5.57582e-05 0.000271669)
(0.074673 0.000285615 0.000346025)
(0.0768963 0.000124951 0.000312595)
(0.0668878 -0.000161592 0.00030213)
(0.0740712 0.00012114 0.00037233)
(0.0764501 -2.15149e-05 0.000368273)
(0.0663187 -0.000592271 0.000286576)
(0.073459 -0.00010188 0.000433759)
(0.0760582 -0.000271347 0.00043573)
(0.065976 -0.00138027 0.000502275)
(0.0728198 -0.000522863 0.000448976)
(0.0757378 -0.000834593 0.000377978)
(0.0720354 -0.000815655 0.00132635)
(0.0753359 -0.00193814 0.000408055)
(0.099375 0.00118252 0.00107308)
(0.0994731 0.000349745 0.000307432)
(0.0997476 0.000611091 0.000780344)
(0.0984944 0.00229581 0.00203152)
(0.0990495 0.00157694 0.00172172)
(0.0995969 0.00201858 0.00200352)
(0.0971432 0.00247477 0.0020451)
(0.098357 0.00213011 0.00216667)
(0.0992976 0.00245996 0.00210099)
(0.095447 0.00224266 0.00175874)
(0.0971962 0.0020338 0.00199583)
(0.0984915 0.0023707 0.00189689)
(0.0937702 0.00200846 0.00150299)
(0.0959155 0.00184872 0.00174092)
(0.0974305 0.00217196 0.00167659)
(0.0921841 0.00183732 0.0013043)
(0.0946971 0.001716 0.00151475)
(0.0963286 0.00196586 0.00148276)
(0.0906979 0.00170443 0.00114272)
(0.0935359 0.00162054 0.00133303)
(0.0952458 0.00176645 0.00129563)
(0.0893312 0.00157637 0.00100029)
(0.0924767 0.001522 0.00117104)
(0.0942296 0.00158618 0.00112406)
(0.0881082 0.00143145 0.000869924)
(0.0915282 0.00139469 0.00102594)
(0.0933081 0.00141607 0.000977019)
(0.0870362 0.00126924 0.000750919)
(0.0906621 0.00124381 0.000895831)
(0.0924907 0.00124653 0.000850195)
(0.0861049 0.00109918 0.000646526)
(0.0898975 0.00108593 0.000776599)
(0.091781 0.00108027 0.000741834)
(0.0852982 0.000928959 0.000559601)
(0.0892284 0.000928057 0.000671492)
(0.0911697 0.000921253 0.000652532)
(0.0845969 0.000764524 0.000492226)
(0.0886413 0.000775219 0.000582273)
(0.0906445 0.000770098 0.000581605)
(0.0839794 0.000613233 0.000449193)
(0.0881197 0.000633389 0.000512973)
(0.0901893 0.000627596 0.000531066)
(0.0834181 0.000475497 0.000433243)
(0.0876418 0.000508194 0.000469098)
(0.0897872 0.000494806 0.000505626)
(0.0828746 0.00033849 0.000448811)
(0.0871814 0.000399745 0.000452479)
(0.0894175 0.000366871 0.00050928)
(0.0822851 0.000191899 0.000516294)
(0.0866973 0.000307891 0.000477911)
(0.0890506 0.00022643 0.000553998)
(0.0815496 1.11674e-05 0.000623938)
(0.0861033 0.00023336 0.00057321)
(0.0886212 6.33429e-05 0.000663582)
(0.0804942 0.000172737 0.00134965)
(0.0853291 0.000170205 0.00069288)
(0.0880766 -0.000156449 0.00080368)
(0.0845269 0.000747763 0.0016935)
(0.0875865 5.8019e-05 0.00167988)
(0.0996488 0.00065046 0.000932682)
(0.0994627 0.000129579 0.000192994)
(0.0997994 0.000375207 0.000741915)
(0.099084 0.00127886 0.00182729)
(0.0992618 0.000637271 0.00137228)
(0.0998405 0.0011504 0.00181551)
(0.0984487 0.0015396 0.0020977)
(0.0989122 0.000973161 0.00200178)
(0.0999041 0.0015358 0.00208775)
(0.0977121 0.00154252 0.00197744)
(0.0982957 0.00104822 0.00204392)
(0.0997679 0.00162886 0.00201499)
(0.0969543 0.00146962 0.00175433)
(0.0976639 0.00100244 0.00188445)
(0.0995149 0.00160175 0.00187769)
(0.0962406 0.00140584 0.00154109)
(0.0970836 0.000948649 0.00166922)
(0.0992139 0.00153136 0.00171859)
(0.0955873 0.0013522 0.00135838)
(0.0965412 0.000908875 0.00146977)
(0.098881 0.0014435 0.00156764)
(0.0949943 0.00128398 0.00119902)
(0.0960576 0.000873525 0.00129008)
(0.098563 0.00134065 0.00141406)
(0.0944434 0.00118895 0.00106236)
(0.0956393 0.000836944 0.0011364)
(0.0982682 0.00122297 0.00126576)
(0.0939286 0.00106838 0.000937365)
(0.0952528 0.000783488 0.00100411)
(0.0979669 0.00108856 0.00112489)
(0.0934585 0.000932698 0.000818494)
(0.0949011 0.00070395 0.000881883)
(0.0976887 0.000945737 0.000992853)
(0.0930332 0.000795149 0.000710059)
(0.0945768 0.000612311 0.000770859)
(0.0974377 0.000807686 0.000874287)
(0.0926446 0.000665965 0.000617149)
(0.0942801 0.000524855 0.000671075)
(0.0972074 0.000680302 0.000769492)
(0.0922795 0.000552891 0.0005454)
(0.0940012 0.000450444 0.00058675)
(0.0969903 0.000566134 0.000683512)
(0.0919192 0.00046256 0.000499766)
(0.0937268 0.00039691 0.000522944)
(0.0967764 0.000468788 0.000622244)
(0.0915337 0.000405438 0.000491976)
(0.0934419 0.000374402 0.000484587)
(0.0965509 0.000392073 0.000592586)
(0.0910705 0.000391298 0.000543759)
(0.093119 0.000399503 0.000485677)
(0.0962861 0.000344667 0.000612915)
(0.0904613 0.000435399 0.000647901)
(0.0927126 0.000485182 0.000543191)
(0.0959411 0.00032723 0.000699672)
(0.0896067 0.00078003 0.0010167)
(0.0921844 0.00068639 0.000637157)
(0.0954913 0.000354888 0.000828979)
(0.0917141 0.00133703 0.0010741)
(0.0951753 0.00070292 0.00128398)
(0.0996724 0.000154065 0.000630321)
(0.0993803 1.80444e-08 5.9418e-05)
(0.0997133 0.000103991 0.000688393)
(0.0991588 0.000353287 0.00154453)
(0.0992674 9.68224e-08 0.00120118)
(0.0998377 0.000341647 0.00162303)
(0.0986638 0.000457533 0.00194442)
(0.0989809 2.26442e-07 0.00188785)
(0.0999638 0.000485302 0.00199004)
(0.0982146 0.000479755 0.00195025)
(0.0984751 3.86707e-07 0.00200096)
(0.0999928 0.000538709 0.00199018)
(0.0977851 0.000468244 0.00180228)
(0.0979996 6.45404e-07 0.00189944)
(0.100012 0.000544008 0.0018933)
(0.0973835 0.000450196 0.00160242)
(0.0975866 1.09845e-06 0.00170489)
(0.100015 0.000527898 0.00176918)
(0.0970315 0.000431372 0.00140581)
(0.0972099 1.88077e-06 0.00149958)
(0.0999933 0.000499136 0.00162538)
(0.0967334 0.000414695 0.00122967)
(0.0968769 3.17839e-06 0.00131145)
(0.0999561 0.000464606 0.00148061)
(0.0964884 0.000399331 0.00107731)
(0.0966047 5.29623e-06 0.0011468)
(0.0999262 0.000432915 0.00133841)
(0.0962812 0.000379036 0.000946398)
(0.0963909 8.76491e-06 0.00100592)
(0.0999069 0.000402603 0.00120547)
(0.0960899 0.000349826 0.000832551)
(0.0961974 1.44464e-05 0.000883704)
(0.0998805 0.000367676 0.00108226)
(0.0959055 0.000315912 0.000730923)
(0.0960072 2.3716e-05 0.000776438)
(0.0998413 0.000328034 0.000960121)
(0.0957255 0.00028662 0.000639852)
(0.0958318 3.86964e-05 0.000677825)
(0.0997964 0.000291057 0.000841525)
(0.095543 0.000271293 0.000562969)
(0.0956653 6.27664e-05 0.00058943)
(0.0997417 0.000265073 0.000739314)
(0.0953502 0.000280334 0.000505186)
(0.0955006 0.000101426 0.00051486)
(0.0996714 0.000255771 0.000657612)
(0.0951358 0.00032764 0.000473282)
(0.0953311 0.000165456 0.000459182)
(0.099581 0.000271587 0.000601226)
(0.0948858 0.000426613 0.00047538)
(0.095151 0.000269213 0.000427454)
(0.0994642 0.000324458 0.000578121)
(0.0945827 0.00061179 0.000513793)
(0.0949459 0.000425191 0.000423399)
(0.0993092 0.000423398 0.000595385)
(0.0942227 0.000997975 0.000655544)
(0.0947038 0.000670826 0.000443632)
(0.0991115 0.000602232 0.000643073)
(0.0945067 0.00110744 0.000581451)
(0.0990134 0.000954676 0.000808589)
(0.0996724 -0.00015395 0.000630274)
(0.0994627 -0.000129537 0.000192973)
(0.0997133 -0.000103941 0.000688394)
(0.0991589 -0.00035298 0.0015445)
(0.0992618 -0.000637115 0.00137226)
(0.0998377 -0.000341454 0.00162301)
(0.098664 -0.000456966 0.00194439)
(0.0989124 -0.000972861 0.00200173)
(0.0999639 -0.000484926 0.00199004)
(0.098215 -0.0004788 0.00195015)
(0.0982961 -0.00104773 0.00204381)
(0.099993 -0.00053807 0.00199015)
(0.0977858 -0.000466605 0.00180205)
(0.0976648 -0.00100156 0.00188426)
(0.100013 -0.00054289 0.00189311)
(0.0973849 -0.000447358 0.00160205)
(0.0970853 -0.000947042 0.00166889)
(0.100016 -0.000525954 0.0017688)
(0.0970338 -0.000426546 0.00140521)
(0.0965441 -0.000906044 0.00146929)
(0.099995 -0.000495861 0.00162484)
(0.0967374 -0.000406609 0.00122858)
(0.0960628 -0.000868706 0.00128919)
(0.099959 -0.00045909 0.00147972)
(0.0964952 -0.000385898 0.00107541)
(0.0956482 -0.000829096 0.00113453)
(0.099931 -0.000423579 0.00133685)
(0.0962928 -0.00035688 0.000943227)
(0.0952679 -0.000770709 0.00100088)
(0.0999149 -0.000387177 0.00120299)
(0.0961093 -0.000313428 0.00082759)
(0.0949262 -0.000682884 0.000876715)
(0.099894 -0.000342602 0.00107848)
(0.095937 -0.000256325 0.00072334)
(0.0946184 -0.000577124 0.000762277)
(0.0998632 -0.00028718 0.000954098)
(0.0957764 -0.000189442 0.000627403)
(0.0943487 -0.000466568 0.000656595)
(0.0998316 -0.000224561 0.000831321)
(0.095626 -0.000113224 0.000541321)
(0.0941148 -0.000355856 0.000561595)
(0.0997981 -0.000157356 0.000721659)
(0.0954852 -2.19751e-05 0.000468856)
(0.0939138 -0.000242743 0.000478947)
(0.0997622 -8.19305e-05 0.000627063)
(0.0953492 9.58532e-05 0.000413354)
(0.0937457 -0.000111328 0.000408562)
(0.0997232 9.39921e-06 0.000550037)
(0.0952165 0.000255911 0.000375473)
(0.0936118 4.60351e-05 0.000347867)
(0.099682 0.000127775 0.000492592)
(0.0950823 0.000480879 0.000353238)
(0.0935111 0.000248558 0.000296639)
(0.099636 0.000287016 0.000453798)
(0.0949491 0.000801256 0.00036954)
(0.0934399 0.000529966 0.000242134)
(0.0995873 0.000504959 0.000426059)
(0.0933521 0.000926324 0.000208836)
(0.0995857 0.000794365 0.000443327)
(0.0996488 -0.000650411 0.000932685)
(0.0994731 -0.000349749 0.000307433)
(0.0997994 -0.000375195 0.000741919)
(0.0990842 -0.00127873 0.00182725)
(0.0990496 -0.00157696 0.0017217)
(0.0998406 -0.00115035 0.00181551)
(0.0984491 -0.00153938 0.00209758)
(0.0983572 -0.00213013 0.00216654)
(0.0999043 -0.00153569 0.00208768)
(0.097713 -0.0015421 0.00197724)
(0.0971968 -0.00203382 0.00199558)
(0.0997684 -0.00162865 0.00201472)
(0.0969561 -0.00146878 0.00175403)
(0.0959167 -0.00184867 0.00174056)
(0.0995161 -0.00160134 0.00187718)
(0.0962438 -0.00140434 0.00154065)
(0.0946994 -0.00171581 0.0015142)
(0.0992161 -0.00153061 0.00171785)
(0.0955929 -0.00134963 0.00135764)
(0.09354 -0.00162019 0.00133217)
(0.0988848 -0.00144219 0.00156651)
(0.095004 -0.0012799 0.00119743)
(0.0924838 -0.00152144 0.00116955)
(0.0985694 -0.00133837 0.00141212)
(0.0944598 -0.00118262 0.00105932)
(0.0915405 -0.00139404 0.00102322)
(0.0982791 -0.0012195 0.0012628)
(0.0939559 -0.00105813 0.000932398)
(0.0906828 -0.00124288 0.000891229)
(0.0979856 -0.00108326 0.00112009)
(0.093504 -0.000915334 0.000810146)
(0.0899319 -0.00108413 0.000769058)
(0.0977197 -0.000937003 0.000984509)
(0.0931089 -0.000765716 0.000695386)
(0.089286 -0.000924241 0.000658374)
(0.0974887 -0.000792182 0.000859626)
(0.0927705 -0.000617983 0.000591377)
(0.0887381 -0.000767699 0.000559162)
(0.0972913 -0.000653829 0.000743958)
(0.0924875 -0.000475313 0.00050031)
(0.0882828 -0.000619916 0.00047244)
(0.0971282 -0.00052281 0.000639044)
(0.0922614 -0.000325729 0.000420196)
(0.0879155 -0.000482671 0.000397586)
(0.0970002 -0.00039696 0.000545231)
(0.092096 -0.000155875 0.000345113)
(0.0876408 -0.000339514 0.000325313)
(0.0969116 -0.000260884 0.000459126)
(0.0919944 5.06616e-05 0.000271125)
(0.0874766 -0.000176286 0.00024496)
(0.0968654 -0.000108595 0.00037468)
(0.0919558 0.000335993 0.000186081)
(0.087443 3.76192e-05 0.000129713)
(0.0968646 8.47323e-05 0.000285752)
(0.0919461 0.00076955 7.62001e-05)
(0.0875833 0.000415262 -4.91107e-05)
(0.0969074 0.000357993 0.000169526)
(0.087472 0.00112014 -0.000411729)
(0.0969415 0.000756288 4.23127e-05)
(0.099375 -0.00118256 0.00107305)
(0.0996871 -0.000439348 0.000345727)
(0.0997476 -0.000611112 0.000780328)
(0.0984945 -0.00229592 0.0020314)
(0.0978152 -0.00273362 0.00228294)
(0.0995969 -0.00201866 0.00200342)
(0.0971436 -0.00247499 0.00204484)
(0.0954953 -0.0030018 0.00230245)
(0.0992978 -0.00246014 0.00210073)
(0.0954478 -0.00224302 0.00175834)
(0.0926229 -0.0022983 0.00183395)
(0.098492 -0.00237104 0.0018964)
(0.0937719 -0.00200905 0.0015024)
(0.0897805 -0.00188741 0.00152418)
(0.0974315 -0.00217253 0.00167587)
(0.0921872 -0.00183825 0.00130337)
(0.0872638 -0.00164564 0.00127282)
(0.0963305 -0.00196683 0.00148171)
(0.0907034 -0.00170594 0.00114117)
(0.0850747 -0.0014715 0.00103856)
(0.0952491 -0.00176795 0.00129397)
(0.0893406 -0.0015789 0.000997737)
(0.0831932 -0.00133273 0.000848662)
(0.0942354 -0.00158865 0.00112124)
(0.0881242 -0.00143561 0.000865713)
(0.0815594 -0.00121376 0.000705412)
(0.0933181 -0.00142032 0.000972394)
(0.0870629 -0.00127586 0.000743888)
(0.0801342 -0.00109399 0.000593901)
(0.0925076 -0.00125355 0.000842499)
(0.0861496 -0.00110939 0.000634456)
(0.0788959 -0.000968772 0.00050322)
(0.091809 -0.00109138 0.000728864)
(0.0853738 -0.000944477 0.000538451)
(0.0778292 -0.000842857 0.00042845)
(0.0912168 -0.000938741 0.000630428)
(0.0847252 -0.000788136 0.000455229)
(0.0769155 -0.000720381 0.000365042)
(0.0907237 -0.000797577 0.000543655)
(0.0841971 -0.000648806 0.000384308)
(0.076153 -0.000611197 0.000310422)
(0.0903225 -0.000670564 0.000465627)
(0.0837905 -0.000526652 0.000318918)
(0.0755261 -0.000526468 0.000258739)
(0.0900111 -0.000560927 0.000391777)
(0.0835195 -0.000405322 0.000245651)
(0.0750279 -0.000454218 0.000200397)
(0.089795 -0.000464582 0.000309572)
(0.0834172 -0.000248827 0.000130612)
(0.0747041 -0.000386084 0.000113676)
(0.0896911 -0.000362403 0.000200195)
(0.0835218 3.01005e-05 -6.51422e-05)
(0.0746443 -0.0002631 -7.61293e-05)
(0.0897173 -0.000218196 2.14595e-05)
(0.0839383 0.000664442 -0.000478077)
(0.0750527 7.15695e-06 -0.000368755)
(0.0899138 5.61769e-05 -0.000256727)
(0.0741571 0.000994106 -0.00122482)
(0.0898711 0.000689148 -0.000807834)
(0.0984567 -0.00247666 0.00173019)
(0.0973536 -0.00106249 -0.00148424)
(0.100049 -0.00105658 0.000751256)
(0.0958334 -0.00314834 0.0024328)
(0.0930859 -0.00326917 0.00253368)
(0.0982929 -0.00280917 0.00216158)
(0.0914502 -0.0022297 0.001867)
(0.0848619 -0.00163593 0.0017923)
(0.0963038 -0.00244171 0.00199666)
(0.0876027 -0.00167165 0.00149754)
(0.0786285 -0.00107386 0.00122038)
(0.0936705 -0.00197841 0.00172317)
(0.0841711 -0.0014337 0.00126093)
(0.0740616 -0.000785125 0.000861293)
(0.090916 -0.00171507 0.00149006)
(0.0812384 -0.00125471 0.00100584)
(0.0704649 -0.000649652 0.000663031)
(0.0884606 -0.0014482 0.00120163)
(0.0787992 -0.0010915 0.000758423)
(0.0675388 -0.000546601 0.000500926)
(0.0863593 -0.00117488 0.000894971)
(0.0767356 -0.000959805 0.000572606)
(0.0651381 -0.000466794 0.000374655)
(0.0845827 -0.000967709 0.000669315)
(0.0749552 -0.000853667 0.000446586)
(0.0631217 -0.000409901 0.000288367)
(0.0830586 -0.000819964 0.000517629)
(0.0734076 -0.000757592 0.000360802)
(0.0613973 -0.00036228 0.000227958)
(0.0817397 -0.000706385 0.000414434)
(0.0720637 -0.000666005 0.000300028)
(0.0599121 -0.000319073 0.000183271)
(0.0805989 -0.000613339 0.000342107)
(0.0709031 -0.000579645 0.000254628)
(0.05864 -0.000280229 0.000148142)
(0.0796191 -0.000534579 0.000288315)
(0.0699099 -0.000503873 0.000218048)
(0.0575494 -0.000247173 0.000118206)
(0.078781 -0.000469803 0.000245238)
(0.0690717 -0.00044487 0.000180711)
(0.056651 -0.000225139 8.92269e-05)
(0.0780788 -0.000418863 0.000202728)
(0.0683809 -0.000400655 0.000133685)
(0.0558968 -0.00021483 6.05685e-05)
(0.0775008 -0.000381218 0.000147189)
(0.0678439 -0.000375437 6.31664e-05)
(0.0552822 -0.000221531 1.79407e-05)
(0.0770358 -0.000362368 7.50982e-05)
(0.0675229 -0.000363628 -8.0373e-05)
(0.0548385 -0.000270406 -4.95426e-05)
(0.0767091 -0.000370413 -4.09855e-05)
(0.0676619 -0.000360506 -0.000308626)
(0.0546562 -0.000367268 -0.000189806)
(0.0765817 -0.000360186 -0.000301532)
(0.0687464 -0.000136885 -0.000856681)
(0.0551075 -0.000513959 -0.000394266)
(0.0768163 -0.000256214 -0.000825972)
(0.0540755 0.000399526 -0.0020967)
(0.0759511 0.000598107 -0.00265056)
(0.099344 0.00341894 -0.00341898)
(0.0973536 0.00148423 0.00106248)
(0.0834782 -0.00197613 0.00197603)
(0.0930859 -0.00253373 0.00326905)
(0.0745162 -0.00195969 0.00195947)
(0.0848619 -0.00179243 0.00163573)
(0.068548 -0.00116008 0.00115963)
(0.0786283 -0.00122067 0.00107347)
(0.0642455 -0.000697189 0.000696403)
(0.0740614 -0.000861751 0.000784352)
(0.0607828 -0.0004977 0.000496172)
(0.0704646 -0.000663867 0.000648373)
(0.0579819 -0.000381146 0.000378321)
(0.0675381 -0.000502579 0.000544099)
(0.0556958 -0.00029463 0.000289897)
(0.0651369 -0.000377483 0.000462449)
(0.0537714 -0.00023292 0.000225222)
(0.0631197 -0.000292997 0.000402606)
(0.0521291 -0.00018764 0.000175206)
(0.0613938 -0.00023542 0.000350195)
(0.0507269 -0.000153902 0.000133775)
(0.0599061 -0.00019529 0.000299206)
(0.0495371 -0.00013025 9.73563e-05)
(0.0586298 -0.000167628 0.00024763)
(0.0485395 -0.000115856 6.15219e-05)
(0.0575317 -0.00015016 0.000193291)
(0.0477115 -0.000109921 2.76626e-05)
(0.0566199 -0.000142164 0.000135401)
(0.0470317 -0.000115679 -1.25031e-05)
(0.055841 -0.00014111 7.43286e-05)
(0.0465022 -0.000144583 -7.72483e-05)
(0.0551818 -0.000154119 -5.03689e-06)
(0.0461256 -0.00020185 -0.000196744)
(0.0546523 -0.000188304 -0.000126009)
(0.0460706 -0.000262918 -0.000415896)
(0.0542794 -0.000227572 -0.000356337)
(0.0468585 0.000498189 -0.00179842)
(0.0543311 -0.000176367 -0.000858391)
(0.0536325 0.000814682 -0.00316361)
(0.0984567 0.00173018 0.00247666)
(0.100049 0.000751256 0.00105659)
(0.0996871 0.000345723 0.000439339)
(0.0958334 0.00243278 0.00314833)
(0.0982929 0.00216158 0.00280918)
(0.0978152 0.00228292 0.0027336)
(0.0914502 0.00186697 0.00222971)
(0.0963038 0.00199666 0.00244172)
(0.0954953 0.00230244 0.0030018)
(0.0876027 0.00149751 0.00167165)
(0.0936705 0.00172317 0.00197842)
(0.0926229 0.00183393 0.00229829)
(0.0841711 0.00126089 0.0014337)
(0.090916 0.00149006 0.00171508)
(0.0897805 0.00152414 0.00188739)
(0.0812384 0.0010058 0.00125471)
(0.0884605 0.00120163 0.00144822)
(0.0872637 0.00127278 0.00164562)
(0.0787992 0.000758388 0.0010915)
(0.0863593 0.000894979 0.0011749)
(0.0850747 0.00103852 0.00147148)
(0.0767355 0.000572577 0.000959821)
(0.0845827 0.000669327 0.000967736)
(0.0831932 0.00084862 0.00133272)
(0.0749552 0.000446558 0.000853698)
(0.0830585 0.000517638 0.000820004)
(0.0815594 0.000705379 0.00121377)
(0.0734075 0.000360789 0.000757645)
(0.0817396 0.000414438 0.000706433)
(0.0801341 0.000593874 0.00109402)
(0.0720634 0.000299988 0.000666084)
(0.0805988 0.000342141 0.000613418)
(0.0788957 0.000503234 0.000968847)
(0.0709028 0.000254537 0.000579719)
(0.0796189 0.000288341 0.000534693)
(0.077829 0.000428416 0.000842959)
(0.0699097 0.000218095 0.000503907)
(0.0787809 0.000245244 0.000469891)
(0.0769153 0.000364963 0.000720397)
(0.0690715 0.00018092 0.000444867)
(0.0780786 0.000202787 0.000418857)
(0.0761528 0.000310473 0.000611055)
(0.0683807 0.00013379 0.000400669)
(0.0775007 0.000147193 0.000381151)
(0.0755259 0.000258867 0.000526373)
(0.0678436 6.30562e-05 0.000375492)
(0.0770358 7.49276e-05 0.000362279)
(0.0750276 0.000200454 0.000454386)
(0.0675226 -8.06182e-05 0.000363737)
(0.0767088 -4.11903e-05 0.000370461)
(0.0747033 0.000113594 0.000386328)
(0.0676618 -0.000308923 0.000360553)
(0.0765817 -0.000301787 0.000360272)
(0.0746439 -7.63609e-05 0.000263336)
(0.0687469 -0.000857261 0.000136691)
(0.0768164 -0.000826231 0.000256088)
(0.0750522 -0.000369194 -7.36e-06)
(0.0759511 -0.00265103 -0.000598293)
(0.0741568 -0.00122589 -0.00099508)
(0.10008 0.00135145 0.00135154)
(0.100186 0.000798979 0.000805302)
(0.100186 0.00080527 0.00079901)
(0.100265 0.00221546 0.0022157)
(0.10019 0.00231153 0.00207125)
(0.10019 0.0020711 0.00231166)
(0.0993858 0.0024322 0.00243265)
(0.100308 0.00263139 0.00245079)
(0.100308 0.00245043 0.00263167)
(0.0979904 0.00230462 0.00230533)
(0.0998083 0.00255526 0.00245043)
(0.0998085 0.00244979 0.00255577)
(0.0965079 0.00199849 0.00199974)
(0.0988693 0.00235402 0.00227052)
(0.0988696 0.00226955 0.00235484)
(0.0950997 0.00158749 0.00158963)
(0.0978542 0.0020324 0.00195135)
(0.0978549 0.00194981 0.00203389)
(0.0938278 0.00121296 0.00121655)
(0.096888 0.00166532 0.00157856)
(0.0968892 0.00157612 0.00166778)
(0.0927095 0.000942108 0.000948183)
(0.0960077 0.00136396 0.00127899)
(0.0960097 0.00127479 0.00136808)
(0.0917419 0.000749668 0.000759834)
(0.0952277 0.00113194 0.00105613)
(0.0952312 0.00104906 0.00113899)
(0.0909139 0.000609289 0.000626115)
(0.0945486 0.000948521 0.000887447)
(0.0945546 0.000875724 0.000960244)
(0.0902118 0.000501989 0.000529768)
(0.0939689 0.000798597 0.00075769)
(0.0939786 0.000738274 0.000817773)
(0.0896225 0.000415999 0.000461974)
(0.0934792 0.000670767 0.000657163)
(0.0934953 0.000624909 0.000702192)
(0.0891312 0.000339144 0.000415417)
(0.0930706 0.000559589 0.000583003)
(0.0930974 0.000529227 0.000611186)
(0.0887307 0.000253021 0.000380023)
(0.0927278 0.000452822 0.000527781)
(0.0927721 0.000437927 0.000537384)
(0.0884201 0.000151851 0.00036485)
(0.0924502 0.000335884 0.000486733)
(0.0925226 0.000335998 0.00047433)
(0.0881873 2.87006e-05 0.000384627)
(0.0922318 0.000211643 0.00047935)
(0.0923492 0.000224809 0.000437811)
(0.08802 -0.000175546 0.000414241)
(0.0920552 6.12174e-05 0.000510033)
(0.0922436 8.16973e-05 0.000424256)
(0.0878909 -0.000583355 0.000370471)
(0.0918937 -0.000176792 0.000550902)
(0.0921885 -0.000160499 0.00039409)
(0.0876498 -0.0014958 1.65644e-05)
(0.0917353 -0.000564662 0.000542473)
(0.0921734 -0.00059027 0.000276869)
(0.0917102 -0.00122341 0.000349934)
(0.0921743 -0.00144755 -9.48259e-05)
(0.100172 0.00136859 0.00141671)
(0.100118 0.000577423 0.000811751)
(0.100102 0.000699897 0.000701032)
(0.100759 0.00219369 0.00214802)
(0.100479 0.00158243 0.00185892)
(0.100477 0.00182216 0.00186467)
(0.100997 0.0024729 0.00238298)
(0.101005 0.00205694 0.0022401)
(0.101025 0.00234438 0.00238066)
(0.10084 0.00246713 0.00237778)
(0.101293 0.00219861 0.00234319)
(0.101339 0.00249915 0.0025361)
(0.100464 0.00229503 0.00220382)
(0.101312 0.00215713 0.00230219)
(0.10141 0.00243674 0.00245694)
(0.0999793 0.0020288 0.00193218)
(0.101163 0.00199198 0.00214322)
(0.101303 0.00224096 0.0022434)
(0.0994634 0.00174536 0.00163981)
(0.100937 0.00176068 0.00191003)
(0.1011 0.001969 0.00195292)
(0.0989658 0.00149433 0.00138999)
(0.100684 0.00153139 0.00167192)
(0.100857 0.00170501 0.00168196)
(0.098512 0.00127877 0.00118847)
(0.100435 0.00132245 0.00145558)
(0.100607 0.00147157 0.00145057)
(0.098115 0.00109001 0.00102374)
(0.100201 0.00112864 0.00126087)
(0.100374 0.00126496 0.00125311)
(0.0977759 0.000923917 0.000889567)
(0.0999958 0.000954032 0.00109415)
(0.100172 0.00108166 0.0010843)
(0.0974885 0.000776518 0.000782774)
(0.0998197 0.000802172 0.000956223)
(0.100001 0.000918235 0.000941578)
(0.097246 0.0006418 0.000700421)
(0.0996674 0.000669113 0.000843359)
(0.0998598 0.000771058 0.000824259)
(0.0970414 0.000512228 0.000641036)
(0.0995323 0.000548222 0.000754267)
(0.099744 0.000633509 0.00073011)
(0.0968644 0.000383049 0.000610371)
(0.09941 0.000433866 0.000691128)
(0.0996519 0.000499081 0.00065983)
(0.0967045 0.000244099 0.000616897)
(0.0992927 0.000326935 0.000663604)
(0.0995809 0.00036465 0.00062271)
(0.0965491 7.40734e-05 0.000663422)
(0.0991656 0.000218144 0.000680397)
(0.0995209 0.000214798 0.000622128)
(0.0963727 -0.000148869 0.000743249)
(0.0990127 9.13794e-05 0.000740576)
(0.0994615 2.95048e-05 0.000653157)
(0.0960917 -0.000374612 0.000891512)
(0.0988303 -6.164e-05 0.00083282)
(0.0993947 -0.000203478 0.00070585)
(0.0988787 -0.000139762 0.00102912)
(0.0994818 -0.000396399 0.00083974)
(0.100242 0.000820102 0.00125648)
(0.10009 0.00029447 0.0007358)
(0.100071 0.000415707 0.000603174)
(0.100829 0.0013899 0.00193816)
(0.100491 0.000792056 0.00168411)
(0.100493 0.00112403 0.00158693)
(0.101393 0.0016609 0.0021758)
(0.101086 0.00107701 0.00208064)
(0.101129 0.00153923 0.00209108)
(0.101816 0.00175432 0.0022432)
(0.101665 0.00120131 0.0021692)
(0.101768 0.00172817 0.00228391)
(0.102083 0.00174089 0.00222653)
(0.102122 0.00123263 0.00219754)
(0.10229 0.00178002 0.00234294)
(0.102221 0.00164083 0.00211712)
(0.102453 0.00118807 0.00216438)
(0.102709 0.00172454 0.00227763)
(0.102276 0.00148916 0.00194701)
(0.10268 0.00109209 0.00205015)
(0.103029 0.00159224 0.00212939)
(0.102289 0.00132123 0.00174738)
(0.102841 0.000977018 0.0018862)
(0.103271 0.00142722 0.00193439)
(0.10228 0.00115088 0.00154028)
(0.102961 0.000865654 0.00169985)
(0.10346 0.00125668 0.00172794)
(0.102258 0.00098388 0.00134434)
(0.103049 0.000756526 0.00151002)
(0.103606 0.00108836 0.00152357)
(0.102231 0.000831577 0.00117363)
(0.103115 0.000650011 0.00133219)
(0.103722 0.000929551 0.00133515)
(0.1022 0.000699365 0.00102883)
(0.103167 0.000553754 0.001166)
(0.103818 0.000788581 0.00116857)
(0.102165 0.000584344 0.000908182)
(0.103205 0.000470708 0.00101597)
(0.103894 0.000664377 0.00102381)
(0.102121 0.00048388 0.000814573)
(0.103226 0.000401886 0.000893173)
(0.103952 0.000553663 0.000902918)
(0.102063 0.000398022 0.000754077)
(0.10323 0.000348213 0.000799884)
(0.103992 0.00045443 0.000810455)
(0.101982 0.000327536 0.000736375)
(0.103212 0.000312703 0.000741057)
(0.104011 0.000366686 0.000753296)
(0.101871 0.000270059 0.000766699)
(0.103166 0.00029933 0.000724475)
(0.104007 0.000287868 0.000737991)
(0.101723 0.000224143 0.00083959)
(0.103088 0.000310595 0.000750606)
(0.103973 0.000213352 0.000763677)
(0.101513 0.000222539 0.000978408)
(0.102989 0.000354304 0.000806898)
(0.10392 0.000145243 0.000823104)
(0.103073 0.000468236 0.000934189)
(0.104024 0.000131752 0.000955832)
(0.100243 0.000267508 0.00116258)
(0.100087 3.50661e-08 0.000707408)
(0.100064 0.000135865 0.000537588)
(0.100783 0.000465646 0.00182474)
(0.100478 1.02998e-07 0.00161775)
(0.100464 0.000370844 0.00142365)
(0.101402 0.000574729 0.00207012)
(0.101067 1.71131e-07 0.00203173)
(0.10109 0.000524671 0.00193004)
(0.101989 0.000620826 0.0021179)
(0.101696 3.04395e-07 0.00210846)
(0.101798 0.000604271 0.00211857)
(0.102506 0.000626804 0.00213082)
(0.102271 5.5619e-07 0.00212714)
(0.102488 0.000635751 0.00218829)
(0.102931 0.000600818 0.00209547)
(0.102741 9.56363e-07 0.00213404)
(0.103114 0.000627459 0.0021976)
(0.103267 0.000553654 0.00198959)
(0.103118 1.56459e-06 0.00205617)
(0.103672 0.000588464 0.00212108)