/*--------------------------------*- C++ -*----------------------------------*\
| =========                 |                                                 |
| \\      /  F ield         | OpenFOAM: The Open Source CFD Toolbox           |
|  \\    /   O peration     | Version:  2212                                  |
|   \\  /    A nd           | Website:  www.openfoam.com                      |
|    \\/     M anipulation  |                                                 |
\*---------------------------------------------------------------------------*/
FoamFile
{
    version     2.0;
    format      ascii;
    arch        "LSB;label=32;scalar=64";
    class       volScalarField;
    location    "0.35";
    object      nut;
}
// * * * * * * * * * * * * * * * * * * * * * * * * * * * * * * * * * * * * * //

dimensions      [0 2 -1 0 0 0 0];

internalField   nonuniform List<scalar> 
689
(
4.6536e-06
4.62707e-06
4.61045e-06
4.60038e-06
4.59449e-06
4.59057e-06
4.588e-06
4.58644e-06
9.90377e-06
9.84117e-06
9.80051e-06
9.77275e-06
9.75625e-06
9.74316e-06
9.73418e-06
9.72811e-06
1.52197e-05
1.49935e-05
1.4833e-05
1.47367e-05
1.46672e-05
1.46158e-05
1.45762e-05
1.45529e-05
1.45363e-05
2.10581e-05
2.0352e-05
1.98146e-05
1.94089e-05
1.91079e-05
1.88856e-05
1.87254e-05
1.86086e-05
1.85294e-05
1.8469e-05
1.84243e-05
1.83943e-05
2.35655e-05
2.30044e-05
2.25114e-05
2.21027e-05
2.17764e-05
2.15226e-05
2.13282e-05
2.11813e-05
2.10756e-05
2.09952e-05
2.09386e-05
2.08968e-05
2.46667e-05
2.40054e-05
2.34673e-05
2.30402e-05
2.27026e-05
2.24377e-05
2.22334e-05
2.20783e-05
2.19616e-05
2.1876e-05
2.18126e-05
2.17667e-05
2.42238e-05
2.32656e-05
2.2601e-05
2.21228e-05
2.17725e-05
2.15143e-05
2.13235e-05
2.11823e-05
2.10775e-05
2.10006e-05
2.09487e-05
2.09066e-05
2.11191e-05
2.02332e-05
1.96625e-05
1.92719e-05
1.90016e-05
1.88082e-05
1.86708e-05
1.8571e-05
1.8497e-05
1.8453e-05
1.84099e-05
1.83798e-05
1.58429e-05
1.55674e-05
1.52029e-05
1.49621e-05
1.48026e-05
1.47064e-05
1.4637e-05
1.46004e-05
1.45619e-05
1.45298e-05
1.45139e-05
1.07271e-05
1.01619e-05
9.91585e-06
9.80887e-06
9.7722e-06
9.75259e-06
9.7401e-06
9.72915e-06
9.71988e-06
9.71217e-06
9.70646e-06
5.491e-06
5.12062e-06
4.83904e-06
4.72486e-06
4.65309e-06
4.62654e-06
4.60997e-06
4.60056e-06
4.59475e-06
4.5908e-06
4.58818e-06
9.7719e-06
9.75232e-06
9.7394e-06
9.72835e-06
9.71912e-06
9.71152e-06
9.70607e-06
9.70221e-06
4.43987e-05
4.50648e-05
4.54009e-05
4.55969e-05
4.57214e-05
4.57991e-05
4.58497e-05
4.58801e-05
7.49987e-05
7.65097e-05
7.73067e-05
7.78681e-05
7.82206e-05
7.84126e-05
7.85578e-05
7.86113e-05
7.86295e-05
9.75193e-05
9.82837e-05
9.96961e-05
0.000100713
0.000101436
0.000101998
0.000102451
0.000102789
0.000102999
0.000103151
0.000103244
0.000103226
0.000124328
0.000121899
0.000120395
0.000119537
0.000119095
0.000118898
0.000118838
0.000118853
0.000118904
0.00011895
0.000118933
0.000118959
0.000136406
0.000132781
0.000130291
0.000128617
0.000127501
0.000126769
0.000126307
0.000126032
0.000125876
0.000125783
0.000125643
0.00012561
0.00013075
0.000128322
0.000126405
0.000124952
0.000123887
0.000123148
0.000122649
0.000122326
0.000122106
0.000121981
0.000121794
0.000121664
0.000114714
0.000112402
0.000110735
0.000109618
0.000108851
0.000108409
0.000108087
0.00010792
0.000107695
0.000107563
0.000107423
0.000107037
8.58497e-05
8.30571e-05
8.23541e-05
8.24598e-05
8.26971e-05
8.2668e-05
8.25602e-05
8.24605e-05
8.23739e-05
8.2293e-05
8.22275e-05
3.11448e-05
3.6865e-05
4.06593e-05
4.3001e-05
4.43442e-05
4.50477e-05
4.54256e-05
4.56174e-05
4.57355e-05
4.58068e-05
4.58447e-05
1.13599e-05
1.06254e-05
1.02791e-05
1.00343e-05
9.90225e-06
9.84105e-06
9.79827e-06
9.77555e-06
9.7573e-06
9.74386e-06
9.73447e-06
1.49587e-05
1.48024e-05
1.4703e-05
1.46358e-05
1.45987e-05
1.45601e-05
1.45284e-05
1.45133e-05
1.45011e-05
8.22588e-05
8.2552e-05
8.2578e-05
8.24929e-05
8.24112e-05
8.23393e-05
8.22756e-05
8.2226e-05
8.21565e-05
0.00014082
0.000142176
0.00014305
0.000143059
0.000143282
0.000143506
0.00014359
0.000143611
0.00014342
0.000177398
0.000178281
0.00017941
0.000180581
0.000181761
0.00018275
0.000183491
0.000184304
0.000184587
0.000184686
0.000184657
0.00018453
0.000209075
0.000207465
0.000206638
0.000206366
0.000206463
0.000206777
0.000207217
0.000207735
0.000208224
0.000208734
0.000208666
0.000208166
0.000222892
0.000220117
0.00021826
0.000217142
0.000216578
0.000216398
0.000216472
0.0002167
0.000216996
0.000217297
0.000217342
0.000216842
0.000215856
0.000213515
0.000211817
0.000210747
0.000210188
0.000209987
0.000210036
0.000210239
0.000210477
0.000210824
0.000210524
0.000210034
0.000191068
0.000187864
0.000186416
0.000185908
0.000185992
0.000186249
0.000186497
0.000186979
0.000186779
0.000186708
0.000186569
0.000186206
0.000135433
0.000137468
0.000139362
0.000140975
0.000142332
0.00014319
0.000143184
0.000143376
0.000143568
0.000143615
0.0001435
6.36256e-05
6.85285e-05
7.25005e-05
7.50582e-05
7.65546e-05
7.73446e-05
7.79071e-05
7.8252e-05
7.84325e-05
7.85624e-05
7.85771e-05
1.6849e-05
1.61265e-05
1.5595e-05
1.52183e-05
1.49951e-05
1.48326e-05
1.47389e-05
1.46681e-05
1.46155e-05
1.45781e-05
1.4553e-05
1.92684e-05
1.89973e-05
1.88041e-05
1.86671e-05
1.85677e-05
1.84941e-05
1.84517e-05
1.84124e-05
1.83761e-05
0.000109515
0.000108729
0.000108271
0.000107978
0.000107835
0.000107627
0.000107525
0.000107432
0.000107212
0.000185537
0.000185662
0.00018596
0.000186251
0.000186779
0.000186609
0.000186572
0.000186437
0.000186249
0.000234239
0.000233891
0.000233889
0.000234252
0.000234877
0.000235611
0.000236374
0.000237148
0.000237743
0.000238165
0.000238319
0.000237909
0.000263274
0.000262682
0.000262534
0.000262785
0.000263332
0.000264061
0.000264878
0.000265706
0.000266461
0.000267059
0.000267266
0.000266621
0.000276138
0.000274241
0.000273386
0.000273222
0.000273509
0.000274072
0.000274785
0.000275548
0.000276276
0.00027686
0.000277059
0.00027631
0.000267096
0.000265359
0.000264565
0.000264416
0.000264697
0.000265237
0.000265915
0.000266635
0.000267316
0.000267865
0.000268075
0.000267708
0.00023433
0.000234027
0.000234072
0.000234455
0.000235084
0.000235809
0.000236558
0.000237311
0.000237874
0.000238253
0.000238377
0.00023764
0.000177435
0.000178357
0.000179507
0.000180686
0.000181871
0.000182857
0.000183589
0.000184394
0.000184603
0.000184631
0.000184418
9.75904e-05
9.84662e-05
9.98526e-05
0.000100801
0.000101493
0.00010204
0.000102481
0.000102818
0.000102997
0.000103153
0.000103173
2.10585e-05
2.03528e-05
1.98156e-05
1.94101e-05
1.91091e-05
1.88867e-05
1.87268e-05
1.86101e-05
1.85261e-05
1.84772e-05
1.84216e-05
2.21169e-05
2.17662e-05
2.15085e-05
2.13184e-05
2.11783e-05
2.10752e-05
2.09993e-05
2.09453e-05
2.0906e-05
0.000124679
0.000123718
0.000123058
0.000122621
0.000122346
0.000122167
0.00012205
0.000121887
0.000121776
0.000210165
0.0002097
0.000209573
0.00020968
0.000209921
0.000210184
0.000210554
0.000210292
0.000209804
0.000266959
0.000265151
0.000264281
0.0002641
0.000264372
0.000264916
0.000265605
0.00026634
0.000267037
0.000267613
0.000267883
0.000267652
0.000294176
0.00029355
0.000293584
0.000294087
0.000294896
0.00029588
0.000296933
0.000297973
0.000298923
0.000299685
0.000300078
0.000299787
0.000303584
0.000303177
0.000303403
0.00030407
0.000305018
0.000306118
0.000307268
0.000308388
0.000309403
0.000310201
0.000310569
0.000310081
0.000294224
0.000293615
0.000293669
0.000294187
0.000295006
0.000295993
0.000297045
0.00029808
0.000299018
0.000299757
0.000300111
0.000299759
0.000263299
0.00026271
0.000262567
0.000262822
0.000263369
0.000264093
0.0002649
0.000265713
0.000266443
0.000266998
0.000267152
0.00026671
0.000209091
0.000207486
0.000206665
0.000206393
0.000206488
0.000206798
0.000207232
0.000207738
0.000208195
0.000208625
0.000208181
0.000124337
0.000121929
0.000120432
0.000119573
0.000119126
0.000118924
0.000118858
0.000118867
0.000118901
0.000118929
0.000118864
2.35655e-05
2.30045e-05
2.25116e-05
2.21031e-05
2.17768e-05
2.15232e-05
2.13289e-05
2.11823e-05
2.10761e-05
2.09958e-05
2.09378e-05
0.00027597
0.000273996
0.00027307
0.000272836
0.000273073
0.000273605
0.000274297
0.000275046
0.000275765
0.00027636
0.000276655
0.000276352
0.000303475
0.000303028
0.000303218
0.000303853
0.000304775
0.000305851
0.000306982
0.000308088
0.000309093
0.0003099
0.000310329
0.000310058
0.000311922
0.000312194
0.000312863
0.000313843
0.000315024
0.000316302
0.000317591
0.000318821
0.00031992
0.000320782
0.000321201
0.000320789
0.000303514
0.000303087
0.000303299
0.000303955
0.000304895
0.000305985
0.000307125
0.000308232
0.000309228
0.000310001
0.000310346
0.0003099
0.000276068
0.000274148
0.000273276
0.000273099
0.000273375
0.000273929
0.000274629
0.000275373
0.000276068
0.000276586
0.000276687
0.000276043
0.000222859
0.000220074
0.000218211
0.000217091
0.000216525
0.000216343
0.000216411
0.000216622
0.000216879
0.000217057
0.000216735
0.000136403
0.000132787
0.000130306
0.000128639
0.000127529
0.0001268
0.000126338
0.000126059
0.000125888
0.000125754
0.000125565
2.46664e-05
2.40051e-05
2.34671e-05
2.30402e-05
2.27028e-05
2.24381e-05
2.22341e-05
2.20792e-05
2.19624e-05
2.18755e-05
2.18122e-05
)
;

boundaryField
{
    inlet
    {
        type            calculated;
        value           nonuniform List<scalar> 0();
    }
    ami1
    {
        type            cyclicAMI;
        value           nonuniform List<scalar> 0();
    }
    walls
    {
        type            nutkWallFunction;
        blending        stepwise;
        value           uniform 0;
    }
    ami2
    {
        type            cyclicAMI;
        value           nonuniform List<scalar> 
48
(
2.45021e-05
2.49937e-05
2.68683e-05
3.14047e-05
2.87019e-05
2.10049e-05
1.22994e-05
1.19501e-05
0.000105703
0.000130632
0.000139307
0.000133343
0.000118704
9.24236e-05
3.06674e-05
1.75768e-05
0.000179819
0.000211175
0.000224988
0.000217364
0.000194698
0.000136639
7.05321e-05
2.19949e-05
0.000234539
0.000263869
0.000277986
0.000268717
0.000234606
0.00017985
0.000105745
2.45024e-05
0.000268618
0.000295002
0.000304277
0.000295042
0.000263895
0.000211193
0.000130641
2.49938e-05
0.000277874
0.000304207
0.000312067
0.000304238
0.000277948
0.000224976
0.000139308
2.68683e-05
)
;
    }
    outlet
    {
        type            calculated;
        value           nonuniform List<scalar> 0();
    }
    procBoundary0to1
    {
        type            processor;
        value           nonuniform List<scalar> 
138
(
2.25968e-05
2.30367e-05
2.26983e-05
2.24331e-05
2.22289e-05
2.20741e-05
2.19579e-05
2.18724e-05
2.18097e-05
2.17644e-05
0.000126093
0.000128461
0.000127339
0.000126616
0.00012617
0.000125911
0.000125769
0.000125685
0.000125553
0.000125514
0.000215692
0.000213261
0.000211404
0.000211404
0.000216764
0.000216154
0.000215966
0.000216045
0.000216279
0.000216578
0.000216882
0.000216936
0.00021647
0.000222764
0.000219931
0.000218003
0.000216764
0.000216154
0.000215966
0.000216045
0.000216279
0.000216578
0.000216882
0.000216936
0.00021647
0.000263179
0.000262537
0.000262348
0.00026256
0.000263072
0.00026377
0.000264558
0.000265362
0.000266097
0.000266694
0.000266982
0.000266737
0.000294107
0.000293451
0.000293466
0.000293952
0.000294744
0.000295708
0.000296741
0.00029776
0.000298692
0.000299444
0.000299847
0.000299588
0.000303501
0.000303055
0.000303253
0.000303899
0.000304832
0.000305916
0.000307051
0.000308157
0.000309159
0.000309954
0.000310344
0.00030994
0.00029414
0.000293499
0.00029353
0.000294033
0.00029484
0.000295818
0.00029686
0.000297884
0.00029881
0.000299527
0.000299824
0.000299286
0.000267015
0.000265246
0.000264431
0.000264268
0.000264539
0.000265071
0.00026574
0.000266446
0.0002671
0.000267579
0.000267634
0.000266497
0.000215825
0.000213475
0.000211773
0.000210704
0.000210146
0.000209946
0.000209994
0.000210184
0.000210381
0.000210544
0.000209825
0.000130809
0.000128414
0.000126518
0.000125083
0.000124034
0.000123307
0.000122817
0.000122499
0.000122271
0.000122085
0.000121871
2.42237e-05
2.32655e-05
2.2601e-05
2.21232e-05
2.17732e-05
2.15153e-05
2.13248e-05
2.11838e-05
2.10788e-05
2.10029e-05
2.09477e-05
)
;
    }
    procBoundary0to2
    {
        type            processor;
        value           nonuniform List<scalar> 
28
(
4.72437e-06
1.00295e-05
1.00295e-05
1.68479e-05
1.61272e-05
1.55941e-05
1.55941e-05
9.81061e-06
9.81061e-06
4.32436e-05
4.32436e-05
4.32436e-05
6.37169e-05
6.86575e-05
7.2709e-05
7.2709e-05
1.52015e-05
8.2287e-05
0.000135412
0.00013744
0.000139313
0.000139313
1.96602e-05
0.000110799
0.000190961
0.000187719
0.000186175
0.000186175
)
;
    }
    procBoundary0to8
    {
        type            processor;
        value           nonuniform List<scalar> 
29
(
4.58561e-06
9.72426e-06
1.45249e-05
1.83733e-05
2.08679e-05
9.69972e-06
4.5902e-05
7.86422e-05
0.000103195
0.000119009
1.44924e-05
8.21026e-05
0.000143318
0.00018429
0.000207775
1.836e-05
0.000107092
0.000185972
0.000237486
0.000265906
2.08754e-05
0.000121505
0.000209544
0.000267346
0.000299404
0.000309408
0.000276146
0.000309801
0.000320294
)
;
    }
    procBoundary0to9
    {
        type            processor;
        value           nonuniform List<scalar> 
40
(
2.17336e-05
2.08772e-05
1.83615e-05
1.45016e-05
1.45016e-05
9.70233e-06
4.58658e-06
0.000125428
0.000121471
0.000107017
8.23027e-05
8.23027e-05
4.58761e-05
9.72806e-06
0.000216316
0.000209714
0.000186045
0.000143315
0.000143315
7.85793e-05
1.45356e-05
0.000275445
0.00026727
0.000237301
0.000184201
0.000184201
0.000103135
1.83924e-05
0.00029926
0.000266427
0.00020787
0.00020787
0.000118875
2.08957e-05
0.000309418
0.000275751
0.000216241
0.000216241
0.000125527
2.17657e-05
)
;
    }
}


// ************************************************************************* //
