/*--------------------------------*- C++ -*----------------------------------*\
| =========                 |                                                 |
| \\      /  F ield         | OpenFOAM: The Open Source CFD Toolbox           |
|  \\    /   O peration     | Version:  2212                                  |
|   \\  /    A nd           | Website:  www.openfoam.com                      |
|    \\/     M anipulation  |                                                 |
\*---------------------------------------------------------------------------*/
FoamFile
{
    version     2.0;
    format      ascii;
    arch        "LSB;label=32;scalar=64";
    class       surfaceScalarField;
    location    "0.7";
    object      phi;
}
// * * * * * * * * * * * * * * * * * * * * * * * * * * * * * * * * * * * * * //

dimensions      [0 3 -1 0 0 0 0];

oriented        oriented;

internalField   nonuniform List<scalar> 
1786
(
7.92483e-07
-1.17739e-07
2.53429e-09
7.90627e-07
-1.17637e-07
2.43935e-09
7.88799e-07
-1.17553e-07
2.298e-09
7.87051e-07
-1.17486e-07
2.12987e-09
7.85415e-07
-1.17433e-07
1.94892e-09
7.83908e-07
-1.17394e-07
1.76692e-09
7.82536e-07
-1.17367e-07
1.58898e-09
7.81298e-07
-1.17346e-07
1.41819e-09
7.80178e-07
-1.17332e-07
1.26586e-09
7.79173e-07
-1.17332e-07
1.12933e-09
-1.17347e-07
9.93217e-10
7.28322e-07
-1.08898e-07
-6.25191e-09
7.25867e-07
-1.08751e-07
-6.43052e-09
7.23583e-07
-1.08636e-07
-6.63449e-09
7.21487e-07
-1.08542e-07
-6.84825e-09
7.19584e-07
-1.08465e-07
-7.06495e-09
7.17875e-07
-1.08408e-07
-7.27601e-09
7.16352e-07
-1.08365e-07
-7.47908e-09
7.15002e-07
-1.08326e-07
-7.67009e-09
7.13797e-07
-1.08296e-07
-7.83055e-09
7.12726e-07
-1.08282e-07
-7.97811e-09
-1.08288e-07
-8.13063e-09
5.89614e-07
-9.1056e-08
-1.46408e-08
5.86766e-07
-9.0992e-08
-1.49117e-08
5.84243e-07
-9.09362e-08
-1.51757e-08
5.82019e-07
-9.08794e-08
-1.54384e-08
5.80072e-07
-9.08246e-08
-1.56924e-08
5.78377e-07
-9.07754e-08
-1.59386e-08
5.76904e-07
-9.07333e-08
-1.61586e-08
5.75622e-07
-9.07022e-08
-1.63411e-08
5.74494e-07
-9.06786e-08
-1.64897e-08
5.73505e-07
-9.066e-08
-1.66333e-08
-9.06452e-08
-1.67968e-08
4.09482e-07
-6.58621e-08
-2.21988e-08
4.06776e-07
-6.58229e-08
-2.25267e-08
4.04407e-07
-6.57971e-08
-2.28259e-08
4.02331e-07
-6.57781e-08
-2.30826e-08
4.00525e-07
-6.57556e-08
-2.33171e-08
3.98969e-07
-6.57302e-08
-2.3538e-08
3.97646e-07
-6.56978e-08
-2.37545e-08
3.96523e-07
-6.56698e-08
-2.3941e-08
3.95562e-07
-6.56488e-08
-2.40925e-08
3.94726e-07
-6.56329e-08
-2.42095e-08
3.94004e-07
-6.56062e-08
-2.43312e-08
-6.55751e-08
-2.44718e-08
2.20058e-07
-3.4752e-08
-2.91593e-08
2.18385e-07
-3.47411e-08
-2.94088e-08
2.16948e-07
-3.47377e-08
-2.96224e-08
2.15702e-07
-3.47353e-08
-2.97967e-08
2.14624e-07
-3.47323e-08
-2.99446e-08
2.137e-07
-3.47281e-08
-3.00781e-08
2.12923e-07
-3.47213e-08
-3.01998e-08
2.12272e-07
-3.47152e-08
-3.03038e-08
2.11721e-07
-3.47121e-08
-3.03854e-08
2.11247e-07
-3.47104e-08
-3.04484e-08
2.10856e-07
-3.4704e-08
-3.05106e-08
-3.46898e-08
-3.05913e-08
7.45609e-08
-3.40163e-08
7.39368e-08
-3.4117e-08
7.33988e-08
-3.41997e-08
7.29284e-08
-3.4265e-08
7.25198e-08
-3.43237e-08
7.21713e-08
-3.43795e-08
7.18792e-08
-3.44292e-08
7.16356e-08
-3.44716e-08
7.14309e-08
-3.45074e-08
7.12578e-08
-3.45373e-08
7.11177e-08
-3.45638e-08
-3.45894e-08
1.20415e-06
-1.04201e-07
3.16459e-09
1.2053e-06
-1.04005e-07
3.0047e-09
1.20618e-06
-1.03842e-07
2.82647e-09
1.20683e-06
-1.03705e-07
2.63222e-09
1.2073e-06
-1.03595e-07
2.43171e-09
1.20761e-06
-1.03506e-07
2.23425e-09
1.2078e-06
-1.03437e-07
2.04162e-09
1.2079e-06
-1.0338e-07
1.84654e-09
1.20794e-06
-1.03337e-07
1.66129e-09
1.20795e-06
-1.03301e-07
1.46982e-09
-1.03264e-07
1.24638e-09
1.14727e-06
-9.7596e-08
-1.3394e-08
1.14764e-06
-9.7159e-08
-1.36491e-08
1.14788e-06
-9.68039e-08
-1.39061e-08
1.14799e-06
-9.65077e-08
-1.41629e-08
1.14802e-06
-9.62777e-08
-1.44134e-08
1.14799e-06
-9.60882e-08
-1.46566e-08
1.14789e-06
-9.5926e-08
-1.48962e-08
1.14776e-06
-9.5796e-08
-1.51241e-08
1.14762e-06
-9.57023e-08
-1.53167e-08
1.14748e-06
-9.56219e-08
-1.55242e-08
-9.55269e-08
-1.57743e-08
1.01108e-06
-8.2484e-08
-2.88e-08
1.01025e-06
-8.20164e-08
-2.92272e-08
1.00953e-06
-8.16413e-08
-2.96172e-08
1.00889e-06
-8.13274e-08
-2.99806e-08
1.00831e-06
-8.10741e-08
-3.03182e-08
1.00779e-06
-8.08524e-08
-3.06474e-08
1.00732e-06
-8.06766e-08
-3.09363e-08
1.0069e-06
-8.05466e-08
-3.117e-08
1.00652e-06
-8.04591e-08
-3.13557e-08
1.0062e-06
-8.03721e-08
-3.15603e-08
-8.02519e-08
-3.18259e-08
8.09214e-07
-6.05825e-08
-4.21742e-08
8.07132e-07
-6.01327e-08
-4.27968e-08
8.05403e-07
-5.97584e-08
-4.33545e-08
8.0396e-07
-5.9475e-08
-4.3806e-08
8.02752e-07
-5.92414e-08
-4.41948e-08
8.01729e-07
-5.90389e-08
-4.45508e-08
8.00864e-07
-5.88532e-08
-4.48884e-08
8.0012e-07
-5.87033e-08
-4.51697e-08
7.99469e-07
-5.85911e-08
-4.53972e-08
7.98882e-07
-5.85142e-08
-4.55674e-08
7.98361e-07
-5.84376e-08
-4.5745e-08
-5.83327e-08
-4.59623e-08
5.44756e-07
-3.23024e-08
-5.45046e-08
5.42296e-07
-3.20597e-08
-5.50211e-08
5.40221e-07
-3.18496e-08
-5.5456e-08
5.38449e-07
-3.1689e-08
-5.58111e-08
5.36932e-07
-3.1557e-08
-5.61117e-08
5.35642e-07
-3.14387e-08
-5.63879e-08
5.34554e-07
-3.13327e-08
-5.66322e-08
5.33634e-07
-3.12447e-08
-5.68425e-08
5.32845e-07
-3.11771e-08
-5.70106e-08
5.32153e-07
-3.11263e-08
-5.71438e-08
5.31539e-07
-3.10762e-08
-5.72584e-08
-3.10125e-08
-5.73878e-08
2.35454e-07
-6.43645e-08
2.33787e-07
-6.451e-08
2.32361e-07
-6.46232e-08
2.31133e-07
-6.47257e-08
2.30076e-07
-6.48232e-08
2.29176e-07
-6.49189e-08
2.2842e-07
-6.50056e-08
2.27787e-07
-6.50829e-08
2.27252e-07
-6.51494e-08
2.26795e-07
-6.52074e-08
2.26416e-07
-6.52611e-08
-6.53055e-08
1.48409e-06
-8.45163e-08
3.33186e-09
1.48633e-06
-8.42872e-08
3.05815e-09
1.48828e-06
-8.40941e-08
2.80216e-09
1.48997e-06
-8.3933e-08
2.55972e-09
1.49142e-06
-8.37958e-08
2.33037e-09
1.49268e-06
-8.36794e-08
2.11595e-09
1.49375e-06
-8.35828e-08
1.91068e-09
1.49469e-06
-8.3507e-08
1.70271e-09
1.49552e-06
-8.34531e-08
1.50617e-09
1.49626e-06
-8.33988e-08
1.30563e-09
-8.33379e-08
1.0938e-09
1.43491e-06
-8.0163e-08
-1.95764e-08
1.43652e-06
-7.96096e-08
-1.99358e-08
1.43793e-06
-7.91547e-08
-2.02617e-08
1.43918e-06
-7.87822e-08
-2.05608e-08
1.44027e-06
-7.84591e-08
-2.0841e-08
1.44121e-06
-7.81782e-08
-2.11022e-08
1.44204e-06
-7.79546e-08
-2.13507e-08
1.44277e-06
-7.77846e-08
-2.15781e-08
1.44343e-06
-7.76608e-08
-2.17713e-08
1.44402e-06
-7.75316e-08
-2.19821e-08
-7.73792e-08
-2.2221e-08
1.30698e-06
-6.85619e-08
-4.08633e-08
1.30745e-06
-6.78994e-08
-4.14066e-08
1.30793e-06
-6.73777e-08
-4.18709e-08
1.30839e-06
-6.69566e-08
-4.22709e-08
1.30885e-06
-6.65852e-08
-4.26458e-08
1.30927e-06
-6.62578e-08
-4.29964e-08
1.30966e-06
-6.59941e-08
-4.32855e-08
1.31001e-06
-6.57901e-08
-4.35145e-08
1.31034e-06
-6.56418e-08
-4.36986e-08
1.31065e-06
-6.54859e-08
-4.39165e-08
-6.52978e-08
-4.41831e-08
1.10837e-06
-5.12423e-08
-5.91504e-08
1.10755e-06
-5.06041e-08
-5.99418e-08
1.10699e-06
-5.00693e-08
-6.06244e-08
1.10661e-06
-4.96321e-08
-6.11684e-08
1.10634e-06
-4.92666e-08
-6.16162e-08
1.10615e-06
-4.89257e-08
-6.20202e-08
1.10601e-06
-4.86262e-08
-6.23825e-08
1.10591e-06
-4.83759e-08
-6.26852e-08
1.10584e-06
-4.81822e-08
-6.29305e-08
1.10578e-06
-4.8037e-08
-6.31191e-08
1.10577e-06
-4.79011e-08
-6.33135e-08
-4.77397e-08
-6.35407e-08
8.36171e-07
-2.77602e-08
-7.57047e-08
8.34318e-07
-2.74014e-08
-7.63713e-08
8.32805e-07
-2.70945e-08
-7.69175e-08
8.31567e-07
-2.6829e-08
-7.73762e-08
8.30548e-07
-2.6595e-08
-7.77637e-08
8.29705e-07
-2.63734e-08
-7.80975e-08
8.28999e-07
-2.61733e-08
-7.8379e-08
8.28399e-07
-2.59989e-08
-7.86192e-08
8.27877e-07
-2.58583e-08
-7.88132e-08
8.2741e-07
-2.57446e-08
-7.8969e-08
8.26991e-07
-2.56406e-08
-7.91e-08
-2.55363e-08
-7.92422e-08
4.54291e-07
-8.92487e-08
4.5182e-07
-8.94408e-08
4.49688e-07
-8.95855e-08
4.47845e-07
-8.97116e-08
4.46255e-07
-8.98289e-08
4.44894e-07
-8.99313e-08
4.43736e-07
-9.00207e-08
4.42752e-07
-9.00977e-08
4.4191e-07
-9.01663e-08
4.41186e-07
-9.02277e-08
4.40565e-07
-9.02811e-08
-9.03206e-08
1.68443e-06
-5.96769e-08
1.68738e-06
-5.94814e-08
1.68999e-06
-5.93115e-08
1.69231e-06
-5.91638e-08
1.69437e-06
-5.90336e-08
1.69619e-06
-5.89195e-08
1.69779e-06
-5.88234e-08
1.6992e-06
-5.87482e-08
1.70045e-06
-5.86884e-08
1.70153e-06
-5.86246e-08
-5.8555e-08
1.64063e-06
-5.72691e-08
-2.4796e-08
1.64313e-06
-5.67999e-08
-2.51196e-08
1.64536e-06
-5.63966e-08
-2.54096e-08
1.64736e-06
-5.60492e-08
-2.56711e-08
1.64913e-06
-5.57393e-08
-2.59103e-08
1.65071e-06
-5.54664e-08
-2.61288e-08
1.6521e-06
-5.52435e-08
-2.63257e-08
1.65334e-06
-5.50686e-08
-2.64981e-08
1.65446e-06
-5.49257e-08
-2.66494e-08
1.65543e-06
-5.47694e-08
-2.68119e-08
-5.45971e-08
-2.69861e-08
1.51801e-06
-4.9482e-08
-5.04189e-08
1.5196e-06
-4.89257e-08
-5.08725e-08
1.52105e-06
-4.84558e-08
-5.12638e-08
1.52239e-06
-4.80547e-08
-5.16031e-08
1.5236e-06
-4.76903e-08
-5.19107e-08
1.52469e-06
-4.73645e-08
-5.21866e-08
1.52567e-06
-4.7095e-08
-5.24153e-08
1.52656e-06
-4.68761e-08
-5.25962e-08
1.52738e-06
-4.66998e-08
-5.27455e-08
1.52812e-06
-4.65111e-08
-5.29131e-08
-4.62959e-08
-5.31022e-08
1.32136e-06
-3.74467e-08
-7.25208e-08
1.32204e-06
-3.69356e-08
-7.31694e-08
1.3227e-06
-3.64796e-08
-7.37276e-08
1.32334e-06
-3.6075e-08
-7.41898e-08
1.32395e-06
-3.5709e-08
-7.45727e-08
1.32453e-06
-3.53787e-08
-7.49109e-08
1.32507e-06
-3.50796e-08
-7.52062e-08
1.32555e-06
-3.48194e-08
-7.54485e-08
1.32599e-06
-3.46038e-08
-7.56441e-08
1.3264e-06
-3.44275e-08
-7.57971e-08
1.32678e-06
-3.42581e-08
-7.59487e-08
-3.40595e-08
-7.61166e-08
1.04895e-06
-2.07933e-08
-9.17432e-08
1.04846e-06
-2.04697e-08
-9.23478e-08
1.04808e-06
-2.01686e-08
-9.28404e-08
1.04775e-06
-1.98881e-08
-9.32428e-08
1.04748e-06
-1.96198e-08
-9.35778e-08
1.04722e-06
-1.93721e-08
-9.38466e-08
1.04698e-06
-1.91456e-08
-9.40686e-08
1.04675e-06
-1.8947e-08
-9.42612e-08
1.04653e-06
-1.87788e-08
-9.4424e-08
1.04633e-06
-1.86379e-08
-9.45579e-08
1.04616e-06
-1.85139e-08
-9.46702e-08
-1.83915e-08
-9.47851e-08
6.49159e-07
-1.07014e-07
6.46478e-07
-1.0723e-07
6.44109e-07
-1.07385e-07
6.42021e-07
-1.07511e-07
6.40188e-07
-1.07616e-07
6.38586e-07
-1.07702e-07
6.37189e-07
-1.07769e-07
6.35968e-07
-1.07825e-07
6.34902e-07
-1.07878e-07
6.33964e-07
-1.07928e-07
6.33137e-07
-1.07969e-07
-1.07998e-07
1.76575e-06
-3.07084e-08
-2.89216e-08
1.76898e-06
-3.03824e-08
-2.9046e-08
1.77186e-06
-3.00897e-08
-2.9158e-08
1.77443e-06
-2.98261e-08
-2.92588e-08
1.77671e-06
-2.95872e-08
-2.93502e-08
1.77873e-06
-2.93718e-08
-2.94332e-08
1.78051e-06
-2.91787e-08
-2.95073e-08
1.78209e-06
-2.90072e-08
-2.95719e-08
1.78348e-06
-2.88542e-08
-2.96292e-08
1.78468e-06
-2.86936e-08
-2.96897e-08
-2.85265e-08
-2.97535e-08
1.64439e-06
-2.69896e-08
-5.70309e-08
1.64697e-06
-2.66312e-08
-5.71973e-08
1.64926e-06
-2.63041e-08
-5.73408e-08
1.6513e-06
-2.60047e-08
-5.74654e-08
1.65311e-06
-2.57297e-08
-5.75761e-08
1.6547e-06
-2.54821e-08
-5.7674e-08
1.65612e-06
-2.52501e-08
-5.77581e-08
1.65737e-06
-2.50328e-08
-5.78261e-08
1.6585e-06
-2.48438e-08
-5.7882e-08
1.65948e-06
-2.46479e-08
-5.79426e-08
-2.44359e-08
-5.80098e-08
1.44586e-06
-2.0711e-08
-8.15505e-08
1.44794e-06
-2.04525e-08
-8.17919e-08
1.44978e-06
-2.01936e-08
-8.19983e-08
1.45138e-06
-1.99321e-08
-8.217e-08
1.45279e-06
-1.96734e-08
-8.23125e-08
1.45402e-06
-1.94289e-08
-8.24345e-08
1.45507e-06
-1.92033e-08
-8.25384e-08
1.45599e-06
-1.89892e-08
-8.26272e-08
1.4568e-06
-1.87861e-08
-8.27016e-08
1.45753e-06
-1.86098e-08
-8.27608e-08
1.45818e-06
-1.84312e-08
-8.28177e-08
-1.82235e-08
-8.28775e-08
1.17193e-06
-1.18559e-08
-1.0186e-07
1.17295e-06
-1.17291e-08
-1.02093e-07
1.17376e-06
-1.15636e-08
-1.0228e-07
1.17439e-06
-1.13719e-08
-1.02431e-07
1.17486e-06
-1.1168e-08
-1.02552e-07
1.1752e-06
-1.09647e-08
-1.02649e-07
1.17543e-06
-1.07719e-08
-1.02729e-07
1.17556e-06
-1.05914e-08
-1.02794e-07
1.17563e-06
-1.04226e-08
-1.02852e-07
1.17564e-06
-1.02778e-08
-1.02903e-07
1.17564e-06
-1.01497e-08
-1.02948e-07
-1.00237e-08
-1.02992e-07
7.6811e-07
-1.16939e-07
7.66157e-07
-1.17006e-07
7.6426e-07
-1.17052e-07
7.62461e-07
-1.17085e-07
7.60789e-07
-1.17112e-07
7.59256e-07
-1.17133e-07
7.57865e-07
-1.17149e-07
7.56613e-07
-1.17165e-07
7.55493e-07
-1.17181e-07
7.54487e-07
-1.17199e-07
7.53586e-07
-1.17218e-07
-1.17233e-07
1.80732e-06
-2.67036e-09
-3.12191e-08
1.81083e-06
-2.41779e-09
-3.10753e-08
1.81397e-06
-2.18412e-09
-3.0946e-08
1.81676e-06
-1.96712e-09
-3.08303e-08
1.81923e-06
-1.76589e-09
-3.07265e-08
1.82142e-06
-1.58037e-09
-3.0634e-08
1.82336e-06
-1.4088e-09
-3.05527e-08
1.82506e-06
-1.24807e-09
-3.0483e-08
1.82655e-06
-1.09635e-09
-3.04229e-08
1.82782e-06
-9.33658e-10
-3.03629e-08
-7.65183e-10
-3.0303e-08
1.68445e-06
-3.33211e-09
-5.96769e-08
1.68739e-06
-3.07444e-09
-5.9477e-08
1.68999e-06
-2.82415e-09
-5.93016e-08
1.69229e-06
-2.58248e-09
-5.91491e-08
1.69431e-06
-2.35275e-09
-5.9015e-08
1.6961e-06
-2.13914e-09
-5.88979e-08
1.69767e-06
-1.93732e-09
-5.87996e-08
1.69905e-06
-1.73243e-09
-5.87234e-08
1.70027e-06
-1.53432e-09
-5.86654e-08
1.70133e-06
-1.32847e-09
-5.8606e-08
-1.10939e-09
-5.8543e-08
1.48155e-06
-3.29051e-09
-8.47807e-08
1.48411e-06
-3.16647e-09
-8.45185e-08
1.48634e-06
-3.0114e-09
-8.42894e-08
1.48827e-06
-2.82852e-09
-8.40931e-08
1.48993e-06
-2.62756e-09
-8.39283e-08
1.49135e-06
-2.42197e-09
-8.37884e-08
1.49257e-06
-2.2227e-09
-8.36705e-08
1.49361e-06
-2.03246e-09
-8.35729e-08
1.49451e-06
-1.84231e-09
-8.34958e-08
1.49532e-06
-1.66065e-09
-8.34413e-08
1.49603e-06
-1.47087e-09
-8.3388e-08
-1.2506e-09
-8.33291e-08
1.2027e-06
-2.53571e-09
-1.0445e-07
1.20416e-06
-2.50685e-09
-1.04212e-07
1.20529e-06
-2.40846e-09
-1.04017e-07
1.20615e-06
-2.26535e-09
-1.03855e-07
1.20679e-06
-2.09646e-09
-1.03718e-07
1.20724e-06
-1.91664e-09
-1.03609e-07
1.20755e-06
-1.73799e-09
-1.03522e-07
1.20774e-06
-1.56488e-09
-1.03454e-07
1.20785e-06
-1.39882e-09
-1.03398e-07
1.20788e-06
-1.24976e-09
-1.03352e-07
1.20789e-06
-1.1143e-09
-1.03312e-07
-9.80214e-10
-1.0327e-07
7.94246e-07
-1.17865e-07
7.92476e-07
-1.17743e-07
7.90665e-07
-1.17649e-07
7.88889e-07
-1.17574e-07
7.87194e-07
-1.17513e-07
7.85609e-07
-1.17464e-07
7.84149e-07
-1.17428e-07
7.8282e-07
-1.174e-07
7.81617e-07
-1.17377e-07
7.80528e-07
-1.17361e-07
7.79551e-07
-1.17354e-07
-1.17359e-07
1.76576e-06
2.48024e-08
-3.07064e-08
1.76899e-06
2.51137e-08
-3.03671e-08
1.77187e-06
2.53962e-08
-3.0065e-08
1.77444e-06
2.56539e-08
-2.97953e-08
1.77672e-06
2.58913e-08
-2.95524e-08
1.77874e-06
2.6109e-08
-2.9334e-08
1.78053e-06
2.63063e-08
-2.91387e-08
1.7821e-06
2.64811e-08
-2.89681e-08
1.7835e-06
2.66364e-08
-2.88203e-08
1.78469e-06
2.68036e-08
-2.86675e-08
2.69829e-08
-2.85095e-08
1.64065e-06
1.95804e-08
-5.72709e-08
1.64315e-06
1.99264e-08
-5.67927e-08
1.64538e-06
2.02486e-08
-5.63817e-08
1.64736e-06
2.0548e-08
-5.60289e-08
1.64913e-06
2.08294e-08
-5.57159e-08
1.65069e-06
2.10911e-08
-5.54407e-08
1.65207e-06
2.13393e-08
-5.52154e-08
1.6533e-06
2.15684e-08
-5.50401e-08
1.6544e-06
2.17649e-08
-5.49003e-08
1.65537e-06
2.19782e-08
-5.47486e-08
2.22195e-08
-5.45811e-08
1.43308e-06
1.31589e-08
-8.08102e-08
1.43491e-06
1.3397e-08
-8.01671e-08
1.43651e-06
1.36467e-08
-7.96124e-08
1.43791e-06
1.39067e-08
-7.91537e-08
1.43914e-06
1.41687e-08
-7.87786e-08
1.44022e-06
1.44236e-08
-7.84565e-08
1.44115e-06
1.46681e-08
-7.8177e-08
1.44196e-06
1.49059e-08
-7.79517e-08
1.44268e-06
1.5132e-08
-7.77787e-08
1.44333e-06
1.53249e-08
-7.76531e-08
1.44391e-06
1.55322e-08
-7.75243e-08
1.5781e-08
-7.7373e-08
1.14673e-06
6.14401e-09
-9.8147e-08
1.14725e-06
6.27943e-09
-9.76114e-08
1.1476e-06
6.45471e-09
-9.71781e-08
1.14783e-06
6.65505e-09
-9.68247e-08
1.14794e-06
6.86659e-09
-9.65295e-08
1.14797e-06
7.08179e-09
-9.63006e-08
1.14794e-06
7.29127e-09
-9.61131e-08
1.14785e-06
7.49192e-09
-9.59532e-08
1.14773e-06
7.68119e-09
-9.58228e-08
1.14759e-06
7.84189e-09
-9.57242e-08
1.14745e-06
7.99033e-09
-9.56378e-08
8.14398e-09
-9.55381e-08
7.30888e-07
-1.09083e-07
7.28323e-07
-1.08899e-07
7.25899e-07
-1.08769e-07
7.23646e-07
-1.08667e-07
7.21579e-07
-1.0858e-07
7.19702e-07
-1.08506e-07
7.18015e-07
-1.0845e-07
7.16513e-07
-1.08405e-07
7.15179e-07
-1.08363e-07
7.13989e-07
-1.08328e-07
7.12931e-07
-1.08306e-07
-1.08299e-07
1.64436e-06
5.04201e-08
-2.69817e-08
1.64694e-06
5.08703e-08
-2.66111e-08
1.64924e-06
5.12597e-08
-2.62805e-08
1.65129e-06
5.15978e-08
-2.59809e-08
1.65312e-06
5.1904e-08
-2.57066e-08
1.65474e-06
5.21796e-08
-2.54579e-08
1.65618e-06
5.24101e-08
-2.52217e-08
1.65745e-06
5.25937e-08
-2.50035e-08
1.6586e-06
5.27445e-08
-2.48191e-08
1.6596e-06
5.29138e-08
-2.46283e-08
5.31058e-08
-2.44206e-08
1.51798e-06
4.08611e-08
-4.94797e-08
1.51957e-06
4.14032e-08
-4.89171e-08
1.52102e-06
4.18702e-08
-4.84439e-08
1.52236e-06
4.22722e-08
-4.80405e-08
1.52358e-06
4.26449e-08
-4.76759e-08
1.52467e-06
4.29947e-08
-4.73504e-08
1.52566e-06
4.32881e-08
-4.70808e-08
1.52655e-06
4.35219e-08
-4.68623e-08
1.52738e-06
4.37076e-08
-4.669e-08
1.52813e-06
4.39238e-08
-4.65035e-08
4.41878e-08
-4.62855e-08
1.30648e-06
2.83341e-08
-6.93316e-08
1.30694e-06
2.87969e-08
-6.85624e-08
1.3074e-06
2.9229e-08
-6.79016e-08
1.30787e-06
2.96255e-08
-6.73791e-08
1.30833e-06
2.99929e-08
-6.69557e-08
1.30878e-06
3.03308e-08
-6.65901e-08
1.3092e-06
3.06589e-08
-6.62647e-08
1.30959e-06
3.09496e-08
-6.59996e-08
1.30994e-06
3.11864e-08
-6.57932e-08
1.31026e-06
3.13741e-08
-6.56429e-08
1.31057e-06
3.15767e-08
-6.54866e-08
3.1836e-08
-6.52978e-08
1.01201e-06
1.43701e-08
-8.30572e-08
1.01104e-06
1.46503e-08
-8.24957e-08
1.01021e-06
1.49208e-08
-8.20341e-08
1.00949e-06
1.51853e-08
-8.16627e-08
1.00885e-06
1.54478e-08
-8.13507e-08
1.00828e-06
1.5701e-08
-8.10998e-08
1.00776e-06
1.59462e-08
-8.0879e-08
1.00729e-06
1.61672e-08
-8.07012e-08
1.00687e-06
1.6352e-08
-8.05677e-08
1.00649e-06
1.65033e-08
-8.04752e-08
1.00617e-06
1.66485e-08
-8.03852e-08
1.68122e-08
-8.02652e-08
5.92864e-07
-9.1164e-08
5.89687e-07
-9.10719e-08
5.86856e-07
-9.10178e-08
5.84342e-07
-9.09668e-08
5.82122e-07
-9.09129e-08
5.80177e-07
-9.08595e-08
5.78485e-07
-9.08109e-08
5.77014e-07
-9.07675e-08
5.75735e-07
-9.0732e-08
5.74612e-07
-9.07015e-08
5.73628e-07
-9.06737e-08
-9.06484e-08
1.44789e-06
7.31699e-08
-2.04364e-08
1.44973e-06
7.37276e-08
-2.01758e-08
1.45135e-06
7.41895e-08
-1.99207e-08
1.45278e-06
7.45734e-08
-1.96695e-08
1.45402e-06
7.49117e-08
-1.9431e-08
1.4551e-06
7.52072e-08
-1.92067e-08
1.45605e-06
7.54514e-08
-1.89887e-08
1.45688e-06
7.56477e-08
-1.87821e-08
1.45763e-06
7.57976e-08
-1.86045e-08
1.45831e-06
7.59482e-08
-1.84256e-08
7.61199e-08
-1.82118e-08
1.322e-06
5.99391e-08
-3.6927e-08
1.32266e-06
6.06245e-08
-3.64707e-08
1.3233e-06
6.11729e-08
-3.60698e-08
1.32391e-06
6.16273e-08
-3.57074e-08
1.3245e-06
6.20301e-08
-3.53822e-08
1.32505e-06
6.23935e-08
-3.50835e-08
1.32554e-06
6.26973e-08
-3.4821e-08
1.32599e-06
6.29425e-08
-3.46031e-08
1.32639e-06
6.31281e-08
-3.44285e-08
1.32678e-06
6.33191e-08
-3.42595e-08
6.35454e-08
-3.40559e-08
1.10834e-06
4.21841e-08
-5.12432e-08
1.10752e-06
4.28038e-08
-5.06101e-08
1.10696e-06
4.33598e-08
-5.00684e-08
1.10657e-06
4.38137e-08
-4.96336e-08
1.10629e-06
4.42074e-08
-4.92613e-08
1.1061e-06
4.45659e-08
-4.8936e-08
1.10596e-06
4.49047e-08
-4.86345e-08
1.10586e-06
4.51886e-08
-4.83841e-08
1.10578e-06
4.54166e-08
-4.8188e-08
1.10572e-06
4.55856e-08
-4.80427e-08
1.1057e-06
4.57589e-08
-4.79063e-08
4.59701e-08
-4.77428e-08
8.09218e-07
2.22043e-08
-6.05812e-08
8.07143e-07
2.25247e-08
-6.01414e-08
8.05415e-07
2.28243e-08
-5.97701e-08
8.03968e-07
2.3085e-08
-5.94873e-08
8.02755e-07
2.33244e-08
-5.92548e-08
8.01729e-07
2.35463e-08
-5.90538e-08
8.00862e-07
2.3763e-08
-5.88704e-08
8.00119e-07
2.39506e-08
-5.87201e-08
7.99471e-07
2.41032e-08
-5.86059e-08
7.98884e-07
2.42221e-08
-5.85253e-08
7.9836e-07
2.43455e-08
-5.84475e-08
2.44858e-08
-5.83428e-08
4.09522e-07
-6.5862e-08
4.06813e-07
-6.58376e-08
4.04441e-07
-6.5822e-08
4.02366e-07
-6.58062e-08
4.00561e-07
-6.57835e-08
3.99005e-07
-6.57573e-08
3.97681e-07
-6.57241e-08
3.96558e-07
-6.56939e-08
3.95599e-07
-6.56692e-08
3.94767e-07
-6.56476e-08
3.94052e-07
-6.56135e-08
-6.55753e-08
1.17291e-06
9.23525e-08
-1.17337e-08
1.17374e-06
9.28465e-08
-1.15735e-08
1.17438e-06
9.32465e-08
-1.13866e-08
1.17486e-06
9.35815e-08
-1.11867e-08
1.1752e-06
9.38475e-08
-1.09844e-08
1.17543e-06
9.40705e-08
-1.079e-08
1.17556e-06
9.42656e-08
-1.06051e-08
1.17562e-06
9.44303e-08
-1.04323e-08
1.17563e-06
9.45645e-08
-1.02848e-08
1.17563e-06
9.4676e-08
-1.01549e-08
9.47919e-08
-1.0023e-08
1.04843e-06
7.63767e-08
-2.04679e-08
1.04805e-06
7.69334e-08
-2.01711e-08
1.04773e-06
7.73904e-08
-1.98949e-08
1.04745e-06
7.77857e-08
-1.96316e-08
1.04719e-06
7.81104e-08
-1.93845e-08
1.04693e-06
7.83966e-08
-1.91576e-08
1.0467e-06
7.86377e-08
-1.89565e-08
1.04648e-06
7.88322e-08
-1.87857e-08
1.04627e-06
7.89846e-08
-1.86437e-08
1.0461e-06
7.91111e-08
-1.85182e-08
7.92505e-08
-1.83905e-08
8.36162e-07
5.45052e-08
-2.77594e-08
8.34298e-07
5.50278e-08
-2.73976e-08
8.32779e-07
5.54733e-08
-2.7089e-08
8.31535e-07
5.58318e-08
-2.68306e-08
8.30515e-07
5.61401e-08
-2.65958e-08
8.29664e-07
5.64093e-08
-2.63841e-08
8.28954e-07
5.66549e-08
-2.61826e-08
8.28353e-07
5.68635e-08
-2.60082e-08
8.27831e-07
5.70309e-08
-2.58653e-08
8.27362e-07
5.71615e-08
-2.57499e-08
8.26937e-07
5.72714e-08
-2.56422e-08
5.73969e-08
-2.55327e-08
5.44768e-07
2.91602e-08
-3.22991e-08
5.42307e-07
2.9408e-08
-3.206e-08
5.40233e-07
2.96267e-08
-3.18497e-08
5.38463e-07
2.98051e-08
-3.16908e-08
5.36948e-07
2.99587e-08
-3.15579e-08
5.35657e-07
3.00898e-08
-3.14437e-08
5.34567e-07
3.02123e-08
-3.13378e-08
5.33644e-07
3.0316e-08
-3.12496e-08
5.32854e-07
3.03969e-08
-3.11812e-08
5.3216e-07
3.0459e-08
-3.11293e-08
5.31545e-07
3.05184e-08
-3.1079e-08
3.05947e-08
-3.10157e-08
2.20086e-07
-3.47545e-08
2.18409e-07
-3.47517e-08
2.16966e-07
-3.47529e-08
2.15717e-07
-3.47515e-08
2.14639e-07
-3.47465e-08
2.13713e-07
-3.47415e-08
2.12934e-07
-3.4733e-08
2.12281e-07
-3.47253e-08
2.11729e-07
-3.47202e-08
2.11257e-07
-3.47164e-08
2.1087e-07
-3.4708e-08
-3.46922e-08
7.66233e-07
1.07221e-07
7.64303e-07
1.07383e-07
7.62469e-07
1.07509e-07
7.6076e-07
1.07612e-07
7.59191e-07
1.07697e-07
7.57765e-07
1.07766e-07
7.56484e-07
1.07823e-07
7.55337e-07
1.07877e-07
7.54306e-07
1.07928e-07
7.53384e-07
1.0797e-07
1.08e-07
6.46516e-07
8.94514e-08
6.44127e-07
8.96014e-08
6.42017e-07
8.97247e-08
6.40162e-07
8.98354e-08
6.38536e-07
8.99385e-08
6.37117e-07
9.00268e-08
6.35879e-07
9.0104e-08
6.34798e-07
9.01731e-08
6.33848e-07
9.02346e-08
6.33011e-07
9.02886e-08
9.03298e-08
4.54309e-07
6.43648e-08
4.51841e-07
6.45218e-08
4.4971e-07
6.46435e-08
4.47861e-07
6.47436e-08
4.46261e-07
6.48387e-08
4.44888e-07
6.49278e-08
4.43719e-07
6.50135e-08
4.42724e-07
6.50904e-08
4.41875e-07
6.51569e-08
4.41145e-07
6.52147e-08
4.40521e-07
6.52706e-08
6.53176e-08
2.35469e-07
3.40192e-08
2.33804e-07
3.41263e-08
2.32383e-07
3.42148e-08
2.31155e-07
3.42811e-08
2.30097e-07
3.43386e-08
2.2919e-07
3.43912e-08
2.28427e-07
3.44391e-08
2.27788e-07
3.44803e-08
2.27248e-07
3.45148e-08
2.26791e-07
3.45433e-08
2.26414e-07
3.45687e-08
3.45931e-08
7.45684e-08
7.3943e-08
7.34049e-08
7.29345e-08
7.25266e-08
7.21763e-08
7.18824e-08
7.16374e-08
7.1432e-08
7.1259e-08
7.11197e-08
)
;

boundaryField
{
    inlet
    {
        type            calculated;
        value           nonuniform List<scalar> 0();
    }
    ami1
    {
        type            cyclicAMI;
        value           nonuniform List<scalar> 0();
    }
    walls
    {
        type            calculated;
        value           nonuniform List<scalar> 
259
(
-1.84387e-14
-2.43942e-14
-2.90979e-14
5.63517e-22
-6.40674e-15
-1.28555e-14
-1.84387e-14
-2.43942e-14
-2.90979e-14
5.64809e-22
-6.40674e-15
-1.28555e-14
-1.84387e-14
-2.43942e-14
-2.90979e-14
5.64809e-22
-6.40674e-15
-1.28555e-14
-1.84387e-14
-2.43942e-14
-2.90979e-14
6.83975e-22
-6.40674e-15
-1.28555e-14
-1.84387e-14
-2.43942e-14
-2.90979e-14
5.64809e-22
-6.40674e-15
-1.28555e-14
-1.84387e-14
-2.43942e-14
-2.90979e-14
5.66619e-22
-6.40674e-15
-1.28555e-14
-1.84387e-14
-2.43942e-14
-2.90979e-14
5.66619e-22
-6.40674e-15
-1.28555e-14
-1.84387e-14
-2.43942e-14
-2.90979e-14
5.66619e-22
-6.40674e-15
-1.28555e-14
-1.84387e-14
-2.43942e-14
-2.90979e-14
5.65326e-22
-6.40674e-15
-1.28555e-14
-1.84387e-14
-2.43942e-14
-2.90979e-14
5.65326e-22
-6.40674e-15
-1.28555e-14
-1.84387e-14
-2.43942e-14
-2.90979e-14
1.92061e-22
-6.40674e-15
-1.28555e-14
-1.84387e-14
-2.43942e-14
-2.90979e-14
2.90979e-14
2.43942e-14
1.84387e-14
1.28555e-14
6.40674e-15
5.63517e-22
-6.40674e-15
-1.28555e-14
-1.84387e-14
-2.43942e-14
-2.90979e-14
2.90979e-14
2.43942e-14
1.84387e-14
1.28555e-14
6.40674e-15
5.63517e-22
-6.40674e-15
-1.28555e-14
-1.84387e-14
-2.43942e-14
-2.90979e-14
2.90979e-14
2.43942e-14
1.84387e-14
1.28555e-14
6.40674e-15
5.64809e-22
-6.40674e-15
-1.28555e-14
-1.84387e-14
-2.43942e-14
-2.90979e-14
2.90979e-14
2.43942e-14
1.84387e-14
1.28555e-14
6.40674e-15
5.64809e-22
-6.40674e-15
-1.28555e-14
-1.84387e-14
-2.43942e-14
-2.90979e-14
2.90979e-14
2.43942e-14
1.84387e-14
1.28555e-14
6.40674e-15
6.83975e-22
-6.40674e-15
-1.28555e-14
-1.84387e-14
-2.43942e-14
-2.90979e-14
2.90979e-14
2.43942e-14
1.84387e-14
1.28555e-14
6.40674e-15
5.64809e-22
-6.40674e-15
-1.28555e-14
-1.84387e-14
-2.43942e-14
-2.90979e-14
2.90979e-14
2.43942e-14
1.84387e-14
1.28555e-14
6.40674e-15
5.66619e-22
-6.40674e-15
-1.28555e-14
-1.84387e-14
-2.43942e-14
-2.90979e-14
2.90979e-14
2.43942e-14
1.84387e-14
1.28555e-14
6.40674e-15
5.66619e-22
-6.40674e-15
-1.28555e-14
-1.84387e-14
-2.43942e-14
-2.90979e-14
2.90979e-14
2.43942e-14
1.84387e-14
1.28555e-14
6.40674e-15
5.66619e-22
-6.40674e-15
-1.28555e-14
-1.84387e-14
-2.43942e-14
-2.90979e-14
2.90979e-14
2.43942e-14
1.84387e-14
1.28555e-14
6.40674e-15
5.65326e-22
-6.40674e-15
-1.28555e-14
-1.84387e-14
-2.43942e-14
-2.90979e-14
2.90979e-14
2.43942e-14
1.84387e-14
1.28555e-14
6.40674e-15
5.65326e-22
-6.40674e-15
-1.28555e-14
-1.84387e-14
-2.43942e-14
-2.90979e-14
2.90979e-14
2.43942e-14
1.84387e-14
1.28555e-14
6.40674e-15
1.92061e-22
-6.40674e-15
-1.28555e-14
-1.84387e-14
-2.43942e-14
-2.90979e-14
1.84387e-14
2.43942e-14
2.90979e-14
6.40674e-15
1.28555e-14
1.84387e-14
2.43942e-14
2.90979e-14
6.40674e-15
1.28555e-14
1.84387e-14
2.43942e-14
2.90979e-14
6.40674e-15
1.28555e-14
1.84387e-14
2.43942e-14
2.90979e-14
6.40674e-15
1.28555e-14
1.84387e-14
2.43942e-14
2.90979e-14
6.40674e-15
1.28555e-14
1.84387e-14
2.43942e-14
2.90979e-14
6.40674e-15
1.28555e-14
1.84387e-14
2.43942e-14
2.90979e-14
6.40674e-15
1.28555e-14
1.84387e-14
2.43942e-14
2.90979e-14
6.40674e-15
1.28555e-14
1.84387e-14
2.43942e-14
2.90979e-14
6.40674e-15
1.28555e-14
1.84387e-14
2.43942e-14
2.90979e-14
6.40674e-15
1.28555e-14
1.84387e-14
2.43942e-14
2.90979e-14
6.40674e-15
1.28555e-14
1.84387e-14
2.43942e-14
2.90979e-14
)
;
    }
    ami2
    {
        type            cyclicAMI;
        value           nonuniform List<scalar> 0();
    }
    outlet
    {
        type            calculated;
        value           nonuniform List<scalar> 0();
    }
    procBoundary9to0
    {
        type            processor;
        value           nonuniform List<scalar> 
40
(
-7.94286e-07
-7.30911e-07
-5.92815e-07
9.11646e-08
-4.12586e-07
-2.22009e-07
-7.52965e-08
-1.20267e-06
-1.14673e-06
-1.01203e-06
8.3062e-08
-8.11718e-07
-5.47691e-07
-2.37408e-07
-1.48153e-06
-1.43308e-06
-1.30652e-06
6.93378e-08
-1.10948e-06
-8.38453e-07
-4.57166e-07
-1.68112e-06
-1.63782e-06
-1.51624e-06
5.01172e-08
-1.32066e-06
-1.04957e-06
-6.52187e-07
-1.76214e-06
-1.6415e-06
2.73836e-08
-1.4435e-06
-1.17067e-06
-7.70041e-07
-1.80339e-06
-1.68114e-06
3.60215e-09
-1.47863e-06
-1.20086e-06
-7.95856e-07
)
;
    }
    procBoundary9to1
    {
        type            processor;
        value           nonuniform List<scalar> 
30
(
-1.76214e-06
-1.63783e-06
-1.92076e-08
-1.431e-06
-1.14602e-06
-7.33526e-07
-1.64147e-06
-1.51621e-06
-4.02544e-08
-1.30604e-06
-1.01314e-06
-5.96412e-07
-1.44581e-06
-1.32132e-06
-5.91507e-08
-1.10946e-06
-8.11715e-07
-4.1262e-07
-1.17188e-06
-1.04892e-06
-7.57e-08
-8.38451e-07
-5.47705e-07
-2.22034e-07
-7.68207e-07
-6.49214e-07
-8.92427e-08
-4.5719e-07
-2.37422e-07
-7.53037e-08
)
;
    }
    procBoundary9to7
    {
        type            processor;
        value           nonuniform List<scalar> 
59
(
7.783e-07
7.11798e-07
5.72659e-07
3.93406e-07
2.10562e-07
7.10173e-08
1.20796e-06
1.14739e-06
1.00595e-06
7.97933e-07
5.31015e-07
2.2612e-07
1.49687e-06
1.44451e-06
1.31092e-06
1.10579e-06
8.26642e-07
4.40044e-07
1.70242e-06
1.65624e-06
1.52874e-06
1.32712e-06
1.04603e-06
6.32424e-07
1.78566e-06
1.6603e-06
1.45873e-06
1.17564e-06
7.52797e-07
1.82887e-06
1.7022e-06
1.49662e-06
1.2079e-06
7.78696e-07
1.78567e-06
1.65617e-06
1.44439e-06
1.14736e-06
7.12015e-07
1.66042e-06
1.52875e-06
1.31085e-06
1.00592e-06
5.7279e-07
1.45886e-06
1.32712e-06
1.10572e-06
7.97922e-07
3.93465e-07
1.17564e-06
1.04597e-06
8.26581e-07
5.3102e-07
2.10582e-07
7.5258e-07
6.32291e-07
4.4e-07
2.26122e-07
7.10206e-08
)
;
    }
    procBoundary9to8
    {
        type            processor;
        value           nonuniform List<scalar> 
132
(
1.17007e-07
1.17054e-07
1.17083e-07
1.17104e-07
1.1712e-07
1.17134e-07
1.17149e-07
1.17166e-07
1.17186e-07
1.17207e-07
1.17227e-07
1.02097e-07
1.02283e-07
1.02432e-07
1.02552e-07
1.02649e-07
1.02727e-07
1.02792e-07
1.02851e-07
1.02905e-07
1.02952e-07
1.02998e-07
8.17901e-08
8.19958e-08
8.21689e-08
8.23148e-08
8.24407e-08
8.25475e-08
8.26388e-08
8.27137e-08
8.27716e-08
8.28267e-08
8.28831e-08
5.70269e-08
5.71934e-08
5.7339e-08
5.74668e-08
5.75806e-08
5.7681e-08
5.77667e-08
5.78351e-08
5.78902e-08
5.79485e-08
5.80114e-08
2.67212e-09
2.40399e-09
2.15891e-09
1.93415e-09
1.72739e-09
1.53762e-09
1.363e-09
1.20211e-09
1.05503e-09
9.01851e-10
7.45761e-10
3.12208e-08
3.1082e-08
3.09575e-08
3.08459e-08
3.07452e-08
3.06549e-08
3.05747e-08
3.05043e-08
3.04414e-08
3.03763e-08
3.03102e-08
1.04148e-09
9.34797e-10
8.37244e-10
7.47692e-10
6.65375e-10
5.89891e-10
5.20753e-10
4.57368e-10
3.98078e-10
3.35479e-10
2.72188e-10
-2.89305e-08
-2.9051e-08
-2.91593e-08
-2.92576e-08
-2.93477e-08
-2.94305e-08
-2.95056e-08
-2.95721e-08
-2.96315e-08