/*--------------------------------*- C++ -*----------------------------------*\
| =========                 |                                                 |
| \\      /  F ield         | OpenFOAM: The Open Source CFD Toolbox           |
|  \\    /   O peration     | Version:  2212                                  |
|   \\  /    A nd           | Website:  www.openfoam.com                      |
|    \\/     M anipulation  |                                                 |
\*---------------------------------------------------------------------------*/
FoamFile
{
    version     2.0;
    format      ascii;
    arch        "LSB;label=32;scalar=64";
    class       volScalarField;
    location    "2.8";
    object      epsilon;
}
// * * * * * * * * * * * * * * * * * * * * * * * * * * * * * * * * * * * * * //

dimensions      [0 2 -3 0 0 0 0];

internalField   nonuniform List<scalar> 
680
(
0.720656
0.594576
0.502485
0.432651
0.379244
0.336259
0.299778
0.740283
0.565899
0.443922
0.35602
0.29093
0.241416
0.203021
0.649789
0.497026
0.389505
0.311321
0.253019
0.209039
0.175301
0.645398
0.49261
0.384804
0.307057
0.249089
0.205038
0.171071
0.643996
0.492268
0.383988
0.30583
0.247964
0.203981
0.17003
0.643985
0.492253
0.383968
0.305801
0.247926
0.203928
0.169955
0.645371
0.492575
0.384759
0.306992
0.249002
0.204918
0.649764
0.496993
0.389449
0.31125
0.252924
0.208909
0.740276
0.56589
0.443903
0.35599
0.290882
0.241341
0.720657
0.594576
0.502487
0.432648
0.37925
0.336253
0.740276
0.565889
0.443902
0.355989
0.290882
0.24134
0.202868
0.562051
0.415369
0.31595
0.246335
0.196226
0.159223
0.131253
0.618635
0.453966
0.342043
0.263662
0.207326
0.165919
0.134866
0.666463
0.489553
0.368605
0.283616
0.222402
0.177344
0.143545
0.692724
0.509641
0.38402
0.295508
0.231653
0.184599
0.149269
0.692722
0.509636
0.384015
0.295501
0.231645
0.184588
0.149257
0.666458
0.489544
0.368593
0.283601
0.222383
0.177323
0.618631
0.453959
0.342034
0.26365
0.207311
0.165901
0.562051
0.415369
0.315949
0.246334
0.196225
0.159222
0.740283
0.565899
0.443922
0.356021
0.290931
0.241417
0.649764
0.496993
0.389449
0.311249
0.252923
0.208907
0.175115
0.618631
0.45396
0.342034
0.263651
0.207312
0.165902
0.134846
0.725635
0.532157
0.399151
0.305548
0.238224
0.188827
0.151916
0.804589
0.594206
0.44752
0.343214
0.267637
0.211904
0.170124
0.843156
0.625691
0.47285
0.363485
0.283854
0.224907
0.18059
0.843155
0.625689
0.472847
0.363481
0.28385
0.224902
0.180584
0.804587
0.594203
0.447515
0.343208
0.26763
0.211895
0.725635
0.532157
0.39915
0.305547
0.238223
0.188826
0.618635
0.453966
0.342043
0.263661
0.207325
0.165918
0.649789
0.497027
0.389505
0.311321
0.253019
0.20904
0.645371
0.492575
0.384759
0.306992
0.249002
0.204918
0.170903
0.666458
0.489544
0.368593
0.283602
0.222383
0.177322
0.14352
0.804587
0.594203
0.447516
0.343209
0.267631
0.211895
0.170115
0.896487
0.669456
0.508123
0.391656
0.306286
0.242785
0.194887
0.938712
0.705584
0.538336
0.416594
0.326729
0.2595
0.208558
0.938712
0.705583
0.538335
0.416593
0.326728
0.259498
0.208556
0.896487
0.669456
0.508122
0.391656
0.306286
0.242784
0.804589
0.594206
0.44752
0.343214
0.267637
0.211903
0.666463
0.489553
0.368605
0.283616
0.222401
0.177343
0.645398
0.49261
0.384804
0.307057
0.249088
0.205037
0.643985
0.492253
0.383968
0.305801
0.247926
0.203928
0.169955
0.692722
0.509636
0.384015
0.295501
0.231644
0.184588
0.149256
0.843155
0.625689
0.472847
0.363481
0.28385
0.224901
0.180584
0.938712
0.705583
0.538335
0.416593
0.326728
0.259498
0.208556
0.981305
0.742925
0.57021
0.443351
0.348968
0.277889
0.223736
0.981305
0.742925
0.57021
0.443351
0.348968
0.277889
0.223736
0.938712
0.705584
0.538336
0.416594
0.326729
0.259499
0.843156
0.625691
0.47285
0.363485
0.283854
0.224907
0.692724
0.509641
0.38402
0.295508
0.231653
0.184599
0.643996
0.492268
0.383988
0.30583
0.247964
0.20398
0.643996
0.492268
0.383988
0.30583
0.247965
0.203982
0.170031
0.692724
0.509641
0.38402
0.295508
0.231653
0.184598
0.149267
0.843156
0.625691
0.47285
0.363485
0.283854
0.224906
0.18059
0.938712
0.705584
0.538336
0.416594
0.326729
0.2595
0.208558
0.981305
0.742925
0.57021
0.443351
0.348968
0.277889
0.223736
0.981305
0.742925
0.57021
0.443351
0.348968
0.277889
0.223736
0.938712
0.705583
0.538335
0.416593
0.326728
0.259498
0.843155
0.625689
0.472847
0.363481
0.28385
0.224902
0.692722
0.509636
0.384015
0.295502
0.231645
0.184589
0.643985
0.492253
0.383968
0.305801
0.247926
0.203926
0.645398
0.49261
0.384804
0.307058
0.249089
0.205038
0.171072
0.666463
0.489553
0.368605
0.283616
0.222401
0.177344
0.143545
0.804589
0.594206
0.44752
0.343214
0.267637
0.211903
0.170124
0.896487
0.669456
0.508122
0.391656
0.306286
0.242785
0.194887
0.938712
0.705583
0.538335
0.416593
0.326728
0.259499
0.208556
1.26863
0.938712
0.705584
0.538336
0.416594
0.326729
0.2595
0.208558
1.22111
0.896487
0.669456
0.508122
0.391656
0.306286
0.242784
1.11236
0.804587
0.594203
0.447516
0.343209
0.267631
0.211896
0.933537
0.666457
0.489544
0.368593
0.283601
0.222383
0.177323
0.869467
0.645372
0.492576
0.384759
0.306993
0.249002
0.204918
0.649789
0.497027
0.389505
0.311321
0.253019
0.20904
0.175301
0.618635
0.453966
0.342043
0.263662
0.207326
0.165919
0.134866
0.725635
0.532157
0.399151
0.305548
0.238224
0.188827
0.151917
0.804587
0.594203
0.447516
0.343209
0.267631
0.211896
0.170115
0.843155
0.625689
0.472847
0.363482
0.28385
0.224902
0.180585
1.15828
0.843156
0.625691
0.47285
0.363485
0.283854
0.224907
0.18059
1.11236
0.804589
0.594206
0.44752
0.343214
0.267637
0.211903
1.0141
0.725635
0.532157
0.399151
0.305547
0.238224
0.188826
0.86929
0.618631
0.453959
0.342034
0.26365
0.207311
0.165902
0.873564
0.649764
0.496994
0.389449
0.31125
0.252924
0.208909
0.740283
0.565899
0.443922
0.35602
0.290931
0.241417
0.203022
0.562051
0.415369
0.31595
0.246335
0.196226
0.159224
0.131254
0.618631
0.45396
0.342034
0.263651
0.207312
0.165903
0.134847
0.666458
0.489545
0.368593
0.283602
0.222384
0.177323
0.143521
0.692722
0.509636
0.384015
0.295501
0.231644
0.184588
0.149255
0.967834
0.692725
0.509641
0.38402
0.295508
0.231653
0.184598
0.149267
0.933541
0.666464
0.489554
0.368605
0.283616
0.222401
0.177343
0.869293
0.618636
0.453966
0.342043
0.263662
0.207326
0.165919
0.786933
0.562051
0.41537
0.31595
0.246335
0.196226
0.159223
0.998646
0.740276
0.56589
0.443903
0.35599
0.290882
0.24134
0.720656
0.594576
0.502485
0.432651
0.379244
0.336259
0.299778
0.740276
0.56589
0.443902
0.355989
0.290882
0.24134
0.202867
0.649764
0.496993
0.389449
0.311249
0.252923
0.208907
0.175115
0.645371
0.492575
0.384759
0.306992
0.249002
0.204918
0.170903
0.643985
0.492253
0.383968
0.305801
0.247926
0.203928
0.169956
0.866511
0.643997
0.492268
0.383989
0.30583
0.247965
0.203982
0.170031
0.869488
0.645398
0.49261
0.384804
0.307058
0.249089
0.205038
0.873583
0.649789
0.497026
0.389505
0.311321
0.25302
0.209041
0.998651
0.740283
0.565899
0.443922
0.356021
0.290931
0.241417
0.902009
0.720657
0.594575
0.502487
0.432648
0.37925
0.336252
)
;

boundaryField
{
    inlet
    {
        type            fixedValue;
        value           nonuniform List<scalar> 0();
    }
    ami1
    {
        type            cyclicAMI;
        value           nonuniform List<scalar> 0();
    }
    walls
    {
        type            epsilonWallFunction;
        blending        stepwise;
        value           nonuniform List<scalar> 
271
(
0.869467
0.873564
0.998646
0.902009
0.720657
0.740283
0.649789
0.645398
0.643996
0.643985
0.645372
0.649764
0.740276
0.720657
0.594576
0.565899
0.497027
0.49261
0.492268
0.492253
0.492576
0.496994
0.56589
0.594575
0.502487
0.443922
0.389505
0.384804
0.383988
0.383968
0.384759
0.389449
0.443903
0.502487
0.432648
0.356021
0.311321
0.307057
0.30583
0.305801
0.306993
0.31125
0.35599
0.432648
0.37925
0.290931
0.253019
0.249088
0.247964
0.247926
0.249002
0.252924
0.290882
0.37925
0.336253
0.241417
0.20904
0.205037
0.20398
0.203926
0.204918
0.208909
0.24134
0.336252
0.720656
0.740283
0.649789
0.645398
0.643996
0.643985
0.645371
0.649764
0.740276
0.720657
0.594576
0.565899
0.497026
0.49261
0.492268
0.492253
0.492575
0.496993
0.56589
0.594576
0.502485
0.443922
0.389505
0.384804
0.383988
0.383968
0.384759
0.389449
0.443903
0.502487
0.432651
0.35602
0.311321
0.307057
0.30583
0.305801
0.306992
0.31125
0.35599
0.432648
0.379244
0.29093
0.253019
0.249089
0.247964
0.247926
0.249002
0.252924
0.290882
0.37925
0.336259
0.241416
0.209039
0.205038
0.203981
0.203928
0.204918
0.208909
0.241341
0.336253
0.299778
0.203021
0.175301
0.171071
0.17003
0.169955
0.720656
0.740276
0.649764
0.645371
0.643985
0.643996
0.645398
0.649789
0.740283
0.720656
0.594576
0.565889
0.496993
0.492575
0.492253
0.492268
0.49261
0.497027
0.565899
0.594576
0.502485
0.443902
0.389449
0.384759
0.383968
0.383988
0.384804
0.389505
0.443922
0.502485
0.432651
0.355989
0.311249
0.306992
0.305801
0.30583
0.307058
0.311321
0.35602
0.432651
0.379244
0.290882
0.252923
0.249002
0.247926
0.247965
0.249089
0.253019
0.290931
0.379244
0.336259
0.24134
0.208907
0.204918
0.203928
0.203982
0.205038
0.20904
0.241417
0.336259
0.299778
0.202868
0.175115
0.170903
0.169955
0.170031
0.171072
0.175301
0.203022
0.299778
0.866511
0.869488
0.873583
0.998651
0.902009
0.720656
0.740276
0.649764
0.645371
0.643985
0.643997
0.645398
0.649789
0.740283
0.720657
0.594576
0.56589
0.496993
0.492575
0.492253
0.492268
0.49261
0.497026
0.565899
0.594575
0.502485
0.443902
0.389449
0.384759
0.383968
0.383989
0.384804
0.389505
0.443922
0.502487
0.432651
0.355989
0.311249
0.306992
0.305801
0.30583
0.307058
0.311321
0.356021
0.432648
0.379244
0.290882
0.252923
0.249002
0.247926
0.247965
0.249089
0.25302
0.290931
0.37925
0.336259
0.24134
0.208907
0.204918
0.203928
0.203982
0.205038
0.209041
0.241417
0.336252
0.299778
0.202867
0.175115
0.170903
0.169956
0.170031
)
;
    }
    ami2
    {
        type            cyclicAMI;
        value           nonuniform List<scalar> 0();
    }
    outlet
    {
        type            zeroGradient;
    }
    procBoundary3to2
    {
        type            processor;
        value           nonuniform List<scalar> 
110
(
0.27005
0.173147
0.148953
0.144519
0.143448
0.143341
0.170901
0.170901
0.175115
0.202873
0.299787
0.172929
0.109773
0.111155
0.117754
0.122292
0.122284
0.143528
0.143528
0.13485
0.131251
0.203027
0.148677
0.111144
0.123874
0.138326
0.146789
0.146784
0.170116
0.170116
0.151915
0.13486
0.175302
0.144277
0.117741
0.138319
0.15828
0.169485
0.169484
0.194887
0.194887
0.170123
0.143539
0.171071
0.143341
0.122286
0.146785
0.169484
0.18202
0.18202
0.208558
0.208558
0.180589
0.149266
0.170028
0.143448
0.122293
0.14679
0.169485
0.18202
0.18202
0.208556
0.208556
0.180585
0.14926
0.169953
0.144519
0.117754
0.138326
0.15828
0.169484
0.169485
0.194887
0.194887
0.170116
0.143527
0.170902
0.148954
0.111154
0.123873
0.138318
0.146785
0.14679
0.170123
0.170123
0.151915
0.13485
0.175115
0.173148
0.109773
0.111144
0.117742
0.122286
0.122294
0.143539
0.143539
0.134859
0.131251
0.202874
0.270051
0.17293
0.148677
0.144277
0.14334
0.143448
0.171072
0.171072
0.175303
0.203028
0.299787
)
;
    }
    procBoundary3to4
    {
        type            processor;
        value           nonuniform List<scalar> 
109
(
0.902008
0.998649
0.873582
0.869488
0.866511
0.866502
0.869468
0.873565
0.998645
0.902008
0.998644
0.786933
0.869294
0.933543
0.967834
0.967831
0.933536
0.869289
0.786932
0.998649
0.873564
0.869289
1.0141
1.11236
1.15828
1.15828
1.11236
1.0141
0.869293
0.873582
0.869468
0.933536
1.11236
1.22111
1.26863
1.26863
1.22111
1.11236
0.933543
0.869488
0.866502
0.967831
1.15828
1.26863
1.31522
1.31522
1.26863
1.15828
0.967834
0.866511
0.866511
0.967834
1.15828
1.26863
1.31522
1.31522
1.31522
1.26863
1.26863
1.15828
1.15828
0.967831
0.967831
0.866502
0.866502
0.869488
0.933543
1.11236
1.22111
1.26863
1.26863
1.74299
1.6928
1.57142
1.3512
1.22749
0.873582
0.869294
1.0141
1.11236
1.15828
1.15828
1.62326
1.57142
1.45499
1.26609
1.22698
0.998649
0.786933
0.869289
0.933536
0.967831
0.967831
1.39506
1.35121
1.2661
1.14759
1.40266
0.902008
0.998644
0.873564
0.869468
0.866502
0.866502
1.2267
1.22751
1.227
1.40267
1.18306
)
;
    }
}


// ************************************************************************* //
