/*--------------------------------*- C++ -*----------------------------------*\
| =========                 |                                                 |
| \\      /  F ield         | OpenFOAM: The Open Source CFD Toolbox           |
|  \\    /   O peration     | Version:  2212                                  |
|   \\  /    A nd           | Website:  www.openfoam.com                      |
|    \\/     M anipulation  |                                                 |
\*---------------------------------------------------------------------------*/
FoamFile
{
    version     2.0;
    format      ascii;
    arch        "LSB;label=32;scalar=64";
    class       surfaceVectorField;
    location    "2.35";
    object      Uf;
}
// * * * * * * * * * * * * * * * * * * * * * * * * * * * * * * * * * * * * * //

dimensions      [0 1 -1 0 0 0 0];

internalField   nonuniform List<vector> 
1763
(
(0.0218184 -2.08025e-05 1.20704e-05)
(0.0279844 -8.59678e-05 -3.44885e-06)
(0.0216221 -1.96742e-05 8.6896e-06)
(0.0277336 -7.98364e-05 -7.53302e-06)
(0.0268905 -1.58411e-05 2.82245e-05)
(0.0214346 -1.98641e-05 4.73653e-06)
(0.0274955 -7.57433e-05 -1.15426e-05)
(0.0266674 -1.60669e-05 2.42307e-05)
(0.0212493 -1.93396e-05 -1.0367e-06)
(0.0272559 -7.31311e-05 -1.71514e-05)
(0.0264459 -1.79706e-05 1.93137e-05)
(0.0210638 -2.15382e-05 -8.88867e-06)
(0.0270594 -6.81554e-05 -2.28231e-05)
(0.0262677 -2.18351e-05 8.44932e-06)
(0.0266773 -6.63856e-05 -3.57679e-05)
(0.0259264 -2.98471e-05 1.44205e-06)
(0.0369167 -0.000155531 -3.69194e-05)
(0.0434836 -0.000209943 -0.000109698)
(0.0501433 -0.000199973 -6.99627e-06)
(0.036605 -0.000146911 -4.13561e-05)
(0.0431116 -0.000197372 -0.000109733)
(0.049783 -0.000190489 -1.29041e-05)
(0.0363001 -0.000141154 -4.6731e-05)
(0.0427468 -0.000191074 -0.000110434)
(0.0494284 -0.000184102 -1.83805e-05)
(0.0359952 -0.00013179 -5.23355e-05)
(0.0423852 -0.000186797 -0.000112202)
(0.049074 -0.000182241 -2.60569e-05)
(0.0357082 -0.000125209 -6.25572e-05)
(0.0420746 -0.000168667 -0.000112299)
(0.0487763 -0.000175398 -3.45242e-05)
(0.0415282 -0.000169089 -0.000117699)
(0.048256 -0.000187814 -5.28452e-05)
(0.0512323 -0.000274279 -0.000195965)
(0.0508009 -0.000261556 -0.000192195)
(0.0549308 -0.00034199 -0.000291021)
(0.0680726 -0.000411209 -0.000212614)
(0.0503761 -0.000254157 -0.000189374)
(0.0544628 -0.000327609 -0.000280105)
(0.0676896 -0.000405446 -0.000210383)
(0.049958 -0.000241051 -0.000184333)
(0.0540079 -0.000310331 -0.000266734)
(0.0673104 -0.000402604 -0.000208362)
(0.049553 -0.000227992 -0.00017834)
(0.0536119 -0.000283388 -0.000247746)
(0.0669801 -0.000386522 -0.000202951)
(0.052964 -0.000266338 -0.000229672)
(0.0664235 -0.000375505 -0.000198958)
(0.0591319 -0.000414198 -0.000394065)
(0.0615788 -0.000507604 -0.000508439)
(0.0775982 -0.000572782 -0.000442983)
(0.0586366 -0.000391971 -0.000369502)
(0.0610509 -0.000470295 -0.000471108)
(0.0772262 -0.000564438 -0.00042547)
(0.0581606 -0.000362012 -0.000339288)
(0.0605484 -0.000423895 -0.000427876)
(0.076858 -0.000552059 -0.000403673)
(0.0577077 -0.00032931 -0.00030679)
(0.0601162 -0.000374986 -0.000381601)
(0.0765383 -0.000530884 -0.000376775)
(0.059443 -0.000326854 -0.000335692)
(0.0760221 -0.000501604 -0.000345007)
(0.0636587 -0.000571868 -0.000590417)
(0.0822212 -0.000729199 -0.000615467)
(0.0631268 -0.000507213 -0.000534556)
(0.0638813 -0.000505937 -0.0005836)
(0.0818675 -0.000694696 -0.000581199)
(0.0626293 -0.000439494 -0.000475)
(0.0633665 -0.000444302 -0.000522619)
(0.0815246 -0.000651562 -0.000541872)
(0.0621665 -0.000374136 -0.000414236)
(0.0629349 -0.000377996 -0.000451184)
(0.0812311 -0.000606569 -0.000498114)
(0.0622746 -0.000313255 -0.000379196)
(0.0807697 -0.000544476 -0.000443058)
(0.0641398 -0.000445621 -0.000569059)
(0.0630729 -0.000372459 -0.00048161)
(0.0827929 -0.000631215 -0.000613264)
(0.0636533 -0.000383318 -0.000498021)
(0.062597 -0.000331338 -0.000439691)
(0.0824823 -0.000591808 -0.000575804)
(0.0632061 -0.000316647 -0.000416008)
(0.0621956 -0.000287216 -0.000384052)
(0.0822206 -0.000540213 -0.000523944)
(0.0615766 -0.000244754 -0.000319884)
(0.0818155 -0.000474016 -0.00045422)
(0.0615659 -0.000259867 -0.000355052)
(0.0586987 -0.000225023 -0.000305327)
(0.080379 -0.000427773 -0.000496914)
(0.0611386 -0.000239281 -0.000324903)
(0.0582749 -0.000211677 -0.000284325)
(0.080109 -0.000404329 -0.000482059)
(0.0607314 -0.00021956 -0.000285825)
(0.0579116 -0.000198468 -0.000254298)
(0.0798751 -0.000379829 -0.00045834)
(0.0573516 -0.000179135 -0.000221028)
(0.079509 -0.000337047 -0.000409485)
(0.0556216 -0.000187994 -0.000226927)
(0.050926 -0.000154254 -0.000175922)
(0.0745948 -0.000259855 -0.000429619)
(0.0552287 -0.000179806 -0.000208159)
(0.0505521 -0.000149441 -0.000165835)
(0.0743068 -0.000248795 -0.000420079)
(0.0548603 -0.000164606 -0.000186454)
(0.0502377 -0.000137174 -0.000147797)
(0.07406 -0.000232784 -0.000400044)
(0.049743 -0.000119527 -0.000145424)
(0.0736725 -0.000207376 -0.000372203)
(0.046453 -0.000110081 -0.000139833)
(0.0398351 -7.02148e-05 -9.67323e-05)
(0.0643936 -0.000116121 -0.00034575)
(0.046128 -0.000101289 -0.000129802)
(0.0395357 -6.54325e-05 -9.55621e-05)
(0.0640609 -0.000111582 -0.000337415)
(0.0458239 -8.84011e-05 -0.000126324)
(0.0392893 -5.34162e-05 -9.08374e-05)
(0.0637855 -0.0001 -0.00032856)
(0.0388701 -4.58983e-05 -9.92208e-05)
(0.0633268 -8.76789e-05 -0.000325023)
(0.0345077 -4.85878e-05 -3.55078e-05)
(0.0268823 -3.12417e-05 -1.45323e-05)
(0.0342493 -4.39171e-05 -3.55121e-05)
(0.0266704 -2.68708e-05 -1.4437e-05)
(0.0482789 -2.21246e-05 -0.000153932)
(0.034 -3.51407e-05 -4.00176e-05)
(0.0264505 -2.253e-05 -1.62379e-05)
(0.0479436 -1.7397e-05 -0.000150058)
(0.033767 -2.60539e-05 -5.07568e-05)
(0.0262737 -1.287e-05 -2.08521e-05)
(0.047673 -5.78581e-06 -0.000147285)
(0.0259282 -6.22316e-06 -2.9242e-05)
(0.0472061 1.79255e-06 -0.000161848)
(0.0216235 -1.15641e-05 -1.96217e-05)
(0.027732 3.00994e-06 -8.1226e-05)
(0.0214377 -7.79491e-06 -1.9428e-05)
(0.0275056 6.59991e-06 -7.60265e-05)
(0.0212562 -2.65878e-06 -1.8859e-05)
(0.0272673 1.17748e-05 -7.25836e-05)
(0.0210689 4.59159e-06 -2.13354e-05)
(0.0270711 1.65825e-05 -6.94522e-05)
(0.0266831 2.90823e-05 -6.78087e-05)
(0.0345145 -4.03488e-05 4.55369e-05)
(0.048608 -0.000157257 2.25509e-05)
(0.0342505 -4.1024e-05 4.07257e-05)
(0.0482742 -0.000151905 1.72427e-05)
(0.039839 -0.000106065 6.59685e-05)
(0.0339951 -4.32935e-05 3.0997e-05)
(0.0479451 -0.000150794 1.10892e-05)
(0.0395401 -0.000103385 6.13021e-05)
(0.033763 -5.18368e-05 2.11377e-05)
(0.047673 -0.000146474 -2.03219e-06)
(0.0392925 -9.39161e-05 4.85184e-05)
(0.0472095 -0.000161783 -9.7562e-06)
(0.0388758 -9.98166e-05 4.07263e-05)
(0.0663814 -0.000320631 -3.31523e-06)
(0.0659713 -0.000308268 -8.67179e-06)
(0.076329 -0.000480443 -0.000120229)
(0.0751555 -0.000478946 5.23956e-05)
(0.0655666 -0.000301475 -1.50496e-05)
(0.0759583 -0.000471921 -0.00012018)
(0.0747937 -0.000465368 4.52932e-05)
(0.0651713 -0.000295612 -2.33948e-05)
(0.0755878 -0.000465659 -0.000121975)
(0.0744328 -0.000454382 3.74618e-05)
(0.0647849 -0.000295137 -3.53288e-05)
(0.0752731 -0.000450254 -0.000125006)
(0.0741275 -0.000442624 2.82339e-05)
(0.0747482 -0.000430967 -0.000128872)
(0.0736183 -0.000426689 1.4402e-05)
(0.0879419 -0.000641995 -0.000264546)
(0.0929503 -0.000722153 -0.000388588)
(0.0967761 -0.000847059 -0.000206508)
(0.0876192 -0.000633389 -0.000259302)
(0.0926768 -0.000712206 -0.00037834)
(0.096602 -0.000838714 -0.000202868)
(0.087299 -0.000620098 -0.000253123)
(0.0923963 -0.000704622 -0.000366613)
(0.0964178 -0.000826484 -0.000198443)
(0.0869791 -0.000591168 -0.0002426)
(0.0921527 -0.000687686 -0.000350042)
(0.0962565 -0.000799772 -0.000193203)
(0.0917428 -0.000646813 -0.000323276)
(0.0959679 -0.000740652 -0.000178981)
(0.0981714 -0.000798781 -0.000514875)
(0.100409 -0.000860259 -0.000587531)
(0.106561 -0.000970525 -0.000487781)
(0.0979468 -0.000793311 -0.000495308)
(0.100232 -0.00085095 -0.000566435)
(0.106509 -0.000962204 -0.000471544)
(0.0977205 -0.00078275 -0.000472029)
(0.100041 -0.000838288 -0.000543157)
(0.106445 -0.000948478 -0.000452117)
(0.0974939 -0.000753544 -0.000438324)
(0.0998749 -0.000815111 -0.000514669)
(0.106391 -0.000924229 -0.000427849)
(0.0995921 -0.000758607 -0.00046741)
(0.106282 -0.000858405 -0.000382563)
(0.102589 -0.00091406 -0.000643649)
(0.102993 -0.000889944 -0.000667612)
(0.110726 -0.00102923 -0.000658953)
(0.102448 -0.000894756 -0.000620671)
(0.102884 -0.000868131 -0.000648464)
(0.110753 -0.00101155 -0.000637804)
(0.102302 -0.000868585 -0.000592428)
(0.102766 -0.000843884 -0.000627573)
(0.110771 -0.00098561 -0.000611786)
(0.102153 -0.000819428 -0.00054866)
(0.10266 -0.000810439 -0.000596636)
(0.110787 -0.000947344 -0.000576988)
(0.102479 -0.000740324 -0.000538239)
(0.110787 -0.000866222 -0.000514399)
(0.103296 -0.000849642 -0.000666857)
(0.102274 -0.000754878 -0.000660303)
(0.111471 -0.000905397 -0.000733541)
(0.10321 -0.000823059 -0.000649624)
(0.102195 -0.000729595 -0.000649277)
(0.111544 -0.000882371 -0.000715962)
(0.103121 -0.000789657 -0.000627792)
(0.102112 -0.000701103 -0.000639725)
(0.111615 -0.000852793 -0.000694819)
(0.10303 -0.000733002 -0.000584271)
(0.102036 -0.000662273 -0.000619486)
(0.111674 -0.0008089 -0.000660831)
(0.101911 -0.000590895 -0.00056548)
(0.111749 -0.000725598 -0.000593475)
(0.101193 -0.000625586 -0.000655094)
(0.109682 -0.000628853 -0.000777522)
(0.101116 -0.000599424 -0.000650504)
(0.0984632 -0.000471966 -0.000667277)
(0.109764 -0.000605384 -0.000770224)
(0.101038 -0.000568351 -0.000639307)
(0.0983468 -0.000449004 -0.000659365)
(0.109843 -0.000578606 -0.000758354)
(0.100961 -0.000518086 -0.000604833)
(0.0982445 -0.000421521 -0.000644158)
(0.109911 -0.000543784 -0.000734143)
(0.0980734 -0.000373947 -0.000593873)
(0.109999 -0.000477647 -0.000671985)
(0.0958365 -0.000338398 -0.000662919)
(0.090335 -0.000237649 -0.000642432)
(0.10509 -0.000296032 -0.00084223)
(0.0956846 -0.000318182 -0.000651722)
(0.0900954 -0.000224928 -0.000627747)
(0.105098 -0.000278815 -0.000829655)
(0.0955326 -0.000290272 -0.000623811)
(0.0898941 -0.000210736 -0.000618389)
(0.105103 -0.000259528 -0.000808215)
(0.0895495 -0.000184497 -0.000581696)
(0.105089 -0.000222059 -0.000747447)
(0.0851083 -0.000134075 -0.000609425)
(0.0747982 -5.40158e-05 -0.000474264)
(0.0952736 -3.86159e-05 -0.000828197)
(0.0848001 -0.000125166 -0.000599176)
(0.0744217 -4.76051e-05 -0.000457785)
(0.0950952 -3.24913e-05 -0.000813847)
(0.0844914 -0.000110657 -0.000582632)
(0.0741168 -3.99675e-05 -0.000447211)
(0.0949427 -2.52069e-05 -0.000798238)
(0.0736 -2.63709e-05 -0.000430122)
(0.0946665 -9.86913e-06 -0.000738383)
(0.0655659 5.67197e-06 -0.000311885)
(0.0494428 9.95823e-06 -0.000186987)
(0.0759679 0.000111226 -0.000478034)
(0.0651664 1.28992e-05 -0.000299177)
(0.049082 1.70137e-05 -0.00018258)
(0.0755833 0.000110824 -0.000465509)
(0.0647768 2.42869e-05 -0.000295909)
(0.0487843 2.46876e-05 -0.0001784)
(0.0752721 0.000113262 -0.000452704)
(0.0482581 4.24371e-05 -0.000189664)
(0.0747415 0.000116204 -0.000430084)
(0.0366145 3.46671e-05 -0.000145709)
(0.0431213 0.000102989 -0.000199127)
(0.0363165 3.92925e-05 -0.000137937)
(0.0427715 0.000103239 -0.000183897)
(0.0360163 4.37283e-05 -0.00013194)
(0.0424038 0.00010263 -0.000182575)
(0.0357241 5.2969e-05 -0.000128407)
(0.0420926 0.000100411 -0.000171712)
(0.0415384 0.000105134 -0.000173017)
(0.0464671 -0.000149024 0.000105911)
(0.0643996 -0.000351647 0.000112064)
(0.0509376 -0.000179792 0.000149686)
(0.0461401 -0.000137903 9.63359e-05)
(0.0640754 -0.000342608 0.000105781)
(0.0505667 -0.000172924 0.000144025)
(0.0458362 -0.000130456 8.26871e-05)
(0.0638 -0.000327873 9.16386e-05)
(0.0502548 -0.000154023 0.000130497)
(0.0633477 -0.000322613 7.90308e-05)
(0.0497628 -0.000148335 0.000112823)
(0.0854162 -0.000623455 0.00013502)
(0.0954378 -0.000837347 3.40226e-05)
(0.0851142 -0.000605835 0.000125773)
(0.0952739 -0.000825363 2.89052e-05)
(0.0903416 -0.000635833 0.000231101)
(0.0848151 -0.000592773 0.000114672)
(0.0951006 -0.000808614 2.15032e-05)
(0.0901108 -0.000624745 0.00021777)
(0.0845148 -0.000573642 9.84813e-05)
(0.0949501 -0.000788059 1.30934e-05)
(0.0899097 -0.000613167 0.000201016)
(0.0946793 -0.000734215 -2.17296e-06)
(0.0895733 -0.000574228 0.00017297)
(0.106477 -0.0010227 -0.000110276)
(0.11089 -0.00105952 -0.000256758)
(0.110567 -0.00100419 4.41581e-05)
(0.106458 -0.00101577 -0.000110804)
(0.110949 -0.00105391 -0.000253416)
(0.110654 -0.00100306 3.96198e-05)
(0.106429 -0.000996312 -0.000111713)
(0.110993 -0.00104054 -0.000247523)
(0.110726 -0.000992276 3.39556e-05)
(0.106391 -0.000951087 -0.000111022)
(0.111031 -0.00101453 -0.000238567)
(0.110788 -0.000965664 2.55431e-05)
(0.111058 -0.000949602 -0.000220846)
(0.11085 -0.0009047 1.64523e-05)
(0.115708 -0.00110108 -0.000405425)
(0.117524 -0.00109809 -0.000510896)
(0.119402 -0.00103027 -0.000252025)
(0.115833 -0.00109035 -0.000394134)
(0.11769 -0.00109008 -0.000498492)
(0.119622 -0.00102499 -0.000247253)
(0.115951 -0.00106895 -0.000378809)
(0.117848 -0.0010716 -0.000481344)
(0.119835 -0.00101359 -0.000240142)
(0.116061 -0.00102109 -0.000353414)
(0.117988 -0.00103768 -0.000457293)
(0.120025 -0.000990246 -0.000230184)
(0.118179 -0.000966395 -0.000415226)
(0.120287 -0.000934074 -0.000211117)
(0.119589 -0.0010847 -0.000610077)
(0.119878 -0.00099432 -0.00068354)
(0.123187 -0.000966142 -0.000475639)
(0.119788 -0.00106792 -0.000592422)
(0.1201 -0.000981338 -0.000670345)
(0.123465 -0.000955631 -0.000465175)
(0.119982 -0.00103696 -0.000566106)
(0.12032 -0.000957949 -0.000650182)
(0.12374 -0.000937103 -0.000449997)
(0.120166 -0.000980262 -0.000524329)
(0.120514 -0.000918529 -0.000617343)
(0.123988 -0.000905679 -0.000427651)
(0.120787 -0.000845628 -0.000562896)
(0.124331 -0.000849702 -0.00039252)
(0.120395 -0.000894159 -0.000740388)
(0.119561 -0.000743411 -0.000801909)
(0.124058 -0.000750913 -0.000638796)
(0.120636 -0.000874376 -0.000724863)
(0.119808 -0.000727394 -0.000793325)
(0.124366 -0.000737551 -0.000628937)
(0.120873 -0.000841852 -0.000698814)
(0.120054 -0.000704036 -0.000778382)
(0.124673 -0.000718024 -0.000614635)
(0.121101 -0.000784988 -0.000654474)
(0.12027 -0.000668675 -0.000750019)
(0.12495 -0.000687038 -0.000590074)
(0.120575 -0.000605079 -0.000695957)
(0.125335 -0.000635487 -0.000551646)
(0.118984 -0.000571923 -0.000861496)
(0.116872 -0.000391886 -0.000933862)
(0.122779 -0.00042545 -0.000805232)
(0.119233 -0.000553183 -0.000852524)
(0.11709 -0.000379743 -0.000929591)
(0.123089 -0.00041282 -0.000799913)
(0.119477 -0.00052841 -0.000833631)
(0.117306 -0.000364739 -0.000917291)
(0.123396 -0.000396755 -0.000787554)
(0.11971 -0.000488345 -0.000793214)
(0.117493 -0.000343899 -0.000890185)
(0.123671 -0.000375293 -0.000764363)
(0.117755 -0.000306648 -0.000832498)
(0.124053 -0.000342005 -0.000722175)
(0.115065 -0.000212439 -0.000993039)
(0.110568 -5.39696e-05 -0.00100874)
(0.119056 -6.95264e-05 -0.000973626)
(0.115246 -0.000202606 -0.000986878)
(0.110651 -4.961e-05 -0.00100397)
(0.119305 -6.3673e-05 -0.000968961)
(0.115421 -0.000189894 -0.000968042)
(0.110729 -4.44822e-05 -0.000995956)
(0.119551 -5.72698e-05 -0.000958656)
(0.11559 -0.000170356 -0.000925023)
(0.11079 -3.60569e-05 -0.000973688)
(0.119766 -4.93494e-05 -0.000936249)
(0.110854 -2.64989e-05 -0.000905074)
(0.120068 -4.06363e-05 -0.000886519)
(0.106478 0.000100925 -0.00102374)
(0.110893 0.000247402 -0.00106033)
(0.106462 0.000100525 -0.00101655)
(0.0966075 0.000193716 -0.000838905)
(0.11095 0.000242907 -0.001051)
(0.106433 0.000100507 -0.00100305)
(0.0964199 0.000186787 -0.000826014)
(0.111001 0.000238073 -0.00104231)
(0.106395 9.96521e-05 -0.000955279)
(0.0962602 0.000180249 -0.000805619)
(0.111036 0.000229853 -0.00102249)
(0.0959683 0.000165741 -0.000740077)
(0.111065 0.000211439 -0.000951644)
(0.0876265 0.000247304 -0.000630003)
(0.0677117 0.000198012 -0.000399785)
(0.0926874 0.000363967 -0.000713412)
(0.0873017 0.000240032 -0.000619489)
(0.0673188 0.000194592 -0.000398975)
(0.0924015 0.000352136 -0.000705534)
(0.0869769 0.000228421 -0.000593167)
(0.0669913 0.00018852 -0.000391488)
(0.092161 0.000337271 -0.000695684)
(0.0664268 0.000183048 -0.000378424)
(0.0917476 0.000307127 -0.000647678)
(0.0508264 0.0001828 -0.000262061)
(0.054962 0.000281881 -0.000346688)
(0.0503992 0.00017713 -0.000251952)
(0.0545009 0.000267202 -0.000331051)
(0.0499768 0.000169514 -0.000243093)
(0.0540313 0.0002501 -0.000316743)
(0.0495644 0.000162211 -0.000233358)
(0.0536389 0.000229649 -0.000292889)
(0.052985 0.000211566 -0.000273797)
(0.0556366 -0.000229068 0.000181579)
(0.0746079 -0.000428371 0.000253094)
(0.0587156 -0.000307118 0.000218861)
(0.0552472 -0.000212452 0.00017291)
(0.0743224 -0.000421977 0.000242297)
(0.0582953 -0.000286988 0.000204972)
(0.0548823 -0.000190404 0.000157417)
(0.0740784 -0.000401905 0.000225586)
(0.0579368 -0.000256813 0.000191204)
(0.073695 -0.000371242 0.000199009)
(0.0573812 -0.000222972 0.000171355)
(0.0958503 -0.00066027 0.000330926)
(0.105099 -0.00083698 0.000285958)
(0.0984802 -0.000664595 0.000462184)
(0.0956997 -0.000650978 0.000311463)
(0.105106 -0.000827039 0.000270027)
(0.0983651 -0.000659346 0.000441382)
(0.0955501 -0.000619973 0.000281608)
(0.10511 -0.00080452 0.000250634)
(0.0982615 -0.000642887 0.000414404)
(0.105097 -0.000742424 0.000212056)
(0.0980925 -0.000590181 0.000365159)
(0.115067 -0.000988386 0.00020202)
(0.119057 -0.000969352 5.86396e-05)
(0.116872 -0.000930234 0.000383006)
(0.115248 -0.000983148 0.000192228)
(0.119306 -0.000966232 5.35978e-05)
(0.117091 -0.000928213 0.000370462)
(0.115422 -0.000963632 0.000179761)
(0.119549 -0.000957023 4.89566e-05)
(0.117304 -0.000915121 0.000354821)
(0.115588 -0.00092127 0.000160924)
(0.119765 -0.000933595 4.26787e-05)
(0.117491 -0.000885451 0.000333744)
(0.120064 -0.000885014 3.48538e-05)
(0.11775 -0.00082889 0.000297541)
(0.123563 -0.000957139 -8.99514e-05)
(0.12522 -0.000904721 -0.000209744)
(0.125131 -0.000859695 8.10078e-05)
(0.123875 -0.000950536 -8.9068e-05)
(0.125557 -0.000896528 -0.000205991)
(0.125474 -0.000854419 8.02779e-05)
(0.124181 -0.000937114 -8.74848e-05)
(0.12589 -0.000885453 -0.000201169)
(0.125813 -0.000843819 7.79749e-05)
(0.124475 -0.000905364 -8.40608e-05)
(0.126192 -0.000863734 -0.000194459)
(0.12612 -0.000822074 7.38226e-05)
(0.12661 -0.00082175 -0.000181463)
(0.126545 -0.000783236 6.73531e-05)
(0.12728 -0.000840185 -0.000331819)
(0.127575 -0.00072341 -0.000436612)
(0.128817 -0.000712819 -0.000182056)
(0.127637 -0.000827667 -0.000323766)
(0.127944 -0.000712147 -0.000429113)
(0.1292 -0.000702735 -0.000176227)
(0.127989 -0.000808974 -0.000312951)
(0.12831 -0.000698289 -0.000419651)
(0.129579 -0.000689102 -0.000170386)
(0.128329 -0.000777137 -0.000296322)
(0.128644 -0.000676178 -0.000404658)
(0.129927 -0.000667245 -0.000162573)
(0.129104 -0.000639971 -0.000381328)
(0.130398 -0.000635806 -0.000152533)
(0.128242 -0.000596874 -0.000532221)
(0.127488 -0.000438399 -0.00064377)
(0.129817 -0.000453609 -0.000416238)
(0.128619 -0.000583872 -0.000523696)
(0.127863 -0.000428392 -0.000638183)
(0.130214 -0.000443828 -0.00040963)
(0.12899 -0.000565829 -0.000510796)
(0.128234 -0.000415402 -0.000627645)
(0.130607 -0.000431859 -0.000401032)
(0.129349 -0.000538276 -0.000490148)
(0.128573 -0.000396806 -0.000609133)
(0.13097 -0.000414727 -0.000387272)
(0.12904 -0.000369833 -0.000581126)
(0.13146 -0.000395825 -0.00037317)
(0.126739 -0.000275844 -0.000756158)
(0.128332 -0.000135984 -0.000670758)
(0.127113 -0.00026835 -0.000752138)
(0.125136 -9.11516e-05 -0.00086115)
(0.128729 -0.000130172 -0.000665909)
(0.127482 -0.000259007 -0.000743828)
(0.125479 -8.77784e-05 -0.000855063)
(0.129117 -0.000124628 -0.000660642)
(0.127844 -0.000246247 -0.000726846)
(0.125818 -8.21683e-05 -0.000844575)
(0.1295 -0.000118211 -0.000649074)
(0.128195 -0.000229657 -0.000699445)
(0.126125 -7.53343e-05 -0.000824246)
(0.129854 -0.000110134 -0.000629032)
(0.126551 -6.77021e-05 -0.000785905)
(0.130332 -0.000101486 -0.000601204)
(0.123565 8.07772e-05 -0.000957749)
(0.119404 0.000242462 -0.00102811)
(0.125219 0.00020274 -0.000904872)
(0.123877 8.15458e-05 -0.000950569)
(0.119625 0.00023751 -0.00102168)
(0.125555 0.000202257 -0.00089809)
(0.124184 8.22268e-05 -0.000937546)
(0.119843 0.000232785 -0.00101404)
(0.125888 0.000198977 -0.000887059)
(0.124481 8.05645e-05 -0.000906489)
(0.12003 0.000225413 -0.000995066)
(0.126188 0.000193327 -0.000865802)
(0.120294 0.000205831 -0.000937534)
(0.126606 0.000180748 -0.000823289)
(0.115711 0.000396073 -0.00109614)
(0.106568 0.000479165 -0.000970965)
(0.11752 0.000503951 -0.00109543)
(0.115838 0.000384846 -0.00108783)
(0.106516 0.000460025 -0.000960107)
(0.117686 0.000491097 -0.00108497)
(0.115958 0.000371292 -0.00107279)
(0.106457 0.000440423 -0.000950416)
(0.11785 0.000474645 -0.00107049)
(0.116071 0.000346472 -0.00102747)
(0.106401 0.000417708 -0.000932133)
(0.117986 0.00045226 -0.00104157)
(0.106294 0.00037023 -0.000860869)
(0.11818 0.000410198 -0.000970015)
(0.0981819 0.000502467 -0.000799381)
(0.077625 0.000431419 -0.000575726)
(0.100421 0.000577169 -0.000864641)
(0.0979588 0.000481117 -0.000794812)
(0.0772553 0.000410297 -0.000567197)
(0.100242 0.000554166 -0.000853074)
(0.0977329 0.000459324 -0.000790467)
(0.0768803 0.000387373 -0.000559398)
(0.100053 0.000532677 -0.000843684)
(0.0975068 0.000424409 -0.000759342)
(0.0765646 0.000361165 -0.00054251)
(0.0998847 0.000506464 -0.000825667)
(0.076047 0.000327118 -0.000506646)
(0.0996034 0.000453113 -0.000758343)
(0.0591739 0.00038155 -0.000421692)
(0.0616261 0.000496432 -0.000517506)
(0.0586756 0.000353578 -0.000401979)
(0.0611049 0.000456848 -0.00048327)
(0.0581968 0.0003208 -0.000373563)
(0.0605919 0.000410679 -0.00043598)
(0.0577408 0.000287399 -0.000339649)
(0.0601683 0.000363214 -0.000385508)
(0.0594946 0.000315892 -0.000334878)
(0.0620285 -0.000389565 0.000282709)
(0.0806691 -0.000514546 0.00044717)
(0.0635951 -0.000516553 0.000402189)
(0.0615895 -0.000357355 0.000253425)
(0.0804 -0.00049838 0.000420162)
(0.0631083 -0.000484248 0.000367882)
(0.0611658 -0.000326227 0.000231801)
(0.0801325 -0.000482822 0.00039585)
(0.0626355 -0.00044323 0.000327107)
(0.0607625 -0.000286558 0.000211433)
(0.0798996 -0.000458121 0.000371015)
(0.0622332 -0.000387187 0.000281614)
(0.0795359 -0.000409665 0.000328612)
(0.0616171 -0.00032354 0.000237723)
(0.101212 -0.00065288 0.000615295)
(0.10969 -0.000774412 0.000619295)
(0.102284 -0.000657681 0.000746178)
(0.101136 -0.0006503 0.000589598)
(0.109773 -0.000769485 0.000595543)
(0.102207 -0.000648654 0.000721323)
(0.101058 -0.000639772 0.000559522)
(0.109852 -0.0007582 0.000569297)
(0.102125 -0.000639553 0.000692497)
(0.100981 -0.000605124 0.000509851)
(0.109919 -0.000732479 0.000534799)
(0.10205 -0.000619276 0.000653469)
(0.110007 -0.000669686 0.000469143)
(0.101927 -0.000567351 0.000584003)
(0.118728 -0.000861911 0.000580427)
(0.122456 -0.000803465 0.000427341)
(0.119303 -0.000804946 0.000750325)
(0.118981 -0.000861353 0.000564142)
(0.122773 -0.000802535 0.000416561)
(0.119556 -0.000803916 0.000738839)
(0.119229 -0.000852593 0.00054456)
(0.123084 -0.000798821 0.000405947)
(0.119803 -0.000795665 0.000721551)
(0.119472 -0.000830944 0.000518668)
(0.12339 -0.000785791 0.000391229)
(0.120048 -0.000778164 0.000696615)
(0.119705 -0.000788367 0.000478703)
(0.123666 -0.000760336 0.000370634)
(0.120265 -0.000746805 0.000661287)
(0.124048 -0.000717621 0.00033846)
(0.120569 -0.000692242 0.000599132)
(0.126731 -0.000752698 0.000265254)
(0.128327 -0.000668853 0.000125264)
(0.127101 -0.000646865 0.000438052)
(0.127105 -0.000749226 0.000261128)
(0.128725 -0.000664012 0.000123422)
(0.127482 -0.00064315 0.000435141)
(0.127476 -0.000741345 0.000255856)
(0.129115 -0.000658304 0.000122927)
(0.127856 -0.000638075 0.000429804)
(0.127838 -0.000723912 0.00024624)
(0.129499 -0.000645737 0.000120027)
(0.128227 -0.000626061 0.000418247)
(0.128189 -0.000695696 0.000231374)
(0.129854 -0.000624444 0.000113927)
(0.128565 -0.000605507 0.00040021)
(0.130331 -0.000596286 0.000105938)
(0.129029 -0.000576537 0.000373347)
(0.130383 -0.000576325 -2.22191e-05)
(0.130692 -0.000441875 -0.000160125)
(0.130692 -0.000432768 0.000138843)
(0.130793 -0.000569515 -2.00166e-05)
(0.131112 -0.00043601 -0.000157209)
(0.131111 -0.000428759 0.000140899)
(0.131198 -0.00055953 -1.75867e-05)
(0.131524 -0.000429115 -0.000153271)
(0.131522 -0.000424117 0.000141321)
(0.131594 -0.00054396 -1.59951e-05)
(0.131929 -0.000418436 -0.000148315)
(0.131927 -0.000415385 0.000138574)
(0.131976 -0.00052272 -1.50709e-05)
(0.132308 -0.000404099 -0.000142613)
(0.132305 -0.000402436 0.000133741)
(0.132808 -0.000389644 -0.000139679)
(0.132804 -0.000388974 0.000130621)
(0.131427 -0.000302422 -0.000294258)
(0.130693 -0.000146662 -0.000436872)
(0.131734 -0.000151184 -0.000149461)
(0.131845 -0.00029602 -0.000290046)
(0.131112 -0.000141836 -0.000433301)
(0.132161 -0.000147962 -0.000145784)
(0.132259 -0.000287978 -0.000284023)
(0.131522 -0.000136714 -0.000428547)
(0.132581 -0.000144734 -0.000142482)
(0.132665 -0.000277952 -0.000275526)
(0.131927 -0.000131042 -0.000419244)
(0.132997 -0.000140238 -0.000138317)
(0.133056 -0.000269749 -0.000268499)
(0.132306 -0.000124896 -0.000405869)
(0.133381 -0.000136066 -0.000134575)
(0.132806 -0.000121705 -0.000392106)
(0.133903 -0.000133421 -0.000132443)
(0.130383 1.48859e-05 -0.000577153)
(0.128426 0.000176965 -0.000719647)
(0.13069 0.000153583 -0.000441183)
(0.130792 1.75977e-05 -0.000572162)
(0.128815 0.000176122 -0.000713564)
(0.131107 0.000153604 -0.000436853)
(0.131195 1.99962e-05 -0.000563744)
(0.129196 0.000175897 -0.000706905)
(0.131517 0.000153758 -0.000431854)
(0.131591 2.14763e-05 -0.000549225)
(0.129573 0.000173298 -0.00069382)
(0.131922 0.000151961 -0.00042239)
(0.131972 2.18361e-05 -0.000528347)
(0.12992 0.000166955 -0.000671826)
(0.132301 0.000148113 -0.000408611)
(0.130389 0.000156973 -0.000639742)
(0.132801 0.000145631 -0.000393991)
(0.126915 0.000331237 -0.000849699)
(0.122894 0.00047588 -0.000971836)
(0.127194 0.000437303 -0.000731576)
(0.127276 0.000328687 -0.000843198)
(0.123179 0.000469287 -0.000965591)
(0.127567 0.000433594 -0.000723919)
(0.127631 0.000324093 -0.000832461)
(0.123457 0.000460828 -0.000955383)
(0.127933 0.000430306 -0.000716266)
(0.12798 0.000314576 -0.000812762)
(0.123733 0.000447688 -0.000937766)
(0.128297 0.000421653 -0.000701891)
(0.128318 0.000298063 -0.000779648)
(0.123978 0.000427165 -0.000907892)
(0.128629 0.000406283 -0.000678619)
(0.12432 0.000391875 -0.000851728)
(0.129085 0.000382263 -0.00064138)
(0.119373 0.000616761 -0.00109307)
(0.110697 0.000668955 -0.00104564)
(0.119637 0.000687101 -0.00100462)
(0.119579 0.000604306 -0.00108295)
(0.110727 0.000651744 -0.0010331)
(0.119865 0.000678595 -0.000994282)
(0.119778 0.000586881 -0.00106519)
(0.110753 0.000630437 -0.00101457)
(0.120086 0.000665515 -0.000978647)
(0.119972 0.000561749 -0.00103606)
(0.110774 0.000605244 -0.000989594)
(0.120308 0.00064506 -0.00095493)
(0.120159 0.000521117 -0.000981489)
(0.110786 0.000571911 -0.000953079)
(0.120499 0.000613028 -0.000917123)
(0.110788 0.000506033 -0.000866497)
(0.120772 0.000559171 -0.000844945)
(0.102736 0.000654375 -0.000935625)
(0.103115 0.000673887 -0.000914337)
(0.1026 0.000633305 -0.00092034)
(0.0822559 0.000603573 -0.000737519)
(0.103005 0.000657309 -0.000895187)
(0.102459 0.000611069 -0.000902419)
(0.0819053 0.00056783 -0.000704293)
(0.102893 0.000637856 -0.000873315)
(0.102311 0.000585199 -0.000878653)
(0.0815606 0.000527596 -0.000660597)
(0.102777 0.000618483 -0.000850989)
(0.102163 0.000539415 -0.000824907)
(0.0812697 0.000484636 -0.000615652)
(0.102666 0.000589926 -0.000819534)
(0.0808106 0.000426579 -0.000548285)
(0.102485 0.000527357 -0.000741449)
(0.0637166 0.000577846 -0.000585859)
(0.0644782 0.000618761 -0.000561417)
(0.0631869 0.000519738 -0.000521487)
(0.0639476 0.00057228 -0.000517605)
(0.062692 0.000457727 -0.000450844)
(0.0634308 0.000508313 -0.000455215)
(0.0622313 0.000395136 -0.000382711)
(0.0630079 0.000434197 -0.000386112)
(0.0623539 0.000359029 -0.000319583)
(0.064706 -0.000618734 0.000485227)
(0.083138 -0.00063686 0.000653672)
(0.0644693 -0.000628228 0.000546942)
(0.0641899 -0.000574302 0.000442101)
(0.0828207 -0.000614969 0.000627046)
(0.0639349 -0.000587587 0.000501342)
(0.0637025 -0.000504993 0.000379622)
(0.0825119 -0.000578437 0.000586989)
(0.0634195 -0.000529012 0.000438751)
(0.0632542 -0.000422862 0.000311528)
(0.0822497 -0.000526641 0.000534127)
(0.0629903 -0.000458364 0.000370834)
(0.0818467 -0.000459465 0.000468458)
(0.0623309 -0.000385545 0.000307413)
(0.103297 -0.000664697 0.000844029)
(0.111469 -0.000733835 0.000901942)
(0.103003 -0.000663479 0.000883948)
(0.103214 -0.000647931 0.000817032)
(0.111542 -0.00071681 0.000878845)
(0.102892 -0.000645993 0.000863295)
(0.103129 -0.000625656 0.00078224)
(0.111614 -0.000693919 0.000847279)
(0.102776 -0.000626389 0.00083969)
(0.103042 -0.000584885 0.000726246)
(0.111677 -0.000658556 0.000802712)
(0.102669 -0.000596791 0.000807147)
(0.111752 -0.000594084 0.000720911)
(0.10249 -0.000540019 0.000732631)
(0.119895 -0.000754028 0.000911927)
(0.123423 -0.000646562 0.000761211)
(0.120144 -0.000752401 0.000905224)
(0.123739 -0.000645853 0.000755949)
(0.119644 -0.000690932 0.000996786)
(0.120388 -0.000743669 0.000892717)
(0.124052 -0.000641699 0.000749583)
(0.119871 -0.00068281 0.000990849)
(0.120629 -0.000725892 0.00087073)
(0.124359 -0.000630855 0.000737009)
(0.120093 -0.000668006 0.000976036)
(0.120866 -0.000697495 0.000837365)
(0.124665 -0.000613599 0.000717005)
(0.120313 -0.000645975 0.000952301)
(0.121094 -0.000652422 0.000781326)
(0.124941 -0.000586908 0.000686703)
(0.120506 -0.000613131 0.000914896)
(0.125323 -0.000548326 0.000636043)
(0.120777 -0.000560469 0.00084355)
(0.127477 -0.000543379 0.000607802)
(0.129006 -0.000418912 0.000457377)
(0.12786 -0.000541731 0.00060458)
(0.129414 -0.000418187 0.000454543)
(0.127197 -0.00043751 0.000723361)
(0.128238 -0.000537045 0.000599847)
(0.129815 -0.000416997 0.000453682)
(0.127569 -0.000435834 0.000719376)
(0.128612 -0.000526658 0.0005893)
(0.130209 -0.000411871 0.000449715)