/*--------------------------------*- C++ -*----------------------------------*\
| =========                 |                                                 |
| \\      /  F ield         | OpenFOAM: The Open Source CFD Toolbox           |
|  \\    /   O peration     | Version:  2212                                  |
|   \\  /    A nd           | Website:  www.openfoam.com                      |
|    \\/     M anipulation  |                                                 |
\*---------------------------------------------------------------------------*/
FoamFile
{
    version     2.0;
    format      ascii;
    arch        "LSB;label=32;scalar=64";
    class       volScalarField;
    location    "0.7";
    object      p;
}
// * * * * * * * * * * * * * * * * * * * * * * * * * * * * * * * * * * * * * //

dimensions      [0 2 -2 0 0 0 0];

internalField   nonuniform List<scalar> 
690
(
0.00320377
0.00307949
0.00295554
0.00283219
0.00271032
0.0025899
0.00247063
0.00235231
0.0022348
0.00211811
0.00200227
0.0031993
0.00307572
0.00295228
0.00282938
0.00270796
0.00258784
0.00246883
0.00235076
0.00223345
0.00211687
0.00200109
0.00320251
0.00307754
0.00295328
0.00282993
0.00270832
0.00258785
0.00246865
0.0023505
0.00223313
0.0021166
0.00200076
0.00321332
0.00308579
0.00295971
0.00283527
0.00271269
0.0025914
0.00247149
0.00235284
0.00223513
0.00211851
0.00200238
0.0032213
0.00309201
0.00296472
0.00283941
0.00271592
0.00259402
0.00247364
0.00235468
0.00223682
0.00211987
0.0020035
0.003208
0.00308284
0.00295833
0.00283451
0.00271224
0.00259154
0.00247205
0.00235357
0.00223598
0.00211926
0.00200337
0.00320312
0.00307895
0.00295544
0.00283227
0.00271066
0.00259031
0.00247106
0.0023528
0.00223534
0.00211883
0.00200308
0.0032001
0.0030755
0.00295151
0.00282864
0.00270735
0.00258737
0.0024684
0.00235035
0.00223314
0.00211711
0.00200138
0.00320355
0.00307763
0.00295317
0.00283022
0.00270864
0.00258848
0.00246917
0.00235078
0.00223334
0.00211674
0.00200038
0.00320599
0.00307999
0.00295541
0.00283215
0.00271009
0.00258934
0.00246989
0.00235158
0.00223402
0.00211693
0.00200009
0.0032131
0.00308636
0.00296089
0.00283624
0.0027134
0.00259237
0.00247256
0.00235395
0.00223635
0.00211981
0.00200389
0.00320551
0.00308026
0.00295563
0.00283204
0.00271023
0.00258993
0.0024707
0.00235243
0.00223502
0.0021189
0.00200314
0.00319396
0.00306822
0.00294429
0.00282234
0.0027018
0.0025825
0.00246391
0.00234606
0.00222908
0.00211292
0.00199672
0.00319153
0.00306572
0.00294244
0.00282084
0.00269988
0.00257993
0.00246109
0.00234323
0.00222609
0.00210905
0.00199222
0.00318955
0.00306473
0.00294173
0.00282001
0.00269913
0.00257918
0.00246015
0.00234181
0.00222413
0.0021068
0.00198995
0.00322227
0.00309343
0.00296634
0.00284069
0.00271707
0.00259529
0.00247493
0.00235594
0.00223801
0.00212145
0.00200538
0.00321004
0.00308335
0.00295788
0.0028341
0.00271201
0.00259135
0.00247174
0.00235315
0.00223551
0.00211888
0.00200266
0.00319328
0.00306741
0.00294382
0.00282212
0.00270113
0.0025809
0.00246191
0.00234402
0.00222695
0.00210997
0.00199317
0.00318838
0.00306304
0.00293992
0.00281833
0.00269716
0.00257669
0.00245757
0.0023395
0.00222203
0.00210445
0.00198739
0.0031847
0.0030601
0.00293733
0.00281585
0.00269528
0.0025755
0.00245631
0.00233762
0.00221951
0.00210164
0.00198464
0.00322553
0.00309595
0.00296826
0.00284243
0.00271841
0.00259611
0.0024754
0.00235625
0.00223833
0.00212159
0.00200545
0.00321054
0.00308388
0.00295864
0.00283492
0.00271248
0.00259126
0.00247149
0.00235306
0.00223554
0.0021185
0.00200175
0.00319156
0.00306664
0.0029434
0.00282154
0.00270052
0.00258033
0.00246116
0.00234281
0.00222518
0.00210779
0.00199084
0.00318562
0.00306097
0.00293811
0.00281658
0.00269596
0.00257612
0.00245691
0.00233816
0.00221994
0.00210197
0.00198485
0.00318265
0.00305828
0.00293562
0.00281423
0.00269381
0.00257416
0.00245509
0.00233647
0.00221819
0.0021
0.00198264
0.00318159
0.00305738
0.00293485
0.00281356
0.00269323
0.00257365
0.00245463
0.002336
0.00221765
0.00209941
0.00198206
0.00322458
0.00309477
0.002967
0.00284124
0.0027173
0.00259505
0.0024744
0.00235526
0.00223742
0.0021206
0.00200437
0.00320811
0.00308186
0.00295696
0.00283343
0.00271121
0.00259022
0.00247048
0.00235205
0.00223461
0.00211765
0.00200091
0.00318971
0.00306523
0.00294231
0.0028206
0.00269989
0.00258008
0.00246097
0.00234231
0.00222423
0.00210674
0.00198994
0.00318414
0.00305992
0.00293734
0.00281597
0.00269557
0.00257595
0.00245687
0.00233802
0.00221949
0.00210135
0.00198414
0.00318181
0.00305769
0.0029352
0.00281393
0.00269361
0.00257403
0.00245501
0.00233636
0.00221795
0.0020996
0.00198207
0.00318049
0.00305654
0.00293416
0.00281297
0.00269272
0.0025732
0.00245422
0.00233561
0.0022172
0.00209886
0.00198143
0.00322068
0.00309132
0.00296396
0.00283857
0.00271503
0.00259314
0.00247278
0.0023539
0.00223617
0.0021194
0.00200332
0.00320562
0.00307955
0.00295489
0.00283161
0.00270956
0.00258879
0.00246936
0.00235111
0.00223371
0.0021169
0.00200029
0.0031896
0.00306478
0.00294178
0.00282015
0.00269935
0.00257942
0.00246042
0.00234209
0.00222444
0.00210713
0.00199019
0.00318488
0.00306034
0.00293764
0.00281625
0.00269575
0.002576
0.00245684
0.00233814
0.00221995
0.00210191
0.00198465
0.00318276
0.00305845
0.00293584
0.0028145
0.00269412
0.00257449
0.00245542
0.00233678
0.00221843
0.00210012
0.0019826
0.00318169
0.00305755
0.00293505
0.00281377
0.00269345
0.00257388
0.00245486
0.00233621
0.0022178
0.00209949
0.00198206
0.00321289
0.00308525
0.00295916
0.00283458
0.00271189
0.00259067
0.0024708
0.00235224
0.00223466
0.00211807
0.00200227
0.00188642
0.00320323
0.00307726
0.00295273
0.00282972
0.00270809
0.00258792
0.00246867
0.00235038
0.00223304
0.0021166
0.00200043
0.00188381
0.00319141
0.00306561
0.0029423
0.00282079
0.00269994
0.00257997
0.00246116
0.00234331
0.00222621
0.00210931
0.0019924
0.00318836
0.00306303
0.00293993
0.00281843
0.00269735
0.0025769
0.00245778
0.00233976
0.00222227
0.0021046
0.00198737
0.00318562
0.00306093
0.00293808
0.00281659
0.002696
0.00257619
0.00245698
0.00233825
0.00222004
0.00210203
0.00198484
0.00318402
0.00305968
0.00293705
0.00281567
0.00269526
0.00257564
0.00245656
0.00233772
0.00221923
0.00210117
0.00198411
0.00320218
0.00307712
0.00295282
0.00282935
0.00270767
0.00258725
0.00246807
0.00235002
0.00223283
0.00211659
0.00200119
0.00188567
0.00319989
0.00307522
0.00295118
0.00282821
0.00270684
0.00258687
0.00246793
0.00234996
0.00223287
0.00211687
0.00200138
0.00188526
0.0031939
0.00306815
0.0029442
0.00282217
0.00270158
0.00258231
0.00246379
0.00234596
0.00222902
0.00211275
0.00199647
0.00319337
0.00306748
0.00294388
0.00282204
0.00270098
0.00258088
0.00246198
0.00234415
0.00222709
0.00211011
0.00199329
0.00319172
0.00306673
0.00294344
0.00282152
0.00270049
0.00258034
0.00246118
0.0023429
0.0022253
0.00210799
0.00199111
0.00318978
0.0030652
0.00294221
0.00282045
0.00269972
0.0025799
0.00246078
0.00234214
0.00222414
0.00210673
0.00198996
0.00319902
0.00307536
0.0029519
0.00282892
0.00270742
0.0025873
0.00246831
0.00235033
0.00223319
0.00211702
0.0020016
0.00188609
0.00320293
0.00307873
0.00295517
0.00283197
0.00271033
0.00258998
0.00247073
0.00235254
0.0022352
0.00211902
0.00200369
0.00188795
0.00320543
0.00308017
0.0029555
0.00283196
0.00271017
0.0025898
0.00247055
0.00235231
0.00223499
0.00211892
0.00200334
0.0032101
0.00308342
0.00295798
0.00283414
0.00271199
0.00259138
0.00247182
0.00235318
0.00223563
0.00211902
0.00200277
0.00321074
0.00308413
0.00295891
0.00283514
0.00271265
0.00259151
0.00247176
0.00235332
0.00223581
0.00211882
0.00200211
0.00320835
0.00308217
0.00295731
0.00283379
0.00271158
0.00259061
0.00247086
0.00235241
0.00223492
0.00211791
0.00200108
0.00320357
0.00307925
0.00295531
0.00283194
0.00271004
0.00258961
0.00247034
0.00235208
0.0022347
0.00211834
0.00200279
0.00188709
0.00320788
0.00308272
0.00295824
0.00283447
0.00271221
0.00259149
0.00247198
0.00235353
0.00223602
0.00211961
0.00200396
0.00188807
0.00321299
0.00308632
0.00296088
0.00283635
0.00271357
0.00259248
0.00247266
0.00235405
0.00223646
0.00212014
0.00200445
0.0032222
0.00309349
0.00296646
0.00284102
0.00271753
0.00259562
0.0024752
0.00235617
0.0022382
0.00212154
0.00200542
0.0032256
0.00309617
0.00296862
0.0028429
0.00271893
0.00259662
0.00247588
0.00235667
0.00223866
0.00212171
0.00200536
0.00322484
0.00309522
0.00296758
0.00284189
0.00271799
0.00259574
0.00247507
0.00235587
0.0022379
0.00212089
0.00200444
)
;

boundaryField
{
    inlet
    {
        type            zeroGradient;
    }
    ami1
    {
        type            cyclicAMI;
        value           nonuniform List<scalar> 0();
    }
    walls
    {
        type            zeroGradient;
    }
    ami2
    {
        type            cyclicAMI;
        value           nonuniform List<scalar> 0();
    }
    outlet
    {
        type            fixedValue;
        value           nonuniform List<scalar> 0();
    }
    procBoundary8to0
    {
        type            processor;
        value           nonuniform List<scalar> 
29
(
0.00332918
0.0033237
0.00332813
0.00334224
0.0033523
0.00333432
0.00332812
0.00332596
0.00333112
0.00333361
0.00334097
0.00333197
0.00332164
0.00331962
0.00331669
0.00335237
0.00333821
0.00332128
0.00331592
0.00331153
0.00335666
0.00333878
0.00331866
0.00331239
0.00330912
0.00330785
0.00331048
0.00330794
0.00330643
)
;
    }
    procBoundary8to1
    {
        type            processor;
        value           nonuniform List<scalar> 
33
(
0.00335616
0.00333588
0.00331638
0.00335184
0.00333335
0.00331669
0.00331159
0.00330917
0.00330789
0.00334192
0.00333088
0.00331951
0.0033159
0.00331243
0.0033105
0.0033279
0.0033258
0.00332157
0.00332135
0.00331883
0.00331653
0.00332354
0.00332802
0.00333189
0.00333822
0.00333889
0.00333602
0.00332906
0.00333425
0.00334088
0.00335226
0.00335661
0.00335625
)
;
    }
    procBoundary8to7
    {
        type            processor;
        value           nonuniform List<scalar> 
68
(
0.00188663
0.0018856
0.00188502
0.00188586
0.00188664
0.00188767
0.00188733
0.00188472
0.00188352
0.00188331
0.00188775
0.00188639
0.0018798
0.00187621
0.00187453
0.00188862
0.00188574
0.00187709
0.00187221
0.00186976
0.00188855
0.00188499
0.00187534
0.00186985
0.0018674
0.00186687
0.00188772
0.00188426
0.00187453
0.00186898
0.00186663
0.00186615
0.00188695
0.00188695
0.00188362
0.00188362
0.00187454
0.00186946
0.00186717
0.00186677
0.00176984
0.00176744
0.00187615
0.00187615
0.00187199
0.00186971
0.00186914
0.00176928
0.00176853
0.00187999
0.00187999
0.00187723
0.00187546
0.0018746
0.00176991
0.00177129
0.00188694
0.00188694
0.00188611
0.00188531
0.00188429
0.00177075
0.00177156
0.00188815
0.00188815
0.00188876
0.00188853
0.00188755
)
;
    }
    procBoundary8to9
    {
        type            processor;
        value           nonuniform List<scalar> 
132
(
0.00322519
0.00309556
0.00296788
0.00284215
0.00271824
0.00259598
0.00247529
0.0023561
0.00223813
0.00212113
0.00200468
0.00320849
0.00308235
0.00295752
0.002834
0.00271178
0.00259081
0.00247106
0.00235258
0.00223501
0.00211787
0.0020009
0.00318966
0.00306509
0.00294213
0.0028204
0.00269968
0.00257986
0.00246072
0.00234205
0.00222402
0.00210657
0.00198975
0.00318391
0.00305954
0.00293689
0.0028155
0.00269508
0.00257544
0.00245634
0.00233749
0.00221905
0.00210107
0.00198407
0.00318391
0.00305954
0.00293689
0.0028155
0.00269508
0.00257544
0.00245634
0.00233749
0.00221905
0.00210107
0.00198407
0.00318265
0.00305833
0.0029357
0.00281433
0.00269392
0.00257427
0.00245519
0.00233655
0.00221823
0.00209998
0.00198257
0.00318173
0.00305763
0.00293513
0.00281385
0.00269352
0.00257394
0.00245491
0.00233624
0.00221781
0.00209946
0.00198202
0.00318261
0.00305833
0.00293573
0.00281438
0.00269399
0.00257434
0.00245525
0.00233658
0.00221825
0.00209999
0.00198257
0.0031847
0.00306016
0.00293745
0.00281605
0.00269553
0.00257576
0.00245652
0.00233777
0.00221962
0.0021017
0.00198457
0.00318959
0.00306479
0.00294179
0.00282009
0.00269929
0.00257933
0.00246025
0.00234188
0.00222424
0.00210699
0.00199005
0.00320593
0.0030799
0.0029553
0.00283196
0.00271
0.00258923
0.00246977
0.00235153
0.002234
0.00211707
0.00200029
0.00322112
0.00309181
0.00296449
0.00283918
0.00271566
0.0025938
0.00247344
0.0023545
0.00223667
0.00211972
0.00200344
)
;
    }
}


// ************************************************************************* //
