/*--------------------------------*- C++ -*----------------------------------*\
| =========                 |                                                 |
| \\      /  F ield         | OpenFOAM: The Open Source CFD Toolbox           |
|  \\    /   O peration     | Version:  2212                                  |
|   \\  /    A nd           | Website:  www.openfoam.com                      |
|    \\/     M anipulation  |                                                 |
\*---------------------------------------------------------------------------*/
FoamFile
{
    version     2.0;
    format      ascii;
    arch        "LSB;label=32;scalar=64";
    class       volScalarField;
    location    "2.6";
    object      k;
}
// * * * * * * * * * * * * * * * * * * * * * * * * * * * * * * * * * * * * * //

dimensions      [0 2 -2 0 0 0 0];

internalField   nonuniform List<scalar> 
693
(
0.00197197
0.00194815
0.00192559
0.00190336
0.001882
0.00186062
0.00170029
0.00167827
0.00165672
0.00163587
0.00161568
0.00159596
0.00169404
0.00166788
0.00164231
0.0016177
0.00159407
0.0015713
0.00166833
0.00163705
0.00160749
0.00157985
0.00155339
0.00152806
0.00165518
0.00162131
0.00158967
0.00155986
0.00153187
0.00150525
0.00163766
0.00160271
0.00156836
0.00153702
0.00150854
0.00148195
0.00160614
0.00157357
0.00154126
0.00151165
0.00148512
0.00145955
0.00157359
0.00154436
0.00151727
0.00149129
0.00146741
0.00144269
0.00156011
0.00153418
0.00150993
0.00148677
0.00146502
0.00144411
0.00160693
0.00158526
0.00156453
0.00154458
0.00152549
0.00150697
0.0019741
0.00195001
0.00192777
0.00190553
0.00188432
0.00186299
0.00160465
0.00158317
0.00156243
0.00154247
0.00152336
0.0015048
0.00112725
0.00109611
0.00106634
0.0010374
0.00101132
0.000984969
0.00145017
0.00140046
0.00135191
0.0013061
0.00126582
0.00122489
0.00163316
0.00157564
0.00151896
0.00146929
0.00141943
0.0013743
0.00172575
0.00166381
0.00160632
0.00155104
0.00149695
0.00144679
0.00176809
0.0016936
0.00162678
0.00157134
0.00152125
0.00147366
0.00174484
0.00167697
0.00161381
0.00155296
0.00149956
0.00144628
0.00160991
0.00154455
0.00148758
0.00143008
0.0013798
0.00132827
0.00134903
0.00129651
0.00125154
0.00120517
0.00116603
0.00112426
0.00113273
0.00110058
0.00107134
0.00104187
0.00101565
0.000989219
0.00170185
0.00167974
0.00165826
0.00163752
0.00161738
0.00159771
0.00155734
0.00153179
0.00150761
0.00148452
0.00146282
0.00144197
0.00133995
0.00129082
0.00124517
0.00119899
0.00116014
0.00111855
0.00170949
0.00163749
0.00157161
0.00150798
0.00145048
0.00139428
0.00198182
0.00189646
0.00181607
0.00174179
0.00167163
0.0016064
0.00214156
0.00204878
0.00196215
0.00188217
0.00180664
0.00173562
0.00220597
0.00210989
0.00202019
0.00193669
0.00185872
0.00178675
0.00216285
0.00206995
0.00198319
0.00190159
0.00182569
0.00175392
0.00199456
0.00190965
0.00183035
0.00175484
0.00168394
0.00161638
0.00171468
0.00164194
0.0015762
0.00151193
0.00145433
0.0013978
0.00145664
0.00140363
0.00135756
0.0013107
0.00126998
0.00122858
0.00169513
0.00166897
0.00164364
0.00161911
0.00159553
0.00157278
0.00157105
0.00154225
0.00151488
0.00148925
0.00146542
0.00144065
0.0016018
0.00154023
0.00148012
0.00142581
0.00137468
0.00132369
0.00199189
0.00190695
0.00182753
0.0017523
0.00168161
0.00161395
0.00230331
0.0022019
0.00210714
0.0020185
0.00193486
0.00185735
0.00249779
0.00238674
0.00228299
0.002186
0.00209475
0.00201018
0.00256769
0.00245349
0.00234676
0.00224696
0.00215303
0.0020659
0.00250534
0.00239444
0.00229077
0.00219378
0.00210238
0.00201757
0.0023045
0.0022032
0.00210854
0.00202
0.00193636
0.00185887
0.0019839
0.00189866
0.00181882
0.0017444
0.00167431
0.00160899
0.00163801
0.00157717
0.00152345
0.00147195
0.00142263
0.00137717
0.00166926
0.00163789
0.00160859
0.00158097
0.00155463
0.00152938
0.0016048
0.00157153
0.00153937
0.00151005
0.00148363
0.00145808
0.00174177
0.00167413
0.00161057
0.00155063
0.00149672
0.00144394
0.00216153
0.00206864
0.00198185
0.00190033
0.00182466
0.00175308
0.002505
0.00239411
0.00229046
0.00219346
0.00210211
0.00201731
0.00272371
0.00260175
0.00248781
0.00238123
0.00228103
0.00218773
0.00279984
0.00267416
0.00255677
0.00244698
0.00234381
0.00224767
0.0027238
0.00260187
0.00248796
0.00238143
0.00228126
0.00218799
0.00249876
0.00238781
0.00228413
0.00218725
0.00209609
0.00201154
0.00214319
0.00205054
0.00196426
0.00188435
0.00180895
0.00173797
0.00172658
0.00166573
0.00160806
0.00155332
0.00150038
0.00144955
0.00165566
0.00162197
0.00159042
0.0015607
0.00153291
0.00150638
0.00163689
0.00160188
0.0015675
0.00153618
0.00150773
0.00148118
0.00176692
0.00169262
0.00162596
0.00157067
0.00152058
0.0014733
0.00220587
0.00210993
0.00202039
0.00193685
0.00185949
0.00178732
0.00256816
0.00245406
0.00234741
0.00224761
0.00215385
0.00206672
0.00280024
0.00267461
0.00255725
0.00244744
0.00234435
0.00224816
0.00288075
0.00275117
0.00263014
0.00251695
0.00241064
0.00231152
0.00280018
0.00267454
0.00255718
0.00244742
0.00234426
0.00224815
0.00256876
0.00245463
0.00234796
0.0022482
0.00215432
0.00206722
0.00220752
0.0021116
0.00202205
0.00193862
0.00186077
0.00178886
0.00176989
0.00169574
0.00162897
0.00157325
0.00152327
0.00147589
0.00163819
0.00160343
0.00156917
0.00153785
0.00150941
0.00148286
0.0016548
0.00162089
0.00158923
0.00155953
0.00153149
0.00172518
0.00166314
0.00160599
0.00155149
0.00149866
0.00214219
0.00204951
0.00196324
0.00188328
0.00180821
0.00249854
0.00238763
0.00228406
0.00218694
0.00209661
0.00272412
0.00260224
0.0024884
0.00238171
0.00228213
0.00280024
0.0026746
0.00255725
0.00244745
0.0023444
0.00224822
0.00272403
0.00260211
0.00248822
0.0023817
0.00228157
0.00218832
0.00250611
0.00239523
0.0022916
0.00219465
0.00210332
0.00201854
0.0021641
0.00207125
0.00198457
0.00190302
0.00182726
0.00175557
0.0017462
0.0016782
0.00161519
0.00155435
0.00150115
0.00144796
0.00160642
0.00157413
0.00154186
0.00151224
0.00148576
0.00146024
0.00163732
0.00160784
0.00158008
0.00155366
0.00157729
0.00152137
0.00146986
0.00142242
0.00198327
0.001898
0.00181822
0.00174351
0.00167412
0.00230437
0.00220307
0.00210857
0.0020197
0.00193718
0.0025055
0.00239466
0.00229114
0.00219396
0.00210344
0.00256817
0.00245403
0.00234739
0.00224758
0.00215388
0.0020667
0.00249844
0.00238746
0.0022838
0.0021869
0.00209579
0.00201128
0.002305
0.00220365
0.00210896
0.0020204
0.0019368
0.00185931
0.00199579
0.00191073
0.0018315
0.00175608
0.00168526
0.00161772
0.00161115
0.00154559
0.00148872
0.00143136
0.00138128
0.00132998
0.00157402
0.00154477
0.0015177
0.00149174
0.00146791
0.00144333
0.00166871
0.00164323
0.0016186
0.00159505
0.0014034
0.00135569
0.00130986
0.00126819
0.00171196
0.0016399
0.00157428
0.00151105
0.00145278
0.00199337
0.00190846
0.00182921
0.00175424
0.00168301
0.00216209
0.00206926
0.00198256
0.00190108
0.00182555
0.00220587
0.00210989
0.00202033
0.00193679
0.00185934
0.00178731
0.00214208
0.00204933
0.00196293
0.00188283
0.00180772
0.00173694
0.00198402
0.00189854
0.00181859
0.00174398
0.00167405
0.0016087
0.00171497
0.00164211
0.00157656
0.00151248
0.00145512
0.0013987
0.00134955
0.00129856
0.00125291
0.0012062
0.00116707
0.00112542
0.00156053
0.00153463
0.00151038
0.00148716
0.00146543
0.00144459
0.00167899
0.00165773
0.00163687
0.00161679
0.00109856
0.00106882
0.00104064
0.0010132
0.0013423
0.00129249
0.00124717
0.00120199
0.00116014
0.00160396
0.00154122
0.00148232
0.0014272
0.00137398
0.00174161
0.00167457
0.00161097
0.00155156
0.00149625
0.00176652
0.00169228
0.00162572
0.0015704
0.00152056
0.00147313
0.00172422
0.00166322
0.00160562
0.00155096
0.00149866
0.00144789
0.00163717
0.00157612
0.0015222
0.00147086
0.00142148
0.00137631
0.00145662
0.00140277
0.00135694
0.00131049
0.00126994
0.00122882
0.00113347
0.00110111
0.00107142
0.00104205
0.0010156
0.000989464
0.00160745
0.00158575
0.00156493
0.00154493
0.00152581
0.0015073
0.00194969
0.0019265
0.00190476
0.00188334
0.00158396
0.00156334
0.00154339
0.00152428
0.0015577
0.00153211
0.00150791
0.00148484
0.00146302
0.00157118
0.00154228
0.00151503
0.00148942
0.0014653
0.00160441
0.00157152
0.00153924
0.00151012
0.0014831
0.00163651
0.00160161
0.00156727
0.00153606
0.00150748
0.00148137
0.00165454
0.00162073
0.0015891
0.00155936
0.00153159
0.00150513
0.00166871
0.00163725
0.00160786
0.0015802
0.00155387
0.00152863
0.00169508
0.0016688
0.00164341
0.00161887
0.00159531
0.00157262
0.00170214
0.00167995
0.00165841
0.00163759
0.00161745
0.00159777
0.00197463
0.00195054
0.00192811
0.00190584
0.00188458
0.00186336
)
;

boundaryField
{
    inlet
    {
        type            fixedValue;
        value           nonuniform List<scalar> 0();
    }
    ami1
    {
        type            cyclicAMI;
        value           nonuniform List<scalar> 0();
    }
    walls
    {
        type            kqRWallFunction;
        value           nonuniform List<scalar> 
248
(
0.00197197
0.00170029
0.00169404
0.00166833
0.00165518
0.00163766
0.00160614
0.00157359
0.00156011
0.00160693
0.0019741
0.00194815
0.00167827
0.00166788
0.00163705
0.00162131
0.00160271
0.00157357
0.00154436
0.00153418
0.00158526
0.00195001
0.00192559
0.00165672
0.00164231
0.00160749
0.00158967
0.00156836
0.00154126
0.00151727
0.00150993
0.00156453
0.00192777
0.00190336
0.00163587
0.0016177
0.00157985
0.00155986
0.00153702
0.00151165
0.00149129
0.00148677
0.00154458
0.00190553
0.001882
0.00161568
0.00159407
0.00155339
0.00153187
0.00150854
0.00148512
0.00146741
0.00146502
0.00152549
0.00188432
0.00186062
0.00159596
0.0015713
0.00152806
0.00150525
0.00148195
0.00145955
0.00144269
0.00144411
0.00150697
0.00186299
0.0019741
0.00170185
0.00169513
0.00166926
0.00165566
0.00163819
0.00160642
0.00157402
0.00156053
0.00160745
0.00197463
0.00195001
0.00167974
0.00166897
0.00163789
0.00162197
0.00160343
0.00157413
0.00154477
0.00153463
0.00158575
0.00195054
0.00192777
0.00165826
0.00164364
0.00160859
0.00159042
0.00156917
0.00154186
0.0015177
0.00151038
0.00156493
0.00192811
0.00190553
0.00163752
0.00161911
0.00158097
0.0015607
0.00153785
0.00151224
0.00149174
0.00148716
0.00154493
0.00190584
0.00188432
0.00161738
0.00159553
0.00155463
0.00153291
0.00150941
0.00148576
0.00146791
0.00146543
0.00152581
0.00188458
0.00186299
0.00159771
0.00157278
0.00152938
0.00150638
0.00148286
0.00146024
0.00144333
0.00144459
0.0015073
0.00186336
0.0015577
0.00157118
0.00160441
0.00163651
0.00165454
0.00166871
0.00169508
0.00170214
0.00197463
0.00194969
0.00158396
0.00153211
0.00154228
0.00157152
0.00160161
0.00162073
0.00163725
0.0016688
0.00167995
0.00195054
0.0019265
0.00156334
0.00150791
0.00151503
0.00153924
0.00156727
0.0015891
0.00160786
0.00164341
0.00165841
0.00192811
0.00190476
0.00154339
0.00148484
0.00148942
0.00151012
0.00153606
0.00155936
0.0015802
0.00161887
0.00163759
0.00190584
0.00188334
0.00152428
0.00146302
0.0014653
0.0014831
0.00150748
0.00153159
0.00155387
0.00159531
0.00161745
0.00188458
0.00148137
0.00150513
0.00152863
0.00157262
0.00159777
0.00186336
0.00197197
0.00160465
0.00155734
0.00157105
0.0016048
0.00163689
0.0016548
0.00194815
0.00158317
0.00153179
0.00154225
0.00157153
0.00160188
0.00162089
0.00163732
0.00166871
0.00167899
0.00194969
0.00192559
0.00156243
0.00150761
0.00151488
0.00153937
0.0015675
0.00158923
0.00160784
0.00164323
0.00165773
0.0019265
0.00190336
0.00154247
0.00148452
0.00148925
0.00151005
0.00153618
0.00155953
0.00158008
0.0016186
0.00163687
0.00190476
0.001882
0.00152336
0.00146282
0.00146542
0.00148363
0.00150773
0.00153149
0.00155366
0.00159505
0.00161679
0.00188334
0.00186062
0.0015048
0.00144197
0.00144065
0.00145808
0.00148118
)
;
    }
    ami2
    {
        type            cyclicAMI;
        value           nonuniform List<scalar> 0();
    }
    outlet
    {
        type            zeroGradient;
    }
    procBoundary7to5
    {
        type            processor;
        value           nonuniform List<scalar> 
131
(
0.00184072
0.00157703
0.00154952
0.00150442
0.00148086
0.00145808
0.00143654
0.00141995
0.00142517
0.00148982
0.00184304
0.00148774
0.000965023
0.00119026
0.00133041
0.00140022
0.00142865
0.00140033
0.00128603
0.00109317
0.000969014
0.00157882
0.00142318
0.00108809
0.0013447
0.00154469
0.00166769
0.0017174
0.00168572
0.00155473
0.00134788
0.00119358
0.00155101
0.00141803
0.00128073
0.00155218
0.00178343
0.00192946
0.00198298
0.00193681
0.00178485
0.00154712
0.00133346
0.00150576
0.00143525
0.00139726
0.00168481
0.00193663
0.00209916
0.00215647
0.00209945
0.00193084
0.00167014
0.00140372
0.00148203
0.00145745
0.00150542
0.00142803
0.00144717
0.00171774
0.00173637
0.00198372
0.00201116
0.00215685
0.0021881
0.00221747
0.00215695
0.00198431
0.00171959
0.00143094
0.00145907
0.00150542
0.00144717
0.00173637
0.00201116
0.0021881
0.0021881
0.00215687
0.00209976
0.0019378
0.00168747
0.00140249
0.00143737
0.00152866
0.00137455
0.00160786
0.00185883
0.0020179
0.0020179
0.00198365
0.0019306
0.00178533
0.00155617
0.00128793
0.00142069
0.00157238
0.00122887
0.00139789
0.00161663
0.00175361
0.00175361
0.00171779
0.00166912
0.00154701
0.00134888
0.00109449
0.00142577
0.00159749
0.000991305
0.00112504
0.00132659
0.00144534
0.00144534
0.00142843
0.00140196
0.00133269
0.00119351
0.000969197
0.00149028
0.00186311
0.00150681
0.00144315
0.00144112
0.00145881
0.00145881
0.00145756
0.00148093
0.00150512
0.00155092
0.00157895
0.0018435
)
;
    }
    procBoundary7to8
    {
        type            processor;
        value           nonuniform List<scalar> 
68
(
0.00199525
0.00172312
0.00172269
0.00170151
0.00169145
0.00162602
0.00115643
0.0015072
0.0016994
0.00179331
0.00158412
0.00139371
0.00178587
0.00207273
0.00224137
0.00160145
0.00167077
0.0020827
0.00241175
0.00261684
0.00163815
0.00181294
0.00226017
0.00262362
0.00285454
0.00293475
0.00166843
0.00184302
0.00230776
0.00269034
0.00293506
0.0030199
0.00169095
0.0016682
0.0017929
0.0016344
0.00224168
0.00261741
0.00285487
0.00293509
0.0016682
0.0016344
0.0016344
0.002074
0.0024127
0.0026241
0.00269043
0.00169443
0.0014517
0.0014517
0.00178863
0.00208421
0.00226077
0.00230791
0.00170045
0.00112579
0.00112579
0.00139672
0.00167182
0.00181295
0.00184271
0.00197198
0.0016044
0.0016044
0.00158465
0.00160155
0.00163772
0.0016679
)
;
    }
    procBoundary7to9
    {
        type            processor;
        value           nonuniform List<scalar> 
59
(
0.0016692
0.00163957
0.00160373
0.00158699
0.00162862
0.00199726
0.00184426
0.00181573
0.00167444
0.00140062
0.00116128
0.00172469
0.00230809
0.00226152
0.00208504
0.00178868
0.00150771
0.00172345
0.00269002
0.00262398
0.00241282
0.0020743
0.00169916
0.00170199
0.00285461
0.0026177
0.00224279
0.00179469
0.00169184
0.00293505
0.00269101
0.00230945
0.00184537
0.00166943
0.00285485
0.00262476
0.00226275
0.00181674
0.00163976
0.00261746
0.00241343
0.00208654
0.00167619
0.00160415
0.00224187
0.0020746
0.00179126
0.00140333
0.00158748
0.00179261
0.0016986
0.00151022
0.00116291
0.00162907
0.00169081
0.0017015
0.00172359
0.00172506
0.00199788
)
;
    }
}


// ************************************************************************* //
