/*--------------------------------*- C++ -*----------------------------------*\
| =========                 |                                                 |
| \\      /  F ield         | OpenFOAM: The Open Source CFD Toolbox           |
|  \\    /   O peration     | Version:  2212                                  |
|   \\  /    A nd           | Website:  www.openfoam.com                      |
|    \\/     M anipulation  |                                                 |
\*---------------------------------------------------------------------------*/
FoamFile
{
    version     2.0;
    format      ascii;
    arch        "LSB;label=32;scalar=64";
    class       surfaceVectorField;
    location    "2.6";
    object      Uf;
}
// * * * * * * * * * * * * * * * * * * * * * * * * * * * * * * * * * * * * * //

dimensions      [0 1 -1 0 0 0 0];

internalField   nonuniform List<vector> 
1826
(
(0.0242553 -3.46849e-05 1.15329e-05)
(0.0309952 -0.000102252 -3.32937e-05)
(0.029921 -2.57139e-05 4.03888e-05)
(0.024012 -3.34478e-05 1.19041e-05)
(0.0307007 -9.83335e-05 -3.03579e-05)
(0.0296393 -2.66669e-05 3.73275e-05)
(0.0237761 -3.23512e-05 1.34656e-05)
(0.0304115 -9.65551e-05 -2.62266e-05)
(0.0293653 -2.51098e-05 3.73831e-05)
(0.0235437 -3.16835e-05 1.50864e-05)
(0.0301244 -9.66244e-05 -2.24303e-05)
(0.029095 -2.40166e-05 3.85727e-05)
(0.0233153 -3.10263e-05 1.60665e-05)
(0.0298462 -9.62694e-05 -1.94341e-05)
(0.0288355 -2.29942e-05 3.95928e-05)
(0.0295653 -9.49465e-05 -1.76013e-05)
(0.028573 -2.26149e-05 3.94715e-05)
(0.0407419 -0.00017771 -9.67234e-05)
(0.0479981 -0.000242366 -0.000230924)
(0.0542694 -0.000196326 -4.81252e-05)
(0.0403739 -0.000174628 -8.84615e-05)
(0.0475671 -0.000236128 -0.000215431)
(0.053881 -0.000195043 -4.752e-05)
(0.0400115 -0.000173931 -8.08912e-05)
(0.0471378 -0.000233101 -0.000202749)
(0.0534939 -0.000191475 -4.38647e-05)
(0.0396512 -0.000173925 -7.48256e-05)
(0.0467122 -0.000232042 -0.000192293)
(0.0531041 -0.000191064 -4.08697e-05)
(0.0392962 -0.000172039 -7.02525e-05)
(0.0463002 -0.000229611 -0.00018398)
(0.0527312 -0.000188912 -3.7972e-05)
(0.0458849 -0.000223872 -0.000177481)
(0.0523484 -0.000187256 -3.6212e-05)
(0.0565484 -0.000300838 -0.000382656)
(0.0612945 -0.00039763 -0.000555509)
(0.0726943 -0.000388581 -0.000381982)
(0.0560366 -0.000294747 -0.000361251)
(0.0607279 -0.000390963 -0.000533188)
(0.0723175 -0.000382296 -0.00036847)
(0.0555337 -0.000292455 -0.000344507)
(0.0601602 -0.000388701 -0.000514702)
(0.0719372 -0.000375541 -0.000355198)
(0.0550389 -0.000289509 -0.000330859)
(0.0596088 -0.000384217 -0.00049889)
(0.0715571 -0.000373247 -0.000344802)
(0.0545532 -0.000284648 -0.000319657)
(0.0590649 -0.00037852 -0.000485023)
(0.0711798 -0.000368804 -0.000335422)
(0.0585295 -0.000372098 -0.000472556)
(0.0708 -0.000362588 -0.000327018)
(0.0660913 -0.000511125 -0.000725529)
(0.068918 -0.00054187 -0.000820131)
(0.0822676 -0.000552529 -0.000716097)
(0.065458 -0.000504712 -0.000707297)
(0.0682594 -0.000530774 -0.000804827)
(0.0818757 -0.000546889 -0.000701542)
(0.0648378 -0.000498589 -0.000690099)
(0.0676055 -0.00052145 -0.000789019)
(0.0814808 -0.000543513 -0.000688308)
(0.0642276 -0.000491382 -0.000673816)
(0.0669677 -0.00051255 -0.000772357)
(0.0810926 -0.000540352 -0.000675429)
(0.0636271 -0.000483366 -0.000658573)
(0.0663341 -0.000503394 -0.00075502)
(0.0806997 -0.000535386 -0.000662754)
(0.065716 -0.000493132 -0.000738296)
(0.0803138 -0.000530536 -0.000651239)
(0.0712673 -0.000592123 -0.000894219)
(0.071827 -0.000604851 -0.000898423)
(0.0869136 -0.000646198 -0.000894675)
(0.0705857 -0.000578959 -0.000881086)
(0.0711561 -0.000589613 -0.00088365)
(0.0865154 -0.000642592 -0.000883042)
(0.069913 -0.000567807 -0.000865418)
(0.070497 -0.000575751 -0.000865506)
(0.0861191 -0.000639292 -0.000870191)
(0.0692492 -0.00055756 -0.000847357)
(0.0698483 -0.000563505 -0.000844198)
(0.0857231 -0.000635097 -0.000855442)
(0.0685958 -0.000546476 -0.000828232)
(0.0692149 -0.000550238 -0.000821628)
(0.0853284 -0.000629291 -0.000839439)
(0.0685945 -0.000534766 -0.000799468)
(0.0849351 -0.000620414 -0.000822834)
(0.0717211 -0.000601672 -0.000888198)
(0.070183 -0.000565744 -0.000840295)
(0.0873079 -0.000649874 -0.000909986)
(0.0710735 -0.000586072 -0.000868144)
(0.069565 -0.000550261 -0.000817023)
(0.0869392 -0.000642714 -0.000888898)
(0.0704392 -0.000568829 -0.000845463)
(0.0689641 -0.000529252 -0.000791625)
(0.086575 -0.000634596 -0.000869563)
(0.0698203 -0.000550607 -0.000821101)
(0.0683746 -0.000504857 -0.000764564)
(0.0862159 -0.00062683 -0.000851768)
(0.0692186 -0.000530966 -0.000796439)
(0.06781 -0.000477914 -0.000737481)
(0.0858623 -0.000617526 -0.000834011)
(0.0672547 -0.000451322 -0.000709607)
(0.085516 -0.000604586 -0.000814206)
(0.0680676 -0.000511496 -0.000773)
(0.0647152 -0.000415678 -0.000662081)
(0.0842336 -0.000554933 -0.000817556)
(0.0674961 -0.000488195 -0.000746145)
(0.0641746 -0.000394003 -0.000631021)
(0.0839065 -0.00054083 -0.000793811)
(0.066941 -0.000458894 -0.000717299)
(0.0636676 -0.000363118 -0.000588433)
(0.0835896 -0.000521451 -0.000768165)
(0.0664024 -0.000426441 -0.00068724)
(0.0631662 -0.000328109 -0.000547823)
(0.0832782 -0.000500216 -0.000745968)
(0.0658816 -0.000393621 -0.000656386)
(0.0626983 -0.000296189 -0.000514799)
(0.0829782 -0.000477315 -0.000723297)
(0.062228 -0.000269266 -0.000485761)
(0.0826796 -0.00045458 -0.00069989)
(0.0610673 -0.000295819 -0.000536761)
(0.0560809 -0.000206756 -0.000393779)
(0.0781928 -0.000328222 -0.00062637)
(0.0605871 -0.000271151 -0.000486925)
(0.0556291 -0.000192759 -0.000370111)
(0.077897 -0.000310728 -0.000602506)
(0.0601319 -0.000240409 -0.000428691)
(0.0552094 -0.000174625 -0.000340105)
(0.0776182 -0.000288173 -0.000569173)
(0.0596971 -0.000210707 -0.000381588)
(0.0547822 -0.00015662 -0.000310772)
(0.0773405 -0.000264196 -0.000538562)
(0.0592757 -0.000186729 -0.000348466)
(0.0543875 -0.000141503 -0.000289193)
(0.0770754 -0.000243016 -0.000517971)
(0.0539796 -0.000130168 -0.00027084)
(0.0768051 -0.000225961 -0.000502645)
(0.0512755 -0.000106379 -0.000255495)
(0.0441604 -6.26944e-05 -0.000180156)
(0.0685744 -9.04582e-05 -0.00040646)
(0.0508753 -9.90881e-05 -0.000247569)
(0.0437893 -5.73416e-05 -0.000173077)
(0.0682531 -8.05672e-05 -0.000402547)
(0.050482 -9.30085e-05 -0.000242085)
(0.0434379 -5.57695e-05 -0.000166291)
(0.0679453 -7.30406e-05 -0.000401615)
(0.050094 -8.74773e-05 -0.0002362)
(0.043079 -5.49432e-05 -0.000159613)
(0.0676211 -6.62207e-05 -0.000401623)
(0.0497104 -8.26627e-05 -0.000228901)
(0.0427427 -5.34885e-05 -0.000154503)
(0.0673124 -6.00516e-05 -0.000400227)
(0.0423948 -5.18902e-05 -0.000148771)
(0.0669882 -5.43651e-05 -0.000396535)
(0.0381092 -5.79563e-05 -6.4443e-05)
(0.0299507 -4.46231e-05 -2.54832e-05)
(0.0528185 -1.04169e-05 -0.000166737)
(0.0377773 -5.43522e-05 -6.27713e-05)
(0.0296658 -4.12855e-05 -2.5707e-05)
(0.0524381 -5.87429e-06 -0.000164911)
(0.0374548 -5.38159e-05 -5.95566e-05)
(0.029395 -4.0608e-05 -2.49541e-05)
(0.0520792 -4.70711e-06 -0.000161679)
(0.0371408 -5.41676e-05 -5.64783e-05)
(0.0291249 -4.11523e-05 -2.37951e-05)
(0.0517122 -5.32524e-06 -0.00015843)
(0.0368329 -5.40773e-05 -5.42386e-05)
(0.028867 -4.16751e-05 -2.304e-05)
(0.0513663 -6.27896e-06 -0.000155836)
(0.0286049 -4.14145e-05 -2.27306e-05)
(0.0510089 -6.49097e-06 -0.000154621)
(0.0242754 -1.44669e-05 -3.5252e-05)
(0.0310213 3.05154e-05 -0.0001053)
(0.0240341 -1.45527e-05 -3.39464e-05)
(0.0307239 2.71083e-05 -0.000100176)
(0.0237987 -1.56766e-05 -3.28089e-05)
(0.0304387 2.34089e-05 -9.79839e-05)
(0.0235683 -1.6999e-05 -3.19818e-05)
(0.0301526 1.98452e-05 -9.71494e-05)
(0.023341 -1.78889e-05 -3.14123e-05)
(0.0298765 1.68966e-05 -9.67459e-05)
(0.0295966 1.48067e-05 -9.57196e-05)
(0.0380713 -6.58249e-05 5.26145e-05)
(0.0527722 -0.000165136 4.88055e-06)
(0.044112 -0.000179004 5.73114e-05)
(0.0377377 -6.40241e-05 4.98091e-05)
(0.0524018 -0.000165824 2.88552e-07)
(0.0437501 -0.000173917 5.21664e-05)
(0.037416 -5.99063e-05 5.02972e-05)
(0.0520359 -0.000160913 -3.16034e-07)
(0.043393 -0.00016629 5.19203e-05)
(0.0371004 -5.66115e-05 5.14867e-05)
(0.0516695 -0.000159307 7.35634e-07)
(0.0430342 -0.000160101 5.17461e-05)
(0.036792 -5.41925e-05 5.19995e-05)
(0.0513227 -0.000156134 2.39055e-06)
(0.0426969 -0.000154486 5.11099e-05)
(0.0509654 -0.000154723 2.92279e-06)
(0.0423495 -0.000148308 5.02462e-05)
(0.0708645 -0.0003222 -5.69548e-05)
(0.0804631 -0.000471659 -0.000224462)
(0.0792053 -0.000502311 -2.54811e-05)
(0.0704455 -0.000316364 -5.96604e-05)
(0.0801384 -0.000464707 -0.000225352)
(0.0788826 -0.000499565 -3.08389e-05)
(0.0700312 -0.000310533 -6.01732e-05)
(0.0798097 -0.000453965 -0.00022222)
(0.0785564 -0.000489437 -3.50412e-05)
(0.0696202 -0.000304662 -5.91238e-05)
(0.0794734 -0.000447809 -0.00022071)
(0.0782258 -0.000485786 -3.72004e-05)
(0.0692145 -0.000299772 -5.76033e-05)
(0.0791437 -0.000438845 -0.000217166)
(0.0779031 -0.000479914 -3.78806e-05)
(0.0788036 -0.000432295 -0.000214276)
(0.0775692 -0.000478677 -3.86315e-05)
(0.0912485 -0.000565951 -0.000436271)
(0.0956066 -0.000605448 -0.00059746)
(0.0982946 -0.000762182 -0.000388422)
(0.0910226 -0.000556355 -0.000430076)
(0.0954339 -0.000601376 -0.000592379)
(0.0982207 -0.000759112 -0.000388105)
(0.0907897 -0.000548709 -0.00042358)
(0.0952554 -0.000594501 -0.000583929)
(0.0981365 -0.000749139 -0.000385066)
(0.0905463 -0.000544773 -0.000418047)
(0.0950652 -0.000595234 -0.000577097)
(0.0980454 -0.000747093 -0.00038412)
(0.0902931 -0.000538702 -0.000411702)
(0.0948646 -0.000592314 -0.000568471)
(0.0979363 -0.000744179 -0.000382382)
(0.0946584 -0.000590057 -0.00056046)
(0.0978254 -0.000741133 -0.000381397)
(0.100216 -0.000662254 -0.000763308)
(0.102094 -0.000701621 -0.000856123)
(0.10663 -0.000797007 -0.000732183)
(0.100096 -0.000661365 -0.000755896)
(0.101997 -0.000706557 -0.000847716)
(0.106663 -0.000795366 -0.000728283)
(0.0999641 -0.000661432 -0.000747641)
(0.101892 -0.000709354 -0.000838116)
(0.106693 -0.000797195 -0.000724563)
(0.0998226 -0.000660591 -0.000738476)
(0.101777 -0.000711135 -0.000828241)
(0.10671 -0.000801575 -0.000721122)
(0.099673 -0.000658448 -0.000729139)
(0.101653 -0.000709223 -0.000818566)
(0.106721 -0.000804859 -0.000716525)
(0.101521 -0.000705481 -0.000808259)
(0.106724 -0.000808489 -0.00071186)
(0.103974 -0.000749509 -0.000944799)
(0.104142 -0.000737291 -0.000964973)
(0.110144 -0.000807722 -0.00094145)
(0.103895 -0.000757596 -0.000934469)
(0.104078 -0.000742465 -0.000948743)
(0.110218 -0.00081761 -0.00093515)
(0.103807 -0.00076238 -0.0009231)
(0.104009 -0.000746354 -0.000935807)
(0.110285 -0.000826579 -0.000929353)
(0.10371 -0.000764321 -0.000912154)
(0.103933 -0.000749951 -0.000926233)
(0.110347 -0.000831846 -0.000922997)
(0.103605 -0.00076246 -0.000900724)
(0.103847 -0.000752492 -0.000916904)
(0.110401 -0.000833373 -0.000915653)
(0.103756 -0.000749087 -0.00090478)
(0.110451 -0.000831477 -0.000906231)
(0.104249 -0.000730252 -0.000969032)
(0.103112 -0.000673453 -0.000942026)
(0.11055 -0.000727275 -0.00101713)
(0.104196 -0.000732058 -0.000949633)
(0.103066 -0.000670474 -0.00091927)
(0.110642 -0.000730197 -0.000999642)
(0.104138 -0.000735818 -0.000937905)
(0.103016 -0.000667259 -0.00089974)
(0.11073 -0.000733755 -0.000987016)
(0.104073 -0.000739687 -0.000930165)
(0.102965 -0.000665918 -0.000889071)
(0.110814 -0.000738786 -0.000980253)
(0.104 -0.000739707 -0.000920703)
(0.102904 -0.000661727 -0.000879747)
(0.110892 -0.000743172 -0.000976274)
(0.102841 -0.000654592 -0.00086872)
(0.110969 -0.000741835 -0.000966614)
(0.10195 -0.000612799 -0.00089415)
(0.0996007 -0.000492658 -0.000826148)
(0.108661 -0.000556077 -0.000992351)
(0.101907 -0.000603534 -0.000872181)
(0.0995484 -0.000480634 -0.000810375)
(0.108756 -0.000549683 -0.00097521)
(0.101863 -0.000593759 -0.000854796)
(0.0994874 -0.000467006 -0.000794984)
(0.108848 -0.000541891 -0.000958125)
(0.101816 -0.000584178 -0.000842775)
(0.0994272 -0.000454219 -0.000784905)
(0.108942 -0.000535554 -0.00094821)
(0.101762 -0.000573853 -0.000831289)
(0.0993545 -0.000441747 -0.000777056)
(0.109029 -0.000528207 -0.000939263)
(0.0992804 -0.000430423 -0.000770371)
(0.109119 -0.000519121 -0.000928541)
(0.0973226 -0.000362552 -0.000749821)
(0.0927968 -0.00022075 -0.000686193)
(0.104632 -0.000265116 -0.000895772)
(0.0972537 -0.000346126 -0.00074047)
(0.0926523 -0.000204995 -0.000684176)
(0.104701 -0.000250233 -0.000886599)
(0.0971772 -0.000329321 -0.000732413)
(0.0925033 -0.000189899 -0.000680537)
(0.10476 -0.000234708 -0.000874096)
(0.0970919 -0.000313292 -0.000726748)
(0.0923454 -0.000175599 -0.000678933)
(0.104821 -0.000219353 -0.000863787)
(0.0969984 -0.000299053 -0.000724147)
(0.0921805 -0.000163558 -0.000678377)
(0.104869 -0.000205261 -0.000859991)
(0.0920079 -0.000152807 -0.000680737)
(0.104918 -0.000192633 -0.000861547)
(0.0885417 -7.25084e-05 -0.000630344)
(0.0792378 2.01492e-05 -0.000501445)
(0.0968506 7.38262e-05 -0.00079807)
(0.0883243 -6.12333e-05 -0.000630399)
(0.0789055 2.48864e-05 -0.000496056)
(0.0967807 8.4037e-05 -0.000796389)
(0.0881013 -5.14364e-05 -0.000629915)
(0.0785888 2.81605e-05 -0.000488762)
(0.0967026 9.27692e-05 -0.000792299)
(0.0878711 -4.28627e-05 -0.000631128)
(0.078255 3.05629e-05 -0.000483996)
(0.0966156 0.00010104 -0.000791702)
(0.0876326 -3.55462e-05 -0.00063381)
(0.077935 3.21419e-05 -0.000479876)
(0.0965177 0.000108359 -0.000792325)
(0.0775993 3.33202e-05 -0.000478987)
(0.0964133 0.000113882 -0.000794181)
(0.070907 5.11999e-05 -0.000323972)
(0.0543105 4.36932e-05 -0.000199253)
(0.0804951 0.00022016 -0.000475956)
(0.0704896 5.34487e-05 -0.00031731)
(0.0539127 4.20043e-05 -0.00019579)
(0.0801613 0.000219294 -0.000465531)
(0.0700767 5.37814e-05 -0.000310523)
(0.0535338 3.92272e-05 -0.000193132)
(0.0798391 0.00021718 -0.000456351)
(0.0696677 5.28293e-05 -0.000304351)
(0.0531445 3.60224e-05 -0.000190871)
(0.0795017 0.000213802 -0.000446615)
(0.0692615 5.16762e-05 -0.000300356)
(0.0527733 3.30977e-05 -0.000189204)
(0.0791737 0.000210444 -0.0004394)
(0.0523909 3.10493e-05 -0.000187981)
(0.0788335 0.000207572 -0.000433292)
(0.0407707 9.35768e-05 -0.000181372)
(0.0480351 0.000228906 -0.000246589)
(0.0404062 8.48413e-05 -0.000176848)
(0.0475963 0.000212101 -0.000237028)
(0.0400451 7.74504e-05 -0.00017524)
(0.0471763 0.000199219 -0.000234147)
(0.0396882 7.12893e-05 -0.000174534)
(0.0467506 0.000188655 -0.000232169)
(0.0393349 6.63205e-05 -0.000173023)
(0.0463406 0.000179991 -0.000230692)
(0.045926 0.000172704 -0.000225929)
(0.0512261 -0.000253171 0.000101361)
(0.0685395 -0.000405658 8.41723e-05)
(0.0560205 -0.000390756 0.000202683)
(0.0508263 -0.000247471 9.424e-05)
(0.0682266 -0.000406913 7.47445e-05)
(0.0555865 -0.000365602 0.000187585)
(0.0504323 -0.000243205 8.87528e-05)
(0.0679108 -0.000404167 6.77626e-05)
(0.055155 -0.000336773 0.000168521)
(0.0500417 -0.000236917 8.43011e-05)
(0.0675892 -0.000404691 6.13449e-05)
(0.0547359 -0.000310064 0.00015142)
(0.0496588 -0.000228171 8.09135e-05)
(0.0672777 -0.000401197 5.61168e-05)
(0.0543363 -0.000287518 0.000138884)
(0.0669557 -0.0003966 5.14193e-05)
(0.0539323 -0.000268629 0.0001294)
(0.0885345 -0.000638695 6.56331e-05)
(0.0968603 -0.000802387 -7.95764e-05)
(0.0928035 -0.000690688 0.000213096)
(0.0883126 -0.000636178 5.44382e-05)
(0.0967887 -0.000804189 -9.11122e-05)
(0.0926558 -0.000691494 0.00019824)
(0.0880893 -0.000631964 4.47737e-05)
(0.0967072 -0.000794728 -9.9558e-05)
(0.0925057 -0.000682646 0.000183396)
(0.087859 -0.000632944 3.66224e-05)
(0.0966227 -0.000793759 -0.000107619)
(0.0923479 -0.000683921 0.000170017)
(0.0876202 -0.000634859 2.99093e-05)
(0.0965215 -0.000793571 -0.000114624)
(0.0921809 -0.00067925 0.000157885)
(0.0964177 -0.000795785 -0.000120008)
(0.0920086 -0.000680559 0.000147499)
(0.106098 -0.000921004 -0.000275579)
(0.109684 -0.000892584 -0.000447518)
(0.109224 -0.000944593 -7.69692e-05)
(0.106184 -0.000921301 -0.000282423)
(0.109828 -0.000895945 -0.000450489)
(0.109373 -0.000946993 -8.8599e-05)
(0.106257 -0.000919299 -0.000287705)
(0.109963 -0.000897328 -0.000453735)
(0.109514 -0.000939907 -9.83083e-05)
(0.106318 -0.000920687 -0.000293352)
(0.110092 -0.00090336 -0.000457579)
(0.109652 -0.000936988 -0.000108664)
(0.106368 -0.000922092 -0.000298516)
(0.110205 -0.000910862 -0.000461474)
(0.109776 -0.000937383 -0.000118512)
(0.110315 -0.000916222 -0.000464113)
(0.109901 -0.000939975 -0.000125787)
(0.113697 -0.000887427 -0.000626935)
(0.115165 -0.000859197 -0.000743372)
(0.116502 -0.000867261 -0.000426494)
(0.113897 -0.00088881 -0.000627329)
(0.115383 -0.000862367 -0.000741496)
(0.116761 -0.000866068 -0.000429166)
(0.114089 -0.000896188 -0.00063001)
(0.115597 -0.000870939 -0.000743327)
(0.117017 -0.00086923 -0.000433559)
(0.114275 -0.000906257 -0.000632976)
(0.115804 -0.000879732 -0.000744882)
(0.117269 -0.000875007 -0.000438893)
(0.114453 -0.000916853 -0.000634708)
(0.116006 -0.000886319 -0.000743337)
(0.117516 -0.000884925 -0.000443998)
(0.116205 -0.000892169 -0.000740183)
(0.117759 -0.00089383 -0.000447009)
(0.11692 -0.000832894 -0.000863032)
(0.11707 -0.000755111 -0.000925358)
(0.119694 -0.000757937 -0.000675294)
(0.117153 -0.000844192 -0.000862215)
(0.117311 -0.000762695 -0.000918747)
(0.119989 -0.000764552 -0.000674706)
(0.117382 -0.000854468 -0.000862764)
(0.117548 -0.000771026 -0.000915494)
(0.120282 -0.000772743 -0.000677074)
(0.117608 -0.000859144 -0.000859935)
(0.117782 -0.00077702 -0.000913457)
(0.120571 -0.000778964 -0.000679067)
(0.117831 -0.000859974 -0.000853723)
(0.118013 -0.000780172 -0.0009105)
(0.120859 -0.00078301 -0.000678539)
(0.118243 -0.00078012 -0.00090202)
(0.121146 -0.000785597 -0.000675434)
(0.117465 -0.00068512 -0.000981202)
(0.116629 -0.00056888 -0.00100233)
(0.120363 -0.00056371 -0.000829264)
(0.117709 -0.000690418 -0.000971687)
(0.116873 -0.000569757 -0.000991228)
(0.120668 -0.000567636 -0.00082157)
(0.117951 -0.000695796 -0.000965032)
(0.117115 -0.000571199 -0.000981001)
(0.12097 -0.000572241 -0.000816311)
(0.118192 -0.000701413 -0.000962226)
(0.117357 -0.000572997 -0.000975207)
(0.121272 -0.000577099 -0.000814128)
(0.118431 -0.00070378 -0.000956959)
(0.117595 -0.000573871 -0.00097166)
(0.121573 -0.000582368 -0.0008153)
(0.117836 -0.000568928 -0.000961358)
(0.121873 -0.000582768 -0.000810036)
(0.116046 -0.000453593 -0.00101313)
(0.114233 -0.00028613 -0.00100043)
(0.11913 -0.000298792 -0.000905385)
(0.116288 -0.000449318 -0.0010022)
(0.114461 -0.000277745 -0.000992886)
(0.119428 -0.000295623 -0.000896504)
(0.116529 -0.000445668 -0.000993855)
(0.114684 -0.000269034 -0.000981254)
(0.119726 -0.000292571 -0.000888419)
(0.11677 -0.000442083 -0.000987796)
(0.114912 -0.000261531 -0.00097353)
(0.120024 -0.000290607 -0.000884092)
(0.117011 -0.000435849 -0.000979147)
(0.115132 -0.000253134 -0.000970699)
(0.12032 -0.000287967 -0.000882681)
(0.115356 -0.000242658 -0.000969672)
(0.12062 -0.000282383 -0.000877921)
(0.11272 -0.000116175 -0.000981844)
(0.109195 7.24376e-05 -0.000944574)
(0.115989 5.12773e-05 -0.000912532)
(0.112931 -0.000103911 -0.000973263)
(0.109348 8.27695e-05 -0.000941623)
(0.116254 5.95111e-05 -0.000910553)
(0.113139 -9.16336e-05 -0.000962232)
(0.109486 9.31049e-05 -0.000935793)
(0.116514 6.80527e-05 -0.000904085)
(0.113346 -7.98908e-05 -0.000957419)
(0.109627 0.000103115 -0.0009334)
(0.116778 7.6484e-05 -0.000899853)
(0.11355 -6.87352e-05 -0.000960941)
(0.109751 0.000111905 -0.000935302)
(0.117035 8.51902e-05 -0.000904294)
(0.109877 0.000118564 -0.000938023)
(0.117294 9.29386e-05 -0.000912826)
(0.106071 0.000269715 -0.000917412)
(0.0982845 0.000384482 -0.000765282)
(0.10966 0.000443013 -0.000893417)
(0.106157 0.000275962 -0.000914988)
(0.0982128 0.000382813 -0.000756594)
(0.109809 0.000445242 -0.00089213)
(0.106232 0.000281556 -0.000915099)
(0.0981285 0.00038029 -0.000750027)
(0.109941 0.000448224 -0.000894868)
(0.106294 0.000287196 -0.000917763)
(0.0980373 0.000377647 -0.000745133)
(0.110071 0.000451721 -0.000900782)
(0.106346 0.000292033 -0.0009192)
(0.0979303 0.000375979 -0.000743377)
(0.110184 0.000455571 -0.000908118)
(0.0978208 0.000374748 -0.000740307)
(0.110295 0.000457779 -0.000912539)
(0.0912555 0.000431889 -0.000568856)
(0.0727213 0.000379507 -0.000392362)
(0.0956073 0.00059491 -0.00060875)
(0.0910312 0.000425157 -0.000559324)
(0.0723374 0.000363459 -0.000381757)
(0.0954382 0.000586106 -0.000601374)
(0.0907975 0.00041788 -0.000550918)
(0.071965 0.00035078 -0.000377454)
(0.0952577 0.000579244 -0.000599226)
(0.0905551 0.0004107 -0.000544132)
(0.0715831 0.000339194 -0.000372886)
(0.0950687 0.00056854 -0.000593684)
(0.090303 0.000404264 -0.000538895)
(0.0712078 0.000329603 -0.000370099)
(0.0948708 0.000561458 -0.000593021)
(0.0708282 0.000320337 -0.000364574)
(0.0946653 0.000553452 -0.000591249)
(0.0565828 0.000380494 -0.000302574)
(0.0613386 0.000552651 -0.000396393)
(0.0560757 0.000357952 -0.000294935)
(0.0607592 0.000529574 -0.000389708)
(0.0555753 0.000340669 -0.000292698)
(0.060206 0.000510558 -0.000387751)
(0.0550827 0.000326581 -0.000290973)
(0.0596505 0.000494552 -0.000385184)
(0.0545968 0.000314603 -0.000287734)
(0.0591094 0.000479754 -0.000381895)
(0.0585746 0.00046608 -0.000376324)
(0.0610144 -0.000532602 0.000290475)
(0.0781699 -0.000626185 0.000322153)
(0.0646645 -0.000663267 0.000410416)
(0.0605357 -0.000478608 0.000264652)
(0.0778817 -0.00060074 0.000304424)
(0.064137 -0.000626935 0.000388089)
(0.0600838 -0.000422111 0.00023409)
(0.0775974 -0.000567024 0.000281834)
(0.0636205 -0.000583119 0.000356758)
(0.0596502 -0.000378104 0.000206076)
(0.077326 -0.000540556 0.000258893)
(0.0631301 -0.000544254 0.000323537)
(0.0592292 -0.00034618 0.000184125)
(0.0770563 -0.000517413 0.000238519)
(0.0626553 -0.000513399 0.000292461)
(0.0767884 -0.000501559 0.000222688)
(0.0621901 -0.000485482 0.000267002)
(0.0973427 -0.000752597 0.000355455)
(0.104657 -0.000896737 0.00025959)
(0.0996209 -0.000827863 0.000486872)
(0.0972732 -0.000744201 0.00033948)
(0.104721 -0.000889432 0.000244095)
(0.0995629 -0.000813862 0.00047468)
(0.0971948 -0.000738051 0.000323492)
(0.104784 -0.000876117 0.000228397)
(0.0995071 -0.000797593 0.000461808)
(0.0971074 -0.000731408 0.000307802)
(0.10484 -0.000869506 0.000213778)
(0.0994418 -0.000790158 0.00044896)
(0.0970131 -0.00072404 0.000293388)
(0.10489 -0.000861006 0.000199342)
(0.0993714 -0.000778191 0.00043573)
(0.104938 -0.000861073 0.000186552)
(0.0992957 -0.000769208 0.000424331)
(0.112745 -0.000983369 0.000111972)
(0.116008 -0.000911284 -5.45432e-05)
(0.114254 -0.00100012 0.000283431)
(0.112957 -0.000976573 9.91001e-05)
(0.116272 -0.000912161 -6.30117e-05)
(0.11448 -0.00099469 0.000273381)
(0.113165 -0.00096626 8.64288e-05)
(0.116536 -0.000906915 -7.19565e-05)
(0.114707 -0.000984392 0.000263865)
(0.113373 -0.000959977 7.41118e-05)
(0.116797 -0.000903262 -8.0971e-05)
(0.114933 -0.000977707 0.000255794)
(0.113577 -0.000961284 6.22269e-05)
(0.117057 -0.000905577 -9.05814e-05)
(0.115155 -0.000972922 0.000247227)
(0.117315 -0.000913253 -9.9151e-05)
(0.115378 -0.000969777 0.00023585)
(0.119756 -0.000855926 -0.000230965)
(0.121146 -0.000779312 -0.000356254)
(0.121035 -0.000831044 -4.73887e-05)
(0.120076 -0.000855608 -0.000236669)
(0.121485 -0.000779678 -0.000360422)
(0.121374 -0.00082769 -5.16091e-05)
(0.120395 -0.000855905 -0.000242422)
(0.121823 -0.000780465 -0.00036507)
(0.121712 -0.000825055 -5.54605e-05)
(0.120712 -0.000860506 -0.000248868)
(0.122159 -0.000782617 -0.000369743)
(0.12205 -0.000823942 -5.93788e-05)
(0.121028 -0.000868624 -0.00025536)
(0.122496 -0.00079067 -0.000375017)
(0.122387 -0.000829594 -6.43754e-05)
(0.12283 -0.000797545 -0.000377934)
(0.122724 -0.000834469 -7.09366e-05)
(0.122934 -0.000696465 -0.00049243)
(0.123152 -0.000571912 -0.000587202)
(0.124183 -0.000623115 -0.000310724)
(0.123291 -0.000699465 -0.000494709)
(0.123514 -0.000574489 -0.000585338)
(0.124563 -0.000623904 -0.000312474)
(0.123648 -0.000702901 -0.000497842)
(0.123876 -0.00057781 -0.000585025)
(0.124942 -0.000625429 -0.000315092)
(0.124004 -0.000707995 -0.000501566)
(0.124236 -0.000581008 -0.000586155)
(0.125321 -0.000627273 -0.000317622)
(0.124359 -0.000713552 -0.000503819)
(0.124598 -0.000585914 -0.00058979)
(0.125701 -0.000631406 -0.000320377)
(0.124958 -0.000588777 -0.000589493)
(0.126079 -0.000633936 -0.000321507)
(0.123737 -0.000450911 -0.000679826)
(0.123035 -0.000296694 -0.000743707)
(0.125036 -0.000341255 -0.000521802)
(0.124103 -0.000453464 -0.000675527)
(0.123397 -0.000296533 -0.000737513)
(0.125427 -0.000342326 -0.000518399)
(0.124469 -0.000456492 -0.000673208)
(0.123758 -0.000297111 -0.000732922)
(0.125817 -0.000343888 -0.000516263)
(0.124835 -0.000460188 -0.000673831)
(0.124119 -0.000297975 -0.000730325)
(0.126206 -0.0003456 -0.000515402)
(0.125202 -0.000463101 -0.000674494)
(0.124482 -0.000299678 -0.000732501)
(0.126597 -0.000348201 -0.000517185)
(0.124844 -0.000298869 -0.000731857)
(0.126987 -0.000348817 -0.000516243)
(0.122701 -0.00014222 -0.000801887)
(0.121027 4.53852e-05 -0.000833255)
(0.124063 -1.40036e-05 -0.000681231)
(0.123058 -0.000140053 -0.000795451)
(0.121365 4.91987e-05 -0.00082841)
(0.124443 -1.20887e-05 -0.000676634)
(0.123415 -0.000138324 -0.000790705)
(0.121702 5.24248e-05 -0.000824436)
(0.124822 -1.03783e-05 -0.000673147)
(0.123772 -0.000136724 -0.000789984)
(0.122038 5.57563e-05 -0.000822338)
(0.125201 -8.87553e-06 -0.000671061)
(0.124132 -0.000134052 -0.000791281)
(0.122375 6.01773e-05 -0.000827982)
(0.125582 -7.20171e-06 -0.000672893)
(0.122711 6.56889e-05 -0.000832926)
(0.125962 -4.43338e-06 -0.000672789)
(0.119745 0.000228273 -0.000857566)
(0.116488 0.000423344 -0.000869629)
(0.121138 0.000353607 -0.000781788)
(0.120063 0.000233692 -0.000855517)
(0.116748 0.000425559 -0.000866677)
(0.121476 0.000357681 -0.000780709)
(0.120381 0.000238964 -0.000854471)
(0.117001 0.000429668 -0.000868545)
(0.121812 0.000362182 -0.000780234)
(0.120697 0.000244781 -0.000858475)
(0.117253 0.000434089 -0.000872616)
(0.122147 0.000366396 -0.000781467)
(0.121011 0.000250571 -0.00086667)
(0.117499 0.000438841 -0.00088233)
(0.122482 0.000371119 -0.000789394)
(0.117742 0.00044136 -0.000890862)
(0.122816 0.000373514 -0.000796234)
(0.113683 0.000622895 -0.000888761)
(0.106618 0.000728773 -0.000799079)
(0.115153 0.000738733 -0.000861206)
(0.11388 0.000623139 -0.000889035)
(0.106657 0.000723235 -0.000795221)
(0.115373 0.000737805 -0.000863012)
(0.114072 0.000625115 -0.000894766)
(0.106681 0.000720165 -0.000798561)
(0.115583 0.000739315 -0.000870217)
(0.114257 0.000627508 -0.000903594)
(0.106702 0.000713705 -0.000798607)
(0.115791 0.00074006 -0.000876992)
(0.114435 0.000628922 -0.000913439)
(0.106713 0.000710533 -0.000803941)
(0.115991 0.000738321 -0.000883632)
(0.106718 0.00070583 -0.000807546)
(0.11619 0.000734929 -0.000889243)
(0.100213 0.000758779 -0.000662773)
(0.0822881 0.000711862 -0.000550905)
(0.102092 0.00085179 -0.000702956)
(0.100094 0.000750191 -0.000661915)
(0.0818933 0.000696223 -0.000545024)
(0.102 0.000841986 -0.000705565)
(0.0999625 0.000740487 -0.000660927)
(0.0815039 0.000683185 -0.000543884)
(0.101891 0.000832567 -0.000710249)
(0.0998233 0.000730599 -0.000659268)
(0.0811144 0.000668949 -0.000540339)
(0.10178 0.000821508 -0.000709235)
(0.0996755 0.000722789 -0.000659672)
(0.080725 0.00065665 -0.000537983)
(0.101656 0.000813389 -0.000709984)
(0.0803403 0.00064419 -0.00053331)
(0.101525 0.000802854 -0.000706797)
(0.066129 0.000720767 -0.000507604)
(0.0689553 0.000815109 -0.000538036)
(0.0654992 0.000702558 -0.000502874)
(0.0682902 0.000799766 -0.000528999)
(0.0648807 0.000685194 -0.000499092)
(0.0676475 0.000783514 -0.000520607)
(0.0642723 0.000668383 -0.000494474)
(0.0670066 0.000766166 -0.000514806)
(0.0636734 0.000651914 -0.000487448)
(0.0663805 0.000747911 -0.000506031)
(0.0657641 0.000730138 -0.000495435)
(0.0680336 -0.00077371 0.000506527)
(0.0842221 -0.000819767 0.000550493)
(0.0701571 -0.000842247 0.000561995)
(0.0674622 -0.000744812 0.000483051)
(0.0838957 -0.00079432 0.000535712)
(0.0695411 -0.000817025 0.00054641)
(0.0669075 -0.0007153 0.000454165)
(0.0835792 -0.000768502 0.000516595)
(0.0689387 -0.000790666 0.000525425)
(0.0663689 -0.000686127 0.000422453)
(0.0832685 -0.000746048 0.000495683)
(0.0683518 -0.000764145 0.00050085)
(0.0658476 -0.000657029 0.000390286)
(0.0829678 -0.000724205 0.000473177)
(0.0677843 -0.000738124 0.000474104)
(0.0826707 -0.000700538 0.000450593)
(0.0672323 -0.000710947 0.000448198)
(0.101964 -0.000896472 0.000608342)
(0.108676 -0.00099311 0.000553038)
(0.103124 -0.000943792 0.000670604)
(0.101922 -0.000874734 0.000598801)
(0.10877 -0.000976348 0.000545426)
(0.103077 -0.000921021 0.000666507)
(0.101879 -0.000857108 0.000588934)
(0.108865 -0.000960143 0.000537298)
(0.10303 -0.000902093 0.000663299)
(0.101832 -0.00084398 0.000578948)
(0.108958 -0.000950684 0.000530415)
(0.102977 -0.000890595 0.000661273)
(0.101779 -0.000830687 0.000568263)
(0.109047 -0.000941172 0.000522795)
(0.102919 -0.000880812 0.000657965)
(0.109136 -0.000927855 0.000512949)
(0.102856 -0.000867791 0.000650457)
(0.11606 -0.0010129 0.00045098)
(0.11914 -0.000904157 0.000297215)
(0.116639 -0.00100189 0.000567248)
(0.116304 -0.00100317 0.000445453)
(0.119439 -0.000896346 0.000293049)
(0.116883 -0.000991449 0.00056695)
(0.116546 -0.000996402 0.000440947)
(0.119738 -0.000889465 0.000289095)
(0.117127 -0.00098222 0.000567338)
(0.116788 -0.000991213 0.000436836)
(0.120037 -0.00088624 0.000286298)
(0.117369 -0.000978345 0.000569123)
(0.117029 -0.000981042 0.000429821)
(0.120334 -0.000884795 0.000282982)
(0.117608 -0.000973946 0.000569211)
(0.120633 -0.000878413 0.000276216)
(0.117849 -0.000960417 0.000562316)
(0.122707 -0.00080053 0.000140621)
(0.124067 -0.00067925 1.26991e-05)
(0.123039 -0.000742365 0.000295644)
(0.123065 -0.000795114 0.000137796)
(0.124448 -0.000675368 1.03413e-05)
(0.123401 -0.000736867 0.000294845)
(0.123422 -0.000791341 0.000135334)
(0.124827 -0.000672733 8.06663e-06)
(0.123762 -0.000733103 0.000294589)
(0.12378 -0.000791188 0.000132945)
(0.125207 -0.0006714 5.97205e-06)
(0.124124 -0.000731391 0.000294782)
(0.12414 -0.000792554 0.000129274)
(0.125588 -0.000673529 3.52241e-06)
(0.124487 -0.000733807 0.00029528)
(0.125969 -0.000673377 -3.08364e-07)