/*--------------------------------*- C++ -*----------------------------------*\
| =========                 |                                                 |
| \\      /  F ield         | OpenFOAM: The Open Source CFD Toolbox           |
|  \\    /   O peration     | Version:  2212                                  |
|   \\  /    A nd           | Website:  www.openfoam.com                      |
|    \\/     M anipulation  |                                                 |
\*---------------------------------------------------------------------------*/
FoamFile
{
    version     2.0;
    format      ascii;
    arch        "LSB;label=32;scalar=64";
    class       volScalarField;
    location    "2.8";
    object      p;
}
// * * * * * * * * * * * * * * * * * * * * * * * * * * * * * * * * * * * * * //

dimensions      [0 2 -2 0 0 0 0];

internalField   nonuniform List<scalar> 
680
(
0.01783
0.0107155
0.00842411
0.00788629
0.00761194
0.00738976
0.00720315
0.0106512
0.00991732
0.00882442
0.00815845
0.00775585
0.00748211
0.00727091
0.0103029
0.00945136
0.00868709
0.00812795
0.00775176
0.00748367
0.0072679
0.00989358
0.00913085
0.00851208
0.00806074
0.00771673
0.00744764
0.0072279
0.00975938
0.00901819
0.00843001
0.00802187
0.0076999
0.00743312
0.0072115
0.0097594
0.00901821
0.00843005
0.00802193
0.00769999
0.00743326
0.00721172
0.00989364
0.00913092
0.00851216
0.00806085
0.00771691
0.00744793
0.00722842
0.0103029
0.00945142
0.00868716
0.00812805
0.00775193
0.00748399
0.00726845
0.0106512
0.00991733
0.00882444
0.00815849
0.00775593
0.00748225
0.00727116
0.01783
0.0107155
0.0084241
0.00788628
0.00761193
0.00738974
0.00720314
0.0106512
0.00991734
0.00882445
0.0081585
0.00775594
0.00748226
0.00727117
0.00993459
0.00990289
0.00917468
0.00846419
0.00801786
0.00770195
0.0074431
0.0090091
0.00913529
0.0088324
0.00841619
0.00804904
0.00773039
0.00745179
0.0085907
0.00863421
0.00846862
0.00820568
0.00792527
0.0076539
0.00740282
0.00837473
0.00839656
0.00826935
0.00805182
0.00781937
0.00759019
0.00736733
0.00837478
0.00839661
0.00826942
0.00805193
0.00781954
0.00759042
0.00736769
0.00859079
0.0086343
0.00846876
0.00820586
0.00792554
0.00765428
0.00740341
0.00900914
0.00913534
0.00883248
0.00841629
0.00804919
0.00773062
0.00745221
0.00993458
0.00990288
0.00917466
0.00846418
0.00801785
0.00770193
0.00744308
0.0106512
0.0099173
0.00882441
0.00815843
0.00775583
0.00748209
0.00727089
0.0103029
0.00945143
0.00868717
0.00812805
0.00775194
0.007484
0.00726846
0.00900915
0.00913535
0.00883249
0.0084163
0.0080492
0.00773063
0.00745222
0.00843964
0.00854062
0.00842907
0.00820362
0.00794789
0.00768953
0.0074312
0.00807162
0.00813968
0.0080873
0.00794031
0.00775543
0.00755031
0.00733966
0.00788855
0.00795299
0.00792352
0.00779866
0.00763962
0.00746593
0.00727966
0.00788858
0.00795302
0.00792356
0.00779876
0.00763981
0.00746619
0.00727997
0.00807167
0.00813974
0.00808738
0.00794046
0.00775566
0.0075506
0.00734004
0.00843963
0.00854061
0.00842906
0.0082036
0.00794788
0.00768951
0.00743118
0.00900909
0.00913527
0.00883239
0.00841617
0.00804903
0.00773037
0.00745178
0.0103029
0.00945135
0.00868708
0.00812793
0.00775174
0.00748365
0.00726789
0.00989365
0.00913092
0.00851217
0.00806086
0.00771692
0.00744794
0.00722843
0.0085908
0.00863431
0.00846877
0.00820587
0.00792556
0.00765429
0.00740342
0.00807168
0.00813975
0.00808739
0.00794047
0.00775567
0.00755061
0.00734005
0.00777375
0.00783289
0.00782096
0.00772558
0.00758597
0.00742051
0.00724036
0.00762262
0.00768551
0.00768927
0.00761562
0.0074955
0.0073491
0.0071862
0.00762263
0.00768553
0.00768929
0.00761565
0.00749554
0.00734918
0.00718632
0.00777374
0.00783289
0.00782095
0.00772557
0.00758596
0.0074205
0.00724034
0.0080716
0.00813967
0.00808728
0.00794029
0.00775541
0.0075503
0.00733965
0.00859068
0.00863419
0.00846861
0.00820566
0.00792526
0.00765388
0.0074028
0.00989357
0.00913084
0.00851206
0.00806072
0.00771671
0.00744762
0.00722788
0.0097594
0.00901822
0.00843006
0.00802194
0.0077
0.00743327
0.00721173
0.00837479
0.00839662
0.00826943
0.00805194
0.00781955
0.00759043
0.0073677
0.00788859
0.00795303
0.00792357
0.00779877
0.00763981
0.0074662
0.00727998
0.00762264
0.00768554
0.0076893
0.00761566
0.00749555
0.00734918
0.00718632
0.00747982
0.00754934
0.00757146
0.00751892
0.00741767
0.00728673
0.00713681
0.00747982
0.00754933
0.00757146
0.00751891
0.00741766
0.00728673
0.00713681
0.00762261
0.00768551
0.00768926
0.00761561
0.00749549
0.0073491
0.00718619
0.00788854
0.00795298
0.00792351
0.00779865
0.00763961
0.00746592
0.00727964
0.00837472
0.00839655
0.00826934
0.0080518
0.00781936
0.00759017
0.00736731
0.00975936
0.00901818
0.00843
0.00802186
0.00769988
0.00743311
0.00721148
0.00975939
0.0090182
0.00843002
0.00802189
0.00769991
0.00743313
0.00721151
0.00837474
0.00839657
0.00826936
0.00805183
0.00781939
0.0075902
0.00736734
0.00788856
0.007953
0.00792353
0.00779867
0.00763963
0.00746594
0.00727967
0.00762262
0.00768552
0.00768928
0.00761563
0.0074955
0.00734911
0.00718621
0.00747982
0.00754934
0.00757146
0.00751892
0.00741767
0.00728673
0.00713681
0.00747982
0.00754933
0.00757146
0.00751891
0.00741766
0.00728673
0.00713681
0.00762263
0.00768552
0.00768929
0.00761565
0.00749554
0.00734917
0.00718631
0.00788857
0.00795301
0.00792355
0.00779875
0.00763979
0.00746618
0.00727996
0.00837476
0.00839659
0.0082694
0.00805192
0.00781953
0.00759041
0.00736767
0.00975938
0.0090182
0.00843003
0.00802192
0.00769997
0.00743325
0.0072117
0.00989359
0.00913086
0.00851209
0.00806075
0.00771674
0.00744765
0.00722791
0.00859071
0.00863422
0.00846863
0.00820569
0.00792528
0.00765391
0.00740283
0.00807162
0.00813969
0.0080873
0.00794032
0.00775544
0.00755032
0.00733967
0.00777375
0.0078329
0.00782097
0.00772559
0.00758598
0.00742051
0.00724036
0.00762264
0.00768553
0.0076893
0.00761566
0.00749555
0.00734918
0.00718632
0.00762262
0.00768551
0.00768927
0.00761562
0.0074955
0.0073491
0.00777374
0.00783288
0.00782095
0.00772557
0.00758596
0.0074205
0.00807166
0.00813973
0.00808737
0.00794045
0.00775565
0.00755059
0.00859078
0.00863429
0.00846875
0.00820585
0.00792553
0.00765427
0.00989363
0.0091309
0.00851215
0.00806084
0.0077169
0.00744792
0.0103029
0.00945138
0.00868711
0.00812796
0.00775177
0.00748368
0.00726792
0.00900911
0.0091353
0.00883241
0.0084162
0.00804905
0.0077304
0.0074518
0.00843965
0.00854062
0.00842907
0.00820362
0.0079479
0.00768953
0.0074312
0.00807168
0.00813975
0.00808739
0.00794047
0.00775567
0.00755061
0.00734005
0.00788859
0.00795302
0.00792356
0.00779876
0.00763981
0.0074662
0.00727998
0.00788855
0.00795299
0.00792352
0.00779866
0.00763962
0.00746593
0.00807161
0.00813967
0.00808729
0.0079403
0.00775542
0.0075503
0.00843963
0.00854061
0.00842905
0.0082036
0.00794788
0.00768951
0.00900914
0.00913533
0.00883247
0.00841628
0.00804918
0.00773061
0.0103029
0.00945141
0.00868715
0.00812803
0.00775192
0.00748398
0.0106512
0.00991732
0.00882443
0.00815846
0.00775586
0.00748212
0.00727092
0.0099346
0.0099029
0.00917468
0.0084642
0.00801787
0.00770195
0.00744311
0.00900916
0.00913535
0.0088325
0.00841631
0.0080492
0.00773064
0.00745222
0.0085908
0.00863431
0.00846877
0.00820587
0.00792555
0.00765429
0.00740342
0.00837478
0.00839661
0.00826942
0.00805194
0.00781955
0.00759043
0.00736769
0.00837473
0.00839656
0.00826935
0.00805182
0.00781937
0.00759019
0.00859069
0.0086342
0.00846862
0.00820567
0.00792527
0.00765389
0.00900909
0.00913528
0.00883239
0.00841618
0.00804903
0.00773038
0.00993458
0.00990288
0.00917466
0.00846417
0.00801784
0.00770193
0.0106512
0.00991732
0.00882444
0.00815848
0.00775592
0.00748224
0.01783
0.0107156
0.00842412
0.0078863
0.00761195
0.00738977
0.00720316
0.0106512
0.00991734
0.00882446
0.0081585
0.00775595
0.00748227
0.00727118
0.0103029
0.00945143
0.00868717
0.00812806
0.00775194
0.007484
0.00726846
0.00989365
0.00913092
0.00851217
0.00806086
0.00771692
0.00744794
0.00722843
0.0097594
0.00901822
0.00843005
0.00802194
0.00769999
0.00743327
0.00721173
0.00975938
0.00901819
0.00843001
0.00802187
0.0076999
0.00743312
0.00989358
0.00913085
0.00851207
0.00806073
0.00771673
0.00744763
0.0103029
0.00945135
0.00868708
0.00812794
0.00775175
0.00748366
0.0106512
0.0099173
0.00882441
0.00815844
0.00775584
0.0074821
0.01783
0.0107155
0.0084241
0.00788628
0.00761193
0.00738974
)
;

boundaryField
{
    inlet
    {
        type            zeroGradient;
    }
    ami1
    {
        type            cyclicAMI;
        value           nonuniform List<scalar> 0();
    }
    walls
    {
        type            zeroGradient;
    }
    ami2
    {
        type            cyclicAMI;
        value           nonuniform List<scalar> 0();
    }
    outlet
    {
        type            fixedValue;
        value           nonuniform List<scalar> 0();
    }
    procBoundary4to3
    {
        type            processor;
        value           nonuniform List<scalar> 
109
(
0.00703676
0.00708463
0.00707481
0.00703888
0.00702068
0.00702106
0.00703979
0.00707573
0.00708508
0.00703675
0.00708509
0.00721551
0.00721126
0.00717633
0.00715411
0.00715465
0.00717727
0.007212
0.0072155
0.00708461
0.00707574
0.00721201
0.00718968
0.00713277
0.00709163
0.00709206
0.00713333
0.00718967
0.00721124
0.00707479
0.0070398
0.00717728
0.00713334
0.00705593
0.00701477
0.00701493
0.00705592
0.00713276
0.00717631
0.00703886
0.00702107
0.00715466
0.00709207
0.00701494
0.00697582
0.00697581
0.00701476
0.00709162
0.00715409
0.00702067
0.0070207
0.00715412
0.00709164
0.00701477
0.00697582
0.00697581
0.0071862
0.00701492
0.00724034
0.00709204
0.00734003
0.00715463
0.0074034
0.00702105
0.0072284
0.00703889
0.00717634
0.00713278
0.00705593
0.00701494
0.0071862
0.0071862
0.00724034
0.00734003
0.0074034
0.0072284
0.00707483
0.00721127
0.00718969
0.00713335
0.00709206
0.00727965
0.00727965
0.00733965
0.00743118
0.0074522
0.00726844
0.00708464
0.00721552
0.00721202
0.00717728
0.00715465
0.00736733
0.00736733
0.00740282
0.00745178
0.00744308
0.00727116
0.00703677
0.0070851
0.00707575
0.0070398
0.00702107
0.0072115
0.0072115
0.00722789
0.0072679
0.0072709
0.00720314
)
;
    }
}


// ************************************************************************* //
