/*--------------------------------*- C++ -*----------------------------------*\
| =========                 |                                                 |
| \\      /  F ield         | OpenFOAM: The Open Source CFD Toolbox           |
|  \\    /   O peration     | Version:  2212                                  |
|   \\  /    A nd           | Website:  www.openfoam.com                      |
|    \\/     M anipulation  |                                                 |
\*---------------------------------------------------------------------------*/
FoamFile
{
    version     2.0;
    format      ascii;
    arch        "LSB;label=32;scalar=64";
    class       volVectorField;
    location    "2.8";
    object      U;
}
// * * * * * * * * * * * * * * * * * * * * * * * * * * * * * * * * * * * * * //

dimensions      [0 1 -1 0 0 0 0];

internalField   nonuniform List<vector> 
680
(
(0.0956456 -0.00836005 -0.00836005)
(0.0904939 0.00152207 0.00152198)
(0.0790683 0.00242983 0.00242966)
(0.0713012 0.00148792 0.00148755)
(0.0661794 0.000830815 0.000830093)
(0.0623226 0.000564197 0.000563018)
(0.0592207 0.000427477 0.000424869)
(0.0999088 0.00129701 0.000712545)
(0.0969668 0.00365598 0.00274719)
(0.0935346 0.00264035 0.00211801)
(0.0895893 0.00182069 0.00162035)
(0.0858321 0.00152931 0.00139022)
(0.0825901 0.00135211 0.00116051)
(0.0798652 0.00118089 0.000896024)
(0.099413 0.000345247 0.000270225)
(0.0988664 0.00201912 0.00187484)
(0.0979217 0.00257328 0.00218881)
(0.0963663 0.00238014 0.00190806)
(0.0946342 0.00211456 0.00162619)
(0.0929737 0.00192752 0.00141792)
(0.0913668 0.00180266 0.00127004)
(0.0995405 0.000245033 0.000321897)
(0.0992576 0.00105557 0.00154092)
(0.0988491 0.00150224 0.00211437)
(0.0981252 0.00157925 0.0020915)
(0.0973379 0.0015144 0.00188595)
(0.0965868 0.00144554 0.00166561)
(0.0958686 0.0014085 0.00149771)
(0.0993801 3.37556e-05 5.89455e-05)
(0.0992678 0.000274281 0.00120001)
(0.0989805 0.000432126 0.00188843)
(0.0984749 0.00048301 0.00200635)
(0.0979962 0.00047802 0.00191444)
(0.0975721 0.000463997 0.00173433)
(0.0971831 0.000450055 0.00154668)
(0.0993802 -3.37905e-05 5.90005e-05)
(0.0992677 -0.00027446 0.00120005)
(0.0989805 -0.000432517 0.00188845)
(0.0984747 -0.000483702 0.00200642)
(0.0979957 -0.000479235 0.00191462)
(0.097571 -0.000466178 0.00173473)
(0.0971811 -0.000453984 0.00154727)
(0.0995405 -0.000245045 0.000321898)
(0.0992576 -0.00105563 0.00154092)
(0.0988488 -0.00150236 0.00211449)
(0.0981246 -0.00157946 0.00209171)
(0.0973365 -0.00151494 0.00188629)
(0.0965842 -0.00144669 0.00166614)
(0.0958639 -0.00141057 0.00149834)
(0.099413 -0.000345225 0.000270233)
(0.0988664 -0.00201901 0.00187492)
(0.0979214 -0.00257307 0.00218907)
(0.0963656 -0.00237977 0.0019085)
(0.0946329 -0.00211399 0.0016268)
(0.0929712 -0.00192661 0.0014188)
(0.0913623 -0.00180132 0.00127148)
(0.0999088 -0.00129699 0.000712564)
(0.0969668 -0.00365582 0.00274729)
(0.0935345 -0.0026401 0.00211822)
(0.089589 -0.00182025 0.00162076)
(0.0858316 -0.0015284 0.00139081)
(0.0825892 -0.0013507 0.00116159)
(0.0798636 -0.00117832 0.000897812)
(0.0956456 0.00836005 -0.00836005)
(0.0904939 -0.00152197 0.00152207)
(0.0790683 -0.00242965 0.00242983)
(0.0713012 -0.00148754 0.00148793)
(0.0661794 -0.000830085 0.000830824)
(0.0623226 -0.000563008 0.000564206)
(0.0592208 -0.000424857 0.000427489)
(0.0999088 0.000712564 0.00129699)
(0.0969668 0.00274729 0.00365582)
(0.0935345 0.00211822 0.00264012)
(0.089589 0.00162076 0.00182027)
(0.0858316 0.00139081 0.00152842)
(0.0825891 0.00116159 0.00135072)
(0.0798636 0.000897809 0.00117834)
(0.100226 0.000720832 0.000720798)
(0.09996 0.00198281 0.00198266)
(0.0997822 0.00245207 0.0024517)
(0.098788 0.00242001 0.00241936)
(0.0972754 0.00220143 0.00220041)
(0.0957744 0.00181248 0.00181068)
(0.0943922 0.001384 0.00138105)
(0.10014 0.000775039 0.000869226)
(0.100454 0.00196247 0.00196347)
(0.100911 0.00242766 0.00233428)
(0.100978 0.00252686 0.00244089)
(0.100694 0.00242671 0.0023362)
(0.100225 0.00219825 0.00211173)
(0.0997097 0.00191788 0.0018221)
(0.100093 0.000445931 0.000763192)
(0.100504 0.0011945 0.001749)
(0.101105 0.00158682 0.00212947)
(0.101635 0.00174042 0.00223444)
(0.10198 0.00178225 0.00228663)
(0.102173 0.00172901 0.00223532)
(0.102254 0.00160802 0.00211504)
(0.100087 0.000144363 0.000707009)
(0.100477 0.000390423 0.00161777)
(0.101066 0.000540988 0.00203463)
(0.101694 0.000609924 0.00211755)
(0.102269 0.000635557 0.00214996)
(0.102743 0.00062597 0.00217943)
(0.103125 0.000593385 0.00213361)
(0.100087 -0.000144423 0.000707016)
(0.100477 -0.000390604 0.00161778)
(0.101066 -0.000541303 0.00203462)
(0.101694 -0.00061049 0.00211764)
(0.102269 -0.000636632 0.0021503)
(0.102742 -0.000627897 0.00218007)
(0.103123 -0.000596583 0.00213463)
(0.100093 -0.000445933 0.000763207)
(0.100504 -0.0011945 0.00174904)
(0.101105 -0.00158684 0.00212964)
(0.101634 -0.00174052 0.00223502)
(0.101979 -0.00178246 0.00228775)
(0.10217 -0.00172935 0.00223696)
(0.102251 -0.00160873 0.00211752)
(0.10014 -0.000774998 0.000869274)
(0.100454 -0.00196235 0.00196368)
(0.100911 -0.00242743 0.00233478)
(0.100978 -0.00252639 0.00244173)
(0.100693 -0.00242591 0.00233743)
(0.100223 -0.00219687 0.00211337)
(0.0997071 -0.00191572 0.00182466)
(0.100226 -0.000720797 0.000720833)
(0.09996 -0.00198265 0.00198281)
(0.0997822 -0.00245169 0.00245207)
(0.0987881 -0.00241936 0.00242002)
(0.0972754 -0.0022004 0.00220143)
(0.0957745 -0.00181067 0.00181249)
(0.0943923 -0.00138103 0.00138401)
(0.0999088 -0.000712545 0.00129701)
(0.0969668 -0.00274719 0.00365598)
(0.0935346 -0.00211801 0.00264036)
(0.0895893 -0.00162035 0.0018207)
(0.0858321 -0.00139022 0.00152932)
(0.0825901 -0.00116051 0.00135212)
(0.0798653 -0.00089602 0.00118091)
(0.099413 0.000270232 0.000345227)
(0.0988664 0.00187492 0.00201902)
(0.0979213 0.00218907 0.00257309)
(0.0963656 0.0019085 0.00237979)
(0.0946329 0.0016268 0.00211401)
(0.0929712 0.0014188 0.00192663)
(0.0913623 0.00127148 0.00180136)
(0.10014 0.000869274 0.000775)
(0.100454 0.00196368 0.00196236)
(0.100911 0.00233478 0.00242744)
(0.100978 0.00244172 0.0025264)
(0.100693 0.00233743 0.00242593)
(0.100223 0.00211337 0.00219688)
(0.0997071 0.00182466 0.00191575)
(0.10006 0.000641439 0.000641374)
(0.100501 0.00164519 0.00164498)
(0.101149 0.00221271 0.00221229)
(0.101738 0.00244051 0.0024398)
(0.102205 0.00244277 0.00244162)
(0.102501 0.00231477 0.00231298)
(0.102645 0.0020946 0.00209164)
(0.100046 0.000395739 0.000540224)
(0.10048 0.00104493 0.00138404)
(0.101154 0.00147548 0.00192285)
(0.101913 0.00170543 0.00219234)
(0.102632 0.00178042 0.00229369)
(0.103302 0.00174539 0.00227765)
(0.103894 0.0016351 0.00218469)
(0.100039 0.000131321 0.00047876)
(0.100448 0.000350466 0.00123475)
(0.101114 0.000505024 0.00174643)
(0.101909 0.000597096 0.00202673)
(0.102729 0.00063842 0.00215192)
(0.10353 0.000637977 0.00218615)
(0.104298 0.000604037 0.00215286)
(0.100039 -0.00013136 0.000478782)
(0.100448 -0.000350567 0.00123482)
(0.101114 -0.000505207 0.00174656)
(0.101909 -0.000597409 0.00202697)
(0.102728 -0.000638964 0.00215238)
(0.103529 -0.000638878 0.00218691)
(0.104297 -0.000605588 0.00215402)
(0.100046 -0.000395715 0.000540282)
(0.10048 -0.00104486 0.00138422)
(0.101154 -0.00147536 0.00192319)
(0.101913 -0.00170527 0.00219297)
(0.102631 -0.00178011 0.00229476)
(0.103301 -0.00174487 0.0022794)
(0.103893 -0.00163424 0.00218742)
(0.10006 -0.000641372 0.00064144)
(0.100501 -0.00164498 0.00164519)
(0.101149 -0.00221229 0.0022127)
(0.101738 -0.00243979 0.0024405)
(0.102205 -0.00244161 0.00244277)
(0.102501 -0.00231297 0.00231476)
(0.102645 -0.00209162 0.00209459)
(0.10014 -0.000869225 0.00077504)
(0.100454 -0.00196346 0.00196247)
(0.100911 -0.00233428 0.00242766)
(0.100978 -0.00244088 0.00252686)
(0.100694 -0.0023362 0.00242671)
(0.100225 -0.00211172 0.00219825)
(0.0997098 -0.00182209 0.00191788)
(0.099413 -0.000270225 0.000345248)
(0.0988664 -0.00187483 0.00201912)
(0.0979217 -0.00218881 0.00257329)
(0.0963663 -0.00190806 0.00238014)
(0.0946342 -0.00162619 0.00211457)
(0.0929738 -0.00141791 0.00192753)
(0.0913668 -0.00127003 0.00180267)
(0.0995405 0.000321898 0.000245047)
(0.0992576 0.00154092 0.00105564)
(0.0988488 0.0021145 0.00150238)
(0.0981246 0.00209171 0.00157949)
(0.0973365 0.00188629 0.00151497)
(0.0965841 0.00166614 0.00144672)
(0.0958639 0.00149835 0.00141061)
(0.100093 0.000763206 0.000445935)
(0.100504 0.00174904 0.00119451)
(0.101105 0.00212964 0.00158685)
(0.101634 0.00223502 0.00174053)
(0.101979 0.00228775 0.00178247)
(0.10217 0.00223696 0.00172937)
(0.102251 0.00211752 0.00160875)
(0.100046 0.000540282 0.000395718)
(0.10048 0.00138422 0.00104486)
(0.101154 0.0019232 0.00147537)
(0.101913 0.00219298 0.00170528)
(0.102631 0.00229477 0.00178013)
(0.103301 0.0022794 0.00174489)
(0.103893 0.00218743 0.00163427)
(0.100036 0.000323177 0.000323131)
(0.100429 0.00086877 0.000868638)
(0.10108 0.00126257 0.00126232)
(0.101891 0.00150467 0.00150424)
(0.102756 0.00162204 0.00162136)
(0.103616 0.00164347 0.0016424)
(0.104446 0.00160576 0.00160415)
(0.100031 0.000107086 0.000281376)
(0.100395 0.000293072 0.000768614)
(0.101024 0.000434128 0.00113304)
(0.101844 0.000526308 0.00136914)
(0.102751 0.000576478 0.00150134)
(0.103689 0.000591947 0.00155409)
(0.104618 0.000582645 0.00154908)
(0.100031 -0.000107082 0.000281398)
(0.100395 -0.000293058 0.000768679)
(0.101024 -0.000434101 0.00113316)
(0.101843 -0.000526266 0.00136938)
(0.102751 -0.000576411 0.00150174)
(0.103688 -0.000591833 0.00155471)
(0.104617 -0.000582475 0.00154995)
(0.100036 -0.000323128 0.000323176)
(0.100429 -0.00086863 0.000868769)
(0.10108 -0.00126231 0.00126257)
(0.101891 -0.00150423 0.00150466)
(0.102756 -0.00162134 0.00162204)
(0.103616 -0.00164238 0.00164346)
(0.104446 -0.00160413 0.00160575)
(0.100046 -0.000540221 0.000395739)
(0.10048 -0.00138403 0.00104493)
(0.101154 -0.00192284 0.00147548)
(0.101913 -0.00219233 0.00170543)
(0.102632 -0.00229368 0.00178041)
(0.103302 -0.00227763 0.00174538)
(0.103894 -0.00218467 0.0016351)
(0.100093 -0.000763191 0.000445931)
(0.100504 -0.00174899 0.0011945)
(0.101105 -0.00212947 0.00158682)
(0.101635 -0.00223444 0.00174042)
(0.10198 -0.00228662 0.00178224)
(0.102173 -0.0022353 0.001729)
(0.102254 -0.00211503 0.00160802)
(0.0995405 -0.000321897 0.000245034)
(0.0992576 -0.00154092 0.00105557)
(0.0988491 -0.00211437 0.00150225)
(0.0981253 -0.00209149 0.00157925)
(0.0973379 -0.00188594 0.0015144)
(0.0965868 -0.00166561 0.00144555)
(0.0958687 -0.00149771 0.0014085)
(0.0993802 5.90001e-05 3.37925e-05)
(0.0992677 0.00120005 0.000274468)
(0.0989805 0.00188846 0.000432534)
(0.0984747 0.00200642 0.000483725)
(0.0979956 0.00191463 0.000479263)
(0.097571 0.00173473 0.000466211)
(0.0971811 0.00154728 0.000454023)
(0.100087 0.000707017 0.000144426)
(0.100477 0.00161778 0.000390612)
(0.101066 0.00203463 0.000541316)
(0.101694 0.00211764 0.000610506)
(0.102269 0.00215031 0.000636653)
(0.102742 0.00218009 0.000627923)
(0.103123 0.00213464 0.000596614)
(0.100039 0.000478783 0.000131363)
(0.100448 0.00123482 0.000350575)
(0.101114 0.00174657 0.000505219)
(0.101909 0.00202697 0.000597424)
(0.102728 0.00215239 0.000638984)
(0.103529 0.00218692 0.000638903)
(0.104297 0.00215403 0.000605618)
(0.100031 0.000281399 0.000107086)
(0.100395 0.000768682 0.000293067)
(0.101024 0.00113317 0.000434113)
(0.101843 0.00136939 0.000526282)
(0.102751 0.00150175 0.000576432)
(0.103688 0.00155472 0.000591859)
(0.104617 0.00154996 0.000582507)
(0.100048 7.31501e-05 7.31428e-05)
(0.100365 0.000251065 0.000251032)
(0.100961 0.000386393 0.000386332)
(0.101771 0.000477968 0.000477866)
(0.102702 0.000532203 0.000532043)
(0.10369 0.000556794 0.00055655)
(0.104692 0.000559173 0.000558813)
(0.100048 -7.31378e-05 7.31487e-05)
(0.100365 -0.000251024 0.00025106)
(0.100961 -0.000386318 0.000386387)
(0.101771 -0.000477848 0.000477959)
(0.102702 -0.00053202 0.000532193)
(0.10369 -0.000556521 0.000556783)
(0.104692 -0.000558777 0.000559162)
(0.100031 -0.000281373 0.000107085)
(0.100395 -0.000768606 0.000293069)
(0.101024 -0.00113303 0.000434123)
(0.101844 -0.00136913 0.000526302)
(0.102751 -0.00150132 0.000576471)
(0.103689 -0.00155407 0.000591939)
(0.104618 -0.00154904 0.000582638)
(0.100039 -0.000478758 0.000131321)
(0.100448 -0.00123475 0.000350464)
(0.101114 -0.00174642 0.00050502)
(0.101909 -0.00202672 0.000597091)
(0.102729 -0.00215191 0.000638414)
(0.10353 -0.00218613 0.000637971)
(0.104298 -0.00215284 0.000604032)
(0.100087 -0.000707008 0.000144363)
(0.100477 -0.00161776 0.000390422)
(0.101066 -0.00203462 0.000540985)
(0.101694 -0.00211755 0.000609919)
(0.102269 -0.00214995 0.000635552)
(0.102743 -0.00217942 0.000625965)
(0.103125 -0.0021336 0.000593382)
(0.0993801 -5.89447e-05 3.37557e-05)
(0.0992678 -0.00120001 0.00027428)
(0.0989805 -0.00188843 0.000432125)
(0.0984749 -0.00200634 0.000483006)
(0.0979962 -0.00191443 0.000478016)
(0.0975721 -0.00173432 0.000463993)
(0.0971831 -0.00154667 0.000450052)
(0.0993801 5.8946e-05 -3.37536e-05)
(0.0992678 0.0012 -0.000274272)
(0.0989805 0.00188844 -0.000432108)
(0.0984749 0.00200635 -0.000482986)
(0.0979962 0.00191444 -0.000477991)
(0.0975721 0.00173433 -0.000463962)
(0.0971831 0.00154669 -0.000450014)
(0.100087 0.00070701 -0.00014436)
(0.100477 0.00161777 -0.000390414)
(0.101066 0.00203463 -0.000540975)
(0.101694 0.00211756 -0.000609906)
(0.102269 0.00214997 -0.000635534)
(0.102743 0.00217944 -0.000625942)
(0.103125 0.00213363 -0.000593351)
(0.100039 0.000478762 -0.000131318)
(0.100448 0.00123476 -0.000350457)
(0.101114 0.00174644 -0.000505012)
(0.101909 0.00202674 -0.00059708)
(0.102729 0.00215193 -0.000638399)
(0.10353 0.00218617 -0.00063795)
(0.104298 0.00215288 -0.000604005)
(0.100031 0.000281377 -0.000107082)
(0.100395 0.000768618 -0.000293063)
(0.101024 0.00113304 -0.000434115)
(0.101844 0.00136915 -0.000526291)
(0.102751 0.00150135 -0.000576457)
(0.103689 0.00155411 -0.00059192)
(0.104618 0.00154909 -0.000582611)
(0.100048 7.3144e-05 -7.31474e-05)
(0.100365 0.000251035 -0.000251054)
(0.100961 0.00038634 -0.000386378)
(0.101771 0.000477877 -0.000477948)
(0.102702 0.000532057 -0.000532178)
(0.10369 0.000556566 -0.000556763)
(0.104692 0.00055883 -0.000559135)
(0.100048 -7.3145e-05 -7.31378e-05)
(0.100365 -0.000251049 -0.000251025)
(0.100961 -0.000386372 -0.000386324)
(0.101771 -0.000477939 -0.000477856)
(0.102702 -0.000532166 -0.000532029)
(0.10369 -0.00055675 -0.000556531)
(0.104692 -0.000559121 -0.000558787)
(0.100031 -0.000281394 -0.000107084)
(0.100395 -0.000768671 -0.000293061)
(0.101024 -0.00113315 -0.000434106)
(0.101843 -0.00136937 -0.000526273)
(0.102751 -0.00150172 -0.000576419)
(0.103688 -0.00155468 -0.000591841)
(0.104617 -0.00154991 -0.000582482)
(0.100039 -0.00047878 -0.000131361)
(0.100448 -0.00123482 -0.00035057)
(0.101114 -0.00174655 -0.000505212)
(0.101909 -0.00202695 -0.000597415)
(0.102728 -0.00215237 -0.000638971)
(0.103529 -0.00218689 -0.000638886)
(0.104297 -0.002154 -0.000605595)
(0.100087 -0.000707015 -0.000144424)
(0.100477 -0.00161778 -0.000390607)
(0.101066 -0.00203462 -0.000541308)
(0.101694 -0.00211763 -0.000610496)
(0.102269 -0.00215029 -0.00063664)
(0.102742 -0.00218006 -0.000627905)
(0.103123 -0.00213461 -0.000596589)
(0.0993802 -5.90022e-05 -3.37913e-05)
(0.0992677 -0.00120005 -0.000274463)
(0.0989805 -0.00188845 -0.000432522)
(0.0984747 -0.00200641 -0.000483709)
(0.0979957 -0.00191462 -0.000479243)
(0.097571 -0.00173472 -0.000466187)
(0.0971811 -0.00154726 -0.000453992)
(0.0995405 0.000321897 -0.000245031)
(0.0992576 0.00154092 -0.00105556)
(0.0988491 0.00211438 -0.00150223)
(0.0981252 0.0020915 -0.00157922)
(0.0973378 0.00188596 -0.00151437)
(0.0965868 0.00166562 -0.00144551)
(0.0958686 0.00149772 -0.00140845)
(0.100093 0.000763193 -0.000445928)
(0.100504 0.001749 -0.00119449)
(0.101105 0.00212948 -0.00158681)
(0.101635 0.00223445 -0.0017404)
(0.10198 0.00228664 -0.00178222)
(0.102173 0.00223533 -0.00172898)
(0.102254 0.00211506 -0.00160799)
(0.100046 0.000540225 -0.000395736)
(0.10048 0.00138404 -0.00104492)
(0.101154 0.00192286 -0.00147547)
(0.101913 0.00219235 -0.00170542)
(0.102632 0.00229371 -0.0017804)
(0.103302 0.00227767 -0.00174536)
(0.103894 0.00218471 -0.00163507)
(0.100036 0.000323133 -0.000323173)
(0.100429 0.000868643 -0.000868762)
(0.10108 0.00126233 -0.00126256)
(0.101891 0.00150426 -0.00150465)
(0.102756 0.00162138 -0.00162202)
(0.103616 0.00164243 -0.00164344)
(0.104446 0.00160418 -0.00160572)
(0.100031 0.000107088 -0.000281395)
(0.100395 0.000293072 -0.000768673)
(0.101024 0.000434122 -0.00113316)
(0.101843 0.000526295 -0.00136937)
(0.102751 0.000576448 -0.00150173)
(0.103688 0.000591879 -0.00155469)
(0.104617 0.000582529 -0.00154992)
(0.100031 -0.00010708 -0.000281374)
(0.100395 -0.000293059 -0.000768609)
(0.101024 -0.000434108 -0.00113303)
(0.101844 -0.00052628 -0.00136913)
(0.102751 -0.000576443 -0.00150133)
(0.103689 -0.000591904 -0.00155407)
(0.100036 -0.000323173 -0.00032313)
(0.100429 -0.00086876 -0.000868633)
(0.10108 -0.00126255 -0.00126232)
(0.101891 -0.00150464 -0.00150424)
(0.102756 -0.00162201 -0.00162135)
(0.103616 -0.00164343 -0.00164239)
(0.100046 -0.000540279 -0.000395716)
(0.10048 -0.00138421 -0.00104486)
(0.101154 -0.00192319 -0.00147536)
(0.101913 -0.00219296 -0.00170528)
(0.102631 -0.00229475 -0.00178012)
(0.103301 -0.00227937 -0.00174488)
(0.100093 -0.000763205 -0.000445934)
(0.100504 -0.00174904 -0.00119451)
(0.101105 -0.00212964 -0.00158685)
(0.101634 -0.00223501 -0.00174053)
(0.101979 -0.00228774 -0.00178246)
(0.10217 -0.00223694 -0.00172936)
(0.0995405 -0.000321897 -0.000245046)
(0.0992576 -0.00154092 -0.00105563)
(0.0988489 -0.00211449 -0.00150237)
(0.0981246 -0.00209171 -0.00157947)
(0.0973365 -0.00188628 -0.00151496)
(0.0965842 -0.00166614 -0.0014467)
(0.099413 0.000270225 -0.000345245)
(0.0988664 0.00187484 -0.00201911)
(0.0979217 0.00218882 -0.00257326)
(0.0963663 0.00190807 -0.00238012)
(0.0946342 0.00162621 -0.00211453)
(0.0929737 0.00141794 -0.00192749)
(0.0913668 0.00127006 -0.00180262)
(0.10014 0.000869227 -0.000775037)
(0.100454 0.00196347 -0.00196247)
(0.100911 0.00233429 -0.00242765)
(0.100978 0.00244091 -0.00252684)
(0.100694 0.00233622 -0.0024267)
(0.100225 0.00211175 -0.00219822)
(0.0997097 0.00182213 -0.00191785)
(0.10006 0.000641376 -0.000641437)
(0.100501 0.00164499 -0.00164518)
(0.101149 0.0022123 -0.0022127)
(0.101738 0.00243981 -0.00244049)
(0.102205 0.00244164 -0.00244275)
(0.102501 0.00231301 -0.00231475)
(0.102645 0.00209167 -0.00209457)
(0.100046 0.00039572 -0.00054028)
(0.10048 0.00104487 -0.00138421)
(0.101154 0.00147538 -0.00192319)
(0.101913 0.0017053 -0.00219297)
(0.102631 0.00178015 -0.00229475)
(0.103301 0.00174491 -0.00227938)
(0.103893 0.0016343 -0.0021874)
(0.100039 0.000131365 -0.00047878)
(0.100448 0.00035058 -0.00123482)
(0.101114 0.000505228 -0.00174656)
(0.101909 0.000597437 -0.00202696)
(0.102728 0.000639001 -0.00215237)
(0.103529 0.000638924 -0.0021869)
(0.104297 0.000605643 -0.00215401)
(0.100039 -0.000131317 -0.000478759)
(0.100448 -0.000350454 -0.00123475)
(0.101114 -0.000505005 -0.00174643)
(0.101909 -0.000597069 -0.00202672)
(0.102729 -0.000638385 -0.00215191)
(0.10353 -0.000637934 -0.00218614)
(0.100046 -0.000395736 -0.000540223)
(0.10048 -0.00104492 -0.00138403)
(0.101154 -0.00147547 -0.00192284)
(0.101913 -0.00170541 -0.00219234)
(0.102632 -0.00178039 -0.00229368)
(0.103302 -0.00174535 -0.00227764)
(0.10006 -0.000641437 -0.000641373)
(0.100501 -0.00164518 -0.00164498)
(0.101149 -0.00221269 -0.00221229)
(0.101738 -0.00244049 -0.00243979)
(0.102205 -0.00244275 -0.00244162)
(0.102501 -0.00231474 -0.00231298)
(0.10014 -0.000869273 -0.000775)
(0.100454 -0.00196368 -0.00196236)
(0.100911 -0.00233477 -0.00242744)
(0.100978 -0.00244172 -0.0025264)
(0.100693 -0.00233742 -0.00242592)
(0.100223 -0.00211335 -0.00219688)
(0.099413 -0.000270232 -0.000345227)
(0.0988664 -0.00187492 -0.00201902)
(0.0979214 -0.00218907 -0.00257308)
(0.0963656 -0.00190849 -0.00237978)
(0.0946329 -0.0016268 -0.00211401)
(0.0929713 -0.00141879 -0.00192663)
(0.0999088 0.000712544 -0.001297)
(0.0969668 0.00274719 -0.00365597)
(0.0935346 0.00211801 -0.00264034)
(0.0895893 0.00162036 -0.00182067)
(0.0858321 0.00139024 -0.00152929)
(0.0825901 0.00116053 -0.00135208)
(0.0798652 0.000896046 -0.00118086)
(0.100226 0.0007208 -0.000720832)
(0.09996 0.00198266 -0.0019828)
(0.0997822 0.00245171 -0.00245206)
(0.0987881 0.00241938 -0.00242)
(0.0972754 0.00220043 -0.00220141)
(0.0957745 0.0018107 -0.00181247)
(0.0943923 0.00138108 -0.00138398)
(0.10014 0.000775002 -0.000869272)
(0.100454 0.00196237 -0.00196368)
(0.100911 0.00242745 -0.00233477)
(0.100978 0.00252641 -0.00244172)
(0.100693 0.00242595 -0.00233742)
(0.100223 0.00219691 -0.00211335)
(0.0997071 0.00191577 -0.00182465)
(0.100093 0.000445937 -0.000763205)
(0.100504 0.00119451 -0.00174904)
(0.101105 0.00158686 -0.00212964)
(0.101634 0.00174055 -0.00223501)
(0.101979 0.00178249 -0.00228774)
(0.10217 0.00172939 -0.00223695)
(0.102251 0.00160878 -0.00211751)
(0.100087 0.000144427 -0.000707015)
(0.100477 0.000390615 -0.00161778)
(0.101066 0.000541322 -0.00203462)
(0.101694 0.000610517 -0.00211764)
(0.102269 0.000636668 -0.0021503)
(0.102742 0.000627942 -0.00218007)
(0.103123 0.000596636 -0.00213462)
(0.100087 -0.00014436 -0.000707009)
(0.100477 -0.000390413 -0.00161776)
(0.101066 -0.000540971 -0.00203463)
(0.101694 -0.000609898 -0.00211755)
(0.102269 -0.000635524 -0.00214995)
(0.102743 -0.00062593 -0.00217942)
(0.100093 -0.000445928 -0.000763192)
(0.100504 -0.00119449 -0.00174899)
(0.101105 -0.00158681 -0.00212947)
(0.101635 -0.0017404 -0.00223444)
(0.10198 -0.00178222 -0.00228662)
(0.102173 -0.00172897 -0.00223531)
(0.10014 -0.000775037 -0.000869225)
(0.100454 -0.00196247 -0.00196347)
(0.100911 -0.00242765 -0.00233428)
(0.100978 -0.00252684 -0.00244089)
(0.100694 -0.0024267 -0.0023362)
(0.100225 -0.00219822 -0.00211172)
(0.100226 -0.000720832 -0.000720798)
(0.09996 -0.00198281 -0.00198265)
(0.0997822 -0.00245206 -0.0024517)
(0.0987881 -0.00242 -0.00241936)
(0.0972754 -0.00220142 -0.00220041)
(0.0957745 -0.00181247 -0.00181067)
(0.0999088 -0.000712564 -0.00129699)
(0.0969668 -0.00274729 -0.00365583)
(0.0935345 -0.00211822 -0.00264012)
(0.089589 -0.00162075 -0.00182027)
(0.0858316 -0.0013908 -0.00152842)
(0.0825892 -0.00116158 -0.00135072)
(0.0956456 -0.00836005 0.00836004)
(0.0904939 0.00152198 -0.00152206)
(0.0790683 0.00242966 -0.00242983)
(0.0713012 0.00148756 -0.00148791)
(0.0661794 0.00083011 -0.000830803)
(0.0623226 0.000563038 -0.00056418)
(0.0592207 0.000424897 -0.000427454)
(0.0999088 0.00129699 -0.000712563)
(0.0969668 0.00365583 -0.00274729)
(0.0935345 0.00264013 -0.00211822)
(0.089589 0.00182028 -0.00162075)
(0.0858316 0.00152844 -0.0013908)
(0.0825892 0.00135075 -0.00116158)
(0.0798636 0.00117838 -0.0008978)
(0.099413 0.000345228 -0.000270232)
(0.0988664 0.00201903 -0.00187492)
(0.0979214 0.00257309 -0.00218906)
(0.0963656 0.0023798 -0.00190849)
(0.0946329 0.00211403 -0.0016268)
(0.0929712 0.00192665 -0.00141879)
(0.0913623 0.00180138 -0.00127147)
(0.0995405 0.000245047 -0.000321897)
(0.0992576 0.00105564 -0.00154092)
(0.0988489 0.00150238 -0.00211449)
(0.0981246 0.00157949 -0.00209171)
(0.0973365 0.00151498 -0.00188629)
(0.0965842 0.00144673 -0.00166614)
(0.095864 0.00141063 -0.00149834)
(0.0993802 3.37925e-05 -5.90045e-05)
(0.0992677 0.000274469 -0.00120005)
(0.0989805 0.000432532 -0.00188845)
(0.0984747 0.000483725 -0.00200641)
(0.0979957 0.000479266 -0.00191462)
(0.097571 0.000466217 -0.00173472)
(0.0971811 0.000454032 -0.00154727)
(0.0993801 -3.37539e-05 -5.89403e-05)
(0.0992678 -0.000274272 -0.00120001)
(0.0989805 -0.000432113 -0.00188843)
(0.0984749 -0.000482989 -0.00200634)
(0.0979962 -0.000477993 -0.00191443)
(0.0975721 -0.000463962 -0.00173432)
(0.0995405 -0.000245031 -0.000321897)
(0.0992576 -0.00105556 -0.00154092)
(0.0988491 -0.00150223 -0.00211437)
(0.0981253 -0.00157923 -0.00209149)
(0.0973379 -0.00151438 -0.00188594)
(0.0965868 -0.00144551 -0.00166561)
(0.099413 -0.000345245 -0.000270224)
(0.0988664 -0.00201911 -0.00187483)
(0.0979217 -0.00257327 -0.00218881)
(0.0963663 -0.00238012 -0.00190806)
(0.0946342 -0.00211454 -0.00162619)
(0.0929738 -0.0019275 -0.00141792)
(0.0999088 -0.001297 -0.000712544)
(0.0969668 -0.00365597 -0.00274719)
(0.0935346 -0.00264035 -0.00211801)
(0.0895893 -0.00182068 -0.00162035)
(0.0858321 -0.0015293 -0.00139022)
(0.0825901 -0.0013521 -0.00116051)
(0.0956456 0.00836005 0.00836005)
(0.0904939 -0.00152207 -0.00152198)
(0.0790683 -0.00242983 -0.00242965)
(0.0713012 -0.00148792 -0.00148755)
(0.0661794 -0.000830815 -0.000830094)
(0.0623226 -0.000564195 -0.000563019)
)
;

boundaryField
{
    inlet
    {
        type            fixedValue;
        value           uniform (0.1 0 0);
    }
    ami1
    {
        type            cyclicAMI;
        value           nonuniform List<vector> 0();
    }
    walls
    {
        type            noSlip;
    }
    ami2
    {
        type            cyclicAMI;
        value           nonuniform List<vector> 0();
    }
    outlet
    {
        type            zeroGradient;
    }
    procBoundary4to3
    {
        type            processor;
        value           nonuniform List<vector> 
109
(
(0.0566848 0.000325935 0.000321429)
(0.0775671 0.0010432 0.00069047)
(0.0898586 0.00170741 0.00115809)
(0.0952031 0.00137618 0.00137111)
(0.0968345 0.00043745 0.0013876)
(0.0968311 -0.000444254 0.00138862)
(0.0951951 -0.00137965 0.00137218)
(0.0898507 -0.00170525 0.00116053)
(0.077564 -0.00103878 0.000693352)
(0.0566848 -0.000321416 0.000325947)
(0.0775639 0.000693348 0.00103881)
(0.0931629 0.00107284 0.00106785)
(0.0991851 0.0016676 0.00157353)
(0.10228 0.00146014 0.00196338)
(0.103429 0.000546934 0.00204369)
(0.103427 -0.000552235 0.00204529)
(0.102273 -0.00146143 0.00196717)
(0.0991805 -0.00166438 0.00157807)
(0.0931629 -0.00106783 0.00107285)
(0.0775671 -0.000690464 0.00104322)
(0.0898507 0.00116053 0.00170528)
(0.0991805 0.00157806 0.0016644)
(0.102714 0.00187233 0.00186761)
(0.104391 0.00149295 0.00205106)
(0.105008 0.000558438 0.00207882)
(0.105006 -0.000560983 0.00208058)
(0.104388 -0.00149161 0.00205553)
(0.102714 -0.00186758 0.00187233)
(0.0991852 -0.00157351 0.00166761)
(0.0898587 -0.00115809 0.00170742)
(0.0951951 0.00137219 0.00137969)
(0.102273 0.00196717 0.00146146)
(0.104388 0.00205554 0.00149164)
(0.105223 0.00152807 0.00152557)
(0.105516 0.000558121 0.00150811)
(0.105515 -0.000557961 0.00150939)
(0.105223 -0.00152553 0.00152806)
(0.104391 -0.00205104 0.00149295)
(0.10228 -0.00196336 0.00146014)
(0.0952032 -0.00137111 0.00137618)
(0.096831 0.00138863 0.000444299)
(0.103427 0.0020453 0.000552272)
(0.105006 0.00208059 0.000561018)
(0.105515 0.0015094 0.000558)
(0.105677 0.000546394 0.000545876)
(0.105677 -0.000545833 0.000546384)
(0.105516 -0.00150808 0.000558116)
(0.105008 -0.00207879 0.000558436)
(0.10343 -0.00204368 0.000546933)
(0.0968346 -0.0013876 0.000437449)
(0.0968345 0.00138761 -0.000437402)
(0.103429 0.00204371 -0.000546893)
(0.105008 0.00207884 -0.0005584)
(0.105516 0.00150813 -0.00055808)
(0.105677 0.000545894 -0.000546348)
(0.105677 -0.000546334 -0.000545842)
(0.104618 -0.000582594 -0.00154905)
(0.105515 -0.00150935 -0.000557967)
(0.104446 -0.00160571 -0.00160413)
(0.105006 -0.00208055 -0.000560987)
(0.103893 -0.00218739 -0.00163425)
(0.103427 -0.00204527 -0.00055224)
(0.102251 -0.0021175 -0.00160873)
(0.0968311 -0.00138861 -0.000444261)
(0.095864 -0.00149834 -0.00141059)
(0.0952031 0.00137113 -0.00137612)
(0.10228 0.0019634 -0.0014601)
(0.104391 0.00205109 -0.00149291)
(0.105223 0.00152559 -0.00152803)
(0.105515 0.000558024 -0.00150936)
(0.104618 -0.000582594 -0.00154905)
(0.104618 -0.000582594 -0.00154905)
(0.104446 -0.00160571 -0.00160413)
(0.103893 -0.00218739 -0.00163425)
(0.102251 -0.0021175 -0.00160873)
(0.095864 -0.00149834 -0.00141059)
(0.0898586 0.00115812 -0.00170736)
(0.0991851 0.00157356 -0.00166757)
(0.102714 0.00186764 -0.0018723)
(0.104388 0.00149167 -0.00205551)
(0.105006 0.000561046 -0.00208056)
(0.104298 -0.000603986 -0.00215284)
(0.104298 -0.000603986 -0.00215284)
(0.103894 -0.00163506 -0.00218467)
(0.102645 -0.00209457 -0.00209163)
(0.0997071 -0.00182465 -0.00191574)
(0.0913623 -0.00127148 -0.00180135)
(0.0775671 0.000690495 -0.00104316)
(0.0931629 0.00106789 -0.00107281)
(0.0991805 0.00166444 -0.00157804)
(0.102273 0.00146149 -0.00196715)
(0.103427 0.000552298 -0.00204527)
(0.103125 -0.000593336 -0.0021336)
(0.103125 -0.000593336 -0.0021336)
(0.102254 -0.00160798 -0.00211503)
(0.0997098 -0.00191785 -0.00182209)
(0.0943923 -0.00138398 -0.00138104)
(0.0798636 -0.000897802 -0.00117835)
(0.0566848 0.000321462 -0.000325907)
(0.077564 0.00103885 -0.000693337)
(0.0898507 0.00170531 -0.00116051)
(0.0951951 0.00137971 -0.00137218)
(0.0968311 0.00044431 -0.00138862)
(0.0971831 -0.000450013 -0.00154667)
(0.0971831 -0.000450013 -0.00154667)
(0.0958687 -0.00140846 -0.00149771)
(0.0913669 -0.00180264 -0.00127003)
(0.0798653 -0.00118088 -0.000896023)
(0.0592208 -0.000427477 -0.000424869)
)
;
    }
}


// ************************************************************************* //
