/*--------------------------------*- C++ -*----------------------------------*\
| =========                 |                                                 |
| \\      /  F ield         | OpenFOAM: The Open Source CFD Toolbox           |
|  \\    /   O peration     | Version:  2212                                  |
|   \\  /    A nd           | Website:  www.openfoam.com                      |
|    \\/     M anipulation  |                                                 |
\*---------------------------------------------------------------------------*/
FoamFile
{
    version     2.0;
    format      ascii;
    arch        "LSB;label=32;scalar=64";
    class       surfaceVectorField;
    location    "2.75";
    object      Uf;
}
// * * * * * * * * * * * * * * * * * * * * * * * * * * * * * * * * * * * * * //

dimensions      [0 1 -1 0 0 0 0];

internalField   nonuniform List<vector> 
1826
(
(0.0242173 -3.73511e-05 4.60457e-06)
(0.0309693 -9.69046e-05 -4.87368e-05)
(0.02988 -3.03765e-05 3.26092e-05)
(0.0239702 -3.65396e-05 5.41307e-06)
(0.0306698 -9.3677e-05 -4.42687e-05)
(0.0295928 -3.10704e-05 3.04391e-05)
(0.0237266 -3.56819e-05 7.40056e-06)
(0.030375 -9.24423e-05 -4.06648e-05)
(0.0293112 -3.16098e-05 3.07877e-05)
(0.0234913 -3.51061e-05 9.79528e-06)
(0.0300838 -9.20124e-05 -3.65709e-05)
(0.0290353 -3.0335e-05 3.32217e-05)
(0.0232612 -3.46012e-05 1.17912e-05)
(0.029798 -9.2428e-05 -3.29678e-05)
(0.0287661 -2.93944e-05 3.55101e-05)
(0.029524 -9.16562e-05 -2.98093e-05)
(0.0285103 -2.77539e-05 3.73076e-05)
(0.0407332 -0.000167703 -0.00012088)
(0.047987 -0.0002268 -0.000264689)
(0.0542539 -0.000179409 -7.61617e-05)
(0.040356 -0.00016189 -0.00011177)
(0.0475429 -0.000212846 -0.000245267)
(0.0538504 -0.000182424 -7.50306e-05)
(0.0399844 -0.00016002 -0.000104957)
(0.0471128 -0.000206159 -0.000231541)
(0.0534586 -0.000183771 -7.43456e-05)
(0.0396207 -0.000160028 -9.87929e-05)
(0.0466858 -0.000203482 -0.000220391)
(0.0530699 -0.0001817 -6.99677e-05)
(0.0392617 -0.000160162 -9.33055e-05)
(0.0462643 -0.000202646 -0.000210947)
(0.052679 -0.000181472 -6.56971e-05)
(0.0458584 -0.000202103 -0.000202925)
(0.0523073 -0.000177405 -6.0143e-05)
(0.0565234 -0.000260562 -0.000421587)
(0.0612691 -0.000325795 -0.00060755)
(0.0726567 -0.00033537 -0.000441707)
(0.0560085 -0.000250153 -0.000395794)
(0.0606862 -0.000319598 -0.000580516)
(0.0722784 -0.000326034 -0.0004207)
(0.0555037 -0.00024511 -0.000376395)
(0.060128 -0.000313563 -0.00055785)
(0.0719067 -0.00032138 -0.000405554)
(0.055009 -0.000243272 -0.00036098)
(0.0595723 -0.00031146 -0.000538882)
(0.0715323 -0.000316804 -0.000390808)
(0.0545228 -0.000242304 -0.000348217)
(0.0590312 -0.000308558 -0.000522044)
(0.0711567 -0.000316122 -0.000379089)
(0.0584996 -0.000306024 -0.000507305)
(0.0707847 -0.000314468 -0.00036803)
(0.0660474 -0.000407241 -0.000788694)
(0.0688677 -0.000425065 -0.0008933)
(0.0822287 -0.000431182 -0.000801257)
(0.0654148 -0.000402192 -0.000765359)
(0.0682005 -0.000416977 -0.000871307)
(0.0818363 -0.000428775 -0.000779165)
(0.0647951 -0.000396876 -0.000743201)
(0.0675523 -0.000408455 -0.000848587)
(0.0814494 -0.000427184 -0.000758962)
(0.0641882 -0.000391836 -0.000722671)
(0.0669116 -0.000400947 -0.000826937)
(0.0810611 -0.000427316 -0.000741257)
(0.0635926 -0.000386585 -0.000703501)
(0.0662859 -0.000393328 -0.000805146)
(0.080679 -0.000427351 -0.000724709)
(0.0656694 -0.000385984 -0.000783549)
(0.0802938 -0.00042653 -0.000709252)
(0.0712005 -0.000463597 -0.000976175)
(0.0717503 -0.000473035 -0.00099293)
(0.0868879 -0.000502666 -0.00100043)
(0.0705171 -0.000451869 -0.000954852)
(0.0710759 -0.00046011 -0.000968806)
(0.0864871 -0.000501062 -0.000980954)
(0.0698449 -0.000442187 -0.000932349)
(0.0704131 -0.000449091 -0.000941883)
(0.0860867 -0.000499957 -0.000960782)
(0.0691836 -0.00043382 -0.000908905)
(0.0697679 -0.000439808 -0.000914058)
(0.0856921 -0.000498279 -0.000940164)
(0.0685349 -0.000424764 -0.000884312)
(0.0691343 -0.000429757 -0.000885897)
(0.0852982 -0.000495139 -0.000918118)
(0.0685209 -0.000416508 -0.000857863)
(0.0849097 -0.000490309 -0.000896191)
(0.0716304 -0.000468591 -0.000986027)
(0.0700819 -0.000431329 -0.000939382)
(0.0872919 -0.00050951 -0.00102743)
(0.0709781 -0.000457064 -0.000955964)
(0.0694595 -0.000420231 -0.000905389)
(0.0869158 -0.000505582 -0.00099738)
(0.0703418 -0.000444049 -0.000924449)
(0.0688525 -0.000405157 -0.000868879)
(0.0865468 -0.000501119 -0.000968853)
(0.0697243 -0.000429416 -0.000893087)
(0.0682674 -0.000385434 -0.000833654)
(0.0861854 -0.000495602 -0.000943817)
(0.0691261 -0.000412674 -0.000862265)
(0.0676965 -0.000363395 -0.000799985)
(0.0858304 -0.00048876 -0.000920532)
(0.0671538 -0.000339348 -0.000767689)
(0.0854869 -0.000478807 -0.000895479)
(0.0679527 -0.00037934 -0.000862324)
(0.0645904 -0.000294687 -0.000742785)
(0.0842077 -0.000425101 -0.000919604)
(0.0673758 -0.000361803 -0.000823392)
(0.0640569 -0.000279773 -0.000693857)
(0.0838756 -0.000414336 -0.000885602)
(0.0668172 -0.00033922 -0.000783695)
(0.063536 -0.000257647 -0.000634044)
(0.0835551 -0.000399697 -0.000851044)
(0.066279 -0.000313027 -0.000745851)
(0.0630496 -0.000233087 -0.000587242)
(0.0832445 -0.000381607 -0.000818211)
(0.0657601 -0.000285374 -0.000710016)
(0.0625662 -0.000208054 -0.000552015)
(0.0829416 -0.000362287 -0.000791598)
(0.0621158 -0.000186135 -0.000522531)
(0.0826519 -0.0003419 -0.000762697)
(0.0609419 -0.000192999 -0.000589204)
(0.0559735 -0.000123197 -0.000441926)
(0.0781403 -0.000219437 -0.000685192)
(0.0604592 -0.000177946 -0.000517736)
(0.0555292 -0.000114687 -0.000407253)
(0.0778531 -0.00020613 -0.000652158)
(0.0600055 -0.000159348 -0.000448375)
(0.0550827 -0.000105872 -0.000362596)
(0.0775727 -0.000189599 -0.000607666)
(0.0595722 -0.000140445 -0.000401573)
(0.0546727 -9.67462e-05 -0.000329694)
(0.0773055 -0.00017192 -0.000573722)
(0.0591507 -0.000123852 -0.000370619)
(0.0542543 -8.81639e-05 -0.000306697)
(0.0770358 -0.000155363 -0.000550339)
(0.0538672 -8.10689e-05 -0.000289504)
(0.0767773 -0.000141953 -0.000529985)
(0.051191 -4.28245e-05 -0.000288667)
(0.0440941 -9.24103e-06 -0.000204545)
(0.0685035 -2.88031e-06 -0.000429339)
(0.0507762 -4.39322e-05 -0.000273667)
(0.0437216 -1.58951e-05 -0.000189184)
(0.0681951 4.79336e-07 -0.000420618)
(0.0503713 -4.38123e-05 -0.000261449)
(0.0433454 -2.16948e-05 -0.000177453)
(0.0678705 4.26529e-06 -0.000418597)
(0.049975 -4.2306e-05 -0.000251235)
(0.0429908 -2.4628e-05 -0.000169419)
(0.0675605 7.47345e-06 -0.000414921)
(0.0495858 -4.04178e-05 -0.000242056)
(0.0426331 -2.57464e-05 -0.000162712)
(0.0672363 1.01565e-05 -0.000409373)
(0.0422993 -2.59206e-05 -0.000156847)
(0.0669287 1.15804e-05 -0.000400493)
(0.0380596 -3.48802e-05 -7.54778e-05)
(0.0299069 -3.32465e-05 -3.1352e-05)
(0.0527564 2.41341e-05 -0.000155093)
(0.0377133 -3.74428e-05 -7.1047e-05)
(0.0296215 -3.24765e-05 -3.19114e-05)
(0.0523832 2.70098e-05 -0.000160886)
(0.0373803 -4.11599e-05 -6.73862e-05)
(0.0293377 -3.41432e-05 -3.1405e-05)
(0.052003 2.48836e-05 -0.000161227)
(0.0370577 -4.40741e-05 -6.42925e-05)
(0.029065 -3.64826e-05 -3.05293e-05)
(0.0516428 2.10597e-05 -0.000158837)
(0.036744 -4.58288e-05 -6.12784e-05)
(0.0287967 -3.81727e-05 -2.94826e-05)
(0.0512771 1.76891e-05 -0.000155601)
(0.028542 -3.93629e-05 -2.81288e-05)
(0.0509329 1.3983e-05 -0.000150281)
(0.0242403 -5.59197e-06 -3.79935e-05)
(0.0309912 4.82451e-05 -9.68239e-05)
(0.0239915 -7.3192e-06 -3.73015e-05)
(0.0306944 4.30155e-05 -9.51004e-05)
(0.02375 -9.71753e-06 -3.64792e-05)
(0.0303975 3.81706e-05 -9.41392e-05)
(0.0235152 -1.19236e-05 -3.58538e-05)
(0.0301094 3.40101e-05 -9.39531e-05)
(0.0232867 -1.36486e-05 -3.51838e-05)
(0.0298247 3.04455e-05 -9.36132e-05)
(0.0295521 2.73357e-05 -9.269e-05)
(0.0380244 -7.38695e-05 3.32372e-05)
(0.0527358 -0.000154216 -2.63948e-05)
(0.0440607 -0.000203252 8.28184e-06)
(0.0376792 -7.10597e-05 3.38045e-05)
(0.0523495 -0.000158551 -3.022e-05)
(0.043679 -0.000188563 1.2694e-05)
(0.0373429 -6.80983e-05 3.67267e-05)
(0.0519761 -0.000161224 -2.98771e-05)
(0.0433099 -0.000178725 1.64164e-05)
(0.0370194 -6.44533e-05 4.03047e-05)
(0.0516086 -0.000157534 -2.61269e-05)
(0.0429494 -0.000169866 2.00501e-05)
(0.0367036 -6.11313e-05 4.30394e-05)
(0.0512409 -0.000155784 -2.26488e-05)
(0.0425902 -0.000163104 2.21798e-05)
(0.0508947 -0.000149924 -1.80996e-05)
(0.0422548 -0.000156768 2.34804e-05)
(0.0708269 -0.000293046 -0.000107107)
(0.08042 -0.00041909 -0.00029591)
(0.0791772 -0.000475525 -0.00011415)
(0.0704012 -0.000299947 -0.000111572)
(0.0800915 -0.000420056 -0.00029568)
(0.0788499 -0.000480892 -0.000119408)
(0.0699796 -0.000297148 -0.000110413)
(0.0797666 -0.000414195 -0.000292644)
(0.0785282 -0.000485265 -0.000121235)
(0.069563 -0.000292631 -0.000106634)
(0.0794391 -0.000405259 -0.000284491)
(0.0782017 -0.000478343 -0.00012022)
(0.0691484 -0.000285967 -0.00010092)
(0.0791011 -0.000401854 -0.000278349)
(0.077868 -0.000474293 -0.000118424)
(0.0787709 -0.000393918 -0.000269182)
(0.0775428 -0.000462279 -0.000113608)
(0.0911917 -0.000480885 -0.000521277)
(0.0955536 -0.000483231 -0.000698131)
(0.0982448 -0.000675715 -0.000507277)
(0.0909843 -0.000477504 -0.000511802)
(0.0953976 -0.000484157 -0.000684286)
(0.0981906 -0.00067298 -0.000503603)
(0.090762 -0.000472027 -0.000500501)
(0.0952259 -0.000486096 -0.000672139)
(0.0981232 -0.00067438 -0.000498948)
(0.0905297 -0.000467875 -0.000489141)
(0.0950469 -0.000485132 -0.000657573)
(0.098042 -0.00066895 -0.000491362)
(0.0902867 -0.000466173 -0.000479019)
(0.0948561 -0.000489247 -0.000646275)
(0.0979535 -0.000669246 -0.000487211)
(0.0946553 -0.000489853 -0.000633378)
(0.0978466 -0.000666155 -0.000481131)
(0.100181 -0.000511855 -0.000873497)
(0.102082 -0.000542098 -0.000981116)
(0.106599 -0.0006419 -0.000862797)
(0.10007 -0.000514997 -0.000857276)
(0.10199 -0.000549071 -0.000963886)
(0.106646 -0.000642112 -0.000851318)
(0.0999461 -0.000519575 -0.000842104)
(0.101884 -0.000557093 -0.000947081)
(0.106677 -0.000646304 -0.000840772)
(0.0998115 -0.000524838 -0.000827913)
(0.101774 -0.000561849 -0.000930027)
(0.106705 -0.000653439 -0.000831958)
(0.0996688 -0.000529009 -0.000814123)
(0.101654 -0.000565352 -0.000914292)
(0.106721 -0.000661994 -0.000824454)
(0.101526 -0.000566111 -0.000899403)
(0.10673 -0.000669381 -0.000815936)
(0.103991 -0.000582346 -0.00107659)
(0.104183 -0.000576017 -0.00110261)
(0.110167 -0.000633578 -0.00108175)
(0.103907 -0.000592956 -0.00105914)
(0.104113 -0.000583297 -0.00107821)
(0.110238 -0.000644252 -0.00106832)
(0.103816 -0.000600533 -0.00104055)
(0.104038 -0.000589676 -0.00105756)
(0.110302 -0.0006545 -0.00105557)
(0.103719 -0.00060473 -0.00102149)
(0.103958 -0.000594015 -0.00104006)
(0.110361 -0.000662183 -0.00104282)
(0.103615 -0.000607208 -0.00100389)
(0.103871 -0.000597786 -0.00102351)
(0.110414 -0.00066647 -0.00102914)
(0.103781 -0.000599566 -0.00100663)
(0.110463 -0.000668439 -0.00101502)
(0.104308 -0.000576781 -0.00110451)
(0.103181 -0.000530373 -0.00106783)
(0.110615 -0.000564492 -0.00114992)
(0.104247 -0.000580877 -0.00107643)
(0.103126 -0.000528809 -0.00103659)
(0.1107 -0.000568469 -0.00112417)
(0.104183 -0.0005854 -0.00105633)
(0.103074 -0.000527665 -0.00101049)
(0.110782 -0.000572797 -0.00110403)
(0.104114 -0.000589141 -0.00104144)
(0.103016 -0.000525531 -0.000988798)
(0.110861 -0.000577173 -0.00108963)
(0.104039 -0.000590656 -0.00102621)
(0.102958 -0.000522036 -0.000974362)
(0.110936 -0.000581534 -0.00107952)
(0.102894 -0.000515712 -0.000955671)
(0.111009 -0.000582781 -0.00106524)
(0.102019 -0.000480853 -0.00100189)
(0.099657 -0.000366669 -0.000908398)
(0.108735 -0.000415067 -0.00108796)
(0.101973 -0.000473579 -0.000972899)
(0.0996011 -0.000356733 -0.000888363)
(0.108825 -0.000407867 -0.00106273)
(0.101927 -0.000464201 -0.000946038)
(0.0995503 -0.000344952 -0.0008695)
(0.108918 -0.000399873 -0.00104032)
(0.10188 -0.000453854 -0.00092536)
(0.0994854 -0.000330659 -0.00085143)
(0.109008 -0.000391458 -0.0010199)
(0.10183 -0.000442929 -0.000907354)
(0.0994223 -0.000317732 -0.000838719)
(0.1091 -0.00038407 -0.00100732)
(0.0993479 -0.000305957 -0.000819859)
(0.109185 -0.000374977 -0.000988389)
(0.0973648 -0.000243368 -0.000803273)
(0.0927869 -0.000104544 -0.000712482)
(0.104676 -0.000133752 -0.000923685)
(0.0973039 -0.000227193 -0.000793953)
(0.092657 -8.83283e-05 -0.000708077)
(0.104747 -0.000116871 -0.000913704)
(0.0972331 -0.000210766 -0.000783401)
(0.0925183 -7.24371e-05 -0.000708296)
(0.104821 -0.000100392 -0.000900749)
(0.0971536 -0.00019514 -0.000772414)
(0.0923674 -6.06583e-05 -0.000704211)
(0.104879 -8.55003e-05 -0.00088692)
(0.0970666 -0.00018158 -0.000758653)
(0.0922076 -5.13224e-05 -0.000697991)
(0.104939 -7.23199e-05 -0.000876128)
(0.0920419 -4.47576e-05 -0.000685226)
(0.104988 -6.11229e-05 -0.000862969)
(0.0884999 4.43748e-05 -0.000630631)
(0.0791718 0.000109528 -0.00047842)
(0.0968156 0.000207862 -0.000764903)
(0.0882979 5.38738e-05 -0.000630656)
(0.078863 0.000113923 -0.00048091)
(0.0967639 0.000217046 -0.000761826)
(0.0880843 6.16842e-05 -0.000634028)
(0.0785339 0.000114304 -0.000480088)
(0.0967 0.000224697 -0.000762965)
(0.087861 6.65081e-05 -0.000633407)
(0.0782175 0.000112485 -0.000475662)
(0.0966229 0.000229273 -0.000761775)
(0.0876289 6.88331e-05 -0.000627436)
(0.0778839 0.00011064 -0.000470982)
(0.0965362 0.000232361 -0.000760293)
(0.0775638 0.000106849 -0.000461186)
(0.0964384 0.000232553 -0.000754498)
(0.0708441 0.000102911 -0.000292508)
(0.0542674 7.48142e-05 -0.000179075)
(0.0804214 0.000290062 -0.00041417)
(0.0704224 0.000106805 -0.000300548)
(0.0538785 7.31081e-05 -0.000184493)
(0.0801088 0.000292574 -0.000421929)
(0.0700049 0.000104558 -0.00029772)
(0.05348 6.99447e-05 -0.000184922)
(0.0797765 0.000287522 -0.00041557)
(0.0695923 9.99838e-05 -0.000292331)
(0.0530984 6.56677e-05 -0.000183929)
(0.0794554 0.000279887 -0.000407931)
(0.0691828 9.41496e-05 -0.000285209)
(0.0527098 6.08163e-05 -0.000182015)
(0.0791187 0.000271265 -0.000400667)
(0.0523407 5.54266e-05 -0.000178362)
(0.0787916 0.000262169 -0.000393407)
(0.0407581 0.000120196 -0.000168517)
(0.0479989 0.00026389 -0.000226278)
(0.0403802 0.000109891 -0.00016431)
(0.0475686 0.000243558 -0.000214329)
(0.0400115 0.000102029 -0.000162845)
(0.0471336 0.000228198 -0.000207236)
(0.0396487 9.55768e-05 -0.000162472)
(0.0467142 0.000216694 -0.000205515)
(0.0392928 8.98085e-05 -0.000161824)
(0.0462939 0.00020696 -0.000203911)
(0.0458904 0.00019873 -0.00020362)
(0.0511511 -0.000289857 3.88925e-05)
(0.0684932 -0.000427532 -3.23941e-07)
(0.0559438 -0.000444675 0.000116693)
(0.0507348 -0.000274179 3.91424e-05)
(0.0681711 -0.000420499 -6.04153e-06)
(0.0554806 -0.000406257 0.000108807)
(0.0503278 -0.000261992 3.87576e-05)
(0.0678541 -0.000423612 -1.1465e-05)
(0.0550498 -0.000360183 0.000101111)
(0.0499296 -0.000252109 3.77265e-05)
(0.0675357 -0.000417767 -1.40869e-05)
(0.0546269 -0.00032848 9.17219e-05)
(0.049537 -0.000242814 3.69286e-05)
(0.0672122 -0.000412289 -1.60641e-05)
(0.0542138 -0.000307076 8.33832e-05)
(0.0669 -0.000401717 -1.62207e-05)
(0.0538188 -0.000289793 7.78768e-05)
(0.0885097 -0.000625968 -4.93731e-05)
(0.0968276 -0.000760831 -0.000213075)
(0.0927968 -0.000707059 0.000100417)
(0.0883064 -0.000637133 -6.19961e-05)
(0.0967748 -0.000761761 -0.000222822)
(0.0926667 -0.000708236 8.08732e-05)
(0.088088 -0.000643134 -7.06789e-05)
(0.096711 -0.000771449 -0.000232831)
(0.0925268 -0.000716304 6.35038e-05)
(0.0878622 -0.000638827 -7.47296e-05)
(0.0966309 -0.000766813 -0.000236746)
(0.0923753 -0.000708278 5.25149e-05)
(0.0876283 -0.00063091 -7.62128e-05)
(0.0965473 -0.000764798 -0.000239813)
(0.0922156 -0.000703658 4.39256e-05)
(0.0964461 -0.000757363 -0.000239667)
(0.0920476 -0.000687535 3.78063e-05)
(0.106074 -0.000840893 -0.000418184)
(0.109658 -0.000776866 -0.000588985)
(0.109221 -0.000900251 -0.000214391)
(0.106179 -0.000846116 -0.00042394)
(0.109818 -0.000778603 -0.00058799)
(0.109388 -0.000900848 -0.000225945)
(0.106273 -0.00085108 -0.000427949)
(0.109966 -0.000789247 -0.000588075)
(0.109543 -0.00090541 -0.000238731)
(0.10635 -0.0008518 -0.000430335)
(0.110103 -0.000795694 -0.000588955)
(0.10969 -0.000899087 -0.000247134)
(0.106417 -0.000851342 -0.000431656)
(0.110233 -0.000803146 -0.000590453)
(0.109833 -0.000895145 -0.000254886)
(0.110347 -0.000807961 -0.000590489)
(0.109961 -0.000890106 -0.00025979)
(0.113685 -0.000739908 -0.000764718)
(0.115169 -0.000701356 -0.000882558)
(0.116503 -0.000759731 -0.00055672)
(0.113889 -0.000740872 -0.000759077)
(0.115391 -0.000704299 -0.000874748)
(0.116768 -0.000757458 -0.00055616)
(0.11409 -0.000748609 -0.000756882)
(0.115606 -0.000711764 -0.00086956)
(0.117027 -0.000760432 -0.000557012)
(0.114281 -0.000760425 -0.000757225)
(0.115817 -0.000722746 -0.000867861)
(0.117284 -0.000766905 -0.00056051)
(0.114464 -0.000773673 -0.000757392)
(0.116019 -0.000732147 -0.000863853)
(0.117534 -0.000775902 -0.000564584)
(0.116218 -0.00074047 -0.000857454)
(0.117779 -0.000785403 -0.00056768)
(0.116946 -0.00066244 -0.000998104)
(0.117116 -0.000589352 -0.00105428)
(0.119721 -0.000621817 -0.000796936)
(0.117178 -0.000673069 -0.0009904)
(0.117354 -0.000596722 -0.00104083)
(0.120015 -0.000628175 -0.000791475)
(0.117404 -0.000684307 -0.000985509)
(0.117588 -0.000603877 -0.00103093)
(0.120306 -0.000635724 -0.000788357)
(0.117626 -0.000692604 -0.00097938)
(0.117818 -0.000611135 -0.00102371)
(0.120592 -0.000643341 -0.00078717)
(0.117845 -0.000696094 -0.000968818)
(0.118045 -0.000616363 -0.00101703)
(0.120876 -0.000648619 -0.000784312)
(0.11827 -0.000618343 -0.0010044)
(0.121157 -0.000651613 -0.00077836)
(0.117528 -0.000524289 -0.00109708)
(0.116699 -0.00041892 -0.00109884)
(0.120416 -0.000428109 -0.000922945)
(0.117768 -0.000529054 -0.00108104)
(0.11694 -0.000418103 -0.00108128)
(0.120717 -0.000431413 -0.000909855)
(0.118005 -0.000533774 -0.00106815)
(0.11718 -0.000417651 -0.00106579)
(0.121016 -0.000434996 -0.000899892)
(0.118241 -0.000539279 -0.00105985)
(0.117418 -0.000418275 -0.00105313)
(0.121313 -0.000439041 -0.000892644)
(0.118475 -0.000543472 -0.00105094)
(0.117656 -0.000419476 -0.00104585)
(0.12161 -0.000443906 -0.000889957)
(0.11789 -0.000417334 -0.00103098)
(0.121904 -0.000446215 -0.000882866)
(0.11612 -0.000312771 -0.00108378)
(0.114295 -0.000149782 -0.00103416)
(0.119189 -0.000173184 -0.000946747)
(0.116361 -0.000305426 -0.00106741)
(0.114523 -0.00013749 -0.00102508)
(0.119486 -0.000167736 -0.000934107)
(0.116602 -0.00029888 -0.00105308)
(0.114753 -0.000125963 -0.0010129)
(0.119783 -0.000162633 -0.000922897)
(0.116842 -0.000293938 -0.00104205)
(0.114978 -0.000116451 -0.000999062)
(0.120079 -0.000158664 -0.000913147)
(0.117082 -0.000288674 -0.00102893)
(0.115205 -0.000108869 -0.00098965)
(0.120375 -0.000155688 -0.000907797)
(0.115425 -0.00010028 -0.000977192)
(0.120668 -0.000151248 -0.000898167)
(0.112768 2.0447e-05 -0.000978798)
(0.109212 0.000208817 -0.000900926)
(0.116025 0.000176891 -0.00087528)
(0.112987 3.56811e-05 -0.000973131)
(0.10937 0.00022174 -0.000904116)
(0.116292 0.000187427 -0.000876171)
(0.113202 4.94562e-05 -0.000961099)
(0.109528 0.000233012 -0.000902323)
(0.11656 0.000197158 -0.000873274)
(0.113415 6.1376e-05 -0.000948859)
(0.10967 0.000242044 -0.000896407)
(0.116824 0.000206021 -0.000866275)
(0.113624 7.18176e-05 -0.000939834)
(0.109812 0.000249147 -0.000892826)
(0.117087 0.000214482 -0.000863071)
(0.109937 0.0002532 -0.000887523)
(0.117343 0.000222344 -0.000860593)
(0.106062 0.000411921 -0.000841366)
(0.0982406 0.000499449 -0.000671508)
(0.109653 0.000581471 -0.000776039)
(0.106166 0.000418023 -0.000846093)
(0.0981846 0.000499458 -0.000676874)
(0.109805 0.000582691 -0.000782014)
(0.106255 0.000421352 -0.000847719)
(0.098117 0.000493373 -0.000673951)
(0.109955 0.000582518 -0.000788411)
(0.106332 0.000423592 -0.000848551)
(0.0980345 0.000486331 -0.000670285)
(0.110088 0.000583193 -0.000794967)
(0.106397 0.000424358 -0.000848181)
(0.0979444 0.000479788 -0.000667293)
(0.110217 0.000583542 -0.000801397)
(0.0978386 0.000473127 -0.000664229)
(0.11033 0.000583161 -0.000806229)
(0.0911936 0.000516283 -0.000480702)
(0.0726563 0.000437537 -0.000332972)
(0.0955595 0.000689647 -0.000479374)
(0.0909853 0.000508382 -0.00048116)
(0.0722929 0.000417985 -0.000327619)
(0.0954019 0.000681257 -0.000487121)
(0.0907636 0.000496754 -0.000476176)
(0.0719159 0.000400719 -0.000321596)
(0.0952317 0.000667571 -0.000487808)
(0.0905306 0.00048416 -0.000470757)
(0.0715485 0.000386712 -0.000319507)
(0.0950503 0.000655345 -0.000490567)
(0.090289 0.000471602 -0.000465805)
(0.0711731 0.000373327 -0.000316596)
(0.0948591 0.000638772 -0.000488855)
(0.0708039 0.000361975 -0.000315441)
(0.0946602 0.000626178 -0.000490043)
(0.0565377 0.000419617 -0.000260097)
(0.0612731 0.000605785 -0.000326489)
(0.0560267 0.000392454 -0.000249342)
(0.0607119 0.000576939 -0.000317261)
(0.0555275 0.000372136 -0.000244985)
(0.0601455 0.0005529 -0.000311302)
(0.0550366 0.00035636 -0.000243987)
(0.0596035 0.000533221 -0.000309878)
(0.0545546 0.000343393 -0.000243783)
(0.0590619 0.000516492 -0.000308454)
(0.0585344 0.000501354 -0.000307649)
(0.0609057 -0.000588466 0.00018583)
(0.078128 -0.000686872 0.000214036)
(0.0645611 -0.000745553 0.00028882)
(0.0604225 -0.000514225 0.000171115)
(0.0778342 -0.000650815 0.00019956)
(0.064015 -0.000694614 0.000272145)
(0.0599676 -0.000444944 0.000153291)
(0.077562 -0.000607265 0.000183002)
(0.0635059 -0.000633163 0.000250644)
(0.0595333 -0.00039989 0.000134916)
(0.0772889 -0.000574007 0.000165468)
(0.0630079 -0.000586556 0.000226387)
(0.0591099 -0.000370435 0.000119344)
(0.0770246 -0.000553244 0.000149335)
(0.0625329 -0.000551986 0.000202791)
(0.0767601 -0.000531908 0.000136966)
(0.0620723 -0.000523675 0.000181591)
(0.0973728 -0.000801814 0.000238239)
(0.104683 -0.000920474 0.000129574)
(0.09966 -0.000908186 0.000364193)
(0.0973147 -0.000794272 0.00022056)
(0.104763 -0.000911258 0.000111962)
(0.0996125 -0.000887989 0.00035314)
(0.0972466 -0.000785589 0.000203419)
(0.104833 -0.000902877 9.42751e-05)
(0.0995581 -0.000871304 0.000339658)
(0.0971683 -0.000776653 0.000187895)
(0.104899 -0.000888884 7.92967e-05)
(0.0995003 -0.00085325 0.000325252)
(0.097082 -0.000763108 0.000174772)
(0.104956 -0.000880407 6.62923e-05)
(0.0994348 -0.000842362 0.000311855)
(0.105009 -0.000865357 5.49964e-05)
(0.0993644 -0.000821518 0.000300639)
(0.112784 -0.000975377 -2.4127e-05)
(0.116034 -0.00087221 -0.000180697)
(0.114305 -0.00103117 0.000147351)
(0.113004 -0.000973044 -3.98201e-05)
(0.116308 -0.000873034 -0.000191003)
(0.114539 -0.00102249 0.000135492)
(0.113222 -0.000963798 -5.41175e-05)
(0.116574 -0.000873481 -0.000200928)
(0.114767 -0.00101367 0.000122784)
(0.113436 -0.000951051 -6.61809e-05)
(0.116841 -0.000866872 -0.000209837)
(0.114997 -0.00100085 0.000112822)
(0.113648 -0.00094175 -7.71389e-05)
(0.117105 -0.000863383 -0.000218767)
(0.115224 -0.000991006 0.000104651)
(0.117365 -0.000861273 -0.000227513)
(0.115448 -0.000978596 9.55152e-05)
(0.119778 -0.000787239 -0.000350903)
(0.12117 -0.000694668 -0.000469464)
(0.121066 -0.000800461 -0.000163378)
(0.1201 -0.000786514 -0.000356427)
(0.121511 -0.000694387 -0.000471983)
(0.121406 -0.000794741 -0.000168364)
(0.120422 -0.000787092 -0.000361513)
(0.121848 -0.000695543 -0.000474602)
(0.121745 -0.000791473 -0.000172406)
(0.12074 -0.000789576 -0.000367283)
(0.122184 -0.000696988 -0.000477665)
(0.122082 -0.000788676 -0.000176049)
(0.121055 -0.000794148 -0.00037373)
(0.122518 -0.000701792 -0.000481987)
(0.122418 -0.000789949 -0.000180553)
(0.122849 -0.000707034 -0.000485019)
(0.122752 -0.000791532 -0.000186394)
(0.122961 -0.000593946 -0.000596541)
(0.123186 -0.000464597 -0.000674222)
(0.124211 -0.000554929 -0.00040244)
(0.123317 -0.000596882 -0.000595598)
(0.123547 -0.000466502 -0.00066911)
(0.124591 -0.000554897 -0.00040236)
(0.123671 -0.000600269 -0.000595648)
(0.123905 -0.000469194 -0.000665514)
(0.124968 -0.000555822 -0.00040291)
(0.124023 -0.000604342 -0.000597087)
(0.124262 -0.00047214 -0.000663471)
(0.125343 -0.000557073 -0.000403967)
(0.124374 -0.000608723 -0.000598274)
(0.124619 -0.000475572 -0.000664283)
(0.125718 -0.000559498 -0.000405569)
(0.124973 -0.000478252 -0.000663341)
(0.126091 -0.000561315 -0.000405939)
(0.123776 -0.000338578 -0.000746537)
(0.123076 -0.00018376 -0.000782822)
(0.125071 -0.000256016 -0.000571359)
(0.124139 -0.000340197 -0.000738745)
(0.123436 -0.000182512 -0.000773675)
(0.12546 -0.000256381 -0.000565537)
(0.124501 -0.000342387 -0.000733042)
(0.123795 -0.000182105 -0.000766505)
(0.125846 -0.000257227 -0.000561189)
(0.124862 -0.000345144 -0.000730166)
(0.124153 -0.0001823 -0.000760774)
(0.126232 -0.000258433 -0.000558127)
(0.125224 -0.000347671 -0.000728516)
(0.124511 -0.000183094 -0.000758989)
(0.126617 -0.000260227 -0.000557583)
(0.124867 -0.00018302 -0.000756397)
(0.127001 -0.000261161 -0.000555812)
(0.122742 -2.75651e-05 -0.000810447)
(0.121058 0.000161223 -0.000802683)
(0.124098 8.2621e-05 -0.000670605)
(0.123099 -2.40584e-05 -0.000802041)
(0.121397 0.000166362 -0.000797556)
(0.124477 8.5077e-05 -0.000664544)
(0.123454 -2.14138e-05 -0.000794969)
(0.121735 0.000170306 -0.000793689)
(0.124855 8.71519e-05 -0.000659735)
(0.123808 -1.92859e-05 -0.000790508)
(0.122071 0.000173638 -0.000790122)
(0.125231 8.88124e-05 -0.000655762)
(0.124162 -1.6897e-05 -0.000788053)
(0.122406 0.000177511 -0.000790779)
(0.125607 9.03448e-05 -0.000654633)
(0.122738 0.000182517 -0.000792112)
(0.125981 9.21965e-05 -0.000652804)
(0.119767 0.000347293 -0.000789695)
(0.116497 0.000550759 -0.000760072)
(0.121162 0.000466171 -0.000696491)
(0.120089 0.000353323 -0.000789203)
(0.116758 0.000552099 -0.000760397)
(0.121501 0.000468923 -0.000697007)
(0.120409 0.000358661 -0.000789079)
(0.117018 0.00055373 -0.00076325)
(0.121838 0.000471851 -0.000697846)
(0.120726 0.000364108 -0.000790727)
(0.117272 0.000557045 -0.00076868)
(0.122173 0.000474954 -0.000698791)
(0.121039 0.000369778 -0.000794688)
(0.117521 0.000559583 -0.000775891)
(0.122505 0.000478619 -0.000703)
(0.117763 0.000562131 -0.000785132)
(0.122835 0.000480935 -0.000707851)
(0.113677 0.00075846 -0.000740819)
(0.106605 0.000854607 -0.000639314)
(0.115165 0.000876828 -0.000700271)
(0.113882 0.000754181 -0.000743556)
(0.106644 0.000846422 -0.000644085)
(0.115383 0.000869393 -0.000706251)
(0.11408 0.000752197 -0.000750753)
(0.10668 0.000836115 -0.000648469)
(0.115599 0.000864983 -0.000714325)
(0.11427 0.000751467 -0.000760769)
(0.106702 0.000828727 -0.000657105)
(0.115806 0.000862712 -0.000724564)
(0.114451 0.000750633 -0.000772762)
(0.106719 0.000817054 -0.000661151)
(0.116009 0.000857532 -0.000732004)
(0.106727 0.000808988 -0.000669444)
(0.116205 0.000850886 -0.000740404)
(0.100191 0.000866993 -0.000510618)
(0.0822396 0.000796351 -0.000430607)
(0.102093 0.000974126 -0.000539079)
(0.100079 0.000852916 -0.000516693)
(0.0818536 0.000774101 -0.000427633)
(0.101996 0.000958266 -0.000549622)
(0.0999538 0.000838955 -0.000523266)
(0.0814646 0.000752967 -0.000425448)
(0.101895 0.000941877 -0.000558093)
(0.0998176 0.000823117 -0.000527292)
(0.0810817 0.000735808 -0.000427438)
(0.10178 0.000926535 -0.000565703)
(0.0996744 0.000806835 -0.000529254)
(0.0806985 0.00071748 -0.000426794)
(0.101661 0.000908277 -0.000566294)
(0.0803167 0.000702177 -0.000427548)
(0.101532 0.000892755 -0.000567648)
(0.0660665 0.000785138 -0.000406777)
(0.0688821 0.000890411 -0.00042752)
(0.0654369 0.000759975 -0.000398801)
(0.0682278 0.000866866 -0.000414755)
(0.0648222 0.000736679 -0.000393115)
(0.0675745 0.000842906 -0.000404736)
(0.0642195 0.000715866 -0.000389878)
(0.0669458 0.000820075 -0.000397127)
(0.0636282 0.000696649 -0.000386927)
(0.0663193 0.000797899 -0.000392753)
(0.0657112 0.000776036 -0.000386066)
(0.0679186 -0.0008663 0.000373804)
(0.0841917 -0.000922781 0.000421792)
(0.0700544 -0.000943435 0.000428157)
(0.0673415 -0.00082612 0.000355441)
(0.083861 -0.000888724 0.000409936)
(0.0694309 -0.000908986 0.000415956)
(0.0667826 -0.000784985 0.000332755)
(0.083541 -0.000852725 0.000394705)
(0.0688251 -0.000871197 0.000399989)
(0.0662437 -0.000746722 0.000306873)
(0.0832311 -0.000819845 0.000376575)
(0.068238 -0.000835325 0.000379401)
(0.0657233 -0.000711536 0.000279774)
(0.0829293 -0.000792498 0.000357361)
(0.0676689 -0.000801851 0.000356542)
(0.0826388 -0.000764787 0.000337297)
(0.0671216 -0.0007696 0.000333472)
(0.102024 -0.00100357 0.000478716)
(0.108742 -0.00108786 0.000413522)
(0.103184 -0.00106936 0.000528892)
(0.10198 -0.000974502 0.000470617)
(0.108835 -0.00106263 0.000406092)
(0.103133 -0.0010383 0.000527074)
(0.101937 -0.000947618 0.000460669)
(0.108928 -0.00104025 0.000397142)
(0.103081 -0.00101157 0.000525104)
(0.101892 -0.000926445 0.000450004)
(0.109022 -0.00102097 0.000388444)
(0.103026 -0.000990312 0.000523063)
(0.101844 -0.000907968 0.000438846)
(0.109114 -0.00100799 0.000380495)
(0.102968 -0.0009743 0.000519132)
(0.109204 -0.000989155 0.000371152)
(0.102907 -0.000956499 0.000513361)
(0.116131 -0.00108188 0.000311673)
(0.119197 -0.000944592 0.00017214)
(0.116707 -0.00109747 0.000418408)
(0.116373 -0.00106584 0.000304055)
(0.119496 -0.000931781 0.00016685)
(0.116949 -0.00107976 0.00041739)
(0.116617 -0.00105283 0.000296861)
(0.119793 -0.000921368 0.00016123)
(0.117189 -0.00106479 0.000416441)
(0.116859 -0.00104279 0.000291281)
(0.120091 -0.000912721 0.000156664)
(0.11743 -0.00105349 0.000416882)
(0.1171 -0.0010296 0.000285337)
(0.120388 -0.000907582 0.000152849)
(0.117669 -0.0010458 0.00041754)
(0.120683 -0.000897818 0.000147688)
(0.117905 -0.00102978 0.000414545)
(0.122749 -0.000807998 2.67952e-05)
(0.124103 -0.000668296 -8.3223e-05)
(0.12308 -0.000780937 0.000183611)
(0.123106 -0.000799687 2.31387e-05)
(0.124483 -0.000662011 -8.57333e-05)
(0.123441 -0.000771616 0.000182194)
(0.123462 -0.000793177 2.00328e-05)
(0.124861 -0.000657447 -8.81005e-05)
(0.1238 -0.000764708 0.000181431)
(0.123817 -0.000789298 1.72016e-05)
(0.125238 -0.000653954 -9.02283e-05)
(0.124159 -0.000759607 0.00018115)
(0.124172 -0.000787159 1.39833e-05)
(0.125614 -0.000653145 -9.25046e-05)
(0.124517 -0.000758127 0.000181078)
(0.125989 -0.000651411 -9.52041e-05)
(0.124874 -0.000755461 0.000179891)
(0.125889 -0.000514152 -0.000200778)