/*--------------------------------*- C++ -*----------------------------------*\
| =========                 |                                                 |
| \\      /  F ield         | OpenFOAM: The Open Source CFD Toolbox           |
|  \\    /   O peration     | Version:  2212                                  |
|   \\  /    A nd           | Website:  www.openfoam.com                      |
|    \\/     M anipulation  |                                                 |
\*---------------------------------------------------------------------------*/
FoamFile
{
    version     2.0;
    format      ascii;
    arch        "LSB;label=32;scalar=64";
    class       volScalarField;
    location    "1.2";
    object      nut;
}
// * * * * * * * * * * * * * * * * * * * * * * * * * * * * * * * * * * * * * //

dimensions      [0 2 -1 0 0 0 0];

internalField   nonuniform List<scalar> 
6840
(
4.5356e-05
2.3208e-05
1.65396e-05
1.36493e-05
1.18966e-05
1.06844e-05
9.76073e-06
9.05707e-06
8.49467e-06
8.03126e-06
7.64046e-06
7.31209e-06
7.02457e-06
6.76051e-06
6.52883e-06
6.32771e-06
6.15304e-06
6.00317e-06
5.89358e-06
5.771e-06
0.000107685
6.77183e-05
5.06311e-05
4.14159e-05
3.54048e-05
3.10367e-05
2.77137e-05
2.50816e-05
2.29334e-05
2.11506e-05
1.96507e-05
1.83716e-05
1.72637e-05
1.62949e-05
1.54525e-05
1.4727e-05
1.4098e-05
1.35563e-05
1.31164e-05
1.27891e-05
0.000160509
0.00010736
8.07409e-05
6.55976e-05
5.54896e-05
4.83026e-05
4.31311e-05
3.90793e-05
3.57395e-05
3.29503e-05
3.0579e-05
2.85367e-05
2.67769e-05
2.52509e-05
2.39163e-05
2.27424e-05
2.17095e-05
2.08016e-05
2.00125e-05
1.93734e-05
0.000198681
0.0001383
0.000105187
8.55269e-05
7.25013e-05
6.28902e-05
5.60612e-05
5.07595e-05
4.63884e-05
4.27223e-05
3.96262e-05
3.69568e-05
3.46356e-05
3.26066e-05
3.08242e-05
2.92514e-05
2.78581e-05
2.66201e-05
2.55208e-05
2.45675e-05
0.000218609
0.000155003
0.000118661
9.65069e-05
8.18824e-05
7.08356e-05
6.30856e-05
5.71436e-05
5.22485e-05
4.80965e-05
4.4583e-05
4.15727e-05
3.89535e-05
3.66606e-05
3.46419e-05
3.28557e-05
3.12673e-05
2.98492e-05
2.85853e-05
2.75318e-05
0.000218609
0.000155003
0.000118661
9.65069e-05
8.18823e-05
7.08355e-05
6.30854e-05
5.71432e-05
5.2248e-05
4.80957e-05
4.45817e-05
4.15707e-05
3.89503e-05
3.66554e-05
3.46336e-05
3.28428e-05
3.12474e-05
2.98194e-05
2.85486e-05
2.75573e-05
0.000198681
0.0001383
0.000105187
8.55268e-05
7.25011e-05
6.289e-05
5.60608e-05
5.07589e-05
4.63874e-05
4.27208e-05
3.96235e-05
3.69526e-05
3.4629e-05
3.2596e-05
3.08074e-05
2.92245e-05
2.78149e-05
2.65511e-05
2.54164e-05
2.44985e-05
0.000160509
0.00010736
8.07408e-05
6.55975e-05
5.54895e-05
4.83024e-05
4.31308e-05
3.90788e-05
3.57387e-05
3.29488e-05
3.05767e-05
2.85332e-05
2.67714e-05
2.5242e-05
2.39015e-05
2.27181e-05
2.16694e-05
2.07354e-05
1.99056e-05
1.91916e-05
0.000107685
6.77183e-05
5.06311e-05
4.14159e-05
3.54048e-05
3.10366e-05
2.77136e-05
2.50815e-05
2.29333e-05
2.11503e-05
1.96501e-05
1.83705e-05
1.72618e-05
1.62908e-05
1.54456e-05
1.47151e-05
1.40756e-05
1.35108e-05
1.30218e-05
1.26069e-05
4.5356e-05
2.3208e-05
1.65396e-05
1.36493e-05
1.18966e-05
1.06844e-05
9.76073e-06
9.05707e-06
8.49467e-06
8.03127e-06
7.64044e-06
7.31211e-06
7.02455e-06
6.76058e-06
6.52878e-06
6.3277e-06
6.15304e-06
6.00318e-06
5.89362e-06
5.77148e-06
0.000107685
6.77183e-05
5.06311e-05
4.14159e-05
3.54048e-05
3.10366e-05
2.77136e-05
2.50815e-05
2.29333e-05
2.11503e-05
1.96501e-05
1.83705e-05
1.72619e-05
1.62907e-05
1.54456e-05
1.47151e-05
1.40755e-05
1.35107e-05
1.30213e-05
1.26e-05
0.000528907
0.000369984
0.000305097
0.000261371
0.000228528
0.000202475
0.000181113
0.000163072
0.000147537
0.00013398
0.000122043
0.000111457
0.00010212
9.38393e-05
8.64252e-05
7.96149e-05
7.33981e-05
6.78288e-05
6.35606e-05
5.54535e-05
0.000663952
0.000488458
0.000404619
0.000347248
0.000305036
0.000272128
0.000245319
0.00022289
0.000203758
0.000187183
0.000172659
0.000159823
0.000148388
0.000138142
0.000128919
0.000120718
0.000113347
0.000106674
0.000101097
9.46347e-05
0.00071288
0.000556432
0.000466397
0.000402355
0.000354426
0.000317051
0.000286676
0.000261257
0.000239584
0.00022085
0.000204451
0.000189962
0.000177064
0.000165502
0.000155075
0.000145639
0.000137072
0.000129264
0.000122133
0.000115897
0.000728543
0.000588231
0.000496002
0.000429132
0.00037851
0.000338935
0.000306819
0.000279974
0.000257073
0.000237256
0.000219909
0.000204575
0.000190912
0.000178651
0.000167586
0.000157543
0.000148383
0.000139981
0.000132215
0.000124962
0.000728543
0.000588231
0.000496002
0.000429131
0.000378509
0.000338934
0.000306817
0.000279971
0.000257069
0.000237249
0.000219898
0.000204558
0.000190884
0.000178605
0.000167509
0.000157423
0.000148194
0.000139684
0.000131749
0.000124201
0.00071288
0.000556432
0.000466397
0.000402354
0.000354425
0.000317049
0.000286673
0.000261252
0.000239576
0.000220837
0.000204429
0.000189927
0.000177007
0.000165406
0.000154922
0.00014539
0.000136663
0.000128592
0.000121037
0.000113517
0.000663952
0.000488458
0.000404619
0.000347248
0.000305035
0.000272127
0.000245317
0.000222886
0.000203751
0.000187172
0.000172643
0.000159796
0.000148344
0.000138069
0.000128805
0.000120529
0.000113026
0.000106114
0.000100098
9.39924e-05
0.000528907
0.000369984
0.000305097
0.000261371
0.000228528
0.000202475
0.000181113
0.000163072
0.000147537
0.00013398
0.000122043
0.000111457
0.000102121
9.38368e-05
8.6427e-05
7.96162e-05
7.33991e-05
6.78295e-05
6.35621e-05
5.54533e-05
0.000107685
6.77183e-05
5.06311e-05
4.14159e-05
3.54048e-05
3.10367e-05
2.77137e-05
2.50816e-05
2.29334e-05
2.11506e-05
1.96507e-05
1.83716e-05
1.72637e-05
1.62951e-05
1.54524e-05
1.47269e-05
1.4098e-05
1.35562e-05
1.31162e-05
1.27886e-05
0.000160509
0.00010736
8.07408e-05
6.55975e-05
5.54895e-05
4.83024e-05
4.31308e-05
3.90788e-05
3.57387e-05
3.29488e-05
3.05767e-05
2.85332e-05
2.67714e-05
2.5242e-05
2.39016e-05
2.27181e-05
2.16694e-05
2.07354e-05
1.99056e-05
1.9191e-05
0.000663952
0.000488458
0.000404619
0.000347248
0.000305035
0.000272127
0.000245317
0.000222886
0.000203751
0.000187172
0.000172643
0.000159796
0.000148344
0.000138072
0.000128803
0.000120528
0.000113025
0.000106114
0.000100095
9.39856e-05
0.000786827
0.000662293
0.000567974
0.000495805
0.000439463
0.000394562
0.000357974
0.00032745
0.000301488
0.000279047
0.000259393
0.000241995
0.000226461
0.000212495
0.000199861
0.000188396
0.00017794
0.000168356
0.000159547
0.000150738
0.000809324
0.000713906
0.000631505
0.000562574
0.000505377
0.000457786
0.000417842
0.00038394
0.000354805
0.000329451
0.000307158
0.000287382
0.000269706
0.000253804
0.000239418
0.000226343
0.000214405
0.000203438
0.00019321
0.000182985
0.000814958
0.000730426
0.000654634
0.000589044
0.000533067
0.000485439
0.000444764
0.000409794
0.000379472
0.000352934
0.000329495
0.000308635
0.000289948
0.000273111
0.000257866
0.000243993
0.000231308
0.000219622
0.000208642
0.000197527
0.000814958
0.000730426
0.000654634
0.000589044
0.000533067
0.000485438
0.000444763
0.000409793
0.000379469
0.000352931
0.00032949
0.000308627
0.000289935
0.00027309
0.000257832
0.000243943
0.000231232
0.000219497
0.000208383
0.000196629
0.000809324
0.000713906
0.000631504
0.000562574
0.000505377
0.000457785
0.00041784
0.000383938
0.000354801
0.000329446
0.00030715
0.000287369
0.000269685
0.000253768
0.000239364
0.00022626
0.000214275
0.000203229
0.000192854
0.000182209
0.000786827
0.000662293
0.000567974
0.000495805
0.000439463
0.000394562
0.000357974
0.00032745
0.000301488
0.000279047
0.000259393
0.000241995
0.000226461
0.000212493
0.000199862
0.000188397
0.000177941
0.000168357
0.00015955
0.000150741
0.000663952
0.000488458
0.000404619
0.000347248
0.000305036
0.000272128
0.000245319
0.00022289
0.000203758
0.000187183
0.000172659
0.000159823
0.000148388
0.000138141
0.000128919
0.000120718
0.000113348
0.000106674
0.000101097
9.46336e-05
0.000160509
0.00010736
8.07409e-05
6.55976e-05
5.54896e-05
4.83026e-05
4.31311e-05
3.90793e-05
3.57395e-05
3.29503e-05
3.0579e-05
2.85367e-05
2.67769e-05
2.52509e-05
2.39163e-05
2.27423e-05
2.17094e-05
2.08016e-05
2.00124e-05
1.93731e-05
0.000198681
0.0001383
0.000105187
8.55268e-05
7.25011e-05
6.289e-05
5.60608e-05
5.07589e-05
4.63874e-05
4.27208e-05
3.96235e-05
3.69526e-05
3.4629e-05
3.25961e-05
3.08074e-05
2.92245e-05
2.78149e-05
2.6551e-05
2.54163e-05
2.44983e-05
0.00071288
0.000556432
0.000466397
0.000402354
0.000354425
0.000317049
0.000286673
0.000261252
0.000239576
0.000220837
0.000204429
0.000189927
0.000177008
0.000165409
0.00015492
0.000145389
0.000136663
0.000128592
0.000121036
0.000113511
0.000809324
0.000713906
0.000631504
0.000562574
0.000505377
0.000457785
0.00041784
0.000383938
0.000354801
0.000329446
0.00030715
0.000287369
0.000269685
0.00025377
0.000239363
0.000226259
0.000214274
0.000203228
0.000192851
0.000182205
0.000823497
0.000753987
0.000688491
0.000628748
0.000575387
0.000528266
0.000486845
0.000450441
0.000418361
0.000389972
0.000364725
0.000342158
0.000321887
0.000303594
0.000287012
0.000271917
0.000258108
0.000245372
0.000233386
0.000221372
0.000826292
0.000764347
0.000706102
0.000651937
0.00060223
0.000557104
0.000516428
0.000479912
0.000447181
0.000417833
0.000391476
0.000367751
0.000346333
0.000326941
0.000309325
0.000293265
0.000278555
0.000264964
0.000252121
0.000239253
0.000826292
0.000764347
0.000706102
0.000651936
0.00060223
0.000557103
0.000516428
0.000479912
0.00044718
0.000417832
0.000391475
0.000367748
0.00034633
0.000326935
0.000309315
0.000293251
0.000278534
0.000264924
0.000252007
0.000238746
0.000823497
0.000753987
0.000688491
0.000628748
0.000575387
0.000528266
0.000486845
0.000450441
0.000418361
0.000389972
0.000364725
0.000342158
0.000321887
0.000303594
0.000287012
0.000271917
0.000258108
0.000245373
0.000233388
0.000221377
0.000809324
0.000713906
0.000631505
0.000562574
0.000505377
0.000457786
0.000417842
0.00038394
0.000354805
0.000329451
0.000307158
0.000287382
0.000269706
0.000253804
0.000239418
0.000226343
0.000214406
0.000203439
0.000193212
0.000182987
0.00071288
0.000556432
0.000466397
0.000402355
0.000354426
0.000317051
0.000286676
0.000261257
0.000239584
0.00022085
0.000204451
0.000189962
0.000177064
0.000165503
0.000155075
0.000145639
0.000137071
0.000129263
0.000122132
0.000115896
0.000198681
0.0001383
0.000105187
8.55269e-05
7.25013e-05
6.28902e-05
5.60612e-05
5.07595e-05
4.63884e-05
4.27223e-05
3.96262e-05
3.69568e-05
3.46355e-05
3.26066e-05
3.08242e-05
2.92514e-05
2.78581e-05
2.66201e-05
2.55208e-05
2.45674e-05
0.000218609
0.000155003
0.000118661
9.65069e-05
8.18823e-05
7.08355e-05
6.30854e-05
5.71432e-05
5.2248e-05
4.80957e-05
4.45817e-05
4.15707e-05
3.89503e-05
3.66554e-05
3.46336e-05
3.28428e-05
3.12474e-05
2.98194e-05
2.85485e-05
2.75574e-05
0.000728543
0.000588231
0.000496002
0.000429131
0.000378509
0.000338934
0.000306817
0.000279971
0.000257069
0.000237249
0.000219898
0.000204558
0.000190885
0.000178606
0.000167509
0.000157424
0.000148195
0.000139685
0.000131751
0.000124202
0.000814958
0.000730426
0.000654634
0.000589044
0.000533067
0.000485438
0.000444763
0.000409793
0.000379469
0.000352931
0.00032949
0.000308627
0.000289935
0.000273091
0.000257832
0.000243944
0.000231232
0.000219498
0.000208384
0.000196625
0.000826292
0.000764347
0.000706102
0.000651936
0.00060223
0.000557103
0.000516428
0.000479912
0.00044718
0.000417832
0.000391475
0.000367748
0.00034633
0.000326935
0.000309315
0.000293251
0.000278534
0.000264925
0.000252008
0.000238746
0.000828382
0.0007726
0.000721138
0.00067296
0.000627782
0.00058562
0.000546547
0.000510579
0.000477648
0.000447615
0.000420287
0.000395445
0.000372863
0.000352315
0.000333587
0.000316475
0.000300771
0.000286217
0.000272341
0.000258016
0.000828382
0.0007726
0.000721138
0.00067296
0.000627782
0.00058562
0.000546547
0.000510579
0.000477648
0.000447615
0.000420287
0.000395445
0.000372863
0.000352315
0.000333587
0.000316475
0.000300772
0.000286217
0.000272342
0.000258016
0.000826292
0.000764347
0.000706102
0.000651937
0.00060223
0.000557104
0.000516428
0.000479912
0.000447181
0.000417833
0.000391476
0.000367751
0.000346333
0.000326941
0.000309325
0.000293265
0.000278556
0.000264965
0.000252123
0.000239257
0.000814958
0.000730426
0.000654634
0.000589044
0.000533067
0.000485439
0.000444764
0.000409794
0.000379472
0.000352934
0.000329495
0.000308635
0.000289948
0.000273112
0.000257865
0.000243993
0.000231308
0.000219622
0.000208641
0.000197528
0.000728543
0.000588231
0.000496002
0.000429132
0.00037851
0.000338935
0.000306819
0.000279974
0.000257073
0.000237256
0.000219909
0.000204575
0.000190911
0.000178653
0.000167586
0.000157543
0.000148382
0.00013998
0.000132213
0.00012496
0.000218609
0.000155003
0.000118661
9.65069e-05
8.18824e-05
7.08356e-05
6.30856e-05
5.71436e-05
5.22485e-05
4.80965e-05
4.4583e-05
4.15727e-05
3.89534e-05
3.66605e-05
3.46421e-05
3.28558e-05
3.12674e-05
2.98493e-05
2.85855e-05
2.75324e-05
0.000218609
0.000155003
0.000118661
9.65069e-05
8.18824e-05
7.08356e-05
6.30856e-05
5.71436e-05
5.22485e-05
4.80965e-05
4.4583e-05
4.15727e-05
3.89535e-05
3.66606e-05
3.46418e-05
3.28557e-05
3.12673e-05
2.98492e-05
2.85855e-05
2.75325e-05
0.000728543
0.000588231
0.000496002
0.000429132
0.00037851
0.000338935
0.000306819
0.000279974
0.000257073
0.000237256
0.000219909
0.000204575
0.000190912
0.000178652
0.000167586
0.000157543
0.000148384
0.000139983
0.000132218
0.000124968
0.000814958
0.000730426
0.000654634
0.000589044
0.000533067
0.000485439
0.000444764
0.000409794
0.000379472
0.000352934
0.000329495
0.000308635
0.000289948
0.000273112
0.000257866
0.000243993
0.000231308
0.000219623
0.000208645
0.000197533
0.000826292
0.000764347
0.000706102
0.000651937
0.00060223
0.000557104
0.000516428
0.000479912
0.000447181
0.000417833
0.000391476
0.000367751
0.000346333
0.000326941
0.000309325
0.000293265
0.000278556
0.000264965
0.000252122
0.000239259
0.000828382
0.0007726
0.000721138
0.00067296
0.000627782
0.00058562
0.000546547
0.000510579
0.000477648
0.000447615
0.000420287
0.000395445
0.000372863
0.000352315
0.000333587
0.000316475
0.000300771
0.000286217
0.000272341
0.000258017
0.000828382
0.0007726
0.000721138
0.00067296
0.000627782
0.00058562
0.000546547
0.000510579
0.000477648
0.000447615
0.000420287
0.000395445
0.000372863
0.000352314
0.000333587
0.000316475
0.000300772
0.000286217
0.000272342
0.000258014
0.000826292
0.000764347
0.000706102
0.000651936
0.00060223
0.000557103
0.000516428
0.000479912
0.00044718
0.000417832
0.000391475
0.000367748
0.000346329
0.000326935
0.000309316
0.000293251
0.000278534
0.000264924
0.000252006
0.000238741
0.000814958
0.000730426
0.000654634
0.000589044
0.000533067
0.000485438
0.000444763
0.000409793
0.000379469
0.000352931
0.00032949
0.000308626
0.000289934
0.000273091
0.000257833
0.000243944
0.000231231
0.000219495
0.000208379
0.000196619
0.000728543
0.000588231
0.000496002
0.000429131
0.000378509
0.000338934
0.000306817
0.000279971
0.000257069
0.000237249
0.000219898
0.000204558
0.000190883
0.000178605
0.000167511
0.000157424
0.000148195
0.000139683
0.000131747
0.000124198
0.000218609
0.000155003
0.000118661
9.65069e-05
8.18823e-05
7.08355e-05
6.30854e-05
5.71432e-05
5.2248e-05
4.80957e-05
4.45817e-05
4.15706e-05
3.89502e-05
3.66553e-05
3.46339e-05
3.2843e-05
3.12476e-05
2.98196e-05
2.85488e-05
2.75578e-05
0.000198681
0.0001383
0.000105187
8.55269e-05
7.25013e-05
6.28902e-05
5.60612e-05
5.07595e-05
4.63884e-05
4.27223e-05
3.96262e-05
3.69568e-05
3.46356e-05
3.26066e-05
3.08241e-05
2.92514e-05
2.78581e-05
2.66202e-05
2.5521e-05
2.45678e-05
0.00071288
0.000556432
0.000466397
0.000402355
0.000354426
0.000317051
0.000286676
0.000261257
0.000239584
0.00022085
0.000204451
0.000189962
0.000177064
0.000165502
0.000155075
0.000145639
0.000137072
0.000129264
0.000122135
0.000115903
0.000809324
0.000713906
0.000631505
0.000562574
0.000505377
0.000457786
0.000417842
0.00038394
0.000354805
0.000329451
0.000307158
0.000287382
0.000269706
0.000253804
0.000239418
0.000226343
0.000214405
0.000203438
0.000193212
0.000182988
0.000823497
0.000753987
0.000688491
0.000628748
0.000575387
0.000528266
0.000486845
0.000450441
0.000418361
0.000389972
0.000364724
0.000342158
0.000321887
0.000303594
0.000287012
0.000271917
0.000258107
0.000245371
0.000233384
0.000221375
0.000826292
0.000764347
0.000706102
0.000651936
0.00060223
0.000557103
0.000516428
0.000479912
0.00044718
0.000417832
0.000391475
0.000367748
0.00034633
0.000326935
0.000309315
0.000293251
0.000278534
0.000264924
0.000252007
0.000238743
0.000826292
0.000764347
0.000706102
0.000651937
0.00060223
0.000557104
0.000516428
0.000479912
0.000447181
0.000417833
0.000391476
0.000367751
0.000346333
0.000326941
0.000309325
0.000293265
0.000278556
0.000264965
0.000252122
0.000239254
0.000823497
0.000753987
0.000688491
0.000628748
0.000575387
0.000528266
0.000486845
0.000450441
0.000418361
0.000389972
0.000364724
0.000342158
0.000321887
0.000303594
0.000287012
0.000271917
0.000258107
0.000245371
0.000233385
0.000221374
0.000809324
0.000713906
0.000631504
0.000562574
0.000505377
0.000457785
0.00041784
0.000383938
0.000354801
0.000329445
0.00030715
0.000287369
0.000269684
0.000253768
0.000239364
0.000226259
0.000214273
0.000203226
0.000192848
0.000182202
0.00071288
0.000556432
0.000466397
0.000402354
0.000354425
0.000317049
0.000286673
0.000261252
0.000239576
0.000220837
0.000204429
0.000189927
0.000177007
0.000165407
0.000154922
0.00014539
0.000136663
0.000128592
0.000121037
0.000113514
0.000198681
0.0001383
0.000105187
8.55268e-05
7.25011e-05
6.289e-05
5.60608e-05
5.07589e-05
4.63874e-05
4.27208e-05
3.96235e-05
3.69526e-05
3.4629e-05
3.25961e-05
3.08075e-05
2.92246e-05
2.7815e-05
2.65512e-05
2.54166e-05
2.44987e-05
0.000160509
0.00010736
8.07409e-05
6.55976e-05
5.54896e-05
4.83026e-05
4.31311e-05
3.90793e-05
3.57395e-05
3.29503e-05
3.0579e-05
2.85367e-05
2.67769e-05
2.52509e-05
2.39163e-05
2.27423e-05
2.17095e-05
2.08016e-05
2.00126e-05
1.93736e-05
0.000663952
0.000488458
0.000404619
0.000347248
0.000305036
0.000272128
0.000245319
0.00022289
0.000203758
0.000187182
0.000172659
0.000159823
0.000148387
0.000138141
0.000128919
0.000120717
0.000113346
0.000106672
0.000101097
9.46342e-05
0.000786827
0.000662293
0.000567974
0.000495805
0.000439463
0.000394562
0.000357974
0.00032745
0.000301488
0.000279047
0.000259392
0.000241994
0.000226461
0.000212494
0.000199861
0.000188395
0.000177939
0.000168354
0.000159545
0.000150735
0.000809324
0.000713906
0.000631504
0.000562574
0.000505377
0.000457785
0.00041784
0.000383938
0.000354801
0.000329445
0.000307149
0.000287369
0.000269685
0.00025377
0.000239362
0.000226258
0.000214273
0.000203226
0.000192848
0.000182202
0.000814958
0.000730426
0.000654634
0.000589044
0.000533067
0.000485438
0.000444763
0.000409793
0.000379469
0.000352931
0.00032949
0.000308627
0.000289935
0.000273091
0.000257832
0.000243943
0.000231231
0.000219496
0.000208381
0.000196619
0.000814958
0.000730426
0.000654634
0.000589044
0.000533067
0.000485439
0.000444764
0.000409794
0.000379472
0.000352934
0.000329495
0.000308635
0.000289948
0.000273112
0.000257866
0.000243993
0.000231308
0.000219621
0.000208641
0.000197529
0.000809324
0.000713906
0.000631505
0.000562574
0.000505377
0.000457786
0.000417842
0.00038394
0.000354805
0.000329451
0.000307158
0.000287382
0.000269706
0.000253804
0.000239417
0.000226342
0.000214405
0.000203437
0.000193211
0.00018299
0.000786827
0.000662293
0.000567974
0.000495805
0.000439463
0.000394562
0.000357973
0.00032745
0.000301488
0.000279047
0.000259393
0.000241995
0.000226461
0.000212493
0.000199862
0.000188395
0.000177939
0.000168355
0.000159546
0.000150739
0.000663952
0.000488458
0.000404619
0.000347248
0.000305035
0.000272127
0.000245317
0.000222886
0.000203751
0.000187172
0.000172643
0.000159796
0.000148344
0.000138069
0.000128805
0.000120529
0.000113026
0.000106114
0.000100097
9.39887e-05
0.000160509
0.00010736
8.07408e-05
6.55975e-05
5.54895e-05
4.83024e-05
4.31308e-05
3.90788e-05
3.57387e-05
3.29488e-05
3.05767e-05
2.85332e-05
2.67714e-05
2.5242e-05
2.39015e-05
2.27181e-05
2.16694e-05
2.07355e-05
1.99056e-05
1.91914e-05
0.000107685
6.77183e-05
5.06311e-05
4.14159e-05
3.54048e-05
3.10367e-05
2.77137e-05
2.50816e-05
2.29334e-05
2.11506e-05
1.96507e-05
1.83716e-05
1.72637e-05
1.62949e-05
1.54525e-05
1.4727e-05
1.40981e-05
1.35564e-05
1.31166e-05
1.27893e-05
0.000528907
0.000369984
0.000305097
0.000261371
0.000228528
0.000202475
0.000181113
0.000163072
0.000147536
0.00013398
0.000122043
0.000111457
0.00010212
9.38392e-05
8.64252e-05
7.9615e-05
7.33982e-05
6.78293e-05
6.35609e-05
5.54561e-05
0.000663952
0.000488458
0.000404619
0.000347248
0.000305035
0.000272127
0.000245317
0.000222886
0.000203751
0.000187172
0.000172643
0.000159796
0.000148344
0.000138072
0.000128803
0.000120528
0.000113025
0.000106114
0.000100094
9.3988e-05
0.00071288
0.000556432
0.000466397
0.000402354
0.000354425
0.000317049
0.000286673
0.000261252
0.000239576
0.000220837
0.000204429
0.000189927
0.000177007
0.000165409
0.000154919
0.000145389
0.000136662
0.000128591
0.000121036
0.000113511
0.000728543
0.000588231
0.000496002
0.000429131
0.000378509
0.000338934
0.000306817
0.000279971
0.000257069
0.000237249
0.000219898
0.000204558
0.000190884
0.000178606
0.000167509
0.000157423
0.000148195
0.000139684
0.000131749
0.000124198
0.000728543
0.000588231
0.000496002
0.000429132
0.00037851
0.000338935
0.000306819
0.000279974
0.000257073
0.000237256
0.000219909
0.000204575
0.000190912
0.000178652
0.000167586
0.000157543
0.000148383
0.000139981
0.000132215
0.000124964
0.00071288
0.000556432
0.000466397
0.000402355
0.000354426
0.000317051
0.000286676
0.000261257
0.000239584
0.00022085
0.000204451
0.000189961
0.000177064
0.000165503
0.000155074
0.000145638
0.000137071
0.000129263
0.000122132
0.000115896
0.000663952
0.000488458
0.000404619
0.000347248
0.000305036
0.000272128
0.000245319
0.00022289
0.000203758
0.000187182
0.000172659
0.000159823
0.000148387
0.000138141
0.000128919
0.000120717
0.000113346
0.000106672
0.000101095
9.46353e-05
0.000528907
0.000369984
0.000305097
0.000261371
0.000228528
0.000202475
0.000181113
0.000163072
0.000147537
0.00013398
0.000122043
0.000111457
0.00010212
9.38367e-05
8.64269e-05
7.96161e-05
7.3399e-05
6.78299e-05
6.35614e-05
5.54562e-05
0.000107685
6.77183e-05
5.06311e-05
4.14159e-05
3.54048e-05
3.10366e-05
2.77137e-05
2.50815e-05
2.29333e-05
2.11503e-05
1.96501e-05
1.83705e-05
1.72618e-05
1.62908e-05
1.54456e-05
1.47151e-05
1.40756e-05
1.35108e-05
1.30215e-05
1.26001e-05
4.5356e-05
2.3208e-05
1.65396e-05
1.36493e-05
1.18966e-05
1.06844e-05
9.76073e-06
9.05707e-06
8.49467e-06
8.03126e-06
7.64046e-06
7.31209e-06
7.02456e-06
6.7605e-06
6.52883e-06
6.32771e-06
6.15304e-06
6.00318e-06
5.89363e-06
5.77139e-06
0.000107685
6.77183e-05
5.06311e-05
4.14159e-05
3.54048e-05
3.10366e-05
2.77136e-05
2.50815e-05
2.29333e-05
2.11503e-05
1.96501e-05
1.83705e-05
1.72618e-05
1.62906e-05
1.54456e-05
1.47151e-05
1.40755e-05
1.35107e-05
1.30215e-05
1.2607e-05
0.000160509
0.00010736
8.07408e-05
6.55975e-05
5.54895e-05
4.83024e-05
4.31308e-05
3.90788e-05
3.57387e-05
3.29487e-05
3.05767e-05
2.85332e-05
2.67714e-05
2.5242e-05
2.39015e-05
2.2718e-05
2.16693e-05
2.07353e-05
1.99055e-05
1.91912e-05
0.000198681
0.0001383
0.000105187
8.55268e-05
7.25011e-05
6.289e-05
5.60608e-05
5.07589e-05
4.63874e-05
4.27207e-05
3.96235e-05
3.69526e-05
3.4629e-05
3.25961e-05
3.08073e-05
2.92244e-05
2.78148e-05
2.6551e-05
2.54162e-05
2.44982e-05
0.000218609
0.000155003
0.000118661
9.65069e-05
8.18823e-05
7.08355e-05
6.30854e-05
5.71432e-05
5.2248e-05
4.80957e-05
4.45817e-05
4.15707e-05
3.89503e-05
3.66554e-05
3.46336e-05
3.28428e-05
3.12474e-05
2.98194e-05
2.85486e-05
2.75575e-05
0.000218609
0.000155003
0.000118661
9.65069e-05
8.18824e-05
7.08356e-05
6.30856e-05
5.71436e-05
5.22485e-05
4.80965e-05
4.4583e-05
4.15727e-05
3.89535e-05
3.66606e-05
3.46418e-05
3.28557e-05
3.12673e-05
2.98493e-05
2.85856e-05
2.75327e-05
0.000198681
0.0001383
0.000105187
8.55269e-05
7.25013e-05
6.28902e-05
5.60612e-05
5.07595e-05
4.63884e-05
4.27223e-05
3.96262e-05
3.69568e-05
3.46356e-05
3.26066e-05
3.08242e-05
2.92514e-05
2.78582e-05
2.66202e-05
2.5521e-05
2.45674e-05
0.000160509
0.00010736
8.07409e-05
6.55976e-05
5.54896e-05
4.83026e-05
4.31311e-05
3.90792e-05
3.57395e-05
3.29503e-05
3.0579e-05
2.85367e-05
2.67769e-05
2.52509e-05
2.39163e-05
2.27423e-05
2.17095e-05
2.08017e-05
2.00126e-05
1.93733e-05
0.000107685
6.77183e-05
5.06311e-05
4.14159e-05
3.54048e-05
3.10367e-05
2.77137e-05
2.50816e-05
2.29334e-05
2.11506e-05
1.96507e-05
1.83716e-05
1.72637e-05
1.62951e-05
1.54524e-05
1.47269e-05
1.40981e-05
1.35564e-05
1.31166e-05
1.27893e-05
4.5356e-05
2.3208e-05
1.65396e-05
1.36493e-05
1.18966e-05
1.06844e-05
9.76073e-06
9.05707e-06
8.49466e-06
8.03127e-06
7.64044e-06
7.3121e-06
7.02454e-06
6.76058e-06
6.52877e-06
6.32769e-06
6.15304e-06
6.00319e-06
5.89371e-06
5.77115e-06
5.17616e-06
4.87669e-06
4.60778e-06
4.44411e-06
4.34101e-06
4.26663e-06
4.2071e-06
4.1544e-06
4.10723e-06
4.06662e-06
4.02925e-06
3.9929e-06
3.95729e-06
3.9204e-06
3.88604e-06
3.85167e-06
3.81946e-06
3.78755e-06
3.75748e-06
3.72863e-06
3.69955e-06
3.67189e-06
3.64565e-06
3.62072e-06
3.59634e-06
3.57295e-06
3.54968e-06
3.52683e-06
3.50526e-06
3.48526e-06
3.46376e-06
3.44418e-06
3.42428e-06
3.40619e-06
3.39319e-06
3.37317e-06
3.36072e-06
3.34598e-06
3.33405e-06
3.3177e-06
1.0156e-05
9.74189e-06
9.40656e-06
9.15372e-06
8.96175e-06
8.79863e-06
8.65451e-06
8.52282e-06
8.39833e-06
8.28797e-06
8.18811e-06
8.09263e-06
8.00536e-06
7.91879e-06
7.83365e-06
7.74834e-06
7.67069e-06
7.59558e-06
7.5254e-06
7.45923e-06
7.39335e-06
7.33086e-06
7.27165e-06
7.21734e-06
7.1659e-06
7.11621e-06
7.06772e-06
7.02042e-06
6.97312e-06
6.93092e-06
6.88841e-06
6.8467e-06
6.80749e-06
6.76769e-06
6.73798e-06
6.70578e-06
6.67327e-06
6.64416e-06
6.61789e-06
6.59016e-06
1.58912e-05
1.49685e-05
1.44417e-05
1.39792e-05
1.35919e-05
1.32697e-05
1.29922e-05
1.27456e-05
1.25228e-05
1.23167e-05
1.21275e-05
1.19525e-05
1.17949e-05
1.16587e-05
1.1509e-05
1.13658e-05
1.12373e-05
1.11167e-05
1.10037e-05
1.0895e-05
1.07882e-05
1.06782e-05
1.05772e-05
1.04836e-05
1.0401e-05
1.03195e-05
1.02404e-05
1.01639e-05
1.00902e-05
1.00217e-05
9.95075e-06
9.88386e-06
9.82405e-06
9.77011e-06
9.72965e-06
9.66972e-06
9.61567e-06
9.567e-06
9.52364e-06
9.48543e-06
2.01206e-05
1.92994e-05
1.85075e-05
1.78959e-05
1.7383e-05
1.69395e-05
1.6544e-05
1.61865e-05
1.58597e-05
1.55591e-05
1.52811e-05
1.50223e-05
1.47786e-05
1.45554e-05
1.4349e-05
1.41547e-05
1.39718e-05
1.38022e-05
1.36396e-05
1.34713e-05
1.33142e-05
1.31713e-05
1.30282e-05
1.28984e-05
1.27719e-05
1.26555e-05
1.25449e-05
1.24393e-05
1.23326e-05
1.22336e-05
1.21378e-05
1.20436e-05
1.19697e-05
1.18915e-05
1.18323e-05
1.17699e-05
1.1696e-05
1.16324e-05
1.15766e-05
1.15288e-05
2.31159e-05
2.20746e-05
2.12461e-05
2.05397e-05
1.99239e-05
1.93782e-05
1.88916e-05
1.84522e-05
1.80478e-05
1.76735e-05
1.73256e-05
1.70007e-05
1.66948e-05
1.64162e-05
1.61555e-05
1.59112e-05
1.56857e-05
1.54723e-05
1.52705e-05
1.50806e-05
1.49041e-05
1.47344e-05
1.45557e-05
1.43954e-05
1.42451e-05
1.41025e-05
1.3969e-05
1.3843e-05
1.37146e-05
1.3602e-05
1.34917e-05
1.33875e-05
1.32966e-05
1.32108e-05
1.31318e-05
1.30686e-05
1.29776e-05
1.28988e-05
1.28291e-05
1.27698e-05
2.37512e-05
2.29334e-05
2.21782e-05
2.1484e-05
2.08481e-05
2.02656e-05
1.97342e-05
1.92497e-05
1.88019e-05
1.83846e-05
1.79967e-05
1.76355e-05
1.72963e-05
1.69873e-05
1.66992e-05
1.64304e-05
1.61792e-05
1.59454e-05
1.57301e-05
1.55279e-05
1.53388e-05
1.51612e-05
1.49871e-05
1.48372e-05
1.4673e-05
1.45079e-05
1.43588e-05
1.42233e-05
1.40884e-05
1.39762e-05
1.38574e-05
1.3756e-05
1.3637e-05
1.3548e-05
1.34539e-05
1.33758e-05
1.33084e-05
1.32236e-05
1.31529e-05
1.3087e-05
2.31623e-05
2.22728e-05
2.14651e-05
2.07314e-05
2.00706e-05
1.94692e-05
1.89224e-05
1.84241e-05
1.79681e-05
1.75508e-05
1.71693e-05
1.68186e-05
1.64942e-05
1.61992e-05
1.59263e-05
1.56729e-05
1.54374e-05
1.52181e-05
1.50144e-05
1.48261e-05
1.46518e-05
1.44834e-05
1.43198e-05
1.41721e-05
1.40103e-05
1.3857e-05
1.37204e-05
1.35923e-05
1.34644e-05
1.33497e-05
1.32345e-05
1.31259e-05
1.30232e-05
1.29321e-05
1.28437e-05
1.27684e-05
1.27056e-05
1.26199e-05
1.2544e-05
1.2474e-05
2.06855e-05
1.97284e-05
1.88714e-05
1.81368e-05
1.75252e-05
1.69723e-05
1.64813e-05
1.6046e-05
1.56583e-05
1.53101e-05
1.49996e-05
1.47139e-05
1.44497e-05
1.42079e-05
1.39842e-05
1.37761e-05
1.35841e-05
1.34051e-05
1.32374e-05
1.30795e-05
1.29373e-05
1.27865e-05
1.26435e-05
1.25079e-05
1.2382e-05
1.22603e-05
1.21493e-05
1.20373e-05
1.19243e-05
1.18094e-05
1.17205e-05
1.16302e-05
1.15443e-05
1.14611e-05
1.13788e-05
1.13052e-05
1.12466e-05
1.11689e-05
1.10995e-05
1.10347e-05
1.64486e-05
1.55379e-05
1.47632e-05
1.41061e-05
1.35958e-05
1.31924e-05
1.285e-05
1.25499e-05
1.22852e-05
1.20493e-05
1.1837e-05
1.16435e-05
1.14664e-05
1.13023e-05
1.11522e-05
1.09959e-05
1.08492e-05
1.07207e-05
1.05959e-05
1.04799e-05
1.03679e-05
1.0261e-05
1.01572e-05
1.00539e-05
9.95784e-06
9.86628e-06
9.78267e-06
9.70148e-06
9.6222e-06
9.54568e-06
9.47148e-06
9.3999e-06
9.33434e-06
9.27049e-06
9.20605e-06
9.15237e-06
9.10589e-06
9.05191e-06
9.00069e-06
8.95446e-06
1.09122e-05
1.03289e-05
9.7871e-06
9.36062e-06
9.04586e-06
8.80982e-06
8.61652e-06
8.45082e-06
8.30602e-06
8.18187e-06
8.07144e-06
7.97147e-06
7.87026e-06
7.76769e-06
7.67474e-06
7.58476e-06
7.49869e-06
7.41774e-06
7.34036e-06
7.26716e-06
7.19639e-06
7.12994e-06
7.06796e-06
7.00943e-06
6.9546e-06
6.90104e-06
6.84946e-06
6.79884e-06
6.74814e-06
6.70152e-06
6.65567e-06
6.61167e-06
6.56981e-06
6.52916e-06
6.48799e-06
6.46172e-06
6.42665e-06
6.39329e-06
6.36549e-06
6.33402e-06
5.17648e-06
4.87708e-06
4.60844e-06
4.44582e-06
4.34289e-06
4.27028e-06
4.21033e-06
4.1567e-06
4.10858e-06
4.06706e-06
4.02971e-06
3.99244e-06
3.95622e-06
3.91988e-06
3.88536e-06
3.8516e-06
3.81912e-06
3.78754e-06
3.75744e-06
3.72829e-06
3.69952e-06
3.67145e-06
3.6458e-06
3.62058e-06
3.59648e-06
3.5729e-06
3.54971e-06
3.52689e-06
3.50532e-06
3.48518e-06
3.46361e-06
3.44415e-06
3.42437e-06
3.40576e-06
3.38946e-06
3.37749e-06
3.36013e-06
3.34618e-06
3.33363e-06
3.31595e-06
1.09129e-05
1.03271e-05
9.78433e-06