/*--------------------------------*- C++ -*----------------------------------*\
| =========                 |                                                 |
| \\      /  F ield         | OpenFOAM: The Open Source CFD Toolbox           |
|  \\    /   O peration     | Version:  2212                                  |
|   \\  /    A nd           | Website:  www.openfoam.com                      |
|    \\/     M anipulation  |                                                 |
\*---------------------------------------------------------------------------*/
FoamFile
{
    version     2.0;
    format      ascii;
    arch        "LSB;label=32;scalar=64";
    class       volVectorField;
    location    "1.2";
    object      U;
}
// * * * * * * * * * * * * * * * * * * * * * * * * * * * * * * * * * * * * * //

dimensions      [0 1 -1 0 0 0 0];

internalField   nonuniform List<vector> 
6840
(
(0.0956456 -0.00836005 -0.00836006)
(0.0904939 0.00152207 0.00152198)
(0.0790683 0.00242983 0.00242964)
(0.0713012 0.00148793 0.00148754)
(0.0661795 0.000830816 0.000830079)
(0.0623227 0.000564188 0.000562992)
(0.0592209 0.000427461 0.000424844)
(0.0566851 0.000325902 0.000321403)
(0.0545502 0.000256278 0.000248904)
(0.0526981 0.000207959 0.000195861)
(0.0510606 0.000175432 0.00015494)
(0.0496006 0.000155212 0.000121238)
(0.0482862 0.00014358 8.98199e-05)
(0.0470891 0.000139903 5.64701e-05)
(0.0459997 0.000146146 1.77443e-05)
(0.0450267 0.000167261 -1.58464e-05)
(0.0441966 0.000215337 -0.000104291)
(0.0436042 0.000285713 -0.000273463)
(0.0436672 0.000340957 -0.00055551)
(0.042673 -0.00123793 -0.00290992)
(0.0999088 0.00129701 0.000712547)
(0.0969668 0.00365597 0.00274719)
(0.0935346 0.00264035 0.00211801)
(0.0895893 0.00182068 0.00162034)
(0.0858322 0.00152928 0.00139022)
(0.0825902 0.00135206 0.00116053)
(0.0798655 0.00118083 0.000896036)
(0.0775675 0.00104308 0.000690503)
(0.0755587 0.000947185 0.000557796)
(0.0737528 0.000873229 0.000475299)
(0.0721048 0.000805828 0.000423995)
(0.0705872 0.000740724 0.000390294)
(0.0691815 0.000685593 0.000368887)
(0.0678743 0.000646591 0.000358549)
(0.0666613 0.000621234 0.000346534)
(0.0655609 0.00060612 0.000305058)
(0.0646339 0.000584675 0.000223631)
(0.0640317 0.000512962 -6.00834e-06)
(0.0642283 0.00046858 -0.000329299)
(0.0621243 6.61671e-05 -0.000792472)
(0.099413 0.000345245 0.000270226)
(0.0988664 0.00201911 0.00187484)
(0.0979217 0.00257325 0.00218882)
(0.0963663 0.00238009 0.00190807)
(0.0946343 0.00211449 0.0016262)
(0.0929738 0.00192741 0.00141795)
(0.091367 0.00180246 0.0012701)
(0.0898589 0.00170707 0.00115819)
(0.0884631 0.00160757 0.00106697)
(0.0871723 0.00149886 0.000993559)
(0.0859807 0.00139109 0.000943089)
(0.0848764 0.00129108 0.000911234)
(0.0838445 0.00119813 0.000892198)
(0.082879 0.00110757 0.000879671)
(0.0819832 0.00101366 0.000866393)
(0.0811787 0.000904857 0.000836757)
(0.080512 0.000760185 0.00077774)
(0.0800447 0.000535044 0.000624084)
(0.0798679 4.60614e-05 0.000350937)
(0.0792011 -0.00126669 -0.000235417)
(0.0995405 0.000245029 0.000321898)
(0.0992576 0.00105555 0.00154092)
(0.0988491 0.00150221 0.00211438)
(0.0981252 0.00157919 0.00209151)
(0.0973378 0.0015143 0.00188598)
(0.0965868 0.00144538 0.00166567)
(0.0958686 0.00140823 0.0014978)
(0.0952031 0.00137574 0.00137126)
(0.094578 0.00132767 0.00128429)
(0.0939387 0.00125287 0.00122816)
(0.0933196 0.00115733 0.00118984)
(0.0927209 0.00105195 0.00116486)
(0.0921368 0.000943526 0.00115077)
(0.0915654 0.000831592 0.00114436)
(0.091007 0.000710064 0.00113988)
(0.0904639 0.000553682 0.00112958)
(0.089943 0.000341521 0.00110596)
(0.0894556 2.99509e-05 0.00106339)
(0.0889946 -0.00042665 0.00101725)
(0.0884324 -0.00109981 0.00103051)
(0.0993801 3.37525e-05 5.89401e-05)
(0.0992677 0.000274266 0.00120001)
(0.0989805 0.000432098 0.00188844)
(0.0984749 0.000482966 0.00200637)
(0.0979961 0.000477954 0.00191447)
(0.097572 0.000463897 0.00173438)
(0.0971829 0.0004499 0.00154677)
(0.0968341 0.000437205 0.00138776)
(0.0965356 0.000427398 0.00126872)
(0.0962835 0.000413496 0.00119738)
(0.0960131 0.000386429 0.00116906)
(0.0957255 0.000346469 0.00116555)
(0.0954203 0.000295182 0.00117267)
(0.0950867 0.00023125 0.00118743)
(0.0947184 0.000153053 0.00121367)
(0.0943102 4.56373e-05 0.00125408)
(0.0938576 -0.000113329 0.00131143)
(0.0933431 -0.000350925 0.00138577)
(0.0927294 -0.000687445 0.00148042)
(0.0920385 -0.00123412 0.00160117)
(0.0993802 -3.37918e-05 5.90001e-05)
(0.0992677 -0.000274465 0.00120005)
(0.0989805 -0.000432526 0.00188847)
(0.0984747 -0.000483712 0.00200644)
(0.0979956 -0.000479243 0.00191466)
(0.0975708 -0.000466179 0.00173478)
(0.0971808 -0.000453969 0.00154735)
(0.0968306 -0.00044421 0.00138876)
(0.0965295 -0.000439303 0.00127062)
(0.0962731 -0.000433492 0.00120082)
(0.0959954 -0.000419734 0.00117494)
(0.0956955 -0.00040149 0.00117543)
(0.0953691 -0.000385979 0.00118937)
(0.0949994 -0.000380622 0.00121633)
(0.0945727 -0.000397108 0.0012659)
(0.0940719 -0.000443951 0.00134383)
(0.0934731 -0.000549515 0.00145743)
(0.0927474 -0.000705659 0.00162762)
(0.091822 -0.000998035 0.00185607)
(0.0907843 -0.00168082 0.0020086)
(0.0995405 -0.000245045 0.000321899)
(0.0992576 -0.00105563 0.00154093)
(0.0988488 -0.00150235 0.0021145)
(0.0981246 -0.00157945 0.00209172)
(0.0973364 -0.0015149 0.00188631)
(0.0965841 -0.00144659 0.00166619)
(0.0958638 -0.00141039 0.00149843)
(0.0951949 -0.0013793 0.00137233)
(0.0945636 -0.00133389 0.00128669)
(0.0939141 -0.00126287 0.00123347)
(0.0932779 -0.00117307 0.0012)
(0.0926504 -0.001077 0.0011837)
(0.0920182 -0.00098538 0.0011823)
(0.0913665 -0.000902646 0.00119733)
(0.0906753 -0.000828446 0.00123402)
(0.0899122 -0.000759988 0.00130288)
(0.0890244 -0.000704939 0.00142365)
(0.0879229 -0.000673199 0.00163875)
(0.0864802 -0.0007015 0.00197795)
(0.0849005 -0.000876273 0.00243132)
(0.099413 -0.000345226 0.000270234)
(0.0988664 -0.00201901 0.00187492)
(0.0979214 -0.00257306 0.00218907)
(0.0963656 -0.00237975 0.0019085)
(0.0946329 -0.00211395 0.00162681)
(0.0929713 -0.00192652 0.00141882)
(0.0913624 -0.00180115 0.00127153)
(0.0898508 -0.00170493 0.00116061)
(0.0884491 -0.00160397 0.00107089)
(0.0871488 -0.00149287 0.00100006)
(0.085941 -0.00138119 0.000953396)
(0.0848088 -0.00127514 0.000929188)
(0.0837307 -0.00117348 0.000923416)
(0.082688 -0.00107102 0.00093337)
(0.0816626 -0.000961588 0.000960433)
(0.0806319 -0.000836766 0.00101113)
(0.0795581 -0.000685528 0.00110152)
(0.078364 -0.000476051 0.00125378)
(0.0769529 -0.000117284 0.00147587)
(0.075493 0.000128391 0.00278301)
(0.0999088 -0.00129699 0.000712566)
(0.0969668 -0.00365582 0.00274729)
(0.0935345 -0.00264011 0.00211822)
(0.089589 -0.00182025 0.00162075)
(0.0858317 -0.00152838 0.0013908)
(0.0825893 -0.00135065 0.00116159)
(0.0798638 -0.00117824 0.000897819)
(0.0775643 -0.00103861 0.000693375)
(0.075553 -0.000939486 0.00056259)
(0.0737428 -0.000859957 0.000483392)
(0.0720866 -0.000782995 0.000439591)
(0.0705539 -0.000702736 0.000417322)
(0.0691226 -0.000624172 0.000407405)
(0.0677747 -0.000545622 0.000405455)
(0.0664952 -0.000448823 0.000414155)
(0.0652754 -0.000303796 0.000434489)
(0.0641127 -0.000107896 0.0004771)
(0.0630055 0.000206338 0.000518397)
(0.0620397 0.000844041 0.000515202)
(0.0608251 0.00285944 -5.02898e-05)
(0.0956456 0.00836006 -0.00836005)
(0.0904939 -0.00152198 0.00152207)
(0.0790683 -0.00242965 0.00242983)
(0.0713012 -0.00148755 0.00148792)
(0.0661795 -0.000830094 0.000830802)
(0.0623227 -0.000563009 0.000564171)
(0.0592209 -0.000424868 0.000427437)
(0.0566851 -0.000321433 0.000325872)
(0.0545502 -0.000248939 0.000256243)
(0.0526981 -0.000195898 0.000207917)
(0.0510605 -0.000154987 0.000175385)
(0.0496006 -0.000121291 0.000155155)
(0.0482862 -8.98692e-05 0.000143503)
(0.0470891 -5.65399e-05 0.000139829)
(0.0459996 -1.78086e-05 0.00014607)
(0.0450266 1.57556e-05 0.000167171)
(0.0441963 0.000104178 0.000215242)
(0.0436038 0.000273322 0.000285614)
(0.0436664 0.000555388 0.000340929)
(0.0426715 0.0029091 -0.00123761)
(0.0999088 0.000712567 0.00129699)
(0.0969668 0.00274729 0.00365581)
(0.0935345 0.00211823 0.0026401)
(0.089589 0.00162076 0.00182023)
(0.0858317 0.00139081 0.00152836)
(0.0825893 0.0011616 0.00135063)
(0.0798638 0.000897831 0.00117821)
(0.0775643 0.00069339 0.00103857)
(0.0755529 0.000562609 0.000939439)
(0.0737428 0.000483415 0.0008599)
(0.0720866 0.000439621 0.000782928)
(0.0705539 0.000417361 0.000702658)
(0.0691226 0.000407444 0.000624085)
(0.0677748 0.000405505 0.000545527)
(0.0664952 0.00041421 0.000448681)
(0.0652755 0.000434536 0.000303608)
(0.0641129 0.000477121 0.000107636)
(0.063006 0.000518371 -0.000206713)
(0.0620406 0.000515003 -0.000844713)
(0.0608273 -5.09744e-05 -0.00286078)
(0.100226 0.000720832 0.000720796)
(0.09996 0.00198281 0.00198266)
(0.0997823 0.00245206 0.00245168)
(0.0987881 0.00242001 0.00241935)
(0.0972755 0.00220141 0.00220038)
(0.0957746 0.00181248 0.00181064)
(0.0943925 0.00138399 0.001381)
(0.0931634 0.0010728 0.00106776)
(0.092076 0.000858524 0.000849872)
(0.0911134 0.000709478 0.000694533)
(0.0902602 0.000603284 0.000576398)
(0.0894925 0.000527313 0.000483112)
(0.0887916 0.000477173 0.000409448)
(0.0881569 0.00044651 0.000344113)
(0.087589 0.000432218 0.00026696)
(0.0870861 0.000437326 0.00015843)
(0.086648 0.000461593 -2.82737e-06)
(0.0862624 0.000485466 -0.000274856)
(0.0858196 0.000398281 -0.000800456)
(0.0855955 -0.00016253 -0.00178084)
(0.10014 0.000775038 0.000869228)
(0.100454 0.00196246 0.00196347)
(0.100911 0.00242764 0.00233428)
(0.100978 0.00252682 0.00244089)
(0.100694 0.00242666 0.00233621)
(0.100225 0.00219816 0.00211174)
(0.09971 0.00191772 0.00182212)
(0.0991855 0.00166733 0.00157355)
(0.0986922 0.00146537 0.00138654)
(0.0982474 0.00130048 0.00124475)
(0.0978586 0.00116528 0.00113816)
(0.0975235 0.00105536 0.0010585)
(0.0972391 0.000965775 0.000994702)
(0.0970048 0.000891537 0.000937109)
(0.0968221 0.00082718 0.000878485)
(0.0966929 0.000764107 0.000804543)
(0.0966172 0.000689822 0.000690485)
(0.0965857 0.000589289 0.000504499)
(0.0965418 0.000423018 0.000225564)
(0.0966539 9.03677e-05 -0.00011704)
(0.100093 0.000445926 0.000763195)
(0.100504 0.00119448 0.001749)
(0.101105 0.00158679 0.00212948)
(0.101635 0.00174037 0.00223445)
(0.10198 0.00178216 0.00228665)
(0.102173 0.00172887 0.00223536)
(0.102254 0.0016078 0.00211512)
(0.10228 0.00145977 0.00196351)
(0.102284 0.00130427 0.00180073)
(0.102279 0.00115488 0.00165066)
(0.102277 0.00102532 0.00154037)
(0.102285 0.00091353 0.00146122)
(0.102305 0.000813502 0.00140306)
(0.102338 0.000717814 0.00135933)
(0.102388 0.000616937 0.00132393)
(0.102457 0.000503778 0.00128967)
(0.102545 0.000366365 0.00124783)
(0.102646 0.000190307 0.00119187)
(0.102747 -3.79203e-05 0.00112906)
(0.102939 -0.000309401 0.00112361)
(0.100087 0.000144358 0.000707012)
(0.100477 0.000390409 0.00161777)
(0.101066 0.000540963 0.00203464)
(0.101694 0.000609884 0.00211757)
(0.102269 0.000635495 0.00215)
(0.102743 0.000625874 0.00217951)
(0.103125 0.000593234 0.00213374)
(0.103429 0.000546696 0.0020439)
(0.103683 0.000499442 0.00193483)
(0.103902 0.000453351 0.0018295)
(0.104101 0.000404396 0.00173211)
(0.104292 0.000352273 0.00164705)
(0.104476 0.000298921 0.00158977)
(0.104648 0.000240532 0.00156266)
(0.104808 0.000168846 0.00155564)
(0.104961 7.90366e-05 0.00156283)
(0.105101 -3.81824e-05 0.00158824)
(0.105228 -0.000193563 0.00163493)
(0.105341 -0.000396158 0.0017041)
(0.105558 -0.000622893 0.00180821)
(0.100087 -0.000144425 0.000707019)
(0.100477 -0.000390608 0.00161779)
(0.101066 -0.000541308 0.00203463)
(0.101694 -0.000610494 0.00211765)
(0.102269 -0.000636633 0.00215034)
(0.102742 -0.000627888 0.00218015)
(0.103123 -0.000596558 0.00213476)
(0.103426 -0.000552184 0.00204551)
(0.103678 -0.000508803 0.00193728)
(0.103894 -0.000469553 0.00183349)
(0.104088 -0.000431883 0.00173864)
(0.104271 -0.000397713 0.0016585)
(0.104442 -0.000371222 0.00161024)
(0.10459 -0.000354313 0.00159726)
(0.104715 -0.000349522 0.00161005)
(0.10482 -0.000362571 0.00164958)
(0.104895 -0.000399508 0.00173131)
(0.104939 -0.000466457 0.00186248)
(0.104961 -0.00057004 0.00203293)
(0.105169 -0.000699707 0.00216566)
(0.100093 -0.000445933 0.00076321)
(0.100504 -0.0011945 0.00174905)
(0.101105 -0.00158683 0.00212965)
(0.101634 -0.0017405 0.00223503)
(0.101979 -0.00178241 0.00228777)
(0.10217 -0.00172926 0.002237)
(0.102251 -0.00160856 0.0021176)
(0.102273 -0.00146113 0.00196731)
(0.102273 -0.00130639 0.00180644)
(0.102262 -0.00115895 0.00165983)
(0.102249 -0.0010324 0.00155645)
(0.102237 -0.000924998 0.00148868)
(0.102225 -0.000829323 0.00144941)
(0.10221 -0.000742554 0.00143717)
(0.102186 -0.000659674 0.00145503)
(0.102145 -0.000578671 0.00151067)
(0.102074 -0.00049768 0.00161796)
(0.101964 -0.000413369 0.00180037)
(0.101833 -0.000320143 0.00205762)
(0.102001 -0.000223478 0.00229354)
(0.10014 -0.000775 0.000869276)
(0.100454 -0.00196235 0.00196368)
(0.100911 -0.00242743 0.00233478)
(0.100978 -0.00252637 0.00244172)
(0.100693 -0.00242588 0.00233743)
(0.100223 -0.00219679 0.00211338)
(0.0997072 -0.00191558 0.00182469)
(0.0991808 -0.00166411 0.00157811)
(0.098684 -0.0014598 0.00139434)
(0.0982331 -0.00129075 0.00125778)
(0.0978341 -0.00114953 0.00116009)
(0.0974822 -0.00102916 0.00109488)
(0.0971726 -0.000921837 0.00105465)
(0.0968999 -0.000817655 0.00103468)
(0.096657 -0.000708521 0.00103774)
(0.0964348 -0.000584542 0.00106983)
(0.0962226 -0.000429232 0.00113886)
(0.0960035 -0.000222966 0.00125814)
(0.0957632 5.5104e-05 0.00142293)
(0.0958624 0.000343766 0.00159736)
(0.100226 -0.000720797 0.000720831)
(0.09996 -0.00198266 0.00198281)
(0.0997823 -0.00245169 0.00245205)
(0.0987881 -0.00241936 0.00241999)
(0.0972755 -0.00220039 0.0022014)
(0.0957746 -0.00181066 0.00181246)
(0.0943925 -0.00138102 0.00138397)
(0.0931634 -0.00106778 0.00107277)
(0.092076 -0.000849906 0.00085849)
(0.0911134 -0.000694575 0.000709437)
(0.0902602 -0.000576453 0.000603234)
(0.0894925 -0.000483178 0.000527253)
(0.0887915 -0.000409487 0.000477069)
(0.0881569 -0.000344197 0.000446436)
(0.0875889 -0.000267138 0.000432185)
(0.0870859 -0.000158625 0.000437271)
(0.0866477 2.55703e-06 0.000461575)
(0.0862618 0.000274431 0.000485538)
(0.0858184 0.000799846 0.00039847)
(0.0855938 0.00177973 -0.000162503)
(0.0999088 -0.000712547 0.00129701)
(0.0969668 -0.00274719 0.00365596)
(0.0935346 -0.00211802 0.00264034)
(0.0895893 -0.00162035 0.00182066)
(0.0858322 -0.00139023 0.00152926)
(0.0825902 -0.00116054 0.00135204)
(0.0798655 -0.000896048 0.0011808)
(0.0775675 -0.000690517 0.00104304)
(0.0755587 -0.000557812 0.000947139)
(0.0737528 -0.000475319 0.000873174)
(0.0721048 -0.000424022 0.000805762)
(0.0705872 -0.000390327 0.000740648)
(0.0691814 -0.000368926 0.000685502)
(0.0678742 -0.000358565 0.000646468)
(0.0666613 -0.000346569 0.000621095)
(0.0655607 -0.000305122 0.000605984)
(0.0646336 -0.000223731 0.000584564)
(0.064031 5.85977e-06 0.000512872)
(0.064227 0.000329123 0.000468517)
(0.0621227 0.000791944 6.63993e-05)
(0.099413 0.000270234 0.000345224)
(0.0988664 0.00187493 0.00201901)
(0.0979213 0.00218908 0.00257305)
(0.0963656 0.0019085 0.00237973)
(0.0946329 0.00162682 0.00211393)
(0.0929713 0.00141883 0.0019265)
(0.0913624 0.00127155 0.00180112)
(0.0898508 0.00116063 0.00170489)
(0.0884491 0.00107091 0.00160393)
(0.0871488 0.00100008 0.00149282)
(0.085941 0.000953425 0.00138113)
(0.0848088 0.000929223 0.00127507)
(0.0837307 0.000923451 0.00117339)
(0.082688 0.000933424 0.00107091)
(0.0816626 0.0009605 0.000961462)
(0.0806319 0.00101116 0.000836587)
(0.0795583 0.0011015 0.00068528)
(0.0783643 0.00125363 0.000475605)
(0.0769536 0.0014755 0.000116494)
(0.0754945 0.00278241 -0.000129651)
(0.10014 0.000869277 0.000774998)
(0.100454 0.00196369 0.00196235)
(0.100911 0.00233478 0.00242742)
(0.100978 0.00244173 0.00252636)
(0.100693 0.00233744 0.00242586)
(0.100223 0.00211339 0.00219678)
(0.0997072 0.0018247 0.00191556)
(0.0991808 0.00157813 0.00166408)
(0.098684 0.00139437 0.00145976)
(0.0982331 0.00125781 0.00129071)
(0.0978341 0.00116013 0.00114948)
(0.0974822 0.00109493 0.0010291)
(0.0971726 0.00105471 0.000921765)
(0.0968999 0.00103472 0.000817531)
(0.0966571 0.00103775 0.000708338)
(0.0964349 0.00106983 0.000584306)
(0.0962228 0.00113879 0.000428882)
(0.0960037 0.00125789 0.000222397)
(0.0957635 0.0014224 -5.60026e-05)
(0.0958625 0.0015968 -0.000344726)
(0.10006 0.000641439 0.000641372)
(0.100501 0.00164519 0.00164497)
(0.101149 0.00221269 0.00221227)
(0.101738 0.00244047 0.00243976)
(0.102205 0.00244273 0.00244158)
(0.102501 0.00231471 0.00231292)
(0.102645 0.0020945 0.00209152)
(0.102714 0.00187218 0.00186742)
(0.10274 0.00167622 0.00166843)
(0.102754 0.00151319 0.00150042)
(0.102773 0.00138007 0.00135927)
(0.102808 0.00127341 0.0012398)
(0.102862 0.00119041 0.00113636)
(0.102939 0.00112846 0.00104202)
(0.103039 0.00108574 0.000948996)
(0.103162 0.00106131 0.00084807)
(0.103304 0.00105454 0.000728756)
(0.103461 0.00106148 0.000581535)
(0.10363 0.0010649 0.000402926)
(0.103952 0.00104055 0.000259953)
(0.100046 0.000395734 0.000540223)
(0.10048 0.00104491 0.00138403)
(0.101154 0.00147545 0.00192284)
(0.101913 0.00170538 0.00219233)
(0.102632 0.00178034 0.00229367)
(0.103302 0.00174526 0.00227762)
(0.103895 0.00163492 0.00218466)
(0.104391 0.00149266 0.00205103)
(0.10482 0.00134681 0.00190274)
(0.105199 0.00121241 0.00176232)
(0.105544 0.00109429 0.00163817)
(0.105869 0.000992811 0.00153163)
(0.106183 0.000905497 0.00144132)
(0.106495 0.00082898 0.00136426)
(0.106809 0.000760437 0.00129646)
(0.107129 0.000697493 0.00123262)
(0.107457 0.000635474 0.00116856)
(0.107795 0.000569565 0.00110238)
(0.108148 0.000489709 0.00103891)
(0.108595 0.000390714 0.00101408)
(0.100039 0.000131316 0.000478762)
(0.100448 0.000350452 0.00123476)
(0.101114 0.000505 0.00174643)
(0.101909 0.000597058 0.00202673)
(0.102729 0.000638362 0.00215192)
(0.10353 0.000637889 0.00218616)
(0.104298 0.000603901 0.00215289)
(0.105008 0.000558231 0.00207889)
(0.105644 0.000508427 0.0019802)
(0.106218 0.000459131 0.00187304)
(0.106742 0.000412818 0.00176926)
(0.107225 0.000369839 0.00167666)
(0.107679 0.000329322 0.00160097)
(0.108112 0.000288927 0.00154421)
(0.108534 0.000245836 0.00150485)
(0.108945 0.00019813 0.00148167)
(0.109347 0.000142768 0.00147431)
(0.109742 7.59828e-05 0.00148332)
(0.110144 -4.6848e-06 0.00150596)
(0.11063 -8.42648e-05 0.00154058)
(0.100039 -0.000131362 0.000478784)
(0.100448 -0.00035057 0.00123482)
(0.101114 -0.000505209 0.00174656)
(0.101909 -0.000597407 0.00202697)
(0.102728 -0.000638957 0.00215239)
(0.103529 -0.000638861 0.00218692)
(0.104297 -0.00060555 0.00215406)
(0.105006 -0.00056091 0.00208066)
(0.105641 -0.000512857 0.00198296)
(0.106213 -0.000466524 0.00187751)
(0.106734 -0.000424972 0.0017767)
(0.107213 -0.000389253 0.00168921)
(0.10766 -0.000359304 0.001622)
(0.108086 -0.000334656 0.00157828)
(0.108495 -0.000315278 0.00155756)
(0.108888 -0.000303709 0.00156073)
(0.109266 -0.00030047 0.0015924)
(0.109634 -0.000304784 0.00165456)
(0.110015 -0.000313214 0.00173564)
(0.110509 -0.00031995 0.00180269)
(0.100046 -0.000395715 0.000540282)
(0.10048 -0.00104485 0.00138421)
(0.101154 -0.00147535 0.00192319)
(0.101913 -0.00170524 0.00219296)
(0.102631 -0.00178006 0.00229475)
(0.103301 -0.00174478 0.00227937)
(0.103893 -0.0016341 0.0021874)
(0.104388 -0.00149138 0.00205552)
(0.104815 -0.00134473 0.0019097)
(0.105191 -0.00120936 0.00177328)
(0.105531 -0.00108974 0.00165602)
(0.105848 -0.000985773 0.00156062)
(0.106152 -0.000893694 0.00148885)
(0.106446 -0.000809788 0.00144122)
(0.106735 -0.000732187 0.00141861)
(0.107022 -0.000657626 0.00142422)
(0.107308 -0.000581134 0.00146267)
(0.107598 -0.000499578 0.00153643)
(0.107918 -0.000410523 0.00163317)
(0.108372 -0.000335403 0.00170314)
(0.10006 -0.000641373 0.000641437)
(0.100501 -0.00164498 0.00164518)
(0.101149 -0.00221228 0.00221268)
(0.101738 -0.00243977 0.00244046)
(0.102205 -0.00244159 0.00244272)
(0.102501 -0.00231293 0.0023147)
(0.102645 -0.00209154 0.00209449)
(0.102714 -0.00186745 0.00187216)
(0.10274 -0.00166846 0.0016762)
(0.102754 -0.00150046 0.00151316)
(0.102773 -0.00135932 0.00138003)
(0.102808 -0.00123986 0.00127337)
(0.102862 -0.00113644 0.00119036)
(0.102939 -0.00104213 0.00112843)
(0.103039 -0.000949163 0.00108573)
(0.103162 -0.000848299 0.00106133)
(0.103304 -0.000729084 0.00105461)
(0.103462 -0.000581993 0.00106165)
(0.10363 -0.000403475 0.0010651)
(0.103953 -0.000260188 0.00104035)
(0.10014 -0.000869229 0.000775037)
(0.100454 -0.00196347 0.00196246)
(0.100911 -0.00233429 0.00242764)
(0.100978 -0.0024409 0.00252681)
(0.100694 -0.00233622 0.00242665)
(0.100225 -0.00211175 0.00219814)
(0.0997099 -0.00182213 0.0019177)
(0.0991855 -0.00157357 0.00166731)
(0.0986922 -0.00138657 0.00146534)
(0.0982474 -0.00124478 0.00130045)
(0.0978586 -0.0011382 0.00116524)
(0.0975234 -0.00105855 0.00105531)
(0.0972391 -0.000994774 0.000965718)
(0.0970047 -0.000937207 0.000891479)
(0.096822 -0.000878619 0.000827133)
(0.0966927 -0.000804738 0.000764087)
(0.096617 -0.00069078 0.000689859)
(0.0965855 -0.000504959 0.000589448)
(0.0965415 -0.00022621 0.000423342)
(0.0966539 0.000116402 9.06574e-05)
(0.099413 -0.000270227 0.000345243)
(0.0988664 -0.00187484 0.0020191)
(0.0979217 -0.00218883 0.00257324)
(0.0963663 -0.00190808 0.00238008)
(0.0946343 -0.00162621 0.00211447)
(0.0929738 -0.00141796 0.00192738)
(0.091367 -0.00127011 0.00180243)
(0.0898589 -0.00115821 0.00170704)
(0.0884631 -0.00106699 0.00160754)
(0.0871723 -0.000993582 0.00149881)
(0.0859807 -0.000943116 0.00139104)
(0.0848764 -0.000911267 0.00129102)
(0.0838445 -0.000892245 0.00119808)
(0.0828789 -0.000879719 0.0011075)
(0.081983 -0.000866442 0.00101357)
(0.0811785 -0.000836846 0.000904772)
(0.0805117 -0.000777893 0.000760133)
(0.0800442 -0.000624357 0.000535054)
(0.0798671 -0.000351415 4.63536e-05)
(0.0792001 0.000234533 -0.00126585)
(0.0995405 0.000321899 0.000245043)
(0.0992576 0.00154093 0.00105562)
(0.0988488 0.00211451 0.00150234)
(0.0981246 0.00209173 0.00157943)
(0.0973364 0.00188632 0.00151488)
(0.0965841 0.00166619 0.00144657)
(0.0958638 0.00149844 0.00141036)
(0.0951948 0.00137234 0.00137927)
(0.0945636 0.0012867 0.00133385)
(0.0939141 0.00123349 0.00126282)
(0.0932779 0.00120001 0.001173)
(0.0926503 0.00118372 0.00107692)
(0.0920181 0.00118232 0.000985281)
(0.0913664 0.00119735 0.000902529)
(0.0906752 0.00123403 0.000828303)
(0.0899122 0.00130287 0.000759789)
(0.0890244 0.00142357 0.000704656)
(0.0879229 0.00163856 0.000672805)
(0.0864804 0.00197746 0.000700926)
(0.084901 0.00243083 0.000875486)
(0.100093 0.000763211 0.000445931)
(0.100504 0.00174905 0.0011945)
(0.101105 0.00212965 0.00158682)
(0.101634 0.00223503 0.00174049)
(0.101979 0.00228778 0.0017824)
(0.10217 0.00223701 0.00172924)
(0.102251 0.00211761 0.00160854)
(0.102273 0.00196732 0.00146111)
(0.102273 0.00180645 0.00130636)
(0.102262 0.00165985 0.00115891)
(0.102249 0.00155647 0.00103235)
(0.102237 0.00148871 0.00092493)
(0.102225 0.00144945 0.00082924)
(0.10221 0.00143718 0.000742432)
(0.102186 0.00145502 0.000659505)
(0.102145 0.00151063 0.000578457)
(0.102074 0.00161786 0.000497384)
(0.101964 0.00180013 0.000412946)
(0.101833 0.00205711 0.000319529)
(0.102 0.00229264 0.000222629)
(0.100046 0.000540283 0.000395713)
(0.10048 0.00138422 0.00104485)
(0.101154 0.00192319 0.00147534)
(0.101913 0.00219297 0.00170523)
(0.102631 0.00229476 0.00178005)
(0.103301 0.00227939 0.00174477)
(0.103893 0.00218741 0.00163408)
(0.104388 0.00205553 0.00149135)
(0.104815 0.00190972 0.0013447)
(0.105191 0.00177331 0.00120932)
(0.105531 0.00165604 0.00108969)
(0.105848 0.00156065 0.000985709)
(0.106152 0.00148888 0.000893612)
(0.106446 0.00144124 0.000809674)
(0.106735 0.00141862 0.000732035)
(0.107022 0.00142421 0.000657438)
(0.107307 0.00146263 0.000580903)
(0.107598 0.00153634 0.000499305)
(0.107917 0.00163307 0.000410248)
(0.108371 0.00170318 0.000335272)
(0.100036 0.000323174 0.000323128)
(0.100429 0.000868762 0.000868628)
(0.10108 0.00126255 0.0012623)
(0.101891 0.00150463 0.00150421)
(0.102756 0.00162199 0.0016213)
(0.103616 0.0016434 0.00164233)
(0.104446 0.00160566 0.00160405)
(0.105223 0.00152793 0.00152541)
(0.105938 0.00142931 0.00142539)
(0.106593 0.00132587 0.00131976)
(0.107198 0.0012284 0.00121876)
(0.107761 0.00114231 0.00112708)
(0.108292 0.00106978 0.00104575)
(0.108799 0.00101146 0.000973935)
(0.10929 0.000967497 0.000910048)
(0.109772 0.000937759 0.000852176)
(0.110252 0.000921734 0.000798342)
(0.110737 0.000917103 0.000746754)
(0.111243 0.000915044 0.000699118)
(0.111819 0.000894746 0.00067058)
(0.100031 0.000107081 0.000281374)
(0.100395 0.000293062 0.000768609)
(0.101024 0.00043411 0.00113303)
(0.101844 0.000526281 0.00136913)
(0.102751 0.000576438 0.00150131)
(0.103689 0.000591889 0.00155406)
(0.104618 0.000582563 0.00154903)
(0.105516 0.000558006 0.00150807)
(0.106367 0.000524432 0.00144436)
(0.107164 0.000487379 0.00136814)
(0.107908 0.000451146 0.00128807)
(0.108601 0.000418159 0.00121074)
(0.109252 0.00038943 0.0011407)
(0.10987 0.000364823 0.00108073)
(0.110463 0.000343026 0.00103279)
(0.111038 0.000322263 0.000997857)
(0.111602 0.000301609 0.000975123)
(0.112163 0.000279196 0.000962723)
(0.112736 0.00025402 0.000957008)
(0.11336 0.000224904 0.000956963)
(0.100031 -0.000107084 0.000281396)
(0.100395 -0.000293062 0.000768674)
(0.101024 -0.000434104 0.00113315)
(0.101843 -0.000526267 0.00136936)
(0.102751 -0.000576408 0.00150171)
(0.103688 -0.000591825 0.00155467)
(0.104617 -0.000582457 0.00154991)
(0.105515 -0.000557926 0.00150935)
(0.106366 -0.000524468 0.00144632)
(0.107163 -0.00048761 0.0013712)
(0.107905 -0.000451585 0.00129287)
(0.108598 -0.000418671 0.00121825)
(0.109247 -0.000389619 0.00115239)
(0.109863 -0.000364173 0.0010989)
(0.110453 -0.00034152 0.0010609)
(0.111025 -0.000321634 0.00103987)
(0.111583 -0.000304708 0.00103572)
(0.112136 -0.000290651 0.00104562)
(0.112703 -0.000278887 0.00106106)
(0.113331 -0.000271254 0.0010652)
(0.100036 -0.00032313 0.000323173)
(0.100429 -0.000868632 0.000868758)
(0.10108 -0.00126231 0.00126255)
(0.101891 -0.00150422 0.00150463)
(0.102756 -0.00162131 0.00162198)
(0.103616 -0.00164234 0.00164338)
(0.104446 -0.00160406 0.00160564)
(0.105223 -0.00152543 0.00152791)
(0.105938 -0.00142542 0.00142928)
(0.106593 -0.0013198 0.00132584)
(0.107198 -0.00121881 0.00122837)
(0.107761 -0.00112714 0.00114228)
(0.108292 -0.00104582 0.00106973)
(0.108799 -0.000974031 0.00101141)
(0.10929 -0.000910167 0.000967449)
(0.109772 -0.000852319 0.000937698)
(0.110252 -0.000798503 0.00092165)
(0.110737 -0.000746924 0.000916975)
(0.111244 -0.000699262 0.000914827)
(0.111819 -0.000670625 0.000894341)
(0.100046 -0.000540225 0.000395733)
(0.10048 -0.00138404 0.00104491)
(0.101154 -0.00192285 0.00147545)
(0.101913 -0.00219234 0.00170538)
(0.102632 -0.00229368 0.00178033)
(0.103302 -0.00227764 0.00174525)
(0.103895 -0.00218467 0.0016349)
(0.104391 -0.00205105 0.00149264)
(0.10482 -0.00190277 0.00134679)
(0.105199 -0.00176236 0.00121239)
(0.105544 -0.00163822 0.00109426)
(0.105869 -0.00153169 0.000992772)
(0.106183 -0.00144139 0.000905454)
(0.106495 -0.00136436 0.000828939)
(0.106809 -0.0012966 0.000760399)
(0.107129 -0.0012328 0.000697457)
(0.107457 -0.00116881 0.000635435)
(0.107795 -0.00110271 0.000569511)
(0.108148 -0.00103931 0.000489603)
(0.108595 -0.00101447 0.000390422)
(0.100093 -0.000763197 0.000445925)
(0.100504 -0.00174901 0.00119448)
(0.101105 -0.00212949 0.00158678)
(0.101635 -0.00223446 0.00174036)
(0.10198 -0.00228666 0.00178215)
(0.102173 -0.00223537 0.00172885)
(0.102254 -0.00211514 0.00160778)
(0.10228 -0.00196353 0.00145975)
(0.102284 -0.00180075 0.00130424)
(0.102279 -0.00165069 0.00115484)
(0.102277 -0.0015404 0.00102529)
(0.102285 -0.00146126 0.000913488)
(0.102305 -0.00140312 0.000813458)
(0.102338 -0.00135941 0.00071777)
(0.102388 -0.00132404 0.000616896)
(0.102457 -0.00128983 0.000503747)
(0.102545 -0.00124808 0.00036635)
(0.102646 -0.00119226 0.000190323)
(0.102747 -0.00112964 -3.78625e-05)
(0.102939 -0.00112427 -0.000309387)
(0.0995405 -0.000321899 0.000245028)
(0.0992576 -0.00154093 0.00105555)
(0.0988491 -0.00211439 0.0015022)
(0.0981252 -0.00209151 0.00157917)
(0.0973378 -0.00188598 0.00151429)
(0.0965868 -0.00166567 0.00144537)
(0.0958686 -0.00149781 0.00140821)
(0.095203 -0.00137127 0.00137571)
(0.094578 -0.0012843 0.00132763)
(0.0939386 -0.00122818 0.00125283)
(0.0933195 -0.00118986 0.00115728)
(0.0927208 -0.00116488 0.0010519)
(0.0921367 -0.0011508 0.000943468)
(0.0915652 -0.0011444 0.000831528)
(0.0910068 -0.00113994 0.000709991)
(0.0904637 -0.00112968 0.000553613)
(0.0899427 -0.00110613 0.000341466)
(0.0894551 -0.00106366 2.99228e-05)
(0.0889938 -0.00101769 -0.000426631)
(0.0884314 -0.00103131 -0.00109966)
(0.0993802 5.89988e-05 3.37905e-05)
(0.0992677 0.00120005 0.000274459)
(0.0989805 0.00188847 0.000432516)
(0.0984747 0.00200644 0.0004837)
(0.0979956 0.00191466 0.000479228)
(0.0975708 0.00173478 0.00046616)
(0.0971808 0.00154736 0.000453946)
(0.0968305 0.00138877 0.000444181)
(0.0965295 0.00127063 0.000439268)
(0.0962731 0.00120083 0.000433449)
(0.0959954 0.00117494 0.00041968)
(0.0956954 0.00117543 0.000401424)
(0.095369 0.00118938 0.000385897)
(0.0949993 0.00121633 0.000380522)
(0.0945726 0.00126589 0.000396985)
(0.0940717 0.0013438 0.000443796)
(0.093473 0.00145736 0.000549309)
(0.0927473 0.0016275 0.000705379)
(0.0918219 0.00185583 0.000997673)
(0.0907844 0.00200808 0.00168021)
(0.100087 0.00070702 0.000144423)
(0.100477 0.00161779 0.000390603)
(0.101066 0.00203464 0.000541302)
(0.101694 0.00211766 0.000610485)
(0.102269 0.00215035 0.000636621)
(0.102742 0.00218016 0.000627873)
(0.103123 0.00213477 0.000596538)
(0.103426 0.00204552 0.000552158)
(0.103678 0.00193729 0.00050877)
(0.103894 0.0018335 0.000469513)
(0.104088 0.00173865 0.000431831)
(0.104271 0.00165852 0.000397649)
(0.104442 0.00161025 0.000371142)
(0.10459 0.00159726 0.000354209)
(0.104715 0.00161005 0.000349388)
(0.10482 0.00164955 0.000362408)
(0.104895 0.00173125 0.000399314)
(0.104938 0.00186235 0.000466232)
(0.104961 0.00203265 0.0005698)
(0.105169 0.00216504 0.000699501)
(0.100039 0.000478785 0.00013136)