/*--------------------------------*- C++ -*----------------------------------*\
| =========                 |                                                 |
| \\      /  F ield         | OpenFOAM: The Open Source CFD Toolbox           |
|  \\    /   O peration     | Version:  2212                                  |
|   \\  /    A nd           | Website:  www.openfoam.com                      |
|    \\/     M anipulation  |                                                 |
\*---------------------------------------------------------------------------*/
FoamFile
{
    version     2.0;
    format      ascii;
    arch        "LSB;label=32;scalar=64";
    class       surfaceVectorField;
    location    "1.2";
    object      Uf;
}
// * * * * * * * * * * * * * * * * * * * * * * * * * * * * * * * * * * * * * //

dimensions      [0 1 -1 0 0 0 0];

internalField   nonuniform List<vector> 
19019
(
(0.0993441 -0.00341899 -0.00341904)
(0.0973536 0.00106248 -0.00148428)
(0.0973536 -0.00148427 0.00106247)
(0.0834792 0.00197595 0.00197581)
(0.0930872 0.00326905 0.00253343)
(0.0930872 0.00253352 0.00326892)
(0.0745171 0.00195888 0.00195859)
(0.084864 0.00163596 0.00179228)
(0.084864 0.00179246 0.00163572)
(0.0685478 0.00115937 0.00115881)
(0.0786281 0.00107372 0.00122123)
(0.078628 0.00122161 0.00107328)
(0.0642361 0.000697502 0.000696536)
(0.0740531 0.000785761 0.000864896)
(0.0740529 0.000865533 0.000784882)
(0.0607566 0.000495824 0.000493918)
(0.0704427 0.000651204 0.00066896)
(0.0704423 0.000670038 0.000649795)
(0.0579372 0.000376682 0.000373124)
(0.067492 0.000548087 0.000507875)
(0.0674913 0.000510038 0.000545253)
(0.0556138 0.00029109 0.000285154)
(0.0650514 0.000471195 0.000386389)
(0.0650501 0.000389997 0.000466272)
(0.0536243 0.000232118 0.000222382)
(0.062967 0.000419125 0.000306155)
(0.0629647 0.000312035 0.000410801)
(0.0518791 0.000191696 0.0001754)
(0.0611334 0.000379243 0.000252229)
(0.0611294 0.000261886 0.000365202)
(0.0503291 0.000165322 0.000138089)
(0.0594917 0.000345489 0.000214586)
(0.0594844 0.000231752 0.000321673)
(0.0489421 0.000149396 0.000105529)
(0.0580087 0.000317442 0.000186811)
(0.0579953 0.000215665 0.000277797)
(0.0476877 0.000141741 7.3145e-05)
(0.0566576 0.000298595 0.000165364)
(0.0566341 0.00020851 0.000233981)
(0.046544 0.000143025 3.71072e-05)
(0.0554165 0.000291571 0.000147539)
(0.0553766 0.000207439 0.000185791)
(0.0455133 0.000156704 9.48933e-07)
(0.0542776 0.000296137 0.000125924)
(0.054211 0.000213891 0.000122448)
(0.0446055 0.000191299 -6.00685e-05)
(0.0532535 0.00031394 9.57117e-05)
(0.0531392 0.00023138 3.85218e-05)
(0.0438601 0.000250525 -0.000188877)
(0.0523846 0.000360991 2.57355e-05)
(0.0521758 0.000277849 -9.19857e-05)
(0.0434817 0.000313335 -0.000414486)
(0.0517882 0.000445666 -0.000126097)
(0.0513773 0.00032669 -0.000336229)
(0.0439836 -0.000448488 -0.00173271)
(0.0519048 0.000584953 -0.000352329)
(0.0510283 0.000302741 -0.000856347)
(0.050466 -0.000278651 -0.00180667)
(0.0499463 -0.00114483 -0.00354557)
(0.0984572 0.00247649 0.00172987)
(0.0996871 0.000439245 0.000345478)
(0.100049 0.00105639 0.000750959)
(0.0958348 0.00314816 0.0024326)
(0.0978161 0.00273287 0.00228224)
(0.0982936 0.00280928 0.00216141)
(0.09145 0.00223052 0.00186918)
(0.095496 0.00300183 0.00230302)
(0.096304 0.00244278 0.00199769)
(0.0875953 0.00167498 0.00150528)
(0.0926193 0.00229957 0.0018386)
(0.0936668 0.00198095 0.00172679)
(0.0841478 0.00144067 0.00127537)
(0.0897676 0.00189228 0.00153543)
(0.0909046 0.00172011 0.00149757)
(0.081188 0.00126645 0.00102828)
(0.0872327 0.00165708 0.00129434)
(0.0884344 0.00145515 0.00121129)
(0.0787017 0.00111196 0.00079327)
(0.0850078 0.00149302 0.0010767)
(0.0863048 0.0011845 0.000907953)
(0.0765575 0.000995133 0.00062415)
(0.083063 0.00137316 0.000912617)
(0.0844806 0.000984757 0.00068967)
(0.0746526 0.000910207 0.000516547)
(0.0813283 0.00128117 0.000800617)
(0.0828803 0.000848178 0.00054692)
(0.0729263 0.000839528 0.000449647)
(0.0797527 0.00119835 0.000724798)
(0.0814482 0.000749582 0.000452455)
(0.0713433 0.000773276 0.000407144)
(0.0783088 0.00111918 0.000676326)
(0.0801525 0.000671035 0.000385748)
(0.0698826 0.000713159 0.000379591)
(0.0769759 0.00104362 0.000645469)
(0.0789673 0.000605203 0.000335244)
(0.0685274 0.000666092 0.000363718)
(0.0757373 0.000973349 0.000625813)
(0.077874 0.000555117 0.000297332)
(0.0672662 0.000633912 0.000352542)
(0.0745829 0.00090983 0.000613923)
(0.0768649 0.000521701 0.000267057)
(0.066103 0.000613677 0.000325796)
(0.0735117 0.000852909 0.000600985)
(0.0759378 0.0005024 0.000228876)
(0.0650735 0.000595397 0.000264344)
(0.0725436 0.000799794 0.000566326)
(0.0751023 0.000497116 0.000159713)
(0.064265 0.000548818 0.000108811)
(0.071733 0.000725554 0.000495819)
(0.074392 0.000494621 3.98151e-05)
(0.0639687 0.000490771 -0.000167654)
(0.0711911 0.000554453 0.000288091)
(0.0738858 0.000458164 -0.000225336)
(0.0647924 0.000267374 -0.000560885)
(0.0712207 0.000195821 -5.80103e-05)
(0.073799 0.000316408 -0.00082259)
(0.0697593 -0.0010488 -0.00074673)
(0.0725283 -0.00062585 -0.00261892)
(0.0993753 0.00118218 0.00107253)
(0.099473 0.000349766 0.000307057)
(0.0997475 0.000610998 0.000779867)
(0.0984949 0.00229618 0.00203183)
(0.0990504 0.00157685 0.00172044)
(0.0995971 0.00201837 0.00200281)
(0.0971415 0.00247667 0.00204845)
(0.0983579 0.00213119 0.00216877)
(0.0992974 0.00246166 0.00210226)
(0.0954399 0.00224729 0.00176714)
(0.0971936 0.00203593 0.00200225)
(0.0984885 0.00237472 0.00190235)
(0.0937516 0.00202095 0.00152208)
(0.0959059 0.00185581 0.00175412)
(0.0974227 0.00218126 0.00168831)
(0.0921396 0.00186493 0.00134402)
(0.0946732 0.00173294 0.00154229)
(0.0963104 0.00198532 0.00150771)
(0.0906041 0.00175476 0.00121414)
(0.0934843 0.001653 0.00138592)
(0.0952059 0.00180253 0.00134179)
(0.0891557 0.00165732 0.00111258)
(0.0923725 0.00157721 0.00126471)
(0.0941504 0.00164605 0.00120224)
(0.0878115 0.00155321 0.00103027)
(0.0913393 0.00148192 0.00117064)
(0.0931699 0.00150707 0.00109332)
(0.0865735 0.00144497 0.000968324)
(0.0903549 0.00137167 0.00110112)
(0.0922684 0.00137873 0.00100984)
(0.0854275 0.00134109 0.000927161)
(0.0894326 0.00126052 0.00105415)
(0.0914462 0.00126329 0.000950585)
(0.0843592 0.00124461 0.000901716)
(0.0885661 0.001152 0.00102407)
(0.0906959 0.0011625 0.000909741)
(0.0833592 0.00115285 0.000885935)
(0.0877448 0.00104719 0.00100625)
(0.0900079 0.00107402 0.000880178)
(0.0824272 0.00106062 0.000873032)
(0.0869647 0.000943269 0.000995803)
(0.0893789 0.000993414 0.000855333)
(0.0815742 0.000959259 0.000851575)
(0.0862276 0.000832133 0.000985639)
(0.0888112 0.000915098 0.000828052)
(0.0808364 0.000832521 0.000807249)
(0.0855461 0.000692104 0.000962952)
(0.0883174 0.000828532 0.000782144)
(0.0802699 0.000647615 0.000700912)
(0.0849479 0.000498358 0.000916384)
(0.0879227 0.000715514 0.000695275)
(0.0799347 0.000290553 0.00048751)
(0.0844712 0.000209665 0.000809421)
(0.0876559 0.000543833 0.000513393)
(0.0799391 -0.000610312 5.77597e-05)
(0.0841607 -0.00026712 0.000642316)
(0.0875402 0.00019638 0.000213615)
(0.0835431 -0.00123524 0.000348609)
(0.0872318 -0.000687292 -0.000335986)
(0.0996493 0.00065029 0.000931411)
(0.0994625 0.000129363 0.000192494)
(0.0997993 0.000375126 0.000741359)
(0.0990855 0.00127888 0.00182765)
(0.0992626 0.000636821 0.0013706)
(0.099841 0.00115037 0.0018142)
(0.0984495 0.0015407 0.00210295)
(0.098913 0.000973298 0.00200351)
(0.0999049 0.00153647 0.00209007)
(0.0977082 0.00154675 0.00198874)
(0.0982953 0.00104983 0.00205054)
(0.0997677 0.00163164 0.00202281)
(0.0969406 0.00147984 0.00177582)
(0.097658 0.00100709 0.00189947)
(0.0995102 0.00160947 0.00189531)
(0.0962099 0.00142681 0.00158173)
(0.097066 0.000959298 0.00169808)
(0.0992009 0.00154737 0.00175117)
(0.0955258 0.00139199 0.00143453)
(0.0965079 0.000931793 0.00152042)
(0.0988571 0.00147425 0.00162512)
(0.0948786 0.0013517 0.00132778)
(0.0959964 0.000914225 0.0013787)
(0.0985149 0.00139228 0.00151396)
(0.0942477 0.00129027 0.00125623)
(0.0955302 0.000897887 0.00127766)
(0.0981841 0.00129841 0.00141795)
(0.0936271 0.0012051 0.001209)
(0.0950792 0.000861944 0.00121521)
(0.097842 0.0011925 0.00134027)
(0.0930208 0.00110464 0.00117735)
(0.0946297 0.000798894 0.00118165)
(0.0975118 0.00108391 0.00128516)
(0.092429 0.00099774 0.00115781)
(0.0941824 0.000722635 0.0011668)
(0.0971971 0.000977613 0.00124713)
(0.0918504 0.000887559 0.00114756)
(0.0937339 0.000640901 0.0011629)
(0.0968956 0.00087462 0.00122129)
(0.0912851 0.000770828 0.00114212)
(0.0932782 0.000551929 0.00116674)
(0.096607 0.000771468 0.00120437)
(0.0907343 0.000631873 0.00113473)
(0.0928123 0.000450595 0.0011771)
(0.0963332 0.000660655 0.00119163)
(0.0902037 0.000447601 0.00111777)
(0.0923348 0.000316566 0.0011913)
(0.0960768 0.000525498 0.001176)
(0.0897021 0.000185736 0.00108468)
(0.0918471 0.000129356 0.00120696)
(0.0958406 0.000349261 0.00114942)
(0.0892336 -0.000198349 0.00104032)
(0.0913465 -0.000140692 0.0012219)
(0.0956286 0.000102025 0.00110598)
(0.0887493 -0.000763227 0.00102388)
(0.0908112 -0.000509094 0.0012477)
(0.0954305 -0.000246768 0.00105753)
(0.0901864 -0.00105618 0.00132074)
(0.0952212 -0.000730642 0.0010697)
(0.0996725 0.000154009 0.000629474)
(0.0993802 -2.05091e-08 5.89701e-05)
(0.0997132 0.000103901 0.000687945)
(0.0991592 0.000353182 0.00154423)
(0.0992677 -9.84278e-08 0.00120003)
(0.0998377 0.000341553 0.00162228)
(0.0986638 0.000457532 0.00194741)
(0.0989805 -2.27963e-07 0.00188845)
(0.0999631 0.000485295 0.00199136)
(0.0982127 0.00048046 0.00196042)
(0.0984748 -4.06338e-07 0.0020064)
(0.0999921 0.000539309 0.00199654)
(0.0977772 0.000470926 0.00182443)
(0.0979958 -6.95799e-07 0.00191456)
(0.10001 0.000545806 0.00191079)
(0.0973643 0.000456898 0.00164058)
(0.0975714 -1.21307e-06 0.00173458)
(0.100009 0.00053241 0.00180381)
(0.0969974 0.000443552 0.00146726)
(0.0971818 -2.13721e-06 0.00154706)
(0.099983 0.000509578 0.00168215)
(0.0966787 0.000432301 0.00132824)
(0.0968323 -3.65814e-06 0.00138826)
(0.099942 0.000481809 0.00157142)
(0.096401 0.000420447 0.00123305)
(0.0965325 -6.22032e-06 0.00126967)
(0.0999036 0.000455604 0.0014795)
(0.0961396 0.000399962 0.00118322)
(0.0962783 -1.04542e-05 0.0011991)
(0.0998736 0.000427834 0.00141549)
(0.095868 0.000366449 0.0011673)
(0.0960042 -1.74382e-05 0.001172)
(0.0998242 0.000391594 0.00137512)
(0.095575 0.000320826 0.00116911)
(0.0957105 -2.8921e-05 0.00117049)
(0.0997622 0.000346687 0.00134726)
(0.0952554 0.000263216 0.00118005)
(0.0953947 -4.7907e-05 0.00118102)
(0.0996876 0.00029486 0.00133182)
(0.0949038 0.000192151 0.00120055)
(0.095043 -7.88327e-05 0.00120188)
(0.0995921 0.000233795 0.00133142)
(0.0945161 9.9345e-05 0.00123387)
(0.0946456 -0.000128423 0.00123978)
(0.0994732 0.000158898 0.00134614)
(0.094084 -3.38459e-05 0.00128275)
(0.094191 -0.000208645 0.00129896)
(0.0993293 5.99882e-05 0.00137466)
(0.0935999 -0.000232127 0.0013486)
(0.0936654 -0.000343923 0.00138443)
(0.099156 -7.90978e-05 0.00142068)
(0.0930446 -0.000519185 0.0014331)
(0.0930453 -0.000544472 0.00150669)
(0.0989438 -0.00027775 0.0014856)
(0.0924175 -0.000960782 0.00154079)
(0.0922757 -0.000856096 0.00166824)
(0.0986727 -0.000551021 0.00157069)
(0.0914114 -0.00144376 0.00180488)
(0.0984092 -0.000946507 0.00169114)
(0.0996725 -0.000154128 0.000629526)
(0.0994625 -0.000129405 0.000192526)
(0.0997132 -0.000103951 0.000687949)
(0.0991591 -0.000353495 0.00154426)
(0.0992625 -0.000636981 0.00137063)
(0.0998377 -0.000341751 0.0016223)
(0.0986637 -0.000458119 0.00194745)
(0.0989129 -0.000973597 0.00200358)
(0.099963 -0.000485683 0.00199136)
(0.0982123 -0.000481478 0.00196055)
(0.0982949 -0.00105033 0.00205069)
(0.0999918 -0.000539989 0.00199659)
(0.0977764 -0.000472711 0.00182472)
(0.097657 -0.00100803 0.00189974)
(0.100009 -0.000547021 0.001911)
(0.0973628 -0.000460074 0.00164107)
(0.097064 -0.000961048 0.00169854)
(0.100008 -0.000534563 0.00180427)
(0.0969946 -0.000449089 0.00146806)
(0.0965044 -0.000934959 0.00152104)
(0.0999811 -0.00051329 0.00168284)
(0.0966739 -0.000441757 0.00132969)
(0.0959905 -0.000919686 0.00137976)
(0.0999387 -0.00048809 0.00157256)
(0.096393 -0.000436398 0.00123572)
(0.0955198 -0.000907305 0.00127987)
(0.099898 -0.0004663 0.00148148)
(0.0961259 -0.000426613 0.00118788)
(0.0950615 -0.000877521 0.00121969)
(0.0998645 -0.000446023 0.00141885)
(0.0958446 -0.000410612 0.00117518)
(0.0945997 -0.000824316 0.00118986)
(0.099809 -0.000422118 0.0013806)
(0.0955349 -0.000393735 0.0011824)
(0.0941315 -0.000764016 0.00118149)
(0.0997368 -0.000397119 0.00135656)
(0.0951872 -0.000383301 0.00120285)
(0.0936481 -0.000709225 0.00118753)
(0.0996445 -0.00037682 0.00134812)
(0.0947892 -0.000388865 0.00124111)
(0.0931336 -0.000665456 0.00120851)
(0.0995188 -0.000366224 0.00135993)
(0.094326 -0.00042053 0.00130487)
(0.092571 -0.000638194 0.00125179)
(0.0993521 -0.000372879 0.00139568)
(0.0937764 -0.000496733 0.00140063)
(0.0919355 -0.000631921 0.00132578)
(0.0991367 -0.000403983 0.00145887)
(0.0931108 -0.000627587 0.00154252)
(0.0911883 -0.000668398 0.00144462)
(0.0988557 -0.000477405 0.00156099)
(0.092291 -0.000851847 0.00174184)
(0.0902696 -0.000755986 0.00164112)
(0.0984924 -0.000591815 0.00171816)
(0.0912986 -0.00133943 0.00193233)
(0.0890785 -0.000970085 0.00193311)
(0.0980137 -0.000795572 0.00192552)
(0.0877624 -0.00151795 0.00225479)
(0.0975631 -0.00121872 0.00208691)
(0.0996493 -0.000650336 0.000931413)
(0.099473 -0.000349761 0.00030706)
(0.0997993 -0.000375136 0.000741357)
(0.0990854 -0.00127899 0.00182771)
(0.0990504 -0.00157683 0.00172048)
(0.0998409 -0.00115042 0.0018142)
(0.098449 -0.0015409 0.00210311)
(0.0983576 -0.00213114 0.00216896)
(0.0999046 -0.00153656 0.00209017)
(0.0977072 -0.00154717 0.00198902)
(0.097193 -0.00203585 0.00200257)
(0.0997671 -0.00163183 0.00202314)
(0.0969386 -0.00148075 0.00177625)
(0.0959045 -0.00185581 0.0017546)
(0.0995089 -0.00160989 0.00189594)
(0.0962062 -0.00142849 0.00158231)
(0.0946706 -0.0017331 0.00154301)
(0.0991984 -0.00154818 0.00175211)
(0.0955194 -0.00139485 0.00143538)
(0.0934796 -0.00165341 0.001387)
(0.0988528 -0.00147573 0.00162649)
(0.0948675 -0.0013566 0.00132951)
(0.0923644 -0.0015778 0.0012665)
(0.0985075 -0.00139479 0.00151617)
(0.0942286 -0.00129838 0.00126008)
(0.0913251 -0.00148293 0.00117385)
(0.0981716 -0.00130268 0.00142165)
(0.0935945 -0.00121797 0.00121673)
(0.0903309 -0.00137323 0.00110707)
(0.0978209 -0.00119962 0.00134668)
(0.0929656 -0.00112503 0.00119185)
(0.0893919 -0.0012629 0.00106444)
(0.0974764 -0.00109531 0.00129645)
(0.092336 -0.00103119 0.001183)
(0.0884971 -0.00115581 0.00104256)
(0.097137 -0.00099583 0.00126722)
(0.0916947 -0.000944013 0.00118981)
(0.0876288 -0.00105442 0.00103777)
(0.0967948 -0.000903712 0.00125635)
(0.091025 -0.000865546 0.00121567)
(0.08677 -0.000957776 0.00104927)
(0.0964411 -0.000820237 0.00126539)
(0.0903003 -0.000794217 0.00126845)
(0.0859018 -0.000860196 0.00107971)
(0.0960624 -0.00074298 0.00129919)
(0.0894788 -0.000732464 0.00136327)
(0.084997 -0.000752283 0.00113663)
(0.095637 -0.000669755 0.00136838)
(0.0884914 -0.000689069 0.0015312)
(0.0840106 -0.000631045 0.00123761)
(0.0951314 -0.0006043 0.00149309)
(0.0872328 -0.00068735 0.00180835)
(0.0828601 -0.000484992 0.00141454)
(0.0944943 -0.000551279 0.00171249)
(0.0855237 -0.000788887 0.00220463)
(0.0814341 -0.000299289 0.00168953)
(0.0936652 -0.000529063 0.00205086)
(0.0799179 -0.000287056 0.00260374)
(0.0929034 -0.000598729 0.00253187)
(0.0993753 -0.00118212 0.00107258)
(0.0996871 -0.00043922 0.000345489)
(0.0997475 -0.000610969 0.000779891)
(0.0984947 -0.00229604 0.002032)
(0.0978161 -0.00273272 0.00228233)
(0.099597 -0.00201827 0.00200294)
(0.097141 -0.00247641 0.00204879)
(0.0954959 -0.00300159 0.00230324)
(0.0992971 -0.00246145 0.00210259)
(0.0954389 -0.00224685 0.00176765)
(0.0926189 -0.00229915 0.00183901)
(0.0984879 -0.00237431 0.00190293)
(0.0937496 -0.00202023 0.00152281)
(0.0897667 -0.0018915 0.00153601)
(0.0974216 -0.0021806 0.00168917)
(0.0921361 -0.00186384 0.00134518)
(0.0872311 -0.00165579 0.00129527)
(0.0963083 -0.00198421 0.00150893)
(0.0905979 -0.00175304 0.00121607)
(0.0850048 -0.0014908 0.00107825)
(0.0952022 -0.00180084 0.00134375)
(0.089145 -0.00165445 0.00111575)
(0.0830576 -0.00136948 0.000915185)
(0.0941439 -0.0016434 0.0012056)
(0.0877932 -0.00154842 0.00103547)
(0.0813188 -0.00127496 0.000804889)
(0.0931586 -0.00150251 0.00109886)
(0.0865424 -0.00143703 0.000976727)
(0.0797366 -0.0011878 0.00073197)
(0.0922491 -0.00137094 0.00101906)
(0.0853748 -0.00132816 0.000941292)
(0.0782809 -0.00110101 0.00068912)
(0.0914135 -0.00125064 0.000966061)
(0.0842703 -0.00122431 0.000926302)
(0.0769273 -0.00101372 0.000667746)
(0.0906404 -0.00114186 0.000936277)
(0.0832101 -0.00112225 0.000928393)
(0.0756539 -0.000926758 0.000660437)
(0.0899159 -0.00104066 0.000925186)
(0.082177 -0.0010163 0.000946902)
(0.0744425 -0.000837959 0.000663983)
(0.0892275 -0.000940075 0.000930563)
(0.081151 -0.000899177 0.000985779)
(0.0732766 -0.000737884 0.000681821)
(0.0885622 -0.000833434 0.000955708)
(0.0801031 -0.000761147 0.00105632)
(0.0721413 -0.000609364 0.000718656)
(0.0879035 -0.000712121 0.00100858)
(0.0789865 -0.000580789 0.00117765)
(0.0710184 -0.000437063 0.000784053)
(0.0872262 -0.000563552 0.00110479)
(0.0777007 -0.000296667 0.00136483)
(0.0698723 -0.000162583 0.000872189)
(0.0864807 -0.000363803 0.00127027)
(0.0760437 5.55345e-06 0.00212944)
(0.0687074 0.000359145 0.000966295)
(0.0856083 -5.92824e-05 0.0015249)
(0.0673831 0.0014391 0.00129454)
(0.0848658 0.000174547 0.00241969)
(0.0984572 -0.00247641 0.00172993)
(0.0973536 -0.00106247 -0.00148427)
(0.100049 -0.00105637 0.000750986)
(0.0958348 -0.00314797 0.00243276)
(0.0930872 -0.00326893 0.00253352)
(0.0982936 -0.00280914 0.00216156)
(0.0914499 -0.00223018 0.00186949)
(0.084864 -0.00163573 0.00179246)
(0.0963039 -0.00244248 0.00199798)
(0.0875949 -0.00167432 0.00150578)
(0.078628 -0.0010733 0.0012216)
(0.0936667 -0.00198043 0.00172732)
(0.084147 -0.00143952 0.0012762)
(0.0740529 -0.000784901 0.000865523)
(0.0909043 -0.00171918 0.0014984)
(0.0811867 -0.00126445 0.00102971)
(0.0704423 -0.000649817 0.000670025)
(0.0884339 -0.0014536 0.0012128)
(0.0786993 -0.00110842 0.000795597)
(0.0674913 -0.000545282 0.00051002)
(0.0863039 -0.00118182 0.000910456)
(0.0765532 -0.000989049 0.000627983)
(0.0650501 -0.000466307 0.000389974)
(0.0844788 -0.000980191 0.000693835)
(0.0746449 -0.000899721 0.000522991)
(0.0629647 -0.000410842 0.000312008)
(0.0828771 -0.000840323 0.000553999)
(0.0729126 -0.000821476 0.000461492)
(0.0611294 -0.00036525 0.000261853)
(0.0814426 -0.000736045 0.000464643)
(0.0713185 -0.000742866 0.000428456)
(0.0594844 -0.000321729 0.000231712)
(0.0801423 -0.000647245 0.000408241)
(0.069838 -0.000663454 0.000412364)
(0.0579953 -0.00027786 0.000215615)
(0.0789488 -0.000565957 0.000373306)
(0.06845 -0.000584897 0.00040643)
(0.0566341 -0.000234044 0.000208448)
(0.0778412 -0.000493718 0.000355331)
(0.0671363 -0.000497222 0.000409805)
(0.0553765 -0.000185875 0.000207377)
(0.0768094 -0.000425582 0.000351328)
(0.065883 -0.000376309 0.000424322)
(0.054211 -0.000122553 0.000213828)
(0.0758453 -0.000343428 0.000363713)
(0.064692 -0.000205846 0.000455794)
(0.0531391 -3.86495e-05 0.000231306)
(0.0749433 -0.000223678 0.000398657)
(0.0635603 4.9221e-05 0.000497748)
(0.0521756 9.18186e-05 0.000277782)
(0.0741017 -5.5965e-05 0.000463235)
(0.0625171 0.00052519 0.000516799)
(0.0513769 0.000335983 0.000326647)
(0.0733142 0.000222321 0.00053721)
(0.0617318 0.00185174 0.000232456)
(0.0510274 0.000856041 0.000302784)
(0.07258 0.000799707 0.000521621)
(0.0499446 0.00354468 -0.00114445)
(0.0718042 0.00235644 -4.26772e-05)
(0.0993441 0.00341904 -0.00341899)
(0.0973536 0.00148428 0.00106248)
(0.0834792 -0.00197582 0.00197595)
(0.0930872 -0.00253343 0.00326905)
(0.0745171 -0.0019586 0.00195887)
(0.084864 -0.00179229 0.00163594)
(0.0685478 -0.00115882 0.00115936)
(0.0786281 -0.00122123 0.00107371)
(0.0642361 -0.000696551 0.000697486)
(0.0740531 -0.000864906 0.000785744)
(0.0607566 -0.000493939 0.000495804)
(0.0704427 -0.000668973 0.000651183)
(0.0579372 -0.000373151 0.000376655)
(0.067492 -0.000507894 0.000548059)
(0.0556138 -0.000285186 0.000291058)
(0.0650514 -0.000386412 0.000471162)
(0.0536243 -0.000222419 0.00023208)
(0.062967 -0.000306182 0.000419086)
(0.0518791 -0.000175443 0.000191651)
(0.0611334 -0.00025226 0.000379197)
(0.0503291 -0.000138139 0.00016527)
(0.0594917 -0.000214626 0.000345437)
(0.0489421 -0.00010558 0.000149329)
(0.0580086 -0.000186859 0.000317383)
(0.0476877 -7.32046e-05 0.000141666)
(0.0566576 -0.000165413 0.00029852)
(0.046544 -3.71743e-05 0.00014295)
(0.0554164 -0.000147595 0.00029149)
(0.0455132 -1.0265e-06 0.000156621)
(0.0542775 -0.000125986 0.000296052)
(0.0446053 5.99667e-05 0.000191207)
(0.0532534 -9.57939e-05 0.000313834)
(0.0438597 0.00018875 0.000250428)
(0.0523843 -2.58374e-05 0.00036088)
(0.0434811 0.000414355 0.000313272)
(0.0517877 0.000125978 0.000445527)
(0.0439826 0.00173224 -0.000448342)
(0.0519038 0.000352267 0.000584771)
(0.0504644 0.00180625 -0.000278839)
(0.0984572 0.00172993 0.0024764)
(0.100049 0.000750987 0.00105637)
(0.0996871 0.000345489 0.000439218)
(0.0958348 0.00243276 0.00314796)
(0.0982936 0.00216156 0.00280914)
(0.0978161 0.00228233 0.00273271)
(0.0914499 0.00186949 0.00223017)
(0.0963039 0.00199798 0.00244247)
(0.0954958 0.00230324 0.00300158)
(0.0875949 0.00150578 0.0016743)
(0.0936667 0.00172733 0.00198042)
(0.0926189 0.00183901 0.00229914)
(0.084147 0.00127621 0.0014395)
(0.0909043 0.00149841 0.00171916)
(0.0897667 0.00153601 0.00189148)
(0.0811867 0.00102972 0.00126442)
(0.0884339 0.00121281 0.00145358)
(0.0872311 0.00129528 0.00165577)
(0.0786993 0.000795611 0.00110839)
(0.0863039 0.000910472 0.0011818)
(0.0850048 0.00107826 0.00149078)
(0.0765532 0.000628 0.000989006)
(0.0844788 0.000693854 0.000980157)
(0.0830576 0.000915203 0.00136944)
(0.0746449 0.000523012 0.00089967)
(0.0828771 0.000554023 0.000840281)
(0.0813188 0.000804911 0.00127493)
(0.0729126 0.000461518 0.000821414)
(0.0814426 0.00046467 0.000735993)
(0.0797366 0.000731997 0.00118776)
(0.0713185 0.000428491 0.000742793)
(0.0801423 0.000408273 0.000647181)
(0.0782809 0.000689153 0.00110096)
(0.069838 0.000412403 0.000663372)
(0.0789488 0.000373344 0.00056588)
(0.0769273 0.000667788 0.00101366)
(0.06845 0.000406475 0.000584806)
(0.0778412 0.000355384 0.000493646)
(0.0756539 0.000660479 0.000926679)
(0.0671363 0.000409858 0.000497104)
(0.0768095 0.000351375 0.000425486)
(0.0744425 0.000664042 0.000837875)
(0.0658831 0.000424373 0.000376144)
(0.0758454 0.000363749 0.000343267)
(0.0732766 0.000681894 0.00073778)
(0.0646922 0.000455829 0.000205622)
(0.0749434 0.000398702 0.000223484)
(0.0721414 0.000718711 0.000609208)
(0.0635606 0.000497746 -4.95386e-05)
(0.074102 0.000463262 5.57037e-05)
(0.0710185 0.000784065 0.000436835)
(0.0625177 0.000516687 -0.000525713)
(0.0733148 0.000537204 -0.000222701)
(0.0698727 0.000872114 0.000162196)
(0.0617333 0.000232014 -0.00185275)
(0.0725811 0.000521491 -0.000800324)
(0.0687082 0.00096606 -0.000359762)
(0.0718062 -4.27993e-05 -0.00235756)
(0.067385 0.0012939 -0.00144039)
(0.10008 0.00135182 0.00135173)
(0.100186 0.000798785 0.000804932)
(0.100186 0.000804973 0.000798744)
(0.100264 0.00221744 0.00221717)
(0.10019 0.00231195 0.0020714)
(0.10019 0.00207157 0.00231178)
(0.0993828 0.00243603 0.00243551)
(0.100306 0.00263389 0.00245289)
(0.100306 0.00245332 0.00263357)
(0.0979838 0.00231071 0.00230986)
(0.099805 0.00256075 0.00245564)
(0.0998048 0.00245637 0.00256016)
(0.0964946 0.00200695 0.00200551)
(0.0988627 0.00236501 0.00228046)
(0.0988623 0.00228158 0.00236406)
(0.0950721 0.00159823 0.00159582)
(0.0978408 0.00205007 0.00196731)
(0.09784 0.00196905 0.00204839)
(0.0937744 0.00122839 0.00122438)
(0.0968612 0.00169291 0.00160342)
(0.09686 0.00160619 0.00169018)
(0.0926163 0.00096566 0.000958814)
(0.0959593 0.00140733 0.00131945)
(0.0959571 0.0013242 0.00140285)
(0.0915916 0.000784001 0.000772203)
(0.0951477 0.00119626 0.00111518)
(0.0951439 0.0011233 0.0011885)
(0.0906845 0.000656381 0.000635466)
(0.0944255 0.00103969 0.000966083)
(0.0944189 0.000979914 0.00102632)
(0.0898743 0.000565298 0.000529755)
(0.0937879 0.000921932 0.000853855)
(0.0937765 0.000878126 0.000899033)
(0.0891409 0.000502243 0.00044628)
(0.093221 0.000833004 0.000767704)
(0.0932019 0.000807801 0.000795414)
(0.0884737 0.000461841 0.00037678)
(0.0927135 0.000766833 0.00069928)
(0.0926826 0.000762581 0.000707199)
(0.0878719 0.000439364 0.000305537)
(0.0922647 0.000717538 0.000638001)
(0.092216 0.000736722 0.000623287)
(0.087336 0.000434772 0.000212695)
(0.0918756 0.000681293 0.000569822)
(0.091799 0.000729976 0.000529525)
(0.0868654 0.00044946 7.78013e-05)
(0.0915462 0.000655147 0.000477466)
(0.0914265 0.000746552 0.000410145)
(0.0864673 0.00047353 -0.000138841)
(0.0912764 0.000633221 0.000337996)
(0.0910933 0.00079004 0.000246298)
(0.0860922 0.000441874 -0.000537656)
(0.0910552 0.000598463 0.000105662)
(0.090785 0.000857802 3.58644e-06)
(0.085532 0.000117876 -0.00129065)
(0.0907976 0.000493635 -0.000299918)
(0.0904363 0.000899087 -0.000366973)
(0.0907296 0.000135933 -0.000956174)
(0.0903622 0.000728797 -0.000855692)
(0.100171 0.00136875 0.00141635)
(0.100118 0.000577436 0.000811287)
(0.100102 0.0006998 0.00070066)
(0.100759 0.00219505 0.00214888)
(0.100478 0.00158294 0.00185869)
(0.100477 0.00182266 0.00186455)
(0.100996 0.00247723 0.00238759)
(0.101004 0.00205892 0.00224233)
(0.101024 0.00234703 0.00238272)
(0.100838 0.00247674 0.00238855)
(0.101292 0.00220376 0.00235168)
(0.101338 0.0025064 0.00254334)
(0.100458 0.00231241 0.00222397)
(0.101309 0.00216781 0.00232139)
(0.101409 0.00245125 0.00247173)
(0.0999678 0.00205794 0.00196693)
(0.101157 0.00201153 0.0021777)
(0.101301 0.00226571 0.00226959)
(0.0994438 0.00179253 0.00169783)
(0.100927 0.00179476 0.00196686)
(0.101098 0.00201079 0.00199727)
(0.0989345 0.00156635 0.00148005)
(0.100666 0.00158498 0.00176318)
(0.100854 0.00177274 0.00175553)
(0.0984665 0.00138293 0.00131564)
(0.10041 0.00139758 0.00158638)
(0.100606 0.00157309 0.00156021)
(0.0980513 0.00123288 0.00119145)
(0.100176 0.00123256 0.00143928)
(0.100379 0.00140866 0.00140392)
(0.0976898 0.00111032 0.00109833)
(0.0999728 0.00109359 0.00132975)
(0.100183 0.00127408 0.00127916)
(0.09738 0.00101057 0.0010266)
(0.0998019 0.000977611 0.00124941)
(0.100023 0.00116537 0.001179)
(0.0971207 0.000928656 0.000965906)
(0.0996631 0.000879171 0.00118762)
(0.0998985 0.00107861 0.00109495)
(0.0969121 0.000859358 0.000907797)
(0.0995566 0.00079154 0.00113609)
(0.0998113 0.00100985 0.00101832)
(0.0967564 0.000795643 0.000841514)
(0.0994851 0.000706544 0.00108801)
(0.0997623 0.000955275 0.000941147)
(0.0966544 0.000726965 0.000747514)
(0.099451 0.000616131 0.00103245)
(0.0997522 0.000909866 0.000851361)
(0.096605 0.000639556 0.000597492)
(0.0994533 0.000508098 0.00095231)
(0.0997796 0.000866953 0.000732004)
(0.0965784 0.000506154 0.000365031)
(0.0994853 0.000367213 0.000827777)
(0.0998375 0.000817023 0.000563212)
(0.0964923 0.000256693 5.42618e-05)
(0.0995106 0.000164626 0.000651053)
(0.0998939 0.000732113 0.000337319)
(0.0996609 -0.000151958 0.000467394)
(0.100105 0.000552523 0.000125726)
(0.100242 0.000820205 0.0012561)
(0.10009 0.000294331 0.000735342)
(0.100071 0.000415696 0.000602751)
(0.100828 0.00139064 0.00193924)
(0.100491 0.000791978 0.00168398)
(0.100493 0.00112448 0.00158691)
(0.101393 0.00166358 0.00218197)
(0.101086 0.00107771 0.0020833)
(0.101129 0.00154096 0.00209392)
(0.101816 0.00176126 0.00226055)
(0.101664 0.00120429 0.00217873)
(0.101768 0.00173289 0.0022938)
(0.102081 0.00175551 0.00226101)
(0.102121 0.0012396 0.00222137)
(0.102291 0.00179017 0.00236647)
(0.102216 0.00166833 0.00217524)
(0.102452 0.00120166 0.00220913)
(0.102712 0.00174426 0.00232071)
(0.102267 0.00153378 0.00203932)
(0.102681 0.00111794 0.00212485)
(0.103037 0.00162677 0.00220021)
(0.102279 0.00138202 0.00188212)
(0.102843 0.00101654 0.00200323)
(0.103288 0.00148028 0.00204667)
(0.102278 0.00122957 0.00172569)
(0.102969 0.000915152 0.00186685)
(0.103494 0.00132882 0.00188594)
(0.102277 0.0010901 0.00159552)
(0.103074 0.000818981 0.00173892)
(0.103673 0.00118643 0.00173919)
(0.102281 0.000969426 0.0015008)
(0.10317 0.000730586 0.0016351)
(0.103837 0.00106229 0.00162183)
(0.102295 0.000863516 0.00143214)
(0.103268 0.000648681 0.00155311)
(0.103996 0.000955384 0.00152932)
(0.102321 0.000765658 0.0013812)
(0.103368 0.000571388 0.00149537)
(0.104157 0.000861418 0.00145573)
(0.102362 0.000667376 0.00134163)
(0.103469 0.000493353 0.00145972)
(0.104323 0.000774857 0.00139586)
(0.102422 0.000560358 0.0013068)
(0.103573 0.000405755 0.00143814)
(0.104498 0.00068932 0.00134415)
(0.102501 0.000435072 0.00126875)
(0.103684 0.000302 0.001424)
(0.104688 0.000599945 0.00129413)
(0.102597 0.000278336 0.00121985)
(0.103797 0.000171319 0.00141483)
(0.10489 0.000498275 0.00123949)
(0.102699 7.61933e-05 0.00116046)
(0.103911 2.43339e-06 0.00140889)
(0.105104 0.000374533 0.0011763)
(0.102789 -0.000173661 0.00112633)
(0.104018 -0.000215572 0.00141052)
(0.105326 0.000216879 0.00111088)
(0.104221 -0.000471222 0.00145821)
(0.105639 2.78259e-05 0.00109683)
(0.100243 0.000267383 0.00116239)
(0.100087 -3.64432e-08 0.000707016)
(0.100064 0.000135802 0.000537319)
(0.100782 0.000465686 0.0018262)
(0.100477 -1.05081e-07 0.00161778)
(0.100463 0.000370869 0.0014241)
(0.101401 0.000575423 0.0020761)
(0.101066 -1.80821e-07 0.00203463)
(0.101089 0.000525138 0.00193352)
(0.101988 0.000622689 0.00213378)
(0.101694 -3.31585e-07 0.00211761)
(0.101797 0.000605817 0.00212848)
(0.102507 0.000630684 0.00216475)
(0.102269 -6.15076e-07 0.00215017)
(0.102489 0.000639157 0.00221075)
(0.102935 0.000609554 0.00215662)
(0.102742 -1.07594e-06 0.00217983)
(0.10312 0.000633871 0.00224122)
(0.103279 0.000569965 0.00208882)
(0.103124 -1.77532e-06 0.00213425)
(0.103687 0.000600388 0.00219628)
(0.103557 0.000523069 0.00198937)
(0.103428 -2.91187e-06 0.00204471)
(0.104186 0.000553933 0.00210533)
(0.103791 0.000476397 0.00188216)
(0.10368 -4.89877e-06 0.00193605)
(0.104623 0.000505116 0.00199233)