/*--------------------------------*- C++ -*----------------------------------*\
| =========                 |                                                 |
| \\      /  F ield         | OpenFOAM: The Open Source CFD Toolbox           |
|  \\    /   O peration     | Version:  2212                                  |
|   \\  /    A nd           | Website:  www.openfoam.com                      |
|    \\/     M anipulation  |                                                 |
\*---------------------------------------------------------------------------*/
FoamFile
{
    version     2.0;
    format      ascii;
    arch        "LSB;label=32;scalar=64";
    class       volScalarField;
    location    "0.4";
    object      k;
}
// * * * * * * * * * * * * * * * * * * * * * * * * * * * * * * * * * * * * * //

dimensions      [0 2 -2 0 0 0 0];

internalField   nonuniform List<scalar> 
689
(
0.00347989
0.00344245
0.00342358
0.00341088
0.00340209
0.00339606
0.00339213
0.00338972
0.00355019
0.00350611
0.0034797
0.00346257
0.00345104
0.00344303
0.00343762
0.00343419
0.00392234
0.00382003
0.0037523
0.00370646
0.00367479
0.00365239
0.0036367
0.00362568
0.00361814
0.00484497
0.00454069
0.00432427
0.00416768
0.00405366
0.00397075
0.00391069
0.00386738
0.00383626
0.00381401
0.00379816
0.00378699
0.00484063
0.00462489
0.00444655
0.00430308
0.00419053
0.00410382
0.00403801
0.00398872
0.00395227
0.00392562
0.00390636
0.00389248
0.00491713
0.00468385
0.0044981
0.00435242
0.00423878
0.0041507
0.00408323
0.00403222
0.00399416
0.00396612
0.00394567
0.00393082
0.00505864
0.00471849
0.00448277
0.00431514
0.00419368
0.0041047
0.00403926
0.00399118
0.00395595
0.00393026
0.00391164
0.00389805
0.00494256
0.00450376
0.00427246
0.00412378
0.00402097
0.00394772
0.00389561
0.00385814
0.00383119
0.00381163
0.0037975
0.00378683
0.00431568
0.00410977
0.00393957
0.00382828
0.00375693
0.00371121
0.00367984
0.00365737
0.00364101
0.00362914
0.00362055
0.00403265
0.00370445
0.00355958
0.00348846
0.00345856
0.00344606
0.00343871
0.00343258
0.00342766
0.00342361
0.00342045
0.00473303
0.00414525
0.00373506
0.00355761
0.00347923
0.00344204
0.00342355
0.00341101
0.0034024
0.00339638
0.00339235
0.00345932
0.00344622
0.00343841
0.00343211
0.00342719
0.0034232
0.00342044
0.00341785
0.004873
0.00487505
0.00486941
0.00485894
0.00485179
0.00484311
0.00483625
0.00483063
0.00595283
0.00586673
0.00580294
0.00575441
0.00571664
0.00568795
0.00566594
0.00564887
0.00563637
0.00788731
0.00742871
0.00709166
0.00683831
0.00665005
0.00651055
0.00640726
0.00633087
0.00627439
0.00623244
0.00620134
0.00617819
0.00867826
0.00814684
0.0077398
0.00742256
0.00717749
0.00698968
0.00684687
0.00673917
0.00665865
0.00659897
0.00655495
0.00652198
0.00888355
0.00839769
0.00799764
0.00767295
0.00741406
0.0072105
0.00705239
0.00693106
0.00683909
0.00677022
0.00671906
0.00668079
0.00876419
0.00829059
0.00790076
0.00758526
0.00733409
0.00713697
0.0069842
0.00686729
0.00677883
0.00671265
0.00666333
0.00662643
0.00822513
0.00779
0.00742107
0.00713275
0.00691288
0.0067469
0.00662207
0.00652868
0.00645887
0.00640683
0.00636789
0.0063384
0.00728501
0.00678522
0.00646843
0.00626212
0.0061246
0.00602847
0.00595741
0.00590326
0.00586277
0.00583203
0.005809
0.0048878
0.00484106
0.00483434
0.00485606
0.00487176
0.00487533
0.00487048
0.00486023
0.00485286
0.00484423
0.00483673
0.00451522
0.00403741
0.00374797
0.00362522
0.00354952
0.0035059
0.00347997
0.00346289
0.00345149
0.00344343
0.00343785
0.00382761
0.00375606
0.00371028
0.00367894
0.00365653
0.00364028
0.00362858
0.00362019
0.00361416
0.00626047
0.0061225
0.00602625
0.00595525
0.00590128
0.00586109
0.0058307
0.00580817
0.00579128
0.00779238
0.00759319
0.0074426
0.00732852
0.00724017
0.00717309
0.00712232
0.00708392
0.00705501
0.0102496
0.00970748
0.00926774
0.00891694
0.00864033
0.00842432
0.00825723
0.00812852
0.0080302
0.00795573
0.00789914
0.0078566
0.0112486
0.0105959
0.0100711
0.00965036
0.009315
0.00904968
0.00884158
0.00867979
0.00855522
0.0084604
0.00838887
0.00833517
0.0115876
0.0109225
0.0103777
0.00993543
0.00957948
0.00929566
0.00907144
0.00889604
0.00876025
0.00865629
0.00857764
0.00851884
0.0113124
0.0106864
0.0101663
0.00974202
0.00940059
0.00912892
0.00891497
0.00874809
0.00861926
0.00852089
0.00844652
0.00839052
0.010553
0.00991747
0.00942627
0.00904457
0.00874815
0.00851866
0.00834187
0.00820591
0.00810207
0.008023
0.00796296
0.00791789
0.00883509
0.0083996
0.00805575
0.00779286
0.00759411
0.00744392
0.00733002
0.00724172
0.0071745
0.00712343
0.00708458
0.00654289
0.00625807
0.00607548
0.00595291
0.00586743
0.00580424
0.0057558
0.00571798
0.00568911
0.0056668
0.00564911
0.00476683
0.00432813
0.00408357
0.00392225
0.00382026
0.00375272
0.00370691
0.00367527
0.00365283
0.00363704
0.00362584
0.00412312
0.00401997
0.0039466
0.00389451
0.00385715
0.00383038
0.00381103
0.00379715
0.00378718
0.00713143
0.00691083
0.00674453
0.0066197
0.00652647
0.00645696
0.00640529
0.00636684
0.00633834
0.0090445
0.00874725
0.00851729
0.00834028
0.00820425
0.00810046
0.00802157
0.00796179
0.00791702
0.0119929
0.0113404
0.0107984
0.0103557
0.00999856
0.00971363
0.00948853
0.00931221
0.00917539
0.0090705
0.00899079
0.0089314
0.0130501
0.0123044
0.0116883
0.0111845
0.0107762
0.0104479
0.0101863
0.00997952
0.00981771
0.00969251
0.00959703
0.00952618
0.0135257
0.0126962
0.0120291
0.0114915
0.0110588
0.0107118
0.0104351
0.0102162
0.0100445
0.00991128
0.00980952
0.00973409
0.0131479
0.0123655
0.0117317
0.0112187
0.0108052
0.0104737
0.0102098
0.0100014
0.00983836
0.00971215
0.00961585
0.00954411
0.0119925
0.0113401
0.0107981
0.0103556
0.00999871
0.00971402
0.0094891
0.00931289
0.00917615
0.00907128
0.00899157
0.00893212
0.0102496
0.00970753
0.0092679
0.00891726
0.00864082
0.00842496
0.00825797
0.0081293
0.00803097
0.0079563
0.00789947
0.00788747
0.00742951
0.00709296
0.00683957
0.00665117
0.00651161
0.00640825
0.00633178
0.0062751
0.00623292
0.00620102
0.00484517
0.00454119
0.00432498
0.00416836
0.00405428
0.00397131
0.00391121
0.00386784
0.00383669
0.00381431
0.00379821
0.0043136
0.00419217
0.00410336
0.00403816
0.00399035
0.00395539
0.00392996
0.00391157
0.00389827
0.00758289
0.00733138
0.0071343
0.00698178
0.00686519
0.00677706
0.00671124
0.00666235
0.00662585
0.00974263
0.00940006
0.00912779
0.00891356
0.00874657
0.00861776
0.00851951
0.0084454
0.00838992
0.0131486
0.0123663
0.0117324
0.0112192
0.0108054
0.0104736
0.0102095
0.0100009
0.00983778
0.00971155
0.00961529
0.00954371
0.0142202
0.0133747
0.0126811
0.0121149
0.011655
0.0112837
0.0109857
0.0107486
0.0105616
0.0104157
0.0103039
0.0102206
0.0146169
0.0137343
0.0130128
0.0124245
0.0119466
0.0115603
0.0112499
0.0110023
0.0108065
0.0106535
0.010536
0.0104489
0.0142198
0.0133743
0.0126808
0.0121146
0.0116548
0.0112835
0.0109857
0.0107487
0.0105617
0.010416
0.0103043
0.0102212
0.01305
0.0123043
0.0116882
0.0111844
0.0107761
0.0104479
0.0101864
0.00997967
0.00981795
0.00969287
0.0095976
0.00952674
0.0112487
0.0105959
0.0100711
0.00965038
0.00931505
0.00904978
0.00884172
0.00867996
0.00855542
0.00846062
0.00838929
0.00867836
0.00814696
0.00774004
0.0074229
0.00717789
0.00699012
0.00684732
0.00673962
0.00665901
0.00659913
0.0065543
0.00484071
0.00462501
0.00444674
0.00430334
0.00419085
0.00410417
0.00403839
0.00398911
0.00395262
0.00392586
0.0039063
0.0135268
0.0126972
0.0120301
0.0114923
0.0110594
0.0107121
0.0104353
0.0102163
0.0100445
0.00991134
0.00980975
0.00973448
0.0146176
0.013735
0.0130135
0.0124252
0.0119472
0.0115608
0.0112503
0.0110027
0.0108069
0.0106539
0.0105365
0.0104492
0.0149558
0.0140727
0.0133402
0.0127377
0.0122455
0.011846
0.0115239
0.0112663
0.0110621
0.0109021
0.0107793
0.0106882
0.0146173
0.0137346
0.0130131
0.0124248
0.0119468
0.0115605
0.0112501
0.0110025
0.0108069
0.0106541
0.0105369
0.01045
0.0135262
0.0126965
0.0120293
0.0114916
0.0110588
0.0107118
0.0104352
0.0102163
0.0100447
0.00991169
0.00981032
0.00973507
0.0115878
0.0109226
0.0103777
0.00993533
0.00957935
0.00929552
0.00907132
0.00889594
0.00876019
0.00865634
0.00857817
0.00888363
0.00839772
0.00799771
0.00767306
0.00741423
0.00721074
0.00705268
0.00693137
0.00683937
0.00677027
0.00671834
0.00491718
0.00468395
0.00449826
0.00435266
0.00423913
0.00415115
0.00408375
0.00403279
0.00399472
0.00396656
0.00394578
)
;

boundaryField
{
    inlet
    {
        type            fixedValue;
        value           nonuniform List<scalar> 0();
    }
    ami1
    {
        type            cyclicAMI;
        value           nonuniform List<scalar> 0();
    }
    walls
    {
        type            kqRWallFunction;
        value           nonuniform List<scalar> 
227
(
0.00484497
0.00484063
0.00491713
0.00505864
0.00494256
0.00431568
0.00403265
0.00473303
0.00454069
0.00462489
0.00468385
0.00471849
0.00450376
0.00410977
0.00370445
0.00414525
0.00432427
0.00444655
0.0044981
0.00448277
0.00427246
0.00393957
0.00355958
0.00373506
0.00392234
0.00416768
0.00430308
0.00435242
0.00431514
0.00412378
0.00382828
0.00348846
0.00355761
0.00347989
0.00355019
0.00382003
0.00405366
0.00419053
0.00423878
0.00419368
0.00402097
0.00375693
0.00345856
0.00347923
0.00344245
0.00350611
0.0037523
0.00397075
0.00410382
0.0041507
0.0041047
0.00394772
0.00371121
0.00344606
0.00344204
0.00342358
0.0034797
0.00370646
0.00391069
0.00403801
0.00408323
0.00403926
0.00389561
0.00367984
0.00343871
0.00342355
0.00341088
0.00346257
0.00367479
0.00386738
0.00398872
0.00403222
0.00399118
0.00385814
0.00365737
0.00343258
0.00341101
0.00340209
0.00345104
0.00365239
0.00383626
0.00395227
0.00399416
0.00395595
0.00383119
0.00364101
0.00342766
0.0034024
0.00339606
0.00344303
0.0036367
0.00381401
0.00392562
0.00396612
0.00393026
0.00381163
0.00362914
0.00342361
0.00339638
0.00339213
0.00343762
0.00362568
0.00379816
0.00390636
0.00394567
0.00391164
0.0037975
0.00362055
0.00342045
0.00339235
0.00338972
0.00343419
0.00361814
0.00378699
0.00389248
0.00393082
0.00389805
0.00378683
0.00473303
0.00451522
0.00476683
0.00484517
0.00484071
0.00491718
0.00414525
0.00403741
0.00432813
0.00454119
0.00462501
0.00468395
0.00373506
0.00374797
0.00408357
0.00432498
0.00444674
0.00449826
0.00355761
0.00362522
0.00392225
0.00416836
0.00430334
0.00435266
0.00347923
0.00354952
0.00382026
0.00405428
0.00419085
0.00423913
0.00344204
0.0035059
0.00375272
0.00397131
0.00410417
0.00415115
0.00342355
0.00347997
0.00370691
0.00391121
0.00403839
0.00408375
0.00341101
0.00346289
0.00367527
0.00386784
0.00398911
0.00403279
0.0034024
0.00345149
0.00365283
0.00383669
0.00395262
0.00399472
0.00339638
0.00344343
0.00363704
0.00381431
0.00392586
0.00396656
0.00339235
0.00343785
0.00362584
0.00379821
0.0039063
0.00394578
0.00382761
0.00412312
0.0043136
0.00347989
0.00345932
0.00375606
0.00401997
0.00419217
0.00344245
0.00344622
0.00371028
0.0039466
0.00410336
0.00342358
0.00343841
0.00367894
0.00389451
0.00403816
0.00341088
0.00343211
0.00365653
0.00385715
0.00399035
0.00340209
0.00342719
0.00364028
0.00383038
0.00395539
0.00339606
0.0034232
0.00362858
0.00381103
0.00392996
0.00339213
0.00342044
0.00362019
0.00379715
0.00391157
0.00338972
0.00341785
0.00361416
0.00378718
0.00389827
)
;
    }
    ami2
    {
        type            cyclicAMI;
        value           nonuniform List<scalar> 
48
(
0.00505828
0.00496498
0.00505906
0.00530212
0.00523868
0.00444836
0.00419514
0.00469307
0.00816956
0.00900367
0.00917253
0.00904866
0.00845689
0.0076233
0.00494917
0.00476509
0.0105732
0.0116532
0.0119896
0.0116785
0.0109725
0.0090885
0.0067433
0.00501179
0.0123759
0.0134947
0.0140447
0.0136321
0.0123757
0.0105732
0.00816969
0.00505843
0.0136327
0.0147325
0.0151557
0.0147322
0.0134947
0.0116533
0.00900377
0.00496503
0.0140455
0.0151563
0.0154809
0.015156
0.014045
0.0119897
0.0091726
0.00505911
)
;
    }
    outlet
    {
        type            zeroGradient;
    }
    procBoundary0to1
    {
        type            processor;
        value           nonuniform List<scalar> 
138
(
0.00448153
0.00435148
0.00423764
0.00414951
0.00408208
0.00403118
0.00399325
0.00396536
0.00394505
0.00393037
0.00789896
0.00767146
0.0074121
0.00720825
0.00705004
0.00692875
0.00683689
0.00676819
0.00671726
0.00667934
0.011313
0.0106871
0.0101671
0.0101671
0.00993555
0.00957916
0.00929492
0.00907042
0.00889486
0.00875903
0.00865518
0.00857684
0.00851872
0.0115882
0.0109229
0.010378
0.00993555
0.00957916
0.00929492
0.00907042
0.00889486
0.00875903
0.00865518
0.00857684
0.00851872
0.0130506
0.0123049
0.0116887
0.0111848
0.0107763
0.010448
0.0101862
0.00997938
0.00981756
0.00969242
0.00959712
0.00952656
0.0142206
0.0133751
0.0126815
0.0121152
0.0116553
0.0112839
0.010986
0.0107489
0.010562
0.0104162
0.0103045
0.0102217
0.0146175
0.0137348
0.0130133
0.012425
0.011947
0.0115606
0.0112502
0.0110026
0.0108069
0.010654
0.0105368
0.01045
0.0142203
0.0133748
0.0126812
0.012115
0.0116551
0.0112838
0.0109859
0.0107489
0.010562
0.0104164
0.0103049
0.0102225
0.0131483
0.0123659
0.0117319
0.0112188
0.0108052
0.0104736
0.0102098
0.0100014
0.00983838
0.00971233
0.00961643
0.00954522
0.0113126
0.0106865
0.0101662
0.00974186
0.00940038
0.00912869
0.00891474
0.00874787
0.00861907
0.00852075
0.00844657
0.00876435
0.0082909
0.00790117
0.00758574
0.00733466
0.00713763
0.00698495
0.0068681
0.00677961
0.00671324
0.00666308
0.00505882
0.00471884
0.00448327
0.00431579
0.00419441
0.00410552
0.00404016
0.00399214
0.00395692
0.00393113
0.0039122
)
;
    }
    procBoundary0to2
    {
        type            processor;
        value           nonuniform List<scalar> 
28
(
0.00355832
0.00362639
0.00362639
0.00476679
0.00432854
0.00408392
0.00408392
0.00348973
0.00348973
0.00485921
0.00485921
0.00485921
0.00654345
0.00625867
0.00607643
0.00607643
0.00393936
0.00646802
0.00883495
0.00839935
0.00805542
0.00805542
0.00427233
0.00742066
0.0105533
0.00991763
0.00942649
0.00942649
)
;
    }
    procBoundary0to8
    {
        type            processor;
        value           nonuniform List<scalar> 
29
(
0.00338849
0.00343164
0.00361315
0.0037792
0.00388282
0.00341673
0.00482747
0.00562712
0.00616128
0.0064981
0.00361017
0.00577894
0.00703377
0.00782514
0.00829527
0.00378008
0.00631776
0.00788403
0.008887
0.00947333
0.00388876
0.00659916
0.00834849
0.00948983
0.0101574
0.0103833
0.00967719
0.0103823
0.0106186
)
;
    }
    procBoundary0to9
    {
        type            processor;
        value           nonuniform List<scalar> 
40
(
0.00392031
0.00388842
0.00377946
0.00361461
0.00361461
0.0034183
0.00338995
0.00665267
0.00659926
0.00631703
0.00579211
0.00579211
0.00483096
0.00343435
0.00847483
0.0083487
0.00788442
0.00705526
0.00705526
0.00563605
0.0036181
0.009678
0.00949008
0.00888738
0.00785686
0.00785686
0.00617746
0.00378682
0.0101586
0.00947301
0.00833562
0.00833562
0.00652106
0.00389216
0.0103839
0.00967751
0.00851942
0.00851942
0.00667979
0.0039307
)
;
    }
}


// ************************************************************************* //
