/*--------------------------------*- C++ -*----------------------------------*\
| =========                 |                                                 |
| \\      /  F ield         | OpenFOAM: The Open Source CFD Toolbox           |
|  \\    /   O peration     | Version:  2212                                  |
|   \\  /    A nd           | Website:  www.openfoam.com                      |
|    \\/     M anipulation  |                                                 |
\*---------------------------------------------------------------------------*/
FoamFile
{
    version     2.0;
    format      ascii;
    arch        "LSB;label=32;scalar=64";
    class       surfaceScalarField;
    location    "2.05";
    object      phi;
}
// * * * * * * * * * * * * * * * * * * * * * * * * * * * * * * * * * * * * * //

dimensions      [0 3 -1 0 0 0 0];

oriented        oriented;

internalField   nonuniform List<scalar> 
1786
(
7.75245e-07
-1.17987e-07
7.88983e-09
7.68532e-07
-1.18084e-07
8.08825e-09
7.6161e-07
-1.18142e-07
8.23995e-09
7.54534e-07
-1.18168e-07
8.34637e-09
7.47353e-07
-1.18171e-07
8.41065e-09
7.40117e-07
-1.18162e-07
8.43508e-09
7.32864e-07
-1.18147e-07
8.42579e-09
7.25624e-07
-1.1813e-07
8.39092e-09
7.18426e-07
-1.18113e-07
8.33566e-09
7.11277e-07
-1.18096e-07
8.26343e-09
-1.18087e-07
8.15741e-09
7.10158e-07
-1.09794e-07
-2.09549e-09
7.03841e-07
-1.09855e-07
-1.91204e-09
6.97366e-07
-1.09867e-07
-1.80012e-09
6.90799e-07
-1.09851e-07
-1.74871e-09
6.84206e-07
-1.09833e-07
-1.74546e-09
6.77638e-07
-1.09814e-07
-1.77929e-09
6.71128e-07
-1.09798e-07
-1.83981e-09
6.64701e-07
-1.09783e-07
-1.92049e-09
6.58372e-07
-1.09769e-07
-2.01551e-09
6.52141e-07
-1.09745e-07
-2.12016e-09
-1.09726e-07
-2.24439e-09
5.72635e-07
-9.21855e-08
-1.19317e-08
5.66962e-07
-9.22931e-08
-1.18883e-08
5.61325e-07
-9.23068e-08
-1.19232e-08
5.55777e-07
-9.22767e-08
-1.20273e-08
5.50361e-07
-9.22478e-08
-1.21687e-08
5.45092e-07
-9.22258e-08
-1.23195e-08
5.39969e-07
-9.22077e-08
-1.24663e-08
5.34978e-07
-9.21866e-08
-1.26054e-08
5.30108e-07
-9.21622e-08
-1.27372e-08
5.25349e-07
-9.21294e-08
-1.2856e-08
-9.20778e-08
-1.29998e-08
3.99669e-07
-6.65902e-08
-2.11609e-08
3.95368e-07
-6.66711e-08
-2.12133e-08
3.91094e-07
-6.67544e-08
-2.1265e-08
3.86955e-07
-6.67506e-08
-2.14173e-08
3.83e-07
-6.66773e-08
-2.16445e-08
3.79171e-07
-6.66369e-08
-2.17813e-08
3.75445e-07
-6.6612e-08
-2.1888e-08
3.71822e-07
-6.65816e-08
-2.20035e-08
3.68294e-07
-6.65675e-08
-2.20909e-08
3.64866e-07
-6.65592e-08
-2.21757e-08
3.61531e-07
-6.65529e-08
-2.22413e-08
-6.65086e-08
-2.2347e-08
2.15367e-07
-3.45087e-08
-2.94484e-08
2.12805e-07
-3.45195e-08
-2.95896e-08
2.10259e-07
-3.4527e-08
-2.96816e-08
2.07707e-07
-3.45275e-08
-2.96714e-08
2.05189e-07
-3.45135e-08
-2.96455e-08
2.027e-07
-3.45151e-08
-2.96326e-08
2.00271e-07
-3.45247e-08
-2.9659e-08
1.97936e-07
-3.45316e-08
-2.97142e-08
1.95681e-07
-3.454e-08
-2.97726e-08
1.93502e-07
-3.45498e-08
-2.98311e-08
1.91399e-07
-3.45703e-08
-2.98793e-08
-3.46049e-08
-2.98992e-08
7.2494e-08
-3.3395e-08
7.144e-08
-3.34657e-08
7.04211e-08
-3.35082e-08
6.94303e-08
-3.35367e-08
6.84761e-08
-3.35594e-08
6.75478e-08
-3.35869e-08
6.66494e-08
-3.36264e-08
6.57889e-08
-3.36711e-08
6.49596e-08
-3.37106e-08
6.4152e-08
-3.37423e-08
6.33625e-08
-3.37808e-08
-3.38444e-08
1.20564e-06
-1.03057e-07
9.37485e-09
1.20592e-06
-1.03097e-07
9.54614e-09
1.206e-06
-1.03111e-07
9.68586e-09
1.20591e-06
-1.03098e-07
9.79698e-09
1.20568e-06
-1.0307e-07
9.87837e-09
1.20532e-06
-1.03038e-07
9.92692e-09
1.20487e-06
-1.03006e-07
9.94711e-09
1.20435e-06
-1.02977e-07
9.94407e-09
1.20376e-06
-1.02953e-07
9.91697e-09
1.20314e-06
-1.02937e-07
9.86938e-09
-1.02918e-07
9.76959e-09
1.14381e-06
-9.68149e-08
-8.69816e-09
1.14399e-06
-9.66531e-08
-8.54176e-09
1.14404e-06
-9.65168e-08
-8.44161e-09
1.14397e-06
-9.63869e-08
-8.39154e-09
1.14382e-06
-9.62861e-08
-8.37852e-09
1.14361e-06
-9.62149e-08
-8.39223e-09
1.14336e-06
-9.61676e-08
-8.42695e-09
1.14308e-06
-9.61415e-08
-8.47839e-09
1.14279e-06
-9.61294e-08
-8.54549e-09
1.14249e-06
-9.61411e-08
-8.61684e-09
-9.61401e-08
-8.72714e-09
1.00496e-06
-8.24321e-08
-2.60268e-08
1.00469e-06
-8.22122e-08
-2.60522e-08
1.00442e-06
-8.20717e-08
-2.61043e-08
1.00415e-06
-8.19425e-08
-2.61961e-08
1.00388e-06
-8.18977e-08
-2.62893e-08
1.00361e-06
-8.18911e-08
-2.63764e-08
1.00334e-06
-8.18938e-08
-2.64647e-08
1.00305e-06
-8.19039e-08
-2.65554e-08
1.00274e-06
-8.19107e-08
-2.66519e-08
1.00242e-06
-8.19505e-08
-2.6718e-08
-8.19888e-08
-2.68142e-08
8.02262e-07
-6.09548e-08
-4.12774e-08
8.00775e-07
-6.06751e-08
-4.14834e-08
7.99457e-07
-6.05001e-08
-4.16587e-08
7.98226e-07
-6.04715e-08
-4.17867e-08
7.97046e-07
-6.04832e-08
-4.19239e-08
7.95869e-07
-6.05278e-08
-4.19748e-08
7.94656e-07
-6.0542e-08
-4.2024e-08
7.93397e-07
-6.05264e-08
-4.21121e-08
7.92088e-07
-6.05144e-08
-4.21715e-08
7.90736e-07
-6.04998e-08
-4.22338e-08
7.89306e-07
-6.05133e-08
-4.2249e-08
-6.05538e-08
-4.22662e-08
5.37714e-07
-3.25455e-08
-5.43179e-08
5.34412e-07
-3.23902e-08
-5.4573e-08
5.31267e-07
-3.22745e-08
-5.47624e-08
5.28197e-07
-3.22088e-08
-5.48646e-08
5.25164e-07
-3.21654e-08
-5.49304e-08
5.22139e-07
-3.21517e-08
-5.49832e-08
5.19122e-07
-3.2129e-08
-5.50553e-08
5.16116e-07
-3.20931e-08
-5.5142e-08
5.13112e-07
-3.2062e-08
-5.52208e-08
5.10109e-07
-3.20417e-08
-5.52862e-08
5.07083e-07
-3.20381e-08
-5.53284e-08
-3.20555e-08
-5.53132e-08
2.29729e-07
-6.27859e-08
2.26731e-07
-6.28575e-08
2.23854e-07
-6.29058e-08
2.21093e-07
-6.29846e-08
2.18452e-07
-6.30837e-08
2.15903e-07
-6.31902e-08
2.13448e-07
-6.32998e-08
2.11086e-07
-6.34022e-08
2.08783e-07
-6.34704e-08
2.06501e-07
-6.35013e-08
2.04231e-07
-6.35488e-08
-6.36968e-08
1.49552e-06
-8.38381e-08
8.18353e-09
1.49953e-06
-8.37886e-08
8.22606e-09
1.50344e-06
-8.37388e-08
8.25831e-09
1.50726e-06
-8.36924e-08
8.2789e-09
1.51102e-06
-8.36523e-08
8.28769e-09
1.51473e-06
-8.36171e-08
8.28638e-09
1.51839e-06
-8.35838e-08
8.27618e-09
1.522e-06
-8.35556e-08
8.25753e-09
1.52557e-06
-8.35362e-08
8.22877e-09
1.52911e-06
-8.35302e-08
8.19806e-09
-8.35305e-08
8.14315e-09
1.4424e-06
-8.04219e-08
-1.59677e-08
1.44618e-06
-8.01641e-08
-1.59447e-08
1.4499e-06
-7.99572e-08
-1.5944e-08
1.45357e-06
-7.97954e-08
-1.59629e-08
1.45722e-06
-7.96789e-08
-1.59959e-08
1.46084e-06
-7.95927e-08
-1.60385e-08
1.46444e-06
-7.95223e-08
-1.60894e-08
1.46803e-06
-7.94784e-08
-1.61442e-08
1.47161e-06
-7.94598e-08
-1.62022e-08
1.47519e-06
-7.94741e-08
-1.62503e-08
-7.95104e-08
-1.63103e-08
1.31095e-06
-7.0424e-08
-3.8842e-08
1.31383e-06
-7.01146e-08
-3.89804e-08
1.31677e-06
-6.98853e-08
-3.91176e-08
1.31976e-06
-6.97266e-08
-3.92486e-08
1.3228e-06
-6.96465e-08
-3.93617e-08
1.32588e-06
-6.95866e-08
-3.94659e-08
1.32898e-06
-6.95179e-08
-3.95721e-08
1.33211e-06
-6.94994e-08
-3.96639e-08
1.33525e-06
-6.95057e-08
-3.97426e-08
1.33839e-06
-6.95471e-08
-3.97908e-08
-6.96092e-08
-3.98177e-08
1.10795e-06
-5.42206e-08
-5.86219e-08
1.10891e-06
-5.38875e-08
-5.8981e-08
1.11006e-06
-5.36456e-08
-5.92731e-08
1.11137e-06
-5.34785e-08
-5.95058e-08
1.11277e-06
-5.33606e-08
-5.96926e-08
1.11426e-06
-5.32899e-08
-5.98204e-08
1.11582e-06
-5.32261e-08
-5.99414e-08
1.11743e-06
-5.31642e-08
-6.00801e-08
1.11906e-06
-5.3132e-08
-6.01704e-08
1.12068e-06
-5.31201e-08
-6.02326e-08
1.12224e-06
-5.31198e-08
-6.02394e-08
-5.31125e-08
-6.02376e-08
8.32387e-07
-3.05957e-08
-7.55099e-08
8.30245e-07
-3.03893e-08
-7.59293e-08
8.28343e-07
-3.02406e-08
-7.6265e-08
8.26624e-07
-3.0109e-08
-7.65149e-08
8.25035e-07
-2.99841e-08
-7.67184e-08
8.2352e-07
-2.98797e-08
-7.68786e-08
8.22022e-07
-2.97782e-08
-7.70043e-08
8.20501e-07
-2.96792e-08
-7.71068e-08
8.18947e-07
-2.96149e-08
-7.71838e-08
8.17365e-07
-2.95827e-08
-7.7241e-08
8.15718e-07
-2.95152e-08
-7.72866e-08
-2.93182e-08
-7.73221e-08
4.4442e-07
-8.78386e-08
4.39236e-07
-8.80625e-08
4.34298e-07
-8.82084e-08
4.29533e-07
-8.83295e-08
4.24904e-07
-8.84388e-08
4.20374e-07
-8.85391e-08
4.15919e-07
-8.86234e-08
4.11531e-07
-8.86932e-08
4.07176e-07
-8.87308e-08
4.02834e-07
-8.87421e-08
3.9853e-07
-8.87598e-08
-8.88416e-08
1.70137e-06
-5.9904e-08
1.70748e-06
-5.98317e-08
1.7135e-06
-5.97693e-08
1.71946e-06
-5.97186e-08
1.72536e-06
-5.96786e-08
1.7312e-06
-5.9646e-08
1.737e-06
-5.96189e-08
1.74275e-06
-5.9598e-08
1.74847e-06
-5.95845e-08
1.75416e-06
-5.95807e-08
-5.95798e-08
1.65533e-06
-5.90524e-08
-2.26432e-08
1.66108e-06
-5.88298e-08
-2.27038e-08
1.66679e-06
-5.86509e-08
-2.27665e-08
1.67245e-06
-5.85104e-08
-2.28303e-08
1.67807e-06
-5.84034e-08
-2.28929e-08
1.68366e-06
-5.83219e-08
-2.29528e-08
1.68922e-06
-5.82576e-08
-2.30099e-08
1.69475e-06
-5.82133e-08
-2.30626e-08
1.70026e-06
-5.8189e-08
-2.31094e-08
1.70577e-06
-5.81911e-08
-2.31449e-08
-5.81981e-08
-2.31822e-08
1.52959e-06
-5.33346e-08
-4.91453e-08
1.53419e-06
-5.30879e-08
-4.93279e-08
1.53882e-06
-5.29067e-08
-4.94941e-08
1.54348e-06
-5.27704e-08
-4.9642e-08
1.54815e-06
-5.26721e-08
-4.97682e-08
1.55284e-06
-5.26018e-08
-4.98754e-08
1.55752e-06
-5.25435e-08
-4.99697e-08
1.56221e-06
-5.25147e-08
-5.00467e-08
1.56688e-06
-5.25019e-08
-5.0105e-08
1.57156e-06
-5.2526e-08
-5.0136e-08
-5.25271e-08
-5.01606e-08
1.3276e-06
-4.26415e-08
-7.19619e-08
1.33003e-06
-4.23724e-08
-7.23663e-08
1.33255e-06
-4.21856e-08
-7.26971e-08
1.33515e-06
-4.20523e-08
-7.29667e-08
1.33783e-06
-4.19506e-08
-7.31855e-08
1.34056e-06
-4.18671e-08
-7.33577e-08
1.34333e-06
-4.18253e-08
-7.34925e-08
1.3461e-06
-4.17821e-08
-7.36062e-08
1.34887e-06
-4.17763e-08
-7.36818e-08
1.35162e-06
-4.17582e-08
-7.37282e-08
1.35433e-06
-4.17394e-08
-7.37333e-08
-4.16717e-08
-7.3741e-08
1.05004e-06
-2.54741e-08
-9.11896e-08
1.04873e-06
-2.52794e-08
-9.17107e-08
1.04755e-06
-2.51434e-08
-9.21306e-08
1.04647e-06
-2.50346e-08
-9.24537e-08
1.04545e-06
-2.4948e-08
-9.26976e-08
1.04446e-06
-2.48709e-08
-9.28835e-08
1.04345e-06
-2.48078e-08
-9.30148e-08
1.04241e-06
-2.47344e-08
-9.31163e-08
1.0413e-06
-2.46863e-08
-9.31679e-08
1.04014e-06
-2.46316e-08
-9.32029e-08
1.0389e-06
-2.45557e-08
-9.3236e-08
-2.44162e-08
-9.32676e-08
6.37763e-07
-1.05846e-07
6.30558e-07
-1.06136e-07
6.23544e-07
-1.06338e-07
6.16663e-07
-1.06483e-07
6.09864e-07
-1.06589e-07
6.03118e-07
-1.06664e-07
5.96413e-07
-1.06726e-07
5.89755e-07
-1.06769e-07
5.83148e-07
-1.0681e-07
5.76622e-07
-1.06847e-07
5.70205e-07
-1.06899e-07
-1.06968e-07
1.78475e-06
-3.34955e-08
-2.81765e-08
1.79165e-06
-3.33766e-08
-2.82128e-08
1.79848e-06
-3.32788e-08
-2.82478e-08
1.80523e-06
-3.32003e-08
-2.82813e-08
1.81192e-06
-3.31378e-08
-2.83127e-08
1.81855e-06
-3.3088e-08
-2.83416e-08
1.82513e-06
-3.30481e-08
-2.83676e-08
1.83166e-06
-3.30169e-08
-2.83906e-08
1.83815e-06
-3.29926e-08
-2.84102e-08
1.84462e-06
-3.29777e-08
-2.84251e-08
-3.29604e-08
-2.84391e-08
1.66059e-06
-3.20174e-08
-5.6373e-08
1.66628e-06
-3.19266e-08
-5.64702e-08
1.67192e-06
-3.18641e-08
-5.65533e-08
1.67753e-06
-3.18213e-08
-5.66248e-08
1.6831e-06
-3.17894e-08
-5.66854e-08
1.68863e-06
-3.17644e-08
-5.67349e-08
1.69413e-06
-3.17431e-08
-5.67748e-08
1.6996e-06
-3.17261e-08
-5.68056e-08
1.70503e-06
-3.17045e-08
-5.68281e-08
1.71045e-06
-3.16862e-08
-5.68414e-08
-3.16562e-08
-5.68496e-08
1.45641e-06
-2.70816e-08
-8.06602e-08
1.45999e-06
-2.70636e-08
-8.08988e-08
1.46353e-06
-2.70699e-08
-8.10939e-08
1.46704e-06
-2.70914e-08
-8.12487e-08
1.47051e-06
-2.71139e-08
-8.13673e-08
1.47395e-06
-2.71285e-08
-8.14562e-08
1.47735e-06
-2.71378e-08
-8.15207e-08
1.48071e-06
-2.71388e-08
-8.15666e-08
1.48403e-06
-2.71367e-08
-8.15953e-08
1.48732e-06
-2.71054e-08
-8.1612e-08
1.49056e-06
-2.70475e-08
-8.16156e-08
-2.6984e-08
-8.16052e-08
1.17647e-06
-1.74638e-08
-1.00707e-07
1.17628e-06
-1.75056e-08
-1.01081e-07
1.17601e-06
-1.75528e-08
-1.01372e-07
1.17564e-06
-1.75953e-08
-1.01587e-07
1.17519e-06
-1.76253e-08
-1.01733e-07
1.17464e-06
-1.76372e-08
-1.01827e-07
1.174e-06
-1.76284e-08
-1.01885e-07
1.17327e-06
-1.76032e-08
-1.01918e-07
1.17246e-06
-1.75663e-08
-1.01928e-07
1.17159e-06
-1.75113e-08
-1.0193e-07
1.17067e-06
-1.7434e-08
-1.01932e-07
-1.7339e-08
-1.01924e-07
7.57363e-07
-1.16324e-07
7.50281e-07
-1.1656e-07
7.43114e-07
-1.16724e-07
7.35872e-07
-1.16836e-07
7.28565e-07
-1.16907e-07
7.2121e-07
-1.16945e-07
7.1382e-07
-1.16965e-07
7.06421e-07
-1.16973e-07
6.99018e-07
-1.16974e-07
6.91627e-07
-1.16968e-07
6.84261e-07
-1.16967e-07
-1.16996e-07
1.82757e-06
-5.49539e-09
-3.20295e-08
1.83487e-06
-5.46049e-09
-3.19738e-08
1.84207e-06
-5.42724e-09
-3.19256e-08
1.84919e-06
-5.39454e-09
-3.18852e-08
1.85624e-06
-5.36215e-09
-3.18519e-08
1.86321e-06
-5.33053e-09
-3.18248e-08
1.87012e-06
-5.2999e-09
-3.18028e-08
1.87698e-06
-5.2704e-09
-3.17851e-08
1.88378e-06
-5.24161e-09
-3.17717e-08
1.89055e-06
-5.21647e-09
-3.17634e-08
-5.18341e-09
-3.17566e-08
1.7014e-06
-8.16451e-09
-5.99026e-08
1.70751e-06
-8.21007e-09
-5.98259e-08
1.71353e-06
-8.24623e-09
-5.97586e-08
1.71948e-06
-8.27088e-09
-5.97027e-08
1.72538e-06
-8.28307e-09
-5.96576e-08
1.73122e-06
-8.28434e-09
-5.96203e-08
1.73701e-06
-8.27618e-09
-5.95891e-08
1.74275e-06
-8.25938e-09
-5.95642e-08
1.74846e-06
-8.23232e-09
-5.95475e-08
1.75415e-06
-8.20221e-09
-5.95417e-08
-8.14708e-09
-5.95401e-08
1.49145e-06
-9.14081e-09
-8.38906e-08
1.49557e-06
-9.34453e-09
-8.38411e-08
1.49957e-06
-9.5194e-09
-8.37873e-08
1.50347e-06
-9.66278e-09
-8.37325e-08
1.50729e-06
-9.7768e-09
-8.3681e-08
1.51105e-06
-9.86055e-09
-8.36357e-08
1.51475e-06
-9.91131e-09
-8.35953e-08
1.5184e-06
-9.93328e-09
-8.35576e-08
1.522e-06
-9.93204e-09
-8.35249e-08
1.52557e-06
-9.90666e-09
-8.35029e-08
1.52911e-06
-9.86103e-09
-8.34953e-08
-9.76329e-09
-8.34947e-08
1.20519e-06
-7.61689e-09
-1.02994e-07
1.20569e-06
-7.86328e-09
-1.03062e-07
1.20597e-06
-8.0624e-09
-1.03103e-07
1.20605e-06
-8.21353e-09
-1.03115e-07
1.20596e-06
-8.32007e-09
-1.031e-07
1.20572e-06
-8.38527e-09
-1.03068e-07
1.20537e-06
-8.41112e-09
-1.03031e-07
1.20492e-06
-8.40423e-09
-1.02995e-07
1.20439e-06
-8.37156e-09
-1.02962e-07
1.2038e-06
-8.31906e-09
-1.02934e-07
1.20318e-06
-8.25065e-09
-1.02915e-07
-8.14914e-09
-1.02894e-07
7.81756e-07
-1.17864e-07
7.75324e-07
-1.17991e-07
7.68623e-07
-1.18085e-07
7.61715e-07
-1.18142e-07
7.54653e-07
-1.18165e-07
7.4749e-07
-1.18167e-07
7.40271e-07
-1.18157e-07
7.33035e-07
-1.18142e-07
7.25814e-07
-1.18124e-07
7.18632e-07
-1.18105e-07
7.115e-07
-1.18085e-07
-1.18072e-07
1.78476e-06
2.26527e-08
-3.34895e-08
1.79167e-06
2.27119e-08
-3.33674e-08
1.79849e-06
2.27726e-08
-3.3266e-08
1.80524e-06
2.28346e-08
-3.31837e-08
1.81193e-06
2.28958e-08
-3.31177e-08
1.81857e-06
2.29548e-08
-3.30647e-08
1.82515e-06
2.30114e-08
-3.30217e-08
1.83169e-06
2.30641e-08
-3.29874e-08
1.83818e-06
2.31113e-08
-3.29602e-08
1.84465e-06
2.31475e-08
-3.2943e-08
2.31863e-08
-3.29246e-08
1.65535e-06
1.59811e-08
-5.90525e-08
1.6611e-06
1.59556e-08
-5.88252e-08
1.66681e-06
1.59515e-08
-5.86413e-08
1.67247e-06
1.59676e-08
-5.84954e-08
1.67809e-06
1.59988e-08
-5.83837e-08
1.68368e-06
1.60405e-08
-5.82977e-08
1.68924e-06
1.60909e-08
-5.823e-08
1.69478e-06
1.61463e-08
-5.8181e-08
1.70029e-06
1.6204e-08
-5.81537e-08
1.7058e-06
1.62528e-08
-5.81541e-08
1.63148e-08
-5.8159e-08
1.4386e-06
8.93673e-09
-8.07417e-08
1.44244e-06
8.72104e-09
-8.04269e-08
1.44622e-06
8.5599e-09
-8.01653e-08
1.44993e-06
8.4557e-09
-7.99548e-08
1.45361e-06
8.40265e-09
-7.97887e-08
1.45725e-06
8.38801e-09
-7.96671e-08
1.46087e-06
8.40097e-09
-7.95759e-08
1.46447e-06
8.4352e-09
-7.95025e-08
1.46806e-06
8.48645e-09
-7.94507e-08
1.47164e-06
8.55275e-09
-7.94315e-08
1.47521e-06
8.62491e-09
-7.94468e-08
8.73543e-09
-7.94767e-08
1.14351e-06
2.37656e-09
-9.7019e-08
1.14387e-06
2.11945e-09
-9.68182e-08
1.14405e-06
1.93332e-09
-9.66594e-08
1.14409e-06
1.82037e-09
-9.65241e-08
1.14402e-06
1.7683e-09
-9.63951e-08
1.14387e-06
1.76326e-09
-9.62896e-08
1.14366e-06
1.79481e-09
-9.62129e-08
1.1434e-06
1.85294e-09
-9.61596e-08
1.14313e-06
1.93106e-09
-9.61277e-08
1.14283e-06
2.02445e-09
-9.61133e-08
1.14254e-06
2.12813e-09
-9.61211e-08
2.25095e-09
-9.61179e-08
7.16263e-07
-1.09713e-07
7.10176e-07
-1.09784e-07
7.0387e-07
-1.09845e-07
6.97408e-07
-1.09859e-07
6.90853e-07
-1.09843e-07
6.84274e-07
-1.09825e-07
6.7772e-07
-1.09808e-07
6.71223e-07
-1.09792e-07
6.64808e-07
-1.09778e-07
6.58489e-07
-1.09761e-07
6.52265e-07
-1.09734e-07
-1.09711e-07
1.66058e-06
4.91488e-08
-3.20108e-08
1.66628e-06
4.93325e-08
-3.19169e-08
1.67193e-06
4.94989e-08
-3.18508e-08
1.67753e-06
4.96467e-08
-3.18044e-08
1.68311e-06
4.97728e-08
-3.17697e-08
1.68865e-06
4.98803e-08
-3.1742e-08
1.69416e-06
4.99746e-08
-3.17181e-08
1.69964e-06
5.00532e-08
-3.16978e-08
1.70508e-06
5.0112e-08
-3.16727e-08
1.7105e-06
5.01428e-08
-3.16521e-08
5.01693e-08
-3.16206e-08
1.52958e-06
3.88495e-08
-5.33336e-08
1.53418e-06
3.89863e-08
-5.30803e-08
1.53882e-06
3.91201e-08
-5.28946e-08
1.54347e-06
3.92496e-08
-5.27535e-08
1.54815e-06
3.93623e-08
-5.26526e-08
1.55285e-06
3.94672e-08
-5.25791e-08
1.55754e-06
3.95717e-08
-5.252e-08
1.56223e-06
3.96695e-08
-5.24844e-08
1.56691e-06
3.9745e-08
-5.24684e-08
1.5716e-06
3.97917e-08
-5.24924e-08
3.98263e-08
-5.24899e-08
1.30818e-06
2.60437e-08
-7.08281e-08
1.31099e-06
2.60413e-08
-7.04272e-08
1.31386e-06
2.6061e-08
-7.0109e-08
1.3168e-06
2.61085e-08
-6.98806e-08
1.31978e-06
2.61953e-08
-6.9718e-08
1.32282e-06
2.62888e-08
-6.96314e-08
1.3259e-06
2.63783e-08
-6.95675e-08
1.32901e-06
2.64679e-08
-6.95066e-08
1.33213e-06
2.65628e-08
-6.94661e-08
1.33527e-06
2.66571e-08
-6.9481e-08
1.33842e-06
2.67255e-08
-6.95318e-08
2.68244e-08
-6.95711e-08
1.00533e-06
1.20351e-08
-8.27372e-08
1.00504e-06
1.1958e-08
-8.24427e-08
1.00476e-06
1.19089e-08
-8.22222e-08
1.00448e-06
1.19396e-08
-8.20805e-08
1.0042e-06
1.20442e-08
-8.19609e-08
1.00392e-06
1.21813e-08
-8.19025e-08
1.00365e-06
1.23278e-08
-8.18885e-08
1.00337e-06
1.24708e-08
-8.18828e-08
1.00308e-06
1.26101e-08
-8.1889e-08
1.00278e-06
1.27395e-08
-8.18911e-08
1.00245e-06
1.28611e-08
-8.19305e-08
1.30095e-08
-8.1972e-08
5.78249e-07
-9.20773e-08
5.7259e-07
-9.21674e-08
5.66933e-07
-9.22799e-08
5.61313e-07
-9.22998e-08
5.55782e-07
-9.22678e-08
5.50382e-07
-9.22434e-08
5.45127e-07
-9.22245e-08
5.40013e-07
-9.22074e-08
5.3503e-07
-9.21857e-08
5.30167e-07
-9.21586e-08
5.25413e-07
-9.21186e-08
-9.20597e-08
1.45997e-06
7.23669e-08
-2.70627e-08
1.46352e-06
7.27013e-08
-2.70646e-08
1.46704e-06
7.29717e-08
-2.70813e-08
1.47052e-06
7.3191e-08
-2.71e-08
1.47396e-06
7.33621e-08
-2.71117e-08
1.47737e-06
7.34967e-08
-2.71179e-08
1.48074e-06
7.36085e-08
-2.7116e-08
1.48407e-06
7.36883e-08
-2.71109e-08
1.48736e-06
7.37356e-08
-2.70743e-08
1.49061e-06
7.37381e-08
-2.7014e-08
7.37487e-08
-2.69473e-08
1.32998e-06
5.89833e-08
-4.23712e-08
1.3325e-06
5.92823e-08
-4.21772e-08
1.33511e-06
5.95086e-08
-4.20417e-08
1.33779e-06
5.9695e-08
-4.19376e-08
1.34053e-06
5.98248e-08
-4.1856e-08
1.34331e-06
5.99457e-08
-4.1809e-08
1.34609e-06
6.00721e-08
-4.17643e-08
1.34887e-06
6.01823e-08
-4.17553e-08
1.35162e-06
6.02329e-08
-4.17224e-08
1.35434e-06
6.02291e-08
-4.17037e-08
6.02509e-08
-4.1636e-08
1.10795e-06
4.12833e-08
-5.42089e-08
1.10891e-06
4.14754e-08
-5.38789e-08
1.11004e-06
4.16573e-08
-5.36214e-08
1.11135e-06
4.17852e-08
-5.34624e-08
1.11276e-06
4.19155e-08
-5.33513e-08
1.11425e-06
4.19761e-08
-5.32704e-08
1.11581e-06
4.20296e-08
-5.32121e-08
1.11742e-06
4.211e-08
-5.31551e-08
1.11906e-06
4.21869e-08
-5.31105e-08
1.12067e-06
4.22399e-08
-5.30952e-08
1.12223e-06
4.22474e-08
-5.311e-08
4.22728e-08
-5.30649e-08
8.02334e-07
2.11742e-08
-6.09582e-08
8.0083e-07
2.12268e-08
-6.06904e-08
7.99501e-07
2.12825e-08
-6.0518e-08
7.98254e-07
2.14256e-08
-6.04743e-08
7.97054e-07
2.16432e-08
-6.04891e-08
7.95864e-07
2.17827e-08
-6.05184e-08
7.94651e-07
2.18889e-08
-6.05347e-08
7.93395e-07
2.19994e-08
-6.0517e-08
7.92097e-07
2.20953e-08
-6.04995e-08
7.90754e-07
2.21761e-08
-6.0484e-08
7.89336e-07
2.22395e-08
-6.05044e-08
2.23494e-08
-6.05386e-08
3.99606e-07
-6.65848e-08
3.95329e-07
-6.66636e-08
3.91077e-07
-6.67456e-08
3.86955e-07
-6.67525e-08
3.83017e-07
-6.66862e-08
3.79201e-07
-6.66448e-08
3.75481e-07
-6.66155e-08
3.71857e-07
-6.65847e-08
3.68333e-07
-6.65657e-08
3.64908e-07
-6.65577e-08
3.61577e-07
-6.65481e-08
-6.65006e-08
1.17628e-06
9.17125e-08
-1.75081e-08
1.176e-06
9.21331e-08
-1.75534e-08
1.17565e-06
9.24525e-08
-1.7594e-08
1.1752e-06
9.26922e-08
-1.76201e-08
1.17466e-06
9.28744e-08
-1.76271e-08
1.17403e-06
9.3005e-08
-1.76147e-08
1.1733e-06
9.31057e-08
-1.75867e-08
1.1725e-06
9.31578e-08
-1.75482e-08
1.17164e-06
9.32001e-08
-1.74915e-08
1.17073e-06
9.32313e-08
-1.74104e-08
9.3266e-08
-1.731e-08
1.04867e-06
7.59367e-08
-2.52853e-08
1.0475e-06
7.62816e-08
-2.51532e-08
1.04643e-06
7.65247e-08
-2.50425e-08
1.04542e-06
7.67114e-08
-2.4947e-08
1.04443e-06
7.68774e-08
-2.48696e-08
1.04343e-06
7.69961e-08
-2.48003e-08
1.04239e-06
7.71016e-08
-2.47252e-08
1.0413e-06
7.71723e-08
-2.4674e-08
1.04014e-06
7.72465e-08
-2.46137e-08
1.03892e-06
7.72799e-08
-2.45329e-08
7.73334e-08
-2.43928e-08
8.32328e-07
5.43368e-08
-3.05816e-08
8.30191e-07
5.45784e-08
-3.03836e-08
8.28313e-07
5.47714e-08
-3.02334e-08
8.26604e-07
5.4881e-08
-3.01091e-08
8.25014e-07
5.49372e-08
-2.99874e-08
8.23498e-07
5.4998e-08
-2.98752e-08
8.22001e-07
5.50564e-08
-2.97754e-08
8.20482e-07
5.51411e-08
-2.96755e-08
8.18931e-07
5.52185e-08
-2.96063e-08
8.17357e-07
5.52932e-08
-2.95673e-08
8.15714e-07
5.53195e-08
-2.95072e-08
5.53285e-08
-2.92925e-08
5.37758e-07
2.94558e-08
-3.25421e-08
5.3444e-07
2.9595e-08
-3.23891e-08
5.31274e-07
2.96904e-08
-3.22714e-08
5.282e-07
2.96826e-08
-3.22016e-08
5.25172e-07
2.96443e-08
-3.21681e-08
5.22157e-07
2.96397e-08
-3.21451e-08
5.19143e-07
2.96605e-08
-3.21256e-08
5.16139e-07
2.97155e-08
-3.20876e-08
5.13141e-07
2.97736e-08
-3.20563e-08
5.10146e-07
2.98355e-08
-3.20312e-08
5.07124e-07
2.98733e-08
-3.20366e-08
2.99016e-08
-3.20459e-08
2.15367e-07
-3.45119e-08
2.12821e-07
-3.45225e-08
2.10293e-07
-3.45277e-08
2.07751e-07
-3.45279e-08
2.05226e-07
-3.45168e-08
2.02736e-07
-3.45154e-08
2.00305e-07
-3.45237e-08
1.97965e-07
-3.45295e-08
1.9571e-07
-3.45367e-08
1.93534e-07
-3.45466e-08
1.91428e-07
-3.45688e-08
-3.46015e-08
7.50278e-07
1.06134e-07
7.43112e-07
1.06319e-07
7.35873e-07
1.06455e-07
7.28569e-07
1.06558e-07
7.21217e-07
1.06636e-07
7.13834e-07
1.06699e-07
7.06442e-07
1.06744e-07
6.9905e-07
1.06785e-07
6.91674e-07
1.06821e-07
6.84324e-07
1.06877e-07
1.06951e-07
6.3061e-07
8.80574e-08
6.23593e-07
8.81828e-08
6.16704e-07
8.83007e-08
6.099e-07
8.84153e-08
6.03152e-07
8.85142e-08
5.96448e-07
8.86025e-08
5.89791e-07
8.86757e-08
5.83186e-07
8.87165e-08
5.76662e-07
8.87308e-08
5.70249e-07
8.87576e-08
8.8834e-08
4.44544e-07
6.28099e-08
4.3934e-07
6.28777e-08
4.34372e-07
6.29174e-08
4.29585e-07
6.29787e-08
4.24943e-07
6.30698e-08
4.20407e-07
6.31752e-08
4.15949e-07
6.32846e-08
4.11562e-07
6.33879e-08
4.07212e-07
6.34599e-08
4.02879e-07
6.3496e-08
3.98584e-07
6.35454e-08
6.36993e-08
2.29773e-07
3.34051e-08
2.26787e-07
3.34741e-08
2.23919e-07
3.35145e-08
2.21155e-07
3.35402e-08
2.18499e-07
3.3558e-08
2.15944e-07
3.35854e-08
2.1348e-07
3.36231e-08
2.11112e-07
3.36677e-08
2.08808e-07
3.37076e-08
2.06532e-07
3.37413e-08
2.04262e-07
3.37786e-08
3.38443e-08
7.24978e-08
7.14493e-08
7.04361e-08
6.94484e-08
6.84896e-08
6.75596e-08
6.66589e-08
6.57971e-08
6.4968e-08
6.41626e-08
6.33724e-08
)
;

boundaryField
{
    inlet
    {
        type            calculated;
        value           nonuniform List<scalar> 0();
    }
    ami1
    {
        type            cyclicAMI;
        value           nonuniform List<scalar> 0();
    }
    walls
    {
        type            calculated;
        value           nonuniform List<scalar> 
259
(
-1.84387e-14
-2.43942e-14
-2.90979e-14
-1.41655e-22
-6.40674e-15
-1.28555e-14
-1.84387e-14
-2.43942e-14
-2.90979e-14
-1.41655e-22
-6.40674e-15
-1.28555e-14
-1.84387e-14
-2.43942e-14
-2.90979e-14
-1.41655e-22
-6.40674e-15
-1.28555e-14
-1.84387e-14
-2.43942e-14
-2.90979e-14
-1.37002e-22
-6.40674e-15
-1.28555e-14
-1.84387e-14
-2.43942e-14
-2.90979e-14
-1.41655e-22
-6.40674e-15
-1.28555e-14
-1.84387e-14
-2.43942e-14
-2.90979e-14
-1.41913e-22
-6.40674e-15
-1.28555e-14
-1.84387e-14
-2.43942e-14
-2.90979e-14
-1.41655e-22
-6.40674e-15
-1.28555e-14
-1.84387e-14
-2.43942e-14
-2.90979e-14
-1.41655e-22
-6.40674e-15
-1.28555e-14
-1.84387e-14
-2.43942e-14
-2.90979e-14
-1.41655e-22
-6.40674e-15
-1.28555e-14
-1.84387e-14
-2.43942e-14
-2.90979e-14
-1.41655e-22
-6.40674e-15
-1.28555e-14
-1.84387e-14
-2.43942e-14
-2.90979e-14
-4.32719e-22
-6.40674e-15
-1.28555e-14
-1.84387e-14
-2.43942e-14
-2.90979e-14
2.90979e-14
2.43942e-14
1.84387e-14
1.28555e-14
6.40674e-15
-1.41655e-22
-6.40674e-15
-1.28555e-14
-1.84387e-14
-2.43942e-14
-2.90979e-14
2.90979e-14
2.43942e-14
1.84387e-14
1.28555e-14
6.40674e-15
-1.41655e-22
-6.40674e-15
-1.28555e-14
-1.84387e-14
-2.43942e-14
-2.90979e-14
2.90979e-14
2.43942e-14
1.84387e-14
1.28555e-14
6.40674e-15
-1.41655e-22
-6.40674e-15
-1.28555e-14
-1.84387e-14
-2.43942e-14
-2.90979e-14
2.90979e-14
2.43942e-14
1.84387e-14
1.28555e-14
6.40674e-15
-1.41655e-22
-6.40674e-15
-1.28555e-14
-1.84387e-14
-2.43942e-14
-2.90979e-14
2.90979e-14
2.43942e-14
1.84387e-14
1.28555e-14
6.40674e-15
-1.37002e-22
-6.40674e-15
-1.28555e-14
-1.84387e-14
-2.43942e-14
-2.90979e-14
2.90979e-14
2.43942e-14
1.84387e-14
1.28555e-14
6.40674e-15
-1.41655e-22
-6.40674e-15
-1.28555e-14
-1.84387e-14
-2.43942e-14
-2.90979e-14
2.90979e-14
2.43942e-14
1.84387e-14
1.28555e-14
6.40674e-15
-1.41913e-22
-6.40674e-15
-1.28555e-14
-1.84387e-14
-2.43942e-14
-2.90979e-14
2.90979e-14
2.43942e-14
1.84387e-14
1.28555e-14
6.40674e-15
-1.41655e-22
-6.40674e-15
-1.28555e-14
-1.84387e-14
-2.43942e-14
-2.90979e-14
2.90979e-14
2.43942e-14
1.84387e-14
1.28555e-14
6.40674e-15
-1.41655e-22
-6.40674e-15
-1.28555e-14
-1.84387e-14
-2.43942e-14
-2.90979e-14
2.90979e-14
2.43942e-14
1.84387e-14
1.28555e-14
6.40674e-15
-1.41655e-22
-6.40674e-15
-1.28555e-14
-1.84387e-14
-2.43942e-14
-2.90979e-14
2.90979e-14
2.43942e-14
1.84387e-14
1.28555e-14
6.40674e-15
-1.41655e-22
-6.40674e-15
-1.28555e-14
-1.84387e-14
-2.43942e-14
-2.90979e-14
2.90979e-14
2.43942e-14
1.84387e-14
1.28555e-14
6.40674e-15
-4.32719e-22
-6.40674e-15
-1.28555e-14
-1.84387e-14
-2.43942e-14
-2.90979e-14
1.84387e-14
2.43942e-14
2.90979e-14
6.40674e-15
1.28555e-14
1.84387e-14
2.43942e-14
2.90979e-14
6.40674e-15
1.28555e-14
1.84387e-14
2.43942e-14
2.90979e-14
6.40674e-15
1.28555e-14
1.84387e-14
2.43942e-14
2.90979e-14
6.40674e-15
1.28555e-14
1.84387e-14
2.43942e-14
2.90979e-14
6.40674e-15
1.28555e-14
1.84387e-14
2.43942e-14
2.90979e-14
6.40674e-15
1.28555e-14
1.84387e-14
2.43942e-14
2.90979e-14
6.40674e-15
1.28555e-14
1.84387e-14
2.43942e-14
2.90979e-14
6.40674e-15
1.28555e-14
1.84387e-14
2.43942e-14
2.90979e-14
6.40674e-15
1.28555e-14
1.84387e-14
2.43942e-14
2.90979e-14
6.40674e-15
1.28555e-14
1.84387e-14
2.43942e-14
2.90979e-14
6.40674e-15
1.28555e-14
1.84387e-14
2.43942e-14
2.90979e-14
)
;
    }
    ami2
    {
        type            cyclicAMI;
        value           nonuniform List<scalar> 0();
    }
    outlet
    {
        type            calculated;
        value           nonuniform List<scalar> 0();
    }
    procBoundary9to0
    {
        type            processor;
        value           nonuniform List<scalar> 
40
(
-7.81686e-07
-7.16256e-07
-5.78313e-07
9.20889e-08
-4.04007e-07
-2.18e-07
-7.36078e-08
-1.20514e-06
-1.14344e-06
-1.00525e-06
8.27294e-08
-8.0392e-07
-5.41254e-07
-2.32884e-07
-1.4914e-06
-1.43855e-06
-1.30813e-06
7.08238e-08
-1.10721e-06
-8.3482e-07
-4.49963e-07
-1.69517e-06
-1.6495e-06
-1.525e-06
5.36755e-08
-1.3253e-06
-1.05152e-06
-6.4523e-07
-1.77776e-06
-1.65484e-06
3.21396e-08
-1.45277e-06
-1.17657e-06
-7.64348e-07
-1.82017e-06
-1.6952e-06
8.11261e-09
-1.48719e-06
-1.20443e-06
-7.87833e-07
)
;
    }
    procBoundary9to1
    {
        type            processor;
        value           nonuniform List<scalar> 
30
(
-1.77777e-06
-1.64953e-06
-1.60266e-08
-1.43466e-06
-1.14292e-06
-7.22037e-07
-1.65483e-06
-1.525e-06
-3.87094e-08
-1.30543e-06
-1.00561e-06
-5.8385e-07
-1.45639e-06
-1.32756e-06
-5.86246e-08
-1.10722e-06
-8.04004e-07
-4.03924e-07
-1.17646e-06
-1.04998e-06
-7.55262e-08
-8.34767e-07
-5.41293e-07
-2.17984e-07
-7.57363e-07
-6.37819e-07
-8.7854e-08
-4.50082e-07
-2.3291e-07
-7.36047e-08
)
;
    }
    procBoundary9to7
    {
        type            processor;
        value           nonuniform List<scalar> 
59
(
7.04187e-07
6.46024e-07
5.207e-07
3.58309e-07
1.89395e-07
6.2602e-08
1.20249e-06
1.14219e-06
1.00208e-06
7.8779e-07
5.03999e-07
2.02027e-07
1.53263e-06
1.47875e-06
1.3415e-06
1.12371e-06
8.13933e-07
3.94357e-07
1.75982e-06
1.71126e-06
1.57624e-06
1.35698e-06
1.03759e-06
5.63915e-07
1.85104e-06
1.71583e-06
1.49375e-06
1.16969e-06
6.7695e-07
1.89728e-06
1.7598e-06
1.53261e-06
1.20253e-06
7.04427e-07
1.85108e-06
1.71129e-06
1.47878e-06
1.14224e-06
6.46154e-07
1.71589e-06
1.57627e-06
1.34152e-06
1.00212e-06
5.20772e-07
1.49381e-06
1.35699e-06
1.1237e-06
7.87826e-07
3.58367e-07
1.16975e-06
1.03761e-06
8.13947e-07
5.04058e-07
1.89431e-07
6.77033e-07
5.63973e-07
3.94426e-07
2.02071e-07
6.26153e-08
)
;
    }
    procBoundary9to8
    {
        type            processor;
        value           nonuniform List<scalar> 
132
(
1.16538e-07
1.16708e-07
1.16824e-07
1.16898e-07
1.1694e-07
1.16963e-07
1.16974e-07
1.16978e-07
1.16976e-07
1.16981e-07
1.1702e-07
1.0107e-07
1.01365e-07
1.01585e-07
1.01737e-07
1.01836e-07
1.01899e-07
1.01934e-07
1.0195e-07
1.01956e-07
1.01958e-07
1.0195e-07
8.09012e-08
8.11009e-08
8.12614e-08
8.13861e-08
8.14803e-08
8.15499e-08
8.15994e-08
8.16323e-08
8.16527e-08
8.16569e-08
8.16441e-08
5.63775e-08
5.64788e-08
5.65667e-08
5.66434e-08
5.67088e-08
5.67628e-08
5.68064e-08
5.68409e-08
5.68664e-08
5.68809e-08
5.68883e-08
5.51047e-09
5.47182e-09
5.43415e-09
5.39694e-09
5.36048e-09
5.32545e-09
5.29209e-09
5.2604e-09
5.22995e-09
5.2042e-09
5.17179e-09
3.20352e-08
3.19822e-08
3.1937e-08
3.18998e-08
3.18698e-08
3.18459e-08
3.18268e-08
3.1812e-08
3.1801e-08
3.17943e-08
3.17881e-08
1.94799e-09
1.92258e-09
1.89917e-09
1.87761e-09
1.85784e-09
1.83987e-09
1.82361e-09
1.80897e-09
1.79584e-09
1.78484e-09
1.7727e-09
-2.81864e-08
-2.82226e-08
-2.82571e-08
-2.82899e-08
-2.83206e-08
-2.83489e-08
-2.83746e-08