/*--------------------------------*- C++ -*----------------------------------*\
| =========                 |                                                 |
| \\      /  F ield         | OpenFOAM: The Open Source CFD Toolbox           |
|  \\    /   O peration     | Version:  2212                                  |
|   \\  /    A nd           | Website:  www.openfoam.com                      |
|    \\/     M anipulation  |                                                 |
\*---------------------------------------------------------------------------*/
FoamFile
{
    version     2.0;
    format      ascii;
    arch        "LSB;label=32;scalar=64";
    class       volScalarField;
    location    "1";
    object      nut;
}
// * * * * * * * * * * * * * * * * * * * * * * * * * * * * * * * * * * * * * //

dimensions      [0 2 -1 0 0 0 0];

internalField   nonuniform List<scalar> 
682
(
1.72523e-05
1.69515e-05
1.66711e-05
1.64098e-05
1.61671e-05
1.59413e-05
1.5731e-05
1.55362e-05
1.53604e-05
1.51973e-05
1.50451e-05
1.64625e-05
1.61752e-05
1.59091e-05
1.56615e-05
1.54312e-05
1.52174e-05
1.5019e-05
1.48355e-05
1.46686e-05
1.45147e-05
1.43714e-05
1.44346e-05
1.41953e-05
1.39741e-05
1.37677e-05
1.35763e-05
1.34028e-05
1.32406e-05
1.3089e-05
1.29489e-05
1.28182e-05
1.26899e-05
1.16378e-05
1.14614e-05
1.12959e-05
1.11497e-05
1.09858e-05
1.08429e-05
1.07171e-05
1.05956e-05
1.04848e-05
1.03773e-05
1.02794e-05
1.01869e-05
7.97611e-06
7.86853e-06
7.76486e-06
7.67173e-06
7.57991e-06
7.49446e-06
7.41433e-06
7.3398e-06
7.26946e-06
7.2042e-06
7.1464e-06
7.09401e-06
3.99655e-06
3.95819e-06
3.92129e-06
3.88603e-06
3.85198e-06
3.81972e-06
3.78916e-06
3.76071e-06
3.73353e-06
3.70783e-06
3.6846e-06
3.66329e-06
6.1961e-05
5.93059e-05
5.68331e-05
5.45134e-05
5.23317e-05
5.02792e-05
4.83399e-05
4.65089e-05
4.47656e-05
4.31354e-05
4.13781e-05
5.97217e-05
5.72709e-05
5.49582e-05
5.27714e-05
5.06986e-05
4.87301e-05
4.68508e-05
4.50633e-05
4.33602e-05
4.17548e-05
4.01221e-05
4.99941e-05
4.78456e-05
4.57972e-05
4.38691e-05
4.20023e-05
4.02751e-05
3.8572e-05
3.69139e-05
3.5553e-05
3.39769e-05
3.29818e-05
3.50633e-05
3.33016e-05
3.16224e-05
2.98635e-05
2.86497e-05
2.69334e-05
2.60299e-05
2.44331e-05
2.35427e-05
2.21491e-05
2.13956e-05
2.04206e-05
1.59149e-05
1.50173e-05
1.40923e-05
1.33305e-05
1.25992e-05
1.19808e-05
1.1385e-05
1.08713e-05
1.03288e-05
9.81855e-06
9.44362e-06
9.23702e-06
8.09813e-06
8.00521e-06
7.91685e-06
7.83063e-06
7.74694e-06
7.66984e-06
7.59716e-06
7.53014e-06
7.46689e-06
7.40692e-06
7.35303e-06
7.3051e-06
0.000108704
0.000104897
0.000101266
9.78031e-05
9.45023e-05
9.1359e-05
8.83621e-05
8.54866e-05
8.27427e-05
8.00464e-05
7.80917e-05
0.000104785
0.000101185
9.77396e-05
9.44384e-05
9.1302e-05
8.82753e-05
8.53636e-05
8.25701e-05
7.99118e-05
7.73664e-05
7.55592e-05
9.06577e-05
8.73927e-05
8.42772e-05
8.12591e-05
7.85366e-05
7.57884e-05
7.30887e-05
7.04188e-05
6.7979e-05
6.58502e-05
6.38815e-05
6.90548e-05
6.62023e-05
6.32885e-05
6.06422e-05
5.79823e-05
5.63298e-05
5.3554e-05
5.10154e-05
4.82457e-05
4.68716e-05
4.45468e-05
4.33529e-05
3.44887e-05
3.3493e-05
3.14122e-05
3.03938e-05
2.85929e-05
2.76392e-05
2.61257e-05
2.52695e-05
2.38834e-05
2.31215e-05
2.19313e-05
2.1298e-05
1.19469e-05
1.17933e-05
1.16494e-05
1.15021e-05
1.13617e-05
1.1238e-05
1.11199e-05
1.10151e-05
1.09118e-05
1.08112e-05
1.07124e-05
1.06273e-05
0.000139222
0.000134847
0.000130664
0.000126662
0.000122831
0.000119158
0.000115634
0.000112248
0.000109
0.000105821
0.000103359
0.000134292
0.000130093
0.000126078
0.000122242
0.000118581
0.000115079
0.000111711
0.000108466
0.000105356
0.000102328
0.000100023
0.000118408
0.000114523
0.000110799
0.000107232
0.000103831
0.000100543
9.73755e-05
9.43379e-05
9.14837e-05
8.87764e-05
8.66654e-05
9.33895e-05
8.98127e-05
8.64296e-05
8.31818e-05
8.00884e-05
7.72302e-05
7.44071e-05
7.17108e-05
6.89684e-05
6.68781e-05
6.50006e-05
6.19773e-05
5.055e-05
4.81608e-05
4.59252e-05
4.38581e-05
4.18755e-05
4.00677e-05
3.82259e-05
3.69193e-05
3.50804e-05
3.42802e-05
3.2673e-05
3.17686e-05
1.49981e-05
1.47602e-05
1.45385e-05
1.43361e-05
1.41459e-05
1.39676e-05
1.38009e-05
1.36557e-05
1.34878e-05
1.33436e-05
1.32096e-05
1.30895e-05
0.000150824
0.000146227
0.000141841
0.000137653
0.000133648
0.000129814
0.000126137
0.000122606
0.000119225
0.000115936
0.000113293
0.000133972
0.000129724
0.000125668
0.000121795
0.000118093
0.000114549
0.000111154
0.000107898
0.000104793
0.000101751
9.94275e-05
0.000107563
0.000103631
9.98958e-05
9.63447e-05
9.29675e-05
8.97587e-05
8.67066e-05
8.37992e-05
8.10194e-05
7.84189e-05
7.58703e-05
7.39452e-05
6.06852e-05
5.78788e-05
5.52859e-05
5.28797e-05
5.06384e-05
4.85462e-05
4.65874e-05
4.47622e-05
4.30436e-05
4.1439e-05
3.98123e-05
3.81508e-05
1.69542e-05
1.66613e-05
1.63882e-05
1.61333e-05
1.58952e-05
1.56721e-05
1.54669e-05
1.52731e-05
1.50919e-05
1.49245e-05
1.47671e-05
1.46236e-05
0.000156233
0.000151512
0.000147014
0.000142722
0.00013862
0.000134693
0.000130931
0.00012732
0.000123855
0.000120492
0.000117734
0.000139139
0.000134802
0.000130666
0.000126719
0.000122947
0.000119342
0.00011589
0.00011258
0.000109412
0.000106315
0.00010393
0.000112654
0.000108676
0.000104896
0.000101303
9.78836e-05
9.46284e-05
9.15402e-05
8.85799e-05
8.57493e-05
8.30467e-05
8.03975e-05
7.85142e-05
6.48651e-05
6.19995e-05
5.93596e-05
5.69057e-05
5.46058e-05
5.24485e-05
5.04169e-05
4.85001e-05
4.66943e-05
4.49778e-05
4.3378e-05
4.16424e-05
1.75748e-05
1.72519e-05
1.69512e-05
1.66709e-05
1.64096e-05
1.61669e-05
1.59412e-05
1.57312e-05
1.55367e-05
1.53612e-05
1.51986e-05
1.50472e-05
0.000150783
0.000146186
0.000141801
0.000137613
0.00013361
0.000129776
0.000126101
0.000122571
0.000119188
0.000115899
0.000113261
0.000134205
0.000130014
0.000126009
0.000122184
0.000118537
0.000115048
0.000111694
0.000108462
0.000105365
0.000102348
0.000100059
0.000108535
0.00010477
0.000101173
9.7733e-05
9.44456e-05
9.13187e-05
8.83084e-05
8.54069e-05
8.26417e-05
7.99905e-05
7.74615e-05
7.56363e-05
6.23935e-05
5.97743e-05
5.73228e-05
5.50115e-05
5.28313e-05
5.07597e-05
4.87966e-05
4.69225e-05
4.51496e-05
4.3452e-05
4.18618e-05
4.02151e-05
1.67728e-05
1.64622e-05
1.61751e-05
1.5909e-05
1.56614e-05
1.54311e-05
1.52174e-05
1.5019e-05
1.48358e-05
1.46691e-05
1.45157e-05
1.43727e-05
0.000134007
0.000129727
0.000125635
0.00012172
0.000117978
0.000114393
0.000110952
0.000107649
0.000104494
0.00010141
9.90391e-05
0.000118412
0.000114515
0.000110779
0.000107197
0.000103786
0.000100489
9.73076e-05
9.42569e-05
9.13815e-05
8.86667e-05
8.65487e-05
9.41206e-05
9.06984e-05
8.74343e-05
8.42871e-05
8.12976e-05
7.85327e-05
7.58123e-05
7.30553e-05
7.04898e-05
6.79188e-05
6.58587e-05
6.38668e-05
5.23332e-05
5.00624e-05
4.79124e-05
4.58405e-05
4.39281e-05
4.20544e-05
4.03402e-05
3.86033e-05
3.70251e-05
3.55839e-05
3.40709e-05
3.29518e-05
1.4694e-05
1.44347e-05
1.41957e-05
1.39741e-05
1.37679e-05
1.35764e-05
1.34028e-05
1.32405e-05
1.30896e-05
1.29493e-05
1.28195e-05
1.26912e-05
0.000103635
9.9871e-05
9.62862e-05
9.28711e-05
8.96395e-05
8.65547e-05
8.36117e-05
8.07963e-05
7.81476e-05
7.5584e-05
7.35404e-05
8.9798e-05
8.64022e-05
8.31466e-05
8.00491e-05
7.71797e-05
7.43704e-05
7.16226e-05
6.89129e-05
6.6733e-05
6.49199e-05
6.18455e-05
6.91318e-05
6.61461e-05
6.33471e-05
6.05036e-05
5.81563e-05
5.61416e-05
5.36389e-05
5.06124e-05
4.88211e-05
4.62756e-05
4.49421e-05
4.31327e-05
3.51109e-05
3.32451e-05
3.16973e-05
2.97591e-05
2.87419e-05
2.6965e-05
2.60616e-05
2.44303e-05
2.3585e-05
2.21482e-05
2.14224e-05
2.04301e-05
1.16387e-05
1.14613e-05
1.12971e-05
1.11489e-05
1.09858e-05
1.08428e-05
1.07174e-05
1.05952e-05
1.04853e-05
1.03771e-05
1.028e-05
1.01872e-05
5.78247e-05
5.52217e-05
5.2803e-05
5.05507e-05
4.84442e-05
4.64733e-05
4.46303e-05
4.28839e-05
4.12712e-05
3.95806e-05
3.795e-05
4.80977e-05
4.58774e-05
4.37905e-05
4.18464e-05
3.99864e-05
3.8248e-05
3.68305e-05
3.50283e-05
3.41867e-05
3.25916e-05
3.16891e-05
3.49403e-05
3.31162e-05
3.17239e-05
2.98721e-05
2.89111e-05
2.72793e-05
2.63795e-05
2.49637e-05
2.41186e-05
2.28521e-05
2.20542e-05
2.12434e-05
1.59426e-05
1.49944e-05
1.41132e-05
1.33062e-05
1.26085e-05
1.1968e-05
1.13925e-05
1.08636e-05
1.03393e-05
9.81477e-06
9.4501e-06
9.23679e-06
7.97705e-06
7.86813e-06
7.76556e-06
7.67091e-06
7.57986e-06
7.49376e-06
7.41416e-06
7.33913e-06
7.26945e-06
7.20372e-06
7.14614e-06
7.09353e-06
1.66614e-05
1.63882e-05
1.61334e-05
1.58955e-05
1.56726e-05
1.54678e-05
1.52741e-05
1.5093e-05
1.49255e-05
1.47695e-05
1.46241e-05
1.47604e-05
1.45387e-05
1.43361e-05
1.4146e-05
1.39677e-05
1.38012e-05
1.36575e-05
1.34863e-05
1.33426e-05
1.32091e-05
1.30879e-05
1.19501e-05
1.17926e-05
1.16526e-05
1.14985e-05
1.13635e-05
1.12356e-05
1.1121e-05
1.10132e-05
1.09118e-05
1.081e-05
1.07107e-05
1.06258e-05
8.09897e-06
8.00485e-06
7.91768e-06
7.82956e-06
7.74697e-06
7.66875e-06
7.59696e-06
7.52909e-06
7.46673e-06
7.40595e-06
7.35228e-06
7.30413e-06
3.99656e-06
3.95818e-06
3.92122e-06
3.88592e-06
3.85167e-06
3.8195e-06
3.78883e-06
3.76048e-06
3.73324e-06
3.70755e-06
3.68428e-06
3.66291e-06
)
;

boundaryField
{
    inlet
    {
        type            calculated;
        value           nonuniform List<scalar> 0();
    }
    ami1
    {
        type            cyclicAMI;
        value           nonuniform List<scalar> 0();
    }
    walls
    {
        type            nutkWallFunction;
        blending        stepwise;
        value           uniform 0;
    }
    ami2
    {
        type            cyclicAMI;
        value           nonuniform List<scalar> 0();
    }
    outlet
    {
        type            calculated;
        value           nonuniform List<scalar> 0();
    }
    procBoundary9to0
    {
        type            processor;
        value           nonuniform List<scalar> 
40
(
1.75757e-05
1.67735e-05
1.46939e-05
1.46939e-05
1.18286e-05
8.07457e-06
4.03438e-06
6.49542e-05
6.24855e-05
5.23846e-05
5.23846e-05
3.70244e-05
1.68286e-05
8.19315e-06
0.000112829
0.000108696
9.42277e-05
9.42277e-05
7.22888e-05
3.69591e-05
1.21223e-05
0.000143915
0.000138804
0.000122603
0.000122603
9.72062e-05
5.32646e-05
1.52538e-05
0.000155751
0.000138548
0.000138548
0.000111795
6.38427e-05
1.72691e-05
0.000161299
0.000143818
0.000143818
0.000116937
6.80885e-05
1.79224e-05
)
;
    }
    procBoundary9to1
    {
        type            processor;
        value           nonuniform List<scalar> 
30
(
0.00015572
0.000138729
0.000138729
0.000112579
6.53262e-05
1.71101e-05
0.000138596
0.00012261
0.00012261
9.78009e-05
5.48231e-05
1.49759e-05
0.000107709
9.34882e-05
9.34882e-05
7.228e-05
3.70163e-05
1.18288e-05
6.07653e-05
5.06233e-05
5.06233e-05
3.68361e-05
1.68306e-05
8.07468e-06
1.69547e-05
1.49984e-05
1.49984e-05
1.21207e-05
8.19304e-06
4.03444e-06
)
;
    }
    procBoundary9to7
    {
        type            processor;
        value           nonuniform List<scalar> 
59
(
1.49121e-05
1.42363e-05
1.25541e-05
1.0099e-05
7.04451e-06
3.64309e-06
3.95129e-05
3.82347e-05
3.11622e-05
1.94056e-05
8.77071e-06
7.26172e-06
7.51745e-05
7.24854e-05
6.02142e-05
4.08534e-05
2.00454e-05
1.05534e-05
9.918e-05
9.58102e-05
8.25911e-05
5.8685e-05
2.99714e-05
1.29713e-05
0.000108965
9.52722e-05
7.02948e-05
3.65328e-05
1.44749e-05
0.000113365
9.9766e-05
7.5419e-05
3.97407e-05
1.49136e-05
0.000108969
9.59418e-05
7.26672e-05
3.83271e-05
1.42383e-05
9.49347e-05
8.25036e-05
6.02571e-05
3.12204e-05
1.25559e-05
6.99415e-05
5.85665e-05
4.09066e-05
1.94165e-05
1.0099e-05
3.6385e-05
2.9916e-05
2.00296e-05
8.77173e-06
7.04389e-06
1.447e-05
1.29689e-05
1.05508e-05
7.26039e-06
3.64251e-06
)
;
    }
    procBoundary9to8
    {
        type            processor;
        value           nonuniform List<scalar> 
132
(
1.66613e-05
1.63882e-05
1.61334e-05
1.58953e-05
1.56722e-05
1.54673e-05
1.52733e-05
1.50917e-05
1.49243e-05
1.47665e-05
1.46166e-05
5.78225e-05
5.52152e-05
5.27925e-05
5.05337e-05
4.84205e-05
4.64453e-05
4.45878e-05
4.28537e-05
4.121e-05
3.95491e-05
3.78623e-05
0.00010365
9.98903e-05
9.63065e-05
9.2891e-05
8.96418e-05
8.65385e-05
8.36037e-05
8.0778e-05
7.81311e-05
7.55575e-05
7.35511e-05
0.000134049
0.000129783
0.000125702
0.000121797
0.00011806
0.000114477
0.000111041
0.000107743
0.000104593
0.000101513
9.91435e-05
0.000156273
0.000151538
0.000147023
0.000142711
0.000138586
0.000134634
0.000130843
0.000127203
0.000123707
0.000120314
0.00011752
0.000156273
0.000151538
0.000147023
0.000142711
0.000138586
0.000134634
0.000130843
0.000127203
0.000123707
0.000120314
0.00011752
0.000161828
0.000156991
0.000152386
0.000147995
0.000143801
0.000139789
0.000135948
0.000132266
0.000128736
0.000125323
0.000122465
0.000156242
0.000151535
0.000147051
0.000142773
0.000138688
0.000134781
0.00013104
0.000127456
0.000124023
0.000120697
0.000117965
0.000139219
0.000134864
0.000130708
0.000126738
0.000122946
0.000119323
0.000115854
0.000112531
0.000109351
0.000106246
0.000103842
0.000108714
0.000104922
0.000101313
9.78745e-05
9.46167e-05
9.15249e-05
8.85672e-05
8.57428e-05
8.3035e-05
8.03779e-05
7.8432e-05
6.1973e-05
5.93314e-05
5.68769e-05
5.45775e-05
5.24195e-05
5.03887e-05
4.84739e-05
4.6671e-05
4.4956e-05
4.33616e-05
4.16372e-05
1.72525e-05
1.69518e-05
1.66716e-05
1.64105e-05
1.61681e-05
1.59427e-05
1.57329e-05
1.55385e-05
1.53627e-05
1.52001e-05
1.50489e-05
)
;
    }
}


// ************************************************************************* //
