/*--------------------------------*- C++ -*----------------------------------*\
| =========                 |                                                 |
| \\      /  F ield         | OpenFOAM: The Open Source CFD Toolbox           |
|  \\    /   O peration     | Version:  2212                                  |
|   \\  /    A nd           | Website:  www.openfoam.com                      |
|    \\/     M anipulation  |                                                 |
\*---------------------------------------------------------------------------*/
FoamFile
{
    version     2.0;
    format      ascii;
    arch        "LSB;label=32;scalar=64";
    class       surfaceScalarField;
    location    "1";
    object      phi;
}
// * * * * * * * * * * * * * * * * * * * * * * * * * * * * * * * * * * * * * //

dimensions      [0 3 -1 0 0 0 0];

oriented        oriented;

internalField   nonuniform List<scalar> 
1786
(
7.70869e-07
-1.18885e-07
6.84708e-09
7.64895e-07
-1.18557e-07
6.91306e-09
7.58864e-07
-1.18305e-07
6.90221e-09
7.52856e-07
-1.18114e-07
6.82492e-09
7.46937e-07
-1.17972e-07
6.69288e-09
7.41155e-07
-1.1787e-07
6.52543e-09
7.35553e-07
-1.178e-07
6.31622e-09
7.30156e-07
-1.17752e-07
6.08153e-09
7.24971e-07
-1.17716e-07
5.83469e-09
7.20006e-07
-1.17689e-07
5.57921e-09
-1.17684e-07
5.30462e-09
7.10432e-07
-1.10109e-07
-1.41759e-09
7.0336e-07
-1.09813e-07
-1.67248e-09
6.96573e-07
-1.09585e-07
-1.93337e-09
6.90083e-07
-1.0942e-07
-2.20373e-09
6.83896e-07
-1.093e-07
-2.48511e-09
6.78013e-07
-1.09216e-07
-2.77169e-09
6.72433e-07
-1.09158e-07
-3.06244e-09
6.67146e-07
-1.09108e-07
-3.357e-09
6.62135e-07
-1.09057e-07
-3.64759e-09
6.57375e-07
-1.09001e-07
-3.92791e-09
-1.08975e-07
-4.20821e-09
5.7337e-07
-9.23006e-08
-1.06145e-08
5.66751e-07
-9.21508e-08
-1.10428e-08
5.60623e-07
-9.19989e-08
-1.14585e-08
5.54944e-07
-9.1893e-08
-1.18482e-08
5.49658e-07
-9.18049e-08
-1.22083e-08
5.4472e-07
-9.17421e-08
-1.25353e-08
5.40093e-07
-9.16944e-08
-1.28364e-08
5.35752e-07
-9.16447e-08
-1.31225e-08
5.31673e-07
-9.15884e-08
-1.339e-08
5.27816e-07
-9.15218e-08
-1.36227e-08
-9.14581e-08
-1.38717e-08
3.99785e-07
-6.70315e-08
-1.98992e-08
3.94688e-07
-6.69582e-08
-2.02451e-08
3.9001e-07
-6.68438e-08
-2.06295e-08
3.85725e-07
-6.66961e-08
-2.1018e-08
3.81739e-07
-6.65891e-08
-2.1317e-08
3.78002e-07
-6.651e-08
-2.15582e-08
3.74494e-07
-6.64358e-08
-2.17982e-08
3.7119e-07
-6.6376e-08
-2.2015e-08
3.68073e-07
-6.63304e-08
-2.21971e-08
3.65126e-07
-6.62748e-08
-2.23663e-08
3.62321e-07
-6.62115e-08
-2.25054e-08
-6.61497e-08
-2.26734e-08
2.14289e-07
-3.52512e-08
-2.88221e-08
2.11485e-07
-3.51251e-08
-2.90289e-08
2.08803e-07
-3.501e-08
-2.91522e-08
2.06248e-07
-3.49182e-08
-2.92228e-08
2.03813e-07
-3.48567e-08
-2.92976e-08
2.01501e-07
-3.48109e-08
-2.93872e-08
1.99335e-07
-3.47701e-08
-2.94996e-08
1.97308e-07
-3.47358e-08
-2.96131e-08
1.95401e-07
-3.47121e-08
-2.97115e-08
1.93611e-07
-3.47004e-08
-2.97843e-08
1.91919e-07
-3.46965e-08
-2.98226e-08
-3.46785e-08
-2.99053e-08
7.17052e-08
-3.42035e-08
7.07102e-08
-3.41299e-08
6.97652e-08
-3.4065e-08
6.88657e-08
-3.40186e-08
6.80091e-08
-3.4e-08
6.71983e-08
-3.40001e-08
6.64431e-08
-3.40149e-08
6.57407e-08
-3.40334e-08
6.50819e-08
-3.40533e-08
6.44612e-08
-3.40797e-08
6.38745e-08
-3.41099e-08
-3.41469e-08
1.2038e-06
-1.06421e-07
8.11776e-09
1.20433e-06
-1.05806e-07
8.13492e-09
1.20466e-06
-1.05295e-07
8.09576e-09
1.20483e-06
-1.04874e-07
8.00187e-09
1.20487e-06
-1.04532e-07
7.86169e-09
1.20481e-06
-1.04264e-07
7.69426e-09
1.20467e-06
-1.04048e-07
7.4898e-09
1.20445e-06
-1.03877e-07
7.26049e-09
1.20418e-06
-1.03747e-07
7.02315e-09
1.20386e-06
-1.03654e-07
6.788e-09
-1.03583e-07
6.52522e-09
1.15139e-06
-9.90666e-08
-7.5756e-09
1.1503e-06
-9.84647e-08
-7.92359e-09
1.14931e-06
-9.79734e-08
-8.26779e-09
1.14842e-06
-9.75766e-08
-8.61063e-09
1.14762e-06
-9.72681e-08
-8.94873e-09
1.14689e-06
-9.70286e-08
-9.28224e-09
1.14624e-06
-9.68384e-08
-9.61246e-09
1.14563e-06
-9.66857e-08
-9.93834e-09
1.14504e-06
-9.65706e-08
-1.02423e-08
1.14448e-06
-9.65115e-08
-1.05059e-08
-9.64419e-08
-1.07946e-08
1.0155e-06
-8.33456e-08
-2.37995e-08
1.01337e-06
-8.29905e-08
-2.43869e-08
1.01157e-06
-8.27126e-08
-2.49204e-08
1.01004e-06
-8.24896e-08
-2.54012e-08
1.00872e-06
-8.23349e-08
-2.58227e-08
1.00757e-06
-8.22009e-08
-2.62104e-08
1.00654e-06
-8.20665e-08
-2.65809e-08
1.0056e-06
-8.19375e-08
-2.69286e-08
1.0047e-06
-8.1847e-08
-2.7218e-08
1.00381e-06
-8.18186e-08
-2.74249e-08
-8.17247e-08
-2.77106e-08
8.09947e-07
-6.10225e-08
-3.9128e-08
8.06964e-07
-6.08582e-08
-3.97487e-08
8.04398e-07
-6.07638e-08
-4.02905e-08
8.02132e-07
-6.07196e-08
-4.07445e-08
8.001e-07
-6.06686e-08
-4.11063e-08
7.98205e-07
-6.05923e-08
-4.14057e-08
7.964e-07
-6.04711e-08
-4.17232e-08
7.94683e-07
-6.03331e-08
-4.20318e-08
7.93041e-07
-6.02081e-08
-4.22845e-08
7.91438e-07
-6.01213e-08
-4.24886e-08
7.89837e-07
-6.00925e-08
-4.26304e-08
-5.99843e-08
-4.28353e-08
5.36792e-07
-3.24146e-08
-5.36886e-08
5.33341e-07
-3.23391e-08
-5.40973e-08
5.30109e-07
-3.22723e-08
-5.44117e-08
5.27031e-07
-3.22226e-08
-5.4642e-08
5.24062e-07
-3.217e-08
-5.48274e-08
5.21194e-07
-3.21078e-08
-5.50031e-08
5.18427e-07
-3.20244e-08
-5.51797e-08
5.1576e-07
-3.19357e-08
-5.53431e-08
5.13179e-07
-3.18581e-08
-5.54811e-08
5.10652e-07
-3.17981e-08
-5.55803e-08
5.08141e-07
-3.17627e-08
-5.56414e-08
-3.16878e-08
-5.57639e-08
2.26564e-07
-6.40643e-08
2.24084e-07
-6.39894e-08
2.21693e-07
-6.39463e-08
2.19402e-07
-6.39506e-08
2.17221e-07
-6.39891e-08
2.15156e-07
-6.40422e-08
2.13215e-07
-6.40991e-08
2.11384e-07
-6.41379e-08
2.09643e-07
-6.41707e-08
2.08001e-07
-6.42356e-08
2.06462e-07
-6.43336e-08
-6.44093e-08
1.49678e-06
-8.61525e-08
7.31137e-09
1.50056e-06
-8.57396e-08
7.20351e-09
1.50417e-06
-8.53815e-08
7.07437e-09
1.50762e-06
-8.50758e-08
6.92449e-09
1.51091e-06
-8.48162e-08
6.75627e-09
1.51407e-06
-8.45938e-08
6.57275e-09
1.51708e-06
-8.44052e-08
6.37679e-09
1.51995e-06
-8.42509e-08
6.17407e-09
1.52271e-06
-8.41334e-08
5.9743e-09
1.52537e-06
-8.40508e-08
5.79804e-09
-8.39679e-08
5.58899e-09
1.45053e-06
-8.15019e-08
-1.48545e-08
1.45315e-06
-8.1038e-08
-1.52413e-08
1.45576e-06
-8.06498e-08
-1.56094e-08
1.45836e-06
-8.03339e-08
-1.59586e-08
1.46096e-06
-8.00656e-08
-1.6292e-08
1.46352e-06
-7.98205e-08
-1.66147e-08
1.46603e-06
-7.96067e-08
-1.6925e-08
1.46849e-06
-7.94379e-08
-1.72166e-08
1.47092e-06
-7.93213e-08
-1.74763e-08
1.4733e-06
-7.92468e-08
-1.76893e-08
-7.91282e-08
-1.79412e-08
1.32039e-06
-6.97311e-08
-3.68986e-08
1.32191e-06
-6.94543e-08
-3.74883e-08
1.32357e-06
-6.92274e-08
-3.80107e-08
1.32537e-06
-6.90647e-08
-3.84657e-08
1.32727e-06
-6.89075e-08
-3.88763e-08
1.32921e-06
-6.87115e-08
-3.9267e-08
1.33118e-06
-6.85282e-08
-3.96269e-08
1.33315e-06
-6.83995e-08
-3.9938e-08
1.3351e-06
-6.83044e-08
-4.01807e-08
1.33704e-06
-6.82464e-08
-4.03638e-08
-6.81269e-08
-4.0619e-08
1.11204e-06
-5.21822e-08
-5.71622e-08
1.11249e-06
-5.21208e-08
-5.78123e-08
1.11316e-06
-5.20505e-08
-5.83656e-08
1.114e-06
-5.19739e-08
-5.88302e-08
1.11491e-06
-5.1894e-08
-5.91931e-08
1.11591e-06
-5.17953e-08
-5.95176e-08
1.11699e-06
-5.16553e-08
-5.98561e-08
1.1181e-06
-5.15096e-08
-6.01579e-08
1.11916e-06
-5.13781e-08
-6.03716e-08
1.12016e-06
-5.12589e-08
-6.05301e-08
1.12109e-06
-5.1152e-08
-6.06543e-08
-5.0988e-08
-6.0822e-08
8.26861e-07
-2.88895e-08
-7.58641e-08
8.25843e-07
-2.8922e-08
-7.62775e-08
8.2489e-07
-2.89061e-08
-7.66032e-08
8.23973e-07
-2.88421e-08
-7.68563e-08
8.23067e-07
-2.87453e-08
-7.70704e-08
8.22127e-07
-2.86241e-08
-7.72342e-08
8.21128e-07
-2.84745e-08
-7.73613e-08
8.20088e-07
-2.83385e-08
-7.74744e-08
8.19021e-07
-2.82172e-08
-7.75746e-08
8.17913e-07
-2.80783e-08
-7.76536e-08
8.16761e-07
-2.79222e-08
-7.77186e-08
-2.7756e-08
-7.78213e-08
4.37e-07
-8.9448e-08
4.33484e-07
-8.93949e-08
4.29979e-07
-8.93478e-08
4.26511e-07
-8.93243e-08
4.23097e-07
-8.93204e-08
4.1976e-07
-8.93297e-08
4.16524e-07
-8.93372e-08
4.13393e-07
-8.93461e-08
4.10369e-07
-8.93636e-08
4.07459e-07
-8.94043e-08
4.04672e-07
-8.94689e-08
-8.95207e-08
1.70436e-06
-6.05007e-08
1.70997e-06
-6.03103e-08
1.71539e-06
-6.0141e-08
1.72061e-06
-5.99919e-08
1.72564e-06
-5.98602e-08
1.73048e-06
-5.97425e-08
1.73514e-06
-5.96384e-08
1.73963e-06
-5.955e-08
1.74396e-06
-5.94778e-08
1.74817e-06
-5.9418e-08
-5.93495e-08
1.66089e-06
-5.84238e-08
-2.20369e-08
1.66585e-06
-5.81805e-08
-2.23291e-08
1.67067e-06
-5.79684e-08
-2.26024e-08
1.67536e-06
-5.77833e-08
-2.28582e-08
1.67992e-06
-5.76149e-08
-2.30991e-08
1.68435e-06
-5.74533e-08
-2.33279e-08
1.68863e-06
-5.73035e-08
-2.35437e-08
1.69279e-06
-5.71769e-08
-2.37424e-08
1.69683e-06
-5.70742e-08
-2.39203e-08
1.70077e-06
-5.69811e-08
-2.40742e-08
-5.685e-08
-2.42516e-08
1.53367e-06
-5.09265e-08
-4.84519e-08
1.53768e-06
-5.08361e-08
-4.88391e-08
1.54163e-06
-5.07498e-08
-4.91799e-08
1.54553e-06
-5.06689e-08
-4.94783e-08
1.54936e-06
-5.05758e-08
-4.97457e-08
1.55309e-06
-5.04592e-08
-4.99934e-08
1.55671e-06
-5.03341e-08
-5.02184e-08
1.56024e-06
-5.02337e-08
-5.04094e-08
1.5637e-06
-5.01506e-08
-5.05644e-08
1.5671e-06
-5.0042e-08
-5.06957e-08
-4.98742e-08
-5.08589e-08
1.32412e-06
-3.8715e-08
-7.25052e-08
1.32712e-06
-3.88631e-08
-7.28767e-08
1.33007e-06
-3.89702e-08
-7.31823e-08
1.33295e-06
-3.90292e-08
-7.34338e-08
1.33576e-06
-3.90412e-08
-7.36352e-08
1.3385e-06
-3.90182e-08
-7.38079e-08
1.34112e-06
-3.89713e-08
-7.39693e-08
1.34362e-06
-3.88786e-08
-7.41119e-08
1.34601e-06
-3.878e-08
-7.42104e-08
1.34827e-06
-3.86678e-08
-7.42745e-08
1.35044e-06
-3.85259e-08
-7.43436e-08
-3.83203e-08
-7.44509e-08
1.03702e-06
-2.22034e-08
-9.35557e-08
1.03799e-06
-2.24221e-08
-9.36844e-08
1.03874e-06
-2.25687e-08
-9.37609e-08
1.03931e-06
-2.26453e-08
-9.3806e-08
1.03969e-06
-2.26596e-08
-9.38358e-08
1.03991e-06
-2.26185e-08
-9.38532e-08
1.03998e-06
-2.25419e-08
-9.38556e-08
1.03991e-06
-2.24241e-08
-9.38579e-08
1.0397e-06
-2.22875e-08
-9.38566e-08
1.03936e-06
-2.21241e-08
-9.38622e-08
1.03892e-06
-2.1937e-08
-9.38607e-08
-2.17326e-08
-9.38853e-08
6.24131e-07
-1.07734e-07
6.19909e-07
-1.07595e-07
6.15481e-07
-1.07488e-07
6.10917e-07
-1.07405e-07
6.06282e-07
-1.07345e-07
6.01643e-07
-1.07309e-07
5.97057e-07
-1.07294e-07
5.92584e-07
-1.07297e-07
5.88258e-07
-1.07325e-07
5.84094e-07
-1.07365e-07
5.80095e-07
-1.07407e-07
-1.07436e-07
1.7883e-06
-3.23076e-08
-2.80669e-08
1.79461e-06
-3.21957e-08
-2.81661e-08
1.80071e-06
-3.20869e-08
-2.82587e-08
1.80659e-06
-3.19789e-08
-2.83454e-08
1.81227e-06
-3.18696e-08
-2.84271e-08
1.81773e-06
-3.17575e-08
-2.85044e-08
1.823e-06
-3.16444e-08
-2.8577e-08
1.82807e-06
-3.15343e-08
-2.8644e-08
1.83297e-06
-3.14289e-08
-2.87049e-08
1.83771e-06
-3.13301e-08
-2.87593e-08
-3.12006e-08
-2.8821e-08
1.6619e-06
-2.94969e-08
-5.68727e-08
1.66732e-06
-2.95097e-08
-5.69387e-08
1.67254e-06
-2.94967e-08
-5.69947e-08
1.67758e-06
-2.94579e-08
-5.70427e-08
1.68245e-06
-2.93933e-08
-5.70858e-08
1.68713e-06
-2.93036e-08
-5.71267e-08
1.69162e-06
-2.91942e-08
-5.7165e-08
1.69595e-06
-2.90742e-08
-5.71981e-08
1.70013e-06
-2.89492e-08
-5.72261e-08
1.70419e-06
-2.88267e-08
-5.72519e-08
-2.8647e-08
-5.72908e-08
1.45139e-06
-2.34179e-08
-8.30706e-08
1.45568e-06
-2.36867e-08
-8.29782e-08
1.45975e-06
-2.38821e-08
-8.28828e-08
1.46362e-06
-2.40051e-08
-8.27897e-08
1.46729e-06
-2.40599e-08
-8.27016e-08
1.47076e-06
-2.40563e-08
-8.26221e-08
1.47405e-06
-2.40017e-08
-8.25579e-08
1.47715e-06
-2.3902e-08
-8.25041e-08
1.48009e-06
-2.37661e-08
-8.24552e-08
1.48288e-06
-2.36079e-08
-8.24124e-08
1.48554e-06
-2.3441e-08
-8.23818e-08
-2.32228e-08
-8.23732e-08
1.16416e-06
-1.4443e-08
-1.04723e-07
1.16594e-06
-1.47819e-08
-1.04368e-07
1.16735e-06
-1.50047e-08
-1.04048e-07
1.16844e-06
-1.51325e-08
-1.03768e-07
1.16924e-06
-1.51782e-08
-1.03525e-07
1.16981e-06
-1.51533e-08
-1.03325e-07
1.17018e-06
-1.50679e-08
-1.03161e-07
1.17038e-06
-1.49335e-08
-1.03025e-07
1.17044e-06
-1.47601e-08
-1.02916e-07
1.17036e-06
-1.4564e-08
-1.02834e-07
1.17019e-06
-1.43558e-08
-1.02771e-07
-1.41196e-08
-1.02727e-07
7.44691e-07
-1.1818e-07
7.40171e-07
-1.17857e-07
7.353e-07
-1.17621e-07
7.30202e-07
-1.17441e-07
7.24985e-07
-1.17306e-07
7.19733e-07
-1.1721e-07
7.14514e-07
-1.17143e-07
7.09389e-07
-1.17105e-07
7.04394e-07
-1.1709e-07
6.99556e-07
-1.17091e-07
6.94894e-07
-1.17101e-07
-1.1712e-07
1.83096e-06
-5.0897e-09
-3.17859e-08
1.83768e-06
-4.94414e-09
-3.17115e-08
1.84415e-06
-4.79672e-09
-3.16424e-08
1.85039e-06
-4.64781e-09
-3.15778e-08
1.85639e-06
-4.49761e-09
-3.15165e-08
1.86217e-06
-4.34631e-09
-3.14579e-08
1.86773e-06
-4.19528e-09
-3.1402e-08
1.87308e-06
-4.0473e-09
-3.13499e-08
1.87824e-06
-3.90582e-09
-3.13024e-08
1.88322e-06
-3.77744e-09
-3.12596e-08
-3.6245e-09
-3.12104e-08
1.70436e-06
-7.30427e-09
-6.04977e-08
1.70998e-06
-7.19648e-09
-6.03061e-08
1.7154e-06
-7.06737e-09
-6.01356e-08
1.72061e-06
-6.91871e-09
-5.99853e-08
1.72563e-06
-6.75282e-09
-5.98519e-08
1.73046e-06
-6.57212e-09
-5.97323e-08
1.73511e-06
-6.37942e-09
-5.96261e-08
1.73958e-06
-6.18038e-09
-5.95353e-08
1.74389e-06
-5.98439e-09
-5.94611e-08
1.74807e-06
-5.81135e-09
-5.9401e-08
-5.59823e-09
-5.93353e-08
1.4928e-06
-8.04385e-09
-8.6619e-08
1.49678e-06
-8.11278e-09
-8.61502e-08
1.50057e-06
-8.1249e-09
-8.5737e-08
1.50417e-06
-8.08135e-09
-8.5379e-08
1.50761e-06
-7.98481e-09
-8.50736e-08
1.51089e-06
-7.84258e-09
-8.48135e-08
1.51402e-06
-7.67407e-09
-8.45908e-08
1.51701e-06
-7.47021e-09
-8.44017e-08
1.51986e-06
-7.24295e-09
-8.42457e-08
1.5226e-06
-7.00919e-09
-8.41259e-08
1.52523e-06
-6.77854e-09
-8.40421e-08
-6.51135e-09
-8.39614e-08
1.20303e-06
-6.68648e-09
-1.07158e-07
1.20381e-06
-6.83553e-09
-1.06423e-07
1.20434e-06
-6.8929e-09
-1.05809e-07
1.20467e-06
-6.87491e-09
-1.05302e-07
1.20483e-06
-6.79164e-09
-1.04884e-07
1.20486e-06
-6.65421e-09
-1.04546e-07
1.20479e-06
-6.48296e-09
-1.0428e-07
1.20464e-06
-6.27266e-09
-1.04067e-07
1.20441e-06
-6.03873e-09
-1.03897e-07
1.20413e-06
-5.79556e-09
-1.03767e-07
1.2038e-06
-5.5465e-09
-1.03673e-07
-5.27624e-09
-1.03598e-07
7.76667e-07
-1.19336e-07
7.7086e-07
-1.18886e-07
7.64909e-07
-1.18563e-07
7.5891e-07
-1.18316e-07
7.52942e-07
-1.18129e-07
7.47071e-07
-1.17993e-07
7.41342e-07
-1.17897e-07
7.35795e-07
-1.17831e-07
7.30453e-07
-1.17787e-07
7.25321e-07
-1.17755e-07
7.20403e-07
-1.1773e-07
-1.1772e-07
1.7883e-06
2.20448e-08
-3.23065e-08
1.79461e-06
2.23368e-08
-3.21922e-08
1.80071e-06
2.26098e-08
-3.20812e-08
1.80659e-06
2.28648e-08
-3.19707e-08
1.81227e-06
2.31045e-08
-3.18584e-08
1.81774e-06
2.33319e-08
-3.17428e-08
1.82301e-06
2.35464e-08
-3.16259e-08
1.82808e-06
2.37447e-08
-3.15119e-08
1.83298e-06
2.39223e-08
-3.14037e-08
1.83773e-06
2.40754e-08
-3.1303e-08
2.42498e-08
-3.11744e-08
1.6609e-06
1.48607e-08
-5.84213e-08
1.66586e-06
1.52479e-08
-5.81761e-08
1.67068e-06
1.56169e-08
-5.7963e-08
1.67537e-06
1.59661e-08
-5.77768e-08
1.67993e-06
1.62991e-08
-5.76062e-08
1.68435e-06
1.66206e-08
-5.74424e-08
1.68863e-06
1.69289e-08
-5.72897e-08
1.69278e-06
1.722e-08
-5.71588e-08
1.69681e-06
1.74802e-08
-5.70531e-08
1.70075e-06
1.76932e-08
-5.69584e-08
1.79409e-08
-5.68274e-08
1.4479e-06
7.21843e-09
-8.20493e-08
1.45053e-06
7.57789e-09
-8.14987e-08
1.45315e-06
7.93094e-09
-8.10336e-08
1.45575e-06
8.27946e-09
-8.06473e-08
1.45835e-06
8.62495e-09
-8.03325e-08
1.46094e-06
8.96502e-09
-8.00636e-08
1.46349e-06
9.29929e-09
-7.98186e-08
1.46599e-06
9.62912e-09
-7.96074e-08
1.46845e-06
9.95449e-09
-7.94344e-08
1.47086e-06
1.02589e-08
-7.93148e-08
1.47322e-06
1.05242e-08
-7.92405e-08
1.08117e-08
-7.91229e-08
1.15259e-06
1.17195e-09
-9.98125e-08
1.15139e-06
1.42668e-09
-9.90713e-08
1.1503e-06
1.68765e-09
-9.84702e-08
1.14931e-06
1.95343e-09
-9.79838e-08
1.14841e-06
2.22748e-09
-9.75921e-08
1.14761e-06
2.51106e-09
-9.72853e-08
1.14687e-06
2.79858e-09
-9.70475e-08
1.14621e-06
3.08936e-09
-9.68611e-08
1.14559e-06
3.38246e-09
-9.67105e-08
1.14501e-06
3.66985e-09
-9.65949e-08
1.14445e-06
3.94627e-09
-9.65318e-08
4.22386e-09
-9.64604e-08
7.17783e-07
-1.10511e-07
7.10436e-07
-1.10112e-07
7.03382e-07
-1.09822e-07
6.96616e-07
-1.09597e-07
6.90149e-07
-1.09435e-07
6.83986e-07
-1.09319e-07
6.78129e-07
-1.09241e-07
6.72574e-07
-1.09186e-07
6.6731e-07
-1.09141e-07
6.62319e-07
-1.09094e-07
6.57575e-07
-1.09039e-07
-1.09009e-07
1.6619e-06
4.84569e-08
-2.94927e-08
1.66731e-06
4.88448e-08
-2.95039e-08
1.67253e-06
4.91858e-08
-2.94902e-08
1.67758e-06
4.94843e-08
-2.94502e-08
1.68245e-06
4.97518e-08
-2.93837e-08
1.68714e-06
4.99991e-08
-2.92913e-08
1.69164e-06
5.02239e-08
-2.91789e-08
1.69599e-06
5.04163e-08
-2.90554e-08
1.70018e-06
5.05723e-08
-2.89283e-08
1.70425e-06
5.07038e-08
-2.88029e-08
5.08661e-08
-2.86245e-08
1.53367e-06
3.69009e-08
-5.09201e-08
1.53768e-06
3.74934e-08
-5.08288e-08
1.54163e-06
3.80157e-08
-5.07446e-08
1.54553e-06
3.84715e-08
-5.06642e-08
1.54936e-06
3.88838e-08
-5.05705e-08
1.55309e-06
3.92744e-08
-5.04526e-08
1.55672e-06
3.9631e-08
-5.03261e-08
1.56025e-06
3.99466e-08
-5.022e-08
1.56372e-06
4.01918e-08
-5.01366e-08
1.56712e-06
4.03743e-08
-5.00274e-08
4.06271e-08
-4.98565e-08
1.31906e-06
2.31287e-08
-7.00566e-08
1.32038e-06
2.37962e-08
-6.97223e-08
1.3219e-06
2.43899e-08
-6.94429e-08
1.32357e-06
2.49253e-08
-6.9225e-08
1.32536e-06
2.5407e-08
-6.90634e-08
1.32725e-06
2.58326e-08
-6.89028e-08
1.32919e-06
2.62238e-08
-6.87077e-08
1.33116e-06
2.65941e-08
-6.85387e-08
1.33312e-06
2.69431e-08
-6.83952e-08
1.33507e-06
2.7237e-08
-6.83027e-08
1.33701e-06
2.74504e-08
-6.82552e-08
2.77296e-08
-6.81233e-08
1.01804e-06
1.0143e-08
-8.37851e-08
1.0155e-06
1.06151e-08
-8.33514e-08
1.01337e-06
1.10479e-08
-8.29953e-08
1.01157e-06
1.14693e-08
-8.27244e-08
1.01003e-06
1.18626e-08
-8.25087e-08
1.0087e-06
1.22215e-08
-8.23462e-08
1.00754e-06
1.25485e-08
-8.22119e-08
1.0065e-06
1.28493e-08
-8.20802e-08
1.00556e-06
1.3137e-08
-8.19574e-08
1.00466e-06
1.34045e-08
-8.18657e-08
1.00378e-06
1.3638e-08
-8.18352e-08
1.38837e-08
-8.1743e-08
5.80578e-07
-9.24756e-08
5.73394e-07
-9.23125e-08
5.66787e-07
-9.21673e-08
5.60671e-07
-9.20112e-08
5.55002e-07
-9.19035e-08
5.49727e-07
-9.18228e-08
5.44799e-07
-9.17644e-08
5.40181e-07
-9.1718e-08
5.35845e-07
-9.16678e-08
5.31766e-07
-9.161e-08
5.27906e-07
-9.15415e-08
-9.1478e-08
1.45568e-06
7.28807e-08
-2.36783e-08
1.45975e-06
7.31872e-08
-2.38761e-08
1.46362e-06
7.34373e-08
-2.40014e-08
1.46729e-06
7.3638e-08
-2.4057e-08
1.47078e-06
7.38107e-08
-2.40533e-08
1.47408e-06
7.39723e-08
-2.39976e-08
1.47719e-06
7.4114e-08
-2.38959e-08
1.48014e-06
7.42161e-08
-2.3758e-08
1.48295e-06
7.42797e-08
-2.35963e-08
1.48562e-06
7.43485e-08
-2.3427e-08
7.44592e-08
-2.32164e-08
1.32712e-06
5.78169e-08
-3.88556e-08
1.33007e-06
5.83742e-08
-3.89652e-08
1.33296e-06
5.88322e-08
-3.90286e-08
1.33578e-06
5.91965e-08
-3.90427e-08
1.33852e-06
5.95268e-08
-3.90228e-08
1.34114e-06
5.98662e-08
-3.89738e-08
1.34365e-06
6.01532e-08
-3.88745e-08
1.34604e-06
6.03834e-08
-3.87736e-08
1.3483e-06
6.05389e-08
-3.86607e-08
1.35049e-06
6.06542e-08
-3.85196e-08
6.08364e-08
-3.83144e-08
1.11204e-06
3.9128e-08
-5.21764e-08
1.1125e-06
3.97447e-08
-5.21113e-08
1.11318e-06
4.02927e-08
-5.20353e-08
1.11401e-06
4.07415e-08
-5.19702e-08
1.11494e-06
4.11046e-08
-5.18948e-08
1.11593e-06
4.14207e-08
-5.1793e-08
1.11701e-06
4.17439e-08
-5.16589e-08
1.1181e-06
4.20413e-08
-5.15208e-08
1.11916e-06
4.23033e-08
-5.1375e-08
1.12015e-06
4.25051e-08
-5.1256e-08
1.12107e-06
4.26414e-08
-5.11675e-08
4.28513e-08
-5.09839e-08
8.09952e-07
1.98991e-08
-6.10246e-08
8.06971e-07
2.02408e-08
-6.08667e-08
8.04409e-07
2.06286e-08
-6.07689e-08
8.02133e-07
2.1016e-08
-6.07228e-08
8.00086e-07
2.13164e-08
-6.06733e-08
7.98184e-07
2.15688e-08
-6.05928e-08
7.96381e-07
2.18105e-08
-6.0475e-08
7.94663e-07
2.20241e-08
-6.03453e-08
7.93017e-07
2.22104e-08
-6.02185e-08
7.91408e-07
2.23797e-08
-6.01311e-08
7.898e-07
2.25169e-08
-6.01027e-08
2.26841e-08
-5.99949e-08
3.99796e-07
-6.70336e-08
3.94692e-07
-6.69678e-08
3.90012e-07
-6.68579e-08
3.8573e-07
-6.67138e-08
3.8175e-07
-6.66066e-08
3.78018e-07
-6.65222e-08
3.74512e-07
-6.64477e-08
3.71209e-07
-6.63908e-08
3.68096e-07
-6.63446e-08
3.65153e-07
-6.62871e-08
3.62349e-07
-6.62211e-08
-6.61581e-08
1.16595e-06
9.3683e-08
-1.47792e-08
1.16736e-06
9.37592e-08
-1.50072e-08
1.16846e-06
9.38019e-08
-1.51379e-08
1.16927e-06
9.3831e-08
-1.51854e-08
1.16984e-06
9.38473e-08
-1.51619e-08
1.17022e-06
9.38499e-08
-1.50779e-08
1.17042e-06
9.38536e-08
-1.49446e-08
1.17048e-06
9.38532e-08
-1.47711e-08
1.17041e-06
9.38588e-08
-1.45708e-08
1.17024e-06
9.38541e-08
-1.43556e-08
9.3878e-08
-1.41204e-08
1.03801e-06
7.62809e-08
-2.24288e-08
1.03877e-06
7.6611e-08
-2.25793e-08
1.03934e-06
7.68581e-08
-2.26537e-08
1.03972e-06
7.70695e-08
-2.26645e-08
1.03993e-06
7.72387e-08
-2.26254e-08
1.03999e-06
7.73646e-08
-2.25482e-08
1.03992e-06
7.7484e-08
-2.24294e-08
1.0397e-06
7.75854e-08
-2.22933e-08
1.03936e-06
7.76662e-08
-2.21274e-08
1.03891e-06
7.77183e-08
-2.19357e-08
7.78266e-08
-2.17322e-08
8.26859e-07
5.36845e-08
-2.8891e-08
8.25857e-07
5.40971e-08
-2.89256e-08
8.24923e-07
5.44183e-08
-2.8908e-08
8.24006e-07
5.46513e-08
-2.88462e-08
8.23089e-07
5.48398e-08
-2.87482e-08
8.22136e-07
5.50192e-08
-2.86206e-08
8.21125e-07
5.51929e-08
-2.84759e-08
8.20073e-07
5.5356e-08
-2.83409e-08
8.18997e-07
5.55011e-08
-2.82144e-08
8.17879e-07
5.56005e-08
-2.80727e-08
8.16708e-07
5.56484e-08
-2.79264e-08
5.5775e-08
-2.77514e-08
5.36791e-07
2.8823e-08
-3.24126e-08
5.33323e-07
2.90328e-08
-3.23345e-08
5.30079e-07
2.916e-08
-3.22663e-08
5.27001e-07
2.92276e-08
-3.22212e-08
5.24039e-07
2.9301e-08
-3.21722e-08
5.21173e-07
2.93976e-08
-3.21061e-08
5.18406e-07
2.951e-08
-3.20248e-08
5.15733e-07
2.96224e-08
-3.19383e-08
5.1315e-07
2.97231e-08
-3.18583e-08
5.10623e-07
2.97953e-08
-3.17983e-08
5.08108e-07
2.98277e-08
-3.17674e-08
2.99112e-08
-3.169e-08
2.14291e-07
-3.52511e-08
2.11484e-07
-3.51283e-08
2.08802e-07
-3.50153e-08
2.06241e-07
-3.49253e-08
2.03801e-07
-3.48655e-08
2.01493e-07
-3.48172e-08
1.99332e-07
-3.47763e-08
1.97306e-07
-3.47426e-08
1.95403e-07
-3.47187e-08
1.93617e-07
-3.47054e-08
1.91924e-07
-3.47006e-08
-3.46804e-08
7.40233e-07
1.07577e-07
7.35356e-07
1.07469e-07
7.30245e-07
1.07388e-07
7.25005e-07
1.07329e-07
7.19724e-07
1.07293e-07
7.14473e-07
1.07275e-07
7.09313e-07
1.07273e-07
7.04283e-07
1.07295e-07
6.99412e-07
1.07334e-07
6.94727e-07
1.07377e-07
1.07407e-07
6.19926e-07
8.93755e-08
6.15489e-07
8.93271e-08
6.10909e-07
8.93142e-08
6.06255e-07
8.93186e-08
6.01594e-07
8.9329e-08
5.96983e-07
8.93379e-08
5.9248e-07
8.93466e-08
5.88122e-07
8.93589e-08
5.83931e-07
8.9398e-08
5.79908e-07
8.94644e-08
8.95095e-08
4.37002e-07
6.40596e-08
4.33464e-07
6.39876e-08
4.29939e-07
6.39449e-08
4.26458e-07
6.39487e-08
4.23039e-07
6.39896e-08
4.19699e-07
6.40478e-08
4.16457e-07
6.41045e-08
4.13318e-07
6.41447e-08
4.10283e-07
6.41789e-08
4.07366e-07
6.42418e-08
4.04571e-07
6.43335e-08
6.44099e-08
2.26558e-07
3.42035e-08
2.24078e-07
3.41334e-08
2.21686e-07
3.40705e-08
2.1939e-07
3.40237e-08
2.17201e-07
3.40055e-08
2.15136e-07
3.4007e-08
2.13194e-07
3.40215e-08
2.1136e-07
3.40402e-08
2.0962e-07
3.40612e-08
2.07977e-07
3.40857e-08
2.06431e-07
3.41126e-08
3.41483e-08
7.17036e-08
7.07087e-08
6.9764e-08
6.88624e-08
6.80025e-08
6.71923e-08
6.64375e-08
6.5735e-08
6.50775e-08
6.44578e-08
6.38698e-08
)
;

boundaryField
{
    inlet
    {
        type            calculated;
        value           nonuniform List<scalar> 0();
    }
    ami1
    {
        type            cyclicAMI;
        value           nonuniform List<scalar> 0();
    }
    walls
    {
        type            calculated;
        value           nonuniform List<scalar> 
259
(
-1.84387e-14
-2.43942e-14
-2.90979e-14
1.55355e-22
-6.40674e-15
-1.28555e-14
-1.84387e-14
-2.43942e-14
-2.90979e-14
1.55355e-22
-6.40674e-15
-1.28555e-14
-1.84387e-14
-2.43942e-14
-2.90979e-14
1.55355e-22
-6.40674e-15
-1.28555e-14
-1.84387e-14
-2.43942e-14
-2.90979e-14
-2.89513e-22
-6.40674e-15
-1.28555e-14
-1.84387e-14
-2.43942e-14
-2.90979e-14
1.54579e-22
-6.40674e-15
-1.28555e-14
-1.84387e-14
-2.43942e-14
-2.90979e-14
1.50702e-22
-6.40674e-15
-1.28555e-14
-1.84387e-14
-2.43942e-14
-2.90979e-14
1.50702e-22
-6.40674e-15
-1.28555e-14
-1.84387e-14
-2.43942e-14
-2.90979e-14
1.50702e-22
-6.40674e-15
-1.28555e-14
-1.84387e-14
-2.43942e-14
-2.90979e-14
1.50702e-22
-6.40674e-15
-1.28555e-14
-1.84387e-14
-2.43942e-14
-2.90979e-14
1.50702e-22
-6.40674e-15
-1.28555e-14
-1.84387e-14
-2.43942e-14
-2.90979e-14
-7.03104e-23
-6.40674e-15
-1.28555e-14
-1.84387e-14
-2.43942e-14
-2.90979e-14
2.90979e-14
2.43942e-14
1.84387e-14
1.28555e-14
6.40674e-15
1.55355e-22
-6.40674e-15
-1.28555e-14
-1.84387e-14
-2.43942e-14
-2.90979e-14
2.90979e-14
2.43942e-14
1.84387e-14
1.28555e-14
6.40674e-15
1.55355e-22
-6.40674e-15
-1.28555e-14
-1.84387e-14
-2.43942e-14
-2.90979e-14
2.90979e-14
2.43942e-14
1.84387e-14
1.28555e-14
6.40674e-15
1.55355e-22
-6.40674e-15
-1.28555e-14
-1.84387e-14
-2.43942e-14
-2.90979e-14
2.90979e-14
2.43942e-14
1.84387e-14
1.28555e-14
6.40674e-15
1.55355e-22
-6.40674e-15
-1.28555e-14
-1.84387e-14
-2.43942e-14
-2.90979e-14
2.90979e-14
2.43942e-14
1.84387e-14
1.28555e-14
6.40674e-15
-2.89513e-22
-6.40674e-15
-1.28555e-14
-1.84387e-14
-2.43942e-14
-2.90979e-14
2.90979e-14
2.43942e-14
1.84387e-14
1.28555e-14
6.40674e-15
1.54579e-22
-6.40674e-15
-1.28555e-14
-1.84387e-14
-2.43942e-14
-2.90979e-14
2.90979e-14
2.43942e-14
1.84387e-14
1.28555e-14
6.40674e-15
1.50702e-22
-6.40674e-15
-1.28555e-14
-1.84387e-14
-2.43942e-14
-2.90979e-14
2.90979e-14
2.43942e-14
1.84387e-14
1.28555e-14
6.40674e-15
1.50702e-22
-6.40674e-15
-1.28555e-14
-1.84387e-14
-2.43942e-14
-2.90979e-14
2.90979e-14
2.43942e-14
1.84387e-14
1.28555e-14
6.40674e-15
1.50702e-22
-6.40674e-15
-1.28555e-14
-1.84387e-14
-2.43942e-14
-2.90979e-14
2.90979e-14
2.43942e-14
1.84387e-14
1.28555e-14
6.40674e-15
1.50702e-22
-6.40674e-15
-1.28555e-14
-1.84387e-14
-2.43942e-14
-2.90979e-14
2.90979e-14
2.43942e-14
1.84387e-14
1.28555e-14
6.40674e-15
1.50702e-22
-6.40674e-15
-1.28555e-14
-1.84387e-14
-2.43942e-14
-2.90979e-14
2.90979e-14
2.43942e-14
1.84387e-14
1.28555e-14
6.40674e-15
-7.03104e-23
-6.40674e-15
-1.28555e-14
-1.84387e-14
-2.43942e-14
-2.90979e-14
1.84387e-14
2.43942e-14
2.90979e-14
6.40674e-15
1.28555e-14
1.84387e-14
2.43942e-14
2.90979e-14
6.40674e-15
1.28555e-14
1.84387e-14
2.43942e-14
2.90979e-14
6.40674e-15
1.28555e-14
1.84387e-14
2.43942e-14
2.90979e-14
6.40674e-15
1.28555e-14
1.84387e-14
2.43942e-14
2.90979e-14
6.40674e-15
1.28555e-14
1.84387e-14
2.43942e-14
2.90979e-14
6.40674e-15
1.28555e-14
1.84387e-14
2.43942e-14
2.90979e-14
6.40674e-15
1.28555e-14
1.84387e-14
2.43942e-14
2.90979e-14
6.40674e-15
1.28555e-14
1.84387e-14
2.43942e-14
2.90979e-14
6.40674e-15
1.28555e-14
1.84387e-14
2.43942e-14
2.90979e-14
6.40674e-15
1.28555e-14
1.84387e-14
2.43942e-14
2.90979e-14
6.40674e-15
1.28555e-14
1.84387e-14
2.43942e-14
2.90979e-14
)
;
    }
    ami2
    {
        type            cyclicAMI;
        value           nonuniform List<scalar> 0();
    }
    outlet
    {
        type            calculated;
        value           nonuniform List<scalar> 0();
    }
    procBoundary9to0
    {
        type            processor;
        value           nonuniform List<scalar> 
40
(
-7.76688e-07
-7.1779e-07
-5.80563e-07
9.24725e-08
-4.05326e-07
-2.17246e-07
-7.27527e-08
-1.20302e-06
-1.15258e-06
-1.01804e-06
8.37887e-08
-8.13485e-07
-5.40533e-07
-2.29117e-07
-1.4928e-06
-1.4479e-06
-1.31906e-06
7.0063e-08
-1.11188e-06
-8.27979e-07
-4.40506e-07
-1.69852e-06
-1.65579e-06
-1.52962e-06
5.10298e-08
-1.32109e-06
-1.03584e-06
-6.28049e-07
-1.78175e-06
-1.65629e-06
2.94626e-08
-1.44687e-06
-1.16196e-06
-7.48688e-07
-1.82399e-06
-1.69853e-06
7.392e-09
-1.4886e-06
-1.20196e-06
-7.82197e-07
)
;
    }
    procBoundary9to1
    {
        type            processor;
        value           nonuniform List<scalar> 
30
(
-1.78175e-06
-1.65579e-06
-1.44557e-08
-1.44523e-06
-1.15389e-06
-7.25436e-07
-1.65629e-06
-1.52962e-06
-3.62302e-08
-1.31795e-06
-1.02108e-06
-5.8847e-07
-1.45139e-06
-1.32412e-06
-5.71628e-08
-1.11189e-06
-8.13483e-07
-4.05339e-07
-1.16417e-06
-1.03703e-06
-7.58603e-08
-8.27969e-07
-5.40541e-07
-2.1725e-07
-7.4475e-07
-6.24153e-07
-8.9434e-08
-4.40518e-07
-2.29114e-07
-7.27512e-08
)
;
    }
    procBoundary9to7
    {
        type            processor;
        value           nonuniform List<scalar> 
59
(
7.15288e-07
6.52874e-07
5.24171e-07
3.59686e-07
1.90353e-07
6.33429e-08
1.2035e-06
1.14393e-06
1.00293e-06
7.88258e-07
5.05703e-07
2.05037e-07
1.52789e-06
1.4756e-06
1.33894e-06
1.12193e-06
8.15586e-07
4.02027e-07
1.75221e-06
1.70458e-06
1.57036e-06
1.35252e-06
1.03839e-06
5.76277e-07
1.84226e-06
1.70807e-06
1.48803e-06
1.16993e-06
6.90459e-07
1.88799e-06
1.75209e-06
1.52773e-06
1.20344e-06
7.15727e-07
1.84228e-06
1.70455e-06
1.47551e-06
1.1439e-06
6.53088e-07
1.70814e-06
1.57039e-06
1.3389e-06
1.0029e-06
5.24258e-07
1.48814e-06
1.35257e-06
1.12192e-06
7.88219e-07
3.59713e-07
1.16998e-06
1.03838e-06
8.15527e-07
5.05667e-07
1.90357e-07
6.90278e-07
5.76073e-07
4.01919e-07
2.05002e-07
6.33376e-08
)
;
    }
    procBoundary9to8
    {
        type            processor;
        value           nonuniform List<scalar> 
132
(
1.17857e-07
1.17618e-07
1.17435e-07
1.17297e-07
1.17198e-07
1.17127e-07
1.17085e-07
1.17067e-07
1.17066e-07
1.17075e-07
1.17097e-07
1.04373e-07
1.04052e-07
1.0377e-07
1.03525e-07
1.03323e-07
1.03158e-07
1.0302e-07
1.02911e-07
1.02828e-07
1.02765e-07
1.02721e-07
8.29823e-08
8.28872e-08
8.27933e-08
8.27044e-08
8.26254e-08
8.25619e-08
8.25092e-08
8.2462e-08
8.24199e-08
8.23894e-08
8.23791e-08
5.6877e-08
5.69433e-08
5.6999e-08
5.70466e-08
5.70897e-08
5.71309e-08
5.71697e-08
5.72035e-08
5.72317e-08
5.72569e-08
5.72942e-08
5.09843e-09
4.95154e-09
4.80235e-09
4.65071e-09
4.49675e-09
4.34099e-09
4.1852e-09
4.03245e-09
3.88658e-09
3.75447e-09
3.59997e-09
3.17886e-08
3.17153e-08
3.16474e-08
3.15839e-08
3.15239e-08
3.14667e-08
3.14125e-08
3.1362e-08
3.13153e-08
3.12723e-08
3.12212e-08
1.84064e-09
1.77364e-09
1.70812e-09
1.64404e-09
1.58138e-09
1.52009e-09
1.46045e-09
1.40317e-09
1.34903e-09
1.29929e-09
1.24372e-09
-2.80734e-08
-2.81736e-08
-2.82674e-08
-2.83552e-08
-2.84379e-08
-2.85162e-08
-2.85902e-08
-2.86587e-08
-2.87208e-08