/*--------------------------------*- C++ -*----------------------------------*\
| =========                 |                                                 |
| \\      /  F ield         | OpenFOAM: The Open Source CFD Toolbox           |
|  \\    /   O peration     | Version:  2212                                  |
|   \\  /    A nd           | Website:  www.openfoam.com                      |
|    \\/     M anipulation  |                                                 |
\*---------------------------------------------------------------------------*/
FoamFile
{
    version     2.0;
    format      ascii;
    arch        "LSB;label=32;scalar=64";
    class       surfaceVectorField;
    location    "1";
    object      Uf;
}
// * * * * * * * * * * * * * * * * * * * * * * * * * * * * * * * * * * * * * //

dimensions      [0 1 -1 0 0 0 0];

internalField   nonuniform List<vector> 
1786
(
(0.079369 -0.000965069 0.000423855)
(0.0778655 -0.00100551 0.000424287)
(0.0914056 -0.00104767 0.000352599)
(0.0787539 -0.000947404 0.000463904)
(0.0771751 -0.000972052 0.000462904)
(0.0911107 -0.00102294 0.000410233)
(0.0781329 -0.000923961 0.000488359)
(0.0764955 -0.000937772 0.000486549)
(0.0908016 -0.000994157 0.000451912)
(0.0775143 -0.000896194 0.000500068)
(0.0758305 -0.000902484 0.000497777)
(0.0904843 -0.000961834 0.000479855)
(0.076905 -0.000864988 0.00050178)
(0.0751845 -0.000865876 0.000498561)
(0.0901643 -0.000926856 0.000496064)
(0.0763096 -0.000830931 0.00049544)
(0.0745609 -0.000828478 0.000491173)
(0.0898457 -0.000891282 0.000502942)
(0.0757329 -0.000794908 0.000482547)
(0.0739618 -0.000790287 0.000477107)
(0.0895323 -0.000853129 0.000501734)
(0.0751771 -0.000757836 0.000465197)
(0.0733892 -0.000751672 0.000458619)
(0.0892264 -0.00081425 0.00049427)
(0.0746433 -0.000720599 0.000445049)
(0.0728422 -0.000712699 0.000437438)
(0.0889296 -0.000775872 0.000482509)
(0.0741321 -0.000684166 0.000422442)
(0.0723219 -0.000674214 0.000414837)
(0.0886421 -0.000738115 0.000467277)
(0.0718264 -0.000638149 0.000389947)
(0.0883662 -0.000699645 0.000447616)
(0.0757133 -0.0010101 0.000465498)
(0.0721787 -0.000960087 0.000462669)
(0.0886611 -0.00115969 0.000382827)
(0.0749596 -0.000960518 0.000487724)
(0.0713843 -0.000903769 0.00047467)
(0.0882072 -0.00109237 0.000427502)
(0.0742363 -0.000914589 0.00049837)
(0.0706384 -0.000851079 0.000475502)
(0.0877742 -0.00103127 0.000457715)
(0.0735447 -0.000870559 0.000498912)
(0.0699352 -0.000802761 0.000466859)
(0.0873614 -0.000974822 0.000475385)
(0.0728852 -0.000827726 0.00049093)
(0.0692726 -0.000757444 0.000451659)
(0.0869694 -0.000921908 0.000482168)
(0.0722583 -0.000786069 0.000476202)
(0.0686488 -0.000715599 0.000431824)
(0.0865979 -0.000872494 0.000480178)
(0.0716636 -0.000745155 0.000456871)
(0.06806 -0.000676334 0.000408851)
(0.0862466 -0.000825765 0.000471395)
(0.0711002 -0.000704502 0.00043485)
(0.0675057 -0.000637945 0.000384805)
(0.0859147 -0.000780798 0.000457773)
(0.0705662 -0.000664145 0.00041149)
(0.066982 -0.000599631 0.000361131)
(0.0856004 -0.000738118 0.000440998)
(0.0700588 -0.000626111 0.000386541)
(0.0664874 -0.000561173 0.000338537)
(0.085302 -0.000698388 0.00042195)
(0.0660243 -0.000527727 0.000313962)
(0.0850193 -0.000660312 0.00039962)
(0.0681181 -0.000862883 0.00046735)
(0.0627789 -0.000719997 0.000399758)
(0.0825602 -0.00103211 0.00042115)
(0.0673317 -0.000809343 0.000452841)
(0.0620189 -0.000664678 0.000373504)
(0.0820199 -0.000958232 0.000424263)
(0.0666038 -0.000758164 0.00043137)
(0.0613201 -0.00060369 0.000341326)
(0.0815313 -0.000890149 0.00041764)
(0.0659291 -0.000709394 0.000407107)
(0.0606744 -0.000555721 0.000312726)
(0.0810843 -0.000828636 0.000405293)
(0.0653011 -0.000664527 0.000381355)
(0.0600711 -0.000515553 0.000288636)
(0.0806751 -0.000773589 0.000389148)
(0.0647144 -0.000624356 0.000354443)
(0.0595112 -0.000481585 0.000265432)
(0.0802966 -0.000725426 0.000369615)
(0.0641647 -0.000586821 0.000327766)
(0.058979 -0.000451767 0.000243251)
(0.0799461 -0.000682259 0.000348525)
(0.063649 -0.000549987 0.000302892)
(0.0584846 -0.00042363 0.000223464)
(0.0796186 -0.00064157 0.000327592)
(0.0631644 -0.000513022 0.000280433)
(0.0580137 -0.00039614 0.00020599)
(0.0793116 -0.000603754 0.000307437)
(0.0627062 -0.000478002 0.000259246)
(0.057572 -0.00036844 0.000190797)
(0.079021 -0.000571428 0.000288376)
(0.0571602 -0.000342227 0.000176602)
(0.0787485 -0.000536631 0.000268528)
(0.0581152 -0.000625402 0.000316604)
(0.0506158 -0.000436603 0.000209958)
(0.0735451 -0.000777883 0.000307202)
(0.0573743 -0.00057348 0.000288333)
(0.0499482 -0.000409046 0.000190914)
(0.0729625 -0.000726299 0.000283162)
(0.0566943 -0.000501429 0.000254889)
(0.0493218 -0.000371966 0.000169935)
(0.0724375 -0.000669091 0.000256037)
(0.0560715 -0.000436586 0.000223255)
(0.0487321 -0.00032858 0.000149489)
(0.0719632 -0.00061134 0.000228297)
(0.0554919 -0.000393485 0.000197875)
(0.0481799 -0.000296364 0.000133509)
(0.0715286 -0.000567537 0.000204472)
(0.0549487 -0.000361919 0.000177271)
(0.0476604 -0.000271792 0.000120569)
(0.071127 -0.000532504 0.000184093)
(0.0544388 -0.000336086 0.000159358)
(0.047174 -0.000249444 0.000109478)
(0.0707494 -0.000497116 0.000165864)
(0.0539586 -0.000314153 0.000143795)
(0.0467133 -0.000230585 9.92893e-05)
(0.0703883 -0.000464959 0.000150129)
(0.0535054 -0.000293874 0.000130997)
(0.0462836 -0.000215239 9.01066e-05)
(0.0700506 -0.000437918 0.000136976)
(0.053077 -0.000273473 0.000120964)
(0.0458738 -0.000199452 8.31874e-05)
(0.0697302 -0.000412646 0.000125419)
(0.0526692 -0.000253104 0.000112414)
(0.0454901 -0.000183297 7.80245e-05)
(0.0694206 -0.000391936 0.0001156)
(0.0451359 -0.000167503 7.29391e-05)
(0.0691299 -0.000366091 0.000106993)
(0.0439912 -0.000222884 0.000132311)
(0.0348622 -0.000132455 6.311e-05)
(0.0585497 -0.000321412 0.00012221)
(0.0434155 -0.000195159 0.000126491)
(0.0343848 -0.000109756 6.5667e-05)
(0.0580008 -0.000289015 0.00010644)
(0.0428651 -0.000172667 0.000121305)
(0.0339312 -8.99221e-05 6.97921e-05)
(0.0574775 -0.00027002 9.46413e-05)
(0.0423405 -0.000152586 0.000116585)
(0.0334955 -7.41832e-05 7.32748e-05)
(0.0569801 -0.000259461 8.57671e-05)
(0.0418407 -0.000135139 0.000111485)
(0.0330808 -6.30258e-05 7.43441e-05)
(0.056502 -0.000247926 7.86817e-05)
(0.0413661 -0.000119133 0.000105731)
(0.0326888 -5.39856e-05 7.35974e-05)
(0.0560487 -0.000233785 7.26735e-05)
(0.0409214 -0.000104304 9.98679e-05)
(0.0323188 -4.54674e-05 7.19893e-05)
(0.0556162 -0.000215637 6.79156e-05)
(0.0405053 -9.22553e-05 9.41098e-05)
(0.0319749 -3.81409e-05 7.03188e-05)
(0.0552054 -0.000197156 6.42084e-05)
(0.0401138 -8.25943e-05 8.84362e-05)
(0.0316519 -3.26428e-05 6.82246e-05)
(0.0548157 -0.000181153 6.09606e-05)
(0.0397463 -7.41814e-05 8.28933e-05)
(0.0313471 -2.88993e-05 6.50931e-05)
(0.0544431 -0.00016954 5.69251e-05)
(0.0393989 -6.55878e-05 7.79122e-05)
(0.0310598 -2.63582e-05 6.13449e-05)
(0.0540844 -0.000163811 5.20135e-05)
(0.0307982 -2.17193e-05 5.88371e-05)
(0.0537496 -0.000150321 4.94786e-05)
(0.0283815 -5.41716e-05 1.86944e-05)
(0.035856 -8.79286e-05 -3.40749e-05)
(0.0279877 -5.42939e-05 1.98775e-05)
(0.035407 -0.000100599 -3.86349e-05)
(0.0276136 -5.22194e-05 2.35905e-05)
(0.0349766 -0.000111674 -3.80605e-05)
(0.0272576 -4.95588e-05 2.74488e-05)
(0.0345648 -0.00011953 -3.41495e-05)
(0.0269185 -4.71923e-05 2.97451e-05)
(0.0341719 -0.000122607 -3.00333e-05)
(0.0265976 -4.47139e-05 3.08998e-05)
(0.0338003 -0.000122521 -2.63387e-05)
(0.0262987 -4.19456e-05 3.18079e-05)
(0.0334496 -0.000119892 -2.19958e-05)
(0.0260207 -3.94118e-05 3.24494e-05)
(0.033123 -0.000116644 -1.72578e-05)
(0.0257599 -3.71933e-05 3.23387e-05)
(0.0328149 -0.000113139 -1.29758e-05)
(0.0255142 -3.53115e-05 3.13893e-05)
(0.0325228 -0.000108566 -9.56641e-06)
(0.025282 -3.29528e-05 3.05133e-05)
(0.0322475 -0.000103351 -7.11014e-06)
(0.0319983 -9.69652e-05 -4.10868e-06)
(0.104477 -0.00113536 0.000348332)
(0.103567 -0.0012436 0.000315676)
(0.10918 -0.00114253 0.000383133)
(0.104524 -0.00110172 0.000410744)
(0.103543 -0.00118439 0.000382764)
(0.109352 -0.00111222 0.000434918)
(0.104552 -0.00106543 0.000458458)
(0.103514 -0.00112826 0.000433607)
(0.109506 -0.00107952 0.000475409)
(0.104567 -0.00102651 0.000492881)
(0.103483 -0.00107383 0.000469902)
(0.109647 -0.00104426 0.000505315)
(0.104571 -0.000987488 0.000515853)
(0.103449 -0.00102152 0.000493541)
(0.109775 -0.00100714 0.000525779)
(0.104565 -0.000947899 0.000529143)
(0.103414 -0.000973048 0.000506892)
(0.109892 -0.000970672 0.000537973)
(0.104553 -0.000906426 0.000534202)
(0.103379 -0.000925368 0.000511626)
(0.110001 -0.000932296 0.000543273)
(0.104534 -0.000865282 0.00053269)
(0.103342 -0.000878919 0.000509249)
(0.1101 -0.000893479 0.000542642)
(0.104511 -0.000824704 0.00052557)
(0.103306 -0.000835516 0.000501797)
(0.110193 -0.00085608 0.00053766)
(0.104483 -0.000783366 0.000512991)
(0.103266 -0.000794749 0.000489491)
(0.110278 -0.000821187 0.000529361)
(0.103228 -0.000753074 0.00047285)
(0.110359 -0.000784423 0.000516614)
(0.102648 -0.00128837 0.000354259)
(0.100542 -0.00127675 0.000352489)
(0.107773 -0.00137975 0.000326769)
(0.102551 -0.00120785 0.000408725)
(0.100377 -0.00118632 0.00039207)
(0.107818 -0.00129712 0.000373654)
(0.102463 -0.00113449 0.000447403)
(0.100235 -0.00110538 0.000418431)
(0.107867 -0.00122198 0.000407838)
(0.102383 -0.00106733 0.000472396)
(0.100112 -0.00103254 0.000433515)
(0.107922 -0.00115315 0.000430785)
(0.102312 -0.0010061 0.000486008)
(0.100006 -0.000968675 0.00043922)
(0.10798 -0.00109018 0.000444322)
(0.102247 -0.000949893 0.000490573)
(0.0999113 -0.000911784 0.000437543)
(0.108041 -0.00103192 0.000450571)
(0.102189 -0.000897379 0.000487871)
(0.0998284 -0.000859599 0.000430391)
(0.108105 -0.000977578 0.000450565)
(0.102134 -0.000848714 0.000479641)
(0.099752 -0.000811 0.000419045)
(0.108169 -0.000926934 0.00044505)
(0.102082 -0.000805118 0.000467091)
(0.0996816 -0.000767996 0.000405201)
(0.108233 -0.000882006 0.000435644)
(0.102032 -0.000764124 0.000450597)
(0.0996128 -0.000735399 0.000389326)
(0.108296 -0.000844986 0.000423884)
(0.0995446 -0.000696733 0.000370408)
(0.108358 -0.000805375 0.000409274)
(0.0983844 -0.00118094 0.000385408)
(0.0944935 -0.00105717 0.000331622)
(0.104155 -0.00134105 0.000323248)
(0.0981781 -0.00109022 0.00039816)
(0.0942247 -0.000977214 0.000327596)
(0.104095 -0.00124344 0.000329845)
(0.0980038 -0.00100971 0.000402192)
(0.0939954 -0.000910164 0.000319964)
(0.10406 -0.00115737 0.000330044)
(0.0978552 -0.000939962 0.000399066)
(0.0937922 -0.000851799 0.0003093)
(0.104046 -0.00108224 0.000324731)
(0.0977274 -0.000880383 0.000390092)
(0.0936161 -0.00080511 0.000295727)
(0.104048 -0.0010182 0.000316014)
(0.0976157 -0.000827607 0.000376946)
(0.0934482 -0.000760486 0.00027979)
(0.104062 -0.000960697 0.000304857)
(0.0975162 -0.000779021 0.000361738)
(0.0932957 -0.000716262 0.000264334)
(0.104087 -0.000906774 0.000291858)
(0.0974249 -0.000735491 0.000345534)
(0.0931495 -0.000674663 0.000250356)
(0.104116 -0.000857105 0.00027759)
(0.0973381 -0.000702608 0.000329177)
(0.0930167 -0.000640595 0.000235679)
(0.104148 -0.000816997 0.000262929)
(0.0972518 -0.000671253 0.000311898)
(0.0928791 -0.000620418 0.000221609)
(0.104181 -0.000789914 0.000248879)
(0.092747 -0.000586505 0.0002078)
(0.104212 -0.000750541 0.00023393)
(0.0910341 -0.000958729 0.000284901)
(0.0833195 -0.00075765 0.000181023)
(0.0975381 -0.00117805 0.000224963)
(0.0906988 -0.000888013 0.000259026)
(0.0828816 -0.000697905 0.000148851)
(0.0973587 -0.00109201 0.000186441)
(0.0904104 -0.000831864 0.000234595)
(0.0824824 -0.000655517 0.000120517)
(0.0972219 -0.00101761 0.000150878)
(0.0901556 -0.000786085 0.000212722)
(0.0821208 -0.00062759 9.7368e-05)
(0.0971148 -0.000955959 0.000119109)
(0.0899273 -0.00074796 0.00019369)
(0.081777 -0.000603121 8.01325e-05)
(0.0970273 -0.000907407 9.21586e-05)
(0.0897143 -0.000711867 0.000176785)
(0.0814565 -0.000578194 6.86526e-05)
(0.0969561 -0.000866803 7.10453e-05)
(0.0895114 -0.000672071 0.000161746)
(0.081145 -0.00054695 6.05944e-05)
(0.0968909 -0.000821456 5.51353e-05)
(0.0893185 -0.000633241 0.000148558)
(0.0808451 -0.000513691 5.42539e-05)
(0.0968367 -0.000776708 4.15526e-05)
(0.0891339 -0.000599882 0.000136647)
(0.0805566 -0.000483907 4.89289e-05)
(0.0967842 -0.000740524 2.91571e-05)
(0.0889537 -0.00057627 0.000125811)
(0.0802819 -0.000462123 4.38674e-05)
(0.0967375 -0.000711364 1.89726e-05)
(0.0887738 -0.000551695 0.000116364)
(0.0800031 -0.00045212 3.88084e-05)
(0.0966845 -0.000691561 1.05924e-05)
(0.0797365 -0.00042753 3.56555e-05)
(0.0966294 -0.000660672 4.90558e-06)
(0.0762609 -0.000479673 0.000101597)
(0.0599347 -0.000305203 -5.38277e-06)
(0.0841434 -0.000699846 2.2791e-05)
(0.0757707 -0.000436493 7.49777e-05)
(0.0594254 -0.000281968 -1.85039e-05)
(0.0838173 -0.000645108 -2.21052e-05)
(0.0753116 -0.000410698 5.52541e-05)
(0.0589344 -0.000265415 -2.3866e-05)
(0.0835123 -0.000602774 -5.5735e-05)
(0.0748743 -0.000395843 4.10434e-05)
(0.0584703 -0.000255066 -2.47493e-05)
(0.0832245 -0.000571903 -8.09197e-05)
(0.0744525 -0.000381566 3.16613e-05)
(0.0580227 -0.000245476 -2.35661e-05)
(0.0829461 -0.000546134 -9.77363e-05)
(0.074045 -0.000362449 2.63537e-05)
(0.0575978 -0.000234596 -2.1466e-05)
(0.0826772 -0.000520407 -0.000108615)
(0.073652 -0.000338964 2.40638e-05)
(0.0571922 -0.000220958 -1.71358e-05)
(0.0824135 -0.000493044 -0.000113916)
(0.073273 -0.000315116 2.34484e-05)
(0.0568055 -0.00020701 -1.1681e-05)
(0.0821502 -0.000466855 -0.000115414)
(0.0729064 -0.000297651 2.25841e-05)
(0.0564366 -0.00019505 -6.50661e-06)
(0.0818952 -0.000444044 -0.000114071)
(0.0725474 -0.000291627 1.98731e-05)
(0.0560816 -0.000185803 -2.50051e-06)
(0.0816469 -0.000427481 -0.000112492)
(0.0721906 -0.000283378 1.8103e-05)
(0.0557396 -0.000180284 -2.55803e-07)
(0.081394 -0.000417329 -0.000111706)
(0.055422 -0.000168065 3.68334e-06)
(0.0811477 -0.000395907 -0.000106031)
(0.0465111 -0.000171579 -0.000118598)
(0.0543449 -0.000289881 -0.000232613)
(0.0460021 -0.000188328 -0.000125628)
(0.0538351 -0.000306013 -0.000253856)
(0.0455112 -0.000200855 -0.000125895)
(0.0533259 -0.000315034 -0.000264481)
(0.045041 -0.000206608 -0.000121901)
(0.0528359 -0.000314574 -0.000266042)
(0.0445933 -0.000206224 -0.000115744)
(0.052355 -0.00030753 -0.00026253)
(0.0441692 -0.000202169 -0.000107521)
(0.0518974 -0.000297316 -0.000254761)
(0.0437709 -0.000197086 -9.75698e-05)
(0.0514546 -0.000285673 -0.000242337)
(0.0433949 -0.000192333 -8.7257e-05)
(0.051036 -0.000276714 -0.000227724)
(0.0430376 -0.000185823 -7.74687e-05)
(0.0506316 -0.000268683 -0.000212678)
(0.0427004 -0.000175819 -6.87227e-05)
(0.0502469 -0.000255282 -0.000197773)
(0.0423845 -0.000164611 -6.05895e-05)
(0.0498785 -0.000236501 -0.000183859)
(0.0495433 -0.000221483 -0.000170056)
(0.114448 -0.00106475 0.000440042)
(0.113787 -0.00122772 0.000360328)
(0.116685 -0.000916302 0.000406866)
(0.114738 -0.00103453 0.00046792)
(0.114037 -0.0011725 0.000391005)
(0.117032 -0.000888797 0.000422648)
(0.115014 -0.0010027 0.000489349)
(0.11428 -0.00111988 0.000414381)
(0.117365 -0.000860439 0.00043442)
(0.115277 -0.000969611 0.000504631)
(0.114516 -0.00106992 0.000430879)
(0.117684 -0.000831313 0.000442188)
(0.115529 -0.000935714 0.000514076)
(0.114747 -0.0010223 0.000441351)
(0.117991 -0.000801672 0.000446154)
(0.11577 -0.000901321 0.000518346)
(0.114971 -0.000976314 0.000446758)
(0.118286 -0.000771872 0.000446534)
(0.116001 -0.000866779 0.000518336)
(0.115188 -0.000932022 0.000447725)
(0.118569 -0.00074198 0.000443935)
(0.11622 -0.000833149 0.000514895)
(0.115397 -0.000890183 0.000444662)
(0.11884 -0.000712552 0.000438917)
(0.116432 -0.000803112 0.000509617)
(0.1156 -0.000852791 0.000438555)
(0.119101 -0.000684689 0.000432202)
(0.116634 -0.000773932 0.000501759)
(0.115798 -0.000823046 0.000431897)
(0.119353 -0.000660775 0.000425234)
(0.115988 -0.000788166 0.000421764)
(0.119594 -0.000633708 0.000414954)
(0.113383 -0.00133279 0.000313359)
(0.111789 -0.00138591 0.000268534)
(0.115777 -0.00121277 0.000222713)
(0.113587 -0.00125592 0.000338905)
(0.11195 -0.00129615 0.000280535)
(0.116057 -0.00114241 0.000239373)
(0.113791 -0.00118588 0.000356733)
(0.112119 -0.00121628 0.000286871)
(0.116331 -0.00107794 0.000250871)
(0.113995 -0.00112195 0.000367969)
(0.112293 -0.00114638 0.000288222)
(0.116601 -0.00101911 0.000257712)
(0.114198 -0.0010626 0.00037415)
(0.112471 -0.00108339 0.000286545)
(0.116866 -0.000964866 0.00026088)
(0.114398 -0.00100697 0.000376122)
(0.112652 -0.00102357 0.000283248)
(0.117126 -0.000913817 0.000261405)
(0.114594 -0.000955604 0.000373895)
(0.112834 -0.000967813 0.000277596)
(0.117379 -0.000866176 0.000259397)
(0.114787 -0.000910185 0.000368035)
(0.113014 -0.00091848 0.000268988)
(0.117625 -0.000823002 0.000254741)
(0.114976 -0.000873331 0.000360277)
(0.113191 -0.000879151 0.000258976)
(0.117866 -0.000785828 0.000248326)
(0.115162 -0.000838261 0.000350867)
(0.113365 -0.000849473 0.000249024)
(0.118101 -0.000756038 0.000241871)
(0.113536 -0.000808656 0.000238196)
(0.118329 -0.000720859 0.000234159)
(0.11042 -0.00135153 0.000233992)
(0.107392 -0.00129474 0.000159129)
(0.113049 -0.00126561 0.000103236)
(0.110547 -0.00125913 0.000227427)
(0.107479 -0.001206 0.000133579)
(0.113258 -0.00117943 9.17057e-05)
(0.110687 -0.00117943 0.000218095)
(0.10758 -0.00112963 0.000109392)
(0.113473 -0.00110413 7.94724e-05)
(0.110837 -0.00111055 0.000207052)
(0.107695 -0.0010689 8.67596e-05)
(0.113692 -0.00103943 6.70493e-05)
(0.110995 -0.00104762 0.000195681)
(0.107814 -0.00101308 6.74209e-05)
(0.113913 -0.000981468 5.50232e-05)
(0.111158 -0.00098816 0.000184536)
(0.107943 -0.000953944 5.26054e-05)
(0.114135 -0.000926017 4.41459e-05)
(0.111323 -0.000934105 0.000173192)
(0.108077 -0.000899874 3.9865e-05)
(0.114355 -0.00087479 3.44187e-05)
(0.111488 -0.000889988 0.000161642)
(0.10821 -0.000858417 2.78053e-05)
(0.114572 -0.000830884 2.52738e-05)
(0.11165 -0.000857217 0.000150198)
(0.108339 -0.000826266 1.75433e-05)
(0.114784 -0.000797264 1.69043e-05)
(0.111812 -0.000821904 0.000138733)
(0.108466 -0.000802954 7.99868e-06)
(0.114993 -0.000772218 9.92818e-06)
(0.108583 -0.000768293 1.97876e-07)
(0.115196 -0.000735401 4.01383e-06)
(0.104622 -0.00126106 9.19038e-05)
(0.0984776 -0.00108099 -2.01892e-05)
(0.107496 -0.00118593 -4.25135e-05)
(0.104665 -0.00117508 4.40916e-05)
(0.0984258 -0.00101056 -7.95283e-05)
(0.107631 -0.00110766 -9.69666e-05)
(0.104728 -0.00110122 2.73466e-06)
(0.0983964 -0.000949702 -0.000127054)
(0.107781 -0.0010409 -0.000142978)
(0.104807 -0.0010421 -3.27267e-05)
(0.0983734 -0.000897517 -0.000164241)
(0.107935 -0.000984436 -0.000180703)
(0.104893 -0.000992471 -6.15843e-05)
(0.0983606 -0.000854039 -0.000191728)
(0.108095 -0.000940871 -0.000211361)
(0.104987 -0.000939077 -8.28568e-05)
(0.0983482 -0.00081413 -0.000211464)
(0.108251 -0.000899807 -0.000234022)
(0.105088 -0.000884635 -9.85226e-05)
(0.0983376 -0.000771959 -0.000224528)
(0.10841 -0.000853484 -0.000249737)
(0.105192 -0.000842207 -0.000111336)
(0.0983251 -0.000733849 -0.000232178)
(0.108568 -0.000810886 -0.000260788)
(0.105293 -0.0008116 -0.000121471)
(0.0983108 -0.000703591 -0.000234794)
(0.108721 -0.000780982 -0.000269214)
(0.105386 -0.000787344 -0.000128593)
(0.0982941 -0.000678498 -0.000234758)
(0.108863 -0.00075821 -0.000274136)
(0.105474 -0.000762307 -0.000132511)
(0.0982707 -0.00065783 -0.000232844)
(0.109002 -0.000738414 -0.000273519)
(0.0982388 -0.000629267 -0.000226644)
(0.109127 -0.000709739 -0.000268321)
(0.0929352 -0.000814108 -0.000138614)
(0.0772139 -0.000592819 -0.00025975)
(0.0965317 -0.000755894 -0.000258205)
(0.0928207 -0.00076142 -0.000192002)
(0.0768861 -0.000567155 -0.000299768)
(0.096516 -0.000713226 -0.000322379)
(0.0927136 -0.000716547 -0.000231523)
(0.0765577 -0.000542746 -0.000325821)
(0.0965011 -0.000678639 -0.000370315)
(0.0926105 -0.000676941 -0.000259262)
(0.0762373 -0.000517869 -0.00034009)
(0.0964743 -0.000650492 -0.000404162)
(0.0925087 -0.000641482 -0.000277347)
(0.0759175 -0.000492645 -0.000346356)
(0.096444 -0.000624006 -0.000425655)
(0.092403 -0.000609795 -0.000287753)
(0.0756079 -0.000468279 -0.000345283)
(0.0964041 -0.000602013 -0.000437457)
(0.0922907 -0.000580999 -0.000291967)
(0.0752982 -0.000443895 -0.000336961)
(0.0963547 -0.000583158 -0.000441834)
(0.0921739 -0.000555481 -0.000291489)
(0.0749954 -0.000424442 -0.000326028)
(0.0962918 -0.000564284 -0.000440084)
(0.0920539 -0.000533019 -0.000287384)
(0.0746967 -0.000408713 -0.00031428)
(0.0962232 -0.000546289 -0.000435161)
(0.0919294 -0.000513365 -0.000281106)
(0.0744115 -0.000391191 -0.000300218)
(0.0961481 -0.000529929 -0.000425452)
(0.0917999 -0.000490815 -0.000271555)
(0.074126 -0.000370961 -0.00028508)
(0.0960645 -0.00051469 -0.000412682)
(0.0738578 -0.000349721 -0.000268585)
(0.0959711 -0.000491429 -0.000394731)
(0.063525 -0.000391836 -0.000409016)
(0.0687411 -0.000340153 -0.000489859)
(0.0630139 -0.000403436 -0.000435327)
(0.0682461 -0.0003615 -0.000530874)
(0.0625044 -0.000406152 -0.000447213)
(0.0677287 -0.000376357 -0.000553772)
(0.0620002 -0.000400551 -0.00044832)
(0.067211 -0.000382829 -0.000562145)
(0.061504 -0.000390012 -0.000441921)
(0.066685 -0.000383044 -0.000560687)
(0.0610189 -0.00037688 -0.000428427)
(0.0661673 -0.000378576 -0.000551062)
(0.0605485 -0.000364225 -0.000409774)
(0.0656536 -0.000372065 -0.000533747)
(0.0600934 -0.000353128 -0.000388978)
(0.065157 -0.000363945 -0.0005119)
(0.0596538 -0.000339677 -0.000367126)
(0.0646706 -0.000353583 -0.000487377)
(0.0592308 -0.000320759 -0.000344869)
(0.0642085 -0.000338948 -0.00046166)
(0.0588257 -0.000300918 -0.000323189)
(0.0637576 -0.000320249 -0.000435734)
(0.0633379 -0.000303885 -0.00041046)
(0.119404 -0.000747306 0.000398374)
(0.118809 -0.000910761 0.000274382)
(0.119797 -0.000721708 0.000397208)
(0.119189 -0.000867861 0.000275857)
(0.120177 -0.000696095 0.00039458)
(0.119556 -0.000827378 0.0002756)
(0.120542 -0.000670501 0.000390419)
(0.119912 -0.00078916 0.000273652)
(0.120895 -0.000645003 0.000384788)
(0.120257 -0.000752852 0.000270217)
(0.121234 -0.000619747 0.000377858)
(0.12059 -0.000718044 0.000265577)
(0.121561 -0.000595044 0.000369909)
(0.120912 -0.000684878 0.000259873)
(0.121875 -0.00057144 0.000361338)
(0.121223 -0.000654043 0.00025324)
(0.122179 -0.000549835 0.000352783)
(0.121523 -0.000626274 0.000246108)
(0.122473 -0.000528123 0.000343273)
(0.121816 -0.000602298 0.000239529)
(0.122097 -0.000574675 0.000231898)
(0.118599 -0.00102966 0.00015328)
(0.117142 -0.00110058 6.04994e-05)
(0.119634 -0.00086308 3.48644e-05)
(0.118953 -0.000972316 0.000155268)
(0.117474 -0.00103429 5.25906e-05)
(0.12003 -0.000817328 3.64794e-05)
(0.119297 -0.000919629 0.00015532)
(0.117798 -0.000974882 4.45223e-05)
(0.120414 -0.000775121 3.70281e-05)
(0.119632 -0.000871031 0.00015379)
(0.118117 -0.000921746 3.65308e-05)
(0.120786 -0.000736134 3.66754e-05)
(0.119958 -0.000825651 0.00015115)
(0.118428 -0.000873157 2.9089e-05)
(0.121146 -0.000699794 3.57222e-05)
(0.120274 -0.000783104 0.000147615)
(0.118731 -0.000827286 2.24923e-05)
(0.121495 -0.000665518 3.44208e-05)
(0.12058 -0.000743968 0.000143095)
(0.119025 -0.00078478 1.63862e-05)
(0.121832 -0.000633448 3.27661e-05)
(0.120876 -0.00070911 0.000137769)
(0.119311 -0.000747502 1.02487e-05)
(0.122157 -0.000604259 3.06557e-05)
(0.121165 -0.000679002 0.000132623)
(0.119589 -0.000716221 4.50443e-06)
(0.122471 -0.000578378 2.83748e-05)
(0.121447 -0.000649137 0.000127935)
(0.119861 -0.000689992 8.62684e-07)
(0.122777 -0.000555837 2.66468e-05)
(0.120124 -0.000657558 -1.01649e-06)
(0.123072 -0.000529546 2.51481e-05)
(0.116064 -0.00110478 -3.79627e-05)
(0.113305 -0.00107158 -0.000139474)
(0.117169 -0.000957015 -0.00019501)
(0.116367 -0.00103654 -5.54664e-05)
(0.113582 -0.00100918 -0.000173092)
(0.117518 -0.000904638 -0.000207847)
(0.116666 -0.00097666 -7.10865e-05)
(0.113853 -0.000955046 -0.000200867)
(0.117857 -0.000858175 -0.000218506)
(0.116961 -0.000923443 -8.45319e-05)
(0.114121 -0.000908755 -0.000223344)
(0.118189 -0.000816939 -0.000226875)
(0.117251 -0.000874299 -9.55935e-05)
(0.114381 -0.000866929 -0.000240092)
(0.118511 -0.000779174 -0.000232903)
(0.117533 -0.000828425 -0.000104521)
(0.114636 -0.000826286 -0.00025173)
(0.118824 -0.000743178 -0.000236698)
(0.117807 -0.000787656 -0.000111981)
(0.114882 -0.000788189 -0.000259818)
(0.119127 -0.000709652 -0.000238637)
(0.118074 -0.000753713 -0.000118212)
(0.115119 -0.000757569 -0.000266344)
(0.119419 -0.000680565 -0.000239196)
(0.118336 -0.000726424 -0.000122688)
(0.115346 -0.000734065 -0.000270286)
(0.119703 -0.000656302 -0.000238465)
(0.118593 -0.000698399 -0.000124679)
(0.115566 -0.000711018 -0.000269314)
(0.119979 -0.00063528 -0.000237017)
(0.115779 -0.000680043 -0.000264136)
(0.120245 -0.000607808 -0.000232845)
(0.110732 -0.00105125 -0.000231755)
(0.105278 -0.000894513 -0.000330234)
(0.111914 -0.000903416 -0.000405608)
(0.110983 -0.000993522 -0.000284474)
(0.105451 -0.000853151 -0.000395702)
(0.11221 -0.000868338 -0.00045017)
(0.11123 -0.000944351 -0.000327224)
(0.105614 -0.00081924 -0.000446564)
(0.112498 -0.000838714 -0.000485337)
(0.111471 -0.000902728 -0.00036067)
(0.105763 -0.000790012 -0.000483876)
(0.112774 -0.000812894 -0.000511527)
(0.111706 -0.000866882 -0.000385586)
(0.105902 -0.000763946 -0.00050918)
(0.11304 -0.000790694 -0.000529598)
(0.111935 -0.000833108 -0.000402762)
(0.106027 -0.00074079 -0.000525055)
(0.113294 -0.000769368 -0.000540696)
(0.112154 -0.000799837 -0.000413494)
(0.106142 -0.000720174 -0.000534005)
(0.113539 -0.000746734 -0.000545864)
(0.112363 -0.000770738 -0.000419701)
(0.106243 -0.00069823 -0.000535159)
(0.11377 -0.000724258 -0.000545702)
(0.112563 -0.000749042 -0.000422626)
(0.106335 -0.000679817 -0.000532025)
(0.113991 -0.000706605 -0.000541487)
(0.112752 -0.000728799 -0.000420377)
(0.106411 -0.000663559 -0.000524349)
(0.114198 -0.000692914 -0.000534542)
(0.112933 -0.000702006 -0.000411623)
(0.106482 -0.000645724 -0.000512222)
(0.114397 -0.000676771 -0.000524379)
(0.106538 -0.000620162 -0.000494413)
(0.114585 -0.000651361 -0.000507951)
(0.100469 -0.000679016 -0.000445116)
(0.0865798 -0.000520995 -0.000506929)
(0.102015 -0.000570532 -0.000583916)
(0.100563 -0.000656004 -0.000504044)
(0.0863686 -0.000518566 -0.000558277)
(0.102153 -0.000574485 -0.000635828)
(0.100636 -0.000638312 -0.000546881)
(0.0861337 -0.000516987 -0.000592647)
(0.102265 -0.000580025 -0.000673358)
(0.100691 -0.000622511 -0.000575219)
(0.0858779 -0.000513944 -0.000612798)
(0.102351 -0.000584199 -0.000697357)
(0.100728 -0.000607709 -0.000591368)
(0.0856084 -0.000508309 -0.0006216)
(0.102415 -0.000585213 -0.000709592)
(0.10075 -0.000595734 -0.00059838)
(0.0853274 -0.000500196 -0.00062045)
(0.102459 -0.000583624 -0.000712172)
(0.100756 -0.000584823 -0.000597611)
(0.0850418 -0.000491763 -0.000611674)
(0.102487 -0.000581042 -0.000707616)
(0.100749 -0.000573836 -0.000591259)
(0.0847545 -0.000480518 -0.000596467)
(0.102498 -0.000575087 -0.000695969)
(0.100729 -0.000562398 -0.00058044)
(0.0844688 -0.000467943 -0.000578367)
(0.102497 -0.000567885 -0.000680488)
(0.100696 -0.000549026 -0.000564422)
(0.084189 -0.000452635 -0.000556987)
(0.102481 -0.000557396 -0.000660505)
(0.100653 -0.00053159 -0.000543352)
(0.083914 -0.000435141 -0.000532486)
(0.102458 -0.000546016 -0.00063627)
(0.0836455 -0.000416055 -0.000505661)
(0.102422 -0.000528386 -0.000607835)
(0.0741487 -0.000374372 -0.000604436)
(0.0769026 -0.000368687 -0.000657622)
(0.0736471 -0.000400329 -0.00064268)
(0.0764293 -0.000411575 -0.000701516)
(0.0731211 -0.000418373 -0.000663087)
(0.0759182 -0.000440266 -0.000725515)
(0.0725788 -0.00042887 -0.000670136)
(0.075383 -0.000458735 -0.000735203)
(0.0720282 -0.000432552 -0.000666712)
(0.0748329 -0.000468417 -0.000733761)
(0.071477 -0.000431015 -0.000654706)
(0.0742765 -0.000470261 -0.000723671)
(0.0709323 -0.000424833 -0.000635567)
(0.0737218 -0.000465472 -0.000706713)
(0.0704008 -0.000413268 -0.000611008)
(0.0731766 -0.00045496 -0.000683596)
(0.0698868 -0.000397268 -0.000583559)
(0.0726435 -0.00043836 -0.000656597)
(0.0693922 -0.000378705 -0.000555032)
(0.0721314 -0.000418905 -0.000627727)
(0.0689171 -0.000360349 -0.000526017)
(0.0716349 -0.000398917 -0.000598025)
(0.0711637 -0.000380359 -0.000566795)
(0.121107 -0.000644408 -8.58757e-05)
(0.119662 -0.000712211 -0.000228935)
(0.121254 -0.000457087 -0.00023958)
(0.121534 -0.000614213 -8.57476e-05)
(0.120076 -0.000681011 -0.000232477)
(0.121699 -0.000437373 -0.000232232)
(0.121947 -0.000586067 -8.5631e-05)
(0.120475 -0.000652373 -0.000234756)
(0.122128 -0.000418797 -0.000225089)
(0.122346 -0.00055965 -8.54128e-05)
(0.120861 -0.000625874 -0.000235712)
(0.122542 -0.000401201 -0.000218102)
(0.12273 -0.000534685 -8.50176e-05)
(0.121233 -0.000600907 -0.000235398)
(0.122942 -0.000384432 -0.000211212)
(0.1231 -0.000511108 -8.44272e-05)
(0.121592 -0.000576957 -0.000233943)
(0.123326 -0.000368376 -0.000204386)
(0.123457 -0.000489131 -8.36682e-05)
(0.121937 -0.000554256 -0.000231478)
(0.123696 -0.0003531 -0.000197669)
(0.1238 -0.000468988 -8.27352e-05)
(0.122269 -0.000533497 -0.000228164)
(0.124053 -0.00033881 -0.000191162)
(0.124132 -0.000450733 -8.15759e-05)
(0.122589 -0.000514834 -0.000224163)
(0.124396 -0.000325632 -0.000184926)
(0.124453 -0.000432167 -7.98809e-05)
(0.122899 -0.000497973 -0.00021998)
(0.124728 -0.000313635 -0.000179027)
(0.123197 -0.0004772 -0.000213582)
(0.125047 -0.000299879 -0.000172078)
(0.118671 -0.000748115 -0.000372271)
(0.115979 -0.000728326 -0.000505134)
(0.118837 -0.000580692 -0.000563541)
(0.119058 -0.000718358 -0.000377968)
(0.116338 -0.000710756 -0.000519857)
(0.119234 -0.000564864 -0.000554413)
(0.119431 -0.000691233 -0.000381094)
(0.116682 -0.000694598 -0.000529242)
(0.119617 -0.000549798 -0.000543992)
(0.119791 -0.000666044 -0.000381766)
(0.117012 -0.000679309 -0.000533677)
(0.119986 -0.000535192 -0.000532338)
(0.120138 -0.000641969 -0.000380251)
(0.117327 -0.000663921 -0.000533841)
(0.120342 -0.000520667 -0.000519554)
(0.120472 -0.000618778 -0.000376807)
(0.117629 -0.000647561 -0.000530511)
(0.120685 -0.000505895 -0.000505829)
(0.120793 -0.000597166 -0.00037168)
(0.117916 -0.000630925 -0.000524058)