/*--------------------------------*- C++ -*----------------------------------*\
| =========                 |                                                 |
| \\      /  F ield         | OpenFOAM: The Open Source CFD Toolbox           |
|  \\    /   O peration     | Version:  2212                                  |
|   \\  /    A nd           | Website:  www.openfoam.com                      |
|    \\/     M anipulation  |                                                 |
\*---------------------------------------------------------------------------*/
FoamFile
{
    version     2.0;
    format      ascii;
    arch        "LSB;label=32;scalar=64";
    class       volVectorField;
    location    "1.9";
    object      U;
}
// * * * * * * * * * * * * * * * * * * * * * * * * * * * * * * * * * * * * * //

dimensions      [0 1 -1 0 0 0 0];

internalField   nonuniform List<vector> 
678
(
(0.0218411 -7.34163e-06 3.30747e-05)
(0.02163 -7.25613e-06 3.03711e-05)
(0.0214359 -8.78695e-06 2.69181e-05)
(0.0212306 -1.30293e-05 2.22845e-05)
(0.0210613 -1.50029e-05 1.36861e-05)
(0.0207081 -2.55726e-05 7.37242e-06)
(0.0369607 -0.000168159 4.24965e-05)
(0.0366249 -0.000157046 3.30818e-05)
(0.0363134 -0.000151653 2.34364e-05)
(0.0359922 -0.000152899 1.36331e-05)
(0.0357181 -0.000145395 3.44442e-06)
(0.0352037 -0.000155845 -9.77323e-06)
(0.0511626 -0.000361386 -5.02811e-05)
(0.050676 -0.000344859 -5.85442e-05)
(0.0502144 -0.000327581 -6.74849e-05)
(0.0497486 -0.00031268 -7.39092e-05)
(0.0493583 -0.000287402 -8.04245e-05)
(0.0486889 -0.000280778 -7.94206e-05)
(0.0589333 -0.00058056 -0.000178956)
(0.0583939 -0.00054912 -0.000175941)
(0.0578563 -0.000510591 -0.000171231)
(0.0574096 -0.000463108 -0.000164447)
(0.0566714 -0.000421893 -0.000148122)
(0.0633558 -0.000829075 -0.00030994)
(0.0627761 -0.000745542 -0.0002913)
(0.062218 -0.000662315 -0.000271702)
(0.0617561 -0.000582585 -0.000247211)
(0.0610114 -0.000504103 -0.000214073)
(0.0637052 -0.000725923 -0.000354393)
(0.0631698 -0.000628382 -0.000324564)
(0.0627067 -0.000544936 -0.000288734)
(0.0619844 -0.000464439 -0.000244448)
(0.0611616 -0.000462273 -0.000281923)
(0.0606624 -0.000441734 -0.000268782)
(0.0602132 -0.000414763 -0.000238539)
(0.0595201 -0.000369627 -0.000192628)
(0.0552685 -0.0003248 -0.000165856)
(0.0547949 -0.000319898 -0.000154067)
(0.0543781 -0.000297078 -0.000127702)
(0.0537459 -0.000264679 -0.000113623)
(0.0462327 -0.000197457 -9.61055e-05)
(0.0458456 -0.000190014 -8.44525e-05)
(0.0455091 -0.000165489 -6.90263e-05)
(0.0449623 -0.000155591 -8.01764e-05)
(0.034506 -7.54626e-05 -5.02116e-06)
(0.0342067 -7.26761e-05 -1.98577e-06)
(0.0339213 -7.18282e-05 -6.57227e-06)
(0.0336846 -6.32688e-05 -1.81445e-05)
(0.0332338 -6.88488e-05 -4.09792e-05)
(0.0216271 -3.17559e-05 -6.66357e-06)
(0.0214271 -3.01297e-05 -6.68863e-06)
(0.0212203 -2.8385e-05 -1.00075e-05)
(0.0210477 -2.09769e-05 -1.20906e-05)
(0.020674 -1.32115e-05 -2.37308e-05)
(0.0345159 -1.58819e-06 7.15592e-05)
(0.0342406 -2.42575e-06 6.99756e-05)
(0.0339614 -1.18746e-05 7.09229e-05)
(0.0337247 -2.37261e-05 6.27386e-05)
(0.0332919 -4.26199e-05 6.4599e-05)
(0.0663423 -0.000308691 0.000158918)
(0.0658636 -0.000310897 0.000160115)
(0.0654048 -0.000313152 0.0001606)
(0.0649483 -0.000314756 0.000156431)
(0.064576 -0.000320358 0.000148464)
(0.0639385 -0.000333049 0.000134518)
(0.0878422 -0.000760103 6.22457e-05)
(0.0874902 -0.000756566 6.7199e-05)
(0.0871165 -0.000753467 7.11541e-05)
(0.0868044 -0.000742011 7.11494e-05)
(0.0862638 -0.000693246 6.32972e-05)
(0.0981844 -0.0010335 -0.000128717)
(0.0979528 -0.00102244 -0.000109793)
(0.0977104 -0.001016 -9.1238e-05)
(0.0974942 -0.000994583 -7.45697e-05)
(0.0971324 -0.000913765 -5.86373e-05)
(0.102646 -0.00120825 -0.000234728)
(0.102503 -0.00118391 -0.000216836)
(0.102352 -0.00116193 -0.000197686)
(0.102207 -0.00112074 -0.000175472)
(0.10197 -0.00102776 -0.000148904)
(0.103349 -0.00116411 -0.000285763)
(0.103269 -0.00114504 -0.000285051)
(0.103174 -0.00111166 -0.000280694)
(0.10309 -0.00106237 -0.000269326)
(0.102949 -0.000989592 -0.000250651)
(0.101205 -0.000924841 -0.000374692)
(0.101131 -0.000917529 -0.000389865)
(0.101051 -0.000896427 -0.000397315)
(0.100984 -0.000860625 -0.000395213)
(0.100876 -0.000788711 -0.000375497)
(0.0957457 -0.000652536 -0.000497875)
(0.0955862 -0.000639345 -0.000500885)
(0.095448 -0.000627233 -0.000507735)
(0.0952055 -0.000587872 -0.000490747)
(0.084874 -0.000421053 -0.000526602)
(0.0845282 -0.000420824 -0.000533138)
(0.084213 -0.00042131 -0.000544139)
(0.0836922 -0.000401804 -0.000535883)
(0.0653915 -0.00015826 -0.00029996)
(0.0649229 -0.000163517 -0.000310484)
(0.0645209 -0.000163269 -0.000322534)
(0.0638619 -0.000153734 -0.000340337)
(0.0366438 -3.65177e-05 -0.000159548)
(0.0363111 -3.46751e-05 -0.000155961)
(0.0359783 -3.05452e-05 -0.000155033)
(0.0356963 -2.18109e-05 -0.00014415)
(0.0351576 -7.62676e-06 -0.000156662)
(0.0462804 -7.8926e-05 0.000185133)
(0.0459084 -7.02319e-05 0.00017634)
(0.0455915 -6.4066e-05 0.000158139)
(0.0450561 -7.76636e-05 0.000150853)
(0.0852659 -0.000528462 0.000419467)
(0.0849215 -0.000536242 0.000422716)
(0.0845515 -0.000545872 0.000426841)
(0.0842445 -0.0005462 0.000419694)
(0.0837283 -0.000518404 0.000382571)
(0.106502 -0.00106188 0.000375403)
(0.106494 -0.00106556 0.000379776)
(0.106473 -0.00106864 0.00038491)
(0.106441 -0.00105635 0.00038234)
(0.106369 -0.000972418 0.000346265)
(0.115825 -0.00127205 0.000100604)
(0.115971 -0.00126493 0.000112255)
(0.116119 -0.00125079 0.000125106)
(0.116242 -0.00121747 0.000135452)
(0.116421 -0.00113468 0.000134895)
(0.11974 -0.00133974 -0.000111066)
(0.119962 -0.00132485 -9.83179e-05)
(0.120187 -0.00129841 -8.32045e-05)
(0.120381 -0.00125404 -6.68899e-05)
(0.120664 -0.00116103 -5.23168e-05)
(0.12055 -0.00122889 -0.000319617)
(0.120819 -0.00121045 -0.000313718)
(0.121087 -0.00117997 -0.000304917)
(0.121327 -0.00112912 -0.000290188)
(0.121674 -0.00103706 -0.000269647)
(0.119129 -0.000961844 -0.000582197)
(0.119412 -0.000949834 -0.000584715)
(0.119692 -0.000927846 -0.000581234)
(0.119944 -0.00089256 -0.000569837)
(0.120303 -0.000824631 -0.000541229)
(0.115176 -0.000667691 -0.000882381)
(0.115393 -0.000663724 -0.000885472)
(0.115603 -0.000654324 -0.000884364)
(0.11579 -0.000635069 -0.000873829)
(0.116059 -0.000584912 -0.000822857)
(0.106489 -0.000381834 -0.00105842)
(0.106494 -0.000391643 -0.00106936)
(0.106472 -0.000394524 -0.00106831)
(0.106454 -0.000388123 -0.00105078)
(0.106395 -0.000361401 -0.000984645)
(0.0874631 -7.35863e-05 -0.000748625)
(0.0871121 -8.33154e-05 -0.000748979)
(0.0867913 -8.88736e-05 -0.000742902)
(0.0862463 -8.82136e-05 -0.000709594)
(0.0507124 5.30815e-05 -0.000343267)
(0.0502281 4.69286e-05 -0.000342203)
(0.0497518 4.43012e-05 -0.000331382)
(0.0493386 5.03897e-05 -0.000297136)
(0.0486507 5.28685e-05 -0.000284343)
(0.0553267 -0.000154745 0.000316677)
(0.0548536 -0.000136598 0.000305583)
(0.0544565 -0.000115402 0.000283566)
(0.0538302 -0.000109188 0.000255858)
(0.0957731 -0.00048946 0.000634158)
(0.0956117 -0.000505839 0.000632675)
(0.0954575 -0.000513581 0.000624092)
(0.0952101 -0.000480877 0.000569431)
(0.115165 -0.000877359 0.000654247)
(0.115378 -0.000886452 0.000651446)
(0.115589 -0.000889529 0.000643669)
(0.11577 -0.000880633 0.000626407)
(0.116035 -0.000827874 0.000578122)
(0.123682 -0.000976508 0.000340974)
(0.124026 -0.000973234 0.000341257)
(0.12437 -0.000969353 0.000342996)
(0.124679 -0.00095429 0.000340412)
(0.125122 -0.000908327 0.000327414)
(0.127395 -0.000968497 5.50803e-05)
(0.127783 -0.000956466 5.9186e-05)
(0.128169 -0.000942049 6.38001e-05)
(0.128519 -0.000915959 6.75037e-05)
(0.129014 -0.000868572 7.00155e-05)
(0.128352 -0.000828919 -0.000250821)
(0.12876 -0.000815219 -0.000248186)
(0.129165 -0.000798518 -0.000244624)
(0.129534 -0.000770854 -0.000237096)
(0.130052 -0.000728252 -0.000226494)
(0.126814 -0.000614413 -0.000606654)
(0.127226 -0.000606963 -0.000606551)
(0.127628 -0.000598851 -0.00060598)
(0.128026 -0.000584571 -0.000599876)
(0.12839 -0.000561943 -0.000585621)
(0.128901 -0.000529641 -0.000562229)
(0.123687 -0.000353236 -0.000973101)
(0.124035 -0.000350236 -0.000970016)
(0.124379 -0.00034731 -0.000965905)
(0.12469 -0.000340318 -0.000949447)
(0.125133 -0.000325631 -0.000906131)
(0.115829 -0.000110167 -0.00126404)
(0.115983 -0.000118118 -0.00125947)
(0.116125 -0.000126299 -0.00124332)
(0.116257 -0.000134949 -0.00121393)
(0.116437 -0.000138761 -0.00114688)
(0.0981807 0.000119057 -0.00102254)
(0.0979512 9.75979e-05 -0.00102674)
(0.097707 7.6831e-05 -0.00102301)
(0.097492 5.73607e-05 -0.00099564)
(0.0971309 3.7441e-05 -0.000933094)
(0.058959 0.000166282 -0.000581432)
(0.0584037 0.000148682 -0.000557933)
(0.0578787 0.000135164 -0.000521029)
(0.0574163 0.000127488 -0.000469118)
(0.0566772 0.000115957 -0.000422709)
(0.0617361 -0.00028929 0.000485332)
(0.061229 -0.000283237 0.000461573)
(0.0607281 -0.000265002 0.000436116)
(0.0602802 -0.000233166 0.000405398)
(0.0595917 -0.000189185 0.000360706)
(0.101211 -0.000372044 0.000915367)
(0.10114 -0.000389173 0.000903914)
(0.101059 -0.000400021 0.000882274)
(0.100991 -0.000401045 0.00084942)
(0.100876 -0.000379572 0.000778965)
(0.118831 -0.000577941 0.000964064)
(0.119118 -0.000588724 0.000957992)
(0.119396 -0.000591602 0.000944911)
(0.119674 -0.000587645 0.000920839)
(0.119925 -0.000575206 0.000884874)
(0.120284 -0.000542715 0.000815337)
(0.126805 -0.000611754 0.000599699)
(0.127214 -0.000609461 0.000594761)
(0.127617 -0.000606405 0.000591633)
(0.128017 -0.000598919 0.000582016)
(0.128382 -0.000583684 0.000562801)
(0.128893 -0.000558906 0.000532327)
(0.130429 -0.000569694 0.000236312)
(0.130873 -0.000562771 0.000236926)
(0.131308 -0.000553858 0.000237951)
(0.131738 -0.000541727 0.000236133)
(0.132137 -0.000524184 0.000230452)
(0.132672 -0.00050106 0.000221584)
(0.131462 -0.000429509 -0.000148822)
(0.131913 -0.000422562 -0.000147668)
(0.132356 -0.000414335 -0.000145962)
(0.132794 -0.000402634 -0.000142429)
(0.133204 -0.000388377 -0.000137575)
(0.13375 -0.000380767 -0.000134867)
(0.130431 -0.000248152 -0.000561423)
(0.130872 -0.000244679 -0.000559001)
(0.131306 -0.00024012 -0.000555123)
(0.131735 -0.000234125 -0.000545958)
(0.132134 -0.000225814 -0.000529963)
(0.132669 -0.00021556 -0.000507711)
(0.127001 -6.2528e-05 -0.000972707)
(0.127395 -6.36557e-05 -0.000965685)
(0.127782 -6.33377e-05 -0.000959566)
(0.128166 -6.38777e-05 -0.000944505)
(0.128516 -6.48551e-05 -0.000916809)
(0.129006 -6.62424e-05 -0.000870562)
(0.119509 0.00011156 -0.00134658)
(0.11974 0.000103388 -0.00133883)
(0.119967 9.40808e-05 -0.00132213)
(0.120189 8.17453e-05 -0.00129273)
(0.12039 6.7818e-05 -0.00125247)
(0.120667 5.31233e-05 -0.00117338)
(0.102791 0.000236068 -0.00122723)
(0.102655 0.000220676 -0.00120849)
(0.102514 0.000204297 -0.00119668)
(0.10235 0.000184573 -0.00116964)
(0.102209 0.000160365 -0.00111905)
(0.10197 0.000134892 -0.00103985)
(0.0633878 0.000291243 -0.000834639)
(0.0628039 0.000263343 -0.000749156)
(0.0622631 0.000236939 -0.000660406)
(0.0617936 0.000210886 -0.000577733)
(0.0610599 0.000181444 -0.00049719)
(0.0643545 -0.000388305 0.000823266)
(0.0637814 -0.000364723 0.000733848)
(0.0632292 -0.000332518 0.000632063)
(0.0627757 -0.000293081 0.000543797)
(0.06205 -0.000247651 0.000460036)
(0.10334 -0.000287385 0.00115744)
(0.10326 -0.000283399 0.0011316)
(0.103171 -0.000282763 0.00110613)
(0.103085 -0.000275921 0.00106048)
(0.102947 -0.000252504 0.000971613)
(0.119995 -0.000326626 0.00124077)
(0.12027 -0.000329912 0.00124157)
(0.120543 -0.000326716 0.0012346)
(0.12081 -0.000317754 0.00121197)
(0.12108 -0.000307414 0.00117799)
(0.121316 -0.000293198 0.00112821)
(0.121662 -0.000271481 0.00103741)
(0.127523 -0.000260069 0.000836945)
(0.127938 -0.000260063 0.00083296)
(0.128347 -0.000257653 0.000829508)
(0.128751 -0.00025234 0.000820804)
(0.129154 -0.000244775 0.000803109)
(0.129522 -0.000234498 0.00077474)
(0.130034 -0.000222098 0.000732083)
(0.131005 -0.000148848 0.000417429)
(0.131462 -0.000149535 0.000417244)
(0.131909 -0.000148491 0.000419147)
(0.13235 -0.00014533 0.000418006)
(0.132787 -0.000140558 0.000410606)
(0.133195 -0.000135116 0.000398781)
(0.133738 -0.000132029 0.000391896)
(0.132495 -2.18768e-06 -2.94232e-06)
(0.132952 -1.16174e-06 -2.6854e-07)
(0.133403 5.82321e-07 2.06614e-06)
(0.133852 2.14151e-06 3.32542e-06)
(0.13426 2.79628e-06 3.68651e-06)
(0.134839 2.94053e-06 3.49554e-06)
(0.131456 0.000143393 -0.000421869)
(0.131904 0.000143352 -0.000417826)
(0.132346 0.000143987 -0.000413565)
(0.132785 0.000142873 -0.000404514)
(0.133195 0.000140004 -0.000391705)
(0.133741 0.000138577 -0.000384759)
(0.127935 0.000248447 -0.000833245)
(0.128344 0.000247653 -0.000824254)
(0.128749 0.000248488 -0.000816534)
(0.129153 0.000246169 -0.00080025)
(0.129522 0.00023894 -0.000772223)
(0.130036 0.000228046 -0.000729869)
(0.120278 0.000313004 -0.00123753)
(0.120547 0.000313137 -0.00122649)
(0.120816 0.000311642 -0.00120656)
(0.121083 0.000306114 -0.00117367)
(0.121323 0.000293451 -0.00112437)
(0.121665 0.00027214 -0.00103614)
(0.103443 0.000274229 -0.00118736)
(0.10336 0.000270609 -0.00116466)
(0.10328 0.000272149 -0.00114724)
(0.103179 0.000270666 -0.0011151)
(0.103091 0.000258502 -0.00105975)
(0.102943 0.000238954 -0.00098546)
(0.0649166 0.00038099 -0.000872292)
(0.0643243 0.000364801 -0.000826072)
(0.063754 0.000328533 -0.000726784)
(0.0632293 0.000290021 -0.000618691)
(0.0627739 0.000251468 -0.000531218)
(0.0620683 0.000211212 -0.000451028)
(0.0640405 -0.000327847 0.000901529)
(0.0634249 -0.000316225 0.000830526)
(0.0628407 -0.000301035 0.000742818)
(0.0622942 -0.000280391 0.000656653)
(0.0618207 -0.000252259 0.000578458)
(0.0610793 -0.000219055 0.000501311)
(0.102793 -0.000256801 0.00121569)
(0.102653 -0.000241414 0.00119935)
(0.10251 -0.000223831 0.00118888)
(0.102345 -0.000203796 0.00116278)
(0.102204 -0.000180821 0.00111362)
(0.101964 -0.00015616 0.00103331)
(0.119505 -0.00012764 0.00133906)
(0.119731 -0.000114852 0.00133409)
(0.119956 -9.89698e-05 0.0013188)
(0.120176 -8.28052e-05 0.00129037)
(0.120374 -6.81982e-05 0.0012507)
(0.120647 -5.42159e-05 0.0011704)
(0.126991 5.2508e-05 0.000962874)
(0.127381 5.5722e-05 0.000959116)
(0.127766 6.0534e-05 0.00095723)
(0.12815 6.53397e-05 0.000944733)
(0.128499 6.88845e-05 0.000918458)
(0.128986 7.14827e-05 0.000872449)
(0.130414 0.00024308 0.000558773)
(0.130852 0.000240095 0.000555642)
(0.131285 0.000238168 0.000553226)
(0.131714 0.000234873 0.000545906)
(0.132113 0.000228506 0.000531326)
(0.132645 0.000219544 0.000509951)
(0.131449 0.000420103 0.00014841)
(0.131896 0.000417076 0.000147307)
(0.132337 0.000414277 0.000146428)
(0.132774 0.00040678 0.000143999)
(0.133182 0.000395158 0.000140267)
(0.133727 0.000388625 0.000138244)
(0.130423 0.000555121 -0.000239414)
(0.130862 0.000553864 -0.000238366)
(0.131294 0.000552821 -0.000237528)
(0.131723 0.000546299 -0.000234226)
(0.132122 0.000532144 -0.000227342)
(0.132656 0.000510681 -0.000217754)
(0.126809 0.000594966 -0.000601919)
(0.127213 0.000596635 -0.000596104)
(0.127614 0.00060111 -0.000592686)
(0.128014 0.000599877 -0.000582973)
(0.128379 0.000588208 -0.00056318)
(0.128886 0.000565193 -0.000531968)
(0.118847 0.00056455 -0.000967879)
(0.119124 0.000573287 -0.00095885)
(0.119402 0.000579143 -0.000944157)
(0.119678 0.000579131 -0.000919785)
(0.119928 0.000568726 -0.000883917)
(0.120279 0.000537932 -0.000815177)
(0.101297 0.000349552 -0.000937758)
(0.101224 0.000357557 -0.000919744)
(0.101151 0.000374949 -0.000912944)
(0.101059 0.00038662 -0.000896481)
(0.100984 0.000381854 -0.000857086)
(0.10086 0.000359325 -0.000782979)
(0.0622174 0.000292816 -0.000530474)
(0.0617173 0.000274985 -0.000488875)
(0.0612164 0.000253092 -0.000453432)
(0.0607351 0.000228781 -0.000423476)
(0.0603004 0.000198196 -0.000394202)
(0.0596353 0.000162294 -0.000353963)
(0.0595518 -0.000192458 0.000599487)
(0.0590016 -0.000188107 0.000574575)
(0.0584596 -0.000184765 0.000540852)
(0.0579406 -0.000179034 0.000501952)
(0.0574826 -0.000170704 0.000457302)
(0.0567495 -0.000152883 0.000420305)
(0.0984326 -0.000157471 0.00103147)
(0.0982053 -0.00014159 0.00102128)
(0.0979713 -0.000122652 0.00102333)
(0.0977237 -0.000104344 0.00101331)
(0.0975056 -8.6914e-05 0.000982272)
(0.0971422 -6.73638e-05 0.000919857)
(0.115669 7.97478e-05 0.00126512)
(0.115819 9.20368e-05 0.00126083)
(0.115967 0.000106568 0.00125684)
(0.116105 0.000119739 0.00123882)
(0.116231 0.000129859 0.00120708)
(0.116396 0.00013203 0.00113681)
(0.123323 0.000336149 0.000966536)
(0.123664 0.000338599 0.000966867)
(0.124003 0.000344908 0.000973005)
(0.124341 0.00034773 0.000970013)
(0.124647 0.000343253 0.000951966)
(0.125076 0.00032862 0.000906072)
(0.126788 0.00059862 0.000601844)
(0.127188 0.000593171 0.000602142)
(0.127585 0.00059016 0.000604677)
(0.127982 0.000581223 0.000601696)
(0.128344 0.000562077 0.000589005)
(0.128848 0.000530961 0.000565601)
(0.127922 0.000826742 0.000256742)
(0.128326 0.000819137 0.000254192)
(0.128727 0.000812857 0.00025228)
(0.129129 0.000798238 0.000247825)
(0.129496 0.000771518 0.00023945)
(0.130005 0.000729016 0.000227976)
(0.126994 0.000961761 -5.14473e-05)
(0.127382 0.000957126 -5.53132e-05)
(0.127765 0.000954556 -6.02779e-05)
(0.128148 0.00094202 -6.49916e-05)
(0.128496 0.000915808 -6.79943e-05)
(0.128982 0.000869466 -6.98874e-05)
(0.12334 0.000963569 -0.000341564)
(0.123684 0.000964446 -0.000343804)
(0.124026 0.000971268 -0.00034975)
(0.124364 0.000968916 -0.000352256)
(0.124672 0.0009508 -0.000346911)
(0.125103 0.000904609 -0.000331468)
(0.114967 0.000858845 -0.000658949)
(0.115178 0.000865562 -0.000656761)
(0.115389 0.000876798 -0.000658089)
(0.115586 0.000879243 -0.000651722)
(0.115768 0.000866257 -0.000631796)
(0.116015 0.000818435 -0.000587077)
(0.0960778 0.0004714 -0.000666439)
(0.095928 0.000479326 -0.000658874)
(0.0957686 0.000495522 -0.000661759)
(0.0955982 0.000503656 -0.000658023)
(0.0954439 0.000496107 -0.000634259)
(0.0951966 0.000469204 -0.000583814)
(0.056246 0.000161229 -0.000316723)
(0.0557891 0.000151065 -0.000315988)
(0.055328 0.000138137 -0.000308817)
(0.0548896 0.000123937 -0.000298172)
(0.0544931 0.000105395 -0.00027902)
(0.053891 0.000100989 -0.000255724)
(0.0512149 -6.33174e-05 0.000355093)
(0.0507444 -6.90874e-05 0.000340362)
(0.0502875 -7.53202e-05 0.000325163)
(0.0498313 -8.11221e-05 0.000310008)
(0.0494387 -8.80506e-05 0.000283549)
(0.0487733 -8.49681e-05 0.000280215)
(0.0882222 3.97542e-05 0.000756022)
(0.0878814 4.44896e-05 0.000753192)
(0.0875266 5.07994e-05 0.000755558)
(0.0871726 5.41139e-05 0.000749775)
(0.0868537 5.33312e-05 0.000732955)
(0.0863238 5.00025e-05 0.000692135)
(0.106501 0.000354044 0.00104999)
(0.106503 0.000359142 0.00105079)
(0.106492 0.000368217 0.00105896)
(0.106463 0.000370027 0.00105264)
(0.106433 0.00036205 0.00103019)
(0.106359 0.000335054 0.00096179)
(0.114947 0.000645152 0.000860097)
(0.115154 0.000644181 0.000868452)
(0.11536 0.000643055 0.000876924)
(0.115556 0.000633761 0.00087604)
(0.115736 0.000616515 0.000865979)
(0.11598 0.000574245 0.000820804)
(0.118827 0.000957857 0.000570126)
(0.119099 0.000947596 0.000577493)
(0.11937 0.000932542 0.000582766)
(0.119641 0.000907672 0.000581739)
(0.119887 0.000870705 0.000570155)
(0.120231 0.000801791 0.000539858)
(0.120266 0.00122446 0.000319543)
(0.120532 0.0012136 0.000318482)
(0.120793 0.00119377 0.000315209)
(0.121059 0.00116158 0.000308644)
(0.121292 0.00111159 0.000295514)
(0.121629 0.00102075 0.000273703)
(0.119504 0.00133193 0.000118997)
(0.119729 0.00132363 0.0001089)
(0.119953 0.00130667 9.62184e-05)
(0.120172 0.00127741 8.18496e-05)
(0.120368 0.00123708 6.79436e-05)
(0.120638 0.00115398 5.40564e-05)
(0.115672 0.00125822 -9.25582e-05)
(0.115824 0.00125263 -0.000104171)
(0.115974 0.00124878 -0.000117745)
(0.116112 0.00123092 -0.000130016)
(0.116238 0.00119708 -0.00013841)
(0.116404 0.0011267 -0.000138846)
(0.106499 0.00104685 -0.000373348)
(0.106501 0.001046 -0.00037837)
(0.106487 0.00105303 -0.000387021)
(0.106459 0.00104572 -0.000388336)
(0.10643 0.00102276 -0.000379597)
(0.106356 0.000954154 -0.000351194)
(0.0855757 0.00052804 -0.000430628)
(0.085249 0.00051981 -0.000426384)
(0.0849078 0.000525202 -0.000429463)
(0.0845688 0.000528707 -0.000429216)
(0.0842613 0.000523089 -0.000417296)
(0.0837672 0.000501072 -0.000383587)
(0.0470906 0.0001018 -0.000194351)
(0.0466999 8.89759e-05 -0.000192475)
(0.046317 7.97481e-05 -0.00018681)
(0.0459464 7.41327e-05 -0.000179657)
(0.0456226 6.44069e-05 -0.000161036)
(0.0450948 7.61544e-05 -0.000153971)
(0.0370107 2.96566e-05 0.000163087)
(0.0366844 2.16581e-05 0.000157481)
(0.0363706 1.37436e-05 0.000155538)
(0.0360461 4.03792e-06 0.000154337)
(0.0357717 -6.83198e-06 0.000143653)
(0.0352611 -1.86612e-05 0.000154903)
(0.0663938 0.000140261 0.000301118)
(0.0659414 0.000139662 0.000305893)
(0.0655008 0.000140848 0.000317711)
(0.0650568 0.000136423 0.000323265)
(0.0646829 0.000127101 0.000325433)
(0.0640592 0.000116691 0.000336995)
(0.085623 0.000408506 0.000536866)
(0.0853002 0.000406647 0.00053499)
(0.0849615 0.000406898 0.000538278)
(0.0846296 0.000401554 0.000535872)
(0.0843272 0.000394188 0.000536588)
(0.0838343 0.000366859 0.000519768)
(0.0961043 0.00064656 0.000476686)
(0.0959587 0.000638483 0.000487018)
(0.0958044 0.000640686 0.000504362)
(0.0956353 0.000636284 0.000512206)
(0.0954836 0.000612794 0.000505026)
(0.0952399 0.000564016 0.000478793)
(0.101307 0.000921563 0.000353183)
(0.101237 0.000902536 0.000362351)
(0.101165 0.000893911 0.000380007)
(0.101074 0.00087686 0.000393027)
(0.101 0.000838297 0.000390037)
(0.100876 0.00076412 0.00036778)
(0.10345 0.00116858 0.000276054)
(0.103369 0.00115105 0.000274782)
(0.103284 0.00112384 0.000273394)
(0.103191 0.00109185 0.000272828)
(0.103099 0.00104284 0.000265405)
(0.102952 0.000954096 0.000242412)
(0.102808 0.00121017 0.000237897)
(0.10267 0.00118868 0.000223707)
(0.102529 0.00117356 0.000207883)
(0.102366 0.00114533 0.000189093)
(0.102224 0.00109565 0.000166869)
(0.101984 0.00101514 0.000143143)
(0.0984362 0.00102554 0.000135942)
(0.0982093 0.00101286 0.000119627)
(0.0979742 0.00101182 0.000100808)
(0.0977298 0.00100019 8.29164e-05)
(0.0975128 0.000968587 6.62489e-05)
(0.097153 0.000905969 4.84716e-05)
(0.0882076 0.000747086 -6.22731e-05)
(0.0878658 0.000744943 -6.90462e-05)
(0.0875082 0.000745865 -7.62135e-05)
(0.0871545 0.000738744 -7.94543e-05)
(0.0868346 0.000722429 -7.87772e-05)
(0.0863079 0.00067958 -7.29008e-05)
(0.0663627 0.000291634 -0.000164724)
(0.0659093 0.000295713 -0.000165902)
(0.0654659 0.000306394 -0.000168023)
(0.0650231 0.00031116 -0.000163665)
(0.0646506 0.000313278 -0.000153699)
(0.0640234 0.000325486 -0.000139978)
(0.0348475 -8.367e-07 -7.66144e-05)
(0.0345576 -2.514e-06 -7.56965e-05)
(0.034281 3.3774e-06 -7.58399e-05)
(0.0339944 1.18759e-05 -7.54291e-05)
(0.0337531 2.09033e-05 -6.52359e-05)
(0.0333247 3.96922e-05 -6.68853e-05)
(0.0218782 2.64133e-05 9.13584e-06)
(0.0216761 2.355e-05 1.06169e-05)
(0.0214772 1.97269e-05 1.33816e-05)
(0.0212647 1.49863e-05 1.73381e-05)
(0.0210941 6.87667e-06 1.82102e-05)
(0.0207434 3.06924e-06 2.85347e-05)
(0.0348728 6.54358e-05 1.29718e-05)
(0.0345836 6.39931e-05 1.30424e-05)
(0.0343079 6.34717e-05 1.79742e-05)
(0.0340229 6.23894e-05 2.43813e-05)
(0.0337839 5.2668e-05 3.29294e-05)
(0.0333547 5.67549e-05 5.02323e-05)
(0.0479435 0.000181726 0.000140695)
(0.0475472 0.000183214 0.00012926)
(0.0471421 0.000182948 0.000115404)
(0.0467539 0.000179603 0.00010314)
(0.04638 0.000173533 9.46291e-05)
(0.0460083 0.000165845 8.80527e-05)
(0.045689 0.000146932 7.68652e-05)
(0.045169 0.000141605 8.71333e-05)
(0.0567974 0.000301611 0.00018241)
(0.0563267 0.000304556 0.000174268)
(0.0558755 0.000302051 0.000164438)
(0.0554232 0.000292735 0.000151865)
(0.0549918 0.000280691 0.00013813)
(0.0546029 0.000261312 0.000118119)
(0.0540097 0.000239923 0.000110957)
(0.0628241 0.000587691 0.00032868)
(0.0623055 0.000522095 0.000302123)
(0.061814 0.000475759 0.000285349)
(0.0613258 0.000437445 0.000264449)
(0.0608544 0.000404903 0.000240525)
(0.0604309 0.000374415 0.00021062)
(0.0597791 0.000335998 0.000172895)
(0.0650042 0.000856753 0.000382353)
(0.0644187 0.000807512 0.00036822)
(0.0638702 0.00072011 0.000338969)
(0.0633388 0.000607994 0.000300689)
(0.0629035 0.000517149 0.000261854)
(0.0622105 0.000435562 0.000221228)
(0.0640804 0.000894644 0.000313314)
(0.0634767 0.000822372 0.000295166)
(0.0629053 0.000732826 0.000272746)
(0.0623715 0.000642081 0.000248287)
(0.0619112 0.000560516 0.000220903)
(0.0611941 0.00048232 0.000191089)
(0.0595767 0.000592058 0.000172139)
(0.0590344 0.000566401 0.000164285)
(0.0585 0.000531598 0.00015699)
(0.0579886 0.000491517 0.000149157)
(0.0575388 0.00044527 0.00014115)
(0.0568213 0.000407369 0.000126907)
(0.0512229 0.000349409 4.41549e-05)
(0.0507563 0.000333834 4.76677e-05)
(0.0503069 0.000318137 5.18851e-05)
(0.0498529 0.000302593 5.6745e-05)
(0.049466 0.000276173 6.38117e-05)
(0.0488076 0.000272477 6.37612e-05)
(0.0370098 0.000160078 -4.75564e-05)
(0.0366856 0.000153761 -4.09041e-05)
(0.0363744 0.000151392 -3.35432e-05)
(0.0360508 0.000150165 -2.32544e-05)
(0.0357774 0.000139365 -1.18963e-05)
(0.0352692 0.000150758 1.34039e-06)
(0.0218707 5.17273e-06 -3.62877e-05)
(0.021669 6.57659e-06 -3.40718e-05)
(0.0214705 8.11627e-06 -3.1095e-05)
(0.0212573 1.15317e-05 -2.62759e-05)
(0.0210862 1.27444e-05 -1.70683e-05)
(0.0207378 2.34475e-05 -9.91229e-06)
)
;

boundaryField
{
    inlet
    {
        type            fixedValue;
        value           nonuniform List<vector> 0();
    }
    ami1
    {
        type            cyclicAMI;
        value           nonuniform List<vector> 0();
    }
    walls
    {
        type            noSlip;
    }
    ami2
    {
        type            cyclicAMI;
        value           nonuniform List<vector> 0();
    }
    outlet
    {
        type            zeroGradient;
    }
    procBoundary6to5
    {
        type            processor;
        value           nonuniform List<vector> 
177
(
(0.0220705 -7.96664e-06 3.48201e-05)
(0.0348191 -1.02091e-05 7.49414e-05)
(0.0373155 -0.000175908 4.90739e-05)
(0.0516409 -0.000375462 -4.70337e-05)
(0.0595013 -0.000603762 -0.000182515)
(0.0881984 -0.000774796 6.03603e-05)
(0.0595013 -0.000603762 -0.000182515)
(0.0639824 -0.000903216 -0.000325156)
(0.0642788 -0.000818984 -0.000381773)
(0.0642788 -0.000818984 -0.000381773)
(0.0642788 -0.000818984 -0.000381773)
(0.0616703 -0.000485864 -0.000286675)
(0.0616703 -0.000485864 -0.000286675)
(0.0557593 -0.000319791 -0.000167292)
(0.0466511 -0.000197534 -0.000105918)
(0.0466511 -0.000197534 -0.000105918)
(0.0348098 -7.77671e-05 -1.19376e-05)
(0.0658729 -0.000160753 -0.000307691)
(0.0218407 -3.39117e-05 -7.93911e-06)
(0.0348191 -1.02091e-05 7.49414e-05)
(0.0348191 -1.02091e-05 7.49414e-05)
(0.0466677 -9.96871e-05 0.00019357)
(0.0667912 -0.000309456 0.000159899)
(0.0881984 -0.000774796 6.03603e-05)
(0.0855961 -0.000546114 0.000431107)
(0.0881984 -0.000774796 6.03603e-05)
(0.0984161 -0.0010571 -0.000143784)
(0.102785 -0.00124353 -0.00025039)
(0.103432 -0.00120303 -0.000294455)
(0.101284 -0.000955711 -0.000373616)
(0.0958927 -0.000679865 -0.000508176)
(0.0958927 -0.000679865 -0.000508176)
(0.0958927 -0.000679865 -0.000508176)
(0.0852166 -0.000432592 -0.000538476)
(0.0852166 -0.000432592 -0.000538476)
(0.0658729 -0.000160753 -0.000307691)
(0.0658729 -0.000160753 -0.000307691)
(0.0369725 -4.24787e-05 -0.000167665)
(0.0466677 -9.96871e-05 0.00019357)
(0.0466677 -9.96871e-05 0.00019357)
(0.0855961 -0.000546114 0.000431107)
(0.0959224 -0.000495448 0.000664234)
(0.106499 -0.00107092 0.000376934)
(0.115667 -0.0012887 9.20224e-05)
(0.119506 -0.00135975 -0.000123362)
(0.120275 -0.00125332 -0.000327818)
(0.118839 -0.000983476 -0.000583089)
(0.118839 -0.000983476 -0.000583089)
(0.114959 -0.000677494 -0.000885203)
(0.106491 -0.000384734 -0.00107516)
(0.0878169 -6.75503e-05 -0.000761835)
(0.0878169 -6.75503e-05 -0.000761835)
(0.0878169 -6.75503e-05 -0.000761835)
(0.0878169 -6.75503e-05 -0.000761835)
(0.0511818 5.24905e-05 -0.00035212)
(0.0558101 -0.000167583 0.000318277)
(0.0558101 -0.000167583 0.000318277)
(0.0959224 -0.000495448 0.000664234)
(0.0959224 -0.000495448 0.000664234)
(0.0959224 -0.000495448 0.000664234)
(0.114947 -0.000878439 0.000665632)
(0.114947 -0.000878439 0.000665632)
(0.12333 -0.000991596 0.000347452)
(0.12333 -0.000991596 0.000347452)
(0.127 -0.000988903 5.23136e-05)
(0.127 -0.000988903 5.23136e-05)
(0.12794 -0.000848481 -0.000256804)
(0.12794 -0.000848481 -0.000256804)
(0.12794 -0.000848481 -0.000256804)
(0.126402 -0.000623296 -0.000608011)
(0.123334 -0.000359042 -0.000987705)
(0.123334 -0.000359042 -0.000987705)
(0.123334 -0.000359042 -0.000987705)
(0.115667 -0.000102754 -0.00128269)
(0.115667 -0.000102754 -0.00128269)
(0.0984137 0.000136771 -0.00104939)
(0.0984137 0.000136771 -0.00104939)
(0.0595244 0.000180427 -0.00059869)
(0.0622552 -0.000298894 0.000522261)
(0.101283 -0.00036889 0.000948595)
(0.101283 -0.00036889 0.000948595)
(0.118546 -0.000567713 0.00097776)
(0.118546 -0.000567713 0.00097776)
(0.126394 -0.000613099 0.000611857)
(0.126394 -0.000613099 0.000611857)
(0.129981 -0.000573114 0.000239278)
(0.129981 -0.000573114 0.000239278)
(0.131006 -0.000434824 -0.000150118)
(0.129984 -0.000249944 -0.000565353)
(0.126605 -5.69581e-05 -0.000985085)
(0.119273 0.000123865 -0.00135796)
(0.102932 0.000249833 -0.00125185)
(0.064002 0.000315651 -0.000905983)
(0.064002 0.000315651 -0.000905983)
(0.064002 0.000315651 -0.000905983)
(0.0649628 -0.000390775 0.000859477)
(0.0649628 -0.000390775 0.000859477)
(0.103512 -0.000302546 0.00122213)
(0.103417 -0.000295271 0.00118862)
(0.103417 -0.000295271 0.00118862)
(0.103417 -0.000295271 0.00118862)
(0.119724 -0.000325959 0.00125182)
(0.11927 -0.000138482 0.00135055)
(0.12711 -0.000261966 0.000847829)
(0.126597 4.97004e-05 0.000976564)
(0.130546 -0.000149124 0.000423488)
(0.132033 -2.12598e-06 -3.65276e-06)
(0.12997 0.000246737 0.000565409)
(0.132033 -2.12598e-06 -3.65276e-06)
(0.131003 0.000145437 -0.000428171)
(0.127524 0.000254254 -0.000849835)
(0.120002 0.00031709 -0.00125492)
(0.103527 0.000283605 -0.00121716)
(0.0655355 0.000383253 -0.000890507)