/*--------------------------------*- C++ -*----------------------------------*\
| =========                 |                                                 |
| \\      /  F ield         | OpenFOAM: The Open Source CFD Toolbox           |
|  \\    /   O peration     | Version:  2212                                  |
|   \\  /    A nd           | Website:  www.openfoam.com                      |
|    \\/     M anipulation  |                                                 |
\*---------------------------------------------------------------------------*/
FoamFile
{
    version     2.0;
    format      ascii;
    arch        "LSB;label=32;scalar=64";
    class       volScalarField;
    location    "1.35";
    object      k;
}
// * * * * * * * * * * * * * * * * * * * * * * * * * * * * * * * * * * * * * //

dimensions      [0 2 -2 0 0 0 0];

internalField   nonuniform List<scalar> 
678
(
0.0017185
0.00169787
0.00168234
0.00166583
0.00165229
0.00163187
0.00147434
0.00145817
0.001442
0.00142748
0.00141401
0.00139905
0.00144605
0.00142784
0.00141071
0.00139446
0.00137912
0.0013645
0.00137379
0.0013567
0.00134017
0.00132468
0.00131016
0.00134552
0.00132679
0.00130939
0.00129313
0.00127815
0.00129803
0.00128102
0.00126469
0.00124963
0.00127335
0.00125498
0.00123757
0.00122143
0.00125524
0.0012362
0.00121861
0.00120229
0.00126532
0.00124843
0.00123265
0.00121775
0.00135491
0.00133855
0.00132298
0.00130948
0.00129403
0.00170107
0.00168196
0.00166564
0.00165126
0.00162971
0.00135512
0.00133882
0.00132416
0.00131098
0.00129602
0.000783187
0.000756998
0.000735515
0.000717549
0.000702705
0.00069137
0.000913697
0.000871487
0.000837005
0.000801645
0.000769425
0.00103318
0.000988166
0.000950362
0.000911702
0.00086536
0.00108711
0.00104015
0.000997247
0.000954323
0.000903859
0.00109757
0.00104886
0.00100032
0.000957174
0.000902462
0.00104565
0.000995165
0.00094276
0.000897439
0.000839837
0.000871656
0.000819297
0.000778514
0.000728886
0.000744866
0.000707403
0.000677981
0.000651433
0.000735383
0.00071187
0.000697175
0.000686981
0.00145895
0.00144357
0.00142796
0.00141371
0.00139785
0.00126613
0.00124932
0.00123371
0.00121913
0.000779292
0.000742962
0.00071134
0.000683045
0.000658542
0.000995945
0.000944427
0.000898608
0.000854515
0.000801546
0.00116569
0.00111025
0.00105847
0.00100827
0.00094701
0.00126663
0.00120817
0.00115312
0.00109941
0.00103333
0.00130483
0.00124457
0.00118745
0.0011318
0.00106394
0.00126946
0.00120939
0.00115096
0.00109639
0.00102953
0.00115329
0.00109518
0.00103977
0.00098646
0.000922046
0.000994909
0.00094529
0.000895135
0.000851627
0.000797885
0.000877267
0.000836088
0.000797334
0.000764496
0.00142931
0.00141212
0.00139532
0.00137921
0.00136393
0.00125634
0.00123701
0.00121925
0.00120282
0.000871507
0.000821828
0.000779498
0.000731057
0.00115395
0.00109554
0.00103896
0.000986802
0.000922456
0.00135703
0.00129318
0.00123362
0.00117627
0.00110824
0.00148195
0.00141556
0.00135322
0.00129285
0.00122231
0.00152674
0.00145925
0.00139595
0.00133451
0.00126327
0.00155249
0.00148453
0.00141913
0.00135779
0.00129768
0.00122764
0.00135634
0.00129318
0.00123386
0.00117667
0.00110908
0.0011639
0.00110897
0.00105515
0.00100624
0.000946056
0.00103183
0.000988881
0.000946773
0.000910485
0.000864375
0.00137423
0.00135705
0.00134017
0.00132431
0.00130956
0.0012918
0.00127302
0.00125463
0.00123716
0.00122096
0.00104675
0.000995115
0.000942911
0.000897362
0.000840004
0.00132958
0.00126762
0.00120841
0.00115083
0.00109616
0.00102982
0.0015531
0.00148457
0.00141896
0.00135765
0.00129766
0.00122789
0.00169515
0.00162284
0.00155356
0.0014886
0.0014251
0.00135246
0.00174505
0.00167147
0.00160071
0.00153433
0.00146949
0.00139581
0.00169542
0.00162312
0.00155373
0.00148872
0.00142512
0.00135253
0.00154824
0.00148016
0.00141483
0.0013537
0.00129378
0.0012243
0.00132396
0.00126373
0.0012066
0.00115126
0.00109856
0.00103476
0.00113139
0.00108259
0.00103956
0.000996417
0.000955679
0.000905733
0.00134569
0.0013267
0.00130886
0.00129225
0.0012772
0.00131489
0.00129734
0.00128022
0.00126386
0.00124864
0.00109665
0.0010456
0.00100082
0.000956164
0.000901854
0.00142527
0.00136131
0.00130032
0.00124167
0.00118579
0.00113104
0.00106512
0.00166379
0.00159182
0.00152319
0.00145765
0.00139622
0.00133582
0.00126591
0.00181939
0.00174294
0.00166999
0.00160025
0.00153466
0.00147036
0.00139728
0.00179783
0.00172255
0.00165037
0.0015827
0.00151671
0.00144218
0.00174543
0.00167171
0.00160084
0.00153441
0.00146957
0.00139598
0.0015949
0.00152542
0.00145863
0.00139625
0.00133524
0.00126486
0.00136465
0.00130245
0.00124328
0.00118657
0.0011317
0.00106563
0.00114506
0.00109295
0.00104707
0.00100086
0.000958911
0.000905503
0.00133204
0.00131384
0.0012956
0.00127852
0.00126236
0.00124752
0.00136351
0.00134428
0.00132593
0.00130855
0.00129222
0.00127719
0.00113196
0.00108386
0.00104016
0.000996737
0.000955804
0.000905101
0.00132351
0.00126322
0.00120616
0.00115092
0.00109865
0.00103516
0.00154848
0.00147974
0.00141425
0.00135333
0.00129381
0.00122475
0.00169629
0.00162389
0.0015545
0.00148957
0.0014262
0.00135394
0.00174573
0.00167203
0.00160124
0.00153489
0.00147016
0.00139671
0.00169579
0.00162345
0.00155388
0.00148873
0.00142515
0.00135263
0.00155318
0.00148446
0.00141857
0.00135708
0.00129702
0.00122744
0.00132984
0.00126743
0.00120823
0.00115079
0.00109629
0.0010303
0.00109476
0.00104036
0.000992384
0.000943458
0.00089997
0.000844055
0.00130794
0.00128877
0.00126994
0.00125175
0.00123464
0.00121891
0.00139162
0.00137355
0.00135608
0.0013395
0.00132399
0.00130942
0.00107605
0.00102977
0.000990769
0.00095176
0.000915386
0.000868638
0.00122043
0.00116359
0.0011102
0.00105812
0.0010099
0.000950504
0.00142094
0.00135573
0.0012933
0.00123515
0.00117854
0.00111199
0.00155517
0.00148658
0.00142092
0.00135961
0.00129965
0.00123024
0.00159594
0.00152651
0.00145997
0.00139782
0.001337
0.0012668
0.00154884
0.00148064
0.00141521
0.00135412
0.00129445
0.00122524
0.00141902
0.00135372
0.00129143
0.00123329
0.00117682
0.00111036
0.0012091
0.00114865
0.00109235
0.00103706
0.000986506
0.000924051
0.000967422
0.000910979
0.000866049
0.000821069
0.000783429
0.000736045
0.0012918
0.00127096
0.0012513
0.00123279
0.00121581
0.00120018
0.00144605
0.00142782
0.00141069
0.00139443
0.00137907
0.00136433
0.000954116
0.000911757
0.000875322
0.000842127
0.000807215
0.000773594
0.00104653
0.000993668
0.000946822
0.000900139
0.000858755
0.000806597
0.0012132
0.00115363
0.00109717
0.00104189
0.000991121
0.000928471
0.00133272
0.00127103
0.00121212
0.00115533
0.00110059
0.00103442
0.00136651
0.00130488
0.00124563
0.00118979
0.00113457
0.00106841
0.00132527
0.00126529
0.00120825
0.00115338
0.00110085
0.00103699
0.00121883
0.00116188
0.00110871
0.00105679
0.00100885
0.000949624
0.00104189
0.000988812
0.00094228
0.000895737
0.000854545
0.000802789
0.000816116
0.00077341
0.000741069
0.000710656
0.000683287
0.000658649
0.00129911
0.00127964
0.00126179
0.00124536
0.00123043
0.00121637
0.00147486
0.00145854
0.00144244
0.00142764
0.00141412
0.00139904
0.000784995
0.000758136
0.000737432
0.00071984
0.000705201
0.000693472
0.000824667
0.000779571
0.000746086
0.000716747
0.000689754
0.00066269
0.000976289
0.000919662
0.000874163
0.000828577
0.000790601
0.000742382
0.00110135
0.00104755
0.000999401
0.00095071
0.000906544
0.000850003
0.00114901
0.00109912
0.00104969
0.00100659
0.0009631
0.000909375
0.00113413
0.00108594
0.00104285
0.000999983
0.000960641
0.000909201
0.00107582
0.00102981
0.000991188
0.000952524
0.000916765
0.000870649
0.000951358
0.000909742
0.000873548
0.000840837
0.000806835
0.000774328
0.000781998
0.000755883
0.000735767
0.000718866
0.000704714
0.000693342
0.0013702
0.00135295
0.00133693
0.00132232
0.0013091
0.00129431
0.00171888
0.0016993
0.00168243
0.00166551
0.00165207
0.00163241
0.00137172
0.00135421
0.00133809
0.00132337
0.00131032
0.00129549
0.00134148
0.00132149
0.00130091
0.00128112
0.00126312
0.0012467
0.00123187
0.0012178
0.00131386
0.00129289
0.0012722
0.00125255
0.001234
0.00121702
0.00120135
0.00132757
0.00130829
0.0012894
0.00127069
0.00125254
0.00123538
0.00121954
0.00133328
0.00131439
0.00129616
0.0012791
0.00126284
0.00124777
0.00136364
0.00134418
0.00132561
0.0013081
0.0012917
0.00127667
0.00139152
0.00137335
0.0013558
0.00133911
0.0013235
0.00130886
0.00144558
0.00142735
0.00141018
0.00139385
0.00137844
0.00136368
0.00147414
0.0014578
0.0014417
0.00142693
0.00141326
0.00139816
0.00171776
0.00169806
0.00168126
0.0016644
0.0016509
0.00163108
)
;

boundaryField
{
    inlet
    {
        type            fixedValue;
        value           nonuniform List<scalar> 0();
    }
    ami1
    {
        type            cyclicAMI;
        value           nonuniform List<scalar> 0();
    }
    walls
    {
        type            kqRWallFunction;
        value           nonuniform List<scalar> 
244
(
0.0017185
0.00147434
0.00144605
0.00169787
0.00145817
0.00142784
0.00137379
0.00134552
0.00135491
0.00170107
0.00168234
0.001442
0.00141071
0.0013567
0.00132679
0.00129803
0.00127335
0.00125524
0.00126532
0.00133855
0.00168196
0.00166583
0.00142748
0.00139446
0.00134017
0.00130939
0.00128102
0.00125498
0.0012362
0.00124843
0.00132298
0.00166564
0.00165229
0.00141401
0.00137912
0.00132468
0.00129313
0.00126469
0.00123757
0.00121861
0.00123265
0.00130948
0.00165126
0.00163187
0.00139905
0.0013645
0.00131016
0.00127815
0.00124963
0.00122143
0.00120229
0.00121775
0.00129403
0.00162971
0.00133204
0.00130794
0.0012918
0.00129911
0.0013702
0.00171776
0.00170107
0.00145895
0.00142931
0.00137423
0.00134569
0.00131384
0.00128877
0.00127096
0.00127964
0.00135295
0.00169806
0.00168196
0.00144357
0.00141212
0.00135705
0.0013267
0.0012956
0.00126994
0.0012513
0.00126179
0.00133693
0.00168126
0.00166564
0.00142796
0.00139532
0.00134017
0.00130886
0.00127852
0.00125175
0.00123279
0.00124536
0.00132232
0.0016644
0.00165126
0.00141371
0.00137921
0.00132431
0.00129225
0.00126236
0.00123464
0.00121581
0.00123043
0.0013091
0.0016509
0.00162971
0.00139785
0.00136393
0.00130956
0.0012772
0.00124752
0.00121891
0.00120018
0.00121637
0.00129431
0.00163108
0.00134148
0.00132149
0.00131386
0.00132757
0.00171888
0.00137172
0.00130091
0.00129289
0.00130829
0.00133328
0.00136364
0.00139152
0.00144558
0.00147414
0.00171776
0.0016993
0.00135421
0.00128112
0.0012722
0.0012894
0.00131439
0.00134418
0.00137335
0.00142735
0.0014578
0.00169806
0.00168243
0.00133809
0.00126312
0.00125255
0.00127069
0.00129616
0.00132561
0.0013558
0.00141018
0.0014417
0.00168126
0.00166551
0.00132337
0.0012467
0.001234
0.00125254
0.0012791
0.0013081
0.00133911
0.00139385
0.00142693
0.0016644
0.00165207
0.00131032
0.00123187
0.00121702
0.00123538
0.00126284
0.0012917
0.0013235
0.00137844
0.00141326
0.0016509
0.00163241
0.00129549
0.0012178
0.00120135
0.00121954
0.00124777
0.00127667
0.00130886
0.00136368
0.00139816
0.00163108
0.0017185
0.00136351
0.00139162
0.00144605
0.00147486
0.00171888
0.00169787
0.00135512
0.0012918
0.00131489
0.00134428
0.00137355
0.00142782
0.00145854
0.0016993
0.00168234
0.00133882
0.00126613
0.00125634
0.00127302
0.00129734
0.00132593
0.00135608
0.00141069
0.00144244
0.00168243
0.00166583
0.00132416
0.00124932
0.00123701
0.00125463
0.00128022
0.00130855
0.0013395
0.00139443
0.00142764
0.00166551
0.00165229
0.00131098
0.00123371
0.00121925
0.00123716
0.00126386
0.00129222
0.00132399
0.00137907
0.00141412
0.00165207
0.00163187
0.00129602
0.00121913
0.00120282
0.00122096
0.00124864
0.00127719
0.00130942
0.00136433
0.00139904
0.00163241
)
;
    }
    ami2
    {
        type            cyclicAMI;
        value           nonuniform List<scalar> 0();
    }
    outlet
    {
        type            zeroGradient;
    }
    procBoundary6to5
    {
        type            processor;
        value           nonuniform List<scalar> 
177
(
0.00173662
0.00137132
0.00149031
0.00146147
0.00138992
0.000955925
0.00138992
0.00136113
0.0013136
0.0013136
0.0013136
0.00128868
0.00128868
0.00127172
0.00128139
0.00128139
0.00137115
0.000768198
0.0017174
0.00137132
0.00137132
0.00128232
0.000815915
0.000955925
0.000827203
0.000955925
0.00107811
0.00113486
0.00114823
0.00109822
0.000924509
0.000924509
0.000924509
0.000786236
0.000786236
0.000768198
0.000768198
0.00147376
0.00128232
0.00128232
0.000827203
0.000927331
0.00104859
0.00122192
0.00132577
0.00136585
0.00133115
0.00133115
0.0012124
0.00104704
0.000920605
0.000920605
0.000920605
0.000920605
0.00144432
0.00127328
0.00127328
0.000927331
0.000927331
0.000927331
0.00121454
0.00121454
0.00142097
0.00142097
0.00154888
0.00154888
0.00159481
0.00159481
0.00159481
0.00162133
0.0014204
0.0014204
0.0014204
0.00122158
0.00122158
0.00107857
0.00107857
0.00139025
0.00130769
0.00110104
0.00110104
0.00139399
0.00139399
0.00162267
0.00162267
0.00176846
0.00176846
0.00181947
0.0017683
0.00161689
0.00138564
0.00117962
0.00136191
0.00136191
0.00136191
0.0013322
0.0013322
0.00119624
0.00114804
0.00114804
0.00114804
0.00149146
0.00138573
0.00173663
0.00161834
0.00189688
0.00187394
0.00176955
0.00187394
0.00181977
0.00166476
0.00142811
0.00119706
0.00135132
0.00138102
0.00118088
0.00138573
0.00161834
0.00176955
0.00182004
0.00176869
0.00162223
0.00139359
0.00114837
0.00132596
0.00140878
0.00112128
0.00127844
0.00148679
0.00162438
0.00166582
0.00161751
0.00148452
0.00127028
0.00102334
0.00131113
0.00146191
0.000996322
0.00109977
0.00127456
0.00139619
0.00142977
0.00138676
0.00127715
0.00109542
0.000869457
0.00131896
0.00149078
0.000819949
0.000919135
0.00087998
0.00087998
0.00103256
0.00103256
0.00115465
0.00115465
0.00120089
0.00118192
0.00112097
0.000993762
0.000816726
0.0013884
0.00173724
0.0014097
0.00139007
0.00139007
0.00136167
0.00133387
0.00133387
0.00134835
0.00135261
0.00135261
0.00138154
0.00140876
0.00146167
0.00149019
0.00173629
)
;
    }
}


// ************************************************************************* //
