/*--------------------------------*- C++ -*----------------------------------*\
| =========                 |                                                 |
| \\      /  F ield         | OpenFOAM: The Open Source CFD Toolbox           |
|  \\    /   O peration     | Version:  2212                                  |
|   \\  /    A nd           | Website:  www.openfoam.com                      |
|    \\/     M anipulation  |                                                 |
\*---------------------------------------------------------------------------*/
FoamFile
{
    version     2.0;
    format      ascii;
    arch        "LSB;label=32;scalar=64";
    class       volScalarField;
    location    "1";
    object      epsilon;
}
// * * * * * * * * * * * * * * * * * * * * * * * * * * * * * * * * * * * * * //

dimensions      [0 2 -3 0 0 0 0];

internalField   nonuniform List<scalar> 
693
(
0.102872
0.101705
0.100578
0.0995223
0.0985472
0.0977001
0.0384579
0.037963
0.0374994
0.0370707
0.0366767
0.0362985
0.0262121
0.0258035
0.0254181
0.0250647
0.0247463
0.0244613
0.0205914
0.0202198
0.0198754
0.0195583
0.0192776
0.0189894
0.0181167
0.0177361
0.0173941
0.0170839
0.0168098
0.01653
0.0170805
0.0167218
0.0163649
0.0160441
0.0157682
0.0154906
0.017225
0.0168736
0.0165152
0.0161846
0.0159003
0.015616
0.0188184
0.0184375
0.0180829
0.0177542
0.017467
0.0171821
0.0230705
0.0226551
0.0222636
0.0219019
0.0215806
0.0212742
0.0352778
0.0347503
0.0342629
0.0338206
0.033422
0.0330309
0.102871
0.101675
0.100561
0.0995104
0.0985395
0.0976948
0.0353022
0.0347729
0.0342877
0.0338455
0.0334461
0.0330529
0.0151103
0.0148201
0.0145092
0.0142462
0.0140296
0.0138391
0.0101656
0.00993981
0.00974736
0.0094856
0.00931817
0.00913382
0.00840633
0.00824313
0.0079499
0.00782723
0.00758534
0.00748677
0.00775552
0.00749361
0.00726654
0.00706856
0.00689449
0.0067562
0.00746129
0.00719924
0.00697448
0.00677704
0.00660066
0.00646447
0.00751825
0.00723405
0.00703613
0.00685039
0.00669383
0.00654772
0.00800059
0.00772194
0.00757027
0.0073258
0.00720284
0.00700825
0.00941383
0.00920176
0.00903289
0.00873033
0.00860952
0.00840784
0.0151443
0.0147739
0.0144937
0.0142367
0.0140208
0.0138336
0.038466
0.0379684
0.0375044
0.037079
0.0366888
0.0363111
0.0230947
0.0226806
0.0222904
0.0219336
0.0216138
0.0213091
0.00940856
0.0092034
0.00902225
0.00872314
0.00859173
0.00840139
0.00689244
0.00670067
0.00654572
0.00629505
0.0061477
0.0059836
0.00636167
0.00613633
0.005932
0.00575054
0.00555937
0.00541828
0.00621077
0.00599583
0.00577883
0.00558505
0.00542129
0.00528661
0.00611855
0.005953
0.00577746
0.00550365
0.00528666
0.00521865
0.00610164
0.00592017
0.00573143
0.00553245
0.00538711
0.00525985
0.00629043
0.00606953
0.00589284
0.0056857
0.00552817
0.00535014
0.00693006
0.00668875
0.00655139
0.00629997
0.00616816
0.0059966
0.0102312
0.00989208
0.00972924
0.00947879
0.00931631
0.00913513
0.0262297
0.025819
0.0254354
0.0250841
0.0247695
0.024485
0.018845
0.0184604
0.0181042
0.0177805
0.0174975
0.0172132
0.00792709
0.00775195
0.00752673
0.00737997
0.00712322
0.00702898
0.00625799
0.0060484
0.00586127
0.005684
0.00549881
0.00534647
0.00607619
0.00581145
0.00557817
0.00537179
0.00515814
0.00504555
0.00619774
0.0059011
0.00564312
0.00541576
0.00519173
0.00506782
0.00626153
0.00595264
0.00568539
0.00544621
0.00521398
0.00508958
0.00616672
0.00587642
0.00562657
0.00540499
0.00518418
0.00506484
0.00607514
0.00580906
0.00557729
0.005372
0.00515871
0.00504646
0.00636345
0.0061278
0.00593011
0.00575799
0.005552
0.00541853
0.00849187
0.0081886
0.00796884
0.00783144
0.00758723
0.00748228
0.02061
0.0202362
0.0198937
0.0195792
0.0193026
0.0190177
0.017243
0.0168925
0.016539
0.0162091
0.015929
0.0156474
0.00749942
0.00722964
0.00702631
0.00683599
0.00669183
0.00652189
0.00607541
0.00589251
0.00570251
0.00551711
0.00536935
0.00523786
0.00614127
0.00584982
0.00559875
0.00537757
0.00515855
0.00504646
0.00637403
0.00604748
0.00576297
0.00551377
0.00527167
0.00515071
0.00650616
0.00615793
0.00585625
0.00559323
0.00534073
0.00521264
0.00639409
0.00606276
0.00577635
0.00552579
0.00528212
0.00515741
0.00616457
0.0058722
0.00561759
0.005392
0.00516971
0.00505163
0.00617414
0.00596254
0.0057504
0.00555796
0.00539976
0.0052667
0.0077315
0.00746871
0.00724903
0.00704854
0.00689986
0.0067291
0.0181315
0.0177495
0.0174092
0.0171019
0.0168311
0.0165544
0.0170962
0.0167398
0.0163855
0.0160688
0.015798
0.0155236
0.00743381
0.00717698
0.00695709
0.00676663
0.00658482
0.00647579
0.00608359
0.00591037
0.00573777
0.00544941
0.00529049
0.00523048
0.00619502
0.00589391
0.00563366
0.00539946
0.00517385
0.00509188
0.00645338
0.00611568
0.00582179
0.00556284
0.00531667
0.00522336
0.00659114
0.00623567
0.00592608
0.00565532
0.00539708
0.00527106
0.0064876
0.00614315
0.0058449
0.00558372
0.00533157
0.00520481
0.00621102
0.00591133
0.00565213
0.00541478
0.00518189
0.00506752
0.00609135
0.00592154
0.00574585
0.00545944
0.00526887
0.00520269
0.00743463
0.00717344
0.00694996
0.00675804
0.00657609
0.00645311
0.0170932
0.0167318
0.0163748
0.0160559
0.0157818
0.0155047
0.0181295
0.0177483
0.0174098
0.0171108
0.0168078
0.00774357
0.00745179
0.00725405
0.00705006
0.00691256
0.0061432
0.0059311
0.00573375
0.00555775
0.00542726
0.00614329
0.00584893
0.0055971
0.00536158
0.00520858
0.00635131
0.00602359
0.00574043
0.00547989
0.00531538
0.00647376
0.00613088
0.00583329
0.00557034
0.00532199
0.00523338
0.00639316
0.00606031
0.00577195
0.00551826
0.00527029
0.00514979
0.00615346
0.00586236
0.00561013
0.00538479
0.00515972
0.00505148
0.00608292
0.0058981
0.00570376
0.00550554
0.00536409
0.00523455
0.00750654
0.00722495
0.00702324
0.00683224
0.00669339
0.00651085
0.0172312
0.0168766
0.0165168
0.0161858
0.015906
0.0156258
0.0202342
0.0198945
0.0195868
0.0192734
0.00821944
0.00803033
0.00782135
0.00766431
0.00634779
0.00612227
0.00592862
0.00573646
0.00557936
0.00605448
0.00578779
0.00555775
0.00533452
0.00519576
0.00613512
0.00584265
0.00559084
0.00535219
0.00520829
0.00622241
0.00591902
0.00565406
0.00540949
0.00517751
0.00510095
0.00619313
0.00589332
0.00563004
0.00539393
0.00516015
0.00505064
0.00607841
0.00580794
0.00557226
0.00536131
0.00514565
0.00503365
0.00628056
0.00605514
0.00587299
0.00567063
0.00551155
0.0053338
0.00798719
0.00772146
0.00754465
0.00731911
0.00719012
0.00699546
0.0188197
0.0184332
0.018079
0.0177533
0.0174705
0.0171884
0.0258378
0.0254519
0.0250951
0.0247669
0.00995731
0.00977766
0.00954015
0.00934208
0.00690478
0.00670358
0.00654939
0.00629816
0.0061561
0.00625052
0.00603859
0.00585899
0.00566823
0.00550511
0.00607694
0.00589482
0.00569573
0.00551824
0.00538774
0.0061083
0.00594074
0.00574218
0.00545653
0.00527843
0.00519793
0.00621026
0.00599354
0.00576358
0.00553798
0.00537968
0.00525327
0.00636861
0.00613043
0.00593188
0.00574891
0.00554469
0.00539848
0.0069108
0.00668857
0.0065475
0.00628527
0.00615523
0.00597958
0.00940535
0.00919852
0.00901187
0.00871587
0.00858365
0.00839128
0.023071
0.0226457
0.022256
0.021899
0.0215834
0.0212787
0.0379958
0.0375361
0.0370989
0.0366669
0.0148821
0.0145582
0.0142714
0.0140229
0.00943383
0.00921935
0.00902145
0.00872308
0.00857065
0.00792601
0.0077343
0.00755253
0.00730383
0.00717582
0.00749242
0.00722596
0.00701695
0.00682431
0.00668589
0.00743832
0.0071749
0.00694679
0.00675016
0.00659093
0.00644858
0.00775716
0.00747692
0.00725221
0.00704852
0.00689065
0.00671061
0.00848665
0.00818679
0.00796102
0.00781814
0.00756933
0.00746144
0.0102156
0.00987951
0.00971752
0.00945522
0.00930814
0.00912202
0.0151235
0.01477
0.0144669
0.0142162
0.0139986
0.0138175
0.0352735
0.0347343
0.0342485
0.0338105
0.0334146
0.0330216
0.101781
0.100618
0.0995247
0.0985365
0.0348021
0.034304
0.0338493
0.0334012
0.0230973
0.0226752
0.0222834
0.0219352
0.0215874
0.0188457
0.0184514
0.0180952
0.0177841
0.017469
0.0172478
0.0168895
0.0165287
0.0162099
0.0158967
0.0170977
0.0167365
0.0163761
0.0160618
0.0157836
0.0155235
0.0181325
0.0177444
0.0174015
0.0170941
0.0168252
0.0165539
0.0205892
0.0202133
0.0198713
0.0195588
0.0192869
0.0190057
0.0261985
0.0257837
0.0254018
0.0250537
0.0247432
0.0244596
0.0384415
0.0379352
0.037473
0.0370498
0.0366622
0.0362856
0.102825
0.101628
0.100523
0.0994693
0.098495
0.0976409
)
;

boundaryField
{
    inlet
    {
        type            fixedValue;
        value           nonuniform List<scalar> 0();
    }
    ami1
    {
        type            cyclicAMI;
        value           nonuniform List<scalar> 0();
    }
    walls
    {
        type            epsilonWallFunction;
        blending        stepwise;
        value           nonuniform List<scalar> 
248
(
0.102872
0.0384579
0.0262121
0.0205914
0.0181167
0.0170805
0.017225
0.0188184
0.0230705
0.0352778
0.102871
0.101705
0.037963
0.0258035
0.0202198
0.0177361
0.0167218
0.0168736
0.0184375
0.0226551
0.0347503
0.101675
0.100578
0.0374994
0.0254181
0.0198754
0.0173941
0.0163649
0.0165152
0.0180829
0.0222636
0.0342629
0.100561
0.0995223
0.0370707
0.0250647
0.0195583
0.0170839
0.0160441
0.0161846
0.0177542
0.0219019
0.0338206
0.0995104
0.0985472
0.0366767
0.0247463
0.0192776
0.0168098
0.0157682
0.0159003
0.017467
0.0215806
0.033422
0.0985395
0.0977001
0.0362985
0.0244613
0.0189894
0.01653
0.0154906
0.015616
0.0171821
0.0212742
0.0330309
0.0976948
0.102871
0.038466
0.0262297
0.02061
0.0181315
0.0170932
0.0172312
0.0188197
0.023071
0.0352735
0.102825
0.101675
0.0379684
0.025819
0.0202362
0.0177495
0.0167318
0.0168766
0.0184332
0.0226457
0.0347343
0.101628
0.100561
0.0375044
0.0254354
0.0198937
0.0174092
0.0163748
0.0165168
0.018079
0.022256
0.0342485
0.100523
0.0995104
0.037079
0.0250841
0.0195792
0.0171019
0.0160559
0.0161858
0.0177533
0.021899
0.0338105
0.0994693
0.0985395
0.0366888
0.0247695
0.0193026
0.0168311
0.0157818
0.015906
0.0174705
0.0215834
0.0334146
0.098495
0.0976948
0.0363111
0.024485
0.0190177
0.0165544
0.0155047
0.0156258
0.0171884
0.0212787
0.0330216
0.0976409
0.0230973
0.0188457
0.0172478
0.0170977
0.0181325
0.0205892
0.0261985
0.0384415
0.102825
0.101781
0.0348021
0.0226752
0.0184514
0.0168895
0.0167365
0.0177444
0.0202133
0.0257837
0.0379352
0.101628
0.100618
0.034304
0.0222834
0.0180952
0.0165287
0.0163761
0.0174015
0.0198713
0.0254018
0.037473
0.100523
0.0995247
0.0338493
0.0219352
0.0177841
0.0162099
0.0160618
0.0170941
0.0195588
0.0250537
0.0370498
0.0994693
0.0985365
0.0334012
0.0215874
0.017469
0.0158967
0.0157836
0.0168252
0.0192869
0.0247432
0.0366622
0.098495
0.0155235
0.0165539
0.0190057
0.0244596
0.0362856
0.0976409
0.102872
0.0353022
0.0230947
0.018845
0.017243
0.0170962
0.0181295
0.101705
0.0347729
0.0226806
0.0184604
0.0168925
0.0167398
0.0177483
0.0202342
0.0258378
0.0379958
0.101781
0.100578
0.0342877
0.0222904
0.0181042
0.016539
0.0163855
0.0174098
0.0198945
0.0254519
0.0375361
0.100618
0.0995223
0.0338455
0.0219336
0.0177805
0.0162091
0.0160688
0.0171108
0.0195868
0.0250951
0.0370989
0.0995247
0.0985472
0.0334461
0.0216138
0.0174975
0.015929
0.015798
0.0168078
0.0192734
0.0247669
0.0366669
0.0985365
0.0977001
0.0330529
0.0213091
0.0172132
0.0156474
0.0155236
)
;
    }
    ami2
    {
        type            cyclicAMI;
        value           nonuniform List<scalar> 0();
    }
    outlet
    {
        type            zeroGradient;
    }
    procBoundary7to5
    {
        type            processor;
        value           nonuniform List<scalar> 
131
(
0.0969791
0.0359856
0.0242001
0.0187289
0.0162731
0.0152428
0.0153577
0.0169036
0.0209962
0.0326956
0.0969883
0.0327253
0.0139133
0.00919522
0.00749967
0.00676407
0.00648086
0.00657456
0.00707191
0.00848264
0.0139099
0.0360004
0.0210338
0.00848526
0.00605263
0.00545212
0.00530175
0.00524743
0.00528643
0.00540345
0.00605964
0.00920076
0.0242208
0.0169418
0.00706308
0.00540028
0.00512347
0.00512936
0.00514951
0.00512928
0.00512277
0.0054512
0.00750226
0.0187548
0.0153933
0.00657118
0.00527321
0.00511452
0.00520965
0.00526768
0.0052156
0.00511599
0.00528983
0.00676107
0.0162953
0.0152743
0.0165206
0.00648541
0.00689583
0.00525339
0.00543011
0.00515098
0.00525715
0.00527614
0.00535735
0.00532418
0.00526109
0.005132
0.00523603
0.00646824
0.0152584
0.0165206
0.00689583
0.00543011
0.00525715
0.00535735
0.00535735
0.00528294
0.00521278
0.00512761
0.00527027
0.00656351
0.0153645
0.0189753
0.00764922
0.00559288
0.0052516
0.00526014
0.00526014
0.00515744
0.00512679
0.00511496
0.00539085
0.00706334
0.0169042
0.0244617
0.00934223
0.00618259
0.00552793
0.00540249
0.00540249
0.0052619
0.00528226
0.00543597
0.00604485
0.00847049
0.0209956
0.0362984
0.0140567
0.00859909
0.00718448
0.00668243
0.00668243
0.00648269
0.00675066
0.0074839
0.00918747
0.0138938
0.0326762
0.0976928
0.0330149
0.0212628
0.0171686
0.0156014
0.0156014
0.01528
0.0162844
0.0187289
0.0241776
0.0359567
0.0968863
)
;
    }
    procBoundary7to8
    {
        type            processor;
        value           nonuniform List<scalar> 
68
(
0.104165
0.0389934
0.0266521
0.0210413
0.0185625
0.0358807
0.0152543
0.0103853
0.00867264
0.00797649
0.023565
0.00963214
0.00709652
0.00655588
0.00640264
0.0192542
0.008174
0.0064258
0.00628537
0.00644373
0.0176324
0.00770212
0.00632273
0.00639356
0.00666187
0.00680919
0.0174879
0.0076526
0.00633181
0.00646077
0.00675733
0.0069074
0.0185611
0.0206325
0.0079407
0.00836692
0.00635348
0.00639758
0.00664437
0.00677825
0.0206325
0.00836692
0.00836692
0.00653508
0.00626964
0.00639196
0.00648807
0.0262416
0.0100709
0.0100709
0.0070941
0.00641759
0.00632369
0.00635354
0.0384771
0.0149581
0.0149581
0.00962334
0.00816823
0.00769654
0.0076595
0.102948
0.0353313
0.0353313
0.0235825
0.0192715
0.017644
0.017494
)
;
    }
    procBoundary7to9
    {
        type            processor;
        value           nonuniform List<scalar> 
59
(
0.0174769
0.017618
0.0192376
0.0235435
0.035866
0.104154
0.00768228
0.00771032
0.00815701
0.00963733
0.0152434
0.0390016
0.00637731
0.00633814
0.00642853
0.00708114
0.010353
0.0266718
0.00652282
0.00641418
0.00628427
0.00654204
0.00861899
0.0210591
0.00668453
0.00641655
0.00636666
0.00794087
0.0185725
0.00679176
0.00647718
0.0063405
0.00765121
0.0174876
0.00668449
0.00640694
0.00632795
0.00770102
0.0176255
0.00644416
0.00628865
0.00642455
0.00816662
0.0192444
0.00639929
0.00654754
0.00710604
0.00963316
0.0235512
0.00796334
0.00861748
0.0103606
0.0152397
0.0358681
0.0185572
0.0210421
0.0266529
0.0389916
0.104144
)
;
    }
}


// ************************************************************************* //
