/*--------------------------------*- C++ -*----------------------------------*\
| =========                 |                                                 |
| \\      /  F ield         | OpenFOAM: The Open Source CFD Toolbox           |
|  \\    /   O peration     | Version:  2212                                  |
|   \\  /    A nd           | Website:  www.openfoam.com                      |
|    \\/     M anipulation  |                                                 |
\*---------------------------------------------------------------------------*/
FoamFile
{
    version     2.0;
    format      ascii;
    arch        "LSB;label=32;scalar=64";
    class       volScalarField;
    location    "1";
    object      k;
}
// * * * * * * * * * * * * * * * * * * * * * * * * * * * * * * * * * * * * * //

dimensions      [0 2 -2 0 0 0 0];

internalField   nonuniform List<scalar> 
693
(
0.0020406
0.00202374
0.00200751
0.00199222
0.00197793
0.00196534
0.00176148
0.00174517
0.00172979
0.00171547
0.00170214
0.00168931
0.00175309
0.00173356
0.00171505
0.00169793
0.00168235
0.00166816
0.00172261
0.00170014
0.00167944
0.00166025
0.00164318
0.00162572
0.00170699
0.00168133
0.00165825
0.00163729
0.00161858
0.00159954
0.00168228
0.00165599
0.00163082
0.00160814
0.0015885
0.00156878
0.00165066
0.00162601
0.00160108
0.00157855
0.00155905
0.00153919
0.00162018
0.00159751
0.00157593
0.00155568
0.00153771
0.00151889
0.00160897
0.00158831
0.00156866
0.00155045
0.00153387
0.00151819
0.00166171
0.00164386
0.00162726
0.00161208
0.00159819
0.00158459
0.00204061
0.00202341
0.00200731
0.00199208
0.00197785
0.00196528
0.00166242
0.00164449
0.00162799
0.00161284
0.00159894
0.00158529
0.00121601
0.00118277
0.00115249
0.00112537
0.00110123
0.00107912
0.00151057
0.0014627
0.0014175
0.00137698
0.0013411
0.00130483
0.00168159
0.00162726
0.00157936
0.00153318
0.00149278
0.00145042
0.00176979
0.00171451
0.00166296
0.00161547
0.00156947
0.00152373
0.0018099
0.00174445
0.00168624
0.00163724
0.00159411
0.00155407
0.00178717
0.00172465
0.00167148
0.00162004
0.00157255
0.00152441
0.00166439
0.00160816
0.00155388
0.00150428
0.00145903
0.00141402
0.00142471
0.00137647
0.00132986
0.00128959
0.00125277
0.00121679
0.00121485
0.00118237
0.00115186
0.00112452
0.00110036
0.00107822
0.00176172
0.00174538
0.00172998
0.00171576
0.00170253
0.00168971
0.00161007
0.00158944
0.00156986
0.00155177
0.0015354
0.0015198
0.00142712
0.00137851
0.00133229
0.00129244
0.00125645
0.00122044
0.0017752
0.00170968
0.00164767
0.00159119
0.0015406
0.00148962
0.0020375
0.00196002
0.00188838
0.00182155
0.00176164
0.00170173
0.00219698
0.0021126
0.00203439
0.00196205
0.00189648
0.00183118
0.00226068
0.00217378
0.00209221
0.00201786
0.00195115
0.00188446
0.00221681
0.00213308
0.00205477
0.00198211
0.00191572
0.0018496
0.00205149
0.00197439
0.00190198
0.0018346
0.00177346
0.00171282
0.00177362
0.00170867
0.00164645
0.00158979
0.00153864
0.0014877
0.00150956
0.00146376
0.00141861
0.00137777
0.0013419
0.00130563
0.00175376
0.00173422
0.00171582
0.00169879
0.00168336
0.00166918
0.00162164
0.00159875
0.00157721
0.00155704
0.00153932
0.00152093
0.0016684
0.00161044
0.00155716
0.00150666
0.00146396
0.0014194
0.00205321
0.00197617
0.00190423
0.0018369
0.00177644
0.00171614
0.00236227
0.00227109
0.00218657
0.00210782
0.00203641
0.00196594
0.00255658
0.00245617
0.00236328
0.00227707
0.00219843
0.0021221
0.00262682
0.00252321
0.00242739
0.00233847
0.00225727
0.00217903
0.00256219
0.00246235
0.00236977
0.00228365
0.00220495
0.00212855
0.00236115
0.00227007
0.00218554
0.00210668
0.00203512
0.00196447
0.00203699
0.00195972
0.00188809
0.00182114
0.00176134
0.0017015
0.00168164
0.00162899
0.00158051
0.00153443
0.00149425
0.00145223
0.00172349
0.001701
0.00168041
0.00166137
0.00164449
0.00162722
0.00165169
0.00162742
0.0016025
0.00158006
0.00156079
0.00154115
0.00178985
0.00172764
0.00167468
0.00162341
0.00157664
0.00152947
0.00221805
0.00213456
0.00205675
0.00198454
0.00191864
0.00185326
0.00256241
0.00246267
0.00237037
0.00228465
0.00220633
0.00213043
0.00278189
0.00267137
0.00256929
0.00247479
0.00238815
0.00230563
0.00285998
0.00274518
0.00263935
0.00254153
0.00245187
0.00236682
0.00278235
0.00267151
0.00256917
0.00247443
0.00238759
0.00230473
0.00255454
0.00245462
0.00236205
0.00227609
0.00219763
0.00212142
0.00219598
0.00211205
0.00203422
0.00196233
0.00189697
0.00183187
0.00177154
0.00171594
0.00166498
0.00161766
0.00157138
0.00152618
0.00170767
0.00168208
0.00165917
0.00163838
0.00161987
0.00160097
0.00168305
0.00165732
0.00163221
0.00160972
0.00159039
0.00157085
0.00181282
0.00174774
0.00168962
0.00164072
0.00159806
0.00155867
0.00226057
0.00217436
0.00209346
0.00202039
0.00195354
0.00188831
0.00262459
0.00252181
0.00242672
0.0023386
0.00225777
0.00218175
0.00285755
0.00274347
0.00263819
0.00254089
0.00245144
0.00236863
0.00293949
0.0028212
0.00271211
0.00261133
0.00251883
0.00243185
0.00285864
0.00274411
0.00263844
0.00254072
0.00245111
0.00236611
0.00262393
0.00252102
0.00242566
0.0023371
0.00225629
0.0021783
0.00225931
0.0021728
0.00209156
0.00201789
0.00195144
0.00188506
0.00181187
0.00174639
0.00168797
0.00163895
0.00159612
0.00155624
0.00168299
0.0016567
0.00163151
0.00160888
0.00158932
0.00156963
0.0017071
0.00168194
0.00165922
0.00163898
0.00161855
0.0017706
0.00171659
0.00166653
0.00161887
0.00156996
0.00219701
0.00211352
0.00203584
0.001965
0.00189537
0.0025549
0.00245508
0.00236265
0.00227774
0.00219654
0.00278097
0.00267054
0.00256852
0.00247463
0.00238623
0.00285831
0.0027439
0.00263832
0.00254077
0.00245109
0.00236818
0.0027822
0.00267121
0.00256874
0.00247391
0.00238701
0.00230435
0.00256119
0.00246132
0.00236872
0.00228263
0.00220403
0.00212767
0.00221618
0.00213244
0.00205424
0.00198178
0.00191547
0.00184955
0.00178794
0.00172569
0.0016722
0.00162066
0.00157317
0.00152575
0.00165107
0.00162619
0.00160121
0.0015787
0.0015594
0.00153972
0.00170093
0.00168045
0.00166187
0.00164303
0.00163145
0.00158099
0.0015363
0.00149069
0.00203795
0.00196098
0.00188912
0.00182404
0.00175939
0.0023617
0.00227075
0.00218616
0.00210886
0.00203342
0.00256205
0.00246226
0.00236972
0.0022847
0.00220323
0.00262532
0.00252205
0.00242641
0.00233789
0.00225661
0.00218052
0.00255591
0.00245528
0.00236218
0.00227588
0.00219723
0.00212114
0.00236053
0.00226922
0.00218447
0.00210549
0.00203385
0.00196316
0.00205061
0.00197328
0.00190083
0.00183344
0.00177231
0.00171176
0.00166454
0.00160755
0.00155364
0.00150408
0.00145925
0.00141445
0.00162035
0.00159729
0.00157573
0.00155558
0.00153786
0.00151917
0.00173497
0.00171647
0.00169926
0.00168327
0.00146675
0.00141957
0.00137927
0.00133874
0.001775
0.00170993
0.00164745
0.00159275
0.00153746
0.00205311
0.00197609
0.00190355
0.00183773
0.00177263
0.0022179
0.00213407
0.00205584
0.00198433
0.00191394
0.00226079
0.00217367
0.00209222
0.00201869
0.00195142
0.00188699
0.00219685
0.00211198
0.00203358
0.0019618
0.0018964
0.00183165
0.00203576
0.00195807
0.00188611
0.00181913
0.00175941
0.00169979
0.00177231
0.00170667
0.00164413
0.00158752
0.00153657
0.00148579
0.00142446
0.00137527
0.00132882
0.00128866
0.00125272
0.00121692
0.00160898
0.00158788
0.0015683
0.00155023
0.00153391
0.00151833
0.0017461
0.00173087
0.00171634
0.00170196
0.00118624
0.00115426
0.00112631
0.00110085
0.00142755
0.00137895
0.00133211
0.00129388
0.0012542
0.00166901
0.00161087
0.00155593
0.00150874
0.00146019
0.00179051
0.00172743
0.00167408
0.00162332
0.00157246
0.00181263
0.00174674
0.00168826
0.00163926
0.00159593
0.00155693
0.00177089
0.0017154
0.00166412
0.00161631
0.00156969
0.00152493
0.00167957
0.00162654
0.00157792
0.00153179
0.0014919
0.00145009
0.00150781
0.00146125
0.00141586
0.00137529
0.00133973
0.0013037
0.00121408
0.00118092
0.00115065
0.00112358
0.00109988
0.00107774
0.00166154
0.00164333
0.00162677
0.00161171
0.0015979
0.00158422
0.00202469
0.00200806
0.0019923
0.0019779
0.00164534
0.00162847
0.00161299
0.0015977
0.0016102
0.00158923
0.00156955
0.0015517
0.00153438
0.0016218
0.00159847
0.00157672
0.00155731
0.00153789
0.00165207
0.00162733
0.00160199
0.00158033
0.00155892
0.00168324
0.00165719
0.00163177
0.00160947
0.00158952
0.00157077
0.00170743
0.00168175
0.00165879
0.00163803
0.00161961
0.001601
0.00172246
0.00169987
0.00167932
0.00166036
0.00164372
0.00162639
0.00175251
0.00173278
0.00171442
0.0016975
0.00168222
0.00166803
0.001761
0.0017444
0.00172902
0.00171485
0.00170169
0.00168888
0.00203999
0.00202274
0.00200673
0.00199147
0.0019772
0.0019645
)
;

boundaryField
{
    inlet
    {
        type            fixedValue;
        value           nonuniform List<scalar> 0();
    }
    ami1
    {
        type            cyclicAMI;
        value           nonuniform List<scalar> 0();
    }
    walls
    {
        type            kqRWallFunction;
        value           nonuniform List<scalar> 
248
(
0.0020406
0.00176148
0.00175309
0.00172261
0.00170699
0.00168228
0.00165066
0.00162018
0.00160897
0.00166171
0.00204061
0.00202374
0.00174517
0.00173356
0.00170014
0.00168133
0.00165599
0.00162601
0.00159751
0.00158831
0.00164386
0.00202341
0.00200751
0.00172979
0.00171505
0.00167944
0.00165825
0.00163082
0.00160108
0.00157593
0.00156866
0.00162726
0.00200731
0.00199222
0.00171547
0.00169793
0.00166025
0.00163729
0.00160814
0.00157855
0.00155568
0.00155045
0.00161208
0.00199208
0.00197793
0.00170214
0.00168235
0.00164318
0.00161858
0.0015885
0.00155905
0.00153771
0.00153387
0.00159819
0.00197785
0.00196534
0.00168931
0.00166816
0.00162572
0.00159954
0.00156878
0.00153919
0.00151889
0.00151819
0.00158459
0.00196528
0.00204061
0.00176172
0.00175376
0.00172349
0.00170767
0.00168299
0.00165107
0.00162035
0.00160898
0.00166154
0.00203999
0.00202341
0.00174538
0.00173422
0.001701
0.00168208
0.0016567
0.00162619
0.00159729
0.00158788
0.00164333
0.00202274
0.00200731
0.00172998
0.00171582
0.00168041
0.00165917
0.00163151
0.00160121
0.00157573
0.0015683
0.00162677
0.00200673
0.00199208
0.00171576
0.00169879
0.00166137
0.00163838
0.00160888
0.0015787
0.00155558
0.00155023
0.00161171
0.00199147
0.00197785
0.00170253
0.00168336
0.00164449
0.00161987
0.00158932
0.0015594
0.00153786
0.00153391
0.0015979
0.0019772
0.00196528
0.00168971
0.00166918
0.00162722
0.00160097
0.00156963
0.00153972
0.00151917
0.00151833
0.00158422
0.0019645
0.0016102
0.0016218
0.00165207
0.00168324
0.00170743
0.00172246
0.00175251
0.001761
0.00203999
0.00202469
0.00164534
0.00158923
0.00159847
0.00162733
0.00165719
0.00168175
0.00169987
0.00173278
0.0017444
0.00202274
0.00200806
0.00162847
0.00156955
0.00157672
0.00160199
0.00163177
0.00165879
0.00167932
0.00171442
0.00172902
0.00200673
0.0019923
0.00161299
0.0015517
0.00155731
0.00158033
0.00160947
0.00163803
0.00166036
0.0016975
0.00171485
0.00199147
0.0019779
0.0015977
0.00153438
0.00153789
0.00155892
0.00158952
0.00161961
0.00164372
0.00168222
0.00170169
0.0019772
0.00157077
0.001601
0.00162639
0.00166803
0.00168888
0.0019645
0.0020406
0.00166242
0.00161007
0.00162164
0.00165169
0.00168305
0.0017071
0.00202374
0.00164449
0.00158944
0.00159875
0.00162742
0.00165732
0.00168194
0.00170093
0.00173497
0.0017461
0.00202469
0.00200751
0.00162799
0.00156986
0.00157721
0.0016025
0.00163221
0.00165922
0.00168045
0.00171647
0.00173087
0.00200806
0.00199222
0.00161284
0.00155177
0.00155704
0.00158006
0.00160972
0.00163898
0.00166187
0.00169926
0.00171634
0.0019923
0.00197793
0.00159894
0.0015354
0.00153932
0.00156079
0.00159039
0.00161855
0.00164303
0.00168327
0.00170196
0.0019779
0.00196534
0.00158529
0.0015198
0.00152093
0.00154115
0.00157085
)
;
    }
    ami2
    {
        type            cyclicAMI;
        value           nonuniform List<scalar> 0();
    }
    outlet
    {
        type            zeroGradient;
    }
    procBoundary7to5
    {
        type            processor;
        value           nonuniform List<scalar> 
131
(
0.00195433
0.00167837
0.00165501
0.00160986
0.00158182
0.00155095
0.00152105
0.0015021
0.00150407
0.00157263
0.00195445
0.00157357
0.00105305
0.00126589
0.00140636
0.00147859
0.00151483
0.00147566
0.00136691
0.0011776
0.00105205
0.00167882
0.00150577
0.00118119
0.00143787
0.00164334
0.0017699
0.00182272
0.00178742
0.00165382
0.00143608
0.00126655
0.00165593
0.00150389
0.00137179
0.00165653
0.00190005
0.0020525
0.00210805
0.00205892
0.00189895
0.00164349
0.00140829
0.00161125
0.00152325
0.001481
0.00179075
0.00206082
0.0022313
0.00229056
0.0022303
0.00205214
0.00177087
0.00148094
0.00158314
0.00155297
0.0015991
0.00151911
0.0015229
0.00182684
0.00183034
0.00211113
0.00212248
0.00229252
0.00230708
0.00235393
0.00228998
0.00210761
0.00182315
0.00151686
0.00155194
0.0015991
0.0015229
0.00183034
0.00212248
0.00230708
0.00230708
0.00229182
0.00222999
0.0020579
0.0017872
0.00147735
0.00152146
0.00162509
0.00144377
0.00169667
0.00196302
0.00212897
0.00212897
0.00210954
0.00205153
0.00189721
0.0016524
0.00136714
0.00150205
0.0016682
0.00129596
0.00148117
0.00170894
0.00184751
0.00184751
0.00182456
0.00176995
0.00164108
0.00143393
0.00117731
0.00150385
0.00168935
0.00107153
0.00121059
0.00140863
0.00151967
0.00151967
0.00151751
0.00147978
0.00140581
0.00126418
0.00105039
0.00157199
0.00196527
0.00158417
0.00151792
0.001518
0.00153825
0.00153825
0.00155317
0.00158263
0.00161015
0.00165413
0.0016775
0.00195307
)
;
    }
    procBoundary7to8
    {
        type            processor;
        value           nonuniform List<scalar> 
68
(
0.00205908
0.00177895
0.00177386
0.00174913
0.00173628
0.0016818
0.00125108
0.00156406
0.00174191
0.00183184
0.00163338
0.00148063
0.00184767
0.00212304
0.00228746
0.001648
0.00173153
0.00213771
0.00246128
0.00266428
0.0016782
0.00185673
0.0023082
0.00267043
0.00290077
0.00298183
0.00170995
0.00188228
0.00235334
0.00273581
0.00298028
0.00306579
0.0017369
0.00172458
0.00183504
0.00168697
0.00228818
0.00266302
0.00289992
0.00298067
0.00172458
0.00168697
0.00168697
0.00212339
0.00246059
0.00266993
0.00273604
0.00175425
0.00151581
0.00151581
0.00184784
0.00213756
0.00230796
0.00235306
0.00176201
0.00122022
0.00122022
0.00148178
0.00173302
0.00185799
0.00188243
0.00204153
0.00166324
0.00166324
0.00163411
0.00164898
0.00167885
0.00171031
)
;
    }
    procBoundary7to9
    {
        type            processor;
        value           nonuniform List<scalar> 
59
(
0.00170926
0.00167728
0.00164696
0.00163243
0.00168138
0.00205898
0.00187936
0.00185399
0.00172895
0.00147874
0.00125079
0.00177923
0.00235234
0.00230676
0.0021361
0.00184688
0.00156524
0.00177466
0.00273697
0.00266993
0.00245997
0.00212252
0.00174424
0.00175009
0.00290079
0.00266246
0.00228712
0.0018347
0.00173716
0.00298071
0.00273491
0.00235188
0.00188153
0.00170991
0.00290036
0.0026689
0.00230609
0.00185502
0.00167771
0.00266296
0.00245917
0.0021352
0.00172918
0.00164733
0.00228669
0.00212115
0.00184542
0.00147876
0.00163272
0.00183245
0.0017419
0.00156381
0.00125063
0.00168137
0.00173648
0.00174927
0.00177391
0.00177889
0.00205878
)
;
    }
}


// ************************************************************************* //
