/*--------------------------------*- C++ -*----------------------------------*\
| =========                 |                                                 |
| \\      /  F ield         | OpenFOAM: The Open Source CFD Toolbox           |
|  \\    /   O peration     | Version:  2212                                  |
|   \\  /    A nd           | Website:  www.openfoam.com                      |
|    \\/     M anipulation  |                                                 |
\*---------------------------------------------------------------------------*/
FoamFile
{
    version     2.0;
    format      ascii;
    arch        "LSB;label=32;scalar=64";
    class       volScalarField;
    location    "1";
    object      nut;
}
// * * * * * * * * * * * * * * * * * * * * * * * * * * * * * * * * * * * * * //

dimensions      [0 2 -1 0 0 0 0];

internalField   nonuniform List<scalar> 
693
(
3.64303e-06
3.62417e-06
3.60623e-06
3.58919e-06
3.5729e-06
3.55813e-06
7.26124e-06
7.22033e-06
7.18133e-06
7.14461e-06
7.10958e-06
7.07574e-06
1.05524e-05
1.04819e-05
1.04149e-05
1.03519e-05
1.02936e-05
1.02386e-05
1.29698e-05
1.28658e-05
1.27718e-05
1.26841e-05
1.26055e-05
1.25263e-05
1.44752e-05
1.43447e-05
1.42279e-05
1.41223e-05
1.40264e-05
1.39303e-05
1.49121e-05
1.47597e-05
1.46266e-05
1.45069e-05
1.44024e-05
1.42987e-05
1.42363e-05
1.4102e-05
1.39696e-05
1.38566e-05
1.37581e-05
1.36539e-05
1.25541e-05
1.24573e-05
1.23608e-05
1.22682e-05
1.21835e-05
1.20842e-05
1.0099e-05
1.00218e-05
9.94736e-06
9.87812e-06
9.81196e-06
9.75082e-06
7.04451e-06
6.99862e-06
6.95555e-06
6.91571e-06
6.87808e-06
6.8416e-06
3.64309e-06
3.62407e-06
3.60611e-06
3.58912e-06
3.57289e-06
3.55811e-06
7.04567e-06
6.99946e-06
6.95674e-06
6.91706e-06
6.87955e-06
6.84303e-06
8.8073e-06
8.49553e-06
8.23898e-06
8.00091e-06
7.77949e-06
7.57303e-06
2.02018e-05
1.93719e-05
1.85526e-05
1.799e-05
1.73715e-05
1.67763e-05
3.02744e-05
2.89111e-05
2.82384e-05
2.70284e-05
2.64398e-05
2.52892e-05
3.63475e-05
3.53044e-05
3.42513e-05
3.32286e-05
3.21547e-05
3.09284e-05
3.95129e-05
3.80427e-05
3.66917e-05
3.55983e-05
3.4649e-05
3.36241e-05
3.82347e-05
3.70051e-05
3.57366e-05
3.44809e-05
3.32487e-05
3.19415e-05
3.11622e-05
3.0142e-05
2.87056e-05
2.78e-05
2.65992e-05
2.56771e-05
1.94056e-05
1.85313e-05
1.76209e-05
1.71441e-05
1.64061e-05
1.58485e-05
8.77071e-06
8.51644e-06
8.23872e-06
7.99402e-06
7.77216e-06
7.56353e-06
7.26172e-06
7.22104e-06
7.18196e-06
7.14541e-06
7.1105e-06
7.07661e-06
1.01023e-05
1.00248e-05
9.95054e-06
9.88069e-06
9.81643e-06
9.75547e-06
1.94824e-05
1.8583e-05
1.77061e-05
1.72342e-05
1.65367e-05
1.59561e-05
4.11492e-05
3.92602e-05
3.73274e-05
3.61981e-05
3.47464e-05
3.33759e-05
5.87309e-05
5.6345e-05
5.41032e-05
5.19296e-05
5.02404e-05
4.81018e-05
6.99439e-05
6.69928e-05
6.44571e-05
6.20351e-05
5.97084e-05
5.70854e-05
7.51745e-05
7.14392e-05
6.81894e-05
6.65847e-05
6.48103e-05
6.12429e-05
7.24854e-05
6.91705e-05
6.6299e-05
6.39119e-05
6.13127e-05
5.85361e-05
6.02142e-05
5.78033e-05
5.52496e-05
5.32773e-05
5.12038e-05
4.93518e-05
4.08534e-05
3.92838e-05
3.72398e-05
3.61066e-05
3.45432e-05
3.32174e-05
2.00454e-05
1.94937e-05
1.8616e-05
1.80236e-05
1.73957e-05
1.67946e-05
1.05534e-05
1.04836e-05
1.04171e-05
1.03543e-05
1.02963e-05
1.02412e-05
1.25589e-05
1.24613e-05
1.23663e-05
1.22715e-05
1.21878e-05
1.20948e-05
3.16031e-05
3.01108e-05
2.89935e-05
2.76834e-05
2.70784e-05
2.57963e-05
6.06284e-05
5.81102e-05
5.5679e-05
5.34269e-05
5.16503e-05
4.95773e-05
8.26555e-05
7.9878e-05
7.71397e-05
7.44372e-05
7.23571e-05
6.89404e-05
9.49134e-05
9.20082e-05
8.90743e-05
8.61661e-05
8.37826e-05
7.9975e-05
9.918e-05
9.62585e-05
9.32738e-05
9.03673e-05
8.79509e-05
8.39626e-05
9.58102e-05
9.28601e-05
8.98279e-05
8.68375e-05
8.44033e-05
8.05089e-05
8.25911e-05
7.98393e-05
7.7079e-05
7.43542e-05
7.22574e-05
6.88252e-05
5.8685e-05
5.64061e-05
5.41037e-05
5.1839e-05
5.02896e-05
4.80869e-05
2.99714e-05
2.91656e-05
2.82126e-05
2.7058e-05
2.64853e-05
2.53675e-05
1.29713e-05
1.28684e-05
1.2775e-05
1.26875e-05
1.26093e-05
1.25307e-05
1.42392e-05
1.41106e-05
1.39742e-05
1.38622e-05
1.37639e-05
1.36612e-05
3.84458e-05
3.71561e-05
3.59236e-05
3.46976e-05
3.34322e-05
3.22813e-05
7.28804e-05
6.9592e-05
6.67638e-05
6.42465e-05
6.17034e-05
5.90147e-05
9.62233e-05
9.33066e-05
9.03199e-05
8.73568e-05
8.49289e-05
8.0945e-05
0.000109272
0.000106202
0.000103091
9.997e-05
9.73686e-05
9.28866e-05
0.000113147
0.000110141
0.000107057
0.000103937
0.000101306
9.67194e-05
0.000108965
0.000105946
0.000102843
9.97234e-05
9.71305e-05
9.26941e-05
9.52722e-05
9.23442e-05
8.9386e-05
8.64711e-05
8.40789e-05
8.01797e-05
7.02948e-05
6.73319e-05
6.47648e-05
6.2355e-05
5.99779e-05
5.73447e-05
3.65328e-05
3.54815e-05
3.44177e-05
3.3413e-05
3.2208e-05
3.11529e-05
1.44749e-05
1.43467e-05
1.42313e-05
1.41262e-05
1.40311e-05
1.39346e-05
1.49121e-05
1.47674e-05
1.46331e-05
1.4513e-05
1.44094e-05
1.4306e-05
3.97867e-05
3.83048e-05
3.69313e-05
3.58048e-05
3.49047e-05
3.37645e-05
7.5599e-05
7.19929e-05
6.87432e-05
6.74161e-05
6.49217e-05
6.13546e-05
0.000100075
9.71102e-05
9.40788e-05
9.11602e-05
8.8672e-05
8.41343e-05
0.000113879
0.000110764
0.000107596
0.000104452
0.000101729
9.66691e-05
0.000117985
0.000114875
0.000111709
0.00010852
0.000105799
0.000100976
0.000113365
0.00011032
0.000107192
0.000104047
0.000101417
9.68072e-05
9.9766e-05
9.67628e-05
9.36894e-05
9.07857e-05
8.84184e-05
8.42716e-05
7.5419e-05
7.17538e-05
6.85219e-05
6.71261e-05
6.5048e-05
6.14703e-05
3.97407e-05
3.82647e-05
3.68971e-05
3.57728e-05
3.48663e-05
3.37773e-05
1.49136e-05
1.47634e-05
1.463e-05
1.45095e-05
1.44049e-05
1.43013e-05
1.4467e-05
1.43451e-05
1.42317e-05
1.41292e-05
1.40276e-05
3.64369e-05
3.55889e-05
3.44579e-05
3.34562e-05
3.20907e-05
7.07154e-05
6.77828e-05
6.50566e-05
6.2527e-05
5.95732e-05
9.56286e-05
9.27467e-05
8.97589e-05
8.70876e-05
8.33684e-05
0.000109591
0.000106558
0.000103434
0.000100575
9.64124e-05
0.000113581
0.000110524
0.000107395
0.000104302
0.000101598
9.64474e-05
0.000108969
0.000105965
0.000102887
9.98179e-05
9.73008e-05
9.28005e-05
9.59418e-05
9.30048e-05
9.00111e-05
8.70851e-05
8.47331e-05
8.06554e-05
7.26672e-05
6.93878e-05
6.65862e-05
6.42026e-05
6.15595e-05
5.88161e-05
3.83271e-05
3.70965e-05
3.58327e-05
3.45988e-05
3.32772e-05
3.21789e-05
1.42383e-05
1.41027e-05
1.39706e-05
1.38581e-05
1.37592e-05
1.36547e-05
1.28686e-05
1.2775e-05
1.26903e-05
1.2606e-05
2.91439e-05
2.80137e-05
2.7159e-05
2.60942e-05
5.88856e-05
5.65298e-05
5.41758e-05
5.21995e-05
4.99322e-05
8.29116e-05
8.01804e-05
7.7394e-05
7.50312e-05
7.16221e-05
9.62932e-05
9.33904e-05
9.0398e-05
8.7775e-05
8.38818e-05
9.96893e-05
9.67164e-05
9.37155e-05
9.09354e-05
8.85184e-05
8.38905e-05
9.49347e-05
9.20629e-05
8.91983e-05
8.64242e-05
8.42034e-05
8.01741e-05
8.25036e-05
7.97944e-05
7.70733e-05
7.44178e-05
7.235e-05
6.89082e-05
6.02571e-05
5.78759e-05
5.53696e-05
5.33514e-05
5.12921e-05
4.94416e-05
3.12204e-05
3.01213e-05
2.87943e-05
2.7818e-05
2.66543e-05
2.57396e-05
1.25559e-05
1.24568e-05
1.23603e-05
1.22673e-05
1.21834e-05
1.20842e-05
1.04851e-05
1.04183e-05
1.03556e-05
1.02962e-05
1.94452e-05
1.85491e-05
1.79467e-05
1.7266e-05
4.10666e-05
3.92549e-05
3.72965e-05
3.62514e-05
3.45577e-05
6.06946e-05
5.81995e-05
5.56605e-05
5.36241e-05
5.13701e-05
7.28519e-05
6.95325e-05
6.67839e-05
6.42198e-05
6.11915e-05
7.53083e-05
7.15795e-05
6.86089e-05
6.7215e-05
6.49289e-05
6.16523e-05
6.99415e-05
6.69791e-05
6.45765e-05
6.25462e-05
6.01655e-05
5.74772e-05
5.85665e-05
5.62872e-05
5.39737e-05
5.18067e-05
5.02458e-05
4.81682e-05
4.09066e-05
3.9193e-05
3.71571e-05
3.60875e-05
3.45226e-05
3.32269e-05
1.94165e-05
1.85055e-05
1.76343e-05
1.71478e-05
1.64543e-05
1.58833e-05
1.0099e-05
1.00206e-05
9.94606e-06
9.8766e-06
9.81122e-06
9.75054e-06
7.22177e-06
7.18324e-06
7.14643e-06
7.10994e-06
8.50991e-06
8.23647e-06
8.00006e-06
7.7778e-06
1.9442e-05
1.85627e-05
1.77031e-05
1.72727e-05
1.65183e-05
3.16303e-05
3.01954e-05
2.8849e-05
2.80493e-05
2.67416e-05
3.85101e-05
3.71664e-05
3.59458e-05
3.47531e-05
3.32845e-05
3.97544e-05
3.82724e-05
3.69262e-05
3.58283e-05
3.47795e-05
3.38312e-05
3.6385e-05
3.542e-05
3.43669e-05
3.33576e-05
3.21819e-05
3.11875e-05
2.9916e-05
2.90844e-05
2.81478e-05
2.70108e-05
2.64645e-05
2.53634e-05
2.00296e-05
1.94516e-05
1.85664e-05
1.80036e-05
1.73545e-05
1.6769e-05
8.77173e-06
8.49775e-06
8.23678e-06
7.99218e-06
7.77757e-06
7.56551e-06
7.04389e-06
6.99736e-06
6.95428e-06
6.91452e-06
6.87708e-06
6.8403e-06
3.62486e-06
3.60677e-06
3.58941e-06
3.57318e-06
7.0008e-06
6.95759e-06
6.91763e-06
6.87811e-06
1.01027e-05
1.00245e-05
9.94978e-06
9.8791e-06
9.8154e-06
1.2561e-05
1.24629e-05
1.23649e-05
1.22733e-05
1.2185e-05
1.42419e-05
1.41116e-05
1.3974e-05
1.38662e-05
1.37589e-05
1.4914e-05
1.4768e-05
1.46335e-05
1.4515e-05
1.44069e-05
1.43047e-05
1.447e-05
1.4345e-05
1.42311e-05
1.41267e-05
1.40315e-05
1.39356e-05
1.29689e-05
1.28657e-05
1.27727e-05
1.26854e-05
1.26077e-05
1.25259e-05
1.05508e-05
1.04805e-05
1.04139e-05
1.03511e-05
1.02932e-05
1.02377e-05
7.26039e-06
7.21924e-06
7.18001e-06
7.14348e-06
7.10862e-06
7.07468e-06
3.64251e-06
3.62336e-06
3.60544e-06
3.58838e-06
3.57214e-06
3.55724e-06
)
;

boundaryField
{
    inlet
    {
        type            calculated;
        value           nonuniform List<scalar> 0();
    }
    ami1
    {
        type            cyclicAMI;
        value           nonuniform List<scalar> 0();
    }
    walls
    {
        type            nutkWallFunction;
        blending        stepwise;
        value           uniform 0;
    }
    ami2
    {
        type            cyclicAMI;
        value           nonuniform List<scalar> 0();
    }
    outlet
    {
        type            calculated;
        value           nonuniform List<scalar> 0();
    }
    procBoundary7to5
    {
        type            processor;
        value           nonuniform List<scalar> 
131
(
3.54455e-06
7.0451e-06
1.01866e-05
1.2454e-05
1.38385e-05
1.42028e-05
1.35582e-05
1.20132e-05
9.69697e-06
6.80778e-06
3.54463e-06
6.80974e-06
7.17314e-06
1.56846e-05
2.37351e-05
2.90891e-05
3.18666e-05
2.98091e-05
2.37785e-05
1.47133e-05
7.16129e-06
7.04603e-06
9.70161e-06
1.47985e-05
3.07424e-05
4.45789e-05
5.31769e-05
5.69816e-05
5.4392e-05
4.5556e-05
3.06306e-05
1.56915e-05
1.01891e-05
1.20149e-05
2.39785e-05
4.57328e-05
6.34176e-05
7.3917e-05
7.76676e-05
7.43815e-05
6.33529e-05
4.45948e-05
2.37922e-05
1.24583e-05
1.3566e-05
3.00407e-05
5.47317e-05
7.4734e-05
8.60104e-05
8.96407e-05
8.58352e-05
7.40842e-05
5.33551e-05
2.91946e-05
1.38426e-05
1.42105e-05
1.39304e-05
3.20245e-05
3.02691e-05
5.71744e-05
5.55263e-05
7.78724e-05
7.71222e-05
8.96501e-05
8.94168e-05
9.36651e-05
8.97081e-05
7.78994e-05
5.71325e-05
3.20144e-05
1.42064e-05
1.39304e-05
3.02691e-05
5.55263e-05
7.71222e-05
8.94168e-05
8.94168e-05
8.94806e-05
8.5858e-05
7.4332e-05
5.4545e-05
2.99275e-05
1.35596e-05
1.25259e-05
2.45257e-05
4.63237e-05
6.6039e-05
7.75502e-05
7.75502e-05
7.76576e-05
7.3884e-05
6.3333e-05
4.55842e-05
2.38155e-05
1.2012e-05
1.02389e-05
1.618e-05
3.19362e-05
4.7548e-05
5.68622e-05
5.68622e-05
5.69401e-05
5.33758e-05
4.45887e-05
3.06134e-05
1.4727e-05
9.69446e-06
7.07615e-06
7.35129e-06
1.53385e-05
2.48565e-05
3.11035e-05
3.11035e-05
3.19704e-05
2.91938e-05
2.37665e-05
1.56555e-05
7.14695e-06
6.80627e-06
3.55815e-06
6.84127e-06
9.75259e-06
1.20797e-05
1.36501e-05
1.36501e-05
1.42088e-05
1.3843e-05
1.24583e-05
1.01852e-05
7.04353e-06
3.54335e-06
)
;
    }
    procBoundary7to8
    {
        type            processor;
        value           nonuniform List<scalar> 
68
(
3.66326e-06
7.30434e-06
1.06255e-05
1.30862e-05
1.46166e-05
7.09465e-06
9.23462e-06
2.11997e-05
3.14877e-05
3.78623e-05
1.01894e-05
2.0484e-05
4.32957e-05
6.18765e-05
7.35511e-05
1.26949e-05
3.30119e-05
6.40049e-05
8.67427e-05
9.91435e-05
1.43753e-05
4.02839e-05
7.58378e-05
0.000100383
0.000113677
0.00011752
1.50477e-05
4.16679e-05
7.87201e-05
0.000104263
0.000118299
0.000122465
1.46282e-05
1.29736e-05
3.8166e-05
3.06118e-05
7.4167e-05
9.97647e-05
0.00011391
0.000117965
1.29736e-05
3.06118e-05
3.06118e-05
6.20944e-05
8.69116e-05
0.000100371
0.000103842
1.05545e-05
2.05336e-05
2.05336e-05
4.33187e-05
6.40779e-05
7.58104e-05
7.8432e-05
7.26201e-06
8.95867e-06
8.95867e-06
2.05346e-05
3.30921e-05
4.03675e-05
4.16372e-05
3.64367e-06
7.04679e-06
7.04679e-06
1.01909e-05
1.26986e-05
1.4377e-05
1.50489e-05
)
;
    }
    procBoundary7to9
    {
        type            processor;
        value           nonuniform List<scalar> 
59
(
1.50451e-05
1.43714e-05
1.26899e-05
1.01869e-05
7.09401e-06
3.66329e-06
4.13781e-05
4.01221e-05
3.29818e-05
2.04206e-05
9.23702e-06
7.3051e-06
7.80917e-05
7.55592e-05
6.38815e-05
4.33529e-05
2.1298e-05
1.06273e-05
0.000103359
0.000100023
8.66654e-05
6.19773e-05
3.17686e-05
1.30895e-05
0.000113293
9.94275e-05
7.39452e-05
3.81508e-05
1.46236e-05
0.000117734
0.00010393
7.85142e-05
4.16424e-05
1.50472e-05
0.000113261
0.000100059
7.56363e-05
4.02151e-05
1.43727e-05
9.90391e-05
8.65487e-05
6.38668e-05
3.29518e-05
1.26912e-05
7.35404e-05
6.18455e-05
4.31327e-05
2.04301e-05
1.01872e-05
3.795e-05
3.16891e-05
2.12434e-05
9.23679e-06
7.09353e-06
1.46241e-05
1.30879e-05
1.06258e-05
7.30413e-06
3.66291e-06
)
;
    }
}


// ************************************************************************* //
