/*--------------------------------*- C++ -*----------------------------------*\
| =========                 |                                                 |
| \\      /  F ield         | OpenFOAM: The Open Source CFD Toolbox           |
|  \\    /   O peration     | Version:  2212                                  |
|   \\  /    A nd           | Website:  www.openfoam.com                      |
|    \\/     M anipulation  |                                                 |
\*---------------------------------------------------------------------------*/
FoamFile
{
    version     2.0;
    format      ascii;
    arch        "LSB;label=32;scalar=64";
    class       volScalarField;
    location    "1";
    object      p;
}
// * * * * * * * * * * * * * * * * * * * * * * * * * * * * * * * * * * * * * //

dimensions      [0 2 -2 0 0 0 0];

internalField   nonuniform List<scalar> 
693
(
0.00178142
0.00166683
0.00155275
0.0014403
0.0013295
0.00122053
0.0017749
0.00166045
0.00154679
0.00143501
0.00132489
0.00121633
0.00177128
0.00165666
0.00154288
0.00143101
0.00132099
0.00121252
0.0017762
0.00166054
0.00154607
0.00143305
0.00132188
0.00121284
0.00177926
0.00166326
0.00154885
0.00143615
0.0013252
0.00121575
0.00178261
0.00166692
0.00155239
0.00143923
0.00132774
0.00121793
0.00178439
0.00166901
0.00155492
0.00144222
0.00133112
0.00122168
0.0017833
0.00166855
0.00155474
0.00144216
0.00133116
0.00122216
0.00178374
0.00166908
0.00155483
0.00144218
0.00133126
0.00122218
0.00178838
0.00167347
0.00155927
0.00144624
0.00133473
0.0012252
0.00178154
0.00166684
0.00155305
0.00144063
0.00132971
0.00122061
0.00178823
0.00167344
0.00155893
0.00144586
0.00133454
0.00122524
0.00178746
0.00167278
0.00155813
0.00144504
0.00133394
0.00122485
0.00177744
0.00166271
0.00154879
0.00143613
0.00132512
0.00121559
0.00177683
0.00166156
0.00154768
0.00143492
0.00132333
0.0012128
0.00177766
0.0016628
0.0015486
0.00143549
0.00132363
0.00121266
0.0017792
0.00166455
0.00154998
0.00143654
0.00132505
0.00121453
0.00177967
0.00166493
0.0015507
0.0014377
0.00132608
0.00121526
0.00177926
0.00166436
0.00155085
0.00143851
0.0013272
0.00121693
0.00177958
0.00166526
0.00155187
0.00143969
0.0013289
0.00121937
0.00178754
0.00167271
0.0015585
0.00144549
0.00133419
0.00122488
0.00177498
0.00166041
0.00154706
0.00143528
0.00132512
0.00121652
0.00178351
0.00166899
0.0015546
0.00144181
0.00133109
0.00122233
0.00177936
0.00166528
0.00155176
0.0014393
0.00132863
0.00121949
0.00175833
0.00164404
0.00153221
0.00142113
0.00131027
0.00119955
0.00175156
0.00163751
0.00152511
0.00141353
0.00130228
0.00119121
0.00174777
0.00163389
0.00152102
0.00140892
0.00129749
0.0011867
0.0017474
0.00163283
0.00151996
0.00140827
0.00129721
0.00118668
0.00174796
0.0016337
0.0015207
0.00140871
0.00129759
0.00118685
0.00175111
0.00163698
0.00152456
0.00141328
0.00130258
0.00119189
0.00175864
0.00164442
0.00153223
0.00142107
0.00131028
0.00119962
0.00177763
0.00166283
0.00154911
0.00143643
0.00132532
0.00121569
0.00177135
0.0016565
0.00154318
0.00143134
0.0013213
0.00121283
0.00178321
0.00166874
0.00155471
0.00144174
0.00133096
0.00122253
0.00177894
0.00166416
0.00155081
0.00143859
0.0013273
0.00121711
0.00175097
0.00163667
0.0015246
0.00141369
0.00130278
0.00119167
0.00174119
0.00162699
0.00151447
0.00140298
0.00129182
0.0011806
0.00173581
0.00162133
0.00150841
0.00139638
0.00128472
0.00117349
0.0017351
0.00162008
0.00150727
0.0013955
0.00128359
0.00117217
0.0017362
0.00162135
0.00150837
0.00139637
0.00128471
0.00117349
0.00174115
0.00162708
0.00151453
0.00140309
0.00129205
0.00118093
0.0017517
0.00163785
0.00152516
0.00141372
0.00130261
0.00119157
0.00177706
0.00166199
0.00154795
0.00143522
0.00132367
0.00121319
0.0017764
0.00166068
0.00154666
0.00143352
0.00132226
0.00121333
0.00178433
0.00166904
0.00155489
0.0014422
0.00133109
0.00122183
0.00177938
0.00166468
0.00155069
0.00143798
0.00132639
0.00121549
0.00174801
0.00163368
0.00152076
0.00140889
0.00129784
0.00118696
0.00173631
0.00162139
0.00150831
0.00139623
0.00128454
0.00117328
0.00172969
0.00161497
0.0015016
0.00138914
0.00127708
0.00116558
0.00172826
0.00161351
0.00150009
0.0013876
0.00127548
0.00116395
0.00172973
0.00161503
0.00150168
0.00138925
0.00127719
0.00116563
0.00173586
0.00162141
0.0015085
0.00139645
0.00128475
0.00117345
0.00174778
0.00163401
0.00152115
0.00140909
0.00129776
0.00118693
0.00177774
0.00166304
0.00154879
0.00143584
0.00132416
0.00121328
0.0017796
0.00166363
0.00154931
0.00143674
0.00132577
0.00121643
0.00178268
0.0016672
0.00155279
0.0014397
0.00132824
0.0012182
0.00177915
0.00166452
0.00155006
0.00143688
0.00132553
0.00121496
0.00174746
0.00163282
0.00151988
0.00140807
0.00129693
0.00118673
0.00173511
0.00162001
0.00150704
0.00139485
0.00128264
0.00117168
0.00172815
0.00161327
0.00149972
0.00138699
0.00127464
0.0011635
0.0017262
0.0016114
0.00149783
0.00138518
0.00127295
0.00116151
0.00172831
0.00161353
0.0015001
0.00138759
0.00127538
0.00116373
0.00173518
0.00162021
0.00150742
0.00139552
0.00128342
0.00117183
0.00174747
0.001633
0.00152019
0.00140847
0.00129736
0.00118674
0.00177928
0.00166466
0.00155015
0.00143688
0.00132564
0.00121521
0.0017829
0.00166727
0.00155277
0.00143972
0.00132838
0.00121877
0.00177947
0.0016639
0.00154992
0.0014375
0.00132662
0.00177777
0.00166285
0.00154889
0.00143602
0.00132412
0.00174781
0.00163373
0.00152063
0.00140823
0.00129639
0.00173588
0.00162105
0.00150776
0.00139502
0.00128262
0.00172966
0.00161471
0.00150106
0.00138786
0.00127503
0.00172821
0.00161337
0.00149984
0.00138711
0.0012747
0.0011635
0.00172984
0.00161515
0.00150179
0.00138928
0.00127704
0.00116529
0.00173638
0.00162154
0.00150851
0.00139639
0.00128458
0.00117313
0.00174805
0.00163385
0.00152088
0.00140888
0.00129787
0.00118706
0.00177963
0.00166498
0.00155086
0.001438
0.00132659
0.00121589
0.00178457
0.0016692
0.00155516
0.0014426
0.0013315
0.0012223
0.00166194
0.00154788
0.00143483
0.00132364
0.00166167
0.00154787
0.00143545
0.00132387
0.00175183
0.00163704
0.00152455
0.00141286
0.00130094
0.00174117
0.00162669
0.00151398
0.0014019
0.00128975
0.00173623
0.00162117
0.00150787
0.00139511
0.00128261
0.00173508
0.00162014
0.00150728
0.00139507
0.00128277
0.00117162
0.00173592
0.00162155
0.00150874
0.00139662
0.00128467
0.00117314
0.00174115
0.00162707
0.00151455
0.00140309
0.00129201
0.00118074
0.00175107
0.00163698
0.00152467
0.00141343
0.00130276
0.00119198
0.00177919
0.00166438
0.00155101
0.0014388
0.00132757
0.00121741
0.00178343
0.00166864
0.00155485
0.00144242
0.00133155
0.00122283
0.00165808
0.00154468
0.00143262
0.00132266
0.00166339
0.00154954
0.00143709
0.00132622
0.00175893
0.00164413
0.00153216
0.00142093
0.00130907
0.00175099
0.00163661
0.00152463
0.00141306
0.00130091
0.00174792
0.00163352
0.00152051
0.00140813
0.00129619
0.00174738
0.00163288
0.00152
0.00140802
0.0012968
0.00118654
0.00174783
0.00163403
0.00152114
0.00140906
0.00129773
0.00118681
0.00175157
0.00163762
0.00152499
0.00141366
0.00130261
0.0011915
0.00175849
0.00164427
0.00153224
0.00142117
0.00131039
0.00119968
0.00177955
0.0016653
0.00155193
0.0014398
0.00132909
0.0012197
0.00178392
0.00166919
0.00155487
0.00144226
0.00133151
0.00122274
0.00166175
0.00154836
0.00143644
0.00132672
0.00167382
0.0015595
0.00144663
0.00133633
0.00178017
0.00166594
0.00155236
0.0014403
0.00132995
0.00177924
0.00166467
0.00155156
0.0014393
0.00132772
0.00177964
0.00166495
0.00155111
0.00143816
0.0013261
0.00177928
0.00166451
0.00154991
0.00143654
0.001325
0.00121466
0.00177767
0.00166278
0.00154835
0.00143535
0.00132376
0.00121291
0.0017769
0.00166175
0.00154767
0.00143493
0.00132336
0.0012129
0.00177753
0.00166277
0.001549
0.00143628
0.00132519
0.00121565
0.00178761
0.00167274
0.00155843
0.00144542
0.00133422
0.00122516
0.00178855
0.00167357
0.00155925
0.00144627
0.00133494
0.00122573
0.00166803
0.00155413
0.00144159
0.00133138
0.00167462
0.00156016
0.00144715
0.00133659
0.00178443
0.00166995
0.00155539
0.00144284
0.00133293
0.00178383
0.0016695
0.0015553
0.00144301
0.00133304
0.00178482
0.00166958
0.00155543
0.00144312
0.00133257
0.00178281
0.00166719
0.00155266
0.00143959
0.00132802
0.00121787
0.00177922
0.00166321
0.00154889
0.00143624
0.00132513
0.00121574
0.0017762
0.00166044
0.00154628
0.00143303
0.00132174
0.00121288
0.0017713
0.00165643
0.00154302
0.00143111
0.00132105
0.00121269
0.00177505
0.0016604
0.00154693
0.00143511
0.00132498
0.00121657
0.00178166
0.00166689
0.00155299
0.00144056
0.00132974
0.00122089
)
;

boundaryField
{
    inlet
    {
        type            zeroGradient;
    }
    ami1
    {
        type            cyclicAMI;
        value           nonuniform List<scalar> 0();
    }
    walls
    {
        type            zeroGradient;
    }
    ami2
    {
        type            cyclicAMI;
        value           nonuniform List<scalar> 0();
    }
    outlet
    {
        type            fixedValue;
        value           nonuniform List<scalar> 0();
    }
    procBoundary7to5
    {
        type            processor;
        value           nonuniform List<scalar> 
131
(
0.00111101
0.00110706
0.00110327
0.001103
0.00110568
0.00110781
0.0011113
0.00111256
0.0011127
0.00111522
0.00111106
0.00111534
0.001115
0.00110584
0.00110285
0.00110255
0.00110433
0.00110491
0.00110679
0.00110972
0.00111499
0.00110726
0.00111279
0.00110978
0.00109007
0.00108233
0.00107821
0.00107818
0.00107825
0.00108277
0.0010902
0.00110596
0.00110363
0.00111273
0.00110711
0.00108276
0.00107204
0.0010652
0.00106387
0.00106521
0.00107223
0.00108263
0.00110327
0.00110362
0.00111165
0.0011053
0.00107832
0.00106499
0.00105727
0.00105554
0.00105717
0.00106504
0.00107828
0.00110318
0.00110662
0.00110787
0.00121571
0.00110486
0.001213
0.00107849
0.00118672
0.00106393
0.00117288
0.00105572
0.00116493
0.0010532
0.00105522
0.0010634
0.00107809
0.00110499
0.00110887
0.00121571
0.001213
0.00118672
0.00117288
0.00116493
0.00116493
0.00105575
0.00105681
0.00106462
0.00107816
0.00110559
0.00111237
0.00121251
0.00121276
0.00119097
0.00118007
0.00117288
0.00117288
0.00106388
0.00106464
0.00107184
0.00108273
0.00110742
0.00111353
0.00121223
0.00121525
0.00119854
0.00119091
0.00118659
0.00118659
0.00107828
0.00107803
0.0010824
0.00109021
0.00111023
0.00111355
0.00121638
0.00122514
0.00121903
0.00121656
0.00121499
0.00121499
0.00110462
0.00110273
0.00110301
0.00110604
0.0011155
0.00111603
0.00122073
0.00122546
0.00122207
0.00122206
0.00122141
0.00122141
0.00110737
0.00110582
0.00110325
0.00110362
0.00110745
0.00111153
)
;
    }
    procBoundary7to8
    {
        type            processor;
        value           nonuniform List<scalar> 
68
(
0.0018961
0.00188959
0.00188636
0.00189216
0.00189603
0.00190305
0.00190255
0.00189302
0.00189313
0.00189348
0.0018984
0.00189436
0.00187408
0.00186744
0.00186338
0.00189804
0.00189444
0.00186726
0.00185786
0.00185252
0.00190016
0.00189506
0.00186425
0.00185335
0.0018463
0.00184475
0.00189881
0.00189471
0.00186384
0.00185224
0.00184478
0.00184263
0.00189597
0.00177619
0.00189344
0.00177753
0.00186352
0.00185277
0.00184638
0.00184477
0.00177619
0.00177753
0.00177753
0.00186786
0.00185797
0.00185335
0.00185212
0.00177131
0.00177816
0.00177816
0.00187464
0.00186732
0.00186426
0.00186374
0.00177494
0.00178773
0.00178773
0.00189497
0.00189469
0.00189532
0.00189492
0.00178165
0.00178859
0.00178859
0.00189903
0.00189852
0.00190055
0.00189903
)
;
    }
    procBoundary7to9
    {
        type            processor;
        value           nonuniform List<scalar> 
59
(
0.00189905
0.00190047
0.00189841
0.00189878
0.00190342
0.00189641
0.00189485
0.00189533
0.00189483
0.00189467
0.00190275
0.00188983
0.00186367
0.0018641
0.00186721
0.00187428
0.00189316
0.00188654
0.00185212
0.00185321
0.00185774
0.00186749
0.00189323
0.00189235
0.00184631
0.00185259
0.00186341
0.00189345
0.00189621
0.00184482
0.00185221
0.00186376
0.00189486
0.00189915
0.00184638
0.00185333
0.00186414
0.00189524
0.00190058
0.00185254
0.0018577
0.00186704
0.00189476
0.0018986
0.00186339
0.00186734
0.00187412
0.00189484
0.00189897
0.00189348
0.00189314
0.00189322
0.00190293
0.0019036
0.00189602
0.00189224
0.00188664
0.00188995
0.00189655
)
;
    }
}


// ************************************************************************* //
