/*--------------------------------*- C++ -*----------------------------------*\
| =========                 |                                                 |
| \\      /  F ield         | OpenFOAM: The Open Source CFD Toolbox           |
|  \\    /   O peration     | Version:  2212                                  |
|   \\  /    A nd           | Website:  www.openfoam.com                      |
|    \\/     M anipulation  |                                                 |
\*---------------------------------------------------------------------------*/
FoamFile
{
    version     2.0;
    format      ascii;
    arch        "LSB;label=32;scalar=64";
    class       surfaceScalarField;
    location    "1";
    object      phi;
}
// * * * * * * * * * * * * * * * * * * * * * * * * * * * * * * * * * * * * * //

dimensions      [0 3 -1 0 0 0 0];

oriented        oriented;

internalField   nonuniform List<scalar> 
1826
(
6.28731e-08
-3.41848e-08
3.46578e-08
6.24313e-08
-3.42036e-08
3.46454e-08
6.20009e-08
-3.4222e-08
3.46524e-08
6.15856e-08
-3.42519e-08
3.46673e-08
6.11972e-08
-3.42887e-08
3.46772e-08
-3.43359e-08
3.46615e-08
2.03675e-07
-6.44522e-08
3.15975e-08
2.02415e-07
-6.44712e-08
3.15273e-08
2.01205e-07
-6.45084e-08
3.14965e-08
2.00054e-07
-6.45833e-08
3.14826e-08
1.98969e-07
-6.46727e-08
3.14693e-08
-6.4756e-08
3.13875e-08
3.99325e-07
-8.95321e-08
2.7619e-08
3.96905e-07
-8.95311e-08
2.74805e-08
3.94624e-07
-8.95694e-08
2.7342e-08
3.92497e-07
-8.96379e-08
2.71817e-08
3.90507e-07
-8.97114e-08
2.70281e-08
-8.97709e-08
2.6842e-08
5.72235e-07
-1.0744e-07
2.15694e-08
5.68768e-07
-1.07458e-07
2.13938e-08
5.6551e-07
-1.07504e-07
2.1192e-08
5.62455e-07
-1.07571e-07
2.09884e-08
5.5959e-07
-1.07641e-07
2.07935e-08
-1.07691e-07
2.05486e-08
6.85694e-07
-1.17136e-07
1.39151e-08
6.81731e-07
-1.17184e-07
1.36888e-08
6.78001e-07
-1.17226e-07
1.3453e-08
6.74471e-07
-1.17257e-07
1.3216e-08
6.71138e-07
-1.17283e-07
1.29753e-08
-1.17311e-07
1.26946e-08
7.10838e-07
-1.17707e-07
5.02108e-09
7.06653e-07
-1.17746e-07
4.74673e-09
7.02719e-07
-1.17786e-07
4.49372e-09
6.99018e-07
-1.17815e-07
4.2585e-09
6.95554e-07
-1.17831e-07
4.01206e-09
-1.17843e-07
3.71172e-09
6.48635e-07
-1.08991e-07
-4.47768e-09
6.44635e-07
-1.09002e-07
-4.74403e-09
6.4085e-07
-1.08988e-07
-5.01178e-09
6.37251e-07
-1.08954e-07
-5.26228e-09
6.33834e-07
-1.0891e-07
-5.50359e-09
-1.08882e-07
-5.79425e-09
5.20711e-07
-9.14166e-08
-1.41136e-08
5.17425e-07
-9.13771e-08
-1.4339e-08
5.14325e-07
-9.13141e-08
-1.45746e-08
5.11403e-07
-9.12613e-08
-1.47709e-08
5.08638e-07
-9.12155e-08
-1.49302e-08
-9.1158e-08
-1.5156e-08
3.57231e-07
-6.60957e-08
-2.28661e-08
3.54942e-07
-6.60537e-08
-2.30339e-08
3.52811e-07
-6.60276e-08
-2.3156e-08
3.508e-07
-6.60013e-08
-2.32488e-08
3.48877e-07
-6.59725e-08
-2.33202e-08
-6.59201e-08
-2.34687e-08
1.8893e-07
-3.46521e-08
-3.00209e-08
1.87615e-07
-3.46423e-08
-3.00961e-08
1.8637e-07
-3.4646e-08
-3.01372e-08
1.85177e-07
-3.46619e-08
-3.01456e-08
1.84033e-07
-3.46773e-08
-3.01517e-08
-3.46681e-08
-3.02424e-08
6.2868e-08
-3.41773e-08
6.24235e-08
-3.41978e-08
6.19963e-08
-3.42189e-08
6.15835e-08
-3.42491e-08
6.11952e-08
-3.42889e-08
-3.43411e-08
1.88989e-07
-3.00355e-08
6.61085e-08
1.87683e-07
-3.011e-08
6.60608e-08
1.86439e-07
-3.01392e-08
6.60365e-08
1.85241e-07
-3.0149e-08
6.60141e-08
1.84099e-07
-3.01587e-08
6.59778e-08
-3.025e-08
6.59133e-08
5.03427e-07
-5.59489e-08
5.98424e-08
5.01202e-07
-5.60596e-08
5.97023e-08
4.9909e-07
-5.61424e-08
5.96117e-08
4.97068e-07
-5.61971e-08
5.95526e-08
4.95097e-07
-5.62293e-08
5.95106e-08
-5.63614e-08
5.93605e-08
8.14418e-07
-7.79569e-08
5.08062e-08
8.13239e-07
-7.80261e-08
5.06259e-08
8.1205e-07
-7.8087e-08
5.04761e-08
8.10829e-07
-7.81374e-08
5.0343e-08
8.09582e-07
-7.81754e-08
5.0221e-08
-7.83105e-08
4.99967e-08
1.03783e-06
-9.39463e-08
3.81197e-08
1.03723e-06
-9.39808e-08
3.79424e-08
1.0366e-06
-9.4014e-08
3.775e-08
1.03592e-06
-9.40424e-08
3.75718e-08
1.03522e-06
-9.40759e-08
3.7394e-08
-9.41785e-08
3.7073e-08
1.16963e-06
-1.02697e-07
2.3017e-08
1.1692e-06
-1.0269e-07
2.28209e-08
1.16873e-06
-1.02686e-07
2.26027e-08
1.16821e-06
-1.02691e-07
2.23766e-08
1.1677e-06
-1.02719e-07
2.21308e-08
-1.02768e-07
2.17734e-08
1.20311e-06
-1.03527e-07
6.23921e-09
1.20269e-06
-1.03484e-07
5.96073e-09
1.20224e-06
-1.03462e-07
5.71966e-09
1.20176e-06
-1.03464e-07
5.51147e-09
1.20125e-06
-1.03462e-07
5.2648e-09
-1.03422e-07
4.8883e-09
1.14338e-06
-9.63526e-08
-1.11106e-08
1.14285e-06
-9.6279e-08
-1.14181e-08
1.14232e-06
-9.62308e-08
-1.17099e-08
1.14178e-06
-9.62195e-08
-1.19649e-08
1.14124e-06
-9.62152e-08
-1.22163e-08
-9.61266e-08
-1.26025e-08
1.0021e-06
-8.15917e-08
-2.80387e-08
1.00129e-06
-8.14876e-08
-2.83271e-08
1.0005e-06
-8.14246e-08
-2.85876e-08
9.99678e-07
-8.13958e-08
-2.8772e-08
9.98836e-07
-8.1385e-08
-2.89179e-08
-8.12585e-08
-2.92342e-08
7.86699e-07
-5.98127e-08
-4.30863e-08
7.85162e-07
-5.96779e-08
-4.33062e-08
7.83625e-07
-5.95886e-08
-4.34551e-08
7.82082e-07
-5.9536e-08
-4.35657e-08
7.80543e-07
-5.95054e-08
-4.36604e-08
-5.93713e-08
-4.38729e-08
5.03378e-07
-3.15902e-08
-5.59185e-08
5.01153e-07
-3.15233e-08
-5.60257e-08
4.9904e-07
-3.14843e-08
-5.61279e-08
4.9701e-07
-3.1475e-08
-5.61766e-08
4.95032e-07
-3.14692e-08
-5.62099e-08
-3.13933e-08
-5.63535e-08
2.03711e-07
-6.4442e-08
2.02453e-07
-6.44633e-08
2.01252e-07
-6.45018e-08
2.00107e-07
-6.45788e-08
1.99025e-07
-6.46762e-08
-6.47675e-08
3.57394e-07
-2.28834e-08
9.14282e-08
3.55128e-07
-2.30516e-08
9.13778e-08
3.53009e-07
-2.31622e-08
9.1318e-08
3.51002e-07
-2.32468e-08
9.12684e-08
3.49088e-07
-2.33218e-08
9.12135e-08
-2.34782e-08
9.11454e-08
7.86771e-07
-4.31025e-08
8.16207e-08
7.85231e-07
-4.33216e-08
8.15122e-08
7.83699e-07
-4.34692e-08
8.14509e-08
7.82168e-07
-4.35832e-08
8.14194e-08
7.80641e-07
-4.36772e-08
8.13933e-08
-4.38907e-08
8.12444e-08
1.12271e-06
-6.10452e-08
6.79605e-08
1.12344e-06
-6.12269e-08
6.78051e-08
1.12408e-06
-6.13379e-08
6.77063e-08
1.12461e-06
-6.14097e-08
6.76341e-08
1.1251e-06
-6.1494e-08
6.75506e-08
-6.16955e-08
6.7346e-08
1.35452e-06
-7.45747e-08
4.96907e-08
1.35636e-06
-7.46649e-08
4.95448e-08
1.3581e-06
-7.47338e-08
4.94065e-08
1.35975e-06
-7.47788e-08
4.9294e-08
1.36131e-06
-7.48264e-08
4.91661e-08
-7.49512e-08
4.89087e-08
1.4906e-06
-8.23727e-08
2.84166e-08
1.49288e-06
-8.23605e-08
2.82378e-08
1.49504e-06
-8.2361e-08
2.80696e-08
1.4971e-06
-8.23738e-08
2.79148e-08
1.49906e-06
-8.2395e-08
2.77413e-08
-8.24377e-08
2.74675e-08
1.53031e-06
-8.38713e-08
5.31555e-09
1.53265e-06
-8.37864e-08
5.05034e-09
1.53488e-06
-8.37264e-08
4.85844e-09
1.53699e-06
-8.36887e-08
4.71416e-09
1.53901e-06
-8.3662e-08
4.50811e-09
-8.36177e-08
4.18995e-09
1.47785e-06
-7.89749e-08
-1.82501e-08
1.48003e-06
-7.88537e-08
-1.85352e-08
1.48214e-06
-7.87728e-08
-1.87735e-08
1.48419e-06
-7.87327e-08
-1.89681e-08
1.48618e-06
-7.87007e-08
-1.91692e-08
-7.85848e-08
-1.94746e-08
1.34079e-06
-6.79497e-08
-4.09103e-08
1.34256e-06
-6.78033e-08
-4.11507e-08
1.34426e-06
-6.77013e-08
-4.13559e-08
1.34589e-06
-6.76358e-08
-4.14973e-08
1.34745e-06
-6.75611e-08
-4.16228e-08
-6.73689e-08
-4.18929e-08
1.12272e-06
-5.07987e-08
-6.10265e-08
1.12345e-06
-5.06327e-08
-6.12042e-08
1.12409e-06
-5.04643e-08
-6.13291e-08
1.12463e-06
-5.03412e-08
-6.14049e-08
1.12513e-06
-5.02316e-08
-6.14888e-08
-5.00143e-08
-6.16879e-08
8.14394e-07
-2.76037e-08
-7.79216e-08
8.13199e-07
-2.74743e-08
-7.79888e-08
8.12017e-07
-2.73341e-08
-7.80761e-08
8.10804e-07
-2.71847e-08
-7.81203e-08
8.09561e-07
-2.70364e-08
-7.81622e-08
-2.68564e-08
-7.83127e-08
3.99518e-07
-8.95364e-08
3.97121e-07
-8.95404e-08
3.94855e-07
-8.95696e-08
3.92728e-07
-8.96373e-08
3.9074e-07
-8.97241e-08
-8.97944e-08
5.20973e-07
-1.4136e-08
1.09017e-07
5.17705e-07
-1.43734e-08
1.09019e-07
5.14642e-07
-1.46007e-08
1.08982e-07
5.11767e-07
-1.47817e-08
1.08925e-07
5.0904e-07
-1.494e-08
1.0888e-07
-1.51713e-08
1.08855e-07
1.00215e-06
-2.80741e-08
9.63694e-08
1.00137e-06
-2.83699e-08
9.62862e-08
1.00058e-06
-2.86035e-08
9.62455e-08
9.9973e-07
-2.87561e-08
9.62402e-08
9.98864e-07
-2.89074e-08
9.6227e-08
-2.9246e-08
9.61169e-08
1.34069e-06
-4.09189e-08
7.89754e-08
1.34243e-06
-4.11575e-08
7.8852e-08
1.34411e-06
-4.13493e-08
7.87762e-08
1.34573e-06
-4.14798e-08
7.87401e-08
1.34728e-06
-4.16111e-08
7.87015e-08
-4.18971e-08
7.85727e-08
1.57345e-06
-5.10331e-08
5.66862e-08
1.57644e-06
-5.11787e-08
5.65756e-08
1.57932e-06
-5.13037e-08
5.6479e-08
1.58212e-06
-5.13908e-08
5.64128e-08
1.58482e-06
-5.14829e-08
5.63383e-08
-5.16668e-08
5.61757e-08
1.71187e-06
-5.7334e-08
3.10136e-08
1.71541e-06
-5.73642e-08
3.08849e-08
1.7188e-06
-5.73992e-08
3.07684e-08
1.72209e-06
-5.74306e-08
3.06732e-08
1.72524e-06
-5.746e-08
3.05673e-08
-5.75144e-08
3.03946e-08
1.75605e-06
-5.92768e-08
3.42217e-09
1.75969e-06
-5.92151e-08
3.25797e-09
1.76319e-06
-5.91582e-08
3.116e-09
1.76659e-06
-5.91162e-08
3.00346e-09
1.76985e-06
-5.90835e-08
2.87346e-09
-5.90289e-08
2.67611e-09
1.70822e-06
-5.67093e-08
-2.44529e-08
1.7117e-06
-5.65968e-08
-2.46368e-08
1.71507e-06
-5.64956e-08
-2.48008e-08
1.71834e-06
-5.64265e-08
-2.49293e-08
1.7215e-06
-5.63505e-08
-2.50605e-08
-5.61855e-08
-2.52568e-08
1.57348e-06
-4.97033e-08
-5.10365e-08
1.57647e-06
-4.95565e-08
-5.11855e-08
1.57935e-06
-4.94133e-08
-5.13162e-08
1.58214e-06
-4.93103e-08
-5.14035e-08
1.58485e-06
-4.91881e-08
-5.14897e-08
-4.89305e-08
-5.16629e-08
1.35447e-06
-3.81132e-08
-7.45654e-08
1.3563e-06
-3.79398e-08
-7.46588e-08
1.35803e-06
-3.77328e-08
-7.4735e-08
1.35967e-06
-3.75806e-08
-7.47753e-08
1.36123e-06
-3.74129e-08
-7.48201e-08
-3.70924e-08
-7.49447e-08
1.03783e-06
-2.15426e-08
-9.3931e-08
1.03724e-06
-2.13734e-08
-9.39635e-08
1.03661e-06
-2.11726e-08
-9.40098e-08
1.03593e-06
-2.09857e-08
-9.40351e-08
1.03523e-06
-2.07959e-08
-9.40735e-08
-2.05568e-08
-9.41853e-08
5.72647e-07
-1.07449e-07
5.692e-07
-1.07467e-07
5.65964e-07
-1.07506e-07
5.62923e-07
-1.07582e-07
5.60064e-07
-1.07661e-07
-1.07717e-07
6.49004e-07
-4.50185e-09
1.17724e-07
6.45047e-07
-4.76905e-09
1.17745e-07
6.41314e-07
-5.04179e-09
1.17757e-07
6.37775e-07
-5.29626e-09
1.1776e-07
6.34418e-07
-5.52333e-09
1.1776e-07
-5.80583e-09
1.17777e-07
1.14343e-06
-1.11385e-08
1.03531e-07
1.1429e-06
-1.14428e-08
1.03483e-07
1.14237e-06
-1.17209e-08
1.03463e-07
1.14181e-06
-1.19613e-08
1.0346e-07
1.14125e-06
-1.2192e-08
1.03457e-07
-1.25804e-08
1.03407e-07
1.4777e-06
-1.82417e-08
8.38653e-08
1.47985e-06
-1.85229e-08
8.37832e-08
1.48193e-06
-1.87558e-08
8.37304e-08
1.48395e-06
-1.89441e-08
8.37028e-08
1.48591e-06
-1.91394e-08
8.36879e-08
-1.9452e-08
8.36401e-08
1.70809e-06
-2.44296e-08
5.92576e-08
1.71156e-06
-2.46116e-08
5.9199e-08
1.71491e-06
-2.47737e-08
5.9149e-08
1.71816e-06
-2.49031e-08
5.91209e-08
1.72129e-06
-2.50405e-08
5.91068e-08
-2.52485e-08
5.90592e-08
1.84656e-06
-2.88767e-08
3.11366e-08
1.85068e-06
-2.89406e-08
3.1088e-08
1.85463e-06
-2.90005e-08
3.10476e-08
1.85843e-06
-2.9051e-08
3.10221e-08
1.86206e-06
-2.91033e-08
3.10019e-08
-2.91748e-08
3.09542e-08
1.89256e-06
-3.11643e-08
1.17027e-09
1.89688e-06
-3.11128e-08
1.11303e-09
1.901e-06
-3.10659e-08
1.06185e-09
1.90496e-06
-3.10281e-08
1.02294e-09
1.90873e-06
-3.09876e-08
9.84482e-10
-3.09258e-08
9.25554e-10
1.84659e-06
-3.10506e-08
-2.88897e-08
1.85071e-06
-3.09191e-08
-2.89545e-08
1.85466e-06
-3.07989e-08
-2.90148e-08
1.85846e-06
-3.06989e-08
-2.90625e-08
1.8621e-06
-3.05841e-08
-2.91072e-08
-3.04005e-08
-2.91687e-08
1.71174e-06
-2.84328e-08
-5.7334e-08
1.71526e-06
-2.8253e-08
-5.73686e-08
1.71864e-06
-2.80879e-08
-5.74061e-08
1.72191e-06
-2.79369e-08
-5.74354e-08
1.72506e-06
-2.77636e-08
-5.74589e-08
-2.74864e-08
-5.75049e-08
1.49041e-06
-2.3001e-08
-8.23712e-08
1.49267e-06
-2.28088e-08
-8.23635e-08
1.49481e-06
-2.25959e-08
-8.2366e-08
1.49685e-06
-2.2375e-08
-8.23769e-08
1.4988e-06
-2.21421e-08
-8.23939e-08
-2.17924e-08
-8.2432e-08
1.16958e-06
-1.38848e-08
-1.02702e-07
1.16917e-06
-1.36668e-08
-1.02691e-07
1.16869e-06
-1.34395e-08
-1.02689e-07
1.16818e-06
-1.32044e-08
-1.02696e-07
1.16766e-06
-1.29733e-08
-1.02725e-07
-1.27042e-08
-1.02773e-07
6.8628e-07
-1.17154e-07
6.82342e-07
-1.17196e-07
6.78628e-07
-1.17232e-07
6.75104e-07
-1.17262e-07
6.7176e-07
-1.17291e-07
-1.17321e-07
7.11336e-07
4.98331e-09
1.17141e-07
7.072e-07
4.71761e-09
1.17163e-07
7.03316e-07
4.47311e-09
1.17167e-07
6.99665e-07
4.2414e-09
1.1717e-07
6.96254e-07
3.99352e-09
1.17178e-07
3.69932e-09
1.20312e-06
6.21516e-09
1.02684e-07
1.20271e-06
5.94643e-09
1.02669e-07
1.20226e-06
5.72136e-09
1.02663e-07
1.20177e-06
5.51789e-09
1.02667e-07
1.20125e-06
5.2635e-09
1.02712e-07
4.89268e-09
1.53012e-06
5.32931e-09
8.23563e-08
1.53243e-06
5.07271e-09
8.23514e-08
1.53462e-06
4.8907e-09
8.23642e-08
1.53671e-06
4.73808e-09
8.23928e-08
1.5387e-06
4.51252e-09
8.24482e-08
4.19112e-09
1.75583e-06
3.46421e-09
5.73177e-08
1.75945e-06
3.29816e-09
5.73548e-08
1.76294e-06
3.15292e-09
5.73981e-08
1.76631e-06
3.02953e-09
5.74522e-08
1.76953e-06
2.87494e-09
5.7532e-08
2.65884e-09
1.89243e-06
1.20802e-09
2.88671e-08
1.89674e-06
1.14445e-09
2.89322e-08
1.90086e-06
1.08401e-09
2.89963e-08
1.90481e-06
1.02887e-09
2.90702e-08
1.90855e-06
9.64599e-10
2.91704e-08
8.88619e-10
1.93846e-06
-1.18324e-09
-1.19999e-09
1.94298e-06
-1.12755e-09
-1.1413e-09
1.94729e-06
-1.07787e-09
-1.08605e-09
1.95142e-06
-1.03953e-09
-1.03476e-09
1.95534e-06
-9.97761e-10
-9.69601e-10
-9.3062e-10
-8.89095e-10
1.89252e-06
-3.44661e-09
-3.11567e-08
1.89683e-06
-3.28268e-09
-3.11088e-08
1.90094e-06
-3.14236e-09
-3.10656e-08
1.9049e-06
-3.03052e-09
-3.10301e-08
1.90868e-06
-2.89514e-09
-3.09871e-08
-2.68802e-09
-3.09186e-08
1.7559e-06
-5.32344e-09
-5.9266e-08
1.75952e-06
-5.06544e-09
-5.92064e-08
1.76301e-06
-4.88341e-09
-5.91515e-08
1.7664e-06
-4.74073e-09
-5.91123e-08
1.76965e-06
-4.52886e-09
-5.90799e-08
-4.20671e-09
-5.90202e-08
1.53013e-06
-6.22118e-09
-8.3869e-08
1.53244e-06
-5.95119e-09
-8.37871e-08
1.53464e-06
-5.72149e-09
-8.37283e-08
1.53673e-06
-5.51895e-09
-8.36902e-08
1.53875e-06
-5.27591e-09
-8.3665e-08
-4.90491e-09
-8.36171e-08
1.20305e-06
-4.99612e-09
-1.03539e-07
1.20264e-06
-4.72929e-09
-1.03497e-07
1.20218e-06
-4.48326e-09
-1.03476e-07
1.2017e-06
-4.25205e-09
-1.03474e-07
1.20117e-06
-4.00979e-09
-1.03471e-07
-3.72065e-09
-1.03426e-07
7.1131e-07
-1.17734e-07
7.07148e-07
-1.17763e-07
7.03226e-07
-1.17793e-07
6.99527e-07
-1.17814e-07
6.96047e-07
-1.17821e-07
-1.1783e-07
6.86183e-07
1.38766e-08
6.82246e-07
1.36753e-08
1.07425e-07
6.78531e-07
1.3459e-08
1.07423e-07
6.75002e-07
1.3229e-08
1.0747e-07
1.29541e-08
1.07536e-07
1.16966e-06
2.30126e-08
1.16924e-06
2.28154e-08
9.39505e-08
1.16878e-06
2.26007e-08
9.39875e-08
1.16829e-06
2.23717e-08
9.40121e-08
2.20446e-08
9.40976e-08
1.49041e-06
2.84498e-08
7.45398e-08
1.49268e-06
2.82641e-08
7.46391e-08
1.49484e-06
2.80923e-08
7.47116e-08
1.49692e-06
2.79117e-08
7.47735e-08
2.76488e-08
7.49059e-08
1.71167e-06
3.10654e-08
5.10173e-08
1.7152e-06
3.09303e-08
5.11618e-08
1.71861e-06
3.08053e-08
5.128e-08
1.7219e-06
3.06725e-08
5.1397e-08
3.04829e-08
5.15929e-08
1.84647e-06
3.11845e-08
2.44289e-08
1.85059e-06
3.11263e-08
2.46085e-08
1.85456e-06
3.10679e-08
2.47647e-08
1.85838e-06
3.0999e-08
2.4924e-08
3.09071e-08
2.51467e-08
1.89248e-06
2.88988e-08
-3.44528e-09
1.89679e-06
2.8956e-08
-3.28466e-09
1.90091e-06
2.90054e-08
-3.14841e-09
1.90487e-06
2.90372e-08
-3.03171e-09
1.90862e-06
2.90648e-08
-2.87431e-09
2.91265e-08
-2.65077e-09
1.8466e-06
2.44471e-08
-3.10286e-08
1.85072e-06
2.46268e-08
-3.09035e-08
1.85467e-06
2.47842e-08
-3.07938e-08
1.85848e-06
2.49042e-08
-3.07046e-08
1.86212e-06
2.50301e-08
-3.05915e-08
2.52314e-08
-3.03997e-08
1.70818e-06
1.82441e-08
-5.66876e-08
1.71165e-06
1.85238e-08
-5.65765e-08
1.71501e-06
1.87546e-08
-5.64797e-08
1.71827e-06
1.89429e-08
-5.64178e-08
1.72143e-06
1.91386e-08
-5.63474e-08
1.9447e-08
-5.6183e-08
1.47774e-06
1.11242e-08
-7.89737e-08
1.47991e-06
1.14232e-08
-7.88526e-08
1.482e-06
1.17049e-08
-7.87722e-08
1.48403e-06
1.19541e-08
-7.87313e-08
1.48601e-06
1.21866e-08
-7.86969e-08
1.25674e-08
-7.85773e-08
1.14336e-06
4.49201e-09
-9.63711e-08
1.14283e-06
4.7552e-09
-9.62984e-08
1.14229e-06
5.01984e-09
-9.62516e-08
1.14174e-06
5.26811e-09
-9.62337e-08
1.14118e-06
5.49616e-09
-9.62251e-08
5.77754e-09
-9.61268e-08
6.48862e-07
-1.09016e-07
6.44872e-07
-1.09019e-07
6.41094e-07
-1.08995e-07
6.37502e-07
-1.08954e-07
6.34082e-07
-1.08905e-07
-1.08871e-07
5.69098e-07
2.13785e-08
8.95259e-08
5.65788e-07
2.12262e-08
8.95066e-08
5.62666e-07
2.10423e-08
8.95494e-08
2.07973e-08
8.96191e-08
1.03724e-06
3.79259e-08
7.79823e-08
1.03664e-06
3.77482e-08
7.80567e-08
1.03602e-06
3.75851e-08
7.80946e-08
3.72989e-08
7.8215e-08
1.35448e-06
4.97201e-08
6.10007e-08
1.35631e-06
4.95693e-08
6.11664e-08
1.35806e-06
4.94374e-08
6.12671e-08
1.35976e-06
4.93005e-08
6.13604e-08
4.90476e-08
6.15859e-08
1.57337e-06
5.6723e-08
4.08921e-08
1.57637e-06
5.66102e-08
4.11261e-08
1.57927e-06
5.65118e-08
4.12981e-08
1.58211e-06
5.64069e-08
4.14531e-08
5.62278e-08
4.17438e-08
1.70805e-06
5.92926e-08
1.82361e-08
1.71153e-06
5.92261e-08
1.85114e-08
1.71492e-06
5.91596e-08
1.8732e-08
1.71821e-06
5.9087e-08
1.89504e-08
5.89946e-08
1.9269e-08
1.75589e-06
5.73463e-08
-5.3145e-09
1.75952e-06
5.73744e-08
-5.06506e-09
1.76303e-06
5.73998e-08
-4.89283e-09
1.76642e-06
5.74098e-08
-4.74537e-09
1.76964e-06
5.7414e-08
-4.51955e-09
5.74589e-08
-4.17994e-09
1.71183e-06
5.10413e-08
-2.8415e-08
1.71535e-06
5.11872e-08
-2.82407e-08
1.71874e-06
5.13115e-08
-2.80934e-08
1.72202e-06
5.13881e-08
-2.79577e-08
1.72516e-06
5.14631e-08
-2.77836e-08
5.16339e-08
-2.74937e-08
1.57351e-06
4.0912e-08
-4.96844e-08
1.57651e-06
4.11485e-08
-4.95353e-08
1.57939e-06
4.13466e-08
-4.93983e-08
1.58219e-06
4.14809e-08
-4.93064e-08
1.5849e-06
4.16005e-08
-4.91949e-08
4.18689e-08
-4.89384e-08
1.34075e-06
2.80493e-08
-6.79536e-08
1.34251e-06
2.83289e-08
-6.77973e-08
1.3442e-06
2.85791e-08
-6.76973e-08
1.34583e-06
2.876e-08
-6.76347e-08
1.34739e-06
2.8898e-08
-6.75596e-08
2.92088e-08
-6.73641e-08
1.00207e-06
1.41212e-08
-8.16085e-08
1.00126e-06
1.43444e-08
-8.1506e-08
1.00046e-06
1.45762e-08
-8.14434e-08
9.9962e-07
1.47713e-08
-8.14085e-08
9.98761e-07
1.49234e-08
-8.1392e-08
1.514e-08
-8.12529e-08
5.208e-07
-9.14364e-08
5.17518e-07
-9.13923e-08
5.1442e-07
-9.13208e-08
5.11495e-07
-9.12566e-08
5.08716e-07
-9.12031e-08
-9.11436e-08
3.97098e-07
2.74753e-08
6.44742e-08
3.94745e-07
2.73731e-08
6.44863e-08
3.92521e-07
2.72354e-08
6.45377e-08
2.70268e-08
6.46219e-08
8.13126e-07
5.06401e-08
5.60199e-08
8.11953e-07
5.04879e-08
5.61154e-08
8.10757e-07
5.03745e-08
5.61514e-08
5.0156e-08
5.62653e-08
1.12268e-06
6.79776e-08
4.30879e-08
1.12339e-06
6.78281e-08
4.32697e-08
1.12403e-06
6.77399e-08
4.33762e-08
1.12462e-06
6.76626e-08
4.34765e-08
6.74542e-08
4.37219e-08
1.34062e-06
7.89884e-08
2.80489e-08
1.34237e-06
7.88709e-08
2.83331e-08
1.34409e-06
7.88021e-08
2.85183e-08
1.34577e-06
7.87471e-08
2.86847e-08
7.86095e-08
2.9021e-08
1.47763e-06
8.3877e-08
1.11261e-08
1.47979e-06
8.37941e-08
1.14206e-08
1.48192e-06
8.37336e-08
1.16753e-08
1.484e-06
8.36792e-08
1.19322e-08
8.3603e-08
1.23142e-08
1.53013e-06
8.2375e-08
-6.21914e-09
1.53245e-06
8.23636e-08
-5.95132e-09
1.53466e-06
8.23575e-08
-5.72927e-09
1.53676e-06
8.23539e-08
-5.52601e-09
1.53877e-06
8.23571e-08
-5.27776e-09
8.23921e-08
-4.88909e-09
1.49053e-06
7.45731e-08
-2.30034e-08
1.4928e-06
7.4665e-08
-2.2811e-08
1.49493e-06
7.4731e-08
-2.26034e-08
1.49696e-06
7.4759e-08
-2.23917e-08
1.4989e-06
7.4793e-08
-2.21622e-08
7.49133e-08
-2.18006e-08
1.35454e-06
6.10299e-08
-3.81051e-08
1.35638e-06
6.12131e-08
-3.79293e-08
1.35812e-06
6.1327e-08
-3.7728e-08
1.35976e-06
6.13904e-08
-3.75841e-08
1.36132e-06
6.14646e-08
-3.74237e-08
6.16581e-08
-3.71001e-08
1.12271e-06
4.30943e-08
-5.08056e-08
1.12343e-06
4.33145e-08
-5.06276e-08
1.12407e-06
4.34532e-08
-5.04594e-08
1.12461e-06
4.35527e-08
-5.03362e-08
1.1251e-06
4.36377e-08
-5.02282e-08
4.3846e-08
-5.00115e-08
7.86657e-07
2.28701e-08
-5.98229e-08
7.85116e-07
2.30369e-08
-5.96871e-08
7.83569e-07
2.31549e-08
-5.95982e-08
7.82012e-07
2.32439e-08
-5.95426e-08
7.80457e-07
2.33097e-08
-5.95085e-08
2.34522e-08
-5.9364e-08
3.57252e-07
-6.61056e-08
3.54958e-07
-6.6061e-08
3.52823e-07
-6.60307e-08
3.50809e-07
-6.59987e-08
3.4888e-07
-6.5964e-08
-6.59079e-08
2.02478e-07
3.15236e-08
3.42023e-08
2.01251e-07
3.14893e-08
3.42239e-08
2.00057e-07
3.14844e-08
3.42473e-08
3.14164e-08
3.42895e-08
5.01206e-07
5.96952e-08
3.00922e-08
4.9905e-07
5.96331e-08
3.01283e-08
4.96954e-07
5.95935e-08
3.01384e-08
5.94447e-08
3.02215e-08
7.86738e-07
8.1592e-08
2.28945e-08
7.85178e-07
8.14958e-08
2.30297e-08
7.83609e-07
8.14757e-08
2.31018e-08
7.82042e-07
8.14616e-08
2.31756e-08
8.13192e-08
2.33499e-08
1.00208e-06
9.63447e-08
1.41161e-08
1.00129e-06
9.6279e-08
1.43474e-08
1.00047e-06
9.6274e-08
1.45394e-08
9.99631e-07
9.62707e-08
1.47113e-08
9.61773e-08
1.49472e-08
1.14333e-06
1.03514e-07
4.4876e-09
1.1428e-06
1.03482e-07
4.74664e-09
1.14227e-06
1.03484e-07
4.99867e-09
1.14174e-06
1.03496e-07
5.23807e-09
1.03466e-07
5.52004e-09
1.20306e-06
1.02682e-07
-4.99651e-09
1.20265e-06
1.02675e-07
-4.73224e-09
1.20221e-06
1.02683e-07
-4.49099e-09
1.20174e-06
1.02697e-07
-4.26357e-09
1.20123e-06
1.02722e-07
-4.02537e-09
1.02771e-07
-3.71832e-09
1.16962e-06
9.39214e-08
-1.38901e-08
1.16921e-06
9.39531e-08
-1.36715e-08
1.16874e-06
9.39945e-08
-1.34441e-08
1.16824e-06
9.40146e-08
-1.32093e-08
1.16772e-06
9.405e-08
-1.29776e-08
9.41623e-08
-1.26981e-08
1.03782e-06
7.79212e-08
-2.15432e-08
1.03723e-06
7.79886e-08
-2.13747e-08
1.03661e-06
7.80683e-08
-2.11757e-08
1.03592e-06
7.81023e-08
-2.09904e-08
1.03522e-06
7.81328e-08
-2.08014e-08
7.82773e-08
-2.05571e-08
8.14326e-07
5.59234e-08
-2.76075e-08
8.13128e-07
5.6032e-08
-2.7473e-08
8.11941e-07
5.61266e-08
-2.73308e-08
8.10723e-07
5.61667e-08
-2.71825e-08
8.09476e-07
5.61883e-08
-2.70368e-08
5.63235e-08
-2.68561e-08
5.03335e-07
3.00245e-08
-3.15924e-08
5.01104e-07
3.00993e-08
-3.15234e-08
4.98982e-07
3.01362e-08
-3.14859e-08
4.96943e-07
3.01406e-08
-3.14775e-08
4.94954e-07
3.01411e-08
-3.14717e-08
3.02303e-08
-3.13914e-08
1.8893e-07
-3.46535e-08
1.8761e-07
-3.46423e-08
1.86361e-07
-3.4645e-08
1.85161e-07
-3.46579e-08
1.84007e-07
-3.46693e-08
-3.4656e-08
6.24433e-08
3.46405e-08
6.20076e-08
3.46596e-08
6.15808e-08
3.46742e-08
3.46598e-08
1.87709e-07
6.60541e-08
1.86425e-07
6.60721e-08
1.8518e-07
6.60581e-08
6.59917e-08
3.57421e-07
9.14064e-08
3.55133e-07
9.13722e-08
3.52962e-07
9.13446e-08
3.50887e-07
9.13085e-08
9.12548e-08
5.21073e-07
1.09e-07
5.17772e-07
1.09021e-07
5.14647e-07
1.09009e-07
5.11679e-07
1.08988e-07
1.08974e-07
6.49176e-07
1.17713e-07
6.45181e-07
1.17762e-07
6.4138e-07
1.1781e-07
6.37748e-07
1.17858e-07
1.17911e-07
7.11432e-07
1.17131e-07
7.07274e-07
1.17188e-07
7.03355e-07
1.17237e-07
6.99667e-07
1.17283e-07
6.96222e-07
1.17331e-07
1.17361e-07
6.86099e-07
1.0742e-07
6.82173e-07
1.07442e-07
6.78477e-07
1.07489e-07
6.7498e-07
1.07572e-07
6.71675e-07
1.07657e-07
1.07714e-07
5.72429e-07
8.95212e-08
5.68976e-07
8.95203e-08
5.65741e-07
8.9548e-08
5.62709e-07
8.96126e-08
5.59869e-07
8.96961e-08
8.97644e-08
3.99397e-07
6.44355e-08
3.96988e-07
6.44564e-08
3.9471e-07
6.44947e-08
3.92575e-07
6.45653e-08
3.9058e-07
6.46547e-08
6.47389e-08
2.03669e-07
3.41765e-08
2.02405e-07
3.41963e-08
2.01199e-07
3.42156e-08
2.00045e-07
3.42415e-08
1.98952e-07
3.42764e-08
3.43249e-08
6.28606e-08
6.24147e-08
6.19852e-08
6.15689e-08
6.1176e-08
)
;

boundaryField
{
    inlet
    {
        type            calculated;
        value           nonuniform List<scalar> 0();
    }
    ami1
    {
        type            cyclicAMI;
        value           nonuniform List<scalar> 0();
    }
    walls
    {
        type            calculated;
        value           nonuniform List<scalar> 
248
(
2.90979e-14
2.43942e-14
1.84387e-14
1.28555e-14
6.40674e-15
1.51994e-22
-6.40674e-15
-1.28555e-14
-1.84387e-14
-2.43942e-14
-2.90979e-14
2.90979e-14
2.43942e-14
1.84387e-14
1.28555e-14
6.40674e-15
1.51994e-22
-6.40674e-15
-1.28555e-14
-1.84387e-14
-2.43942e-14
-2.90979e-14
2.90979e-14
2.43942e-14
1.84387e-14
1.28555e-14
6.40674e-15
1.51994e-22
-6.40674e-15
-1.28555e-14
-1.84387e-14
-2.43942e-14
-2.90979e-14
2.90979e-14
2.43942e-14
1.84387e-14
1.28555e-14
6.40674e-15
1.55355e-22
-6.40674e-15
-1.28555e-14
-1.84387e-14
-2.43942e-14
-2.90979e-14
2.90979e-14
2.43942e-14
1.84387e-14
1.28555e-14
6.40674e-15
1.55355e-22
-6.40674e-15
-1.28555e-14
-1.84387e-14
-2.43942e-14
-2.90979e-14
2.90979e-14
2.43942e-14
1.84387e-14
1.28555e-14
6.40674e-15
1.55355e-22
-6.40674e-15
-1.28555e-14
-1.84387e-14
-2.43942e-14
-2.90979e-14
2.90979e-14
2.43942e-14
1.84387e-14
1.28555e-14
6.40674e-15
1.51994e-22
-6.40674e-15
-1.28555e-14
-1.84387e-14
-2.43942e-14
-2.90979e-14
2.90979e-14
2.43942e-14
1.84387e-14
1.28555e-14
6.40674e-15
1.51994e-22
-6.40674e-15
-1.28555e-14
-1.84387e-14
-2.43942e-14
-2.90979e-14
2.90979e-14
2.43942e-14
1.84387e-14
1.28555e-14
6.40674e-15
1.51994e-22
-6.40674e-15
-1.28555e-14
-1.84387e-14
-2.43942e-14
-2.90979e-14
2.90979e-14
2.43942e-14
1.84387e-14
1.28555e-14
6.40674e-15
1.55355e-22
-6.40674e-15
-1.28555e-14
-1.84387e-14
-2.43942e-14
-2.90979e-14
2.90979e-14
2.43942e-14
1.84387e-14
1.28555e-14
6.40674e-15
1.55355e-22
-6.40674e-15
-1.28555e-14
-1.84387e-14
-2.43942e-14
-2.90979e-14
2.90979e-14
2.43942e-14
1.84387e-14
1.28555e-14
6.40674e-15
1.55355e-22
-6.40674e-15
-1.28555e-14
-1.84387e-14
-2.43942e-14
-2.90979e-14
-1.84387e-14
-1.28555e-14
-6.40674e-15
-6.69499e-23
6.40674e-15
1.28555e-14
1.84387e-14
2.43942e-14
2.90979e-14
-2.90979e-14
-2.43942e-14
-1.84387e-14
-1.28555e-14
-6.40674e-15
-6.69499e-23
6.40674e-15
1.28555e-14
1.84387e-14
2.43942e-14
2.90979e-14
-2.90979e-14
-2.43942e-14
-1.84387e-14
-1.28555e-14
-6.40674e-15
-6.69499e-23
6.40674e-15
1.28555e-14
1.84387e-14
2.43942e-14
2.90979e-14
-2.90979e-14
-2.43942e-14
-1.84387e-14
-1.28555e-14
-6.40674e-15
-6.24748e-23
6.40674e-15
1.28555e-14
1.84387e-14
2.43942e-14
2.90979e-14
-2.90979e-14
-2.43942e-14
-1.84387e-14
-1.28555e-14
-6.40674e-15
-6.69499e-23
6.40674e-15
1.28555e-14
1.84387e-14
2.43942e-14
2.90979e-14
-6.69499e-23
6.40674e-15
1.28555e-14
1.84387e-14
2.43942e-14
2.90979e-14
-2.90979e-14
-2.43942e-14
-1.84387e-14
-1.28555e-14
-6.40674e-15
-6.69499e-23
6.40674e-15
-2.90979e-14
-2.43942e-14
-1.84387e-14
-1.28555e-14
-6.40674e-15
-6.69499e-23
6.40674e-15
1.28555e-14
1.84387e-14
2.43942e-14
2.90979e-14
-2.90979e-14
-2.43942e-14
-1.84387e-14
-1.28555e-14
-6.40674e-15
-6.69499e-23
6.40674e-15
1.28555e-14
1.84387e-14
2.43942e-14
2.90979e-14
-2.90979e-14
-2.43942e-14
-1.84387e-14
-1.28555e-14
-6.40674e-15
-6.24748e-23
6.40674e-15
1.28555e-14
1.84387e-14
2.43942e-14
2.90979e-14
-2.90979e-14
-2.43942e-14
-1.84387e-14
-1.28555e-14
-6.40674e-15
-6.69499e-23
6.40674e-15
1.28555e-14
1.84387e-14
2.43942e-14
2.90979e-14
-2.90979e-14
-2.43942e-14
-1.84387e-14
-1.28555e-14
-6.40674e-15
-6.69499e-23
)
;
    }
    ami2
    {
        type            cyclicAMI;
        value           nonuniform List<scalar> 0();
    }
    outlet
    {
        type            calculated;
        value           nonuniform List<scalar> 0();
    }
    procBoundary7to5
    {
        type            processor;
        value           nonuniform List<scalar> 
131
(
6.08717e-08
1.98001e-07
3.8868e-07
5.56962e-07
6.68063e-07
6.92374e-07
6.30667e-07
5.06071e-07
3.47108e-07
1.83024e-07
6.08682e-08
1.83097e-07
4.93235e-07
8.08377e-07
1.03457e-06
1.16721e-06
1.20073e-06
1.14076e-06
9.98046e-07
7.7906e-07
4.93165e-07
1.98058e-07
3.47334e-07
7.7917e-07
1.12556e-06
1.36273e-06
1.50085e-06
1.54089e-06
1.48802e-06
1.3489e-06
1.12559e-06
8.08362e-07
3.8891e-07
5.06502e-07
9.98066e-07
1.3487e-06
1.58732e-06
1.72816e-06
1.77288e-06
1.72444e-06
1.58736e-06
1.36264e-06
1.03456e-06
5.5743e-07
6.31302e-07
1.14073e-06
1.48771e-06
1.7242e-06
1.86542e-06
1.91223e-06
1.86549e-06
1.72799e-06
1.50059e-06
1.16716e-06
6.68659e-07
6.93096e-07
1.17236e-07
1.2007e-06
1.02757e-07
1.54056e-06
8.24856e-08
1.77253e-06
5.75894e-08
1.91203e-06
2.92451e-08
1.95897e-06
1.91218e-06
1.77268e-06
1.54063e-06
1.20064e-06
6.92835e-07
6.7169e-07
1.16781e-06
1.49886e-06
1.725e-06
1.86198e-06
-3.08439e-08
1.9121e-06
1.86549e-06
1.72438e-06
1.48785e-06
1.14067e-06
6.30901e-07
5.59786e-07
1.0354e-06
1.36133e-06
1.58478e-06
1.72132e-06
-5.8936e-08
1.77265e-06
1.72808e-06
1.58742e-06
1.34884e-06
9.97956e-07
5.06128e-07
3.90492e-07
8.09578e-07
1.12519e-06
1.34734e-06
1.48597e-06
-8.35534e-08
1.54064e-06
1.50069e-06
1.36274e-06
1.12556e-06
7.78961e-07
3.47096e-07
1.98973e-07
4.94969e-07
7.8054e-07
9.98846e-07
1.14125e-06
-1.03419e-07
1.20071e-06
1.16723e-06
1.03456e-06
8.08275e-07
4.93074e-07
1.82986e-07
6.12106e-08
1.84069e-07
3.48974e-07
5.08907e-07
6.34331e-07
-1.17901e-07
6.93043e-07
6.68624e-07
5.57262e-07
3.88749e-07
1.97975e-07
6.08449e-08
)
;
    }
    procBoundary7to8
    {
        type            processor;
        value           nonuniform List<scalar> 
68
(
-6.33462e-08
-2.05005e-07
-4.01864e-07
-5.75896e-07
-6.89913e-07
-1.90404e-07
-5.05759e-07
-8.15597e-07
-1.03839e-06
-1.16998e-06
-3.5983e-07
-7.8833e-07
-1.12192e-06
-1.35257e-06
-1.48821e-06
-5.24426e-07
-1.00296e-06
-1.33886e-06
-1.57033e-06
-1.70817e-06
-6.53209e-07
-1.14395e-06
-1.47548e-06
-1.70448e-06
-1.84223e-06
-1.88802e-06
-7.15736e-07
-1.20351e-06
-1.52773e-06
-1.75202e-06
-1.8879e-06
-1.9337e-06
-6.90376e-07
1.07458e-07
-1.17e-06
9.38832e-08
-1.48804e-06
-1.70799e-06
-1.84215e-06
-1.88795e-06
-5.72577e-07
-1.03781e-06
-3.81555e-08
-1.3525e-06
-1.57025e-06
-1.70443e-06
-1.75208e-06
-3.99521e-07
-8.14329e-07
-5.08575e-08
-1.12189e-06
-1.33879e-06
-1.4754e-06
-1.52772e-06
-2.0373e-07
-5.0345e-07
-5.98333e-08
-7.88304e-07
-1.0029e-06
-1.14386e-06
-1.20345e-06
-6.28815e-08
-1.8903e-07
-6.60549e-08
-3.59878e-07
-5.24551e-07
-6.53402e-07
-7.15846e-07
)
;
    }
    procBoundary7to9
    {
        type            processor;
        value           nonuniform List<scalar> 
59
(
-7.15288e-07
-6.52874e-07
-5.24171e-07
-3.59686e-07
-1.90353e-07
-6.33429e-08
-1.2035e-06
-1.14393e-06
-1.00293e-06
-7.88258e-07
-5.05703e-07
-2.05037e-07
-1.52789e-06
-1.4756e-06
-1.33894e-06
-1.12193e-06
-8.15586e-07
-4.02027e-07