/*--------------------------------*- C++ -*----------------------------------*\
| =========                 |                                                 |
| \\      /  F ield         | OpenFOAM: The Open Source CFD Toolbox           |
|  \\    /   O peration     | Version:  2212                                  |
|   \\  /    A nd           | Website:  www.openfoam.com                      |
|    \\/     M anipulation  |                                                 |
\*---------------------------------------------------------------------------*/
FoamFile
{
    version     2.0;
    format      ascii;
    arch        "LSB;label=32;scalar=64";
    class       volVectorField;
    location    "1";
    object      U;
}
// * * * * * * * * * * * * * * * * * * * * * * * * * * * * * * * * * * * * * //

dimensions      [0 1 -1 0 0 0 0];

internalField   nonuniform List<vector> 
693
(
(0.024975 2.81722e-05 2.7611e-05)
(0.0247951 2.91151e-05 2.62537e-05)
(0.0246241 2.87802e-05 2.57354e-05)
(0.0244566 2.76222e-05 2.47325e-05)
(0.0242951 2.62885e-05 2.33847e-05)
(0.0241549 2.57492e-05 2.00386e-05)
(0.0419446 -5.05021e-05 0.000150243)
(0.041677 -3.99716e-05 0.000145883)
(0.0414258 -3.24288e-05 0.000141837)
(0.0411848 -2.68974e-05 0.000135098)
(0.040953 -2.27934e-05 0.000125752)
(0.040749 -1.81842e-05 0.00011337)
(0.0582287 -0.000297141 0.000283164)
(0.0578651 -0.000273161 0.000274988)
(0.0575238 -0.000247648 0.000259148)
(0.057206 -0.000219918 0.000233211)
(0.0569063 -0.000195055 0.000207017)
(0.0566371 -0.00017501 0.000187358)
(0.0681949 -0.000487585 0.000342712)
(0.0677685 -0.000457214 0.000331819)
(0.0673727 -0.000426414 0.000314896)
(0.0669947 -0.000396367 0.000294564)
(0.0666479 -0.000368152 0.000273564)
(0.0663246 -0.000341844 0.000255091)
(0.0732929 -0.000597876 0.000388549)
(0.0728583 -0.000563508 0.000364476)
(0.07245 -0.000530089 0.000339816)
(0.0720639 -0.000498011 0.000315379)
(0.0716987 -0.000466669 0.000291089)
(0.0713605 -0.000435799 0.000268241)
(0.0734094 -0.000630744 0.000381995)
(0.0729653 -0.000595559 0.000350564)
(0.072548 -0.000562134 0.000320211)
(0.0721554 -0.000529984 0.000293099)
(0.0717869 -0.000496184 0.000267134)
(0.0714496 -0.000462116 0.000241213)
(0.0693457 -0.000577234 0.000343996)
(0.0689075 -0.000546272 0.000312738)
(0.0684933 -0.00051415 0.000282548)
(0.0681007 -0.000481993 0.000255188)
(0.0677277 -0.000448822 0.000230384)
(0.0673828 -0.000418514 0.000207204)
(0.0620604 -0.000437223 0.000226616)
(0.0616612 -0.000412733 0.000205619)
(0.06128 -0.000381967 0.000186827)
(0.0609242 -0.000350394 0.00017025)
(0.0605871 -0.000321444 0.000156644)
(0.0602809 -0.000295726 0.000144151)
(0.052102 -0.000224165 9.83124e-05)
(0.051754 -0.000206811 8.83658e-05)
(0.0514343 -0.000189542 7.9645e-05)
(0.0511383 -0.000175403 7.28786e-05)
(0.0508501 -0.000165073 6.86162e-05)
(0.0505915 -0.000151626 6.53678e-05)
(0.0389238 -5.03505e-05 7.16808e-05)
(0.038644 -4.34949e-05 6.73674e-05)
(0.0383834 -4.07908e-05 6.21689e-05)
(0.0381347 -4.06586e-05 5.74725e-05)
(0.0378931 -4.03173e-05 5.39078e-05)
(0.0376779 -3.37077e-05 5.09324e-05)
(0.0249732 -2.83127e-05 3.09744e-05)
(0.0247926 -2.69264e-05 3.14388e-05)
(0.0246215 -2.60435e-05 3.06734e-05)
(0.0244554 -2.5013e-05 2.88891e-05)
(0.0242944 -2.35847e-05 2.64017e-05)
(0.0241539 -1.99889e-05 2.4397e-05)
(0.0389362 6.6856e-05 4.97354e-05)
(0.038656 6.35453e-05 4.25942e-05)
(0.0383979 5.91195e-05 4.07787e-05)
(0.0381485 5.49362e-05 4.10953e-05)
(0.0379063 5.26778e-05 3.99696e-05)
(0.0376921 5.1698e-05 3.23318e-05)
(0.0716843 1.45687e-05 0.000243861)
(0.0713562 1.96183e-05 0.000224492)
(0.0710481 2.25592e-05 0.000213254)
(0.0707599 2.30794e-05 0.000208789)
(0.0704742 2.26142e-05 0.000208377)
(0.070212 2.65027e-05 0.00018753)
(0.0916033 -0.000256624 0.000445866)
(0.0914693 -0.000241898 0.000425475)
(0.0913375 -0.000228687 0.000410452)
(0.0912024 -0.000215683 0.000396754)
(0.0910645 -0.000203373 0.000384749)
(0.0909268 -0.000183466 0.000354132)
(0.100574 -0.000512782 0.000497171)
(0.10052 -0.000492471 0.000480576)
(0.10046 -0.000469239 0.00046177)
(0.100397 -0.000445087 0.000444649)
(0.100329 -0.000420283 0.000428403)
(0.100263 -0.000382875 0.000392036)
(0.104292 -0.000667917 0.000521369)
(0.104256 -0.000645384 0.00050773)
(0.104215 -0.000616682 0.000490115)
(0.104172 -0.00058515 0.000470827)
(0.104125 -0.000552504 0.000448209)
(0.10408 -0.000509089 0.000412613)
(0.104438 -0.000725716 0.000489754)
(0.1044 -0.000693095 0.000473682)
(0.104361 -0.000660837 0.000455401)
(0.104323 -0.000632037 0.000436461)
(0.104282 -0.000604176 0.000416458)
(0.104233 -0.000558962 0.000386878)
(0.10196 -0.000705552 0.00042383)
(0.101909 -0.000668754 0.000405698)
(0.101863 -0.000630636 0.000383288)
(0.101816 -0.00059825 0.000359801)
(0.101768 -0.000567815 0.000337679)
(0.10172 -0.000514544 0.000309303)
(0.0971246 -0.000607342 0.000283841)
(0.0970457 -0.000567718 0.000265722)
(0.0969705 -0.000531899 0.00024713)
(0.0968918 -0.000509417 0.000230422)
(0.096811 -0.000493195 0.000215674)
(0.096731 -0.000447574 0.000196452)
(0.0885064 -0.000494105 0.000103312)
(0.088335 -0.000460058 9.57275e-05)
(0.0881607 -0.00044198 8.90755e-05)
(0.0879896 -0.000427984 8.34938e-05)
(0.0878149 -0.000416699 7.88039e-05)
(0.087649 -0.000381165 7.33772e-05)
(0.0716745 -0.000245602 2.25276e-05)
(0.0713514 -0.00022632 2.59048e-05)
(0.0710414 -0.00021342 2.84523e-05)
(0.0707518 -0.000210316 2.81729e-05)
(0.070465 -0.000210425 2.55886e-05)
(0.0702023 -0.000189157 2.61677e-05)
(0.0419501 -0.000152161 -4.69101e-05)
(0.0416861 -0.000147341 -3.7585e-05)
(0.0414341 -0.000142283 -3.08659e-05)
(0.041195 -0.000135209 -2.61371e-05)
(0.0409643 -0.00012513 -2.35499e-05)
(0.0407607 -0.000111574 -2.10318e-05)
(0.0521246 9.3428e-05 0.000222373)
(0.051779 8.47694e-05 0.000204248)
(0.0514624 7.66246e-05 0.000188846)
(0.0511673 7.00381e-05 0.00017673)
(0.0508806 6.70496e-05 0.00016581)
(0.0506232 6.60183e-05 0.000151232)
(0.088517 9.46583e-05 0.000493916)
(0.0883413 8.79052e-05 0.000460754)
(0.0881688 8.28175e-05 0.000442867)
(0.0879973 7.89577e-05 0.000428202)
(0.0878271 7.62098e-05 0.000415648)
(0.0876598 7.29598e-05 0.000378185)
(0.105589 -0.000136897 0.000707783)
(0.105664 -0.000134987 0.000670929)
(0.10573 -0.00013282 0.000647761)
(0.105782 -0.000128993 0.000630639)
(0.10583 -0.000123759 0.000611078)
(0.105869 -0.000114615 0.000572315)
(0.113195 -0.000396309 0.000655751)
(0.113355 -0.00038674 0.000631042)
(0.113504 -0.000374717 0.000608824)
(0.113645 -0.000361833 0.000592865)
(0.113779 -0.000347566 0.000577223)
(0.113901 -0.000324736 0.000541167)
(0.116424 -0.000588085 0.000589137)
(0.116607 -0.000565525 0.000569872)
(0.11678 -0.000544848 0.00055302)
(0.116944 -0.000525109 0.000536749)
(0.117101 -0.000503247 0.000518197)
(0.117247 -0.000471163 0.00048748)
(0.116921 -0.000715173 0.000479131)
(0.117104 -0.000672817 0.000461409)
(0.11728 -0.000646274 0.000450703)
(0.117444 -0.000627472 0.000441729)
(0.117602 -0.000597159 0.00042333)
(0.117751 -0.000552401 0.000394814)
(0.115432 -0.00076804 0.000331535)
(0.115605 -0.000721322 0.000317356)
(0.115773 -0.000686154 0.000304514)
(0.115935 -0.000657643 0.000291552)
(0.116093 -0.000628037 0.000276565)
(0.116241 -0.000583126 0.000257469)
(0.112051 -0.000752117 0.000122826)
(0.112202 -0.00071299 0.000113477)
(0.112348 -0.000680319 0.000103638)
(0.112486 -0.000658238 9.38739e-05)
(0.112621 -0.000640646 8.5247e-05)
(0.112742 -0.000597833 7.69118e-05)
(0.105591 -0.000708691 -0.000132579)
(0.105664 -0.00067402 -0.000131529)
(0.105731 -0.000649264 -0.000129954)
(0.105783 -0.000632219 -0.000127707)
(0.105832 -0.000613152 -0.000124141)
(0.105873 -0.000575559 -0.000116344)
(0.0916007 -0.000451451 -0.000250814)
(0.0914659 -0.000432775 -0.000237772)
(0.0913327 -0.000411342 -0.000223379)
(0.0911995 -0.000398486 -0.000212268)
(0.0910616 -0.000387301 -0.000202666)
(0.0909247 -0.000355242 -0.000185365)
(0.0582509 -0.000281998 -0.000291074)
(0.0578979 -0.000273581 -0.00026858)
(0.0575563 -0.000260383 -0.000246224)
(0.0572393 -0.000235064 -0.000220452)
(0.0569401 -0.000206833 -0.000196803)
(0.056671 -0.000185946 -0.000179335)
(0.0620943 0.000221659 0.000437113)
(0.0616901 0.000201688 0.00041097)
(0.0613156 0.00018346 0.000378073)
(0.0609631 0.000167698 0.000345232)
(0.0606364 0.000155317 0.000316886)
(0.0603287 0.000144605 0.000292809)
(0.0971269 0.000275847 0.000602679)
(0.0970527 0.000257752 0.00056025)
(0.0969782 0.000241866 0.000530618)
(0.0968991 0.000228664 0.000515103)
(0.0968135 0.000215557 0.000496593)
(0.0967341 0.000197268 0.000444938)
(0.112043 0.000120962 0.000750949)
(0.112194 0.000112105 0.000711854)
(0.112336 0.000102913 0.000680166)
(0.112473 9.41415e-05 0.000658887)
(0.112605 8.66e-05 0.0006401)
(0.112727 7.91113e-05 0.000594711)
(0.118959 -0.000122281 0.000644404)
(0.11919 -0.000122847 0.000614007)
(0.119411 -0.000122524 0.000588098)
(0.119626 -0.000121653 0.000570502)
(0.119834 -0.000119374 0.000550776)
(0.120029 -0.000113419 0.000509395)
(0.12211 -0.000328007 0.000504971)
(0.122369 -0.000316907 0.000484812)
(0.122616 -0.000306033 0.00046576)
(0.122854 -0.000296538 0.000450089)
(0.123083 -0.000285154 0.000433295)
(0.123299 -0.000266992 0.000405078)
(0.122894 -0.000490523 0.000325352)
(0.123157 -0.00046598 0.000313552)
(0.123406 -0.000443735 0.000302402)
(0.123647 -0.000426283 0.000293121)
(0.123879 -0.00040744 0.000282001)
(0.1241 -0.000378449 0.00026392)
(0.121851 -0.000597608 0.000119739)
(0.122106 -0.000565664 0.000113172)
(0.12235 -0.00053635 0.000106793)
(0.122586 -0.000513782 0.000101227)
(0.122816 -0.000491298 9.51134e-05)
(0.123033 -0.000455327 8.74225e-05)
(0.118961 -0.000645967 -0.000124963)
(0.119192 -0.000615182 -0.000125673)
(0.119414 -0.000587869 -0.00012571)
(0.119628 -0.00056957 -0.000125416)
(0.119836 -0.000550411 -0.000123124)
(0.120031 -0.000510424 -0.00011643)
(0.113192 -0.000657773 -0.000395382)
(0.113349 -0.000632421 -0.000385905)
(0.113499 -0.000608954 -0.000374285)
(0.113639 -0.000594459 -0.000363159)
(0.113772 -0.000579422 -0.000349917)
(0.113894 -0.000542848 -0.000327266)
(0.100576 -0.000498732 -0.000507814)
(0.100519 -0.000482766 -0.000488751)
(0.100461 -0.000460501 -0.00046426)
(0.100399 -0.00044705 -0.000443921)
(0.100329 -0.000430718 -0.000421572)
(0.100263 -0.000392689 -0.000386034)
(0.0682391 -0.000339728 -0.000482261)
(0.0678215 -0.000328868 -0.000453323)
(0.0674242 -0.000313173 -0.000424089)
(0.0670495 -0.000292528 -0.000395656)
(0.0667044 -0.000270059 -0.000369177)
(0.0663811 -0.000251066 -0.000345205)
(0.0693832 0.000338219 0.000576309)
(0.0689481 0.00030886 0.00054436)
(0.0685398 0.000280935 0.00050856)
(0.0681534 0.000255963 0.000472593)
(0.0677864 0.000232841 0.00043887)
(0.0674492 0.000210181 0.000410564)
(0.101962 0.000418501 0.000701677)
(0.101914 0.000401172 0.000664754)
(0.101867 0.000380211 0.000628775)
(0.10182 0.000358659 0.000598036)
(0.101769 0.000339195 0.000570974)
(0.101719 0.000312043 0.000516798)
(0.115421 0.000331494 0.000767327)
(0.115592 0.000317612 0.000720984)
(0.115757 0.000304466 0.000686555)
(0.115917 0.000291197 0.000659492)
(0.116073 0.000276583 0.00063183)
(0.116218 0.000258202 0.000586194)
(0.121843 0.000124054 0.00059847)
(0.122096 0.000117533 0.000567087)
(0.122339 0.000110912 0.000538768)
(0.122574 0.000104599 0.000517101)
(0.122802 9.70957e-05 0.000494735)
(0.123017 8.80608e-05 0.000457718)
(0.124909 -7.05034e-05 0.000399839)
(0.125196 -6.87315e-05 0.000379485)
(0.125468 -6.7495e-05 0.000361155)
(0.12573 -6.7018e-05 0.000346399)
(0.125981 -6.65844e-05 0.00033116)
(0.126218 -6.43132e-05 0.000308898)
(0.125802 -0.000249184 0.000168076)
(0.126097 -0.000236722 0.000159963)
(0.126377 -0.000225776 0.000152643)
(0.126646 -0.00021717 0.000146653)
(0.126902 -0.000207921 0.000140156)
(0.127144 -0.000194357 0.000131007)
(0.124911 -0.000400146 -7.64001e-05)
(0.125197 -0.000379522 -7.44108e-05)
(0.12547 -0.000360748 -7.24962e-05)
(0.125732 -0.000345648 -7.069e-05)
(0.125984 -0.000330269 -6.81066e-05)
(0.126221 -0.000308322 -6.36202e-05)
(0.122102 -0.000506697 -0.000332385)
(0.122359 -0.000485801 -0.000321224)
(0.122604 -0.000466263 -0.000310369)
(0.122842 -0.000450883 -0.00030065)
(0.12307 -0.000434718 -0.000288252)
(0.123287 -0.000407186 -0.000268509)
(0.11641 -0.000589464 -0.000587997)
(0.116591 -0.000569802 -0.00056587)
(0.116762 -0.000553058 -0.000546326)
(0.116925 -0.000537494 -0.000527245)
(0.117081 -0.00051965 -0.000505251)
(0.117226 -0.000489426 -0.000472869)
(0.104288 -0.000519708 -0.000663835)
(0.104252 -0.000506726 -0.000641855)
(0.104212 -0.000489131 -0.000614093)
(0.104169 -0.000469387 -0.000583188)
(0.104122 -0.000447841 -0.000553396)
(0.104076 -0.000412715 -0.000511964)
(0.0733531 -0.000384089 -0.00059346)
(0.0729223 -0.000361524 -0.000560361)
(0.0725162 -0.000338282 -0.000527986)
(0.0721317 -0.000313572 -0.000497159)
(0.0717652 -0.000288725 -0.000467445)
(0.0714267 -0.0002662 -0.000438585)
(0.0734583 0.000376599 0.000625339)
(0.0730188 0.000348994 0.000589654)
(0.0726071 0.000323396 0.000554599)
(0.0722194 0.000300067 0.000520512)
(0.0718568 0.000276643 0.000485436)
(0.0715229 0.000249361 0.000453475)
(0.104437 0.000487208 0.000721305)
(0.104401 0.000472267 0.000688714)
(0.104361 0.000455296 0.00065787)
(0.104325 0.000438122 0.000630439)
(0.104281 0.000417806 0.000602541)
(0.104232 0.000389589 0.000557413)
(0.116908 0.00047977 0.0007136)
(0.117088 0.000462653 0.000673558)
(0.117261 0.00045209 0.000649712)
(0.117424 0.000440728 0.000630142)
(0.11758 0.000419011 0.000598877)
(0.117726 0.000391247 0.000555186)
(0.122879 0.000329872 0.000493224)
(0.12314 0.000317484 0.000469145)
(0.123389 0.00030544 0.000447765)
(0.123628 0.000294008 0.000431043)
(0.123859 0.00027827 0.000411638)
(0.124077 0.000257875 0.000381403)
(0.125794 0.000173207 0.000253022)
(0.126088 0.000164447 0.000240079)
(0.126368 0.000155877 0.000228675)
(0.126636 0.00014716 0.000219524)
(0.126892 0.000135928 0.000209383)
(0.127132 0.000124021 0.000194618)
(0.126684 2.67658e-06 4.51946e-07)
(0.126989 2.2975e-06 4.93072e-08)
(0.127277 1.53622e-06 -4.22449e-07)
(0.127553 8.889e-08 -9.27151e-07)
(0.127815 -2.11364e-06 -1.26284e-06)
(0.128062 -3.65115e-06 -1.05087e-06)
(0.1258 -0.000169215 -0.000252142)
(0.126094 -0.00016098 -0.000239888)
(0.126373 -0.000153625 -0.000229008)
(0.126642 -0.0001478 -0.000220105)
(0.126899 -0.000141701 -0.00020983)
(0.127141 -0.000132922 -0.000194585)
(0.122885 -0.000327661 -0.000492905)
(0.123145 -0.000315418 -0.000468465)
(0.123394 -0.000304275 -0.000446667)
(0.123634 -0.00029534 -0.000429679)
(0.123865 -0.000284273 -0.000410226)
(0.124086 -0.000266199 -0.000379685)
(0.116908 -0.000478906 -0.00071415)
(0.117089 -0.000461738 -0.000673742)
(0.117262 -0.000451932 -0.00064919)
(0.117425 -0.000442981 -0.000630222)
(0.117582 -0.00042407 -0.000598896)
(0.11773 -0.000396188 -0.000553974)
(0.104432 -0.000486631 -0.000723315)
(0.104395 -0.000471107 -0.000691324)
(0.104355 -0.000453277 -0.000660159)
(0.104318 -0.000435059 -0.000632175)
(0.104275 -0.000416003 -0.000605287)
(0.104226 -0.000387453 -0.000560833)
(0.0734565 -0.000376048 -0.000628715)
(0.073015 -0.000346434 -0.000593934)
(0.0726001 -0.000317779 -0.000560756)
(0.072208 -0.000291899 -0.000528803)
(0.0718389 -0.000266901 -0.000495268)
(0.0714992 -0.000242332 -0.000462632)
(0.0733433 0.000383587 0.000590303)
(0.0729127 0.000366479 0.000556576)
(0.0725055 0.000349485 0.000524037)
(0.072121 0.000328994 0.000491922)
(0.0717598 0.000306594 0.000460045)
(0.104294 0.000523232 0.000661698)
(0.104259 0.000510584 0.000640169)
(0.10422 0.000492894 0.000612459)
(0.104177 0.000473695 0.000581858)
(0.104133 0.000441824 0.00054128)
(0.11641 0.000593571 0.000588714)
(0.116591 0.000572288 0.000565761)
(0.116764 0.000553604 0.000545692)
(0.116929 0.000533981 0.000525053)
(0.117085 0.000503778 0.000496597)
(0.122097 0.000509572 0.000332383)
(0.122354 0.000488689 0.000321175)
(0.122601 0.000469056 0.000310352)
(0.122839 0.000448155 0.000298792)
(0.123067 0.000417369 0.000282197)
(0.124903 0.000403621 7.65672e-05)
(0.125189 0.000382747 7.38414e-05)
(0.125463 0.000363374 7.09961e-05)
(0.125726 0.000342997 6.77041e-05)
(0.125976 0.00031573 6.3272e-05)
(0.125797 0.000253926 -0.000167443)
(0.126091 0.000240985 -0.000160171)
(0.126371 0.000229019 -0.000154189)
(0.12664 0.000217728 -0.000150107)
(0.126896 0.000203343 -0.000145415)
(0.127137 0.000186455 -0.000135875)
(0.124912 7.41654e-05 -0.000398579)
(0.125198 7.22927e-05 -0.000378981)
(0.125471 7.05792e-05 -0.000361607)
(0.125733 6.87384e-05 -0.000348248)
(0.125985 6.56433e-05 -0.000334187)
(0.126222 6.09126e-05 -0.000311809)
(0.121849 -0.000122848 -0.000597661)
(0.122103 -0.000116336 -0.000566185)
(0.122346 -0.000110029 -0.000537788)
(0.122582 -0.000104446 -0.000516499)
(0.122811 -9.81008e-05 -0.00049435)
(0.123028 -8.99244e-05 -0.000457061)
(0.115424 -0.000331907 -0.000767978)
(0.115596 -0.000318044 -0.000722176)
(0.115762 -0.000305745 -0.000687978)
(0.115923 -0.000293193 -0.000659857)
(0.116081 -0.00027874 -0.000630972)
(0.116228 -0.000260238 -0.000586161)
(0.101958 -0.000419714 -0.000704002)
(0.101908 -0.000402281 -0.000668355)
(0.101861 -0.000380692 -0.000631599)
(0.101813 -0.000358321 -0.000599555)
(0.101764 -0.000338877 -0.000572448)
(0.101713 -0.000312171 -0.000519445)
(0.0693691 -0.000338304 -0.000577499)
(0.0689319 -0.000308666 -0.000545787)
(0.0685193 -0.0002799 -0.00051283)
(0.0681273 -0.000253987 -0.000480257)
(0.0677536 -0.000230785 -0.000447247)
(0.06741 -0.000209412 -0.000417838)
(0.0678118 0.000333053 0.000451606)
(0.0674059 0.000327754 0.000425073)
(0.067025 0.000311996 0.000396263)
(0.0666754 0.000291423 0.000367403)
(0.100518 0.000481288 0.000482011)
(0.100464 0.000464054 0.000461768)
(0.100404 0.000449797 0.000441759)
(0.100342 0.000418794 0.000410218)
(0.11319 0.000662227 0.000395512)
(0.11335 0.000637555 0.000385659)
(0.113501 0.000616118 0.000374372)
(0.113643 0.000596868 0.000361441)
(0.113778 0.000559518 0.000340935)
(0.118953 0.000648955 0.000125065)
(0.119184 0.000619015 0.000124956)
(0.119407 0.000595004 0.000123916)
(0.119623 0.000570768 0.000121604)
(0.11983 0.000528486 0.00011629)
(0.12184 0.000601233 -0.000119867)
(0.122094 0.000569832 -0.000114174)
(0.122338 0.000542026 -0.000109497)
(0.122576 0.000513509 -0.000105309)
(0.122804 0.000473046 -9.98002e-05)
(0.122883 0.000493536 -0.000324918)
(0.123145 0.00046911 -0.000313839)
(0.123395 0.000447283 -0.000304747)
(0.123635 0.000428439 -0.000298351)
(0.123866 0.000404049 -0.000289179)
(0.124085 0.000371274 -0.000270623)
(0.122108 0.000330371 -0.000504448)
(0.122366 0.000319473 -0.00048456)
(0.122612 0.000309196 -0.000466848)
(0.122849 0.00029997 -0.000454028)
(0.123078 0.000286995 -0.000439404)
(0.123294 0.00026612 -0.000410831)
(0.118963 0.000122379 -0.000644382)
(0.119195 0.000122869 -0.000613933)
(0.119417 0.000122932 -0.000587526)
(0.119631 0.000122972 -0.000570677)
(0.11984 0.000121016 -0.000552825)
(0.120035 0.00011447 -0.000513157)
(0.112048 -0.000122525 -0.00075193)
(0.112198 -0.000113805 -0.000713149)
(0.112344 -0.000104708 -0.00068111)
(0.112481 -9.55959e-05 -0.000659702)
(0.112616 -8.77628e-05 -0.000642654)
(0.112737 -8.02474e-05 -0.000599926)
(0.0971218 -0.000279245 -0.000606895)
(0.0970433 -0.0002621 -0.000568648)
(0.0969667 -0.00024479 -0.000534408)
(0.0968871 -0.000229453 -0.000511297)
(0.0968043 -0.00021666 -0.000495666)
(0.0967232 -0.000199594 -0.000450149)
(0.0620714 -0.000222008 -0.000437649)
(0.0616714 -0.000201951 -0.000412588)
(0.0612918 -0.000184495 -0.00038113)
(0.0609356 -0.000169814 -0.000349369)
(0.0605971 -0.000158025 -0.000320866)
(0.0602895 -0.000147405 -0.000296223)
(0.0578973 0.000273242 0.000268281)
(0.0575457 0.000268432 0.000249125)
(0.0572148 0.000248274 0.000223438)
(0.0569138 0.00022221 0.000196522)
(0.0914568 0.000430883 0.000235045)
(0.0913243 0.000411877 0.000221653)
(0.0911946 0.000402338 0.000211444)
(0.0910606 0.000375269 0.000194051)
(0.105584 0.000712919 0.000133767)
(0.10566 0.000680638 0.00013234)
(0.105726 0.000660829 0.00013024)
(0.105778 0.000641846 0.000126822)
(0.10583 0.000598787 0.000118764)
(0.112037 0.000755947 -0.000121675)
(0.112188 0.000717348 -0.000112907)
(0.112333 0.000689034 -0.000104721)
(0.112473 0.000666595 -9.664e-05)
(0.112607 0.000621179 -8.84055e-05)
(0.115415 0.000769346 -0.00033113)
(0.115587 0.00072434 -0.000317513)
(0.115754 0.00069154 -0.00030561)
(0.115919 0.00065995 -0.000293357)
(0.116076 0.000611989 -0.000277424)
(0.116908 0.000713465 -0.000477475)
(0.11709 0.000674327 -0.000461509)
(0.117263 0.000650723 -0.000453094)
(0.117427 0.000629612 -0.000445314)
(0.117584 0.0005956 -0.000428725)
(0.117732 0.000547866 -0.000400224)
(0.116419 0.000586574 -0.0005879)
(0.116601 0.000564791 -0.000569247)
(0.116773 0.000547199 -0.000555541)
(0.116934 0.000528935 -0.000542394)
(0.11709 0.000505435 -0.000524879)
(0.117234 0.000471195 -0.000493599)
(0.113197 0.00039395 -0.000656025)
(0.113355 0.000384113 -0.00063047)
(0.113506 0.000372716 -0.000608355)
(0.113647 0.000361924 -0.000595897)
(0.11378 0.000348994 -0.000583085)
(0.113902 0.000325924 -0.000547138)
(0.105588 0.000133776 -0.000709224)
(0.105663 0.000131618 -0.000672234)
(0.105729 0.00012927 -0.000648921)
(0.105781 0.000126133 -0.000633532)
(0.10583 0.000121662 -0.000615474)
(0.10587 0.000112908 -0.000578646)
(0.0885026 -9.91455e-05 -0.00049318)
(0.08833 -9.23719e-05 -0.000460022)
(0.088155 -8.70843e-05 -0.000443353)
(0.0879827 -8.31817e-05 -0.000430488)
(0.0878059 -8.05283e-05 -0.000420092)
(0.0876385 -7.73467e-05 -0.000383839)
(0.0521058 -9.50659e-05 -0.000224609)
(0.0517562 -8.57392e-05 -0.000207282)
(0.0514364 -7.81449e-05 -0.000189766)
(0.0511396 -7.3045e-05 -0.000175101)
(0.0508513 -7.05805e-05 -0.000164591)
(0.0505915 -6.91547e-05 -0.000152098)
(0.0416906 0.000145963 3.74777e-05)
(0.0414363 0.000141263 3.17074e-05)
(0.0411884 0.000136803 2.67596e-05)
(0.040961 0.000127503 2.03484e-05)
(0.0713595 0.000228018 -2.64175e-05)
(0.071045 0.000214446 -2.76107e-05)
(0.0707485 0.000212238 -2.67937e-05)
(0.0704658 0.00019449 -3.0132e-05)
(0.0885125 0.000489788 -0.000102597)
(0.0883369 0.00046399 -9.48618e-05)
(0.0881607 0.000455298 -8.8441e-05)
(0.0879868 0.00044464 -8.31174e-05)
(0.0878152 0.00040306 -7.78932e-05)
(0.0971219 0.000603308 -0.000280606)
(0.0970461 0.000563133 -0.000262225)
(0.0969695 0.000543681 -0.000247053)
(0.0968863 0.000525145 -0.000232071)
(0.0968084 0.000475904 -0.000212454)
(0.101954 0.00070132 -0.000422225)
(0.101906 0.000666588 -0.000403596)
(0.101859 0.000635784 -0.000381795)
(0.101811 0.000605124 -0.000358261)
(0.101765 0.000554421 -0.000330149)
(0.104432 0.000721959 -0.000489474)
(0.104395 0.000689915 -0.000472931)
(0.104357 0.000660664 -0.00045365)
(0.104321 0.000634484 -0.000434001)
(0.104279 0.00060752 -0.000414876)
(0.104233 0.000560145 -0.000385837)
(0.104292 0.000664343 -0.000522923)
(0.104255 0.000642093 -0.000509634)
(0.104216 0.000613805 -0.00049106)
(0.104174 0.00058365 -0.000471477)
(0.104128 0.000554909 -0.000451063)
(0.104081 0.000512142 -0.000415101)
(0.100575 0.000507152 -0.000498968)
(0.100518 0.000487567 -0.000482981)
(0.100461 0.000462883 -0.000462095)
(0.100398 0.000442573 -0.000450538)
(0.100328 0.000420128 -0.000435543)
(0.100262 0.000383546 -0.000397119)
(0.0915939 0.000251817 -0.000451545)
(0.0914581 0.000237581 -0.00043176)
(0.0913243 0.000222435 -0.000411286)
(0.0911906 0.000210169 -0.000399597)
(0.0910524 0.000199317 -0.00039009)
(0.090915 0.000180532 -0.000359422)
(0.0716694 -1.98234e-05 -0.000244703)
(0.0713446 -2.4062e-05 -0.000225788)
(0.0710337 -2.77495e-05 -0.000214135)
(0.070743 -2.94224e-05 -0.000211807)
(0.0704548 -2.92607e-05 -0.000212988)
(0.0701908 -3.26055e-05 -0.000191505)
(0.0389246 -6.98035e-05 -5.0222e-05)
(0.0386427 -6.597e-05 -4.31527e-05)
(0.0383821 -6.16114e-05 -4.04415e-05)
(0.0381321 -5.82633e-05 -4.02139e-05)
(0.0378891 -5.64175e-05 -3.979e-05)
(0.037672 -5.51782e-05 -3.30951e-05)
(0.0247997 2.65666e-05 -3.14688e-05)
(0.0246281 2.59998e-05 -2.9706e-05)
(0.0244557 2.52921e-05 -2.80351e-05)
(0.0242984 2.21061e-05 -2.75857e-05)
(0.0386636 4.42553e-05 -6.7868e-05)
(0.0383981 4.53145e-05 -5.94982e-05)
(0.0381392 4.46716e-05 -5.4155e-05)
(0.0379035 3.64517e-05 -5.20938e-05)
(0.0521298 0.000218162 -0.000101293)
(0.0517817 0.000205253 -8.96652e-05)
(0.0514587 0.000196504 -7.72577e-05)
(0.0511565 0.000186524 -6.90978e-05)
(0.0508722 0.000170414 -6.47029e-05)
(0.0621079 0.00043878 -0.000226451)
(0.0617005 0.00041452 -0.000204717)
(0.0613189 0.000385529 -0.000184799)
(0.0609627 0.000356924 -0.000168333)
(0.0606286 0.000331216 -0.000153912)
(0.0694031 0.000577518 -0.000341707)
(0.0689646 0.000548243 -0.00031009)
(0.0685509 0.000516638 -0.000279884)
(0.0681569 0.000486347 -0.00025167)
(0.0677867 0.000458775 -0.000224104)
(0.073469 0.000626581 -0.000379408)
(0.0730277 0.000594108 -0.00034756)
(0.0726132 0.000562859 -0.000316934)
(0.0722219 0.000533411 -0.000288108)
(0.071855 0.000503588 -0.000259074)
(0.0715183 0.00046927 -0.000234759)
(0.0733336 0.000590994 -0.000387757)
(0.0729037 0.00055854 -0.000363536)
(0.0724989 0.000527363 -0.000338928)
(0.0721166 0.000497498 -0.000312494)
(0.0717536 0.000468304 -0.000285844)
(0.0714206 0.000438151 -0.000262907)
(0.0682142 0.000480236 -0.000342665)
(0.067795 0.000451385 -0.000332356)
(0.067397 0.000422139 -0.000316693)
(0.0670232 0.000393385 -0.000295657)
(0.0666798 0.000366521 -0.000272866)
(0.0663597 0.000341757 -0.000253632)
(0.0582349 0.000290071 -0.000283396)
(0.0578793 0.000267106 -0.000275581)
(0.0575358 0.000243692 -0.000262096)
(0.0572176 0.000217111 -0.000237595)
(0.0569172 0.000192769 -0.00021049)
(0.0566479 0.000174205 -0.000190211)
(0.0419426 4.66469e-05 -0.000152768)
(0.0416761 3.64677e-05 -0.000147899)
(0.0414239 2.911e-05 -0.0001432)
(0.0411831 2.38108e-05 -0.00013737)
(0.0409507 2.0373e-05 -0.000128696)
(0.0407452 1.6697e-05 -0.000116285)
(0.0249707 -3.03423e-05 -2.8176e-05)
(0.0247891 -3.11888e-05 -2.68209e-05)
(0.0246177 -3.10121e-05 -2.60598e-05)
(0.0244504 -3.00672e-05 -2.52362e-05)
(0.0242877 -2.86374e-05 -2.41019e-05)
(0.0241458 -2.77003e-05 -2.07013e-05)
)
;

boundaryField
{
    inlet
    {
        type            fixedValue;
        value           nonuniform List<vector> 0();
    }
    ami1
    {
        type            cyclicAMI;
        value           nonuniform List<vector> 0();
    }
    walls
    {
        type            noSlip;
    }
    ami2
    {
        type            cyclicAMI;
        value           nonuniform List<vector> 0();
    }
    outlet
    {
        type            zeroGradient;
    }
    procBoundary7to5
    {
        type            processor;
        value           nonuniform List<vector> 
131
(
(0.0240353 2.51416e-05 1.73052e-05)
(0.0405513 -1.30687e-05 0.000102489)
(0.0563687 -0.000155843 0.000171751)
(0.0660146 -0.000315215 0.000238516)
(0.0710364 -0.000404998 0.000246034)
(0.0711266 -0.000428977 0.000216974)
(0.0670443 -0.000389163 0.000185207)
(0.0599694 -0.000264931 0.000128427)
(0.0503298 -0.00013557 6.01294e-05)
(0.0374741 -2.6423e-05 4.67809e-05)
(0.0240337 -1.68269e-05 2.23847e-05)
(0.0374899 4.92582e-05 2.4775e-05)
(0.0699399 3.07274e-05 0.000162404)
(0.0907895 -0.00016365 0.000322406)
(0.1002 -0.000350432 0.000360891)
(0.104037 -0.000470938 0.000381231)
(0.104188 -0.000513437 0.000358146)
(0.10168 -0.000467686 0.000283347)
(0.0966557 -0.000401238 0.000176992)
(0.0874785 -0.000341963 6.69706e-05)
(0.0699299 -0.000162804 2.68485e-05)
(0.0405631 -9.92668e-05 -1.78918e-05)
(0.050363 6.24293e-05 0.000134413)
(0.0874915 6.886e-05 0.000338638)
(0.105916 -0.000105224 0.00052688)
(0.114019 -0.000303167 0.000502629)
(0.117385 -0.000441705 0.000457973)
(0.117892 -0.000513898 0.000370993)
(0.116383 -0.000542115 0.000240879)
(0.112863 -0.000548935 6.99218e-05)
(0.105919 -0.00053032 -0.000108255)
(0.0907884 -0.000321486 -0.000168025)
(0.056402 -0.000168483 -0.000162302)
(0.0600223 0.000131483 0.000265783)
(0.096657 0.000179678 0.000400501)
(0.112847 7.29618e-05 0.00054704)
(0.120216 -0.000107386 0.000467918)
(0.123503 -0.000249754 0.000377285)
(0.124308 -0.000351049 0.000246472)
(0.123239 -0.000420981 8.08917e-05)
(0.120219 -0.00047014 -0.00010945)
(0.114012 -0.00050501 -0.00030597)
(0.1002 -0.000359735 -0.000355059)
(0.0660696 -0.000234542 -0.000321192)
(0.0671139 0.000188705 0.000383472)
(0.101677 0.000286353 0.000466435)
(0.116358 0.000242094 0.000543546)
(0.123221 8.06539e-05 0.000421998)
(0.12644 -6.11713e-05 0.000287598)
(0.127371 -0.000181638 0.00012274)
(0.126445 -0.000287787 -5.89357e-05)
(0.123492 -0.000380272 -0.000249841)
(0.117365 -0.000460859 -0.000443433)
(0.104032 -0.000380903 -0.000474266)
(0.0710979 -0.00024515 -0.000410346)
(0.0712008 0.000219701 0.000424085)
(0.0714117 0.000280091 0.000431069)
(0.104185 0.000360008 0.000511336)
(0.104091 0.000410462 0.000505359)
(0.117866 0.000369558 0.000515859)
(0.117234 0.000476541 0.000470084)
(0.124284 0.000242705 0.000352393)
(0.123285 0.000388843 0.000265352)
(0.127358 0.000117292 0.000180146)
(0.126215 0.000292071 5.9653e-05)
(0.128294 -3.4418e-06 -3.07256e-07)
(0.127368 -0.000124535 -0.000180087)
(0.124295 -0.000249058 -0.00035093)
(0.117872 -0.000373635 -0.000516331)
(0.10418 -0.000360154 -0.000516288)
(0.071172 -0.000220023 -0.000432028)
(0.0714117 0.000280091 0.000431069)
(0.104091 0.000410462 0.000505359)
(0.117234 0.000476541 0.000470084)
(0.123285 0.000388843 0.000265352)
(0.126215 0.000292071 5.9653e-05)
(0.126215 0.000292071 5.9653e-05)
(0.127363 0.000175085 -0.000124151)
(0.126446 5.70725e-05 -0.000289143)
(0.123235 -8.29461e-05 -0.00042153)
(0.116371 -0.000244363 -0.000545334)
(0.101671 -0.00028708 -0.000470672)
(0.067068 -0.000189536 -0.000390271)
(0.066337 0.000268438 0.000340126)
(0.100282 0.00038625 0.000378995)
(0.113908 0.000522397 0.000321859)
(0.12003 0.000486607 0.000111102)
(0.123023 0.000436191 -9.28889e-05)
(0.123023 0.000436191 -9.28889e-05)
(0.124292 0.000345692 -0.00024997)
(0.123498 0.000247503 -0.000381475)
(0.120224 0.000107686 -0.000472815)
(0.112859 -7.40485e-05 -0.000552536)
(0.0966462 -0.000182237 -0.000404096)
(0.0599748 -0.000133883 -0.00026728)
(0.0566199 0.00019984 0.000173899)
(0.0909256 0.000345697 0.000176001)