/*--------------------------------*- C++ -*----------------------------------*\
| =========                 |                                                 |
| \\      /  F ield         | OpenFOAM: The Open Source CFD Toolbox           |
|  \\    /   O peration     | Version:  2212                                  |
|   \\  /    A nd           | Website:  www.openfoam.com                      |
|    \\/     M anipulation  |                                                 |
\*---------------------------------------------------------------------------*/
FoamFile
{
    version     2.0;
    format      ascii;
    arch        "LSB;label=32;scalar=64";
    class       surfaceVectorField;
    location    "1";
    object      Uf;
}
// * * * * * * * * * * * * * * * * * * * * * * * * * * * * * * * * * * * * * //

dimensions      [0 1 -1 0 0 0 0];

internalField   nonuniform List<vector> 
1826
(
(0.0248857 2.86436e-05 2.69323e-05)
(0.0317612 -2.99602e-06 9.047e-05)
(0.0305581 5.38348e-05 1.53827e-05)
(0.0247108 2.89476e-05 2.59945e-05)
(0.0315462 1.7648e-06 8.71494e-05)
(0.0303381 5.27072e-05 1.24763e-05)
(0.0245405 2.82012e-05 2.5234e-05)
(0.0313432 4.55344e-06 8.39599e-05)
(0.0301323 5.01829e-05 1.25837e-05)
(0.0243761 2.69553e-05 2.40586e-05)
(0.0311462 6.03103e-06 7.88077e-05)
(0.029932 4.697e-05 1.38557e-05)
(0.0242223 2.60189e-05 2.17117e-05)
(0.0309566 6.83482e-06 7.25166e-05)
(0.0297382 4.43614e-05 1.44685e-05)
(0.0307909 8.33024e-06 6.44205e-05)
(0.0295685 4.29622e-05 1.08198e-05)
(0.0418123 -4.52369e-05 0.000148063)
(0.0491988 -0.00015985 0.000212577)
(0.0551094 4.42104e-06 0.000150788)
(0.0415537 -3.62002e-05 0.00014386)
(0.0488884 -0.000143312 0.000206617)
(0.0548151 1.14468e-05 0.000141473)
(0.0413052 -2.96631e-05 0.000138467)
(0.0485971 -0.00012769 0.000197757)
(0.0545387 1.48313e-05 0.000137564)
(0.0410689 -2.48454e-05 0.000130425)
(0.0483219 -0.00011225 0.000182584)
(0.0542767 1.582e-05 0.000135472)
(0.0408461 -2.04888e-05 0.000119561)
(0.0480598 -9.89609e-05 0.000165358)
(0.0540211 1.60419e-05 0.000132992)
(0.0478268 -8.75209e-05 0.000149464)
(0.0537914 1.90672e-05 0.000118844)
(0.0580484 -0.000285151 0.000279076)
(0.06289 -0.000390764 0.000295996)
(0.0735775 -0.000256587 0.000330932)
(0.0576966 -0.000260404 0.000267068)
(0.062497 -0.000363394 0.00028787)
(0.0733195 -0.000237324 0.000317708)
(0.057365 -0.000233783 0.000246179)
(0.0621302 -0.00033501 0.000272839)
(0.0730745 -0.0002188 0.000303887)
(0.0570558 -0.000207487 0.000220114)
(0.0617843 -0.000305342 0.000252344)
(0.0728408 -0.000199765 0.000285951)
(0.0567666 -0.000185033 0.000197187)
(0.0614625 -0.000277963 0.000231708)
(0.0726154 -0.000182222 0.000268192)
(0.061168 -0.000254393 0.00021457)
(0.0724067 -0.000163287 0.000244786)
(0.0679832 -0.000472399 0.000337266)
(0.0706547 -0.000539503 0.000367818)
(0.0833571 -0.000484649 0.000400425)
(0.0675714 -0.000441814 0.000323358)
(0.0702244 -0.000507199 0.000350575)
(0.0831053 -0.000458902 0.000386777)
(0.0671844 -0.00041139 0.00030473)
(0.0698225 -0.000475533 0.000329002)
(0.0828666 -0.000431529 0.000368856)
(0.0668214 -0.00038226 0.000284064)
(0.0694406 -0.000445452 0.000304511)
(0.0826363 -0.000404437 0.00035022)
(0.0664811 -0.000354998 0.000264328)
(0.0690849 -0.000416575 0.000279976)
(0.0824198 -0.000378638 0.000332258)
(0.0687544 -0.000388255 0.000258957)
(0.082217 -0.00034882 0.000307081)
(0.0730769 -0.000580692 0.000376512)
(0.0733505 -0.000615 0.000383777)
(0.0879339 -0.000616425 0.000439639)
(0.0726546 -0.000546798 0.000352146)
(0.0729112 -0.000580504 0.000355582)
(0.0876876 -0.000586765 0.000419788)
(0.072257 -0.00051405 0.000327598)
(0.0724985 -0.000546697 0.000328781)
(0.0874528 -0.000556058 0.000398843)
(0.0718808 -0.00048234 0.000303234)
(0.0721091 -0.000513746 0.000304491)
(0.0872286 -0.000525298 0.000377687)
(0.0715256 -0.000451234 0.000279665)
(0.0717423 -0.000480331 0.000280879)
(0.0870137 -0.000494749 0.000355315)
(0.0714045 -0.000447504 0.000257171)
(0.0868139 -0.000460019 0.000328101)
(0.0731881 -0.000613151 0.000366279)
(0.0713549 -0.000604697 0.000361386)
(0.0881017 -0.000661936 0.000424174)
(0.0727573 -0.000578846 0.000335387)
(0.0709138 -0.000571613 0.000330089)
(0.08785 -0.000626857 0.000399303)
(0.0723522 -0.000546059 0.000306655)
(0.0704981 -0.000539243 0.000299268)
(0.0876118 -0.000595126 0.0003754)
(0.0719712 -0.000513084 0.000280116)
(0.0701055 -0.000507805 0.000271035)
(0.0873871 -0.00056578 0.000352939)
(0.0716145 -0.00047915 0.000254173)
(0.0697347 -0.000475123 0.000244546)
(0.0871736 -0.000534785 0.000329793)
(0.0693935 -0.000443394 0.000219403)
(0.0869731 -0.000496301 0.000302692)
(0.0691274 -0.000561753 0.000328367)
(0.0655756 -0.000501384 0.000287033)
(0.0847495 -0.000625139 0.000375312)
(0.0687011 -0.000530211 0.000297643)
(0.0651576 -0.000474441 0.000260338)
(0.0844944 -0.000590998 0.00035004)
(0.0682977 -0.000498072 0.000268868)
(0.0647604 -0.000443509 0.000235503)
(0.0842538 -0.000556995 0.000324003)
(0.0679141 -0.000465407 0.000242786)
(0.0643869 -0.000411437 0.000213965)
(0.0840247 -0.000525563 0.000298892)
(0.06755 -0.000433668 0.000218794)
(0.0640325 -0.000380255 0.000195174)
(0.083805 -0.000494697 0.000275864)
(0.0637076 -0.000352986 0.000176786)
(0.0836004 -0.000455872 0.000251402)
(0.061862 -0.000424978 0.000216118)
(0.0567596 -0.000320091 0.000161609)
(0.0784802 -0.000503202 0.000248259)
(0.0614716 -0.00039735 0.000196223)
(0.0563877 -0.000298764 0.000147054)
(0.0782309 -0.000472249 0.000228844)
(0.0611034 -0.00036618 0.000178539)
(0.0560392 -0.00027418 0.000134509)
(0.077993 -0.000439279 0.000210207)
(0.0607563 -0.000335919 0.000163447)
(0.0557152 -0.000252418 0.000122685)
(0.077767 -0.000412186 0.000193653)
(0.0604278 -0.000308585 0.000150398)
(0.0554042 -0.000234271 0.000113265)
(0.0775499 -0.00039031 0.000179932)
(0.0551233 -0.000215188 0.000105602)
(0.0773497 -0.00035754 0.000165142)
(0.0519293 -0.000215488 9.33391e-05)
(0.0447943 -0.000152528 6.67814e-05)
(0.0688441 -0.000336348 9.75364e-05)
(0.0515965 -0.000198176 8.40054e-05)
(0.0444842 -0.000139977 6.0648e-05)
(0.0685774 -0.000310652 8.85049e-05)
(0.0512868 -0.000182473 7.62618e-05)
(0.0441973 -0.000130365 5.41646e-05)
(0.0683246 -0.000292304 8.05537e-05)
(0.0509945 -0.000170238 7.07474e-05)
(0.0439275 -0.000122142 4.98006e-05)
(0.068086 -0.000278394 7.43741e-05)
(0.050715 -0.000158349 6.6992e-05)
(0.0436651 -0.000114897 4.75869e-05)
(0.06785 -0.000267622 6.99144e-05)
(0.0434306 -0.000103235 4.5849e-05)
(0.067634 -0.000243918 6.56386e-05)
(0.0387853 -4.69227e-05 6.95241e-05)
(0.0305521 -1.60514e-05 5.74451e-05)
(0.0534215 -0.000131026 4.91161e-05)
(0.0385153 -4.21428e-05 6.47682e-05)
(0.0303318 -1.32923e-05 5.56049e-05)
(0.0531225 -0.000118579 4.81944e-05)
(0.0382599 -4.07247e-05 5.98207e-05)
(0.0301249 -1.2566e-05 5.26388e-05)
(0.0528401 -0.000111941 4.65059e-05)
(0.0380148 -4.04879e-05 5.56901e-05)
(0.0299257 -1.37201e-05 4.88071e-05)
(0.0525732 -0.000110906 4.38226e-05)
(0.0377801 -3.70125e-05 5.24201e-05)
(0.0297325 -1.47627e-05 4.49041e-05)
(0.0523116 -0.000110338 4.06322e-05)
(0.0295622 -1.1496e-05 4.17692e-05)
(0.0520754 -9.53923e-05 3.89716e-05)
(0.0248837 -2.76195e-05 3.12066e-05)
(0.0317623 -9.16861e-05 1.2266e-07)
(0.0247077 -2.64849e-05 3.10561e-05)
(0.0315483 -8.8097e-05 4.11282e-06)
(0.0245387 -2.55283e-05 2.97812e-05)
(0.0313449 -8.44523e-05 6.31729e-06)
(0.0243753 -2.42989e-05 2.76454e-05)
(0.0311496 -7.9277e-05 7.10081e-06)
(0.0242216 -2.17868e-05 2.53993e-05)
(0.0309607 -7.24723e-05 6.60198e-06)
(0.030795 -6.35708e-05 6.37784e-06)
(0.0387974 6.52007e-05 4.61648e-05)
(0.0534328 4.28417e-05 0.000129469)
(0.0448114 6.1737e-05 0.000151673)
(0.0385294 6.13324e-05 4.16864e-05)
(0.0531313 4.3237e-05 0.000116951)
(0.044502 5.66743e-05 0.000138709)
(0.0382739 5.70279e-05 4.0937e-05)
(0.0528511 4.22443e-05 0.000112193)
(0.0442178 5.11139e-05 0.00013007)
(0.038028 5.3807e-05 4.05324e-05)
(0.0525846 4.02069e-05 0.000110849)
(0.0439481 4.71614e-05 0.000122927)
(0.0377936 5.21879e-05 3.61507e-05)
(0.0523231 3.86589e-05 0.000109443)
(0.043686 4.6212e-05 0.000115025)
(0.0520876 3.95645e-05 9.40338e-05)
(0.0434526 4.65296e-05 0.000102347)
(0.0715209 1.70935e-05 0.000234177)
(0.0809065 -0.000103696 0.000365188)
(0.0794776 2.61055e-05 0.00039085)
(0.0712048 2.10888e-05 0.000218873)
(0.0806683 -9.43312e-05 0.000344717)
(0.07922 2.71914e-05 0.000363261)
(0.0709047 2.28193e-05 0.000211022)
(0.0804418 -8.7249e-05 0.000329387)
(0.0789748 2.87484e-05 0.000346093)
(0.0706175 2.28468e-05 0.000208583)
(0.0802245 -8.13937e-05 0.000318953)
(0.0787406 2.92326e-05 0.000334472)
(0.0703375 2.45584e-05 0.000197953)
(0.0800072 -7.61622e-05 0.000312341)
(0.0785083 2.95477e-05 0.000326192)
(0.0798027 -6.46357e-05 0.000287817)
(0.0782901 3.08703e-05 0.000296749)
(0.0915366 -0.000249261 0.000435671)
(0.0958763 -0.000380855 0.000464388)
(0.0982046 -0.000223681 0.000593822)
(0.0914041 -0.000235292 0.000417964)
(0.0957807 -0.00036316 0.00044663)
(0.0981694 -0.000214292 0.000564925)
(0.0912704 -0.000222185 0.000403603)
(0.0956829 -0.000345079 0.000430063)
(0.098131 -0.00020381 0.000543494)
(0.0911332 -0.000209528 0.000390752)
(0.0955824 -0.000326646 0.000415053)
(0.098084 -0.000192979 0.000525951)
(0.0909931 -0.000193419 0.000369441)
(0.0954774 -0.00030803 0.000401978)
(0.098034 -0.000183286 0.000509634)
(0.0953739 -0.000279449 0.000369523)
(0.0979799 -0.000169227 0.000475964)
(0.100547 -0.000502626 0.000488873)
(0.102383 -0.000588233 0.000509059)
(0.106594 -0.000479502 0.000592419)
(0.10049 -0.000480855 0.000471173)
(0.102338 -0.000567116 0.000493327)
(0.106642 -0.00046343 0.000571176)
(0.100429 -0.000457163 0.000453209)
(0.102288 -0.000541062 0.000475433)
(0.106681 -0.000444499 0.000549822)
(0.100363 -0.000432685 0.000436526)
(0.102234 -0.00051322 0.000457464)
(0.106716 -0.000424828 0.000532469)
(0.100295 -0.000401579 0.00041022)
(0.102176 -0.000484531 0.00043826)
(0.106744 -0.000404469 0.000515999)
(0.10212 -0.000444211 0.000402242)
(0.106768 -0.000373671 0.000479478)
(0.104274 -0.00065665 0.000514549)
(0.104364 -0.000697066 0.000504848)
(0.110109 -0.000653434 0.00057179)
(0.104236 -0.000631033 0.000498922)
(0.104327 -0.000669537 0.000489994)
(0.110178 -0.000630462 0.000555131)
(0.104194 -0.000600916 0.000480471)
(0.104287 -0.000638768 0.000472568)
(0.11024 -0.000604521 0.000537064)
(0.104148 -0.000568827 0.000459518)
(0.104247 -0.000608339 0.000453882)
(0.110296 -0.000577596 0.000518433)
(0.104102 -0.000530796 0.000430411)
(0.104203 -0.000578554 0.000431726)
(0.110347 -0.000549163 0.000497043)
(0.104156 -0.000534899 0.000398)
(0.110393 -0.000510078 0.000462956)
(0.104418 -0.000709405 0.000481718)
(0.103188 -0.000715552 0.000456501)
(0.110433 -0.000745698 0.000500734)
(0.104382 -0.000676966 0.000464542)
(0.103144 -0.000680705 0.00043956)
(0.110501 -0.000708749 0.000484092)
(0.104342 -0.000646437 0.000445931)
(0.103101 -0.000645646 0.000418979)
(0.110565 -0.000677593 0.000468395)
(0.104301 -0.000618107 0.000426459)
(0.103059 -0.000615291 0.000397384)
(0.110624 -0.000651808 0.000453093)
(0.104257 -0.000581569 0.000401668)
(0.103014 -0.000585708 0.000376916)
(0.110679 -0.000622199 0.000433494)
(0.102966 -0.000535714 0.000348966)
(0.110725 -0.00057668 0.000404089)
(0.101934 -0.000687153 0.000414764)
(0.0994779 -0.00065473 0.000352467)
(0.108419 -0.000761761 0.000393777)
(0.101887 -0.000649695 0.000394493)
(0.0994129 -0.000616323 0.000334531)
(0.108476 -0.000720004 0.00037743)
(0.10184 -0.000614443 0.000371545)
(0.0993515 -0.000579933 0.000313423)
(0.108532 -0.000681997 0.000358903)
(0.101791 -0.000583032 0.00034874)
(0.0992885 -0.00055292 0.000293069)
(0.108586 -0.000650339 0.000339851)
(0.101744 -0.00054118 0.000323491)
(0.0992235 -0.000529839 0.000274662)
(0.108637 -0.00061937 0.000320646)
(0.0991592 -0.000480748 0.00025068)
(0.108683 -0.000569061 0.000296153)
(0.0970858 -0.00058753 0.000274782)
(0.0926117 -0.000543803 0.00019356)
(0.104244 -0.000704133 0.000219419)
(0.0970079 -0.000549808 0.000256426)
(0.0924843 -0.000508 0.000180054)
(0.104275 -0.000664012 0.000205155)
(0.0969311 -0.000520658 0.000238776)
(0.0923573 -0.000481823 0.000167362)
(0.104305 -0.000628667 0.000190279)
(0.0968514 -0.000501306 0.000223048)
(0.0922302 -0.000464261 0.000156003)
(0.10433 -0.000605162 0.000176342)
(0.0967698 -0.000470385 0.000206063)
(0.0921002 -0.000451543 0.000145601)
(0.104352 -0.000587149 0.000164006)
(0.0919752 -0.000411829 0.000132977)
(0.104368 -0.000542512 0.000149818)
(0.0884212 -0.000477082 9.95199e-05)
(0.0794674 -0.000391708 3.45209e-05)
(0.0965705 -0.00062165 1.26739e-06)
(0.0882484 -0.000451019 9.24015e-05)
(0.0792146 -0.00036398 3.41399e-05)
(0.0965146 -0.000587552 -2.15495e-06)
(0.0880756 -0.000434982 8.62846e-05)
(0.0789674 -0.000346124 3.45218e-05)
(0.096454 -0.000564816 -5.45722e-06)
(0.0879022 -0.000422342 8.11488e-05)
(0.0787326 -0.000335111 3.41324e-05)
(0.0963884 -0.000547901 -7.86802e-06)
(0.0877292 -0.000398932 7.60905e-05)
(0.0784977 -0.000327567 3.25193e-05)
(0.0963194 -0.000532971 -8.65087e-06)
(0.0782798 -0.000298969 3.09108e-05)
(0.0962508 -0.000498328 -7.17621e-06)
(0.071514 -0.000235961 2.42162e-05)
(0.0551082 -0.000152805 9.83298e-06)
(0.0809 -0.00036834 -9.68286e-05)
(0.0711979 -0.00021987 2.71785e-05)
(0.054818 -0.00014325 1.54602e-05)
(0.0806641 -0.000348866 -8.91008e-05)
(0.0708976 -0.000211868 2.83126e-05)
(0.0545403 -0.000137538 1.85336e-05)
(0.080436 -0.00033024 -8.15345e-05)
(0.0706092 -0.00021037 2.68807e-05)
(0.0542788 -0.000135839 1.87353e-05)
(0.0802188 -0.000321117 -7.69349e-05)
(0.0703282 -0.000199791 2.58781e-05)
(0.0540233 -0.000133552 1.69365e-05)
(0.0800009 -0.000314962 -7.41486e-05)
(0.0537936 -0.00011879 1.71864e-05)
(0.0797965 -0.00028937 -6.56515e-05)
(0.0418198 -0.000149751 -4.22476e-05)
(0.0492117 -0.000213489 -0.000155094)
(0.0415615 -0.000144812 -3.42254e-05)
(0.0489081 -0.000207362 -0.000139853)
(0.0413149 -0.000138746 -2.85015e-05)
(0.0486162 -0.000198605 -0.00012618)
(0.0410798 -0.00013017 -2.48435e-05)
(0.0483423 -0.000183324 -0.00011209)
(0.0408577 -0.000118352 -2.22909e-05)
(0.0480811 -0.000164966 -0.000100153)
(0.0478484 -0.00014811 -9.09809e-05)
(0.051953 8.90987e-05 0.000213311)
(0.0688613 9.08873e-05 0.000335173)
(0.0567875 0.000157104 0.000318617)
(0.0516237 8.0697e-05 0.000196547)
(0.0685938 8.2853e-05 0.000309153)
(0.0564145 0.000143782 0.000296032)
(0.0513156 7.33313e-05 0.000182788)
(0.0683434 7.6066e-05 0.00029242)
(0.0560708 0.000131219 0.000272111)
(0.0510238 6.85438e-05 0.00017127)
(0.0681052 7.08642e-05 0.00027964)
(0.0557489 0.000119565 0.000251179)
(0.0507456 6.6534e-05 0.000158521)
(0.0678721 6.79561e-05 0.000267851)
(0.0554435 0.000111794 0.00023255)
(0.0676561 6.57882e-05 0.000242297)
(0.0551625 0.000106475 0.000213258)
(0.0884292 9.12818e-05 0.000477335)
(0.096575 -5.25322e-06 0.000621365)
(0.0926183 0.000185138 0.000541564)
(0.0882561 8.53614e-05 0.000451811)
(0.0965179 -7.7102e-06 0.000587046)
(0.092491 0.000171889 0.000505079)
(0.0880839 8.08876e-05 0.000435535)
(0.096458 -1.02313e-05 0.000564244)
(0.0923652 0.000161593 0.000481662)
(0.0879119 7.75838e-05 0.000421925)
(0.0963918 -1.12187e-05 0.000546285)
(0.0922377 0.000153287 0.000466588)
(0.0877402 7.45848e-05 0.000396917)
(0.0963247 -1.00747e-05 0.000530775)
(0.0921078 0.000144546 0.000452253)
(0.096255 -6.56634e-06 0.000495263)
(0.0919823 0.000133163 0.000408996)
(0.105627 -0.000135942 0.000689356)
(0.10925 -0.000265824 0.00067353)
(0.108695 -7.34596e-06 0.000723737)
(0.105695 -0.000133903 0.000659345)
(0.109366 -0.000260241 0.000642492)
(0.108807 -1.0906e-05 0.00068606)
(0.105755 -0.000130906 0.0006392)
(0.109472 -0.00025252 0.000621618)
(0.10891 -1.5272e-05 0.000659738)
(0.105806 -0.000126376 0.000620859)
(0.109567 -0.000243719 0.00060645)
(0.109003 -1.79903e-05 0.000641042)
(0.105851 -0.000119187 0.000591697)
(0.109656 -0.000234064 0.000588941)
(0.109091 -1.89412e-05 0.000621885)
(0.109736 -0.000218764 0.000550502)
(0.109171 -1.7257e-05 0.000579446)
(0.113275 -0.000391525 0.000643397)
(0.114775 -0.000490353 0.000622751)
(0.115987 -0.000258461 0.00064616)
(0.113428 -0.000380729 0.000619933)
(0.114946 -0.000474598 0.000600379)
(0.116181 -0.000254162 0.000618985)
(0.113574 -0.000368275 0.000600845)
(0.115107 -0.000458223 0.000581013)
(0.116365 -0.000248337 0.000595403)
(0.113712 -0.000354699 0.000585044)
(0.115259 -0.000441741 0.00056537)
(0.116542 -0.000241504 0.000578838)
(0.113842 -0.000336151 0.000559195)
(0.115404 -0.000423671 0.000548469)
(0.116711 -0.000232889 0.000561096)
(0.115538 -0.000396484 0.000514698)
(0.116869 -0.000218006 0.000522281)
(0.116515 -0.000576805 0.000579505)
(0.116671 -0.000651932 0.000533276)
(0.119187 -0.000455812 0.00054401)
(0.116693 -0.000555186 0.000561446)
(0.116854 -0.000619113 0.000515491)
(0.119406 -0.000439537 0.000524824)
(0.116862 -0.000534978 0.000544885)
(0.117028 -0.000595723 0.00050136)
(0.119615 -0.000423975 0.000507156)
(0.117023 -0.000514178 0.000527473)
(0.117193 -0.000576886 0.000487986)
(0.119815 -0.000409364 0.000491284)
(0.117176 -0.000487205 0.000502839)
(0.11735 -0.000551082 0.000469087)
(0.120008 -0.000392806 0.00047374)
(0.117497 -0.000512821 0.000439269)
(0.120187 -0.000367819 0.000444475)
(0.117013 -0.000693995 0.00047027)
(0.116171 -0.000741218 0.000405653)
(0.119826 -0.000599236 0.000400053)
(0.117191 -0.000659546 0.000456056)
(0.116349 -0.000696889 0.00038939)
(0.120048 -0.000565903 0.000385442)
(0.117362 -0.000636873 0.000446216)
(0.116521 -0.00066573 0.000378007)
(0.120259 -0.000541846 0.000374774)
(0.117523 -0.000612315 0.00043253)
(0.116684 -0.00064156 0.000367725)
(0.120461 -0.000524243 0.000366)
(0.117678 -0.00057478 0.000409072)
(0.116842 -0.000611328 0.000351447)
(0.120655 -0.000500281 0.000351636)
(0.116991 -0.000566291 0.000327969)
(0.120838 -0.000463827 0.000328604)
(0.115518 -0.000744681 0.000324445)
(0.113705 -0.000758758 0.000226422)
(0.118551 -0.000677869 0.000224414)
(0.115689 -0.000703738 0.000310935)
(0.113867 -0.000716026 0.000214569)
(0.118763 -0.000638867 0.000214242)
(0.115854 -0.000671899 0.000298033)
(0.114024 -0.000682507 0.000202779)
(0.118968 -0.000606856 0.000204719)
(0.116014 -0.00064284 0.000284058)
(0.114173 -0.000657871 0.00019069)
(0.119166 -0.000581519 0.000195515)
(0.116169 -0.000605582 0.000267017)
(0.11432 -0.000634825 0.000178407)
(0.119359 -0.000555858 0.000185117)
(0.114454 -0.000591012 0.000164773)
(0.119541 -0.000515529 0.000171698)
(0.112126 -0.000732554 0.000118152)
(0.108701 -0.000724847 -4.29553e-06)
(0.115398 -0.000692624 -1.27006e-06)
(0.112275 -0.000696655 0.000108557)
(0.108811 -0.000688313 -8.56823e-06)
(0.115587 -0.000657694 -6.35675e-06)
(0.112416 -0.000669279 9.87559e-05)
(0.108916 -0.000660654 -1.35079e-05)
(0.11577 -0.000628125 -1.11915e-05)
(0.112553 -0.000649442 8.95604e-05)
(0.10901 -0.000641757 -1.76865e-05)
(0.115945 -0.000608411 -1.58128e-05)
(0.112684 -0.000619239 8.10794e-05)
(0.1091 -0.000623215 -1.97815e-05)
(0.116115 -0.000590428 -1.89656e-05)
(0.109179 -0.000582443 -1.90005e-05)
(0.116272 -0.000548855 -2.00878e-05)
(0.105628 -0.000691356 -0.000132054)
(0.0982043 -0.000597191 -0.000218567)
(0.10925 -0.000675241 -0.000263021)
(0.105696 -0.000661642 -0.000130741)
(0.0981677 -0.000570142 -0.000210388)
(0.109363 -0.000645031 -0.000257925)
(0.105756 -0.000640742 -0.000128831)
(0.0981288 -0.000544863 -0.000199838)
(0.10947 -0.00062229 -0.000250901)
(0.105807 -0.000622686 -0.000125924)
(0.0980832 -0.000527761 -0.000190713)
(0.109565 -0.000607337 -0.000243999)
(0.105854 -0.000594356 -0.000120243)
(0.0980337 -0.000512007 -0.000183138)
(0.109654 -0.000590456 -0.000235667)
(0.0979804 -0.000477997 -0.000170965)
(0.109734 -0.000552683 -0.000221015)
(0.0915339 -0.000442113 -0.000244293)
(0.0735883 -0.000332682 -0.000250485)
(0.0958762 -0.000468059 -0.000375445)
(0.0913995 -0.000422058 -0.000230576)
(0.0733356 -0.000320091 -0.000232779)
(0.0957783 -0.000451214 -0.000359333)
(0.0912667 -0.000404914 -0.000217823)
(0.0730899 -0.000304894 -0.000215534)
(0.0956811 -0.000429893 -0.000339939)
(0.0911304 -0.000392894 -0.000207467)
(0.0728574 -0.000287657 -0.000198408)
(0.0955814 -0.000416953 -0.000324358)
(0.0909907 -0.000371271 -0.000194016)
(0.0726324 -0.000269357 -0.000182914)
(0.0954763 -0.000404219 -0.000308347)
(0.0724241 -0.000244923 -0.000166812)
(0.0953728 -0.000370148 -0.000282049)
(0.0580765 -0.000277789 -0.000279827)
(0.0629225 -0.000293585 -0.000385164)
(0.057728 -0.000266982 -0.000257402)
(0.0625392 -0.000285091 -0.000359333)
(0.0573985 -0.000247724 -0.000233338)
(0.0621716 -0.000272282 -0.000333289)
(0.0570895 -0.000220949 -0.000208627)
(0.0618276 -0.000252434 -0.000305276)
(0.0568004 -0.00019639 -0.000188069)
(0.0615069 -0.00023 -0.000279364)
(0.0612125 -0.000211815 -0.000258304)
(0.0618932 0.000211674 0.000424041)
(0.0784993 0.00024216 0.000501704)
(0.0656112 0.000281288 0.000501233)
(0.061505 0.000192574 0.000394521)
(0.0782496 0.000223282 0.000468503)
(0.0651921 0.00025576 0.000473211)
(0.0611411 0.000175579 0.000361652)
(0.0780156 0.0002059 0.000436471)
(0.0648013 0.000232837 0.000438928)
(0.0607995 0.000161507 0.000331059)
(0.0777911 0.000191166 0.00041129)
(0.0644325 0.000213308 0.00040397)
(0.0604756 0.000149961 0.000304848)
(0.0775773 0.000178993 0.000389004)
(0.0640863 0.000195352 0.000373383)
(0.0773765 0.000165751 0.000354717)
(0.0637644 0.000177969 0.000348078)
(0.0970905 0.000266799 0.000581464)
(0.104241 0.000214181 0.000700761)
(0.0994803 0.000345723 0.000650489)
(0.0970152 0.000249809 0.000545434)
(0.104274 0.000200223 0.000659318)
(0.0994189 0.000328296 0.000610494)
(0.0969385 0.000235265 0.00052286)
(0.104303 0.000187017 0.000627556)
(0.0993577 0.000309272 0.00057833)
(0.0968565 0.00022211 0.000505848)
(0.104327 0.000175417 0.000608149)
(0.0992942 0.000291521 0.000555809)
(0.0967725 0.000206413 0.000470765)
(0.104345 0.000164562 0.000588602)
(0.0992253 0.000275223 0.000533218)
(0.104362 0.000151405 0.000539894)
(0.0991604 0.000252373 0.000480541)
(0.112118 0.000116534 0.000731401)
(0.115392 -9.9407e-07 0.000691144)
(0.113696 0.00022555 0.000757734)
(0.112264 0.000107509 0.00069601)
(0.115582 -5.789e-06 0.000656353)
(0.113856 0.000214182 0.000715134)
(0.112404 9.85275e-05 0.000669526)
(0.115763 -9.8546e-06 0.000628488)
(0.11401 0.000202314 0.000682681)
(0.112539 9.03708e-05 0.000649494)
(0.115937 -1.34664e-05 0.00060996)
(0.114158 0.000190459 0.000659259)
(0.112669 8.28556e-05 0.000617405)
(0.116106 -1.61855e-05 0.00059085)
(0.114302 0.000179352 0.000636211)
(0.116263 -1.74404e-05 0.000546855)
(0.114435 0.000166612 0.00059064)
(0.119074 -0.000122564 0.000629205)
(0.120506 -0.000223407 0.000575701)
(0.120374 -3.66798e-07 0.000621126)
(0.1193 -0.000122686 0.000601052)
(0.12075 -0.000218219 0.000550379)
(0.120617 -4.27517e-06 0.000590551)
(0.119518 -0.000122089 0.0005793)
(0.120984 -0.00021263 0.000527991)
(0.120848 -7.76273e-06 0.000563752)
(0.119729 -0.000120513 0.000560639)
(0.12121 -0.000207366 0.000511626)
(0.121073 -1.08307e-05 0.000544459)
(0.119934 -0.000116396 0.000530086)
(0.121429 -0.000200479 0.000493585)
(0.12129 -1.36393e-05 0.000523646)
(0.121634 -0.000188575 0.00045859)
(0.121495 -1.51617e-05 0.000484494)
(0.122239 -0.000322457 0.000494891)
(0.1225 -0.000409483 0.000414553)
(0.123486 -0.000200579 0.000452719)
(0.122492 -0.00031147 0.000475286)
(0.12276 -0.000391529 0.00039883)
(0.123759 -0.000193994 0.000432416)
(0.122734 -0.000301285 0.000457924)
(0.123009 -0.000375206 0.000383375)
(0.124018 -0.000188127 0.000413903)
(0.122969 -0.000290846 0.000441692)
(0.123248 -0.00036204 0.00037042)
(0.124268 -0.000183294 0.000398837)
(0.123194 -0.000276073 0.000419186)
(0.123479 -0.00034689 0.000356542)
(0.124508 -0.000177377 0.000382864)
(0.123697 -0.000323222 0.000333564)
(0.124734 -0.000167146 0.000357657)
(0.123025 -0.000478252 0.000319452)
(0.122369 -0.000543823 0.000222771)
(0.124325 -0.000371186 0.000247588)
(0.123281 -0.000454858 0.000307977)
(0.122628 -0.000515551 0.000213612)
(0.124603 -0.000352285 0.000237408)
(0.123526 -0.000435009 0.000297762)
(0.122875 -0.000489516 0.000205211)
(0.124868 -0.000336052 0.000228434)
(0.123764 -0.000416862 0.000287561)
(0.123113 -0.000469186 0.000198254)
(0.125122 -0.000323367 0.000221038)
(0.123992 -0.000392945 0.00027296)
(0.123344 -0.000448535 0.000189616)
(0.125366 -0.000309005 0.00021204)
(0.123563 -0.000416154 0.000176582)
(0.125597 -0.000287332 0.000198178)
(0.121978 -0.000581636 0.000116455)
(0.12038 -0.000621533 -3.89643e-06)
(0.123356 -0.000500007 2.29928e-05)
(0.122227 -0.000551007 0.000109983)
(0.120622 -0.000590463 -7.8711e-06)
(0.123626 -0.000473344 2.04609e-05)
(0.122467 -0.000525066 0.00010401)
(0.120855 -0.00056248 -1.14492e-05)
(0.123884 -0.000449499 1.83328e-05)
(0.122701 -0.00050254 9.81702e-05)
(0.12108 -0.000542469 -1.4557e-05)
(0.124133 -0.000430867 1.65503e-05)
(0.122927 -0.000473312 9.1268e-05)
(0.121298 -0.00052201 -1.68475e-05)
(0.124373 -0.000411877 1.47133e-05)
(0.121505 -0.000483963 -1.71721e-05)
(0.124601 -0.000382819 1.30205e-05)
(0.119076 -0.000630575 -0.000125318)
(0.115986 -0.000647957 -0.000259278)
(0.120503 -0.000577199 -0.000227003)
(0.119302 -0.000601526 -0.000125692)
(0.116179 -0.000620327 -0.000255177)
(0.120747 -0.000551356 -0.000221837)
(0.11952 -0.000578719 -0.000125563)
(0.116363 -0.000595322 -0.00024961)
(0.12098 -0.00052817 -0.000216353)
(0.119731 -0.00055999 -0.00012427)
(0.116539 -0.000579259 -0.000244074)
(0.121205 -0.000511801 -0.000211153)
(0.119936 -0.000530417 -0.000119777)
(0.116708 -0.000562107 -0.000235986)
(0.121423 -0.000494384 -0.000203748)
(0.116866 -0.000523662 -0.000220788)
(0.121629 -0.000460395 -0.000190714)
(0.11327 -0.000645097 -0.000390644)
(0.106594 -0.000594294 -0.000476567)
(0.114767 -0.000623945 -0.000489835)
(0.113424 -0.000620688 -0.000380095)
(0.106638 -0.0005731 -0.000461224)
(0.114935 -0.000601167 -0.000474279)
(0.113568 -0.000601707 -0.000368722)
(0.10668 -0.000549206 -0.000441673)
(0.115096 -0.000581092 -0.000458729)
(0.113705 -0.00058694 -0.000356538)
(0.106714 -0.000534452 -0.000424813)
(0.115247 -0.000566749 -0.000443359)
(0.113835 -0.000561135 -0.000338592)
(0.106741 -0.000518217 -0.000406217)
(0.115391 -0.00055053 -0.000425735)
(0.106764 -0.000480586 -0.000376489)
(0.115525 -0.000516761 -0.00039848)
(0.100548 -0.000490749 -0.000498282)
(0.0833819 -0.000399572 -0.000479494)
(0.102383 -0.000509309 -0.000583573)
(0.10049 -0.000471633 -0.000476505)
(0.083133 -0.000386125 -0.000454983)
(0.102336 -0.000494314 -0.000563321)
(0.10043 -0.000453775 -0.00045409)
(0.0828947 -0.000367705 -0.000428324)
(0.102287 -0.000474285 -0.000537255)
(0.100364 -0.000438884 -0.000432746)
(0.082666 -0.00035041 -0.000403662)
(0.102234 -0.000457919 -0.000511703)
(0.100295 -0.000411704 -0.000403803)
(0.0824502 -0.000331562 -0.000379871)
(0.102175 -0.000439197 -0.000485661)
(0.0822471 -0.000305443 -0.000352285)
(0.102118 -0.000402596 -0.000447247)
(0.0680323 -0.000334298 -0.000467792)
(0.0707066 -0.000364115 -0.000534619)
(0.0676227 -0.000321021 -0.000438706)
(0.0702826 -0.000347637 -0.000503661)
(0.0672383 -0.000302851 -0.000409872)
(0.0698811 -0.000327586 -0.000473222)
(0.066877 -0.000281294 -0.000382416)
(0.0695017 -0.000302292 -0.000444801)
(0.0665374 -0.000260563 -0.000357191)
(0.0691462 -0.000276824 -0.000417566)
(0.0688156 -0.000255859 -0.000391352)
(0.0691667 0.000323539 0.000560334)
(0.0847704 0.000370094 0.000623512)
(0.071398 0.000355884 0.000601494)
(0.068745 0.000294898 0.00052646)
(0.0845182 0.000346098 0.000588579)
(0.0709607 0.00032754 0.000567591)
(0.0683471 0.000268449 0.000490577)
(0.0842806 0.000321583 0.000552934)
(0.0705508 0.000300088 0.000532647)
(0.06797 0.000244402 0.000455732)
(0.0840543 0.00029842 0.000519823)
(0.0701637 0.000274763 0.000498449)
(0.0676123 0.000221511 0.000424717)
(0.0838365 0.000277586 0.000490359)
(0.0697989 0.000250574 0.000464717)
(0.0836351 0.000254127 0.000452464)
(0.0694633 0.000225638 0.000434597)
(0.101938 0.000409836 0.000683215)
(0.108415 0.000390678 0.000758838)
(0.103189 0.000452767 0.00071126)
(0.101892 0.000390692 0.000646764)
(0.108473 0.000374941 0.000717285)
(0.103147 0.000436753 0.000676393)
(0.101844 0.000369435 0.000613405)
(0.108527 0.000357217 0.000681107)
(0.103104 0.000417186 0.000643369)
(0.101794 0.000348927 0.000584505)
(0.108579 0.000339183 0.000651293)
(0.103062 0.00039742 0.000614539)
(0.101744 0.000325619 0.000543886)
(0.108628 0.000321487 0.000622912)
(0.103014 0.000378391 0.000586462)
(0.108671 0.000297945 0.000571731)
(0.102965 0.000351834 0.000535983)
(0.115506 0.000324553 0.000744156)
(0.118541 0.000226521 0.000677975)
(0.116159 0.000405896 0.000740115)
(0.115674 0.000311039 0.00070377)
(0.118752 0.000216549 0.000639483)
(0.116335 0.00039008 0.000697126)
(0.115837 0.000297831 0.000673024)
(0.118955 0.000206811 0.000608439)
(0.116504 0.000378661 0.000667646)
(0.115995 0.00028389 0.000645661)
(0.119151 0.000197134 0.000584369)
(0.116665 0.00036697 0.000643872)
(0.116148 0.000267392 0.000609012)
(0.119342 0.000186312 0.000559867)
(0.116821 0.000349131 0.000614214)
(0.119521 0.000172571 0.000518591)
(0.116967 0.000326361 0.00056936)
(0.121969 0.000120794 0.000582779)
(0.123351 2.81767e-05 0.000500445)
(0.122358 0.000227062 0.000545682)
(0.122217 0.000114223 0.000552928)
(0.12362 2.55355e-05 0.000474157)
(0.122615 0.000217719 0.000517867)
(0.122456 0.000107755 0.000527935)
(0.123877 2.28744e-05 0.00045091)
(0.122861 0.000208812 0.000492722)
(0.122688 0.000100847 0.000505918)
(0.124126 1.99991e-05 0.000432806)
(0.123098 0.000200267 0.000473304)
(0.122912 9.25783e-05 0.000476226)
(0.124365 1.63921e-05 0.000413934)
(0.123327 0.000188562 0.000452483)
(0.124591 1.29059e-05 0.000384154)
(0.123544 0.00017367 0.000418977)
(0.125052 -6.96175e-05 0.000389662)
(0.125353 -0.000159894 0.000283733)
(0.125349 5.12898e-05 0.000326435)
(0.125331 -6.81133e-05 0.00037032)
(0.125644 -0.000152762 0.000269537)
(0.125639 4.78356e-05 0.000309759)
(0.125599 -6.72565e-05 0.000353777)
(0.12592 -0.000146737 0.000256619)
(0.125915 4.42743e-05 0.000294822)
(0.125856 -6.68012e-05 0.000338779)
(0.126185 -0.000142271 0.000246137)
(0.126181 4.02984e-05 0.000282775)
(0.126102 -6.54488e-05 0.000320029)