/*--------------------------------*- C++ -*----------------------------------*\
| =========                 |                                                 |
| \\      /  F ield         | OpenFOAM: The Open Source CFD Toolbox           |
|  \\    /   O peration     | Version:  2212                                  |
|   \\  /    A nd           | Website:  www.openfoam.com                      |
|    \\/     M anipulation  |                                                 |
\*---------------------------------------------------------------------------*/
FoamFile
{
    version     2.0;
    format      ascii;
    arch        "LSB;label=32;scalar=64";
    class       surfaceScalarField;
    location    "1.55";
    object      phi;
}
// * * * * * * * * * * * * * * * * * * * * * * * * * * * * * * * * * * * * * //

dimensions      [0 3 -1 0 0 0 0];

oriented        oriented;

internalField   nonuniform List<scalar> 
1755
(
5.73948e-08
-3.40028e-08
3.46525e-08
5.67361e-08
-3.40111e-08
3.46698e-08
5.60628e-08
-3.40251e-08
3.46984e-08
5.53864e-08
-3.40434e-08
3.47199e-08
-3.40601e-08
3.47319e-08
1.86837e-07
-6.39554e-08
3.19501e-08
1.84865e-07
-6.40353e-08
3.19969e-08
1.82911e-07
-6.41424e-08
3.20705e-08
1.80961e-07
-6.42249e-08
3.21315e-08
-6.42374e-08
3.21512e-08
3.65752e-07
-8.87777e-08
2.86331e-08
3.62007e-07
-8.89224e-08
2.86322e-08
3.58345e-07
-8.90949e-08
2.86148e-08
3.54735e-07
-8.92149e-08
2.86005e-08
-8.9281e-08
2.86489e-08
5.21028e-07
-1.06967e-07
2.37265e-08
5.1567e-07
-1.07069e-07
2.3505e-08
5.10483e-07
-1.07196e-07
2.32882e-08
5.05382e-07
-1.07284e-07
2.31695e-08
5.00304e-07
-1.07344e-07
2.31409e-08
-1.07415e-07
2.30413e-08
6.25383e-07
-1.17096e-07
1.67762e-08
6.18824e-07
-1.17202e-07
1.66915e-08
6.12325e-07
-1.17301e-07
1.66046e-08
6.05858e-07
-1.17378e-07
1.65602e-08
5.99457e-07
-1.17433e-07
1.64897e-08
-1.17488e-07
1.62359e-08
6.53668e-07
-1.18303e-07
7.67065e-09
6.47204e-07
-1.18359e-07
7.62089e-09
6.4071e-07
-1.18376e-07
7.56906e-09
6.34182e-07
-1.18368e-07
7.51828e-09
6.27654e-07
-1.18367e-07
7.46191e-09
6.21308e-07
-1.1839e-07
7.24887e-09
-1.18406e-07
6.01941e-07
-1.09801e-07
-2.83312e-09
5.96232e-07
-1.09784e-07
-2.86595e-09
5.90542e-07
-1.09708e-07
-2.97878e-09
5.84938e-07
-1.09606e-07
-3.15843e-09
5.79388e-07
-1.09508e-07
-3.30786e-09
5.73914e-07
-1.09428e-07
-3.48734e-09
-1.0941e-07
4.86672e-07
-9.18247e-08
-1.35602e-08
4.82206e-07
-9.17639e-08
-1.35538e-08
4.77707e-07
-9.16727e-08
-1.35371e-08
4.73154e-07
-9.15833e-08
-1.34696e-08
4.68517e-07
-9.15259e-08
-1.33453e-08
4.63865e-07
-9.14793e-08
-1.32965e-08
-9.14499e-08
-1.33205e-08
3.33265e-07
-6.63279e-08
-2.21649e-08
3.29919e-07
-6.62905e-08
-2.21282e-08
3.26584e-07
-6.62446e-08
-2.20927e-08
3.23247e-07
-6.6203e-08
-2.20433e-08
3.19861e-07
-6.61749e-08
-2.19653e-08
3.16491e-07
-6.61415e-08
-2.19673e-08
-2.20251e-08
1.74995e-07
-3.46467e-08
-2.98656e-08
1.73166e-07
-3.4665e-08
-2.97968e-08
1.71315e-07
-3.4694e-08
-2.96999e-08
1.69458e-07
-3.47154e-08
-2.96304e-08
1.67576e-07
-3.47348e-08
-2.95579e-08
-3.4735e-08
-2.95606e-08
5.74031e-08
-3.39964e-08
5.67447e-08
-3.40066e-08
5.60752e-08
-3.40245e-08
5.54095e-08
-3.40497e-08
5.47471e-08
-3.40724e-08
-3.41054e-08
1.7502e-07
-2.98717e-08
6.63345e-08
1.73194e-07
-2.9801e-08
6.62964e-08
1.71336e-07
-2.96981e-08
6.6255e-08
1.69437e-07
-2.96101e-08
6.62283e-08
1.67493e-07
-2.95713e-08
6.62479e-08
6.61777e-08
4.78854e-07
-5.52546e-08
6.08079e-08
4.75336e-07
-5.51521e-08
6.08663e-08
4.71788e-07
-5.50241e-08
6.09443e-08
4.68191e-07
-5.49084e-08
6.10275e-08
-5.48351e-08
6.10863e-08
7.96698e-07
-7.71506e-08
5.30306e-08
7.94063e-07
-7.70149e-08
5.31298e-08
7.91299e-07
-7.68858e-08
5.32412e-08
7.88433e-07
-7.67919e-08
5.335e-08
7.85452e-07
-7.66937e-08
5.34883e-08
-7.67217e-08
5.34531e-08
1.02544e-06
-9.31727e-08
4.14194e-08
1.02362e-06
-9.31182e-08
4.143e-08
1.02164e-06
-9.30641e-08
4.14516e-08
1.01953e-06
-9.301e-08
4.14999e-08
1.01735e-06
-9.29359e-08
4.15623e-08
-9.29287e-08
4.14184e-08
1.16033e-06
-1.0192e-07
2.69272e-08
1.1589e-06
-1.01913e-07
2.691e-08
1.15745e-06
-1.01903e-07
2.68972e-08
1.15598e-06
-1.01888e-07
2.69031e-08
1.15455e-06
-1.01876e-07
2.68639e-08
-1.01897e-07
2.66294e-08
1.19709e-06
-1.03091e-07
9.88339e-09
1.19607e-06
-1.03135e-07
9.85872e-09
1.19508e-06
-1.03174e-07
9.82994e-09
1.19412e-06
-1.03214e-07
9.80879e-09
1.19323e-06
-1.03269e-07
9.74439e-09
-1.03309e-07
9.49058e-09
1.13982e-06
-9.66908e-08
-8.69063e-09
1.1393e-06
-9.67968e-08
-8.68494e-09
1.13875e-06
-9.69231e-08
-8.67989e-09
1.1381e-06
-9.70752e-08
-8.64631e-09
1.13738e-06
-9.72432e-08
-8.61546e-09
-9.73216e-08
-8.79787e-09
9.97296e-07
-8.28136e-08
-2.65125e-08
9.96261e-07
-8.29165e-08
-2.64e-08
9.95088e-07
-8.30127e-08
-2.62742e-08
9.93764e-07
-8.31157e-08
-2.61048e-08
9.9231e-07
-8.32481e-08
-2.58871e-08
9.90827e-07
-8.32872e-08
-2.58477e-08
-8.31992e-08
7.71834e-07
-6.0798e-08
-4.1665e-08
7.6916e-07
-6.08613e-08
-4.15098e-08
7.66343e-07
-6.09379e-08
-4.13505e-08
7.63375e-07
-6.10062e-08
-4.11847e-08
7.60262e-07
-6.11085e-08
-4.0991e-08
7.57087e-07
-6.11254e-08
-4.09542e-08
-6.10131e-08
4.78831e-07
-3.19455e-08
-5.52328e-08
4.75298e-07
-3.19928e-08
-5.51324e-08
4.71737e-07
-3.20643e-08
-5.5013e-08
4.6814e-07
-3.21116e-08
-5.49277e-08
4.64449e-07
-3.2162e-08
-5.48133e-08
4.60708e-07
-3.21514e-08
-5.47937e-08
-5.48821e-08
1.86903e-07
-6.3945e-08
1.84931e-07
-6.40278e-08
1.82985e-07
-6.41431e-08
1.81072e-07
-6.42478e-08
1.79165e-07
-6.43272e-08
-6.4399e-08
3.33424e-07
-2.21731e-08
9.1817e-08
3.30106e-07
-2.2137e-08
9.17516e-08
3.26791e-07
-2.20937e-08
9.16639e-08
3.23456e-07
-2.20248e-08
9.1588e-08
3.20044e-07
-2.18906e-08
9.155e-08
3.16651e-07
-2.19584e-08
9.15296e-08
9.14287e-08
7.71967e-07
-4.16868e-08
8.28213e-08
7.69313e-07
-4.15331e-08
8.29163e-08
7.66525e-07
-4.13693e-08
8.30072e-08
7.63628e-07
-4.11978e-08
8.30982e-08
7.60612e-07
-4.09994e-08
8.32107e-08
-4.10602e-08
8.31527e-08
1.13158e-06
-5.9771e-08
7.01509e-08
1.13244e-06
-5.95739e-08
7.03115e-08
1.13318e-06
-5.93592e-08
7.04941e-08
1.1338e-06
-5.91458e-08
7.06712e-08
1.13441e-06
-5.89464e-08
7.08293e-08
-5.8975e-08
7.07867e-08
1.37526e-06
-7.35267e-08
5.2684e-08
1.37775e-06
-7.34085e-08
5.27718e-08
1.38022e-06
-7.32637e-08
5.28846e-08
1.38266e-06
-7.31002e-08
5.30206e-08
1.38509e-06
-7.29396e-08
5.31205e-08
-7.29067e-08
5.30233e-08
1.51723e-06
-8.15865e-08
3.17789e-08
1.52046e-06
-8.15279e-08
3.17986e-08
1.52371e-06
-8.14623e-08
3.18393e-08
1.52703e-06
-8.13962e-08
3.18796e-08
1.53042e-06
-8.13384e-08
3.18766e-08
-8.13148e-08
3.17326e-08
1.55955e-06
-8.36424e-08
8.33805e-09
1.56321e-06
-8.36678e-08
8.33892e-09
1.56694e-06
-8.37168e-08
8.35723e-09
1.57077e-06
-8.37846e-08
8.36604e-09
1.57471e-06
-8.38534e-08
8.32211e-09
-8.38638e-08
8.1381e-09
1.50681e-06
-7.99903e-08
-1.6087e-08
1.51064e-06
-8.0111e-08
-1.60722e-08
1.51453e-06
-8.02616e-08
-1.60185e-08
1.51848e-06
-8.04348e-08
-1.59541e-08
1.52257e-06
-8.0607e-08
-1.59466e-08
-8.06555e-08
1.36477e-06
-7.01526e-08
-3.94498e-08
1.36791e-06
-7.03226e-08
-3.93254e-08
1.37104e-06
-7.05097e-08
-3.91628e-08
1.37417e-06
-7.06934e-08
-3.89723e-08
1.37735e-06
-7.08777e-08
-3.87989e-08
-7.08675e-08
-3.88409e-08
1.13152e-06
-5.30385e-08
-5.97457e-08
1.13238e-06
-5.31454e-08
-5.95508e-08
1.13311e-06
-5.32603e-08
-5.93347e-08
1.13372e-06
-5.3366e-08
-5.91232e-08
1.13429e-06
-5.35237e-08
-5.89088e-08
-5.35298e-08
-5.88937e-08
7.96649e-07
-2.86339e-08
-7.71304e-08
7.94005e-07
-2.86349e-08
-7.69983e-08
7.91217e-07
-2.86148e-08
-7.68711e-08
7.88286e-07
-2.85801e-08
-7.67826e-08
7.85213e-07
-2.85826e-08
-7.66813e-08
7.82109e-07
-2.85391e-08
-7.66804e-08
3.6592e-07
-8.87689e-08
3.6217e-07
-8.89134e-08
3.58505e-07
-8.90926e-08
3.54907e-07
-8.92298e-08
3.51332e-07
-8.93344e-08
-8.9418e-08
4.86958e-07
-1.35769e-08
1.09762e-07
4.82544e-07
-1.35772e-08
1.09743e-07
4.78096e-07
-1.35624e-08
1.09674e-07
4.7359e-07
-1.34843e-08
1.09578e-07
4.69e-07
-1.33421e-08
1.09482e-07
4.64383e-07
-1.32801e-08
1.09427e-07
-1.33516e-08
9.9746e-07
-2.65208e-08
9.66826e-08
9.96413e-07
-2.64106e-08
9.67965e-08
9.95218e-07
-2.6279e-08
9.69189e-08
9.93876e-07
-2.61044e-08
9.70607e-08
9.92436e-07
-2.58981e-08
9.72061e-08
9.90969e-07
-2.59156e-08
9.72559e-08
1.36462e-06
-3.94352e-08
8.00212e-08
1.36772e-06
-3.93304e-08
8.01318e-08
1.37082e-06
-3.91709e-08
8.0279e-08
1.37393e-06
-3.89822e-08
8.0442e-08
1.3771e-06
-3.88331e-08
8.05898e-08
-3.89268e-08
1.61131e-06
-4.99832e-08
5.8391e-08
1.61621e-06
-4.99096e-08
5.84593e-08
1.62113e-06
-4.97854e-08
5.85743e-08
1.6261e-06
-4.96361e-08
5.8707e-08
1.63114e-06
-4.95426e-08
5.87928e-08
-4.95994e-08
1.75648e-06
-5.68366e-08
3.30384e-08
1.76211e-06
-5.67991e-08
3.30663e-08
1.76778e-06
-5.67482e-08
3.31289e-08
1.77352e-06
-5.66914e-08
3.3198e-08
1.77928e-06
-5.66529e-08
3.3218e-08
-5.66603e-08
1.80287e-06
-5.96169e-08
5.25045e-09
1.80878e-06
-5.96336e-08
5.25797e-09
1.81476e-06
-5.96721e-08
5.30146e-09
1.82081e-06
-5.97118e-08
5.34143e-09
1.82688e-06
-5.97175e-08
5.31504e-09
1.75326e-06
-5.83629e-08
-2.30859e-08
1.75906e-06
-5.84369e-08
-2.30682e-08
1.76493e-06
-5.85553e-08
-2.3e-08
1.77088e-06
-5.86812e-08
-2.29345e-08
-5.87516e-08
-2.2949e-08
1.61133e-06
-5.26866e-08
-4.99853e-08
1.61624e-06
-5.2771e-08
-4.99042e-08
1.62118e-06
-5.28872e-08
-4.97681e-08
1.62615e-06
-5.3014e-08
-4.96162e-08
1.63121e-06
-5.30967e-08
-4.95131e-08
-5.29749e-08
1.37515e-06
-4.1428e-08
-7.35054e-08
1.37765e-06
-4.14406e-08
-7.33875e-08
1.38014e-06
-4.14681e-08
-7.32401e-08
1.38259e-06
-4.15157e-08
-7.30716e-08
1.38506e-06
-4.1566e-08
-7.2915e-08
-4.13893e-08
1.02539e-06
-2.37387e-08
-9.31542e-08
1.02357e-06
-2.3525e-08
-9.30987e-08
1.02158e-06
-2.33056e-08
-9.30425e-08
1.01945e-06
-2.31754e-08
-9.29871e-08
1.01725e-06
-2.31192e-08
-9.29289e-08
-2.29963e-08
5.21301e-07
-1.06954e-07
5.15912e-07
-1.0705e-07
5.10689e-07
-1.07175e-07
5.05556e-07
-1.07272e-07
5.00458e-07
-1.07356e-07
-1.07395e-07
6.02376e-07
-2.87944e-09
1.18255e-07
5.96718e-07
-2.91667e-09
1.18317e-07
5.91054e-07
-3.01305e-09
1.18351e-07
5.85468e-07
-3.18001e-09
1.18344e-07
5.7996e-07
-3.34274e-09
1.18333e-07
-3.49686e-09
1.18366e-07
1.13981e-06
-8.71626e-09
1.03103e-07
1.13925e-06
-8.69678e-09
1.03142e-07
1.13866e-06
-8.68121e-09
1.03175e-07
1.13797e-06
-8.64203e-09
1.03208e-07
1.13723e-06
-8.66358e-09
1.03267e-07
1.03312e-07
1.50664e-06
-1.61018e-08
8.36886e-08
1.51044e-06
-1.60764e-08
8.37115e-08
1.5143e-06
-1.60142e-08
8.37496e-08
1.51826e-06
-1.5963e-08
8.38056e-08
-1.60396e-08
1.75314e-06
-2.30924e-08
5.96541e-08
1.75894e-06
-2.30765e-08
5.96663e-08
1.7648e-06
-2.30093e-08
5.97036e-08
1.77076e-06
-2.29616e-08
5.97527e-08
-2.30118e-08
1.89941e-06
-2.84289e-08
3.18132e-08
1.90601e-06
-2.84213e-08
3.18117e-08
1.91269e-06
-2.83934e-08
3.18331e-08
1.91943e-06
-2.83742e-08
3.18658e-08
-2.83886e-08
1.94779e-06
-3.17833e-08
1.78813e-09
1.95462e-06
-3.17896e-08
1.789e-09
1.96154e-06
-3.18116e-08
1.80755e-09
1.96851e-06
-3.18268e-08
1.82467e-09
-3.18111e-08
1.81169e-09
1.89945e-06
-3.30189e-08
-2.84243e-08
1.90605e-06
-3.30454e-08
-2.84163e-08
1.91274e-06
-3.31106e-08
-2.83884e-08
1.9195e-06
-3.31589e-08
-2.83618e-08
-3.31137e-08
-2.83632e-08
1.75636e-06
-3.17691e-08
-5.68355e-08
1.762e-06
-3.17926e-08
-5.67965e-08
1.7677e-06
-3.18373e-08
-5.67392e-08
1.77346e-06
-3.1858e-08
-5.66798e-08
-3.17554e-08
-5.66469e-08
1.51708e-06
-2.69135e-08
-8.15775e-08
1.52033e-06
-2.69186e-08
-8.15173e-08
1.52363e-06
-2.69235e-08
-8.14519e-08
1.527e-06
-2.69195e-08
-8.13762e-08
-2.67628e-08
-8.13177e-08
1.16034e-06
-1.67848e-08
-1.01904e-07
1.15892e-06
-1.67118e-08
-1.01891e-07
1.15747e-06
-1.66328e-08
-1.01877e-07
1.15601e-06
-1.659e-08
-1.01853e-07
-1.64725e-08
-1.01841e-07
6.25637e-07
-1.17054e-07
6.19036e-07
-1.1716e-07
6.12484e-07
-1.17256e-07
6.05961e-07
-1.17339e-07
5.99535e-07
-1.17402e-07
6.54094e-07
7.6264e-09
1.17097e-07
6.47623e-07
7.5742e-09
1.17214e-07
6.41134e-07
7.52417e-09
1.17316e-07
6.34639e-07
7.45411e-09
1.17385e-07
6.28173e-07
7.39608e-09
1.17403e-07
7.24511e-09
1.19713e-06
9.82977e-09
1.01948e-07
1.19608e-06
9.81955e-09
1.01948e-07
1.19501e-06
9.82137e-09
1.01946e-07
1.19398e-06
9.74517e-09
1.01951e-07
1.19303e-06
1.01968e-07
1.55937e-06
8.30178e-09
8.16315e-08
1.56303e-06
8.31311e-09
8.15657e-08
1.56677e-06
8.33001e-09
8.1498e-08
8.24379e-09
8.14338e-08
1.80264e-06
5.22189e-09
5.68707e-08
1.80858e-06
5.23199e-09
5.68068e-08
1.8146e-06
5.27209e-09
5.67412e-08
5.22921e-09
5.66882e-08
1.94765e-06
1.7653e-09
2.84505e-08
1.95451e-06
1.77277e-09
2.84074e-08
1.96146e-06
1.7882e-09
2.83695e-08
1.76397e-09
2.83445e-08
1.9962e-06
-1.7773e-09
-1.76149e-09
2.00331e-06
-1.77572e-09
-1.77065e-09
2.01049e-06
-1.79085e-09
-1.79407e-09
2.01769e-06
-1.80375e-09
-1.80692e-09
-1.78546e-09
-1.77948e-09
1.94774e-06
-5.23797e-09
-3.1781e-08
1.95458e-06
-5.24151e-09
-3.17896e-08
1.9615e-06
-5.28538e-09
-3.18146e-08
1.96847e-06
-5.30339e-09
-3.18315e-08
-5.21873e-09
-3.18124e-08
1.80274e-06
-8.32562e-09
-5.96152e-08
1.80866e-06
-8.33171e-09
-5.96319e-08
1.81467e-06
-8.35816e-09
-5.96686e-08
1.82073e-06
-8.34302e-09
-5.97026e-08
-8.19548e-09
-5.96954e-08
1.55942e-06
-9.85973e-09
-8.36437e-08
1.5631e-06
-9.85923e-09
-8.36659e-08
1.56687e-06
-9.87445e-09
-8.3705e-08
1.57074e-06
-9.83753e-09
-8.37569e-08
-9.63091e-09
-8.37837e-08
1.19711e-06
-7.66499e-09
-1.03073e-07
1.1961e-06
-7.62693e-09
-1.03113e-07
1.1951e-06
-7.59757e-09
-1.03151e-07
1.19414e-06
-7.55463e-09
-1.03181e-07
-7.45934e-09
-1.03185e-07
6.53901e-07
-1.18238e-07
6.47415e-07
-1.18301e-07
6.40898e-07
-1.18337e-07
6.34349e-07
-1.18345e-07
-1.18358e-07
6.32495e-07
1.68283e-08
1.06955e-07
6.25828e-07
1.67569e-08
1.07007e-07
6.1925e-07
1.66563e-08
1.07136e-07
6.12729e-07
1.65821e-08
1.07256e-07
6.06249e-07
1.65372e-08
1.07328e-07
1.64291e-08
1.07369e-07
1.16178e-06
2.69316e-08
9.32386e-08
1.16037e-06
2.69046e-08
9.32063e-08
1.15893e-06
2.68903e-08
9.31585e-08
1.15743e-06
2.69045e-08
9.31192e-08
1.15596e-06
2.68835e-08
9.30815e-08
2.66941e-08
9.30824e-08
1.51387e-06
3.17407e-08
7.3664e-08
1.51709e-06
3.17543e-08
7.35594e-08
1.52034e-06
3.17951e-08
7.342e-08
1.52364e-06
3.18407e-08
7.32627e-08
1.527e-06
3.18442e-08
7.31039e-08
3.17128e-08
7.30469e-08
1.75067e-06
3.29969e-08
5.00766e-08
1.75626e-06
3.30109e-08
5.00161e-08
1.7619e-06
3.30683e-08
4.98927e-08
1.76761e-06
3.31368e-08
4.97426e-08
1.77337e-06
3.3164e-08
4.96096e-08
3.30812e-08
4.9611e-08
1.89272e-06
2.31128e-08
1.89929e-06
3.17776e-08
2.31068e-08
1.9059e-06
3.18199e-08
2.30497e-08
1.91257e-06
3.18527e-08
2.29785e-08
1.9193e-06
3.18611e-08
2.29251e-08
3.18285e-08
2.29784e-08
1.94766e-06
2.84213e-08
-5.21778e-09
1.95451e-06
2.84274e-08
-5.22524e-09
1.96143e-06
2.8413e-08
-5.27646e-09
1.96839e-06
2.83976e-08
-5.30228e-09
2.84111e-08
-5.22342e-09
1.89941e-06
2.30872e-08
-3.30076e-08
1.90601e-06
2.30754e-08
-3.30351e-08
1.9127e-06
2.30153e-08
-3.31023e-08
1.91944e-06
2.29694e-08
-3.31495e-08
2.30284e-08
-3.30951e-08
1.75322e-06
1.60839e-08
-5.83523e-08
1.75903e-06
1.6067e-08
-5.84279e-08
1.76491e-06
1.6014e-08
-5.85503e-08
1.77088e-06
1.59652e-08
-5.86638e-08
1.60632e-08
-5.86661e-08
1.50673e-06
8.68356e-09
-7.99796e-08
1.51056e-06
8.66959e-09
-8.01023e-08
1.51448e-06
8.64269e-09
-8.02513e-08
1.51851e-06
8.60523e-09
-8.04225e-08
8.73783e-09
-8.05069e-08
1.13977e-06
2.84416e-09
-9.66698e-08
1.13924e-06
2.8711e-09
-9.67757e-08
1.13868e-06
2.95537e-09
-9.69096e-08
1.13807e-06
3.10227e-09
-9.70636e-08
3.30613e-09
-9.71291e-08
6.0219e-07
-1.09756e-07
5.96498e-07
-1.09737e-07
5.90789e-07
-1.09672e-07
5.85131e-07
-1.09584e-07
-1.09508e-07
5.26901e-07
2.38167e-08
8.87799e-08
5.21362e-07
2.36942e-08
8.88522e-08
5.16006e-07
2.34876e-08
8.90038e-08
5.1081e-07
2.32966e-08
8.91549e-08
5.05685e-07
2.31861e-08
8.92672e-08
2.30863e-08
8.93305e-08
1.02718e-06
4.14202e-08
7.72638e-08
1.0255e-06
4.14029e-08
7.71795e-08
1.02365e-06
4.14365e-08
7.70557e-08
1.02164e-06
4.14813e-08
7.69476e-08
1.01955e-06
4.15273e-08
7.68365e-08
4.14274e-08
7.68515e-08
1.37271e-06
5.26006e-08
5.99322e-08
1.37523e-06
5.26711e-08
5.97716e-08
1.37772e-06
5.27896e-08
5.95722e-08
1.38018e-06
5.29257e-08
5.93594e-08
1.38264e-06
5.30433e-08
5.91347e-08
5.29806e-08
5.91134e-08
1.60638e-06
5.82979e-08
3.95347e-08
1.61125e-06
5.83561e-08
3.94595e-08
1.61614e-06
5.84686e-08
3.93269e-08
1.62106e-06
5.86044e-08
3.91382e-08
1.62606e-06
5.87196e-08
3.89412e-08
5.86997e-08
3.89745e-08
1.74733e-06
1.61084e-08
1.75306e-06
5.96178e-08
1.61116e-08
1.75885e-06
5.96648e-08
1.60681e-08
1.7647e-06
5.97174e-08
1.60128e-08
1.77063e-06
5.97602e-08
1.59531e-08
5.97525e-08
1.60504e-08
1.80263e-06
5.68415e-08
-8.28198e-09
1.80855e-06
5.68174e-08
-8.29465e-09
1.81454e-06
5.67743e-08
-8.32009e-09
1.82058e-06
5.67315e-08
-8.3136e-09
5.67217e-08
-8.1733e-09
1.75638e-06
4.99889e-08
-3.17371e-08
1.76201e-06
4.99145e-08
-3.176e-08
1.7677e-06
4.97853e-08
-3.18038e-08
1.77345e-06
4.96581e-08
-3.18259e-08
4.96445e-08
-3.1718e-08
1.61137e-06
3.94469e-08
-5.2666e-08
1.61629e-06
3.93202e-08
-5.27489e-08
1.62124e-06
3.91526e-08
-5.28676e-08
1.62625e-06
3.89714e-08
-5.29911e-08
3.89557e-08
-5.29624e-08
1.36476e-06
2.65111e-08
-7.01374e-08
1.3679e-06
2.63848e-08
-7.02991e-08
1.37105e-06
2.62341e-08
-7.04884e-08
1.37425e-06
2.60431e-08
-7.06929e-08
2.60108e-08
-7.07468e-08
9.97271e-07
1.35696e-08
-8.27931e-08
9.96221e-07
1.35531e-08
-8.28947e-08
9.95032e-07
1.35141e-08
-8.29999e-08
9.93721e-07
1.34144e-08
-8.31242e-08
1.33544e-08
-8.31248e-08
4.86825e-07
-9.17866e-08
4.82369e-07
-9.17285e-08
4.77857e-07
-9.16462e-08
4.73248e-07
-9.15598e-08
-9.15001e-08
3.6979e-07
2.86186e-08
6.39601e-08
3.66019e-07
2.85996e-08
6.40243e-08
3.62306e-07
2.85971e-08
6.41193e-08
3.58655e-07
2.85885e-08
6.4217e-08
3.5503e-07
2.8606e-08
6.42865e-08
2.8563e-08
6.43302e-08
7.99318e-07
5.29702e-08
5.53239e-08
7.96792e-07
5.30246e-08
5.52801e-08
7.94143e-07
5.31131e-08
5.51887e-08
7.91369e-07
5.32236e-08
5.50869e-08
7.88467e-07
5.33898e-08
5.49541e-08
5.3386e-08
5.49618e-08
1.1306e-06
7.00259e-08
4.18502e-08
1.13153e-06
7.01584e-08
4.17042e-08
1.13234e-06
7.03278e-08
4.15535e-08
1.13302e-06
7.05189e-08
4.13802e-08
1.13367e-06
7.07274e-08
4.11491e-08
7.07368e-08
4.115e-08
1.36153e-06
7.99095e-08
2.65895e-08
1.36462e-06
8.00051e-08
2.65241e-08
1.36771e-06
8.01335e-08
2.64312e-08
1.37079e-06
8.03041e-08
2.62666e-08
1.37392e-06
8.04938e-08
2.60443e-08
8.05441e-08
2.60862e-08
1.50286e-06
8.67393e-09
1.50659e-06
8.3661e-08
8.72517e-09
1.51039e-06
8.36935e-08
8.70947e-09
1.51427e-06
8.37501e-08
8.68907e-09
1.51824e-06
8.38186e-08
8.65711e-09
8.38462e-08
8.80354e-09
1.5594e-06
8.15856e-08
-9.79603e-09
1.56306e-06
8.15407e-08
-9.80226e-09
1.56679e-06
8.14846e-08
-9.78281e-09
1.57062e-06
8.1426e-08
-9.75125e-09
8.13907e-08
-9.55697e-09
1.5171e-06
7.35044e-08
-2.68584e-08
1.52035e-06
7.33953e-08
-2.6859e-08
1.52363e-06
7.32601e-08
-2.68607e-08
1.52698e-06
7.31024e-08
-2.68512e-08
7.30231e-08
-2.66854e-08
1.37521e-06
5.97366e-08
-4.13917e-08
1.37771e-06
5.95494e-08
-4.13984e-08
1.38019e-06
5.9334e-08
-4.14285e-08
1.38268e-06
5.91095e-08
-4.14861e-08
5.90392e-08
-4.14016e-08
1.13152e-06
4.16601e-08
-5.30198e-08
1.13238e-06
4.15006e-08
-5.31061e-08
1.13312e-06
4.13266e-08
-5.32189e-08
1.13379e-06
4.11197e-08
-5.33789e-08
4.10608e-08
-5.33941e-08
7.71833e-07
2.2168e-08
-6.07776e-08
7.69155e-07
2.21289e-08
-6.08447e-08
7.6633e-07
2.20792e-08
-6.09274e-08
7.63354e-07
2.19938e-08
-6.10229e-08
2.19738e-08
-6.09944e-08
3.3338e-07
-6.63025e-08
3.30044e-07
-6.62632e-08
3.267e-07
-6.62229e-08
3.23324e-07
-6.61906e-08
-6.61621e-08
1.8894e-07
3.19554e-08
3.40106e-08
1.86969e-07
3.19709e-08
3.40238e-08
1.85023e-07
3.20249e-08
3.40404e-08
1.83097e-07
3.20831e-08
3.40599e-08
1.81158e-07
3.21484e-08
3.40777e-08
3.21019e-08
3.41077e-08
4.82479e-07
6.0794e-08
2.98893e-08
4.79039e-07
6.08356e-08
2.9855e-08
4.7558e-07
6.08915e-08
2.97813e-08
4.72079e-07
6.09656e-08
2.97049e-08
4.68481e-07
6.10842e-08
2.96165e-08
6.10228e-08
2.96626e-08
7.74698e-07
8.27534e-08
2.22203e-08
7.72184e-07
8.28494e-08
2.22035e-08
7.6952e-07
8.29344e-08
2.21754e-08
7.66707e-07
8.30357e-08
2.21223e-08
7.63745e-07
8.31853e-08
8.31431e-08
9.98451e-07
9.66332e-08
1.35725e-08
9.97494e-07
9.67098e-08
1.3621e-08
9.96404e-07
9.68104e-08
1.36449e-08
9.95175e-07
9.69337e-08
1.35982e-08
9.93838e-07
9.70982e-08
1.34684e-08
9.7147e-08
1.14038e-06
2.83246e-09
1.13979e-06
1.03096e-07
2.93212e-09
1.13919e-06
1.03135e-07
2.97953e-09
1.13859e-06
1.03177e-07
3.0471e-09
1.13796e-06
1.03211e-07
3.17847e-09
1.03211e-07
1.19717e-06
1.01919e-07
-7.58469e-09
1.19613e-06
1.01906e-07
-7.53606e-09
1.19512e-06
1.01894e-07
-7.48368e-09
1.19414e-06
1.01877e-07
-7.44218e-09
1.0188e-07
-7.34992e-09
1.16043e-06
9.31542e-08
-1.67205e-08
1.15902e-06
9.31008e-08
-1.66394e-08
1.15756e-06
9.30432e-08
-1.65517e-08
1.15611e-06
9.29804e-08
-1.64998e-08
9.29724e-08
-1.63958e-08
1.02546e-06
7.7114e-08
-2.36962e-08
1.02365e-06
7.69931e-08
-2.34873e-08
1.02168e-06
7.68642e-08
-2.32725e-08
1.01958e-06
7.67334e-08
-2.31464e-08
7.67402e-08
-2.30449e-08
7.96662e-07
5.52217e-08
-2.86138e-08
7.94031e-07
5.51234e-08
-2.86047e-08
7.91264e-07
5.49974e-08
-2.85857e-08
7.88353e-07
5.48574e-08
-2.8592e-08
5.48583e-08
-2.85536e-08
4.78899e-07
2.9854e-08
-3.19435e-08
4.75375e-07
2.97883e-08
-3.19861e-08
4.7181e-07
2.96893e-08
-3.20542e-08
4.68177e-07
2.95912e-08
-3.21232e-08
2.96133e-08
-3.20917e-08
1.75052e-07
-3.46377e-08
1.7323e-07
-3.46531e-08
1.71377e-07
-3.46806e-08
1.69479e-07
-3.47011e-08
-3.46946e-08
5.8088e-08
3.46729e-08
5.74325e-08
3.46792e-08
5.67709e-08
3.4702e-08
5.61063e-08
3.47245e-08
5.5438e-08
3.4746e-08
3.47317e-08
1.76933e-07
6.63834e-08
1.75131e-07
6.63369e-08
1.73319e-07
6.62951e-08
1.71487e-07
6.62616e-08
1.69602e-07
3.36826e-07
9.1878e-08
3.33571e-07
9.17956e-08
3.30331e-07
9.17111e-08
9.16394e-08
4.91546e-07
1.09745e-07
4.87234e-07
1.09729e-07
4.82903e-07
1.09687e-07
4.78514e-07
1.09627e-07
1.09552e-07
6.083e-07
6.0275e-07
1.18211e-07
5.97168e-07
1.18249e-07
5.91565e-07
1.18277e-07
1.18297e-07
6.54326e-07
1.17049e-07
6.4791e-07
1.1713e-07
6.41479e-07
1.17224e-07
6.35027e-07
1.17308e-07
1.17377e-07
6.25918e-07
1.06954e-07
6.19375e-07
1.07033e-07
6.12902e-07
1.07146e-07
6.06472e-07
1.07238e-07
1.07294e-07
5.21457e-07
8.87706e-08
5.16108e-07
8.8895e-08
5.10925e-07
8.90562e-08
5.05825e-07
8.91913e-08
8.92659e-08
3.66003e-07
6.39419e-08
3.62268e-07
6.40244e-08
3.58609e-07
6.41297e-08
3.55001e-07
6.42071e-08
6.42554e-08
1.86953e-07
3.39879e-08
1.84994e-07
3.39969e-08
1.83058e-07
3.4012e-08
1.81114e-07
3.40274e-08
3.40579e-08
5.74181e-08
5.67619e-08
5.60933e-08
5.54196e-08
)
;

boundaryField
{
    inlet
    {
        type            calculated;
        value           nonuniform List<scalar> 0();
    }
    ami1
    {
        type            cyclicAMI;
        value           nonuniform List<scalar> 0();
    }
    walls
    {
        type            calculated;
        value           nonuniform List<scalar> 
250
(
2.90979e-14
2.43942e-14
1.84387e-14
1.28555e-14
6.40674e-15
-1.13841e-21
-6.40674e-15
-1.28555e-14
-1.84387e-14
-2.43942e-14
-2.90979e-14
2.90979e-14
2.43942e-14
1.84387e-14
1.28555e-14
6.40674e-15
-8.27181e-23
-6.40674e-15
-1.28555e-14
-1.84387e-14
-2.43942e-14
-2.90979e-14
2.90979e-14
2.43942e-14
1.84387e-14
1.28555e-14
6.40674e-15
-1.13737e-21
-6.40674e-15
-1.28555e-14
-1.84387e-14
-2.43942e-14
-2.90979e-14
2.90979e-14
2.43942e-14
1.84387e-14
1.28555e-14
6.40674e-15
-1.13737e-21
-6.40674e-15
-1.28555e-14
-1.84387e-14
-2.43942e-14
-2.90979e-14
2.90979e-14
2.43942e-14
1.84387e-14
1.28555e-14
6.40674e-15
-1.13737e-21
-6.40674e-15
-1.28555e-14
-1.84387e-14
-2.43942e-14
-2.90979e-14
1.28555e-14
6.40674e-15
-1.13737e-21
-6.40674e-15
-1.28555e-14
-1.84387e-14
-2.43942e-14
-2.90979e-14
-1.13737e-21
-6.40674e-15
-1.28555e-14
-1.84387e-14
2.90979e-14
2.43942e-14
1.84387e-14
1.28555e-14
6.40674e-15
-1.13841e-21
-6.40674e-15
-1.28555e-14
-1.84387e-14
-2.43942e-14
-2.90979e-14
2.90979e-14
2.43942e-14
1.84387e-14
1.28555e-14
6.40674e-15
-8.27181e-23
-6.40674e-15
-1.28555e-14
-1.84387e-14
-2.43942e-14
-2.90979e-14
2.90979e-14
2.43942e-14
1.84387e-14
1.28555e-14
6.40674e-15
-1.13737e-21
-6.40674e-15
-1.28555e-14
-1.84387e-14
-2.43942e-14
-2.90979e-14
2.90979e-14
2.43942e-14
1.84387e-14
1.28555e-14
6.40674e-15
-1.13737e-21
-6.40674e-15
-1.28555e-14
-1.84387e-14
-2.43942e-14
-2.90979e-14
2.90979e-14
2.43942e-14
1.84387e-14
1.28555e-14
6.40674e-15
-1.13737e-21
-6.40674e-15
-1.28555e-14
-1.84387e-14
-2.43942e-14
-2.90979e-14
2.90979e-14
2.43942e-14
1.84387e-14
1.28555e-14
6.40674e-15
-2.90979e-14
-2.43942e-14
-1.84387e-14
-1.28555e-14
-6.40674e-15
-2.90979e-14
-2.43942e-14
-1.84387e-14
-1.28555e-14
-6.40674e-15
-1.13846e-21
6.40674e-15
1.28555e-14
1.84387e-14
2.43942e-14
2.90979e-14
-2.90979e-14
-2.43942e-14
-1.84387e-14
-1.28555e-14
-6.40674e-15
-3.46818e-22
6.40674e-15
1.28555e-14
1.84387e-14
2.43942e-14
2.90979e-14
-2.90979e-14
-2.43942e-14
-1.84387e-14
-1.28555e-14
-6.40674e-15
-1.13854e-21
6.40674e-15
1.28555e-14
1.84387e-14
2.43942e-14
2.90979e-14
-2.90979e-14
-2.43942e-14
-1.28555e-14
-6.40674e-15
-1.13815e-21
6.40674e-15
1.28555e-14
1.84387e-14
2.43942e-14
2.90979e-14
-2.90979e-14
-2.43942e-14
-1.13815e-21
6.40674e-15
1.28555e-14
1.84387e-14
2.43942e-14
2.90979e-14
6.40674e-15
1.28555e-14
1.84387e-14
2.43942e-14
2.90979e-14
-2.90979e-14
-2.43942e-14
-1.84387e-14
-1.28555e-14
-6.40674e-15
-1.13846e-21
6.40674e-15
1.28555e-14
1.84387e-14
2.43942e-14
2.90979e-14
-2.90979e-14
-2.43942e-14
-1.84387e-14
-1.28555e-14
-6.40674e-15
-3.46818e-22
6.40674e-15
1.28555e-14
1.84387e-14
2.43942e-14
2.90979e-14
-2.90979e-14
-2.43942e-14
-1.84387e-14
-1.28555e-14
-6.40674e-15
-1.13854e-21
6.40674e-15
1.28555e-14
1.84387e-14
2.43942e-14
2.90979e-14
-2.90979e-14
-2.43942e-14
-1.84387e-14
-1.28555e-14
-6.40674e-15
-1.13815e-21
6.40674e-15
1.28555e-14
1.84387e-14
2.43942e-14
2.90979e-14
-2.90979e-14
-2.43942e-14
-1.84387e-14
-1.28555e-14
-6.40674e-15
-1.13815e-21
6.40674e-15
1.28555e-14
1.84387e-14
2.43942e-14
2.90979e-14
-2.43942e-14
-1.84387e-14
-1.28555e-14
-6.40674e-15
-1.13815e-21
-1.84387e-14
-1.28555e-14
)
;
    }
    ami2
    {
        type            cyclicAMI;
        value           nonuniform List<scalar> 0();
    }
    outlet
    {
        type            calculated;
        value           nonuniform List<scalar> 0();
    }
    procBoundary5to6
    {
        type            processor;
        value           nonuniform List<scalar> 
177
(
5.47146e-08
-3.47109e-08
1.78987e-07
3.51129e-07
8.93482e-08
-2.85805e-08
4.9533e-07
5.93294e-07
1.1756e-07
6.15264e-07
6.88988e-09
5.68515e-07
-3.59768e-09
4.59225e-07
3.13198e-07
-6.61316e-08
1.6573e-07
2.96716e-08
5.41175e-08
1.65673e-07
-2.96474e-08
-6.60392e-08
4.6452e-07
5.48455e-08
-6.10176e-08
7.82455e-07
1.01518e-06
1.15313e-06
1.1924e-06
1.1367e-06
9.73198e-08
9.89374e-07
-2.59881e-08
7.53891e-07
-4.10155e-08
4.56968e-07
-3.20628e-08
1.77307e-07
3.13404e-07
-2.2143e-08
7.57579e-07
-8.30747e-08
1.13499e-06
1.38742e-06
1.53372e-06
1.57861e-06
1.52665e-06
-1.60876e-08
1.38056e-06
1.13489e-06
5.34229e-08
7.79045e-07
-2.8503e-08
-7.67376e-08
3.47811e-07
4.59743e-07
1.0942e-07
9.89535e-07
-2.61057e-08
9.72621e-08
1.38027e-06
8.0629e-08
1.63609e-06
5.87436e-08
1.78496e-06
3.31217e-08
1.83286e-06
-5.9695e-08
5.18677e-09
1.77691e-06
5.86982e-08
1.6362e-06
-4.95533e-08
1.38747e-06
-7.28873e-08
1.01508e-06
-9.29101e-08
4.95439e-07
5.74518e-07
1.13654e-06
-8.85631e-09
1.52236e-06
8.3862e-08
1.77675e-06
5.97731e-08
1.92616e-06
3.18709e-08
1.97543e-06
1.92621e-06
1.77924e-06
1.53041e-06
1.15463e-06
1.62151e-08
5.93371e-07
-1.17446e-07
6.21836e-07
1.17458e-07
9.63901e-09
1.19217e-06
9.45582e-09
1.01962e-07
1.57064e-06
-8.14085e-08
1.82068e-06
-5.66927e-08
1.96845e-06
-1.72131e-09
-2.8367e-08
2.02479e-06
1.97535e-06
1.82675e-06
1.57464e-06
1.19331e-06
6.27846e-07
5.99854e-07
1.15458e-06
1.53035e-06
1.77908e-06
1.92594e-06
1.97525e-06
1.92611e-06
1.77681e-06
1.52255e-06
1.13744e-06
5.79587e-07
5.00636e-07
1.01743e-06
1.38502e-06
1.63097e-06
1.7765e-06
1.82656e-06
1.77915e-06
1.63124e-06
1.37743e-06
9.92373e-07
4.68594e-07
3.51467e-07
7.85534e-07
1.13428e-06
1.37701e-06
1.52218e-06
1.57446e-06
1.53031e-06
1.3851e-06
1.13442e-06
7.60311e-07
3.1996e-07
1.79278e-07
4.64859e-07
2.2011e-08
7.60743e-07
2.20314e-08
9.92487e-07
1.34331e-08
1.13731e-06
3.38481e-09
1.19326e-06
1.15473e-06
1.01746e-06
7.85395e-07
4.64519e-07
1.67625e-07
5.4814e-08
6.62476e-08
1.67789e-07
6.62067e-08
3.27075e-07
-9.15797e-08
4.7401e-07
5.85998e-07
-1.18341e-07
6.28641e-07
6.00159e-07
5.00808e-07
3.51458e-07
1.7922e-07
5.47828e-08
)
;
    }
    procBoundary5to7
    {
        type            processor;
        value           nonuniform List<scalar> 
131
(
-5.80445e-08
-1.88835e-07
-3.69563e-07
-5.26565e-07
-6.3203e-07
-6.60132e-07
-6.07609e-07
-4.91088e-07
-3.36597e-07
-1.7681e-07
-5.80533e-08
-1.7683e-07
-4.82329e-07
-7.99199e-07
-1.02712e-06
-1.16173e-06
-1.19813e-06
-1.14036e-06
-9.9822e-07
-7.74349e-07
-4.82316e-07
-1.889e-07
-3.36733e-07
-7.74466e-07
-1.13062e-06
-1.37277e-06
-1.51402e-06
-1.55595e-06
-1.50307e-06
-1.36167e-06
-1.13055e-06
-7.99156e-07
-3.6973e-07
-4.91326e-07
-9.98377e-07
-1.36157e-06
-1.60647e-06
-1.75089e-06
-1.797e-06
-1.74752e-06
-1.60647e-06
-1.37265e-06
-1.02705e-06
-5.26854e-07
-6.07989e-07
-1.1404e-06
-1.50292e-06
-1.74742e-06
-1.89285e-06
-1.94097e-06
-1.89287e-06
-1.75076e-06
-1.51386e-06
-1.16172e-06
-6.32322e-07
-6.60562e-07
-1.16992e-07
-1.19818e-06
-1.01951e-07
-1.55579e-06
-8.16939e-08
-1.79678e-06
-5.69137e-08
-1.94083e-06
-2.84671e-08
-1.98911e-06
-1.94093e-06
-1.79687e-06
-1.55582e-06
-1.19813e-06
-6.60382e-07
-6.39287e-07
-1.16317e-06
-1.51065e-06
-1.74508e-06
-1.88613e-06
3.17605e-08
-1.94085e-06
-1.89285e-06
-1.74748e-06
-1.50299e-06
-1.14034e-06
-6.07828e-07
-5.32543e-07
-1.02881e-06
-1.37016e-06
-1.60154e-06
-1.74162e-06
5.96007e-08
-1.79679e-06
-1.7508e-06
-1.60652e-06
-1.36167e-06
-9.98206e-07
-4.91225e-07
-3.73589e-07
-8.01729e-07
-1.12957e-06
-1.35847e-06
-1.49918e-06
8.36589e-08
-1.55581e-06
-1.5139e-06
-1.37272e-06
-1.13056e-06
-7.74357e-07
-3.36696e-07
-1.90945e-07
-4.85883e-07
-7.77027e-07
-9.99314e-07
-1.14099e-06
1.03089e-07
-1.1982e-06
-1.16181e-06
-1.02711e-06