/*--------------------------------*- C++ -*----------------------------------*\
| =========                 |                                                 |
| \\      /  F ield         | OpenFOAM: The Open Source CFD Toolbox           |
|  \\    /   O peration     | Version:  2212                                  |
|   \\  /    A nd           | Website:  www.openfoam.com                      |
|    \\/     M anipulation  |                                                 |
\*---------------------------------------------------------------------------*/
FoamFile
{
    version     2.0;
    format      ascii;
    arch        "LSB;label=32;scalar=64";
    class       volVectorField;
    location    "1.55";
    object      U;
}
// * * * * * * * * * * * * * * * * * * * * * * * * * * * * * * * * * * * * * //

dimensions      [0 1 -1 0 0 0 0];

internalField   nonuniform List<vector> 
678
(
(0.0228439 1.17023e-05 5.47407e-05)
(0.0225851 1.02248e-05 5.47074e-05)
(0.0223248 8.23736e-06 5.44315e-05)
(0.0220563 6.82792e-06 5.40297e-05)
(0.0217899 5.72479e-06 5.3804e-05)
(0.0385569 -0.000158122 0.000160868)
(0.038145 -0.000156203 0.00015489)
(0.0377506 -0.000155461 0.000146435)
(0.0373502 -0.000155299 0.00013873)
(0.0369531 -0.000157829 0.000134604)
(0.0534446 -0.000486872 0.000149155)
(0.0528848 -0.000467081 0.000140907)
(0.052358 -0.000440882 0.000125996)
(0.0518262 -0.000419333 0.000113132)
(0.0513049 -0.00041027 0.000108122)
(0.0622257 -0.000898274 0.000105729)
(0.0615682 -0.000830354 8.50743e-05)
(0.0609533 -0.00076503 6.12976e-05)
(0.0603389 -0.000723083 4.71609e-05)
(0.0597415 -0.000699988 4.09312e-05)
(0.0591479 -0.000681911 3.61777e-05)
(0.0670002 -0.00112952 2.57006e-05)
(0.0662931 -0.00111233 1.90676e-05)
(0.0656041 -0.00109384 1.04931e-05)
(0.0649091 -0.00107723 2.5013e-06)
(0.0642274 -0.00104899 -5.31011e-06)
(0.0635584 -0.0009856 -1.62472e-05)
(0.067633 -0.00110641 -3.15969e-05)
(0.066968 -0.00109659 -4.87633e-05)
(0.0663035 -0.00108548 -6.41806e-05)
(0.0656301 -0.00106859 -7.77294e-05)
(0.0649594 -0.00104963 -8.81428e-05)
(0.0642987 -0.00100249 -9.56769e-05)
(0.0636457 -0.000917788 -0.000101274)
(0.0644521 -0.000903035 -0.000128882)
(0.0638429 -0.000891156 -0.00013325)
(0.0632411 -0.000849996 -0.000129167)
(0.0626298 -0.000775196 -0.000120735)
(0.0620447 -0.00070686 -0.000113388)
(0.0614648 -0.000665501 -0.000110187)
(0.0608699 -0.000645201 -0.000111859)
(0.0580796 -0.000463101 -0.000115271)
(0.0575443 -0.000453374 -0.000110489)
(0.0570281 -0.000443714 -9.90782e-05)
(0.0564807 -0.000438781 -8.59546e-05)
(0.0559414 -0.000440902 -7.40518e-05)
(0.0553894 -0.000444785 -6.36772e-05)
(0.0548387 -0.000450995 -5.86951e-05)
(0.048686 -0.000287688 -9.53727e-05)
(0.0481911 -0.000282707 -8.58119e-05)
(0.0477224 -0.000276555 -7.2868e-05)
(0.0472288 -0.000273781 -5.99447e-05)
(0.0467488 -0.000276363 -4.96992e-05)
(0.0462534 -0.000277857 -4.02852e-05)
(0.045773 -0.000279635 -3.55412e-05)
(0.0361065 -7.99934e-05 3.45054e-05)
(0.0357297 -8.32436e-05 3.54719e-05)
(0.0353615 -8.90282e-05 3.50186e-05)
(0.0349798 -9.42852e-05 3.52392e-05)
(0.0345945 -9.95867e-05 3.55141e-05)
(0.034214 -0.000100087 3.75442e-05)
(0.0228472 -5.58619e-05 1.23858e-05)
(0.0225883 -5.54895e-05 1.06553e-05)
(0.0223284 -5.46539e-05 8.32929e-06)
(0.0220632 -5.33281e-05 6.52688e-06)
(0.021799 -5.22736e-05 4.53434e-06)
(0.0215425 -4.9793e-05 3.45093e-06)
(0.0361112 3.1898e-05 7.90749e-05)
(0.0357353 3.33078e-05 8.27104e-05)
(0.0353672 3.29819e-05 8.92726e-05)
(0.0349807 3.29664e-05 9.62939e-05)
(0.0345912 3.25971e-05 0.000104357)
(0.0341906 4.10148e-05 9.93744e-05)
(0.0682788 -0.000191907 0.000257219)
(0.0677695 -0.000198772 0.000274238)
(0.067284 -0.000212783 0.000295424)
(0.0667693 -0.000225324 0.000312743)
(0.0662567 -0.000225246 0.000313484)
(0.0896893 -0.000719066 0.000309646)
(0.0893978 -0.000728385 0.000331884)
(0.0890983 -0.000740559 0.000354217)
(0.0887771 -0.000748462 0.000370811)
(0.0884493 -0.00076199 0.000389521)
(0.0881209 -0.00074989 0.000387637)
(0.09943 -0.00112701 0.000205583)
(0.0992651 -0.00112316 0.000219025)
(0.0990777 -0.00112041 0.000231356)
(0.0988787 -0.00111959 0.000241954)
(0.0986694 -0.00112304 0.000253895)
(0.0984591 -0.00109595 0.000255622)
(0.103507 -0.0013695 0.000180954)
(0.103383 -0.00136031 0.000184627)
(0.103253 -0.00135159 0.000189326)
(0.103126 -0.00135147 0.000195985)
(0.102991 -0.00134721 0.000203843)
(0.102865 -0.00131118 0.000206401)
(0.103939 -0.00138199 0.000159921)
(0.10385 -0.00137179 0.00015783)
(0.103762 -0.0013611 0.000155513)
(0.10368 -0.00135704 0.000153749)
(0.103596 -0.00134931 0.000150738)
(0.103522 -0.00131185 0.000145367)
(0.10164 -0.00113526 4.23254e-05)
(0.101595 -0.00113425 3.21595e-05)
(0.101544 -0.00113324 2.0027e-05)
(0.101495 -0.00114232 5.73745e-06)
(0.101431 -0.00115308 -9.51388e-06)
(0.101369 -0.0011213 -1.92215e-05)
(0.0966663 -0.000842966 -0.000162855)
(0.0965752 -0.000857317 -0.000178723)
(0.0964658 -0.000872629 -0.000194691)
(0.0963458 -0.000893123 -0.000213563)
(0.09621 -0.00092389 -0.000236745)
(0.0960726 -0.000931194 -0.000250656)
(0.0959135 -0.000904553 -0.00025)
(0.0868959 -0.000614842 -0.000356711)
(0.0865999 -0.000635509 -0.000366225)
(0.0862984 -0.00065599 -0.000374076)
(0.0859676 -0.00067508 -0.000380916)
(0.085629 -0.000696579 -0.000389805)
(0.0852797 -0.000699995 -0.00038723)
(0.0849078 -0.000680131 -0.000372853)
(0.0682766 -0.00026096 -0.000188864)
(0.067765 -0.000277494 -0.000196615)
(0.0672778 -0.000297288 -0.00021112)
(0.0667614 -0.00031018 -0.000222205)
(0.0662513 -0.000324395 -0.000237078)
(0.0657227 -0.000325596 -0.000241591)
(0.0651946 -0.000304499 -0.000224347)
(0.0385701 -0.000163 -0.000157397)
(0.0381586 -0.000156252 -0.000155793)
(0.0377644 -0.000146427 -0.000155101)
(0.0373683 -0.000136013 -0.000153894)
(0.0369741 -0.000126284 -0.000153109)
(0.0365924 -0.000115434 -0.00015017)
(0.0487069 -9.64193e-05 0.000286437)
(0.0482167 -8.65317e-05 0.000281501)
(0.0477506 -7.40958e-05 0.000276209)
(0.0472613 -6.29428e-05 0.000276376)
(0.0467753 -5.76751e-05 0.000286927)
(0.0462881 -4.75992e-05 0.000291439)
(0.045782 -2.60455e-05 0.00027644)
(0.0869096 -0.000359603 0.000612066)
(0.0866166 -0.000367986 0.000633382)
(0.0863162 -0.000375061 0.000655426)
(0.0859911 -0.000380537 0.000675406)
(0.0856587 -0.000389722 0.000701586)
(0.0853263 -0.000370483 0.000680771)
(0.106419 -0.000841536 0.000688164)
(0.10651 -0.000860189 0.00071652)
(0.106577 -0.000879245 0.000747212)
(0.106643 -0.000898063 0.000778291)
(0.106698 -0.00091639 0.000808806)
(0.106751 -0.0009083 0.000806362)
(0.114905 -0.00118033 0.000456946)
(0.115116 -0.00118679 0.000475685)
(0.11532 -0.00119419 0.000499268)
(0.115528 -0.00120746 0.000527313)
(0.11573 -0.00122065 0.000554462)
(0.115925 -0.00120516 0.000559258)
(0.11847 -0.00136301 0.00030614)
(0.118722 -0.00136449 0.000318505)
(0.118975 -0.00136696 0.000333547)
(0.119233 -0.00136785 0.000349248)
(0.119495 -0.00136475 0.000364735)
(0.119754 -0.0013425 0.000372351)
(0.11911 -0.00136088 0.000136461)
(0.119387 -0.00136361 0.000139785)
(0.119669 -0.00136636 0.000141523)
(0.119958 -0.00136548 0.000141974)
(0.120256 -0.00135955 0.000141301)
(0.120553 -0.00133312 0.000141624)
(0.117635 -0.0011905 -0.000121085)
(0.117931 -0.00119203 -0.0001304)
(0.118231 -0.00119669 -0.000144448)
(0.11854 -0.00120361 -0.000161393)
(0.118853 -0.00120833 -0.000178569)
(0.119166 -0.00118888 -0.000187448)
(0.114003 -0.000932866 -0.000498459)
(0.114266 -0.000948847 -0.000518236)
(0.114523 -0.000967503 -0.000541483)
(0.11479 -0.00099415 -0.000568417)
(0.115051 -0.00102366 -0.00059463)
(0.115313 -0.00101985 -0.000600862)
(0.106411 -0.000692108 -0.000842969)
(0.106504 -0.000720786 -0.000862612)
(0.106571 -0.000751521 -0.000882368)
(0.106637 -0.000781027 -0.000900753)
(0.106689 -0.000813247 -0.00092138)
(0.106744 -0.000815441 -0.000916063)
(0.0896844 -0.000313761 -0.0007182)
(0.0893913 -0.000335093 -0.000727933)
(0.0890911 -0.000356334 -0.000740579)
(0.0887656 -0.000370638 -0.000748097)
(0.088432 -0.000387583 -0.000762826)
(0.0880875 -0.000391612 -0.000761152)
(0.0877215 -0.0003825 -0.000738574)
(0.0534687 -0.000150111 -0.000487296)
(0.0529092 -0.000141281 -0.000468506)
(0.0523811 -0.000125293 -0.000442159)
(0.0518497 -0.000109479 -0.000418236)
(0.0513307 -9.58452e-05 -0.000401757)
(0.0508215 -8.5029e-05 -0.000391139)
(0.05811 -0.000112016 0.00046076)
(0.0575821 -0.000106853 0.000450159)
(0.0570702 -9.58705e-05 0.000440068)
(0.0565308 -8.377e-05 0.00043597)
(0.0559958 -7.28752e-05 0.000440962)
(0.0554519 -6.60181e-05 0.00045121)
(0.0548983 -5.79662e-05 0.000456158)
(0.0966833 -0.000163226 0.000840388)
(0.0965911 -0.000178829 0.000856216)
(0.0964788 -0.00019382 0.000872415)
(0.0963582 -0.000211289 0.000895566)
(0.0962209 -0.000230837 0.000928)
(0.0960812 -0.000238922 0.000927293)
(0.0959321 -0.000237462 0.000888591)
(0.113992 -0.000501601 0.000934453)
(0.114251 -0.000518648 0.000945988)
(0.114506 -0.000541256 0.000964968)
(0.114769 -0.000566501 0.000990695)
(0.115031 -0.000590019 0.00101622)
(0.115288 -0.000593507 0.00100654)
(0.121755 -0.000749686 0.000630939)
(0.122125 -0.000761715 0.000643136)
(0.122495 -0.000779813 0.00066422)
(0.122871 -0.000800072 0.000688844)
(0.123248 -0.000812082 0.000703258)
(0.123622 -0.000802269 0.000692242)
(0.125224 -0.000895336 0.000364703)
(0.125626 -0.00089989 0.00037281)
(0.126028 -0.000909359 0.000384465)
(0.126436 -0.000919698 0.000397687)
(0.126846 -0.000920855 0.000406474)
(0.127253 -0.000901905 0.000403601)
(0.126099 -0.00090344 5.06589e-05)
(0.126513 -0.000903987 5.24579e-05)
(0.126929 -0.000910122 5.37656e-05)
(0.12735 -0.000916313 5.49551e-05)
(0.127774 -0.000911065 5.66357e-05)
(0.128195 -0.000886945 5.8542e-05)
(0.124989 -0.000800426 -0.00031216)
(0.125402 -0.000803196 -0.000318359)
(0.125818 -0.000814202 -0.000328769)
(0.12624 -0.00082408 -0.00033946)
(0.126665 -0.000819466 -0.000344012)
(0.121756 -0.000630274 -0.000747956)
(0.122127 -0.000642927 -0.000760089)
(0.122498 -0.000665199 -0.000778706)
(0.122875 -0.000689796 -0.000797423)
(0.123253 -0.000707633 -0.000807964)
(0.123627 -0.000701845 -0.000797747)
(0.114895 -0.000460423 -0.00118178)
(0.115108 -0.000478766 -0.00118814)
(0.115312 -0.000502491 -0.00119587)
(0.115522 -0.000530947 -0.00120844)
(0.115726 -0.000559777 -0.00121855)
(0.115924 -0.000566046 -0.00119781)
(0.099424 -0.000208823 -0.0011262)
(0.0992596 -0.000221589 -0.00112303)
(0.0990729 -0.000233426 -0.00112167)
(0.0988723 -0.000243415 -0.00112016)
(0.0986629 -0.000255209 -0.00112008)
(0.0984483 -0.000257145 -0.00108654)
(0.0622591 -0.00010663 -0.000902552)
(0.0615992 -8.64124e-05 -0.000836582)
(0.0609796 -6.21944e-05 -0.000769635)
(0.0603621 -4.62438e-05 -0.000726085)
(0.0597606 -3.60595e-05 -0.00070082)
(0.0591662 -3.36294e-05 -0.000681187)
(0.0644948 -0.000121424 0.000894619)
(0.0638928 -0.000126182 0.000881525)
(0.0632943 -0.000123973 0.000846242)
(0.0626859 -0.000116023 0.000774882)
(0.0621038 -0.000107385 0.00070402)
(0.0615273 -0.000106794 0.000665729)
(0.101642 4.26252e-05 0.00113186)
(0.101592 3.24197e-05 0.00113097)
(0.101538 2.11086e-05 0.00113031)
(0.101486 8.9343e-06 0.00114131)
(0.101422 -4.43446e-06 0.00115112)
(0.101349 -1.42563e-05 0.00111777)
(0.117623 -0.000126452 0.00118556)
(0.117917 -0.000136098 0.00119065)
(0.118214 -0.000149182 0.00119723)
(0.118523 -0.000164712 0.00120275)
(0.118834 -0.000178582 0.00119086)
(0.124981 -0.000316962 0.000800142)
(0.125393 -0.000322865 0.000802679)
(0.125809 -0.000333433 0.000814054)
(0.126231 -0.000345189 0.000821567)
(0.126654 -0.000352473 0.000811544)
(0.128408 -0.000431466 0.000424737)
(0.128856 -0.000433092 0.000425927)
(0.129305 -0.000439074 0.000431886)
(0.129759 -0.000445633 0.000436424)
(0.130212 -0.000447596 0.000433286)
(0.129397 -0.000456347 1.32829e-05)
(0.129853 -0.000456535 1.36994e-05)
(0.13031 -0.000460879 1.43623e-05)
(0.130771 -0.000464426 1.49729e-05)
(0.131232 -0.000461597 1.52428e-05)
(0.128411 -0.000425431 -0.000428225)
(0.128858 -0.000426976 -0.000429849)
(0.129308 -0.000433277 -0.000435232)
(0.129762 -0.000439566 -0.00043961)
(0.130217 -0.000439496 -0.000437043)
(0.125216 -0.000364779 -0.000893602)
(0.125618 -0.000373544 -0.000897999)
(0.126022 -0.000386684 -0.000908442)
(0.126431 -0.000400108 -0.000915073)
(0.126841 -0.000407174 -0.000904503)
(0.118458 -0.000307979 -0.00136248)
(0.118712 -0.00032071 -0.00136451)
(0.118966 -0.000335914 -0.001367)
(0.119228 -0.000352748 -0.00136609)
(0.119491 -0.000366261 -0.00134853)
(0.103508 -0.000182998 -0.00136519)
(0.103385 -0.000187722 -0.00136127)
(0.103255 -0.00019319 -0.00135657)
(0.103126 -0.000200678 -0.00135501)
(0.102996 -0.000205717 -0.00133092)
(0.0670276 -2.97032e-05 -0.00113388)
(0.0663179 -2.31439e-05 -0.00111716)
(0.0656233 -1.52905e-05 -0.00109856)
(0.0649243 -6.96127e-06 -0.00108265)
(0.0642431 1.93843e-06 -0.00105637)
(0.0635574 9.25552e-06 -0.000992595)
(0.0676759 -2.78676e-05 0.00110319)
(0.0670117 -4.56344e-05 0.00109198)
(0.0663435 -6.19284e-05 0.00107631)
(0.06568 -7.50862e-05 0.00105776)
(0.0650078 -8.23879e-05 0.00103991)
(0.0643535 -9.04627e-05 0.00100252)
(0.103944 0.000156634 0.00137076)
(0.103853 0.000154189 0.00136333)
(0.103762 0.000151749 0.00136264)
(0.103671 0.000149509 0.00135532)
(0.10358 0.00014633 0.00134125)
(0.103498 0.00014222 0.0013063)
(0.119097 0.000129652 0.00135594)
(0.119373 0.000133289 0.00135981)
(0.119656 0.000135944 0.00135975)
(0.119946 0.000137144 0.00134529)
(0.126083 4.55437e-05 0.000899559)
(0.126498 4.8885e-05 0.000901005)
(0.126916 5.14294e-05 0.000907881)
(0.127337 5.22001e-05 0.000900263)
(0.129388 9.40206e-06 0.000453084)
(0.129845 1.20789e-05 0.000453558)
(0.130304 1.38521e-05 0.000456905)
(0.130764 1.36166e-05 0.000453128)
(0.130382 -1.58597e-06 -6.05083e-07)
(0.130848 -1.11538e-06 -5.5681e-08)
(0.131315 -7.98749e-07 2.53164e-07)
(0.131785 -1.08193e-06 -1.0045e-06)
(0.132251 -1.88224e-06 -2.95023e-06)
(0.129394 -1.36278e-05 -0.00045475)
(0.12985 -1.38688e-05 -0.000454424)
(0.130308 -1.42743e-05 -0.00045808)
(0.130769 -1.49232e-05 -0.000460257)
(0.131228 -1.5713e-05 -0.000454475)
(0.12609 -5.06078e-05 -0.000901861)
(0.126504 -5.25145e-05 -0.000902128)
(0.126921 -5.43193e-05 -0.000909343)
(0.127344 -5.62286e-05 -0.000911578)
(0.127765 -5.85422e-05 -0.000894788)
(0.1191 -0.000136628 -0.00135986)
(0.119378 -0.00014017 -0.00136366)
(0.119662 -0.000142639 -0.00136715)
(0.119954 -0.000144995 -0.00136367)
(0.120251 -0.000147423 -0.00134184)
(0.103941 -0.000162713 -0.00137576)
(0.103853 -0.000160969 -0.00137081)
(0.103766 -0.000159272 -0.00137058)
(0.10368 -0.000158843 -0.00136473)
(0.1036 -0.00015927 -0.0013328)
(0.0676572 2.2773e-05 -0.00110864)
(0.0669903 3.98163e-05 -0.00109926)
(0.0663219 5.63395e-05 -0.00108767)
(0.0656516 7.18061e-05 -0.001073)
(0.0649834 8.4593e-05 -0.00105994)
(0.0677682 3.05977e-05 0.001143)
(0.0670457 2.31927e-05 0.00112863)
(0.0663434 1.31574e-05 0.00110852)
(0.0656425 3.96049e-06 0.00108776)
(0.064958 -2.62921e-06 0.00107218)
(0.0642741 -4.50784e-06 0.00105124)
(0.103636 0.000174125 0.00137641)
(0.103512 0.000176535 0.00136581)
(0.103385 0.000178508 0.00135606)
(0.103256 0.000181714 0.00135591)
(0.10312 0.000185267 0.00135249)
(0.102991 0.000185043 0.00132162)
(0.118208 0.000288606 0.00135775)
(0.11846 0.000300528 0.00135939)
(0.118712 0.00031465 0.00136276)
(0.118968 0.000329681 0.00136472)
(0.119228 0.000344952 0.00136236)
(0.119488 0.00035308 0.00134406)
(0.124809 0.000352098 0.000892042)
(0.12521 0.00035998 0.000893881)
(0.12561 0.000372802 0.000901585)
(0.126015 0.000387463 0.000911174)
(0.126424 0.000399755 0.000913391)
(0.126831 0.000401157 0.000896477)
(0.127954 0.00041967 0.000424964)
(0.128402 0.000421531 0.000426995)
(0.128847 0.000428622 0.000433552)
(0.129296 0.000436505 0.000440346)
(0.12975 0.000442565 0.00044356)
(0.130201 0.000440309 0.00043801)
(0.129389 0.000452561 -1.44244e-05)
(0.129845 0.000453833 -1.19066e-05)
(0.130302 0.000458833 -1.02977e-05)
(0.130764 0.000461886 -1.03206e-05)
(0.131222 0.000456552 -1.13625e-05)
(0.128409 0.000427752 -0.000425269)
(0.128856 0.000429755 -0.000425665)
(0.129305 0.000435617 -0.00043056)
(0.129759 0.000440218 -0.000434827)
(0.130211 0.000437174 -0.000431328)
(0.124986 0.000311451 -0.000800449)
(0.125399 0.000317852 -0.000802879)
(0.125816 0.000328369 -0.000813601)
(0.126239 0.000338397 -0.000820852)
(0.126661 0.000340225 -0.00080834)
(0.117629 0.000120606 -0.00119104)
(0.117925 0.000129839 -0.00119368)
(0.118225 0.000142927 -0.00119892)
(0.118539 0.000158318 -0.00120507)
(0.11885 0.000169093 -0.00119121)
(0.101638 -4.49289e-05 -0.00113676)
(0.10159 -3.52696e-05 -0.00113645)
(0.101539 -2.32643e-05 -0.00113987)
(0.101489 -1.02464e-05 -0.00115049)
(0.101431 -3.05079e-06 -0.00113341)
(0.0644772 0.000119963 -0.000899503)
(0.0638706 0.000124892 -0.000888967)
(0.0632689 0.000122828 -0.00085276)
(0.0626554 0.000116446 -0.000784145)
(0.062072 0.000111655 -0.000720397)
(0.0629315 0.000105671 0.000930005)
(0.062263 9.67847e-05 0.000896205)
(0.0616108 7.33047e-05 0.000828337)
(0.0609926 5.1375e-05 0.000764245)
(0.0603781 3.92587e-05 0.000724767)
(0.0597849 3.4626e-05 0.000703591)
(0.0995953 0.000189096 0.00113719)
(0.0994365 0.000199018 0.00112511)
(0.0992691 0.000213047 0.00112595)
(0.0990776 0.000224105 0.00112622)
(0.0988811 0.000232409 0.00112407)
(0.0986743 0.000233985 0.00110341)
(0.114689 0.000436246 0.00117201)
(0.114903 0.000453246 0.00117842)
(0.115112 0.000475625 0.00118745)
(0.115319 0.000502205 0.00120051)
(0.115524 0.000529755 0.00121394)
(0.115723 0.000539221 0.00120292)
(0.121381 0.000619033 0.000737553)
(0.121751 0.000628021 0.000747401)
(0.122119 0.000647547 0.000765006)
(0.122491 0.000670607 0.000784474)
(0.122866 0.000691453 0.000800233)
(0.123237 0.000689535 0.000795372)
(0.124566 0.000799411 0.00030638)
(0.124976 0.000799689 0.00031183)
(0.125387 0.000807506 0.000322411)
(0.125801 0.00081762 0.000334938)
(0.126223 0.000824537 0.000346072)
(0.126642 0.000811698 0.000346876)
(0.126084 0.000898383 -5.03749e-05)
(0.126496 0.000898558 -4.95874e-05)
(0.126913 0.000906553 -4.87464e-05)
(0.127334 0.000910088 -4.86467e-05)
(0.127753 0.000894556 -4.96286e-05)
(0.125217 0.000891218 -0.000363885)
(0.125619 0.000895665 -0.00037118)
(0.126022 0.000906466 -0.000382689)
(0.126431 0.000913245 -0.000393774)
(0.126837 0.000901649 -0.000395976)
(0.121759 0.000745797 -0.000630243)
(0.12213 0.000758194 -0.000642742)
(0.122502 0.000777957 -0.000665383)
(0.122881 0.000795116 -0.000686389)
(0.123255 0.000793687 -0.000687007)
(0.114003 0.000496331 -0.00093373)
(0.114265 0.000516051 -0.000950683)
(0.114523 0.000539233 -0.000970482)
(0.114793 0.000566902 -0.000998398)
(0.115053 0.000580475 -0.00100509)
(0.0966647 0.000159045 -0.000843427)
(0.0965719 0.000174937 -0.0008601)
(0.0964618 0.00019182 -0.000880426)
(0.0963395 0.000211097 -0.000905303)
(0.0962096 0.000220653 -0.000906166)
(0.0580965 0.000109119 -0.000461701)
(0.0575638 0.000104127 -0.000453142)
(0.0570467 9.37011e-05 -0.00044565)
(0.0564969 8.08078e-05 -0.00044473)
(0.0559602 6.94594e-05 -0.000451275)
(0.0540318 0.000141751 0.000493123)
(0.053474 0.000136396 0.000480626)
(0.0529359 0.000125357 0.000461153)
(0.0523995 0.000112943 0.000439073)
(0.0518705 0.000101838 0.000421138)
(0.0513583 9.52445e-05 0.000410942)
(0.0899788 0.000292768 0.000722331)
(0.0896991 0.000305135 0.000721443)
(0.0894091 0.000323112 0.000729439)
(0.0891048 0.000339983 0.000738413)
(0.0887862 0.00036095 0.00075481)
(0.0884586 0.000363259 0.000748817)
(0.106321 0.00066415 0.000828627)
(0.10642 0.000685866 0.000843607)
(0.106496 0.000713723 0.000862136)
(0.106567 0.000744444 0.00088233)
(0.106627 0.000778817 0.000905124)
(0.106683 0.000783573 0.000902921)
(0.113732 0.000919367 0.000483261)
(0.113992 0.000928027 0.000499495)
(0.114247 0.000941937 0.000519847)
(0.114509 0.000968331 0.000546927)
(0.114765 0.00100067 0.000576165)
(0.115022 0.000998155 0.000583672)
(0.117329 0.00118347 0.000117147)
(0.117618 0.00118328 0.000124404)
(0.117912 0.0011887 0.000135564)
(0.118211 0.00119437 0.000150066)
(0.11852 0.00120322 0.000167738)
(0.118826 0.00119011 0.000177904)
(0.1191 0.00135141 -0.000134637)
(0.119375 0.00135639 -0.000136705)
(0.119656 0.00135916 -0.000137345)
(0.119948 0.00135632 -0.000137345)
(0.120239 0.00133478 -0.000137881)
(0.118461 0.00135565 -0.000307853)
(0.118713 0.00135758 -0.000318783)
(0.118967 0.00135985 -0.000332232)
(0.119228 0.00135909 -0.000347071)
(0.119486 0.00134105 -0.00035645)
(0.114901 0.00117762 -0.000461658)
(0.115112 0.00118349 -0.000479479)
(0.115317 0.00119082 -0.000502073)
(0.115528 0.00120383 -0.00052958)
(0.115728 0.00119822 -0.000543547)
(0.106413 0.000839361 -0.000693609)
(0.106502 0.000857596 -0.000721728)
(0.106573 0.000877694 -0.000753632)
(0.106638 0.000899336 -0.000787084)
(0.106694 0.000903195 -0.000799877)
(0.0868962 0.000352948 -0.000617349)
(0.0866001 0.000361553 -0.000638595)
(0.0862972 0.000369807 -0.000661451)
(0.085965 0.000379648 -0.000687873)
(0.0856319 0.000373931 -0.000689165)
(0.0487005 8.98789e-05 -0.000286914)
(0.048211 8.01107e-05 -0.000282966)
(0.0477389 6.79538e-05 -0.000278645)
(0.0472432 5.48058e-05 -0.00027909)
(0.0467692 4.40592e-05 -0.000284091)
(0.0389902 0.000158377 0.000160333)
(0.038579 0.000152321 0.0001566)
(0.0381817 0.00014353 0.000156206)
(0.0377856 0.00013434 0.000156693)
(0.0373874 0.000126175 0.000157896)
(0.0370044 0.000118592 0.000155484)
(0.0687903 0.000246775 0.000200395)
(0.0682922 0.000257378 0.000201284)
(0.0678139 0.000272978 0.000209948)
(0.0673154 0.000288236 0.000221047)
(0.0668138 0.000304846 0.000235366)
(0.0663134 0.000297644 0.000227992)
(0.0872101 0.000593034 0.00035456)
(0.0869315 0.000613695 0.000365179)
(0.0866456 0.000633173 0.000372732)
(0.0863337 0.000653519 0.000380276)
(0.086012 0.000683247 0.000393647)
(0.0856776 0.000673626 0.000382148)
(0.0967762 0.000840426 0.00015205)
(0.0966913 0.000845425 0.000166168)
(0.0965883 0.000854502 0.000180085)
(0.0964791 0.000873632 0.000197122)
(0.0963507 0.000903243 0.000219374)
(0.0962217 0.000890287 0.000225231)
(0.101693 0.00114754 -4.69817e-05)
(0.10164 0.00113184 -4.146e-05)
(0.101587 0.00112977 -3.10132e-05)
(0.101535 0.00113185 -1.91131e-05)
(0.101478 0.00113901 -5.89876e-06)
(0.101421 0.00111784 1.60519e-06)
(0.103947 0.00136635 -0.000159383)
(0.103857 0.00136317 -0.000157629)
(0.103767 0.00135431 -0.000155299)
(0.103682 0.00134956 -0.000153777)
(0.103597 0.00132054 -0.000153022)
(0.103516 0.00135699 -0.000182393)
(0.103393 0.00135228 -0.000187142)
(0.103264 0.00134685 -0.00019236)
(0.103134 0.0013439 -0.000199551)
(0.103004 0.00131878 -0.00020273)
(0.0994304 0.00111985 -0.000210682)
(0.0992655 0.0011157 -0.000223796)
(0.0990828 0.00111516 -0.000236626)
(0.0988827 0.00111571 -0.000248122)
(0.0986776 0.0010962 -0.000250358)
(0.0896865 0.000715567 -0.000317894)
(0.0893924 0.000720319 -0.000336543)
(0.0890962 0.000731404 -0.000357847)
(0.088771 0.000749056 -0.000381744)
(0.0884449 0.00074318 -0.000385133)
(0.0682827 0.000185678 -0.00026466)
(0.0677804 0.000193056 -0.000282591)
(0.0672854 0.000206643 -0.000303711)
(0.0667682 0.000220029 -0.000321979)
(0.0662691 0.00021396 -0.000316865)
(0.0361171 -3.89358e-05 -8.11262e-05)
(0.0357435 -4.06797e-05 -8.4422e-05)
(0.0353747 -4.04162e-05 -9.07026e-05)
(0.0349874 -4.15062e-05 -9.82216e-05)
(0.0346104 -4.53161e-05 -0.000100786)
(0.0231203 5.30967e-05 -1.02749e-05)
(0.0228599 5.26773e-05 -9.44089e-06)
(0.0226017 5.17671e-05 -7.63954e-06)
(0.0223396 5.05095e-05 -5.82041e-06)
(0.022073 5.02836e-05 -3.63476e-06)
(0.0218192 4.80974e-05 -3.49229e-06)
(0.0365061 7.60361e-05 -2.15518e-05)
(0.0361315 7.729e-05 -2.45455e-05)
(0.035767 8.21862e-05 -2.4572e-05)
(0.0353942 8.79954e-05 -2.43232e-05)
(0.0350109 9.54583e-05 -2.45411e-05)
(0.0346394 9.54355e-05 -3.07508e-05)
(0.0491996 0.000285831 0.000107934)
(0.0487168 0.000277705 9.71192e-05)
(0.048258 0.00027069 8.5738e-05)
(0.0477802 0.000267492 7.50951e-05)
(0.0586537 0.000468262 0.000115153)
(0.0581338 0.000450477 0.00011048)
(0.0576313 0.000435874 0.000101798)
(0.0571079 0.000427852 9.19017e-05)
(0.0565885 0.00043019 8.17435e-05)
(0.0651253 0.00090257 0.000109399)
(0.0645319 0.000882889 0.000116237)
(0.063938 0.000866655 0.000118043)
(0.0633457 0.000835656 0.000116042)
(0.0627441 0.000773599 0.000111046)
(0.0676968 0.00109579 2.0929e-05)
(0.0670374 0.00108155 3.38766e-05)
(0.066381 0.00106922 4.89469e-05)
(0.0657117 0.00105405 6.48999e-05)
(0.0650613 0.00104044 8.10904e-05)
(0.0670544 0.00112311 -3.04998e-05)
(0.0663508 0.00110418 -2.71954e-05)
(0.0656637 0.0010834 -2.04256e-05)
(0.0649734 0.00106597 -1.22301e-05)
(0.0643034 0.00104445 -5.13656e-06)
(0.0622751 0.000895071 -0.000108237)
(0.0616208 0.000829969 -9.09202e-05)
(0.0610043 0.000762991 -6.93644e-05)
(0.0603919 0.000718792 -5.39227e-05)
(0.0598035 0.000694921 -4.72407e-05)
(0.053477 0.000481902 -0.000151883)
(0.0529276 0.000463778 -0.000144784)
(0.0523921 0.000438131 -0.000131318)
(0.0518638 0.000415617 -0.000117882)
(0.0513566 0.000403489 -0.00011002)
(0.0385787 0.000155901 -0.000165661)
(0.0381719 0.000153663 -0.000159251)
(0.0377782 0.000152376 -0.000150697)
(0.0373793 0.000152822 -0.00014361)
(0.0369943 0.000150995 -0.000136075)
(0.0228527 -1.32754e-05 -5.73833e-05)
(0.0225952 -1.19666e-05 -5.72489e-05)
(0.022336 -1.01186e-05 -5.68377e-05)
(0.0220671 -8.4457e-06 -5.69545e-05)
(0.0218097 -8.51626e-06 -5.51396e-05)
)
;

boundaryField
{
    inlet
    {
        type            fixedValue;
        value           nonuniform List<vector> 0();
    }
    ami1
    {
        type            cyclicAMI;
        value           nonuniform List<vector> 0();
    }
    walls
    {
        type            noSlip;
    }
    ami2
    {
        type            cyclicAMI;
        value           nonuniform List<vector> 0();
    }
    outlet
    {
        type            zeroGradient;
    }
    procBoundary5to6
    {
        type            processor;
        value           nonuniform List<vector> 
177
(
(0.0215286 5.66098e-06 5.10368e-05)
(0.0215286 5.66098e-06 5.10368e-05)
(0.0365453 -0.00015214 0.000124393)
(0.0507914 -0.000403556 0.00010009)
(0.0507914 -0.000403556 0.00010009)
(0.0507914 -0.000403556 0.00010009)
(0.0585526 -0.000657211 2.89581e-05)
(0.0629063 -0.000902297 -2.94131e-05)
(0.0629063 -0.000902297 -2.94131e-05)
(0.0630432 -0.000829119 -0.000104187)
(0.103451 -0.00127042 0.000138842)
(0.0603018 -0.000628662 -0.000111724)
(0.101307 -0.0010914 -3.0232e-05)
(0.0542778 -0.000449557 -5.46403e-05)
(0.0452869 -0.00027237 -3.04123e-05)
(0.0338472 -9.57252e-05 3.9163e-05)
(0.0338472 -9.57252e-05 3.9163e-05)
(0.0338472 -9.57252e-05 3.9163e-05)
(0.021305 -4.65902e-05 3.58846e-06)
(0.0338331 4.86443e-05 8.85481e-05)
(0.0657475 -0.000220857 0.000308542)
(0.0338331 4.86443e-05 8.85481e-05)
(0.0657475 -0.000220857 0.000308542)
(0.0657475 -0.000220857 0.000308542)
(0.0657475 -0.000220857 0.000308542)
(0.0877758 -0.00073063 0.000379524)
(0.0982469 -0.001062 0.000258467)
(0.102737 -0.00127004 0.000209647)
(0.103451 -0.00127042 0.000138842)
(0.101307 -0.0010914 -3.0232e-05)
(0.101307 -0.0010914 -3.0232e-05)
(0.095784 -0.000866696 -0.000245326)
(0.115583 -0.00100446 -0.000598804)
(0.0845566 -0.000655056 -0.000361434)
(0.106793 -0.000812605 -0.000908367)
(0.0646509 -0.000293646 -0.000214727)
(0.0362199 -0.000109621 -0.000147575)
(0.0362199 -0.000109621 -0.000147575)
(0.0453218 -6.89715e-06 0.000253436)
(0.0849806 -0.000353329 0.000654123)
(0.0849806 -0.000353329 0.000654123)
(0.0849806 -0.000353329 0.000654123)
(0.106809 -0.000900411 0.000798663)
(0.116121 -0.00118242 0.000556079)
(0.120013 -0.00131359 0.000376104)
(0.120854 -0.00129952 0.000143541)
(0.119492 -0.00116267 -0.000190803)
(0.127094 -0.000803238 -0.000342688)
(0.115583 -0.00100446 -0.000598804)
(0.106793 -0.000812605 -0.000908367)
(0.106793 -0.000812605 -0.000908367)
(0.0873932 -0.000380317 -0.000722215)
(0.0503086 -8.81986e-05 -0.000391177)
(0.0982346 -0.000264697 -0.00105983)
(0.0503086 -8.81986e-05 -0.000391177)
(0.0543342 -4.30022e-05 0.000442457)
(0.0609343 -0.000112287 0.000650305)
(0.0958041 -0.000241318 0.000855988)
(0.115558 -0.000591449 0.000987374)
(0.101293 -2.7642e-05 0.00108534)
(0.115558 -0.000591449 0.000987374)
(0.119152 -0.000188722 0.00117327)
(0.124 -0.000786371 0.000674382)
(0.127082 -0.000351808 0.000792117)
(0.127659 -0.000876993 0.000397058)
(0.130667 -0.000441812 0.000426135)
(0.128615 -0.000859004 5.87999e-05)
(0.127094 -0.000803238 -0.000342688)
(0.131691 -0.000452811 1.49807e-05)
(0.127094 -0.000803238 -0.000342688)
(0.127094 -0.000803238 -0.000342688)
(0.12401 -0.000684252 -0.000781159)
(0.127253 -0.000406341 -0.000884816)
(0.116131 -0.000561077 -0.001174)
(0.119756 -0.000374103 -0.00132748)
(0.0982346 -0.000264697 -0.00105983)
(0.102872 -0.000210481 -0.00129471)
(0.0585561 -4.27007e-05 -0.00065975)
(0.0609343 -0.000112287 0.000650305)
(0.101293 -2.7642e-05 0.00108534)
(0.119152 -0.000188722 0.00117327)
(0.119152 -0.000188722 0.00117327)
(0.120245 0.000135495 0.00133398)
(0.127082 -0.000351808 0.000792117)
(0.127765 5.08761e-05 0.000883978)
(0.130667 -0.000441812 0.000426135)
(0.131229 1.18881e-05 0.000444995)
(0.131691 -0.000452811 1.49807e-05)
(0.13067 -0.000433279 -0.000430667)
(0.127253 -0.000406341 -0.000884816)
(0.119756 -0.000374103 -0.00132748)
(0.102872 -0.000210481 -0.00129471)
(0.102872 -0.000210481 -0.00129471)
(0.0629081 1.2178e-05 -0.00090561)
(0.0643094 9.07197e-05 -0.00101333)
(0.0636988 -0.000103311 0.000927944)
(0.0635911 -1.35422e-05 0.000992218)
(0.120245 0.000135495 0.00133398)
(0.103434 0.000138511 0.00126017)
(0.120546 0.000135965 0.0013284)
(0.102869 0.000188857 0.00128828)
(0.120245 0.000135495 0.00133398)
(0.120245 0.000135495 0.00133398)
(0.127765 5.08761e-05 0.000883978)
(0.127765 5.08761e-05 0.000883978)
(0.131229 1.18881e-05 0.000444995)
(0.131229 1.18881e-05 0.000444995)
(0.131229 1.18881e-05 0.000444995)
(0.132714 -1.68298e-06 -2.15887e-06)
(0.131685 -1.57528e-05 -0.00044454)
(0.128188 -5.95184e-05 -0.000870234)
(0.120551 -0.00014844 -0.00131759)
(0.103531 -0.000157731 -0.00129481)
(0.0643094 9.07197e-05 -0.00101333)
(0.0635911 -1.35422e-05 0.000992218)
(0.102869 0.000188857 0.00128828)