/*--------------------------------*- C++ -*----------------------------------*\
| =========                 |                                                 |
| \\      /  F ield         | OpenFOAM: The Open Source CFD Toolbox           |
|  \\    /   O peration     | Version:  2212                                  |
|   \\  /    A nd           | Website:  www.openfoam.com                      |
|    \\/     M anipulation  |                                                 |
\*---------------------------------------------------------------------------*/
FoamFile
{
    version     2.0;
    format      ascii;
    arch        "LSB;label=32;scalar=64";
    class       volScalarField;
    location    "1";
    object      epsilon;
}
// * * * * * * * * * * * * * * * * * * * * * * * * * * * * * * * * * * * * * //

dimensions      [0 2 -3 0 0 0 0];

internalField   nonuniform List<scalar> 
678
(
0.0942194
0.0938192
0.0935867
0.0932974
0.0930397
0.092676
0.0348183
0.0346805
0.0345513
0.0344452
0.0343588
0.0342704
0.023299
0.0231508
0.0230505
0.0229562
0.0228837
0.0228296
0.0178247
0.017736
0.0176626
0.0176045
0.0175589
0.0154303
0.0153623
0.0153143
0.0152655
0.0152181
0.014352
0.0143051
0.0142563
0.0141885
0.0144265
0.0143712
0.0143191
0.014261
0.015942
0.0158606
0.0157898
0.0157355
0.0199324
0.0198469
0.019776
0.0197151
0.0314402
0.0313185
0.031212
0.0311143
0.0310024
0.0939222
0.0936557
0.0933314
0.0930086
0.0925293
0.0315221
0.0313582
0.031235
0.0311421
0.0310415
0.0133783
0.013142
0.0129597
0.0128657
0.0128087
0.0127726
0.00870067
0.00853971
0.00841382
0.00827405
0.00823524
0.0070161
0.00690024
0.00681753
0.00666781
0.00664419
0.00627447
0.00617097
0.00609859
0.00595899
0.00592149
0.00602157
0.00591648
0.00580525
0.00575082
0.00563248
0.00611697
0.0060201
0.00588061
0.0058437
0.00571651
0.00661042
0.00648064
0.00638385
0.0062311
0.00799019
0.00782636
0.0077085
0.0075668
0.0132698
0.0130551
0.0128677
0.012774
0.0347126
0.0346004
0.0344801
0.0343651
0.0342445
0.0200619
0.0199446
0.0198452
0.0197657
0.00802131
0.0078641
0.00767986
0.0075843
0.00752552
0.00563287
0.00552351
0.0054293
0.00526384
0.00521846
0.00502577
0.00492448
0.00484996
0.00468888
0.00463754
0.00487162
0.00476416
0.0046658
0.00458719
0.00449451
0.00484368
0.00473524
0.00463811
0.00455648
0.00445976
0.00488673
0.00478977
0.00464673
0.00456564
0.00441614
0.00499734
0.00490611
0.00482571
0.00466647
0.00458807
0.0056623
0.00558203
0.00540382
0.00535952
0.0052237
0.00868107
0.00851482
0.00837727
0.00823834
0.0231819
0.0230712
0.0229667
0.0228795
0.0228106
0.0160019
0.0159104
0.015832
0.015773
0.00662709
0.00650374
0.0063001
0.00623951
0.00500227
0.0049003
0.0047803
0.00468659
0.00455809
0.00467916
0.00461139
0.00447561
0.00434263
0.00420028
0.00465453
0.00459551
0.00445682
0.00433191
0.00419032
0.00467735
0.00462842
0.00447656
0.00434685
0.00420324
0.00477458
0.00470025
0.0045545
0.00441306
0.00429588
0.00416321
0.00465806
0.0046088
0.00445835
0.00433639
0.00419827
0.00506213
0.00496767
0.00480411
0.00474938
0.00459858
0.00706683
0.00695654
0.00675446
0.00670995
0.00658859
0.0178311
0.0177382
0.0176561
0.01759
0.0175326
0.0145089
0.0144426
0.0143802
0.0143271
0.0142747
0.00616177
0.00605713
0.00587998
0.00583374
0.00570673
0.00497001
0.00484883
0.00475074
0.00460759
0.00454179
0.00438986
0.00476388
0.00469173
0.00455318
0.00439976
0.00427255
0.00413669
0.00483206
0.00475861
0.00461111
0.00445563
0.00432408
0.00418417
0.00488049
0.00480857
0.00465228
0.00449649
0.00436402
0.00422234
0.00483065
0.00476026
0.00461001
0.0044548
0.00432519
0.00418539
0.00476138
0.00469261
0.00454374
0.00439693
0.00427769
0.00414056
0.00492907
0.00482196
0.00472737
0.00462223
0.00455498
0.00439973
0.00635954
0.00623333
0.00615076
0.00598576
0.00595049
0.00583487
0.0154847
0.0153913
0.0153084
0.0152361
0.0151751
0.0143906
0.0143224
0.0142654
0.0142159
0.0141698
0.00605956
0.00592454
0.00583667
0.00567125
0.00562299
0.00500862
0.00488552
0.00477484
0.00467518
0.0045785
0.00448648
0.00436037
0.00488272
0.0048066
0.00464923
0.00449706
0.00436083
0.00424258
0.00411278
0.00499314
0.00490523
0.00473615
0.00457862
0.00443482
0.00431028
0.00417676
0.0049252
0.00485458
0.0046813
0.0045211
0.00438452
0.00424006
0.00487602
0.00480297
0.00464161
0.00448212
0.00434739
0.00420392
0.00478229
0.0047152
0.00455016
0.00439977
0.00427739
0.00413997
0.00489493
0.00478113
0.00467658
0.00458386
0.00451411
0.00435384
0.00608425
0.00595193
0.00584261
0.00573511
0.00567926
0.00556247
0.0144729
0.0143913
0.0143113
0.0142383
0.0141807
0.0141238
0.0155418
0.0154316
0.0153544
0.0152884
0.0152361
0.0151917
0.00635172
0.006232
0.00615188
0.00598479
0.00595327
0.00584394
0.00495855
0.0048302
0.00472735
0.00459666
0.0045274
0.00437505
0.00476571
0.0046865
0.00451867
0.00436491
0.00423524
0.00410067
0.0047885
0.00472467
0.00456986
0.00441082
0.00427732
0.00413798
0.00486345
0.00478725
0.00462971
0.00446752
0.00433085
0.00418701
0.00482951
0.00475516
0.00459618
0.00443576
0.00430149
0.00415842
0.00477224
0.00469866
0.00453238
0.00437882
0.00425622
0.00411929
0.0049202
0.00480601
0.00471321
0.00457891
0.00451412
0.00435906
0.00615845
0.00602833
0.0059456
0.00577503
0.00574355
0.00563517
0.0145526
0.0144593
0.0143754
0.0143057
0.014251
0.0142057
0.0179285
0.0178182
0.0177223
0.01765
0.0175941
0.0175473
0.00708097
0.00694508
0.0068445
0.00668624
0.00665801
0.00656779
0.00505931
0.00495652
0.00487816
0.00470417
0.00465597
0.00452776
0.00472973
0.00466109
0.00450327
0.00435297
0.00423375
0.00410864
0.0047289
0.00465566
0.00450487
0.00435055
0.0042247
0.00409196
0.00474144
0.00467056
0.00452548
0.00437114
0.00424471
0.00411241
0.00475476
0.00468087
0.00452221
0.0043652
0.00424044
0.00410333
0.00476827
0.00468908
0.00453846
0.00437487
0.00425476
0.00412362
0.00506131
0.00494434
0.00485702
0.00466552
0.00461316
0.00447913
0.00664186
0.0065025
0.00640649
0.00623704
0.00620864
0.00611563
0.0160865
0.0159585
0.0158549
0.0157759
0.0157204
0.015684
0.023272
0.0231428
0.0230303
0.0229413
0.0228765
0.0228279
0.0087356
0.00858853
0.00841929
0.00829887
0.0082155
0.00823515
0.00565998
0.00554747
0.00544174
0.00527193
0.00522467
0.00512903
0.00501292
0.004901
0.00481791
0.0046371
0.00458379
0.00446009
0.00487956
0.00476615
0.00466281
0.00455875
0.00447074
0.00434486
0.00486625
0.00475174
0.00464747
0.00455928
0.00444829
0.00436236
0.0049057
0.00479219
0.00469611
0.00458461
0.0045165
0.00436435
0.00506795
0.00496023
0.0048831
0.00470288
0.0046581
0.00452584
0.00568845
0.00556911
0.00546221
0.00528652
0.00523775
0.00513118
0.00802819
0.00786255
0.007701
0.00757216
0.00749417
0.00746073
0.0200626
0.0199385
0.0198418
0.0197684
0.0197178
0.0196799
0.0348052
0.034672
0.034547
0.0344407
0.034359
0.0342786
0.0133424
0.0131167
0.0129177
0.0128255
0.0127878
0.0128064
0.0080317
0.00787492
0.0076821
0.00758147
0.00750438
0.00752454
0.00662803
0.00649098
0.0063893
0.00622325
0.0061988
0.00611648
0.00612866
0.00600184
0.00591254
0.00576035
0.00572237
0.0056222
0.00605481
0.00592808
0.00580905
0.00572023
0.0056312
0.00558116
0.006328
0.00619554
0.00610976
0.00594684
0.00591298
0.00580828
0.00705428
0.00691891
0.00681406
0.00665699
0.0066254
0.0065347
0.00871406
0.00857119
0.0083781
0.00826875
0.00818949
0.00815062
0.0133059
0.0130719
0.0128675
0.0127749
0.0127278
0.012752
0.0314668
0.0313185
0.0312019
0.0311065
0.0310328
0.030953
0.0941932
0.0938808
0.0935759
0.0932792
0.093045
0.092741
0.0315335
0.0313952
0.031288
0.0311975
0.0311262
0.0310471
0.0203744
0.0202337
0.020107
0.0200002
0.0199131
0.0198446
0.0197961
0.019758
0.0162551
0.0161153
0.0159977
0.0159049
0.0158341
0.0157828
0.0157482
0.0146908
0.0145797
0.0144868
0.0144095
0.0143471
0.0142984
0.0142558
0.0144948
0.0143998
0.0143233
0.0142612
0.0142105
0.0141617
0.0155301
0.0154223
0.0153429
0.015281
0.0152286
0.0151845
0.0179139
0.017796
0.017701
0.01763
0.0175767
0.0175325
0.0232445
0.0231061
0.0229942
0.0229086
0.0228457
0.0227997
0.0347662
0.0346113
0.0344816
0.0343768
0.0342959
0.0342185
0.0940382
0.0936973
0.0933807
0.0930748
0.0928368
0.0925242
)
;

boundaryField
{
    inlet
    {
        type            fixedValue;
        value           nonuniform List<scalar> 0();
    }
    ami1
    {
        type            cyclicAMI;
        value           nonuniform List<scalar> 0();
    }
    walls
    {
        type            epsilonWallFunction;
        blending        stepwise;
        value           nonuniform List<scalar> 
244
(
0.0942194
0.0348183
0.023299
0.0938192
0.0346805
0.0231508
0.0178247
0.0154303
0.0314402
0.0939222
0.0935867
0.0345513
0.0230505
0.017736
0.0153623
0.014352
0.0144265
0.015942
0.0199324
0.0313185
0.0936557
0.0932974
0.0344452
0.0229562
0.0176626
0.0153143
0.0143051
0.0143712
0.0158606
0.0198469
0.031212
0.0933314
0.0930397
0.0343588
0.0228837
0.0176045
0.0152655
0.0142563
0.0143191
0.0157898
0.019776
0.0311143
0.0930086
0.092676
0.0342704
0.0228296
0.0175589
0.0152181
0.0141885
0.014261
0.0157355
0.0197151
0.0310024
0.0925293
0.0144729
0.0145526
0.0160865
0.0200626
0.0314668
0.0940382
0.0939222
0.0347126
0.0231819
0.0178311
0.0154847
0.0143913
0.0144593
0.0159585
0.0199385
0.0313185
0.0936973
0.0936557
0.0346004
0.0230712
0.0177382
0.0153913
0.0143113
0.0143754
0.0158549
0.0198418
0.0312019
0.0933807
0.0933314
0.0344801
0.0229667
0.0176561
0.0153084
0.0142383
0.0143057
0.0157759
0.0197684
0.0311065
0.0930748
0.0930086
0.0343651
0.0228795
0.01759
0.0152361
0.0141807
0.014251
0.0157204
0.0197178
0.0310328
0.0928368
0.0925293
0.0342445
0.0228106
0.0175326
0.0151751
0.0141238
0.0142057
0.015684
0.0196799
0.030953
0.0925242
0.0203744
0.0202337
0.0162551
0.0146908
0.0941932
0.0315335
0.020107
0.0161153
0.0145797
0.0144948
0.0155301
0.0179139
0.0232445
0.0347662
0.0940382
0.0938808
0.0313952
0.0200002
0.0159977
0.0144868
0.0143998
0.0154223
0.017796
0.0231061
0.0346113
0.0936973
0.0935759
0.031288
0.0199131
0.0159049
0.0144095
0.0143233
0.0153429
0.017701
0.0229942
0.0344816
0.0933807
0.0932792
0.0311975
0.0198446
0.0158341
0.0143471
0.0142612
0.015281
0.01763
0.0229086
0.0343768
0.0930748
0.093045
0.0311262
0.0197961
0.0157828
0.0142984
0.0142105
0.0152286
0.0175767
0.0228457
0.0342959
0.0928368
0.092741
0.0310471
0.019758
0.0157482
0.0142558
0.0141617
0.0151845
0.0175325
0.0227997
0.0342185
0.0925242
0.0942194
0.0155418
0.0179285
0.023272
0.0348052
0.0941932
0.0938192
0.0315221
0.0145089
0.0143906
0.0154316
0.0178182
0.0231428
0.034672
0.0938808
0.0935867
0.0313582
0.0200619
0.0160019
0.0144426
0.0143224
0.0153544
0.0177223
0.0230303
0.034547
0.0935759
0.0932974
0.031235
0.0199446
0.0159104
0.0143802
0.0142654
0.0152884
0.01765
0.0229413
0.0344407
0.0932792
0.0930397
0.0311421
0.0198452
0.015832
0.0143271
0.0142159
0.0152361
0.0175941
0.0228765
0.034359
0.093045
0.092676
0.0310415
0.0197657
0.015773
0.0142747
0.0141698
0.0151917
0.0175473
0.0228279
0.0342786
0.092741
)
;
    }
    ami2
    {
        type            cyclicAMI;
        value           nonuniform List<scalar> 0();
    }
    outlet
    {
        type            zeroGradient;
    }
    procBoundary6to5
    {
        type            processor;
        value           nonuniform List<scalar> 
177
(
0.0945225
0.031651
0.0349836
0.02342
0.0179384
0.00858078
0.0179384
0.0155312
0.0144259
0.0144259
0.0144259
0.0145114
0.0145114
0.016022
0.0200282
0.0200282
0.0315408
0.0130675
0.0941219
0.031651
0.031651
0.0201365
0.0131604
0.00858078
0.00787748
0.00858078
0.00686622
0.00613195
0.00588914
0.00594391
0.00644781
0.00644781
0.00644781
0.00782587
0.00782587
0.0130675
0.0130675
0.0348182
0.0201365
0.0201365
0.00787748
0.00648094
0.00549218
0.00490464
0.00472037
0.0046894
0.00477208
0.00477208
0.00485931
0.00550313
0.00853425
0.00853425
0.00853425
0.00853425
0.0232918
0.0160735
0.0160735
0.00648094
0.00648094
0.00648094
0.00487348
0.00487348
0.00455978
0.00455978
0.00454708
0.00454708
0.00452773
0.00452773
0.00452773
0.00461047
0.00450406
0.00450406
0.00450406
0.00495289
0.00495289
0.00695168
0.00695168
0.0179457
0.014608
0.00602066
0.00602066
0.00482655
0.00482655
0.00462448
0.00462448
0.00470261
0.00470261
0.00476816
0.00468773
0.0046085
0.00482466
0.00623455
0.0155748
0.0155748
0.0155748
0.0145213
0.0145213
0.00595501
0.00595156
0.00595156
0.00595156
0.00490275
0.0048685
0.00475317
0.00465484
0.00486083
0.00481585
0.00465233
0.00481585
0.00476282
0.00465487
0.00478206
0.00594779
0.0146116
0.0156739
0.00622456
0.0048685
0.00465484
0.00465233
0.00475914
0.00472405
0.0046583
0.00479587
0.00604823
0.0146967
0.0180648
0.00691497
0.00492139
0.00460099
0.00460524
0.00460807
0.00463255
0.00464684
0.00490581
0.00650326
0.0162234
0.0233997
0.00855205
0.00552726
0.00489827
0.00474827
0.00476856
0.00480759
0.00494556
0.00551112
0.00782992
0.0202194
0.0349513
0.0131281
0.00786902
0.00786006
0.00786006
0.00645782
0.00645782
0.00600429
0.00600429
0.00596065
0.00620977
0.00692864
0.00854536
0.013118
0.03166
0.0944932
0.0319178
0.0317004
0.0317004
0.020541
0.0164136
0.0164136
0.0148545
0.0146405
0.0146405
0.0156646
0.0180563
0.0233929
0.0349428
0.0944259
)
;
    }
}


// ************************************************************************* //
