/*--------------------------------*- C++ -*----------------------------------*\
| =========                 |                                                 |
| \\      /  F ield         | OpenFOAM: The Open Source CFD Toolbox           |
|  \\    /   O peration     | Version:  2212                                  |
|   \\  /    A nd           | Website:  www.openfoam.com                      |
|    \\/     M anipulation  |                                                 |
\*---------------------------------------------------------------------------*/
FoamFile
{
    version     2.0;
    format      ascii;
    arch        "LSB;label=32;scalar=64";
    class       volScalarField;
    location    "1";
    object      k;
}
// * * * * * * * * * * * * * * * * * * * * * * * * * * * * * * * * * * * * * //

dimensions      [0 2 -2 0 0 0 0];

internalField   nonuniform List<scalar> 
678
(
0.00191148
0.00190521
0.00190131
0.00189666
0.00189256
0.00188679
0.00163687
0.00163167
0.00162682
0.00162277
0.00161941
0.00161596
0.00160842
0.00160085
0.00159533
0.00159013
0.00158598
0.00158271
0.00155081
0.00154471
0.00153933
0.00153496
0.00153131
0.00152044
0.00151406
0.00150915
0.00150502
0.00150129
0.00148016
0.00147555
0.00147158
0.00146732
0.00145063
0.00144509
0.00144067
0.0014364
0.00143613
0.00143005
0.00142462
0.00142036
0.0014455
0.0014404
0.00143586
0.00143199
0.00152607
0.00152119
0.00151698
0.00151319
0.00150893
0.00190669
0.00190222
0.00189713
0.00189217
0.00188481
0.00152803
0.00152231
0.0015178
0.0015142
0.0015103
0.000976437
0.000963595
0.000956401
0.000950609
0.000946699
0.000944594
0.00112297
0.00110697
0.00109514
0.00108822
0.00108379
0.00123918
0.00122084
0.00120547
0.00119645
0.00118757
0.00129831
0.00127919
0.00126244
0.00125121
0.00123922
0.00132209
0.00130156
0.00128425
0.00127014
0.00125715
0.00128727
0.00126418
0.0012494
0.00123716
0.0012284
0.00117458
0.0011566
0.00114346
0.0011371
0.00102806
0.0010136
0.00100455
0.00100228
0.000959866
0.000950007
0.000944812
0.000942418
0.00163271
0.00162831
0.00162377
0.00161958
0.00161514
0.00145079
0.00144458
0.0014392
0.00143468
0.00104299
0.00102666
0.00101735
0.00101205
0.00100881
0.00123144
0.00120917
0.00119111
0.00117961
0.00116932
0.00139659
0.00137028
0.00134726
0.00133112
0.00131437
0.00150092
0.00147175
0.00144641
0.0014264
0.00140595
0.00154426
0.00151349
0.00148684
0.0014656
0.001444
0.00151439
0.00148333
0.00145769
0.00143742
0.00141858
0.00140176
0.00137457
0.00135108
0.00133401
0.00131759
0.00123155
0.00120723
0.00119057
0.00117672
0.00116616
0.0011123
0.001096
0.00108568
0.00108117
0.00160223
0.00159624
0.0015906
0.00158581
0.00158187
0.00143933
0.00143277
0.00142709
0.00142268
0.00118005
0.0011607
0.00115031
0.00114354
0.00140472
0.00137636
0.0013534
0.00133607
0.00132068
0.00160418
0.00156982
0.0015408
0.00151812
0.00149589
0.00173229
0.00169453
0.00166191
0.00163544
0.00160923
0.00178095
0.00174023
0.00170564
0.00167764
0.00165042
0.00177668
0.00173312
0.00169693
0.00166532
0.00163938
0.00161385
0.00160525
0.00156961
0.00153979
0.00151632
0.00149359
0.00139754
0.00136845
0.00134549
0.00132722
0.00131107
0.00123889
0.00121755
0.00120377
0.00119268
0.00118522
0.00155121
0.00154469
0.00153907
0.00153421
0.00153004
0.0014572
0.00145122
0.0014462
0.00144145
0.00143729
0.00129108
0.00126735
0.00125127
0.00123948
0.00123203
0.00154964
0.00151413
0.00148359
0.0014588
0.00143931
0.00142139
0.00177915
0.00173602
0.00169843
0.00166653
0.00164076
0.00161542
0.00192526
0.0018782
0.0018366
0.00180063
0.00177076
0.00174156
0.0019742
0.00192657
0.00188391
0.00184666
0.00181539
0.00178525
0.00192177
0.00187538
0.00183395
0.00179799
0.00176811
0.00173913
0.00176902
0.00172669
0.00168933
0.00165719
0.001631
0.00160527
0.00153299
0.00149869
0.00146852
0.0014428
0.00142202
0.00140258
0.00131956
0.00129616
0.00127614
0.00126102
0.00124834
0.00123756
0.00152322
0.00151594
0.00150937
0.0015038
0.00149906
0.00148536
0.00147946
0.00147432
0.00147003
0.00146603
0.00132466
0.00130031
0.00128121
0.00126923
0.00125802
0.00162096
0.00157899
0.00154406
0.00151354
0.00148747
0.00146704
0.00144723
0.00186798
0.00181771
0.00177516
0.00173768
0.00170519
0.00167842
0.0016519
0.00202895
0.00197293
0.00192666
0.00188502
0.00184831
0.00181724
0.00178678
0.0020304
0.00198041
0.00193587
0.00189697
0.00186417
0.0018325
0.00197289
0.00192481
0.00188186
0.00184446
0.00181318
0.00178303
0.00181602
0.00177189
0.0017332
0.00169997
0.00167276
0.00164611
0.00157676
0.0015407
0.00150934
0.00148243
0.00146056
0.00144012
0.00134649
0.00132136
0.0012994
0.00128132
0.00126693
0.00125471
0.00149175
0.00148481
0.00147827
0.00147259
0.00146761
0.0014632
0.00152875
0.00152099
0.00151373
0.00150811
0.00150349
0.00149972
0.00132138
0.00129722
0.00127686
0.00126235
0.00125095
0.00124169
0.0015357
0.0015007
0.00147083
0.00144627
0.00142687
0.00140871
0.00177212
0.00172912
0.00169188
0.00166015
0.0016344
0.00160896
0.00192556
0.00187847
0.00183673
0.00180061
0.00177052
0.0017411
0.00197388
0.00192593
0.00188303
0.00184566
0.00181442
0.00178408
0.0019203
0.00187349
0.00183187
0.00179583
0.00176599
0.001737
0.00177205
0.00172908
0.00169163
0.00165969
0.00163377
0.00160852
0.00154336
0.00150793
0.00147712
0.00145175
0.0014314
0.00141318
0.00130481
0.00127999
0.0012592
0.0012451
0.00123366
0.00122636
0.00146131
0.00145357
0.00144708
0.00144141
0.00143674
0.00143282
0.00155786
0.00155038
0.00154391
0.00153844
0.00153419
0.00153066
0.00125813
0.00123559
0.00121802
0.00120652
0.00119759
0.00119109
0.00142596
0.00139429
0.00136738
0.00134701
0.0013311
0.00131688
0.00163744
0.0015985
0.00156541
0.00153791
0.00151625
0.00149516
0.00177527
0.00173264
0.00169547
0.00166392
0.00163834
0.00161328
0.00181721
0.00177323
0.00173451
0.00170142
0.00167445
0.00164799
0.00176672
0.00172374
0.00168627
0.00165446
0.00162874
0.00160361
0.00163307
0.0015936
0.00155975
0.00153172
0.00150971
0.00148853
0.00142607
0.0013931
0.00136488
0.00134361
0.00132694
0.00131297
0.00120476
0.001181
0.00116212
0.00115032
0.00114157
0.00113792
0.00144679
0.001438
0.00143059
0.00142477
0.00142041
0.00141733
0.00160733
0.00160045
0.00159433
0.00158934
0.00158557
0.00158257
0.00113768
0.00111772
0.00110447
0.00109577
0.00109162
0.00108682
0.00125315
0.00122636
0.0012052
0.00119103
0.0011808
0.00117301
0.00143069
0.00139826
0.00137106
0.00135085
0.00133533
0.00132195
0.00154638
0.00151092
0.00148105
0.00145653
0.00143762
0.00142016
0.0015775
0.00154145
0.00151049
0.00148416
0.00146387
0.00144374
0.00153085
0.00149599
0.00146613
0.00144133
0.00142185
0.00140381
0.00142118
0.00138913
0.0013617
0.00134095
0.00132476
0.00131061
0.00124857
0.0012209
0.00119869
0.00118375
0.00117275
0.00116514
0.0010497
0.00102982
0.0010168
0.00100936
0.00100578
0.00100488
0.0014537
0.00144658
0.00144081
0.00143638
0.00143302
0.00143038
0.0016364
0.00163131
0.00162658
0.00162252
0.00161931
0.00161611
0.000972835
0.000961032
0.000954309
0.000950181
0.000947766
0.000945483
0.00105614
0.00103673
0.00102511
0.00101792
0.00101518
0.00101233
0.00121293
0.00118868
0.00117073
0.00116037
0.001153
0.00114927
0.00131149
0.00128593
0.00126594
0.00125291
0.00124311
0.00123659
0.0013509
0.00132397
0.00130206
0.0012845
0.00127214
0.00126017
0.00131875
0.00129512
0.00127563
0.00126184
0.00125116
0.00124194
0.0012551
0.00123236
0.00121486
0.00120379
0.00119557
0.00118951
0.00113501
0.00111403
0.0011006
0.00109217
0.00108763
0.00108473
0.000969598
0.000957019
0.00094998
0.000945853
0.000943652
0.000941862
0.00152781
0.00152207
0.00151746
0.00151363
0.00151061
0.00150733
0.00191108
0.00190596
0.00190103
0.00189625
0.00189247
0.00188754
0.00152973
0.00152434
0.00152008
0.00151644
0.0015135
0.00151029
0.00147067
0.0014625
0.00145543
0.0014491
0.00144395
0.00143987
0.00143681
0.00143414
0.00145772
0.00144829
0.00144007
0.00143335
0.00142812
0.00142416
0.00142122
0.00147153
0.00146303
0.0014554
0.00144919
0.00144405
0.00143984
0.00143625
0.00149346
0.00148572
0.00147928
0.00147408
0.00146977
0.00146582
0.00152793
0.00151997
0.0015131
0.00150762
0.00150323
0.00149949
0.00155679
0.0015491
0.00154264
0.00153744
0.00153339
0.00152999
0.00160606
0.00159883
0.00159278
0.00158799
0.00158434
0.00158146
0.00163527
0.00162955
0.00162467
0.00162064
0.00161747
0.00161435
0.00190913
0.00190361
0.00189849
0.00189358
0.00188973
0.00188464
)
;

boundaryField
{
    inlet
    {
        type            fixedValue;
        value           nonuniform List<scalar> 0();
    }
    ami1
    {
        type            cyclicAMI;
        value           nonuniform List<scalar> 0();
    }
    walls
    {
        type            kqRWallFunction;
        value           nonuniform List<scalar> 
244
(
0.00191148
0.00163687
0.00160842
0.00190521
0.00163167
0.00160085
0.00155081
0.00152044
0.00152607
0.00190669
0.00190131
0.00162682
0.00159533
0.00154471
0.00151406
0.00148016
0.00145063
0.00143613
0.0014455
0.00152119
0.00190222
0.00189666
0.00162277
0.00159013
0.00153933
0.00150915
0.00147555
0.00144509
0.00143005
0.0014404
0.00151698
0.00189713
0.00189256
0.00161941
0.00158598
0.00153496
0.00150502
0.00147158
0.00144067
0.00142462
0.00143586
0.00151319
0.00189217
0.00188679
0.00161596
0.00158271
0.00153131
0.00150129
0.00146732
0.0014364
0.00142036
0.00143199
0.00150893
0.00188481
0.00149175
0.00146131
0.00144679
0.0014537
0.00152781
0.00190913
0.00190669
0.00163271
0.00160223
0.00155121
0.00152322
0.00148481
0.00145357
0.001438
0.00144658
0.00152207
0.00190361
0.00190222
0.00162831
0.00159624
0.00154469
0.00151594
0.00147827
0.00144708
0.00143059
0.00144081
0.00151746
0.00189849
0.00189713
0.00162377
0.0015906
0.00153907
0.00150937
0.00147259
0.00144141
0.00142477
0.00143638
0.00151363
0.00189358
0.00189217
0.00161958
0.00158581
0.00153421
0.0015038
0.00146761
0.00143674
0.00142041
0.00143302
0.00151061
0.00188973
0.00188481
0.00161514
0.00158187
0.00153004
0.00149906
0.0014632
0.00143282
0.00141733
0.00143038
0.00150733
0.00188464
0.00147067
0.0014625
0.00145772
0.00147153
0.00191108
0.00152973
0.00145543
0.00144829
0.00146303
0.00149346
0.00152793
0.00155679
0.00160606
0.00163527
0.00190913
0.00190596
0.00152434
0.0014491
0.00144007
0.0014554
0.00148572
0.00151997
0.0015491
0.00159883
0.00162955
0.00190361
0.00190103
0.00152008
0.00144395
0.00143335
0.00144919
0.00147928
0.0015131
0.00154264
0.00159278
0.00162467
0.00189849
0.00189625
0.00151644
0.00143987
0.00142812
0.00144405
0.00147408
0.00150762
0.00153744
0.00158799
0.00162064
0.00189358
0.00189247
0.0015135
0.00143681
0.00142416
0.00143984
0.00146977
0.00150323
0.00153339
0.00158434
0.00161747
0.00188973
0.00188754
0.00151029
0.00143414
0.00142122
0.00143625
0.00146582
0.00149949
0.00152999
0.00158146
0.00161435
0.00188464
0.00191148
0.00152875
0.00155786
0.00160733
0.0016364
0.00191108
0.00190521
0.00152803
0.0014572
0.00148536
0.00152099
0.00155038
0.00160045
0.00163131
0.00190596
0.00190131
0.00152231
0.00145079
0.00143933
0.00145122
0.00147946
0.00151373
0.00154391
0.00159433
0.00162658
0.00190103
0.00189666
0.0015178
0.00144458
0.00143277
0.0014462
0.00147432
0.00150811
0.00153844
0.00158934
0.00162252
0.00189625
0.00189256
0.0015142
0.0014392
0.00142709
0.00144145
0.00147003
0.00150349
0.00153419
0.00158557
0.00161931
0.00189247
0.00188679
0.0015103
0.00143468
0.00142268
0.00143729
0.00146603
0.00149972
0.00153066
0.00158257
0.00161611
0.00188754
)
;
    }
    ami2
    {
        type            cyclicAMI;
        value           nonuniform List<scalar> 0();
    }
    outlet
    {
        type            zeroGradient;
    }
    procBoundary6to5
    {
        type            processor;
        value           nonuniform List<scalar> 
177
(
0.00191681
0.00153342
0.00164295
0.00161488
0.00155803
0.00114745
0.00155803
0.00152836
0.00148706
0.00148706
0.00148706
0.00145713
0.00145713
0.00144182
0.00145098
0.00145098
0.0015303
0.0009733
0.0019104
0.00153342
0.00153342
0.00145518
0.000991877
0.00114745
0.00106636
0.00114745
0.00126695
0.00132822
0.0013526
0.00131719
0.00120158
0.00120158
0.00120158
0.00105035
0.00105035
0.0009733
0.0009733
0.00163697
0.00145518
0.00145518
0.00106636
0.00120713
0.0012651
0.00143517
0.00154168
0.00158556
0.00155568
0.00155568
0.00144082
0.00126365
0.00113486
0.00113486
0.00113486
0.00113486
0.00160816
0.00144466
0.00144466
0.00120713
0.00120713
0.00120713
0.00144397
0.00144397
0.00164703
0.00164703
0.00177619
0.00177619
0.00182569
0.00182569
0.00182569
0.00182466
0.00164735
0.00164735
0.00164735
0.00143522
0.00143522
0.00126723
0.00126723
0.0015585
0.00146467
0.00132271
0.00132271
0.00159569
0.00159569
0.00182855
0.00182855
0.00197725
0.00197725
0.00202692
0.0019738
0.00181817
0.00157725
0.00135233
0.00153042
0.00153042
0.00153042
0.00149549
0.00149549
0.00138797
0.00135707
0.00135707
0.00135707
0.00166763
0.0015806
0.00192093
0.00182197
0.00208486
0.00208452
0.00197789
0.00208452
0.00202589
0.00186639
0.00162251
0.00138049
0.0015028
0.00153832
0.00135409
0.0015806
0.00182197
0.00197789
0.00202688
0.0019726
0.00182189
0.00158918
0.00134001
0.00147177
0.00156634
0.00128973
0.001468
0.00168531
0.00182533
0.00186785
0.00181661
0.00168086
0.00146987
0.00123854
0.00145595
0.0016141
0.00116501
0.00129014
0.00147432
0.00159281
0.00162381
0.00157624
0.00146355
0.00128581
0.00107769
0.00146211
0.00164195
0.00099049
0.00110399
0.00108293
0.00108293
0.00124598
0.00124598
0.00134682
0.00134682
0.00138211
0.00135144
0.00128674
0.00116265
0.000988305
0.00153503
0.00191626
0.00154429
0.0015362
0.0015362
0.00148004
0.00146824
0.00146824
0.00148341
0.00150468
0.00150468
0.00153757
0.00156571
0.00161373
0.0016417
0.00191544
)
;
    }
}


// ************************************************************************* //
