/*--------------------------------*- C++ -*----------------------------------*\
| =========                 |                                                 |
| \\      /  F ield         | OpenFOAM: The Open Source CFD Toolbox           |
|  \\    /   O peration     | Version:  2212                                  |
|   \\  /    A nd           | Website:  www.openfoam.com                      |
|    \\/     M anipulation  |                                                 |
\*---------------------------------------------------------------------------*/
FoamFile
{
    version     2.0;
    format      ascii;
    arch        "LSB;label=32;scalar=64";
    class       surfaceScalarField;
    location    "1";
    object      phi;
}
// * * * * * * * * * * * * * * * * * * * * * * * * * * * * * * * * * * * * * //

dimensions      [0 3 -1 0 0 0 0];

oriented        oriented;

internalField   nonuniform List<scalar> 
1763
(
5.93471e-08
-3.45225e-08
5.92291e-08
-3.45604e-08
3.46787e-08
5.91038e-08
-3.45717e-08
3.46972e-08
5.89601e-08
-3.45783e-08
3.47221e-08
5.88116e-08
-3.45958e-08
3.47443e-08
-3.46301e-08
3.47594e-08
1.93548e-07
-6.51346e-08
3.11384e-08
1.93157e-07
-6.524e-08
3.10703e-08
1.92783e-07
-6.52758e-08
3.10787e-08
1.92399e-07
-6.52977e-08
3.11033e-08
1.92048e-07
-6.53488e-08
3.1104e-08
-6.54027e-08
3.10894e-08
3.80499e-07
3.79626e-07
-9.02218e-08
2.58554e-08
3.78864e-07
-9.0291e-08
2.57771e-08
3.78211e-07
-9.03517e-08
2.57065e-08
3.77659e-07
-9.04109e-08
2.56138e-08
-9.04504e-08
2.55196e-08
5.44051e-07
-1.0802e-07
1.90756e-08
5.42933e-07
-1.08064e-07
1.88907e-08
5.41984e-07
-1.08114e-07
1.87117e-08
5.41178e-07
-1.08153e-07
1.85473e-08
-1.08162e-07
1.83709e-08
6.52552e-07
1.09228e-08
6.5118e-07
-1.17398e-07
1.07056e-08
6.49998e-07
-1.17414e-07
1.04823e-08
6.48981e-07
-1.1741e-07
1.02745e-08
-1.17377e-07
1.00384e-08
6.74578e-07
-1.17587e-07
1.63718e-09
6.73309e-07
-1.17559e-07
1.41355e-09
6.72205e-07
-1.17514e-07
1.20769e-09
-1.17455e-07
9.69436e-10
6.13399e-07
-1.08557e-07
-7.6512e-09
6.12203e-07
-1.0854e-07
-7.823e-09
6.11157e-07
-1.08477e-07
-7.99093e-09
-1.08403e-07
-8.19429e-09
4.92452e-07
-9.07997e-08
-1.66061e-08
4.91424e-07
-9.07926e-08
-1.67196e-08
4.90543e-07
-9.07698e-08
-1.6826e-08
-9.07498e-08
-1.69337e-08
3.3756e-07
-6.56826e-08
-2.4344e-08
3.36847e-07
-6.56997e-08
-2.43793e-08
3.36204e-07
-6.57061e-08
-2.44213e-08
-6.56998e-08
-2.44834e-08
1.78136e-07
-3.46856e-08
1.77773e-07
-3.46826e-08
-3.06374e-08
1.77373e-07
-3.47109e-08
-3.05885e-08
1.76959e-07
-3.47409e-08
-3.05508e-08
-3.4757e-08
-3.05514e-08
5.9237e-08
-3.45734e-08
5.91232e-08
-3.45687e-08
5.89686e-08
-3.45562e-08
5.87878e-08
-3.45601e-08
-3.4596e-08
1.78181e-07
-3.0593e-08
1.77827e-07
-3.05841e-08
6.5636e-08
1.77448e-07
-3.05557e-08
6.56566e-08
1.77074e-07
-3.05537e-08
6.56718e-08
-3.05765e-08
6.56787e-08
4.84581e-07
4.83565e-07
-5.71766e-08
5.86699e-08
4.82717e-07
-5.72686e-08
5.86107e-08
4.82022e-07
-5.73452e-08
5.85881e-08
4.81416e-07
-5.74132e-08
5.85692e-08
-5.74983e-08
5.85164e-08
8.01137e-07
-7.90855e-08
4.85828e-08
8.00367e-07
-7.91525e-08
4.84312e-08
7.99667e-07
-7.92222e-08
4.82833e-08
7.99035e-07
-7.92998e-08
4.81327e-08
-7.93999e-08
4.79327e-08
1.03e-06
-9.47344e-08
3.52529e-08
1.02948e-06
-9.47748e-08
3.5029e-08
1.02897e-06
-9.48143e-08
3.48218e-08
1.02847e-06
-9.4864e-08
3.46074e-08
-9.49327e-08
3.43171e-08
1.16344e-06
-1.03013e-07
1.96637e-08
1.16299e-06
-1.0303e-07
1.94134e-08
1.16253e-06
-1.0304e-07
1.9166e-08
1.16209e-06
-1.03055e-07
1.89061e-08
-1.03083e-07
1.85597e-08
1.19693e-06
-1.03362e-07
2.67809e-09
1.19646e-06
-1.0335e-07
2.4203e-09
1.19603e-06
-1.03341e-07
2.15114e-09
1.19563e-06
-1.03343e-07
1.89253e-09
-1.03347e-07
1.56283e-09
1.13692e-06
-1.46102e-08
1.13647e-06
-9.57199e-08
-1.48302e-08
1.13606e-06
-9.57098e-08
-1.50391e-08
1.13568e-06
-9.57274e-08
-1.52268e-08
-9.57174e-08
-1.55034e-08
9.91788e-07
-8.05684e-08
-3.121e-08
9.91311e-07
-8.05706e-08
-3.1381e-08
9.90847e-07
-8.05877e-08
-3.15017e-08
-8.05441e-08
-3.17023e-08
7.69389e-07
-5.86304e-08
-4.54335e-08
7.68638e-07
-5.86294e-08
-4.55701e-08
7.67941e-07
-5.86203e-08
-4.56912e-08
-5.85656e-08
-4.58856e-08
4.82693e-07
-3.10539e-08
-5.72829e-08
4.8187e-07
-3.10907e-08
-5.73038e-08
4.8116e-07
-3.11179e-08
-5.7344e-08
-3.11168e-08
-5.742e-08
1.93304e-07
-6.52486e-08
1.92881e-07
-6.52002e-08
1.92422e-07
-6.51879e-08
1.91975e-07
-6.52305e-08
-6.53054e-08
3.37796e-07
-2.4369e-08
9.06958e-08
3.37173e-07
-2.44103e-08
9.06894e-08
3.36594e-07
-2.44598e-08
9.07109e-08
-2.45377e-08
9.07332e-08
7.70661e-07
-4.52733e-08
7.69722e-07
-4.54132e-08
8.05942e-08
7.68879e-07
-4.55675e-08
8.0588e-08
7.68152e-07
-4.57331e-08
8.05696e-08
-4.59552e-08
8.05073e-08
1.12678e-06
-6.29044e-08
6.61761e-08
1.12674e-06
-6.30373e-08
6.60912e-08
1.12663e-06
-6.31477e-08
6.59789e-08
1.12647e-06
-6.32859e-08
6.58396e-08
-6.34973e-08
6.56386e-08
1.36955e-06
-7.57164e-08
4.74657e-08
1.37008e-06
-7.58095e-08
4.72742e-08
1.37053e-06
-7.58871e-08
4.7111e-08
1.3709e-06
-7.59773e-08
4.69316e-08
-7.61164e-08
4.66842e-08
1.51002e-06
-8.27418e-08
2.58122e-08
1.5108e-06
-8.27704e-08
2.55912e-08
1.5115e-06
-8.27967e-08
2.5379e-08
1.5121e-06
-8.28373e-08
2.5162e-08
-8.2903e-08
2.48911e-08
1.55076e-06
-8.34788e-08
2.44774e-09
1.55163e-06
-8.3452e-08
2.2299e-09
1.55241e-06
-8.34445e-08
2.02127e-09
1.5531e-06
-8.34478e-08
1.81243e-09
-8.34401e-08
1.55444e-09
1.49748e-06
-7.79558e-08
-2.10703e-08
1.49831e-06
-7.78455e-08
-2.12642e-08
1.49903e-06
-7.77635e-08
-2.14421e-08
1.49967e-06
-7.7702e-08
-2.1609e-08
-7.76092e-08
-2.18426e-08
1.35588e-06
-6.62179e-08
-4.32843e-08
1.35641e-06
-6.60869e-08
-4.3494e-08
1.35687e-06
-6.59615e-08
-4.36479e-08
1.35729e-06
-6.58369e-08
-4.37842e-08
-6.56486e-08
-4.3989e-08
1.12664e-06
-6.28539e-08
1.1266e-06
-4.84451e-08
-6.30302e-08
1.12654e-06
-4.83087e-08
-6.31644e-08
1.12646e-06
-4.81811e-08
-6.32721e-08
-4.79854e-08
-6.34557e-08
8.00075e-07
-2.58357e-08
-7.91785e-08
7.99447e-07
-2.57843e-08
-7.92009e-08
7.9884e-07
-2.56973e-08
-7.92203e-08
-2.55921e-08
-7.92894e-08
3.7993e-07
-9.02109e-08
3.79021e-07
-9.01268e-08
3.78194e-07
-9.01451e-08
3.7749e-07
-9.02239e-08
-9.03141e-08
4.92881e-07
-1.66488e-08
1.08519e-07
4.91862e-07
-1.6775e-08
1.08484e-07
4.91007e-07
-1.68774e-08
1.08442e-07
-1.69746e-08
1.08406e-07
9.91924e-07
-3.12253e-08
9.57336e-08
9.91386e-07
-3.13952e-08
9.5747e-08
9.90856e-07
-3.15333e-08
9.57553e-08
-3.17439e-08
9.57302e-08
1.35561e-06
-4.33519e-08
7.79445e-08
1.35617e-06
-4.35373e-08
7.7851e-08
1.35665e-06
-4.36784e-08
7.77789e-08
1.35704e-06
-4.38055e-08
7.7716e-08
-4.40009e-08
7.76156e-08
1.60065e-06
-5.25578e-08
5.5329e-08
1.60188e-06
-5.26847e-08
5.51872e-08
1.60301e-06
-5.27747e-08
5.5085e-08
1.60401e-06
-5.28615e-08
5.49844e-08
-5.29902e-08
5.48509e-08
1.74407e-06
-5.78163e-08
2.94114e-08
1.74561e-06
-5.78701e-08
2.92347e-08
1.74703e-06
-5.79101e-08
2.90948e-08
1.74832e-06
-5.79492e-08
2.89638e-08
-5.80016e-08
2.88125e-08
1.78957e-06
-5.87722e-08
1.62645e-09
1.79122e-06
-5.87486e-08
1.46208e-09
1.79273e-06
-5.87294e-08
1.32959e-09
1.7941e-06
-5.87111e-08
1.20303e-09
-5.86798e-08
1.06292e-09
1.73897e-06
-2.6031e-08
1.74064e-06
-5.52987e-08
-2.6213e-08
1.74215e-06
-5.51735e-08
-2.63562e-08
1.74355e-06
-5.50815e-08
-2.64826e-08
1.74482e-06
-5.49949e-08
-2.6603e-08
-5.48748e-08
-2.67513e-08
1.60073e-06
-4.74424e-08
-5.25177e-08
1.60199e-06
-4.72667e-08
-5.26637e-08
1.60313e-06
-4.71002e-08
-5.277e-08
1.60416e-06
-4.69404e-08
-5.28668e-08
-4.67182e-08
-5.29984e-08
1.36955e-06
-3.52576e-08
-7.56768e-08
1.3701e-06
-3.50567e-08
-7.57854e-08
1.37056e-06
-3.48517e-08
-7.58798e-08
1.37097e-06
-3.46588e-08
-7.59611e-08
-3.43873e-08
-7.60878e-08
1.02989e-06
-1.91238e-08
-9.46906e-08
1.02937e-06
-1.90043e-08
-9.47097e-08
1.02888e-06
-1.88243e-08
-9.47386e-08
1.02841e-06
-1.86391e-08
-9.47685e-08
-1.84381e-08
-9.4827e-08
5.44144e-07
-1.07938e-07
5.42925e-07
-1.07912e-07
5.41897e-07
-1.07942e-07
5.41023e-07
-1.07988e-07
-1.0803e-07
6.15379e-07
-7.47429e-09
1.17596e-07
6.13932e-07
-7.62926e-09
1.17596e-07
6.12673e-07
-7.83185e-09
1.17574e-07
6.11587e-07
-8.00729e-09
1.17536e-07
-8.20556e-09
1.17486e-07
1.13679e-06
-1.46275e-08
1.03363e-07
1.13638e-06
-1.48441e-08
1.03363e-07
1.13598e-06
-1.50568e-08
1.0337e-07
1.13559e-06
-1.52474e-08
1.03382e-07
-1.55227e-08
1.03389e-07
1.49632e-06
-2.08892e-08
8.35485e-08
1.49723e-06
-2.11053e-08
8.35137e-08
1.49803e-06
-2.12798e-08
8.34811e-08
1.49875e-06
-2.14526e-08
8.34588e-08
1.49939e-06
-2.1618e-08
8.3451e-08
-2.18506e-08
8.3437e-08
1.73868e-06
-2.61343e-08
5.88608e-08
1.74038e-06
-2.62724e-08
5.87903e-08
1.74193e-06
-2.63781e-08
5.8738e-08
1.74334e-06
-2.64798e-08
5.87005e-08
1.74463e-06
-2.6588e-08
5.86685e-08
-2.67309e-08
5.86314e-08
1.88218e-06
-2.94598e-08
3.07032e-08
1.88421e-06
-2.95101e-08
3.06135e-08
1.88608e-06
-2.95507e-08
3.05412e-08
1.8878e-06
-2.95888e-08
3.04839e-08
1.88937e-06
-2.96279e-08
3.04347e-08
-2.9678e-08
3.03836e-08
1.9296e-06
-3.06248e-08
6.66106e-10
1.93173e-06
-3.05901e-08
5.81625e-10
1.93369e-06
-3.05589e-08
5.09968e-10
1.9355e-06
-3.05227e-08
4.50306e-10
1.93716e-06
-3.04838e-08
4.01896e-10
-3.04369e-08
3.5633e-10
1.88232e-06
-2.95197e-08
-2.94084e-08
1.88436e-06
-2.93649e-08
-2.9478e-08
1.88623e-06
-2.92428e-08
-2.95437e-08
1.88795e-06
-2.91246e-08
-2.96006e-08
1.88952e-06
-2.90049e-08
-2.96506e-08
-2.88578e-08
-2.97074e-08
1.74243e-06
-2.60461e-08
-5.76936e-08
1.74415e-06
-2.58281e-08
-5.77765e-08
1.74572e-06
-2.56202e-08
-5.78514e-08
1.74713e-06
-2.54002e-08
-5.7911e-08
1.74842e-06
-2.51969e-08
-5.7961e-08
-2.49375e-08
-5.8019e-08
1.50902e-06
-2.0009e-08
-8.26137e-08
1.50995e-06
-1.97596e-08
-8.26764e-08
1.51078e-06
-1.95062e-08
-8.27331e-08
1.51151e-06
-1.92197e-08
-8.27843e-08
1.51213e-06
-1.89474e-08
-8.28324e-08
-1.8607e-08
-8.28984e-08
1.16394e-06
-1.02922e-07
1.16347e-06
-1.10355e-08
-1.02936e-07
1.16299e-06
-1.08017e-08
-1.02938e-07
1.16253e-06
-1.05428e-08
-1.02954e-07
1.16209e-06
-1.0303e-08
-1.02974e-07
-1.00452e-08
-1.03006e-07
6.52592e-07
-1.17332e-07
6.51179e-07
-1.17301e-07
6.49977e-07
-1.17283e-07
6.48945e-07
-1.17259e-07
-1.1724e-07
6.76531e-07
1.88208e-09
1.17447e-07
6.74994e-07
1.64745e-09
1.17486e-07
6.73667e-07
1.41819e-09
1.17483e-07
6.7252e-07
1.22447e-09
1.17459e-07
9.96296e-10
1.17415e-07
1.1968e-06
2.65702e-09
1.03001e-07
1.19641e-06
2.38855e-09
1.03015e-07
1.19601e-06
2.13988e-09
1.03044e-07
1.19564e-06
1.9029e-09
1.03074e-07
1.58837e-09
1.03108e-07
1.54841e-06
2.95284e-09
1.54955e-06
2.712e-09
8.2712e-08
1.55052e-06
2.48164e-09
8.27187e-08
1.5514e-06
2.25885e-09
8.2734e-08
1.55218e-06
2.04441e-09
8.27742e-08
1.55287e-06
1.84633e-09
8.28215e-08
1.59665e-09
8.28875e-08
1.78565e-06
1.88158e-09
1.78767e-06
1.7478e-09
5.78113e-08
1.78946e-06
1.6369e-09
5.7842e-08
1.79108e-06
1.51952e-09
5.7851e-08
1.79256e-06
1.39573e-09
5.78717e-08
1.7939e-06
1.27047e-09
5.79038e-08
1.12661e-09
5.79547e-08
1.92717e-06
1.92952e-06
6.02669e-10
2.95001e-08
1.93164e-06
5.83256e-10
2.95442e-08
1.93359e-06
5.5164e-10
2.95581e-08
1.93538e-06
5.11452e-10
2.95757e-08
1.93702e-06
4.68689e-10
2.96027e-08
4.21786e-10
2.96448e-08
1.97698e-06
-5.96911e-10
-5.76047e-10
1.97922e-06
-5.38388e-10
-5.35429e-10
1.98129e-06
-4.94825e-10
-5.1576e-10
1.9832e-06
-4.53576e-10
-4.92882e-10
1.98495e-06
-4.1755e-10
-4.63743e-10
-3.81369e-10
-4.2757e-10
1.92957e-06
-1.73636e-09
-3.06144e-08
1.93173e-06
-1.59201e-09
-3.05785e-08
1.93372e-06
-1.47308e-09
-3.05593e-08
1.93555e-06
-1.34847e-09
-3.05377e-08
1.93722e-06
-1.22549e-09
-3.05093e-08
-1.08887e-09
-3.04683e-08
1.78779e-06
-2.69121e-09
-5.87634e-08
1.78964e-06
-2.47005e-09
-5.87464e-08
1.79132e-06
-2.25356e-09
-5.87514e-08
1.79283e-06
-2.02415e-09
-5.87501e-08
1.7942e-06
-1.82266e-09
-5.87368e-08
-1.57825e-09
-5.8706e-08
1.54967e-06
-3.04089e-09
-8.34395e-08
1.55072e-06
-2.76475e-09
-8.34384e-08
1.55166e-06
-2.46809e-09
-8.34558e-08
1.55247e-06
-2.15484e-09
-8.34665e-08
1.55317e-06
-1.88413e-09
-8.34722e-08
-1.56301e-09
-8.34601e-08
1.19743e-06
-2.18534e-09
-1.03299e-07
1.19697e-06
-1.9396e-09
-1.03295e-07
1.19652e-06
-1.66746e-09
-1.03292e-07
1.19609e-06
-1.3978e-09
-1.03283e-07
1.19568e-06
-1.16093e-09
-1.03282e-07
-9.13201e-10
-1.0329e-07
6.77808e-07
-1.17619e-07
6.76087e-07
-1.1755e-07
6.74581e-07
-1.17463e-07
6.73288e-07
-1.17388e-07
6.72191e-07
-1.17323e-07
-1.17296e-07
6.54487e-07
1.1175e-08
1.08025e-07
6.52904e-07
1.09457e-08
1.08084e-07
6.51531e-07
1.07041e-08
1.08154e-07
6.5035e-07
1.04638e-08
1.082e-07
6.49327e-07
1.02652e-08
1.08216e-07
1.00531e-08
1.08195e-07
1.164e-06
1.99371e-08
9.47312e-08
1.16351e-06
1.96832e-08
9.47507e-08
1.16302e-06
1.94318e-08
9.47779e-08
1.16254e-06
1.91532e-08
9.4835e-08
1.16209e-06
1.88965e-08
9.48921e-08
1.85826e-08
9.49583e-08
1.509e-06
2.59956e-08
7.5626e-08
1.5099e-06
2.57894e-08
7.57159e-08
1.51068e-06
2.55964e-08
7.57831e-08
1.51135e-06
2.5388e-08
7.58732e-08
1.5119e-06
2.51907e-08
7.59711e-08
2.49379e-08
7.61083e-08
1.74231e-06
2.94958e-08
5.24395e-08
1.74402e-06
2.93709e-08
5.25564e-08
1.74557e-06
2.92706e-08
5.26294e-08
1.74695e-06
2.91591e-08
5.27148e-08
1.74819e-06
2.90386e-08
5.28144e-08
2.88873e-08
5.2954e-08
1.88205e-06
3.06423e-08
2.61354e-08
1.8841e-06
3.06037e-08
2.62711e-08
1.88598e-06
3.05759e-08
2.6368e-08
1.8877e-06
3.05437e-08
2.64689e-08
1.88926e-06
3.05071e-08
2.65775e-08
3.04602e-08
2.67175e-08
1.92946e-06
2.94857e-08
-1.73701e-09
1.93159e-06
2.95322e-08
-1.59407e-09
1.93357e-06
2.95671e-08
-1.48458e-09
1.93538e-06
2.9603e-08
-1.37145e-09
1.93704e-06
2.9641e-08
-1.25111e-09
2.96896e-08
-1.11288e-09
1.88228e-06
2.61421e-08
-2.95049e-08
1.88433e-06
2.62739e-08
-2.93686e-08
1.88622e-06
2.63748e-08
-2.92629e-08
1.88796e-06
2.64815e-08
-2.91523e-08
1.88953e-06
2.65918e-08
-2.90344e-08
2.67325e-08
-2.88846e-08
1.73896e-06
2.08754e-08
-5.54153e-08
1.74072e-06
2.10781e-08
-5.53032e-08
1.74231e-06
2.12581e-08
-5.52295e-08
1.74374e-06
2.14489e-08
-5.51451e-08
1.74502e-06
2.16205e-08
-5.50462e-08
2.18476e-08
-5.49085e-08
1.49663e-06
1.42957e-08
-7.79794e-08
1.49763e-06
1.45453e-08
-7.7905e-08
1.4985e-06
1.47811e-08
-7.7852e-08
1.49923e-06
1.50378e-08
-7.77857e-08
1.49984e-06
1.52609e-08
-7.77205e-08
1.55389e-08
-7.76206e-08
1.13755e-06
7.20539e-09
-9.57662e-08
1.1371e-06
7.43587e-09
-9.57391e-08
1.13664e-06
7.67181e-09
-9.57163e-08
1.13616e-06
7.91543e-09
-9.56823e-08
1.13568e-06
8.11786e-09
-9.56657e-08
8.30149e-09
-9.56462e-08
6.16232e-07
-1.08555e-07
6.14605e-07
-1.08488e-07
6.13224e-07
-1.0841e-07
6.12081e-07
-1.0833e-07
6.11143e-07
-1.08267e-07
-1.08251e-07
5.45562e-07
1.92594e-08
9.0217e-08
5.44292e-07
1.90727e-08
9.02822e-08
5.43209e-07
1.88802e-08
9.03572e-08
5.42296e-07
1.86842e-08
9.04286e-08
5.41517e-07
1.85235e-08
9.04721e-08
1.83685e-08
9.04764e-08
1.03075e-06
3.54798e-08
7.90691e-08
1.03019e-06
3.52588e-08
7.91221e-08
1.02962e-06
3.50456e-08
7.91823e-08
1.02907e-06
3.48028e-08
7.92681e-08
1.02855e-06
3.45764e-08
7.93621e-08
3.43058e-08
7.94676e-08
1.36898e-06
4.76454e-08
6.2756e-08
1.3696e-06
4.74518e-08
6.2903e-08
1.37012e-06
4.72942e-08
6.30204e-08
1.37051e-06
4.7112e-08
6.31726e-08
1.37079e-06
4.69269e-08
6.33344e-08
4.66938e-08
6.35389e-08
1.59935e-06
5.54314e-08
4.31598e-08
1.60071e-06
5.53193e-08
4.33308e-08
1.60193e-06
5.52434e-08
4.34587e-08
1.60299e-06
5.51536e-08
4.36132e-08
1.60391e-06
5.50492e-08
4.37769e-08
5.49078e-08
4.39971e-08
1.73868e-06
5.88154e-08
2.09035e-08
1.74037e-06
5.87925e-08
2.11059e-08
1.74192e-06
5.87839e-08
2.12803e-08
1.74331e-06
5.87689e-08
2.1465e-08
1.74455e-06
5.87458e-08
2.16401e-08
5.87064e-08
2.18696e-08
1.78763e-06
5.77971e-08
-2.67771e-09
1.78942e-06
5.78441e-08
-2.44254e-09
1.79107e-06
5.78778e-08
-2.22487e-09
1.79256e-06
5.79124e-08
-2.00576e-09
1.7939e-06
5.79492e-08
-1.79549e-09
5.80017e-08
-1.54683e-09
1.74247e-06
5.24414e-08
-2.60288e-08
1.74418e-06
5.25595e-08
-2.57969e-08
1.74574e-06
5.26367e-08
-2.55838e-08
1.74714e-06
5.27239e-08
-2.53657e-08
1.7484e-06
5.28238e-08
-2.51669e-08
5.29632e-08
-2.49121e-08
1.5996e-06
4.31341e-08
-4.76663e-08
1.60102e-06
4.33022e-08
-4.74605e-08
1.60228e-06
4.34325e-08
-4.72938e-08
1.60338e-06
4.35898e-08
-4.71108e-08
1.60434e-06
4.37502e-08
-4.69268e-08
4.39664e-08
-4.66909e-08
1.35541e-06
3.06983e-08
-6.63399e-08
1.3561e-06
3.09098e-08
-6.62052e-08
1.35666e-06
3.11011e-08
-6.60865e-08
1.35709e-06
3.13113e-08
-6.59348e-08
1.35742e-06
3.14919e-08
-6.57864e-08
3.17203e-08
-6.55973e-08
9.93205e-07
1.63003e-08
-8.06941e-08
9.92569e-07
1.64664e-08
-8.06592e-08
9.91949e-07
1.66233e-08
-8.06193e-08
9.91357e-07
1.6783e-08
-8.05613e-08
9.90791e-07
1.69059e-08
-8.05137e-08
1.70021e-08
-8.04542e-08
4.94488e-07
-9.08194e-08
4.93231e-07
-9.0764e-08
4.92165e-07
-9.072e-08
4.91297e-07
-9.06785e-08
4.90591e-07
-9.06549e-08
-9.06664e-08
3.80645e-07
2.59785e-08
6.52088e-08
3.79782e-07
2.58972e-08
6.5249e-08
3.79039e-07
2.58073e-08
6.5292e-08
3.78419e-07
2.56994e-08
6.53491e-08
3.77892e-07
2.55919e-08
6.54081e-08
2.54941e-08
6.54395e-08
8.02067e-07
4.87623e-08
5.71484e-08
8.0126e-07
4.86006e-08
5.72251e-08
8.00513e-07
4.84416e-08
5.72951e-08
7.99838e-07
4.82623e-08
5.73802e-08
7.99243e-07
4.80809e-08
5.74679e-08
4.78695e-08
5.75727e-08
1.12688e-06
6.63363e-08
4.51168e-08
1.12689e-06
6.62026e-08
4.52948e-08
1.1268e-06
6.60864e-08
4.54653e-08
1.12665e-06
6.59382e-08
4.56462e-08
1.12646e-06
6.57833e-08
4.582e-08
6.5591e-08
4.60318e-08
1.35516e-06
7.79988e-08
3.07758e-08
1.35579e-06
7.79266e-08
3.09832e-08
1.35629e-06
7.78761e-08
3.11615e-08
1.35667e-06
7.781e-08
3.13638e-08
1.35695e-06
7.77368e-08
3.15497e-08
7.7628e-08
3.17806e-08
1.49634e-06
8.34793e-08
1.43851e-08
1.49726e-06
8.34791e-08
1.46341e-08
1.49806e-06
8.34929e-08
1.48601e-08
1.49873e-06
8.35006e-08
1.51039e-08
1.49928e-06
8.35023e-08
1.53216e-08
8.34823e-08
1.55936e-08
1.54955e-06
8.26729e-08
-2.9818e-09
1.55054e-06
8.27226e-08
-2.67919e-09
1.55142e-06
8.2766e-08
-2.37839e-09
1.55218e-06
8.2812e-08
-2.07849e-09
1.55283e-06
8.28558e-08
-1.79827e-09
8.29172e-08
-1.47711e-09
1.50902e-06
7.55782e-08
-1.99641e-08
1.50993e-06
7.5695e-08
-1.96853e-08
1.51074e-06
7.57852e-08
-1.94106e-08
1.51142e-06
7.58815e-08
-1.91173e-08
1.51199e-06
7.59739e-08
-1.88477e-08
7.61044e-08
-1.85203e-08
1.36903e-06
6.26953e-08
-3.55228e-08
1.36968e-06
6.28505e-08
-3.52685e-08
1.37023e-06
6.29792e-08
-3.50351e-08
1.37065e-06
6.31364e-08
-3.47851e-08
1.37096e-06
6.32886e-08
-3.45561e-08
6.34903e-08
-3.42796e-08
1.12687e-06
4.505e-08
-4.8789e-08
1.12691e-06
4.5222e-08
-4.8612e-08
1.12685e-06
4.53944e-08
-4.84392e-08
1.12671e-06
4.55839e-08
-4.82428e-08
1.12652e-06
4.57537e-08
-4.80679e-08
4.59564e-08
-4.78699e-08
7.71192e-07
2.41477e-08
-5.8732e-08
7.70223e-07
2.42236e-08
-5.86919e-08
7.69356e-07
2.42957e-08
-5.8654e-08
7.686e-07
2.43792e-08
-5.85999e-08
7.67932e-07
2.44566e-08
-5.85492e-08
2.4533e-08
-5.84893e-08
3.38982e-07
-6.56809e-08
3.38113e-07
-6.56718e-08
3.3736e-07
-6.56711e-08
3.36726e-07
-6.56648e-08
3.36186e-07
-6.56583e-08
-6.56625e-08
1.93689e-07
3.11036e-08
3.45555e-08
1.93253e-07
3.11192e-08
3.45657e-08
1.92828e-07
3.11402e-08
3.45767e-08
1.92442e-07
3.11367e-08
3.45986e-08
1.92116e-07
3.11084e-08
3.46256e-08
3.10745e-08
3.4652e-08
4.84593e-07
5.8746e-08
3.05703e-08
4.83672e-07
5.87049e-08
3.05601e-08
4.82896e-07
5.86729e-08
3.05388e-08
4.82244e-07
5.86259e-08
3.05422e-08
4.81675e-07
5.8574e-08
3.05716e-08
5.84953e-08
3.06138e-08
7.71507e-07
8.06991e-08
2.41916e-08
7.7057e-07
8.06673e-08
2.42694e-08
7.69739e-07
8.06336e-08
2.43355e-08
7.69019e-07
8.05835e-08
2.44087e-08
7.68398e-07
8.05293e-08
2.44853e-08
8.04553e-08
2.45729e-08
9.93324e-07
9.57615e-08
1.63738e-08
9.92695e-07
9.57483e-08
1.65316e-08
9.92075e-07
9.57414e-08
1.66736e-08
9.91485e-07
9.57162e-08
1.68207e-08
9.90933e-07
9.56966e-08
1.69348e-08
9.56723e-08
1.70271e-08
1.13751e-06
1.03299e-07
7.30575e-09
1.13706e-06
1.03307e-07
7.53059e-09
1.13658e-06
1.03319e-07
7.75726e-09
1.13609e-06
1.03323e-07
7.98696e-09
1.13561e-06
1.0333e-07
8.17609e-09
1.03337e-07
8.34589e-09
1.19745e-06
1.02915e-07
-2.09776e-09
1.19697e-06
1.02941e-07
-1.83342e-09
1.1965e-06
1.02965e-07
-1.5594e-09
1.19605e-06
1.02998e-07
-1.29963e-09
1.19561e-06
1.03035e-07
-1.06652e-09
1.03072e-07
-8.34648e-10
1.16404e-06
9.46072e-08
-1.11746e-08
1.16355e-06
9.46608e-08
-1.09183e-08
1.16305e-06
9.47136e-08
-1.0656e-08
1.16255e-06
9.47844e-08
-1.04004e-08
1.16206e-06
9.4847e-08
-1.01759e-08
9.49194e-08
-9.94925e-09
1.03062e-06
7.89448e-08
-1.92919e-08
1.03007e-06
7.90235e-08
-1.90787e-08
1.02951e-06
7.91016e-08
-1.88624e-08
1.02896e-06
7.92034e-08
-1.86518e-08
1.02842e-06
7.9297e-08
-1.84704e-08
7.94041e-08
-1.83065e-08
8.01831e-07
5.70512e-08
-2.60061e-08
8.01011e-07
5.71365e-08
-2.59045e-08
8.00253e-07
5.72178e-08
-2.57976e-08
7.99569e-07
5.73189e-08
-2.56743e-08
7.98947e-07
5.74133e-08
-2.55621e-08
5.75164e-08
-2.54725e-08
4.84305e-07
3.05412e-08
-3.1097e-08
4.83323e-07
3.05308e-08
-3.11048e-08
4.825e-07
3.05108e-08
-3.11236e-08
4.81823e-07
3.05165e-08
-3.11205e-08
4.81247e-07
3.05396e-08
-3.10999e-08
3.0578e-08
-3.10731e-08
1.78508e-07
-3.46543e-08
1.7805e-07
-3.46837e-08
1.77603e-07
-3.47127e-08
1.77187e-07
-3.47322e-08
1.76816e-07
-3.47477e-08
-3.47593e-08
5.94026e-08
3.46807e-08
5.9261e-08
3.47073e-08
5.91025e-08
3.47353e-08
5.895e-08
3.47511e-08
5.88141e-08
3.47615e-08
3.47639e-08
1.78656e-07
6.56865e-08
1.78242e-07
6.56812e-08
1.77826e-07
6.569e-08
1.77429e-07
6.56909e-08
1.77078e-07
6.56842e-08
6.56805e-08
3.41416e-07
3.40293e-07
9.08644e-08
3.39376e-07
9.07956e-08
3.38578e-07
9.07491e-08
3.37877e-07
9.07256e-08
3.37272e-07
9.07046e-08
3.36743e-07
9.06993e-08
9.07116e-08
4.96491e-07
1.08559e-07
4.95137e-07
1.08523e-07
4.93953e-07
1.08465e-07
4.92951e-07
1.08401e-07
4.92132e-07
1.08344e-07
4.91457e-07
1.08309e-07
1.08302e-07
6.1878e-07
6.17023e-07
1.17585e-07
6.1548e-07
1.17539e-07
6.14162e-07
1.17476e-07
6.13072e-07
1.1742e-07
6.1218e-07
1.17378e-07
1.17356e-07
6.78356e-07
1.17318e-07
6.76726e-07
1.17336e-07
6.75289e-07
1.17353e-07
6.74047e-07
1.17364e-07
6.72998e-07
1.1736e-07
1.17333e-07
6.54546e-07
1.07924e-07
6.5299e-07
1.07973e-07
6.51646e-07
1.08041e-07
6.50501e-07
1.08108e-07
6.49531e-07
1.08153e-07
1.08155e-07
5.45532e-07
9.0105e-08
5.44247e-07
9.01787e-08
5.43158e-07
9.02681e-08
5.42254e-07
9.0361e-08
5.41498e-07
9.04381e-08
9.04659e-08
3.80539e-07
6.51144e-08
3.79643e-07
6.51696e-08
3.78885e-07
6.52286e-08
3.78269e-07
6.5303e-08
3.77766e-07
6.5379e-08
6.54257e-08
1.9359e-07
3.45104e-08
1.93126e-07
3.45289e-08
1.92685e-07
3.45457e-08
1.92294e-07
3.45738e-08
1.91968e-07
3.46057e-08
3.46415e-08
5.93611e-08
5.92063e-08
5.90393e-08
5.88809e-08
5.87389e-08
)
;

boundaryField
{
    inlet
    {
        type            calculated;
        value           nonuniform List<scalar> 0();
    }
    ami1
    {
        type            cyclicAMI;
        value           nonuniform List<scalar> 0();
    }
    walls
    {
        type            calculated;
        value           nonuniform List<scalar> 
244
(
2.90979e-14
2.43942e-14
1.84387e-14
2.90979e-14
2.43942e-14
1.84387e-14
1.28555e-14
6.40674e-15
-2.43942e-14
-2.90979e-14
2.90979e-14
2.43942e-14
1.84387e-14
1.28555e-14
6.40674e-15
1.55096e-22
-6.40674e-15
-1.28555e-14
-1.84387e-14
-2.43942e-14
-2.90979e-14
2.90979e-14
2.43942e-14
1.84387e-14
1.28555e-14
6.40674e-15
1.51736e-22
-6.40674e-15
-1.28555e-14
-1.84387e-14
-2.43942e-14
-2.90979e-14
2.90979e-14
2.43942e-14
1.84387e-14
1.28555e-14
6.40674e-15
-7.05688e-23
-6.40674e-15
-1.28555e-14
-1.84387e-14
-2.43942e-14
-2.90979e-14
2.90979e-14
2.43942e-14
1.84387e-14
1.28555e-14
6.40674e-15
1.55355e-22
-6.40674e-15
-1.28555e-14
-1.84387e-14
-2.43942e-14
-2.90979e-14
1.55096e-22
-6.40674e-15
-1.28555e-14
-1.84387e-14
-2.43942e-14
-2.90979e-14
2.90979e-14
2.43942e-14
1.84387e-14
1.28555e-14
6.40674e-15
1.55096e-22
-6.40674e-15
-1.28555e-14
-1.84387e-14
-2.43942e-14
-2.90979e-14
2.90979e-14
2.43942e-14
1.84387e-14
1.28555e-14
6.40674e-15
1.55096e-22
-6.40674e-15
-1.28555e-14
-1.84387e-14
-2.43942e-14
-2.90979e-14
2.90979e-14
2.43942e-14
1.84387e-14
1.28555e-14
6.40674e-15
1.51736e-22
-6.40674e-15
-1.28555e-14
-1.84387e-14
-2.43942e-14
-2.90979e-14
2.90979e-14
2.43942e-14
1.84387e-14
1.28555e-14
6.40674e-15
-7.05688e-23
-6.40674e-15
-1.28555e-14
-1.84387e-14
-2.43942e-14
-2.90979e-14
2.90979e-14
2.43942e-14
1.84387e-14
1.28555e-14
6.40674e-15
1.55355e-22
-6.40674e-15
-1.28555e-14
-1.84387e-14
-2.43942e-14
-2.90979e-14
-1.84387e-14
-1.84387e-14
-1.28555e-14
-6.40674e-15
-2.90979e-14
-2.43942e-14
-1.84387e-14
-1.28555e-14
-6.40674e-15
-6.2814e-23
6.40674e-15
1.28555e-14
1.84387e-14
2.43942e-14
2.90979e-14
-2.90979e-14
-2.43942e-14
-1.84387e-14
-1.28555e-14
-6.40674e-15
-6.2814e-23
6.40674e-15
1.28555e-14
1.84387e-14
2.43942e-14
2.90979e-14
-2.90979e-14
-2.43942e-14
-1.84387e-14
-1.28555e-14
-6.40674e-15
-6.2814e-23
6.40674e-15
1.28555e-14
1.84387e-14
2.43942e-14
2.90979e-14
-2.90979e-14
-2.43942e-14
-1.84387e-14
-1.28555e-14
-6.40674e-15
-6.76446e-23
6.40674e-15
1.28555e-14
1.84387e-14
2.43942e-14
2.90979e-14
-2.90979e-14
-2.43942e-14
-1.84387e-14
-1.28555e-14
-6.40674e-15
-8.72934e-22
6.40674e-15
1.28555e-14
1.84387e-14
2.43942e-14
2.90979e-14
-2.90979e-14
-2.43942e-14
-1.84387e-14
-1.28555e-14
-6.40674e-15
-6.24748e-23
6.40674e-15
1.28555e-14
1.84387e-14
2.43942e-14
2.90979e-14
-2.90979e-14
6.40674e-15
1.28555e-14
1.84387e-14
2.43942e-14
2.90979e-14
-2.90979e-14
-2.43942e-14
-6.40674e-15
-6.2814e-23
6.40674e-15
1.28555e-14
1.84387e-14
2.43942e-14
2.90979e-14
-2.90979e-14
-2.43942e-14
-1.84387e-14
-1.28555e-14
-6.40674e-15
-6.2814e-23
6.40674e-15
1.28555e-14
1.84387e-14
2.43942e-14
2.90979e-14
-2.90979e-14
-2.43942e-14
-1.84387e-14
-1.28555e-14
-6.40674e-15
-6.76446e-23
6.40674e-15
1.28555e-14
1.84387e-14
2.43942e-14
2.90979e-14
-2.90979e-14
-2.43942e-14
-1.84387e-14
-1.28555e-14
-6.40674e-15
-8.72934e-22
6.40674e-15
1.28555e-14
1.84387e-14
2.43942e-14
2.90979e-14
-2.90979e-14
-2.43942e-14
-1.84387e-14
-1.28555e-14
-6.40674e-15
-6.24748e-23
6.40674e-15
1.28555e-14
1.84387e-14
2.43942e-14
2.90979e-14
)
;
    }
    ami2
    {
        type            cyclicAMI;
        value           nonuniform List<scalar> 0();
    }
    outlet
    {
        type            calculated;
        value           nonuniform List<scalar> 
121
(
5.86823e-08
1.91731e-07
3.77188e-07
5.40519e-07
6.48157e-07
6.71314e-07
6.103e-07
4.89823e-07
3.35638e-07
1.76567e-07
5.86268e-08
1.76732e-07
4.80911e-07
7.98523e-07
1.02806e-06
1.16172e-06
1.1953e-06
1.13536e-06
9.90442e-07
7.67365e-07
4.8058e-07
1.91568e-07
3.36077e-07
7.67578e-07
1.12631e-06
1.37115e-06
1.51255e-06
1.55364e-06
1.50018e-06
1.35762e-06
1.12637e-06
7.98316e-07
3.76907e-07
4.9031e-07
9.90402e-07
1.35732e-06
1.60483e-06
1.74941e-06
1.79527e-06
1.74593e-06
1.60501e-06
1.37127e-06
1.028e-06
5.403e-07
6.10712e-07
1.13525e-06
1.49989e-06
1.74573e-06
1.89074e-06
1.93863e-06
1.8909e-06
1.74952e-06
1.51261e-06
1.16171e-06
6.4811e-07
6.71594e-07
1.19533e-06
1.55341e-06
1.79505e-06
1.93846e-06
1.98654e-06
1.93869e-06
1.79538e-06
1.55372e-06
1.19531e-06
6.71334e-07
6.48495e-07
1.16171e-06
1.51233e-06
1.74924e-06
1.89061e-06
1.93849e-06
1.89091e-06
1.74611e-06
1.50031e-06
1.13528e-06
6.104e-07
5.40867e-07
1.0281e-06
1.37098e-06
1.60465e-06
1.7456e-06
1.79504e-06
1.74947e-06
1.60512e-06
1.35764e-06
9.90317e-07
4.90009e-07
3.77434e-07
7.98763e-07
1.12625e-06
1.35713e-06
1.4997e-06
1.55332e-06
1.51241e-06
1.37117e-06
1.12633e-06
7.67391e-07
3.35715e-07
1.91829e-07
4.81213e-07
7.67897e-07
9.90469e-07
1.13519e-06
1.19523e-06
1.16164e-06
1.02796e-06
7.98437e-07
4.8077e-07
1.76491e-07
5.87022e-08
1.76775e-07
3.36284e-07
4.90894e-07
6.11472e-07
6.72186e-07
6.4876e-07
5.40881e-07
3.77334e-07
1.91679e-07
5.86211e-08
)
;
    }
    procBoundary6to5
    {
        type            processor;
        value           nonuniform List<scalar> 
177
(
-5.95119e-08
3.46876e-08
-1.94074e-07
-3.81528e-07
-9.01488e-08
2.60436e-08
-5.45328e-07
-6.54108e-07
-1.17387e-07
-6.76026e-07
-1.84558e-09
-6.14777e-07
7.51822e-09
-4.93603e-07
-3.38333e-07
6.56847e-08
-1.78542e-07
-3.05926e-08
-5.9349e-08
-1.78561e-07
3.05063e-08
6.5652e-08
-4.8575e-07
-5.70138e-08
5.88153e-08
-8.01956e-07
-1.03053e-06
-1.1639e-06
-1.19741e-06
-1.13739e-06
-9.58047e-08
-9.92336e-07
3.08918e-08
-7.70237e-07
4.52386e-08
-4.83624e-07
3.10855e-08
-1.93714e-07
-3.38486e-07
2.42828e-08
-7.71626e-07
8.06256e-08
-1.12674e-06
-1.36895e-06
-1.50914e-06
-1.54979e-06
-1.49655e-06
2.07541e-08
-1.35523e-06
-1.12661e-06
-4.86369e-08
-8.00789e-07
2.58791e-08
7.90922e-08
-3.80847e-07
-4.94056e-07
-1.08493e-07
-9.92487e-07
3.09281e-08
-9.57655e-08
-1.35496e-06
-7.80943e-08
-1.59931e-06
-5.55599e-08
-1.74241e-06
-2.96598e-08
-1.7878e-06
5.88122e-08
-1.87133e-09
-1.73699e-06
-5.55115e-08
-1.59935e-06
5.22765e-08
-1.36891e-06
7.54887e-08
-1.03043e-06
9.46192e-08
-5.45541e-07
-6.17008e-07
-1.13724e-06
1.42842e-08
-1.49517e-06
-8.35814e-08
-1.73674e-06
-5.89402e-08
-1.8799e-06
-3.07934e-08
-1.92723e-06
-1.88005e-06
-1.74049e-06
-1.50793e-06
-1.16441e-06
-1.12358e-08
-6.54234e-07
1.17368e-07
-6.78265e-07
-1.1739e-07
-3.42158e-09
-1.19721e-06
-3.02264e-09
-1.03001e-07
-1.54701e-06
8.26529e-08
-1.78336e-06
5.772e-08
-1.92452e-06
6.28917e-10
2.93999e-08
-1.97454e-06
-1.92723e-06
-1.78576e-06
-1.54849e-06
-1.19791e-06
-6.79741e-07
-6.56297e-07
-1.16449e-06
-1.50797e-06
-1.74044e-06
-1.87984e-06
-1.92714e-06
-1.88004e-06
-1.73705e-06
-1.49551e-06
-1.13799e-06
-6.18091e-07
-5.47013e-07
-1.03131e-06
-1.36828e-06
-1.59786e-06
-1.73683e-06
-1.78567e-06
-1.74059e-06
-1.59804e-06
-1.35461e-06
-9.93879e-07
-4.95924e-07
-3.81616e-07
-8.0293e-07
-1.12682e-06
-1.35444e-06
-1.4953e-06
-1.54843e-06
-1.50799e-06
-1.36829e-06
-1.12678e-06
-7.72251e-07
-3.39972e-07
-1.94139e-07
-4.85657e-07
-2.38163e-08
-7.72534e-07
-2.40041e-08
-9.93985e-07
-1.6113e-08
-1.13797e-06
-7.01559e-09
-1.19794e-06
-1.16452e-06
-1.03119e-06
-8.0272e-07
-4.85429e-07
-1.78993e-07
-5.95277e-08
-6.57961e-08
-1.79091e-07
-6.57373e-08
-3.42725e-07
9.09214e-08
-4.98073e-07
-6.20803e-07
1.17598e-07
-6.80186e-07
-6.56326e-07
-5.47005e-07
-3.81554e-07
-1.94083e-07
-5.9505e-08
)
;
    }
}


// ************************************************************************* //
