/*--------------------------------*- C++ -*----------------------------------*\
| =========                 |                                                 |
| \\      /  F ield         | OpenFOAM: The Open Source CFD Toolbox           |
|  \\    /   O peration     | Version:  2212                                  |
|   \\  /    A nd           | Website:  www.openfoam.com                      |
|    \\/     M anipulation  |                                                 |
\*---------------------------------------------------------------------------*/
FoamFile
{
    version     2.0;
    format      ascii;
    arch        "LSB;label=32;scalar=64";
    class       volVectorField;
    location    "1";
    object      U;
}
// * * * * * * * * * * * * * * * * * * * * * * * * * * * * * * * * * * * * * //

dimensions      [0 1 -1 0 0 0 0];

internalField   nonuniform List<vector> 
678
(
(0.0235169 1.42431e-05 1.02913e-05)
(0.0234631 1.17936e-05 7.94255e-06)
(0.0234191 9.66232e-06 8.21328e-06)
(0.0233652 7.46756e-06 8.61893e-06)
(0.0233122 4.93642e-06 7.79481e-06)
(0.0232269 2.04556e-06 7.24404e-06)
(0.0397793 -5.8591e-06 5.88643e-05)
(0.0396853 -2.48584e-06 4.36038e-05)
(0.0396122 -2.03483e-06 4.04435e-05)
(0.0395355 -2.81659e-06 4.01528e-05)
(0.039464 -2.73788e-06 3.46449e-05)
(0.0393603 -5.03751e-06 2.54536e-05)
(0.0553877 -8.51275e-05 9.79779e-05)
(0.0552363 -7.34626e-05 7.877e-05)
(0.0551208 -6.09507e-05 6.52936e-05)
(0.0550222 -4.83946e-05 5.45253e-05)
(0.0549416 -3.69941e-05 4.20184e-05)
(0.0548303 -2.85538e-05 3.24938e-05)
(0.0646981 -0.000165037 0.000117937)
(0.0645588 -0.000139084 9.72249e-05)
(0.0644403 -0.000112444 7.54481e-05)
(0.0643441 -9.0721e-05 5.74576e-05)
(0.0642153 -6.67197e-05 4.31216e-05)
(0.0696147 -0.000216788 0.000119748)
(0.0694621 -0.000187419 0.00010129)
(0.0693303 -0.000156405 8.00079e-05)
(0.0692205 -0.000127943 6.20291e-05)
(0.0690764 -9.43331e-05 4.65093e-05)
(0.0695202 -0.000194549 8.84038e-05)
(0.0693854 -0.000166072 7.31508e-05)
(0.0692677 -0.000136381 6.00998e-05)
(0.0691188 -9.97146e-05 4.60566e-05)
(0.0654335 -0.000171172 7.03497e-05)
(0.0653034 -0.000148963 5.60186e-05)
(0.0651897 -0.000121904 4.61199e-05)
(0.0650419 -8.91635e-05 3.60732e-05)
(0.0585602 -0.000104212 4.46309e-05)
(0.0584353 -9.15416e-05 3.37781e-05)
(0.0583306 -7.2688e-05 2.49922e-05)
(0.0581924 -5.58736e-05 1.84543e-05)
(0.0491136 -5.9592e-05 2.63385e-05)
(0.0490102 -5.35927e-05 1.91598e-05)
(0.0489221 -4.54575e-05 1.13788e-05)
(0.0487904 -3.97071e-05 7.24616e-06)
(0.0366111 -9.78816e-06 2.16276e-05)
(0.0365247 -7.76352e-06 1.8821e-05)
(0.0364501 -1.26172e-05 1.40888e-05)
(0.0363763 -1.75194e-05 8.59653e-06)
(0.0362474 -2.06552e-05 5.75407e-06)
(0.0234675 -7.13066e-06 8.72161e-06)
(0.0234237 -6.88948e-06 9.48269e-06)
(0.0233712 -8.64594e-06 8.51914e-06)
(0.0233114 -8.72735e-06 6.51595e-06)
(0.023205 -8.53163e-06 4.40343e-06)
(0.0366092 2.63872e-05 6.91571e-06)
(0.0365404 2.03294e-05 8.65354e-06)
(0.0364665 1.41441e-05 1.44063e-05)
(0.0363943 8.31978e-06 1.78445e-05)
(0.0362811 4.49044e-06 1.96016e-05)
(0.0689321 1.78896e-05 0.000110974)
(0.0687567 1.53371e-05 9.52318e-05)
(0.0686272 1.26213e-05 8.68546e-05)
(0.0685237 8.67233e-06 8.23661e-05)
(0.0684422 3.43083e-06 7.9665e-05)
(0.0683221 -3.31319e-06 7.34855e-05)
(0.0900835 -8.88357e-05 0.000180026)
(0.0899951 -8.18974e-05 0.000167902)
(0.0899147 -7.42584e-05 0.000154523)
(0.089848 -6.58495e-05 0.000138019)
(0.0897501 -5.50011e-05 0.000116053)
(0.0998121 -0.00019704 0.000204816)
(0.0997634 -0.000177428 0.000187948)
(0.0997133 -0.000159756 0.000172015)
(0.0996682 -0.000139981 0.000152752)
(0.0996008 -0.000113224 0.000127325)
(0.103742 -0.000269073 0.000215791)
(0.103702 -0.000243574 0.000197033)
(0.103662 -0.000218684 0.000179345)
(0.103623 -0.000190795 0.000159411)
(0.103569 -0.000153682 0.000132274)
(0.103901 -0.000289716 0.00020071)
(0.103861 -0.000261853 0.000182665)
(0.103821 -0.000230966 0.000163184)
(0.103787 -0.000202726 0.00014432)
(0.10374 -0.000168271 0.00012027)
(0.101375 -0.000264487 0.000153309)
(0.101339 -0.00024574 0.000142078)
(0.1013 -0.000225436 0.000129945)
(0.101266 -0.000206973 0.000116291)
(0.101219 -0.00017858 9.56452e-05)
(0.0961118 -0.000197276 8.09606e-05)
(0.0960643 -0.000184772 7.07029e-05)
(0.0960224 -0.000181393 6.22304e-05)
(0.0959566 -0.000166431 5.08975e-05)
(0.0865156 -0.000170477 2.88974e-05)
(0.0864317 -0.000167613 2.08136e-05)
(0.0863544 -0.000166286 1.49154e-05)
(0.086248 -0.000148727 1.04066e-05)
(0.068629 -7.69713e-05 7.40998e-06)
(0.0685074 -8.29808e-05 5.79257e-06)
(0.0684099 -8.58287e-05 3.30045e-06)
(0.0682751 -8.11281e-05 -4.92771e-08)
(0.0397274 -4.35372e-05 -7.56846e-06)
(0.0396342 -4.63616e-05 -1.57886e-06)
(0.0395456 -4.9034e-05 2.28e-06)
(0.0394602 -4.6405e-05 3.71333e-06)
(0.0393268 -3.68255e-05 3.95519e-07)
(0.0491455 3.29202e-05 4.59451e-05)
(0.0490561 2.29739e-05 3.70084e-05)
(0.0489767 1.23247e-05 3.37358e-05)
(0.0488543 6.13883e-06 3.32357e-05)
(0.0866705 4.4963e-05 0.000193321)
(0.0865587 3.55789e-05 0.00018577)
(0.0864596 2.66109e-05 0.000176501)
(0.0863807 1.88825e-05 0.000161442)
(0.086272 1.09344e-05 0.000134416)
(0.106011 -6.12665e-05 0.000322207)
(0.106011 -5.92841e-05 0.00029814)
(0.106002 -5.55386e-05 0.000275643)
(0.105989 -4.98785e-05 0.000246354)
(0.105965 -4.13534e-05 0.000204056)
(0.114513 -0.000183265 0.000320673)
(0.114558 -0.000166394 0.000292413)
(0.114597 -0.000149468 0.000267717)
(0.114628 -0.000130874 0.000240785)
(0.114663 -0.000106636 0.000202352)
(0.118005 -0.000269915 0.000290984)
(0.118067 -0.000245869 0.000266888)
(0.118123 -0.000219322 0.000242765)
(0.118171 -0.000192041 0.00021756)
(0.118226 -0.000158806 0.000183679)
(0.118545 -0.00031737 0.000230477)
(0.118613 -0.000288621 0.000212569)
(0.118674 -0.000259365 0.000192343)
(0.118728 -0.00023074 0.000170095)
(0.11879 -0.000195157 0.000141848)
(0.117023 -0.000341096 0.000140849)
(0.117092 -0.000310638 0.000130426)
(0.117148 -0.000283483 0.000118566)
(0.117199 -0.000260018 0.000105449)
(0.117256 -0.00022545 8.74498e-05)
(0.113364 -0.000351381 3.50275e-05)
(0.113416 -0.000318781 3.25602e-05)
(0.113455 -0.000290414 2.94856e-05)
(0.113489 -0.000263925 2.55187e-05)
(0.113528 -0.000226277 2.00458e-05)
(0.105991 -0.000330493 -6.62947e-05)
(0.105999 -0.000307226 -6.20805e-05)
(0.105992 -0.000279625 -5.61127e-05)
(0.105985 -0.000251726 -4.93072e-05)
(0.105971 -0.000211286 -4.05748e-05)
(0.0899588 -0.000156821 -8.10553e-05)
(0.08989 -0.00015363 -7.25562e-05)
(0.0898231 -0.000149405 -6.49432e-05)
(0.0897268 -0.000133097 -5.37817e-05)
(0.0552965 -7.5896e-05 -7.86622e-05)
(0.0551536 -8.74633e-05 -6.48935e-05)
(0.0550293 -8.56319e-05 -4.98458e-05)
(0.0549255 -7.141e-05 -3.47268e-05)
(0.0547895 -5.33202e-05 -2.35056e-05)
(0.0586131 5.42141e-05 9.57509e-05)
(0.0584859 4.08628e-05 7.58706e-05)
(0.0583864 2.65065e-05 5.90889e-05)
(0.0582503 1.52818e-05 4.8933e-05)
(0.0961258 8.25367e-05 0.000193662)
(0.0960753 6.91894e-05 0.000185427)
(0.0960239 5.868e-05 0.000179071)
(0.0959527 4.65338e-05 0.000159988)
(0.113342 3.6036e-05 0.000342821)
(0.113395 3.00643e-05 0.000315018)
(0.113436 2.44235e-05 0.00028651)
(0.113469 2.03115e-05 0.000260962)
(0.113505 1.61536e-05 0.000225015)
(0.121089 -7.31486e-05 0.000308256)
(0.121184 -6.55136e-05 0.000277388)
(0.12127 -5.90271e-05 0.000256336)
(0.121348 -5.19408e-05 0.000236783)
(0.121436 -4.31829e-05 0.000208073)
(0.124486 -0.000161359 0.000252184)
(0.124598 -0.000143444 0.000226922)
(0.124701 -0.000128702 0.000207956)
(0.124795 -0.000114759 0.000190095)
(0.124904 -9.84229e-05 0.000166609)
(0.125318 -0.000223412 0.000162172)
(0.125437 -0.000201631 0.00014559)
(0.125544 -0.000184993 0.000131975)
(0.125643 -0.000169066 0.000118802)
(0.125757 -0.000148762 0.000103172)
(0.124107 -0.00031292 5.89645e-05)
(0.124241 -0.000283023 5.35309e-05)
(0.124353 -0.000258258 4.81937e-05)
(0.124453 -0.00023583 4.27735e-05)
(0.124546 -0.000215206 3.76124e-05)
(0.124654 -0.000189175 3.16124e-05)
(0.121093 -0.000312179 -6.40541e-05)
(0.121192 -0.000279539 -5.98486e-05)
(0.121279 -0.000256539 -5.60327e-05)
(0.121358 -0.000236733 -5.11834e-05)
(0.121449 -0.00020877 -4.44391e-05)
(0.114511 -0.000326311 -0.000179159)
(0.11456 -0.000294816 -0.000165596)
(0.114597 -0.000266307 -0.00014949)
(0.114634 -0.000242807 -0.000132657)
(0.114671 -0.000209058 -0.00011017)
(0.0998001 -0.000205741 -0.000196767)
(0.0997538 -0.000198107 -0.000180812)
(0.0997049 -0.000184151 -0.000161661)
(0.0996602 -0.000168727 -0.000141271)
(0.099595 -0.000146549 -0.000114604)
(0.0647177 -0.000129122 -0.000173013)
(0.0645634 -0.0001274 -0.000141967)
(0.0644353 -0.000111243 -0.000112561)
(0.0643266 -8.86809e-05 -8.62819e-05)
(0.0641894 -6.43244e-05 -5.82293e-05)
(0.0656577 9.58253e-05 0.000193323)
(0.0654947 7.68161e-05 0.000175581)
(0.0653568 5.87767e-05 0.000148355)
(0.0652373 4.48511e-05 0.000120148)
(0.0650858 3.17238e-05 8.86742e-05)
(0.101364 0.000153255 0.000259224)
(0.101331 0.000136683 0.000244143)
(0.101293 0.000121824 0.00022575)
(0.101258 0.000108131 0.000208351)
(0.101209 8.90822e-05 0.000180561)
(0.116918 0.000151512 0.000376947)
(0.117004 0.000139698 0.000348274)
(0.11707 0.000128264 0.000317331)
(0.117125 0.000115112 0.000286127)
(0.117177 0.000102348 0.000259429)
(0.117233 8.54196e-05 0.000222741)
(0.124089 4.30033e-05 0.000304009)
(0.124221 4.30943e-05 0.000273851)
(0.124335 4.38853e-05 0.000251595)
(0.124438 4.30149e-05 0.000232232)
(0.124533 4.10084e-05 0.000212855)
(0.12464 3.68414e-05 0.000187334)
(0.127392 -5.42468e-05 0.000213554)
(0.12754 -4.41134e-05 0.000192538)
(0.127669 -3.48614e-05 0.000175655)
(0.127789 -2.77991e-05 0.00016063)
(0.127899 -2.2431e-05 0.000145901)
(0.128024 -1.82044e-05 0.000128505)
(0.128341 -0.000136222 9.60248e-05)
(0.128491 -0.00012141 8.51848e-05)
(0.128625 -0.000108809 7.55752e-05)
(0.128749 -9.75662e-05 6.7348e-05)
(0.128863 -8.74748e-05 6.02398e-05)
(0.128993 -7.82816e-05 5.38112e-05)
(0.127403 -0.000215081 -3.52686e-05)
(0.127549 -0.000194328 -3.40752e-05)
(0.127679 -0.000176781 -3.34475e-05)
(0.127799 -0.000161215 -3.17942e-05)
(0.127909 -0.000146409 -2.94215e-05)
(0.128034 -0.000128919 -2.65093e-05)
(0.124357 -0.000283731 -0.000164896)
(0.124489 -0.000255859 -0.000153011)
(0.124604 -0.000232513 -0.000143293)
(0.124709 -0.000211589 -0.000131535)
(0.124804 -0.000191934 -0.000118834)
(0.124911 -0.000167518 -0.000103268)
(0.117916 -0.000331925 -0.000296095)
(0.117996 -0.000302158 -0.000272756)
(0.118063 -0.000273552 -0.00024771)
(0.118122 -0.00024634 -0.000219783)
(0.118174 -0.000222992 -0.000194823)
(0.118228 -0.000190298 -0.000163508)
(0.103786 -0.000251187 -0.000304728)
(0.103746 -0.000235367 -0.000279393)
(0.103705 -0.00021833 -0.000253511)
(0.10366 -0.000195755 -0.000221398)
(0.103623 -0.000173734 -0.000189178)
(0.103568 -0.000146636 -0.000151931)
(0.0696263 -0.000138634 -0.000225845)
(0.0694667 -0.000122977 -0.000187964)
(0.0693306 -0.000101074 -0.000151045)
(0.0692144 -8.02006e-05 -0.000115369)
(0.0690714 -5.98149e-05 -7.72004e-05)
(0.0697334 0.000106969 0.000232266)
(0.0695684 8.61894e-05 0.000205254)
(0.0694232 6.86913e-05 0.000172261)
(0.0693035 5.63645e-05 0.000142144)
(0.0691476 4.31965e-05 0.000107163)
(0.103889 0.000193321 0.00028063)
(0.103854 0.000176334 0.000253266)
(0.103818 0.00015997 0.000230047)
(0.103786 0.00014224 0.000206612)
(0.103742 0.000117824 0.000173879)
(0.118344 0.000275816 0.00039038)
(0.118443 0.00025505 0.000362416)
(0.118527 0.000236257 0.000328524)
(0.118595 0.000215709 0.00029278)
(0.118657 0.000193382 0.000260248)
(0.118711 0.000172158 0.000233125)
(0.118771 0.000145555 0.000199177)
(0.125023 0.000184572 0.000268901)
(0.125176 0.000169781 0.000247536)
(0.125308 0.000159693 0.000227538)
(0.125426 0.000150001 0.000207818)
(0.125534 0.000138986 0.000189022)
(0.125631 0.000127242 0.000171214)
(0.125741 0.000112259 0.000149939)
(0.128169 8.78963e-05 0.000137775)
(0.128338 8.21157e-05 0.000129291)
(0.128484 8.02991e-05 0.00012115)
(0.128618 7.8458e-05 0.000111813)
(0.128742 7.50134e-05 0.000102038)
(0.128855 7.03506e-05 9.25012e-05)
(0.128983 6.47282e-05 8.31242e-05)
(0.129283 -4.47555e-06 2.88964e-06)
(0.129435 -8.72044e-07 3.26528e-06)
(0.129574 2.47247e-06 2.45374e-06)
(0.129704 4.59336e-06 1.38208e-06)
(0.129821 5.23429e-06 2.60971e-07)
(0.129959 5.15525e-06 -7.04552e-07)
(0.128341 -9.10177e-05 -0.000123546)
(0.12849 -8.18089e-05 -0.000113499)
(0.128625 -7.37257e-05 -0.000106044)
(0.128752 -6.61006e-05 -9.84316e-05)
(0.128867 -5.92531e-05 -9.0865e-05)
(0.128998 -5.29066e-05 -8.34195e-05)
(0.125184 -0.000179749 -0.000238033)
(0.125319 -0.000162758 -0.000219748)
(0.12544 -0.000147382 -0.000205362)
(0.125552 -0.00013223 -0.00018922)
(0.125651 -0.000118104 -0.000172598)
(0.125763 -0.000102208 -0.000152191)
(0.118453 -0.000264703 -0.00034883)
(0.118537 -0.000241598 -0.000320846)
(0.118611 -0.000216654 -0.000291323)
(0.118678 -0.000190836 -0.000259465)
(0.118736 -0.000168588 -0.000232889)
(0.118795 -0.000142107 -0.000199752)
(0.103945 -0.000241565 -0.000329226)
(0.103904 -0.000219699 -0.000298372)
(0.103865 -0.000196864 -0.000263122)
(0.103826 -0.00017267 -0.000226243)
(0.103792 -0.000151658 -0.000195788)
(0.103741 -0.000126593 -0.000162045)
(0.0698746 -0.000135191 -0.000266497)
(0.0696895 -0.000121088 -0.000230375)
(0.0695272 -0.000105775 -0.000190422)
(0.0693839 -8.9978e-05 -0.000150833)
(0.0692639 -7.45791e-05 -0.000111598)
(0.0691208 -5.64906e-05 -7.30681e-05)
(0.0698357 0.000136299 0.00025219)
(0.0696563 0.000111704 0.000223428)
(0.0695026 8.6229e-05 0.000191865)
(0.0693699 6.60959e-05 0.000159343)
(0.0692551 5.27066e-05 0.000130934)
(0.0691124 4.24068e-05 9.86469e-05)
(0.103794 0.00023435 0.000305237)
(0.103751 0.000218458 0.000275873)
(0.103708 0.000202175 0.000248682)
(0.103662 0.000179751 0.000218368)
(0.103624 0.000157818 0.000190173)
(0.103568 0.000132157 0.000157806)
(0.117919 0.000316048 0.000297426)
(0.117993 0.000294186 0.000270987)
(0.118057 0.000271606 0.000242915)
(0.118112 0.000245788 0.000214842)
(0.11816 0.000221537 0.000190959)
(0.118207 0.000188677 0.000161427)
(0.124353 0.000268377 0.00016885)
(0.124479 0.000247742 0.000155711)
(0.124593 0.000233044 0.000143942)
(0.124697 0.000216724 0.000131056)
(0.124789 0.000198729 0.00011788)
(0.124892 0.000174819 0.000101965)
(0.127387 0.000205948 4.09486e-05)
(0.127531 0.000188628 3.90331e-05)
(0.127661 0.000176612 3.69466e-05)
(0.127782 0.00016466 3.41072e-05)
(0.127893 0.00015198 3.07906e-05)
(0.128016 0.000136032 2.6749e-05)
(0.128334 0.000127893 -8.53242e-05)
(0.128481 0.000117656 -7.80512e-05)
(0.128615 0.000110192 -7.26197e-05)
(0.128741 0.000102659 -6.74027e-05)
(0.128856 9.48221e-05 -6.21774e-05)
(0.128985 8.67946e-05 -5.68529e-05)
(0.127402 4.1979e-05 -0.000203958)
(0.127546 3.88746e-05 -0.000187637)
(0.127677 3.67594e-05 -0.00017539)
(0.127799 3.46785e-05 -0.000163127)
(0.12791 3.22276e-05 -0.000150149)
(0.128035 2.89467e-05 -0.000133747)
(0.124112 -5.59805e-05 -0.000295152)
(0.124242 -5.03879e-05 -0.000271997)
(0.124359 -4.46499e-05 -0.000255434)
(0.124466 -3.87435e-05 -0.000237607)
(0.124562 -3.37469e-05 -0.000218746)
(0.124668 -2.86741e-05 -0.000193365)
(0.116949 -0.000165769 -0.000372792)
(0.11703 -0.000150275 -0.000341994)
(0.117101 -0.000132771 -0.000313015)
(0.117163 -0.000114644 -0.00028318)
(0.117215 -9.95045e-05 -0.000258408)
(0.117266 -8.26822e-05 -0.000224018)
(0.101432 -0.000189216 -0.000301494)
(0.101394 -0.000172679 -0.000275272)
(0.101355 -0.000157098 -0.000251694)
(0.101311 -0.000139255 -0.00022334)
(0.101271 -0.000121977 -0.000198958)
(0.101212 -0.00010036 -0.000170404)
(0.0657589 -0.000113275 -0.000232686)
(0.0655755 -9.85943e-05 -0.000197347)
(0.0654197 -8.47171e-05 -0.00015713)
(0.065289 -7.09407e-05 -0.000114762)
(0.0651797 -5.74786e-05 -7.85595e-05)
(0.0650525 -4.25029e-05 -5.29687e-05)
(0.0648873 0.000128428 0.000194408)
(0.0647282 0.000106256 0.000167805)
(0.0645936 8.16816e-05 0.000139788)
(0.0644779 6.06819e-05 0.000113967)
(0.0643801 4.62336e-05 9.21172e-05)
(0.0642567 3.85317e-05 6.83052e-05)
(0.0998873 0.000218599 0.000225131)
(0.0998342 0.000204612 0.000206197)
(0.0997797 0.000189462 0.000187377)
(0.0997257 0.00016703 0.000164212)
(0.0996752 0.000146296 0.000142089)
(0.0996052 0.000123655 0.000116217)
(0.11446 0.000349307 0.000203943)
(0.114515 0.000319006 0.000184438)
(0.11456 0.000294053 0.000165778)
(0.114596 0.000265711 0.000145676)
(0.114626 0.000237599 0.000127)
(0.114649 0.000201407 0.000105424)
(0.120985 0.000334052 7.71916e-05)
(0.121091 0.000307568 7.06967e-05)
(0.121186 0.000289599 6.5006e-05)
(0.121271 0.000268997 5.86043e-05)
(0.121346 0.000246074 5.18956e-05)
(0.121424 0.000214329 4.39641e-05)
(0.124095 0.000296497 -5.19645e-05)
(0.12422 0.000273165 -4.67067e-05)
(0.124332 0.000257164 -4.19605e-05)
(0.124437 0.000239829 -3.7337e-05)
(0.124529 0.000220485 -3.3234e-05)
(0.124632 0.000194276 -2.88078e-05)
(0.125175 0.000243495 -0.000171014)
(0.125306 0.000222938 -0.000155696)
(0.125424 0.000207459 -0.000143317)
(0.125533 0.000191388 -0.000130973)
(0.125631 0.000174247 -0.000118434)
(0.125741 0.000153028 -0.000103447)
(0.124364 0.000172518 -0.000268871)
(0.124491 0.000157824 -0.00024679)
(0.124605 0.000145499 -0.000230507)
(0.12471 0.000132499 -0.00021355)
(0.124804 0.000119225 -0.000195434)
(0.124908 0.000103109 -0.000171315)
(0.121001 7.66528e-05 -0.000335201)
(0.121112 7.00078e-05 -0.000308178)
(0.121211 6.45368e-05 -0.000289992)
(0.121299 5.85947e-05 -0.000269794)
(0.121377 5.20419e-05 -0.000247184)
(0.121458 4.38521e-05 -0.000215492)
(0.113322 -4.57738e-05 -0.00037908)
(0.113382 -4.10548e-05 -0.000349138)
(0.113434 -3.55227e-05 -0.000323364)
(0.113473 -2.96503e-05 -0.000293001)
(0.113506 -2.48136e-05 -0.00026392)
(0.113532 -1.99932e-05 -0.000226369)
(0.0962535 -0.000119645 -0.00026239)
(0.0961916 -0.00010765 -0.000241697)
(0.0961316 -9.68501e-05 -0.000223444)
(0.0960741 -8.52785e-05 -0.000200393)
(0.0960196 -7.40545e-05 -0.000182227)
(0.0959444 -5.9342e-05 -0.000159303)
(0.0588171 -7.45283e-05 -0.000133969)
(0.0586602 -6.41123e-05 -0.000108451)
(0.0585278 -5.30905e-05 -8.27147e-05)
(0.0584162 -4.18189e-05 -5.84374e-05)
(0.0583245 -3.12523e-05 -4.01285e-05)
(0.0582145 -2.2206e-05 -3.30103e-05)
(0.0553909 8.4887e-05 9.26852e-05)
(0.0552601 7.26685e-05 7.98016e-05)
(0.0551494 5.9201e-05 6.57422e-05)
(0.0550509 4.4547e-05 5.23734e-05)
(0.0549747 3.2983e-05 4.09582e-05)
(0.0548662 2.84611e-05 3.23694e-05)
(0.090191 0.000191922 0.000106961)
(0.0900985 0.000180489 0.000100392)
(0.090013 0.000166898 9.23015e-05)
(0.0899354 0.00014883 8.24091e-05)
(0.0898644 0.000126781 7.12275e-05)
(0.089777 0.00010048 5.73349e-05)
(0.106019 0.000355254 7.32589e-05)
(0.106023 0.000324527 6.78359e-05)
(0.106016 0.000298767 6.19427e-05)
(0.106005 0.000265399 5.47724e-05)
(0.105989 0.000231511 4.78643e-05)
(0.105959 0.000192113 4.00041e-05)
(0.113304 0.000374564 -4.02835e-05)
(0.113359 0.000343698 -3.48578e-05)
(0.113405 0.000318054 -2.93694e-05)
(0.11344 0.000288462 -2.39663e-05)
(0.113468 0.000258844 -1.97964e-05)
(0.11349 0.000220401 -1.56302e-05)
(0.116929 0.000368433 -0.000157846)
(0.117004 0.000338254 -0.00014213)
(0.117069 0.000310024 -0.000124766)
(0.117126 0.000280786 -0.000107118)
(0.117174 0.00025488 -9.23156e-05)
(0.11722 0.000219891 -7.66125e-05)
(0.118446 0.000349011 -0.000256091)
(0.118525 0.00031834 -0.000232547)
(0.118595 0.00028762 -0.000208026)
(0.118658 0.000256709 -0.000183273)
(0.118711 0.000227864 -0.00016029)
(0.118766 0.000193657 -0.000134394)
(0.11792 0.000297825 -0.000322606)
(0.117994 0.000270309 -0.000293546)
(0.11806 0.000241552 -0.00026612)
(0.118117 0.000212483 -0.000239016)
(0.118166 0.000187948 -0.000215723)
(0.118213 0.000157647 -0.000183804)
(0.114463 0.000203564 -0.000357171)
(0.11452 0.000183361 -0.000323287)
(0.114569 0.000163777 -0.000295595)
(0.114607 0.000143064 -0.000266728)
(0.114639 0.000123854 -0.000239468)
(0.114664 0.000101591 -0.000203757)
(0.106017 6.77232e-05 -0.000364652)
(0.106024 6.16677e-05 -0.000334133)
(0.10602 5.52201e-05 -0.000306772)
(0.106011 4.77683e-05 -0.000271661)
(0.105995 4.09814e-05 -0.000238349)
(0.105967 3.3531e-05 -0.000198815)
(0.0867302 -5.27842e-05 -0.000221509)
(0.0866176 -4.59083e-05 -0.000209781)
(0.0865166 -3.89753e-05 -0.000195367)
(0.0864281 -3.2662e-05 -0.000177088)
(0.0863496 -2.67536e-05 -0.000159101)
(0.086251 -1.88783e-05 -0.0001346)
(0.0493329 -4.38308e-05 -7.69205e-05)
(0.0492024 -3.71971e-05 -6.35711e-05)
(0.0490918 -2.93829e-05 -5.21644e-05)
(0.0489917 -2.21196e-05 -4.13254e-05)
(0.0489112 -1.55226e-05 -3.2923e-05)
(0.0488017 -1.08488e-05 -3.0539e-05)
(0.0397981 4.84022e-05 1.16239e-05)
(0.0397116 4.42944e-05 1.10732e-05)
(0.0396282 4.08738e-05 1.06593e-05)
(0.0395438 3.43181e-05 1.03301e-05)
(0.0394754 2.5972e-05 9.54023e-06)
(0.0393804 1.93834e-05 1.02546e-05)
(0.0689059 9.5285e-05 -1.19235e-05)
(0.0687675 9.17965e-05 -5.78898e-06)
(0.0686551 9.04484e-05 4.84731e-07)
(0.0685535 8.49328e-05 5.37776e-06)
(0.0684766 7.68501e-05 9.0491e-06)
(0.068365 6.50456e-05 1.19435e-05)
(0.0867638 0.000215795 -4.33013e-05)
(0.0866543 0.000202859 -3.58994e-05)
(0.0865573 0.000187976 -2.83827e-05)
(0.0864734 0.000170554 -2.15343e-05)
(0.0863985 0.000150431 -1.54621e-05)
(0.0863078 0.000121935 -8.35738e-06)
(0.0962645 0.000250751 -0.00011053)
(0.0962039 0.000232158 -9.77191e-05)
(0.0961438 0.000217751 -8.68318e-05)
(0.0960861 0.000196475 -7.51468e-05)
(0.0960319 0.000176791 -6.38456e-05)
(0.0959592 0.000152606 -4.97216e-05)
(0.10143 0.000288567 -0.000180452)
(0.10139 0.000262857 -0.00016177)
(0.101351 0.000241716 -0.000145041)
(0.101306 0.000216298 -0.000127012)
(0.101265 0.000193656 -0.000110141)
(0.101204 0.000165785 -8.95014e-05)
(0.103946 0.000321332 -0.000235234)
(0.103905 0.000286807 -0.00021014)
(0.103864 0.000252142 -0.000185241)
(0.103824 0.000218116 -0.000160397)
(0.103788 0.000187338 -0.000136975)
(0.103734 0.000153497 -0.000111548)
(0.103797 0.000297799 -0.000249638)
(0.103754 0.000269429 -0.000227952)
(0.103711 0.0002415 -0.000206804)
(0.103664 0.000209954 -0.000181803)
(0.103623 0.000179545 -0.000157849)
(0.103562 0.000144781 -0.000130423)
(0.0998747 0.000218885 -0.00023658)
(0.0998222 0.000197025 -0.000215705)
(0.099768 0.000176929 -0.000196435)
(0.0997146 0.000153901 -0.000172281)
(0.0996641 0.000131851 -0.000150457)
(0.0995916 0.000105911 -0.00012612)
(0.0901655 9.58645e-05 -0.000208242)
(0.0900715 8.70685e-05 -0.000192921)
(0.0899841 7.83585e-05 -0.000176972)
(0.0899055 6.82684e-05 -0.000155506)
(0.0898338 5.90978e-05 -0.000134922)
(0.0897404 4.85021e-05 -0.00011083)
(0.0688699 -2.86052e-05 -0.000101874)
(0.0687219 -2.30024e-05 -9.867e-05)
(0.0686012 -1.64508e-05 -9.69128e-05)
(0.0684953 -1.05788e-05 -9.06696e-05)
(0.0684133 -5.0588e-06 -8.24178e-05)
(0.068302 1.41933e-06 -7.1093e-05)
(0.0366833 -3.54113e-05 -1.08538e-05)
(0.0365917 -2.91041e-05 -1.27979e-05)
(0.0365054 -2.23761e-05 -1.64014e-05)
(0.0364156 -1.65075e-05 -1.82473e-05)
(0.0363396 -1.07412e-05 -1.91685e-05)
(0.0362317 -6.32814e-06 -2.02117e-05)
(0.0235325 7.95832e-06 -1.03663e-05)
(0.0234835 8.62695e-06 -7.40433e-06)
(0.0234253 8.905e-06 -4.70104e-06)
(0.0233613 8.4246e-06 -2.44488e-06)
(0.023309 6.57801e-06 -7.31441e-07)
(0.0232348 5.55229e-06 7.55164e-07)
(0.0367085 1.14392e-05 -2.73253e-05)
(0.0366275 1.34019e-05 -2.07053e-05)
(0.0365487 1.7358e-05 -1.37256e-05)
(0.0364639 1.9454e-05 -8.1207e-06)
(0.0363914 1.93126e-05 -3.43558e-06)
(0.03629 1.86648e-05 -7.97583e-07)
(0.0497252 0.000100237 -4.45547e-05)
(0.0495523 8.77964e-05 -4.33621e-05)
(0.0493849 7.18509e-05 -4.02072e-05)
(0.0492648 5.92167e-05 -3.31293e-05)
(0.0491644 5.00144e-05 -2.36723e-05)
(0.0490694 4.15706e-05 -1.50004e-05)
(0.0489936 3.51493e-05 -8.15052e-06)
(0.0488844 3.26557e-05 -4.48003e-06)
(0.0590848 0.000146311 -8.02882e-05)
(0.0588889 0.00012386 -7.07572e-05)
(0.0587409 0.000100554 -6.05855e-05)
(0.0586177 7.73755e-05 -4.82551e-05)
(0.0585135 5.58358e-05 -3.48983e-05)
(0.0584266 4.13438e-05 -2.26495e-05)
(0.0583197 3.62893e-05 -1.42351e-05)
(0.0660569 0.000240616 -0.000124287)
(0.0658381 0.000215723 -0.000107415)
(0.0656641 0.000183827 -9.18631e-05)
(0.0655169 0.000146443 -7.68207e-05)
(0.0653919 0.000107383 -6.12289e-05)
(0.0652883 7.48448e-05 -4.60977e-05)
(0.0651668 5.24098e-05 -3.17422e-05)
(0.0699266 0.000248509 -0.000130415)
(0.0697503 0.000214256 -0.000111435)
(0.0695971 0.000177272 -9.22116e-05)
(0.0694596 0.000140595 -7.38872e-05)
(0.069346 0.000104925 -5.73384e-05)
(0.0692086 7.07235e-05 -4.13769e-05)
(0.0698393 0.000243517 -0.000148223)
(0.069664 0.000208355 -0.000124887)
(0.0695135 0.000172489 -9.87123e-05)
(0.069384 0.000138673 -7.401e-05)
(0.0692736 0.000106879 -5.37921e-05)
(0.0691407 7.33187e-05 -3.96514e-05)
(0.0648858 0.000186001 -0.000144592)
(0.0647234 0.000156899 -0.000122004)
(0.0645872 0.000126484 -9.48569e-05)
(0.064472 9.99962e-05 -6.90869e-05)
(0.0643762 7.54877e-05 -4.82222e-05)
(0.0642583 5.19402e-05 -3.60984e-05)
(0.0553793 8.25807e-05 -0.000101336)
(0.055241 6.88529e-05 -8.67718e-05)
(0.0551274 5.396e-05 -6.99306e-05)
(0.0550286 4.02585e-05 -5.15001e-05)
(0.0549522 2.85804e-05 -3.48506e-05)
(0.0548516 2.08494e-05 -2.71142e-05)
(0.039782 -2.19751e-07 -6.14399e-05)
(0.0396873 -2.84181e-07 -5.46912e-05)
(0.0395998 3.45503e-07 -4.92801e-05)
(0.0395136 9.89764e-07 -4.08556e-05)
(0.0394444 1.04652e-06 -3.05618e-05)
(0.0393496 3.26569e-06 -2.15109e-05)
(0.0235192 -1.78643e-05 -1.01075e-05)
(0.0234638 -1.47577e-05 -1.04154e-05)
(0.0234015 -1.14952e-05 -1.04031e-05)
(0.0233349 -8.4493e-06 -9.48861e-06)
(0.0232805 -5.5688e-06 -7.89809e-06)
(0.0232027 -2.57083e-06 -6.66737e-06)
)
;

boundaryField
{
    inlet
    {
        type            fixedValue;
        value           nonuniform List<vector> 0();
    }
    ami1
    {
        type            cyclicAMI;
        value           nonuniform List<vector> 0();
    }
    walls
    {
        type            noSlip;
    }
    ami2
    {
        type            cyclicAMI;
        value           nonuniform List<vector> 0();
    }
    outlet
    {
        type            zeroGradient;
    }
    procBoundary6to5
    {
        type            processor;
        value           nonuniform List<vector> 
177
(
(0.0235989 1.60344e-05 1.45408e-05)
(0.0367018 3.10155e-05 1.76453e-05)
(0.0399128 -8.33198e-06 7.51026e-05)
(0.0555462 -9.55624e-05 0.000112596)
(0.0648772 -0.00018594 0.000133435)
(0.0901921 -0.00010496 0.000217624)
(0.0648772 -0.00018594 0.000133435)
(0.0698094 -0.000245178 0.000134009)
(0.0696758 -0.000221153 0.000104556)
(0.0696758 -0.000221153 0.000104556)
(0.0696758 -0.000221153 0.000104556)
(0.0655901 -0.000186286 8.78716e-05)
(0.0655901 -0.000186286 8.78716e-05)
(0.0587159 -0.000107441 5.55664e-05)
(0.0492447 -6.47907e-05 3.03302e-05)
(0.0492447 -6.47907e-05 3.03302e-05)
(0.0367065 -1.93844e-05 2.29144e-05)
(0.0687811 -9.03188e-05 5.17716e-06)
(0.02352 -1.0479e-05 8.52121e-06)
(0.0367018 3.10155e-05 1.76453e-05)
(0.0367018 3.10155e-05 1.76453e-05)
(0.0492507 3.79914e-05 6.61038e-05)
(0.0691013 1.86199e-05 0.000139997)
(0.0901921 -0.00010496 0.000217624)
(0.0867896 5.18593e-05 0.000233318)
(0.0901921 -0.00010496 0.000217624)
(0.0998691 -0.000234786 0.000248782)
(0.103785 -0.000317661 0.00025711)
(0.103944 -0.000340389 0.000233507)
(0.101421 -0.000321775 0.000181413)
(0.0961598 -0.000244749 9.70509e-05)
(0.0961598 -0.000244749 9.70509e-05)
(0.0961598 -0.000244749 9.70509e-05)
(0.0866166 -0.000201815 3.68727e-05)
(0.0866166 -0.000201815 3.68727e-05)
(0.0687811 -9.03188e-05 5.17716e-06)
(0.0687811 -9.03188e-05 5.17716e-06)
(0.0398172 -5.12213e-05 -1.26366e-05)
(0.0492507 3.79914e-05 6.61038e-05)
(0.0492507 3.79914e-05 6.61038e-05)
(0.0867896 5.18593e-05 0.000233318)
(0.0961783 0.000104373 0.000236954)
(0.106001 -6.81828e-05 0.000375932)
(0.114449 -0.000209662 0.000372415)
(0.117921 -0.000309031 0.000334012)
(0.118457 -0.000366238 0.000260255)
(0.116932 -0.000394377 0.000159054)
(0.116932 -0.000394377 0.000159054)
(0.113297 -0.000406548 4.01661e-05)
(0.105987 -0.000383698 -7.591e-05)
(0.0900395 -0.000179147 -9.72652e-05)
(0.0900395 -0.000179147 -9.72652e-05)
(0.0900395 -0.000179147 -9.72652e-05)
(0.0900395 -0.000179147 -9.72652e-05)
(0.0554349 -7.51546e-05 -9.13893e-05)
(0.0587692 6.50002e-05 0.000112272)
(0.0587692 6.50002e-05 0.000112272)
(0.0961783 0.000104373 0.000236954)
(0.0961783 0.000104373 0.000236954)
(0.0961783 0.000104373 0.000236954)
(0.113274 4.3253e-05 0.000397731)
(0.113274 4.3253e-05 0.000397731)
(0.120971 -8.45609e-05 0.000360619)
(0.120971 -8.45609e-05 0.000360619)
(0.124353 -0.000186418 0.000290291)
(0.124353 -0.000186418 0.000290291)
(0.125181 -0.000259289 0.000186477)
(0.125181 -0.000259289 0.000186477)
(0.125181 -0.000259289 0.000186477)
(0.123952 -0.000352196 6.49719e-05)
(0.120972 -0.000366941 -7.37822e-05)
(0.120972 -0.000366941 -7.37822e-05)
(0.120972 -0.000366941 -7.37822e-05)
(0.114443 -0.000379012 -0.000203753)
(0.114443 -0.000379012 -0.000203753)
(0.0998559 -0.000237843 -0.000230763)
(0.0998559 -0.000237843 -0.000230763)
(0.0649043 -0.000126258 -0.000199428)
(0.0658564 0.000110877 0.00020612)
(0.101402 0.000185304 0.000307471)
(0.101402 0.000185304 0.000307471)
(0.116818 0.000172821 0.000423355)
(0.116818 0.000172821 0.000423355)
(0.123935 4.97215e-05 0.000345905)
(0.123935 4.97215e-05 0.000345905)
(0.127224 -6.06338e-05 0.000239071)
(0.127224 -6.06338e-05 0.000239071)
(0.12817 -0.00015219 0.000106215)
(0.127234 -0.000240404 -4.05012e-05)
(0.124204 -0.000318889 -0.00018834)
(0.117819 -0.000372025 -0.00033463)
(0.103831 -0.000285987 -0.000350536)
(0.0698121 -0.000146862 -0.000260761)
(0.0698121 -0.000146862 -0.000260761)
(0.0698121 -0.000146862 -0.000260761)
(0.0699336 0.000126163 0.000252797)
(0.0699336 0.000126163 0.000252797)
(0.103969 0.000263858 0.000389528)
(0.103921 0.000224634 0.000330569)
(0.103921 0.000224634 0.000330569)
(0.103921 0.000224634 0.000330569)
(0.118232 0.000305793 0.000427674)
(0.117823 0.000355148 0.000334175)
(0.12485 0.000207013 0.000297381)
(0.124205 0.000304704 0.000189882)
(0.127979 9.98769e-05 0.000151065)
(0.129111 -6.06567e-06 1.25566e-06)
(0.127224 0.000233811 4.48488e-05)
(0.129111 -6.06567e-06 1.25566e-06)
(0.128171 -0.000102138 -0.000139615)