/*--------------------------------*- C++ -*----------------------------------*\
| =========                 |                                                 |
| \\      /  F ield         | OpenFOAM: The Open Source CFD Toolbox           |
|  \\    /   O peration     | Version:  2212                                  |
|   \\  /    A nd           | Website:  www.openfoam.com                      |
|    \\/     M anipulation  |                                                 |
\*---------------------------------------------------------------------------*/
FoamFile
{
    version     2.0;
    format      ascii;
    arch        "LSB;label=32;scalar=64";
    class       volScalarField;
    location    "2.65";
    object      nut;
}
// * * * * * * * * * * * * * * * * * * * * * * * * * * * * * * * * * * * * * //

dimensions      [0 2 -1 0 0 0 0];

internalField   nonuniform List<scalar> 
689
(
4.34879e-06
4.25623e-06
4.18788e-06
4.13102e-06
4.08254e-06
4.03991e-06
4.00059e-06
3.96344e-06
8.91558e-06
8.7241e-06
8.57488e-06
8.44764e-06
8.33248e-06
8.22737e-06
8.12641e-06
8.03407e-06
1.38972e-05
1.35312e-05
1.32067e-05
1.2923e-05
1.26744e-05
1.24532e-05
1.22528e-05
1.20709e-05
1.19033e-05
2.05718e-05
1.91407e-05
1.8349e-05
1.77757e-05
1.72809e-05
1.68449e-05
1.64545e-05
1.61021e-05
1.5781e-05
1.5486e-05
1.52134e-05
1.49602e-05
2.33675e-05
2.21183e-05
2.12016e-05
2.04642e-05
1.98352e-05
1.92883e-05
1.88045e-05
1.83687e-05
1.79694e-05
1.76012e-05
1.72597e-05
1.69415e-05
2.38206e-05
2.29549e-05
2.21349e-05
2.14055e-05
2.07547e-05
2.01704e-05
1.96439e-05
1.91676e-05
1.87269e-05
1.83167e-05
1.79356e-05
1.75812e-05
2.28347e-05
2.2046e-05
2.13019e-05
2.06155e-05
1.99818e-05
1.93979e-05
1.88619e-05
1.83697e-05
1.79177e-05
1.75032e-05
1.71237e-05
1.67752e-05
2.06804e-05
1.97189e-05
1.89049e-05
1.8191e-05
1.75534e-05
1.69907e-05
1.64843e-05
1.60305e-05
1.56294e-05
1.52749e-05
1.49568e-05
1.46709e-05
1.66077e-05
1.56782e-05
1.4882e-05
1.42211e-05
1.3639e-05
1.31998e-05
1.28219e-05
1.25017e-05
1.22375e-05
1.20015e-05
1.17861e-05
1.11699e-05
1.05364e-05
9.91967e-06
9.42773e-06
9.03528e-06
8.74767e-06
8.54118e-06
8.37586e-06
8.23896e-06
8.11677e-06
8.0003e-06
5.41422e-06
5.04158e-06
4.69686e-06
4.48439e-06
4.34546e-06
4.25294e-06
4.18504e-06
4.12881e-06
4.08139e-06
4.04072e-06
4.00205e-06
9.03825e-06
8.75199e-06
8.54567e-06
8.3804e-06
8.24131e-06
8.11593e-06
7.99831e-06
7.89199e-06
2.03036e-05
1.93787e-05
1.83435e-05
1.74806e-05
1.66329e-05
1.57914e-05
1.48806e-05
1.41183e-05
5.17128e-05
4.87976e-05
4.61989e-05
4.37448e-05
4.14415e-05
3.92377e-05
3.71577e-05
3.51134e-05
3.36541e-05
8.13687e-05
8.0074e-05
7.72897e-05
7.44352e-05
7.12606e-05
6.79135e-05
6.42083e-05
6.08257e-05
5.76802e-05
5.47638e-05
5.20585e-05
4.95908e-05
0.000107147
9.95896e-05
9.34968e-05
8.82905e-05
8.36545e-05
8.00846e-05
7.68516e-05
7.3313e-05
6.94521e-05
6.59625e-05
6.27763e-05
5.98623e-05
0.00010921
0.000102932
9.73975e-05
9.24031e-05
8.78344e-05
8.37446e-05
8.0432e-05
7.78685e-05
7.4356e-05
7.05629e-05
6.7211e-05
6.41797e-05
0.000104218
9.78669e-05
9.24259e-05
8.76972e-05
8.34534e-05
7.9819e-05
7.70976e-05
7.4551e-05
7.097e-05
6.75639e-05
6.45392e-05
6.17788e-05
8.94907e-05
8.25488e-05
7.7784e-05
7.40236e-05
7.05989e-05
6.84483e-05
6.56441e-05
6.22242e-05
5.91967e-05
5.64372e-05
5.38824e-05
5.15112e-05
5.35943e-05
5.40155e-05
5.15066e-05
5.0505e-05
4.83582e-05
4.5836e-05
4.35845e-05
4.14292e-05
3.93901e-05
3.74037e-05
3.54604e-05
2.33056e-05
2.35564e-05
2.21338e-05
2.10417e-05
1.99895e-05
1.89402e-05
1.82242e-05
1.74311e-05
1.67102e-05
1.59273e-05
1.50213e-05
1.03793e-05
9.8616e-06
9.44347e-06
9.14497e-06
8.90613e-06
8.71483e-06
8.56751e-06
8.44216e-06
8.32876e-06
8.22602e-06
8.12563e-06
1.42201e-05
1.36321e-05
1.31857e-05
1.28158e-05
1.25016e-05
1.2237e-05
1.19982e-05
1.17813e-05
1.15843e-05
5.04828e-05
4.8223e-05
4.57033e-05
4.34389e-05
4.12833e-05
3.9225e-05
3.72236e-05
3.52367e-05
3.3407e-05
9.6142e-05
9.21366e-05
8.82932e-05
8.4627e-05
8.10812e-05
7.76451e-05
7.4325e-05
7.10862e-05
6.79721e-05
0.000151418
0.000142746
0.000135541
0.000129322
0.00012374
0.000118596
0.000113749
0.000109189
0.00010488
0.000100784
9.68655e-05
9.3121e-05
0.000166631
0.000160181
0.000153617
0.000147238
0.000141174
0.000135529
0.000130252
0.000125271
0.000120491
0.000115957
0.000111656
0.000107571
0.000176521
0.000167974
0.000160278
0.000153266
0.000146821
0.000140892
0.00013545
0.000130446
0.000125691
0.000121133
0.000116793
0.000112674
0.000171879
0.000162188
0.000154037
0.00014697
0.00014069
0.00013504
0.000129913
0.000125178
0.000120687
0.000116418
0.000112342
0.000108447
0.000142631
0.000137649
0.000132304
0.000127128
0.000122202
0.000117613
0.000113248
0.000109022
0.000104943
0.000101022
9.72732e-05
9.37123e-05
0.0001104
0.000105804
0.000100779
9.63811e-05
9.23224e-05
8.84273e-05
8.47241e-05
8.11553e-05
7.77084e-05
7.43985e-05
7.11413e-05
5.81718e-05
5.73397e-05
5.37967e-05
5.09244e-05
4.83433e-05
4.59323e-05
4.35907e-05
4.13597e-05
3.91918e-05
3.7182e-05
3.51328e-05
1.53908e-05
1.47858e-05
1.42784e-05
1.38908e-05
1.35259e-05
1.32038e-05
1.29204e-05
1.26717e-05
1.24505e-05
1.22503e-05
1.20691e-05
1.81729e-05
1.75335e-05
1.69756e-05
1.64711e-05
1.60219e-05
1.56245e-05
1.52705e-05
1.49519e-05
1.46653e-05
7.34933e-05
7.02675e-05
6.82403e-05
6.54746e-05
6.20876e-05
5.90735e-05
5.63193e-05
5.37644e-05
5.13661e-05
0.000126918
0.000122066
0.000117528
0.000113188
0.000108973
0.0001049
0.000100976
9.72284e-05
9.36304e-05
0.000186986
0.000179136
0.000171663
0.00016468
0.000158177
0.000152144
0.000146513
0.000141216
0.000136218
0.000131487
0.000126994
0.000122717
0.000212268
0.000202449
0.000193647
0.000185636
0.000178274
0.000171463
0.000165138
0.000159239
0.000153721
0.00014852
0.000143597
0.000138929
0.000219364
0.000209424
0.000200431
0.000192211
0.00018464
0.000177629
0.000171114
0.000165044
0.000159365
0.00015403
0.000148996
0.00014423
0.000208373
0.000200335
0.000192452
0.00018492
0.000177818
0.000171166
0.000164948
0.00015913
0.000153669
0.000148525
0.000143666
0.000139062
0.00018702
0.000179199
0.000171726
0.000164728
0.00015821
0.000152168
0.000146534
0.000141234
0.000136234
0.000131502
0.000127009
0.000122734
0.000151361
0.000143051
0.000135864
0.00012958
0.000123917
0.000118729
0.000113869
0.000109285
0.000104957
0.000100849
9.69303e-05
8.09667e-05
7.98086e-05
7.71136e-05
7.4316e-05
7.12116e-05
6.78727e-05
6.41796e-05
6.08077e-05
5.76722e-05
5.47694e-05
5.21077e-05
2.05594e-05
1.91523e-05
1.83511e-05
1.77757e-05
1.728e-05
1.68436e-05
1.64532e-05
1.61009e-05
1.57799e-05
1.54852e-05
1.52129e-05
2.05889e-05
1.99612e-05
1.93829e-05
1.88506e-05
1.83613e-05
1.79113e-05
1.74981e-05
1.71193e-05
1.6771e-05
8.73363e-05
8.32681e-05
7.97277e-05
7.70931e-05
7.44664e-05
7.08799e-05
6.74893e-05
6.44736e-05
6.17143e-05
0.000146754
0.000140594
0.000135005
0.000129905
0.00012517
0.000120671
0.000116395
0.000112313
0.000108408
0.000208225
0.000200141
0.000192293
0.000184816
0.000177758
0.000171134
0.000164933
0.000159121
0.000153661
0.000148516
0.000143655
0.000139049
0.000233603
0.000224181
0.000215241
0.000206844
0.000198987
0.00019164
0.000184768
0.000178332
0.000172294
0.000166619
0.00016127
0.000156213
0.000242225
0.000232168
0.000222797
0.000214069
0.000205935
0.000198344
0.000191251
0.000184611
0.000178386
0.000172537
0.000167029
0.000161824
0.000233628
0.000224171
0.000215237
0.000206851
0.000198998
0.000191652
0.000184779
0.000178341
0.000172302
0.000166626
0.000161277
0.000156219
0.000212297
0.000202506
0.000193719
0.000185708
0.000178339
0.00017152
0.000165184
0.000159277
0.000153755
0.000148551
0.000143626
0.000138952
0.000166686
0.000160221
0.000153691
0.00014733
0.00014127
0.000135624
0.000130337
0.000125338
0.000120556
0.000116023
0.000111725
0.000107114
9.95428e-05
9.3457e-05
8.82634e-05
8.36402e-05
8.00893e-05
7.68544e-05
7.33092e-05
6.94547e-05
6.59739e-05
6.28091e-05
2.33672e-05
2.21142e-05
2.11978e-05
2.04609e-05
1.98322e-05
1.92858e-05
1.88023e-05
1.83667e-05
1.79675e-05
1.75996e-05
1.72577e-05
0.000219227
0.000209276
0.000200322
0.000192146
0.000184606
0.000177614
0.000171109
0.000165041
0.000159362
0.000154025
0.000148987
0.000144215
0.000242175
0.000232123
0.00022276
0.000214039
0.000205911
0.000198325
0.000191234
0.000184596
0.000178371
0.000172521
0.000167012
0.000161805
0.000248872
0.000239288
0.000229999
0.000221184
0.000212893
0.000205121
0.00019784
0.000191014
0.000184608
0.000178586
0.000172916
0.000167556
0.00024218
0.00023211
0.00022275
0.000214039
0.000205919
0.000198338
0.00019125
0.000184612
0.000178387
0.000172537
0.000167028
0.00016182
0.000219419
0.000209385
0.000200406
0.000192217
0.000184668
0.00017767
0.00017116
0.000165089
0.000159408
0.00015407
0.000149034
0.000144267
0.000176405
0.000167855
0.000160231
0.000153275
0.000146865
0.000140954
0.000135523
0.000130522
0.00012576
0.000121198
0.000116864
0.000109166
0.000102892
9.73641e-05
9.23763e-05
8.78152e-05
8.3765e-05
8.04689e-05
7.78506e-05
7.43456e-05
7.05754e-05
6.72288e-05
2.38184e-05
2.2952e-05
2.21325e-05
2.14022e-05
2.07505e-05
2.01659e-05
1.96395e-05
1.91635e-05
1.87229e-05
1.8313e-05
1.79313e-05
)
;

boundaryField
{
    inlet
    {
        type            calculated;
        value           nonuniform List<scalar> 0();
    }
    ami1
    {
        type            cyclicAMI;
        value           nonuniform List<scalar> 0();
    }
    walls
    {
        type            nutkWallFunction;
        blending        stepwise;
        value           uniform 0;
    }
    ami2
    {
        type            cyclicAMI;
        value           nonuniform List<scalar> 
48
(
2.65688e-05
3.00393e-05
2.91333e-05
2.3645e-05
2.34943e-05
2.20737e-05
1.88046e-05
1.41759e-05
8.88612e-05
0.00011369
0.000113539
0.000109329
9.29016e-05
5.69737e-05
2.38924e-05
1.44296e-05
0.000157113
0.000171835
0.00018131
0.000175669
0.000145021
0.000113847
6.9742e-05
1.60035e-05
0.000191337
0.000217341
0.000224615
0.000213137
0.000191352
0.000157087
8.86645e-05
2.65646e-05
0.000213064
0.000238439
0.000247848
0.000238451
0.000217358
0.000171871
0.000113682
3.00407e-05
0.000224543
0.000247821
0.000253685
0.000247823
0.000224642
0.000181263
0.000113521
2.91327e-05
)
;
    }
    outlet
    {
        type            calculated;
        value           nonuniform List<scalar> 0();
    }
    procBoundary0to1
    {
        type            processor;
        value           nonuniform List<scalar> 
138
(
2.12934e-05
2.14011e-05
2.07485e-05
2.01641e-05
1.96382e-05
1.91623e-05
1.8722e-05
1.83125e-05
1.79321e-05
1.75785e-05
9.23279e-05
9.24104e-05
8.7843e-05
8.37943e-05
8.05008e-05
7.78615e-05
7.43533e-05
7.05791e-05
6.72336e-05
6.41995e-05
0.000171907
0.000162146
0.000154018
0.000154018
0.000153329
0.00014688
0.000140948
0.000135499
0.000130484
0.000125723
0.000121158
0.000116811
0.000112685
0.00017647
0.000168018
0.00016035
0.000153329
0.00014688
0.000140948
0.000135499
0.000130484
0.000125723
0.000121158
0.000116811
0.000112685
0.000212236
0.000202439
0.000193641
0.000185626
0.000178259
0.000171445
0.000165117
0.000159217
0.000153699
0.000148497
0.000143572
0.000138901
0.000233723
0.000224257
0.000215283
0.000206865
0.000198994
0.000191639
0.000184762
0.000178322
0.000172283
0.000166605
0.000161254
0.000156194
0.000242235
0.000232147
0.000222769
0.000214044
0.000205914
0.000198327
0.000191237
0.000184598
0.000178372
0.000172522
0.000167013
0.000161806
0.000233706
0.000224205
0.00021525
0.000206854
0.000198996
0.000191648
0.000184774
0.000178335
0.000172296
0.000166619
0.000161269
0.000156212
0.00020833
0.00020025
0.000192368
0.000184861
0.000177786
0.000171157
0.000164957
0.000159149
0.000153693
0.000148553
0.000143696
0.000139108
0.000171805
0.000162087
0.000153934
0.000146896
0.000140647
0.000135028
0.000129934
0.000125212
0.00012072
0.000116456
0.000112387
0.00010402
9.77418e-05
9.2349e-05
8.76397e-05
8.34065e-05
7.97907e-05
7.7092e-05
7.45059e-05
7.09257e-05
6.75397e-05
6.45238e-05
2.28365e-05
2.20465e-05
2.13011e-05
2.0614e-05
1.99798e-05
1.93959e-05
1.886e-05
1.83676e-05
1.79152e-05
1.75006e-05
1.71204e-05
)
;
    }
    procBoundary0to2
    {
        type            processor;
        value           nonuniform List<scalar> 
28
(
4.48341e-06
9.14569e-06
9.14569e-06
1.53889e-05
1.47834e-05
1.42836e-05
1.42836e-05
9.42145e-06
9.42145e-06
2.11055e-05
2.11055e-05
2.11055e-05
5.8493e-05
5.75137e-05
5.40643e-05
5.40643e-05
1.4872e-05
5.09864e-05
0.000110317
0.000105265
0.000100307
0.000100307
1.89e-05
7.76951e-05
0.000142556
0.000137465
0.00013217
0.00013217
)
;
    }
    procBoundary0to8
    {
        type            processor;
        value           nonuniform List<scalar> 
29
(
3.92617e-06
7.94379e-06
1.17502e-05
1.47243e-05
1.66433e-05
7.78681e-06
1.31593e-05
3.14323e-05
4.73412e-05
5.72451e-05
1.14033e-05
3.15085e-05
6.5052e-05
8.95723e-05
0.000103717
1.44025e-05
4.92348e-05
9.03542e-05
0.000118645
0.000134446
1.64496e-05
5.92745e-05
0.000104813
0.000134673
0.00015137
0.000156823
0.000139653
0.00015682
0.000162414
)
;
    }
    procBoundary0to9
    {
        type            processor;
        value           nonuniform List<scalar> 
40
(
1.72487e-05
1.64532e-05
1.44077e-05
1.15908e-05
1.15908e-05
7.89923e-06
3.96635e-06
6.14584e-05
5.93199e-05
4.93499e-05
3.36481e-05
3.36481e-05
1.43722e-05
8.03795e-06
0.000108821
0.000104846
9.04035e-05
6.81977e-05
6.81977e-05
3.38572e-05
1.19023e-05
0.000139667
0.000134683
0.000118646
9.31798e-05
9.31798e-05
4.97291e-05
1.49603e-05
0.00015136
0.000134451
0.000107659
0.000107659
5.99708e-05
1.69377e-05
0.000156817
0.000139684
0.00011281
0.00011281
6.42388e-05
1.7574e-05
)
;
    }
}


// ************************************************************************* //
