/*--------------------------------*- C++ -*----------------------------------*\
| =========                 |                                                 |
| \\      /  F ield         | OpenFOAM: The Open Source CFD Toolbox           |
|  \\    /   O peration     | Version:  2212                                  |
|   \\  /    A nd           | Website:  www.openfoam.com                      |
|    \\/     M anipulation  |                                                 |
\*---------------------------------------------------------------------------*/
FoamFile
{
    version     2.0;
    format      ascii;
    arch        "LSB;label=32;scalar=64";
    class       surfaceScalarField;
    location    "2.85";
    object      phi;
}
// * * * * * * * * * * * * * * * * * * * * * * * * * * * * * * * * * * * * * //

dimensions      [0 3 -1 0 0 0 0];

oriented        oriented;

internalField   nonuniform List<scalar> 
1805
(
8.47782e-07
1.88812e-09
1.28352e-07
8.40123e-07
3.76707e-09
1.30322e-07
4.62273e-09
1.30296e-07
1.17016e-06
-4.70964e-09
1.1109e-07
1.17302e-06
-3.03176e-09
1.12725e-07
-2.01356e-09
1.13662e-07
1.4048e-06
8.80735e-08
1.41033e-06
8.85491e-08
8.90525e-08
8.49852e-07
6.30016e-09
1.24257e-07
8.47946e-07
7.15856e-09
1.2507e-07
8.45372e-07
7.66951e-09
1.25201e-07
8.41802e-07
8.13332e-09
1.24867e-07
8.37163e-07
8.59085e-09
1.24234e-07
8.31535e-07
8.98595e-09
1.23426e-07
8.25091e-07
9.30765e-09
1.2255e-07
8.17963e-07
9.52831e-09
1.21682e-07
8.10288e-07
9.6525e-09
1.20879e-07
8.02201e-07
9.71526e-09
1.2012e-07
7.93878e-07
9.72192e-09
1.19442e-07
9.67142e-09
1.18855e-07
1.1971e-06
8.93043e-09
1.06748e-07
1.19975e-06
9.36532e-09
1.07862e-07
1.20263e-06
9.81653e-09
1.08642e-07
1.20533e-06
1.01822e-08
1.09122e-07
1.20767e-06
1.05065e-08
1.09299e-07
1.20956e-06
1.08242e-08
1.09171e-07
1.2109e-06
1.11057e-08
1.08891e-07
1.21174e-06
1.12714e-08
1.08501e-07
1.21216e-06
1.13076e-08
1.0799e-07
1.21227e-06
1.12833e-08
1.0741e-07
1.21213e-06
1.12388e-08
1.06806e-07
1.11676e-08
1.06209e-07
1.44166e-06
8.36756e-08
1.44665e-06
8.40107e-08
1.45207e-06
8.43119e-08
1.45769e-06
8.45649e-08
1.46329e-06
8.47644e-08
1.46877e-06
8.48942e-08
1.47404e-06
8.49479e-08
1.47904e-06
8.49301e-08
1.48374e-06
8.48357e-08
1.48818e-06
8.46776e-08
1.49239e-06
8.44796e-08
8.42577e-08
7.67031e-07
9.96185e-09
1.1152e-07
7.69906e-07
1.11568e-08
1.11038e-07
7.72359e-07
1.17541e-08
1.10994e-07
7.73859e-07
1.22495e-08
1.11117e-07
7.74268e-07
1.28726e-08
1.10953e-07
7.73584e-07
1.35675e-08
1.10542e-07
7.71817e-07
1.42674e-08
1.1005e-07
7.69032e-07
1.48806e-08
1.09586e-07
7.6533e-07
1.5406e-08
1.09175e-07
7.6079e-07
1.58678e-08
1.08793e-07
7.55531e-07
1.62514e-08
1.0845e-07
1.65545e-08
1.081e-07
1.13309e-06
2.2088e-08
9.33155e-08
1.13663e-06
2.20172e-08
9.34634e-08
1.14084e-06
2.22778e-08
9.39104e-08
1.1451e-06
2.25313e-08
9.45783e-08
1.14926e-06
2.28464e-08
9.51701e-08
1.15313e-06
2.3254e-08
9.56098e-08
1.15665e-06
2.37161e-08
9.59257e-08
1.15979e-06
2.41266e-08
9.61122e-08
1.16253e-06
2.44915e-08
9.61661e-08
1.16486e-06
2.48445e-08
9.6105e-08
1.16678e-06
2.51701e-08
9.59674e-08
2.54539e-08
9.57844e-08
1.39221e-06
3.02288e-08
7.17176e-08
1.3967e-06
2.99013e-08
7.16363e-08
1.40202e-06
2.97721e-08
7.14897e-08
1.40777e-06
2.97336e-08
7.1618e-08
1.41366e-06
2.97456e-08
7.19708e-08
1.41956e-06
2.9808e-08
7.24414e-08
1.42538e-06
2.99054e-08
7.29381e-08
1.43104e-06
3.0011e-08
7.3388e-08
1.43649e-06
3.01186e-08
7.37588e-08
1.44173e-06
3.02326e-08
7.40494e-08
1.44676e-06
3.03494e-08
7.42692e-08
3.04609e-08
7.44322e-08
1.57825e-06
3.32751e-08
4.69204e-08
1.58491e-06
3.31753e-08
4.68198e-08
1.5919e-06
3.30934e-08
4.64809e-08
1.59913e-06
3.30217e-08
4.63074e-08
1.60645e-06
3.29532e-08
4.63486e-08
1.61378e-06
3.28854e-08
4.65504e-08
1.62103e-06
3.28223e-08
4.68671e-08
1.62814e-06
3.27622e-08
4.72538e-08
1.63508e-06
3.2706e-08
4.7657e-08
1.64185e-06
3.26575e-08
4.80456e-08
1.64844e-06
3.26182e-08
4.84111e-08
3.25854e-08
4.87447e-08
1.69232e-06
3.21736e-08
2.07232e-08
1.70038e-06
3.21751e-08
2.05234e-08
1.70862e-06
3.21709e-08
2.02539e-08
1.71696e-06
3.21527e-08
2.00677e-08
1.72534e-06
3.21238e-08
1.99882e-08
1.73368e-06
3.20849e-08
2.00066e-08
1.74192e-06
3.20428e-08
2.01126e-08
1.75003e-06
3.19969e-08
2.02899e-08
1.75797e-06
3.19486e-08
2.05184e-08
1.76572e-06
3.19006e-08
2.07785e-08
1.77329e-06
3.18551e-08
2.1051e-08
3.18116e-08
2.13238e-08
1.73033e-06
2.75742e-08
-6.34102e-09
1.73902e-06
2.75897e-08
-6.44438e-09
1.74774e-06
2.75763e-08
-6.4595e-09
1.75648e-06
2.75527e-08
-6.45663e-09
1.76522e-06
2.75432e-08
-6.45867e-09
1.77392e-06
2.7557e-08
-6.457e-09
1.78254e-06
2.75892e-08
-6.43053e-09
1.79104e-06
2.76394e-08
-6.37585e-09
1.79938e-06
2.77038e-08
-6.29417e-09
1.80755e-06
2.7777e-08
-6.1928e-09
1.81554e-06
2.78542e-08
-6.08176e-09
2.79333e-08
-5.9682e-09
1.69232e-06
2.0726e-08
-3.32747e-08
1.70038e-06
2.05273e-08
-3.31745e-08
1.70862e-06
2.02594e-08
-3.30931e-08
1.71697e-06
2.00755e-08
-3.30215e-08
1.72534e-06
1.99976e-08
-3.29527e-08
1.73368e-06
2.00167e-08
-3.28844e-08
1.74193e-06
2.01222e-08
-3.28206e-08
1.75004e-06
2.02982e-08
-3.27597e-08
1.75798e-06
2.05249e-08
-3.27027e-08
1.76573e-06
2.07829e-08
-3.26531e-08
1.77329e-06
2.10533e-08
-3.26121e-08
2.1324e-08
-3.25778e-08
1.58073e-06
1.27184e-08
-5.95414e-08
1.58773e-06
1.18655e-08
-5.94322e-08
1.59508e-06
1.11685e-08
-5.94891e-08
1.60249e-06
1.07713e-08
-5.94465e-08
1.60981e-06
1.06132e-08
-5.92941e-08
1.61695e-06
1.06405e-08
-5.90811e-08
1.62385e-06
1.08398e-08
-5.88369e-08
1.6305e-06
1.11718e-08
-5.85932e-08
1.63689e-06
1.15854e-08
-5.83692e-08
1.64307e-06
1.20455e-08
-5.81764e-08
1.64905e-06
1.25129e-08
-5.80162e-08
-5.7885e-08
1.4048e-06
4.72806e-09
-8.46965e-08
1.41032e-06
3.02869e-09
-8.52488e-08
1.41601e-06
2.0003e-09
-8.5594e-08
1.42138e-06
1.52497e-09
-8.54523e-08
1.42627e-06
1.37205e-09
-8.49845e-08
1.43066e-06
1.43117e-09
-8.43188e-08
1.43455e-06
1.74289e-09
-8.35542e-08
1.43804e-06
2.17196e-09
-8.2817e-08
1.4412e-06
2.74436e-09
-8.21697e-08
1.44418e-06
3.34128e-09
-8.16211e-08
3.91955e-09
-8.11351e-08
1.1702e-06
-1.87997e-09
-1.0708e-07
1.17306e-06
-3.76647e-09
-1.08794e-07
1.17505e-06
-4.62336e-09
-1.09035e-07
1.17583e-06
-4.84879e-09
-1.08292e-07
1.1755e-06
-4.7764e-09
-1.07111e-07
1.17424e-06
-4.53986e-09
-1.05679e-07
1.17225e-06
-4.15753e-09
-1.04156e-07
1.16981e-06
-3.74095e-09
-1.02738e-07
1.16719e-06
-3.21149e-09
-1.0149e-07
1.16454e-06
-2.65261e-09
-1.00447e-07
-2.09797e-09
-9.95904e-08
8.47718e-07
-1.23767e-07
8.40055e-07
-1.26427e-07
8.308e-07
-1.25659e-07
8.20083e-07
-1.23552e-07
8.08217e-07
-1.21092e-07
7.957e-07
-1.18812e-07
7.83006e-07
-1.16894e-07
7.7041e-07
-1.15255e-07
7.58182e-07
-1.13869e-07
7.46494e-07
-1.1273e-07
-1.11927e-07
6.19303e-07
1.41154e-08
8.79618e-08
6.27825e-07
1.56843e-08
8.68324e-08
6.33293e-07
1.67313e-08
8.8795e-08
6.36775e-07
1.75978e-08
9.00373e-08
6.38831e-07
1.86774e-08
9.02194e-08
6.39545e-07
1.96629e-08
9.01663e-08
6.39046e-07
2.0458e-08
9.00909e-08
6.37521e-07
2.11315e-08
8.99798e-08
6.35122e-07
2.17009e-08
8.98731e-08
6.31965e-07
2.21932e-08
8.97566e-08
6.28173e-07
2.26225e-08
8.962e-08
2.29829e-08
8.94697e-08
1.00076e-06
3.60186e-08
7.17381e-08
1.00371e-06
3.59136e-08
7.02852e-08
1.00743e-06
3.60378e-08
7.08906e-08
1.011e-06
3.61488e-08
7.24493e-08
1.01458e-06
3.64017e-08
7.3871e-08
1.0181e-06
3.67286e-08
7.50223e-08
1.02146e-06
3.70802e-08
7.59411e-08
1.02459e-06
3.74797e-08
7.66338e-08
1.02743e-06
3.79017e-08
7.71281e-08
1.02994e-06
3.83141e-08
7.74748e-08
1.03211e-06
3.87003e-08
7.77241e-08
3.90475e-08
7.78968e-08
1.26807e-06
5.13294e-08
5.34188e-08
1.27243e-06
5.12308e-08
5.19564e-08
1.27747e-06
5.10875e-08
5.13948e-08
1.28254e-06
5.08582e-08
5.18444e-08
1.28749e-06
5.06252e-08
5.27915e-08
1.29232e-06
5.0437e-08
5.39085e-08
1.297e-06
5.03066e-08
5.50302e-08
1.30157e-06
5.02503e-08
5.60478e-08
1.30605e-06
5.0256e-08
5.69257e-08
1.31045e-06
5.03119e-08
5.7654e-08
1.31476e-06
5.04051e-08
5.82526e-08
5.05102e-08
5.87653e-08
1.4605e-06
5.95437e-08
3.34307e-08
1.467e-06
5.94356e-08
3.21089e-08
1.47388e-06
5.9492e-08
3.1204e-08
1.48063e-06
5.94498e-08
3.09609e-08
1.48713e-06
5.92982e-08
3.11732e-08
1.49334e-06
5.90854e-08
3.16974e-08
1.49923e-06
5.88411e-08
3.24399e-08
1.50485e-06
5.85968e-08
3.32918e-08
1.51028e-06
5.83723e-08
3.41042e-08
1.51559e-06
5.81796e-08
3.4876e-08
1.52078e-06
5.80221e-08
3.5603e-08
5.78925e-08
3.62546e-08
1.58073e-06
6.11743e-08
1.27191e-08
1.58772e-06
6.1098e-08
1.18674e-08
1.59507e-06
6.12341e-08
1.11674e-08
1.60248e-06
6.13408e-08
1.07658e-08
1.60979e-06
6.13664e-08
1.06043e-08
1.61693e-06
6.13227e-08
1.06298e-08
1.62384e-06
6.12212e-08
1.08292e-08
1.63048e-06
6.10814e-08
1.11613e-08
1.63688e-06
6.0919e-08
1.15753e-08
1.64305e-06
6.07472e-08
1.20363e-08
1.64904e-06
6.05774e-08
1.2505e-08
6.04155e-08
1.29629e-08
1.62091e-06
5.66321e-08
-8.72696e-09
1.62772e-06
5.67603e-08
-8.90863e-09
1.63482e-06
5.68018e-08
-9.13477e-09
1.64218e-06
5.68391e-08
-9.31514e-09
1.64965e-06
5.68972e-08
-9.45815e-09
1.65713e-06
5.69696e-08
-9.57721e-09
1.66452e-06
5.70481e-08
-9.65335e-09
1.67177e-06
5.71254e-08
-9.67052e-09
1.67883e-06
5.71908e-08
-9.62527e-09
1.68569e-06
5.72386e-08
-9.53759e-09
1.69234e-06
5.72704e-08
-9.42943e-09
5.72875e-08
-9.30907e-09
1.57826e-06
4.69265e-08
-3.02289e-08
1.58492e-06
4.68285e-08
-2.99008e-08
1.59191e-06
4.64911e-08
-2.97719e-08
1.59914e-06
4.63201e-08
-2.97334e-08
1.60646e-06
4.63633e-08
-2.97452e-08
1.61379e-06
4.65655e-08
-2.9808e-08
1.62104e-06
4.68808e-08
-2.99056e-08
1.62815e-06
4.72647e-08
-3.00109e-08
1.6351e-06
4.76643e-08
-3.01179e-08
1.64186e-06
4.80492e-08
-3.02309e-08
1.64845e-06
4.84132e-08
-3.03452e-08
4.87444e-08
-3.04547e-08
1.46051e-06
3.34345e-08
-5.13268e-08
1.46702e-06
3.2115e-08
-5.12267e-08
1.4739e-06
3.12119e-08
-5.10874e-08
1.48066e-06
3.09727e-08
-5.08586e-08
1.48716e-06
3.11878e-08
-5.06254e-08
1.49337e-06
3.17131e-08
-5.0438e-08
1.49927e-06
3.24544e-08
-5.03083e-08
1.50489e-06
3.3304e-08
-5.02528e-08
1.51033e-06
3.41129e-08
-5.02586e-08
1.51564e-06
3.48805e-08
-5.03139e-08
1.52082e-06
3.56104e-08
-5.0399e-08
-5.04978e-08
1.28233e-06
1.81431e-08
-7.24766e-08
1.28774e-06
1.48707e-08
-7.34179e-08
1.29319e-06
1.36065e-08
-7.34386e-08
1.29771e-06
1.36727e-08
-7.26638e-08
1.3013e-06
1.42901e-08
-7.16843e-08
1.30412e-06
1.53599e-08
-7.07802e-08
1.30639e-06
1.66674e-08
-7.00359e-08
1.30834e-06
1.80001e-08
-6.94686e-08
1.31017e-06
1.91963e-08
-6.90812e-08
1.31202e-06
2.027e-08
-6.88584e-08
2.12254e-08
-6.86947e-08
1.0501e-06
2.0437e-09
-9.42488e-08
1.05342e-06
-1.49694e-09
-9.57397e-08
1.05398e-06
-1.66082e-09
-9.43316e-08
1.05204e-06
-7.1453e-10
-9.19602e-08
1.04837e-06
4.72171e-10
-8.96218e-08
1.0437e-06
1.88518e-09
-8.75367e-08
1.03872e-06
3.34635e-09
-8.58583e-08
1.03387e-06
4.73386e-09
-8.46203e-08
1.02934e-06
5.9782e-09
-8.37382e-08
1.02528e-06
7.04767e-09
-8.31715e-08
7.92869e-09
-8.27678e-08
7.48983e-07
-1.10621e-07
7.33652e-07
-1.12593e-07
7.15618e-07
-1.09286e-07
6.96438e-07
-1.05086e-07
6.77305e-07
-1.01488e-07
6.59179e-07
-9.88009e-08
6.4254e-07
-9.69076e-08
6.27583e-07
-9.55651e-08
6.14279e-07
-9.45868e-08
6.02483e-07
-9.38862e-08
-9.35051e-08
4.49768e-07
2.17284e-08
5.56841e-08
4.53884e-07
2.44869e-08
5.82293e-08
4.54326e-07
2.44608e-08
6.38929e-08
4.53594e-07
2.4926e-08
6.58429e-08
4.52356e-07
2.59152e-08
6.55431e-08
4.50647e-07
2.68233e-08
6.50522e-08
4.48619e-07
2.74805e-08
6.46378e-08
4.46298e-07
2.79496e-08
6.43514e-08
4.43694e-07
2.82687e-08
6.42086e-08
4.40827e-07
2.85169e-08
6.41072e-08
4.37716e-07
2.8719e-08
6.40117e-08
2.89263e-08
6.38536e-08
8.17515e-07
5.21053e-08
4.21007e-08
8.18807e-07
5.32971e-08
4.01824e-08
8.18933e-07
5.26786e-08
4.2547e-08
8.18286e-07
5.161e-08
4.64124e-08
8.17827e-07
5.09327e-08
4.93129e-08
8.17724e-07
5.06485e-08
5.12995e-08
8.179e-07
5.06022e-08
5.26436e-08
8.18273e-07
5.06959e-08
5.35146e-08
8.1875e-07
5.08691e-08
5.40507e-08
8.19206e-07
5.10879e-08
5.44481e-08
8.19608e-07
5.13006e-08
5.47406e-08
5.15045e-08
5.50297e-08
1.08151e-06
7.24837e-08
3.02128e-08
1.08706e-06
7.34266e-08
2.62726e-08
1.09125e-06
7.34404e-08
2.64468e-08
1.09385e-06
7.26667e-08
2.81854e-08
1.09547e-06
7.16868e-08
3.04241e-08
1.09659e-06
7.07785e-08
3.26504e-08
1.09757e-06
7.00297e-08
3.46316e-08
1.0986e-06
6.94593e-08
3.62482e-08
1.09982e-06
6.90706e-08
3.7505e-08
1.10125e-06
6.88436e-08
3.84701e-08
1.10289e-06
6.87038e-08
3.92048e-08
6.86218e-08
3.98391e-08
1.28231e-06
8.47025e-08
1.81465e-08
1.28771e-06
8.52566e-08
1.48766e-08
1.29315e-06
8.56e-08
1.36086e-08
1.29765e-06
8.54588e-08
1.36706e-08
1.30123e-06
8.49921e-08
1.42847e-08
1.30403e-06
8.43269e-08
1.5351e-08
1.30628e-06
8.35613e-08
1.66569e-08
1.30822e-06
8.28218e-08
1.79903e-08
1.31003e-06
8.21722e-08
1.9189e-08
1.31186e-06
8.16215e-08
2.02692e-08
1.31381e-06
8.11413e-08
2.12138e-08
8.07331e-08
2.20558e-08
1.4048e-06
8.80791e-08
4.73713e-09
1.41032e-06
8.85624e-08
3.04434e-09
1.416e-06
8.90738e-08
2.00669e-09
1.42137e-06
8.93372e-08
1.52338e-09
1.42625e-06
8.93435e-08
1.36474e-09
1.43064e-06
8.91463e-08
1.42281e-09
1.43452e-06
8.87774e-08
1.73578e-09
1.438e-06
8.83387e-08
2.16319e-09
1.44116e-06
8.78547e-08
2.73358e-09
1.44413e-06
8.73578e-08
3.32948e-09
1.447e-06
8.68734e-08
3.90581e-09
8.64105e-08
4.4654e-09
1.44166e-06
8.36788e-08
-8.91986e-09
1.44665e-06
8.40191e-08
-9.35612e-09
1.45208e-06
8.43268e-08
-9.81352e-09
1.4577e-06
8.45856e-08
-1.01854e-08
1.46331e-06
8.47878e-08
-1.05113e-08
1.46879e-06
8.49163e-08
-1.08293e-08
1.47406e-06
8.49657e-08
-1.11111e-08
1.47906e-06
8.49424e-08
-1.12787e-08
1.48377e-06
8.48419e-08
-1.13167e-08
1.4882e-06
8.46777e-08
-1.12917e-08
1.49241e-06
8.44755e-08
-1.12451e-08
8.42503e-08
-1.11701e-08
1.39221e-06
7.17246e-08
-2.20918e-08
1.3967e-06
7.16487e-08
-2.20207e-08
1.40203e-06
7.15024e-08
-2.2278e-08
1.40778e-06
7.1633e-08
-2.25298e-08
1.41368e-06
7.19877e-08
-2.2844e-08
1.41958e-06
7.24569e-08
-2.32521e-08
1.42541e-06
7.29505e-08
-2.37154e-08
1.43107e-06
7.33962e-08
-2.41268e-08
1.43652e-06
7.37627e-08
-2.44927e-08
1.44177e-06
7.40492e-08
-2.48463e-08
1.4468e-06
7.42721e-08
-2.5171e-08
7.44378e-08
-2.54533e-08
1.26809e-06
5.34279e-08
-3.60236e-08
1.27246e-06
5.19697e-08
-3.59185e-08
1.27751e-06
5.1404e-08
-3.60437e-08
1.28258e-06
5.18573e-08
-3.61545e-08
1.28755e-06
5.28063e-08
-3.64067e-08
1.29238e-06
5.39197e-08
-3.67323e-08
1.29707e-06
5.50365e-08
-3.70833e-08
1.30164e-06
5.60494e-08
-3.74824e-08
1.30613e-06
5.69235e-08
-3.79044e-08
1.31054e-06
5.76438e-08
-3.83177e-08
1.31484e-06
5.82631e-08
-3.86962e-08
-3.90346e-08
1.08154e-06
3.02202e-08
-5.21094e-08
1.08712e-06
2.62793e-08
-5.33045e-08
1.09133e-06
2.64446e-08
-5.26918e-08
1.09396e-06
2.81884e-08
-5.1622e-08
1.0956e-06
3.04303e-08
-5.09471e-08
1.09675e-06
3.26547e-08
-5.06669e-08
1.09774e-06
3.46319e-08
-5.06207e-08
1.09878e-06
3.62431e-08
-5.07108e-08
1.10001e-06
3.74976e-08
-5.08813e-08
1.10147e-06
3.84342e-08
-5.11103e-08
3.92106e-08
-5.12903e-08
8.45834e-07
3.57739e-09
-7.27382e-08
8.49161e-07
4.39162e-10
-7.32271e-08
8.47286e-07
3.522e-09
-6.95345e-08
8.42079e-07
6.99125e-09
-6.55555e-08
8.35633e-07
1.02448e-08
-6.29908e-08
8.2922e-07
1.2983e-08
-6.14511e-08
8.23427e-07
1.51048e-08
-6.05385e-08
8.18454e-07
1.67381e-08
-6.01426e-08
8.14259e-07
1.79865e-08
-6.0032e-08
8.10772e-07
1.8872e-08
-6.01225e-08
1.94562e-08
-6.01201e-08
5.6328e-07
-8.64678e-08
5.35917e-07
-8.47918e-08
5.08618e-07
-7.84641e-08
4.84756e-07
-7.42332e-08
4.64867e-07
-7.13536e-08
4.48842e-07
-6.97933e-08
4.36107e-07
-6.90676e-08
4.25917e-07
-6.86369e-08
4.1756e-07
-6.82429e-08
4.10452e-07
-6.79067e-08
-6.77683e-08
2.60717e-07
4.39192e-08
1.6001e-08
2.50219e-07
4.22702e-08
2.64573e-08
2.44469e-07
3.59504e-08
3.36927e-08
2.42165e-07
3.24655e-08
3.56823e-08
2.4049e-07
3.16896e-08
3.55288e-08
2.38697e-07
3.16482e-08
3.51964e-08
2.36694e-07
3.16527e-08
3.49884e-08
2.34508e-07
3.16931e-08
3.48447e-08
2.32228e-07
3.17766e-08
3.4712e-08
2.29905e-07
3.18442e-08
3.45858e-08
2.27543e-07
3.19011e-08
3.44733e-08
3.19137e-08
3.43607e-08
5.7291e-07
7.2735e-08
2.39592e-09
5.74917e-07
7.32229e-08
7.22333e-09
5.69264e-07
6.95269e-08
1.46226e-08
5.62181e-07
6.5555e-08
2.0406e-08
5.55795e-07
6.29941e-08
2.43951e-08
5.50668e-07
6.14517e-08
2.66231e-08
5.46647e-07
6.05327e-08
2.77841e-08
5.43312e-07
6.01275e-08
2.84159e-08
5.40292e-07
6.00401e-08
2.8807e-08
5.37426e-07
6.00527e-08
2.91049e-08
5.34628e-07
6.01251e-08
2.93154e-08
6.01115e-08
2.95089e-08
8.45815e-07
9.4249e-08
3.58364e-09
8.4911e-07
9.57418e-08
4.58629e-10
8.47194e-07
9.43344e-08
3.55523e-09
8.41936e-07
9.19693e-08
7.02845e-09
8.35444e-07
8.96311e-08
1.02788e-08
8.28998e-07
8.75418e-08
1.30069e-08
8.23188e-07
8.58586e-08
1.51151e-08
8.18211e-07
8.46154e-08
1.67371e-08
8.14038e-07
8.37318e-08
1.79865e-08
8.10554e-07
8.31425e-08
1.88639e-08
8.07644e-07
8.27758e-08
1.94649e-08
8.25072e-08
1.98534e-08
1.05009e-06
1.07079e-07
2.05517e-09
1.05339e-06
1.08793e-07
-1.47437e-09
1.05393e-06
1.09039e-07
-1.63398e-09
1.05195e-06
1.083e-07
-6.84367e-10
1.04824e-06
1.07121e-07
5.02095e-10
1.04354e-06
1.05689e-07
1.90929e-09
1.03853e-06
1.04164e-07
3.3619e-09
1.03365e-06
1.02744e-07
4.74038e-09
1.0291e-06
1.01492e-07
5.97814e-09
1.02502e-06
1.00444e-07
7.04287e-09
1.02149e-06
9.95949e-08
7.92537e-09
9.88973e-08
8.66818e-09
1.17021e-06
1.11085e-07
-1.87759e-09
1.17308e-06
1.12727e-07
-3.75736e-09
1.17507e-06
1.13674e-07
-4.61413e-09
1.17584e-06
1.13892e-07
-4.83723e-09
1.17549e-06
1.13593e-07
-4.76502e-09
1.17421e-06
1.12926e-07
-4.52955e-09
1.1722e-06
1.1206e-07
-4.14918e-09
1.16974e-06
1.111e-07
-3.73667e-09
1.1671e-06
1.10081e-07
-3.21199e-09
1.16444e-06
1.09094e-07
-2.65812e-09
1.16187e-06
1.08175e-07
-2.10758e-09
1.07339e-07
-1.56982e-09
1.19711e-06
1.06747e-07
-6.29995e-09
1.19978e-06
1.07863e-07
-7.1547e-09
1.20265e-06
1.08648e-07
-7.6639e-09
1.20535e-06
1.09135e-07
-8.1271e-09
1.2077e-06
1.09315e-07
-8.58307e-09
1.20959e-06
1.09188e-07
-8.97888e-09
1.21093e-06
1.08909e-07
-9.30389e-09
1.21177e-06
1.08516e-07
-9.52949e-09
1.21219e-06
1.08001e-07
-9.65863e-09
1.2123e-06
1.07416e-07
-9.7249e-09
1.21216e-06
1.06807e-07
-9.73363e-09
1.06207e-07
-9.68287e-09
1.1331e-06
9.33138e-08
-9.96607e-09
1.13664e-06
9.3462e-08
-1.11608e-08
1.14085e-06
9.3913e-08
-1.1755e-08
1.14512e-06
9.4585e-08
-1.2248e-08
1.14928e-06
9.51792e-08
-1.28692e-08
1.15316e-06
9.56194e-08
-1.35636e-08
1.15668e-06
9.59347e-08
-1.42637e-08
1.15983e-06
9.61199e-08
-1.4878e-08
1.16257e-06
9.61718e-08
-1.54058e-08
1.1649e-06
9.61077e-08
-1.58708e-08
1.16683e-06
9.59734e-08
-1.62587e-08
9.57972e-08
-1.65645e-08
1.00077e-06
7.17348e-08
-1.4122e-08
1.00373e-06
7.02802e-08
-1.56922e-08
1.00745e-06
7.08867e-08
-1.67389e-08
1.01103e-06
7.24482e-08
-1.76044e-08
1.01462e-06
7.38694e-08
-1.86803e-08
1.01815e-06
7.50186e-08
-1.96606e-08
1.02151e-06
7.59374e-08
-2.04527e-08
1.02465e-06
7.66317e-08
-2.11258e-08
1.02748e-06
7.71266e-08
-2.16972e-08
1.03001e-06
7.74618e-08
-2.21952e-08
1.03218e-06
7.77382e-08
-2.26379e-08
-2.30099e-08
8.17521e-07
4.20943e-08
-2.17351e-08
8.18823e-07
4.01709e-08
-2.44971e-08
8.18964e-07
4.2532e-08
-2.44776e-08
8.18336e-07
4.64009e-08
-2.49474e-08
8.17894e-07
4.93024e-08
-2.59377e-08
8.17798e-07
5.12858e-08
-2.68382e-08
8.17973e-07
5.2627e-08
-2.74852e-08
8.18345e-07
5.34959e-08
-2.7946e-08
8.18801e-07
5.40601e-08
-2.82713e-08
8.19275e-07
5.43892e-08
-2.85112e-08
5.47509e-08
-2.8742e-08
5.7288e-07
2.39601e-09
-4.39194e-08
5.74872e-07
7.22104e-09
-4.22691e-08
5.69209e-07
1.4614e-08
-3.59538e-08
5.62121e-07
2.04032e-08
-3.2469e-08
5.55732e-07
2.4395e-08
-3.16939e-08
5.50598e-07
2.66205e-08
-3.16519e-08
5.46562e-07
2.77797e-08
-3.16557e-08
5.43207e-07
2.8408e-08
-3.16986e-08
5.40189e-07
2.88149e-08
-3.1769e-08
5.37258e-07
2.9071e-08
-3.18733e-08
2.93186e-08
-3.18998e-08
3.2267e-07
-4.93099e-08
2.88495e-07
-4.33957e-08
2.65224e-07
-4.05794e-08
2.5061e-07
-3.92162e-08
2.41262e-07
-3.76102e-08
2.348e-07
-3.67104e-08
2.29824e-07
-3.63116e-08
2.25666e-07
-3.60715e-08
2.22088e-07
-3.58495e-08
2.18908e-07
-3.56551e-08
-3.54864e-08
1.08906e-07
4.93075e-08
9.19718e-08
4.33918e-08
8.50905e-08
4.05741e-08
8.15549e-08
3.92179e-08
7.94674e-08
3.76162e-08
7.79477e-08
3.67162e-08
7.66189e-08
3.63172e-08
7.53878e-08
3.60759e-08
7.42469e-08
3.58531e-08
7.31837e-08
3.56489e-08
7.21692e-08
3.54879e-08
3.53446e-08
3.22692e-07
8.64592e-08
2.88532e-07
8.47754e-08
2.6529e-07
7.84383e-08
2.50707e-07
7.42067e-08
2.41388e-07
7.13307e-08
2.34947e-07
6.97804e-08
2.29978e-07
6.90702e-08
2.2582e-07
6.86499e-08
2.22232e-07
6.82475e-08
2.19049e-07
6.79372e-08
2.16106e-07
6.77469e-08
6.76943e-08
5.63313e-07
1.10602e-07
5.35986e-07
1.12561e-07
5.08731e-07
1.09249e-07
4.8492e-07
1.05045e-07
4.65081e-07
1.01448e-07
4.49098e-07
9.87708e-08
4.36392e-07
9.68917e-08
4.26215e-07
9.55632e-08
4.17858e-07
9.45911e-08
4.10753e-07
9.39065e-08
4.04465e-07
9.34998e-08
9.32816e-08
7.48989e-07
1.23756e-07
7.33666e-07
1.2641e-07
7.15641e-07
1.2564e-07
6.96471e-07
1.23531e-07
6.77351e-07
1.2107e-07
6.59239e-07
1.18792e-07
6.42616e-07
1.16877e-07
6.27674e-07
1.15246e-07
6.14378e-07
1.13864e-07
6.02593e-07
1.12735e-07
5.92092e-07
1.11926e-07
1.11325e-07
8.47703e-07
1.28365e-07
8.4003e-07
1.30325e-07
8.30768e-07
1.30287e-07
8.20049e-07
1.29413e-07
8.08184e-07
1.2817e-07
7.95669e-07
1.26777e-07
7.82975e-07
1.25422e-07
7.7038e-07
1.24104e-07
7.58149e-07
1.22883e-07
7.46456e-07
1.21769e-07
7.35422e-07
1.20853e-07
1.20112e-07
8.49825e-07
1.24271e-07
8.47914e-07
1.25081e-07
8.45335e-07
1.25203e-07
8.4176e-07
1.24861e-07
8.37122e-07
1.24225e-07
8.315e-07
1.2342e-07
8.25067e-07
1.22551e-07
8.17952e-07
1.21689e-07
8.10288e-07
1.2089e-07
8.02204e-07
1.20127e-07
7.93881e-07
1.19443e-07
1.18849e-07
7.67035e-07
1.11523e-07
7.69917e-07
1.11039e-07
7.72373e-07
1.10992e-07
7.73873e-07
1.11113e-07
7.74281e-07
1.10948e-07
7.73596e-07
1.10541e-07
7.7183e-07
1.10054e-07
7.69047e-07
1.09594e-07
7.65347e-07
1.09183e-07
7.60806e-07
1.08798e-07
7.55546e-07
1.08444e-07
1.08078e-07
6.19298e-07
8.79554e-08
6.27822e-07
8.68223e-08
6.33294e-07
8.87823e-08
6.3678e-07
9.00226e-08
6.38837e-07
9.02099e-08
6.39552e-07
9.01665e-08
6.39054e-07
9.00994e-08
6.3753e-07
8.99926e-08
6.35133e-07
8.98835e-08
6.31969e-07
8.97664e-08
6.28175e-07
8.96009e-08
4.49749e-07
5.56757e-08
4.5386e-07
5.82143e-08
4.54295e-07
6.38693e-08
4.53559e-07
6.58119e-08
4.52319e-07
6.55114e-08
4.50617e-07
6.50309e-08
4.48598e-07
6.46337e-08
4.46283e-07
6.43611e-08
4.43685e-07
6.42109e-08
4.408e-07
6.41404e-08
6.39946e-08
2.60687e-07
1.60022e-08
2.50174e-07
2.64579e-08
2.44401e-07
3.36887e-08
2.42072e-07
3.56726e-08
2.40374e-07
3.55149e-08
2.38569e-07
3.51846e-08
2.36566e-07
3.49812e-08
2.34387e-07
3.48416e-08
2.32118e-07
3.47111e-08
2.29798e-07
3.45871e-08
3.44785e-08
1.08899e-07
9.19608e-08
8.50701e-08
8.15266e-08
7.94313e-08
7.79056e-08
7.65752e-08
7.53454e-08
7.4207e-08
7.3139e-08
)
;

boundaryField
{
    inlet
    {
        type            calculated;
        value           nonuniform List<scalar> 0();
    }
    ami1
    {
        type            cyclicAMI;
        value           nonuniform List<scalar> 0();
    }
    walls
    {
        type            calculated;
        value           nonuniform List<scalar> 
259
(
-6.40674e-15
-1.28555e-14
-1.84387e-14
-2.43942e-14
-2.90979e-14
-6.40674e-15
-1.28555e-14
-1.84387e-14
-2.43942e-14
-2.90979e-14
-6.40674e-15
-1.28555e-14
-1.84387e-14
-2.43942e-14
-2.90979e-14
-6.40674e-15
-1.28555e-14
-1.84387e-14
-2.43942e-14
-2.90979e-14
-6.40674e-15
-1.28555e-14
-1.84387e-14
-2.43942e-14
-2.90979e-14
-6.40674e-15
-1.28555e-14
-1.84387e-14
-2.43942e-14
-2.90979e-14
-6.40674e-15
-1.28555e-14
-1.84387e-14
-2.43942e-14
-2.90979e-14
-6.40674e-15
-1.28555e-14
-1.84387e-14
-2.43942e-14
-2.90979e-14
-6.40674e-15
-1.28555e-14
-1.84387e-14
-2.43942e-14
-2.90979e-14
-6.40674e-15
-1.28555e-14
-1.84387e-14
-2.43942e-14
-2.90979e-14
-6.40674e-15
-1.28555e-14
-1.84387e-14
-2.43942e-14
-2.90979e-14
-2.90979e-14
-2.43942e-14
-1.84387e-14
-1.28555e-14
-6.40674e-15
1.1839e-22
6.40674e-15
1.28555e-14
1.84387e-14
2.43942e-14
2.90979e-14
-2.90979e-14
-2.43942e-14
-1.84387e-14
-1.28555e-14
-6.40674e-15
-1.12962e-22
6.40674e-15
1.28555e-14
1.84387e-14
2.43942e-14
2.90979e-14
-2.90979e-14
-2.43942e-14
-1.84387e-14
-1.28555e-14
-6.40674e-15
1.16225e-22
6.40674e-15
1.28555e-14
1.84387e-14
2.43942e-14
2.90979e-14
-2.90979e-14
-2.43942e-14
-1.84387e-14
-1.28555e-14
-6.40674e-15
1.16145e-22
6.40674e-15
1.28555e-14
1.84387e-14
2.43942e-14
2.90979e-14
-2.90979e-14
-2.43942e-14
-1.84387e-14
-1.28555e-14
-6.40674e-15
1.16145e-22
6.40674e-15
1.28555e-14
1.84387e-14
2.43942e-14
2.90979e-14
-2.90979e-14
-2.43942e-14
-1.84387e-14
-1.28555e-14
-6.40674e-15
-1.12881e-22
6.40674e-15
1.28555e-14
1.84387e-14
2.43942e-14
2.90979e-14
-2.90979e-14
-2.43942e-14
-1.84387e-14
-1.28555e-14
-6.40674e-15
1.16225e-22
6.40674e-15
1.28555e-14
1.84387e-14
2.43942e-14
2.90979e-14
-2.90979e-14
-2.43942e-14
-1.84387e-14
-1.28555e-14
-6.40674e-15
1.16225e-22
6.40674e-15
1.28555e-14
1.84387e-14
2.43942e-14
2.90979e-14
-2.90979e-14
-2.43942e-14
-1.84387e-14
-1.28555e-14
-6.40674e-15
1.16322e-22
6.40674e-15
1.28555e-14
1.84387e-14
2.43942e-14
2.90979e-14
-2.90979e-14
-2.43942e-14
-1.84387e-14
-1.28555e-14
-6.40674e-15
-1.32268e-22
6.40674e-15
1.28555e-14
1.84387e-14
2.43942e-14
2.90979e-14
-2.90979e-14
-2.43942e-14
-1.84387e-14
-1.28555e-14
-6.40674e-15
1.1839e-22
6.40674e-15
1.28555e-14
1.84387e-14
2.43942e-14
2.90979e-14
-2.90979e-14
-2.43942e-14
-1.84387e-14
-1.28555e-14
-6.40674e-15
1.17179e-22
6.40674e-15
1.28555e-14
-6.40674e-15
1.1839e-22
6.40674e-15
1.28555e-14
1.84387e-14
2.43942e-14
2.90979e-14
-6.40674e-15
-1.12962e-22
6.40674e-15
1.28555e-14
1.84387e-14
2.43942e-14
2.90979e-14
-6.40674e-15
1.16225e-22
6.40674e-15
1.28555e-14
1.84387e-14
2.43942e-14
2.90979e-14
1.16145e-22
6.40674e-15
1.28555e-14
1.84387e-14
2.43942e-14
2.90979e-14
1.16145e-22
6.40674e-15
1.28555e-14
1.84387e-14
2.43942e-14
2.90979e-14
-1.12881e-22
6.40674e-15
1.28555e-14
1.84387e-14
2.43942e-14
2.90979e-14
1.16225e-22
6.40674e-15
1.28555e-14
1.84387e-14
2.43942e-14
2.90979e-14
1.16225e-22
6.40674e-15
1.28555e-14
1.84387e-14
2.43942e-14
2.90979e-14
1.16322e-22
6.40674e-15
1.28555e-14
1.84387e-14
2.43942e-14
2.90979e-14
-1.32268e-22
6.40674e-15
1.28555e-14
1.84387e-14
2.43942e-14
2.90979e-14
1.1839e-22
6.40674e-15
1.28555e-14
1.84387e-14
2.43942e-14
2.90979e-14
1.17179e-22
6.40674e-15
1.28555e-14
1.84387e-14
2.43942e-14
2.90979e-14
)
;
    }
    ami2
    {
        type            cyclicAMI;
        value           nonuniform List<scalar> 
61
(
-8.54247e-07
-1.16758e-06
-1.40019e-06
-8.52058e-07
-1.19539e-06
-1.43706e-06
-7.64256e-07
-1.13179e-06
-1.38839e-06
-1.57159e-06
-1.68437e-06
-1.72167e-06
-1.68437e-06
-1.57436e-06
-1.40019e-06
-1.1676e-06
-8.54196e-07
-6.0986e-07
-1.00109e-06
-1.26508e-06
-1.45522e-06
-1.57436e-06
-1.61399e-06
-1.5716e-06
-1.45524e-06
-1.27926e-06
-1.04684e-06
-7.60086e-07
-4.39218e-07
-8.18254e-07
-1.07868e-06
-1.27925e-06
-1.40019e-06
-1.43707e-06
-1.38839e-06
-1.26509e-06
-1.0787e-06
-8.40702e-07
-5.83856e-07
-2.64953e-07
-5.62021e-07
-8.407e-07
-1.04683e-06
-1.16761e-06
-1.1954e-06
-1.13179e-06
-1.00109e-06
-8.18255e-07
-5.62001e-07
-3.57432e-07
-1.42213e-07
-3.57448e-07
-5.83873e-07
-7.60089e-07
-8.54189e-07
-8.52031e-07
-7.64252e-07
-6.09853e-07
-4.39204e-07
-2.64933e-07
-1.42206e-07
)
;
    }
    outlet
    {
        type            calculated;
        value           nonuniform List<scalar> 0();
    }
    procBoundary1to0
    {
        type            processor;
        value           nonuniform List<scalar> 
138
(
8.3086e-07
-1.2943e-07
-1.28186e-07
-1.26784e-07
-1.25413e-07
-1.24082e-07
-1.22856e-07
-1.21749e-07
-1.20841e-07
-1.20109e-07
1.17502e-06
-1.13871e-07
-1.13565e-07
-1.12896e-07
-1.12032e-07
-1.11078e-07
-1.10067e-07
-1.0909e-07
-1.0818e-07
-1.07351e-07
-1.27136e-08
-1.18687e-08
1.41602e-06
-1.11766e-08
-8.93098e-08
-8.93138e-08
-8.91197e-08
-8.87581e-08
-8.83281e-08
-8.7853e-08
-8.73647e-08
-8.68873e-08
-8.64286e-08
8.73126e-09
8.91172e-09
9.13408e-09
9.31081e-09
9.45198e-09
9.57072e-09
9.64758e-09
9.66589e-09
9.62236e-09
9.53742e-09
9.43273e-09
9.31575e-09
-5.66261e-08
-5.6751e-08
-5.67895e-08
-5.68242e-08
-5.68811e-08
-5.69541e-08
-5.70349e-08
-5.71157e-08
-5.71854e-08
-5.72376e-08
-5.72733e-08
-5.7294e-08
-2.75697e-08
-2.75832e-08
-2.75683e-08
-2.75435e-08
-2.75333e-08
-2.75473e-08
-2.75807e-08
-2.76328e-08
-2.76997e-08
-2.77755e-08
-2.78553e-08
-2.79364e-08
2.27446e-09
2.3421e-09
2.33976e-09
2.31412e-09
2.2982e-09
2.28789e-09
2.26484e-09
2.23224e-09
2.19209e-09
2.14668e-09
2.09868e-09
2.04984e-09
3.21746e-08
3.21759e-08
3.21716e-08
3.21529e-08
3.21232e-08
3.20833e-08
3.20401e-08
3.19932e-08
3.19439e-08
3.1895e-08
3.18486e-08
3.1804e-08
6.11742e-08
6.10977e-08
6.12333e-08
6.13385e-08
6.13623e-08
6.13171e-08
6.12146e-08
6.10744e-08
6.09119e-08
6.07402e-08
6.05703e-08
6.0409e-08
8.80787e-08
8.85628e-08
8.90722e-08
8.93318e-08
8.93344e-08
8.91352e-08
8.87658e-08
8.83276e-08
8.78446e-08
8.73492e-08
8.68654e-08
1.11087e-07
1.12731e-07
1.13673e-07
1.13886e-07
1.13582e-07
1.12914e-07
1.12048e-07
1.11088e-07
1.1007e-07
1.09085e-07
1.08167e-07
1.28365e-07
1.30323e-07
1.30289e-07
1.29421e-07
1.28181e-07
1.26789e-07
1.25431e-07
1.2411e-07
1.22886e-07
1.21766e-07
1.20849e-07
)
;
    }
    procBoundary1to2
    {
        type            processor;
        value           nonuniform List<scalar> 9(-1.23775e-07 -1.2643e-07 -1.25656e-07 -1.07077e-07 -1.08783e-07 -1.09025e-07 -8.46865e-08 -8.52356e-08 -8.55799e-08);
    }
    procBoundary1to8
    {
        type            processor;
        value           nonuniform List<scalar> 
33
(
7.8546e-07
1.21178e-06
1.49641e-06
7.49732e-07
1.1683e-06
1.45158e-06
1.65487e-06
1.78068e-06
1.82333e-06
6.2382e-07
1.03393e-06
1.31896e-06
1.52588e-06
1.65488e-06
1.69881e-06
4.34406e-07
8.19897e-07
1.1047e-06
1.3159e-06
1.44982e-06
1.49644e-06
2.25122e-07
5.31951e-07
8.05234e-07
1.01849e-06
1.15946e-06
1.2118e-06
7.11854e-08
2.13265e-07
3.98731e-07
5.82716e-07
7.25066e-07
7.85461e-07
)
;
    }
    procBoundary1to9
    {
        type            processor;
        value           nonuniform List<scalar> 
30
(
1.78068e-06