/*--------------------------------*- C++ -*----------------------------------*\
| =========                 |                                                 |
| \\      /  F ield         | OpenFOAM: The Open Source CFD Toolbox           |
|  \\    /   O peration     | Version:  2212                                  |
|   \\  /    A nd           | Website:  www.openfoam.com                      |
|    \\/     M anipulation  |                                                 |
\*---------------------------------------------------------------------------*/
FoamFile
{
    version     2.0;
    format      ascii;
    arch        "LSB;label=32;scalar=64";
    class       volScalarField;
    location    "2.85";
    object      epsilon;
}
// * * * * * * * * * * * * * * * * * * * * * * * * * * * * * * * * * * * * * //

dimensions      [0 2 -3 0 0 0 0];

internalField   nonuniform List<scalar> 
680
(
0.720652
0.59457
0.502476
0.432638
0.379224
0.336226
0.299722
0.740279
0.565893
0.443915
0.35601
0.290917
0.241398
0.202998
0.649787
0.497024
0.389503
0.311318
0.253015
0.209035
0.175295
0.645398
0.49261
0.384804
0.307059
0.24909
0.205041
0.171075
0.643999
0.492271
0.383992
0.305836
0.247972
0.203992
0.170045
0.643987
0.492256
0.383973
0.305807
0.247934
0.20394
0.169972
0.645372
0.492577
0.384761
0.306995
0.249005
0.204922
0.649763
0.496992
0.389448
0.311248
0.252921
0.208904
0.740272
0.565885
0.443896
0.35598
0.290869
0.241323
0.720653
0.59457
0.502478
0.432636
0.379229
0.336221
0.740272
0.565884
0.443895
0.355979
0.290869
0.241322
0.202842
0.562051
0.415369
0.31595
0.246335
0.196226
0.159223
0.131253
0.618635
0.453966
0.342043
0.263662
0.207326
0.165919
0.134866
0.666463
0.489553
0.368605
0.283616
0.222402
0.177344
0.143545
0.692724
0.509641
0.38402
0.295508
0.231653
0.184599
0.149269
0.692722
0.509636
0.384015
0.295501
0.231645
0.184588
0.149257
0.666458
0.489544
0.368593
0.283601
0.222383
0.177323
0.618631
0.453959
0.342034
0.26365
0.207311
0.165901
0.562051
0.415369
0.315949
0.246334
0.196225
0.159222
0.740279
0.565894
0.443916
0.356011
0.290918
0.241398
0.649763
0.496992
0.389447
0.311247
0.25292
0.208903
0.175109
0.618631
0.45396
0.342034
0.263651
0.207312
0.165902
0.134846
0.725635
0.532157
0.399151
0.305548
0.238224
0.188827
0.151916
0.804589
0.594206
0.44752
0.343214
0.267637
0.211904
0.170124
0.843156
0.625691
0.47285
0.363485
0.283854
0.224907
0.18059
0.843155
0.625689
0.472847
0.363481
0.28385
0.224902
0.180584
0.804587
0.594203
0.447515
0.343208
0.26763
0.211895
0.725635
0.532157
0.39915
0.305547
0.238223
0.188826
0.618635
0.453966
0.342043
0.263661
0.207325
0.165918
0.649788
0.497025
0.389503
0.311318
0.253016
0.209036
0.645372
0.492576
0.38476
0.306994
0.249005
0.204922
0.170909
0.666458
0.489544
0.368593
0.283602
0.222383
0.177322
0.14352
0.804587
0.594203
0.447516
0.343209
0.267631
0.211895
0.170115
0.896487
0.669456
0.508123
0.391656
0.306286
0.242785
0.194887
0.938712
0.705584
0.538336
0.416594
0.326729
0.2595
0.208558
0.938712
0.705583
0.538335
0.416593
0.326728
0.259498
0.208556
0.896487
0.669456
0.508122
0.391656
0.306286
0.242784
0.804589
0.594206
0.44752
0.343214
0.267637
0.211903
0.666463
0.489553
0.368605
0.283616
0.222401
0.177343
0.645399
0.492611
0.384805
0.307059
0.24909
0.20504
0.643987
0.492256
0.383972
0.305807
0.247934
0.20394
0.169972
0.692722
0.509636
0.384015
0.295501
0.231644
0.184588
0.149256
0.843155
0.625689
0.472847
0.363481
0.28385
0.224901
0.180584
0.938712
0.705583
0.538335
0.416593
0.326728
0.259498
0.208556
0.981305
0.742925
0.57021
0.443351
0.348968
0.277889
0.223736
0.981305
0.742925
0.57021
0.443351
0.348968
0.277889
0.223736
0.938712
0.705584
0.538336
0.416594
0.326729
0.259499
0.843156
0.625691
0.47285
0.363485
0.283854
0.224907
0.692724
0.509641
0.38402
0.295508
0.231653
0.184599
0.643999
0.492271
0.383992
0.305836
0.247972
0.203991
0.643999
0.492271
0.383992
0.305836
0.247972
0.203992
0.170045
0.692724
0.509641
0.38402
0.295508
0.231653
0.184598
0.149267
0.843156
0.625691
0.47285
0.363485
0.283854
0.224906
0.18059
0.938712
0.705584
0.538336
0.416594
0.326729
0.2595
0.208558
0.981305
0.742925
0.57021
0.443351
0.348968
0.277889
0.223736
0.981305
0.742925
0.57021
0.443351
0.348968
0.277889
0.223736
0.938712
0.705583
0.538335
0.416593
0.326728
0.259498
0.843155
0.625689
0.472847
0.363481
0.28385
0.224902
0.692722
0.509636
0.384015
0.295502
0.231645
0.184589
0.643987
0.492256
0.383973
0.305807
0.247934
0.203938
0.645398
0.49261
0.384804
0.307059
0.249091
0.205041
0.171076
0.666463
0.489553
0.368605
0.283616
0.222401
0.177344
0.143545
0.804589
0.594206
0.44752
0.343214
0.267637
0.211903
0.170124
0.896487
0.669456
0.508122
0.391656
0.306286
0.242785
0.194887
0.938712
0.705583
0.538335
0.416593
0.326728
0.259499
0.208556
1.26863
0.938712
0.705584
0.538336
0.416594
0.326729
0.2595
0.208558
1.22111
0.896487
0.669456
0.508122
0.391656
0.306286
0.242784
1.11236
0.804587
0.594203
0.447516
0.343209
0.267631
0.211896
0.933537
0.666457
0.489544
0.368593
0.283601
0.222383
0.177323
0.869468
0.645372
0.492577
0.384761
0.306995
0.249005
0.204922
0.649787
0.497024
0.389503
0.311318
0.253016
0.209035
0.175295
0.618635
0.453966
0.342043
0.263662
0.207326
0.165919
0.134866
0.725635
0.532157
0.399151
0.305548
0.238224
0.188827
0.151917
0.804587
0.594203
0.447516
0.343209
0.267631
0.211896
0.170115
0.843155
0.625689
0.472847
0.363482
0.28385
0.224902
0.180585
1.15828
0.843156
0.625691
0.47285
0.363485
0.283854
0.224907
0.18059
1.11236
0.804589
0.594206
0.44752
0.343214
0.267637
0.211903
1.0141
0.725635
0.532157
0.399151
0.305547
0.238224
0.188826
0.86929
0.618631
0.453959
0.342034
0.26365
0.207311
0.165902
0.873563
0.649763
0.496992
0.389448
0.311248
0.252921
0.208905
0.740279
0.565893
0.443915
0.35601
0.290917
0.241398
0.202998
0.562051
0.415369
0.31595
0.246335
0.196226
0.159224
0.131254
0.618631
0.45396
0.342034
0.263651
0.207312
0.165903
0.134847
0.666458
0.489545
0.368593
0.283602
0.222384
0.177323
0.143521
0.692722
0.509636
0.384015
0.295501
0.231644
0.184588
0.149255
0.967834
0.692725
0.509641
0.38402
0.295508
0.231653
0.184598
0.149267
0.933541
0.666464
0.489554
0.368605
0.283616
0.222401
0.177343
0.869293
0.618636
0.453966
0.342043
0.263662
0.207326
0.165919
0.786933
0.562051
0.41537
0.31595
0.246335
0.196226
0.159223
0.998642
0.740272
0.565884
0.443896
0.35598
0.290869
0.241322
0.720652
0.59457
0.502476
0.432638
0.379224
0.336226
0.299722
0.740272
0.565884
0.443895
0.355979
0.290869
0.241322
0.202842
0.649763
0.496992
0.389447
0.311247
0.25292
0.208903
0.175108
0.645372
0.492576
0.38476
0.306994
0.249005
0.204922
0.170909
0.643987
0.492256
0.383973
0.305807
0.247935
0.20394
0.169972
0.866513
0.643999
0.492271
0.383993
0.305836
0.247973
0.203993
0.170046
0.869489
0.645399
0.492611
0.384805
0.307059
0.249091
0.205041
0.873582
0.649787
0.497024
0.389503
0.311318
0.253016
0.209036
0.998647
0.740279
0.565894
0.443915
0.356011
0.290918
0.241398
0.902006
0.720653
0.59457
0.502478
0.432635
0.379229
0.33622
)
;

boundaryField
{
    inlet
    {
        type            fixedValue;
        value           nonuniform List<scalar> 0();
    }
    ami1
    {
        type            cyclicAMI;
        value           nonuniform List<scalar> 0();
    }
    walls
    {
        type            epsilonWallFunction;
        blending        stepwise;
        value           nonuniform List<scalar> 
271
(
0.869468
0.873563
0.998642
0.902006
0.720653
0.740279
0.649788
0.645399
0.643999
0.643987
0.645372
0.649763
0.740272
0.720653
0.59457
0.565894
0.497025
0.492611
0.492271
0.492256
0.492577
0.496992
0.565884
0.59457
0.502478
0.443916
0.389503
0.384805
0.383992
0.383973
0.384761
0.389448
0.443896
0.502478
0.432636
0.356011
0.311318
0.307059
0.305836
0.305807
0.306995
0.311248
0.35598
0.432635
0.379229
0.290918
0.253016
0.24909
0.247972
0.247934
0.249005
0.252921
0.290869
0.379229
0.336221
0.241398
0.209036
0.20504
0.203991
0.203938
0.204922
0.208905
0.241322
0.33622
0.720652
0.740279
0.649787
0.645398
0.643999
0.643987
0.645372
0.649763
0.740272
0.720653
0.59457
0.565893
0.497024
0.49261
0.492271
0.492256
0.492577
0.496992
0.565885
0.59457
0.502476
0.443915
0.389503
0.384804
0.383992
0.383973
0.384761
0.389448
0.443896
0.502478
0.432638
0.35601
0.311318
0.307059
0.305836
0.305807
0.306995
0.311248
0.35598
0.432636
0.379224
0.290917
0.253015
0.24909
0.247972
0.247934
0.249005
0.252921
0.290869
0.379229
0.336226
0.241398
0.209035
0.205041
0.203992
0.20394
0.204922
0.208904
0.241323
0.336221
0.299722
0.202998
0.175295
0.171075
0.170045
0.169972
0.720652
0.740272
0.649763
0.645372
0.643987
0.643999
0.645398
0.649787
0.740279
0.720652
0.59457
0.565884
0.496992
0.492576
0.492256
0.492271
0.49261
0.497024
0.565893
0.59457
0.502476
0.443895
0.389447
0.38476
0.383972
0.383992
0.384804
0.389503
0.443915
0.502476
0.432638
0.355979
0.311247
0.306994
0.305807
0.305836
0.307059
0.311318
0.35601
0.432638
0.379224
0.290869
0.25292
0.249005
0.247934
0.247972
0.249091
0.253016
0.290917
0.379224
0.336226
0.241322
0.208903
0.204922
0.20394
0.203992
0.205041
0.209035
0.241398
0.336226
0.299722
0.202842
0.175109
0.170909
0.169972
0.170045
0.171076
0.175295
0.202998
0.299722
0.866513
0.869489
0.873582
0.998647
0.902006
0.720652
0.740272
0.649763
0.645372
0.643987
0.643999
0.645399
0.649787
0.740279
0.720653
0.59457
0.565884
0.496992
0.492576
0.492256
0.492271
0.492611
0.497024
0.565894
0.59457
0.502476
0.443895
0.389447
0.38476
0.383973
0.383993
0.384805
0.389503
0.443915
0.502478
0.432638
0.355979
0.311247
0.306994
0.305807
0.305836
0.307059
0.311318
0.356011
0.432635
0.379224
0.290869
0.25292
0.249005
0.247935
0.247973
0.249091
0.253016
0.290918
0.379229
0.336226
0.241322
0.208903
0.204922
0.20394
0.203993
0.205041
0.209036
0.241398
0.33622
0.299722
0.202842
0.175108
0.170909
0.169972
0.170046
)
;
    }
    ami2
    {
        type            cyclicAMI;
        value           nonuniform List<scalar> 0();
    }
    outlet
    {
        type            zeroGradient;
    }
    procBoundary3to2
    {
        type            processor;
        value           nonuniform List<scalar> 
110
(
0.269962
0.173115
0.148945
0.144525
0.143468
0.143364
0.170907
0.170907
0.175109
0.202848
0.299732
0.172892
0.109773
0.111155
0.117754
0.122292
0.122284
0.143528
0.143528
0.13485
0.131251
0.203005
0.148668
0.111144
0.123874
0.138326
0.146789
0.146784
0.170116
0.170116
0.151915
0.13486
0.175297
0.144286
0.117741
0.138319
0.15828
0.169485
0.169484
0.194887
0.194887
0.170123
0.143539
0.171076
0.143364
0.122286
0.146785
0.169484
0.18202
0.18202
0.208558
0.208558
0.180589
0.149266
0.170043
0.143468
0.122293
0.14679
0.169485
0.18202
0.18202
0.208556
0.208556
0.180585
0.14926
0.169969
0.144525
0.117754
0.138326
0.15828
0.169484
0.169485
0.194887
0.194887
0.170116
0.143527
0.170908
0.148946
0.111154
0.123873
0.138318
0.146785
0.14679
0.170123
0.170123
0.151915
0.13485
0.175109
0.173116
0.109773
0.111144
0.117742
0.122286
0.122294
0.143539
0.143539
0.134859
0.131251
0.202849
0.269963
0.172892
0.148667
0.144286
0.143364
0.143468
0.171076
0.171076
0.175297
0.203005
0.299732
)
;
    }
    procBoundary3to4
    {
        type            processor;
        value           nonuniform List<scalar> 
109
(
0.902006
0.998646
0.873581
0.869488
0.866512
0.866504
0.869468
0.873564
0.998642
0.902006
0.998641
0.786933
0.869294
0.933543
0.967834
0.967831
0.933536
0.869289
0.786932
0.998646
0.873563
0.869289
1.0141
1.11236
1.15828
1.15828
1.11236
1.0141
0.869293
0.873581
0.869468
0.933536
1.11236
1.22111
1.26863
1.26863
1.22111
1.11236
0.933543
0.869488
0.866504
0.967831
1.15828
1.26863
1.31522
1.31522
1.26863
1.15828
0.967834
0.866513
0.866512
0.967834
1.15828
1.26863
1.31522
1.31522
1.31522
1.26863
1.26863
1.15828
1.15828
0.967831
0.967831
0.866504
0.866504
0.869488
0.933543
1.11236
1.22111
1.26863
1.26863
1.74299
1.6928
1.57142
1.3512
1.2275
0.873581
0.869294
1.0141
1.11236
1.15828
1.15828
1.62326
1.57142
1.45499
1.26609
1.22698
0.998646
0.786933
0.869289
0.933536
0.967831
0.967831
1.39506
1.35121
1.2661
1.14759
1.40266
0.902006
0.998641
0.873563
0.869468
0.866504
0.866504
1.2267
1.22751
1.227
1.40266
1.18306
)
;
    }
}


// ************************************************************************* //
