/*--------------------------------*- C++ -*----------------------------------*\
| =========                 |                                                 |
| \\      /  F ield         | OpenFOAM: The Open Source CFD Toolbox           |
|  \\    /   O peration     | Version:  2212                                  |
|   \\  /    A nd           | Website:  www.openfoam.com                      |
|    \\/     M anipulation  |                                                 |
\*---------------------------------------------------------------------------*/
FoamFile
{
    version     2.0;
    format      ascii;
    arch        "LSB;label=32;scalar=64";
    class       volScalarField;
    location    "2.35";
    object      epsilon;
}
// * * * * * * * * * * * * * * * * * * * * * * * * * * * * * * * * * * * * * //

dimensions      [0 2 -3 0 0 0 0];

internalField   nonuniform List<scalar> 
6840
(
90.5034
12.1248
4.3887
2.46659
1.63316
1.18308
0.902024
0.720677
0.594607
0.502531
0.432718
0.379342
0.336403
0.300038
0.270452
0.24655
0.227162
0.21189
0.202994
0.195313
58.5856
14.5696
6.08947
3.33296
2.08218
1.40268
0.998661
0.740296
0.565918
0.443942
0.356043
0.290957
0.241453
0.20304
0.17317
0.149935
0.131539
0.116935
0.106
0.0990461
45.0226
13.4729
5.73075
3.07323
1.86023
1.22699
0.873577
0.649779
0.497013
0.389478
0.311287
0.252974
0.208977
0.17521
0.148813
0.127887
0.111143
0.0976259
0.086694
0.078204
38.7028
13.0541
5.74336
3.08733
1.88066
1.2275
0.869473
0.645378
0.492584
0.38477
0.307008
0.249023
0.204948
0.170944
0.144334
0.123239
0.1063
0.0925309
0.0812853
0.0729496
36.0571
12.8529
5.76645
3.10211
1.89475
1.22669
0.866496
0.643978
0.492243
0.383956
0.305784
0.247904
0.203899
0.169918
0.14329
0.122138
0.105108
0.0912164
0.07981
0.0710994
36.0571
12.8529
5.76645
3.10211
1.89475
1.22669
0.866499
0.643981
0.492248
0.383962
0.305794
0.247917
0.203919
0.169949
0.143339
0.122204
0.105202
0.0913523
0.080018
0.071527
38.7028
13.0541
5.74336
3.08733
1.88066
1.2275
0.869478
0.645386
0.492594
0.384783
0.307029
0.249051
0.20499
0.17101
0.14443
0.123372
0.10649
0.0928109
0.0816869
0.0734576
45.0226
13.4729
5.73075
3.07323
1.86023
1.227
0.873581
0.649786
0.497023
0.389495
0.311309
0.253004
0.20902
0.175275
0.148911
0.128024
0.111339
0.0979177
0.0871567
0.07908
58.5856
14.5696
6.08947
3.33296
2.08218
1.40268
0.998662
0.740299
0.56592
0.443948
0.356052
0.290972
0.241475
0.203092
0.173241
0.150032
0.131689
0.117187
0.106459
0.099557
90.5034
12.1248
4.3887
2.46659
1.63316
1.18308
0.902024
0.720677
0.594607
0.50253
0.432718
0.379339
0.336403
0.300035
0.27045
0.246546
0.227156
0.211883
0.202984
0.195304
58.5856
14.5696
6.08947
3.33296
2.08218
1.40268
0.998662
0.740299
0.565921
0.443949
0.356053
0.290973
0.241477
0.20309
0.173243
0.150036
0.131694
0.117192
0.106466
0.0995639
16.5373
9.49239
5.0127
2.8606
1.75746
1.14759
0.786931
0.562048
0.415366
0.315946
0.24633
0.19622
0.159216
0.131245
0.109752
0.0931736
0.0801243
0.0696343
0.0606191
0.0562527
13.6679
8.73671
5.07741
3.05388
1.92223
1.26609
0.869288
0.618629
0.453957
0.342031
0.263647
0.207307
0.165897
0.134839
0.111132
0.0926691
0.0781387
0.0666052
0.0571708
0.0497629
12.9054
8.33993
5.07879
3.15547
2.02774
1.3512
0.933536
0.666457
0.489543
0.368592
0.2836
0.222382
0.177321
0.14352
0.11774
0.0977522
0.0820563
0.0695816
0.0595496
0.0513675
12.6882
8.1544
5.07113
3.20038
2.07939
1.39506
0.967831
0.692723
0.509637
0.384016
0.295503
0.231647
0.184592
0.149262
0.122295
0.101385
0.0849635
0.0719095
0.0614253
0.0529682
12.6882
8.1544
5.07113
3.20038
2.07939
1.39506
0.967834
0.692726
0.509643
0.384023
0.295512
0.231657
0.184604
0.149273
0.122305
0.101404
0.0849888
0.0719389
0.0614548
0.0530002
12.9054
8.33993
5.07879
3.15547
2.02775
1.35121
0.933542
0.666464
0.489554
0.368606
0.283618
0.222403
0.177345
0.143543
0.117765
0.0977935
0.082109
0.0696431
0.0596139
0.0513604
13.6679
8.73671
5.07741
3.05388
1.92224
1.2661
0.869292
0.618633
0.453965
0.342042
0.26366
0.207324
0.165916
0.134855
0.111158
0.0927038
0.078179
0.0666463
0.057194
0.0501926
16.5373
9.49239
5.0127
2.8606
1.75746
1.14759
0.786931
0.562047
0.415366
0.315946
0.24633
0.19622
0.159216
0.131236
0.10976
0.0931766
0.0801259
0.0696354
0.0606199
0.0562568
58.5856
14.5696
6.08947
3.33296
2.08218
1.40268
0.99866
0.740296
0.565917
0.443941
0.356042
0.290956
0.241452
0.203037
0.173169
0.149933
0.131537
0.11693
0.105994
0.0990411
45.0226
13.4729
5.73075
3.07323
1.86023
1.227
0.873581
0.649786
0.497023
0.389495
0.311309
0.253004
0.209018
0.175273
0.148914
0.128027
0.111342
0.0979206
0.0871607
0.0790862
13.6679
8.73671
5.07741
3.05388
1.92224
1.2661
0.869292
0.618634
0.453965
0.342042
0.26366
0.207324
0.165917
0.134864
0.111149
0.0927011
0.0781785
0.0666477
0.0571909
0.050184
11.8601
7.76395
4.99734
3.24076
2.14419
1.45499
1.0141
0.725634
0.532156
0.399149
0.305546
0.238222
0.188824
0.151913
0.123869
0.102235
0.0853171
0.0719261
0.0611842
0.0526144
11.6229
7.60535
5.0103
3.34209
2.26848
1.57142
1.11236
0.804587
0.594203
0.447515
0.343208
0.26763
0.211895
0.170116
0.13832
0.113775
0.0945876
0.0794103
0.0672738
0.0574924
11.5726
7.56718
5.02065
3.38344
2.32103
1.62326
1.15828
0.843156
0.62569
0.472848
0.363482
0.283851
0.224903
0.180587
0.146789
0.120661
0.100216
0.0840342
0.0710911
0.0606085
11.5726
7.56718
5.02065
3.38344
2.32103
1.62326
1.15828
0.843156
0.625692
0.472851
0.363486
0.283855
0.224908
0.180589
0.14679
0.120667
0.100224
0.0840448
0.0711042
0.0606438
11.6229
7.60535
5.0103
3.34209
2.26848
1.57142
1.11236
0.804588
0.594206
0.44752
0.343214
0.267637
0.211901
0.17012
0.138326
0.113787
0.0946041
0.0794307
0.0672998
0.0575622
11.8601
7.76395
4.99734
3.24076
2.14419
1.45499
1.0141
0.725634
0.532155
0.399149
0.305546
0.238222
0.188824
0.151911
0.123871
0.102236
0.0853182
0.0719276
0.0611857
0.0526192
13.6679
8.73671
5.07741
3.05388
1.92223
1.26609
0.869288
0.618629
0.453957
0.342031
0.263647
0.207308
0.165898
0.134841
0.11113
0.0926689
0.0781393
0.0666062
0.0571717
0.0497655
45.0226
13.4729
5.73075
3.07323
1.86023
1.22699
0.873576
0.649778
0.497013
0.389477
0.311287
0.252973
0.208974
0.175206
0.148815
0.127889
0.111144
0.0976264
0.0866942
0.0782043
38.7028
13.0541
5.74336
3.08733
1.88066
1.2275
0.869478
0.645386
0.492594
0.384783
0.307029
0.249051
0.204988
0.171006
0.144433
0.123375
0.106492
0.0928124
0.081688
0.0734596
12.9054
8.33993
5.07879
3.15547
2.02775
1.35121
0.933542
0.666464
0.489554
0.368606
0.283618
0.222404
0.177348
0.143549
0.117759
0.0977915
0.0821091
0.0696443
0.0596159
0.0513624
11.6229
7.60535
5.01031
3.34209
2.26848
1.57142
1.11236
0.804589
0.594206
0.44752
0.343214
0.267637
0.211903
0.170122
0.138323
0.113786
0.0946036
0.0794305
0.0672997
0.0575614
11.4933
7.5119
5.02843
3.434
2.3892
1.6928
1.22111
0.896487
0.669456
0.508122
0.391656
0.306285
0.242784
0.194886
0.158279
0.129952
0.107776
0.0902254
0.0761875
0.064808
11.4757
7.50136
5.04297
3.47002
2.43665
1.74299
1.26863
0.938712
0.705583
0.538335
0.416593
0.326728
0.259498
0.208556
0.169484
0.139167
0.115387
0.0965403
0.0814421
0.0691208
11.4757
7.50136
5.04297
3.47002
2.43665
1.74299
1.26863
0.938712
0.705584
0.538336
0.416594
0.326728
0.259499
0.208557
0.169483
0.139167
0.115388
0.0965414
0.0814421
0.0691033
11.4933
7.5119
5.02843
3.434
2.3892
1.6928
1.22111
0.896486
0.669456
0.508122
0.391656
0.306285
0.242784
0.194886
0.158279
0.129952
0.107776
0.0902263
0.0761889
0.0648095
11.6229
7.60535
5.0103
3.34209
2.26848
1.57142
1.11236
0.804587
0.594203
0.447515
0.343208
0.267631
0.211897
0.170117
0.138318
0.113775
0.0945885
0.0794119
0.0672758
0.0574949
12.9054
8.33993
5.07879
3.15547
2.02774
1.3512
0.933536
0.666457
0.489543
0.368592
0.283601
0.222383
0.177323
0.143526
0.117733
0.0977496
0.0820553
0.0695812
0.0595493
0.0513667
38.7028
13.0541
5.74336
3.08733
1.88066
1.2275
0.869473
0.645378
0.492584
0.38477
0.307008
0.249023
0.204946
0.17094
0.144336
0.123242
0.106301
0.0925326
0.0812871
0.0729532
36.0571
12.8529
5.76645
3.10211
1.89475
1.22669
0.866499
0.643982
0.492249
0.383962
0.305794
0.247917
0.203918
0.169948
0.143338
0.122203
0.105201
0.0913513
0.0800167
0.0715265
12.6882
8.1544
5.07113
3.20038
2.07939
1.39506
0.967834
0.692726
0.509643
0.384023
0.295512
0.231658
0.184605
0.149276
0.122305
0.101405
0.0849907
0.0719419
0.0614586
0.0530047
11.5726
7.56718
5.02065
3.38344
2.32103
1.62326
1.15828
0.843157
0.625692
0.472851
0.363486
0.283856
0.224909
0.180591
0.14679
0.120667
0.100226
0.0840466
0.0711063
0.0606455
11.4757
7.50136
5.04297
3.47002
2.43665
1.74299
1.26863
0.938712
0.705584
0.538336
0.416594
0.326729
0.259499
0.208557
0.169483
0.139168
0.115388
0.0965418
0.0814425
0.0691042
11.4647
7.49683
5.0577
3.50272
2.48038
1.79068
1.31522
0.981305
0.742925
0.57021
0.44335
0.348968
0.277888
0.223735
0.182018
0.149543
0.124005
0.103725
0.0874412
0.0740569
11.4647
7.49683
5.0577
3.50272
2.48038
1.79068
1.31522
0.981305
0.742924
0.57021
0.44335
0.348968
0.277888
0.223735
0.182018
0.149543
0.124005
0.103725
0.0874413
0.0740563
11.4757
7.50136
5.04297
3.47002
2.43665
1.74299
1.26863
0.938712
0.705583
0.538335
0.416593
0.326728
0.259499
0.208556
0.169483
0.139167
0.115387
0.096541
0.0814431
0.0691208
11.5726
7.56718
5.02065
3.38344
2.32103
1.62326
1.15828
0.843156
0.62569
0.472848
0.363483
0.283852
0.224905
0.180589
0.146786
0.12066
0.100216
0.0840354
0.0710927
0.0606113
12.6882
8.1544
5.07113
3.20038
2.07939
1.39506
0.967831
0.692723
0.509637
0.384016
0.295503
0.231647
0.184593
0.149268
0.122289
0.101383
0.0849622
0.0719086
0.0614244
0.0529672
36.0571
12.8529
5.76645
3.10211
1.89475
1.22669
0.866496
0.643978
0.492243
0.383956
0.305784
0.247904
0.203899
0.169917
0.14329
0.122138
0.105108
0.0912171
0.0798112
0.0711022
36.0571
12.8529
5.76645
3.10211
1.89475
1.22669
0.866497
0.643978
0.492244
0.383956
0.305784
0.247904
0.203899
0.169917
0.14329
0.122137
0.105107
0.091215
0.0798079
0.0710971
12.6882
8.1544
5.07113
3.20038
2.07939
1.39506
0.967831
0.692723
0.509638
0.384016
0.295504
0.231648
0.184592
0.149263
0.122295
0.101386
0.0849651
0.0719118
0.0614281
0.0529715
11.5726
7.56718
5.02065
3.38344
2.32103
1.62326
1.15828
0.843156
0.62569
0.472848
0.363483
0.283852
0.224904
0.180587
0.146789
0.120662
0.100217
0.084036
0.0710934
0.0606108
11.4757
7.50136
5.04297
3.47002
2.43665
1.74299
1.26863
0.938712
0.705584
0.538335
0.416593
0.326728
0.259498
0.208556
0.169484
0.139167
0.115387
0.0965409
0.0814432
0.0691218
11.4647
7.49683
5.0577
3.50272
2.48038
1.79068
1.31522
0.981305
0.742925
0.57021
0.44335
0.348968
0.277888
0.223735
0.182018
0.149543
0.124005
0.103725
0.0874411
0.0740566
11.4647
7.49683
5.0577
3.50272
2.48038
1.79068
1.31522
0.981305
0.742924
0.57021
0.44335
0.348968
0.277888
0.223735
0.182018
0.149543
0.124005
0.103725
0.0874411
0.0740554
11.4757
7.50136
5.04297
3.47002
2.43665
1.74299
1.26863
0.938712
0.705584
0.538336
0.416594
0.326728
0.259499
0.208556
0.169484
0.139167
0.115388
0.0965414
0.0814421
0.0691026
11.5726
7.56718
5.02065
3.38344
2.32103
1.62326
1.15828
0.843156
0.625692
0.472851
0.363486
0.283855
0.224907
0.18059
0.146791
0.120667
0.100225
0.0840449
0.0711041
0.0606428
12.6882
8.1544
5.07113
3.20038
2.07939
1.39506
0.967834
0.692726
0.509643
0.384023
0.295511
0.231657
0.184603
0.149276
0.122305
0.101404
0.0849886
0.0719386
0.0614545
0.0529998
36.0571
12.8529
5.76645
3.10211
1.89475
1.22669
0.866499
0.643982
0.492248
0.383962
0.305794
0.247918
0.20392
0.16995
0.143335
0.122201
0.1052
0.091351
0.0800175
0.0715292
38.7028
13.0541
5.74336
3.08733
1.88066
1.2275
0.869473
0.645378
0.492584
0.38477
0.307009
0.249024
0.204948
0.170944
0.144334
0.123239
0.106299
0.0925304
0.0812844
0.0729492
12.9054
8.33993
5.07879
3.15547
2.02774
1.3512
0.933535
0.666457
0.489543
0.368592
0.2836
0.222382
0.177321
0.14352
0.11774
0.0977525
0.0820564
0.0695814
0.0595495
0.0513662
11.6229
7.60535
5.0103
3.34209
2.26848
1.57142
1.11236
0.804587
0.594203
0.447515
0.343208
0.26763
0.211895
0.170115
0.138321
0.113776
0.0945877
0.0794101
0.0672734
0.0574902
11.4933
7.5119
5.02843
3.434
2.3892
1.6928
1.22111
0.896487
0.669456
0.508122
0.391656
0.306285
0.242783
0.194886
0.158279
0.129952
0.107775
0.0902248
0.0761867
0.0648065
11.4757
7.50136
5.04297
3.47002
2.43665
1.74299
1.26863
0.938712
0.705584
0.538336
0.416594
0.326728
0.259499
0.208557
0.169483
0.139167
0.115388
0.0965411
0.0814415
0.0691022
11.4757
7.50136
5.04297
3.47002
2.43665
1.74299
1.26863
0.938712
0.705583
0.538335
0.416593
0.326728
0.259499
0.208557
0.169483
0.139167
0.115387
0.0965409
0.0814431
0.0691201
11.4933
7.5119
5.02843
3.434
2.3892
1.6928
1.22111
0.896487
0.669456
0.508122
0.391656
0.306285
0.242784
0.194886
0.158279
0.129952
0.107776
0.0902256
0.076188
0.0648079
11.6229
7.60535
5.0103
3.34209
2.26848
1.57142
1.11236
0.804589
0.594206
0.44752
0.343214
0.267637
0.211901
0.17012
0.138326
0.113787
0.0946029
0.0794291
0.0672976
0.0575588
12.9054
8.33993
5.07879
3.15547
2.02775
1.35121
0.933542
0.666465
0.489554
0.368606
0.283618
0.222403
0.177345
0.143542
0.117766
0.0977936
0.0821091
0.0696431
0.0596139
0.0513597
38.7028
13.0541
5.74336
3.08733
1.88066
1.2275
0.869479
0.645386
0.492594
0.384783
0.307029
0.249051
0.20499
0.17101
0.144429
0.123371
0.106489
0.0928104
0.0816868
0.0734619
45.0226
13.4729
5.73075
3.07323
1.86023
1.22699
0.873577
0.649779
0.497013
0.389478
0.311288
0.252975
0.208977
0.175211
0.148814
0.127888
0.111144
0.0976272
0.0866955
0.0782065
13.6679
8.73671
5.07741
3.05388
1.92223
1.26609
0.869287
0.618629
0.453957
0.342031
0.263646
0.207307
0.165896
0.134838
0.111132
0.0926681
0.0781362
0.0666006
0.0571701
0.0497556
11.8601
7.76395
4.99734
3.24076
2.14419
1.45499
1.0141
0.725634
0.532155
0.399149
0.305545
0.238221
0.188823
0.151912
0.123869
0.102234
0.0853148
0.0719229
0.0611793
0.052605
11.6229
7.60535
5.0103
3.34209
2.26848
1.57142
1.11236
0.804588
0.594206
0.447519
0.343213
0.267637
0.211902
0.170121
0.138322
0.113785
0.0946017
0.0794279
0.0672961
0.0575571
11.5726
7.56718
5.02065
3.38344
2.32103
1.62326
1.15828
0.843156
0.625692
0.472851
0.363486
0.283856
0.224908
0.180591
0.14679
0.120666
0.100224
0.0840452
0.0711046
0.0606436
11.5726
7.56718
5.02065
3.38344
2.32103
1.62326
1.15828
0.843155
0.62569
0.472848
0.363483
0.283852
0.224904
0.180588
0.146789
0.120661
0.100217
0.0840362
0.0710938
0.0606109
11.6229
7.60535
5.0103
3.34209
2.26848
1.57142
1.11236
0.804587
0.594202
0.447515
0.343208
0.267631
0.211897
0.170118
0.138318
0.113775
0.094588
0.0794112
0.0672751
0.0574932
11.8601
7.76395
4.99734
3.24076
2.14419
1.45499
1.0141
0.725634
0.532155
0.399149
0.305545
0.238221
0.188824
0.151912
0.12387
0.102235
0.0853162
0.0719249
0.0611825
0.0526108
13.6679
8.73671
5.07741
3.05388
1.92224
1.2661
0.869291
0.618635
0.453965
0.342042
0.26366
0.207324
0.165916
0.134855
0.111157
0.0927037
0.0781789
0.0666462
0.0571936
0.0501791
45.0226
13.4729
5.73075
3.07323
1.86023
1.227
0.873581
0.649786
0.497022
0.389495
0.311309
0.253004
0.20902
0.175276
0.148911
0.128024
0.111339
0.097918
0.0871572
0.0790924
58.5856
14.5696
6.08947
3.33296
2.08218
1.40268
0.998661
0.740297
0.565918
0.443942
0.356044
0.290958
0.241455
0.203042
0.173171
0.149937
0.131542
0.116938
0.106004
0.0990545
16.5373
9.49239
5.0127
2.8606
1.75746
1.14759
0.786931
0.562048
0.415366
0.315946
0.24633
0.196219
0.159215
0.131244
0.109752
0.0931725
0.0801226
0.0696324
0.0606152
0.0562454
13.6679
8.73671
5.07741
3.05388
1.92224
1.2661
0.869292
0.618633
0.453965
0.342042
0.26366
0.207324
0.165917
0.134863
0.111149
0.0927003
0.0781776
0.0666466
0.0571894
0.0501837
12.9054
8.33993
5.07879
3.15547
2.02775
1.35121
0.933542
0.666464
0.489554
0.368606
0.283618
0.222404
0.177348
0.143549
0.117758
0.0977912
0.0821089
0.0696442
0.0596157
0.0513625
12.6882
8.1544
5.07113
3.20038
2.07939
1.39506
0.967835
0.692726
0.509643
0.384023
0.295512
0.231658
0.184605
0.149277
0.122305
0.101405
0.0849909
0.0719421
0.061459
0.0530049
12.6882
8.1544
5.07113
3.20038
2.07939
1.39506
0.967832
0.692722
0.509637
0.384016
0.295504
0.231648
0.184593
0.149264
0.122295
0.101386
0.0849652
0.0719117
0.061428
0.0529709
12.9054
8.33993
5.07879
3.15547
2.02774
1.3512
0.933536
0.666456
0.489543
0.368592
0.2836
0.222382
0.177323
0.143527
0.117734
0.0977497
0.082055
0.0695806
0.0595488
0.0513656
13.6679
8.73671
5.07741
3.05388
1.92223
1.26609
0.869287
0.618628
0.453957
0.342031
0.263646
0.207307
0.165896
0.134841
0.111129
0.0926664
0.0781355
0.0666003
0.0571698
0.049755
16.5373
9.49239
5.0127
2.8606
1.75746
1.14759
0.78693
0.562048
0.415366
0.315946
0.24633
0.19622
0.159216
0.131236
0.109759
0.0931758
0.0801247
0.0696341
0.0606168
0.0562453
58.5856
14.5696
6.08947
3.33296
2.08218
1.40268
0.998662
0.740299
0.565921
0.443949
0.356053
0.290973
0.241477
0.203093
0.173243
0.150035
0.131693
0.117192
0.106466
0.0995671
90.5034
12.1248
4.3887
2.46659
1.63316
1.18308
0.902024
0.720677
0.594607
0.502532
0.432719
0.379343
0.336405
0.30004
0.270454
0.246553
0.227165
0.211895
0.202997
0.195324
58.5856
14.5696
6.08947
3.33296
2.08218
1.40268
0.998663
0.740299
0.565921
0.443949
0.356054
0.290974
0.241479
0.203093
0.173245
0.150039
0.131698
0.117198
0.106474
0.0995749
45.0226
13.4729
5.73075
3.07323
1.86023
1.227
0.873581
0.649787
0.497023
0.389496
0.31131
0.253005
0.209019
0.175274
0.148915
0.128029
0.111344
0.0979226
0.0871629
0.0790884
38.7028
13.0541
5.74336
3.08733
1.88066
1.2275
0.869478
0.645386
0.492595
0.384784
0.307029
0.249051
0.204988
0.171006
0.144433
0.123375
0.106492
0.0928128
0.0816881
0.073459
36.0571
12.8529
5.76645
3.10211
1.89475
1.22669
0.866499
0.643982
0.492249
0.383962
0.305794
0.247917
0.203918
0.169947
0.143338
0.122203
0.105201
0.0913505
0.0800154
0.0715241
36.0571
12.8529
5.76645
3.10211
1.89475
1.22669
0.866496
0.643978
0.492244
0.383956
0.305784
0.247904
0.203898
0.169916
0.14329
0.122137
0.105107
0.0912144
0.0798071
0.0710955
38.7028
13.0541
5.74336
3.08733
1.88066
1.2275
0.869472
0.645378
0.492585
0.384771
0.307009
0.249023
0.204947
0.17094
0.144336
0.123241
0.106301
0.0925317
0.0812854
0.0729499
45.0226
13.4729
5.73075
3.07323
1.86023
1.22699
0.873576
0.649779
0.497014
0.389478
0.311288
0.252974
0.208976
0.175207
0.148817
0.127891
0.111147
0.0976297
0.0866978
0.0782081
58.5856
14.5696
6.08947
3.33296
2.08218
1.40268
0.998661
0.740297
0.565918
0.443942
0.356043
0.290958
0.241455
0.203039
0.173172
0.149937
0.131542
0.116938
0.106004
0.0990537
90.5034
12.1248
4.3887
2.46659
1.63316
1.18308
0.902024
0.720677
0.594607
0.502531
0.432719
0.379341
0.336406
0.300038
0.270454
0.246551
0.227163
0.211893
0.202996
0.195319
0.387229
0.303691
0.237757
0.202182
0.181466
0.168563
0.159152
0.151443
0.145232
0.139959
0.135463
0.131406
0.127599
0.123969
0.120515
0.117433
0.114431
0.111705
0.109084
0.106644
0.104304
0.102061
0.099986
0.0980485
0.0961286
0.0943056
0.0925315
0.09083
0.0891503
0.08757
0.0860119
0.0845246
0.0830914
0.0816839
0.0803857
0.0791009
0.077916
0.0767376
0.0757509
0.0740162
0.139103
0.115205
0.0962564
0.0840345
0.0759134
0.0700874
0.0655944
0.0618484
0.0588044
0.0561939
0.0538494
0.051777
0.0499901
0.0482422
0.0465726
0.045093
0.0437087
0.042462
0.0413036
0.0402191
0.0392019
0.0382391
0.0373474
0.0365329
0.0357614
0.0350241
0.0343151
0.0336301
0.0329686
0.0323284
0.0317133
0.0311179
0.0305433
0.0299983
0.0294676
0.0289745
0.0284944
0.0280312
0.0275978
0.0271095
0.0916704
0.0791246
0.0691466
0.0622373
0.0566507
0.0522716
0.0486213
0.0455734
0.0429536
0.0406911
0.0387233
0.036998
0.0355732
0.0340943
0.0327537
0.0315854
0.0304998
0.0295492
0.0286398
0.0277794
0.0269759
0.0261665
0.0254325
0.0247686
0.0241705
0.0236019
0.0230548
0.0225304
0.0220292
0.021546
0.0210832
0.0206412
0.0202171
0.0198139
0.019424
0.0190649
0.018716
0.0183808
0.0180615
0.017732
0.0708681
0.0639035
0.0579163
0.05282
0.0484898
0.0447855
0.0415953
0.0388349
0.0364305
0.0343211
0.0324578
0.0308091
0.0293731
0.0280466
0.0268394
0.0257467
0.0247434
0.0238886
0.0229993
0.0221554
0.0214173
0.0207385
0.0200961
0.0194935
0.0189323
0.0184064
0.0179189
0.0174529
0.0170207
0.0166035
0.016203
0.0158202
0.0154524
0.0151183
0.0147947
0.0144941
0.0141998
0.0139261
0.013663
0.0133967
0.0710001
0.0608053
0.0540473
0.0488006
0.0445537
0.0410337
0.0380568
0.0354902
0.0332396
0.0312508
0.0294833
0.02791
0.0265171
0.0252297
0.0240656
0.0230101
0.0220638
0.0211944
0.0203947
0.019661
0.0189905
0.0183746
0.0177347
0.0171555
0.0166229
0.0161282
0.0156681
0.0152357
0.0148376
0.0144565
0.0140943
0.0137446
0.0134182
0.0131153
0.0128146
0.0125348
0.012268
0.0120208
0.0117897
0.0115734
0.0704129
0.0598206
0.0528832
0.047521
0.0432129
0.0396671
0.0366969
0.0341672
0.0319551
0.0299931
0.0282461
0.0266875
0.0252966
0.0240332
0.0228939
0.0218628
0.0209262
0.0200724
0.0192958
0.0185922
0.017945
0.0173505
0.0167897
0.0163045
0.0157777
0.0152654
0.0148023
0.0143806
0.0140026
0.0136435
0.0133095
0.0129996
0.0126795
0.0123972
0.0120659
0.0118305
0.0115562
0.0113389
0.0111244
0.0109218
0.0714491
0.060212
0.0531505
0.047856
0.0435675
0.040009
0.0370108
0.0344406
0.0321855
0.030192
0.028425
0.0268574
0.0254637
0.0242014
0.0230632
0.0220327
0.0210974
0.0202482
0.0194753
0.0187741
0.0181385
0.0175546
0.0169951
0.0164957
0.0159871
0.0154827
0.0150277
0.014617
0.014241
0.0138797
0.0135383
0.0132213
0.0128943
0.0126055
0.0123093
0.01206
0.0118124
0.0115808
0.0113567
0.0111442
0.0698349
0.062396
0.0559704
0.0505991
0.046096
0.0423477
0.0391859
0.0364721
0.0341216
0.0320677
0.0302585
0.0286633
0.0272479
0.0259619
0.0248047
0.0237523
0.0228004
0.0219461
0.0211663
0.0204493
0.0197934
0.0191849
0.0185592
0.018024
0.0175094
0.0170341
0.0165791
0.0161599
0.0157492
0.0153431
0.014964
0.0146189
0.0143066
0.0140051
0.0137133
0.0134308
0.0131526
0.0128894
0.0126393
0.0124013
0.0880024
0.0749753
0.0653781
0.0580888
0.0524834
0.0481047
0.0446108
0.0417403
0.0393047
0.0371982
0.035338
0.0337499
0.0322949
0.0309532
0.0297941
0.0285752
0.0275035
0.0265291
0.0256726
0.024856
0.0241144
0.0234186
0.0227453
0.0221482
0.0215635
0.0210213
0.0205061
0.020025
0.0195662
0.0191382
0.0187318
0.0183452
0.0179737
0.0176206
0.017283
0.016958
0.016633
0.0163222
0.0160373
0.0157576
0.1383
0.114662
0.094079
0.080518
0.0717563
0.0658064
0.0614399
0.0579497
0.0551987
0.0528239
0.0506902
0.0489749
0.0470592
0.0452956
0.0436924
0.0421971
0.0408138
0.0395423
0.0383713
0.0372884
0.0362857
0.0353635
0.0345199
0.0337669
0.0330264
0.0323216
0.0316437
0.0309962
0.030373
0.029781
0.02921
0.0286601
0.0281312
0.027624
0.0271303
0.026672
0.0262433
0.025832
0.0254534
0.0250276
0.387226
0.30369
0.237727
0.202005
0.181025
0.167864
0.158423
0.150845
0.144806
0.13982
0.135389
0.131541
0.127675
0.124035
0.120607
0.117471
0.114485
0.111724
0.1091
0.106671
0.104302
0.102094
0.0999983
0.0981024
0.0961822
0.0943917
0.0926203
0.090923
0.0892366
0.0876357
0.0860679
0.0845718
0.0831194
0.0817027
0.0803499
0.0790687
0.0779437
0.076767
0.0757808
0.0740118
0.138297
0.114658
0.0940911
0.0805517
0.071851
0.0661241
0.0618083
0.0582348
0.0554075
0.0529185
0.0507516
0.0489161
0.0469929
0.0452518
0.0436405
0.0421809
0.0407848
0.0395376
0.0383655
0.0372874
0.0362923
0.035365
0.0345195
0.0337588
0.0330113
0.0322979
0.0316153
0.0309664
0.0303442
0.0297591
0.0291933
0.0286479
0.0281217
0.0276226
0.027155
0.0266991
0.026254
0.0258296
0.0254478
0.0250235
0.0642674
0.0533093
0.046794
0.0413438
0.0368999
0.0337503
0.0314989
0.0293856
0.0275109
0.0258831
0.0244908
0.0232102
0.0221123
0.0210052
0.0201896
0.0191986
0.0184596
0.0176468
0.0169788
0.0163328
0.0157266
0.0151651
0.0146202
0.0141466
0.0137397
0.0133581
0.0130085
0.0126391
0.0123755
0.0119722
0.0117141
0.0114756
0.0112151
0.0110404
0.0106158
0.0104935
0.0103386
0.0101655
0.0100118
0.00983565
0.054364
0.0432676
0.0374319
0.0325944
0.0293882
0.0266915
0.024422
0.0224825
0.0208242
0.0193851
0.0181478
0.0168926
0.0161059
0.0149363
0.0143285
0.0134173
0.0129244
0.0121973
0.0117729
0.0112079
0.0107632
0.0104064
0.0099047
0.00964021
0.00922134
0.00896602
0.00867894
0.00836011
0.00815083
0.00787173
0.00767819
0.00746896
0.0073129
0.00706474
0.00688449
0.00671079
0.00660362
0.00640997
0.00626019
0.00603088
0.0499064
0.0418847
0.0360659
0.0314336
0.0278179
0.024938
0.0226878
0.0207356
0.0190446
0.017571
0.0162799
0.015133
0.0141061
0.013221
0.0124316
0.0117189
0.0110919
0.0105288
0.00998838
0.00957123
0.00903409
0.00872638
0.0082379
0.00803136
0.00761863
0.00741182
0.00707705
0.00690057
0.00662244
0.00646886
0.00624473
0.00606274
0.00594199
0.00570805
0.00557819
0.00548812
0.00538234
0.00519478
0.00508023
0.00485501
0.0459722
0.0403568
0.0354839
0.0313522
0.0278729
0.0247595
0.0221365
0.020057
0.0184004
0.0169258
0.015619
0.014458
0.0134212
0.0125153
0.011709
0.0109883
0.0103426
0.00976247
0.00923861
0.00876556
0.00833635
0.00794707
0.00759788
0.00727261
0.00698546
0.00669001
0.00645136
0.00618645
0.0059775
0.00579924
0.00562519
0.00542967
0.00531752
0.00510346
0.00498619
0.00491434
0.0048028
0.00464788
0.00452687
0.00432664
0.0457488
0.0402095
0.0353823
0.0312651
0.0277755
0.0247853
0.0221316
0.0197782
0.0180302
0.0166143
0.0153268
0.0141702
0.0131412
0.0122198
0.0114025
0.0106747
0.0100242
0.00944094
0.00891665
0.00844407
0.00801743
0.00763181
0.00728856
0.00698146
0.00667862
0.00639963
0.00615184
0.0059076
0.00570066
0.00551826
0.00533738
0.00518493
0.00504472
0.00487974
0.00474715
0.00466837
0.00454586
0.00442651
0.00424745
0.00410097
0.0461755
0.0403467
0.0353571
0.0311308
0.0275832
0.0245392
0.0218289
0.0195763
0.0179352
0.0165133
0.0152314
0.0140849
0.0130657
0.0121674
0.0113668
0.0106509
0.0100093
0.00943303
0.0089134
0.00844495
0.00802122
0.00763783
0.00729573
0.00698671
0.00669893
0.00641611
0.00618756
0.00589382
0.00571211
0.00546242
0.0053223
0.00517711
0.00503536
0.00484144
0.00470907
0.00462682
0.00450471
0.00437898
0.00421991
0.00405945
0.0454597
0.0400694
0.0350329
0.0307412
0.0272221
0.0240246
0.021646
0.0198586
0.0182582
0.016842
0.0155905
0.0144756
0.0134872
0.0126303
0.0118581
0.0111599
0.0105246
0.00995484
0.00942581
0.00895686
0.0085252
0.00813611
0.00780661
0.00740443
0.00716837
0.00679646
0.00661322
0.0062949
0.0061179
0.0058413
0.00570723
0.00554595
0.00540566
0.00515379
0.00501323
0.00486204
0.00476294
0.00463941
0.00449085
0.00430393
0.0508035
0.0417226
0.0364471
0.0314569
0.0280514
0.025559
0.0234001
0.0215453
0.019921
0.0185063
0.0172619
0.0161552
0.0151991
0.014325
0.0135347
0.0128539
0.0121045
0.0116113
0.0108997
0.0105189
0.00994127
0.00961386
0.00910747
0.00881794
0.00849227
0.00812897
0.00792486
0.0075758
0.00739602
0.00706816
0.00690283
0.0067129
0.00655314
0.00629732
0.00613734
0.00599854
0.00576905
0.00565703
0.00549935
0.00533019
0.0641935
0.053362
0.0467729
0.0415562
0.0372636
0.0340672
0.0314018
0.0292911
0.0273327
0.025735
0.0243542
0.0230529
0.0220617
0.0209799
0.0201084
0.019184
0.0183889
0.0176187
0.0169471
0.0163052
0.0157258
0.0151387
0.0146442
0.0141249
0.0137515
0.0133402
0.0130212
0.0126406
0.0123745
0.0119717
0.0117095
0.0114686
0.011221
0.0109722
0.0107305
0.0106117
0.0101856
0.0100951
0.00996412
0.00979159
0.139093
0.11515
0.0963304
0.0838413
0.0755072
0.0696827
0.065219
0.0615618
0.0585721
0.0560732
0.0537191
0.0518239
0.0500039
0.0482583
0.0465927
0.0451012
0.043713
0.0424647
0.0412939
0.0402209
0.0391924
0.0382404
0.0373496
0.0365486
0.0357838
0.0350548
0.0343518
0.0336692
0.0330079
0.032363
0.031744
0.0311453
0.0305683
0.0300161
0.0294848
0.0289778
0.0285026
0.0280474
0.0276142
0.0271225
0.088001
0.074995
0.0654438
0.0579161
0.052407
0.0481296
0.0446822
0.0418106
0.0393593
0.0372312
0.0353579
0.0337248
0.0322802
0.0309434
0.0297708
0.0285673
0.0274707
0.0265275
0.0256541
0.0248492
0.0241108
0.0234066
0.0227393
0.022136
0.0215532
0.021008
0.0204907
0.020009
0.0195509
0.0191263
0.0187231
0.0183397
0.0179711
0.0176207
0.0172856
0.0169649
0.0166478
0.0163399
0.0160536
0.0157734
0.0507893
0.0418735
0.0366667
0.0313335
0.0280422
0.0255784
0.0234433
0.021592
0.0199711
0.0185539
0.0173238
0.016194
0.0152507
0.0143105
0.0136283
0.0127798
0.0122516
0.0114611
0.0110374
0.0104234
0.00999277
0.0096488
0.00911905
0.00886408
0.0084332
0.00815479
0.00793105
0.00758189
0.007401
0.00706955
0.00690849
0.00671933
0.00656299
0.00631225
0.00616504
0.00593912
0.00581721
0.00566299
0.00550759
0.00535754
0.0457519
0.0395513
0.034445
0.0300837
0.0265606
0.0236697
0.021255
0.0192162
0.0174765
0.015977
0.014678
0.013542
0.0125223
0.011627
0.0108522
0.0101146
0.00948298
0.00882954
0.00836152
0.00793383
0.00753895
0.00718102
0.00678394
0.00650158
0.00618079
0.00587395
0.00567131
0.00539346
0.00521258
0.00500535
0.00486682
0.00470594
0.004591
0.00437906
0.00426111
0.0041973
0.00411053
0.00394406
0.00384659
0.00364477
0.0477987
0.0414094
0.0360657
0.0315865
0.0278396
0.0246975
0.0220544
0.0198058
0.0178793
0.0162179
0.0147771
0.0135207
0.0124111
0.0114401
0.0105795
0.00981414
0.00913085
0.00851191
0.00796034
0.00747232
0.00702538
0.00663868
0.00620258
0.00587048
0.00561421
0.00538048
0.00512368
0.0049203
0.00469436
0.00452085
0.00434081
0.00421813
0.00411127
0.00392891
0.0038112
0.00377584
0.00366827
0.00355818
0.00344379
0.00330586
0.0500841
0.0432591
0.0376371
0.0329589
0.0290346
0.0257079
0.0228806
0.0204742
0.0184249
0.0166595
0.0151283
0.0137926
0.01262
0.0115924
0.010684
0.00987814
0.00916066
0.00851897
0.00794381
0.00742691
0.00696068
0.00654521
0.00614586
0.00581821
0.00550531
0.00521579
0.00490476
0.00469764
0.0045326
0.00439203
0.00423233
0.00408516
0.00394858
0.00382732
0.00370733
0.00367444
0.00356079
0.00344639
0.00333292
0.00322414
0.0503283
0.0437272
0.0381488
0.0334419
0.0294637
0.0260841
0.0231958
0.0207182
0.0186066
0.0167994
0.0152368
0.0138754
0.0126809
0.0116358
0.0107122
0.0098933
0.00916437
0.00851284
0.00792963
0.00740656
0.00693567
0.00651454
0.00611829
0.0057924
0.00547566
0.00518162
0.00491742
0.00466712
0.00442807
0.00433109
0.00418108
0.00403983
0.00390558
0.00378694
0.00367067
0.00364891
0.00353294
0.00341732
0.00330164
0.00318887
0.049362
0.0429535
0.0375097
0.0328894
0.0289701
0.025636
0.0227906
0.020363
0.0182976
0.0165259
0.0149964
0.0136673
0.0124975
0.0114813
0.0105824
0.00978423
0.00907411
0.00843829
0.00786872
0.00735722
0.00689655
0.00648238
0.0060944
0.00576839
0.00545152
0.00516587
0.0049088
0.00463407
0.00446034
0.00432812