/*--------------------------------*- C++ -*----------------------------------*\
| =========                 |                                                 |
| \\      /  F ield         | OpenFOAM: The Open Source CFD Toolbox           |
|  \\    /   O peration     | Version:  2212                                  |
|   \\  /    A nd           | Website:  www.openfoam.com                      |
|    \\/     M anipulation  |                                                 |
\*---------------------------------------------------------------------------*/
FoamFile
{
    version     2.0;
    format      ascii;
    arch        "LSB;label=32;scalar=64";
    class       volScalarField;
    location    "2.35";
    object      p;
}
// * * * * * * * * * * * * * * * * * * * * * * * * * * * * * * * * * * * * * //

dimensions      [0 2 -2 0 0 0 0];

internalField   nonuniform List<scalar> 
6840
(
0.017915
0.0108005
0.00850909
0.00797125
0.00769686
0.0074746
0.00728787
0.0071213
0.00695993
0.00680013
0.00664194
0.0064851
0.00632822
0.00616935
0.00600856
0.00584463
0.00567439
0.00549151
0.00523756
0.00476567
0.0107362
0.0100023
0.0089094
0.00824342
0.00784079
0.00756699
0.00735572
0.00716935
0.0069947
0.00682699
0.00666362
0.00650274
0.00634255
0.00618158
0.00601934
0.00585404
0.00568145
0.00548986
0.00524051
0.00483797
0.0103879
0.0095364
0.00877212
0.00821297
0.0078368
0.00756876
0.00735307
0.00716011
0.0069816
0.00681293
0.00664917
0.00648806
0.00632899
0.0061715
0.00601443
0.00585606
0.00569373
0.00552363
0.00534674
0.00516495
0.00997867
0.00921593
0.00859717
0.00814585
0.00780189
0.0075329
0.00731335
0.00712466
0.00695702
0.00679985
0.00664461
0.00648999
0.00633689
0.0061862
0.00603895
0.00589684
0.00576203
0.00563738
0.00553096
0.00546052
0.00984448
0.0091033
0.00851513
0.00810703
0.00778512
0.00751847
0.00729705
0.0071066
0.00693616
0.00678001
0.00663105
0.00648268
0.00633449
0.00618906
0.00604991
0.00592115
0.00580791
0.00571692
0.00566343
0.00566776
0.00984449
0.0091033
0.00851513
0.00810704
0.00778513
0.00751848
0.00729706
0.00710662
0.00693619
0.00678004
0.00663109
0.00648273
0.00633458
0.00618921
0.00605007
0.0059212
0.00580835
0.00571988
0.0056717
0.0056908
0.00997867
0.00921594
0.00859718
0.00814587
0.00780192
0.00753293
0.00731339
0.00712472
0.00695709
0.00679995
0.00664475
0.0064902
0.00633726
0.00618682
0.00603987
0.00589805
0.00576393
0.00564212
0.00554423
0.00548982
0.0103879
0.00953641
0.00877214
0.00821299
0.00783683
0.00756879
0.00735312
0.00716017
0.0069817
0.00681307
0.00664935
0.00648836
0.00632951
0.00617242
0.00601598
0.00585883
0.00569853
0.00553212
0.00536405
0.00519891
0.0107362
0.0100023
0.00890941
0.00824343
0.00784081
0.00756702
0.00735577
0.00716943
0.00699482
0.00682716
0.00666389
0.00650317
0.00634315
0.00618245
0.00602079
0.00585647
0.00568545
0.00549738
0.00525512
0.00485412
0.017915
0.0108005
0.00850909
0.00797125
0.00769686
0.00747461
0.00728787
0.0071213
0.00695993
0.00680014
0.00664195
0.00648511
0.00632824
0.00616939
0.00600862
0.00584469
0.00567446
0.00549159
0.00523765
0.00476576
0.0107362
0.0100023
0.00890942
0.00824343
0.00784082
0.00756702
0.00735577
0.00716943
0.00699482
0.00682716
0.00666389
0.00650316
0.00634314
0.00618242
0.00602073
0.00585641
0.00568539
0.00549729
0.00525502
0.004854
0.0100196
0.00998786
0.00925962
0.00854909
0.0081027
0.00778666
0.00752764
0.0072998
0.00709491
0.00690602
0.00672751
0.00655553
0.00638654
0.00621828
0.00604939
0.00587764
0.00569817
0.00550568
0.00531454
0.00520292
0.0090941
0.00922028
0.00891739
0.00850115
0.00813397
0.0078153
0.00753667
0.00729609
0.0070833
0.00688836
0.00670445
0.00652813
0.00635718
0.00618953
0.00602286
0.00585523
0.00568431
0.00550814
0.00533022
0.00516513
0.00867576
0.00871927
0.0085537
0.00829078
0.0080104
0.00773908
0.00748813
0.00726182
0.00705891
0.00687254
0.00669575
0.00652552
0.00636031
0.00619911
0.00604153
0.00588733
0.00573653
0.00559023
0.00545251
0.00533135
0.00845983
0.00848166
0.00835447
0.00813699
0.00790462
0.00767555
0.00745287
0.00723995
0.00703958
0.00685299
0.00667777
0.00651097
0.00635103
0.00619643
0.00604751
0.00590664
0.00577499
0.0056526
0.00554398
0.00545611
0.00845983
0.00848166
0.00835448
0.00813699
0.00790462
0.00767554
0.00745287
0.00723994
0.00703958
0.00685296
0.00667767
0.00651072
0.00635069
0.00619612
0.00604693
0.00590542
0.00577302
0.00565031
0.00554081
0.00544414
0.00867577
0.00871928
0.00855371
0.00829078
0.00801041
0.0077391
0.00748815
0.00726186
0.00705896
0.00687255
0.00669562
0.00652523
0.00636011
0.00619906
0.00604116
0.00588602
0.00573377
0.00558559
0.00544517
0.00531165
0.00909411
0.00922029
0.00891739
0.00850116
0.00813399
0.00781532
0.0075367
0.00729611
0.00708332
0.00688838
0.00670448
0.00652822
0.00635736
0.00618975
0.00602316
0.00585555
0.00568483
0.00550883
0.00533066
0.00515752
0.0100196
0.00998786
0.00925962
0.00854909
0.0081027
0.00778667
0.00752765
0.00729981
0.00709491
0.00690603
0.00672753
0.00655555
0.00638657
0.00621832
0.00604944
0.0058777
0.00569823
0.00550576
0.00531462
0.00520297
0.0107362
0.0100023
0.00890941
0.00824342
0.0078408
0.007567
0.00735572
0.00716936
0.00699471
0.006827
0.00666364
0.00650276
0.00634257
0.00618161
0.0060194
0.00585409
0.00568151
0.00548993
0.00524059
0.00483803
0.0103879
0.00953641
0.00877214
0.00821299
0.00783683
0.00756879
0.00735312
0.00716017
0.0069817
0.00681307
0.00664935
0.00648835
0.00632949
0.00617238
0.00601593
0.00585878
0.00569847
0.00553204
0.00536393
0.00519876
0.00909411
0.00922029
0.00891739
0.00850115
0.00813399
0.00781532
0.0075367
0.00729611
0.00708331
0.00688838
0.00670448
0.00652821
0.00635733
0.00618972
0.00602313
0.0058555
0.00568478
0.00550878
0.00533061
0.00515747
0.00852462
0.00862559
0.00851402
0.00828852
0.00803274
0.00777431
0.00751584
0.00727409
0.007056
0.0068554
0.0066673
0.00648842
0.0063159
0.00614724
0.00598081
0.00581526
0.00564987
0.00548679
0.00533334
0.00518946
0.00815666
0.00822473
0.00817235
0.00802538
0.00784051
0.00763538
0.00742473
0.00721784
0.00701672
0.00682427
0.00664165
0.00646697
0.00629818
0.00613397
0.00597334
0.00581523
0.0056587
0.00550343
0.00535008
0.00519275
0.00797365
0.00803808
0.00800862
0.00788381
0.00772485
0.00755125
0.00736506
0.00717719
0.00699124
0.00680807
0.0066292
0.00645567
0.00628789
0.00612626
0.00597108
0.00582141
0.00567489
0.00553037
0.00538872
0.00524135
0.00797365
0.00803809
0.00800863
0.0078838
0.00772483
0.00755122
0.00736504
0.00717716
0.0069912
0.00680802
0.00662912
0.00645556
0.00628777
0.00612606
0.00597064
0.00582053
0.00567347
0.00552828
0.00538539
0.00523473
0.00815666
0.00822473
0.00817235
0.00802537
0.00784049
0.00763537
0.00742472
0.00721784
0.00701671
0.00682425
0.00664157
0.00646682
0.00629798
0.00613364
0.00597269
0.00581402
0.00565659
0.00550005
0.00534484
0.00518325
0.00852462
0.00862559
0.00851402
0.00828853
0.00803275
0.00777431
0.00751584
0.00727409
0.007056
0.00685541
0.00666731
0.00648843
0.00631592
0.00614726
0.00598082
0.00581529
0.0056499
0.00548681
0.00533334
0.00518948
0.00909411
0.00922029
0.00891739
0.00850115
0.00813398
0.0078153
0.00753668
0.0072961
0.0070833
0.00688837
0.00670446
0.00652814
0.0063572
0.00618955
0.00602289
0.00585527
0.00568436
0.00550819
0.00533026
0.00516516
0.0103879
0.00953641
0.00877213
0.00821298
0.00783681
0.00756877
0.00735308
0.00716012
0.00698161
0.00681294
0.00664918
0.00648808
0.00632901
0.00617152
0.00601446
0.0058561
0.00569377
0.00552367
0.00534676
0.00516493
0.00997868
0.00921595
0.00859718
0.00814587
0.00780192
0.00753294
0.0073134
0.00712472
0.00695709
0.00679995
0.00664474
0.00649019
0.00633724
0.00618679
0.00603983
0.005898
0.00576386
0.00564202
0.00554409
0.0054896
0.00867577
0.00871928
0.00855371
0.00829078
0.00801041
0.0077391
0.00748815
0.00726186
0.00705896
0.00687254
0.00669561
0.00652522
0.00636009
0.00619904
0.00604114
0.00588598
0.00573372
0.00558554
0.00544512
0.0053116
0.00815666
0.00822473
0.00817235
0.00802537
0.00784049
0.00763537
0.00742472
0.00721784
0.00701671
0.00682424
0.00664156
0.00646681
0.00629796
0.00613363
0.00597268
0.00581399
0.00565656
0.00550002
0.00534482
0.00518323
0.00785877
0.00791792
0.00790598
0.00781059
0.00767097
0.00750548
0.00732528
0.00714079
0.00695677
0.00677633
0.00660109
0.00643084
0.00626494
0.00610275
0.00594365
0.00578676
0.0056311
0.00547646
0.00532393
0.005164
0.0077077
0.00777059
0.00777435
0.00770071
0.00758061
0.00743426
0.00727142
0.00710006
0.00692598
0.00675247
0.00658137
0.00641357
0.00624942
0.00608899
0.00593211
0.00577799
0.00562549
0.00547451
0.00532638
0.00517117
0.0077077
0.00777059
0.00777435
0.00770071
0.00758061
0.00743426
0.00727141
0.00710005
0.00692596
0.00675245
0.00658135
0.00641355
0.0062494
0.00608894
0.00593197
0.00577776
0.00562514
0.005474
0.00532562
0.00516993
0.00785878
0.00791792
0.00790599
0.00781059
0.00767098
0.00750549
0.00732529
0.0071408
0.00695678
0.00677633
0.0066011
0.00643085
0.00626495
0.00610276
0.00594366
0.00578678
0.00563113
0.00547649
0.00532396
0.00516404
0.00815667
0.00822473
0.00817236
0.00802538
0.00784052
0.00763539
0.00742473
0.00721785
0.00701673
0.00682428
0.00664166
0.00646698
0.0062982
0.00613399
0.00597337
0.00581526
0.00565872
0.00550345
0.0053501
0.00519276
0.00867577
0.00871928
0.00855371
0.00829078
0.00801041
0.00773909
0.00748814
0.00726183
0.00705892
0.00687255
0.00669577
0.00652553
0.00636033
0.00619913
0.00604156
0.00588736
0.00573656
0.00559026
0.00545254
0.00533137
0.00997868
0.00921594
0.00859718
0.00814586
0.0078019
0.00753291
0.00731336
0.00712467
0.00695703
0.00679986
0.00664462
0.00649
0.0063369
0.00618621
0.00603896
0.00589686
0.00576204
0.00563737
0.00553093
0.00546044
0.00984449
0.00910331
0.00851514
0.00810704
0.00778513
0.00751848
0.00729706
0.00710662
0.00693619
0.00678004
0.00663109
0.00648272
0.00633456
0.00618918
0.00605003
0.00592114
0.00580827
0.00571978
0.00567153
0.00569053
0.00845983
0.00848167
0.00835448
0.00813699
0.00790462
0.00767554
0.00745286
0.00723994
0.00703957
0.00685295
0.00667766
0.0065107
0.00635067
0.00619609
0.0060469
0.00590539
0.00577297
0.00565027
0.00554079
0.00544419
0.00797365
0.00803809
0.00800863
0.0078838
0.00772482
0.00755122
0.00736504
0.00717716
0.0069912
0.00680801
0.00662911
0.00645555
0.00628776
0.00612605
0.00597063
0.00582051
0.00567345
0.00552827
0.0053854
0.00523481
0.00770769
0.00777059
0.00777435
0.00770071
0.00758061
0.00743426
0.00727141
0.00710004
0.00692596
0.00675244
0.00658134
0.00641355
0.00624939
0.00608893
0.00593197
0.00577775
0.00562514
0.00547399
0.00532562
0.00516994
0.00756492
0.00763443
0.00765656
0.00760403
0.00750279
0.00737189
0.00722201
0.00706106
0.0068946
0.0067263
0.00655854
0.00639273
0.00622965
0.00606962
0.00591258
0.00575776
0.00560396
0.00545056
0.00529782
0.00513539
0.00756492
0.00763443
0.00765656
0.00760403
0.0075028
0.00737189
0.00722201
0.00706106
0.0068946
0.00672631
0.00655854
0.00639274
0.00622966
0.00606963
0.00591259
0.00575777
0.00560397
0.00545057
0.00529783
0.00513539
0.0077077
0.00777059
0.00777436
0.00770072
0.00758062
0.00743427
0.00727143
0.00710007
0.00692598
0.00675247
0.00658137
0.00641358
0.00624943
0.006089
0.00593212
0.00577801
0.00562552
0.00547454
0.00532643
0.00517121
0.00797365
0.00803809
0.00800863
0.00788381
0.00772486
0.00755125
0.00736507
0.0071772
0.00699125
0.00680808
0.00662921
0.00645568
0.00628791
0.00612628
0.00597111
0.00582144
0.00567493
0.00553042
0.0053888
0.00524146
0.00845984
0.00848167
0.00835448
0.008137
0.00790463
0.00767556
0.00745288
0.00723996
0.00703959
0.006853
0.00667778
0.00651098
0.00635104
0.00619644
0.00604753
0.00590666
0.00577502
0.00565264
0.00554407
0.0054563
0.00984449
0.00910331
0.00851514
0.00810704
0.00778513
0.00751848
0.00729706
0.00710661
0.00693617
0.00678002
0.00663106
0.00648269
0.0063345
0.00618906
0.00604991
0.00592114
0.00580789
0.00571687
0.00566335
0.00566759
0.00984449
0.0091033
0.00851513
0.00810703
0.00778513
0.00751847
0.00729705
0.00710659
0.00693616
0.00678
0.00663104
0.00648267
0.00633447
0.00618903
0.00604987
0.0059211
0.00580783
0.0057168
0.00566325
0.00566746
0.00845983
0.00848166
0.00835448
0.008137
0.00790462
0.00767555
0.00745287
0.00723995
0.00703958
0.00685298
0.00667776
0.00651095
0.00635101
0.0061964
0.00604748
0.0059066
0.00577494
0.00565255
0.00554396
0.00545618
0.00797365
0.00803808
0.00800863
0.00788381
0.00772485
0.00755125
0.00736506
0.00717719
0.00699124
0.00680807
0.0066292
0.00645566
0.00628788
0.00612625
0.00597107
0.0058214
0.00567488
0.00553037
0.00538874
0.00524143
0.0077077
0.00777059
0.00777435
0.00770072
0.00758062
0.00743427
0.00727143
0.00710006
0.00692598
0.00675247
0.00658136
0.00641356
0.00624942
0.00608898
0.0059321
0.00577798
0.00562549
0.00547451
0.00532639
0.00517118
0.00756492
0.00763443
0.00765656
0.00760403
0.0075028
0.00737189
0.00722201
0.00706106
0.0068946
0.0067263
0.00655854
0.00639273
0.00622965
0.00606963
0.00591258
0.00575776
0.00560396
0.00545056
0.00529783
0.0051354
0.00756492
0.00763444
0.00765656
0.00760403
0.0075028
0.00737189
0.00722201
0.00706107
0.0068946
0.00672631
0.00655854
0.00639274
0.00622966
0.00606963
0.00591259
0.00575777
0.00560397
0.00545057
0.00529784
0.00513541
0.0077077
0.00777059
0.00777435
0.00770071
0.00758061
0.00743426
0.00727142
0.00710005
0.00692597
0.00675245
0.00658136
0.00641356
0.00624941
0.00608894
0.00593198
0.00577777
0.00562517
0.00547403
0.00532566
0.00516999
0.00797365
0.00803809
0.00800863
0.0078838
0.00772483
0.00755123
0.00736504
0.00717717
0.00699121
0.00680802
0.00662913
0.00645557
0.00628778
0.00612607
0.00597065
0.00582055
0.00567351
0.00552834
0.00538551
0.00523495
0.00845984
0.00848167
0.00835449
0.008137
0.00790463
0.00767555
0.00745287
0.00723995
0.00703959
0.00685297
0.00667767
0.00651072
0.00635069
0.00619612
0.00604693
0.00590543
0.00577303
0.00565034
0.00554091
0.00544445
0.0098445
0.00910331
0.00851514
0.00810705
0.00778514
0.00751849
0.00729707
0.00710663
0.0069362
0.00678005
0.0066311
0.00648274
0.00633458
0.00618921
0.00605006
0.00592117
0.00580829
0.00571979
0.00567154
0.0056905
0.00997867
0.00921594
0.00859717
0.00814586
0.0078019
0.0075329
0.00731335
0.00712466
0.00695701
0.00679984
0.0066446
0.00648997
0.00633687
0.00618617
0.00603891
0.00589678
0.00576195
0.00563725
0.00553077
0.0054602
0.00867577
0.00871928
0.00855371
0.00829078
0.00801041
0.00773909
0.00748813
0.00726182
0.00705891
0.00687254
0.00669574
0.00652551
0.00636029
0.00619909
0.0060415
0.00588729
0.00573649
0.00559017
0.00545245
0.00533131
0.00815667
0.00822473
0.00817236
0.00802538
0.00784051
0.00763538
0.00742473
0.00721785
0.00701672
0.00682427
0.00664164
0.00646696
0.00629818
0.00613396
0.00597333
0.00581522
0.00565867
0.0055034
0.00535004
0.00519267
0.00785878
0.00791792
0.00790599
0.0078106
0.00767098
0.00750549
0.00732529
0.00714079
0.00695678
0.00677633
0.00660109
0.00643084
0.00626494
0.00610275
0.00594365
0.00578676
0.0056311
0.00547645
0.0053239
0.00516396
0.0077077
0.00777059
0.00777435
0.00770072
0.00758062
0.00743426
0.00727142
0.00710005
0.00692596
0.00675245
0.00658135
0.00641355
0.0062494
0.00608894
0.00593197
0.00577776
0.00562514
0.005474
0.00532563
0.00516995
0.0077077
0.0077706
0.00777436
0.00770072
0.00758062
0.00743427
0.00727143
0.00710007
0.00692599
0.00675247
0.00658137
0.00641357
0.00624943
0.006089
0.00593211
0.005778
0.00562551
0.00547453
0.00532643
0.00517124
0.00785878
0.00791793
0.00790599
0.0078106
0.00767098
0.00750549
0.00732529
0.0071408
0.00695678
0.00677634
0.0066011
0.00643085
0.00626495
0.00610276
0.00594366
0.00578678
0.00563113
0.00547649
0.00532396
0.00516406
0.00815667
0.00822473
0.00817236
0.00802537
0.0078405
0.00763538
0.00742473
0.00721785
0.00701672
0.00682426
0.00664158
0.00646683
0.00629798
0.00613364
0.00597269
0.00581402
0.0056566
0.00550008
0.00534492
0.00518341
0.00867578
0.00871928
0.00855372
0.00829079
0.00801042
0.00773911
0.00748816
0.00726187
0.00705897
0.00687255
0.00669563
0.00652523
0.00636011
0.00619905
0.00604115
0.005886
0.00573375
0.00558558
0.00544524
0.00531189
0.00997868
0.00921595
0.00859719
0.00814588
0.00780193
0.00753295
0.00731341
0.00712473
0.0069571
0.00679996
0.00664476
0.00649021
0.00633726
0.00618682
0.00603985
0.005898
0.00576384
0.00564197
0.00554397
0.00548936
0.0103879
0.00953641
0.00877213
0.00821297
0.0078368
0.00756876
0.00735307
0.00716011
0.0069816
0.00681292
0.00664916
0.00648805
0.00632897
0.00617147
0.0060144
0.00585602
0.00569367
0.00552355
0.00534662
0.00516477
0.00909411
0.00922029
0.00891739
0.00850115
0.00813398
0.0078153
0.00753667
0.00729609
0.0070833
0.00688836
0.00670444
0.00652812
0.00635717
0.00618951
0.00602285
0.00585521
0.00568429
0.00550812
0.00533019
0.00516511
0.00852462
0.0086256
0.00851403
0.00828853
0.00803275
0.00777431
0.00751585
0.00727409
0.007056
0.00685541
0.0066673
0.00648842
0.0063159
0.00614724
0.00598081
0.00581526
0.00564988
0.0054868
0.00533333
0.00518942
0.00815667
0.00822474
0.00817236
0.00802538
0.0078405
0.00763538
0.00742473
0.00721785
0.00701672
0.00682425
0.00664157
0.00646682
0.00629797
0.00613364
0.00597269
0.005814
0.00565657
0.00550003
0.0053448
0.00518315
0.00797366
0.0080381
0.00800864
0.00788381
0.00772483
0.00755123
0.00736505
0.00717717
0.00699121
0.00680802
0.00662913
0.00645556
0.00628777
0.00612607
0.00597065
0.00582053
0.00567347
0.00552829
0.00538542
0.00523481
0.00797366
0.00803809
0.00800863
0.00788382
0.00772486
0.00755126
0.00736507
0.0071772
0.00699125
0.00680808
0.00662921
0.00645568
0.0062879
0.00612627
0.00597109
0.00582142
0.0056749
0.0055304
0.00538878
0.00524149
0.00815667
0.00822474
0.00817236
0.00802539
0.00784052
0.00763539
0.00742474
0.00721786
0.00701673
0.00682429
0.00664166
0.00646698
0.00629819
0.00613398
0.00597335
0.00581524
0.0056587
0.00550343
0.00535009
0.0051928
0.00852463
0.0086256
0.00851403
0.00828853
0.00803275
0.00777432
0.00751585
0.0072741
0.00705601
0.00685542
0.00666732
0.00648843
0.00631592
0.00614725
0.00598081
0.00581527
0.00564988
0.00548679
0.00533335
0.00518951
0.00909412
0.0092203
0.0089174
0.00850116
0.00813399
0.00781533
0.00753671
0.00729613
0.00708333
0.00688839
0.00670449
0.00652823
0.00635736
0.00618974
0.00602314
0.00585551
0.00568479
0.00550878
0.00533062
0.00515747
0.0103879
0.00953642
0.00877215
0.008213
0.00783684
0.0075688
0.00735313
0.00716019
0.00698171
0.00681308
0.00664937
0.00648837
0.00632951
0.00617241
0.00601596
0.00585879
0.00569845
0.00553198
0.00536377
0.00519839
0.0107362
0.0100023
0.00890941
0.00824342
0.0078408
0.00756699
0.00735572
0.00716935
0.0069947
0.00682699
0.00666362
0.00650273
0.00634254
0.00618156
0.00601933
0.00585401
0.00568141
0.00548983
0.00524049
0.00483798
0.0100196
0.00998787
0.00925963
0.0085491
0.0081027
0.00778667
0.00752765
0.00729981
0.00709491
0.00690602
0.00672751
0.00655553
0.00638654
0.00621828
0.00604939
0.00587764
0.00569817
0.00550571
0.00531459
0.00520303
0.00909412
0.0092203
0.0089174
0.00850117
0.008134
0.00781533
0.00753671
0.00729612
0.00708332
0.00688839
0.00670448
0.00652822
0.00635734
0.00618973
0.00602314
0.00585552
0.0056848
0.00550882
0.00533067
0.00515752
0.00867578
0.00871929
0.00855372
0.00829079
0.00801042
0.00773911
0.00748816
0.00726187
0.00705897
0.00687255
0.00669562
0.00652523
0.0063601
0.00619906
0.00604115
0.005886
0.00573374
0.00558556
0.00544515
0.0053116
0.00845985
0.00848168
0.00835449
0.008137
0.00790463
0.00767556
0.00745288
0.00723996
0.00703959
0.00685297
0.00667767
0.00651072
0.00635069
0.00619612
0.00604692
0.00590541
0.005773
0.00565029
0.0055408
0.00544418
0.00845984
0.00848167
0.00835449
0.00813701
0.00790464
0.00767556
0.00745289
0.00723997
0.0070396
0.006853
0.00667778
0.00651098
0.00635103
0.00619643
0.00604751
0.00590663
0.00577497
0.00565258
0.00554398
0.00545618
0.00867578
0.00871928
0.00855372
0.00829079
0.00801042
0.0077391
0.00748814
0.00726183
0.00705893
0.00687256
0.00669577
0.00652553
0.00636032
0.00619912
0.00604154
0.00588732
0.00573651
0.00559018
0.00545246
0.00533131
0.00909411
0.00922029
0.0089174
0.00850116
0.00813398
0.00781531
0.00753668
0.0072961
0.00708331
0.00688838
0.00670446
0.00652814
0.0063572
0.00618953
0.00602286
0.00585522
0.0056843
0.00550811
0.00533016
0.00516504
0.0100196
0.00998787
0.00925963
0.0085491
0.00810271
0.00778667
0.00752766
0.00729982
0.00709492
0.00690603
0.00672753
0.00655555
0.00638656
0.0062183
0.00604941
0.00587765
0.00569817
0.00550567
0.00531451
0.00520286
0.0107362
0.0100023
0.00890942
0.00824344
0.00784082
0.00756703
0.00735578
0.00716944
0.00699483
0.00682718
0.0066639
0.00650318
0.00634316
0.00618245
0.00602076
0.00585643
0.00568539
0.00549727
0.00525494
0.00485387
0.017915
0.0108005
0.0085091
0.00797126
0.00769687
0.00747461
0.00728787
0.0071213
0.00695993
0.00680013
0.00664194
0.00648509
0.00632822
0.00616935
0.00600856
0.00584463
0.00567439
0.00549152
0.00523759
0.00476577
0.0107362
0.0100023
0.00890943
0.00824345
0.00784083
0.00756704
0.00735578
0.00716944
0.00699483
0.00682717
0.00666389
0.00650317
0.00634314
0.00618242
0.00602073
0.00585642
0.0056854
0.00549733
0.00525509
0.00485419
0.0103879
0.00953643
0.00877215
0.00821301
0.00783684
0.00756881
0.00735313
0.00716019
0.00698171
0.00681308
0.00664936
0.00648836
0.0063295
0.00617239
0.00601594
0.0058588
0.0056985
0.00553209
0.00536401
0.00519892
0.00997869
0.00921596
0.0085972
0.00814588
0.00780193
0.00753295
0.00731341
0.00712473
0.0069571
0.00679996
0.00664476
0.00649021
0.00633726
0.00618681
0.00603985
0.00589802
0.00576389
0.00564207
0.00554416
0.00548971
0.0098445
0.00910332
0.00851515
0.00810705
0.00778515
0.00751849
0.00729708
0.00710663
0.00693621
0.00678006
0.00663111
0.00648274
0.00633458
0.00618921
0.00605006
0.00592117
0.00580831
0.00571982
0.00567159
0.00569061
0.0098445
0.00910331
0.00851514
0.00810705
0.00778514
0.00751848
0.00729706
0.00710661
0.00693618
0.00678003
0.00663106
0.00648269
0.0063345
0.00618906
0.0060499
0.00592113
0.00580787
0.00571683
0.00566329
0.00566751
0.00997868
0.00921595
0.00859718
0.00814587
0.00780191
0.00753292
0.00731337
0.00712468
0.00695703
0.00679987
0.00664462
0.00649
0.0063369
0.0061862
0.00603894
0.00589681
0.00576198
0.00563727
0.00553079
0.00546022
0.0103879
0.00953641
0.00877213
0.00821298
0.00783681
0.00756877
0.00735309
0.00716012
0.00698162
0.00681294
0.00664918
0.00648808
0.006329
0.0061715
0.00601442
0.00585604
0.00569368
0.00552355
0.00534659
0.00516468
0.0107362
0.0100023
0.00890941
0.00824343
0.0078408
0.007567
0.00735573
0.00716936
0.00699472
0.00682701
0.00666364
0.00650276
0.00634256
0.00618159
0.00601936
0.00585403
0.00568142
0.00548982
0.00524044
0.00483784
0.017915
0.0108005
0.0085091
0.00797126
0.00769687
0.00747462
0.00728788
0.00712131
0.00695994
0.00680015
0.00664196
0.00648511
0.00632824
0.00616937
0.00600859
0.00584465
0.00567439
0.00549149
0.00523751
0.00476561
0.00570317
0.00497694
0.0044767
0.00436445
0.00426936
0.00414286
0.004012
0.00388203
0.00375193
0.00362252
0.0034931
0.00336413
0.00323588
0.00310877
0.00298144
0.00285388
0.00272707
0.00260104
0.00247674
0.00235319
0.00223098
0.00210928
0.00198847
0.0018692
0.00175089
0.00163379
0.0015171
0.00140118
0.00128603
0.00117181
0.00105897
0.000946545
0.000834139
0.000721701
0.00061048
0.000500541
0.000390188
0.000278698
0.000168861
5.18125e-05
0.00575098
0.00505594
0.00456464
0.00438073
0.00426115
0.00413416
0.00400498
0.00387596
0.00374632
0.00361689
0.00348718
0.00335767
0.00322851
0.00310019
0.00297187
0.00284369
0.00271664
0.0025906
0.00246634
0.00234298
0.00222092
0.00209983
0.00198014
0.00186184
0.00174412
0.00162715
0.00151043
0.00139454
0.00127951
0.00116551
0.00105295
0.000940984
0.000829058
0.000716984
0.000606152
0.000496672
0.000386646
0.000275749
0.000166026
5.09713e-05
0.00545803
0.00507504
0.00472113
0.00449672
0.0043294
0.00417665
0.00403241
0.00389424
0.0037589
0.00362495
0.00349158
0.00335929
0.00322769
0.00309746
0.0029684
0.00284015
0.00271304
0.00258698
0.00246248
0.00233864
0.00221622
0.00209469
0.00197461
0.00185582
0.00173768
0.00162061
0.00150389
0.00138815
0.0012735
0.00115992
0.0010476
0.000936242
0.000824792
0.000713436
0.000603372
0.000494082
0.000384135
0.000273563
0.000164561
5.02659e-05
0.00515635
0.00498667
0.00476643
0.00456673
0.00439412
0.00423424
0.00408163
0.00393474
0.00379199
0.00365232
0.00351499
0.00337986
0.0032465
0.00311472
0.00298427
0.00285504
0.00272704
0.00260013
0.00247454
0.0023497
0.00222592
0.00210263
0.00198007
0.00185896
0.00173938
0.00162129
0.00150433
0.00138854
0.00127375
0.0011599
0.00104657
0.000934357
0.000822496
0.000711328
0.000601742
0.000492601
0.0003828
0.000272803
0.000164262
4.99464e-05
0.0049827
0.00491238
0.00476401
0.00458879
0.00441813
0.00425655
0.00410176
0.00395259
0.00380773
0.00366579
0.0035265
0.00339022
0.00325629
0.00312397
0.00299304
0.00286344
0.00273515
0.00260806
0.00248215
0.00235735
0.00223381
0.00211135
0.00198956
0.00186857
0.00174866
0.00163005
0.00151275
0.00139669
0.00128182
0.00116751
0.00105309
0.00093934
0.000826547
0.000714954
0.000604942
0.000495087
0.000384477
0.000273844
0.000164816
5.01557e-05
0.00493011
0.00487432
0.00475489
0.00459042
0.00442174
0.0042599
0.0041045
0.00395507
0.00381065
0.00366935
0.00353085
0.00339494
0.00326092
0.00312845
0.00299742
0.00286776
0.00273941
0.00261231
0.0024864
0.00236167
0.00223811
0.0021157
0.00199443
0.00187416
0.00175449
0.00163537
0.00151716
0.00140047
0.00128536
0.00117122
0.0010577
0.000945069
0.000833158
0.000721875
0.000611278
0.000500412
0.000388753
0.000276772
0.000166546
5.10578e-05
0.0049771
0.00490406
0.00475228
0.00457695
0.00440784
0.00424744
0.004094
0.00394693
0.00380461
0.00366536
0.00352858
0.00339349
0.0032599
0.00312776
0.00299692
0.00286742
0.00273924
0.00261228
0.00248649
0.00236185
0.00223838
0.00211611
0.00199486
0.00187464
0.00175516
0.00163627
0.00151807
0.0014014
0.00128637
0.00117258
0.00105985
0.0009474
0.000834908
0.000723306
0.000613146
0.000502906
0.0003919
0.000280232
0.000169326
5.27489e-05
0.00513003
0.00497162
0.00475188
0.00455391
0.00438222
0.00422454
0.00407481
0.00393124
0.00379173
0.00365495
0.00351971
0.00338566
0.00325297
0.00312128
0.00299065
0.00286141
0.00273366
0.0026071
0.00248171
0.00235753
0.00223448
0.00211268
0.00199153
0.0018717
0.00175307
0.00163587
0.00151968
0.00140413
0.00128953
0.00117596
0.00106352
0.000951029
0.000838029
0.000725941
0.000615675
0.000505672
0.000394997
0.000283076
0.000171186
5.3904e-05
0.00542485
0.00506235
0.00471516
0.00448968
0.00432378
0.00417554
0.00403492
0.00389935
0.00376622
0.00363397
0.0035019
0.00337087
0.00324179
0.00311396
0.00298656
0.00285884
0.00273186
0.00260558
0.00248049
0.00235675
0.00223379
0.0021119
0.00199079
0.00187138
0.00175305
0.00163652
0.0015209
0.00140546
0.00129053
0.00117644
0.00106371
0.000951097
0.000838055
0.000725534
0.000614627
0.000503957
0.000393081
0.00028135
0.000169273
5.30114e-05
0.00569407
0.00504789
0.00458869
0.00441507
0.00428975
0.0041517
0.00401649
0.00388563
0.00375585
0.00362695
0.0034977
0.00336951
0.00324344
0.00311794
0.00299196
0.00286491
0.00273815
0.00261213
0.0024873
0.00236382
0.00224103
0.00211873
0.00199705
0.00187708
0.00175862
0.0016413
0.00152474
0.00140872
0.00129335
0.00117891
0.00106591
0.000953189
0.000840158
0.00072745
0.000616163
0.000504856
0.000393644
0.000282325
0.000170591
5.36981e-05
0.00570314
0.00497693
0.00447765
0.00436685
0.0042704
0.00414175
0.00401001
0.00388041
0.00375072
0.0036218
0.00349225
0.00336348
0.00323641
0.00310932
0.00298195
0.00285424
0.00272733
0.00260139
0.00247671
0.00235335
0.00223078
0.00210901
0.00198829
0.00186916
0.00175124
0.00163405
0.00151753
0.00140157
0.00128639
0.00117215
0.00105931
0.000946936
0.000834411
0.000722156
0.000611287
0.000500424
0.000389713
0.000278736
0.000168786
5.16876e-05
0.0056942
0.00504795
0.00458744
0.00441276
0.00428859
0.0041526
0.00401831
0.00388731
0.00375725
0.0036279
0.00349875
0.00337028
0.00324301
0.00311748
0.00299146
0.00286452
0.00273777
0.00261164
0.0024872
0.00236353
0.00224114
0.00211887
0.00199709
0.00187692
0.00175817
0.00164099
0.00152431
0.00140832
0.00129296
0.00117849
0.00106545
0.000952676
0.000839796
0.000726866
0.000615174
0.000504825
0.000394098
0.000282227
0.000170534
5.37423e-05
0.00548665
0.00505111
0.00469092
0.0044734
0.0043121
0.00416357
0.00402333
0.00388967
0.0037588
0.00362896
0.00349947
0.00337083
0.00324247
0.00311516
0.00298804
0.0028611
0.00273468
0.00260916
0.00248524
0.00236182
0.00224012
0.0021185
0.00199758
0.00187789
0.00175898
0.00164171
0.00152458
0.00140825
0.00129289
0.00117849
0.00106535
0.000952616
0.000839625
0.000726871
0.000615385
0.000504862
0.000394178
0.000282481
0.000171637
5.42641e-05
0.00524032
0.00498295
0.00474248
0.00453087
0.00435204
0.00419017
0.00403943
0.00389758
0.00376082
0.00362659
0.00349417
0.00336302
0.00323326
0.00310464
0.002977
0.00285036
0.00272435
0.00259949
0.00247571
0.00235258
0.00223013
0.00210839
0.00198759
0.00186784
0.001749
0.00163149
0.00151504
0.00139938
0.00128481
0.0011712
0.00105785
0.000945107
0.000832522
0.000720922
0.000610841
0.000500525
0.000389348
0.000278103
0.000168506
5.29425e-05
0.00509587
0.00491456
0.00472768
0.00453888
0.0043665
0.00420817
0.00405837
0.00391476
0.00377557
0.00363941
0.00350575
0.00337348
0.00324279
0.00311329
0.00298485
0.00285753
0.00273111
0.00260573
0.00248111
0.00235767
0.00223482
0.00211272
0.00199137
0.00187136
0.00175266
0.00163458
0.00151768
0.00140167
0.00128656
0.00117211
0.00105781
0.000944005
0.000831177
0.000719597
0.000609137
0.000498466
0.00038746
0.000276791
0.000167329
5.32361e-05
0.00487643
0.00474504
0.00463466
0.00449179
0.00434254
0.00419773
0.00405612
0.00391637
0.00377883
0.00364353
0.00351025
0.00337851
0.00324786
0.00311822
0.00298968
0.00286222
0.00273573
0.00261024
0.00248566
0.00236212
0.00223923
0.00211699
0.00199582
0.00187587
0.00175687
0.00163851
0.00152135
0.00140549
0.00129042
0.00117564
0.00106119
0.000947245
0.000834455
0.000722517
0.000610852
0.00049889
0.000386809
0.000275496
0.000165822
5.34145e-05
0.00483068
0.00469609
0.00460667
0.00447943
0.0043365
0.00419645
0.00405828
0.00392011
0.00378288
0.00364784
0.00351467
0.00338263
0.00325165
0.00312177
0.00299302
0.00286532
0.00273859
0.00261286
0.00248821
0.00236454
0.00224163
0.00211945
0.00199829
0.00187809