/*--------------------------------*- C++ -*----------------------------------*\
| =========                 |                                                 |
| \\      /  F ield         | OpenFOAM: The Open Source CFD Toolbox           |
|  \\    /   O peration     | Version:  2212                                  |
|   \\  /    A nd           | Website:  www.openfoam.com                      |
|    \\/     M anipulation  |                                                 |
\*---------------------------------------------------------------------------*/
FoamFile
{
    version     2.0;
    format      ascii;
    arch        "LSB;label=32;scalar=64";
    class       volVectorField;
    location    "2.35";
    object      U;
}
// * * * * * * * * * * * * * * * * * * * * * * * * * * * * * * * * * * * * * //

dimensions      [0 1 -1 0 0 0 0];

internalField   nonuniform List<vector> 
6840
(
(0.0956456 -0.00836005 -0.00836005)
(0.090494 0.00152201 0.00152202)
(0.0790684 0.00242968 0.00242968)
(0.0713015 0.00148769 0.00148772)
(0.06618 0.000830355 0.000830458)
(0.0623237 0.000563339 0.00056352)
(0.0592226 0.000425712 0.000426236)
(0.0566877 0.000322872 0.000323867)
(0.0545545 0.000251286 0.000252927)
(0.052705 0.000199802 0.000202479)
(0.0510715 0.00016174 0.000166381)
(0.0496175 0.00013266 0.000140472)
(0.0483143 0.000108115 0.000119862)
(0.0471359 8.53146e-05 0.000102161)
(0.0460799 6.00809e-05 8.61125e-05)
(0.0451528 3.20764e-05 7.02105e-05)
(0.044387 1.79258e-05 4.55908e-05)
(0.0439621 -7.96359e-05 -6.2835e-06)
(0.0444328 -0.000221406 -0.000143823)
(0.0431238 -0.00257937 -0.00218354)
(0.0999088 0.001297 0.000712562)
(0.0969669 0.00365583 0.00274726)
(0.0935347 0.00264014 0.00211817)
(0.0895896 0.00182025 0.00162059)
(0.0858327 0.00152843 0.00139061)
(0.0825911 0.00135068 0.00116134)
(0.0798668 0.00117854 0.000897347)
(0.0775695 0.00103916 0.000692686)
(0.0755618 0.000940515 0.000561421)
(0.0737577 0.00086198 0.000481459)
(0.0721116 0.00078681 0.000435773)
(0.070596 0.000709323 0.000410156)
(0.0691946 0.000632818 0.000395715)
(0.0678955 0.000561856 0.000391113)
(0.0666997 0.000483103 0.000394799)
(0.0656147 0.000384589 0.00040393)
(0.0646886 0.000227904 0.000400089)
(0.0640945 -7.29668e-05 0.000284484)
(0.0642561 -0.000671934 -1.00483e-05)
(0.0630588 -0.00285735 -0.00180212)
(0.099413 0.000345209 0.000270233)
(0.0988664 0.00201892 0.00187492)
(0.0979216 0.00257289 0.00218904)
(0.0963661 0.00237945 0.00190842)
(0.0946339 0.00211343 0.00162673)
(0.092973 0.00192567 0.00141883)
(0.0913654 0.00179956 0.00127156)
(0.089856 0.00170228 0.0011606)
(0.088458 0.00159964 0.00107085)
(0.0871636 0.00148585 0.000999939)
(0.0859659 0.00136984 0.000953258)
(0.0848508 0.00125676 0.000928155)
(0.083801 0.00114348 0.000920379)
(0.0828059 0.00102085 0.000925433)
(0.0818626 0.000877221 0.000940909)
(0.0809777 0.000695329 0.000962362)
(0.080177 0.000439598 0.000979205)
(0.0794826 -1.74746e-05 0.000968163)
(0.0789174 -0.000824051 0.000927232)
(0.0778278 -0.00238286 0.000657155)
(0.0995405 0.000245006 0.000321902)
(0.0992576 0.00105544 0.00154095)
(0.0988489 0.00150197 0.00211453)
(0.0981248 0.0015788 0.00209178)
(0.0973368 0.00151378 0.00188646)
(0.0965847 0.00144461 0.00166645)
(0.0958648 0.001407 0.00149897)
(0.0951965 0.0013737 0.0013732)
(0.0945666 0.00132465 0.00128779)
(0.0939191 0.0012477 0.001235)
(0.0932868 0.00114876 0.00120105)
(0.092666 0.00103755 0.00118435)
(0.0920455 0.000920393 0.00118297)
(0.0914134 0.000795091 0.00119789)
(0.0907559 0.00065039 0.00123115)
(0.0900537 0.000466741 0.00128707)
(0.0892787 0.000194847 0.00137771)
(0.0883666 -0.000213563 0.00151962)
(0.0872467 -0.000873294 0.00169699)
(0.0860065 -0.00173168 0.00233665)
(0.0993801 3.37574e-05 5.89313e-05)
(0.0992677 0.000274293 0.00120003)
(0.0989803 0.000432181 0.00188853)
(0.0984744 0.000483132 0.0020066)
(0.097995 0.000478275 0.00191492)
(0.0975698 0.000464542 0.00173515)
(0.0971789 0.000451165 0.00154796)
(0.0968272 0.000439495 0.00138973)
(0.0965238 0.000431407 0.00127219)
(0.0962634 0.000420244 0.00120339)
(0.0959791 0.000397621 0.00117924)
(0.0956685 0.000364723 0.00118266)
(0.095324 0.000324915 0.00120212)
(0.0949223 0.00028145 0.00124091)
(0.0944434 0.000236658 0.00131018)
(0.0938521 0.000176975 0.00142118)
(0.0930893 8.96639e-05 0.00160665)
(0.0920304 -4.33543e-05 0.00189408)
(0.0905855 -0.000264234 0.00224438)
(0.0889545 -0.000168814 0.0035978)
(0.0993801 -3.37603e-05 5.89328e-05)
(0.0992677 -0.000274307 0.00120003)
(0.0989803 -0.000432199 0.00188854)
(0.0984744 -0.000483147 0.00200659)
(0.0979951 -0.00047827 0.00191489)
(0.0975699 -0.000464464 0.00173507)
(0.0971791 -0.000450904 0.00154784)
(0.0968276 -0.000438915 0.00138953)
(0.0965245 -0.000430256 0.00127176)
(0.0962647 -0.000418121 0.00120256)
(0.0959816 -0.000393844 0.00117777)
(0.0956729 -0.000358254 0.00118023)
(0.0953321 -0.000314019 0.0011978)
(0.0949374 -0.000262156 0.00123198)
(0.0944701 -0.00020497 0.00129367)
(0.0938978 -0.000126493 0.00139532)
(0.0931627 -1.08662e-05 0.00156398)
(0.0921549 0.000165896 0.00183333)
(0.0907437 0.000443731 0.00220034)
(0.0891976 0.00057832 0.00307976)
(0.0995405 -0.00024501 0.000321904)
(0.0992576 -0.00105546 0.00154096)
(0.0988489 -0.00150201 0.00211452)
(0.0981248 -0.00157886 0.00209175)
(0.0973369 -0.00151382 0.00188639)
(0.0965849 -0.0014446 0.00166635)
(0.0958652 -0.0014069 0.00149888)
(0.0951973 -0.00137348 0.00137304)
(0.0945682 -0.00132406 0.00128736)
(0.0939221 -0.00124669 0.00123384)
(0.0932921 -0.00114721 0.00119876)
(0.0926754 -0.00103536 0.00117987)
(0.092062 -0.000916879 0.00117546)
(0.0914422 -0.000789086 0.00118613)
(0.090805 -0.000642552 0.00121079)
(0.0901344 -0.000446435 0.00125059)
(0.089411 -0.000162935 0.00131116)
(0.0885909 0.000266222 0.00141341)
(0.087609 0.000929813 0.00158789)
(0.0866108 0.00203363 0.00187881)
(0.099413 -0.000345212 0.000270233)
(0.0988664 -0.00201894 0.0018749)
(0.0979216 -0.00257293 0.00218899)
(0.0963662 -0.00237953 0.00190833)
(0.094634 -0.00211354 0.0016266)
(0.0929732 -0.00192585 0.00141864)
(0.0913657 -0.00179982 0.00127125)
(0.0898567 -0.00170269 0.00116009)
(0.0884594 -0.00160033 0.00107004)
(0.087166 -0.00148696 0.000998604)
(0.0859702 -0.0013717 0.000951204)
(0.0848585 -0.00125982 0.000924576)
(0.0838139 -0.00114824 0.000914198)
(0.082827 -0.00102794 0.00091532)
(0.0818958 -0.000887374 0.000924361)
(0.0810316 -0.00070697 0.000931527)
(0.0802677 -0.00045769 0.0009278)
(0.0796316 -9.33345e-07 0.000873767)
(0.0791656 0.000783287 0.00077241)
(0.078295 0.00264817 0.00023656)
(0.0999088 -0.001297 0.000712558)
(0.0969669 -0.00365584 0.00274724)
(0.0935347 -0.00264015 0.00211813)
(0.0895895 -0.00182026 0.0016205)
(0.0858327 -0.00152849 0.00139048)
(0.0825911 -0.00135078 0.00116112)
(0.0798668 -0.00117868 0.000897017)
(0.0775695 -0.00103936 0.000692126)
(0.075562 -0.000940888 0.000560457)
(0.0737581 -0.00086274 0.000479788)
(0.0721127 -0.000788293 0.000432412)
(0.0705987 -0.00071189 0.000404144)
(0.0691995 -0.000636851 0.000388606)
(0.0679028 -0.000568853 0.000383855)
(0.0667097 -0.000494545 0.000384714)
(0.0656291 -0.000405927 0.000385403)
(0.0647105 -0.000273232 0.000357108)
(0.0641298 3.12014e-05 0.000183405)
(0.0644225 0.000633338 -0.000180083)
(0.0631152 0.00243972 -0.00191556)
(0.0956456 0.00836005 -0.00836005)
(0.090494 -0.00152202 0.00152201)
(0.0790684 -0.00242969 0.00242968)
(0.0713015 -0.00148772 0.00148769)
(0.06618 -0.000830462 0.000830351)
(0.0623237 -0.000563525 0.000563338)
(0.0592225 -0.000426239 0.000425711)
(0.0566877 -0.000323867 0.000322873)
(0.0545544 -0.000252927 0.000251289)
(0.0527049 -0.000202478 0.000199808)
(0.0510714 -0.000166378 0.000161746)
(0.0496174 -0.000140463 0.000132665)
(0.0483141 -0.000119866 0.000108145)
(0.0471357 -0.000102127 8.53471e-05)
(0.0460796 -8.60314e-05 6.01199e-05)
(0.0451524 -7.0144e-05 3.21419e-05)
(0.0443865 -4.55179e-05 1.80182e-05)
(0.0439614 6.37259e-06 -7.95129e-05)
(0.0444319 0.000143927 -0.000221284)
(0.0431227 0.00218349 -0.00257899)
(0.0999088 0.000712557 0.001297)
(0.0969669 0.00274724 0.00365583)
(0.0935347 0.00211813 0.00264014)
(0.0895895 0.0016205 0.00182025)
(0.0858327 0.00139048 0.00152848)
(0.0825911 0.00116112 0.00135076)
(0.0798668 0.000897012 0.00117866)
(0.0775696 0.000692119 0.00103934)
(0.0755621 0.000560447 0.000940866)
(0.0737582 0.000479775 0.000862715)
(0.0721128 0.000432399 0.000788263)
(0.0705988 0.000404124 0.000711853)
(0.0691997 0.000388589 0.000636807)
(0.067903 0.000383795 0.000568794)
(0.0667102 0.000384633 0.000494533)
(0.0656297 0.000385306 0.000405922)
(0.0647113 0.000356991 0.000273212)
(0.0641308 0.000183274 -3.11966e-05)
(0.0644238 -0.000180258 -0.000633258)
(0.0631166 -0.00191519 -0.00243887)
(0.100226 0.000720802 0.000720803)
(0.0999601 0.00198268 0.00198271)
(0.0997825 0.00245176 0.00245181)
(0.0987886 0.00241945 0.00241955)
(0.0972762 0.0022006 0.00220074)
(0.0957759 0.00181134 0.00181159)
(0.0943948 0.00138218 0.00138261)
(0.0931673 0.00106953 0.00107025)
(0.0920827 0.000852838 0.000854116)
(0.0911246 0.00069976 0.000702042)
(0.0902787 0.00058599 0.000590306)
(0.0895236 0.000498878 0.000505883)
(0.0888395 0.000432802 0.000442206)
(0.0882307 0.000379978 0.000393221)
(0.0877066 0.000323232 0.000343894)
(0.0872776 0.000257695 0.000288521)
(0.0869637 0.000158174 0.000212681)
(0.0867516 -4.19719e-05 4.73265e-05)
(0.086454 -0.000527591 -0.00040661)
(0.0865162 -0.00190068 -0.0017153)
(0.10014 0.000774986 0.000869258)
(0.100454 0.00196229 0.00196359)
(0.100911 0.0024273 0.00233457)
(0.100978 0.0025262 0.00244139)
(0.100694 0.00242567 0.00233702)
(0.100225 0.00219647 0.00211293)
(0.0997101 0.00191496 0.00182401)
(0.0991857 0.00166293 0.00157685)
(0.0986923 0.00145793 0.00139214)
(0.098247 0.00128799 0.00125407)
(0.0978575 0.0011455 0.00115385)
(0.0975207 0.0010235 0.00108448)
(0.097234 0.000913683 0.00103743)
(0.0969974 0.000805281 0.00100338)
(0.0968111 0.000687806 0.000981035)
(0.0966795 0.00054457 0.000962869)
(0.0966055 0.000350073 0.000937915)
(0.0965776 6.87027e-05 0.000890119)
(0.096544 -0.00034487 0.000795135)
(0.0966577 -0.000931833 0.000608409)
(0.100093 0.000445882 0.000763212)
(0.100504 0.00119434 0.00174905)
(0.101105 0.00158653 0.00212964)
(0.101635 0.00173998 0.00223494)
(0.101979 0.00178155 0.00228768)
(0.102171 0.00172786 0.00223696)
(0.102252 0.00160623 0.0021176)
(0.102276 0.00145725 0.00196733)
(0.102278 0.00130003 0.00180659)
(0.102269 0.00114849 0.00166013)
(0.102261 0.0010147 0.00155654)
(0.102258 0.000897256 0.00148835)
(0.10226 0.000786053 0.00144809)
(0.102267 0.000672966 0.00143326)
(0.102277 0.000546771 0.00144407)
(0.102287 0.000396013 0.00148424)
(0.102289 0.000201446 0.00156406)
(0.10227 -5.97382e-05 0.00169425)
(0.10221 -0.000405069 0.00188365)
(0.102333 -0.000749739 0.00219147)
(0.100087 0.000144367 0.000707023)
(0.100477 0.000390434 0.00161781)
(0.101065 0.000541002 0.00203468)
(0.101694 0.000609986 0.00211777)
(0.102268 0.000635755 0.00215069)
(0.102741 0.000626412 0.00218084)
(0.103123 0.000594157 0.00213581)
(0.103425 0.000548271 0.0020472)
(0.103676 0.000502295 0.00194016)
(0.103891 0.000458562 0.00183835)
(0.104082 0.000413063 0.0017462)
(0.104261 0.000366728 0.0016709)
(0.104424 0.000321812 0.00163161)
(0.104561 0.000276048 0.0016315)
(0.104674 0.00022628 0.00166146)
(0.104758 0.00016993 0.00174002)
(0.1048 0.000100131 0.00188785)
(0.104789 1.13542e-05 0.00213136)
(0.104735 -9.56061e-05 0.00247697)
(0.105001 -0.000171355 0.00287976)
(0.100087 -0.00014437 0.000707024)
(0.100477 -0.000390441 0.00161781)
(0.101065 -0.000541014 0.0020347)
(0.101694 -0.000609991 0.00211776)
(0.102268 -0.000635719 0.00215064)
(0.102741 -0.000626285 0.00218072)
(0.103123 -0.000593891 0.0021356)
(0.103426 -0.000547764 0.00204686)
(0.103677 -0.00050129 0.00193965)
(0.103892 -0.000456538 0.0018375)
(0.104084 -0.000409256 0.00174478)
(0.104264 -0.000359993 0.00166835)
(0.10443 -0.000311086 0.00162702)
(0.104571 -0.000259 0.00162421)
(0.10469 -0.000198956 0.00165066)
(0.104782 -0.000126917 0.00172041)
(0.104836 -3.30382e-05 0.00185533)
(0.104844 9.388e-05 0.00208074)
(0.104825 0.000264427 0.0023979)
(0.10512 0.000474849 0.00272635)
(0.100093 -0.000445887 0.000763213)
(0.100504 -0.00119436 0.00174905)
(0.101105 -0.00158656 0.00212962)
(0.101635 -0.00174003 0.00223485)
(0.101979 -0.0017816 0.00228748)
(0.102172 -0.00172793 0.00223664)
(0.102253 -0.00160628 0.00211711)
(0.102277 -0.00145727 0.0019666)
(0.102279 -0.00130005 0.0018055)
(0.102271 -0.00114828 0.00165841)
(0.102264 -0.00101426 0.00155352)
(0.102265 -0.000896529 0.00148321)
(0.102272 -0.00078612 0.00143954)
(0.102287 -0.000674501 0.00141911)
(0.102309 -0.000547083 0.00142091)
(0.102338 -0.000394636 0.00144628)
(0.102368 -0.000197139 0.00150055)
(0.102394 6.91109e-05 0.00159166)
(0.102416 0.000422225 0.00172674)
(0.102629 0.000831113 0.00186895)
(0.10014 -0.000774991 0.000869253)
(0.100454 -0.00196231 0.00196355)
(0.100911 -0.00242734 0.00233448)
(0.100978 -0.00252628 0.00244124)
(0.100694 -0.0024258 0.0023368)
(0.100225 -0.00219671 0.00211266)
(0.0997104 -0.00191533 0.00182358)
(0.0991862 -0.00166345 0.00157605)
(0.0986932 -0.00145884 0.00139075)
(0.0982487 -0.00128966 0.00125175)
(0.0978606 -0.00114833 0.00114995)
(0.0975261 -0.00102856 0.00107819)
(0.0972427 -0.000922846 0.00102762)
(0.0970099 -0.000820368 0.000988451)
(0.0968303 -0.000711297 0.000958222)
(0.096708 -0.000580607 0.000927807)
(0.0966482 -0.000402382 0.000879205)
(0.0966427 -0.000145957 0.000793115)
(0.0966506 0.000233968 0.000636693)
(0.096773 0.000766407 0.000340086)
(0.100226 -0.000720803 0.000720801)
(0.0999601 -0.00198271 0.00198269)
(0.0997824 -0.00245181 0.00245176)
(0.0987886 -0.00241955 0.00241946)
(0.0972762 -0.00220074 0.0022006)
(0.0957759 -0.00181159 0.00181135)
(0.0943948 -0.0013826 0.00138219)
(0.0931673 -0.00107025 0.00106954)
(0.0920826 -0.000854111 0.000852854)
(0.0911245 -0.000702035 0.00069978)
(0.0902786 -0.000590294 0.000586013)
(0.0895234 -0.000505867 0.000498909)
(0.0888393 -0.000442267 0.000432921)
(0.0882304 -0.000393195 0.00038005)
(0.0877064 -0.000343725 0.000323194)
(0.0872773 -0.00028844 0.000257766)
(0.0869633 -0.000212619 0.000158288)
(0.0867511 -4.72273e-05 -4.18498e-05)
(0.0864534 0.000406783 -0.000527527)
(0.0865153 0.00171524 -0.00190041)
(0.0999088 -0.000712562 0.001297)
(0.0969669 -0.00274726 0.00365583)
(0.0935347 -0.00211817 0.00264014)
(0.0895895 -0.00162058 0.00182025)
(0.0858327 -0.0013906 0.00152842)
(0.0825911 -0.00116133 0.00135068)
(0.0798668 -0.000897339 0.00117854)
(0.0775695 -0.000692676 0.00103916)
(0.0755618 -0.000561409 0.00094052)
(0.0737576 -0.000481445 0.00086199)
(0.0721115 -0.000435753 0.000786823)
(0.0705958 -0.000410133 0.000709342)
(0.0691944 -0.000395677 0.000632839)
(0.0678954 -0.000391111 0.000561973)
(0.0666992 -0.000394817 0.000483287)
(0.0656141 -0.000403922 0.000384808)
(0.0646879 -0.000400048 0.000228159)
(0.0640937 -0.000284388 -7.26665e-05)
(0.0642551 1.01989e-05 -0.000671611)
(0.063057 0.00180257 -0.00285658)
(0.099413 0.000270233 0.00034521)
(0.0988664 0.00187491 0.00201893)
(0.0979216 0.00218899 0.00257292)
(0.0963662 0.00190833 0.00237951)
(0.094634 0.0016266 0.00211353)
(0.0929732 0.00141864 0.00192583)
(0.0913658 0.00127125 0.00179981)
(0.0898568 0.00116009 0.00170267)
(0.0884594 0.00107003 0.00160031)
(0.0871661 0.000998592 0.00148694)
(0.0859703 0.000951189 0.00137167)
(0.0848586 0.000924549 0.00125978)
(0.0838141 0.000914165 0.00114822)
(0.0828272 0.000915247 0.0010279)
(0.0818963 0.000924221 0.000887299)
(0.0810321 0.000931343 0.000706874)
(0.0802684 0.000927567 0.000457575)
(0.0796326 0.000873423 8.03948e-07)
(0.079167 0.000771876 -0.000783399)
(0.0782971 0.000235904 -0.00264803)
(0.10014 0.000869253 0.000774989)
(0.100454 0.00196355 0.0019623)
(0.100911 0.00233448 0.00242734)
(0.100979 0.00244123 0.00252627)
(0.100694 0.0023368 0.0024258)
(0.100225 0.00211265 0.00219671)
(0.0997104 0.00182357 0.00191532)
(0.0991862 0.00157604 0.00166345)
(0.0986933 0.00139073 0.00145884)
(0.0982488 0.00125172 0.00128966)
(0.0978607 0.00114991 0.00114832)
(0.0975263 0.00107811 0.00102853)
(0.0972428 0.00102749 0.000922784)
(0.0970101 0.000988408 0.000820399)
(0.0968305 0.000958208 0.000711382)
(0.0967082 0.000927651 0.000580592)
(0.0966485 0.000878947 0.000402299)
(0.096643 0.000792835 0.000145876)
(0.0966508 0.000636448 -0.000233997)
(0.0967732 0.000339557 -0.000766632)
(0.10006 0.000641374 0.000641382)
(0.100502 0.00164497 0.00164501)
(0.101149 0.00221225 0.00221233)
(0.101738 0.00243972 0.00243987)
(0.102205 0.00244168 0.0024419)
(0.102502 0.0023132 0.00231355)
(0.102647 0.00209197 0.00209254)
(0.102717 0.00186812 0.00186903)
(0.102744 0.00166964 0.00167112)
(0.102761 0.00150252 0.00150495)
(0.102785 0.00136293 0.00136689)
(0.102827 0.00124598 0.00125236)
(0.102892 0.0011464 0.00115655)
(0.102986 0.00105759 0.00107356)
(0.10311 0.000971997 0.000996752)
(0.103265 0.000880212 0.000918194)
(0.103445 0.000770342 0.000828029)
(0.103637 0.000628179 0.000714864)
(0.103819 0.000443082 0.000572545)
(0.104134 0.000276722 0.000483775)
(0.100046 0.000395674 0.000540248)
(0.10048 0.00104474 0.00138411)
(0.101154 0.00147514 0.00192301)
(0.101913 0.00170488 0.00219266)
(0.102632 0.0017795 0.00229429)
(0.103301 0.00174396 0.00227868)
(0.103894 0.00163285 0.00218638)
(0.104391 0.00148942 0.00205394)
(0.104819 0.00134163 0.00190732)
(0.105197 0.00120441 0.0017696)
(0.105541 0.00108178 0.00165038)
(0.105865 0.000973437 0.00155154)
(0.106177 0.000874936 0.00147371)
(0.106486 0.000780981 0.00141559)
(0.106795 0.000688459 0.00137551)
(0.107109 0.00058995 0.00135391)
(0.107429 0.000478422 0.00135276)
(0.107759 0.000349057 0.00137485)
(0.108113 0.000204281 0.00141965)
(0.108579 6.56302e-05 0.00150688)
(0.100039 0.000131312 0.000478778)
(0.100448 0.000350437 0.00123481)
(0.101114 0.000504977 0.00174655)
(0.101909 0.000597023 0.00202697)
(0.102728 0.000638348 0.0021524)
(0.103529 0.000637891 0.00218701)
(0.104297 0.000603975 0.00215428)
(0.105006 0.000558393 0.00208112)
(0.105641 0.000508832 0.00198384)
(0.106213 0.000460082 0.00187914)
(0.106734 0.000414719 0.00177966)
(0.107213 0.000373218 0.00169448)
(0.107661 0.000334593 0.00163091)
(0.108089 0.000296285 0.001592)
(0.1085 0.000257553 0.00157901)
(0.108893 0.000217988 0.00159575)
(0.109274 0.000174737 0.0016509)
(0.109655 0.000125532 0.0017513)
(0.110063 7.36263e-05 0.00188891)
(0.110598 3.67147e-05 0.00204571)
(0.100039 -0.000131314 0.000478776)
(0.100448 -0.000350444 0.0012348)
(0.101114 -0.000504986 0.00174653)
(0.101909 -0.000597033 0.00202693)
(0.102728 -0.000638348 0.00215231)
(0.103529 -0.000637868 0.00218685)
(0.104297 -0.000603882 0.00215404)
(0.105006 -0.000558199 0.00208076)
(0.105642 -0.00050843 0.00198329)
(0.106214 -0.000459271 0.00187824)
(0.106736 -0.00041321 0.00177812)
(0.107216 -0.000370659 0.0016918)
(0.107664 -0.00033069 0.00162643)
(0.108094 -0.000290627 0.00158511)
(0.108507 -0.000248387 0.00156842)
(0.108904 -0.00020246 0.001579)
(0.10929 -0.000149199 0.00162449)
(0.109677 -8.45819e-05 0.0017106)
(0.110094 -7.87709e-06 0.00182723)
(0.110632 7.34004e-05 0.00194943)
(0.100046 -0.000395681 0.000540242)
(0.10048 -0.00104476 0.00138409)
(0.101154 -0.00147518 0.00192295)
(0.101913 -0.00170494 0.00219254)
(0.102632 -0.00177961 0.00229409)
(0.103302 -0.00174414 0.00227834)
(0.103894 -0.00163315 0.00218584)
(0.104391 -0.00148987 0.00205305)
(0.104819 -0.00134234 0.00190597)
(0.105199 -0.00120545 0.00176751)
(0.105543 -0.00108333 0.00164697)
(0.105868 -0.000975805 0.00154602)
(0.106183 -0.000878923 0.00146463)
(0.106495 -0.000787555 0.00140075)
(0.106809 -0.000697907 0.00135203)
(0.10713 -0.000603176 0.00131655)
(0.107461 -0.000496767 0.00129371)
(0.107806 -0.000373743 0.00128312)
(0.108181 -0.00023636 0.00128159)
(0.108661 -0.000100134 0.00128868)
(0.10006 -0.000641383 0.000641374)
(0.100502 -0.00164501 0.00164497)
(0.101149 -0.00221233 0.00221226)
(0.101738 -0.00243987 0.00243973)
(0.102205 -0.0024419 0.00244169)
(0.102502 -0.00231354 0.00231322)
(0.102647 -0.00209254 0.00209199)
(0.102717 -0.00186903 0.00186816)
(0.102744 -0.00167112 0.00166968)
(0.102761 -0.00150495 0.00150258)
(0.102785 -0.00136689 0.001363)
(0.102827 -0.00125236 0.00124607)
(0.102892 -0.00115656 0.00114652)
(0.102986 -0.00107356 0.00105772)
(0.10311 -0.000996743 0.000972124)
(0.103264 -0.000918195 0.000880367)
(0.103445 -0.000828035 0.000770517)
(0.103636 -0.000714877 0.000628353)
(0.103819 -0.000572575 0.000443239)
(0.104134 -0.000484007 0.000277034)
(0.10014 -0.000869259 0.000774986)
(0.100454 -0.00196359 0.00196229)
(0.100911 -0.00233457 0.00242731)
(0.100978 -0.00244139 0.0025262)
(0.100694 -0.00233702 0.00242568)
(0.100225 -0.00211293 0.00219649)
(0.0997101 -0.00182401 0.00191498)
(0.0991856 -0.00157684 0.00166296)
(0.0986923 -0.00139213 0.00145797)
(0.0982469 -0.00125406 0.00128804)
(0.0978574 -0.00115383 0.00114556)
(0.0975206 -0.00108444 0.00102356)
(0.0972339 -0.00103737 0.000913764)
(0.0969972 -0.00100336 0.000805435)
(0.0968109 -0.000981065 0.000688026)
(0.0966793 -0.000962838 0.000544781)
(0.0966052 -0.000937809 0.000350273)
(0.0965772 -0.000889931 6.88972e-05)
(0.0965436 -0.000794829 -0.000344686)
(0.0966572 -0.000608251 -0.000931419)
(0.099413 -0.000270234 0.000345208)
(0.0988664 -0.00187492 0.00201892)
(0.0979215 -0.00218905 0.00257289)
(0.0963661 -0.00190842 0.00237945)
(0.0946339 -0.00162673 0.00211343)
(0.092973 -0.00141883 0.00192568)
(0.0913653 -0.00127155 0.00179958)
(0.0898559 -0.00116059 0.00170231)
(0.0884579 -0.00107084 0.00159968)
(0.0871635 -0.000999926 0.00148591)
(0.0859657 -0.00095324 0.0013699)
(0.0848507 -0.000928126 0.00125684)
(0.0838008 -0.000920323 0.00114356)
(0.0828056 -0.000925393 0.00102099)
(0.0818624 -0.000940915 0.000877475)
(0.0809774 -0.00096235 0.000695638)
(0.0801765 -0.000979127 0.000439991)
(0.0794822 -0.000967992 -1.69809e-05)
(0.0789171 -0.000926896 -0.000823423)
(0.0778277 -0.000656517 -0.00238206)
(0.0995405 0.000321904 0.000245008)
(0.0992576 0.00154096 0.00105545)
(0.0988489 0.00211452 0.001502)
(0.0981248 0.00209175 0.00157885)
(0.0973369 0.00188639 0.0015138)
(0.0965849 0.00166635 0.00144458)
(0.0958653 0.00149887 0.00140688)
(0.0951973 0.00137303 0.00137346)
(0.0945682 0.00128735 0.00132403)
(0.0939222 0.00123383 0.00124666)
(0.0932922 0.00119875 0.00114718)
(0.0926756 0.00117984 0.00103533)
(0.0920622 0.00117541 0.000916838)
(0.0914424 0.00118603 0.000789011)
(0.0908053 0.00121063 0.000642436)
(0.0901349 0.00125037 0.000446302)
(0.0894117 0.00131085 0.000162811)
(0.0885918 0.00141294 -0.000266338)
(0.0876104 0.00158716 -0.00092994)
(0.0866127 0.00187791 -0.00203349)
(0.100093 0.000763214 0.000445885)
(0.100504 0.00174905 0.00119435)
(0.101105 0.00212961 0.00158655)
(0.101635 0.00223484 0.00174002)
(0.101979 0.00228747 0.0017816)
(0.102172 0.00223663 0.00172792)
(0.102253 0.0021171 0.00160627)
(0.102277 0.00196658 0.00145726)
(0.102279 0.00180547 0.00130004)
(0.102271 0.00165837 0.00114826)
(0.102265 0.00155347 0.00101424)
(0.102265 0.00148312 0.000896489)
(0.102272 0.00143941 0.000786059)
(0.102287 0.00141902 0.000674488)
(0.102309 0.0014208 0.000547098)
(0.102338 0.00144603 0.000394585)
(0.102369 0.00150017 0.000197021)
(0.102394 0.00159112 -6.93015e-05)
(0.102417 0.001726 -0.000422528)
(0.102629 0.00186802 -0.000831598)
(0.100046 0.000540241 0.00039568)
(0.10048 0.00138409 0.00104476)
(0.101154 0.00192294 0.00147518)
(0.101913 0.00219253 0.00170494)
(0.102632 0.00229407 0.00177961)
(0.103302 0.00227832 0.00174414)
(0.103894 0.00218581 0.00163315)
(0.104391 0.00205301 0.00148987)
(0.10482 0.00190592 0.00134234)
(0.105199 0.00176745 0.00120545)
(0.105543 0.00164688 0.00108332)
(0.105868 0.00154591 0.000975788)
(0.106183 0.0014645 0.000878899)
(0.106495 0.00140061 0.000787543)
(0.106809 0.00135188 0.000697891)
(0.10713 0.00131635 0.000603125)
(0.107461 0.00129345 0.000496674)
(0.107806 0.00128283 0.00037359)
(0.108181 0.00128126 0.000236094)
(0.108661 0.00128828 9.95714e-05)
(0.100036 0.000323121 0.00032313)
(0.100429 0.000868606 0.000868638)
(0.10108 0.00126227 0.00126233)
(0.101891 0.00150416 0.00150427)
(0.102756 0.00162121 0.0016214)
(0.103616 0.00164223 0.00164252)
(0.104446 0.00160395 0.00160437)
(0.105224 0.00152533 0.00152597)
(0.105939 0.00142533 0.0014263)
(0.106595 0.00131975 0.00132123)
(0.107201 0.00121892 0.00122123)
(0.107766 0.00112759 0.00113121)
(0.1083 0.00104689 0.00105261)
(0.108811 0.000976011 0.000984997)
(0.109308 0.000913352 0.000927208)
(0.109798 0.000856809 0.00087777)
(0.110287 0.000804264 0.000835302)
(0.110782 0.000753458 0.000798302)
(0.111304 0.000703134 0.000765677)
(0.111911 0.000662504 0.000746057)
(0.100031 0.000107063 0.00028138)
(0.100395 0.000293007 0.000768627)
(0.101024 0.000434012 0.00113307)
(0.101843 0.00052612 0.00136922)
(0.102751 0.000576185 0.0015015)
(0.103688 0.000591498 0.00155438)
(0.104617 0.000581974 0.00154953)
(0.105515 0.000557179 0.00150888)
(0.106366 0.000523308 0.00144567)
(0.107163 0.000485843 0.0013703)
(0.107905 0.000448964 0.00129159)
(0.108598 0.000414861 0.0012165)
(0.109249 0.000384134 0.00115016)
(0.109866 0.00035611 0.00109669)
(0.110459 0.00032897 0.00106026)
(0.111034 0.000302507 0.00104219)
(0.111598 0.000276741 0.00104219)
(0.112162 0.000251639 0.0010585)
(0.112746 0.000227524 0.00108723)
(0.113405 0.00020992 0.00112121)
(0.100031 -0.000107069 0.000281376)
(0.100395 -0.000293025 0.000768615)
(0.101024 -0.000434044 0.00113304)
(0.101843 -0.000526172 0.00136917)
(0.102751 -0.000576266 0.0015014)
(0.103688 -0.000591625 0.00155423)
(0.104617 -0.000582164 0.00154934)
(0.105515 -0.00055743 0.00150859)
(0.106366 -0.000523621 0.00144523)
(0.107163 -0.000486238 0.00136962)
(0.107906 -0.00044951 0.00129053)
(0.108599 -0.00041572 0.00121485)
(0.10925 -0.000385616 0.0011476)
(0.109867 -0.000358597 0.0010927)
(0.11046 -0.000332502 0.00105392)
(0.111035 -0.000306782 0.00103235)
(0.1116 -0.000281251 0.00102752)
(0.112165 -0.000255987 0.00103729)
(0.11275 -0.000230121 0.00105697)
(0.113409 -0.000206239 0.00107847)
(0.100036 -0.000323131 0.000323122)
(0.100429 -0.00086864 0.000868612)
(0.10108 -0.00126233 0.00126228)
(0.101891 -0.00150427 0.00150417)
(0.102756 -0.0016214 0.00162124)
(0.103616 -0.00164252 0.00164227)
(0.104446 -0.00160437 0.00160399)
(0.105224 -0.00152597 0.00152538)
(0.105939 -0.0014263 0.0014254)
(0.106595 -0.00132124 0.00131984)
(0.107201 -0.00122123 0.00121902)
(0.107766 -0.00113122 0.00112772)
(0.1083 -0.00105262 0.00104704)
(0.108811 -0.000985029 0.000976178)
(0.109308 -0.000927258 0.000913537)
(0.109798 -0.000877838 0.00085702)
(0.110286 -0.000835397 0.000804494)
(0.110782 -0.000798444 0.000753686)
(0.111303 -0.00076589 0.000703332)
(0.111911 -0.000746356 0.000662613)
(0.100046 -0.000540249 0.000395675)
(0.10048 -0.00138412 0.00104474)
(0.101154 -0.00192301 0.00147515)
(0.101913 -0.00219266 0.00170489)
(0.102632 -0.00229429 0.00177952)
(0.103301 -0.00227868 0.00174399)
(0.103894 -0.00218637 0.00163289)
(0.104391 -0.00205393 0.00148947)
(0.104819 -0.00190732 0.00134169)
(0.105197 -0.00176959 0.00120449)
(0.105541 -0.00165037 0.00108188)
(0.105865 -0.00155153 0.000973557)
(0.106177 -0.0014737 0.00087508)
(0.106485 -0.0014156 0.00078115)
(0.106795 -0.00137553 0.000688641)
(0.107108 -0.0013539 0.000590132)
(0.107429 -0.00135272 0.000478598)
(0.107759 -0.00137479 0.000349193)
(0.108113 -0.0014196 0.000204342)
(0.108578 -0.00150699 6.56395e-05)
(0.100093 -0.000763213 0.000445883)
(0.100504 -0.00174905 0.00119434)
(0.101105 -0.00212964 0.00158654)
(0.101635 -0.00223494 0.00174)
(0.101979 -0.00228768 0.00178157)
(0.102171 -0.00223696 0.00172789)
(0.102252 -0.00211759 0.00160627)
(0.102276 -0.00196733 0.0014573)
(0.102278 -0.00180658 0.0013001)
(0.102269 -0.00166012 0.00114857)
(0.102261 -0.00155653 0.0010148)
(0.102258 -0.00148831 0.000897372)
(0.10226 -0.00144803 0.000786186)
(0.102267 -0.00143324 0.000673162)
(0.102277 -0.00144407 0.000547023)
(0.102287 -0.00148413 0.000396266)
(0.102288 -0.00156384 0.000201702)
(0.10227 -0.00169386 -5.95143e-05)
(0.102209 -0.00188302 -0.000404967)
(0.102332 -0.00219016 -0.00075002)
(0.0995405 -0.000321902 0.000245006)
(0.0992576 -0.00154095 0.00105544)
(0.0988489 -0.00211453 0.00150198)
(0.0981248 -0.00209178 0.00157881)
(0.0973368 -0.00188646 0.00151379)
(0.0965847 -0.00166645 0.00144464)
(0.0958648 -0.00149897 0.00140704)
(0.0951965 -0.0013732 0.00137375)
(0.0945665 -0.00128779 0.00132471)
(0.0939191 -0.001235 0.00124779)
(0.0932867 -0.00120104 0.00114887)
(0.0926659 -0.00118433 0.00103768)
(0.0920454 -0.00118294 0.000920557)
(0.0914132 -0.00119784 0.0007953)
(0.0907558 -0.00123108 0.000650661)
(0.0900536 -0.00128694 0.000467091)
(0.0892786 -0.00137747 0.000195311)
(0.0883666 -0.00151919 -0.000212941)
(0.0872469 -0.00169627 -0.000872531)
(0.0860073 -0.00233548 -0.00173074)
(0.0993801 5.89329e-05 3.37585e-05)
(0.0992677 0.00120003 0.0002743)
(0.0989803 0.00188854 0.000432185)
(0.0984744 0.00200659 0.000483132)
(0.0979951 0.00191488 0.000478252)
(0.0975699 0.00173506 0.000464444)
(0.0971791 0.00154783 0.000450881)
(0.0968276 0.00138952 0.000438888)
(0.0965245 0.00127175 0.000430225)
(0.0962648 0.00120254 0.000418087)
(0.0959817 0.00117775 0.000393807)
(0.0956731 0.0011802 0.000358215)
(0.0953322 0.00119775 0.000313976)
(0.0949376 0.00123189 0.000262087)
(0.0944705 0.0012935 0.000204856)
(0.0938982 0.00139507 0.000126373)
(0.0931633 0.00156359 1.07616e-05)
(0.0921558 0.0018327 -0.000165975)
(0.0907451 0.0021993 -0.000443791)
(0.0891988 0.00307948 -0.000578223)
(0.100087 0.000707024 0.000144368)
(0.100477 0.00161781 0.000390436)
(0.101065 0.00203469 0.000541009)
(0.101694 0.00211776 0.000609986)
(0.102268 0.00215063 0.000635713)
(0.102741 0.00218071 0.000626278)
(0.103123 0.00213557 0.000593881)
(0.103426 0.00204683 0.000547751)
(0.103677 0.00193961 0.000501272)
(0.103892 0.00183745 0.000456514)
(0.104084 0.00174471 0.000409226)
(0.104264 0.00166826 0.000359952)
(0.10443 0.00162689 0.000311032)
(0.104572 0.00162405 0.000258952)
(0.10469 0.00165046 0.000198908)
(0.104782 0.00172008 0.000126838)
(0.104836 0.00185484 3.29137e-05)
(0.104845 0.00208001 -9.40677e-05)
(0.104825 0.00239692 -0.000264729)
(0.10512 0.00272546 -0.000475346)