/*--------------------------------*- C++ -*----------------------------------*\
| =========                 |                                                 |
| \\      /  F ield         | OpenFOAM: The Open Source CFD Toolbox           |
|  \\    /   O peration     | Version:  2212                                  |
|   \\  /    A nd           | Website:  www.openfoam.com                      |
|    \\/     M anipulation  |                                                 |
\*---------------------------------------------------------------------------*/
FoamFile
{
    version     2.0;
    format      ascii;
    arch        "LSB;label=32;scalar=64";
    class       surfaceVectorField;
    location    "2.35";
    object      Uf;
}
// * * * * * * * * * * * * * * * * * * * * * * * * * * * * * * * * * * * * * //

dimensions      [0 1 -1 0 0 0 0];

internalField   nonuniform List<vector> 
19019
(
(0.0993441 -0.00341902 -0.00341902)
(0.0973536 0.00106248 -0.00148427)
(0.0973536 -0.00148428 0.00106247)
(0.0834792 0.00197585 0.00197585)
(0.0930873 0.00326897 0.00253349)
(0.0930873 0.00253347 0.00326896)
(0.0745173 0.00195869 0.0019587)
(0.0848642 0.00163581 0.00179238)
(0.0848642 0.00179236 0.00163579)
(0.0685482 0.00115902 0.00115909)
(0.0786284 0.00107344 0.00122145)
(0.0786284 0.00122138 0.00107343)
(0.0642368 0.000696847 0.000696989)
(0.0740537 0.000785181 0.000865301)
(0.0740537 0.000865167 0.000785231)
(0.060758 0.000494525 0.000494878)
(0.0704436 0.000650249 0.000669666)
(0.0704436 0.000669438 0.000650339)
(0.0579393 0.000374292 0.000375051)
(0.0674935 0.000546256 0.000509314)
(0.0674935 0.000508812 0.000546527)
(0.0556171 0.000287079 0.000288397)
(0.0650538 0.000467974 0.000388838)
(0.0650538 0.000387927 0.000468494)
(0.0536298 0.000225544 0.000227703)
(0.0629708 0.000413682 0.000310147)
(0.0629709 0.000308642 0.00041458)
(0.051888 0.000180771 0.00018443)
(0.0611395 0.000370134 0.000258831)
(0.0611397 0.000256351 0.000371688)
(0.0503428 0.0001472 0.000153426)
(0.059501 0.000330128 0.000226433)
(0.0595014 0.000221966 0.000332919)
(0.0489635 0.000120388 0.000130167)
(0.0580223 0.000291973 0.000206663)
(0.0580234 0.000199033 0.000296759)
(0.0477251 9.67149e-05 0.000111011)
(0.0566798 0.00025653 0.000194313)
(0.0566818 0.000183744 0.000264014)
(0.0466063 7.26977e-05 9.41367e-05)
(0.055453 0.000223774 0.000187311)
(0.055456 0.000173461 0.000235244)
(0.0456125 4.60786e-05 7.81615e-05)
(0.054341 0.000186688 0.000184765)
(0.0543452 0.000163799 0.000204658)
(0.0447616 2.50011e-05 5.79006e-05)
(0.0533506 0.000141909 0.000185589)
(0.0533566 0.000153134 0.000169651)
(0.0441 -3.08551e-05 1.96536e-05)
(0.0525206 8.91448e-05 0.000180085)
(0.0525297 0.000142979 0.000118296)
(0.0440083 -0.000150521 -7.50534e-05)
(0.0520279 -4.66485e-05 0.000127901)
(0.0520424 3.79326e-05 4.70326e-06)
(0.0451654 -0.00140039 -0.00116368)
(0.0523748 -0.000306984 -3.48338e-05)
(0.052442 -0.000163895 -0.00026961)
(0.0511105 -0.0028198 -0.00210605)
(0.0511337 -0.00239096 -0.00241896)
(0.0984572 0.00247641 0.00172991)
(0.0996871 0.000439215 0.000345486)
(0.100049 0.00105638 0.000750974)
(0.0958349 0.00314799 0.00243271)
(0.0978162 0.00273269 0.00228231)
(0.0982937 0.00280916 0.00216149)
(0.0914502 0.0022302 0.00186938)
(0.0954961 0.00300153 0.00230319)
(0.0963041 0.00244254 0.00199786)
(0.0875956 0.00167434 0.0015056)
(0.0926194 0.00229904 0.00183889)
(0.0936672 0.00198049 0.00172706)
(0.0841485 0.00143955 0.00127597)
(0.0897678 0.0018913 0.00153587)
(0.0909053 0.00171931 0.00149804)
(0.0811891 0.00126461 0.00102934)
(0.0872329 0.00165539 0.00129512)
(0.0884355 0.00145394 0.00121233)
(0.0787033 0.00110885 0.000795017)
(0.0850078 0.0014902 0.00107797)
(0.0863066 0.00118255 0.00090968)
(0.0765601 0.000989838 0.000627054)
(0.0830628 0.00136848 0.000914754)
(0.0844835 0.000981324 0.000692461)
(0.0746566 0.000901248 0.00052144)
(0.0813277 0.00127339 0.000804139)
(0.082885 0.000842284 0.000551618)
(0.0729322 0.000824395 0.000458616)
(0.0797515 0.00118546 0.00073072)
(0.0814559 0.000739601 0.000460598)
(0.0713513 0.000748067 0.000422965)
(0.0783058 0.0010977 0.000686813)
(0.0801645 0.00065379 0.000400841)
(0.0698932 0.00067107 0.000402936)
(0.0769693 0.00100878 0.00066318)
(0.0789859 0.000576769 0.000360279)
(0.0685443 0.000597337 0.000393414)
(0.0757251 0.000917475 0.000652361)
(0.0779025 0.000508969 0.00033361)
(0.0672948 0.00052248 0.000392956)
(0.0745619 0.000822001 0.000651524)
(0.0769094 0.000450138 0.000318949)
(0.0661502 0.000433846 0.000399365)
(0.073479 0.000712608 0.000659841)
(0.0760113 0.000385649 0.000309736)
(0.065132 0.000306247 0.00040201)
(0.0724835 0.00057741 0.000674714)
(0.0752171 0.000307028 0.000302676)
(0.0643257 7.74688e-05 0.000342286)
(0.0716135 0.000378287 0.000680844)
(0.0745624 0.000182771 0.000283581)
(0.0640115 -0.00037245 0.000137218)
(0.0709746 -1.20009e-05 0.000604319)
(0.0741376 -6.99003e-05 0.000154274)
(0.0649274 -0.00176464 -0.000906087)
(0.0708112 -0.000798838 0.000385941)
(0.0740957 -0.000661537 -0.000311785)
(0.069662 -0.00314595 -0.000898728)
(0.0734567 -0.0027853 -0.00259106)
(0.0993753 0.00118207 0.00107258)
(0.099473 0.000349733 0.000307061)
(0.0997475 0.000610956 0.00077989)
(0.0984948 0.00229591 0.00203198)
(0.0990504 0.00157669 0.00172049)
(0.0995971 0.0020182 0.00200293)
(0.0971414 0.00247617 0.00204873)
(0.0983577 0.00213087 0.00216895)
(0.0992973 0.00246131 0.00210253)
(0.0954397 0.00224644 0.00176757)
(0.0971933 0.00203537 0.00200255)
(0.0984885 0.00237409 0.0019028)
(0.093751 0.00201955 0.00152278)
(0.0959052 0.00185495 0.00175461)
(0.0974226 0.00218024 0.00168902)
(0.0921385 0.00186262 0.0013452)
(0.0946718 0.00173164 0.00154312)
(0.09631 0.00198364 0.00150885)
(0.0906019 0.00175092 0.00121608)
(0.0934817 0.00165086 0.00138724)
(0.0952051 0.00179975 0.00134364)
(0.0891518 0.00165096 0.00111572)
(0.0923679 0.00157359 0.00126687)
(0.094149 0.00164154 0.00120538)
(0.0878048 0.00154275 0.00103539)
(0.0913312 0.00147602 0.00117428)
(0.0931672 0.00149951 0.00109848)
(0.0865618 0.00142785 0.000976598)
(0.0903411 0.00136191 0.00110761)
(0.0922635 0.0013662 0.00101842)
(0.0854076 0.0013133 0.000940706)
(0.0894093 0.0012446 0.00106465)
(0.0914377 0.00124317 0.000964867)
(0.0843254 0.00120012 0.000924267)
(0.0885268 0.00112597 0.00104194)
(0.0906808 0.00113011 0.000933593)
(0.0833018 0.00108217 0.000922906)
(0.0876788 0.00100521 0.0010358)
(0.0899821 0.00102188 0.000919658)
(0.0823317 0.000949035 0.000933171)
(0.0868545 0.000876724 0.00104438)
(0.089336 0.000909102 0.000918082)
(0.0814161 0.000786275 0.000951636)
(0.0860457 0.000726506 0.00106675)
(0.088741 0.000781088 0.000928479)
(0.0805716 0.000567464 0.000970784)
(0.0852467 0.000532064 0.00110157)
(0.0882028 0.000621047 0.00094569)
(0.0798321 0.000211062 0.000973684)
(0.084458 0.000248017 0.0011481)
(0.0877364 0.000398265 0.000959728)
(0.0792054 -0.000420763 0.000947697)
(0.0836612 -0.000193571 0.00120721)
(0.0873487 2.79301e-05 0.000952047)
(0.0786921 -0.00160345 0.000792193)
(0.0828351 -0.000960375 0.00126185)
(0.0870281 -0.000588001 0.000920004)
(0.0816747 -0.00207584 0.00144729)
(0.0864922 -0.00168749 0.000730044)
(0.0996493 0.000650223 0.000931426)
(0.0994625 0.000129354 0.000192492)
(0.0997993 0.000375093 0.000741369)
(0.0990854 0.00127871 0.00182774)
(0.0992625 0.000636778 0.00137063)
(0.0998409 0.00115025 0.00181424)
(0.0984492 0.00154039 0.00210316)
(0.0989128 0.000973213 0.00200363)
(0.0999047 0.00153623 0.00209021)
(0.0977075 0.00154629 0.00198912)
(0.0982949 0.00104969 0.00205079)
(0.0997673 0.00163126 0.00202318)
(0.096939 0.00147919 0.00177646)
(0.097657 0.00100694 0.00189993)
(0.0995094 0.00160891 0.00189605)
(0.096207 0.00142581 0.00158271)
(0.0970638 0.000959167 0.00169885)
(0.0991993 0.00154649 0.00175235)
(0.0955207 0.00139035 0.00143609)
(0.096504 0.000931729 0.0015216)
(0.0988542 0.00147287 0.00162694)
(0.0948697 0.00134918 0.0013305)
(0.0959897 0.000914273 0.00138066)
(0.0985097 0.00139004 0.0015169)
(0.0942326 0.00128618 0.0012614)
(0.0955186 0.00089827 0.00128114)
(0.0981754 0.00129486 0.00142274)
(0.0936014 0.00119823 0.00121803)
(0.0950594 0.000862461 0.00122163)
(0.097827 0.00118679 0.0013485)
(0.0929777 0.00109316 0.0011927)
(0.0945964 0.000799606 0.00119232)
(0.0974866 0.00107441 0.0012989)
(0.0923571 0.000978971 0.00118366)
(0.0941265 0.000723307 0.00118504)
(0.0971551 0.000962403 0.00127061)
(0.0917311 0.000857742 0.00119043)
(0.0936402 0.000641832 0.00119357)
(0.0968258 0.000849717 0.00126097)
(0.0910874 0.00072274 0.00121452)
(0.0931202 0.000554406 0.00121988)
(0.0964929 0.000731693 0.00127119)
(0.0904084 0.000558565 0.00125911)
(0.0925496 0.000454214 0.00127018)
(0.0961479 0.000597344 0.00130393)
(0.0896708 0.000330794 0.00133239)
(0.0919013 0.000323535 0.00135204)
(0.0957788 0.0004313 0.00136553)
(0.0888361 -9.35789e-06 0.00144866)
(0.0911322 0.000131047 0.0014876)
(0.0953674 0.000198865 0.0014704)
(0.0878354 -0.000543429 0.00160831)
(0.0901487 -0.000154467 0.00169901)
(0.0948733 -0.000135833 0.00163523)
(0.0865586 -0.00130249 0.00201682)
(0.0888707 -0.000620373 0.00195821)
(0.0942492 -0.000641248 0.0018606)
(0.0874404 -0.00115272 0.00292903)
(0.0936471 -0.00124836 0.00240905)
(0.0996725 0.000154025 0.000629479)
(0.0993801 -2.53537e-09 5.89321e-05)
(0.0997132 0.000103907 0.000687953)
(0.099159 0.000353237 0.00154428)
(0.0992677 -9.25022e-09 0.00120003)
(0.0998376 0.000341579 0.00162231)
(0.0986635 0.000457657 0.00194756)
(0.0989803 -1.0587e-08 0.00188854)
(0.0999629 0.000485357 0.00199143)
(0.0982119 0.000480704 0.00196076)
(0.0984744 -5.76388e-09 0.00200659)
(0.0999916 0.000539444 0.00199674)
(0.0977756 0.000471408 0.00182503)
(0.097995 6.29726e-09 0.0019149)
(0.100009 0.000546098 0.00191133)
(0.0973613 0.000457853 0.00164155)
(0.0975698 4.19737e-08 0.00173511)
(0.100007 0.000533004 0.00180483)
(0.096992 0.00044533 0.00146885)
(0.097179 1.31292e-07 0.0015479)
(0.0999798 0.000510681 0.00168373)
(0.0966695 0.000435451 0.00133096)
(0.0968274 2.90275e-07 0.00138963)
(0.0999365 0.000483761 0.00157401)
(0.0963854 0.000425825 0.00123779)
(0.0965241 5.85864e-07 0.00127198)
(0.0998941 0.00045907 0.00148388)
(0.0961131 0.000408932 0.00119131)
(0.0962641 1.09017e-06 0.00120297)
(0.0998578 0.000433859 0.00142286)
(0.0958233 0.000381172 0.00118095)
(0.0959803 1.94819e-06 0.00117851)
(0.0997976 0.000401596 0.00138714)
(0.0954997 0.000344819 0.00119239)
(0.0956707 3.36954e-06 0.00118144)
(0.0997177 0.00036314 0.00136736)
(0.0951281 0.000303183 0.00122152)
(0.095328 5.70609e-06 0.00119996)
(0.0996121 0.000321364 0.00136702)
(0.0946889 0.000259054 0.00127554)
(0.0949298 1.00591e-05 0.00123645)
(0.0994643 0.000277154 0.00139355)
(0.0941555 0.000206816 0.00136568)
(0.0944568 1.67469e-05 0.00130193)
(0.0992644 0.000230445 0.00145198)
(0.0934813 0.00013332 0.00151391)
(0.0938749 2.72464e-05 0.00140825)
(0.0989915 0.000172911 0.00155807)
(0.0925836 2.31548e-05 0.00175036)
(0.093126 4.20621e-05 0.00158531)
(0.098608 9.47858e-05 0.00174256)
(0.0913418 -0.000153794 0.00206923)
(0.0920927 6.20322e-05 0.00186371)
(0.098043 -1.56365e-05 0.00204067)
(0.0895835 -0.000216524 0.00292109)
(0.0906646 8.80898e-05 0.00222236)
(0.0972534 -0.000179552 0.00244765)
(0.0890761 0.000203568 0.00333878)
(0.0965165 -0.000152863 0.00356728)
(0.0996725 -0.000154034 0.000629484)
(0.0994625 -0.000129358 0.000192494)
(0.0997132 -0.00010391 0.000687953)
(0.099159 -0.000353253 0.00154429)
(0.0992625 -0.000636791 0.00137063)
(0.0998376 -0.00034159 0.00162231)
(0.0986635 -0.000457673 0.00194756)
(0.0989128 -0.00097324 0.00200362)
(0.0999629 -0.000485372 0.00199144)
(0.0982119 -0.000480709 0.00196074)
(0.0982949 -0.00104973 0.00205077)
(0.0999916 -0.000539454 0.00199674)
(0.0977756 -0.000471367 0.00182498)
(0.097657 -0.00100696 0.00189989)
(0.100009 -0.000546078 0.0019113)
(0.0973615 -0.000457684 0.00164145)
(0.097064 -0.000959135 0.00169876)
(0.100007 -0.000532903 0.00180474)
(0.0969923 -0.00044491 0.00146868)
(0.0965043 -0.000931561 0.00152149)
(0.09998 -0.000510418 0.00168359)
(0.09667 -0.000434585 0.00133064)
(0.0959903 -0.000913874 0.00138047)
(0.0999369 -0.000483217 0.00157376)
(0.0963864 -0.000424188 0.00123716)
(0.0955197 -0.000897399 0.00128071)
(0.0998948 -0.000457989 0.00148343)
(0.096115 -0.000405982 0.00119017)
(0.0950616 -0.000860906 0.00122063)
(0.099859 -0.000431785 0.00142208)
(0.0958268 -0.000376049 0.001179)
(0.0946003 -0.00079698 0.00119044)
(0.0997997 -0.000397813 0.00138584)
(0.095506 -0.000336136 0.00118901)
(0.0941334 -0.000719071 0.00118156)
(0.0997214 -0.000356566 0.00136523)
(0.0951394 -0.000288087 0.00121489)
(0.0936526 -0.000634811 0.00118762)
(0.0996192 -0.000310577 0.00136309)
(0.0947095 -0.000233563 0.00126283)
(0.0931423 -0.000541999 0.00120951)
(0.0994773 -0.000258948 0.00138593)
(0.0941924 -0.000165731 0.0013445)
(0.0925877 -0.000434883 0.0012517)
(0.099286 -0.000200858 0.00143897)
(0.0935427 -6.86795e-05 0.00147965)
(0.091965 -0.000288513 0.00132072)
(0.099027 -0.000126019 0.00153642)
(0.0926826 7.75147e-05 0.00169866)
(0.0912359 -7.47955e-05 0.00143249)
(0.0986637 -2.16303e-05 0.00170694)
(0.0914902 0.000304813 0.00201683)
(0.0903244 0.000245918 0.00161435)
(0.0981347 0.000129769 0.00198923)
(0.0897939 0.000511025 0.00264005)
(0.0891338 0.000747713 0.00187948)
(0.0973794 0.000353497 0.00239647)
(0.087869 0.00157341 0.00243419)
(0.096701 0.000507364 0.00331168)
(0.0996493 -0.000650233 0.000931432)
(0.099473 -0.000349737 0.000307062)
(0.0997993 -0.000375098 0.000741371)
(0.0990854 -0.00127874 0.00182774)
(0.0990504 -0.00157671 0.00172049)
(0.0998409 -0.00115026 0.00181425)
(0.0984492 -0.00154044 0.00210314)
(0.0983578 -0.00213091 0.00216892)
(0.0999048 -0.00153626 0.0020902)
(0.0977075 -0.00154634 0.00198907)
(0.0971934 -0.00203544 0.00200249)
(0.0997674 -0.00163131 0.00202312)
(0.0969392 -0.00147921 0.00177637)
(0.0959053 -0.00185504 0.00175451)
(0.0995095 -0.00160896 0.00189593)
(0.0962073 -0.00142575 0.00158262)
(0.094672 -0.00173172 0.00154297)
(0.0991995 -0.00154651 0.00175216)
(0.0955214 -0.00139019 0.00143596)
(0.0934821 -0.00165093 0.00138703)
(0.0988546 -0.00147284 0.00162668)
(0.0948709 -0.00134877 0.0013302)
(0.0923687 -0.00157369 0.00126652)
(0.0985105 -0.00138993 0.00151648)
(0.0942348 -0.00128537 0.0012606)
(0.0913327 -0.0014761 0.00117364)
(0.0981768 -0.00129455 0.001422)
(0.0936055 -0.00119695 0.0012163)
(0.0903438 -0.00136201 0.00110636)
(0.0978295 -0.00118617 0.00134717)
(0.092985 -0.00109129 0.00118932)
(0.0894141 -0.0012448 0.00106248)
(0.0974911 -0.00107344 0.0012966)
(0.09237 -0.00097612 0.00117767)
(0.0885352 -0.00112649 0.00103793)
(0.0971632 -0.000961009 0.00126647)
(0.0917534 -0.000852982 0.0011808)
(0.0876934 -0.00100615 0.00102902)
(0.0968404 -0.000848 0.00125369)
(0.0911259 -0.000715819 0.00119846)
(0.0868792 -0.000878096 0.00103361)
(0.0965174 -0.000729341 0.00125904)
(0.0904734 -0.000544494 0.00123069)
(0.0860863 -0.000729405 0.0010487)
(0.0961886 -0.000593555 0.00128364)
(0.0897794 -0.000304685 0.00128087)
(0.0853132 -0.000532154 0.00106892)
(0.0958454 -0.000420319 0.0013311)
(0.0890183 5.16436e-05 0.00136228)
(0.0845683 -0.000249434 0.00109123)
(0.095475 -0.000180725 0.00141031)
(0.0881307 0.000598017 0.00150065)
(0.0838457 0.00019705 0.00111005)
(0.0950505 0.000166539 0.00154072)
(0.0870002 0.00148172 0.00173335)
(0.083137 0.000954958 0.00113106)
(0.0945388 0.000675583 0.00175133)
(0.0822064 0.00232363 0.00101761)
(0.0941073 0.00143722 0.00207271)
(0.0993753 -0.00118208 0.00107257)
(0.0996871 -0.000439216 0.000345482)
(0.0997475 -0.00061096 0.000779888)
(0.0984948 -0.00229594 0.00203195)
(0.0978162 -0.0027327 0.00228229)
(0.0995971 -0.00201822 0.0020029)
(0.0971414 -0.00247623 0.00204866)
(0.0954961 -0.00300156 0.00230315)
(0.0992973 -0.00246135 0.00210247)
(0.0954397 -0.00224653 0.00176747)
(0.0926194 -0.00229908 0.0018388)
(0.0984885 -0.00237417 0.00190269)
(0.0937511 -0.00201969 0.00152262)
(0.0897678 -0.0018914 0.00153574)
(0.0974227 -0.00218037 0.00168886)
(0.0921387 -0.00186284 0.00134495)
(0.0872329 -0.00165556 0.00129493)
(0.0963101 -0.00198385 0.00150863)
(0.0906024 -0.00175126 0.00121567)
(0.085008 -0.00149046 0.00107768)
(0.0952054 -0.00180006 0.00134329)
(0.0891529 -0.00165151 0.00111507)
(0.0830631 -0.00136889 0.000914264)
(0.0941496 -0.00164201 0.00120477)
(0.0878067 -0.00154365 0.00103432)
(0.0813284 -0.00127407 0.000803313)
(0.0931684 -0.00150032 0.00109747)
(0.0865653 -0.00142933 0.000974904)
(0.0797528 -0.00118667 0.000729314)
(0.0922656 -0.00136761 0.00101675)
(0.0854136 -0.00131576 0.00093789)
(0.0783084 -0.00109992 0.000684258)
(0.0914415 -0.00124552 0.000962118)
(0.0843357 -0.00120403 0.000919387)
(0.0769743 -0.00101249 0.000658615)
(0.0906874 -0.00113414 0.000928959)
(0.0833188 -0.00108809 0.000914759)
(0.0757336 -0.000922864 0.000646071)
(0.089993 -0.00102876 0.000912132)
(0.0823592 -0.000957656 0.000919841)
(0.0745754 -0.000830033 0.000643379)
(0.0893531 -0.000920084 0.00090649)
(0.0814596 -0.000797172 0.000927944)
(0.0734994 -0.000724831 0.000647398)
(0.0887678 -0.000797772 0.000910404)
(0.0806445 -0.00058233 0.000929663)
(0.0725155 -0.000595929 0.000651278)
(0.0882449 -0.00064473 0.00091572)
(0.0799556 -0.000229311 0.000900783)
(0.0716661 -0.000413223 0.000634796)
(0.087805 -0.000433438 0.000909563)
(0.0794038 0.000391177 0.000823088)
(0.0710606 -2.52695e-05 0.000508558)
(0.0874591 -7.56423e-05 0.000864115)
(0.0789886 0.00171573 0.000504485)
(0.0710142 0.000748575 0.000226899)
(0.0872112 0.000510206 0.000779889)
(0.0699021 0.0030522 -0.00115675)
(0.0867975 0.00174209 0.000422567)
(0.0984572 -0.00247642 0.0017299)
(0.0973536 -0.00106247 -0.00148428)
(0.100049 -0.00105638 0.000750972)
(0.0958349 -0.00314799 0.00243268)
(0.0930873 -0.00326897 0.00253347)
(0.0982937 -0.00280917 0.00216148)
(0.0914502 -0.00223021 0.00186931)
(0.0848642 -0.0016358 0.00179236)
(0.0963041 -0.00244257 0.00199782)
(0.0875956 -0.00167438 0.00150549)
(0.0786284 -0.00107344 0.00122138)
(0.0936671 -0.00198054 0.00172699)
(0.0841485 -0.00143964 0.0012758)
(0.0740537 -0.000785242 0.000865167)
(0.0909052 -0.00171942 0.00149793)
(0.0811891 -0.00126473 0.00102907)
(0.0704436 -0.00065035 0.000669439)
(0.0884354 -0.00145412 0.00121213)
(0.0787033 -0.00110902 0.000794572)
(0.0674934 -0.000546537 0.000508815)
(0.0863066 -0.00118283 0.000909371)
(0.0765602 -0.000990124 0.000626292)
(0.0650538 -0.000468505 0.000387932)
(0.0844835 -0.000981797 0.000691934)
(0.0746569 -0.000901814 0.000520122)
(0.0629709 -0.00041459 0.000308648)
(0.082885 -0.000843128 0.00055069)
(0.072933 -0.000825517 0.0004561)
(0.0611397 -0.000371699 0.00025636)
(0.081456 -0.000741143 0.000458925)
(0.0713531 -0.000750092 0.000418278)
(0.0595013 -0.000332929 0.000221975)
(0.080165 -0.000656699 0.000397479)
(0.069897 -0.00067437 0.000396375)
(0.0580233 -0.000296767 0.000199044)
(0.0789874 -0.000581569 0.000354483)
(0.0685506 -0.000602852 0.000386231)
(0.0566816 -0.000264033 0.000183768)
(0.0779051 -0.000515774 0.000326393)
(0.0673035 -0.000531699 0.000384285)
(0.0554558 -0.000235236 0.000173498)
(0.0769133 -0.000460391 0.000310244)
(0.0661625 -0.000450236 0.000385058)
(0.0543449 -0.000204597 0.000163845)
(0.0760169 -0.000401924 0.000296876)
(0.0651515 -0.00033958 0.000371256)
(0.0533562 -0.000169597 0.000153203)
(0.075225 -0.000334012 0.000282198)
(0.0643549 -0.000121015 0.000270257)
(0.0525291 -0.000118242 0.000143071)
(0.0745744 -0.000234564 0.00024124)
(0.0640908 0.00033227 1.66111e-06)
(0.0520416 -4.63042e-06 3.80487e-05)
(0.074157 1.27596e-06 7.21822e-05)
(0.0650731 0.00153653 -0.00104782)
(0.0524409 0.00026972 -0.000163761)
(0.0741881 0.00057745 -0.000438778)
(0.0511325 0.00241931 -0.0023909)
(0.0734877 0.00244918 -0.00268592)
(0.0993441 0.00341902 -0.00341902)
(0.0973536 0.00148428 0.00106247)
(0.0834792 -0.00197585 0.00197585)
(0.0930873 -0.00253349 0.00326897)
(0.0745173 -0.0019587 0.00195868)
(0.0848642 -0.00179238 0.0016358)
(0.0685482 -0.00115909 0.00115902)
(0.0786284 -0.00122145 0.00107343)
(0.0642368 -0.000696993 0.000696844)
(0.0740537 -0.000865299 0.000785174)
(0.0607579 -0.000494882 0.000494524)
(0.0704436 -0.000669665 0.000650245)
(0.0579392 -0.000375053 0.000374292)
(0.0674934 -0.000509311 0.000546253)
(0.0556171 -0.000288397 0.000287081)
(0.0650537 -0.000388832 0.000467973)
(0.0536297 -0.000227702 0.000225548)
(0.0629708 -0.000310141 0.000413682)
(0.0518879 -0.000184428 0.000180777)
(0.0611395 -0.000258822 0.000370137)
(0.0503427 -0.00015342 0.000147206)
(0.0595009 -0.000226421 0.000330133)
(0.0489634 -0.000130165 0.000120405)
(0.0580222 -0.000206648 0.000291982)
(0.0477249 -0.000110997 9.67462e-05)
(0.0566795 -0.000194302 0.000256558)
(0.046606 -9.40794e-05 7.27335e-05)
(0.0554529 -0.000187287 0.000223836)
(0.0456122 -7.80877e-05 4.61309e-05)
(0.0543407 -0.000184722 0.000186782)
(0.0447612 -5.78309e-05 2.508e-05)
(0.0533502 -0.000185549 0.000142041)
(0.0440994 -1.95726e-05 -3.07474e-05)
(0.0525201 -0.000180029 8.93093e-05)
(0.0440075 7.51497e-05 -0.000150398)
(0.0520272 -0.000127813 -4.64466e-05)
(0.0451645 0.00116371 -0.00140014)
(0.0523739 3.49592e-05 -0.000306787)
(0.0511092 0.00210618 -0.00281923)
(0.0984572 0.0017299 0.00247641)
(0.100049 0.000750973 0.00105638)
(0.0996871 0.000345482 0.000439213)
(0.0958349 0.00243268 0.00314798)
(0.0982937 0.00216148 0.00280917)
(0.0978162 0.00228229 0.0027327)
(0.0914502 0.00186931 0.00223019)
(0.0963041 0.00199782 0.00244256)
(0.0954961 0.00230315 0.00300155)
(0.0875956 0.00150549 0.00167436)
(0.0936672 0.00172699 0.00198054)
(0.0926194 0.0018388 0.00229907)
(0.0841485 0.0012758 0.00143962)
(0.0909053 0.00149793 0.00171941)
(0.0897678 0.00153574 0.00189139)
(0.0811891 0.00102907 0.00126471)
(0.0884355 0.00121213 0.00145412)
(0.0872329 0.00129493 0.00165555)
(0.0787034 0.000794566 0.001109)
(0.0863066 0.000909367 0.00118283)
(0.085008 0.00107768 0.00149044)
(0.0765602 0.000626283 0.000990103)
(0.0844835 0.000691927 0.000981788)
(0.0830632 0.00091426 0.00136888)
(0.074657 0.000520111 0.00090179)
(0.0828851 0.00055068 0.000843119)
(0.0813285 0.000803307 0.00127406)
(0.0729331 0.000456087 0.000825489)
(0.0814561 0.000458912 0.000741133)
(0.0797529 0.000729305 0.00118665)
(0.0713532 0.000418262 0.000750058)
(0.0801651 0.000397464 0.000656689)
(0.0783085 0.000684246 0.0010999)
(0.0698972 0.000396357 0.00067433)
(0.0789875 0.000354462 0.000581557)
(0.0769744 0.000658596 0.00101246)
(0.0685509 0.000386192 0.000602801)
(0.0779054 0.000326334 0.000515724)
(0.0757338 0.000646053 0.000922845)
(0.0673039 0.000384214 0.000531664)
(0.0769136 0.000310167 0.000460365)
(0.0745756 0.000643318 0.000829997)
(0.066163 0.000384969 0.000450228)
(0.0760172 0.000296827 0.000401983)
(0.0734999 0.000647287 0.000724781)
(0.0651522 0.000371148 0.000339567)
(0.0752255 0.000282104 0.000334042)
(0.0725161 0.000651136 0.000595869)
(0.0643558 0.000270132 0.000121008)
(0.074575 0.000241115 0.000234576)
(0.0716669 0.000634619 0.000413141)
(0.064092 1.50799e-06 -0.000332227)
(0.0741578 7.20379e-05 -1.23657e-06)
(0.0710616 0.000508322 2.51889e-05)
(0.0650746 -0.00104772 -0.00153607)
(0.074189 -0.000438951 -0.000577349)
(0.0710155 0.00022655 -0.000748613)
(0.0734889 -0.00268604 -0.00244882)
(0.0699038 -0.0011569 -0.00305182)
(0.10008 0.00135174 0.00135175)
(0.100186 0.000798744 0.000804949)
(0.100186 0.000804947 0.000798745)
(0.100264 0.00221722 0.00221726)
(0.10019 0.00231178 0.00207147)
(0.10019 0.00207145 0.0023118)
(0.0993831 0.00243561 0.00243568)
(0.100307 0.00263356 0.00245309)
(0.100307 0.00245301 0.00263361)
(0.0979844 0.00231003 0.00231014)
(0.0998053 0.00256015 0.00245597)
(0.0998053 0.00245585 0.00256024)
(0.0964957 0.00200597 0.00200617)
(0.0988632 0.0023641 0.00228103)
(0.0988632 0.00228085 0.00236423)
(0.0950739 0.00159676 0.0015971)
(0.0978415 0.00204862 0.00196836)
(0.0978416 0.00196809 0.00204886)
(0.0937775 0.00122586 0.00122643)
(0.0968625 0.00169054 0.00160513)
(0.0968627 0.0016047 0.00169094)
(0.0926216 0.000961183 0.000962183)
(0.0959614 0.00140332 0.00132226)
(0.0959617 0.0013215 0.00140396)
(0.0916005 0.000776299 0.000778079)
(0.0951513 0.00118937 0.00111994)
(0.0951518 0.00111861 0.00119053)
(0.0906993 0.000642875 0.000646174)
(0.0944313 0.00102806 0.000974255)
(0.0944322 0.000971961 0.00103013)
(0.0898987 0.000542434 0.000548095)
(0.0937973 0.000902498 0.00086831)
(0.0937988 0.000864182 0.000906176)
(0.0891798 0.00046584 0.000474044)
(0.0932364 0.000801544 0.000791554)
(0.093239 0.000784852 0.000807656)
(0.088534 0.00040639 0.000417713)
(0.0927368 0.000716509 0.000735985)
(0.0927409 0.000726353 0.000725851)
(0.0879666 0.000351605 0.000368558)
(0.0923008 0.000637764 0.000693897)
(0.0923067 0.000679932 0.000652151)
(0.0874876 0.000290463 0.000316208)
(0.0919336 0.000552004 0.000656862)
(0.0919426 0.000635312 0.000574423)
(0.0871153 0.000207934 0.000250601)
(0.0916426 0.000448767 0.000618295)
(0.091656 0.000585613 0.000482643)
(0.0868718 5.81012e-05 0.000130004)
(0.0914401 0.000300262 0.000564669)
(0.09146 0.000508283 0.000354376)
(0.0866858 -0.000284782 -0.000179642)
(0.0913135 5.44311e-05 0.000451594)
(0.0913439 0.000359277 0.000140491)
(0.0862159 -0.00121414 -0.00106095)
(0.0911385 -0.000349232 0.000178297)
(0.0911881 3.97719e-05 -0.000233077)
(0.0912246 -0.00101657 -0.000511217)
(0.0912782 -0.000734049 -0.000836036)
(0.100171 0.00136864 0.00141642)
(0.100118 0.000577381 0.000811309)
(0.100102 0.000699742 0.000700681)
(0.100759 0.0021948 0.00214908)
(0.100478 0.00158277 0.00185877)
(0.100477 0.00182247 0.00186463)
(0.100996 0.00247675 0.00238798)
(0.101004 0.0020586 0.00224255)
(0.101024 0.00234664 0.00238291)
(0.100838 0.00247593 0.00238921)
(0.101292 0.00220322 0.00235217)
(0.101338 0.00250572 0.00254366)
(0.100458 0.00231107 0.00222498)
(0.101309 0.00216696 0.0023223)
(0.101409 0.00245022 0.00247231)
(0.099968 0.00205572 0.00196847)
(0.101156 0.00201013 0.00217908)
(0.101302 0.00226411 0.00227052)
(0.099444 0.00178894 0.00170043)
(0.100927 0.0017925 0.00196902)
(0.101099 0.00200814 0.00199879)
(0.0989346 0.00156043 0.00148449)
(0.100664 0.00158137 0.0017667)
(0.100856 0.00176851 0.00175812)
(0.0984663 0.00137296 0.00132311)
(0.100408 0.00139148 0.00159207)
(0.100609 0.0015661 0.00156464)
(0.0980505 0.00121674 0.00120396)
(0.100172 0.00122256 0.00144859)
(0.100382 0.0013971 0.00141132)
(0.0976879 0.0010845 0.00111917)
(0.0999643 0.00107738 0.00134553)
(0.100188 0.00125563 0.00129146)
(0.0973761 0.00096859 0.00106096)
(0.0997874 0.000951846 0.0012757)
(0.10003 0.00113571 0.00119918)
(0.0971142 0.000859482 0.0010204)
(0.0996388 0.000837101 0.00123113)
(0.09991 0.0010305 0.00112786)
(0.0969029 0.000746543 0.000992206)
(0.0995188 0.000722969 0.00120564)
(0.0998295 0.000931191 0.00106979)
(0.0967435 0.000616188 0.000971952)
(0.0994265 0.000597017 0.00119839)
(0.09979 0.000828526 0.00102033)
(0.0966409 0.000447322 0.000950392)
(0.0993625 0.000444741 0.00120716)
(0.0997938 0.000709147 0.000971204)
(0.0965942 0.000209388 0.000914017)
(0.0993248 0.0002434 0.00123112)
(0.0998401 0.000553764 0.000910825)
(0.096573 -0.000138083 0.000842627)
(0.0993012 -3.64376e-05 0.00126702)
(0.099916 0.000336223 0.000821989)
(0.0965192 -0.000638351 0.000701772)
(0.0992547 -0.00043397 0.00130512)
(0.0999846 2.64044e-05 0.000682927)
(0.099373 -0.00096592 0.00134407)
(0.100194 -0.000365983 0.000520625)
(0.100242 0.000820111 0.00125613)
(0.10009 0.000294311 0.000735355)
(0.100071 0.000415644 0.000602772)
(0.100828 0.00139043 0.00193934)
(0.100491 0.000791913 0.00168402)
(0.100492 0.00112432 0.00158698)
(0.101392 0.00166326 0.00218229)
(0.101086 0.00107759 0.0020834)
(0.101128 0.00154067 0.00209408)
(0.101816 0.00176077 0.00226131)
(0.101664 0.00120412 0.00217907)
(0.101767 0.00173245 0.00229421)
(0.10208 0.00175471 0.00226232)
(0.102121 0.00123939 0.00222223)
(0.102291 0.00178945 0.00236731)
(0.102214 0.00166705 0.00217728)
(0.102451 0.00120136 0.00221059)
(0.102711 0.00174311 0.00232206)
(0.102264 0.00153174 0.00204246)
(0.102679 0.00111751 0.00212712)
(0.103036 0.00162497 0.00220237)
(0.102274 0.00137864 0.00188696)
(0.102839 0.0010159 0.00200678)
(0.103286 0.00147742 0.00205013)
(0.10227 0.00122426 0.00173336)
(0.102963 0.000914255 0.00187244)
(0.103491 0.00132415 0.00189138)
(0.102264 0.0010816 0.00160834)
(0.103064 0.000818116 0.00174807)
(0.103667 0.00117933 0.00174805)
(0.102259 0.000955978 0.00152245)
(0.103153 0.000729134 0.00165022)
(0.103827 0.00105086 0.00163693)
(0.102259 0.000841654 0.00146822)
(0.103239 0.00064676 0.00157857)
(0.10398 0.000937789 0.00155437)
(0.102263 0.000729509 0.00144067)
(0.10332 0.000566956 0.00153869)
(0.10413 0.0008327 0.0014966)
(0.102272 0.000609868 0.00143867)
(0.10339 0.000485005 0.00153091)
(0.104281 0.000728783 0.0014614)
(0.102282 0.000471392 0.00146416)
(0.103451 0.000393636 0.00155088)
(0.104434 0.000618685 0.00144809)
(0.102289 0.00029873 0.00152415)
(0.103497 0.000284416 0.00160944)
(0.104589 0.00049286 0.00145866)
(0.102283 7.08538e-05 0.00162916)
(0.103519 0.000144258 0.001722)
(0.104743 0.000337884 0.00149934)
(0.102247 -0.000232404 0.00178895)
(0.103504 -3.86912e-05 0.00190715)
(0.104891 0.000139582 0.00157745)
(0.102136 -0.000577404 0.00203756)
(0.103447 -0.000272341 0.00217262)
(0.105028 -0.00010993 0.00169838)
(0.10364 -0.000495915 0.00252605)
(0.105315 -0.000355423 0.0019079)
(0.100243 0.0002674 0.00116242)
(0.100087 -1.8465e-09 0.000707024)
(0.100064 0.000135804 0.000537332)
(0.100782 0.000465718 0.00182624)
(0.100477 -4.56354e-09 0.00161781)
(0.100463 0.000370875 0.00142415)
(0.101401 0.000575494 0.00207622)
(0.101065 -6.69979e-09 0.00203469)
(0.101089 0.000525148 0.0019336)
(0.101987 0.000622871 0.00213423)
(0.101694 -2.31126e-11 0.00211777)
(0.101797 0.000605854 0.00212871)
(0.102506 0.000631084 0.00216576)
(0.102268 2.30065e-08 0.00215066)
(0.102489 0.000639286 0.00221133)
(0.102933 0.000610284 0.00215832)
(0.102741 7.0008e-08 0.00218078)
(0.103119 0.000634153 0.00224232)
(0.103275 0.000571214 0.0020915)
(0.103123 1.45885e-07 0.0021357)
(0.103686 0.000600905 0.00219806)
(0.103551 0.000525283 0.00199368)
(0.103425 2.72436e-07 0.00204703)
(0.104183 0.000554833 0.00210819)
(0.103783 0.000480429 0.00188926)
(0.103676 5.22332e-07 0.00193991)
(0.104618 0.000506801 0.00199699)