/*--------------------------------*- C++ -*----------------------------------*\
| =========                 |                                                 |
| \\      /  F ield         | OpenFOAM: The Open Source CFD Toolbox           |
|  \\    /   O peration     | Version:  2212                                  |
|   \\  /    A nd           | Website:  www.openfoam.com                      |
|    \\/     M anipulation  |                                                 |
\*---------------------------------------------------------------------------*/
FoamFile
{
    version     2.0;
    format      ascii;
    arch        "LSB;label=32;scalar=64";
    class       surfaceVectorField;
    location    "2.9";
    object      Uf;
}
// * * * * * * * * * * * * * * * * * * * * * * * * * * * * * * * * * * * * * //

dimensions      [0 1 -1 0 0 0 0];

internalField   nonuniform List<vector> 
1755
(
(0.0228366 -3.84216e-05 1.07472e-05)
(0.0292722 -9.32124e-05 -3.79674e-05)
(0.0282768 -3.31222e-05 3.59785e-05)
(0.0226126 -3.67082e-05 9.52375e-06)
(0.0289978 -9.00767e-05 -3.73553e-05)
(0.0280189 -3.30991e-05 3.41959e-05)
(0.0223967 -3.44307e-05 7.97792e-06)
(0.0287284 -8.50234e-05 -3.723e-05)
(0.0277658 -3.26661e-05 3.18402e-05)
(0.02219 -3.22369e-05 6.30359e-06)
(0.0284696 -7.94157e-05 -3.70097e-05)
(0.0275225 -3.22376e-05 2.93044e-05)
(0.0282227 -7.37484e-05 -3.66569e-05)
(0.0272899 -3.23191e-05 2.64372e-05)
(0.0385905 -0.000154355 -0.000104847)
(0.045468 -0.000186688 -0.000222875)
(0.0519529 -0.000169406 -7.76693e-05)
(0.0382415 -0.000146124 -0.00010191)
(0.0450668 -0.000176932 -0.000214095)
(0.0515794 -0.000169032 -7.81144e-05)
(0.0379054 -0.000136463 -9.92378e-05)
(0.0446692 -0.00016409 -0.00020362)
(0.0512053 -0.000166358 -7.92288e-05)
(0.0375826 -0.000126975 -9.64278e-05)
(0.0442895 -0.000150038 -0.000191056)
(0.0508461 -0.000164044 -8.10907e-05)
(0.0439213 -0.000138845 -0.000179506)
(0.0504911 -0.000159741 -8.24752e-05)
(0.0535817 -0.0002039 -0.000357952)
(0.0579751 -0.000238571 -0.0005338)
(0.0704 -0.000266655 -0.000405787)
(0.0531151 -0.000195182 -0.000341048)
(0.0574617 -0.000229215 -0.000508221)
(0.0700328 -0.000264869 -0.000394884)
(0.0526609 -0.000183308 -0.00031955)
(0.0569565 -0.000212783 -0.000468433)
(0.0696597 -0.000263479 -0.000384084)
(0.0522231 -0.000170166 -0.000296539)
(0.0564837 -0.00019335 -0.000426936)
(0.0692995 -0.000260422 -0.000370994)
(0.0560202 -0.000177619 -0.0003941)
(0.0689346 -0.000255704 -0.000357613)
(0.0624256 -0.000276019 -0.000706866)
(0.0650461 -0.00026632 -0.000814324)
(0.0799104 -0.000315954 -0.000758669)
(0.061869 -0.000255369 -0.000656119)
(0.0644613 -0.000258064 -0.000778756)
(0.0795359 -0.000310492 -0.000729338)
(0.0613384 -0.000225976 -0.000593528)
(0.0638932 -0.000240473 -0.000728371)
(0.079168 -0.000300151 -0.000691307)
(0.0608356 -0.000200344 -0.000540146)
(0.0633629 -0.000220688 -0.000678908)
(0.0788148 -0.000286201 -0.000651614)
(0.0603548 -0.000182619 -0.000501661)
(0.0628426 -0.000204622 -0.000640103)
(0.0784619 -0.000275642 -0.000619875)
(0.062348 -0.000191339 -0.000609669)
(0.0781222 -0.000268792 -0.000595897)
(0.0672487 -0.000273117 -0.000890636)
(0.0678721 -0.000264926 -0.000891271)
(0.084516 -0.000343203 -0.000950718)
(0.0666562 -0.000262057 -0.000856513)
(0.0672965 -0.000250336 -0.000857256)
(0.0841413 -0.000337516 -0.000922356)
(0.0660839 -0.000247993 -0.000820729)
(0.0667366 -0.000230216 -0.000824125)
(0.0837742 -0.000329779 -0.00089361)
(0.0655323 -0.000233301 -0.000786919)
(0.0661999 -0.000208559 -0.000793766)
(0.0834194 -0.000320395 -0.000864648)
(0.0649998 -0.000219705 -0.000756623)
(0.0656705 -0.000190441 -0.000765111)
(0.0830683 -0.000310693 -0.000837903)
(0.0651588 -0.000176452 -0.000736303)
(0.0827287 -0.000302585 -0.000814042)
(0.0679272 -0.00023483 -0.000858852)
(0.0665538 -0.000183809 -0.000789944)
(0.0851315 -0.000323413 -0.000944403)
(0.0673876 -0.000216747 -0.000824751)
(0.0660435 -0.000169932 -0.000753705)
(0.0848015 -0.000311993 -0.000914726)
(0.0668609 -0.000196514 -0.000795679)
(0.0655448 -0.000155673 -0.000723019)
(0.084479 -0.000298261 -0.000888709)
(0.0663451 -0.000176899 -0.000769505)
(0.0650565 -0.00014291 -0.000696797)
(0.084162 -0.000283175 -0.000863915)
(0.0658394 -0.000159725 -0.000742107)
(0.0645749 -0.000131917 -0.000661841)
(0.0838485 -0.000268921 -0.000839212)
(0.0653451 -0.000145705 -0.000711031)
(0.0641097 -0.000120773 -0.000613867)
(0.0835425 -0.000256353 -0.000812469)
(0.0636621 -0.000110127 -0.000566242)
(0.0647079 -0.000114804 -0.000688348)
(0.0615986 -6.86678e-05 -0.000532449)
(0.0823354 -0.000194229 -0.000788626)
(0.0642353 -0.000104551 -0.000655543)
(0.0611638 -6.33146e-05 -0.000505649)
(0.0820583 -0.000183538 -0.000762069)
(0.0637734 -9.63371e-05 -0.00062808)
(0.0607299 -5.97513e-05 -0.000482673)
(0.0817851 -0.000173741 -0.000736789)
(0.0633198 -9.02286e-05 -0.000593718)
(0.0603067 -5.74864e-05 -0.000462412)
(0.0815149 -0.000164984 -0.000715053)
(0.0628785 -8.48983e-05 -0.000538568)
(0.0598863 -5.69271e-05 -0.000433819)
(0.0812465 -0.000157283 -0.000686609)
(0.0624567 -7.88699e-05 -0.000473864)
(0.0594874 -5.67923e-05 -0.000394143)
(0.0809872 -0.000149203 -0.000646604)
(0.0590975 -5.54505e-05 -0.000356657)
(0.0582836 -3.03672e-05 -0.000356987)
(0.0534259 -1.28676e-05 -0.000297525)
(0.0764769 -3.61019e-05 -0.0005379)
(0.0578783 -3.09435e-05 -0.000339637)
(0.0530399 -1.48718e-05 -0.000282806)
(0.0762238 -3.15026e-05 -0.000525667)
(0.0574816 -3.31876e-05 -0.000323375)
(0.0526507 -1.90167e-05 -0.000267797)
(0.0759635 -2.96004e-05 -0.000509127)
(0.0570927 -3.64674e-05 -0.000308077)
(0.0522779 -2.37084e-05 -0.000253713)
(0.0757076 -2.8363e-05 -0.000493643)
(0.0567112 -4.11621e-05 -0.00029337)
(0.0519064 -2.81934e-05 -0.000241215)
(0.0754463 -2.67395e-05 -0.000484566)
(0.0563384 -4.59159e-05 -0.000278908)
(0.0515556 -3.45453e-05 -0.000229075)
(0.0751935 -2.57029e-05 -0.000477227)
(0.0512111 -3.95363e-05 -0.000216994)
(0.0749343 -2.45089e-05 -0.000464837)
(0.0488003 1.45564e-05 -0.000239394)
(0.0419418 9.76695e-06 -0.000161626)
(0.0665698 9.16004e-05 -0.000392262)
(0.0484204 9.90154e-06 -0.000227065)
(0.0416051 7.29789e-06 -0.000155036)
(0.0662596 8.99271e-05 -0.000385831)
(0.0480534 3.73376e-06 -0.000214117)
(0.0412706 3.09766e-06 -0.000147077)
(0.0659405 8.50095e-05 -0.000374955)
(0.0476994 -2.37809e-06 -0.000202377)
(0.0409523 -1.6236e-06 -0.000139232)
(0.0656326 7.91548e-05 -0.000363796)
(0.0473569 -7.99652e-06 -0.000192405)
(0.0406403 -4.84955e-06 -0.000133057)
(0.0653189 7.44279e-05 -0.000355338)
(0.0470249 -1.3508e-05 -0.000182912)
(0.0403418 -7.11243e-06 -0.000128476)
(0.0650187 7.08656e-05 -0.00035104)
(0.0647197 6.46125e-05 -0.000338754)
(0.0361334 -3.47023e-05 -6.42499e-05)
(0.0282852 -3.67035e-05 -3.3687e-05)
(0.0505722 3.49576e-05 -0.000142639)
(0.0358269 -3.4259e-05 -6.30862e-05)
(0.0280293 -3.48047e-05 -3.37417e-05)
(0.0502255 3.53116e-05 -0.000143615)
(0.0355325 -3.40627e-05 -6.17155e-05)
(0.0277775 -3.27626e-05 -3.31913e-05)
(0.0498772 3.50324e-05 -0.000143013)
(0.0352505 -3.31589e-05 -6.08883e-05)
(0.027537 -3.05644e-05 -3.25562e-05)
(0.0495437 3.52123e-05 -0.000142605)
(0.0349782 -3.11049e-05 -6.1079e-05)
(0.0273052 -2.7712e-05 -3.24295e-05)
(0.0492118 3.66414e-05 -0.000142522)
(0.0270804 -2.44687e-05 -3.29924e-05)
(0.0488916 3.97017e-05 -0.000144423)
(0.0228449 -1.13632e-05 -3.87467e-05)
(0.02928 3.67538e-05 -9.2783e-05)
(0.0226225 -1.03692e-05 -3.70921e-05)
(0.029008 3.59496e-05 -8.97857e-05)
(0.0224081 -9.11223e-06 -3.48478e-05)
(0.0287403 3.55382e-05 -8.52015e-05)
(0.0222032 -7.59568e-06 -3.26509e-05)
(0.0284842 3.51008e-05 -7.98699e-05)
(0.0220064 -5.8614e-06 -3.08886e-05)
(0.0282378 3.45315e-05 -7.43618e-05)
(0.0279999 3.41854e-05 -6.92995e-05)
(0.0361231 -6.35919e-05 3.35992e-05)
(0.0505657 -0.000142154 -3.75204e-05)
(0.0419317 -0.000162945 -1.24567e-05)
(0.0358142 -6.24451e-05 3.33729e-05)
(0.0502152 -0.000143544 -3.76494e-05)
(0.0415916 -0.000155424 -8.82984e-06)
(0.0355176 -6.14082e-05 3.29157e-05)
(0.0498637 -0.000143346 -3.76618e-05)
(0.0412545 -0.000147315 -4.49659e-06)
(0.0352324 -6.12922e-05 3.16131e-05)
(0.0495261 -0.000143907 -3.861e-05)
(0.0409328 -0.000139372 2.02728e-07)
(0.0349555 -6.18547e-05 2.95667e-05)
(0.049191 -0.000143439 -3.96968e-05)
(0.0406178 -0.000134812 2.28569e-06)
(0.0403163 -0.000130743 4.58174e-06)
(0.0683591 -0.000256451 -0.000129865)
(0.0784298 -0.000346286 -0.000320484)
(0.0772007 -0.000431125 -0.000187505)
(0.0679486 -0.000258858 -0.000129666)
(0.0780965 -0.000345581 -0.000315582)
(0.0768736 -0.000433221 -0.000185272)
(0.067543 -0.000260405 -0.000130143)
(0.0777521 -0.000345481 -0.000311239)
(0.0765343 -0.000429152 -0.000180825)
(0.067143 -0.000259474 -0.000130575)
(0.0774169 -0.000346695 -0.000308163)
(0.0762049 -0.00042415 -0.000176455)
(0.0770681 -0.000342627 -0.000303185)
(0.0758624 -0.000418854 -0.000172556)
(0.0897518 -0.000389789 -0.000531926)
(0.0944334 -0.000384817 -0.000701896)
(0.0976935 -0.000573232 -0.000580247)
(0.0894956 -0.000393119 -0.000522682)
(0.0942279 -0.000388987 -0.000684715)
(0.0975856 -0.000576792 -0.000573246)
(0.08923 -0.000397536 -0.000514481)
(0.0940127 -0.000396724 -0.000672793)
(0.0974682 -0.000580968 -0.000565495)
(0.0889573 -0.000400051 -0.000505613)
(0.0937899 -0.00040158 -0.000659059)
(0.097342 -0.000583379 -0.000556744)
(0.0886773 -0.000401138 -0.000497261)
(0.0935512 -0.000401499 -0.000643262)
(0.0972016 -0.000584175 -0.000547698)
(0.0933138 -0.000402458 -0.00063142)
(0.0970585 -0.000584873 -0.000539823)
(0.0993626 -0.000396354 -0.000870352)
(0.101402 -0.000418283 -0.000978321)
(0.10672 -0.000521567 -0.000915011)
(0.0992059 -0.000400044 -0.000850112)
(0.101264 -0.000417278 -0.00095265)
(0.106718 -0.000524968 -0.000895559)
(0.0990355 -0.000404621 -0.000832304)
(0.101123 -0.000418995 -0.000934861)
(0.10671 -0.00053254 -0.000880561)
(0.0988527 -0.000404869 -0.000811113)
(0.100967 -0.000417796 -0.000914095)
(0.106687 -0.000535687 -0.000861879)
(0.0986602 -0.00040445 -0.000791287)
(0.100805 -0.000413959 -0.000890665)
(0.106656 -0.000539321 -0.000844701)
(0.10064 -0.000413163 -0.000871255)
(0.106616 -0.000542966 -0.000829682)
(0.103412 -0.000443492 -0.00106545)
(0.103712 -0.000437816 -0.00108615)
(0.11053 -0.000498213 -0.00110687)
(0.103291 -0.000441249 -0.00104204)
(0.103607 -0.00043253 -0.00106138)
(0.110566 -0.000499702 -0.00108666)
(0.103164 -0.000438859 -0.00102099)
(0.103502 -0.000428141 -0.00103981)
(0.110601 -0.000502137 -0.00106983)
(0.103032 -0.000434359 -0.000997822)
(0.10339 -0.000422055 -0.00101508)
(0.110626 -0.0005032 -0.00105163)
(0.102896 -0.0004295 -0.000974784)
(0.103276 -0.000414045 -0.00098822)
(0.11065 -0.000503095 -0.0010324)
(0.103164 -0.000407144 -0.00096346)
(0.110669 -0.000502604 -0.00101204)
(0.103913 -0.000428023 -0.00108196)
(0.102852 -0.000359284 -0.00101532)
(0.111115 -0.000416435 -0.00113718)
(0.103824 -0.000421046 -0.00105893)
(0.10278 -0.000351178 -0.000995874)
(0.111179 -0.000412398 -0.00111731)
(0.103732 -0.000412173 -0.00103379)
(0.102706 -0.000342249 -0.000972277)
(0.111241 -0.000407603 -0.00109822)
(0.10364 -0.000401733 -0.00100548)
(0.10263 -0.000331779 -0.000947616)
(0.1113 -0.000401388 -0.00107634)
(0.103549 -0.000391347 -0.000976916)
(0.102552 -0.000320872 -0.00092444)
(0.11136 -0.000394108 -0.0010535)
(0.102474 -0.000311261 -0.000902005)
(0.111419 -0.000386673 -0.00102799)
(0.101738 -0.000279799 -0.000931665)
(0.0992751 -0.000165091 -0.000843455)
(0.109296 -0.000216901 -0.00101518)
(0.101682 -0.000269332 -0.000911751)
(0.099202 -0.000154656 -0.000835034)
(0.10938 -0.000206928 -0.00100162)
(0.101622 -0.000258329 -0.000888758)
(0.0991239 -0.000144985 -0.000815602)
(0.109465 -0.000196476 -0.000984065)
(0.10156 -0.000247073 -0.000869245)
(0.0990419 -0.000135678 -0.000797024)
(0.109545 -0.000185599 -0.00096705)
(0.101494 -0.000235511 -0.000852518)
(0.0989525 -0.00012477 -0.000787322)
(0.109624 -0.00017396 -0.000951834)
(0.0988577 -0.000111874 -0.000780615)
(0.109696 -0.00016198 -0.000933286)
(0.0968672 -3.84572e-05 -0.000754562)
(0.0918377 7.74134e-05 -0.000672258)
(0.105026 8.34906e-05 -0.000845684)
(0.0967751 -3.09217e-05 -0.0007455)
(0.0916733 8.1852e-05 -0.00067236)
(0.105075 9.30245e-05 -0.000844755)
(0.096675 -2.50114e-05 -0.000729456)
(0.091495 8.25422e-05 -0.000660815)
(0.105119 0.000100232 -0.00083567)
(0.0965673 -1.82004e-05 -0.000719566)
(0.091315 8.2791e-05 -0.000648098)
(0.105154 0.000107192 -0.000826237)
(0.0964494 -1.00034e-05 -0.000717903)
(0.0911214 8.37184e-05 -0.000642465)
(0.105183 0.000115456 -0.000825589)
(0.0963226 -2.21388e-06 -0.000712936)
(0.0909279 8.5696e-05 -0.000642295)
(0.1052 0.000123046 -0.000824985)
(0.090722 8.42513e-05 -0.000628826)
(0.087105 0.000182633 -0.000595322)
(0.0772011 0.000181777 -0.000430213)
(0.0962943 0.000358475 -0.000691993)
(0.0868616 0.000181078 -0.000592837)
(0.0768789 0.000179686 -0.000431327)
(0.0961948 0.000358333 -0.000694161)
(0.0866103 0.000176625 -0.000584278)
(0.0765433 0.000174773 -0.000426496)
(0.0960825 0.00035553 -0.000692125)
(0.0863531 0.000172249 -0.000576094)
(0.076217 0.000169885 -0.000420646)
(0.0959628 0.000351124 -0.000687692)
(0.0860897 0.000169773 -0.000573145)
(0.0758791 0.000166654 -0.000415922)
(0.09583 0.000346955 -0.000684355)
(0.085821 0.000165538 -0.000565787)
(0.0755526 0.000165624 -0.00041576)
(0.0956954 0.000343932 -0.000684619)
(0.0752234 0.000159004 -0.000401993)
(0.0683642 0.000125609 -0.000255682)
(0.0519586 7.5333e-05 -0.0001692)
(0.0784356 0.000314706 -0.000344318)
(0.0679591 0.000125075 -0.00025725)
(0.0515895 7.54163e-05 -0.000168518)
(0.0781058 0.000309678 -0.000343179)
(0.0675588 0.000124695 -0.000257732)
(0.051219 7.60914e-05 -0.00016614)
(0.0777648 0.00030523 -0.000343385)
(0.0671637 0.000125265 -0.000257648)
(0.0508638 7.71766e-05 -0.000163306)
(0.077432 0.00030142 -0.000343972)
(0.0667741 0.000127501 -0.000258168)
(0.0505115 7.83698e-05 -0.000159805)
(0.0770874 0.000297482 -0.000342359)
(0.0663895 0.000127867 -0.000253927)
(0.0501731 8.09568e-05 -0.000157789)
(0.0767517 0.000295016 -0.000340925)
(0.0764162 0.000287197 -0.00032982)
(0.0386 0.00010266 -0.000153482)
(0.0454784 0.000219293 -0.00018487)
(0.0382544 9.95308e-05 -0.000146114)
(0.0450814 0.000210634 -0.000176447)
(0.0379207 9.66348e-05 -0.000137246)
(0.0446871 0.000200284 -0.000164961)
(0.0376006 9.33351e-05 -0.000127728)
(0.044311 0.000187804 -0.000151723)
(0.0372936 8.99853e-05 -0.000118405)
(0.0439443 0.00017535 -0.000139011)
(0.0435949 0.000164633 -0.000127627)
(0.0487872 -0.00024164 -1.72728e-05)
(0.066565 -0.00039486 -9.65611e-05)
(0.0534196 -0.000302057 8.01609e-06)
(0.0484036 -0.000228146 -1.15335e-05)
(0.0662503 -0.000387412 -9.40711e-05)
(0.053025 -0.000285683 1.22978e-05)
(0.0480324 -0.000214791 -5.29585e-06)
(0.0659284 -0.000376969 -8.92263e-05)
(0.052631 -0.000270279 1.63855e-05)
(0.0476746 -0.000203438 5.76639e-07)
(0.0656181 -0.000365501 -8.31986e-05)
(0.0522547 -0.000255655 2.09726e-05)
(0.0473288 -0.000194765 5.76707e-06)
(0.0653 -0.000359253 -7.89043e-05)
(0.0518773 -0.000242953 2.63721e-05)
(0.046994 -0.000185044 1.1663e-05)
(0.0650003 -0.000353995 -7.45548e-05)
(0.0515259 -0.000231881 3.24902e-05)
(0.0511732 -0.000218975 3.75832e-05)
(0.0871044 -0.000597098 -0.000189332)
(0.0962918 -0.000694174 -0.000365532)
(0.0918347 -0.000673887 -8.39853e-05)
(0.0868593 -0.000595861 -0.000188281)
(0.096191 -0.000698003 -0.00036623)
(0.0916698 -0.000671094 -8.88283e-05)
(0.0866055 -0.000587737 -0.000183788)
(0.0960795 -0.000696654 -0.00036386)
(0.091494 -0.000662766 -9.00334e-05)
(0.0863466 -0.000580819 -0.000179385)
(0.0959599 -0.000691604 -0.000359004)
(0.0913138 -0.000650672 -8.97966e-05)
(0.0860814 -0.000576582 -0.000175935)
(0.0958266 -0.000689506 -0.000355102)
(0.0911202 -0.000646523 -9.01955e-05)
(0.0956923 -0.000685721 -0.00035065)
(0.090926 -0.00064313 -9.0508e-05)
(0.10646 -0.000750098 -0.000564)
(0.110415 -0.000679543 -0.000715875)
(0.110036 -0.000815112 -0.000398689)
(0.106511 -0.000756945 -0.000563372)
(0.110522 -0.000689109 -0.000710876)
(0.110162 -0.000819578 -0.000404344)
(0.106549 -0.000761866 -0.000560715)
(0.110623 -0.000699092 -0.000706348)
(0.110284 -0.000823465 -0.000408928)
(0.106573 -0.000764772 -0.000556331)
(0.110708 -0.000704511 -0.000697987)
(0.11039 -0.000823685 -0.00041113)
(0.106585 -0.000766953 -0.0005513)
(0.110787 -0.000711814 -0.000692057)
(0.110492 -0.000827653 -0.000412064)
(0.110853 -0.000716876 -0.0006849)
(0.110578 -0.000828872 -0.000411883)
(0.114787 -0.000633046 -0.000872635)
(0.116411 -0.000582393 -0.000965905)
(0.118001 -0.000663229 -0.000687852)
(0.114948 -0.00064257 -0.000863709)
(0.116596 -0.000589827 -0.000955579)
(0.118236 -0.000670263 -0.000684508)
(0.115102 -0.000651042 -0.000853375)
(0.116777 -0.000598879 -0.000946098)
(0.118466 -0.000679492 -0.000683007)
(0.115246 -0.000659684 -0.000843377)
(0.116947 -0.000604699 -0.000933545)
(0.118686 -0.00068637 -0.000678506)
(0.115381 -0.000669394 -0.000835272)
(0.117117 -0.000614036 -0.000925047)
(0.118905 -0.000695878 -0.000675858)
(0.117273 -0.000621068 -0.000913242)
(0.11911 -0.000699375 -0.000671009)
(0.118296 -0.000533778 -0.00105322)
(0.118525 -0.000453224 -0.00108373)
(0.121458 -0.000512354 -0.000868553)
(0.1185 -0.000541038 -0.00104224)
(0.118742 -0.000456189 -0.0010707)
(0.12173 -0.000518465 -0.000861481)
(0.118701 -0.000547892 -0.00103044)
(0.118957 -0.000459784 -0.00105855)
(0.122 -0.00052512 -0.000855121)
(0.118896 -0.000554679 -0.00101931)
(0.119167 -0.000462836 -0.00104539)
(0.122266 -0.000531415 -0.000848389)
(0.119086 -0.000560667 -0.00100712)
(0.119376 -0.000466179 -0.00103446)
(0.122531 -0.000538319 -0.00084309)
(0.119579 -0.000466839 -0.00101801)
(0.122788 -0.00054119 -0.000832624)
(0.118976 -0.00038094 -0.00110016)
(0.118161 -0.000258723 -0.00106616)
(0.122232 -0.000305635 -0.000933162)
(0.119203 -0.000379674 -0.00108605)
(0.118393 -0.000253038 -0.00105348)
(0.122521 -0.000305212 -0.000922769)
(0.119429 -0.000378345 -0.00107276)
(0.118626 -0.000247718 -0.00104276)
(0.122809 -0.000305007 -0.000913702)
(0.119652 -0.000376399 -0.00106011)
(0.118855 -0.000241461 -0.0010316)
(0.123096 -0.000304618 -0.000905072)
(0.119873 -0.00037341 -0.00104511)
(0.119084 -0.000234116 -0.00102261)
(0.123383 -0.000303927 -0.000896559)
(0.119305 -0.000227005 -0.00100639)
(0.123666 -0.000301904 -0.000881119)
(0.117587 -0.000126447 -0.00102174)
(0.115659 5.23986e-05 -0.000959404)
(0.120989 -1.64129e-05 -0.000889739)
(0.117827 -0.000116763 -0.00101242)
(0.115877 6.29188e-05 -0.000955356)
(0.121282 -9.1354e-06 -0.000883883)
(0.118063 -0.000106867 -0.00100371)
(0.116096 7.23729e-05 -0.00095053)
(0.121575 -1.73953e-06 -0.000878983)
(0.118295 -9.63803e-05 -0.000995881)
(0.116305 8.15402e-05 -0.000945606)
(0.121865 5.762e-06 -0.000874813)
(0.118523 -8.54247e-05 -0.000985502)
(0.116513 9.17308e-05 -0.00094567)
(0.122154 1.26628e-05 -0.000869636)
(0.116708 0.000101636 -0.000940557)
(0.114023 0.000231723 -0.000894925)
(0.110044 0.00039242 -0.000814683)
(0.117599 0.000357249 -0.000795116)
(0.114224 0.000240969 -0.000894814)
(0.110166 0.000396801 -0.000818216)
(0.11785 0.000363842 -0.000800316)
(0.114417 0.000249297 -0.000893462)
(0.110285 0.000401045 -0.000820831)
(0.1181 0.000369865 -0.000803034)
(0.114601 0.000257583 -0.000895995)
(0.110388 0.000403658 -0.000822406)
(0.11834 0.000375558 -0.000806486)
(0.114775 0.000264866 -0.000900342)
(0.110486 0.000404564 -0.00082661)
(0.118579 0.000380482 -0.000813568)
(0.110569 0.000404516 -0.00082961)
(0.118803 0.000381234 -0.000815486)
(0.106467 0.000555628 -0.000747745)
(0.0977021 0.00057203 -0.000570953)
(0.110422 0.000707739 -0.000679303)
(0.106515 0.000554219 -0.000753296)
(0.097594 0.000564755 -0.000574078)
(0.110527 0.000702359 -0.000688365)
(0.10655 0.000551542 -0.000757935)
(0.0974755 0.000556992 -0.000578096)
(0.110625 0.000698002 -0.000697837)
(0.106572 0.000547328 -0.00076119)
(0.0973484 0.000548591 -0.000581156)
(0.110708 0.000690031 -0.000703688)
(0.106582 0.000542441 -0.00076454)
(0.0972079 0.000540144 -0.000582937)
(0.110784 0.00068302 -0.000710148)
(0.0970628 0.000531232 -0.000583765)
(0.110849 0.000674654 -0.000715663)
(0.0897621 0.000524363 -0.00038756)
(0.0704115 0.000399719 -0.000264776)
(0.0944458 0.000694125 -0.000383734)
(0.0895067 0.00051523 -0.000391327)
(0.0700476 0.000388962 -0.000263751)
(0.0942405 0.000677644 -0.000388646)
(0.0892421 0.000507094 -0.000396321)
(0.0696774 0.000378272 -0.000263287)
(0.0940258 0.000665745 -0.000396887)
(0.0889697 0.000498391 -0.000399774)
(0.0693192 0.00036534 -0.000260886)
(0.0938026 0.000651588 -0.000401949)
(0.0886897 0.000489234 -0.000400738)
(0.0689571 0.00035121 -0.000255984)
(0.0935652 0.000635062 -0.000402851)
(0.0884042 0.000478054 -0.000396947)
(0.068608 0.000338432 -0.000250312)
(0.0933265 0.000621521 -0.000403131)
(0.0535975 0.000352822 -0.000202727)
(0.057994 0.000527258 -0.000237043)
(0.0531356 0.000336341 -0.000195375)
(0.0574856 0.000502533 -0.000228853)
(0.0526853 0.000315306 -0.000184644)
(0.0569854 0.000463893 -0.000213884)
(0.0522514 0.000292098 -0.000171449)
(0.0565157 0.000422454 -0.000194761)
(0.0518334 0.000270601 -0.000158087)
(0.0560563 0.000388818 -0.000178639)
(0.055621 0.000362791 -0.000166005)
(0.0582747 -0.000362924 2.45188e-05)
(0.0764722 -0.000543255 2.98119e-05)
(0.0615927 -0.000539888 6.07708e-05)
(0.0578629 -0.000344795 2.60803e-05)
(0.076214 -0.000527286 2.63278e-05)
(0.0611469 -0.000514144 5.5313e-05)
(0.0574593 -0.000327561 2.88359e-05)
(0.0759537 -0.000512239 2.42107e-05)
(0.0607077 -0.000490719 5.27911e-05)
(0.0570647 -0.00031126 3.28457e-05)
(0.0756963 -0.000496512 2.30167e-05)
(0.0602801 -0.000469197 5.15496e-05)
(0.0566789 -0.000296211 3.83804e-05)
(0.0754333 -0.000487304 2.20895e-05)
(0.0598548 -0.000437529 5.23041e-05)
(0.056303 -0.000281705 4.35448e-05)
(0.0751785 -0.000480467 2.13208e-05)
(0.0594527 -0.000395747 5.30941e-05)
(0.0749178 -0.000468404 1.96113e-05)
(0.0968605 -0.00075242 3.27681e-05)
(0.105018 -0.000846611 -8.88487e-05)
(0.0992662 -0.000844772 0.000160239)
(0.0967737 -0.000742195 2.5086e-05)
(0.105071 -0.00084156 -9.81977e-05)
(0.0991981 -0.000830323 0.000150201)
(0.0966774 -0.000730018 1.84562e-05)
(0.10512 -0.000835952 -0.000106327)
(0.099126 -0.000815866 0.000140053)
(0.0965721 -0.000721465 1.16246e-05)
(0.105158 -0.000826728 -0.000113029)
(0.0990464 -0.000799571 0.00013015)
(0.0964562 -0.000719967 3.48412e-06)
(0.105191 -0.00082647 -0.000121132)
(0.0989621 -0.000789455 0.000118688)
(0.0963302 -0.000715399 -5.05285e-06)
(0.10521 -0.000825136 -0.00012907)
(0.0988686 -0.000780946 0.000105012)
(0.114018 -0.00089406 -0.0002366)
(0.117595 -0.00079312 -0.000361913)
(0.115653 -0.000958129 -5.55293e-05)
(0.114222 -0.000894741 -0.00024644)
(0.11785 -0.000797697 -0.000368868)
(0.115876 -0.000953626 -6.581e-05)
(0.11442 -0.000893002 -0.000254676)
(0.118102 -0.000801543 -0.000374991)
(0.116097 -0.000949683 -7.55321e-05)
(0.114608 -0.000894175 -0.000262547)
(0.118345 -0.000803711 -0.000380137)
(0.11631 -0.000944002 -8.40872e-05)
(0.114788 -0.000897783 -0.000270106)
(0.118588 -0.000811072 -0.000385881)
(0.116523 -0.000942084 -9.43894e-05)
(0.118816 -0.000812148 -0.000388151)
(0.121667 -0.000707125 -0.000500182)
(0.123182 -0.000605294 -0.000588709)
(0.123085 -0.000731945 -0.000306575)
(0.121973 -0.000713332 -0.000503453)
(0.123507 -0.000610456 -0.000588836)
(0.123415 -0.000733277 -0.00031106)
(0.122277 -0.0007203 -0.000506471)
(0.123829 -0.000616343 -0.000589289)
(0.123742 -0.000736109 -0.000314969)
(0.122574 -0.000727919 -0.00050947)
(0.124148 -0.000622854 -0.000590327)
(0.124066 -0.000739298 -0.000318667)
(0.122868 -0.000730865 -0.000509964)
(0.124467 -0.000630472 -0.000591421)
(0.124389 -0.000739472 -0.000323876)
(0.124776 -0.000629756 -0.000585935)
(0.125084 -0.000500664 -0.000681457)
(0.12535 -0.000361941 -0.000724072)
(0.126481 -0.000479488 -0.000485227)
(0.125426 -0.000505917 -0.000678574)
(0.125698 -0.000365009 -0.000719368)
(0.126847 -0.000481863 -0.000484196)
(0.125766 -0.000511775 -0.000676878)
(0.126045 -0.000368302 -0.000715632)
(0.127212 -0.000485106 -0.00048377)
(0.126104 -0.000518085 -0.000675972)
(0.126391 -0.000372152 -0.000713638)
(0.127576 -0.000488941 -0.000484547)
(0.126441 -0.000521347 -0.000671117)
(0.126737 -0.00037591 -0.000710546)
(0.127938 -0.0004914 -0.00048585)
(0.127077 -0.000375185 -0.000698543)
(0.125968 -0.000229428 -0.000761385)
(0.12525 -6.52301e-05 -0.00076225)
(0.12741 -0.000169246 -0.000582105)
(0.126322 -0.00023003 -0.000755921)
(0.125603 -6.29085e-05 -0.000758073)
(0.127787 -0.000169379 -0.000578231)
(0.126676 -0.000230874 -0.000751966)
(0.125954 -6.07065e-05 -0.000755034)
(0.128164 -0.000169761 -0.000575492)
(0.127029 -0.00023185 -0.000747832)
(0.126306 -5.87976e-05 -0.000753928)
(0.128541 -0.000170454 -0.000574232)
(0.127381 -0.000231838 -0.000737505)
(0.126656 -5.79367e-05 -0.000748047)
(0.128916 -0.000170884 -0.000570721)
(0.124891 0.000104376 -0.000760305)
(0.123085 0.000303057 -0.00073381)
(0.126379 0.000188562 -0.000614784)
(0.125241 0.000109345 -0.000758499)
(0.123413 0.000307714 -0.000736148)
(0.126749 0.000191363 -0.000613344)
(0.12559 0.000114223 -0.000758275)
(0.123739 0.000311987 -0.000739203)
(0.127118 0.000194328 -0.000613426)
(0.125938 0.000118229 -0.000755491)
(0.124061 0.000316177 -0.000743548)
(0.127487 0.000197342 -0.000614909)
(0.124383 0.000319624 -0.000744378)
(0.127854 0.000198189 -0.00061125)
(0.121665 0.000495584 -0.000709456)
(0.118003 0.00068137 -0.000664215)
(0.123178 0.000584487 -0.000606784)
(0.12197 0.000498966 -0.000716309)
(0.118236 0.00067826 -0.000672003)
(0.123501 0.000584705 -0.000612733)
(0.122271 0.000502254 -0.000723692)
(0.118464 0.000677202 -0.000681769)
(0.123823 0.000585439 -0.000619292)
(0.122566 0.000504509 -0.00073103)
(0.118682 0.000672782 -0.000689094)
(0.12414 0.000586463 -0.000626468)
(0.122858 0.00050295 -0.000733298)
(0.118899 0.000668168 -0.000696964)
(0.124456 0.000583159 -0.000631815)
(0.119102 0.000660795 -0.000699294)
(0.114791 0.000864453 -0.000633444)
(0.106731 0.0009067 -0.000521668)
(0.116411 0.000958181 -0.000582655)
(0.11495 0.000856123 -0.00064363)
(0.106727 0.00088801 -0.000525895)
(0.116595 0.000948147 -0.000590566)
(0.115102 0.000846354 -0.000652776)
(0.106718 0.000873386 -0.000534119)
(0.116774 0.000938955 -0.000600284)
(0.115244 0.000835457 -0.000660609)
(0.106693 0.000854556 -0.000537761)
(0.116943 0.000926863 -0.000606949)
(0.115376 0.000824855 -0.000668209)
(0.106662 0.000835569 -0.000540184)
(0.11711 0.000915323 -0.000613921)
(0.106621 0.000818633 -0.0005429)
(0.0993781 0.000863093 -0.000397157)
(0.0799312 0.000750442 -0.000314689)
(0.101416 0.000968938 -0.000417869)
(0.0992205 0.000843488 -0.000401696)
(0.079559 0.000722554 -0.000310732)
(0.101278 0.000946742 -0.000418951)
(0.0990497 0.000825181 -0.000406672)
(0.0791939 0.000685531 -0.000301647)
(0.101135 0.000927883 -0.000420939)
(0.0988664 0.000802606 -0.000406834)
(0.0788416 0.000645361 -0.000287843)
(0.10098 0.000904594 -0.000419573)
(0.0986742 0.000781137 -0.000406144)
(0.0784915 0.000612117 -0.000277095)
(0.100818 0.000880608 -0.000415976)
(0.0781531 0.000586839 -0.000270659)
(0.0624538 0.000699603 -0.000274571)
(0.0650759 0.000806613 -0.000263854)
(0.0619019 0.000650534 -0.000255737)
(0.064496 0.00077106 -0.000256714)
(0.0613752 0.000588716 -0.000227232)
(0.0639353 0.000721576 -0.000240174)
(0.0608764 0.000534769 -0.000201674)
(0.0634065 0.000672266 -0.0002209)
(0.0603992 0.000495395 -0.000184544)
(0.0628912 0.000632808 -0.00020634)
(0.0624006 0.00060158 -0.000194313)
(0.0646918 -0.000698207 0.00010527)
(0.0823253 -0.000794394 0.000187673)
(0.0665416 -0.000796449 0.000173114)
(0.0642143 -0.000666697 9.53299e-05)
(0.0820465 -0.000767695 0.000176779)
(0.066025 -0.000761932 0.000158681)
(0.0637467 -0.000638522 8.86658e-05)
(0.0817732 -0.000743746 0.000167502)
(0.0655243 -0.000731515 0.000146028)
(0.0632882 -0.000600739 8.4207e-05)
(0.0815023 -0.000722163 0.000159734)
(0.0650316 -0.000704511 0.000135854)
(0.0628438 -0.000540846 7.9683e-05)
(0.0812352 -0.000690547 0.000152862)
(0.0645483 -0.000666333 0.000126034)
(0.0809758 -0.000647819 0.000144674)
(0.0640795 -0.000616439 0.000114567)
(0.101733 -0.000930509 0.000276052)
(0.109289 -0.00101505 0.000214117)
(0.102846 -0.00101666 0.000356338)
(0.101681 -0.000910753 0.000265619)
(0.109379 -0.00099882 0.000204481)
(0.102777 -0.000994783 0.000348424)
(0.101626 -0.000891013 0.000254604)
(0.109467 -0.000983627 0.000194125)
(0.102706 -0.000973308 0.000339286)
(0.101569 -0.000871565 0.000243351)
(0.109551 -0.000967986 0.000183418)
(0.102633 -0.000948748 0.000328943)
(0.101509 -0.000851992 0.000231389)
(0.109635 -0.000949749 0.000171782)
(0.102559 -0.000922999 0.000318436)
(0.102483 -0.000899897 0.000308849)
(0.117586 -0.0010197 0.000125019)
(0.120988 -0.00088762 1.4216e-05)
(0.118159 -0.00106385 0.000257699)
(0.117828 -0.00101004 0.000115776)
(0.121283 -0.000880776 7.45457e-06)
(0.118394 -0.00105103 0.000252921)
(0.118067 -0.00100185 0.000106195)
(0.121577 -0.00087623 3.12846e-07)
(0.118627 -0.00104032 0.000247727)
(0.118302 -0.00099258 9.59449e-05)
(0.121869 -0.000871851 -6.93304e-06)
(0.118859 -0.0010282 0.000241746)
(0.12216 -0.000863587 -1.49033e-05)
(0.124892 -0.000757929 -0.000106692)
(0.12638 -0.000612869 -0.000190744)
(0.12525 -0.00076039 6.3238e-05)
(0.125243 -0.000755586 -0.000111383)
(0.126751 -0.000610781 -0.000193411)
(0.125603 -0.000755514 6.15237e-05)
(0.125593 -0.000754538 -0.000116153)
(0.127121 -0.000610744 -0.000196358)
(0.125955 -0.00075262 5.97479e-05)
(0.125942 -0.000749796 -0.000121262)
(0.127491 -0.000611228 -0.000199855)
(0.126307 -0.000746605 5.63574e-05)
(0.127858 -0.000606136 -0.000203323)
(0.128296 -0.000459804 -0.000280563)
(0.128588 -0.0002832 -0.000336699)
(0.128588 -0.000425339 -8.69601e-05)
(0.128687 -0.000459918 -0.000281454)
(0.128985 -0.000282796 -0.000336128)
(0.128984 -0.000423952 -8.70449e-05)
(0.129076 -0.000460953 -0.000283184)
(0.12938 -0.000283197 -0.000336302)
(0.12938 -0.000423638 -8.75211e-05)
(0.129466 -0.000460522 -0.000285124)
(0.129775 -0.000283844 -0.000337357)
(0.129775 -0.000421965 -8.96744e-05)
(0.130167 -0.000282238 -0.000336743)