/*--------------------------------*- C++ -*----------------------------------*\
| =========                 |                                                 |
| \\      /  F ield         | OpenFOAM: The Open Source CFD Toolbox           |
|  \\    /   O peration     | Version:  2212                                  |
|   \\  /    A nd           | Website:  www.openfoam.com                      |
|    \\/     M anipulation  |                                                 |
\*---------------------------------------------------------------------------*/
FoamFile
{
    version     2.0;
    format      ascii;
    arch        "LSB;label=32;scalar=64";
    class       volScalarField;
    location    "2.05";
    object      p;
}
// * * * * * * * * * * * * * * * * * * * * * * * * * * * * * * * * * * * * * //

dimensions      [0 2 -2 0 0 0 0];

internalField   nonuniform List<scalar> 
680
(
0.00713419
0.00697294
0.00681335
0.00665546
0.006499
0.00634274
0.00618542
0.00718252
0.00700819
0.006841
0.00667844
0.00651882
0.00636074
0.00620373
0.00717333
0.00699516
0.00682709
0.00666436
0.0065049
0.00634848
0.00619527
0.00713761
0.00697014
0.00681328
0.00665854
0.00650477
0.00635308
0.00620484
0.00711906
0.00694847
0.00679205
0.00664264
0.00649355
0.00634428
0.00619714
0.00711867
0.00694782
0.00679097
0.00664086
0.00649058
0.00633933
0.00618893
0.0071367
0.00696861
0.00681074
0.00665437
0.00649794
0.00634197
0.00717242
0.00699367
0.0068246
0.00666021
0.00649813
0.00633754
0.00718207
0.00700742
0.0068397
0.00667632
0.00651536
0.00635487
0.00713418
0.00697294
0.00681335
0.00665546
0.00649901
0.00634275
0.00718207
0.00700742
0.0068397
0.00667632
0.00651534
0.00635484
0.00619353
0.00731285
0.00710819
0.00691967
0.00674172
0.00657048
0.00640278
0.0062367
0.00730942
0.00709706
0.00690282
0.00671993
0.00654519
0.00637675
0.00621303
0.00727493
0.00707227
0.00688644
0.00671073
0.00654203
0.00637882
0.00622062
0.00725254
0.00705207
0.00686531
0.00668989
0.00652266
0.00636228
0.00620755
0.00725201
0.00705127
0.00686399
0.00668764
0.00651887
0.00635617
0.00619801
0.00727401
0.00707072
0.00688369
0.00670589
0.00653415
0.00636707
0.00730869
0.00709581
0.00690078
0.00671674
0.00654025
0.00636903
0.00731285
0.00710819
0.00691967
0.00674172
0.00657049
0.00640279
0.00718251
0.00700819
0.006841
0.00667844
0.00651882
0.00636075
0.00717242
0.00699367
0.0068246
0.0066602
0.00649812
0.00633752
0.00617752
0.00730869
0.00709581
0.00690077
0.00671674
0.00654025
0.00636903
0.00620083
0.00728705
0.00706915
0.00686883
0.00668112
0.00650283
0.00633129
0.00616439
0.00723086
0.00702994
0.00683787
0.00665588
0.00648213
0.00631468
0.00615238
0.00718977
0.0070038
0.00682066
0.00664194
0.00646869
0.00630134
0.00613971
0.00718934
0.00700318
0.00681971
0.00664048
0.0064665
0.00629816
0.0061349
0.0072303
0.00702909
0.0068365
0.00665364
0.00647864
0.00630945
0.00728705
0.00706914
0.00686883
0.00668112
0.00650283
0.00633129
0.00730941
0.00709705
0.00690282
0.00671993
0.00654518
0.00637674
0.00717332
0.00699515
0.00682708
0.00666435
0.00650489
0.00634847
0.0071367
0.0069686
0.00681074
0.00665437
0.00649794
0.00634196
0.00618668
0.00727401
0.00707072
0.00688368
0.00670588
0.00653415
0.00636706
0.00620314
0.0072303
0.00702909
0.0068365
0.00665364
0.00647864
0.00630945
0.00614456
0.00715347
0.00696949
0.0067891
0.00661395
0.00644387
0.00627822
0.00611641
0.00711257
0.00693843
0.00676488
0.00659377
0.00642598
0.00626184
0.00610132
0.0071124
0.0069382
0.00676457
0.00659333
0.00642536
0.00626094
0.00609995
0.00715347
0.00696948
0.0067891
0.00661395
0.00644387
0.00627822
0.00723085
0.00702994
0.00683787
0.00665588
0.00648212
0.00631467
0.00727492
0.00707226
0.00688643
0.00671073
0.00654202
0.00637881
0.0071376
0.00697013
0.00681327
0.00665853
0.00650475
0.00635307
0.00711867
0.00694782
0.00679097
0.00664086
0.00649058
0.00633932
0.00618892
0.007252
0.00705127
0.00686398
0.00668763
0.00651887
0.00635617
0.006198
0.00718934
0.00700318
0.0068197
0.00664048
0.0064665
0.00629816
0.0061349
0.0071124
0.0069382
0.00676457
0.00659333
0.00642536
0.00626094
0.00609994
0.00707345
0.0069069
0.00673851
0.00657063
0.00640467
0.00624138
0.006081
0.00707345
0.0069069
0.00673851
0.00657063
0.00640467
0.00624138
0.00608101
0.00711256
0.00693843
0.00676488
0.00659377
0.00642598
0.00626184
0.00718976
0.00700379
0.00682066
0.00664194
0.00646868
0.00630133
0.00725253
0.00705206
0.0068653
0.00668988
0.00652265
0.00636227
0.00711905
0.00694846
0.00679204
0.00664263
0.00649353
0.00634427
0.00711905
0.00694847
0.00679205
0.00664264
0.00649355
0.00634428
0.00619714
0.00725254
0.00705207
0.00686531
0.00668989
0.00652265
0.00636227
0.00620754
0.00718976
0.00700379
0.00682066
0.00664194
0.00646868
0.00630133
0.0061397
0.00711256
0.00693843
0.00676488
0.00659377
0.00642598
0.00626184
0.00610132
0.00707345
0.0069069
0.0067385
0.00657062
0.00640467
0.00624137
0.006081
0.00707345
0.0069069
0.00673851
0.00657063
0.00640467
0.00624138
0.00608101
0.0071124
0.0069382
0.00676457
0.00659333
0.00642536
0.00626094
0.00718934
0.00700317
0.0068197
0.00664048
0.0064665
0.00629816
0.007252
0.00705126
0.00686398
0.00668763
0.00651886
0.00635616
0.00711866
0.00694781
0.00679096
0.00664085
0.00649057
0.00633931
0.00713761
0.00697014
0.00681327
0.00665854
0.00650477
0.00635308
0.00620484
0.00727492
0.00707226
0.00688643
0.00671073
0.00654202
0.00637882
0.00622062
0.00723085
0.00702994
0.00683787
0.00665588
0.00648213
0.00631467
0.00615237
0.00715347
0.00696948
0.0067891
0.00661395
0.00644386
0.00627822
0.0061164
0.0071124
0.0069382
0.00676456
0.00659333
0.00642536
0.00626094
0.00609994
0.00728397
0.00711256
0.00693843
0.00676488
0.00659377
0.00642598
0.00626184
0.00610132
0.00733795
0.00715347
0.00696948
0.0067891
0.00661395
0.00644387
0.00627822
0.00743725
0.0072303
0.00702909
0.0068365
0.00665364
0.00647864
0.00630945
0.0075005
0.007274
0.00707072
0.00688368
0.00670588
0.00653415
0.00636706
0.00732566
0.00713669
0.0069686
0.00681074
0.00665436
0.00649793
0.00634196
0.00717332
0.00699516
0.00682709
0.00666436
0.0065049
0.00634848
0.00619527
0.00730941
0.00709705
0.00690282
0.00671993
0.00654519
0.00637675
0.00621303
0.00728705
0.00706914
0.00686883
0.00668112
0.00650283
0.00633129
0.00616438
0.0072303
0.00702909
0.0068365
0.00665364
0.00647864
0.00630945
0.00614456
0.00718934
0.00700317
0.0068197
0.00664048
0.0064665
0.00629816
0.0061349
0.00737768
0.00718976
0.00700379
0.00682066
0.00664194
0.00646868
0.00630133
0.00613971
0.00743762
0.00723085
0.00702994
0.00683787
0.00665588
0.00648213
0.00631467
0.00752868
0.00728705
0.00706914
0.00686883
0.00668112
0.00650283
0.00633129
0.00754932
0.00730869
0.0070958
0.00690077
0.00671674
0.00654025
0.00636903
0.00736553
0.00717241
0.00699366
0.0068246
0.0066602
0.00649812
0.00633753
0.00718252
0.00700819
0.006841
0.00667844
0.00651882
0.00636075
0.00620373
0.00731285
0.00710819
0.00691967
0.00674172
0.00657048
0.00640279
0.0062367
0.00730869
0.0070958
0.00690077
0.00671673
0.00654025
0.00636903
0.00620083
0.007274
0.00707072
0.00688368
0.00670588
0.00653415
0.00636706
0.00620314
0.007252
0.00705126
0.00686398
0.00668763
0.00651887
0.00635616
0.006198
0.00746551
0.00725254
0.00705206
0.00686531
0.00668989
0.00652265
0.00636227
0.00620754
0.00750108
0.00727492
0.00707226
0.00688644
0.00671073
0.00654202
0.00637882
0.00754973
0.00730941
0.00709705
0.00690282
0.00671993
0.00654519
0.00637675
0.00754056
0.00731285
0.00710819
0.00691967
0.00674172
0.00657049
0.00640279
0.00736843
0.00718207
0.00700742
0.0068397
0.00667632
0.00651535
0.00635486
0.00713418
0.00697294
0.00681335
0.00665545
0.00649901
0.00634274
0.00618543
0.00718206
0.00700742
0.0068397
0.00667632
0.00651534
0.00635485
0.00619354
0.00717241
0.00699366
0.00682459
0.0066602
0.00649812
0.00633753
0.00617752
0.00713669
0.0069686
0.00681074
0.00665436
0.00649793
0.00634196
0.00618668
0.00711866
0.00694781
0.00679097
0.00664085
0.00649057
0.00633932
0.00618892
0.00730959
0.00711905
0.00694847
0.00679204
0.00664263
0.00649355
0.00634428
0.00619714
0.00732619
0.00713761
0.00697014
0.00681328
0.00665854
0.00650477
0.00635308
0.00736608
0.00717332
0.00699516
0.00682709
0.00666436
0.0065049
0.00634848
0.0073687
0.00718252
0.00700819
0.00684101
0.00667845
0.00651883
0.00636076
0.00730067
0.00713418
0.00697294
0.00681335
0.00665546
0.00649901
0.00634276
)
;

boundaryField
{
    inlet
    {
        type            zeroGradient;
    }
    ami1
    {
        type            cyclicAMI;
        value           nonuniform List<scalar> 0();
    }
    walls
    {
        type            zeroGradient;
    }
    ami2
    {
        type            cyclicAMI;
        value           nonuniform List<scalar> 0();
    }
    outlet
    {
        type            fixedValue;
        value           nonuniform List<scalar> 0();
    }
    procBoundary3to2
    {
        type            processor;
        value           nonuniform List<scalar> 
110
(
0.00602655
0.00604801
0.00604538
0.00606184
0.00605467
0.00604105
0.00618669
0.00618669
0.00617754
0.00619355
0.00618543
0.00603071
0.00607112
0.00605275
0.00606794
0.00605768
0.00604318
0.00620315
0.00620315
0.00620084
0.0062367
0.00620372
0.00601644
0.0060336
0.00600073
0.00599464
0.0059837
0.0059763
0.00614456
0.00614456
0.00616439
0.00621302
0.00619525
0.00603177
0.00604093
0.00598283
0.00595783
0.00594418
0.00594209
0.0061164
0.0061164
0.00615238
0.00622062
0.00620482
0.00604104
0.00604317
0.0059763
0.00594209
0.00592349
0.0059235
0.00610132
0.00610132
0.00613971
0.00620753
0.00619713
0.00605467
0.00605767
0.00598369
0.00594418
0.00592349
0.0059235
0.00609995
0.00609995
0.0061349
0.00619799
0.00618891
0.00606184
0.00606793
0.00599463
0.00595782
0.00594209
0.00594418
0.00611641
0.00611641
0.00614456
0.00620314
0.00618668
0.00604539
0.00605275
0.00600072
0.00598282
0.00597631
0.0059837
0.00615238
0.00615238
0.00616439
0.00620084
0.00617752
0.00604802
0.00607113
0.00603361
0.00604093
0.00604317
0.00605768
0.00622062
0.00622062
0.00621303
0.0062367
0.00619354
0.00602657
0.00603073
0.00601645
0.00603177
0.00604103
0.00605466
0.00620484
0.00620484
0.00619527
0.00620373
0.00618543
)
;
    }
    procBoundary3to4
    {
        type            processor;
        value           nonuniform List<scalar> 
109
(
0.00730067
0.0073687
0.00736608
0.00732619
0.00730959
0.00730937
0.00732567
0.00736554
0.00736843
0.00730066
0.00736843
0.00754057
0.00754973
0.00750109
0.00746551
0.00746516
0.0075005
0.00754932
0.00754056
0.00736869
0.00736553
0.00754932
0.00752868
0.00743763
0.00737768
0.00737737
0.00743725
0.00752868
0.00754972
0.00736607
0.00732566
0.0075005
0.00743725
0.00733795
0.00728398
0.00728386
0.00733795
0.00743762
0.00750108
0.00732618
0.00730936
0.00746515
0.00737737
0.00728386
0.00723447
0.00723447
0.00728397
0.00737768
0.0074655
0.00730959
0.00730959
0.00746551
0.00737768
0.00728397
0.00723447
0.00723447
0.00723447
0.00728386
0.00728386
0.00737736
0.00737736
0.00746515
0.00746515
0.00730936
0.00730936
0.00732619
0.00750108
0.00743762
0.00733795
0.00728386
0.00728386
0.00744685
0.00751814
0.00764793
0.00775158
0.00754537
0.00736608
0.00754973
0.00752868
0.00743725
0.00737736
0.00737736
0.0075639
0.00764822
0.00778708
0.00782797
0.00758131
0.00736869
0.00754056
0.00754931
0.0075005
0.00746515
0.00746515
0.0076882
0.00775196
0.00782821
0.00779949
0.00757969
0.00730066
0.00736843
0.00736553
0.00732566
0.00730936
0.00730936
0.00753106
0.00754567
0.00758164
0.00757984
0.00748733
)
;
    }
}


// ************************************************************************* //
