/*--------------------------------*- C++ -*----------------------------------*\
| =========                 |                                                 |
| \\      /  F ield         | OpenFOAM: The Open Source CFD Toolbox           |
|  \\    /   O peration     | Version:  2212                                  |
|   \\  /    A nd           | Website:  www.openfoam.com                      |
|    \\/     M anipulation  |                                                 |
\*---------------------------------------------------------------------------*/
FoamFile
{
    version     2.0;
    format      ascii;
    arch        "LSB;label=32;scalar=64";
    class       volScalarField;
    location    "0.15";
    object      k;
}
// * * * * * * * * * * * * * * * * * * * * * * * * * * * * * * * * * * * * * //

dimensions      [0 2 -2 0 0 0 0];

internalField   nonuniform List<scalar> 
6840
(
0.213568
0.0559308
0.0284162
0.0193598
0.0148032
0.0119167
0.0101541
0.00904186
0.00827716
0.00774543
0.00737585
0.00711615
0.00693505
0.00680673
0.00671664
0.00665444
0.00661064
0.00657727
0.00656195
0.00667119
0.26476
0.104723
0.0586186
0.0394006
0.0290583
0.0228239
0.0188638
0.0162572
0.0144996
0.013299
0.0124706
0.011873
0.0114563
0.0111554
0.0109406
0.0107918
0.0106793
0.0105799
0.0104754
0.0103572
0.283365
0.126792
0.0717793
0.0475323
0.0341033
0.0263486
0.0217528
0.0186844
0.0165244
0.0150231
0.0139821
0.0132555
0.0127453
0.0123735
0.0121047
0.0119087
0.0117601
0.0116357
0.0115254
0.0115958
0.292301
0.141653
0.0820069
0.0543753
0.0391524
0.0300427
0.0247165
0.021203
0.0186766
0.0168832
0.0156195
0.0147347
0.0141182
0.0136852
0.013371
0.0131401
0.0129657
0.0128256
0.0127132
0.012781
0.295945
0.148803
0.0872699
0.0578793
0.0417255
0.0318346
0.0261263
0.0224267
0.0197534
0.0178441
0.0164883
0.0155284
0.0148502
0.0143712
0.0140307
0.0137791
0.0135901
0.0134421
0.0133298
0.0133748
0.295945
0.148803
0.0872699
0.0578793
0.0417256
0.0318347
0.0261263
0.0224268
0.0197535
0.0178442
0.0164885
0.0155287
0.0148505
0.0143714
0.0140316
0.0137809
0.0135932
0.013447
0.0133334
0.0133226
0.292301
0.141653
0.0820069
0.0543753
0.0391525
0.0300427
0.0247166
0.0212031
0.0186768
0.0168835
0.01562
0.0147354
0.0141196
0.0136896
0.0133765
0.0131466
0.0129747
0.0128399
0.0127287
0.0126564
0.283365
0.126792
0.0717793
0.0475323
0.0341034
0.0263486
0.0217529
0.0186846
0.0165246
0.0150233
0.0139825
0.0132561
0.0127464
0.012376
0.012109
0.0119149
0.0117695
0.0116535
0.0115489
0.0114748
0.26476
0.104723
0.0586186
0.0394006
0.0290583
0.0228239
0.0188638
0.0162573
0.0144997
0.0132991
0.0124706
0.0118729
0.0114531
0.0111546
0.0109469
0.0107968
0.0106839
0.0105931
0.0105025
0.0103895
0.213568
0.0559308
0.0284162
0.0193598
0.0148032
0.0119167
0.0101541
0.00904187
0.0082772
0.00774533
0.00737601
0.00711602
0.00693386
0.00680622
0.00671811
0.00665577
0.00661144
0.00657762
0.00656197
0.00667073
0.26476
0.104723
0.0586186
0.0394006
0.0290583
0.0228239
0.0188638
0.0162573
0.0144997
0.013299
0.0124707
0.0118731
0.0114565
0.0111557
0.0109412
0.0107929
0.0106818
0.0105921
0.0105023
0.0103902
0.311749
0.197593
0.130579
0.0917246
0.0679963
0.0528539
0.0429102
0.0362731
0.0317933
0.0287441
0.026654
0.0251938
0.0241663
0.0234283
0.022899
0.0225199
0.0222307
0.0219727
0.021673
0.0211062
0.317544
0.217811
0.151302
0.109105
0.0818668
0.0639113
0.0518655
0.0436781
0.0380646
0.0341982
0.0315252
0.0296649
0.0283559
0.0274251
0.026748
0.0262497
0.0258677
0.0255411
0.0252018
0.0247414
0.319728
0.227133
0.162449
0.119324
0.0904974
0.0710325
0.0577574
0.0486133
0.0422655
0.0378346
0.034728
0.0325407
0.0309942
0.0298959
0.0291059
0.0285195
0.0280717
0.0277058
0.0273642
0.0269876
0.32049
0.230922
0.167394
0.12408
0.0946443
0.0745195
0.0606806
0.0510881
0.0443903
0.0396893
0.0363747
0.0340278
0.0323591
0.0311671
0.0303103
0.0296818
0.0292025
0.0288197
0.0284877
0.0281676
0.32049
0.230922
0.167394
0.12408
0.0946443
0.0745195
0.0606807
0.0510882
0.0443905
0.0396895
0.0363751
0.0340283
0.0323598
0.0311679
0.0303119
0.0296848
0.0292079
0.0288299
0.0285109
0.0282331
0.319728
0.227133
0.162449
0.119324
0.0904975
0.0710326
0.0577576
0.0486136
0.0422658
0.0378351
0.0347288
0.0325419
0.0309963
0.0299005
0.0291121
0.0285282
0.0280856
0.0277313
0.02742
0.0271196
0.317544
0.217811
0.151302
0.109105
0.0818669
0.0639114
0.0518657
0.0436783
0.0380649
0.0341986
0.0315259
0.0296659
0.0283577
0.0274287
0.0267534
0.0262579
0.0258804
0.0255616
0.0252343
0.0247862
0.311749
0.197593
0.130579
0.0917246
0.0679963
0.0528539
0.0429102
0.0362731
0.0317933
0.0287441
0.0266541
0.0251932
0.0241634
0.0234279
0.0229048
0.0225256
0.0222339
0.0219742
0.0216733
0.021105
0.26476
0.104723
0.0586186
0.0394006
0.0290583
0.0228239
0.0188638
0.0162573
0.0144997
0.0132991
0.0124705
0.0118728
0.0114528
0.011154
0.0109459
0.0107954
0.0106812
0.0105808
0.0104756
0.0103564
0.283365
0.126792
0.0717793
0.0475323
0.0341034
0.0263487
0.0217529
0.0186846
0.0165246
0.0150233
0.0139824
0.013256
0.0127462
0.012375
0.0121072
0.0119131
0.0117682
0.0116527
0.0115487
0.0114757
0.317544
0.217811
0.151302
0.109105
0.0818669
0.0639114
0.0518657
0.0436783
0.0380649
0.0341986
0.0315257
0.0296656
0.0283571
0.0274271
0.0267513
0.0262556
0.0258785
0.0255605
0.025234
0.0247871
0.322012
0.239105
0.177851
0.134256
0.103611
0.0821337
0.0670818
0.0565255
0.0491131
0.0438985
0.0402215
0.037619
0.0357676
0.0344441
0.0334845
0.032776
0.0322333
0.0317834
0.0313485
0.030837
0.323303
0.245715
0.187806
0.14525
0.11426
0.0918198
0.0756402
0.0640157
0.0556848
0.0497207
0.0454485
0.0423817
0.0401733
0.0385758
0.0374113
0.0365479
0.035887
0.0353485
0.0348573
0.0343374
0.323725
0.247927
0.191433
0.14957
0.118714
0.0960782
0.0795518
0.0675399
0.0588398
0.0525513
0.0480074
0.0447205
0.0423373
0.0406027
0.0393314
0.0383872
0.037665
0.0370828
0.0365701
0.0360641
0.323725
0.247927
0.191433
0.14957
0.118714
0.0960782
0.0795519
0.06754
0.0588399
0.0525514
0.0480076
0.0447208
0.0423378
0.0406034
0.0393323
0.0383888
0.0376679
0.0370888
0.0365845
0.0361015
0.323303
0.245715
0.187806
0.14525
0.11426
0.0918198
0.0756403
0.0640159
0.055685
0.049721
0.0454488
0.0423823
0.0401741
0.0385768
0.0374131
0.036551
0.0358927
0.0353606
0.0348875
0.0344183
0.322012
0.239105
0.177851
0.134256
0.103611
0.0821337
0.0670819
0.0565255
0.0491131
0.0438986
0.0402217
0.0376192
0.0357678
0.0344444
0.0334851
0.0327767
0.032234
0.0317839
0.0313487
0.0308368
0.317544
0.217811
0.151302
0.109105
0.0818669
0.0639113
0.0518656
0.0436781
0.0380647
0.0341983
0.0315254
0.029665
0.028356
0.0274252
0.0267485
0.0262508
0.0258687
0.0255417
0.025202
0.0247407
0.283365
0.126792
0.0717793
0.0475323
0.0341033
0.0263486
0.0217528
0.0186845
0.0165244
0.0150231
0.0139821
0.0132554
0.012745
0.0123734
0.0121052
0.0119093
0.0117605
0.011636
0.0115254
0.0115948
0.292301
0.141653
0.0820069
0.0543754
0.0391525
0.0300428
0.0247167
0.0212031
0.0186768
0.0168835
0.0156199
0.0147353
0.0141191
0.0136867
0.0133734
0.0131442
0.012973
0.0128389
0.0127281
0.012656
0.319728
0.227133
0.162449
0.119324
0.0904975
0.0710327
0.0577576
0.0486136
0.0422658
0.0378351
0.0347286
0.0325417
0.0309957
0.0298983
0.0291099
0.0285263
0.0280841
0.0277303
0.0274193
0.0271192
0.323303
0.245715
0.187806
0.14525
0.11426
0.0918198
0.0756403
0.0640158
0.055685
0.0497209
0.0454487
0.0423821
0.0401739
0.0385768
0.0374129
0.0365506
0.0358923
0.0353602
0.0348873
0.0344185
0.324303
0.250997
0.196527
0.155759
0.125221
0.102408
0.0854483
0.0729138
0.0636996
0.0569535
0.0520248
0.0484253
0.0457935
0.0438636
0.0424391
0.0413732
0.0405526
0.0398848
0.0392868
0.038683
0.324608
0.252561
0.199364
0.159514
0.129468
0.106793
0.0897328
0.076963
0.0674573
0.060414
0.0552112
0.0513734
0.048542
0.0464488
0.0448924
0.0437202
0.0428129
0.0420713
0.0414047
0.0407257
0.324608
0.252561
0.199364
0.159514
0.129468
0.106793
0.0897328
0.0769631
0.0674573
0.0604141
0.0552113
0.0513736
0.0485422
0.0464491
0.0448927
0.0437206
0.0428135
0.0420726
0.041407
0.0407297
0.324303
0.250997
0.196527
0.155759
0.125221
0.102408
0.0854484
0.0729138
0.0636997
0.0569536
0.052025
0.0484256
0.0457938
0.0438637
0.0424391
0.0413732
0.0405527
0.0398849
0.0392868
0.038683
0.323303
0.245715
0.187806
0.14525
0.11426
0.0918198
0.0756402
0.0640158
0.0556849
0.0497208
0.0454486
0.0423819
0.0401735
0.0385759
0.0374114
0.0365481
0.0358873
0.0353488
0.0348576
0.0343375
0.319728
0.227133
0.162449
0.119324
0.0904975
0.0710325
0.0577574
0.0486133
0.0422656
0.0378347
0.0347281
0.0325409
0.0309944
0.029896
0.0291062
0.0285199
0.0280722
0.0277063
0.0273647
0.0269882
0.292301
0.141653
0.0820069
0.0543753
0.0391524
0.0300427
0.0247166
0.021203
0.0186766
0.0168833
0.0156196
0.0147347
0.014118
0.0136852
0.0133713
0.0131405
0.0129661
0.0128259
0.0127135
0.0127815
0.295945
0.148803
0.0872699
0.0578793
0.0417256
0.0318347
0.0261263
0.0224268
0.0197535
0.0178442
0.0164885
0.0155287
0.0148507
0.0143721
0.0140319
0.013781
0.0135931
0.0134469
0.0133333
0.0133225
0.32049
0.230922
0.167394
0.12408
0.0946443
0.0745195
0.0606807
0.0510882
0.0443905
0.0396895
0.036375
0.0340283
0.0323598
0.0311683
0.0303122
0.0296847
0.0292077
0.0288297
0.0285107
0.0282331
0.323725
0.247927
0.191433
0.14957
0.118714
0.0960782
0.0795519
0.06754
0.0588399
0.0525514
0.0480076
0.0447208
0.0423377
0.0406032
0.0393322
0.0383887
0.0376678
0.0370887
0.0365845
0.0361017
0.324608
0.252561
0.199364
0.159514
0.129468
0.106793
0.0897328
0.076963
0.0674573
0.060414
0.0552113
0.0513735
0.0485421
0.0464489
0.0448926
0.0437206
0.0428135
0.0420726
0.0414071
0.04073
0.324866
0.253875
0.201839
0.162942
0.133511
0.111125
0.0940993
0.0811948
0.0714622
0.0641573
0.0586952
0.0546208
0.051584
0.049318
0.0476183
0.0463271
0.045319
0.0444873
0.0437309
0.0429431
0.324866
0.253875
0.201839
0.162942
0.133511
0.111125
0.0940993
0.0811949
0.0714623
0.0641574
0.0586953
0.0546209
0.0515842
0.0493181
0.0476183
0.0463272
0.045319
0.0444873
0.0437308
0.042943
0.324608
0.252561
0.199364
0.159514
0.129468
0.106793
0.0897329
0.0769631
0.0674574
0.0604141
0.0552114
0.0513737
0.0485424
0.0464489
0.0448922
0.0437202
0.0428129
0.0420714
0.0414048
0.0407258
0.323725
0.247927
0.191433
0.14957
0.118714
0.0960782
0.0795519
0.06754
0.05884
0.0525514
0.0480076
0.0447208
0.0423376
0.0406028
0.0393314
0.0383873
0.0376652
0.037083
0.0365704
0.0360644
0.32049
0.230922
0.167394
0.12408
0.0946443
0.0745195
0.0606806
0.0510881
0.0443904
0.0396894
0.0363749
0.034028
0.0323592
0.0311674
0.0303105
0.0296821
0.0292029
0.0288201
0.0284883
0.0281685
0.295945
0.148803
0.0872699
0.0578793
0.0417256
0.0318347
0.0261263
0.0224267
0.0197535
0.0178442
0.0164884
0.0155285
0.0148503
0.0143714
0.014031
0.0137794
0.0135904
0.0134424
0.0133302
0.0133756
0.295945
0.148803
0.0872699
0.0578793
0.0417255
0.0318346
0.0261263
0.0224267
0.0197534
0.0178441
0.0164883
0.0155285
0.0148503
0.0143714
0.0140309
0.0137793
0.0135902
0.0134422
0.0133299
0.0133752
0.32049
0.230922
0.167394
0.12408
0.0946443
0.0745195
0.0606806
0.0510881
0.0443904
0.0396893
0.0363748
0.0340279
0.0323591
0.0311673
0.0303105
0.0296819
0.0292026
0.0288198
0.0284879
0.0281679
0.323725
0.247927
0.191433
0.14957
0.118714
0.0960782
0.0795519
0.06754
0.0588399
0.0525513
0.0480074
0.0447206
0.0423373
0.0406027
0.0393314
0.0383872
0.0376651
0.0370828
0.0365702
0.0360642
0.324608
0.252561
0.199364
0.159514
0.129468
0.106793
0.0897328
0.0769631
0.0674573
0.060414
0.0552112
0.0513734
0.048542
0.0464488
0.0448924
0.0437202
0.0428129
0.0420714
0.0414048
0.0407259
0.324866
0.253875
0.201839
0.162942
0.133511
0.111125
0.0940994
0.0811949
0.0714623
0.0641574
0.0586953
0.0546208
0.0515841
0.049318
0.0476183
0.0463272
0.045319
0.0444874
0.0437309
0.0429431
0.324866
0.253875
0.201839
0.162942
0.133511
0.111125
0.0940994
0.0811949
0.0714623
0.0641575
0.0586954
0.054621
0.0515842
0.0493182
0.0476184
0.0463272
0.045319
0.0444874
0.0437309
0.0429431
0.324608
0.252561
0.199364
0.159514
0.129468
0.106793
0.0897329
0.0769632
0.0674575
0.0604142
0.0552116
0.0513739
0.0485426
0.0464491
0.0448925
0.0437206
0.0428136
0.0420727
0.0414072
0.04073
0.323725
0.247927
0.191433
0.14957
0.118714
0.0960783
0.079552
0.0675402
0.0588402
0.0525517
0.0480079
0.0447211
0.042338
0.0406034
0.0393323
0.0383888
0.037668
0.037089
0.0365848
0.0361019
0.32049
0.230922
0.167394
0.12408
0.0946443
0.0745196
0.0606805
0.0510882
0.0443908
0.0396898
0.0363754
0.0340286
0.03236
0.0311685
0.0303123
0.029685
0.029208
0.0288301
0.0285112
0.0282339
0.295945
0.148803
0.0872699
0.0578793
0.0417256
0.0318347
0.0261262
0.0224268
0.0197537
0.0178444
0.0164887
0.0155289
0.0148508
0.0143721
0.0140321
0.0137812
0.0135933
0.0134471
0.0133336
0.0133231
0.292301
0.141653
0.0820069
0.0543753
0.0391524
0.0300427
0.0247165
0.021203
0.0186766
0.0168832
0.0156195
0.0147347
0.0141182
0.0136852
0.013371
0.0131402
0.0129658
0.0128257
0.0127133
0.0127813
0.319728
0.227133
0.162449
0.119324
0.0904975
0.0710325
0.0577574
0.0486133
0.0422655
0.0378347
0.0347281
0.0325408
0.0309943
0.029896
0.029106
0.0285196
0.0280718
0.0277059
0.0273644
0.0269878
0.323303
0.245715
0.187806
0.14525
0.11426
0.0918198
0.0756402
0.0640158
0.0556849
0.0497208
0.0454485
0.0423818
0.0401734
0.0385759
0.0374114
0.036548
0.0358871
0.0353486
0.0348573
0.0343373
0.324303
0.250997
0.196527
0.155759
0.125221
0.102408
0.0854484
0.0729139
0.0636997
0.0569536
0.052025
0.0484255
0.0457937
0.0438637
0.0424392
0.0413733
0.0405526
0.0398848
0.0392868
0.0386829
0.324608
0.252561
0.199364
0.159514
0.129468
0.106793
0.0897329
0.0769632
0.0674574
0.0604142
0.0552115
0.0513737
0.0485423
0.0464491
0.0448927
0.0437207
0.0428136
0.0420726
0.0414071
0.0407299
0.324608
0.252561
0.199364
0.159514
0.129468
0.106793
0.0897329
0.0769631
0.0674574
0.0604142
0.0552115
0.0513737
0.0485423
0.0464491
0.0448926
0.0437204
0.042813
0.0420715
0.0414049
0.0407259
0.324303
0.250997
0.196527
0.155759
0.125221
0.102408
0.0854484
0.0729139
0.0636999
0.0569538
0.0520253
0.0484258
0.045794
0.0438638
0.0424392
0.0413734
0.0405528
0.0398851
0.039287
0.0386832
0.323303
0.245715
0.187806
0.14525
0.11426
0.0918198
0.0756403
0.0640162
0.0556856
0.0497215
0.0454494
0.0423827
0.0401744
0.0385771
0.0374132
0.036551
0.0358927
0.0353606
0.0348877
0.0344187
0.319728
0.227133
0.162449
0.119324
0.0904974
0.0710324
0.057759
0.0486157
0.0422676
0.0378364
0.0347296
0.0325424
0.0309962
0.0298986
0.0291103
0.0285268
0.0280847
0.0277309
0.0274201
0.0271206
0.292301
0.141653
0.0820069
0.0543753
0.0391525
0.0300429
0.0247186
0.0212049
0.0186782
0.0168845
0.0156206
0.0147357
0.0141192
0.0136868
0.0133737
0.0131446
0.0129733
0.0128392
0.0127286
0.0126571
0.283365
0.126792
0.0717793
0.0475323
0.0341033
0.0263486
0.0217528
0.0186845
0.0165244
0.0150231
0.0139821
0.0132555
0.0127453
0.0123736
0.0121048
0.0119088
0.0117601
0.0116357
0.0115252
0.0115947
0.317544
0.217811
0.151302
0.109105
0.0818669
0.0639113
0.0518656
0.0436781
0.0380647
0.0341983
0.0315253
0.0296649
0.028356
0.0274252
0.0267481
0.0262498
0.0258677
0.025541
0.0252015
0.0247403
0.322012
0.239105
0.177851
0.134256
0.103611
0.0821337
0.0670819
0.0565256
0.0491132
0.0438987
0.0402217
0.0376192
0.0357677
0.0344442
0.0334847
0.0327761
0.0322333
0.0317833
0.0313483
0.0308365
0.323303
0.245715
0.187806
0.14525
0.11426
0.0918199
0.0756404
0.064016
0.0556852
0.0497211
0.045449
0.0423824
0.0401742
0.038577
0.0374131
0.0365507
0.0358924
0.0353603
0.0348873
0.0344182
0.323725
0.247927
0.191433
0.14957
0.118714
0.0960783
0.079552
0.0675403
0.0588403
0.0525518
0.048008
0.0447211
0.042338
0.0406035
0.0393325
0.0383889
0.037668
0.0370888
0.0365846
0.0361016
0.323725
0.247927
0.191433
0.14957
0.118714
0.0960782
0.0795519
0.0675402
0.0588402
0.0525517
0.0480079
0.044721
0.0423378
0.0406031
0.0393317
0.0383875
0.0376654
0.0370831
0.0365704
0.0360644
0.323303
0.245715
0.187806
0.14525
0.11426
0.0918199
0.0756403
0.064016
0.0556853
0.0497212
0.045449
0.0423823
0.0401739
0.0385762
0.0374118
0.0365485
0.0358877
0.0353491
0.0348578
0.0343377
0.322012
0.239105
0.177851
0.134256
0.103611
0.0821338
0.0670821
0.0565259
0.0491137
0.0438992
0.0402222
0.0376197
0.0357682
0.0344447
0.0334853
0.032777
0.0322342
0.0317841
0.031349
0.0308372
0.317544
0.217811
0.151302
0.109105
0.0818669
0.0639116
0.0518668
0.0436797
0.0380663
0.0341998
0.0315267
0.0296664
0.0283576
0.0274276
0.0267521
0.0262569
0.0258797
0.0255613
0.0252344
0.0247868
0.283365
0.126792
0.0717793
0.0475324
0.0341032
0.0263486
0.0217535
0.0186855
0.0165255
0.0150241
0.013983
0.0132564
0.0127462
0.0123751
0.0121078
0.0119139
0.0117688
0.0116531
0.0115488
0.0114751
0.26476
0.104723
0.0586186
0.0394006
0.0290583
0.022824
0.0188638
0.0162573
0.0144997
0.013299
0.0124707
0.0118731
0.0114563
0.0111554
0.0109406
0.0107918
0.0106793
0.0105798
0.0104752
0.0103563
0.311749
0.197593
0.130579
0.0917246
0.0679964
0.052854
0.0429103
0.0362732
0.0317934
0.0287442
0.0266542
0.0251939
0.0241664
0.0234284
0.0228991
0.02252
0.0222306
0.0219725
0.0216724
0.0211046
0.317544
0.217811
0.151302
0.109105
0.081867
0.0639115
0.0518658
0.0436785
0.0380652
0.0341988
0.031526
0.0296658
0.0283573
0.0274272
0.0267514
0.0262557
0.0258785
0.0255603
0.0252336
0.0247857
0.319728
0.227133
0.162449
0.119324
0.0904976
0.0710327
0.0577579
0.048614
0.0422664
0.0378356
0.0347291
0.0325421
0.030996
0.0298985
0.02911
0.0285264
0.0280842
0.0277303
0.0274194
0.0271193
0.32049
0.230922
0.167394
0.12408
0.0946443
0.0745196
0.0606814
0.0510893
0.0443915
0.0396903
0.0363757
0.0340288
0.0323602
0.0311685
0.0303123
0.0296849
0.0292078
0.0288299
0.0285109
0.0282333
0.32049
0.230922
0.167394
0.12408
0.0946442
0.0745195
0.0606813
0.0510892
0.0443914
0.0396902
0.0363755
0.0340285
0.0323596
0.0311672
0.0303105
0.0296822
0.029203
0.0288202
0.0284883
0.0281683
0.319728
0.227133
0.162449
0.119324
0.0904975
0.0710327
0.0577578
0.0486139
0.0422662
0.0378354
0.0347287
0.0325415
0.0309953
0.0298985
0.0291085
0.0285217
0.0280735
0.0277072
0.0273653
0.0269885
0.317544
0.217811
0.151302
0.109105
0.0818669
0.0639115
0.0518658
0.0436785
0.0380652
0.0341989
0.0315259
0.0296656
0.0283569
0.0274272
0.0267505
0.0262524
0.0258699
0.0255426
0.0252026
0.0247411
0.311749
0.197593
0.130579
0.0917245
0.0679963
0.0528541
0.0429108
0.036274
0.0317943
0.028745
0.0266547
0.0251937
0.0241637
0.0234281
0.0229049
0.0225256
0.022234
0.0219744
0.0216735
0.0211054
0.26476
0.104723
0.0586186
0.0394006
0.0290582
0.022824
0.0188642
0.0162579
0.0145003
0.0132996
0.012471
0.0118731
0.0114531
0.0111543
0.0109465
0.0107964
0.0106837
0.010593
0.0105025
0.0103897
0.213568
0.0559308
0.0284162
0.0193598
0.0148032
0.0119167
0.0101542
0.00904188
0.00827719
0.00774545
0.00737588
0.00711618
0.00693508
0.00680674
0.00671666
0.00665445
0.00661062
0.00657724
0.0065618
0.00667064
0.26476
0.104723
0.0586186
0.0394006
0.0290583
0.022824
0.0188638
0.0162574
0.0144998
0.0132991
0.0124708
0.0118732
0.0114565
0.0111557
0.0109412
0.0107929
0.0106818
0.010592
0.0105019
0.0103893
0.283365
0.126792
0.0717793
0.0475323
0.0341034
0.0263487
0.021753
0.0186847
0.0165247
0.0150235
0.0139826
0.0132562
0.0127463
0.0123751
0.0121073
0.0119132
0.0117682
0.0116526
0.0115484
0.0114745
0.292301
0.141653
0.0820069
0.0543754
0.0391525
0.0300428
0.0247169
0.0212034
0.0186771
0.0168838
0.0156202
0.0147355
0.0141192
0.0136867
0.0133734
0.0131442
0.012973
0.0128389
0.0127281
0.0126561
0.295945
0.148803
0.0872699
0.0578793
0.0417256
0.0318348
0.026127
0.0224275
0.0197542
0.0178448
0.016489
0.0155291
0.0148509
0.0143721
0.0140319
0.013781
0.0135931
0.0134469
0.0133334
0.0133227
0.295945
0.148803
0.0872699
0.0578793
0.0417255
0.0318347
0.0261271
0.0224276
0.0197542
0.0178448
0.0164889
0.0155288
0.0148504
0.014371
0.0140307
0.0137793
0.0135905
0.0134425
0.0133303
0.0133755
0.292301
0.141653
0.0820069
0.0543753
0.0391524
0.0300427
0.0247168
0.0212034
0.018677
0.0168837
0.01562
0.0147352
0.014119
0.0136883
0.0133743
0.0131428
0.0129676
0.0128269
0.0127141
0.0127818
0.283365
0.126792
0.0717793
0.0475323
0.0341032
0.0263486
0.0217528
0.0186846
0.0165247
0.0150234
0.0139824
0.0132558
0.0127457
0.0123748
0.0121067
0.0119107
0.0117616
0.0116368
0.0115259
0.0115951
0.26476
0.104723
0.0586186
0.0394006
0.0290582
0.022824
0.0188641
0.0162577
0.0145001
0.0132995
0.0124708
0.011873
0.011453
0.0111543
0.0109462
0.0107957
0.0106814
0.010581
0.0104758
0.0103567
0.213568
0.0559308
0.0284162
0.0193598
0.014803
0.0119166
0.0101543
0.00904211
0.00827745
0.00774556
0.0073762
0.00711616
0.00693394
0.00680625
0.00671811
0.00665576
0.00661144
0.00657764
0.00656202
0.00667084
0.00751862
0.00678545
0.00670814
0.00671563
0.0067314
0.00675458
0.00677178
0.00678543
0.00679654
0.00680535
0.0068122
0.00681296
0.00681571
0.00682296
0.00682831
0.00683139
0.00683348
0.00683491
0.00683585
0.00683643
0.00683659
0.00683735
0.0068337
0.0068304
0.00683331
0.00683573
0.00683634
0.00683711
0.00683357
0.00683027
0.00683315
0.00683551
0.00683595
0.00683583
0.00682987
0.00683223
0.00683479
0.00683594
0.00683696
0.00683281
0.0098371
0.00955134
0.00960324
0.00969002
0.00975022
0.00980571
0.00985107
0.00988711
0.00991602
0.00993905
0.0099578
0.00996225
0.00996876
0.0099835
0.00999702
0.0100051
0.0100104
0.0100141
0.0100166
0.0100183
0.0100192
0.010018
0.0100089
0.010004
0.0100106
0.0100165
0.0100186
0.0100176
0.0100084
0.0100035
0.0100101
0.010016
0.0100175
0.0100133
0.010001
0.0100087
0.0100155
0.010018
0.0100172
0.0100084
0.0111135
0.0106096
0.0105097
0.010528
0.0105739
0.0106237
0.0106693
0.0107083
0.0107407
0.0107672
0.0107884
0.0108044
0.0108173
0.0108289
0.0108386
0.0108463
0.010852
0.0108563
0.0108594
0.0108616
0.010863
0.0108634
0.0108625
0.0108614
0.0108617
0.0108623
0.0108627
0.0108624
0.0108611
0.01086
0.0108604
0.0108612
0.0108618
0.0108623
0.0108659
0.0108646
0.0108635
0.010863
0.0108625
0.0108613
0.0121681
0.0117715
0.0116334
0.0116226
0.0116494
0.0116888
0.0117298
0.0117679
0.0118014
0.01183
0.0118537
0.0118729
0.0118889
0.0119024
0.0119134
0.011922
0.0119286
0.0119335
0.0119371
0.0119397
0.0119415
0.0119424
0.0119423
0.0119415
0.011941
0.0119407
0.0119405
0.0119401
0.0119394
0.0119388
0.0119388
0.0119391
0.0119391
0.0119383
0.0119358
0.011937
0.0119384
0.0119391
0.0119394
0.0119392
0.0127148
0.0124138
0.0122907
0.0122546
0.0122617
0.0122884
0.0123225
0.0123575
0.01239
0.0124188
0.0124434
0.0124643
0.0124829
0.0124981
0.0125101
0.0125194
0.0125264
0.0125318
0.0125357
0.0125386
0.0125405
0.0125417
0.0125417
0.01254
0.0125385
0.0125374
0.0125366
0.0125361
0.0125357
0.0125354
0.0125353
0.0125353
0.0125353
0.0125352
0.0125354
0.0125366
0.0125365
0.0125361
0.0125359
0.0125357
0.0128049
0.0126286
0.0125445
0.0125159
0.0125195
0.0125407
0.0125704
0.0126024
0.0126333
0.0126613
0.0126855
0.0127058
0.0127228
0.0127367
0.0127479
0.0127568
0.0127636
0.0127688
0.0127728
0.0127756
0.0127776
0.0127789
0.0127795
0.0127796
0.0127795
0.0127793
0.0127792
0.0127791
0.0127789
0.0127787
0.0127786
0.0127786
0.0127786
0.0127786
0.0127785
0.0127786
0.0127786
0.0127786
0.0127787
0.0127787
0.0125181
0.0124416
0.0123961
0.0123768
0.0123849
0.012406
0.012434
0.0124641
0.0124932
0.0125194
0.012542
0.0125606
0.0125764
0.0125896
0.0126003
0.0126088
0.0126153
0.0126203
0.012624
0.0126267
0.0126286
0.0126298
0.0126304
0.0126307
0.0126309
0.0126312
0.0126314
0.0126314
0.0126312
0.012631
0.012631
0.0126312
0.0126312
0.0126312
0.0126309
0.0126305
0.0126304
0.0126305
0.0126308
0.0126308
0.0121027
0.0119298
0.0118492
0.0118428
0.0118571
0.011882
0.0119116
0.0119416
0.0119696
0.0119943
0.0120144
0.0120294
0.0120451
0.0120584
0.0120688
0.0120769
0.0120829
0.0120875
0.0120908
0.0120933
0.0120949
0.0120958
0.0120958
0.0120956
0.0120962
0.0120968
0.0120973
0.0120974
0.0120967
0.0120962
0.0120965
0.012097
0.0120973
0.0120971
0.012096
0.0120946
0.0120947
0.0120955
0.0120961
0.012096
0.0114386
0.0109446
0.010847
0.0108522
0.0108794
0.0109134
0.0109476
0.0109791
0.0110068
0.0110301
0.011049
0.011068
0.0110803
0.0110901
0.011098
0.0111044
0.0111094
0.0111131
0.0111159
0.0111179
0.0111191
0.0111193
0.0111181
0.0111171
0.0111181
0.0111195
0.0111204
0.0111203
0.0111188
0.0111177
0.0111185
0.0111197
0.0111204
0.0111198
0.0111167
0.01111
0.0111124
0.011116
0.0111178
0.0111177
0.00930709
0.00946744
0.00967584
0.0098101
0.00989426
0.00995193
0.0099945
0.0100282
0.0100553
0.010078
0.0100853
0.0100951
0.0101128
0.0101277
0.0101367
0.0101428
0.0101471
0.0101502
0.0101524
0.0101539
0.0101547
0.0101533
0.0101437
0.0101386
0.0101457
0.0101522
0.0101548
0.0101538
0.0101443
0.010139
0.010146
0.0101524
0.0101548
0.0101536
0.0101437
0.0101414
0.010146
0.0101513
0.0101518
0.0101435
0.00751764
0.00678373
0.00670625
0.00671495
0.00673676
0.0067569
0.00677289
0.00678589
0.00679643
0.00680494
0.00680711
0.00681149
0.00681976
0.00682561
0.00682913
0.00683161
0.00683335
0.00683459
0.00683544
0.00683597
0.00683612
0.00683688
0.00683324
0.00683
0.00683298
0.00683546
0.00683614
0.00683693
0.00683342
0.00683019
0.00683313
0.00683556
0.00683616
0.00683706
0.00683274
0.00683084
0.00683312
0.00683504
0.00683612
0.0068323
0.00930962
0.0094718
0.00968157
0.00981756
0.00988761
0.00994644
0.00999182
0.0100274
0.0100557
0.0100782
0.0100963
0.0100999
0.0101057
0.0101203
0.010134
0.010142
0.0101472
0.0101506
0.010153
0.0101546
0.0101553
0.010154
0.0101443
0.0101391
0.0101461
0.0101526
0.010155
0.010154
0.0101445
0.0101392
0.0101461
0.0101525
0.010154
0.0101493
0.0101348
0.010142
0.0101497
0.0101535
0.0101532
0.0101444
0.0180145
0.0187267
0.0191574
0.0194278
0.0195989
0.0197199
0.0198144
0.0198907
0.0199531
0.0200039
0.0200451
0.0200786
0.020104
0.0201229
0.0201394
0.0201528
0.020163
0.0201705
0.020176
0.0201799
0.0201825
0.0201838
0.020185
0.0201847
0.0201838
0.0201842
0.0201849
0.0201851
0.0201856
0.0201848
0.0201837
0.0201839
0.0201844
0.0201844
0.0201815
0.0201847
0.0201838
0.0201841
0.0201846
0.0201855
0.0216818
0.0220009
0.0222574
0.0224515
0.0226097
0.022737
0.0228437
0.0229324
0.0230061
0.0230667
0.0231163
0.0231579
0.0231903
0.0232146
0.0232346
0.0232508
0.0232633
0.0232727
0.0232798
0.0232848
0.0232883
0.0232907
0.0232933
0.0232938
0.0232924
0.0232918
0.0232917
0.0232918
0.0232929
0.0232929
0.0232914
0.0232909
0.0232912
0.0232929
0.0232976
0.0232958
0.0232932
0.023292
0.0232919
0.023293
0.0243345
0.0244057
0.0244979
0.024601
0.0247069
0.0248081
0.024902
0.0249863
0.0250601
0.0251233
0.0251765
0.025221
0.0252577
0.0252869
0.0253101
0.0253285
0.0253427
0.0253536
0.0253618
0.0253678
0.0253721
0.025375
0.025377
0.0253773
0.0253767
0.025376
0.0253756
0.0253754
0.0253756
0.0253756
0.0253751
0.0253747
0.0253745
0.0253741
0.0253731
0.0253741
0.0253746
0.0253748
0.025375
0.0253754
0.026045
0.025974
0.0259642
0.025992
0.0260479
0.0261198
0.0261981
0.0262743
0.0263444
0.0264066
0.0264601
0.0265056
0.0265442
0.0265754
0.0266004
0.0266201
0.0266354
0.0266471
0.026656
0.0266625
0.0266672
0.0266704
0.0266721
0.0266719
0.0266711
0.0266705
0.0266701
0.0266699
0.0266698
0.0266697
0.0266695
0.0266694
0.0266693
0.0266694
0.0266698
0.0266706
0.0266703
0.0266699
0.0266698
0.0266697
0.0268503
0.0266738
0.0265976
0.0265891
0.0266163
0.0266686
0.0267342
0.0268033
0.0268691
0.0269288
0.0269808
0.0270251
0.0270621
0.0270924
0.027117
0.0271365
0.0271518
0.0271637
0.0271727
0.0271794
0.0271843
0.0271877
0.0271899
0.0271911
0.0271916
0.0271918
0.0271919
0.027192
0.0271922
0.0271922
0.027192
0.0271919
0.0271919
0.027192
0.0271921
0.0271922
0.0271921
0.0271919
0.0271919
0.0271919
0.0266121
0.0264148
0.026327
0.0263122
0.0263337
0.026381
0.0264421
0.0265077
0.0265706
0.0266278
0.0266779
0.0267205
0.0267558
0.026785
0.0268086
0.0268275
0.0268423
0.0268537
0.0268624
0.0268689
0.0268737
0.026877
0.0268793
0.0268807
0.0268815
0.026882
0.0268824
0.0268827
0.026883
0.0268831
0.026883
0.0268829
0.0268829
0.026883
0.0268831
0.0268832
0.0268828
0.0268825
0.0268825
0.0268826
0.0252328
0.0251453
0.0251146
0.0251284
0.0251704
0.0252301
0.0252978
0.0253655
0.0254284
0.0254845
0.0255326
0.0255714
0.0256058
0.0256339
0.0256564
0.0256741
0.0256878
0.0256983
0.0257063
0.0257122
0.0257165
0.0257196
0.025722
0.0257235
0.025724
0.0257243
0.0257247
0.0257251
0.0257257
0.025726
0.0257257
0.0257254
0.0257253
0.0257253
0.0257255
0.0257258
0.0257249
0.0257242
0.0257244
0.0257249
0.0228503
0.0228411
0.0228963
0.0229818
0.0230742
0.0231647
0.0232487
0.0233235
0.0233885
0.0234442
0.0234924
0.0235331
0.0235616
0.0235845
0.0236034
0.0236185
0.0236303
0.0236392
0.0236459
0.0236508
0.0236543
0.0236569
0.0236598
0.0236607
0.0236599
0.0236598
0.0236603
0.0236611
0.0236627
0.0236629
0.0236613
0.0236609
0.0236609
0.0236608
0.0236605
0.0236564
0.0236562
0.0236574
0.023659
0.0236614
0.0180084
0.0187161
0.0191463
0.0194154
0.0195943
0.0197207
0.0198156
0.0198913
0.0199529
0.0200033
0.0200454
0.0200801
0.0201042
0.0201237
0.0201398
0.0201522
0.0201617
0.0201687
0.0201739
0.0201777
0.0201803
0.0201816
0.0201829
0.0201828
0.0201823
0.020183
0.0201839
0.0201844
0.020185
0.0201844
0.0201834
0.0201837
0.0201843
0.0201843
0.020184
0.0201826
0.0201811
0.0201816
0.0201828
0.020184
0.0098347
0.00954609
0.00959757
0.00968244
0.00975632
0.0098117
0.00985429
0.00988863
0.00991641
0.00993883
0.00994824
0.00995772
0.00997503
0.00998995
0.00999911
0.0100054
0.0100098
0.010013
0.0100152
0.0100168
0.0100177
0.0100165
0.0100074
0.0100028
0.0100096
0.0100156
0.010018
0.0100171
0.0100081
0.0100033
0.01001
0.0100159
0.0100182
0.010017
0.0100078
0.0100068
0.0100113
0.0100157
0.0100158
0.0100076
0.0114405
0.0109485
0.0108491
0.0108486
0.0108754
0.0109108
0.0109466
0.0109794
0.0110079
0.0110319
0.0110514
0.0110659
0.0110774
0.0110881
0.0110972
0.0111042
0.0111095
0.0111134
0.0111162
0.0111181
0.0111193
0.0111195
0.0111182
0.0111173
0.0111182
0.0111196
0.0111205
0.0111204
0.0111189
0.0111177
0.0111185
0.0111196
0.01112
0.0111188
0.0111153
0.0111102
0.0111136
0.0111172
0.0111189
0.0111185
0.0228542
0.0228469
0.0229018
0.0229831
0.0230759
0.0231653
0.0232493
0.0233246
0.0233902
0.0234461
0.0234928
0.0235323
0.0235629
0.0235853
0.0236041
0.0236193
0.0236313
0.0236403
0.0236471
0.023652
0.0236554
0.0236579
0.0236609
0.0236616
0.0236606
0.0236605
0.0236609
0.0236615
0.0236631
0.0236631
0.0236615
0.023661
0.0236612
0.0236619
0.0236623
0.0236582
0.0236582
0.0236594
0.0236608
0.0236629
0.0280852