/*--------------------------------*- C++ -*----------------------------------*\
| =========                 |                                                 |
| \\      /  F ield         | OpenFOAM: The Open Source CFD Toolbox           |
|  \\    /   O peration     | Version:  2212                                  |
|   \\  /    A nd           | Website:  www.openfoam.com                      |
|    \\/     M anipulation  |                                                 |
\*---------------------------------------------------------------------------*/
FoamFile
{
    version     2.0;
    format      ascii;
    arch        "LSB;label=32;scalar=64";
    class       volScalarField;
    location    "0.15";
    object      nut;
}
// * * * * * * * * * * * * * * * * * * * * * * * * * * * * * * * * * * * * * //

dimensions      [0 2 -1 0 0 0 0];

internalField   nonuniform List<scalar> 
6840
(
4.53568e-05
2.32091e-05
1.65313e-05
1.35935e-05
1.18609e-05
1.05657e-05
9.52675e-06
8.81841e-06
8.30594e-06
7.90969e-06
7.62154e-06
7.40377e-06
7.24584e-06
7.12761e-06
7.04034e-06
6.97932e-06
6.93702e-06
6.90625e-06
6.89292e-06
6.93486e-06
0.000107684
6.77088e-05
5.05774e-05
4.12858e-05
3.51205e-05
3.05983e-05
2.71751e-05
2.45991e-05
2.26752e-05
2.12289e-05
2.02223e-05
1.94186e-05
1.88372e-05
1.83926e-05
1.80646e-05
1.78391e-05
1.76717e-05
1.75321e-05
1.73978e-05
1.71797e-05
0.000160509
0.000107347
8.06801e-05
6.54339e-05
5.52148e-05
4.76205e-05
4.22243e-05
3.83344e-05
3.51981e-05
3.27797e-05
3.09753e-05
2.96414e-05
2.86836e-05
2.79466e-05
2.73921e-05
2.69785e-05
2.66656e-05
2.64137e-05
2.61925e-05
2.61716e-05
0.000198681
0.000138288
0.000105121
8.53198e-05
7.21623e-05
6.20209e-05
5.48723e-05
4.98378e-05
4.57017e-05
4.24273e-05
3.991e-05
3.80308e-05
3.66639e-05
3.56768e-05
3.49378e-05
3.43788e-05
3.39541e-05
3.36208e-05
3.33503e-05
3.3337e-05
0.000218609
0.000154989
0.000118592
9.62818e-05
8.15277e-05
6.98686e-05
6.17003e-05
5.60835e-05
5.14482e-05
4.77614e-05
4.49091e-05
4.27442e-05
4.11281e-05
3.99368e-05
3.90726e-05
3.84134e-05
3.79137e-05
3.75284e-05
3.72305e-05
3.71838e-05
0.000218609
0.000154989
0.000118592
9.62818e-05
8.15278e-05
6.98686e-05
6.17004e-05
5.60836e-05
5.14484e-05
4.77617e-05
4.49095e-05
4.27449e-05
4.1129e-05
3.99381e-05
3.9075e-05
3.84177e-05
3.79212e-05
3.75411e-05
3.72453e-05
3.71084e-05
0.000198681
0.000138288
0.000105121
8.53198e-05
7.21624e-05
6.2021e-05
5.48726e-05
4.98381e-05
4.57021e-05
4.24279e-05
3.99109e-05
3.8032e-05
3.66657e-05
3.56815e-05
3.49461e-05
3.43912e-05
3.39735e-05
3.36529e-05
3.33987e-05
3.32104e-05
0.000160509
0.000107347
8.06801e-05
6.5434e-05
5.52149e-05
4.76206e-05
4.22245e-05
3.83346e-05
3.51984e-05
3.27801e-05
3.09759e-05
2.96419e-05
2.86837e-05
2.7949e-05
2.73993e-05
2.69907e-05
2.6685e-05
2.64498e-05
2.62538e-05
2.61352e-05
0.000107684
6.77088e-05
5.05774e-05
4.12858e-05
3.51205e-05
3.05983e-05
2.71751e-05
2.45991e-05
2.26752e-05
2.12289e-05
2.0222e-05
1.94173e-05
1.88261e-05
1.83883e-05
1.80782e-05
1.78506e-05
1.76804e-05
1.75519e-05
1.74354e-05
1.73292e-05
4.53568e-05
2.32091e-05
1.65313e-05
1.35935e-05
1.18609e-05
1.05657e-05
9.52674e-06
8.8184e-06
8.30596e-06
7.90963e-06
7.62135e-06
7.4041e-06
7.24407e-06
7.12569e-06
7.04153e-06
6.98116e-06
6.93842e-06
6.90715e-06
6.89332e-06
6.93491e-06
0.000107684
6.77088e-05
5.05774e-05
4.12858e-05
3.51205e-05
3.05983e-05
2.71751e-05
2.45991e-05
2.26752e-05
2.1229e-05
2.02224e-05
1.94188e-05
1.88376e-05
1.83931e-05
1.80657e-05
1.78411e-05
1.76751e-05
1.75489e-05
1.7434e-05
1.73286e-05
0.00052892
0.000370133
0.000305724
0.000263186
0.000232594
0.000210064
0.000193276
0.000180737
0.000171429
0.000164179
0.000159295
0.000154415
0.000150405
0.000147079
0.000144716
0.000143692
0.000142741
0.000141398
0.000138922
0.000130228
0.000663975
0.000488664
0.000405385
0.000349383
0.000309968
0.000281362
0.000260494
0.000245562
0.0002351
0.000228292
0.000224134
0.000221106
0.000218549
0.00021617
0.000213047
0.000210791
0.000208877
0.000206708
0.000203198
0.000195242
0.000712914
0.00055667
0.000467274
0.000404744
0.000359913
0.00032735
0.000303663
0.000286923
0.000275436
0.000267702
0.000262487
0.000258887
0.000256517
0.00025481
0.000253654
0.00025093
0.000248644
0.000246239
0.000242706
0.000235717
0.000728585
0.000588486
0.000496928
0.000431629
0.000384194
0.000349629
0.000324538
0.000306826
0.000294734
0.000286655
0.000281231
0.000277455
0.000274702
0.000272686
0.000271359
0.00026996
0.000267472
0.000265131
0.000262071
0.000256579
0.000728585
0.000588486
0.000496928
0.00043163
0.000384194
0.000349629
0.000324539
0.000306826
0.000294735
0.000286657
0.000281234
0.000277459
0.000274699
0.000272605
0.000271352
0.000270028
0.000267593
0.000265394
0.000262798
0.000258954
0.000712914
0.00055667
0.000467274
0.000404744
0.000359913
0.000327351
0.000303664
0.000286924
0.000275438
0.000267706
0.000262494
0.000258904
0.000256584
0.000255273
0.000253927
0.000251173
0.000248974
0.00024689
0.000244402
0.00024073
0.000663975
0.000488664
0.000405385
0.000349383
0.000309968
0.000281363
0.000260495
0.000245563
0.000235102
0.000228295
0.000224142
0.000221116
0.000218516
0.000216233
0.000213225
0.000211001
0.000209141
0.000207132
0.000203976
0.000196696
0.00052892
0.000370133
0.000305724
0.000263186
0.000232594
0.000210064
0.000193276
0.000180737
0.000171429
0.000164178
0.000159288
0.00015434
0.000150021
0.000147037
0.000145318
0.000144027
0.000142844
0.000141432
0.000138929
0.000130217
0.000107684
6.77088e-05
5.05774e-05
4.12858e-05
3.51205e-05
3.05983e-05
2.71751e-05
2.45991e-05
2.26751e-05
2.12288e-05
2.02219e-05
1.94172e-05
1.88258e-05
1.83876e-05
1.80769e-05
1.78483e-05
1.76769e-05
1.75349e-05
1.7399e-05
1.71803e-05
0.000160509
0.000107347
8.06801e-05
6.5434e-05
5.52148e-05
4.76206e-05
4.22245e-05
3.83346e-05
3.51984e-05
3.27802e-05
3.09761e-05
2.96426e-05
2.86855e-05
2.79497e-05
2.73973e-05
2.69876e-05
2.66821e-05
2.64476e-05
2.62523e-05
2.61346e-05
0.000663975
0.000488664
0.000405385
0.000349383
0.000309968
0.000281363
0.000260495
0.000245563
0.000235102
0.000228295
0.00022414
0.000221115
0.000218567
0.000216199
0.000213099
0.000210892
0.000209074
0.000207097
0.00020397
0.000196761
0.000786889
0.000662701
0.000569296
0.000499166
0.000446738
0.000408348
0.000381204
0.000362978
0.000351564
0.000345032
0.000341666
0.000339942
0.000339041
0.000338185
0.000336935
0.000335362
0.000333373
0.000330646
0.000326174
0.000317752
0.000809413
0.000714461
0.000633206
0.00056671
0.000514042
0.000473875
0.000444804
0.000425206
0.000413236
0.00040691
0.000404272
0.000403636
0.000403799
0.000403929
0.00040366
0.000402666
0.000400914
0.000398147
0.000393612
0.00038585
0.000815063
0.000731062
0.000656543
0.00059359
0.000542441
0.000502654
0.000473419
0.000453557
0.000441427
0.000435145
0.000432766
0.00043256
0.000433206
0.000433842
0.000434031
0.000433499
0.000431991
0.00042939
0.000425192
0.000418375
0.000815063
0.000731062
0.000656543
0.00059359
0.000542441
0.000502654
0.000473419
0.000453557
0.000441428
0.000435146
0.000432766
0.000432559
0.000433203
0.000433835
0.000434038
0.000433537
0.000432078
0.000429599
0.000425743
0.000419865
0.000809413
0.000714461
0.000633206
0.00056671
0.000514042
0.000473875
0.000444805
0.000425206
0.000413236
0.000406911
0.000404272
0.000403635
0.000403797
0.000403978
0.000403745
0.000402779
0.000401101
0.000398551
0.000394677
0.0003888
0.000786889
0.000662701
0.000569296
0.000499166
0.000446738
0.000408348
0.000381204
0.000362978
0.000351564
0.000345031
0.000341664
0.000339933
0.00033901
0.000338173
0.000336972
0.000335411
0.000333416
0.000330677
0.000326189
0.000317739
0.000663975
0.000488664
0.000405385
0.000349383
0.000309968
0.000281362
0.000260494
0.000245562
0.0002351
0.000228292
0.000224136
0.000221103
0.000218484
0.000216153
0.000213133
0.000210876
0.00020893
0.000206737
0.000203204
0.000195196
0.000160509
0.000107347
8.068e-05
6.54339e-05
5.52148e-05
4.76205e-05
4.22243e-05
3.83344e-05
3.51981e-05
3.27797e-05
3.09752e-05
2.96408e-05
2.86816e-05
2.79452e-05
2.73931e-05
2.69806e-05
2.66676e-05
2.64153e-05
2.61936e-05
2.61718e-05
0.000198681
0.000138288
0.000105121
8.53198e-05
7.21624e-05
6.2021e-05
5.48725e-05
4.98381e-05
4.57021e-05
4.2428e-05
3.9911e-05
3.80322e-05
3.6666e-05
3.56803e-05
3.49434e-05
3.43884e-05
3.39711e-05
3.36509e-05
3.33969e-05
3.32083e-05
0.000712914
0.00055667
0.000467274
0.000404745
0.000359913
0.000327351
0.000303664
0.000286924
0.000275438
0.000267706
0.000262494
0.000258898
0.000256539
0.000254849
0.000253726
0.000251063
0.000248913
0.000246853
0.000244372
0.000240671
0.000809413
0.000714461
0.000633206
0.00056671
0.000514042
0.000473876
0.000444805
0.000425206
0.000413236
0.000406912
0.000404274
0.000403641
0.000403809
0.000403948
0.000403695
0.000402734
0.000401065
0.000398521
0.000394645
0.000388748
0.000823636
0.000754805
0.000690857
0.000634195
0.000586301
0.000547923
0.000519179
0.000499545
0.000487844
0.000482381
0.000481212
0.000482468
0.00048462
0.000486586
0.000487809
0.00048799
0.000486922
0.000484375
0.000479849
0.000472605
0.000826459
0.000765315
0.000708848
0.000658124
0.000614385
0.000578639
0.000551428
0.000532662
0.000521533
0.000516609
0.000516092
0.000518142
0.000521165
0.000523981
0.000525956
0.000526734
0.000526018
0.00052355
0.000518811
0.000511044
0.000826459
0.000765315
0.000708848
0.000658124
0.000614385
0.000578639
0.000551428
0.000532661
0.000521532
0.000516608
0.00051609
0.000518135
0.00052115
0.000523955
0.000525938
0.000526736
0.000526041
0.000523606
0.00051894
0.000511318
0.000823636
0.000754805
0.000690857
0.000634195
0.000586301
0.000547923
0.000519179
0.000499544
0.000487843
0.000482379
0.000481206
0.000482449
0.00048457
0.000486552
0.000487822
0.00048801
0.000486946
0.000484402
0.000479882
0.000472661
0.000809413
0.000714461
0.000633206
0.00056671
0.000514042
0.000473875
0.000444804
0.000425205
0.000413235
0.000406909
0.000404267
0.000403623
0.000403769
0.00040391
0.000403675
0.000402691
0.000400942
0.000398175
0.00039364
0.000385891
0.000712914
0.00055667
0.000467274
0.000404744
0.000359913
0.00032735
0.000303662
0.000286922
0.000275435
0.000267702
0.000262486
0.000258884
0.000256502
0.000254799
0.000253676
0.000250955
0.000248666
0.000246259
0.000242726
0.000235749
0.000198681
0.000138288
0.000105121
8.53198e-05
7.21623e-05
6.20209e-05
5.48723e-05
4.98378e-05
4.57017e-05
4.24273e-05
3.991e-05
3.80307e-05
3.66631e-05
3.5676e-05
3.4938e-05
3.43796e-05
3.39551e-05
3.36216e-05
3.33509e-05
3.3337e-05
0.000218609
0.000154989
0.000118592
9.62818e-05
8.15278e-05
6.98686e-05
6.17004e-05
5.60836e-05
5.14484e-05
4.77618e-05
4.49096e-05
4.2745e-05
4.11293e-05
3.99388e-05
3.90757e-05
3.84182e-05
3.79213e-05
3.7541e-05
3.72449e-05
3.71078e-05
0.000728585
0.000588486
0.000496928
0.00043163
0.000384194
0.000349629
0.000324539
0.000306826
0.000294735
0.000286657
0.000281234
0.000277462
0.000274716
0.000272718
0.000271404
0.000270021
0.000267585
0.000265386
0.000262787
0.000258931
0.000815063
0.000731062
0.000656543
0.00059359
0.000542441
0.000502654
0.000473419
0.000453557
0.000441428
0.000435146
0.000432768
0.000432565
0.000433217
0.000433862
0.000434061
0.000433544
0.000432077
0.00042959
0.000425722
0.000419811
0.000826459
0.000765315
0.000708848
0.000658124
0.000614385
0.000578639
0.000551428
0.000532662
0.000521533
0.000516609
0.000516093
0.000518145
0.000521172
0.000523995
0.000525975
0.000526754
0.000526045
0.000523598
0.000518915
0.000511257
0.000828586
0.000773763
0.000724373
0.000680098
0.000641513
0.000609511
0.000584826
0.000567702
0.000557694
0.000553682
0.000554076
0.000557119
0.00056119
0.000565011
0.000567868
0.000569324
0.000568991
0.000566564
0.000561489
0.000552913
0.000828586
0.000773763
0.000724373
0.000680098
0.000641513
0.000609511
0.000584826
0.000567701
0.000557694
0.000553681
0.000554073
0.000557109
0.000561169
0.000564974
0.000567838
0.000569313
0.000568991
0.000566571
0.000561502
0.000552938
0.000826459
0.000765315
0.000708848
0.000658124
0.000614385
0.000578638
0.000551427
0.000532661
0.000521531
0.000516606
0.000516084
0.000518118
0.000521103
0.000523943
0.000525981
0.000526762
0.000526047
0.000523577
0.000518837
0.000511072
0.000815063
0.000731062
0.000656543
0.00059359
0.000542441
0.000502654
0.000473419
0.000453556
0.000441427
0.000435144
0.000432762
0.000432546
0.000433176
0.000433829
0.000434056
0.000433529
0.000432021
0.000429418
0.00042522
0.000418411
0.000728585
0.000588486
0.000496928
0.000431629
0.000384194
0.000349629
0.000324535
0.000306823
0.000294733
0.000286655
0.00028123
0.000277453
0.000274698
0.000272693
0.000271378
0.000269978
0.000267489
0.000265147
0.000262093
0.000256628
0.000218609
0.000154989
0.000118592
9.62818e-05
8.15277e-05
6.98685e-05
6.17001e-05
5.60833e-05
5.14481e-05
4.77614e-05
4.49091e-05
4.27443e-05
4.11281e-05
3.99369e-05
3.90729e-05
3.84139e-05
3.79142e-05
3.7529e-05
3.72312e-05
3.7185e-05
0.000218609
0.000154989
0.000118592
9.62818e-05
8.15277e-05
6.98686e-05
6.17003e-05
5.60835e-05
5.14482e-05
4.77614e-05
4.49091e-05
4.27443e-05
4.11282e-05
3.9937e-05
3.90729e-05
3.84137e-05
3.79139e-05
3.75285e-05
3.72306e-05
3.71843e-05
0.000728585
0.000588486
0.000496928
0.000431629
0.000384194
0.000349629
0.000324538
0.000306826
0.000294734
0.000286655
0.000281231
0.000277457
0.000274707
0.000272701
0.000271374
0.000269965
0.000267474
0.000265133
0.000262076
0.000256602
0.000815063
0.000731062
0.000656543
0.00059359
0.000542441
0.000502654
0.000473419
0.000453557
0.000441427
0.000435146
0.000432767
0.000432562
0.000433212
0.000433853
0.000434043
0.000433508
0.000431996
0.00042939
0.000425186
0.000418358
0.000826459
0.000765315
0.000708848
0.000658124
0.000614385
0.000578639
0.000551428
0.000532661
0.000521532
0.000516609
0.000516093
0.000518144
0.000521171
0.000523993
0.00052597
0.000526745
0.000526025
0.00052355
0.000518801
0.00051101
0.000828586
0.000773763
0.000724373
0.000680098
0.000641513
0.000609511
0.000584826
0.000567701
0.000557694
0.000553682
0.000554076
0.000557119
0.00056119
0.000565013
0.00056787
0.000569327
0.000568995
0.000566566
0.000561488
0.000552906
0.000828586
0.000773763
0.000724373
0.000680098
0.000641513
0.00060951
0.000584824
0.000567699
0.000557693
0.000553681
0.000554073
0.00055711
0.00056117
0.000564977
0.000567842
0.000569317
0.000568996
0.000566573
0.0005615
0.000552925
0.000826459
0.000765315
0.000708848
0.000658124
0.000614385
0.000578638
0.000551426
0.00053266
0.000521532
0.000516608
0.000516086
0.000518121
0.000521106
0.000523948
0.00052599
0.000526777
0.000526073
0.00052363
0.000518953
0.000511315
0.000815063
0.000731062
0.000656543
0.00059359
0.000542441
0.000502654
0.000473418
0.000453557
0.000441429
0.000435147
0.000432765
0.000432551
0.000433183
0.000433841
0.000434076
0.000433568
0.000432105
0.000429622
0.000425762
0.000419882
0.000728585
0.000588486
0.000496928
0.00043163
0.000384194
0.000349627
0.000324512
0.000306817
0.000294733
0.000286657
0.000281234
0.000277459
0.000274708
0.00027271
0.00027141
0.000270035
0.000267601
0.000265403
0.000262811
0.000258982
0.000218609
0.000154989
0.000118592
9.62818e-05
8.15277e-05
6.98684e-05
6.16996e-05
5.6083e-05
5.1448e-05
4.77616e-05
4.49097e-05
4.27451e-05
4.11294e-05
3.99387e-05
3.90758e-05
3.84185e-05
3.79218e-05
3.75416e-05
3.72456e-05
3.7109e-05
0.000198681
0.000138288
0.000105121
8.53198e-05
7.21623e-05
6.20209e-05
5.48724e-05
4.98378e-05
4.57017e-05
4.24273e-05
3.99101e-05
3.80309e-05
3.66639e-05
3.56769e-05
3.49379e-05
3.43789e-05
3.39542e-05
3.36208e-05
3.33502e-05
3.33363e-05
0.000712914
0.00055667
0.000467274
0.000404744
0.000359913
0.000327351
0.000303663
0.000286923
0.000275436
0.000267703
0.000262487
0.000258887
0.000256518
0.000254812
0.000253656
0.000250931
0.000248645
0.000246241
0.000242711
0.000235733
0.000809413
0.000714461
0.000633206
0.00056671
0.000514042
0.000473875
0.000444804
0.000425206
0.000413236
0.000406911
0.000404272
0.000403636
0.0004038
0.000403931
0.000403662
0.000402669
0.000400918
0.00039815
0.000393614
0.000385859
0.000823636
0.000754805
0.000690857
0.000634195
0.000586302
0.000547923
0.000519179
0.000499544
0.000487844
0.000482382
0.000481213
0.000482467
0.000484619
0.000486586
0.000487808
0.000487993
0.000486927
0.000484381
0.000479857
0.000472623
0.000826459
0.000765315
0.000708848
0.000658124
0.000614385
0.000578638
0.000551427
0.00053266
0.000521533
0.00051661
0.000516094
0.000518143
0.000521167
0.000523987
0.000525964
0.000526751
0.000526049
0.000523608
0.000518934
0.0005113
0.000826459
0.000765315
0.000708848
0.000658124
0.000614384
0.000578636
0.000551426
0.000532664
0.000521536
0.000516612
0.000516093
0.000518138
0.000521152
0.00052396
0.000525942
0.000526738
0.000526032
0.000523566
0.000518827
0.000511057
0.000823636
0.000754805
0.000690857
0.000634194
0.000586301
0.000547921
0.000519179
0.000499548
0.000487849
0.000482385
0.000481211
0.000482454
0.000484577
0.00048656
0.000487833
0.000488022
0.000486958
0.000484411
0.000479886
0.000472656
0.000809413
0.000714461
0.000633206
0.00056671
0.000514042
0.000473877
0.000444815
0.00042522
0.000413248
0.00040692
0.000404277
0.000403634
0.000403784
0.000403933
0.000403715
0.000402765
0.0004011
0.000398557
0.000394687
0.00038882
0.000712914
0.00055667
0.000467274
0.000404744
0.000359914
0.000327363
0.000303773
0.000286981
0.000275467
0.000267721
0.000262501
0.000258899
0.000256525
0.000254839
0.000253749
0.00025109
0.000248938
0.00024688
0.000244417
0.000240808
0.000198681
0.000138288
0.000105121
8.53198e-05
7.21624e-05
6.20203e-05
5.48723e-05
4.9838e-05
4.57023e-05
4.24284e-05
3.99115e-05
3.80325e-05
3.66656e-05
3.56797e-05
3.49439e-05
3.43893e-05
3.39721e-05
3.36521e-05
3.33983e-05
3.32113e-05
0.000160509
0.000107347
8.06801e-05
6.54339e-05
5.52148e-05
4.76205e-05
4.22244e-05
3.83344e-05
3.51981e-05
3.27797e-05
3.09754e-05
2.96414e-05
2.86836e-05
2.79466e-05
2.73921e-05
2.69786e-05
2.66656e-05
2.64137e-05
2.61924e-05
2.6171e-05
0.000663975
0.000488664
0.000405385
0.000349383
0.000309968
0.000281362
0.000260494
0.000245562
0.0002351
0.000228292
0.000224135
0.000221106
0.000218549
0.00021617
0.000213046
0.000210791
0.000208877
0.000206706
0.000203185
0.000195184
0.000786889
0.000662701
0.000569296
0.000499166
0.000446738
0.000408348
0.000381205
0.000362978
0.000351564
0.000345032
0.000341667
0.000339942
0.00033904
0.000338185
0.000336933
0.000335362
0.000333374
0.000330645
0.000326165
0.000317718
0.000809413
0.000714461
0.000633207
0.00056671
0.000514042
0.000473876
0.000444806
0.000425207
0.000413238
0.000406914
0.000404276
0.000403641
0.000403807
0.000403946
0.000403691
0.000402734
0.000401068
0.000398527
0.000394657
0.000388782
0.000815063
0.000731062
0.000656543
0.00059359
0.000542442
0.000502655
0.000473423
0.000453562
0.000441433
0.000435151
0.000432772
0.000432565
0.000433213
0.000433855
0.000434052
0.000433543
0.000432082
0.000429602
0.000425745
0.000419867
0.000815063
0.000731062
0.000656543
0.00059359
0.000542441
0.000502654
0.000473423
0.000453564
0.000441435
0.000435152
0.000432771
0.000432561
0.000433203
0.000433834
0.00043403
0.000433514
0.000432011
0.000429411
0.000425214
0.000418405
0.000809413
0.000714461
0.000633206
0.00056671
0.000514042
0.000473875
0.000444805
0.000425209
0.000413241
0.000406916
0.000404275
0.000403635
0.000403795
0.000403969
0.000403725
0.000402726
0.000400966
0.00039819
0.000393648
0.000385895
0.000786889
0.000662701
0.000569296
0.000499166
0.000446738
0.000408348
0.000381205
0.000362981
0.000351569
0.000345037
0.000341669
0.000339938
0.000339016
0.00033818
0.000336981
0.000335421
0.000333426
0.000330685
0.000326197
0.000317749
0.000663975
0.000488664
0.000405385
0.000349383
0.000309968
0.000281365
0.00026051
0.000245577
0.000235113
0.000228302
0.000224146
0.000221116
0.000218505
0.000216187
0.000213191
0.000210981
0.000209132
0.000207131
0.000203982
0.000196714
0.000160509
0.000107347
8.06801e-05
6.5434e-05
5.5215e-05
4.76184e-05
4.2222e-05
3.83329e-05
3.51977e-05
3.27801e-05
3.09762e-05
2.96423e-05
2.86838e-05
2.79486e-05
2.73986e-05
2.69899e-05
2.66844e-05
2.64493e-05
2.62537e-05
2.61356e-05
0.000107684
6.77088e-05
5.05774e-05
4.12858e-05
3.51205e-05
3.05983e-05
2.71751e-05
2.45991e-05
2.26752e-05
2.12289e-05
2.02223e-05
1.94187e-05
1.88373e-05
1.83926e-05
1.80646e-05
1.78391e-05
1.76717e-05
1.75321e-05
1.73978e-05
1.71796e-05
0.00052892
0.000370133
0.000305724
0.000263186
0.000232594
0.000210064
0.000193276
0.000180738
0.00017143
0.00016418
0.000159296
0.000154415
0.000150405
0.000147079
0.000144715
0.000143692
0.00014274
0.000141396
0.000138915
0.00013021
0.000663975
0.000488664
0.000405385
0.000349383
0.000309968
0.000281363
0.000260496
0.000245565
0.000235104
0.000228296
0.000224141
0.000221116
0.000218567
0.000216198
0.000213098
0.000210891
0.000209074
0.000207094
0.000203955
0.000196685
0.000712914
0.00055667
0.000467274
0.000404745
0.000359914
0.000327353
0.00030367
0.00028693
0.000275443
0.00026771
0.000262497
0.0002589
0.000256539
0.000254847
0.000253723
0.000251063
0.000248914
0.000246858
0.000244385
0.000240721
0.000728585
0.000588486
0.000496928
0.00043163
0.000384195
0.000349635
0.000324581
0.000306852
0.000294751
0.000286667
0.00028124
0.000277464
0.000274713
0.000272705
0.00027139
0.00027002
0.000267588
0.000265392
0.0002628
0.000258962
0.000728585
0.000588486
0.000496928
0.00043163
0.000384194
0.000349635
0.00032458
0.000306852
0.000294751
0.000286665
0.000281238
0.000277458
0.000274693
0.000272593
0.000271326
0.000269978
0.00026749
0.000265148
0.000262092
0.000256624
0.000712914
0.00055667
0.000467274
0.000404744
0.000359913
0.000327352
0.000303669
0.000286929
0.000275442
0.000267708
0.000262492
0.000258896
0.000256567
0.00025524
0.000253864
0.000251048
0.000248713
0.000246282
0.000242737
0.000235754
0.000663975
0.000488664
0.000405385
0.000349383
0.000309968
0.000281362
0.000260493
0.000245561
0.000235101
0.000228294
0.000224139
0.000221109
0.000218502
0.00021621
0.00021318
0.000210908
0.00020895
0.000206749
0.000203211
0.000195201
0.00052892
0.000370133
0.000305724
0.000263186
0.000232593
0.000210063
0.000193275
0.000180738
0.000171431
0.00016418
0.00015929
0.000154342
0.000150023
0.000147038
0.000145319
0.000144028
0.000142846
0.000141435
0.000138932
0.000130221
0.000107684
6.77087e-05
5.05774e-05
4.12857e-05
3.51204e-05
3.05965e-05
2.7173e-05
2.45978e-05
2.26747e-05
2.12289e-05
2.02222e-05
1.94176e-05
1.88263e-05
1.83882e-05
1.8078e-05
1.78504e-05
1.76803e-05
1.75518e-05
1.74355e-05
1.73294e-05
4.53568e-05
2.32091e-05
1.65313e-05
1.35935e-05
1.18609e-05
1.05657e-05
9.52674e-06
8.81841e-06
8.30593e-06
7.90968e-06
7.62154e-06
7.40378e-06
7.24585e-06
7.12762e-06
7.04034e-06
6.97933e-06
6.93702e-06
6.90624e-06
6.89288e-06
6.93473e-06
0.000107684
6.77087e-05
5.05774e-05
4.12858e-05
3.51205e-05
3.05983e-05
2.71751e-05
2.45991e-05
2.26752e-05
2.12289e-05
2.02225e-05
1.94189e-05
1.88376e-05
1.83932e-05
1.80658e-05
1.78411e-05
1.76752e-05
1.75489e-05
1.74339e-05
1.73286e-05
0.000160509
0.000107347
8.068e-05
6.54339e-05
5.52148e-05
4.76205e-05
4.22244e-05
3.83346e-05
3.51984e-05
3.27802e-05
3.09762e-05
2.96427e-05
2.86855e-05
2.79498e-05
2.73973e-05
2.69876e-05
2.66822e-05
2.64476e-05
2.62523e-05
2.61342e-05
0.000198681
0.000138288
0.000105121
8.53198e-05
7.21624e-05
6.20209e-05
5.48726e-05
4.98381e-05
4.57022e-05
4.2428e-05
3.99111e-05
3.80324e-05
3.66662e-05
3.56804e-05
3.49435e-05
3.43884e-05
3.39711e-05
3.36511e-05
3.33974e-05
3.32096e-05
0.000218609
0.000154989
0.000118592
9.62818e-05
8.15277e-05
6.98685e-05
6.17009e-05
5.6084e-05
5.14487e-05
4.7762e-05
4.49099e-05
4.27453e-05
4.11295e-05
3.99388e-05
3.90757e-05
3.84182e-05
3.79214e-05
3.75412e-05
3.72452e-05
3.71085e-05
0.000218609
0.000154989
0.000118592
9.62818e-05
8.15277e-05
6.98683e-05
6.17001e-05
5.60833e-05
5.14482e-05
4.77616e-05
4.49094e-05
4.27446e-05
4.11283e-05
3.99368e-05
3.90726e-05
3.84136e-05
3.7914e-05
3.75289e-05
3.72312e-05
3.7185e-05
0.000198681
0.000138288
0.000105121
8.53198e-05
7.21623e-05
6.20205e-05
5.48719e-05
4.98374e-05
4.57014e-05
4.24273e-05
3.99102e-05
3.80309e-05
3.66639e-05
3.56785e-05
3.49409e-05
3.43821e-05
3.39569e-05
3.36229e-05
3.33518e-05
3.33376e-05
0.000160509
0.000107347
8.06801e-05
6.5434e-05
5.52149e-05
4.76186e-05
4.22219e-05
3.83326e-05
3.51971e-05
3.27793e-05
3.09752e-05
2.96409e-05
2.86821e-05
2.79463e-05
2.73945e-05
2.6982e-05
2.66688e-05
2.64162e-05
2.61943e-05
2.61723e-05
0.000107684
6.77087e-05
5.05774e-05
4.12857e-05
3.51204e-05
3.05965e-05
2.7173e-05
2.45977e-05
2.26746e-05
2.12287e-05
2.0222e-05
1.94173e-05
1.8826e-05
1.83877e-05
1.80771e-05
1.78486e-05
1.76771e-05
1.75352e-05
1.73992e-05
1.71805e-05
4.53568e-05
2.32091e-05
1.65312e-05
1.35936e-05
1.18607e-05
1.0565e-05
9.52633e-06
8.81814e-06
8.30579e-06
7.90957e-06
7.62138e-06
7.40418e-06
7.24414e-06
7.12573e-06
7.04155e-06
6.98118e-06
6.93844e-06
6.90718e-06
6.89337e-06
6.93496e-06
6.18376e-06
5.8248e-06
5.75984e-06
5.75285e-06
5.76143e-06
5.77153e-06
5.7785e-06
5.78468e-06
5.79025e-06
5.79502e-06
5.79926e-06
5.80159e-06
5.80434e-06
5.80771e-06
5.81021e-06
5.81192e-06
5.81335e-06
5.81446e-06
5.81526e-06
5.81579e-06
5.81604e-06
5.81727e-06
5.81689e-06
5.81551e-06
5.81604e-06
5.81646e-06
5.81644e-06
5.81733e-06
5.81697e-06
5.81556e-06
5.81605e-06
5.81644e-06
5.81641e-06
5.81778e-06
5.8155e-06
5.81502e-06
5.816e-06
5.81626e-06
5.8172e-06
5.81613e-06
1.41035e-05
1.37543e-05
1.37665e-05
1.38419e-05
1.39001e-05
1.39356e-05
1.39666e-05
1.39945e-05
1.4019e-05
1.404e-05
1.40605e-05
1.40784e-05
1.40907e-05
1.40959e-05
1.41039e-05
1.41111e-05
1.41171e-05
1.41218e-05
1.41253e-05
1.41278e-05
1.41298e-05
1.41308e-05
1.41342e-05
1.41352e-05
1.4132e-05
1.4131e-05
1.41314e-05
1.41317e-05
1.41347e-05
1.41353e-05
1.4132e-05
1.41309e-05
1.4132e-05
1.41361e-05
1.41324e-05
1.41318e-05
1.4131e-05
1.4131e-05
1.41314e-05
1.41349e-05
2.18293e-05
2.12162e-05
2.10262e-05
2.10212e-05
2.10549e-05
2.10987e-05
2.11437e-05
2.11856e-05
2.12232e-05
2.12561e-05
2.12844e-05
2.13083e-05
2.13278e-05
2.13447e-05
2.13588e-05
2.13708e-05
2.13805e-05
2.13881e-05
2.13939e-05
2.13983e-05
2.14013e-05
2.14032e-05
2.1404e-05
2.14039e-05
2.1404e-05
2.14044e-05
2.14046e-05
2.14047e-05
2.14043e-05
2.14037e-05
2.14034e-05
2.14037e-05
2.14042e-05
2.1405e-05
2.14082e-05
2.14069e-05
2.14055e-05
2.14049e-05
2.14047e-05
2.14044e-05
2.80985e-05
2.75828e-05
2.73589e-05
2.73048e-05
2.7311e-05
2.73431e-05
2.73853e-05
2.74299e-05
2.74731e-05
2.75129e-05
2.75484e-05
2.75788e-05
2.76052e-05
2.76286e-05
2.76487e-05
2.76651e-05
2.76783e-05
2.76886e-05
2.76966e-05
2.77026e-05
2.7707e-05
2.77097e-05
2.77106e-05
2.77103e-05
2.77105e-05
2.77108e-05
2.7711e-05
2.77108e-05
2.77098e-05
2.77089e-05
2.77091e-05
2.77096e-05
2.77098e-05
2.77091e-05
2.77063e-05
2.7707e-05
2.77085e-05
2.77096e-05
2.77101e-05
2.77098e-05
3.20377e-05
3.165e-05
3.14522e-05
3.13738e-05
3.13447e-05
3.13525e-05
3.13814e-05
3.14203e-05
3.14625e-05
3.15042e-05
3.1543e-05
3.15781e-05
3.16102e-05
3.1638e-05
3.16611e-05
3.16801e-05
3.16954e-05
3.17075e-05
3.17169e-05
3.1724e-05
3.17293e-05
3.17327e-05
3.17344e-05
3.17335e-05
3.17325e-05
3.17319e-05
3.17315e-05
3.17313e-05
3.17309e-05
3.17306e-05
3.17305e-05
3.17305e-05
3.17306e-05
3.17305e-05
3.17304e-05
3.17317e-05
3.17316e-05
3.17314e-05
3.17314e-05
3.17314e-05
3.32261e-05
3.30445e-05
3.2913e-05
3.28347e-05
3.2798e-05
3.2793e-05
3.28109e-05
3.28425e-05
3.28805e-05
3.292e-05
3.2958e-05
3.29926e-05
3.30234e-05
3.30501e-05
3.30728e-05
3.30917e-05
3.3107e-05
3.31192e-05
3.31288e-05
3.31361e-05
3.31415e-05
3.31452e-05
3.31474e-05
3.31486e-05
3.31493e-05
3.31499e-05
3.31503e-05
3.31505e-05
3.31505e-05
3.31504e-05
3.31504e-05
3.31504e-05
3.31505e-05
3.31504e-05
3.31501e-05
3.31501e-05
3.31501e-05
3.31502e-05
3.31506e-05
3.31509e-05
3.1895e-05
3.17767e-05
3.16671e-05
3.15737e-05
3.15449e-05
3.1541e-05
3.1557e-05
3.15858e-05
3.16208e-05
3.16573e-05
3.16922e-05
3.17233e-05
3.17516e-05
3.17769e-05
3.17984e-05
3.18162e-05
3.18306e-05
3.18421e-05
3.18511e-05
3.18579e-05
3.18629e-05
3.18663e-05
3.18682e-05
3.18693e-05
3.18703e-05
3.18712e-05
3.18719e-05
3.18723e-05
3.18722e-05
3.1872e-05
3.18721e-05
3.18724e-05
3.18726e-05
3.18725e-05
3.1872e-05
3.18714e-05
3.18712e-05
3.18715e-05
3.1872e-05
3.18722e-05
2.84145e-05
2.79963e-05
2.76824e-05
2.76209e-05
2.76046e-05
2.76125e-05
2.76352e-05
2.76657e-05
2.7699e-05
2.77319e-05
2.77614e-05
2.77861e-05
2.78116e-05
2.78342e-05
2.78531e-05
2.78684e-05
2.78808e-05
2.78905e-05
2.7898e-05
2.79036e-05
2.79077e-05
2.79101e-05
2.79107e-05
2.79109e-05
2.79121e-05
2.79135e-05
2.79145e-05
2.79148e-05
2.79139e-05
2.79131e-05
2.79136e-05
2.79145e-05
2.79151e-05
2.79149e-05
2.79133e-05
2.79112e-05
2.79113e-05
2.79126e-05
2.79135e-05
2.79135e-05
2.24302e-05
2.16111e-05
2.14047e-05
2.13801e-05
2.13903e-05
2.14158e-05
2.1447e-05
2.14792e-05
2.15098e-05
2.1538e-05
2.15635e-05
2.15886e-05
2.16062e-05
2.16207e-05
2.16334e-05
2.16441e-05
2.16529e-05
2.16599e-05
2.16652e-05
2.16692e-05
2.16719e-05
2.16735e-05
2.16741e-05
2.16741e-05
2.16744e-05
2.16752e-05
2.1676e-05
2.16763e-05
2.1676e-05
2.16754e-05
2.16754e-05
2.1676e-05
2.16764e-05
2.16761e-05
2.16743e-05
2.16686e-05
2.16698e-05
2.16722e-05
2.16741e-05
2.1675e-05
1.35024e-05
1.36171e-05
1.37835e-05
1.39061e-05
1.39846e-05
1.40381e-05
1.40743e-05
1.41028e-05
1.41265e-05
1.41498e-05
1.41705e-05
1.41851e-05
1.41917e-05
1.42011e-05
1.42094e-05
1.42164e-05
1.42219e-05
1.42262e-05
1.42293e-05
1.42316e-05
1.42335e-05
1.42344e-05
1.42379e-05
1.42388e-05
1.42355e-05
1.42346e-05
1.42352e-05
1.42358e-05
1.42389e-05
1.42395e-05
1.42361e-05
1.4235e-05
1.42354e-05
1.42357e-05
1.42387e-05
1.42398e-05
1.4235e-05
1.42339e-05
1.42349e-05
1.42386e-05
6.18341e-06
5.82438e-06
5.75935e-06
5.75174e-06
5.76136e-06
5.77093e-06
5.77844e-06
5.78475e-06
5.79017e-06
5.79503e-06
5.79785e-06
5.80143e-06
5.80536e-06
5.80822e-06
5.81026e-06
5.812e-06
5.81335e-06
5.81437e-06
5.81511e-06
5.81562e-06
5.81586e-06
5.81707e-06
5.81672e-06
5.81534e-06
5.8159e-06
5.81635e-06
5.81635e-06
5.81725e-06
5.81689e-06
5.81551e-06
5.81605e-06
5.81645e-06
5.8164e-06
5.81748e-06
5.81665e-06
5.81537e-06
5.81567e-06
5.81616e-06
5.81689e-06
5.81593e-06
1.35031e-05
1.36188e-05
1.3788e-05
1.39297e-05
1.40033e-05