/*--------------------------------*- C++ -*----------------------------------*\
| =========                 |                                                 |
| \\      /  F ield         | OpenFOAM: The Open Source CFD Toolbox           |
|  \\    /   O peration     | Version:  2212                                  |
|   \\  /    A nd           | Website:  www.openfoam.com                      |
|    \\/     M anipulation  |                                                 |
\*---------------------------------------------------------------------------*/
FoamFile
{
    version     2.0;
    format      ascii;
    arch        "LSB;label=32;scalar=64";
    class       surfaceScalarField;
    location    "0.15";
    object      phi;
}
// * * * * * * * * * * * * * * * * * * * * * * * * * * * * * * * * * * * * * //

dimensions      [0 3 -1 0 0 0 0];

oriented        oriented;

internalField   nonuniform List<scalar> 
19019
(
3.32577e-07
9.33213e-10
9.33146e-10
2.79258e-07
2.66593e-08
2.66594e-08
2.49279e-07
1.49897e-08
1.49897e-08
2.29479e-07
9.89981e-09
9.90021e-09
2.15398e-07
7.03991e-09
7.04098e-09
2.04436e-07
5.48005e-09
5.48211e-09
1.96176e-07
4.12837e-09
4.13168e-09
1.90048e-07
3.06138e-09
3.06712e-09
1.85526e-07
2.25523e-09
2.26641e-09
1.82155e-07
1.676e-09
1.6956e-09
1.79657e-07
1.23272e-09
1.26541e-09
1.77822e-07
8.89649e-10
9.45206e-10
1.76482e-07
6.22486e-10
7.17098e-10
1.75518e-07
4.02896e-10
5.61435e-10
1.74822e-07
2.20314e-10
4.75616e-10
1.74322e-07
2.8079e-11
4.71428e-10
1.74007e-07
-2.4483e-10
5.60517e-10
1.74214e-07
-8.35638e-10
6.28492e-10
1.76027e-07
-2.28918e-09
4.76371e-10
-8.95445e-09
-6.53269e-09
6.31299e-07
3.58144e-09
7.32657e-09
6.14661e-07
2.26742e-08
2.06226e-08
5.86893e-07
2.43136e-08
1.84447e-08
5.6297e-07
1.84491e-08
1.53735e-08
5.42272e-07
1.4647e-08
1.30915e-08
5.25621e-07
1.17619e-08
1.03689e-08
5.1287e-07
9.27358e-09
7.60639e-09
5.03239e-07
7.22818e-09
5.46383e-09
4.95964e-07
5.56655e-09
3.9639e-09
4.90456e-07
4.27244e-09
2.91126e-09
4.86282e-07
3.27457e-09
2.13309e-09
4.83113e-07
2.4962e-09
1.56205e-09
4.80729e-07
1.86017e-09
1.14629e-09
4.78935e-07
1.34658e-09
8.50594e-10
4.77541e-07
9.29597e-10
6.84428e-10
4.7636e-07
6.02458e-10
6.06249e-10
4.75189e-07
3.48403e-10
5.78003e-10
4.7388e-07
2.5732e-11
4.48028e-10
4.72786e-07
-8.75196e-10
-3.20633e-10
2.64686e-09
9.64825e-10
8.90367e-07
2.86404e-09
6.32224e-09
8.8258e-07
1.34116e-08
1.70495e-08
8.70852e-07
1.76956e-08
1.83458e-08
8.56291e-07
1.6468e-08
1.65426e-08
8.4241e-07
1.4239e-08
1.42893e-08
8.30182e-07
1.20571e-08
1.19322e-08
8.19713e-07
1.01064e-08
9.6369e-09
8.1104e-07
8.2922e-09
7.6094e-09
8.04087e-07
6.59009e-09
5.92894e-09
7.98705e-07
5.09633e-09
4.55882e-09
7.9463e-07
3.87055e-09
3.47824e-09
7.91576e-07
2.90693e-09
2.64386e-09
7.89265e-07
2.17456e-09
1.99645e-09
7.87459e-07
1.63506e-09
1.51769e-09
7.85931e-07
1.25485e-09
1.20272e-09
7.8443e-07
1.0432e-09
1.0607e-09
7.82623e-07
1.02073e-09
1.13461e-09
7.79916e-07
1.27453e-09
1.45767e-09
7.74998e-07
2.01683e-09
2.02582e-09
6.49395e-09
5.52848e-09
1.07432e-06
1.06945e-09
5.56997e-09
1.06829e-06
5.57424e-09
1.38693e-08
1.06155e-06
8.37374e-09
1.60579e-08
1.05383e-06
8.74815e-09
1.54441e-08
1.04599e-06
7.96293e-09
1.41173e-08
1.03867e-06
6.90709e-09
1.24637e-08
1.03229e-06
5.856e-09
1.06395e-08
1.02693e-06
4.84621e-09
8.80342e-09
1.0226e-06
3.89879e-09
7.01611e-09
1.01924e-06
3.0659e-09
5.3956e-09
1.01666e-06
2.37239e-09
4.07733e-09
1.01467e-06
1.83038e-09
3.06482e-09
1.01311e-06
1.43023e-09
2.30506e-09
1.01183e-06
1.16456e-09
1.74992e-09
1.01067e-06
1.0354e-09
1.3766e-09
1.00947e-06
1.06372e-09
1.18837e-09
1.00801e-06
1.28231e-09
1.19161e-09
1.00606e-06
1.81245e-09
1.41155e-09
1.00338e-06
2.86333e-09
1.83647e-09
5.59739e-09
3.56491e-09
1.16916e-06
8.86329e-14
4.89621e-09
1.16313e-06
3.5394e-13
1.16035e-08
1.15729e-06
7.03974e-13
1.42101e-08
1.15194e-06
1.21723e-12
1.41018e-08
1.14666e-06
2.041e-12
1.32351e-08
1.14156e-06
3.47506e-12
1.20022e-08
1.13693e-06
5.82756e-12
1.04833e-08
1.13294e-06
9.72896e-12
8.8274e-09
1.12962e-06
1.62042e-11
7.20763e-09
1.12693e-06
2.69568e-11
5.72277e-09
1.12483e-06
4.46544e-11
4.43211e-09
1.12326e-06
7.36396e-11
3.32896e-09
1.12212e-06
1.2113e-10
2.44727e-09
1.12128e-06
1.98565e-10
1.80568e-09
1.12063e-06
3.24923e-10
1.35823e-09
1.1201e-06
5.2951e-10
1.06844e-09
1.11962e-06
8.5253e-10
9.09416e-10
1.11921e-06
1.35792e-09
8.59531e-10
1.11907e-06
2.128e-09
8.80867e-10
3.35408e-09
1.36002e-09
1.16916e-06
-1.0693e-09
4.89618e-09
1.16313e-06
-5.57372e-09
1.16034e-08
1.15729e-06
-8.37278e-09
1.421e-08
1.15194e-06
-8.74653e-09
1.41014e-08
1.14667e-06
-7.96012e-09
1.32344e-08
1.14157e-06
-6.9022e-09
1.2001e-08
1.13694e-06
-5.8475e-09
1.04813e-08
1.13296e-06
-4.83196e-09
8.82399e-09
1.12965e-06
-3.87487e-09
7.20199e-09
1.12699e-06
-3.02602e-09
5.7136e-09
1.12492e-06
-2.30591e-09
4.41781e-09
1.12341e-06
-1.71886e-09
3.30501e-09
1.12237e-06
-1.24298e-09
2.40555e-09
1.12169e-06
-8.53857e-10
1.73486e-09
1.12128e-06
-5.11872e-10
1.23881e-09
1.12112e-06
-1.74337e-10
8.70215e-10
1.12117e-06
2.09148e-10
5.89585e-10
1.12147e-06
7.10433e-10
3.53869e-10
1.12204e-06
1.42323e-09
1.34003e-10
2.30786e-09
9.62265e-11
1.07432e-06
-2.86407e-09
5.56998e-09
1.06829e-06
-1.34117e-08
1.38692e-08
1.06156e-06
-1.76957e-08
1.60576e-08
1.05383e-06
-1.64679e-08
1.54432e-08
1.046e-06
-1.42387e-08
1.41156e-08
1.03869e-06
-1.20564e-08
1.24609e-08
1.03231e-06
-1.0105e-08
1.06351e-08
1.02697e-06
-8.29015e-09
8.79624e-09
1.02268e-06
-6.58692e-09
7.00562e-09
1.01937e-06
-5.09089e-09
5.37821e-09
1.01688e-06
-3.86041e-09
4.04676e-09
1.01503e-06
-2.88684e-09
3.01224e-09
1.01371e-06
-2.13376e-09
2.21527e-09
1.01281e-06
-1.55587e-09
1.59448e-09
1.0123e-06
-1.10337e-09
1.10403e-09
1.01216e-06
-7.37017e-10
7.09109e-10
1.01238e-06
-3.65023e-10
3.48931e-10
1.01298e-06
1.58849e-10
-4.9081e-11
1.01363e-06
1.34299e-09
-5.64266e-10
3.58277e-09
-1.08992e-09
8.90367e-07
-3.58151e-09
6.32222e-09
8.82581e-07
-2.26745e-08
1.70493e-08
8.70854e-07
-2.43141e-08
1.83452e-08
8.56294e-07
-1.84498e-08
1.65415e-08
8.42416e-07
-1.46483e-08
1.42877e-08
8.30195e-07
-1.17644e-08
1.19298e-08
8.19734e-07
-9.27778e-09
9.63326e-09
8.11076e-07
-7.2351e-09
7.60325e-09
8.04149e-07
-5.57901e-09
5.91896e-09
7.9881e-07
-4.29379e-09
4.54235e-09
7.94809e-07
-3.31039e-09
3.45046e-09
7.91881e-07
-2.55396e-09
2.59517e-09
7.89782e-07
-1.94185e-09
1.90772e-09
7.88336e-07
-1.46905e-09
1.35919e-09
7.87448e-07
-1.14626e-09
9.30416e-10
7.87124e-07
-9.75373e-10
5.62677e-10
7.87496e-07
-9.05745e-10
1.68781e-10
7.88816e-07
-7.15905e-10
-4.45082e-10
7.91424e-07
3.58969e-10
-1.62421e-09
5.14169e-09
-3.8171e-09
6.31299e-07
-9.3325e-10
7.32652e-09
6.14662e-07
-2.66595e-08
2.06223e-08
5.86893e-07
-1.49901e-08
1.84443e-08
5.62971e-07
-9.90056e-09
1.53728e-08
5.42274e-07
-7.04124e-09
1.30904e-08
5.25625e-07
-5.48228e-09
1.03668e-08
5.12876e-07
-4.13179e-09
7.60292e-09
5.0325e-07
-3.06725e-09
5.4582e-09
4.95982e-07
-2.26669e-09
3.95557e-09
4.90487e-07
-1.69613e-09
2.89804e-09
4.86331e-07
-1.26633e-09
2.1114e-09
4.832e-07
-9.45863e-10
1.5226e-09
4.80896e-07
-7.16931e-10
1.07987e-09
4.79245e-07
-5.61107e-10
7.42958e-10
4.78086e-07
-4.7386e-10
4.86424e-10
4.77322e-07
-4.69528e-10
2.57967e-10
4.77024e-07
-5.60748e-10
-4.69623e-11
4.77747e-07
-6.29951e-10
-8.08859e-10
4.81541e-07
-4.78053e-10
-2.95698e-09
6.53041e-09
-1.05996e-08
3.32577e-07
9.33082e-10
2.79258e-07
2.66592e-08
2.49279e-07
1.49892e-08
2.29479e-07
9.8994e-09
2.15398e-07
7.03957e-09
2.04436e-07
5.47977e-09
1.96176e-07
4.12815e-09
1.90048e-07
3.06125e-09
1.85526e-07
2.25508e-09
1.82154e-07
1.67593e-09
1.79654e-07
1.23296e-09
1.77819e-07
8.89308e-10
1.76481e-07
6.2104e-10
1.75519e-07
4.01308e-10
1.74827e-07
2.17603e-10
1.74332e-07
2.61965e-11
1.74013e-07
-2.42137e-10
1.74215e-07
-8.31999e-10
1.76023e-07
-2.28568e-09
-8.95214e-09
6.31299e-07
7.32657e-09
3.58141e-09
6.14661e-07
2.06224e-08
2.26744e-08
5.86893e-07
1.84441e-08
2.43139e-08
5.62971e-07
1.53726e-08
1.84497e-08
5.42274e-07
1.30901e-08
1.46483e-08
5.25625e-07
1.03665e-08
1.17646e-08
5.12876e-07
7.60255e-09
9.27793e-09
5.0325e-07
5.4578e-09
7.23522e-09
4.95983e-07
3.95513e-09
5.57885e-09
4.90488e-07
2.89746e-09
4.29288e-09
4.86336e-07
2.11019e-09
3.30745e-09
4.83208e-07
1.52396e-09
2.54961e-09
4.80896e-07
1.08187e-09
1.94679e-09
4.7923e-07
7.39635e-10
1.48802e-09
4.78061e-07
4.85988e-10
1.15797e-09
4.77302e-07
2.61126e-10
9.70085e-10
4.77013e-07
-4.67971e-11
8.95716e-10
4.77746e-07
-8.11212e-10
7.06414e-10
4.81549e-07
-2.95968e-09
-3.67095e-10
-1.05998e-08
-5.1483e-09
9.2353e-07
7.00046e-09
7.00056e-09
9.2538e-07
1.96978e-08
1.9698e-08
9.17492e-07
2.23879e-08
2.23885e-08
9.05002e-07
2.16174e-08
2.16184e-08
8.92102e-07
1.954e-08
1.95418e-08
8.80379e-07
1.62274e-08
1.62309e-08
8.70398e-07
1.25922e-08
1.2598e-08
8.62364e-07
9.47301e-09
9.48229e-09
8.56125e-07
7.07148e-09
7.08652e-09
8.51432e-07
5.23892e-09
5.26356e-09
8.48002e-07
3.81622e-09
3.85652e-09
8.45524e-07
2.74891e-09
2.81534e-09
8.43704e-07
1.96949e-09
2.07872e-09
8.42347e-07
1.38376e-09
1.56292e-09
8.41298e-07
9.62657e-10
1.2569e-09
8.4047e-07
6.08734e-10
1.0869e-09
8.39822e-07
2.07518e-10
9.71222e-10
8.39148e-07
-4.38843e-10
7.49863e-10
8.37395e-07
-1.62013e-09
9.26969e-11
-3.35912e-09
-1.36416e-09
1.1589e-06
5.26214e-09
6.08333e-09
1.16571e-06
1.38803e-08
1.60526e-08
1.16845e-06
1.76676e-08
2.03313e-08
1.1667e-06
1.85672e-08
2.1339e-08
1.16259e-06
1.77596e-08
2.01762e-08
1.15734e-06
1.56721e-08
1.77388e-08
1.15196e-06
1.29887e-08
1.46219e-08
1.14703e-06
1.03564e-08
1.16553e-08
1.14285e-06
8.04679e-09
9.13282e-09
1.13951e-06
6.0941e-09
7.04765e-09
1.13693e-06
4.52452e-09
5.35232e-09
1.13498e-06
3.31842e-09
4.01962e-09
1.13354e-06
2.40796e-09
3.00166e-09
1.13243e-06
1.74249e-09
2.26889e-09
1.1315e-06
1.28944e-09
1.80257e-09
1.13063e-06
9.89163e-10
1.55281e-09
1.12969e-06
7.90912e-10
1.49013e-09
1.12848e-06
6.4933e-10
1.57884e-09
1.1265e-06
5.72468e-10
1.81157e-09
1.0228e-09
2.60491e-09
1.32761e-06
2.71188e-09
4.93242e-09
1.33535e-06
7.06368e-09
1.2952e-08
1.34269e-06
9.38273e-09
1.69979e-08
1.34807e-06
1.02201e-08
1.84075e-08
1.35126e-06
1.0179e-08
1.85119e-08
1.35269e-06
9.34377e-09
1.73584e-08
1.35293e-06
8.04223e-09
1.53511e-08
1.35243e-06
6.63498e-09
1.302e-08
1.3516e-06
5.26826e-09
1.06314e-08
1.35066e-06
4.04119e-09
8.38545e-09
1.34975e-06
3.03728e-09
6.47001e-09
1.34895e-06
2.26062e-09
4.92677e-09
1.34826e-06
1.68655e-09
3.72065e-09
1.34764e-06
1.29189e-09
2.81253e-09
1.34707e-06
1.05858e-09
2.18174e-09
1.34646e-06
9.78428e-10
1.80911e-09
1.34574e-06
1.0421e-09
1.66452e-09
1.34481e-06
1.2648e-09
1.72558e-09
1.34352e-06
1.69072e-09
2.00709e-09
2.40343e-09
2.70111e-09
1.41514e-06
1.3411e-13
4.20936e-09
1.42268e-06
3.56151e-13
1.11294e-08
1.43125e-06
6.23857e-13
1.50176e-08
1.4392e-06
1.12759e-12
1.63754e-08
1.44592e-06
1.99315e-12
1.66889e-08
1.45103e-06
3.38658e-12
1.6235e-08
1.4546e-06
5.48268e-12
1.49516e-08
1.45694e-06
9.02057e-12
1.31173e-08
1.45831e-06
1.46789e-11
1.10887e-08
1.45898e-06
2.39215e-11
9.0642e-09
1.45924e-06
3.88106e-11
7.179e-09
1.45926e-06
6.28792e-11
5.50314e-09
1.45917e-06
1.01902e-10
4.12081e-09
1.45903e-06
1.65082e-10
3.06879e-09
1.45889e-06
2.66421e-10
2.29497e-09
1.45875e-06
4.25068e-10
1.75658e-09
1.45862e-06
6.66816e-10
1.41464e-09
1.45849e-06
1.02932e-09
1.22584e-09
1.45833e-06
1.54365e-09
1.18749e-09
2.14791e-09
1.3728e-09
1.41514e-06
-2.71174e-09
4.2093e-09
1.42268e-06
-7.06328e-09
1.11292e-08
1.43126e-06
-9.382e-09
1.50173e-08
1.4392e-06
-1.02187e-08
1.63747e-08
1.44593e-06
-1.01765e-08
1.66875e-08
1.45104e-06
-9.33963e-09
1.62328e-08
1.45461e-06
-8.03542e-09
1.4948e-08
1.45696e-06
-6.6233e-09
1.31116e-08
1.45835e-06
-5.2498e-09
1.10796e-08
1.45904e-06
-4.011e-09
9.04962e-09
1.45933e-06
-2.98714e-09
7.15617e-09
1.45941e-06
-2.17834e-09
5.46584e-09
1.45941e-06
-1.55228e-09
4.05853e-09
1.45942e-06
-1.06891e-09
2.96676e-09
1.45948e-06
-6.84845e-10
2.12906e-09
1.45964e-06
-3.57613e-10
1.49039e-09
1.45992e-06
-2.68621e-11
9.97654e-10
1.46034e-06
3.72336e-10
5.91029e-10
1.46087e-06
8.94436e-10
2.53445e-10
1.52649e-09
5.66157e-11
1.32761e-06
-5.26221e-09
4.9323e-09
1.33535e-06
-1.38804e-08
1.29516e-08
1.34269e-06
-1.76677e-08
1.69971e-08
1.34808e-06
-1.85673e-08
1.84057e-08
1.35127e-06
-1.77598e-08
1.85087e-08
1.35271e-06
-1.56727e-08
1.73535e-08
1.35296e-06
-1.29898e-08
1.53433e-08
1.35248e-06
-1.03578e-08
1.30075e-08
1.35167e-06
-8.04981e-09
1.06121e-08
1.35079e-06
-6.09885e-09
8.35393e-09
1.34996e-06
-4.53056e-09
6.41669e-09
1.34928e-06
-3.32643e-09
4.83853e-09
1.34879e-06
-2.42181e-09
3.57674e-09
1.3485e-06
-1.76055e-09
2.57252e-09
1.34844e-06
-1.29571e-09
1.7796e-09
1.3486e-06
-9.56274e-10
1.1464e-09
1.34899e-06
-6.62452e-10
5.91783e-10
1.34958e-06
-3.00142e-10
3.6351e-11
1.3502e-06
2.72074e-10
-5.63181e-10
1.17618e-09
-1.09133e-09
1.1589e-06
-7.00056e-09
6.0832e-09
1.16571e-06
-1.96981e-08
1.60521e-08
1.16845e-06
-2.23884e-08
2.03302e-08
1.1667e-06
-2.16183e-08
2.13372e-08
1.1626e-06
-1.95415e-08
2.01734e-08
1.15735e-06
-1.62306e-08
1.77344e-08
1.15198e-06
-1.25977e-08
1.4615e-08
1.14706e-06
-9.48187e-09
1.16434e-08
1.1429e-06
-7.0861e-09
9.11298e-09
1.1396e-06
-5.26298e-09
7.01475e-09
1.13707e-06
-3.85503e-09
5.29761e-09
1.13522e-06
-2.80903e-09
3.92861e-09
1.13393e-06
-2.07831e-09
2.85348e-09
1.13308e-06
-1.57825e-09
2.0251e-09
1.13259e-06
-1.26292e-09
1.38806e-09
1.13243e-06
-1.07893e-09
8.47189e-10
1.1326e-06
-9.67085e-10
3.02513e-10
1.133e-06
-7.50705e-10
-3.86962e-10
1.13308e-06
-9.516e-11
-1.34605e-09
1.36529e-09
-2.40268e-09
9.2353e-07
-7.3266e-09
7.00046e-09
9.2538e-07
-2.06226e-08
1.96977e-08
9.17492e-07
-1.84444e-08
2.23879e-08
9.05002e-07
-1.53732e-08
2.16174e-08
8.92102e-07
-1.3091e-08
1.954e-08
8.80379e-07
-1.03684e-08
1.62275e-08
8.70398e-07
-7.60587e-09
1.25923e-08
8.62365e-07
-5.46335e-09
9.47314e-09
8.56126e-07
-3.9636e-09
7.07154e-09
8.51434e-07
-2.91126e-09
5.23867e-09
8.48009e-07
-2.13391e-09
3.81483e-09
8.45541e-07
-1.5603e-09
2.7422e-09
8.43718e-07
-1.14379e-09
1.96802e-09
8.42337e-07
-8.53254e-10
1.39861e-09
8.41275e-07
-6.83671e-10
9.69781e-10
8.40453e-07
-6.01982e-10
6.02698e-10
8.39812e-07
-5.77818e-10
2.05364e-10
8.39139e-07
-4.50659e-10
-4.36138e-10
8.37384e-07
3.17819e-10
-1.61563e-09
-9.64798e-10
-3.35788e-09
6.31299e-07
3.58135e-09
6.14661e-07
2.2674e-08
5.86893e-07
2.43133e-08
5.6297e-07
1.84489e-08
5.42272e-07
1.46469e-08
5.25621e-07
1.1762e-08
5.1287e-07
9.27372e-09
5.03239e-07
7.22843e-09
4.95964e-07
5.56691e-09
4.90455e-07
4.27338e-09
4.86277e-07
3.27742e-09
4.83105e-07
2.50005e-09
4.80728e-07
1.85423e-09
4.7895e-07
1.32647e-09
4.77567e-07
9.17072e-10
4.76382e-07
6.08914e-10
4.752e-07
3.62199e-10
4.7388e-07
3.76449e-11
4.72775e-07
-8.63694e-10
2.65435e-09
8.90367e-07
6.32219e-09
2.86404e-09
8.82581e-07
1.70493e-08
1.34117e-08
8.70854e-07
1.8345e-08
1.76956e-08
8.56294e-07
1.65414e-08
1.64679e-08
8.42416e-07
1.42875e-08
1.42388e-08
8.30195e-07
1.19296e-08
1.20566e-08
8.19734e-07
9.633e-09
1.01053e-08
8.11076e-07
7.60302e-09
8.29053e-09
8.04148e-07
5.91879e-09
6.58733e-09
7.98808e-07
4.54211e-09
5.09136e-09
7.94804e-07
3.44972e-09
3.86108e-09
7.91871e-07
2.59416e-09
2.88872e-09
7.89769e-07
1.91022e-09
2.13849e-09
7.88327e-07
1.3668e-09
1.56316e-09
7.87444e-07
9.34238e-10
1.10655e-09
7.87124e-07
5.57906e-10
7.32612e-10
7.875e-07
1.61864e-10
3.57308e-10
7.88826e-07
-4.52008e-10
-1.67332e-10
7.91442e-07
-1.6309e-09
-1.35229e-09
-3.8223e-09
-3.5952e-09
1.1589e-06
6.0832e-09
5.26219e-09
1.16571e-06
1.60521e-08
1.38804e-08
1.16845e-06
2.03302e-08
1.76677e-08
1.1667e-06
2.13372e-08
1.85674e-08
1.1626e-06
2.01732e-08
1.776e-08
1.15735e-06
1.77343e-08
1.5673e-08
1.15198e-06
1.46149e-08
1.29902e-08
1.14706e-06
1.16434e-08
1.03583e-08
1.1429e-06
9.11324e-09
8.05047e-09
1.13959e-06
7.0154e-09
6.09987e-09
1.13707e-06
5.29891e-09
4.53228e-09
1.13522e-06
3.93082e-09
3.32885e-09
1.13393e-06
2.85342e-09
2.42079e-09
1.13309e-06
2.02033e-09
1.75512e-09
1.1326e-06
1.38399e-09
1.29269e-09
1.13244e-06
8.46088e-10
9.56723e-10
1.13261e-06
3.01174e-10
6.62569e-10
1.133e-06
-3.89463e-10
2.98831e-10
1.13308e-06
-1.3485e-09
-2.73695e-10
-2.40169e-09
-1.17514e-09
1.37713e-06
4.55489e-09
4.55501e-09
1.38563e-06
1.18016e-08
1.18019e-08
1.39401e-06
1.6138e-08
1.61386e-08
1.40083e-06
1.79293e-08
1.79304e-08
1.40552e-06
1.78288e-08
1.78307e-08
1.40806e-06
1.64661e-08
1.64693e-08
1.40889e-06
1.41988e-08
1.4204e-08
1.40875e-06
1.17138e-08
1.1722e-08
1.40821e-06
9.38729e-09
9.40027e-09
1.40756e-06
7.34835e-09
7.36921e-09
1.40693e-06
5.62435e-09
5.658e-09
1.40639e-06
4.21491e-09
4.26905e-09
1.40597e-06
3.09476e-09
3.18151e-09
1.40566e-06
2.23223e-09
2.37042e-09
1.40546e-06
1.58337e-09
1.80161e-09
1.40535e-06
1.08216e-09
1.42175e-09
1.4053e-06
6.63172e-10
1.17894e-09
1.4052e-06
2.69538e-10
1.0231e-09
1.40484e-06
-1.01642e-10
9.26106e-10
-2.87069e-10
9.39302e-10
1.53311e-06
2.35628e-09
3.65713e-09
1.54208e-06
6.17983e-09
9.60337e-09
1.55297e-06
8.70936e-09
1.35304e-08
1.56381e-06
9.98197e-09
1.55137e-08
1.57384e-06
1.02391e-08
1.60741e-08
1.58244e-06
9.68802e-09
1.5541e-08
1.58918e-06
8.6265e-09
1.41749e-08
1.59429e-06
7.29763e-09
1.23263e-08
1.59805e-06
5.94218e-09
1.03188e-08
1.60073e-06
4.69024e-09
8.36574e-09
1.6026e-06
3.61508e-09
6.60526e-09
1.6039e-06
2.74029e-09
5.10529e-09
1.60478e-06
2.05263e-09
3.88269e-09
1.60537e-06
1.52943e-09
2.92975e-09
1.60575e-06
1.15201e-09
2.22803e-09
1.606e-06
8.95976e-10
1.74681e-09
1.60614e-06
7.34455e-10
1.44792e-09
1.60619e-06
6.53962e-10
1.29546e-09
1.60615e-06
6.65543e-10
1.28194e-09
8.09178e-10
1.45248e-09
1.61421e-06
1.03613e-13
3.1229e-09
1.62321e-06
2.39477e-13
8.31149e-09
1.63503e-06
4.1428e-13
1.19132e-08
1.64752e-06
7.09124e-13
1.38595e-08
1.65987e-06
1.16165e-12
1.458e-08
1.67135e-06
1.85978e-12
1.44436e-08
1.68129e-06
2.88037e-12
1.36294e-08
1.68947e-06
4.57153e-12
1.22383e-08
1.69594e-06
7.21029e-12
1.05492e-08
1.7009e-06
1.13567e-11
8.78127e-09
1.70459e-06
1.78671e-11
7.08637e-09
1.70725e-06
2.81947e-11
5.56046e-09
1.70911e-06
4.45202e-11
4.26158e-09
1.71043e-06
7.01135e-11
3.21318e-09
1.71136e-06
1.09765e-10
2.41017e-09
1.71203e-06
1.69569e-10
1.81171e-09
1.71254e-06
2.57278e-10
1.378e-09
1.71296e-06
3.82384e-10
1.0732e-09
1.71338e-06
5.51923e-10
8.86982e-10
7.60757e-10
8.87572e-10
1.61421e-06
-2.3562e-09
3.12281e-09
1.62321e-06
-6.17965e-09
8.31126e-09
1.63503e-06
-8.70903e-09
1.19127e-08
1.64752e-06
-9.98142e-09
1.38587e-08
1.65987e-06
-1.02382e-08
1.45786e-08
1.67135e-06
-9.68669e-09
1.44415e-08
1.6813e-06
-8.62446e-09
1.36261e-08
1.68948e-06
-7.29439e-09
1.22331e-08
1.69596e-06
-5.93718e-09
1.05411e-08
1.70094e-06
-4.68229e-09
8.76837e-09
1.70465e-06
-3.60221e-09
7.06597e-09
1.70733e-06
-2.71981e-09
5.52808e-09
1.70925e-06
-2.02019e-09
4.21026e-09
1.71063e-06
-1.47629e-09
3.1325e-09
1.71164e-06
-1.06358e-09
2.28477e-09
1.71243e-06
-7.50722e-10
1.6204e-09
1.7131e-06
-5.00068e-10
1.09392e-09
1.71368e-06
-2.77612e-10
6.66442e-10
1.71422e-06
-6.53203e-11
3.31442e-10
1.31051e-10
1.88382e-10
1.53311e-06
-4.55503e-09
3.65695e-09
1.54208e-06
-1.18019e-08
9.60288e-09
1.55297e-06
-1.61386e-08
1.35295e-08
1.56382e-06
-1.79302e-08
1.55121e-08
1.57385e-06
-1.78304e-08
1.60715e-08
1.58244e-06
-1.6469e-08
1.55369e-08
1.5892e-06
-1.42035e-08
1.41681e-08
1.59432e-06
-1.17213e-08
1.23156e-08
1.59809e-06
-9.39946e-09
1.03018e-08
1.60079e-06
-7.36811e-09
8.33844e-09
1.6027e-06
-5.65656e-09
6.56121e-09
1.60405e-06
-4.26752e-09
5.03476e-09
1.60502e-06
-3.18124e-09
3.77052e-09
1.60574e-06
-2.37242e-09
2.75103e-09
1.60631e-06
-1.80399e-09
1.9448e-09
1.60683e-06
-1.42287e-09
1.30626e-09
1.60732e-06
-1.17936e-09
7.80724e-10
1.60778e-06
-1.02307e-09
3.20601e-10
1.60815e-06
-9.24804e-10
-7.51898e-11
-9.35531e-10
-3.02011e-10
1.37713e-06
-6.08336e-09
4.55487e-09
1.38563e-06
-1.60526e-08
1.18015e-08
1.39401e-06
-2.03312e-08
1.61379e-08
1.40083e-06
-2.13388e-08
1.79293e-08
1.40552e-06
-2.01758e-08
1.78288e-08
1.40806e-06
-1.77384e-08
1.64661e-08
1.40889e-06
-1.46214e-08
1.41988e-08
1.40875e-06
-1.16547e-08
1.17137e-08
1.40821e-06
-9.13205e-09
9.38702e-09
1.40756e-06
-7.04654e-09
7.34784e-09
1.40692e-06
-5.35048e-09
5.62357e-09
1.40639e-06
-4.01645e-09
4.21418e-09
1.40597e-06
-3.00022e-09
3.09542e-09
1.40566e-06
-2.27216e-09
2.235e-09
1.40546e-06
-1.80575e-09
1.58621e-09
1.40535e-06
-1.55364e-09
1.08356e-09
1.4053e-06
-1.49148e-09
6.63759e-10
1.40521e-06
-1.58097e-09
2.69547e-10
1.40485e-06
-1.81306e-09
-1.02922e-10
-2.60179e-09
-2.90755e-10
1.1589e-06
-6.32223e-09
5.26212e-09
1.16571e-06
-1.70494e-08
1.38802e-08
1.16845e-06
-1.83456e-08
1.76676e-08
1.1667e-06
-1.65424e-08
1.85671e-08
1.16259e-06
-1.4289e-08
1.77595e-08
1.15734e-06
-1.19318e-08
1.5672e-08
1.15196e-06
-9.63647e-09
1.29886e-08
1.14703e-06
-7.60898e-09
1.03563e-08
1.14285e-06
-5.92863e-09
8.04656e-09
1.13951e-06
-4.55875e-09
6.09354e-09
1.13693e-06
-3.47874e-09
4.5232e-09
1.13498e-06
-2.64413e-09
3.31583e-09
1.13354e-06
-1.99193e-09
2.40738e-09
1.13242e-06
-1.50785e-09
1.74678e-09
1.13149e-06
-1.1985e-09
1.29355e-09
1.13062e-06
-1.06598e-09
9.90796e-10
1.12968e-06
-1.1428e-09
7.92867e-10
1.12848e-06
-1.46447e-09
6.51982e-10
1.12651e-06
-2.03225e-09
5.74587e-10
-5.53081e-09
1.02115e-09
8.90367e-07
2.86401e-09
8.8258e-07
1.34116e-08
8.70852e-07
1.76955e-08
8.56291e-07
1.6468e-08
8.4241e-07
1.42391e-08
8.30183e-07
1.20573e-08
8.19713e-07
1.01066e-08
8.1104e-07
8.29235e-09
8.04088e-07
6.59019e-09
7.98706e-07
5.09642e-09
7.94634e-07
3.87062e-09
7.91584e-07
2.90595e-09
7.89276e-07
2.17028e-09
7.87467e-07
1.62794e-09
7.85933e-07
1.25209e-09
7.84427e-07
1.04934e-09
7.82615e-07
1.03094e-09
7.79905e-07
1.28374e-09
7.74983e-07
2.02614e-09
6.50267e-09
1.07432e-06
5.56997e-09
1.06929e-09
1.06829e-06
1.38692e-08
5.57376e-09
1.06156e-06
1.60575e-08
8.37278e-09
1.05383e-06
1.54431e-08
8.74656e-09
1.046e-06
1.41155e-08
7.96021e-09
1.03869e-06
1.24608e-08
6.90236e-09
1.03231e-06
1.06351e-08
5.84773e-09
1.02697e-06
8.79627e-09
4.83234e-09
1.02268e-06
7.00586e-09
3.87547e-09
1.01936e-06
5.37883e-09
3.02704e-09
1.01687e-06
4.04796e-09
2.30773e-09
1.01502e-06
3.01409e-09
1.72223e-09
1.0137e-06
2.2169e-09
1.24882e-09
1.0128e-06
1.59574e-09
8.59487e-10
1.01229e-06
1.10402e-09
5.125e-10
1.01215e-06
7.06543e-10
1.70726e-10
1.01238e-06
3.4464e-10
-2.14584e-10
1.01298e-06
-5.40769e-11
-7.1562e-10
1.01362e-06
-5.70228e-10
-1.4278e-09
-1.09758e-09
-2.31235e-09
1.32761e-06
4.93232e-09
2.71173e-09
1.33535e-06
1.29516e-08
7.06325e-09
1.34269e-06
1.6997e-08
9.38198e-09
1.34808e-06
1.84056e-08
1.02187e-08
1.35127e-06
1.85086e-08
1.01766e-08
1.35271e-06
1.73534e-08
9.33977e-09
1.35296e-06
1.53433e-08
8.03564e-09
1.35248e-06
1.30075e-08
6.62362e-09
1.35167e-06
1.06124e-08
5.25028e-09
1.35079e-06
8.3545e-09
4.01171e-09
1.34996e-06
6.41752e-09
2.9881e-09
1.34928e-06
4.83895e-09
2.17903e-09
1.3488e-06
3.57428e-09
1.55094e-09
1.34851e-06
2.56909e-09
1.06655e-09
1.34845e-06
1.77849e-09
6.83737e-10
1.34861e-06
1.14605e-09
3.57238e-10
1.349e-06
5.909e-10
2.64719e-11
1.34958e-06
3.47059e-11
-3.72986e-10
1.3502e-06
-5.65432e-10
-8.95074e-10
-1.09413e-09
-1.52692e-09
1.53311e-06
3.65699e-09
2.35619e-09
1.54208e-06
9.60292e-09
6.17963e-09
1.55297e-06
1.35295e-08
8.70904e-09
1.56382e-06
1.5512e-08
9.98148e-09
1.57385e-06
1.60714e-08
1.02383e-08
1.58244e-06
1.55368e-08
9.68686e-09
1.5892e-06
1.4168e-08
8.6247e-09
1.59432e-06
1.23156e-08
7.2947e-09
1.59809e-06
1.03018e-08
5.93757e-09
1.60079e-06
8.33856e-09
4.68272e-09
1.60271e-06
6.56128e-09
3.60257e-09
1.60406e-06
5.03438e-09
2.71973e-09
1.60503e-06
3.76905e-09
2.01911e-09
1.60574e-06
2.74899e-09
1.47471e-09
1.60632e-06
1.94349e-09
1.06269e-09
1.60683e-06
1.30588e-09
7.50729e-10
1.60732e-06
7.80844e-10
5.00623e-10
1.60777e-06
3.21048e-10
2.78537e-10
1.60814e-06
-7.43367e-11
6.66829e-11
-3.00567e-10
-1.29193e-10
1.68027e-06
1.8996e-09
1.89964e-09
1.6893e-06
5.0897e-09
5.08984e-09
1.70159e-06
7.38092e-09
7.38124e-09
1.71521e-06
8.706e-09
8.70659e-09
1.72895e-06
9.19821e-09
9.19919e-09
1.74194e-06
9.04787e-09
9.04942e-09
1.75348e-06
8.39717e-09
8.39956e-09
1.76327e-06
7.42295e-09
7.42667e-09
1.77128e-06
6.30349e-09
6.30932e-09
1.77763e-06
5.17285e-09
5.18201e-09
1.78254e-06
4.1212e-09
4.13563e-09
1.78626e-06
3.19811e-09
3.22069e-09
1.78904e-06
2.42006e-09
2.45506e-09
1.79109e-06
1.78526e-09
1.83871e-09
1.79261e-06
1.28699e-09
1.36701e-09
1.79373e-06
9.0561e-10
1.02222e-09
1.79457e-06
6.12928e-10
7.76475e-10
1.7952e-06
3.85482e-10
6.0208e-10
1.7957e-06
2.25217e-10
4.86733e-10
1.91147e-10
4.61185e-10
1.75692e-06
2.2686e-14
1.63458e-09
1.76591e-06
2.83023e-14
4.41289e-09
1.77869e-06
2.50766e-14
6.5135e-09
1.79344e-06
2.59054e-14
7.80845e-09
1.80882e-06
3.27835e-14
8.3996e-09
1.82389e-06
4.24792e-14
8.42434e-09
1.8379e-06
1.15935e-13
8.01849e-09
1.85027e-06
1.99848e-13
7.28707e-09
1.86076e-06
2.95326e-13
6.35987e-09
1.86936e-06
4.1247e-13
5.35805e-09
1.87619e-06
5.75517e-13
4.37563e-09
1.88147e-06
8.48226e-13
3.47361e-09
1.88547e-06
1.36895e-12
2.68225e-09
1.88846e-06
2.43122e-12
2.00662e-09
1.89067e-06
4.55253e-12
1.48428e-09
1.89228e-06
8.55493e-12
1.10101e-09
1.89344e-06
1.58169e-11
8.17164e-10
1.89426e-06
2.86097e-11
6.06499e-10
1.89488e-06
5.06022e-11
4.3916e-10
9.23803e-11
4.60532e-10
1.75692e-06
-1.89966e-09
1.63453e-09
1.76591e-06
-5.08987e-09
4.41275e-09
1.77869e-06
-7.38125e-09
6.51322e-09
1.79344e-06
-8.70655e-09
7.80797e-09
1.80882e-06
-9.1991e-09
8.39885e-09
1.82389e-06
-9.04928e-09
8.42322e-09
1.8379e-06
-8.39936e-09
8.01677e-09
1.85027e-06
-7.42639e-09
7.28439e-09
1.86077e-06
-6.30897e-09
6.35571e-09
1.86937e-06
-5.18161e-09
5.35159e-09
1.8762e-06
-4.13522e-09
4.36561e-09
1.8815e-06
-3.22041e-09
3.45818e-09
1.8855e-06
-2.45513e-09
2.6587e-09
1.88851e-06
-1.83915e-09
1.97118e-09
1.89073e-06
-1.36747e-09
1.43172e-09
1.89236e-06
-1.02241e-09
1.02475e-09
1.89353e-06
-7.76398e-10
7.10229e-10
1.89437e-06
-6.01777e-10
4.63561e-10
1.89497e-06
-4.86299e-10
2.60157e-10
-4.60815e-10
2.54352e-10
1.68027e-06
-3.65717e-09
1.89958e-09
1.6893e-06
-9.6034e-09
5.08965e-09
1.70159e-06
-1.35303e-08
7.38088e-09
1.71521e-06
-1.55135e-08
8.70598e-09
1.72895e-06
-1.60739e-08
9.1982e-09
1.74193e-06
-1.55407e-08
9.04788e-09
1.75348e-06
-1.41745e-08
8.39719e-09
1.76327e-06
-1.23257e-08
7.42298e-09
1.77128e-06
-1.0318e-08
6.30354e-09
1.77763e-06
-8.36481e-09
5.17293e-09
1.78254e-06
-6.60416e-09
4.12139e-09
1.78626e-06
-5.10421e-09
3.19852e-09
1.78903e-06
-3.88224e-09
2.42085e-09
1.79109e-06
-2.93038e-09
1.7863e-09
1.79261e-06
-2.22915e-09
1.28777e-09
1.79373e-06
-1.74777e-09
9.05841e-10
1.79457e-06
-1.44861e-09
6.12613e-10
1.7952e-06
-1.29585e-09
3.84653e-10
1.7957e-06
-1.28198e-09
2.23924e-10
-1.45211e-09
1.89466e-10
1.53311e-06
-4.93245e-09
2.35626e-09
1.54208e-06
-1.2952e-08
6.17979e-09
1.55297e-06
-1.69978e-08
8.7093e-09
1.56381e-06
-1.84073e-08
9.9819e-09
1.57384e-06
-1.85115e-08
1.0239e-08
1.58244e-06
-1.73579e-08
9.68791e-09
1.58918e-06
-1.53505e-08
8.62636e-09
1.59429e-06
-1.30193e-08
7.29749e-09
1.59805e-06
-1.06306e-08
5.94202e-09
1.60073e-06
-8.38441e-09
4.69005e-09
1.6026e-06
-6.46859e-09
3.6149e-09
1.6039e-06
-4.92499e-09
2.7403e-09
1.60478e-06
-3.71963e-09
2.05331e-09
1.60536e-06
-2.81341e-09
1.53095e-09
1.60575e-06
-2.18347e-09
1.15362e-09
1.606e-06
-1.81067e-09
8.96931e-10
1.60615e-06
-1.66608e-09
7.34628e-10
1.60619e-06
-1.72716e-09
6.53349e-10
1.60615e-06
-2.00841e-09
6.63985e-10
-2.70137e-09
8.06739e-10
1.32761e-06
-5.56997e-09
2.71188e-09
1.33535e-06
-1.38692e-08
7.06365e-09
1.34269e-06
-1.60577e-08
9.38269e-09
1.34807e-06
-1.54439e-08
1.022e-08
1.35126e-06
-1.4117e-08
1.01789e-08
1.35269e-06
-1.24633e-08
9.34358e-09
1.35293e-06
-1.06391e-08
8.042e-09
1.35243e-06
-8.80296e-09
6.6347e-09
1.3516e-06
-7.01564e-09
5.26794e-09
1.35066e-06
-5.39508e-09
4.04073e-09
1.34976e-06
-4.07666e-09
3.0366e-09
1.34895e-06
-3.0637e-09
2.25985e-09
1.34825e-06
-2.3032e-09
1.68662e-09
1.34764e-06
-1.7482e-09
1.29356e-09
1.34707e-06
-1.37665e-09
1.06093e-09
1.34646e-06
-1.1905e-09
9.80411e-10
1.34574e-06
-1.19469e-09
1.04375e-09
1.34481e-06
-1.41489e-09
1.26605e-09
1.34353e-06
-1.84033e-09
1.69116e-09
-3.5704e-09
2.40243e-09
1.07432e-06
1.06943e-09
1.06829e-06
5.57425e-09
1.06155e-06
8.37375e-09
1.05383e-06
8.74819e-09
1.04599e-06
7.96301e-09
1.03867e-06
6.90719e-09
1.03229e-06
5.85605e-09
1.02693e-06
4.84616e-09
1.0226e-06
3.89854e-09
1.01924e-06
3.06542e-09
1.01666e-06
2.3717e-09
1.01468e-06
1.82924e-09
1.01311e-06
1.42819e-09
1.01183e-06
1.16235e-09
1.01067e-06
1.03574e-09
1.00946e-06
1.06737e-09
1.00801e-06
1.28729e-09
1.00606e-06
1.81735e-09
1.00338e-06
2.86831e-09
5.60357e-09
1.16916e-06
4.89622e-09
-3.36501e-14
1.16313e-06
1.16033e-08
-2.69444e-13
1.15729e-06
1.42099e-08
-6.79377e-13
1.15194e-06
1.41013e-08
-1.19642e-12
1.14667e-06
1.32342e-08
-2.0211e-12
1.14157e-06
1.20008e-08
-3.45034e-12
1.13694e-06
1.04811e-08
-5.76762e-12
1.13296e-06
8.82392e-09
-9.60489e-12
1.12965e-06
7.20202e-09
-1.5945e-11
1.12699e-06
5.71383e-09
-2.65088e-11
1.12492e-06
4.41838e-09
-4.39532e-11
1.12341e-06
3.30613e-09
-7.25659e-11
1.12237e-06
2.40733e-09
-1.19501e-10
1.12169e-06
1.73618e-09
-1.96616e-10
1.12129e-06
1.2386e-09
-3.23928e-10
1.12112e-06
8.68844e-10
-5.30234e-10
1.12117e-06
5.87572e-10
-8.54404e-10
1.12147e-06
3.51585e-10
-1.35994e-09
1.12204e-06
1.31438e-10
-2.12959e-09
9.32145e-11
-3.35515e-09
1.41514e-06
4.20934e-09
-1.17084e-13
1.42268e-06
1.11292e-08
-3.68676e-13
1.43126e-06
1.50172e-08
-6.47754e-13
1.4392e-06
1.63745e-08
-1.15278e-12
1.44593e-06
1.66873e-08
-2.01316e-12
1.45104e-06
1.62326e-08
-3.39257e-12
1.45461e-06
1.49478e-08
-5.45934e-12
1.45696e-06
1.31115e-08
-8.96137e-12
1.45835e-06
1.10796e-08
-1.4569e-11
1.45904e-06
9.04971e-09
-2.3766e-11
1.45933e-06
7.15645e-09
-3.86617e-11
1.45942e-06
5.46628e-09
-6.2911e-11
1.45942e-06
4.0589e-09
-1.02403e-10
1.45942e-06
2.9664e-09
-1.65939e-10
1.45948e-06
2.128e-09
-2.67133e-10
1.45964e-06
1.48928e-09
-4.25484e-10
1.45993e-06
9.96522e-10
-6.67062e-10
1.46035e-06
5.8978e-10
-1.0294e-09
1.46087e-06
2.51956e-10
-1.54352e-09
5.49161e-11
-2.14779e-09
1.61421e-06
3.12286e-09
-9.4052e-14
1.62321e-06
8.3113e-09
-2.47702e-13
1.63503e-06
1.19127e-08
-4.35088e-13
1.64752e-06
1.38586e-08
-7.35608e-13
1.65987e-06
1.45785e-08
-1.19011e-12