/*--------------------------------*- C++ -*----------------------------------*\
| =========                 |                                                 |
| \\      /  F ield         | OpenFOAM: The Open Source CFD Toolbox           |
|  \\    /   O peration     | Version:  2212                                  |
|   \\  /    A nd           | Website:  www.openfoam.com                      |
|    \\/     M anipulation  |                                                 |
\*---------------------------------------------------------------------------*/
FoamFile
{
    version     2.0;
    format      ascii;
    arch        "LSB;label=32;scalar=64";
    class       volVectorField;
    location    "1.35";
    object      U;
}
// * * * * * * * * * * * * * * * * * * * * * * * * * * * * * * * * * * * * * //

dimensions      [0 1 -1 0 0 0 0];

internalField   nonuniform List<vector> 
693
(
(0.0244347 8.90524e-06 4.68144e-05)
(0.0241528 9.66396e-06 4.77755e-05)
(0.0238762 1.20465e-05 4.87163e-05)
(0.0236026 1.46995e-05 5.03261e-05)
(0.0233267 1.71635e-05 5.24218e-05)
(0.023059 2.0746e-05 5.24154e-05)
(0.0410377 -0.000161305 0.000177929)
(0.0406165 -0.000148409 0.000178361)
(0.0402046 -0.000137201 0.000180523)
(0.0397943 -0.00012943 0.000183782)
(0.039383 -0.000124609 0.000187134)
(0.0389834 -0.000118539 0.000188077)
(0.0568245 -0.000535144 0.000228106)
(0.0562709 -0.000497701 0.000222032)
(0.0557217 -0.000471158 0.000222856)
(0.0551797 -0.000450451 0.000223204)
(0.0546448 -0.00043617 0.000223404)
(0.0541222 -0.00042761 0.000226338)
(0.0663932 -0.000946762 0.000285517)
(0.0657111 -0.000922103 0.000287029)
(0.0650306 -0.000898113 0.000287638)
(0.0643805 -0.000875521 0.000284784)
(0.063725 -0.00085502 0.000278323)
(0.0631051 -0.000839429 0.000274253)
(0.071497 -0.00117422 0.000302358)
(0.0707525 -0.00115124 0.000287175)
(0.0700261 -0.00112515 0.000274098)
(0.0693113 -0.00109876 0.000262699)
(0.0686077 -0.00107341 0.00024986)
(0.0679228 -0.00105184 0.000236623)
(0.0718366 -0.00120282 0.000277758)
(0.0711125 -0.00117565 0.000263631)
(0.0704079 -0.00114276 0.00024756)
(0.0697209 -0.00110853 0.000229755)
(0.0690505 -0.00107644 0.000210674)
(0.0683997 -0.00105017 0.000189385)
(0.0681283 -0.00104615 0.000189993)
(0.0674738 -0.00101705 0.000169943)
(0.0668437 -0.000980903 0.000144253)
(0.0662117 -0.000943356 0.000117703)
(0.0656027 -0.000909868 9.4173e-05)
(0.0650019 -0.000887281 7.18736e-05)
(0.0611481 -0.000729603 4.65189e-05)
(0.0605728 -0.000670801 3.77039e-05)
(0.0600414 -0.000585082 2.83359e-05)
(0.0595018 -0.000528556 1.68372e-05)
(0.0589845 -0.000496218 8.26153e-06)
(0.0584619 -0.000477334 2.062e-06)
(0.0514287 -0.00034789 -5.09109e-05)
(0.0509383 -0.000337346 -4.71136e-05)
(0.0504634 -0.000326879 -4.07627e-05)
(0.0499662 -0.000317904 -3.4918e-05)
(0.0494836 -0.000312975 -2.94703e-05)
(0.0489964 -0.00030716 -2.24484e-05)
(0.0383233 -8.45464e-05 1.70841e-05)
(0.0379114 -8.36609e-05 2.23363e-05)
(0.037518 -8.21655e-05 3.30793e-05)
(0.0371223 -8.20913e-05 4.19125e-05)
(0.0367267 -8.50755e-05 4.7544e-05)
(0.0363421 -8.2493e-05 5.4709e-05)
(0.0244305 -4.77975e-05 9.94599e-06)
(0.0241498 -4.87483e-05 1.08139e-05)
(0.0238757 -5.01288e-05 1.31797e-05)
(0.0236013 -5.12338e-05 1.58449e-05)
(0.0233259 -5.30431e-05 1.78987e-05)
(0.0230587 -5.26478e-05 2.10348e-05)
(0.038332 1.26665e-05 8.429e-05)
(0.0379232 1.73165e-05 8.4035e-05)
(0.0375252 2.83974e-05 8.11395e-05)
(0.0371312 3.83202e-05 8.12501e-05)
(0.0367362 4.57312e-05 8.40826e-05)
(0.0363522 5.3821e-05 8.1837e-05)
(0.0710381 -0.000145999 0.000263034)
(0.0705865 -0.000149376 0.000276579)
(0.0701263 -0.0001495 0.000291061)
(0.0696504 -0.000146009 0.000302868)
(0.0691773 -0.000144223 0.000318759)
(0.0686975 -0.000132001 0.000317215)
(0.0911737 -0.000651073 0.000398584)
(0.0909742 -0.000643696 0.000409051)
(0.0907605 -0.000631101 0.000415991)
(0.0905345 -0.00062308 0.000427444)
(0.090289 -0.000621428 0.000444952)
(0.0900397 -0.000609567 0.000449286)
(0.100259 -0.00105833 0.000349488)
(0.10015 -0.00104784 0.000362387)
(0.100037 -0.00103701 0.000374762)
(0.0999128 -0.00102427 0.000385195)
(0.0997822 -0.00101842 0.000399558)
(0.0996472 -0.00100795 0.000410136)
(0.104148 -0.00130383 0.00038369)
(0.104066 -0.00129402 0.000400129)
(0.103977 -0.00128337 0.000412742)
(0.103877 -0.00126891 0.000419795)
(0.103775 -0.00125679 0.000424931)
(0.103669 -0.00123822 0.000424067)
(0.104423 -0.00133018 0.000380604)
(0.10436 -0.00131016 0.00038708)
(0.104294 -0.0013031 0.000394894)
(0.10422 -0.00129842 0.000400957)
(0.104142 -0.00129072 0.000403055)
(0.104063 -0.00127155 0.000400681)
(0.101984 -0.00118621 0.000310667)
(0.101936 -0.00117289 0.000302037)
(0.101884 -0.00115253 0.000293134)
(0.101839 -0.00113588 0.000284684)
(0.101782 -0.00112822 0.000275556)
(0.10173 -0.00109715 0.000267033)
(0.0971668 -0.000908148 0.000102431)
(0.0971098 -0.00089859 8.52171e-05)
(0.0970383 -0.000891843 6.74817e-05)
(0.0969639 -0.000889515 5.05406e-05)
(0.0968798 -0.00090031 3.37938e-05)
(0.0967926 -0.000877926 2.52961e-05)
(0.0883499 -0.000635779 -0.000162934)
(0.0881401 -0.000646961 -0.000176869)
(0.0879265 -0.000658652 -0.000188005)
(0.0876859 -0.000674419 -0.00019866)
(0.0874334 -0.000702357 -0.000210791)
(0.0871645 -0.000697682 -0.000207737)
(0.0710415 -0.000265513 -0.000140416)
(0.0705732 -0.000278393 -0.000142792)
(0.0701229 -0.000295602 -0.000144316)
(0.0696433 -0.000306197 -0.000141377)
(0.0691684 -0.000321747 -0.000141442)
(0.0686879 -0.000318778 -0.000129711)
(0.0410417 -0.000179941 -0.000158772)
(0.0406171 -0.000180378 -0.000145795)
(0.0402098 -0.000183536 -0.000135848)
(0.0397989 -0.000185101 -0.000128069)
(0.0393887 -0.00018749 -0.000123705)
(0.0389909 -0.000187639 -0.000118216)
(0.051439 -5.40893e-05 0.000345213)
(0.0509622 -5.07448e-05 0.000335724)
(0.0504792 -4.49758e-05 0.000326468)
(0.0499866 -3.80406e-05 0.000317002)
(0.0495066 -3.02369e-05 0.000310821)
(0.0490227 -2.30234e-05 0.000306606)
(0.0883508 -0.000168648 0.000634592)
(0.088148 -0.00018237 0.000646635)
(0.0879293 -0.000191613 0.000652231)
(0.0876992 -0.000202734 0.000671786)
(0.0874405 -0.00021409 0.00070006)
(0.0871767 -0.000210672 0.000696289)
(0.105793 -0.000595339 0.000780228)
(0.10593 -0.000606419 0.000793215)
(0.106051 -0.000614723 0.0008034)
(0.106175 -0.000623456 0.000816697)
(0.106278 -0.000636274 0.000840848)
(0.106389 -0.000636266 0.000844703)
(0.113555 -0.000961165 0.00058675)
(0.113796 -0.000963655 0.00059781)
(0.114033 -0.000970061 0.000614035)
(0.11426 -0.000974223 0.000630278)
(0.114488 -0.000984555 0.000654512)
(0.114703 -0.000985728 0.000667146)
(0.116928 -0.00121439 0.000478417)
(0.117185 -0.00121241 0.000494563)
(0.117438 -0.00120646 0.00050625)
(0.117691 -0.00119895 0.000515129)
(0.117945 -0.00119592 0.000526077)
(0.118196 -0.00118796 0.00053454)
(0.117513 -0.00129421 0.000336735)
(0.117773 -0.00128438 0.000347339)
(0.118033 -0.00127415 0.000356112)
(0.118295 -0.00126759 0.000363256)
(0.118558 -0.0012621 0.000369302)
(0.118823 -0.00124096 0.000372063)
(0.116005 -0.0012258 0.00013873)
(0.116271 -0.00121339 0.00013562)
(0.116537 -0.0012003 0.000132808)
(0.11681 -0.00118623 0.000128683)
(0.117086 -0.00117629 0.00012263)
(0.117368 -0.00115935 0.000117712)
(0.112515 -0.00102454 -0.000189325)
(0.112773 -0.00100824 -0.000202162)
(0.113026 -0.000996385 -0.000216415)
(0.113289 -0.00100313 -0.000234997)
(0.113542 -0.00101793 -0.000254359)
(0.113799 -0.0010072 -0.000263627)
(0.105788 -0.000780749 -0.000590708)
(0.105931 -0.000792863 -0.000601801)
(0.106051 -0.000805492 -0.000612248)
(0.106176 -0.000819359 -0.000621806)
(0.106284 -0.000844192 -0.00063513)
(0.106394 -0.000847505 -0.000636265)
(0.0911756 -0.000398943 -0.000644998)
(0.0909759 -0.000409088 -0.000636322)
(0.0907644 -0.000422918 -0.000629886)
(0.0905358 -0.000430691 -0.000619964)
(0.0902909 -0.000448606 -0.000620169)
(0.0900407 -0.000451787 -0.000608815)
(0.0568451 -0.000232704 -0.000534445)
(0.0562775 -0.000225931 -0.000496474)
(0.0557387 -0.000225271 -0.000469561)
(0.0551944 -0.000223467 -0.000448998)
(0.0546605 -0.00022287 -0.000435667)
(0.0541399 -0.000224518 -0.0004278)
(0.0611574 4.26315e-05 0.000728787)
(0.0606051 3.57364e-05 0.000670018)
(0.0600554 2.66432e-05 0.000585311)
(0.0595381 1.61162e-05 0.00052785)
(0.0590072 9.2116e-06 0.000493985)
(0.0584965 4.07923e-06 0.000476304)
(0.0971775 9.7978e-05 0.000904124)
(0.0971119 8.04051e-05 0.000899082)
(0.0970465 6.32552e-05 0.000893584)
(0.096968 4.69164e-05 0.000890995)
(0.0968819 3.28832e-05 0.000892233)
(0.0967977 2.3573e-05 0.00088013)
(0.112514 -0.000192127 0.00102257)
(0.112766 -0.000206244 0.00100983)
(0.113022 -0.000220442 0.00100127)
(0.113276 -0.000235979 0.00099858)
(0.113534 -0.000255618 0.00101429)
(0.113783 -0.000267676 0.00101548)
(0.119599 -0.000508998 0.000733544)
(0.119957 -0.000517114 0.000733513)
(0.120315 -0.000526219 0.000736062)
(0.12067 -0.000536701 0.000742445)
(0.121029 -0.000548982 0.000753717)
(0.121382 -0.000553129 0.000752082)
(0.122862 -0.000745246 0.000487944)
(0.123247 -0.000746691 0.000491866)
(0.123632 -0.00074902 0.000496349)
(0.124016 -0.000751419 0.000501915)
(0.124401 -0.000754084 0.000509546)
(0.124784 -0.000747977 0.000511095)
(0.123695 -0.00085726 0.000207096)
(0.124085 -0.000850139 0.000210309)
(0.124474 -0.000845894 0.000213424)
(0.124865 -0.000843684 0.00021623)
(0.125257 -0.000842191 0.000218934)
(0.125647 -0.000829872 0.000219184)
(0.12262 -0.000850344 -0.000114681)
(0.123005 -0.000841663 -0.000116168)
(0.12339 -0.000835622 -0.00011812)
(0.123778 -0.000832648 -0.000121387)
(0.124169 -0.00083196 -0.000126466)
(0.124559 -0.000819614 -0.000129834)
(0.1196 -0.000734593 -0.000508895)
(0.11996 -0.00073283 -0.000516571)
(0.120316 -0.000734584 -0.000525873)
(0.120673 -0.000741019 -0.000535965)
(0.121031 -0.000752749 -0.000547678)
(0.121386 -0.000750517 -0.000551641)
(0.113549 -0.000588104 -0.000959711)
(0.113793 -0.000599105 -0.000962896)
(0.114027 -0.000616008 -0.000969709)
(0.114256 -0.000630484 -0.000972187)
(0.114486 -0.000655077 -0.000983119)
(0.114702 -0.000669492 -0.000985745)
(0.10025 -0.000351676 -0.00105562)
(0.100152 -0.000362398 -0.0010422)
(0.100035 -0.000379746 -0.00103733)
(0.0999142 -0.000385588 -0.00101938)
(0.0997856 -0.000401336 -0.00101668)
(0.0996508 -0.000411565 -0.00100663)
(0.0664267 -0.000288931 -0.000945213)
(0.0657313 -0.000290983 -0.000921662)
(0.0650638 -0.000288635 -0.000896857)
(0.0644097 -0.000284851 -0.000875051)
(0.0637551 -0.000277219 -0.00085478)
(0.0631366 -0.000270517 -0.000839717)
(0.0681547 0.000185349 0.00104355)
(0.0675053 0.000168404 0.00101316)
(0.0668731 0.000144699 0.000976826)
(0.0662478 0.000119142 0.000939377)
(0.0656377 9.56656e-05 0.000906211)
(0.0650411 7.54755e-05 0.00088196)
(0.101989 0.000306255 0.00118349)
(0.101937 0.000297636 0.00116919)
(0.101889 0.000289552 0.00115137)
(0.101838 0.000280906 0.00113664)
(0.101782 0.00027303 0.00112646)
(0.101727 0.000266245 0.00109593)
(0.115998 0.000136814 0.00122377)
(0.116262 0.000132143 0.00121316)
(0.116528 0.000128509 0.00120219)
(0.116799 0.000124601 0.00118729)
(0.117075 0.000118955 0.00117544)
(0.117353 0.000112802 0.00115686)
(0.122614 -0.000114557 0.000850675)
(0.122999 -0.000116753 0.000842963)
(0.123384 -0.000119272 0.000837781)
(0.123771 -0.000122744 0.000834958)
(0.124161 -0.000128688 0.000833924)
(0.12455 -0.000133577 0.000821197)
(0.12578 -0.000304261 0.000492626)
(0.126209 -0.000305279 0.000490385)
(0.126636 -0.00030648 0.000488862)
(0.127063 -0.000307985 0.000487833)
(0.127492 -0.000310905 0.000488172)
(0.127915 -0.000310959 0.00048295)
(0.126706 -0.000430589 0.000104291)
(0.127146 -0.000428038 0.000104042)
(0.127583 -0.000426287 0.000103928)
(0.128019 -0.000425133 0.0001038)
(0.128457 -0.000424996 0.000103704)
(0.128889 -0.00042012 0.000102331)
(0.125781 -0.00049218 -0.000305567)
(0.126211 -0.000489568 -0.000306424)
(0.126638 -0.000487735 -0.000307213)
(0.127065 -0.000486685 -0.000308163)
(0.127493 -0.000487248 -0.000310078)
(0.127917 -0.000482503 -0.000308716)
(0.122858 -0.000488573 -0.000746418)
(0.123243 -0.000491597 -0.000747642)
(0.123626 -0.000495423 -0.000749433)
(0.124009 -0.000500866 -0.000751232)
(0.124394 -0.0005085 -0.000753429)
(0.124777 -0.000509953 -0.000746714)
(0.11692 -0.000479452 -0.00121402)
(0.117176 -0.000494476 -0.00121197)
(0.117428 -0.000505672 -0.00120511)
(0.117682 -0.000514164 -0.00119749)
(0.117936 -0.000525385 -0.00119505)
(0.118188 -0.00053458 -0.00118703)
(0.104143 -0.000384296 -0.00130235)
(0.104064 -0.000399951 -0.00129259)
(0.103974 -0.000411698 -0.00127966)
(0.103878 -0.000419684 -0.00126691)
(0.103776 -0.000426078 -0.00125735)
(0.103671 -0.000422485 -0.00123324)
(0.0715266 -0.000302068 -0.00117147)
(0.0707836 -0.000288198 -0.00114991)
(0.0700609 -0.000274394 -0.00112445)
(0.0693432 -0.000263129 -0.00109884)
(0.0686423 -0.000250288 -0.00107406)
(0.0679556 -0.000236326 -0.00105418)
(0.0718684 0.000274155 0.00119938)
(0.071147 0.000261352 0.0011722)
(0.070444 0.000246763 0.00113966)
(0.0697589 0.000229814 0.00110588)
(0.0690866 0.00021144 0.00107381)
(0.0684406 0.000191821 0.00104863)
(0.104425 0.000377414 0.00132806)
(0.104363 0.000382842 0.00130735)
(0.104296 0.000390311 0.00130108)
(0.104223 0.000396405 0.00129526)
(0.104147 0.000399968 0.00128998)
(0.104063 0.000396523 0.00126835)
(0.117505 0.000335094 0.00129365)
(0.117764 0.000344525 0.00128351)
(0.118023 0.000352418 0.00127468)
(0.118284 0.000359681 0.00126871)
(0.118548 0.000364506 0.00125904)
(0.118811 0.000365291 0.00123615)
(0.123687 0.000206674 0.000858415)
(0.124075 0.000209377 0.000851308)
(0.124463 0.000211912 0.00084721)
(0.124854 0.000214699 0.000845363)
(0.125244 0.000216266 0.000842232)
(0.125634 0.000214098 0.000827553)
(0.1267 0.000104341 0.000432803)
(0.127139 0.000103987 0.000430172)
(0.127576 0.00010366 0.00042813)
(0.128013 0.000103469 0.000426588)
(0.12845 0.000102006 0.000424834)
(0.128881 9.80827e-05 0.000417913)
(0.127619 2.40425e-07 1.08005e-06)
(0.128072 3.1213e-07 1.06828e-06)
(0.128522 3.10749e-07 9.59479e-07)
(0.12897 2.89794e-07 7.01021e-07)
(0.129418 -2.02815e-07 -8.805e-09)
(0.12986 -1.14416e-06 -9.81683e-07)
(0.126704 -0.000104823 -0.000430974)
(0.127144 -0.000104209 -0.000428362)
(0.127581 -0.000103709 -0.000426442)
(0.128017 -0.000103297 -0.000425149)
(0.128454 -0.000103196 -0.000424864)
(0.128886 -0.000102145 -0.00041964)
(0.12369 -0.000208461 -0.000857715)
(0.124079 -0.000211072 -0.000850336)
(0.124467 -0.000213488 -0.000845669)
(0.124857 -0.000215759 -0.000843257)
(0.125248 -0.000218237 -0.000841798)
(0.125638 -0.000218401 -0.000829055)
(0.117505 -0.000337771 -0.00129372)
(0.117765 -0.00034775 -0.00128355)
(0.118024 -0.000355796 -0.00127243)
(0.118285 -0.000362393 -0.00126674)
(0.118549 -0.000368194 -0.00126206)
(0.118813 -0.000370678 -0.0012401)
(0.10442 -0.000379735 -0.00132926)
(0.104357 -0.000386017 -0.00130895)
(0.104292 -0.000394219 -0.0013012)
(0.104218 -0.000400229 -0.00129556)
(0.104142 -0.000402995 -0.001291)
(0.104062 -0.000400061 -0.00127023)
(0.0718599 -0.000275315 -0.0012008)
(0.0711375 -0.000262182 -0.00117457)
(0.0704343 -0.000247043 -0.00114241)
(0.0697479 -0.000230462 -0.0011087)
(0.0690751 -0.000212806 -0.00107705)
(0.0684256 -0.000193278 -0.00105284)
(0.0715271 0.000299748 0.00117024)
(0.0707819 0.000286959 0.00114823)
(0.0700641 0.000276574 0.00112322)
(0.0693477 0.000262686 0.00109593)
(0.0686524 0.000248762 0.00107085)
(0.10415 0.000382104 0.00129933)
(0.104072 0.000398988 0.0012935)
(0.10398 0.000411084 0.00128403)
(0.103884 0.000418546 0.0012701)
(0.103778 0.000422305 0.00125339)
(0.116922 0.000477145 0.00121388)
(0.117179 0.000492456 0.00121253)
(0.11743 0.000502623 0.00120623)
(0.117684 0.000512296 0.00119879)
(0.117938 0.000521187 0.00119073)
(0.122855 0.00048661 0.000746609)
(0.123239 0.000490148 0.000748072)
(0.123622 0.000494031 0.000750258)
(0.124007 0.000501765 0.000754215)
(0.12439 0.000504674 0.000750891)
(0.125776 0.00049112 0.000306646)
(0.126205 0.000488856 0.000307609)
(0.126631 0.000487211 0.00030833)
(0.12706 0.000487514 0.000309699)
(0.127484 0.000482911 0.000308001)
(0.126702 0.000430577 -0.000102533)
(0.127142 0.000428086 -0.000102133)
(0.127578 0.00042629 -0.000102041)
(0.128015 0.000425317 -0.000102221)
(0.128451 0.000423817 -0.000103598)
(0.128882 0.000416944 -0.000104964)
(0.125782 0.000303716 -0.000490811)
(0.126211 0.000304919 -0.000488399)
(0.126638 0.000306212 -0.000486802)
(0.127065 0.000307813 -0.000486184)
(0.127493 0.000310117 -0.000487506)
(0.127916 0.000308824 -0.000483524)
(0.122618 0.000112661 -0.000849695)
(0.123003 0.000114594 -0.000841175)
(0.123388 0.000117083 -0.000835137)
(0.123775 0.000120754 -0.000832412)
(0.124166 0.000126026 -0.000832048)
(0.124555 0.000129659 -0.00081989)
(0.116001 -0.00013956 -0.00122445)
(0.116267 -0.000135896 -0.00121198)
(0.116532 -0.000132699 -0.00119942)
(0.116805 -0.000128438 -0.00118653)
(0.11708 -0.000122602 -0.00117689)
(0.11736 -0.000117725 -0.00116014)
(0.101982 -0.000309239 -0.00118496)
(0.101934 -0.00030082 -0.00117106)
(0.101883 -0.000292602 -0.00114859)
(0.101838 -0.000284461 -0.001135)
(0.101781 -0.000275523 -0.00113215)
(0.101727 -0.000267603 -0.00110133)
(0.0681414 -0.000187516 -0.00104504)
(0.0674874 -0.00016866 -0.00101647)
(0.0668574 -0.00014404 -0.000980899)
(0.0662244 -0.000118602 -0.000943048)
(0.065618 -9.58372e-05 -0.000908817)
(0.0650189 -7.48353e-05 -0.000885759)
(0.0657321 0.000290013 0.000921263)
(0.0650565 0.000294221 0.000899955)
(0.0643909 0.000287042 0.00087466)
(0.0637606 0.000277273 0.000852892)
(0.100152 0.000361874 0.00104359)
(0.100044 0.000367792 0.00102594)
(0.0999255 0.000387711 0.00102744)
(0.0997929 0.000400316 0.00101902)
(0.113554 0.000586504 0.000960887)
(0.113797 0.00059714 0.000963291)
(0.114031 0.000609265 0.000966052)
(0.114264 0.000633068 0.000977473)
(0.114485 0.000650327 0.000980578)
(0.119596 0.000732198 0.00050944)
(0.119955 0.000731839 0.000516898)
(0.120311 0.000733098 0.000524971)
(0.12067 0.00074506 0.000538377)
(0.121024 0.000748374 0.000545633)
(0.122613 0.000848642 0.000115325)
(0.122997 0.000840932 0.000117427)
(0.123382 0.000835662 0.000119499)
(0.12377 0.000835581 0.000123341)
(0.124158 0.000826871 0.000125631)
(0.123689 0.00085597 -0.000206152)
(0.124079 0.000848873 -0.000208813)
(0.124467 0.000844589 -0.000211582)
(0.124857 0.000842997 -0.000214522)
(0.125247 0.000841593 -0.000218524)
(0.125636 0.000828323 -0.000220873)
(0.122861 0.000744158 -0.000487031)
(0.123246 0.000745687 -0.000490388)
(0.12363 0.00074797 -0.000494492)
(0.124013 0.000750645 -0.000500322)
(0.124398 0.00075339 -0.00050865)
(0.12478 0.000746753 -0.000510325)
(0.119603 0.000506934 -0.000733496)
(0.119962 0.000514878 -0.000732146)
(0.120318 0.000524251 -0.000733701)
(0.120675 0.000534567 -0.000740102)
(0.121033 0.00054658 -0.000752073)
(0.121388 0.000550701 -0.000749976)
(0.112515 0.000188785 -0.00102311)
(0.112772 0.000202314 -0.0010083)
(0.113024 0.000216224 -0.000996175)
(0.113286 0.000234033 -0.00100192)
(0.113539 0.000252684 -0.00101631)
(0.113796 0.000261649 -0.00100668)
(0.0971649 -0.000101453 -0.000906961)
(0.0971062 -8.47784e-05 -0.000897025)
(0.0970362 -6.75503e-05 -0.000889824)
(0.0969607 -5.07148e-05 -0.000888356)
(0.0968763 -3.42993e-05 -0.000900458)
(0.0967886 -2.63705e-05 -0.000879078)
(0.0611561 -4.53997e-05 -0.000728986)
(0.0605816 -3.77693e-05 -0.000670817)
(0.0600493 -2.87116e-05 -0.000585442)
(0.0595107 -1.75201e-05 -0.000528377)
(0.0589934 -8.88666e-06 -0.000495874)
(0.0584707 -3.04657e-06 -0.000477532)
(0.0562824 0.000223704 0.000496439)
(0.0557326 0.000225607 0.000471517)
(0.0551788 0.000226007 0.000451033)
(0.0546618 0.00022528 0.000436062)
(0.0909719 0.000408473 0.000639017)
(0.090768 0.000410341 0.000621798)
(0.0905368 0.00043403 0.000624873)
(0.0903006 0.000449209 0.000622208)
(0.105793 0.000778945 0.000592975)
(0.105932 0.00079486 0.00060517)
(0.106055 0.000803486 0.000612164)
(0.106178 0.000824824 0.000625878)
(0.106284 0.00083858 0.0006335)
(0.112511 0.00102174 0.000190523)
(0.112765 0.00100923 0.000203963)
(0.113019 0.000997636 0.000216797)
(0.11328 0.0010059 0.00023571)
(0.113529 0.00100739 0.000251668)
(0.115995 0.00122215 -0.000138093)
(0.11626 0.0012111 -0.000133583)
(0.116526 0.0011995 -0.000130562)
(0.116797 0.00118695 -0.000126209)
(0.117072 0.00116814 -0.000121047)
(0.117505 0.00129117 -0.000336059)
(0.117765 0.00128019 -0.000345353)
(0.118024 0.00126985 -0.000353162)
(0.118287 0.00126655 -0.00036064)
(0.118548 0.00125803 -0.00036709)
(0.118813 0.00123382 -0.000369882)
(0.116926 0.00121144 -0.000478212)
(0.117182 0.00120877 -0.00049316)
(0.117435 0.00120333 -0.000505064)
(0.117688 0.00119765 -0.000514668)
(0.117941 0.00119422 -0.000526303)
(0.118191 0.0011847 -0.000534988)
(0.113555 0.000957477 -0.000587052)
(0.113799 0.000960541 -0.000598389)
(0.114032 0.000967124 -0.000614769)
(0.114262 0.000970393 -0.000629998)
(0.11449 0.000981722 -0.000655307)
(0.114705 0.000983778 -0.000669213)
(0.105792 0.000589217 -0.000778338)
(0.105932 0.000602027 -0.000794251)
(0.106052 0.000611306 -0.000805434)
(0.106175 0.000620507 -0.000819597)
(0.106282 0.000633086 -0.000844139)
(0.106391 0.000633212 -0.000846761)
(0.0883468 0.00016338 -0.00063543)
(0.0881347 0.000177179 -0.000647331)
(0.0879244 0.000186057 -0.000653864)
(0.0876837 0.000197801 -0.000673874)
(0.0874319 0.000209752 -0.000703507)
(0.0871624 0.000205841 -0.000698995)
(0.0514294 5.10748e-05 -0.000346447)
(0.0509481 4.6689e-05 -0.000336603)
(0.0504674 3.98564e-05 -0.000326403)
(0.049972 3.3779e-05 -0.000317398)
(0.0494901 2.82475e-05 -0.000312709)
(0.0490028 2.0811e-05 -0.000307453)
(0.040623 0.000178737 0.000146631)
(0.0402076 0.000179471 0.000135646)
(0.0397947 0.000184551 0.000129138)
(0.0393901 0.000187894 0.000123553)
(0.070587 0.000277267 0.000146521)
(0.0701309 0.000287869 0.000145172)
(0.0696421 0.000308457 0.000147408)
(0.0691824 0.000315313 0.000141036)
(0.088349 0.000632721 0.000164659)
(0.0881456 0.000647071 0.000179991)
(0.0879353 0.000655853 0.00019153)
(0.0876908 0.000677382 0.000203946)
(0.0874517 0.000687864 0.000208454)
(0.0971723 0.000903982 -0.000100121)
(0.0971095 0.000902933 -8.20208e-05)
(0.0970425 0.000884585 -6.68457e-05)
(0.096971 0.00089528 -4.81778e-05)
(0.096884 0.000894477 -3.42316e-05)
(0.101985 0.00118229 -0.000308636)
(0.101934 0.00116827 -0.000299996)
(0.101884 0.00115205 -0.000292033)
(0.101836 0.00113907 -0.000283269)
(0.101778 0.00112028 -0.000273397)
(0.104423 0.00132604 -0.00037927)
(0.104361 0.00130547 -0.000384964)
(0.104294 0.00129775 -0.000392371)
(0.10422 0.00129484 -0.000397668)
(0.104144 0.00128535 -0.00039863)
(0.104065 0.00126109 -0.000394745)
(0.104149 0.00129998 -0.000384737)
(0.104069 0.00129009 -0.00040029)
(0.103978 0.00127778 -0.000412055)
(0.103882 0.00126426 -0.000419468)
(0.103782 0.00125355 -0.0004251)
(0.103677 0.00122928 -0.00042131)
(0.100254 0.00105351 -0.00035187)
(0.100154 0.00103936 -0.000362026)
(0.100038 0.00103458 -0.000379727)
(0.0999159 0.00101654 -0.000386431)
(0.0997877 0.0010136 -0.000402808)
(0.0996528 0.00100332 -0.00041329)
(0.0911725 0.000644261 -0.00039884)
(0.0909722 0.00063582 -0.000409843)
(0.0907611 0.000627875 -0.000423037)
(0.0905327 0.000617544 -0.000431655)
(0.0902886 0.000616789 -0.000449854)
(0.0900394 0.000604095 -0.000452845)
(0.0710368 0.000140568 -0.000265135)
(0.0705759 0.000142778 -0.000278641)
(0.0701228 0.000143591 -0.000296135)
(0.0696433 0.000140337 -0.000308088)
(0.0691698 0.000139216 -0.000323578)
(0.0686895 0.000126244 -0.000320695)
(0.0383258 -1.68445e-05 -8.4393e-05)
(0.037916 -2.24474e-05 -8.37908e-05)
(0.0375209 -3.43857e-05 -8.14561e-05)
(0.0371268 -4.32724e-05 -8.19351e-05)
(0.0367304 -4.89922e-05 -8.54691e-05)
(0.0363446 -5.68999e-05 -8.29663e-05)
(0.0241528 4.80354e-05 -1.02456e-05)
(0.0238779 4.85254e-05 -1.23434e-05)
(0.023602 5.10947e-05 -1.44958e-05)
(0.0233289 5.22761e-05 -1.76676e-05)
(0.0379286 8.46777e-05 -1.78142e-05)
(0.0375257 8.23568e-05 -2.69781e-05)
(0.0371285 8.32581e-05 -3.71231e-05)
(0.0367405 8.33032e-05 -4.59447e-05)
(0.0514452 0.000343856 5.16584e-05)
(0.050964 0.000337088 5.09033e-05)
(0.0504847 0.000328739 4.60479e-05)
(0.049985 0.000320801 3.95975e-05)
(0.0495109 0.000314087 3.2782e-05)
(0.0611692 0.00072919 -4.36755e-05)
(0.0606109 0.000672383 -3.56555e-05)
(0.0600724 0.000588549 -2.5548e-05)
(0.0595305 0.000531504 -1.43388e-05)
(0.0590281 0.000498557 -5.18972e-06)
(0.0681642 0.00104176 -0.000187482)
(0.067516 0.00101178 -0.000169772)
(0.0668859 0.00097689 -0.000143565)
(0.0662618 0.000939431 -0.000117507)
(0.0656572 0.00090718 -9.30946e-05)
(0.0718722 0.00119668 -0.000276189)
(0.0711526 0.00116913 -0.00026273)
(0.0704521 0.00113654 -0.000247162)
(0.0697673 0.00110334 -0.000229752)
(0.0691013 0.00107302 -0.000209601)
(0.0684517 0.00104724 -0.000188298)
(0.0715235 0.00116765 -0.000303051)
(0.0707823 0.00114478 -0.000288779)
(0.0700627 0.00111866 -0.000274705)
(0.0693485 0.00109327 -0.000263387)
(0.0686509 0.00106864 -0.000249168)
(0.0679698 0.0010476 -0.000234289)
(0.0664194 0.000941673 -0.000289045)
(0.0657252 0.000917281 -0.000291214)
(0.0650591 0.000892058 -0.000289613)
(0.0644076 0.000870153 -0.000286427)
(0.0637553 0.000849891 -0.000279166)
(0.0631409 0.00083441 -0.000273275)
(0.0568384 0.000531656 -0.000232129)
(0.056274 0.00049372 -0.000225982)
(0.055736 0.000466648 -0.000226374)
(0.0551922 0.000445807 -0.000225302)
(0.0546599 0.000432345 -0.000225632)
(0.0541396 0.000424165 -0.000228449)
(0.0410408 0.000158161 -0.000180215)
(0.040618 0.000145093 -0.000181208)
(0.0402096 0.000134457 -0.000184804)
(0.0397999 0.000126436 -0.000186886)
(0.0393896 0.00012182 -0.000189908)
(0.0389913 0.000115903 -0.000190911)
(0.0244319 -1.00531e-05 -4.78319e-05)
(0.0241512 -1.10201e-05 -4.89496e-05)
(0.0238764 -1.38051e-05 -5.03573e-05)
(0.0236025 -1.66675e-05 -5.17659e-05)
(0.0233265 -1.90164e-05 -5.37878e-05)
(0.0230586 -2.25891e-05 -5.36272e-05)
)
;

boundaryField
{
    inlet
    {
        type            fixedValue;
        value           nonuniform List<vector> 0();
    }
    ami1
    {
        type            cyclicAMI;
        value           nonuniform List<vector> 0();
    }
    walls
    {
        type            noSlip;
    }
    ami2
    {
        type            cyclicAMI;
        value           nonuniform List<vector> 0();
    }
    outlet
    {
        type            zeroGradient;
    }
    procBoundary7to5
    {
        type            processor;
        value           nonuniform List<vector> 
131
(
(0.0228025 2.33807e-05 5.09174e-05)
(0.0385791 -0.000111187 0.000183721)
(0.0535912 -0.000419036 0.000224934)
(0.0624764 -0.000823629 0.000271526)
(0.0672498 -0.00103344 0.000226709)
(0.0677586 -0.00102962 0.000168751)
(0.0643989 -0.000870653 5.42397e-05)
(0.0579279 -0.000464835 -1.49814e-06)
(0.0485004 -0.000298274 -1.6401e-05)
(0.0359554 -7.72716e-05 5.87655e-05)
(0.0228023 -5.07743e-05 2.29696e-05)
(0.0359656 5.9183e-05 7.67078e-05)
(0.0681995 -0.000115306 0.000305508)
(0.0897798 -0.000588806 0.000442796)
(0.0995119 -0.000975569 0.000402556)
(0.103565 -0.00121424 0.000418335)
(0.10398 -0.00124817 0.000394848)
(0.101683 -0.00106662 0.000258099)
(0.0967032 -0.000852886 1.83996e-05)
(0.0868832 -0.000683905 -0.000201274)
(0.0681909 -0.000305908 -0.000114233)
(0.0385879 -0.000182258 -0.000111598)
(0.0485266 -1.5852e-05 0.000298001)
(0.0868951 -0.000203158 0.000683221)
(0.106494 -0.000631743 0.00084221)
(0.11492 -0.000972455 0.000663325)
(0.118446 -0.00117596 0.000537741)
(0.119089 -0.00122103 0.00037239)
(0.11765 -0.00114087 0.000112963)
(0.114057 -0.000995135 -0.000270035)
(0.106497 -0.000844178 -0.000632556)
(0.0897809 -0.000444089 -0.000589167)
(0.0536104 -0.000221829 -0.000420236)
(0.0579619 1.32328e-06 0.000463748)
(0.0967104 1.86179e-05 0.000851603)
(0.114037 -0.000272177 0.000997899)
(0.121738 -0.000550191 0.000740204)
(0.125166 -0.000736772 0.000506696)
(0.126037 -0.000812125 0.00021748)
(0.124948 -0.000801376 -0.000131055)
(0.121743 -0.000738988 -0.000548629)
(0.114919 -0.000666069 -0.000972793)
(0.0995154 -0.000403389 -0.000975243)
(0.0625079 -0.000266333 -0.000826037)
(0.0644404 5.88086e-05 0.000864803)
(0.101677 0.000258006 0.00106561)
(0.117635 0.000107877 0.00113793)
(0.124939 -0.000135097 0.000801948)
(0.128335 -0.000307193 0.000472862)
(0.129316 -0.000411519 0.000100069)
(0.128337 -0.000473304 -0.000304428)
(0.125159 -0.000506466 -0.000735178)
(0.118438 -0.000539152 -0.00117512)
(0.103571 -0.000417027 -0.0012098)
(0.0672763 -0.000224574 -0.00103706)
(0.067794 0.00017031 0.0010292)
(0.0679625 0.000237326 0.00105055)
(0.103984 0.000389469 0.00123883)
(0.103677 0.00041758 0.00122802)
(0.119078 0.000366542 0.00121761)
(0.118191 0.000526281 0.00118041)
(0.126023 0.000212714 0.00080889)
(0.124773 0.000500331 0.000740237)
(0.129308 9.63974e-05 0.000408292)
(0.127909 0.00047285 0.000302877)
(0.130295 -1.30965e-06 -1.29255e-06)
(0.129313 -0.000100219 -0.000410663)
(0.126028 -0.000216878 -0.000810745)
(0.11908 -0.000371329 -0.00122013)
(0.103983 -0.000393511 -0.00124228)
(0.0677768 -0.000173636 -0.00103451)
(0.0679625 0.000237326 0.00105055)
(0.103677 0.00041758 0.00122802)
(0.118191 0.000526281 0.00118041)
(0.124773 0.000500331 0.000740237)
(0.127909 0.00047285 0.000302877)
(0.127909 0.00047285 0.000302877)
(0.129308 0.000408803 -0.000102835)
(0.128335 0.000304761 -0.00047419)
(0.124944 0.000131227 -0.00080179)
(0.117643 -0.000112837 -0.00114277)
(0.101679 -0.000259294 -0.00107041)
(0.0644168 -5.87509e-05 -0.000869695)
(0.0631239 0.000272032 0.000837225)
(0.0996603 0.000397567 0.000991344)
(0.114709 0.000651777 0.000971812)
(0.121382 0.000735808 0.000543075)
(0.124548 0.000808884 0.000124658)
(0.124548 0.000808884 0.000124658)
(0.126022 0.000809739 -0.000218971)
(0.12516 0.000735505 -0.000505992)
(0.121745 0.00054804 -0.000738574)
(0.114055 0.000268411 -0.000996869)
(0.0966995 -2.00291e-05 -0.000855882)
(0.0579349 -6.29268e-07 -0.000465869)
(0.0541281 0.00022197 0.000424023)
(0.0900475 0.000436756 0.000597415)
(0.106395 0.000827918 0.000626295)
(0.113788 0.000992537 0.000259103)
(0.117352 0.001148 -0.000117497)
(0.117352 0.001148 -0.000117497)
(0.119078 0.00121799 -0.000370761)
(0.11844 0.00117312 -0.000537876)