/*--------------------------------*- C++ -*----------------------------------*\
| =========                 |                                                 |
| \\      /  F ield         | OpenFOAM: The Open Source CFD Toolbox           |
|  \\    /   O peration     | Version:  2212                                  |
|   \\  /    A nd           | Website:  www.openfoam.com                      |
|    \\/     M anipulation  |                                                 |
\*---------------------------------------------------------------------------*/
FoamFile
{
    version     2.0;
    format      ascii;
    arch        "LSB;label=32;scalar=64";
    class       volScalarField;
    location    "0.05";
    object      epsilon;
}
// * * * * * * * * * * * * * * * * * * * * * * * * * * * * * * * * * * * * * //

dimensions      [0 2 -3 0 0 0 0];

internalField   nonuniform List<scalar> 
682
(
2.28383
2.28417
2.28441
2.28458
2.28468
2.28474
2.28477
2.28478
2.28478
2.28475
2.28466
2.28982
2.29006
2.29026
2.29041
2.2905
2.29056
2.2906
2.29063
2.29064
2.29066
2.29069
2.32578
2.32614
2.32635
2.32648
2.32656
2.32661
2.32665
2.3267
2.32678
2.32697
2.32739
2.42445
2.42235
2.4204
2.4193
2.41881
2.41863
2.41861
2.41863
2.41872
2.41896
2.41961
2.42101
2.93037
2.9218
2.9153
2.91254
2.91143
2.91104
2.91093
2.91097
2.91115
2.91182
2.9144
2.92459
2.13947
2.13634
2.13271
2.13078
2.12996
2.12965
2.12957
2.12959
2.12972
2.13016
2.13169
2.13724
1.70504
1.70494
1.70488
1.70485
1.70484
1.70485
1.70485
1.70486
1.70489
1.70494
1.70507
1.69459
1.69432
1.69421
1.69418
1.69418
1.69419
1.6942
1.69421
1.69423
1.69427
1.69438
1.66602
1.66549
1.66544
1.66547
1.6655
1.66553
1.66554
1.66554
1.66551
1.66539
1.66516
1.64652
1.65147
1.65344
1.6541
1.65431
1.65438
1.6544
1.65441
1.6544
1.65428
1.65378
1.6523
1.7244
1.73196
1.73383
1.73413
1.73416
1.73416
1.73417
1.73417
1.73414
1.73395
1.73278
1.7256
2.89716
2.88908
2.8833
2.88089
2.8799
2.87953
2.87941
2.87942
2.87958
2.8802
2.88267
2.89247
1.7567
1.75669
1.75665
1.75661
1.75659
1.75658
1.75657
1.75658
1.75661
1.75666
1.75677
1.74197
1.74199
1.74199
1.74199
1.74198
1.74198
1.74198
1.74199
1.74199
1.74201
1.74204
1.70077
1.70091
1.70103
1.7011
1.70114
1.70116
1.70117
1.70116
1.70112
1.70104
1.70092
1.64563
1.64628
1.64682
1.64715
1.64732
1.64739
1.64743
1.64743
1.64741
1.64733
1.6471
1.64667
1.64629
1.64754
1.64828
1.64857
1.64865
1.64867
1.64868
1.64868
1.64866
1.64854
1.64804
1.64658
2.37105
2.37061
2.36995
2.36945
2.36915
2.369
2.36894
2.36895
2.36901
2.3692
2.36975
2.371
1.82369
1.8237
1.82366
1.82362
1.82358
1.82355
1.82354
1.82356
1.8236
1.82369
1.82384
1.80884
1.80888
1.80888
1.80886
1.80884
1.80883
1.80883
1.80883
1.80886
1.80891
1.809
1.7652
1.76529
1.76534
1.76537
1.76538
1.76539
1.76539
1.76539
1.76538
1.76538
1.76539
1.70116
1.70139
1.7016
1.70174
1.70182
1.70186
1.70188
1.70188
1.70187
1.70183
1.70175
1.70164
1.66359
1.66388
1.66405
1.66414
1.66418
1.66419
1.66419
1.6642
1.66419
1.66417
1.66411
1.66389
2.30773
2.30765
2.30744
2.30729
2.30721
2.30718
2.30717
2.30717
2.30719
2.30725
2.3074
2.30782
1.85136
1.85138
1.85135
1.85129
1.85125
1.85122
1.85121
1.85122
1.85126
1.85135
1.85149
1.80896
1.809
1.809
1.80898
1.80896
1.80895
1.80895
1.80895
1.80897
1.80902
1.80909
1.74224
1.74238
1.74247
1.74251
1.74253
1.74254
1.74254
1.74254
1.74255
1.74255
1.74256
1.74258
1.69464
1.69478
1.69483
1.69485
1.69486
1.69486
1.69487
1.69487
1.69487
1.69488
1.69491
1.69496
2.28064
2.28071
2.2807
2.28068
2.28066
2.28065
2.28065
2.28066
2.28067
2.28068
2.28071
2.28076
1.8654
1.86539
1.86532
1.86525
1.86519
1.86515
1.86514
1.86515
1.8652
1.8653
1.86545
1.8237
1.82371
1.82368
1.82365
1.82363
1.82361
1.8236
1.82361
1.82364
1.82369
1.82378
1.75655
1.75671
1.7568
1.75683
1.75685
1.75685
1.75685
1.75685
1.75685
1.75686
1.75689
1.75692
1.70499
1.70524
1.70535
1.7054
1.70541
1.70541
1.70541
1.70542
1.70542
1.70543
1.70545
1.70548
2.28414
2.28402
2.2839
2.28381
2.28377
2.28375
2.28374
2.28374
2.28375
2.28376
2.28377
2.28378
1.85141
1.85139
1.85132
1.85126
1.85121
1.85117
1.85116
1.85118
1.85122
1.8513
1.85145
1.80886
1.80888
1.80888
1.80886
1.80884
1.80883
1.80882
1.80883
1.80885
1.80889
1.80897
1.74149
1.74175
1.74191
1.74198
1.74202
1.74203
1.74204
1.74204
1.74204
1.74204
1.74205
1.74207
1.69315
1.69392
1.69419
1.69427
1.6943
1.6943
1.6943
1.6943
1.69431
1.69432
1.69435
1.69444
2.29187
2.2912
2.29077
2.29053
2.29042
2.29037
2.29035
2.29035
2.29036
2.29038
2.2904
2.29045
1.80893
1.80893
1.80888
1.80884
1.8088
1.80878
1.80878
1.80879
1.80882
1.80888
1.809
1.76519
1.76527
1.76531
1.76533
1.76534
1.76534
1.76534
1.76534
1.76534
1.76534
1.76536
1.70031
1.7006
1.70085
1.70101
1.7011
1.70115
1.70117
1.70118
1.70116
1.70112
1.70104
1.70092
1.66484
1.66517
1.6654
1.6655
1.66554
1.66556
1.66556
1.66556
1.66556
1.66552
1.6654
1.66517
2.32814
2.3277
2.32721
2.32689
2.32671
2.32663
2.3266
2.32661
2.32663
2.32671
2.32689
2.32732
1.74216
1.74201
1.74191
1.74186
1.74183
1.74182
1.74182
1.74183
1.74185
1.74191
1.74205
1.70143
1.70155
1.70163
1.70168
1.70172
1.70173
1.70174
1.70173
1.7017
1.70164
1.70155
1.64571
1.64635
1.64687
1.64717
1.64733
1.64741
1.64744
1.64745
1.64743
1.64734
1.64712
1.64669
1.65239
1.65352
1.65415
1.65437
1.65444
1.65445
1.65445
1.65445
1.65443
1.65431
1.65381
1.65232
2.42181
2.42107
2.42008
2.41935
2.41893
2.41873
2.41865
2.41866
2.41874
2.41897
2.41962
2.42101
1.69277
1.69186
1.69153
1.69143
1.69141
1.69141
1.69142
1.69143
1.69147
1.69161
1.6921
1.66467
1.66399
1.6638
1.6638
1.66383
1.66385
1.66387
1.66387
1.66385
1.66382
1.66365
1.64106
1.64594
1.64786
1.64852
1.64874
1.64881
1.64884
1.64885
1.64883
1.64871
1.6482
1.64672
1.72389
1.73159
1.7337
1.73419
1.73427
1.73428
1.73429
1.73429
1.73426
1.73407
1.7329
1.72569
2.92987
2.92151
2.91538
2.91277
2.91168
2.91127
2.91115
2.91117
2.91134
2.912
2.91457
2.92474
2.2819
2.28285
2.28345
2.28378
2.28396
2.28406
2.2841
2.28412
2.2841
2.28401
2.28365
2.30709
2.30791
2.30845
2.30877
2.30894
2.30903
2.30908
2.30912
2.30915
2.30923
2.30943
2.37459
2.37287
2.37123
2.37034
2.36998
2.36988
2.36988
2.3699
2.36997
2.37016
2.37066
2.3718
2.89818
2.88989
2.88386
2.88133
2.88033
2.87997
2.87986
2.87988
2.88003
2.88065
2.8831
2.89285
2.13961
2.13648
2.13287
2.13094
2.13012
2.12981
2.12972
2.12974
2.12987
2.13031
2.13183
2.13737
)
;

boundaryField
{
    inlet
    {
        type            fixedValue;
        value           nonuniform List<scalar> 0();
    }
    ami1
    {
        type            cyclicAMI;
        value           nonuniform List<scalar> 0();
    }
    walls
    {
        type            epsilonWallFunction;
        blending        stepwise;
        value           nonuniform List<scalar> 
259
(
2.42445
2.93037
2.13947
2.28383
2.28982
2.32578
2.42235
2.9218
2.13634
2.28417
2.29006
2.32614
2.4204
2.9153
2.13271
2.28441
2.29026
2.32635
2.4193
2.91254
2.13078
2.28458
2.29041
2.32648
2.41881
2.91143
2.12996
2.28468
2.2905
2.32656
2.41863
2.91104
2.12965
2.28474
2.29056
2.32661
2.41861
2.91093
2.12957
2.28477
2.2906
2.32665
2.41863
2.91097
2.12959
2.28478
2.29063
2.3267
2.41872
2.91115
2.12972
2.28478
2.29064
2.32678
2.41896
2.91182
2.13016
2.28475
2.29066
2.32697
2.41961
2.9144
2.13169
2.28466
2.29069
2.32739
2.42101
2.92459
2.13724
2.13947
2.89716
2.37105
2.30773
2.28064
2.28414
2.29187
2.32814
2.42181
2.92987
2.13961
2.13634
2.88908
2.37061
2.30765
2.28071
2.28402
2.2912
2.3277
2.42107
2.92151
2.13648
2.13271
2.8833
2.36995
2.30744
2.2807
2.2839
2.29077
2.32721
2.42008
2.91538
2.13287
2.13078
2.88089
2.36945
2.30729
2.28068
2.28381
2.29053
2.32689
2.41935
2.91277
2.13094
2.12996
2.8799
2.36915
2.30721
2.28066
2.28377
2.29042
2.32671
2.41893
2.91168
2.13012
2.12965
2.87953
2.369
2.30718
2.28065
2.28375
2.29037
2.32663
2.41873
2.91127
2.12981
2.12957
2.87941
2.36894
2.30717
2.28065
2.28374
2.29035
2.3266
2.41865
2.91115
2.12972
2.12959
2.87942
2.36895
2.30717
2.28066
2.28374
2.29035
2.32661
2.41866
2.91117
2.12974
2.12972
2.87958
2.36901
2.30719
2.28067
2.28375
2.29036
2.32663
2.41874
2.91134
2.12987
2.13016
2.8802
2.3692
2.30725
2.28068
2.28376
2.29038
2.32671
2.41897
2.912
2.13031
2.13169
2.88267
2.36975
2.3074
2.28071
2.28377
2.2904
2.32689
2.41962
2.91457
2.13183
2.13724
2.89247
2.371
2.30782
2.28076
2.28378
2.29045
2.32732
2.42101
2.92474
2.13737
2.37459
2.89818
2.13961
2.2819
2.30709
2.37287
2.88989
2.13648
2.28285
2.30791
2.37123
2.88386
2.13287
2.28345
2.30845
2.37034
2.88133
2.13094
2.28378
2.30877
2.36998
2.88033
2.13012
2.28396
2.30894
2.36988
2.87997
2.12981
2.28406
2.30903
2.36988
2.87986
2.12972
2.2841
2.30908
2.3699
2.87988
2.12974
2.28412
2.30912
2.36997
2.88003
2.12987
2.2841
2.30915
2.37016
2.88065
2.13031
2.28401
2.30923
2.37066
2.8831
2.13183
2.28365
2.30943
2.3718
2.89285
2.13737
)
;
    }
    ami2
    {
        type            cyclicAMI;
        value           nonuniform List<scalar> 0();
    }
    outlet
    {
        type            zeroGradient;
    }
    procBoundary9to0
    {
        type            processor;
        value           nonuniform List<scalar> 
40
(
2.28343
2.28959
2.32533
2.32533
2.42093
2.92429
2.13715
1.70509
1.69475
1.66755
1.66755
1.65072
1.72488
2.89202
1.75659
1.74185
1.70055
1.70055
1.64591
1.64607
2.37021
1.82347
1.80865
1.76502
1.76502
1.70104
1.66339
2.30717
1.85114
1.80877
1.80877
1.74197
1.69435
2.28034
1.86518
1.82351
1.82351
1.7562
1.70456
2.28407
)
;
    }
    procBoundary9to1
    {
        type            processor;
        value           nonuniform List<scalar> 
30
(
1.8512
1.80866
1.80866
1.74103
1.69121
2.29254
1.80876
1.765
1.765
1.70023
1.6645
2.32791
1.74221
1.70116
1.70116
1.64597
1.652
2.4209
1.69456
1.66621
1.66621
1.64516
1.72465
2.92457
2.28071
2.30619
2.30619
2.37096
2.89237
2.1373
)
;
    }
    procBoundary9to7
    {
        type            processor;
        value           nonuniform List<scalar> 
59
(
2.28444
2.29067
2.32762
2.42173
2.92858
2.13889
1.70528
1.69444
1.66509
1.65203
1.72514
2.89623
1.75685
1.74206
1.70087
1.64653
1.64632
2.37167
1.82386
1.80902
1.76539
1.70159
1.66382
2.30806
1.85152
1.80911
1.74258
1.69498
2.2808
1.86549
1.82381
1.75694
1.70549
2.28379
1.85148
1.80899
1.74207
1.69446
2.29048
1.80905
1.76537
1.70087
1.66508
2.32756
1.74227
1.70153
1.64654
1.65205
2.42173
1.69391
1.66373
1.64643
1.72521
2.92869
2.28264
2.30921
2.37228
2.89651
2.13899
)
;
    }
    procBoundary9to8
    {
        type            processor;
        value           nonuniform List<scalar> 
132
(
2.28213
2.28307
2.28361
2.28389
2.28403
2.2841
2.28413
2.28414
2.28412
2.28402
2.28367
1.69253
1.6918
1.69154
1.69145
1.69143
1.69143
1.69144
1.69145
1.69149
1.69162
1.69211
1.74208
1.74197
1.7419
1.74187
1.74185
1.74184
1.74184
1.74185
1.74187
1.74193
1.74207
1.80888
1.8089
1.80887
1.80884
1.80881
1.8088
1.80879
1.8088
1.80883
1.8089
1.80903
1.86536
1.86536
1.86531
1.86524
1.86519
1.86515
1.86514
1.86515
1.86521
1.86531
1.86549
1.86536
1.86536
1.86531
1.86524
1.86519
1.86515
1.86514
1.86515
1.86521
1.86531
1.86549
1.87901
1.87898
1.8789
1.87882
1.87876
1.87872
1.8787
1.87872
1.87877
1.87888
1.87905
1.86539
1.86536
1.86528
1.86521
1.86516
1.86512
1.86511
1.86513
1.86517
1.86527
1.86542
1.82366
1.82366
1.82362
1.82357
1.82353
1.82351
1.82351
1.82352
1.82356
1.82363
1.82375
1.75669
1.75667
1.75662
1.75659
1.75657
1.75656
1.75656
1.75657
1.75659
1.75665
1.75675
1.70503
1.70493
1.70487
1.70484
1.70484
1.70484
1.70484
1.70486
1.70488
1.70492
1.70504
2.28388
2.28421
2.28444
2.28459
2.28468
2.28474
2.28476
2.28478
2.28477
2.28474
2.28463
)
;
    }
}


// ************************************************************************* //
