/*--------------------------------*- C++ -*----------------------------------*\
| =========                 |                                                 |
| \\      /  F ield         | OpenFOAM: The Open Source CFD Toolbox           |
|  \\    /   O peration     | Version:  2212                                  |
|   \\  /    A nd           | Website:  www.openfoam.com                      |
|    \\/     M anipulation  |                                                 |
\*---------------------------------------------------------------------------*/
FoamFile
{
    version     2.0;
    format      ascii;
    arch        "LSB;label=32;scalar=64";
    class       volVectorField;
    location    "0.05";
    object      U;
}
// * * * * * * * * * * * * * * * * * * * * * * * * * * * * * * * * * * * * * //

dimensions      [0 1 -1 0 0 0 0];

internalField   nonuniform List<vector> 
682
(
(0.0948243 -7.24947e-07 -1.67945e-06)
(0.0948252 -7.48327e-07 -1.09312e-06)
(0.0948261 -4.86849e-07 -5.80307e-07)
(0.0948269 -2.35156e-07 -2.72933e-07)
(0.0948273 -8.48856e-08 -1.50197e-07)
(0.0948276 2.6993e-09 -1.45189e-07)
(0.0948277 7.85353e-08 -2.03837e-07)
(0.0948277 1.79916e-07 -2.81089e-07)
(0.0948277 3.39591e-07 -3.27823e-07)
(0.0948274 5.88871e-07 -2.81509e-07)
(0.094827 8.93536e-07 -7.42437e-08)
(0.0944891 -6.25434e-07 -1.08205e-06)
(0.0944907 -1.23612e-06 -2.98298e-07)
(0.094492 -1.10515e-06 6.87733e-08)
(0.0944928 -7.17298e-07 1.5596e-07)
(0.0944932 -3.50741e-07 8.30205e-08)
(0.0944934 -5.4657e-08 -6.92987e-08)
(0.0944936 2.24816e-07 -2.66544e-07)
(0.0944937 5.6552e-07 -4.99224e-07)
(0.0944937 1.02071e-06 -7.37441e-07)
(0.0944934 1.56984e-06 -9.16593e-07)
(0.0944928 1.66795e-06 -8.04326e-07)
(0.0932151 -2.6079e-06 9.14328e-07)
(0.0932176 -3.89487e-06 2.40769e-06)
(0.0932193 -2.92527e-06 2.03833e-06)
(0.09322 -1.6711e-06 1.27981e-06)
(0.0932202 -7.92484e-07 6.30838e-07)
(0.0932203 -2.12613e-07 1.16377e-07)
(0.0932205 2.7744e-07 -3.69216e-07)
(0.0932209 8.8407e-07 -9.69238e-07)
(0.0932213 1.78333e-06 -1.7949e-06)
(0.0932208 3.19494e-06 -3.0458e-06)
(0.0932202 3.37574e-06 -3.01554e-06)
(0.0895701 3.16494e-06 -3.02178e-06)
(0.0895675 -8.87728e-06 5.65453e-06)
(0.089566 -9.69302e-06 6.30293e-06)
(0.089564 -7.17455e-06 4.77183e-06)
(0.0895622 -3.76762e-06 2.59467e-06)
(0.0895612 -1.63042e-06 1.15363e-06)
(0.0895608 -4.99883e-07 2.73881e-07)
(0.089561 3.05506e-07 -4.69868e-07)
(0.0895617 1.53046e-06 -1.56432e-06)
(0.0895629 4.19453e-06 -3.64094e-06)
(0.0895641 9.83128e-06 -7.1949e-06)
(0.0895676 9.66445e-06 -6.69789e-06)
(0.0795241 5.20559e-08 1.22331e-08)
(0.0795079 -5.38663e-06 3.74384e-06)
(0.0794986 -4.67992e-06 2.9213e-06)
(0.0794917 -3.24511e-06 1.86726e-06)
(0.0794862 -1.98628e-06 1.20896e-06)
(0.079483 -1.02174e-06 6.6299e-07)
(0.0794817 -3.06849e-07 1.20804e-07)
(0.079482 3.51476e-07 -4.78076e-07)
(0.0794841 1.31783e-06 -1.36081e-06)
(0.0794887 2.57829e-06 -2.32279e-06)
(0.0794933 5.9753e-06 -4.61062e-06)
(0.0795169 6.32819e-06 -4.60943e-06)
(0.0583093 7.16039e-07 -1.5281e-06)
(0.0583033 6.57882e-07 -8.12469e-07)
(0.0582954 -4.79467e-07 6.61019e-07)
(0.0582883 -6.5686e-07 8.1733e-07)
(0.0582828 -4.13494e-07 4.79703e-07)
(0.0582798 -1.83011e-07 1.8616e-07)
(0.0582787 -3.80329e-08 1.41868e-08)
(0.0582791 1.25337e-07 -1.48674e-07)
(0.058281 3.15792e-07 -3.53196e-07)
(0.0582848 4.64418e-07 -5.33665e-07)
(0.0582882 -7.8186e-07 5.48702e-07)
(0.058302 -6.18737e-07 4.20726e-07)
(0.102048 7.88434e-07 -1.40443e-06)
(0.102048 4.36647e-07 -8.17491e-07)
(0.102047 2.15121e-07 -4.2693e-07)
(0.102047 1.00535e-07 -2.43428e-07)
(0.102047 4.8958e-08 -2.03679e-07)
(0.102047 3.21138e-08 -2.47611e-07)
(0.102047 3.42233e-08 -3.4299e-07)
(0.102047 4.37952e-08 -4.72696e-07)
(0.102047 4.94633e-08 -6.16693e-07)
(0.102047 4.03082e-08 -7.36175e-07)
(0.102048 1.02692e-08 -7.66402e-07)
(0.101684 1.22789e-06 -1.56687e-06)
(0.101685 8.8707e-07 -7.12489e-07)
(0.101685 5.49498e-07 -2.84123e-07)
(0.101685 3.09131e-07 -1.25183e-07)
(0.101685 1.84889e-07 -1.34803e-07)
(0.101685 1.40373e-07 -2.3617e-07)
(0.101686 1.29719e-07 -3.94249e-07)
(0.101685 9.88921e-08 -5.8614e-07)
(0.101685 -5.9284e-09 -7.66548e-07)
(0.101685 -1.7025e-07 -8.03074e-07)
(0.101685 -1.7366e-07 -6.70105e-07)
(0.100472 1.21353e-06 -7.42788e-07)
(0.100473 8.94729e-07 2.49816e-07)
(0.100475 4.81088e-07 4.33549e-07)
(0.100476 1.97902e-07 3.42729e-07)
(0.100477 8.86107e-08 1.40789e-07)
(0.100477 1.13991e-07 -1.36908e-07)
(0.100477 1.86397e-07 -4.78232e-07)
(0.100477 1.7769e-07 -8.63815e-07)
(0.100476 -9.1212e-08 -1.21526e-06)
(0.100476 -5.4717e-07 -1.39992e-06)
(0.100475 -4.65149e-07 -1.12369e-06)
(0.0978139 4.19505e-07 -1.93297e-06)
(0.0978182 2.32042e-06 -3.38046e-06)
(0.0978225 1.00888e-06 -1.64047e-06)
(0.097826 -1.42602e-07 -2.90334e-07)
(0.0978283 -5.0462e-07 2.43612e-07)
(0.0978296 -3.9099e-07 2.38412e-07)
(0.0978301 -5.10071e-08 -7.69764e-08)
(0.0978302 3.91732e-07 -5.51796e-07)
(0.0978295 7.95844e-07 -1.03303e-06)
(0.0978281 7.24647e-07 -1.10091e-06)
(0.0978259 -1.5331e-07 -2.06286e-07)
(0.0978216 -5.11385e-07 3.26737e-07)
(0.0930772 1.40509e-06 -3.00744e-06)
(0.0930855 7.94327e-06 -8.46643e-06)
(0.0930925 5.06673e-06 -5.36657e-06)
(0.0930951 1.82556e-06 -2.03245e-06)
(0.0930958 7.28613e-08 -2.44337e-07)
(0.0930958 -3.3469e-07 2.06719e-07)
(0.0930957 -3.3226e-08 -3.7207e-08)
(0.0930958 5.28409e-07 -5.37587e-07)
(0.093096 8.14963e-07 -7.94554e-07)
(0.0930961 -9.90397e-07 8.68029e-07)
(0.0930926 -7.14694e-06 6.50541e-06)
(0.0930835 -7.09539e-06 6.44226e-06)
(0.0799023 -8.31136e-07 -2.24793e-06)
(0.079886 -5.48216e-06 5.0681e-06)
(0.0798763 -4.40436e-06 5.29798e-06)
(0.0798695 -2.76246e-06 3.7139e-06)
(0.0798645 -1.58782e-06 2.0455e-06)
(0.0798617 -7.92215e-07 9.05468e-07)
(0.0798606 -1.58899e-07 2.04091e-07)
(0.079861 4.89261e-07 -3.84996e-07)
(0.079863 1.46416e-06 -1.28701e-06)
(0.0798674 2.69806e-06 -2.68425e-06)
(0.0798721 5.65816e-06 -6.2929e-06)
(0.0798951 5.56774e-06 -6.46376e-06)
(0.104282 8.64568e-07 -1.12607e-06)
(0.104282 6.13514e-07 -8.96263e-07)
(0.104281 3.77349e-07 -6.62345e-07)
(0.104281 2.03355e-07 -4.84932e-07)
(0.10428 9.35722e-08 -3.79478e-07)
(0.10428 2.88624e-08 -3.35809e-07)
(0.10428 -9.57459e-09 -3.36716e-07)
(0.10428 -4.20745e-08 -3.62003e-07)
(0.10428 -8.5768e-08 -3.91802e-07)
(0.10428 -1.49199e-07 -4.16402e-07)
(0.10428 -2.20768e-07 -4.37871e-07)
(0.103995 1.21193e-06 -1.63864e-06)
(0.103995 1.22616e-06 -1.18463e-06)
(0.103995 1.01085e-06 -8.06411e-07)
(0.103995 7.24659e-07 -5.47141e-07)
(0.103994 4.65809e-07 -4.03323e-07)
(0.103994 2.59317e-07 -3.49655e-07)
(0.103994 8.05824e-08 -3.51668e-07)
(0.103994 -1.18466e-07 -3.69963e-07)
(0.103994 -3.68027e-07 -3.66641e-07)
(0.103994 -5.9872e-07 -3.25571e-07)
(0.103994 -5.88545e-07 -2.91753e-07)
(0.103061 1.67944e-06 -2.1122e-06)
(0.103061 1.86687e-06 -1.5624e-06)
(0.103061 1.46569e-06 -9.93975e-07)
(0.103061 9.60019e-07 -5.93308e-07)
(0.103062 5.82029e-07 -3.86413e-07)
(0.103062 3.40602e-07 -3.29531e-07)
(0.103062 1.52483e-07 -3.49552e-07)
(0.103062 -1.1124e-07 -3.55256e-07)
(0.103061 -5.65706e-07 -2.54175e-07)
(0.103061 -1.06385e-06 -4.48268e-08)
(0.10306 -9.65611e-07 -2.01603e-08)
(0.101202 6.57853e-07 -2.29417e-06)
(0.101203 2.12604e-06 -3.08037e-06)
(0.101203 1.81379e-06 -2.42698e-06)
(0.101205 1.01733e-06 -1.36969e-06)
(0.101206 4.09693e-07 -6.23299e-07)
(0.101208 1.70121e-07 -2.91844e-07)
(0.101208 1.89287e-07 -2.47616e-07)
(0.101208 2.99855e-07 -3.15037e-07)
(0.101207 2.78658e-07 -2.74547e-07)
(0.101206 -1.94084e-07 1.74258e-07)
(0.101205 -1.13068e-06 1.03748e-06)
(0.101204 -1.05942e-06 9.68515e-07)
(0.0979864 8.6831e-07 -2.32367e-06)
(0.0979889 3.90535e-07 -1.42498e-06)
(0.0979917 -7.28848e-07 -1.84033e-07)
(0.0979943 -1.05949e-06 4.79114e-07)
(0.0979961 -9.08879e-07 5.28275e-07)
(0.0979971 -5.36114e-07 3.09279e-07)
(0.0979976 -4.21066e-08 -1.46374e-08)
(0.0979976 5.3844e-07 -3.98486e-07)
(0.0979969 1.13311e-06 -7.66173e-07)
(0.0979955 1.36828e-06 -7.72347e-07)
(0.0979934 6.17649e-07 -1.049e-07)
(0.0979893 5.19312e-08 1.99278e-07)
(0.0901425 1.70563e-06 -3.35813e-06)
(0.0901417 -6.3426e-06 7.25551e-06)
(0.0901413 -6.74158e-06 7.83514e-06)
(0.0901404 -5.02319e-06 5.54492e-06)
(0.0901393 -2.68574e-06 2.70019e-06)
(0.0901387 -1.17631e-06 1.03188e-06)
(0.0901386 -2.79092e-07 2.13466e-07)
(0.0901388 4.7844e-07 -3.61959e-07)
(0.0901394 1.62821e-06 -1.3372e-06)
(0.0901405 3.87919e-06 -3.62307e-06)
(0.0901415 7.8037e-06 -8.73856e-06)
(0.0901443 7.26099e-06 -8.56108e-06)
(0.105325 3.13271e-07 -4.42077e-07)
(0.105324 2.56913e-07 -5.06569e-07)
(0.105324 1.72802e-07 -4.7374e-07)
(0.105323 9.45493e-08 -4.07751e-07)
(0.105323 3.66873e-08 -3.4096e-07)
(0.105323 -8.24745e-10 -2.8545e-07)
(0.105322 -2.42312e-08 -2.45415e-07)
(0.105322 -4.16453e-08 -2.20308e-07)
(0.105322 -5.98285e-08 -2.09226e-07)
(0.105322 -8.07908e-08 -2.17949e-07)
(0.105322 -9.95436e-08 -2.53004e-07)
(0.105119 5.92837e-07 -9.29999e-07)
(0.105119 7.65256e-07 -8.68758e-07)
(0.105118 7.21804e-07 -7.19607e-07)
(0.105118 5.76197e-07 -5.57189e-07)
(0.105118 4.07331e-07 -4.18184e-07)
(0.105117 2.49372e-07 -3.11663e-07)
(0.105117 1.04268e-07 -2.30134e-07)
(0.105117 -4.11198e-08 -1.58918e-07)
(0.105117 -1.92684e-07 -8.86708e-08)
(0.105117 -3.12599e-07 -3.52418e-08)
(0.105117 -3.14959e-07 -4.46822e-08)
(0.104448 8.9728e-07 -1.32633e-06)
(0.104448 1.1704e-06 -1.29276e-06)
(0.104447 1.06014e-06 -1.04391e-06)
(0.104447 8.11097e-07 -7.56035e-07)
(0.104447 5.66869e-07 -5.12317e-07)
(0.104447 3.69637e-07 -3.29095e-07)
(0.104447 2.00348e-07 -1.7842e-07)
(0.104447 1.15409e-08 -1.28411e-08)
(0.104447 -2.28454e-07 1.95945e-07)
(0.104447 -4.50904e-07 3.81303e-07)
(0.104447 -4.16958e-07 3.30238e-07)
(0.103117 6.39451e-07 -8.74118e-07)
(0.103116 1.09511e-06 -1.71415e-06)
(0.103116 9.51356e-07 -1.74261e-06)
(0.103116 6.23762e-07 -1.31537e-06)
(0.103116 3.70761e-07 -8.42511e-07)
(0.103116 2.56217e-07 -5.00467e-07)
(0.103117 2.57573e-07 -2.8561e-07)
(0.103117 3.13692e-07 -1.16107e-07)
(0.103116 3.36781e-07 1.27075e-07)
(0.103116 2.29473e-07 5.45775e-07)
(0.103115 -8.29341e-09 9.90825e-07)
(0.103115 -3.01123e-08 8.65359e-07)
(0.100626 1.31882e-06 -1.01793e-06)
(0.100626 2.01575e-07 -1.28718e-06)
(0.100627 -5.44575e-07 -9.36725e-07)
(0.100628 -7.52714e-07 -5.04712e-07)
(0.100628 -6.20257e-07 -2.22705e-07)
(0.100629 -3.39765e-07 -1.18621e-07)
(0.100629 1.45399e-08 -1.24351e-07)
(0.100629 4.21876e-07 -1.57722e-07)
(0.100629 8.60668e-07 -1.02866e-07)
(0.100628 1.24376e-06 2.04106e-07)
(0.100628 1.43516e-06 6.86597e-07)
(0.100627 1.1951e-06 5.60547e-07)
(0.0934672 1.37826e-06 -9.59631e-07)
(0.0934682 -1.12392e-06 1.13982e-06)
(0.0934699 -2.03416e-06 1.67136e-06)
(0.0934712 -1.73218e-06 1.21168e-06)
(0.0934716 -1.18034e-06 6.54023e-07)
(0.0934716 -6.49284e-07 2.59184e-07)
(0.0934715 -1.66357e-07 -2.65398e-08)
(0.0934716 3.30048e-07 -3.10933e-07)
(0.0934719 9.3896e-07 -7.09801e-07)
(0.0934723 1.71725e-06 -1.29924e-06)
(0.0934717 2.79103e-06 -2.15424e-06)
(0.0934708 2.71361e-06 -2.1619e-06)
(0.105655 2.91572e-07 -2.68813e-07)
(0.105655 4.69816e-07 -3.37206e-07)
(0.105654 4.88109e-07 -3.25699e-07)
(0.105654 4.18643e-07 -2.73695e-07)
(0.105653 3.19299e-07 -2.11334e-07)
(0.105653 2.21324e-07 -1.53353e-07)
(0.105653 1.32577e-07 -1.00882e-07)
(0.105653 5.20055e-08 -5.19122e-08)
(0.105653 -2.1472e-08 -7.26976e-09)
(0.105653 -7.67264e-08 2.12125e-08)
(0.105653 -9.13248e-08 1.38273e-08)
(0.105128 6.76131e-07 -3.11502e-07)
(0.105127 8.67904e-07 -4.46095e-07)
(0.105127 8.18382e-07 -4.34198e-07)
(0.105127 6.70461e-07 -3.53109e-07)
(0.105126 5.09922e-07 -2.53543e-07)
(0.105126 3.71135e-07 -1.56264e-07)
(0.105126 2.56413e-07 -6.08404e-08)
(0.105126 1.51808e-07 4.20667e-08)
(0.105126 4.56305e-08 1.52566e-07)
(0.105126 -4.48825e-08 2.32366e-07)
(0.105126 -6.27411e-08 2.03161e-07)
(0.104032 8.36538e-07 4.1616e-07)
(0.104031 1.04515e-06 -1.98682e-07)
(0.10403 9.12838e-07 -4.52668e-07)
(0.10403 6.73551e-07 -4.4642e-07)
(0.10403 4.69651e-07 -3.40189e-07)
(0.10403 3.50105e-07 -2.23612e-07)
(0.10403 3.11118e-07 -1.20457e-07)
(0.10403 3.23389e-07 -1.54803e-08)
(0.10403 3.44433e-07 1.23368e-07)
(0.10403 3.31711e-07 3.11472e-07)
(0.10403 2.72762e-07 4.74695e-07)
(0.10403 2.33662e-07 4.07831e-07)
(0.101754 1.47489e-06 3.83092e-07)
(0.101753 9.56002e-07 2.32759e-08)
(0.101753 4.00277e-07 -5.17753e-08)
(0.101753 4.87839e-08 -2.77706e-08)
(0.101754 -6.57806e-08 -1.59976e-08)
(0.101754 -2.16668e-08 -2.7129e-08)
(0.101754 1.24137e-07 -4.96834e-08)
(0.101754 3.34257e-07 -6.59236e-08)
(0.101754 5.74151e-07 -4.46497e-08)
(0.101754 7.85619e-07 4.9719e-08)
(0.101754 8.28369e-07 1.96698e-07)
(0.101753 7.24378e-07 1.65095e-07)
(0.0945495 1.14113e-06 -4.61098e-07)
(0.0945501 2.17033e-07 4.48954e-07)
(0.0945512 -3.95038e-07 8.75948e-07)
(0.0945521 -6.00352e-07 7.72979e-07)
(0.0945525 -5.34144e-07 4.66281e-07)
(0.0945527 -3.38367e-07 1.92078e-07)
(0.0945527 -8.94036e-08 -7.83437e-09)
(0.0945528 1.89825e-07 -1.8821e-07)
(0.0945528 4.96573e-07 -4.17257e-07)
(0.0945528 8.05843e-07 -7.46478e-07)
(0.0945525 1.04636e-06 -1.15198e-06)
(0.094552 9.80107e-07 -1.11827e-06)
(0.105812 3.74699e-07 -2.56628e-08)
(0.105812 4.81537e-07 -5.30021e-09)
(0.105811 4.69545e-07 5.26898e-09)
(0.105811 4.00034e-07 9.79067e-09)
(0.105811 3.125e-07 1.13522e-08)
(0.105811 2.27611e-07 1.19682e-08)
(0.10581 1.5459e-07 1.29267e-08)
(0.10581 9.52086e-08 1.4791e-08)
(0.10581 4.83693e-08 1.69619e-08)
(0.10581 1.60135e-08 1.84227e-08)
(0.10581 3.97009e-09 1.7582e-08)
(0.105324 9.69321e-07 2.33429e-07)
(0.105324 1.00675e-06 1.82952e-07)
(0.105324 8.78838e-07 1.35058e-07)
(0.105323 6.99199e-07 9.41911e-08)
(0.105323 5.296e-07 6.28741e-08)
(0.105323 3.91996e-07 4.10725e-08)
(0.105323 2.87188e-07 2.69064e-08)
(0.105323 2.05055e-07 1.81966e-08)
(0.105323 1.34365e-07 1.31149e-08)
(0.105323 7.52633e-08 1.05082e-08)
(0.105323 4.31083e-08 9.71069e-09)
(0.104283 1.4981e-06 9.94855e-07)
(0.104282 1.45139e-06 7.14505e-07)
(0.104282 1.16099e-06 4.90966e-07)
(0.104281 8.28629e-07 3.21273e-07)
(0.104281 5.67407e-07 2.0137e-07)
(0.104281 4.08499e-07 1.21812e-07)
(0.104281 3.39597e-07 7.16631e-08)
(0.104281 3.31766e-07 4.1089e-08)
(0.104281 3.49518e-07 2.23875e-08)
(0.104281 3.57817e-07 1.06176e-08)
(0.104281 3.34564e-07 3.15832e-09)
(0.104281 2.90335e-07 -1.32192e-09)
(0.102048 2.1923e-06 1.28167e-06)
(0.102048 1.52229e-06 7.82143e-07)
(0.102048 8.28907e-07 4.47102e-07)
(0.102048 3.4878e-07 2.3967e-07)
(0.102049 1.12583e-07 1.22103e-07)
(0.102049 6.60067e-08 6.11815e-08)
(0.102049 1.4416e-07 3.30844e-08)
(0.102049 2.98121e-07 2.25052e-08)
(0.102049 4.87542e-07 2.13999e-08)
(0.102049 6.63808e-07 2.48647e-08)
(0.102049 7.51977e-07 2.83857e-08)
(0.102049 6.78656e-07 2.38395e-08)
(0.094824 8.52686e-07 1.72009e-07)
(0.0948246 2.35393e-07 -2.79725e-07)
(0.0948254 -2.31208e-07 -3.82894e-07)
(0.0948261 -4.41554e-07 -3.31031e-07)
(0.0948264 -4.38868e-07 -2.32944e-07)
(0.0948266 -3.06784e-07 -1.43492e-07)
(0.0948266 -1.11147e-07 -7.57015e-08)
(0.0948266 1.10537e-07 -2.44365e-08)
(0.0948266 3.36483e-07 1.89817e-08)
(0.0948266 5.35284e-07 6.18303e-08)
(0.0948264 6.54163e-07 1.03534e-07)
(0.0948261 6.20763e-07 1.11754e-07)
(0.105655 5.65787e-07 -4.23356e-08)
(0.105654 6.30102e-07 1.32574e-07)
(0.105654 5.74344e-07 1.9693e-07)
(0.105654 4.64077e-07 2.01931e-07)
(0.105653 3.41549e-07 1.78009e-07)
(0.105653 2.27363e-07 1.41871e-07)
(0.105653 1.31293e-07 1.0508e-07)
(0.105653 5.39694e-08 7.20737e-08)
(0.105653 -6.28379e-09 4.45595e-08)
(0.105653 -3.92312e-08 3.43808e-08)
(0.105653 -2.68375e-08 5.85682e-08)
(0.105119 1.45235e-06 3.15722e-07)
(0.105118 1.36012e-06 4.86327e-07)
(0.105118 1.1173e-06 4.81488e-07)
(0.105118 8.44096e-07 3.94567e-07)
(0.105117 6.04868e-07 2.85635e-07)
(0.105117 4.17185e-07 1.79976e-07)
(0.105117 2.73077e-07 7.87223e-08)
(0.105117 1.52753e-07 -2.75838e-08)
(0.105117 4.12873e-08 -1.39504e-07)
(0.105117 -4.84782e-08 -2.16501e-07)
(0.105117 -6.82624e-08 -1.77932e-07)
(0.103995 2.32798e-06 6.16925e-07)
(0.103994 1.96872e-06 9.50995e-07)
(0.103994 1.44896e-06 9.80257e-07)
(0.103994 9.65219e-07 7.97888e-07)
(0.103994 6.186e-07 5.62068e-07)
(0.103994 4.20119e-07 3.57045e-07)
(0.103995 3.38808e-07 1.9782e-07)
(0.103995 3.30215e-07 5.846e-08)
(0.103995 3.4495e-07 -1.03604e-07)
(0.103994 3.37222e-07 -3.10882e-07)
(0.103994 2.86996e-07 -4.89934e-07)
(0.103994 2.40854e-07 -4.25807e-07)
(0.101683 3.61052e-06 1.74201e-06)
(0.101683 2.2348e-06 1.29042e-06)
(0.101684 1.05426e-06 8.05067e-07)
(0.101685 3.376e-07 4.31441e-07)
(0.101685 3.24071e-08 2.15732e-07)
(0.101686 -5.65488e-09 1.20791e-07)
(0.101686 1.09912e-07 9.67834e-08)
(0.101686 3.13662e-07 9.69958e-08)
(0.101686 5.60614e-07 7.23902e-08)
(0.101686 7.91918e-07 -2.31304e-08)
(0.101686 8.64263e-07 -1.69104e-07)
(0.101685 7.51216e-07 -1.46573e-07)
(0.0944913 9.60135e-07 1.45876e-06)
(0.0944919 -1.16678e-07 -2.60319e-07)
(0.0944928 -7.57278e-07 -1.04181e-06)
(0.0944935 -9.11672e-07 -1.02659e-06)
(0.0944938 -7.6892e-07 -6.93106e-07)
(0.0944938 -4.9822e-07 -3.52985e-07)
(0.0944937 -1.88769e-07 -8.11597e-08)
(0.0944937 1.34778e-07 1.66256e-07)
(0.0944938 4.7335e-07 4.58355e-07)
(0.0944938 8.04159e-07 8.41855e-07)
(0.0944934 1.06941e-06 1.28972e-06)
(0.0944928 1.03414e-06 1.26188e-06)
(0.105128 6.01702e-07 9.45746e-08)
(0.105127 7.23168e-07 2.91849e-07)
(0.105127 6.6188e-07 3.39374e-07)
(0.105126 5.15583e-07 3.20688e-07)
(0.105126 3.51962e-07 2.79899e-07)
(0.105126 2.00493e-07 2.38486e-07)
(0.105126 6.46389e-08 2.03146e-07)
(0.105126 -6.33276e-08 1.72048e-07)
(0.105125 -1.81662e-07 1.48239e-07)
(0.105126 -2.48616e-07 1.57428e-07)
(0.105126 -1.87764e-07 2.43197e-07)
(0.104448 1.74941e-06 4.72799e-07)
(0.104447 1.70158e-06 7.54448e-07)
(0.104447 1.38708e-06 7.00587e-07)
(0.104447 1.00339e-06 5.41086e-07)
(0.104447 6.69164e-07 3.81472e-07)
(0.104447 4.10446e-07 2.53479e-07)
(0.104447 1.99494e-07 1.38899e-07)
(0.104447 -1.48852e-08 -2.99348e-09)
(0.104446 -2.6539e-07 -1.94604e-07)
(0.104446 -4.85804e-07 -3.63689e-07)
(0.104446 -4.59754e-07 -2.72265e-07)
(0.103061 2.52167e-06 4.80699e-08)
(0.10306 2.18087e-06 1.23567e-06)
(0.10306 1.58939e-06 1.4721e-06)
(0.10306 1.00088e-06 1.14425e-06)
(0.103061 5.84783e-07 7.29138e-07)
(0.103062 3.6599e-07 4.27072e-07)
(0.103062 3.0077e-07 2.43812e-07)
(0.103062 3.14316e-07 9.80409e-08)
(0.103062 3.13789e-07 -1.33361e-07)
(0.103061 2.04049e-07 -5.5789e-07)
(0.103061 -1.59196e-08 -1.02079e-06)
(0.10306 -4.82645e-08 -8.90881e-07)
(0.100472 3.12855e-06 1.35791e-06)
(0.100472 1.27011e-06 1.42432e-06)
(0.100474 7.58154e-08 9.49527e-07)
(0.100475 -4.12713e-07 4.61019e-07)
(0.100476 -4.55346e-07 1.67715e-07)
(0.100477 -2.79467e-07 6.95461e-08)
(0.100477 1.89337e-08 1.02199e-07)
(0.100477 3.98058e-07 1.74003e-07)
(0.100477 8.23968e-07 1.60186e-07)
(0.100477 1.2122e-06 -1.13831e-07)
(0.100476 1.42962e-06 -5.71359e-07)
(0.100475 1.17705e-06 -4.83925e-07)
(0.0932155 2.1366e-06 2.36771e-06)
(0.0932174 -1.114e-06 -1.1406e-06)
(0.0932194 -2.36915e-06 -2.30103e-06)
(0.0932206 -2.09119e-06 -1.83097e-06)
(0.0932209 -1.43496e-06 -1.06824e-06)
(0.0932208 -8.0573e-07 -4.92509e-07)
(0.0932207 -2.60331e-07 -7.86925e-08)
(0.0932208 2.77618e-07 3.1285e-07)
(0.0932211 9.3222e-07 8.48807e-07)
(0.0932214 1.80926e-06 1.68298e-06)
(0.0932209 3.10721e-06 3.02388e-06)
(0.0932203 3.11513e-06 3.13327e-06)
(0.104031 4.81184e-07 6.52174e-07)
(0.10403 6.8211e-07 5.44739e-07)
(0.104029 6.24592e-07 4.14236e-07)
(0.104029 4.58668e-07 3.21125e-07)
(0.104029 2.84344e-07 2.75521e-07)
(0.104028 1.29911e-07 2.73015e-07)
(0.104028 -1.61371e-08 3.0021e-07)
(0.104028 -1.82716e-07 3.37066e-07)
(0.104028 -3.7604e-07 3.69095e-07)
(0.104028 -5.07286e-07 4.13197e-07)
(0.104028 -3.72413e-07 5.21558e-07)
(0.103116 2.18726e-06 1.04363e-06)
(0.103115 2.17385e-06 9.14342e-07)
(0.103115 1.65633e-06 5.95761e-07)
(0.103115 1.0708e-06 3.50987e-07)
(0.103116 6.31732e-07 2.43923e-07)
(0.103116 3.39537e-07 2.42793e-07)
(0.103116 1.07395e-07 2.88671e-07)
(0.103115 -1.91249e-07 2.99708e-07)
(0.103115 -6.66141e-07 1.8844e-07)
(0.103115 -1.17305e-06 -3.52598e-08)
(0.103115 -1.08451e-06 -2.57946e-08)
(0.101202 2.43742e-06 5.42008e-07)
(0.101202 3.07176e-06 2.20342e-06)
(0.101203 2.39158e-06 1.89618e-06)
(0.101205 1.34458e-06 1.0445e-06)
(0.101206 6.05601e-07 4.132e-07)
(0.101207 2.71523e-07 1.627e-07)
(0.101208 2.19254e-07 1.74542e-07)
(0.101208 2.74386e-07 2.74154e-07)
(0.101207 2.17238e-07 2.35755e-07)
(0.101206 -2.56051e-07 -2.59005e-07)
(0.101205 -1.15191e-06 -1.22012e-06)
(0.101204 -1.1014e-06 -1.15666e-06)
(0.0978171 2.43097e-06 1.2289e-06)
(0.0978203 1.60894e-06 1.15617e-06)
(0.0978237 2.86843e-07 1.93773e-07)
(0.0978266 -3.91045e-07 -4.3474e-07)
(0.0978286 -5.55851e-07 -5.24005e-07)
(0.0978297 -3.9167e-07 -3.27673e-07)
(0.0978302 -1.35536e-08 8.67296e-09)
(0.0978302 4.9089e-07 4.19781e-07)
(0.0978295 9.91703e-07 7.85526e-07)
(0.0978281 1.07201e-06 6.71657e-07)
(0.0978259 1.92822e-07 -2.48208e-07)
(0.0978216 -3.35552e-07 -6.45569e-07)
(0.089565 2.36735e-06 3.37712e-06)
(0.0895648 -5.44854e-06 -7.98056e-06)
(0.0895645 -5.9603e-06 -8.65937e-06)
(0.0895634 -4.51481e-06 -6.23872e-06)
(0.0895621 -2.47444e-06 -3.1197e-06)
(0.0895613 -1.13241e-06 -1.247e-06)
(0.089561 -3.00632e-07 -2.96666e-07)
(0.0895612 4.33041e-07 3.92597e-07)
(0.0895618 1.53947e-06 1.53678e-06)
(0.089563 3.63372e-06 4.1331e-06)
(0.0895642 7.2037e-06 9.69822e-06)
(0.0895677 6.71201e-06 9.47701e-06)
(0.101752 -1.83331e-09 2.01298e-09)
(0.101752 1.65757e-07 -2.65892e-07)
(0.101751 1.4881e-07 -2.32358e-07)
(0.101751 1.0686e-07 -1.04819e-07)
(0.101751 7.87863e-08 3.52925e-08)
(0.101751 6.23971e-08 1.738e-07)
(0.101751 4.19977e-08 3.26436e-07)
(0.101751 -1.17735e-08 5.10128e-07)
(0.101751 -1.21603e-07 7.45383e-07)
(0.101751 -2.2912e-07 1.04052e-06)
(0.101751 -5.85054e-08 1.55734e-06)
(0.100625 1.14124e-06 -3.9615e-07)
(0.100626 8.89309e-07 -1.00266e-06)
(0.100627 4.93269e-07 -8.92275e-07)
(0.100628 2.14606e-07 -5.93367e-07)
(0.100628 1.01893e-07 -2.64018e-07)
(0.100628 9.68818e-08 6.83849e-08)
(0.100628 1.18715e-07 4.18064e-07)
(0.100628 5.31375e-08 7.94419e-07)
(0.100628 -2.55838e-07 1.14908e-06)
(0.100627 -7.14913e-07 1.40443e-06)
(0.100626 -5.3118e-07 1.33609e-06)
(0.0979832 1.57164e-06 2.99439e-07)
(0.0979868 2.44077e-06 2.20746e-06)
(0.0979906 9.08411e-07 6.75353e-07)
(0.0979937 -2.44986e-07 -3.86103e-07)
(0.0979959 -5.46245e-07 -6.44234e-07)
(0.0979971 -3.99962e-07 -4.37564e-07)
(0.0979976 -7.39118e-08 -1.17821e-08)
(0.0979976 3.3025e-07 5.21476e-07)
(0.0979969 7.19754e-07 1.06665e-06)
(0.0979955 7.49765e-07 1.2537e-06)
(0.0979934 1.14371e-07 4.6461e-07)
(0.0979893 -1.3112e-07 -8.23229e-08)
(0.0930772 2.77578e-06 1.67125e-06)
(0.0930856 7.96513e-06 8.45878e-06)
(0.0930927 4.90532e-06 5.53966e-06)
(0.0930954 1.61941e-06 2.12152e-06)
(0.0930961 -6.90895e-08 2.64588e-07)
(0.0930961 -4.17806e-07 -1.98732e-07)
(0.093096 -9.72325e-08 5.24352e-08)
(0.0930961 4.58771e-07 5.60204e-07)
(0.0930963 7.60307e-07 7.87869e-07)
(0.0930963 -8.60669e-07 -1.08189e-06)
(0.0930929 -6.45086e-06 -7.31091e-06)
(0.0930837 -6.34163e-06 -7.29811e-06)
(0.0795248 -8.81452e-08 1.19585e-06)
(0.0795087 -4.04354e-06 -4.90558e-06)
(0.0794992 -3.18075e-06 -4.54145e-06)
(0.0794922 -2.047e-06 -3.00183e-06)
(0.0794869 -1.32428e-06 -1.65355e-06)
(0.0794837 -7.4482e-07 -7.24789e-07)
(0.0794825 -1.90797e-07 -1.17194e-07)
(0.0794827 4.26481e-07 4.37171e-07)
(0.0794847 1.32969e-06 1.30662e-06)
(0.0794894 2.31071e-06 2.4608e-06)
(0.0794938 4.63126e-06 5.7579e-06)
(0.0795174 4.6444e-06 6.04181e-06)
(0.0945524 -7.00662e-07 1.5953e-06)
(0.0945544 -8.16223e-07 8.88781e-07)
(0.0945561 -5.86035e-07 4.27304e-07)
(0.0945572 -2.76342e-07 2.04401e-07)
(0.0945579 -4.26724e-08 1.4222e-07)
(0.0945583 1.09223e-07 1.67161e-07)
(0.0945585 2.43344e-07 2.48888e-07)
(0.0945585 4.23221e-07 3.58313e-07)
(0.0945583 6.84965e-07 4.52525e-07)
(0.0945576 9.95223e-07 4.73466e-07)
(0.0945566 8.33996e-07 1.72615e-07)
(0.093468 -2.61275e-06 -9.08914e-07)
(0.0934704 -3.36261e-06 -2.0833e-06)
(0.0934721 -2.37035e-06 -1.65e-06)
(0.093473 -1.26992e-06 -9.75039e-07)
(0.0934734 -5.45183e-07 -4.39759e-07)
(0.0934736 -9.27934e-08 -2.39956e-08)
(0.0934738 2.78871e-07 3.71797e-07)
(0.0934741 7.40123e-07 8.6619e-07)
(0.0934744 1.40723e-06 1.53001e-06)
(0.0934737 2.40677e-06 2.51394e-06)
(0.0934726 2.63666e-06 2.41774e-06)
(0.0901484 3.02449e-06 2.37653e-06)
(0.0901454 -8.19163e-06 -6.6325e-06)
(0.0901439 -8.8915e-06 -7.15634e-06)
(0.0901421 -6.47625e-06 -5.29488e-06)
(0.0901406 -3.31878e-06 -2.79468e-06)
(0.0901397 -1.38879e-06 -1.19854e-06)
(0.0901395 -3.98752e-07 -2.72276e-07)
(0.0901397 2.88264e-07 4.70614e-07)
(0.0901403 1.34893e-06 1.57708e-06)
(0.0901413 3.72276e-06 3.77313e-06)
(0.0901422 8.9734e-06 7.65858e-06)
(0.090145 8.91232e-06 7.11725e-06)
(0.0799036 1.06528e-06 -8.86597e-07)
(0.0798872 -5.66509e-06 -5.30504e-06)
(0.0798775 -5.5954e-06 -4.17764e-06)
(0.0798706 -4.00936e-06 -2.61611e-06)
(0.0798655 -2.38551e-06 -1.5268e-06)
(0.0798625 -1.18872e-06 -7.48898e-07)
(0.0798615 -3.85678e-07 -1.27481e-07)
(0.0798618 3.01593e-07 5.02774e-07)
(0.0798638 1.29586e-06 1.44966e-06)
(0.0798682 2.79398e-06 2.64641e-06)
(0.0798727 6.50817e-06 5.54621e-06)
(0.0798957 6.78399e-06 5.43994e-06)
(0.0583104 1.08801e-06 1.08341e-06)
(0.0583042 5.42376e-07 9.2119e-07)
(0.0582964 -7.77044e-07 -3.26845e-07)
(0.0582893 -9.88034e-07 -4.66923e-07)
(0.0582838 -6.73185e-07 -2.12178e-07)
(0.0582808 -3.41895e-07 -3.48739e-08)
(0.0582797 -1.17445e-07 6.36216e-08)
(0.05828 9.86712e-08 1.70132e-07)
(0.0582819 3.56805e-07 3.0623e-07)
(0.0582857 5.73306e-07 4.04214e-07)
(0.058289 -4.60813e-07 -8.81936e-07)
(0.0583027 -2.83221e-07 -7.7466e-07)
)
;

boundaryField
{
    inlet
    {
        type            fixedValue;
        value           nonuniform List<vector> 0();
    }
    ami1
    {
        type            cyclicAMI;
        value           nonuniform List<vector> 0();
    }
    walls
    {
        type            noSlip;
    }
    ami2
    {
        type            cyclicAMI;
        value           nonuniform List<vector> 0();
    }
    outlet
    {
        type            zeroGradient;
    }
    procBoundary9to0
    {
        type            processor;
        value           nonuniform List<vector> 
40
(
(0.0948236 -4.46061e-08 -2.08956e-06)
(0.0944878 9.40723e-07 -2.07856e-06)
(0.0932124 2.07897e-06 -2.90114e-06)
(0.0932124 2.07897e-06 -2.90114e-06)
(0.0895618 1.18408e-05 -1.02288e-05)
(0.0795109 6.46068e-06 -6.33811e-06)
(0.0582965 -9.33671e-07 -6.14874e-07)
(0.102048 1.26566e-06 -2.05833e-06)
(0.101684 1.47849e-06 -2.95282e-06)
(0.100472 1.32605e-06 -3.30872e-06)
(0.100472 1.32605e-06 -3.30872e-06)
(0.0978165 -1.43106e-06 -1.55524e-06)
(0.0930792 -7.72364e-06 4.52155e-06)
(0.0798901 5.80111e-06 -9.13313e-06)
(0.104283 1.05081e-06 -1.21274e-06)
(0.103996 8.49797e-07 -2.04944e-06)
(0.103061 4.28309e-07 -2.41943e-06)
(0.103061 4.28309e-07 -2.41943e-06)
(0.101204 -1.35583e-06 -1.55884e-06)
(0.0979882 8.55238e-07 -2.84854e-06)
(0.0901404 8.13919e-06 -1.14884e-05)
(0.105325 3.05686e-07 -1.68309e-07)
(0.10512 1.16356e-07 -7.98301e-07)
(0.104449 1.95002e-08 -1.04282e-06)
(0.104449 1.95002e-08 -1.04282e-06)
(0.103118 -3.9542e-07 8.47617e-08)
(0.100628 1.83945e-06 -3.74932e-07)
(0.0934682 3.46132e-06 -2.99567e-06)
(0.105655 -1.22808e-07 -6.6901e-08)
(0.105129 8.06784e-08 2.38399e-08)
(0.105129 8.06784e-08 2.38399e-08)
(0.104033 4.86077e-08 1.23123e-06)
(0.101755 1.53591e-06 1.05542e-06)
(0.0945497 1.79467e-06 -8.30722e-07)
(0.105812 7.27983e-08 -6.02544e-08)
(0.105325 6.14986e-07 2.81618e-07)
(0.105325 6.14986e-07 2.81618e-07)
(0.104283 1.04253e-06 1.34868e-06)
(0.102048 2.36604e-06 2.00503e-06)
(0.0948238 1.33958e-06 1.15084e-06)
)
;
    }
    procBoundary9to1
    {
        type            processor;
        value           nonuniform List<vector> 
30
(
(0.105655 3.10976e-07 -3.98481e-07)
(0.105119 1.25119e-06 -1.03808e-07)
(0.105119 1.25119e-06 -1.03808e-07)
(0.103995 2.31167e-06 1.78276e-07)
(0.101682 4.26112e-06 2.1071e-06)
(0.0944916 1.98985e-06 3.22936e-06)
(0.105129 2.23281e-07 -3.79236e-07)
(0.104449 1.36816e-06 -3.07334e-07)
(0.104449 1.36816e-06 -3.07334e-07)
(0.103061 2.76683e-06 -1.40815e-06)
(0.100472 4.80588e-06 8.559e-07)
(0.0932144 5.03152e-06 5.43433e-06)
(0.104032 -1.26051e-07 6.03286e-07)
(0.103117 1.24522e-06 5.61223e-07)
(0.103117 1.24522e-06 5.61223e-07)
(0.101204 1.7512e-06 -1.5497e-06)
(0.0978178 3.33437e-06 4.99844e-07)
(0.0895607 9.36218e-06 1.17415e-05)
(0.101754 -4.67246e-07 1.02974e-06)
(0.100626 1.02862e-06 1.53417e-06)
(0.100626 1.02862e-06 1.53417e-06)
(0.0979869 1.12333e-06 -1.03021e-06)
(0.0930792 -4.61969e-06 -7.6552e-06)
(0.0795116 6.30211e-06 7.47814e-06)
(0.0945507 -1.16259e-07 2.26751e-06)
(0.0934662 7.97732e-07 2.26612e-06)
(0.0934662 7.97732e-07 2.26612e-06)
(0.0901424 1.15386e-05 9.08605e-06)
(0.0798912 8.47541e-06 6.01063e-06)
(0.0582975 1.3976e-07 -5.95267e-07)
)
;
    }
    procBoundary9to7
    {
        type            processor;
        value           nonuniform List<vector> 
59
(
(0.0948267 1.01872e-06 2.5373e-07)
(0.0944924 9.25377e-07 -2.89278e-07)
(0.0932196 9.43086e-07 -9.09638e-07)
(0.0895698 1.9016e-06 -9.53129e-07)
(0.0795253 2.09877e-07 9.29798e-07)
(0.0583109 9.5775e-07 -9.51414e-07)
(0.102048 -1.60012e-08 -5.84976e-07)
(0.101685 3.34575e-08 -3.54759e-07)
(0.100474 2.7177e-07 -4.62908e-07)
(0.0978199 5.39582e-07 -2.7101e-07)
(0.0930802 1.90188e-06 -1.81339e-06)
(0.0799032 -8.05299e-07 -4.6746e-07)
(0.10428 -2.51872e-07 -4.23357e-07)
(0.103994 -2.86898e-07 -2.77389e-07)
(0.10306 -1.13889e-07 -2.63212e-07)
(0.101203 3.82899e-07 -3.64224e-07)
(0.0979877 4.19805e-07 -5.59318e-07)
(0.0901461 1.15542e-06 -1.58197e-06)
(0.105322 -1.03405e-07 -2.90802e-07)
(0.105117 -1.85352e-07 -1.17305e-07)
(0.104447 -8.43352e-08 6.93859e-09)
(0.103115 2.65229e-07 3.49261e-08)
(0.100626 6.21963e-07 -2.56174e-07)
(0.09347 8.55761e-07 -3.60877e-07)
(0.105653 -6.15473e-08 -2.82704e-08)
(0.105126 2.1264e-09 6.02464e-08)
(0.10403 2.42951e-07 8.20045e-08)
(0.101753 4.71767e-07 -7.74585e-08)
(0.0945517 5.19454e-07 -3.72827e-07)
(0.10581 1.31564e-08 1.34068e-08)
(0.105323 4.27513e-08 9.49797e-09)
(0.104281 2.3953e-07 -3.27628e-09)
(0.102049 4.43518e-07 6.90495e-09)