/*--------------------------------*- C++ -*----------------------------------*\
| =========                 |                                                 |
| \\      /  F ield         | OpenFOAM: The Open Source CFD Toolbox           |
|  \\    /   O peration     | Version:  2212                                  |
|   \\  /    A nd           | Website:  www.openfoam.com                      |
|    \\/     M anipulation  |                                                 |
\*---------------------------------------------------------------------------*/
FoamFile
{
    version     2.0;
    format      ascii;
    arch        "LSB;label=32;scalar=64";
    class       surfaceScalarField;
    location    "1.5";
    object      phi;
}
// * * * * * * * * * * * * * * * * * * * * * * * * * * * * * * * * * * * * * //

dimensions      [0 3 -1 0 0 0 0];

oriented        oriented;

internalField   nonuniform List<scalar> 
1755
(
5.73667e-08
-3.39994e-08
3.46474e-08
5.67108e-08
-3.40086e-08
3.46644e-08
5.60421e-08
-3.40245e-08
3.46932e-08
5.53723e-08
-3.40445e-08
3.47142e-08
-3.40622e-08
3.47245e-08
1.86846e-07
-6.39606e-08
3.19443e-08
1.8489e-07
-6.40397e-08
3.19878e-08
1.82956e-07
-6.41485e-08
3.20577e-08
1.8103e-07
-6.42334e-08
3.2115e-08
-6.42507e-08
3.21311e-08
3.65923e-07
-8.87831e-08
2.85983e-08
3.62211e-07
-8.89252e-08
2.85972e-08
3.58586e-07
-8.91023e-08
2.8579e-08
3.5502e-07
-8.92287e-08
2.85617e-08
-8.9302e-08
2.86025e-08
5.21339e-07
-1.06979e-07
2.3677e-08
5.16032e-07
-1.07081e-07
2.34623e-08
5.10903e-07
-1.07211e-07
2.32377e-08
5.05876e-07
-1.07308e-07
2.3107e-08
5.0088e-07
-1.07371e-07
2.30652e-08
-1.0744e-07
2.29537e-08
6.25675e-07
-1.17108e-07
1.67164e-08
6.19184e-07
-1.17217e-07
1.66271e-08
6.12763e-07
-1.17319e-07
1.6529e-08
6.06388e-07
-1.17397e-07
1.64643e-08
6.00072e-07
-1.17447e-07
1.63915e-08
-1.17498e-07
1.61456e-08
6.53738e-07
-1.18307e-07
7.63229e-09
6.47313e-07
-1.18363e-07
7.57138e-09
6.40866e-07
-1.18375e-07
7.50332e-09
6.34395e-07
-1.18359e-07
7.43385e-09
6.27937e-07
-1.1835e-07
7.36095e-09
6.21656e-07
-1.18366e-07
7.14839e-09
-1.18375e-07
6.0173e-07
-1.09788e-07
-2.832e-09
5.9601e-07
-1.0977e-07
-2.87236e-09
5.90324e-07
-1.09688e-07
-3.00229e-09
5.84739e-07
-1.09579e-07
-3.19517e-09
5.79218e-07
-1.0948e-07
-3.34993e-09
5.73793e-07
-1.09397e-07
-3.54349e-09
-1.09371e-07
4.86359e-07
-9.18053e-08
-1.35387e-08
4.8187e-07
-9.17428e-08
-1.35379e-08
4.7736e-07
-9.16492e-08
-1.35281e-08
4.72809e-07
-9.15579e-08
-1.34698e-08
4.68188e-07
-9.15003e-08
-1.33591e-08
4.63575e-07
-9.14538e-08
-1.33299e-08
-9.14148e-08
-1.33817e-08
3.32954e-07
-6.63142e-08
-2.2141e-08
3.29598e-07
-6.62757e-08
-2.21109e-08
3.2626e-07
-6.62302e-08
-2.20811e-08
3.2293e-07
-6.6188e-08
-2.20398e-08
3.19563e-07
-6.6157e-08
-2.19759e-08
3.16227e-07
-6.61183e-08
-2.19999e-08
-2.20822e-08
1.74818e-07
-3.4643e-08
-2.98512e-08
1.7299e-07
-3.46615e-08
-2.97863e-08
1.71145e-07
-3.46912e-08
-2.96935e-08
1.69299e-07
-3.47123e-08
-2.96295e-08
1.67437e-07
-3.47309e-08
-2.95641e-08
-3.47302e-08
-2.95737e-08
5.73723e-08
-3.39951e-08
5.67175e-08
-3.40068e-08
5.60531e-08
-3.40268e-08
5.53942e-08
-3.40534e-08
5.47411e-08
-3.40779e-08
-3.41136e-08
1.74852e-07
-2.98564e-08
6.63194e-08
1.73025e-07
-2.97891e-08
6.62805e-08
1.7117e-07
-2.96902e-08
6.62388e-08
1.69282e-07
-2.96076e-08
6.62099e-08
1.67359e-07
-2.95758e-08
6.62229e-08
6.61476e-08
4.78747e-07
-5.52378e-08
6.07993e-08
4.75233e-07
-5.51407e-08
6.08541e-08
4.71693e-07
-5.50202e-08
6.09277e-08
4.68107e-07
-5.49128e-08
6.1006e-08
-5.48451e-08
6.10547e-08
7.96857e-07
-7.71545e-08
5.29798e-08
7.94262e-07
-7.70232e-08
5.30742e-08
7.91541e-07
-7.68985e-08
5.31789e-08
7.88721e-07
-7.68101e-08
5.32791e-08
7.85787e-07
-7.67186e-08
5.34091e-08
-7.6756e-08
5.33625e-08
1.02558e-06
-9.31808e-08
4.13204e-08
1.02382e-06
-9.31277e-08
4.13274e-08
1.0219e-06
-9.30777e-08
4.1341e-08
1.01985e-06
-9.30305e-08
4.13782e-08
1.01773e-06
-9.29657e-08
4.14282e-08
-9.29704e-08
4.12697e-08
1.16044e-06
-1.01931e-07
2.68234e-08
1.15906e-06
-1.01924e-07
2.68e-08
1.15765e-06
-1.01916e-07
2.67766e-08
1.15622e-06
-1.01904e-07
2.67687e-08
1.15482e-06
-1.01896e-07
2.67178e-08
-1.01921e-07
2.64741e-08
1.1972e-06
-1.03092e-07
9.81099e-09
1.19621e-06
-1.03135e-07
9.77508e-09
1.19524e-06
-1.03174e-07
9.73078e-09
1.19429e-06
-1.03214e-07
9.69255e-09
1.19341e-06
-1.03267e-07
9.61332e-09
-1.03301e-07
9.34791e-09
1.13995e-06
-9.66819e-08
-8.70767e-09
1.13945e-06
-9.67866e-08
-8.71243e-09
1.1389e-06
-9.69119e-08
-8.72038e-09
1.13825e-06
-9.70601e-08
-8.70123e-09
1.13754e-06
-9.72186e-08
-8.68632e-09
-9.72849e-08
-8.88779e-09
9.9743e-07
-8.28041e-08
-2.64917e-08
9.96397e-07
-8.29034e-08
-2.63885e-08
9.95226e-07
-8.29965e-08
-2.62724e-08
9.93906e-07
-8.3094e-08
-2.61159e-08
9.92461e-07
-8.32142e-08
-2.5918e-08
9.90984e-07
-8.32347e-08
-2.59035e-08
-8.31299e-08
7.71853e-07
-6.07917e-08
-4.16312e-08
7.69172e-07
-6.0851e-08
-4.14831e-08
7.6635e-07
-6.09232e-08
-4.13318e-08
7.6338e-07
-6.0986e-08
-4.11781e-08
7.60272e-07
-6.10785e-08
-4.10034e-08
7.57112e-07
-6.10811e-08
-4.09932e-08
-6.0954e-08
4.78713e-07
-3.19401e-08
-5.52178e-08
4.75184e-07
-3.19842e-08
-5.51246e-08
4.71634e-07
-3.20525e-08
-5.50142e-08
4.68054e-07
-3.20973e-08
-5.49381e-08
4.64388e-07
-3.21433e-08
-5.48327e-08
4.60682e-07
-3.21273e-08
-5.48216e-08
-5.49248e-08
1.86904e-07
-6.39536e-08
1.8495e-07
-6.4037e-08
1.83026e-07
-6.41548e-08
1.81137e-07
-6.42616e-08
1.79261e-07
-6.43451e-08
-6.44231e-08
3.33126e-07
-2.21483e-08
9.17964e-08
3.29793e-07
-2.21173e-08
9.17305e-08
3.26471e-07
-2.20796e-08
9.16407e-08
3.23138e-07
-2.20182e-08
9.15617e-08
3.19739e-07
-2.19013e-08
9.15228e-08
3.1638e-07
-2.19926e-08
9.14992e-08
9.13859e-08
7.71978e-07
-4.16532e-08
8.28096e-08
7.69319e-07
-4.15052e-08
8.29013e-08
7.66527e-07
-4.13486e-08
8.29888e-08
7.63627e-07
-4.11871e-08
8.30752e-08
7.60616e-07
-4.10088e-08
8.3173e-08
-4.10936e-08
8.30968e-08
1.13178e-06
-5.97565e-08
7.00988e-08
1.13266e-06
-5.95667e-08
7.02541e-08
1.13342e-06
-5.93615e-08
7.04297e-08
1.13407e-06
-5.91604e-08
7.05973e-08
1.13471e-06
-5.89761e-08
7.07433e-08
-5.90207e-08
7.06876e-08
1.37533e-06
-7.35275e-08
5.25852e-08
1.37784e-06
-7.34145e-08
5.26669e-08
1.38033e-06
-7.32771e-08
5.27709e-08
1.38277e-06
-7.31229e-08
5.28952e-08
1.38522e-06
-7.29729e-08
5.2982e-08
-7.29536e-08
5.28716e-08
1.51725e-06
-8.15921e-08
3.16766e-08
1.52048e-06
-8.15345e-08
3.16901e-08
1.52373e-06
-8.14711e-08
3.17221e-08
1.52703e-06
-8.14086e-08
3.17516e-08
1.53039e-06
-8.13551e-08
3.17371e-08
-8.13375e-08
3.15779e-08
1.55963e-06
-8.36345e-08
8.26325e-09
1.56327e-06
-8.36581e-08
8.25412e-09
1.56697e-06
-8.37056e-08
8.25995e-09
1.57078e-06
-8.37725e-08
8.25531e-09
1.57468e-06
-8.3839e-08
8.19767e-09
-8.38464e-08
8.00006e-09
1.50699e-06
-7.99562e-08
-1.61151e-08
1.5108e-06
-8.00722e-08
-1.61114e-08
1.51466e-06
-8.02178e-08
-1.60704e-08
1.51859e-06
-8.03847e-08
-1.60205e-08
1.52264e-06
-8.05482e-08
-1.60285e-08
-8.05869e-08
1.365e-06
-7.01005e-08
-3.9445e-08
1.36814e-06
-7.02652e-08
-3.93309e-08
1.37127e-06
-7.04455e-08
-3.91798e-08
1.3744e-06
-7.06198e-08
-3.90032e-08
1.37757e-06
-7.07919e-08
-3.88468e-08
-7.07671e-08
-3.89076e-08
1.13174e-06
-5.29877e-08
-5.97335e-08
1.13263e-06
-5.30898e-08
-5.95465e-08
1.13339e-06
-5.31979e-08
-5.93399e-08
1.13403e-06
-5.32953e-08
-5.91406e-08
1.13462e-06
-5.34433e-08
-5.89421e-08
-5.34385e-08
-5.89446e-08
7.96821e-07
-2.85989e-08
-7.71381e-08
7.94218e-07
-2.85991e-08
-7.70118e-08
7.91473e-07
-2.85784e-08
-7.68894e-08
7.88588e-07
-2.85415e-08
-7.68068e-08
7.85563e-07
-2.85375e-08
-7.67136e-08
7.82511e-07
-2.84852e-08
-7.67229e-08
3.66081e-07
-8.8777e-08
3.62365e-07
-8.89208e-08
3.58739e-07
-8.91066e-08
3.55187e-07
-8.92516e-08
3.51668e-07
-8.93635e-08
-8.94531e-08
4.86655e-07
-1.35537e-08
1.09747e-07
4.82215e-07
-1.35582e-08
1.09729e-07
4.77749e-07
-1.35489e-08
1.09655e-07
4.73238e-07
-1.34794e-08
1.09553e-07
4.68656e-07
-1.33512e-08
1.09456e-07
4.64068e-07
-1.33115e-08
1.09399e-07
-1.34122e-08
9.97572e-07
-2.64971e-08
9.66726e-08
9.96526e-07
-2.63956e-08
9.6785e-08
9.95334e-07
-2.6274e-08
9.69058e-08
9.93999e-07
-2.61126e-08
9.70437e-08
9.9257e-07
-2.59277e-08
9.71786e-08
9.91109e-07
-2.59707e-08
9.72164e-08
1.36482e-06
-3.94272e-08
7.9988e-08
1.36792e-06
-3.93324e-08
8.00937e-08
1.37102e-06
-3.91848e-08
8.02352e-08
1.37413e-06
-3.90109e-08
8.03911e-08
1.37729e-06
-3.88798e-08
8.05295e-08
-3.89928e-08
1.6114e-06
-4.99859e-08
5.83249e-08
1.61627e-06
-4.99196e-08
5.8388e-08
1.62116e-06
-4.98046e-08
5.84964e-08
1.62609e-06
-4.96667e-08
5.86207e-08
1.63108e-06
-4.95859e-08
5.86971e-08
-4.96556e-08
1.7565e-06
-5.68322e-08
3.29665e-08
1.76208e-06
-5.67966e-08
3.29891e-08
1.7677e-06
-5.67487e-08
3.30451e-08
1.77337e-06
-5.66961e-08
3.31061e-08
1.77907e-06
-5.66628e-08
3.3117e-08
-5.66762e-08
1.8029e-06
-5.95885e-08
5.19737e-09
1.80877e-06
-5.96024e-08
5.19804e-09
1.81468e-06
-5.96385e-08
5.23321e-09
1.82065e-06
-5.96758e-08
5.26386e-09
1.82664e-06
-5.96792e-08
5.22764e-09
1.75335e-06
-5.8296e-08
-2.3109e-08
1.75911e-06
-5.83646e-08
-2.30994e-08
1.76491e-06
-5.84765e-08
-2.30403e-08
1.7708e-06
-5.85946e-08
-2.2985e-08
-5.86563e-08
-2.30102e-08
1.61143e-06
-5.25864e-08
-4.99915e-08
1.61632e-06
-5.26644e-08
-4.99183e-08
1.62123e-06
-5.27722e-08
-4.9791e-08
1.62617e-06
-5.28882e-08
-4.96492e-08
1.63118e-06
-5.2959e-08
-4.95568e-08
-5.28242e-08
1.37525e-06
-4.13278e-08
-7.35105e-08
1.37777e-06
-4.13361e-08
-7.33986e-08
1.38027e-06
-4.13564e-08
-7.32582e-08
1.38274e-06
-4.13941e-08
-7.30977e-08
1.38522e-06
-4.14334e-08
-7.29516e-08
-4.12433e-08
1.02554e-06
-2.36898e-08
-9.3168e-08
1.02379e-06
-2.3482e-08
-9.31147e-08
1.02186e-06
-2.32546e-08
-9.30628e-08
1.01978e-06
-2.31126e-08
-9.30133e-08
1.01765e-06
-2.30442e-08
-9.29647e-08
-2.29106e-08
5.21604e-07
-1.06969e-07
5.16268e-07
-1.07066e-07
5.11104e-07
-1.07198e-07
5.06045e-07
-1.07305e-07
5.01028e-07
-1.07391e-07
-1.07429e-07
6.02167e-07
-2.87596e-09
1.18256e-07
5.96493e-07
-2.91847e-09
1.18321e-07
5.90827e-07
-3.03022e-09
1.18351e-07
5.85253e-07
-3.21015e-09
1.18337e-07
5.79765e-07
-3.37711e-09
1.1832e-07
-3.545e-09
1.18348e-07
1.13993e-06
-8.72925e-09
1.03104e-07
1.13937e-06
-8.71922e-09
1.03143e-07
1.13879e-06
-8.71661e-09
1.03175e-07
1.13811e-06
-8.69259e-09
1.03207e-07
1.13738e-06
-8.73079e-09
1.03264e-07
1.03302e-07
1.5068e-06
-1.61267e-08
8.3682e-08
1.51058e-06
-1.61118e-08
8.37029e-08
1.51442e-06
-1.60624e-08
8.37387e-08
1.51836e-06
-1.60263e-08
8.37915e-08
-1.61198e-08
1.75322e-06
-2.31131e-08
5.96257e-08
1.75897e-06
-2.3105e-08
5.96353e-08
1.76478e-06
-2.3047e-08
5.96701e-08
1.77067e-06
-2.30103e-08
5.97162e-08
-2.30725e-08
1.89944e-06
-2.84303e-08
3.1781e-08
1.90597e-06
-2.84253e-08
3.17775e-08
1.91257e-06
-2.84009e-08
3.17967e-08
1.91923e-06
-2.83861e-08
3.18268e-08
-2.84054e-08
1.94781e-06
-3.17523e-08
1.76849e-09
1.95457e-06
-3.17566e-08
1.76684e-09
1.9614e-06
-3.17763e-08
1.78247e-09
1.96827e-06
-3.1789e-08
1.79633e-09
-3.17707e-08
1.77996e-09
1.89948e-06
-3.29476e-08
-2.84277e-08
1.90602e-06
-3.29688e-08
-2.84226e-08
1.91263e-06
-3.30272e-08
-2.83981e-08
1.91929e-06
-3.30675e-08
-2.83754e-08
-3.30132e-08
-2.83808e-08
1.75639e-06
-3.16676e-08
-5.68344e-08
1.76199e-06
-3.16847e-08
-5.67976e-08
1.76763e-06
-3.1721e-08
-5.67432e-08
1.77333e-06
-3.17316e-08
-5.66872e-08
-3.16144e-08
-5.66584e-08
1.51711e-06
-2.68104e-08
-8.1588e-08
1.52036e-06
-2.68092e-08
-8.15292e-08
1.52365e-06
-2.68043e-08
-8.14648e-08
1.52701e-06
-2.67897e-08
-8.13913e-08
-2.66216e-08
-8.13367e-08
1.16045e-06
-1.6727e-08
-1.0192e-07
1.15909e-06
-1.66493e-08
-1.01908e-07
1.15768e-06
-1.65595e-08
-1.01896e-07
1.15625e-06
-1.64993e-08
-1.01876e-07
-1.63818e-08
-1.01866e-07
6.25921e-07
-1.1707e-07
6.19386e-07
-1.1718e-07
6.12911e-07
-1.17282e-07
6.06475e-07
-1.17369e-07
6.00129e-07
-1.17427e-07
6.54149e-07
7.59106e-09
1.17104e-07
6.47715e-07
7.52911e-09
1.17227e-07
6.41266e-07
7.46371e-09
1.17336e-07
6.34819e-07
7.37648e-09
1.17408e-07
6.28413e-07
7.30281e-09
1.17424e-07
7.15188e-09
1.19723e-06
9.76102e-09
1.01958e-07
1.1962e-06
9.7396e-09
1.01959e-07
1.19516e-06
9.72477e-09
1.01959e-07
1.19414e-06
9.63311e-09
1.01967e-07
1.19321e-06
1.01986e-07
1.55944e-06
8.22903e-09
8.1638e-08
1.56308e-06
8.23057e-09
8.15725e-08
1.56681e-06
8.23479e-09
8.15048e-08
8.13522e-09
8.14421e-08
1.80267e-06
5.17011e-09
5.68652e-08
1.80856e-06
5.17351e-09
5.68032e-08
1.81452e-06
5.20496e-09
5.67403e-08
5.15245e-09
5.66906e-08
1.94767e-06
1.74685e-09
2.84496e-08
1.95446e-06
1.75191e-09
2.84092e-08
1.96133e-06
1.76416e-09
2.83747e-08
1.73636e-09
2.8354e-08
1.99622e-06
-1.75949e-09
-1.74588e-09
2.00325e-06
-1.75542e-09
-1.75279e-09
2.01034e-06
-1.76771e-09
-1.77336e-09
2.01743e-06
-1.77742e-09
-1.78277e-09
-1.75582e-09
-1.7516e-09
1.94777e-06
-5.18631e-09
-3.17526e-08
1.95453e-06
-5.18301e-09
-3.17593e-08
1.96137e-06
-5.21845e-09
-3.17821e-08
1.96824e-06
-5.22691e-09
-3.17963e-08
-5.13252e-09
-3.17743e-08
1.80278e-06
-8.25278e-09
-5.959e-08
1.80865e-06
-8.24892e-09
-5.96043e-08
1.81459e-06
-8.26281e-09
-5.96385e-08
1.82058e-06
-8.23427e-09
-5.96697e-08
-8.07318e-09
-5.96596e-08
1.5595e-06
-9.7907e-09
-8.36401e-08
1.56316e-06
-9.77894e-09
-8.36606e-08
1.56691e-06
-9.77864e-09
-8.36978e-08
1.57076e-06
-9.72684e-09
-8.37475e-08
-9.50736e-09
-8.37715e-08
1.19722e-06
-7.63093e-09
-1.03079e-07
1.19623e-06
-7.58238e-09
-1.03119e-07
1.19525e-06
-7.53747e-09
-1.03157e-07
1.19431e-06
-7.47838e-09
-1.03186e-07
-7.36817e-09
-1.03189e-07
6.53958e-07
-1.18248e-07
6.47508e-07
-1.18313e-07
6.41033e-07
-1.18344e-07
6.34532e-07
-1.18346e-07
-1.18351e-07
6.32703e-07
1.67746e-08
1.06959e-07
6.26095e-07
1.66995e-08
1.07013e-07
6.19584e-07
1.65939e-08
1.07144e-07
6.13142e-07
1.65074e-08
1.07271e-07
6.0675e-07
1.64451e-08
1.07355e-07
1.63373e-08
1.07399e-07
1.16184e-06
2.68329e-08
9.32459e-08
1.16048e-06
2.68015e-08
9.32134e-08
1.15909e-06
2.67811e-08
9.31665e-08
1.15764e-06
2.67854e-08
9.31301e-08
1.1562e-06
2.67537e-08
9.30969e-08
2.65551e-08
9.31062e-08
1.5139e-06
3.16433e-08
7.36601e-08
1.51712e-06
3.16525e-08
7.35587e-08
1.52037e-06
3.16876e-08
7.34241e-08
1.52366e-06
3.17248e-08
7.32727e-08
1.52702e-06
3.17161e-08
7.31211e-08
3.1572e-08
7.30733e-08
1.75072e-06
3.29293e-08
5.00709e-08
1.75629e-06
3.29393e-08
5.00157e-08
1.76189e-06
3.29915e-08
4.98995e-08
1.76754e-06
3.30531e-08
4.97583e-08
1.77324e-06
3.30717e-08
4.96353e-08
3.29795e-08
4.9648e-08
1.8928e-06
2.31241e-08
1.89932e-06
3.17462e-08
2.3124e-08
1.90586e-06
3.17865e-08
2.30741e-08
1.91246e-06
3.18167e-08
2.3012e-08
1.9191e-06
3.18218e-08
2.29693e-08
3.17856e-08
2.30344e-08
1.94768e-06
2.84228e-08
-5.16997e-09
1.95446e-06
2.84318e-08
-5.17107e-09
1.96129e-06
2.84206e-08
-5.21429e-09
1.96815e-06
2.84087e-08
-5.23104e-09
2.8426e-08
-5.14261e-09
1.89944e-06
2.31087e-08
-3.29399e-08
1.90597e-06
2.3105e-08
-3.29625e-08
1.91258e-06
2.30542e-08
-3.30234e-08
1.91924e-06
2.30186e-08
-3.3063e-08
2.30883e-08
-3.29999e-08
1.75331e-06
1.61096e-08
-5.82891e-08
1.75907e-06
1.61038e-08
-5.83596e-08
1.76489e-06
1.60636e-08
-5.84756e-08
1.77079e-06
1.60291e-08
-5.85814e-08
1.61425e-08
-5.85753e-08
1.50689e-06
8.69659e-09
-7.99491e-08
1.51071e-06
8.69265e-09
-8.00671e-08
1.51461e-06
8.67854e-09
-8.02108e-08
1.51861e-06
8.65473e-09
-8.03756e-08
8.80167e-09
-8.04517e-08
1.1399e-06
2.83787e-09
-9.66646e-08
1.13937e-06
2.87131e-09
-9.67697e-08
1.13882e-06
2.97225e-09
-9.69031e-08
1.13821e-06
3.13192e-09
-9.70542e-08
3.33893e-09
-9.71119e-08
6.01966e-07
-1.0975e-07
5.96257e-07
-1.09732e-07
5.90546e-07
-1.09661e-07
5.84898e-07
-1.09566e-07
-1.09489e-07
5.27128e-07
2.37603e-08
8.87829e-08
5.21643e-07
2.36456e-08
8.88527e-08
5.1634e-07
2.34439e-08
8.90031e-08
5.11206e-07
2.3245e-08
8.91598e-08
5.06156e-07
2.31228e-08
8.92821e-08
2.30118e-08
8.93524e-08
1.02727e-06
4.13224e-08
7.72614e-08
1.02564e-06
4.13034e-08
7.71798e-08
1.02386e-06
4.13327e-08
7.70596e-08
1.02191e-06
4.13704e-08
7.69544e-08
1.01988e-06
4.14084e-08
7.68461e-08
4.12992e-08
7.68661e-08
1.37278e-06
5.25051e-08
5.99078e-08
1.37532e-06
5.25718e-08
5.97516e-08
1.37783e-06
5.26841e-08
5.95581e-08
1.38031e-06
5.28117e-08
5.93546e-08
1.38278e-06
5.29195e-08
5.91419e-08
5.28462e-08
5.91343e-08
1.6065e-06
5.82355e-08
3.95142e-08
1.61135e-06
5.82896e-08
3.9446e-08
1.61621e-06
5.83969e-08
3.93223e-08
1.62111e-06
5.85258e-08
3.91456e-08
1.62607e-06
5.86327e-08
3.89635e-08
5.86039e-08
3.90137e-08
1.74745e-06
1.61201e-08
1.75314e-06
5.959e-08
1.61309e-08
1.75888e-06
5.96346e-08
1.60971e-08
1.76468e-06
5.96841e-08
1.60542e-08
1.77055e-06
5.97232e-08
1.60095e-08
5.97116e-08
1.6123e-08
1.80267e-06
5.68382e-08
-8.2143e-09
1.80854e-06
5.68165e-08
-8.21779e-09
1.81446e-06
5.67762e-08
-8.23186e-09
1.82043e-06
5.67366e-08
-8.21356e-09
5.67303e-08
-8.06092e-09
1.7564e-06
4.99931e-08
-3.16404e-08
1.76199e-06
4.99269e-08
-3.16577e-08
1.76763e-06
4.98071e-08
-3.16941e-08
1.77332e-06
4.96903e-08
-3.17075e-08
4.96872e-08
-3.15861e-08
1.61147e-06
3.94401e-08
-5.25706e-08
1.61636e-06
3.93239e-08
-5.26477e-08
1.62128e-06
3.91683e-08
-5.27583e-08
1.62626e-06
3.9001e-08
-5.28716e-08
3.90018e-08
-5.28321e-08
1.36498e-06
2.6487e-08
-7.00889e-08
1.36811e-06
2.63698e-08
-7.02458e-08
1.37127e-06
2.62288e-08
-7.04283e-08
1.37447e-06
2.60494e-08
-7.06241e-08
2.60346e-08
-7.06673e-08
9.97387e-07
1.35437e-08
-8.27864e-08
9.96341e-07
1.35317e-08
-8.28853e-08
9.95157e-07
1.34982e-08
-8.2988e-08
9.93854e-07
1.34064e-08
-8.31088e-08
1.3358e-08
-8.30994e-08
4.86499e-07
-9.17731e-08
4.82013e-07
-9.17149e-08
4.77481e-07
-9.1631e-08
4.72863e-07
-9.15417e-08
-9.14827e-08
3.69901e-07
2.85837e-08
6.39652e-08
3.66161e-07
2.85642e-08
6.40285e-08
3.6248e-07
2.85626e-08
6.41213e-08
3.58867e-07
2.85544e-08
6.42188e-08
3.55288e-07
2.85702e-08
6.42899e-08
2.85216e-08
6.43381e-08
7.99434e-07
5.29222e-08
5.53003e-08
7.96945e-07
5.29745e-08
5.52586e-08
7.94336e-07
5.30588e-08
5.51725e-08
7.91605e-07
5.31627e-08
5.50775e-08
7.88749e-07
5.33221e-08
5.495e-08
5.33123e-08
5.49608e-08
1.13078e-06
6.99776e-08
4.18061e-08
1.13173e-06
7.01072e-08
4.16626e-08
1.13256e-06
7.02722e-08
4.1516e-08
1.13327e-06
7.04561e-08
4.13507e-08
1.13395e-06
7.06554e-08
4.11305e-08
7.06541e-08
4.11495e-08
1.36174e-06
7.98802e-08
2.65534e-08
1.36482e-06
7.99721e-08
2.64936e-08
1.36792e-06
8.00965e-08
2.64077e-08
1.371e-06
8.02613e-08
2.62534e-08
1.37413e-06
8.04434e-08
2.60445e-08
8.04844e-08
2.61045e-08
1.50303e-06
8.67532e-09
1.50675e-06
8.36556e-08
8.73148e-09
1.51053e-06
8.36872e-08
8.72372e-09
1.51439e-06
8.37414e-08
8.71535e-09
1.51834e-06
8.38062e-08
8.6975e-09
8.38286e-08
8.8586e-09
1.55947e-06
8.15939e-08
-9.73199e-09
1.56312e-06
8.15507e-08
-9.72743e-09
1.56682e-06
8.14966e-08
-9.69498e-09
1.57063e-06
8.14399e-08
-9.65135e-09
8.14075e-08
-9.44761e-09
1.51713e-06
7.35068e-08
-2.67598e-08
1.52037e-06
7.34042e-08
-2.67551e-08
1.52365e-06
7.32773e-08
-2.67482e-08
1.52698e-06
7.31281e-08
-2.67304e-08
7.30592e-08
-2.65564e-08
1.3753e-06
5.97225e-08
-4.12975e-08
1.37781e-06
5.95431e-08
-4.13005e-08
1.38032e-06
5.9338e-08
-4.13236e-08
1.38282e-06
5.91258e-08
-4.13726e-08
5.90708e-08
-4.12788e-08
1.13173e-06
4.1624e-08
-5.29736e-08
1.13261e-06
4.14707e-08
-5.30563e-08
1.13338e-06
4.13047e-08
-5.31627e-08
1.13409e-06
4.11079e-08
-5.33149e-08
4.10665e-08
-5.33227e-08
7.7184e-07
2.21402e-08
-6.07732e-08
7.69156e-07
2.21066e-08
-6.08371e-08
7.66326e-07
2.20628e-08
-6.09159e-08
7.63348e-07
2.19846e-08
-6.10074e-08
2.19785e-08
-6.09716e-08
3.33058e-07
-6.62924e-08
3.29703e-07
-6.62531e-08
3.26348e-07
-6.6213e-08
3.22971e-07
-6.61801e-08
-6.61484e-08
1.8892e-07
3.19516e-08
3.40073e-08
1.86963e-07
3.1965e-08
3.40204e-08
1.85031e-07
3.20159e-08
3.40372e-08
1.83123e-07
3.20702e-08
3.40572e-08
1.81205e-07
3.21327e-08
3.40751e-08
3.20833e-08
3.4106e-08
4.82347e-07
6.07899e-08
2.98712e-08
4.78904e-07
6.08293e-08
2.98376e-08
4.75445e-07
6.08813e-08
2.97662e-08
4.71949e-07
6.09496e-08
2.96939e-08
4.68359e-07
6.10622e-08
2.96101e-08
6.09918e-08
2.96612e-08
7.74701e-07
8.27473e-08
2.2189e-08
7.72176e-07
8.28407e-08
2.21758e-08
7.695e-07
8.29229e-08
2.21505e-08
7.66679e-07
8.30196e-08
2.21021e-08
7.63711e-07
8.31632e-08
8.31084e-08
9.98556e-07
9.66263e-08
1.35438e-08
9.97594e-07
9.67018e-08
1.35944e-08
9.96501e-07
9.6802e-08
1.36214e-08
9.95271e-07
9.69248e-08
1.35788e-08
9.93937e-07
9.70859e-08
1.34559e-08
9.71262e-08
1.14048e-06
2.82464e-09
1.13989e-06
1.031e-07
2.92314e-09
1.1393e-06
1.0314e-07
2.97363e-09
1.1387e-06
1.03182e-07
3.05619e-09
1.13807e-06
1.03216e-07
3.20051e-09
1.03214e-07
1.19726e-06
1.01933e-07
-7.55415e-09
1.19625e-06
1.01923e-07
-7.49644e-09
1.19525e-06
1.01913e-07
-7.42969e-09
1.19429e-06
1.01899e-07
-7.37383e-09
1.01905e-07
-7.27111e-09
1.16054e-06
9.3166e-08
-1.66645e-08
1.15917e-06
9.31154e-08
-1.65803e-08
1.15776e-06
9.30622e-08
-1.64837e-08
1.15634e-06
9.30047e-08
-1.64169e-08
9.30054e-08
-1.63147e-08
1.02559e-06
7.71187e-08
-2.3651e-08
1.02385e-06
7.70031e-08
-2.34481e-08
1.02194e-06
7.68795e-08
-2.32262e-08
1.01991e-06
7.67542e-08
-2.30907e-08
7.67672e-08
-2.29786e-08
7.9682e-07
5.52039e-08
-2.85833e-08
7.9423e-07
5.51113e-08
-2.85744e-08
7.91507e-07
5.49936e-08
-2.85543e-08
7.88642e-07
5.48623e-08
-2.8558e-08
5.48692e-08
-2.85141e-08
4.78775e-07
2.98388e-08
-3.19388e-08
4.75251e-07
2.97765e-08
-3.19781e-08
4.71689e-07
2.96819e-08
-3.20427e-08
4.68064e-07
2.95885e-08
-3.21084e-08
2.96164e-08
-3.20744e-08
1.74869e-07
-3.46343e-08
1.73042e-07
-3.46501e-08
1.71189e-07
-3.46782e-08
1.69297e-07
-3.4699e-08
-3.46915e-08
5.8053e-08
3.46686e-08
5.73992e-08
3.46741e-08
5.67397e-08
3.46966e-08
5.60786e-08
3.47183e-08
5.54153e-08
3.47384e-08
3.47227e-08
1.76757e-07
6.63695e-08
1.74948e-07
6.6321e-08
1.73132e-07
6.62793e-08
1.71299e-07
6.62456e-08
1.69417e-07
3.36531e-07
9.18583e-08
3.33253e-07
9.17749e-08
3.29992e-07
9.16905e-08
9.16179e-08
4.91255e-07
1.09727e-07
4.86909e-07
1.09716e-07
4.82544e-07
1.09677e-07
4.78127e-07
1.09613e-07
1.09535e-07
6.08096e-07
6.02519e-07
1.18216e-07
5.96912e-07
1.18258e-07
5.91297e-07
1.18284e-07
1.18304e-07
6.54365e-07
1.17062e-07
6.47978e-07
1.17149e-07
6.41582e-07
1.17251e-07
6.35171e-07
1.17341e-07
1.17407e-07
6.26183e-07
1.06968e-07
6.19703e-07
1.07049e-07
6.13303e-07
1.07168e-07
6.06958e-07
1.07269e-07
1.07328e-07
5.21744e-07
8.87762e-08
5.16445e-07
8.89e-08
5.11319e-07
8.90673e-08
5.06288e-07
8.92086e-08
8.92896e-08
3.66153e-07
6.39466e-08
3.62449e-07
6.4029e-08
3.58826e-07
6.41367e-08
3.5526e-07
6.42166e-08
6.42687e-08
1.86948e-07
3.39854e-08
1.85003e-07
3.39959e-08
1.83084e-07
3.40131e-08
1.81161e-07
3.40305e-08
3.4062e-08
5.73845e-08
5.67303e-08
5.60652e-08
5.53967e-08
)
;

boundaryField
{
    inlet
    {
        type            calculated;
        value           nonuniform List<scalar> 0();
    }
    ami1
    {
        type            cyclicAMI;
        value           nonuniform List<scalar> 0();
    }
    walls
    {
        type            calculated;
        value           nonuniform List<scalar> 
250
(
2.90979e-14
2.43942e-14
1.84387e-14
1.28555e-14
6.40674e-15
1.03165e-21
-6.40674e-15
-1.28555e-14
-1.84387e-14
-2.43942e-14
-2.90979e-14
2.90979e-14
2.43942e-14
1.84387e-14
1.28555e-14
6.40674e-15
5.00444e-22
-6.40674e-15
-1.28555e-14
-1.84387e-14
-2.43942e-14
-2.90979e-14
2.90979e-14
2.43942e-14
1.84387e-14
1.28555e-14
6.40674e-15
1.03191e-21
-6.40674e-15
-1.28555e-14
-1.84387e-14
-2.43942e-14
-2.90979e-14
2.90979e-14
2.43942e-14
1.84387e-14
1.28555e-14
6.40674e-15
1.03191e-21
-6.40674e-15
-1.28555e-14
-1.84387e-14
-2.43942e-14
-2.90979e-14
2.90979e-14
2.43942e-14
1.84387e-14
1.28555e-14
6.40674e-15
1.03191e-21
-6.40674e-15
-1.28555e-14
-1.84387e-14
-2.43942e-14
-2.90979e-14
1.28555e-14
6.40674e-15
1.03191e-21
-6.40674e-15
-1.28555e-14
-1.84387e-14
-2.43942e-14
-2.90979e-14
1.03191e-21
-6.40674e-15
-1.28555e-14
-1.84387e-14
2.90979e-14
2.43942e-14
1.84387e-14
1.28555e-14
6.40674e-15
1.03165e-21
-6.40674e-15
-1.28555e-14
-1.84387e-14
-2.43942e-14
-2.90979e-14
2.90979e-14
2.43942e-14
1.84387e-14
1.28555e-14
6.40674e-15
5.00444e-22
-6.40674e-15
-1.28555e-14
-1.84387e-14
-2.43942e-14
-2.90979e-14
2.90979e-14
2.43942e-14
1.84387e-14
1.28555e-14
6.40674e-15
1.03191e-21
-6.40674e-15
-1.28555e-14
-1.84387e-14
-2.43942e-14
-2.90979e-14
2.90979e-14
2.43942e-14
1.84387e-14
1.28555e-14
6.40674e-15
1.03191e-21
-6.40674e-15
-1.28555e-14
-1.84387e-14
-2.43942e-14
-2.90979e-14
2.90979e-14
2.43942e-14
1.84387e-14
1.28555e-14
6.40674e-15
1.03191e-21
-6.40674e-15
-1.28555e-14
-1.84387e-14
-2.43942e-14
-2.90979e-14
2.90979e-14
2.43942e-14
1.84387e-14
1.28555e-14
6.40674e-15
-2.90979e-14
-2.43942e-14
-1.84387e-14
-1.28555e-14
-6.40674e-15
-2.90979e-14
-2.43942e-14
-1.84387e-14
-1.28555e-14
-6.40674e-15
1.03139e-21
6.40674e-15
1.28555e-14
1.84387e-14
2.43942e-14
2.90979e-14
-2.90979e-14
-2.43942e-14
-1.84387e-14
-1.28555e-14
-6.40674e-15
7.67113e-22
6.40674e-15
1.28555e-14
1.84387e-14
2.43942e-14
2.90979e-14
-2.90979e-14
-2.43942e-14
-1.84387e-14
-1.28555e-14
-6.40674e-15
1.03113e-21
6.40674e-15
1.28555e-14
1.84387e-14
2.43942e-14
2.90979e-14
-2.90979e-14
-2.43942e-14
-1.28555e-14
-6.40674e-15
1.03165e-21
6.40674e-15
1.28555e-14
1.84387e-14
2.43942e-14
2.90979e-14
-2.90979e-14
-2.43942e-14
1.03165e-21
6.40674e-15
1.28555e-14
1.84387e-14
2.43942e-14
2.90979e-14
6.40674e-15
1.28555e-14
1.84387e-14
2.43942e-14
2.90979e-14
-2.90979e-14
-2.43942e-14
-1.84387e-14
-1.28555e-14
-6.40674e-15
1.03139e-21
6.40674e-15
1.28555e-14
1.84387e-14
2.43942e-14
2.90979e-14
-2.90979e-14
-2.43942e-14
-1.84387e-14
-1.28555e-14
-6.40674e-15
7.67113e-22
6.40674e-15
1.28555e-14
1.84387e-14
2.43942e-14
2.90979e-14
-2.90979e-14
-2.43942e-14
-1.84387e-14
-1.28555e-14
-6.40674e-15
1.03113e-21
6.40674e-15
1.28555e-14
1.84387e-14
2.43942e-14
2.90979e-14
-2.90979e-14
-2.43942e-14
-1.84387e-14
-1.28555e-14
-6.40674e-15
1.03165e-21
6.40674e-15
1.28555e-14
1.84387e-14
2.43942e-14
2.90979e-14
-2.90979e-14
-2.43942e-14
-1.84387e-14
-1.28555e-14
-6.40674e-15
1.03165e-21
6.40674e-15
1.28555e-14
1.84387e-14
2.43942e-14
2.90979e-14
-2.43942e-14
-1.84387e-14
-1.28555e-14
-6.40674e-15
1.03168e-21
-1.84387e-14
-1.28555e-14
)
;
    }
    ami2
    {
        type            cyclicAMI;
        value           nonuniform List<scalar> 0();
    }
    outlet
    {
        type            calculated;
        value           nonuniform List<scalar> 0();
    }
    procBoundary5to6
    {
        type            processor;
        value           nonuniform List<scalar> 
177
(
5.47099e-08
-3.47028e-08
1.79087e-07
3.51468e-07
8.93739e-08
-2.85246e-08
4.95992e-07
5.93984e-07
1.17563e-07
6.15677e-07
6.79163e-09
5.68464e-07
-3.67469e-09
4.59001e-07
3.12996e-07
-6.61015e-08
1.65622e-07
2.96904e-08
5.41246e-08
1.65571e-07
-2.96572e-08
-6.60082e-08
4.64453e-07
5.4863e-08
-6.09722e-08
7.82842e-07
1.01563e-06
1.15345e-06
1.19259e-06
1.13687e-06
9.72723e-08
9.89528e-07
-2.60683e-08
7.53932e-07
-4.10781e-08
4.56996e-07
-3.20341e-08
1.77443e-07
3.13196e-07
-2.21934e-08
7.57592e-07
-8.30103e-08
1.13531e-06
1.38755e-06
1.53367e-06
1.57853e-06
1.52668e-06
-1.61859e-08
1.38075e-06
1.13524e-06
5.33133e-08
7.79504e-07
-2.84365e-08
-7.6794e-08
3.48213e-07
4.59485e-07
1.09381e-07
9.89673e-07
-2.61811e-08
9.72154e-08
1.38044e-06
8.05584e-08
1.63598e-06
5.86382e-08
1.78466e-06
3.30112e-08
1.83253e-06
-5.96546e-08
5.08965e-09
1.77676e-06
5.85939e-08
1.63611e-06
-4.96086e-08
1.38763e-06
-7.29365e-08
1.01555e-06
-9.29587e-08
4.96094e-07
5.74361e-07
1.13669e-06
-8.94366e-09
1.52243e-06
8.38443e-08
1.77658e-06
5.97333e-08
1.92585e-06
3.18289e-08
1.97508e-06
1.92591e-06
1.77904e-06
1.5304e-06
1.15491e-06
1.6127e-08
5.94034e-07
-1.17461e-07
6.22138e-07
1.17471e-07
9.51219e-09
1.19237e-06
9.31591e-09
1.01984e-07
1.57066e-06
-8.14207e-08
1.82053e-06
-5.66991e-08
1.96821e-06
-1.69001e-09
-2.83813e-08
2.02441e-06
1.97501e-06
1.82652e-06
1.57462e-06
1.1935e-06
6.28087e-07
6.00437e-07
1.15486e-06
1.53035e-06
1.77888e-06
1.92564e-06
1.9749e-06
1.9258e-06
1.77666e-06
1.52263e-06
1.1376e-06
5.79376e-07
5.01191e-07
1.01783e-06
1.38517e-06
1.63095e-06
1.77635e-06
1.82633e-06
1.77895e-06
1.63121e-06
1.37765e-06
9.92518e-07
4.68214e-07
3.51781e-07
7.85863e-07
1.13459e-06
1.37721e-06
1.52226e-06
1.57444e-06
1.5303e-06
1.38526e-06
1.13475e-06
7.60308e-07
3.19615e-07
1.79354e-07
4.6475e-07
2.19978e-08
7.60711e-07
2.20324e-08
9.92592e-07
1.34315e-08
1.13743e-06
3.40826e-09
1.19343e-06
1.155e-06
1.01785e-06
7.85731e-07
4.6442e-07
1.67456e-07
5.47986e-08
6.62295e-08
1.67617e-07
6.6184e-08
3.26722e-07
-9.15568e-08
4.73604e-07
5.85729e-07
-1.18343e-07
6.28836e-07
6.00723e-07
5.01348e-07
3.51766e-07
1.79293e-07
5.47673e-08
)
;
    }
    procBoundary5to7
    {
        type            processor;
        value           nonuniform List<scalar> 
131
(
-5.80147e-08
-1.8883e-07
-3.69699e-07
-5.2682e-07
-6.32263e-07
-6.60171e-07
-6.07417e-07
-4.90803e-07
-3.36304e-07
-1.76638e-07
-5.80202e-08
-1.76668e-07
-4.82221e-07
-7.99321e-07
-1.0272e-06
-1.16179e-06
-1.19822e-06
-1.14049e-06
-9.98354e-07
-7.74375e-07
-4.82198e-07
-1.88886e-07
-3.36455e-07
-7.74484e-07
-1.13079e-06
-1.37283e-06
-1.51404e-06
-1.55603e-06
-1.50326e-06
-1.36191e-06
-1.13075e-06
-7.9929e-07
-3.69856e-07
-4.91051e-07
-9.98492e-07
-1.36178e-06
-1.60658e-06
-1.75094e-06
-1.79708e-06
-1.74765e-06
-1.6066e-06
-1.37273e-06
-1.02715e-06
-5.27102e-07
-6.07801e-07
-1.14051e-06
-1.50309e-06
-1.74754e-06
-1.89293e-06
-1.94106e-06
-1.89297e-06
-1.75083e-06
-1.51389e-06
-1.16179e-06
-6.32547e-07
-6.60589e-07
-1.16994e-07
-1.19826e-06
-1.01961e-07
-1.55587e-06
-8.17e-08
-1.79686e-06
-5.69073e-08
-1.94092e-06
-2.84643e-08
-1.9892e-06
-1.94102e-06
-1.79696e-06
-1.55591e-06
-1.19822e-06
-6.60411e-07
-6.39443e-07
-1.16318e-06
-1.51067e-06
-1.74517e-06
-1.88627e-06
3.17308e-08
-1.94093e-06
-1.89294e-06
-1.74761e-06
-1.50317e-06
-1.14046e-06
-6.07626e-07
-5.32712e-07
-1.02885e-06
-1.37021e-06
-1.60167e-06
-1.74179e-06
5.95751e-08
-1.79688e-06
-1.75086e-06
-1.60664e-06
-1.36189e-06
-9.98322e-07
-4.90932e-07
-3.73667e-07
-8.01812e-07
-1.12973e-06
-1.35868e-06
-1.49936e-06
8.3655e-08
-1.55589e-06
-1.51392e-06
-1.37279e-06
-1.13074e-06
-7.74369e-07
-3.36399e-07
-1.90914e-07
-4.85756e-07
-7.77041e-07
-9.99425e-07
-1.14109e-06
1.03092e-07
-1.19828e-06
-1.16187e-06