/*--------------------------------*- C++ -*----------------------------------*\
| =========                 |                                                 |
| \\      /  F ield         | OpenFOAM: The Open Source CFD Toolbox           |
|  \\    /   O peration     | Version:  2212                                  |
|   \\  /    A nd           | Website:  www.openfoam.com                      |
|    \\/     M anipulation  |                                                 |
\*---------------------------------------------------------------------------*/
FoamFile
{
    version     2.0;
    format      ascii;
    arch        "LSB;label=32;scalar=64";
    class       volScalarField;
    location    "0.2";
    object      nut;
}
// * * * * * * * * * * * * * * * * * * * * * * * * * * * * * * * * * * * * * //

dimensions      [0 2 -1 0 0 0 0];

internalField   nonuniform List<scalar> 
690
(
5.29203e-06
5.29311e-06
5.29395e-06
5.29538e-06
5.29686e-06
5.29819e-06
5.29933e-06
5.30032e-06
5.30125e-06
5.30162e-06
5.30376e-06
1.20855e-05
1.20964e-05
1.21037e-05
1.21099e-05
1.21157e-05
1.21209e-05
1.21254e-05
1.21291e-05
1.21319e-05
1.2135e-05
1.21386e-05
1.81346e-05
1.81506e-05
1.81641e-05
1.81762e-05
1.81867e-05
1.81958e-05
1.82035e-05
1.82099e-05
1.82152e-05
1.82196e-05
1.82229e-05
2.33278e-05
2.33487e-05
2.33675e-05
2.33844e-05
2.33992e-05
2.34119e-05
2.34227e-05
2.34316e-05
2.34388e-05
2.34444e-05
2.34494e-05
2.66494e-05
2.66741e-05
2.66968e-05
2.67169e-05
2.67345e-05
2.67495e-05
2.67623e-05
2.67728e-05
2.67813e-05
2.67881e-05
2.6792e-05
1.21699e-05
1.21804e-05
1.21871e-05
1.21929e-05
1.21984e-05
1.22034e-05
1.22077e-05
1.22114e-05
1.22141e-05
1.22172e-05
1.2221e-05
8.7608e-05
8.77294e-05
8.78241e-05
8.79038e-05
8.79696e-05
8.80237e-05
8.80678e-05
8.81032e-05
8.81295e-05
8.81459e-05
8.81558e-05
0.00013662
0.000136799
0.000136952
0.000137081
0.000137189
0.000137279
0.000137352
0.000137411
0.000137455
0.000137485
0.000137499
0.000171231
0.000171474
0.00017168
0.000171852
0.000171995
0.000172112
0.000172208
0.000172284
0.00017234
0.000172372
0.000172374
0.000193141
0.000193514
0.000193787
0.000193998
0.000194169
0.000194307
0.000194419
0.000194506
0.000194567
0.000194591
0.000194532
1.83492e-05
1.83637e-05
1.83759e-05
1.83867e-05
1.83964e-05
1.84048e-05
1.8412e-05
1.84181e-05
1.84235e-05
1.8427e-05
1.84318e-05
0.000140532
0.000140692
0.000140831
0.000140949
0.000141052
0.000141138
0.000141211
0.00014127
0.000141315
0.000141346
0.000141361
0.000237208
0.000237502
0.000237757
0.000237978
0.000238167
0.000238327
0.00023846
0.000238567
0.000238646
0.000238695
0.000238703
0.00029752
0.000297937
0.000298304
0.000298623
0.000298898
0.00029913
0.000299321
0.00029947
0.000299574
0.000299621
0.000299591
0.000331069
0.000331562
0.000332001
0.000332385
0.000332717
0.000332998
0.00033323
0.000333409
0.000333529
0.000333572
0.000333504
2.34963e-05
2.35142e-05
2.35303e-05
2.35449e-05
2.3558e-05
2.35695e-05
2.35793e-05
2.35875e-05
2.35944e-05
2.35999e-05
2.3605e-05
0.00017548
0.000175653
0.000175814
0.000175958
0.000176084
0.000176194
0.000176286
0.000176362
0.00017642
0.00017646
0.000176483
0.000299463
0.000299861
0.00030021
0.000300515
0.000300779
0.000301005
0.000301192
0.00030134
0.000301446
0.0003015
0.000301486
0.00037653
0.000377071
0.000377561
0.000377997
0.000378378
0.000378704
0.000378973
0.000379183
0.000379324
0.000379379
0.000379313
0.000419029
0.000419659
0.00042024
0.000420764
0.000421226
0.000421622
0.000421948
0.000422196
0.000422351
0.00042238
0.000422234
2.67719e-05
2.6791e-05
2.68092e-05
2.68261e-05
2.68414e-05
2.68549e-05
2.68665e-05
2.68763e-05
2.68843e-05
2.68907e-05
2.68956e-05
0.000195773
0.000195873
0.000196012
0.000196158
0.000196296
0.000196419
0.000196524
0.00019661
0.000196676
0.000196718
0.000196725
0.000332972
0.000333409
0.000333807
0.000334163
0.000334475
0.000334743
0.000334967
0.000335144
0.000335271
0.000335336
0.00033532
0.000419722
0.000420364
0.000420949
0.000421471
0.000421927
0.000422317
0.000422639
0.000422888
0.000423053
0.000423109
0.000423011
0.00046776
0.000468511
0.000469207
0.000469835
0.00047039
0.000470864
0.000471253
0.000471547
0.000471724
0.000471747
0.000471549
0.000483136
0.000483918
0.000484658
0.000485337
0.000485939
0.000486455
0.000486875
0.000487185
0.000487358
0.000487342
0.000487059
2.78461e-05
2.78679e-05
2.78883e-05
2.7907e-05
2.79237e-05
2.79383e-05
2.79508e-05
2.79613e-05
2.79699e-05
2.79768e-05
2.79819e-05
0.000201466
0.000201677
0.000201871
0.000202045
0.000202198
0.000202331
0.000202443
0.000202533
0.000202602
0.000202646
0.000202656
0.000342747
0.000343255
0.000343702
0.000344094
0.000344432
0.00034472
0.000344957
0.000345145
0.000345278
0.000345347
0.00034533
0.000433014
0.000433752
0.000434408
0.000434983
0.00043548
0.0004359
0.000436244
0.000436509
0.000436682
0.000436739
0.000436632
0.000483204
0.000484062
0.00048484
0.000485532
0.000486135
0.000486646
0.000487061
0.000487372
0.000487559
0.00048758
0.000487367
0.000499209
0.000500113
0.000500943
0.000501688
0.000502339
0.000502892
0.000503338
0.000503665
0.000503845
0.000503829
0.00050354
2.66478e-05
2.66701e-05
2.66907e-05
2.67093e-05
2.67257e-05
2.674e-05
2.67522e-05
2.67624e-05
2.67708e-05
2.67774e-05
2.67816e-05
0.00019278
0.000193012
0.000193215
0.000193393
0.000193546
0.000193675
0.000193783
0.00019387
0.000193936
0.000193975
0.000193967
0.000330974
0.000331461
0.000331897
0.000332279
0.000332607
0.000332886
0.000333115
0.000333295
0.000333424
0.000333491
0.000333473
0.000418966
0.000419672
0.000420299
0.000420848
0.000421321
0.000421721
0.000422048
0.0004223
0.000422467
0.000422527
0.00042244
0.000467638
0.000468469
0.000469216
0.000469875
0.000470447
0.000470931
0.000471324
0.00047162
0.000471801
0.000471834
0.00047166
0.00048306
0.00048394
0.000484738
0.000485448
0.000486065
0.000486587
0.000487008
0.000487319
0.000487497
0.000487498
0.000487259
2.3327e-05
2.33469e-05
2.33648e-05
2.33809e-05
2.33951e-05
2.34073e-05
2.34178e-05
2.34265e-05
2.34336e-05
2.34394e-05
2.34444e-05
2.3451e-05
0.000171171
0.000171382
0.000171568
0.000171728
0.000171864
0.000171978
0.000172072
0.000172149
0.00017221
0.000172261
0.00017236
0.000172762
0.00029748
0.000297901
0.000298273
0.000298595
0.000298872
0.000299104
0.000299296
0.000299446
0.000299554
0.000299614
0.000299616
0.000376486
0.000377057
0.000377569
0.00037802
0.000378411
0.000378742
0.000379013
0.000379224
0.000379367
0.000379428
0.000379379
0.00041969
0.000420349
0.00042095
0.000421484
0.00042195
0.000422345
0.000422669
0.000422918
0.000423078
0.000423129
0.000423029
0.000433039
0.000433735
0.000434375
0.000434948
0.000435449
0.000435875
0.000436222
0.000436483
0.000436644
0.000436675
0.000436532
1.81343e-05
1.815e-05
1.81632e-05
1.81749e-05
1.81852e-05
1.8194e-05
1.82016e-05
1.82079e-05
1.82131e-05
1.82172e-05
1.82211e-05
1.8225e-05
0.000136605
0.000136779
0.000136928
0.000137053
0.000137159
0.000137248
0.00013732
0.000137379
0.000137424
0.000137457
0.000137505
0.000137615
0.000237193
0.000237491
0.000237749
0.000237973
0.000238164
0.000238326
0.000238459
0.000238565
0.000238642
0.000238683
0.000238671
0.000299447
0.000299857
0.000300217
0.000300531
0.000300801
0.000301029
0.000301217
0.000301364
0.000301465
0.000301509
0.000301477
0.00033293
0.000333393
0.000333812
0.000334182
0.000334504
0.000334778
0.000335003
0.000335179
0.0003353
0.000335355
0.000335326
0.000342811
0.000343305
0.000343754
0.000344152
0.000344497
0.00034479
0.00034503
0.000345215
0.00034534
0.00034539
0.000345343
1.20854e-05
1.20962e-05
1.21033e-05
1.21094e-05
1.21151e-05
1.21202e-05
1.21246e-05
1.21283e-05
1.21312e-05
1.21333e-05
1.21364e-05
1.21409e-05
8.76008e-05
8.77218e-05
8.78164e-05
8.78961e-05
8.79619e-05
8.80161e-05
8.80602e-05
8.80954e-05
8.81225e-05
8.8141e-05
8.81877e-05
8.85815e-05
0.000140514
0.000140681
0.000140824
0.000140947
0.000141052
0.00014114
0.000141213
0.000141272
0.000141315
0.000141324
0.000141241
0.000175425
0.000175623
0.000175803
0.000175958
0.000176092
0.000176205
0.000176299
0.000176373
0.000176428
0.000176455
0.000176439
0.00019554
0.000195776
0.000195983
0.000196164
0.000196319
0.00019645
0.000196559
0.000196646
0.000196709
0.000196745
0.000196739
0.000201461
0.000201731
0.000201964
0.000202164
0.000202334
0.000202475
0.00020259
0.000202682
0.000202747
0.000202782
0.000202775
5.29199e-06
5.29305e-06
5.29385e-06
5.29526e-06
5.29672e-06
5.29802e-06
5.29914e-06
5.30009e-06
5.30089e-06
5.30167e-06
5.30238e-06
5.30467e-06
1.21697e-05
1.21801e-05
1.21868e-05
1.21926e-05
1.21981e-05
1.2203e-05
1.22073e-05
1.22109e-05
1.22138e-05
1.2216e-05
1.22188e-05
1.22226e-05
1.83481e-05
1.83629e-05
1.83752e-05
1.83862e-05
1.83961e-05
1.84046e-05
1.84119e-05
1.8418e-05
1.84231e-05
1.84267e-05
1.84291e-05
2.34936e-05
2.3512e-05
2.35287e-05
2.35439e-05
2.35574e-05
2.35692e-05
2.35792e-05
2.35876e-05
2.35944e-05
2.35997e-05
2.36035e-05
2.67649e-05
2.67862e-05
2.68063e-05
2.68245e-05
2.68408e-05
2.68549e-05
2.68669e-05
2.6877e-05
2.68852e-05
2.68915e-05
2.68964e-05
2.7843e-05
2.78663e-05
2.78882e-05
2.79081e-05
2.79258e-05
2.79412e-05
2.79542e-05
2.7965e-05
2.79738e-05
2.79806e-05
2.79856e-05
)
;

boundaryField
{
    inlet
    {
        type            calculated;
        value           nonuniform List<scalar> 0();
    }
    ami1
    {
        type            cyclicAMI;
        value           nonuniform List<scalar> 0();
    }
    walls
    {
        type            nutkWallFunction;
        blending        stepwise;
        value           uniform 0;
    }
    ami2
    {
        type            cyclicAMI;
        value           nonuniform List<scalar> 0();
    }
    outlet
    {
        type            calculated;
        value           nonuniform List<scalar> 0();
    }
    procBoundary8to0
    {
        type            processor;
        value           nonuniform List<scalar> 
29
(
5.28776e-06
1.20715e-05
1.81162e-05
2.33046e-05
2.66235e-05
1.21558e-05
8.74864e-05
0.000136416
0.000170961
0.000192613
1.8332e-05
0.000140354
0.000236886
0.0002971
0.000330604
2.34761e-05
0.000175294
0.000299068
0.000376032
0.000418534
2.67518e-05
0.000195823
0.000332579
0.00041918
0.000467181
0.000482653
0.000432419
0.00048258
0.00049866
)
;
    }
    procBoundary8to1
    {
        type            processor;
        value           nonuniform List<scalar> 
33
(
2.78232e-05
0.000201257
0.000342288
2.6624e-05
0.000192533
0.000330526
0.000418387
0.000467019
0.000482503
2.33045e-05
0.000170935
0.000297063
0.00037598
0.000419151
0.000432533
1.81161e-05
0.000136409
0.000236873
0.000299047
0.000332504
0.000342378
1.20714e-05
8.748e-05
0.000140334
0.000175214
0.000195309
0.000201185
5.28775e-06
1.21555e-05
1.83308e-05
2.34729e-05
2.67429e-05
2.7819e-05
)
;
    }
    procBoundary8to7
    {
        type            processor;
        value           nonuniform List<scalar> 
68
(
5.30575e-06
1.21411e-05
1.82266e-05
2.34524e-05
2.67939e-05
1.22236e-05
8.81565e-05
0.000137503
0.00017235
0.000194253
1.84349e-05
0.000141375
0.000238713
0.000299579
0.000333441
2.36088e-05
0.000176496
0.000301486
0.000379276
0.000422184
2.68993e-05
0.000196736
0.000335307
0.000422957
0.000471448
0.000486992
2.79857e-05
0.000202656
0.000345311
0.000436571
0.000487253
0.000503434
2.67856e-05
2.67856e-05
0.000193821
0.000193821
0.000333447
0.000422385
0.000471563
0.00048716
2.34541e-05
0.000172515
0.000299653
0.000299653
0.000379343
0.000422963
0.000436458
1.82288e-05
0.000137586
0.000238627
0.000238627
0.000301442
0.000335291
0.000345298
1.21441e-05
8.82797e-05
0.000140621
0.000140621
0.000176365
0.000196729
0.000202744
5.30664e-06
1.22259e-05
1.84277e-05
1.84277e-05
2.36063e-05
2.68994e-05
2.79888e-05
)
;
    }
    procBoundary8to9
    {
        type            processor;
        value           nonuniform List<scalar> 
132
(
2.78426e-05
2.78658e-05
2.78876e-05
2.79075e-05
2.79251e-05
2.79404e-05
2.79534e-05
2.79643e-05
2.79731e-05
2.79799e-05
2.79849e-05
0.00020145
0.000201712
0.000201941
0.000202137
0.000202305
0.000202445
0.000202561
0.000202654
0.000202721
0.000202757
0.000202746
0.000342798
0.000343261
0.000343688
0.000344073
0.000344411
0.000344701
0.000344941
0.000345128
0.000345254
0.000345302
0.000345239
0.000432992
0.000433635
0.00043424
0.000434794
0.000435285
0.000435708
0.000436055
0.000436317
0.000436473
0.000436486
0.000436294
0.000432992
0.000433635
0.00043424
0.000434794
0.000435285
0.000435708
0.000436055
0.000436317
0.000436473
0.000436486
0.000436294
0.000467632
0.000468373
0.000469073
0.000469712
0.000470277
0.000470762
0.000471158
0.000471453
0.000471626
0.000471633
0.000471402
0.000483053
0.000483892
0.000484673
0.000485377
0.000485994
0.000486518
0.000486942
0.000487256
0.000487434
0.000487432
0.000487173
0.000467498
0.000468314
0.000469066
0.000469739
0.000470326
0.000470822
0.000471224
0.000471523
0.000471697
0.000471707
0.000471486
0.000418972
0.000419633
0.000420247
0.000420799
0.00042128
0.000421689
0.000422022
0.000422273
0.000422429
0.000422463
0.000422325
0.000331052
0.000331567
0.000332026
0.000332427
0.00033277
0.000333058
0.000333292
0.000333472
0.000333592
0.000333637
0.000333576
0.00019311
0.000193501
0.000193789
0.00019401
0.000194186
0.000194328
0.000194441
0.000194529
0.00019459
0.000194614
0.000194557
2.66491e-05
2.66738e-05
2.66966e-05
2.6717e-05
2.67347e-05
2.67499e-05
2.67628e-05
2.67734e-05
2.67819e-05
2.67887e-05
2.67927e-05
)
;
    }
}


// ************************************************************************* //
