/*--------------------------------*- C++ -*----------------------------------*\
| =========                 |                                                 |
| \\      /  F ield         | OpenFOAM: The Open Source CFD Toolbox           |
|  \\    /   O peration     | Version:  2212                                  |
|   \\  /    A nd           | Website:  www.openfoam.com                      |
|    \\/     M anipulation  |                                                 |
\*---------------------------------------------------------------------------*/
FoamFile
{
    version     2.0;
    format      ascii;
    arch        "LSB;label=32;scalar=64";
    class       surfaceScalarField;
    location    "1.8";
    object      phi;
}
// * * * * * * * * * * * * * * * * * * * * * * * * * * * * * * * * * * * * * //

dimensions      [0 3 -1 0 0 0 0];

oriented        oriented;

internalField   nonuniform List<scalar> 
1800
(
3.32249e-07
1.0968e-09
1.09689e-09
2.7919e-07
2.65294e-08
2.65298e-08
2.49217e-07
1.49862e-08
1.49869e-08
2.29252e-07
9.98179e-09
9.98288e-09
2.14832e-07
7.2093e-09
7.21147e-09
2.03194e-07
5.81727e-09
5.82062e-09
4.71222e-09
4.71865e-09
6.3138e-07
3.58757e-09
7.40294e-09
6.14563e-07
2.26458e-08
2.07008e-08
5.86443e-07
2.4376e-08
1.87299e-08
5.61722e-07
1.88549e-08
1.58485e-08
5.3961e-07
1.55693e-08
1.37512e-08
5.20625e-07
1.35098e-08
1.12924e-08
1.19507e-08
8.71433e-09
8.90374e-07
2.85268e-09
6.33242e-09
8.82485e-07
1.3409e-08
1.71263e-08
8.70356e-07
1.78681e-08
1.86369e-08
8.55106e-07
1.69566e-08
1.71486e-08
8.39971e-07
1.53422e-08
1.53621e-08
8.25516e-07
1.4173e-08
1.37918e-08
1.33848e-08
1.23454e-08
1.07432e-06
1.06508e-09
5.56891e-09
1.06824e-06
5.58758e-09
1.39004e-08
1.06138e-06
8.46599e-09
1.62622e-08
1.05338e-06
9.04305e-09
1.59097e-08
1.0451e-06
8.62318e-09
1.50028e-08
1.03721e-06
8.12959e-09
1.39339e-08
7.80193e-09
1.29777e-08
1.16914e-06
1.11795e-13
4.90662e-09
1.16312e-06
5.20784e-13
1.16087e-08
1.15731e-06
1.14549e-12
1.42757e-08
1.15202e-06
1.97388e-12
1.43337e-08
1.14691e-06
3.29204e-12
1.37299e-08
1.14206e-06
5.56698e-12
1.29683e-08
9.4871e-12
1.20986e-08
1.16914e-06
-1.06485e-09
4.90658e-09
1.16312e-06
-5.58675e-09
1.16086e-08
1.15731e-06
-8.46441e-09
1.42756e-08
1.15202e-06
-9.0404e-09
1.43333e-08
1.14691e-06
-8.61848e-09
1.37288e-08
1.14208e-06
-8.12126e-09
1.29661e-08
-7.7875e-09
1.20952e-08
1.07432e-06
-2.8527e-09
5.56889e-09
1.06824e-06
-1.3409e-08
1.39003e-08
1.06138e-06
-1.7868e-08
1.62617e-08
1.05339e-06
-1.69564e-08
1.59083e-08
1.04511e-06
-1.53415e-08
1.50002e-08
1.03723e-06
-1.41713e-08
1.39298e-08
-1.33817e-08
1.29716e-08
8.90375e-07
-3.58769e-09
6.33236e-09
8.82486e-07
-2.26463e-08
1.71259e-08
8.70359e-07
-2.43767e-08
1.86359e-08
8.55112e-07
-1.88561e-08
1.7147e-08
8.39982e-07
-1.55716e-08
1.53597e-08
8.25536e-07
-1.35136e-08
1.37885e-08
-1.19572e-08
1.234e-08
6.3138e-07
-1.09689e-09
7.40287e-09
6.14563e-07
-2.65298e-08
2.07004e-08
5.86444e-07
-1.49869e-08
1.87293e-08
5.61723e-07
-9.98286e-09
1.58474e-08
5.39614e-07
-7.21146e-09
1.37496e-08
5.20631e-07
-5.82061e-09
1.12894e-08
-4.71863e-09
8.70937e-09
3.32249e-07
1.0968e-09
2.7919e-07
2.65294e-08
2.49217e-07
1.49862e-08
2.29252e-07
9.98181e-09
2.14832e-07
7.20933e-09
2.03194e-07
5.81729e-09
4.71224e-09
6.3138e-07
7.40287e-09
3.58769e-09
6.14563e-07
2.07004e-08
2.26463e-08
5.86444e-07
1.87293e-08
2.43767e-08
5.61723e-07
1.58474e-08
1.88561e-08
5.39614e-07
1.37496e-08
1.55716e-08
5.20631e-07
1.12894e-08
1.35136e-08
8.70936e-09
1.19573e-08
9.23616e-07
7.03391e-09
7.03405e-09
9.25317e-07
1.98501e-08
1.98506e-08
9.17181e-07
2.27972e-08
2.2798e-08
9.04269e-07
2.23029e-08
2.23045e-08
8.90524e-07
2.06217e-08
2.06243e-08
8.77393e-07
1.78542e-08
1.7859e-08
1.46984e-08
1.47062e-08
1.1589e-06
5.2815e-09
6.10286e-09
1.16569e-06
1.39993e-08
1.61839e-08
1.16844e-06
1.79792e-08
2.07084e-08
1.1666e-06
1.91809e-08
2.21076e-08
1.1622e-06
1.88789e-08
2.15095e-08
1.15652e-06
1.75494e-08
1.97751e-08
1.56916e-08
1.74335e-08
1.32762e-06
2.71858e-09
4.93136e-09
1.33539e-06
7.12189e-09
1.30097e-08
1.34286e-06
9.55531e-09
1.72172e-08
1.34847e-06
1.0581e-08
1.8902e-08
1.35197e-06
1.08801e-08
1.95053e-08
1.35374e-06
1.05882e-08
1.91209e-08
9.90393e-09
1.81093e-08
1.41518e-06
1.94275e-13
4.19306e-09
1.42279e-06
5.53945e-13
1.11164e-08
1.43152e-06
9.44871e-13
1.50993e-08
1.4398e-06
1.66451e-12
1.66303e-08
1.44713e-06
2.96135e-12
1.72766e-08
1.45317e-06
5.01678e-12
1.7511e-08
8.13877e-12
1.71542e-08
1.41518e-06
-2.71835e-09
4.19295e-09
1.42279e-06
-7.12126e-09
1.11161e-08
1.43152e-06
-9.55417e-09
1.50989e-08
1.43981e-06
-1.0579e-08
1.66295e-08
1.44714e-06
-1.08764e-08
1.72748e-08
1.45319e-06
-1.05821e-08
1.75078e-08
-9.89381e-09
1.71492e-08
1.32763e-06
-5.28159e-09
4.93115e-09
1.33539e-06
-1.39995e-08
1.30091e-08
1.34287e-06
-1.79794e-08
1.7216e-08
1.34848e-06
-1.91811e-08
1.88994e-08
1.35198e-06
-1.88793e-08
1.95007e-08
1.35376e-06
-1.75504e-08
1.9114e-08
-1.56927e-08
1.80985e-08
1.1589e-06
-7.03405e-09
6.10263e-09
1.1657e-06
-1.98506e-08
1.61831e-08
1.16844e-06
-2.27981e-08
2.07068e-08
1.16661e-06
-2.23045e-08
2.21049e-08
1.16221e-06
-2.06243e-08
2.15054e-08
1.15654e-06
-1.7859e-08
1.97692e-08
-1.47062e-08
1.74239e-08
9.23616e-07
-7.40295e-09
7.03391e-09
9.25317e-07
-2.07008e-08
1.98501e-08
9.17181e-07
-1.87299e-08
2.27972e-08
9.04269e-07
-1.58485e-08
2.23029e-08
8.90524e-07
-1.37512e-08
2.06217e-08
8.77393e-07
-1.12925e-08
1.78542e-08
-8.71437e-09
1.46984e-08
6.3138e-07
3.58756e-09
6.14563e-07
2.26458e-08
5.86443e-07
2.4376e-08
5.61722e-07
1.8855e-08
5.3961e-07
1.55693e-08
5.20625e-07
1.35098e-08
1.19507e-08
8.90375e-07
6.33236e-09
2.85269e-09
8.82486e-07
1.71259e-08
1.3409e-08
8.70359e-07
1.86359e-08
1.78681e-08
8.55112e-07
1.7147e-08
1.69564e-08
8.39982e-07
1.53597e-08
1.53415e-08
8.25536e-07
1.37885e-08
1.41713e-08
1.234e-08
1.33817e-08
1.1589e-06
6.10263e-09
5.28159e-09
1.1657e-06
1.61831e-08
1.39995e-08
1.16844e-06
2.07068e-08
1.79794e-08
1.16661e-06
2.21048e-08
1.91811e-08
1.16221e-06
2.15053e-08
1.88793e-08
1.15654e-06
1.97692e-08
1.75503e-08
1.74238e-08
1.56927e-08
1.37712e-06
4.57744e-09
4.57765e-09
1.38565e-06
1.19175e-08
1.19181e-08
1.39417e-06
1.64478e-08
1.64488e-08
1.40126e-06
1.85618e-08
1.85634e-08
1.40641e-06
1.89313e-08
1.8934e-08
1.4095e-06
1.8223e-08
1.82272e-08
1.6717e-08
1.67238e-08
1.53312e-06
2.36636e-09
3.64963e-09
1.54218e-06
6.23972e-09
9.63477e-09
1.55327e-06
8.87496e-09
1.36934e-08
1.56445e-06
1.03499e-08
1.59395e-08
1.57506e-06
1.09041e-08
1.69164e-08
1.58469e-06
1.07616e-08
1.69523e-08
1.01543e-08
1.63867e-08
1.61424e-06
1.3518e-13
3.09296e-09
1.62332e-06
3.29432e-13
8.27439e-09
1.63534e-06
5.67916e-13
1.19578e-08
1.6482e-06
9.7751e-13
1.41154e-08
1.66118e-06
1.68338e-12
1.52017e-08
1.67386e-06
2.70879e-12
1.55845e-08
4.4148e-12
1.54312e-08
1.61424e-06
-2.36626e-09
3.09284e-09
1.62332e-06
-6.23948e-09
8.27406e-09
1.63534e-06
-8.87452e-09
1.19572e-08
1.6482e-06
-1.03491e-08
1.41143e-08
1.66118e-06
-1.09029e-08
1.51997e-08
1.67387e-06
-1.07598e-08
1.55814e-08
-1.01514e-08
1.54267e-08
1.53312e-06
-4.57765e-09
3.64936e-09
1.54218e-06
-1.19181e-08
9.63406e-09
1.55328e-06
-1.64488e-08
1.36921e-08
1.56445e-06
-1.85634e-08
1.59372e-08
1.57507e-06
-1.8934e-08
1.69125e-08
1.58471e-06
-1.82272e-08
1.69463e-08
-1.67239e-08
1.63775e-08
1.37712e-06
-6.10286e-09
4.57745e-09
1.38565e-06
-1.61839e-08
1.19176e-08
1.39417e-06
-2.07084e-08
1.64478e-08
1.40126e-06
-2.21076e-08
1.85618e-08
1.40641e-06
-2.15095e-08
1.89313e-08
1.4095e-06
-1.97751e-08
1.8223e-08
-1.74336e-08
1.6717e-08
1.1589e-06
-6.33242e-09
5.2815e-09
1.16569e-06
-1.71263e-08
1.39993e-08
1.16844e-06
-1.86369e-08
1.79792e-08
1.1666e-06
-1.71486e-08
1.91809e-08
1.1622e-06
-1.53621e-08
1.88789e-08
1.15652e-06
-1.37918e-08
1.75494e-08
-1.23454e-08
1.56916e-08
8.90374e-07
2.85268e-09
8.82485e-07
1.3409e-08
8.70356e-07
1.78681e-08
8.55106e-07
1.69566e-08
8.39971e-07
1.53422e-08
8.25516e-07
1.41729e-08
1.33847e-08
1.07432e-06
5.56889e-09
1.06485e-09
1.06824e-06
1.39003e-08
5.58676e-09
1.06138e-06
1.62617e-08
8.46443e-09
1.05339e-06
1.59082e-08
9.04042e-09
1.04511e-06
1.50002e-08
8.6185e-09
1.03723e-06
1.39298e-08
8.12127e-09
1.29715e-08
7.7875e-09
1.32763e-06
4.93115e-09
2.71835e-09
1.33539e-06
1.30091e-08
7.12126e-09
1.34287e-06
1.7216e-08
9.55417e-09
1.34848e-06
1.88994e-08
1.0579e-08
1.35198e-06
1.95007e-08
1.08764e-08
1.35376e-06
1.9114e-08
1.0582e-08
1.80985e-08
9.89375e-09
1.53312e-06
3.64935e-09
2.36626e-09
1.54218e-06
9.63405e-09
6.23948e-09
1.55328e-06
1.36921e-08
8.8745e-09
1.56445e-06
1.59372e-08
1.03491e-08
1.57507e-06
1.69125e-08
1.09029e-08
1.58471e-06
1.69463e-08
1.07597e-08
1.63774e-08
1.01513e-08
1.68027e-06
1.89118e-09
1.89128e-09
1.68934e-06
5.0997e-09
5.09996e-09
1.7018e-06
7.46484e-09
7.46532e-09
1.71578e-06
8.94701e-09
8.94779e-09
1.73022e-06
9.69443e-09
9.69568e-09
1.74439e-06
9.86289e-09
9.8649e-09
9.65499e-09
9.65808e-09
1.7569e-06
2.31423e-14
1.61336e-09
1.76589e-06
3.43789e-14
4.38445e-09
1.77878e-06
4.16177e-14
6.53234e-09
1.79389e-06
5.81597e-14
7.95191e-09
1.81003e-06
8.38061e-14
8.75685e-09
1.82639e-06
1.17328e-13
9.08714e-09
1.96559e-13
9.07383e-09
1.7569e-06
-1.89128e-09
1.61328e-09
1.76589e-06
-5.09998e-09
4.38424e-09
1.77878e-06
-7.46535e-09
6.53195e-09
1.79389e-06
-8.94785e-09
7.95124e-09
1.81003e-06
-9.69578e-09
8.75578e-09
1.82639e-06
-9.86503e-09
9.0855e-09
-9.65825e-09
9.07142e-09
1.68027e-06
-3.64963e-09
1.89119e-09
1.68934e-06
-9.63478e-09
5.09971e-09
1.7018e-06
-1.36934e-08
7.46486e-09
1.71578e-06
-1.59396e-08
8.94703e-09
1.73022e-06
-1.69164e-08
9.69446e-09
1.74439e-06
-1.69524e-08
9.86292e-09
-1.63868e-08
9.65502e-09
1.53312e-06
-4.93135e-09
2.36636e-09
1.54218e-06
-1.30097e-08
6.23973e-09
1.55327e-06
-1.72172e-08
8.87497e-09
1.56445e-06
-1.8902e-08
1.03499e-08
1.57506e-06
-1.95053e-08
1.09041e-08
1.58469e-06
-1.9121e-08
1.07616e-08
-1.81093e-08
1.01543e-08
1.32762e-06
-5.56891e-09
2.71858e-09
1.33539e-06
-1.39004e-08
7.1219e-09
1.34286e-06
-1.62622e-08
9.55532e-09
1.34847e-06
-1.59097e-08
1.05811e-08
1.35197e-06
-1.50028e-08
1.08801e-08
1.35374e-06
-1.39339e-08
1.05882e-08
-1.29777e-08
9.90392e-09
1.07432e-06
1.06508e-09
1.06824e-06
5.58758e-09
1.06138e-06
8.46599e-09
1.05338e-06
9.04305e-09
1.0451e-06
8.62317e-09
1.03721e-06
8.12956e-09
7.80188e-09
1.16914e-06
4.90658e-09
-1.1664e-13
1.16312e-06
1.16086e-08
-5.20659e-13
1.15731e-06
1.42755e-08
-1.12287e-12
1.15202e-06
1.43333e-08
-1.95492e-12
1.14691e-06
1.37288e-08
-3.27821e-12
1.14208e-06
1.2966e-08
-5.55921e-12
1.20952e-08
-9.48909e-12
1.41518e-06
4.19295e-09
-1.95695e-13
1.42279e-06
1.11161e-08
-5.51097e-13
1.43152e-06
1.50989e-08
-9.50821e-13
1.43981e-06
1.66295e-08
-1.68509e-12
1.44714e-06
1.72748e-08
-2.99913e-12
1.45319e-06
1.75078e-08
-5.07578e-12
1.71492e-08
-8.22393e-12
1.61424e-06
3.09284e-09
-1.39293e-13
1.62332e-06
8.27405e-09
-3.39828e-13
1.63534e-06
1.19571e-08
-5.94502e-13
1.6482e-06
1.41143e-08
-1.02673e-12
1.66118e-06
1.51996e-08
-1.75955e-12
1.67387e-06
1.55814e-08
-2.81641e-12
1.54266e-08
-4.55927e-12
1.7569e-06
1.61327e-09
-3.11707e-14
1.76589e-06
4.38422e-09
-5.28077e-14
1.77878e-06
6.53192e-09
-8.1559e-14
1.79389e-06
7.95121e-09
-1.26494e-13
1.81003e-06
8.75574e-09
-1.85684e-13
1.82639e-06
9.08545e-09
-2.59056e-13
9.07137e-09
-3.84627e-13
1.83127e-06
-2.2179e-14
1.1847e-14
1.84004e-06
-6.80391e-14
3.8742e-14
1.85311e-06
-1.26704e-13
7.8542e-14
1.86901e-06
-2.08949e-13
1.2922e-13
1.88652e-06
-3.20998e-13
2.0491e-13
1.9047e-06
-4.73274e-13
3.16261e-13
-6.77461e-13
4.73485e-13
1.83127e-06
-1.61337e-09
-1.54502e-14
1.84004e-06
-4.38447e-09
-4.81154e-14
1.85311e-06
-6.53238e-09
-9.95946e-14
1.86901e-06
-7.95198e-09
-1.71284e-13
1.88652e-06
-8.75696e-09
-2.72353e-13
1.9047e-06
-9.0873e-09
-4.13088e-13
-9.07403e-09
-6.04847e-13
1.7569e-06
-3.09296e-09
2.80639e-14
1.76589e-06
-8.2744e-09
4.74481e-14
1.77878e-06
-1.19578e-08
6.25507e-14
1.79389e-06
-1.41155e-08
8.63515e-14
1.81003e-06
-1.52018e-08
1.19788e-13
1.82639e-06
-1.55846e-08
1.62223e-13
-1.54313e-08
2.5096e-13
1.61424e-06
-4.19306e-09
1.37814e-13
1.62332e-06
-1.11164e-08
3.37867e-13
1.63534e-06
-1.50993e-08
5.803e-13
1.6482e-06
-1.66304e-08
9.92298e-13
1.66118e-06
-1.72767e-08
1.69992e-12
1.67386e-06
-1.7511e-08
2.72723e-12
-1.71543e-08
4.43393e-12
1.41518e-06
-4.90661e-09
1.95255e-13
1.42279e-06
-1.16087e-08
5.57707e-13
1.43152e-06
-1.42757e-08
9.49067e-13
1.4398e-06
-1.43337e-08
1.6658e-12
1.44713e-06
-1.37299e-08
2.95699e-12
1.45317e-06
-1.29683e-08
5.00504e-12
-1.20986e-08
8.11801e-12
1.16914e-06
1.10566e-13
1.16312e-06
5.20093e-13
1.15731e-06
1.14322e-12
1.15202e-06
1.9647e-12
1.14691e-06
3.27183e-12
1.14206e-06
5.5342e-12
9.43558e-12
1.16914e-06
4.90662e-09
-1.06508e-09
1.16312e-06
1.16087e-08
-5.58758e-09
1.15731e-06
1.42757e-08
-8.46598e-09
1.15202e-06
1.43337e-08
-9.04305e-09
1.14691e-06
1.37299e-08
-8.62318e-09
1.14206e-06
1.29683e-08
-8.12959e-09
1.20986e-08
-7.80194e-09
1.41518e-06
4.19305e-09
-2.71858e-09
1.42279e-06
1.11164e-08
-7.12189e-09
1.43152e-06
1.50993e-08
-9.55532e-09
1.4398e-06
1.66303e-08
-1.05811e-08
1.44713e-06
1.72766e-08
-1.08802e-08
1.45317e-06
1.7511e-08
-1.05883e-08
1.71542e-08
-9.90401e-09
1.61424e-06
3.09296e-09
-2.36637e-09
1.62332e-06
8.27438e-09
-6.23973e-09
1.63534e-06
1.19577e-08
-8.87498e-09
1.6482e-06
1.41154e-08
-1.03499e-08
1.66118e-06
1.52016e-08
-1.09042e-08
1.67386e-06
1.55845e-08
-1.07617e-08
1.54311e-08
-1.01544e-08
1.7569e-06
1.61335e-09
-1.89119e-09
1.76589e-06
4.38443e-09
-5.09971e-09
1.77878e-06
6.53231e-09
-7.46487e-09
1.79389e-06
7.95187e-09
-8.94706e-09
1.81003e-06
8.75681e-09
-9.69451e-09
1.82639e-06
9.0871e-09
-9.86301e-09
9.07378e-09
-9.65514e-09
1.83127e-06
5.45785e-15
-1.61328e-09
1.84004e-06
2.20323e-14
-4.38424e-09
1.85311e-06
4.57456e-14
-6.53196e-09
1.86901e-06
8.45136e-14
-7.95127e-09
1.88652e-06
1.49683e-13
-8.75584e-09
1.9047e-06
2.51346e-13
-9.08558e-09
3.99129e-13
-9.07154e-09
1.83127e-06
-1.61329e-09
-1.61336e-09
1.84004e-06
-4.38426e-09
-4.38445e-09
1.85311e-06
-6.532e-09
-6.53236e-09
1.86901e-06
-7.95132e-09
-7.95194e-09
1.88652e-06
-8.7559e-09
-8.75691e-09
1.9047e-06
-9.08566e-09
-9.08723e-09
-9.07163e-09
1.7569e-06
-3.09285e-09
-1.89128e-09
1.76589e-06
-8.27407e-09
-5.09996e-09
1.77878e-06
-1.19572e-08
-7.46533e-09
1.79389e-06
-1.41144e-08
-8.94782e-09
1.81003e-06
-1.51998e-08
-9.69574e-09
1.82639e-06
-1.55815e-08
-9.86498e-09
-1.54268e-08
1.61424e-06
-4.19295e-09
-2.36626e-09
1.62332e-06
-1.11161e-08
-6.23947e-09
1.63534e-06
-1.50989e-08
-8.87451e-09
1.6482e-06
-1.66295e-08
-1.03491e-08
1.66118e-06
-1.72748e-08
-1.09029e-08
1.67387e-06
-1.75079e-08
-1.07598e-08
-1.71494e-08
1.41518e-06
-4.90658e-09
-2.71835e-09
1.42279e-06
-1.16086e-08
-7.12125e-09
1.43152e-06
-1.42756e-08
-9.55417e-09
1.43981e-06
-1.43333e-08
-1.0579e-08
1.44714e-06
-1.37288e-08
-1.08764e-08
1.45319e-06
-1.29661e-08
-1.05821e-08
-1.20953e-08
1.16914e-06
-1.06485e-09
1.16312e-06
-5.58675e-09
1.15731e-06
-8.46441e-09
1.15202e-06
-9.04041e-09
1.14691e-06
-8.6185e-09
1.14208e-06
-8.12129e-09
1.07432e-06
5.56891e-09
-2.85269e-09
1.06824e-06
1.39004e-08
-1.3409e-08
1.06138e-06
1.62622e-08
-1.78681e-08
1.05338e-06
1.59097e-08
-1.69566e-08
1.0451e-06
1.50028e-08
-1.53422e-08
1.03721e-06
1.39339e-08
-1.4173e-08
1.29777e-08
-1.33848e-08
1.32762e-06
4.93135e-09
-5.2815e-09
1.33539e-06
1.30097e-08
-1.39993e-08
1.34286e-06
1.72172e-08
-1.79792e-08
1.34847e-06
1.8902e-08
-1.91809e-08
1.35197e-06
1.95052e-08
-1.88789e-08
1.35374e-06
1.91209e-08
-1.75494e-08
1.81093e-08
-1.56916e-08
1.53312e-06
3.64962e-09
-4.57745e-09
1.54218e-06
9.63476e-09
-1.19175e-08
1.55327e-06
1.36934e-08
-1.64478e-08
1.56445e-06
1.59395e-08
-1.85618e-08
1.57506e-06
1.69163e-08
-1.89314e-08
1.58469e-06
1.69523e-08
-1.82231e-08
1.63866e-08
-1.67171e-08
1.68027e-06
1.89127e-09
-3.64936e-09
1.68934e-06
5.09995e-09
-9.63406e-09
1.7018e-06
7.46529e-09
-1.36921e-08
1.71578e-06
8.94775e-09
-1.59372e-08
1.73022e-06
9.69564e-09
-1.69126e-08
1.74439e-06
9.86486e-09
-1.69464e-08
9.65804e-09
-1.63775e-08
1.7569e-06
-3.81615e-14
-3.09284e-09
1.76589e-06
-7.27838e-14
-8.27406e-09
1.77878e-06
-1.14818e-13
-1.19572e-08
1.79389e-06
-1.71359e-13
-1.41144e-08
1.81003e-06
-2.39262e-13
-1.51997e-08
1.82639e-06
-3.17716e-13
-1.55814e-08
-1.54267e-08
1.7569e-06
-1.8912e-09
-3.09296e-09
1.76589e-06
-5.09973e-09
-8.27438e-09
1.77878e-06
-7.4649e-09
-1.19578e-08
1.79389e-06
-8.94711e-09
-1.41155e-08
1.81003e-06
-9.69457e-09
-1.52017e-08
-9.86308e-09
-1.55846e-08
1.68027e-06
-3.64936e-09
-3.64962e-09
1.68934e-06
-9.63407e-09
-9.63477e-09
1.7018e-06
-1.36921e-08
-1.36934e-08
1.71578e-06
-1.59373e-08
-1.59396e-08
1.73022e-06
-1.69126e-08
-1.69164e-08
-1.69465e-08
-1.69524e-08
1.53312e-06
-4.93115e-09
-4.57765e-09
1.54218e-06
-1.30091e-08
-1.19181e-08
1.55328e-06
-1.72161e-08
-1.64488e-08
1.56445e-06
-1.88994e-08
-1.85634e-08
1.57507e-06
-1.95008e-08
-1.8934e-08
-1.91141e-08
-1.82272e-08
1.32763e-06
-5.56889e-09
-5.28158e-09
1.33539e-06
-1.39003e-08
-1.39995e-08
1.34287e-06
-1.62617e-08
-1.79794e-08
1.34848e-06
-1.59083e-08
-1.91811e-08
1.35198e-06
-1.50002e-08
-1.88793e-08
-1.39299e-08
-1.75504e-08
1.07432e-06
-2.85269e-09
1.06824e-06
-1.3409e-08
1.06138e-06
-1.7868e-08
1.05339e-06
-1.69564e-08
1.04511e-06
-1.53415e-08
-1.41713e-08
8.90374e-07
6.33242e-09
-3.58757e-09
8.82485e-07
1.71263e-08
-2.26458e-08
8.70356e-07
1.86369e-08
-2.4376e-08
8.55106e-07
1.71486e-08
-1.8855e-08
8.39971e-07
1.53621e-08
-1.55693e-08
8.25516e-07
1.37918e-08
-1.35098e-08
1.23453e-08
-1.19507e-08
1.1589e-06
6.10286e-09
-7.03391e-09
1.16569e-06
1.61839e-08
-1.98501e-08
1.16844e-06
2.07084e-08
-2.27972e-08
1.1666e-06
2.21076e-08
-2.23029e-08
1.1622e-06
2.15094e-08
-2.06217e-08
1.15652e-06
1.97751e-08
-1.78542e-08
1.74335e-08
-1.46984e-08
1.37712e-06
4.57764e-09
-6.10263e-09
1.38565e-06
1.19181e-08
-1.61831e-08
1.39417e-06
1.64487e-08
-2.07068e-08
1.40126e-06
1.85634e-08
-2.21049e-08
1.40641e-06
1.89339e-08
-2.15054e-08
1.4095e-06
1.82271e-08
-1.97692e-08
1.67238e-08
-1.74239e-08
1.53312e-06
2.36625e-09
-4.93115e-09
1.54218e-06
6.23946e-09
-1.30091e-08
1.55328e-06
8.87448e-09
-1.7216e-08
1.56445e-06
1.0349e-08
-1.88994e-08
1.57507e-06
1.09028e-08
-1.95007e-08
1.58471e-06
1.07597e-08
-1.9114e-08
1.01512e-08
-1.80985e-08
1.61424e-06
-1.45307e-13
-4.19295e-09
1.62332e-06
-3.56042e-13
-1.11161e-08
1.63534e-06
-6.22945e-13
-1.50989e-08
1.6482e-06
-1.0661e-12
-1.66295e-08
1.66118e-06
-1.80606e-12
-1.72748e-08
1.67387e-06
-2.86558e-12
-1.75078e-08
-1.71493e-08
1.61424e-06
-2.36637e-09
-4.19305e-09
1.62332e-06
-6.23975e-09
-1.11164e-08
1.63534e-06
-8.87501e-09
-1.50993e-08
1.6482e-06
-1.035e-08
-1.66303e-08
1.66118e-06
-1.09042e-08
-1.72766e-08
-1.07617e-08
-1.7511e-08
1.53312e-06
-4.57745e-09
-4.93135e-09
1.54218e-06
-1.19176e-08
-1.30097e-08
1.55327e-06
-1.64478e-08
-1.72172e-08
1.56445e-06
-1.85618e-08
-1.8902e-08
1.57506e-06
-1.89314e-08
-1.95053e-08
-1.82232e-08
-1.9121e-08
1.37712e-06
-6.10263e-09
-6.10286e-09
1.38565e-06
-1.61831e-08
-1.61839e-08
1.39417e-06
-2.07068e-08
-2.07084e-08
1.40126e-06
-2.21049e-08
-2.21076e-08
1.40641e-06
-2.15054e-08
-2.15095e-08
-1.97693e-08
-1.97751e-08
1.1589e-06
-6.33235e-09
-7.03405e-09
1.1657e-06
-1.71259e-08
-1.98506e-08
1.16844e-06
-1.86359e-08
-2.27981e-08
1.16661e-06
-1.7147e-08
-2.23045e-08
1.16221e-06
-1.53598e-08
-2.06243e-08
-1.37886e-08
-1.7859e-08
8.90375e-07
-3.58768e-09
8.82486e-07
-2.26463e-08
8.70359e-07
-2.43767e-08
8.55112e-07
-1.88561e-08
8.39982e-07
-1.55716e-08
-1.35136e-08
6.3138e-07
7.40294e-09
-1.0968e-09
6.14563e-07
2.07007e-08
-2.65294e-08
5.86443e-07
1.87299e-08
-1.49862e-08
5.61722e-07
1.58485e-08
-9.9818e-09
5.3961e-07
1.37512e-08
-7.20932e-09
5.20625e-07
1.12924e-08
-5.81728e-09
8.71433e-09
-4.71224e-09
9.23616e-07
7.03405e-09
-7.40288e-09
9.25317e-07
1.98506e-08
-2.07004e-08
9.17181e-07
2.2798e-08
-1.87293e-08
9.04269e-07
2.23045e-08
-1.58474e-08
8.90524e-07
2.06243e-08
-1.37496e-08
8.77393e-07
1.7859e-08
-1.12894e-08
1.47062e-08
-8.70937e-09
1.1589e-06
5.28158e-09
-6.33235e-09
1.1657e-06
1.39995e-08
-1.71259e-08
1.16844e-06
1.79794e-08
-1.86359e-08
1.16661e-06
1.91811e-08
-1.7147e-08
1.16221e-06
1.88793e-08
-1.53597e-08
1.15654e-06
1.75503e-08
-1.37885e-08
1.56926e-08
-1.234e-08
1.32763e-06
2.71835e-09
-5.56889e-09
1.33539e-06
7.12125e-09
-1.39003e-08
1.34287e-06
9.55415e-09
-1.62617e-08
1.34848e-06
1.05789e-08
-1.59082e-08
1.35198e-06
1.08764e-08
-1.50002e-08
1.35376e-06
1.0582e-08
-1.39298e-08
9.89372e-09
-1.29715e-08
1.41518e-06
-2.00237e-13
-4.90657e-09
1.42279e-06
-5.5875e-13
-1.16086e-08
1.43152e-06
-9.67788e-13
-1.42756e-08
1.43981e-06
-1.71186e-12
-1.43333e-08
1.44714e-06
-3.03202e-12
-1.37288e-08
1.45319e-06
-5.11029e-12
-1.29661e-08
-1.20952e-08
1.41518e-06
-2.71859e-09
-4.90662e-09
1.42279e-06
-7.1219e-09
-1.16087e-08
1.43152e-06
-9.55534e-09
-1.42757e-08
1.4398e-06
-1.05811e-08
-1.43337e-08
1.44713e-06
-1.08802e-08
-1.37299e-08
-1.05883e-08
-1.29683e-08
1.32762e-06
-5.28151e-09
-5.56891e-09
1.33539e-06
-1.39993e-08
-1.39004e-08
1.34286e-06
-1.79793e-08
-1.62622e-08
1.34847e-06
-1.91809e-08
-1.59097e-08
1.35197e-06
-1.8879e-08
-1.50029e-08
-1.75495e-08
-1.39339e-08
1.1589e-06
-7.03392e-09
-6.33242e-09
1.16569e-06
-1.98501e-08
-1.71263e-08
1.16844e-06
-2.27972e-08
-1.86369e-08
1.1666e-06
-2.23029e-08
-1.71486e-08
1.1622e-06
-2.06218e-08
-1.53622e-08
-1.78543e-08
-1.37918e-08
9.23616e-07
-7.40288e-09
-7.40294e-09
9.25317e-07
-2.07004e-08
-2.07008e-08
9.17181e-07
-1.87293e-08
-1.87299e-08
9.04269e-07
-1.58474e-08
-1.58485e-08
8.90524e-07
-1.37497e-08
-1.37512e-08
-1.12894e-08
-1.12925e-08
6.3138e-07
-1.09689e-09
6.14563e-07
-2.65298e-08
5.86444e-07
-1.49869e-08
5.61723e-07
-9.98287e-09
5.39614e-07
-7.21147e-09
-5.82062e-09
3.32249e-07
1.09689e-09
2.7919e-07
2.65298e-08
2.49217e-07
1.49869e-08
2.29252e-07
9.98287e-09
2.14832e-07
7.21146e-09
2.03194e-07
5.82061e-09
4.71863e-09
6.3138e-07
3.58768e-09
6.14563e-07
2.26463e-08
5.86444e-07
2.43767e-08
5.61723e-07
1.88561e-08
5.39614e-07
1.55716e-08
5.20631e-07
1.35136e-08
1.19572e-08
8.90375e-07
2.85269e-09
8.82486e-07
1.3409e-08
8.70359e-07
1.78681e-08
8.55112e-07
1.69564e-08
8.39982e-07
1.53415e-08
8.25536e-07
1.41713e-08
1.33817e-08
1.07432e-06
1.06484e-09
1.06824e-06
5.58675e-09
1.06138e-06
8.46443e-09
1.05339e-06
9.04042e-09
1.04511e-06
8.6185e-09
1.03723e-06
8.12127e-09
7.7875e-09
1.16914e-06
-1.20947e-13
1.16312e-06
-5.27053e-13
1.15731e-06
-1.11619e-12
1.15202e-06
-1.95123e-12
1.14691e-06
-3.27761e-12
1.14208e-06
-5.56035e-12
1.16914e-06
-1.06509e-09
1.16312e-06
-5.58759e-09
1.15731e-06
-8.46598e-09
1.15202e-06
-9.04305e-09
1.14691e-06
-8.62318e-09
-8.12959e-09
1.07432e-06
-2.85269e-09
1.06824e-06
-1.3409e-08
1.06138e-06
-1.78681e-08
1.05338e-06
-1.69566e-08
1.0451e-06
-1.53422e-08
-1.4173e-08
8.90374e-07
-3.58757e-09
8.82485e-07
-2.26458e-08
8.70356e-07
-2.4376e-08
8.55106e-07
-1.8855e-08
8.39971e-07
-1.55693e-08
-1.35098e-08
6.3138e-07
-1.0968e-09
6.14563e-07
-2.65294e-08
5.86443e-07
-1.49862e-08
5.61722e-07
-9.9818e-09
5.3961e-07
-7.20932e-09
-5.81728e-09
3.32249e-07
2.7919e-07
2.49217e-07
2.29252e-07
2.14832e-07
)
;

boundaryField
{
    inlet
    {
        type            calculated;
        value           nonuniform List<scalar> 
100
(
-3.34443e-07
-6.41274e-07
-8.95972e-07
-1.0781e-06
-1.17299e-06
-1.17299e-06
-1.0781e-06
-8.95972e-07
-6.41274e-07
-3.34443e-07
-6.41274e-07
-9.22878e-07
-1.15692e-06
-1.32442e-06
-1.41174e-06
-1.41174e-06
-1.32442e-06
-1.15692e-06
-9.22878e-07
-6.41274e-07
-8.95972e-07
-1.15692e-06
-1.37407e-06
-1.52963e-06
-1.61077e-06
-1.61077e-06
-1.52963e-06
-1.37407e-06
-1.15692e-06
-8.95972e-07
-1.0781e-06
-1.32442e-06
-1.52963e-06
-1.67675e-06
-1.75353e-06
-1.75353e-06
-1.67675e-06
-1.52963e-06
-1.32442e-06
-1.0781e-06
-1.17299e-06
-1.41174e-06
-1.61077e-06
-1.75353e-06
-1.82805e-06
-1.82805e-06
-1.75353e-06
-1.61077e-06
-1.41174e-06
-1.17299e-06
-1.17299e-06
-1.41174e-06
-1.61077e-06
-1.75353e-06
-1.82805e-06
-1.82805e-06
-1.75353e-06
-1.61077e-06
-1.41174e-06
-1.17299e-06
-1.0781e-06
-1.32442e-06
-1.52963e-06
-1.67675e-06
-1.75353e-06
-1.75353e-06
-1.67675e-06
-1.52963e-06
-1.32442e-06
-1.0781e-06
-8.95972e-07
-1.15692e-06
-1.37407e-06
-1.52963e-06
-1.61077e-06
-1.61077e-06
-1.52963e-06
-1.37407e-06
-1.15692e-06
-8.95972e-07
-6.41274e-07
-9.22878e-07
-1.15692e-06
-1.32442e-06
-1.41174e-06
-1.41174e-06
-1.32442e-06
-1.15692e-06
-9.22878e-07
-6.41274e-07
-3.34443e-07
-6.41274e-07
-8.95972e-07
-1.0781e-06
-1.17299e-06
-1.17299e-06
-1.0781e-06
-8.95972e-07
-6.41274e-07
-3.34443e-07
)
;
    }
    ami1
    {
        type            cyclicAMI;
        value           nonuniform List<scalar> 0();
    }
    walls
    {
        type            calculated;
        value           uniform 0;
    }
    ami2
    {
        type            cyclicAMI;
        value           nonuniform List<scalar> 0();
    }
    outlet
    {
        type            calculated;
        value           nonuniform List<scalar> 0();
    }
    procBoundary4to3
    {
        type            processor;
        value           nonuniform List<scalar> 
109
(
1.93763e-07
5.04673e-07
8.11736e-07
1.02981e-06
1.13776e-06
1.13778e-06
1.02985e-06
8.11771e-07
5.04683e-07
1.93763e-07
5.04683e-07
8.65412e-07
1.15044e-06
1.3544e-06
1.45801e-06
1.45803e-06
1.35443e-06
1.15047e-06
8.65412e-07
5.04673e-07
8.11771e-07
1.15047e-06
1.41092e-06
1.59298e-06
1.68574e-06
1.68575e-06
1.593e-06
1.41092e-06
1.15044e-06
8.11736e-07
1.02985e-06
1.35443e-06
1.593e-06
1.75784e-06
1.8424e-06
1.84241e-06
1.75784e-06
1.59298e-06
1.3544e-06
1.02981e-06
1.13778e-06
1.45803e-06
1.68575e-06
1.84241e-06
1.92284e-06
1.92284e-06
1.8424e-06
1.68574e-06
1.45801e-06
1.13776e-06
1.13776e-06
1.45801e-06
1.68574e-06
1.8424e-06
1.92284e-06
1.92284e-06
-9.07394e-09
1.84241e-06
-9.65819e-09
1.68575e-06
-1.01514e-08
1.45803e-06
-9.89383e-09
1.13778e-06
-7.78754e-09
1.02981e-06
1.3544e-06
1.59298e-06
1.75784e-06
1.84241e-06
-4.46852e-13
1.82639e-06
1.74439e-06
1.58471e-06
1.35376e-06
1.03723e-06
8.11736e-07
1.15044e-06
1.41092e-06
1.593e-06
1.68575e-06
-4.60659e-12
1.67386e-06
1.58469e-06
1.4095e-06
1.15654e-06
8.25536e-07
5.04673e-07
8.65412e-07
1.15047e-06
1.35443e-06
1.45803e-06
-8.25539e-12
1.45317e-06
1.35374e-06
1.15652e-06
8.77392e-07
5.20631e-07
1.93763e-07
5.04683e-07
8.11771e-07
1.02985e-06
1.13778e-06
-9.49065e-12
1.14206e-06
1.03721e-06
8.25516e-07
5.20625e-07
2.03194e-07
)
;
    }
}


// ************************************************************************* //
