/*--------------------------------*- C++ -*----------------------------------*\
| =========                 |                                                 |
| \\      /  F ield         | OpenFOAM: The Open Source CFD Toolbox           |
|  \\    /   O peration     | Version:  2212                                  |
|   \\  /    A nd           | Website:  www.openfoam.com                      |
|    \\/     M anipulation  |                                                 |
\*---------------------------------------------------------------------------*/
FoamFile
{
    version     2.0;
    format      ascii;
    arch        "LSB;label=32;scalar=64";
    class       volScalarField;
    location    "2.5";
    object      k;
}
// * * * * * * * * * * * * * * * * * * * * * * * * * * * * * * * * * * * * * //

dimensions      [0 2 -2 0 0 0 0];

internalField   nonuniform List<scalar> 
693
(
0.0019795
0.00195503
0.00193179
0.00190887
0.00188677
0.0018646
0.00170581
0.00168324
0.00166118
0.00163981
0.00161906
0.00159874
0.00169635
0.00167002
0.00164424
0.00161939
0.00159547
0.00157241
0.00167021
0.00163872
0.00160895
0.00158111
0.00155433
0.00152895
0.00165679
0.00162282
0.00159104
0.0015611
0.00153293
0.00150631
0.00163984
0.00160494
0.00157049
0.00153906
0.00151034
0.0014838
0.00161029
0.00157775
0.00154507
0.00151515
0.00148828
0.00146271
0.00157911
0.00154963
0.00152231
0.00149604
0.00147186
0.00144711
0.00156663
0.00154026
0.00151569
0.0014922
0.00147009
0.00144873
0.00161452
0.00159232
0.00157106
0.00155054
0.00153081
0.00151163
0.0019809
0.00195628
0.00193345
0.00191061
0.00188872
0.00186663
0.0016132
0.00159109
0.00156969
0.00154905
0.00152921
0.00150992
0.00114486
0.00111256
0.00108145
0.00105106
0.00102342
0.000995392
0.00145662
0.0014067
0.00135786
0.00131169
0.00127096
0.00122978
0.00163482
0.00157723
0.0015205
0.00147074
0.00142073
0.00137577
0.00172661
0.00166457
0.00160706
0.00155185
0.00149787
0.00144785
0.00177053
0.00169568
0.0016287
0.00157326
0.00152309
0.00147545
0.00175059
0.00168207
0.00161882
0.00155795
0.00150435
0.00145121
0.00161968
0.00155416
0.00149701
0.00143936
0.00138886
0.00133728
0.00136348
0.00131052
0.00126492
0.00121791
0.00117798
0.00113565
0.001148
0.00111491
0.0010846
0.00105398
0.00102648
0.000998605
0.00170681
0.00168423
0.00166233
0.00164115
0.00162052
0.00160031
0.00156471
0.00153868
0.00151412
0.00149065
0.00146853
0.00144719
0.00135657
0.00130697
0.00126062
0.00121371
0.00117389
0.00113163
0.00171541
0.0016433
0.00157727
0.00151346
0.0014556
0.00139928
0.00198277
0.0018974
0.00181699
0.0017427
0.00167246
0.00160729
0.0021414
0.00204856
0.00196189
0.0018819
0.00180635
0.00173543
0.00220657
0.00211035
0.00202054
0.00193697
0.00185893
0.00178699
0.00216525
0.00207215
0.00198524
0.00190352
0.0018275
0.00175572
0.00199869
0.0019136
0.00183414
0.00175849
0.00168739
0.00161977
0.00171994
0.00164701
0.00158106
0.00151659
0.00145865
0.00140202
0.00146228
0.00140904
0.00136268
0.00131553
0.00127445
0.00123285
0.0016973
0.00167098
0.00164546
0.00162071
0.00159687
0.00157384
0.00157719
0.00154819
0.00152056
0.00149463
0.00147047
0.00144569
0.00161268
0.00155114
0.00149094
0.00143663
0.0013851
0.00133425
0.00199636
0.00191134
0.00183183
0.00175655
0.00168569
0.001618
0.00230385
0.0022024
0.00210761
0.00201896
0.00193528
0.00185779
0.00249689
0.00238581
0.00228204
0.00218504
0.00209379
0.00200926
0.00256681
0.00245255
0.00234578
0.00224595
0.002152
0.00206491
0.00250522
0.00239421
0.00229047
0.00219343
0.00210197
0.00201717
0.00230502
0.00220364
0.0021089
0.0020203
0.00193658
0.00185909
0.00198481
0.0018995
0.00181959
0.00174513
0.00167493
0.00160966
0.00163969
0.00157875
0.00152492
0.00147338
0.00142383
0.00137848
0.00167116
0.00163958
0.00161006
0.00158225
0.0015556
0.00153029
0.00160903
0.00157646
0.00154376
0.00151407
0.00148726
0.00146174
0.00174783
0.00167997
0.00161629
0.00155637
0.0015023
0.0014497
0.0021641
0.00207107
0.00198418
0.00190259
0.00182684
0.00175528
0.00250491
0.00239395
0.00229024
0.00219321
0.00210183
0.00201706
0.00272231
0.00260031
0.00248634
0.00237975
0.00227956
0.0021863
0.0027981
0.0026724
0.002555
0.00244521
0.00234205
0.00224596
0.00272236
0.0026004
0.00248647
0.00237992
0.00227975
0.00218651
0.00249795
0.00238693
0.00228321
0.0021863
0.00209511
0.00201059
0.00214318
0.00205044
0.00196409
0.00188414
0.00180868
0.00173777
0.00172776
0.00166677
0.00160902
0.00155423
0.00150129
0.0014506
0.00165737
0.00162358
0.00159189
0.00156203
0.00153404
0.00150749
0.00163922
0.00160435
0.00156993
0.00153855
0.00150987
0.00148338
0.00176973
0.0016951
0.00162828
0.00157297
0.00152284
0.00147554
0.00220668
0.0021106
0.00202095
0.00193735
0.00185994
0.00178777
0.00256742
0.00245324
0.00234655
0.00224671
0.00215294
0.00206581
0.0027986
0.00267293
0.00255554
0.00244572
0.00234264
0.00224647
0.00287878
0.00274918
0.00262814
0.00251495
0.00240866
0.00230958
0.00279847
0.00267281
0.00255543
0.00244566
0.00234251
0.00224643
0.00256798
0.00245377
0.00234704
0.00224724
0.00215333
0.00206624
0.00220824
0.00211217
0.0020225
0.00193899
0.00186104
0.00178917
0.00177256
0.00169804
0.00163107
0.00157531
0.00152523
0.00147779
0.00164048
0.00160573
0.00157137
0.00153996
0.00151126
0.00148476
0.00165653
0.00162256
0.00159082
0.00156096
0.00153294
0.0017264
0.00166426
0.00160705
0.00155257
0.00149986
0.00214223
0.00204948
0.00196315
0.00188315
0.00180814
0.00249776
0.00238679
0.00228319
0.00218603
0.00209574
0.00272276
0.00260083
0.00248696
0.00238025
0.00228069
0.00279855
0.00267288
0.00255552
0.00244571
0.00234267
0.0022465
0.00272258
0.00260064
0.00248673
0.00238021
0.00228008
0.00218686
0.00250596
0.002395
0.00229131
0.00219431
0.00210293
0.00201817
0.00216645
0.00207343
0.00198663
0.001905
0.00182911
0.00175743
0.00175175
0.00168337
0.0016203
0.00155945
0.00150605
0.00145301
0.00161056
0.00157828
0.0015457
0.00151579
0.00148895
0.00146346
0.00163904
0.00160939
0.00158142
0.0015549
0.00157887
0.00152293
0.00147138
0.00142391
0.00198418
0.00189887
0.00181907
0.00174431
0.00167497
0.00230483
0.00220347
0.00210893
0.00202002
0.00193752
0.00250535
0.00239442
0.00229084
0.00219361
0.0021031
0.00256735
0.00245315
0.00234645
0.00224661
0.0021529
0.00206573
0.00249755
0.00238655
0.00228286
0.00218595
0.00209483
0.00201037
0.00230547
0.00220405
0.00210932
0.00202073
0.00193707
0.0018596
0.0019998
0.00191462
0.00183529
0.00175978
0.00168878
0.00162121
0.00162073
0.00155516
0.00149819
0.00144074
0.00139046
0.00133913
0.0015795
0.00155005
0.00152278
0.00149654
0.00147242
0.00144782
0.00167074
0.00164513
0.0016203
0.00159652
0.00140899
0.00136113
0.00131491
0.00127314
0.00171717
0.001645
0.0015793
0.00151585
0.0014575
0.00199732
0.00191229
0.00183298
0.00175792
0.00168664
0.00216441
0.0020714
0.00198459
0.00190301
0.00182747
0.00220655
0.00211043
0.00202077
0.00193716
0.00185966
0.00178763
0.002142
0.00204921
0.00196277
0.00188265
0.00180752
0.00173682
0.00198493
0.00189942
0.00181944
0.00174481
0.00167479
0.0016095
0.00172019
0.00164721
0.0015815
0.00151727
0.00145959
0.0014031
0.00136395
0.00131261
0.0012664
0.00121911
0.0011792
0.001137
0.00156701
0.00154075
0.00151619
0.00149267
0.00147057
0.00144928
0.00168372
0.00166203
0.00164073
0.00162019
0.00111372
0.00108292
0.0010535
0.00102471
0.00135693
0.00130685
0.00126108
0.00121524
0.00117312
0.00161355
0.00155077
0.00149192
0.00143666
0.00138355
0.00174752
0.00167965
0.00161606
0.00155658
0.00150137
0.00176923
0.0016946
0.00162784
0.00157253
0.00152265
0.00147519
0.00172539
0.00166429
0.00160665
0.00155197
0.00149973
0.0014491
0.00163893
0.00157781
0.0015238
0.00147244
0.00142288
0.00137782
0.00146235
0.00140834
0.00136225
0.00131554
0.00127465
0.00123335
0.00114887
0.00111561
0.00108488
0.00105436
0.00102662
0.000999045
0.00161507
0.00159287
0.00157154
0.00155096
0.00153121
0.00151204
0.00195624
0.00193255
0.00191016
0.00188806
0.00159139
0.00157025
0.00154973
0.00153002
0.00156431
0.00153837
0.00151394
0.00149061
0.00146849
0.00157671
0.00154767
0.00152027
0.00149443
0.00147002
0.00160839
0.00157593
0.00154332
0.00151384
0.00148666
0.0016388
0.00160399
0.00156963
0.00153834
0.00150963
0.00148348
0.00165631
0.00162242
0.0015907
0.00156084
0.00153297
0.00150648
0.00167069
0.00163904
0.00160946
0.00158164
0.00155504
0.00152975
0.00169741
0.00167089
0.00164534
0.00162061
0.0015968
0.00157385
0.00170721
0.00168454
0.00166258
0.00164134
0.00162069
0.00160051
0.00198152
0.00195689
0.00193389
0.00191103
0.00188909
0.00186714
)
;

boundaryField
{
    inlet
    {
        type            fixedValue;
        value           nonuniform List<scalar> 0();
    }
    ami1
    {
        type            cyclicAMI;
        value           nonuniform List<scalar> 0();
    }
    walls
    {
        type            kqRWallFunction;
        value           nonuniform List<scalar> 
248
(
0.0019795
0.00170581
0.00169635
0.00167021
0.00165679
0.00163984
0.00161029
0.00157911
0.00156663
0.00161452
0.0019809
0.00195503
0.00168324
0.00167002
0.00163872
0.00162282
0.00160494
0.00157775
0.00154963
0.00154026
0.00159232
0.00195628
0.00193179
0.00166118
0.00164424
0.00160895
0.00159104
0.00157049
0.00154507
0.00152231
0.00151569
0.00157106
0.00193345
0.00190887
0.00163981
0.00161939
0.00158111
0.0015611
0.00153906
0.00151515
0.00149604
0.0014922
0.00155054
0.00191061
0.00188677
0.00161906
0.00159547
0.00155433
0.00153293
0.00151034
0.00148828
0.00147186
0.00147009
0.00153081
0.00188872
0.0018646
0.00159874
0.00157241
0.00152895
0.00150631
0.0014838
0.00146271
0.00144711
0.00144873
0.00151163
0.00186663
0.0019809
0.00170681
0.0016973
0.00167116
0.00165737
0.00164048
0.00161056
0.0015795
0.00156701
0.00161507
0.00198152
0.00195628
0.00168423
0.00167098
0.00163958
0.00162358
0.00160573
0.00157828
0.00155005
0.00154075
0.00159287
0.00195689
0.00193345
0.00166233
0.00164546
0.00161006
0.00159189
0.00157137
0.0015457
0.00152278
0.00151619
0.00157154
0.00193389
0.00191061
0.00164115
0.00162071
0.00158225
0.00156203
0.00153996
0.00151579
0.00149654
0.00149267
0.00155096
0.00191103
0.00188872
0.00162052
0.00159687
0.0015556
0.00153404
0.00151126
0.00148895
0.00147242
0.00147057
0.00153121
0.00188909
0.00186663
0.00160031
0.00157384
0.00153029
0.00150749
0.00148476
0.00146346
0.00144782
0.00144928
0.00151204
0.00186714
0.00156431
0.00157671
0.00160839
0.0016388
0.00165631
0.00167069
0.00169741
0.00170721
0.00198152
0.00195624
0.00159139
0.00153837
0.00154767
0.00157593
0.00160399
0.00162242
0.00163904
0.00167089
0.00168454
0.00195689
0.00193255
0.00157025
0.00151394
0.00152027
0.00154332
0.00156963
0.0015907
0.00160946
0.00164534
0.00166258
0.00193389
0.00191016
0.00154973
0.00149061
0.00149443
0.00151384
0.00153834
0.00156084
0.00158164
0.00162061
0.00164134
0.00191103
0.00188806
0.00153002
0.00146849
0.00147002
0.00148666
0.00150963
0.00153297
0.00155504
0.0015968
0.00162069
0.00188909
0.00148348
0.00150648
0.00152975
0.00157385
0.00160051
0.00186714
0.0019795
0.0016132
0.00156471
0.00157719
0.00160903
0.00163922
0.00165653
0.00195503
0.00159109
0.00153868
0.00154819
0.00157646
0.00160435
0.00162256
0.00163904
0.00167074
0.00168372
0.00195624
0.00193179
0.00156969
0.00151412
0.00152056
0.00154376
0.00156993
0.00159082
0.00160939
0.00164513
0.00166203
0.00193255
0.00190887
0.00154905
0.00149065
0.00149463
0.00151407
0.00153855
0.00156096
0.00158142
0.0016203
0.00164073
0.00191016
0.00188677
0.00152921
0.00146853
0.00147047
0.00148726
0.00150987
0.00153294
0.0015549
0.00159652
0.00162019
0.00188806
0.0018646
0.00150992
0.00144719
0.00144569
0.00146174
0.00148338
)
;
    }
    ami2
    {
        type            cyclicAMI;
        value           nonuniform List<scalar> 0();
    }
    outlet
    {
        type            zeroGradient;
    }
    procBoundary7to5
    {
        type            processor;
        value           nonuniform List<scalar> 
131
(
0.00184375
0.00157908
0.00155022
0.00150485
0.00148148
0.00145951
0.00143926
0.00142377
0.00142912
0.00149356
0.00184574
0.00149186
0.000973163
0.00119433
0.00133152
0.001401
0.00143021
0.00140491
0.00129437
0.00110303
0.000976392
0.00158074
0.00142766
0.00109935
0.00134913
0.00154537
0.0016673
0.0017174
0.00168728
0.00155781
0.00135158
0.00119719
0.00155169
0.00142242
0.00129058
0.00155598
0.00178373
0.00192841
0.00198183
0.00193624
0.00178488
0.00154752
0.00133444
0.00150622
0.00143845
0.00140276
0.00168684
0.00193625
0.00209762
0.00215463
0.00209783
0.00192971
0.00166969
0.00140449
0.0014827
0.00145928
0.00150655
0.00143013
0.00144823
0.00171801
0.00173612
0.00198268
0.00201013
0.00215505
0.00218652
0.00221542
0.0021551
0.00198316
0.00171961
0.00143258
0.00146053
0.00150655
0.00144823
0.00173612
0.00201013
0.00218652
0.00218652
0.00215504
0.00209817
0.00193725
0.00168908
0.00140716
0.00144013
0.00152958
0.00137591
0.00160855
0.00185903
0.0020174
0.0020174
0.00198252
0.00192953
0.00178544
0.00155934
0.00129638
0.00142455
0.00157354
0.00123332
0.0014023
0.00162012
0.00175537
0.00175537
0.00171792
0.00166881
0.00154759
0.00135274
0.0011045
0.00142979
0.0016002
0.00100093
0.00113688
0.00133606
0.00145039
0.00145039
0.00143038
0.00140299
0.00133393
0.00119733
0.000976761
0.0014941
0.00186694
0.0015117
0.00144815
0.00144588
0.00146215
0.00146215
0.00145939
0.00148193
0.00150587
0.0015518
0.00158102
0.00184636
)
;
    }
    procBoundary7to8
    {
        type            processor;
        value           nonuniform List<scalar> 
68
(
0.00200348
0.00172922
0.00172539
0.00170361
0.00169319
0.00163515
0.0011747
0.00151353
0.00170122
0.00179448
0.00159213
0.00141024
0.00179171
0.00207378
0.00224156
0.00160781
0.00168141
0.00208728
0.00241244
0.0026162
0.00164149
0.00181898
0.00226305
0.00262381
0.0028534
0.00293327
0.00167064
0.00184608
0.00230902
0.00268994
0.00293372
0.00301821
0.00169284
0.00167014
0.00179448
0.00163621
0.00224216
0.00261694
0.0028538
0.00293369
0.00167014
0.00163621
0.00163621
0.00207516
0.00241342
0.00262426
0.00268994
0.00169673
0.0014574
0.0014574
0.00179395
0.00208841
0.00226345
0.00230903
0.00170565
0.00114167
0.00114167
0.00141128
0.00168136
0.00181861
0.00184569
0.00197914
0.00161229
0.00161229
0.0015918
0.00160728
0.00164084
0.00167014
)
;
    }
    procBoundary7to9
    {
        type            processor;
        value           nonuniform List<scalar> 
59
(
0.00167131
0.00164263
0.0016096
0.00159418
0.00163672
0.00200467
0.00184704
0.00182159
0.00168443
0.0014155
0.00117724
0.00173019
0.00230915
0.00226438
0.00208949
0.00179414
0.00151358
0.00172602
0.00268946
0.00262419
0.00241358
0.00207541
0.00170113
0.00170413
0.00285345
0.00261718
0.00224319
0.00179622
0.00169372
0.00293361
0.00269058
0.00231066
0.0018484
0.00167165
0.00285367
0.00262495
0.00226554
0.00182256
0.00164287
0.00261685
0.00241414
0.00209083
0.00168584
0.00160992
0.00224217
0.00207574
0.0017966
0.00141778
0.00159452
0.0017941
0.00170067
0.00151612
0.00117883
0.00163715
0.00169274
0.00170371
0.00172625
0.00173062
0.00200534
)
;
    }
}


// ************************************************************************* //
