/*--------------------------------*- C++ -*----------------------------------*\
| =========                 |                                                 |
| \\      /  F ield         | OpenFOAM: The Open Source CFD Toolbox           |
|  \\    /   O peration     | Version:  2212                                  |
|   \\  /    A nd           | Website:  www.openfoam.com                      |
|    \\/     M anipulation  |                                                 |
\*---------------------------------------------------------------------------*/
FoamFile
{
    version     2.0;
    format      ascii;
    arch        "LSB;label=32;scalar=64";
    class       volScalarField;
    location    "2.5";
    object      epsilon;
}
// * * * * * * * * * * * * * * * * * * * * * * * * * * * * * * * * * * * * * //

dimensions      [0 2 -3 0 0 0 0];

internalField   nonuniform List<scalar> 
6840
(
90.5034
12.1248
4.3887
2.46659
1.63316
1.18308
0.902025
0.720679
0.59461
0.502534
0.432725
0.379346
0.336413
0.30005
0.270475
0.246585
0.227193
0.211933
0.203141
0.19499
58.5856
14.5696
6.08947
3.33296
2.08218
1.40268
0.998666
0.740303
0.565926
0.443954
0.35606
0.290981
0.241486
0.203095
0.173246
0.150043
0.131706
0.117212
0.106498
0.099489
45.0226
13.4729
5.73075
3.07323
1.86023
1.227
0.873585
0.649789
0.497027
0.389498
0.311313
0.253008
0.209021
0.17527
0.148899
0.128008
0.111318
0.0978885
0.0870971
0.0788414
38.7028
13.0541
5.74336
3.08733
1.88067
1.22751
0.869481
0.645388
0.492596
0.384786
0.30703
0.249052
0.204987
0.170996
0.144407
0.123345
0.106454
0.0927617
0.0815981
0.0731038
36.0571
12.8529
5.76645
3.10212
1.89476
1.22669
0.8665
0.643981
0.492248
0.383962
0.305792
0.247914
0.203912
0.169935
0.143313
0.122175
0.105167
0.0913095
0.0799762
0.0715796
36.0571
12.8529
5.76645
3.10211
1.89475
1.22669
0.866496
0.643977
0.492243
0.383954
0.305781
0.247901
0.203895
0.169915
0.143288
0.122133
0.105101
0.0912055
0.0797921
0.0710145
38.7028
13.0541
5.74336
3.08733
1.88066
1.2275
0.869472
0.645378
0.492583
0.384769
0.307007
0.249022
0.20495
0.170953
0.144348
0.123253
0.106314
0.092547
0.0813059
0.0730783
45.0226
13.4729
5.73075
3.07323
1.86023
1.22699
0.873576
0.64978
0.497014
0.389479
0.311289
0.252976
0.208982
0.175222
0.148833
0.127909
0.111167
0.0976546
0.0867492
0.0784683
58.5856
14.5696
6.08947
3.33296
2.08218
1.40268
0.998663
0.740301
0.565923
0.443948
0.35605
0.290967
0.241463
0.203066
0.173201
0.149965
0.131566
0.116948
0.105966
0.0987843
90.5034
12.1248
4.3887
2.46659
1.63316
1.18308
0.902024
0.720679
0.59461
0.502533
0.432724
0.379345
0.336409
0.300051
0.270471
0.24658
0.227186
0.211925
0.203131
0.194972
58.5856
14.5696
6.08947
3.33296
2.08218
1.40268
0.998664
0.740301
0.565923
0.443949
0.356051
0.290967
0.241467
0.203061
0.173204
0.14997
0.131572
0.116954
0.105973
0.0987961
16.5373
9.49239
5.0127
2.8606
1.75746
1.14759
0.786931
0.562048
0.415366
0.315946
0.24633
0.19622
0.159216
0.131245
0.109752
0.0931736
0.0801243
0.0696343
0.0606191
0.0562527
13.6679
8.73671
5.07741
3.05388
1.92223
1.26609
0.869288
0.618629
0.453957
0.342031
0.263647
0.207307
0.165897
0.134839
0.111132
0.0926691
0.0781387
0.0666052
0.0571708
0.0497629
12.9054
8.33993
5.07879
3.15547
2.02774
1.3512
0.933536
0.666457
0.489543
0.368592
0.2836
0.222382
0.177321
0.14352
0.11774
0.0977522
0.0820563
0.0695816
0.0595496
0.0513675
12.6882
8.1544
5.07113
3.20038
2.07939
1.39506
0.967831
0.692723
0.509637
0.384016
0.295503
0.231647
0.184592
0.149262
0.122295
0.101385
0.0849635
0.0719095
0.0614253
0.0529682
12.6882
8.1544
5.07113
3.20038
2.07939
1.39506
0.967834
0.692726
0.509643
0.384023
0.295512
0.231657
0.184604
0.149273
0.122305
0.101404
0.0849888
0.0719389
0.0614548
0.0530002
12.9054
8.33993
5.07879
3.15547
2.02775
1.35121
0.933542
0.666464
0.489554
0.368606
0.283618
0.222403
0.177345
0.143543
0.117765
0.0977935
0.082109
0.0696431
0.0596139
0.0513604
13.6679
8.73671
5.07741
3.05388
1.92224
1.2661
0.869292
0.618633
0.453965
0.342042
0.26366
0.207324
0.165916
0.134855
0.111158
0.0927038
0.078179
0.0666463
0.057194
0.0501926
16.5373
9.49239
5.0127
2.8606
1.75746
1.14759
0.786931
0.562047
0.415366
0.315946
0.24633
0.19622
0.159216
0.131236
0.10976
0.0931766
0.0801259
0.0696354
0.0606199
0.0562568
58.5856
14.5696
6.08947
3.33296
2.08218
1.40268
0.998665
0.740303
0.565925
0.443954
0.356058
0.29098
0.241484
0.203094
0.173244
0.150039
0.131701
0.117206
0.106489
0.0994748
45.0226
13.4729
5.73075
3.07323
1.86023
1.22699
0.873576
0.64978
0.497014
0.389479
0.311289
0.252976
0.20898
0.175219
0.148837
0.127912
0.11117
0.0976575
0.0867528
0.0784735
13.6679
8.73671
5.07741
3.05388
1.92224
1.2661
0.869292
0.618634
0.453965
0.342042
0.26366
0.207324
0.165917
0.134864
0.111149
0.0927011
0.0781785
0.0666477
0.0571909
0.050184
11.8601
7.76395
4.99734
3.24076
2.14419
1.45499
1.0141
0.725634
0.532156
0.399149
0.305546
0.238222
0.188824
0.151913
0.123869
0.102235
0.0853171
0.0719261
0.0611842
0.0526144
11.6229
7.60535
5.0103
3.34209
2.26848
1.57142
1.11236
0.804587
0.594203
0.447515
0.343208
0.26763
0.211895
0.170116
0.13832
0.113775
0.0945876
0.0794103
0.0672738
0.0574924
11.5726
7.56718
5.02065
3.38344
2.32103
1.62326
1.15828
0.843156
0.62569
0.472848
0.363482
0.283851
0.224903
0.180587
0.146789
0.120661
0.100216
0.0840342
0.0710911
0.0606085
11.5726
7.56718
5.02065
3.38344
2.32103
1.62326
1.15828
0.843156
0.625692
0.472851
0.363486
0.283855
0.224908
0.180589
0.14679
0.120667
0.100224
0.0840448
0.0711042
0.0606438
11.6229
7.60535
5.0103
3.34209
2.26848
1.57142
1.11236
0.804588
0.594206
0.44752
0.343214
0.267637
0.211901
0.17012
0.138326
0.113787
0.0946041
0.0794307
0.0672998
0.0575622
11.8601
7.76395
4.99734
3.24076
2.14419
1.45499
1.0141
0.725634
0.532155
0.399149
0.305546
0.238222
0.188824
0.151911
0.123871
0.102236
0.0853182
0.0719276
0.0611857
0.0526192
13.6679
8.73671
5.07741
3.05388
1.92223
1.26609
0.869288
0.618629
0.453957
0.342031
0.263647
0.207308
0.165898
0.134841
0.11113
0.0926689
0.0781393
0.0666062
0.0571717
0.0497655
45.0226
13.4729
5.73075
3.07323
1.86023
1.227
0.873585
0.649789
0.497026
0.389498
0.311313
0.253007
0.209019
0.175266
0.1489
0.128009
0.111319
0.0978878
0.0870958
0.0788372
38.7028
13.0541
5.74336
3.08733
1.88066
1.2275
0.869472
0.645378
0.492584
0.384769
0.307007
0.249022
0.204948
0.170949
0.144351
0.123256
0.106316
0.0925482
0.0813064
0.0730795
12.9054
8.33993
5.07879
3.15547
2.02775
1.35121
0.933542
0.666464
0.489554
0.368606
0.283618
0.222404
0.177348
0.143549
0.117759
0.0977915
0.0821091
0.0696443
0.0596159
0.0513624
11.6229
7.60535
5.01031
3.34209
2.26848
1.57142
1.11236
0.804589
0.594206
0.44752
0.343214
0.267637
0.211903
0.170122
0.138323
0.113786
0.0946036
0.0794305
0.0672997
0.0575614
11.4933
7.5119
5.02843
3.434
2.3892
1.6928
1.22111
0.896487
0.669456
0.508122
0.391656
0.306285
0.242784
0.194886
0.158279
0.129952
0.107776
0.0902254
0.0761875
0.064808
11.4757
7.50136
5.04297
3.47002
2.43665
1.74299
1.26863
0.938712
0.705583
0.538335
0.416593
0.326728
0.259498
0.208556
0.169484
0.139167
0.115387
0.0965403
0.0814421
0.0691208
11.4757
7.50136
5.04297
3.47002
2.43665
1.74299
1.26863
0.938712
0.705584
0.538336
0.416594
0.326728
0.259499
0.208557
0.169483
0.139167
0.115388
0.0965414
0.0814421
0.0691033
11.4933
7.5119
5.02843
3.434
2.3892
1.6928
1.22111
0.896486
0.669456
0.508122
0.391656
0.306285
0.242784
0.194886
0.158279
0.129952
0.107776
0.0902263
0.0761889
0.0648095
11.6229
7.60535
5.0103
3.34209
2.26848
1.57142
1.11236
0.804587
0.594203
0.447515
0.343208
0.267631
0.211897
0.170117
0.138318
0.113775
0.0945885
0.0794119
0.0672758
0.0574949
12.9054
8.33993
5.07879
3.15547
2.02774
1.3512
0.933536
0.666457
0.489543
0.368592
0.283601
0.222383
0.177323
0.143526
0.117733
0.0977496
0.0820553
0.0695812
0.0595493
0.0513667
38.7028
13.0541
5.74336
3.08733
1.88067
1.22751
0.869481
0.645387
0.492596
0.384785
0.30703
0.249051
0.204984
0.170992
0.14441
0.123348
0.106456
0.0927631
0.0815994
0.0731046
36.0571
12.8529
5.76645
3.10211
1.89475
1.22669
0.866496
0.643977
0.492243
0.383954
0.305782
0.247901
0.203895
0.169913
0.143287
0.122133
0.1051
0.0912041
0.0797905
0.0710166
12.6882
8.1544
5.07113
3.20038
2.07939
1.39506
0.967834
0.692726
0.509643
0.384023
0.295512
0.231658
0.184605
0.149276
0.122305
0.101405
0.0849907
0.0719419
0.0614586
0.0530047
11.5726
7.56718
5.02065
3.38344
2.32103
1.62326
1.15828
0.843157
0.625692
0.472851
0.363486
0.283856
0.224909
0.180591
0.14679
0.120667
0.100226
0.0840466
0.0711063
0.0606455
11.4757
7.50136
5.04297
3.47002
2.43665
1.74299
1.26863
0.938712
0.705584
0.538336
0.416594
0.326729
0.259499
0.208557
0.169483
0.139168
0.115388
0.0965418
0.0814425
0.0691042
11.4647
7.49683
5.0577
3.50272
2.48038
1.79068
1.31522
0.981305
0.742925
0.57021
0.44335
0.348968
0.277888
0.223735
0.182018
0.149543
0.124005
0.103725
0.0874412
0.0740569
11.4647
7.49683
5.0577
3.50272
2.48038
1.79068
1.31522
0.981305
0.742924
0.57021
0.44335
0.348968
0.277888
0.223735
0.182018
0.149543
0.124005
0.103725
0.0874413
0.0740563
11.4757
7.50136
5.04297
3.47002
2.43665
1.74299
1.26863
0.938712
0.705583
0.538335
0.416593
0.326728
0.259499
0.208556
0.169483
0.139167
0.115387
0.096541
0.0814431
0.0691208
11.5726
7.56718
5.02065
3.38344
2.32103
1.62326
1.15828
0.843156
0.62569
0.472848
0.363483
0.283852
0.224905
0.180589
0.146786
0.12066
0.100216
0.0840354
0.0710927
0.0606113
12.6882
8.1544
5.07113
3.20038
2.07939
1.39506
0.967831
0.692723
0.509637
0.384016
0.295503
0.231647
0.184593
0.149268
0.122289
0.101383
0.0849622
0.0719086
0.0614244
0.0529672
36.0571
12.8529
5.76645
3.10212
1.89476
1.22669
0.8665
0.643981
0.492248
0.383962
0.305792
0.247914
0.203911
0.169932
0.143315
0.122177
0.105169
0.0913111
0.0799782
0.0715831
36.0571
12.8529
5.76645
3.10212
1.89476
1.22669
0.8665
0.643982
0.492248
0.383962
0.305792
0.247914
0.203912
0.169934
0.143313
0.122175
0.105166
0.0913081
0.0799741
0.0715777
12.6882
8.1544
5.07113
3.20038
2.07939
1.39506
0.967831
0.692723
0.509638
0.384016
0.295504
0.231648
0.184592
0.149263
0.122295
0.101386
0.0849651
0.0719118
0.0614281
0.0529715
11.5726
7.56718
5.02065
3.38344
2.32103
1.62326
1.15828
0.843156
0.62569
0.472848
0.363483
0.283852
0.224904
0.180587
0.146789
0.120662
0.100217
0.084036
0.0710934
0.0606108
11.4757
7.50136
5.04297
3.47002
2.43665
1.74299
1.26863
0.938712
0.705584
0.538335
0.416593
0.326728
0.259498
0.208556
0.169484
0.139167
0.115387
0.0965409
0.0814432
0.0691218
11.4647
7.49683
5.0577
3.50272
2.48038
1.79068
1.31522
0.981305
0.742925
0.57021
0.44335
0.348968
0.277888
0.223735
0.182018
0.149543
0.124005
0.103725
0.0874411
0.0740566
11.4647
7.49683
5.0577
3.50272
2.48038
1.79068
1.31522
0.981305
0.742924
0.57021
0.44335
0.348968
0.277888
0.223735
0.182018
0.149543
0.124005
0.103725
0.0874411
0.0740554
11.4757
7.50136
5.04297
3.47002
2.43665
1.74299
1.26863
0.938712
0.705584
0.538336
0.416594
0.326728
0.259499
0.208556
0.169484
0.139167
0.115388
0.0965414
0.0814421
0.0691026
11.5726
7.56718
5.02065
3.38344
2.32103
1.62326
1.15828
0.843156
0.625692
0.472851
0.363486
0.283855
0.224907
0.18059
0.146791
0.120667
0.100225
0.0840449
0.0711041
0.0606428
12.6882
8.1544
5.07113
3.20038
2.07939
1.39506
0.967834
0.692726
0.509643
0.384023
0.295511
0.231657
0.184603
0.149276
0.122305
0.101404
0.0849886
0.0719386
0.0614545
0.0529998
36.0571
12.8529
5.76645
3.10211
1.89475
1.22669
0.866496
0.643977
0.492243
0.383954
0.305782
0.247901
0.203896
0.169915
0.143286
0.122132
0.1051
0.0912054
0.0797932
0.0710228
38.7028
13.0541
5.74336
3.08733
1.88067
1.22751
0.869481
0.645388
0.492596
0.384786
0.307031
0.249052
0.204987
0.170997
0.144407
0.123345
0.106454
0.0927614
0.0815976
0.0731038
12.9054
8.33993
5.07879
3.15547
2.02774
1.3512
0.933535
0.666457
0.489543
0.368592
0.2836
0.222382
0.177321
0.14352
0.11774
0.0977525
0.0820564
0.0695814
0.0595495
0.0513662
11.6229
7.60535
5.0103
3.34209
2.26848
1.57142
1.11236
0.804587
0.594203
0.447515
0.343208
0.26763
0.211895
0.170115
0.138321
0.113776
0.0945877
0.0794101
0.0672734
0.0574902
11.4933
7.5119
5.02843
3.434
2.3892
1.6928
1.22111
0.896487
0.669456
0.508122
0.391656
0.306285
0.242783
0.194886
0.158279
0.129952
0.107775
0.0902248
0.0761867
0.0648065
11.4757
7.50136
5.04297
3.47002
2.43665
1.74299
1.26863
0.938712
0.705584
0.538336
0.416594
0.326728
0.259499
0.208557
0.169483
0.139167
0.115388
0.0965411
0.0814415
0.0691022
11.4757
7.50136
5.04297
3.47002
2.43665
1.74299
1.26863
0.938712
0.705583
0.538335
0.416593
0.326728
0.259499
0.208557
0.169483
0.139167
0.115387
0.0965409
0.0814431
0.0691201
11.4933
7.5119
5.02843
3.434
2.3892
1.6928
1.22111
0.896487
0.669456
0.508122
0.391656
0.306285
0.242784
0.194886
0.158279
0.129952
0.107776
0.0902256
0.076188
0.0648079
11.6229
7.60535
5.0103
3.34209
2.26848
1.57142
1.11236
0.804589
0.594206
0.44752
0.343214
0.267637
0.211901
0.17012
0.138326
0.113787
0.0946029
0.0794291
0.0672976
0.0575588
12.9054
8.33993
5.07879
3.15547
2.02775
1.35121
0.933542
0.666465
0.489554
0.368606
0.283618
0.222403
0.177345
0.143542
0.117766
0.0977936
0.0821091
0.0696431
0.0596139
0.0513597
38.7028
13.0541
5.74336
3.08733
1.88066
1.2275
0.869473
0.645378
0.492583
0.384769
0.307007
0.249023
0.20495
0.170953
0.144348
0.123253
0.106314
0.0925472
0.0813072
0.0730846
45.0226
13.4729
5.73075
3.07323
1.86023
1.227
0.873585
0.64979
0.497027
0.389499
0.311314
0.253009
0.209022
0.175271
0.148899
0.128009
0.111319
0.0978904
0.0870994
0.0788461
13.6679
8.73671
5.07741
3.05388
1.92223
1.26609
0.869287
0.618629
0.453957
0.342031
0.263646
0.207307
0.165896
0.134838
0.111132
0.0926681
0.0781362
0.0666006
0.0571701
0.0497556
11.8601
7.76395
4.99734
3.24076
2.14419
1.45499
1.0141
0.725634
0.532155
0.399149
0.305545
0.238221
0.188823
0.151912
0.123869
0.102234
0.0853148
0.0719229
0.0611793
0.052605
11.6229
7.60535
5.0103
3.34209
2.26848
1.57142
1.11236
0.804588
0.594206
0.447519
0.343213
0.267637
0.211902
0.170121
0.138322
0.113785
0.0946017
0.0794279
0.0672961
0.0575571
11.5726
7.56718
5.02065
3.38344
2.32103
1.62326
1.15828
0.843156
0.625692
0.472851
0.363486
0.283856
0.224908
0.180591
0.14679
0.120666
0.100224
0.0840452
0.0711046
0.0606436
11.5726
7.56718
5.02065
3.38344
2.32103
1.62326
1.15828
0.843155
0.62569
0.472848
0.363483
0.283852
0.224904
0.180588
0.146789
0.120661
0.100217
0.0840362
0.0710938
0.0606109
11.6229
7.60535
5.0103
3.34209
2.26848
1.57142
1.11236
0.804587
0.594202
0.447515
0.343208
0.267631
0.211897
0.170118
0.138318
0.113775
0.094588
0.0794112
0.0672751
0.0574932
11.8601
7.76395
4.99734
3.24076
2.14419
1.45499
1.0141
0.725634
0.532155
0.399149
0.305545
0.238221
0.188824
0.151912
0.12387
0.102235
0.0853162
0.0719249
0.0611825
0.0526108
13.6679
8.73671
5.07741
3.05388
1.92224
1.2661
0.869291
0.618635
0.453965
0.342042
0.26366
0.207324
0.165916
0.134855
0.111157
0.0927037
0.0781789
0.0666462
0.0571936
0.0501791
45.0226
13.4729
5.73075
3.07323
1.86023
1.22699
0.873577
0.64978
0.497014
0.389479
0.311289
0.252976
0.208982
0.175223
0.148834
0.127909
0.111167
0.0976557
0.0867519
0.078476
58.5856
14.5696
6.08947
3.33296
2.08218
1.40268
0.998666
0.740304
0.565926
0.443955
0.35606
0.290982
0.241488
0.203097
0.173247
0.150045
0.131709
0.117216
0.106505
0.0995013
16.5373
9.49239
5.0127
2.8606
1.75746
1.14759
0.786931
0.562048
0.415366
0.315946
0.24633
0.196219
0.159215
0.131244
0.109752
0.0931725
0.0801226
0.0696324
0.0606152
0.0562454
13.6679
8.73671
5.07741
3.05388
1.92224
1.2661
0.869292
0.618633
0.453965
0.342042
0.26366
0.207324
0.165917
0.134863
0.111149
0.0927003
0.0781776
0.0666466
0.0571894
0.0501837
12.9054
8.33993
5.07879
3.15547
2.02775
1.35121
0.933542
0.666464
0.489554
0.368606
0.283618
0.222404
0.177348
0.143549
0.117758
0.0977912
0.0821089
0.0696442
0.0596157
0.0513625
12.6882
8.1544
5.07113
3.20038
2.07939
1.39506
0.967835
0.692726
0.509643
0.384023
0.295512
0.231658
0.184605
0.149277
0.122305
0.101405
0.0849909
0.0719421
0.061459
0.0530049
12.6882
8.1544
5.07113
3.20038
2.07939
1.39506
0.967832
0.692722
0.509637
0.384016
0.295504
0.231648
0.184593
0.149264
0.122295
0.101386
0.0849652
0.0719117
0.061428
0.0529709
12.9054
8.33993
5.07879
3.15547
2.02774
1.3512
0.933536
0.666456
0.489543
0.368592
0.2836
0.222382
0.177323
0.143527
0.117734
0.0977497
0.082055
0.0695806
0.0595488
0.0513656
13.6679
8.73671
5.07741
3.05388
1.92223
1.26609
0.869287
0.618628
0.453957
0.342031
0.263646
0.207307
0.165896
0.134841
0.111129
0.0926664
0.0781355
0.0666003
0.0571698
0.049755
16.5373
9.49239
5.0127
2.8606
1.75746
1.14759
0.78693
0.562048
0.415366
0.315946
0.24633
0.19622
0.159216
0.131236
0.109759
0.0931758
0.0801247
0.0696341
0.0606168
0.0562453
58.5856
14.5696
6.08947
3.33296
2.08218
1.40268
0.998665
0.740301
0.565923
0.443949
0.356051
0.290968
0.241465
0.203068
0.173203
0.149968
0.13157
0.116954
0.105975
0.0988041
90.5034
12.1248
4.3887
2.46659
1.63316
1.18308
0.902025
0.72068
0.59461
0.502534
0.432726
0.379347
0.336414
0.300052
0.270477
0.246588
0.227197
0.211938
0.203148
0.195009
58.5856
14.5696
6.08947
3.33296
2.08218
1.40268
0.998664
0.740302
0.565924
0.443949
0.356052
0.290969
0.241468
0.203064
0.173207
0.149973
0.131576
0.11696
0.105981
0.0988081
45.0226
13.4729
5.73075
3.07323
1.86023
1.22699
0.873576
0.649781
0.497015
0.389479
0.311289
0.252977
0.208981
0.17522
0.148838
0.127914
0.111171
0.097659
0.0867547
0.0784765
38.7028
13.0541
5.74336
3.08733
1.88066
1.2275
0.869472
0.645378
0.492584
0.384769
0.307008
0.249022
0.204948
0.170949
0.144352
0.123256
0.106316
0.0925481
0.0813063
0.0730787
36.0571
12.8529
5.76645
3.10211
1.89475
1.22669
0.866496
0.643977
0.492243
0.383954
0.305782
0.247901
0.203895
0.169913
0.143287
0.122132
0.105099
0.0912033
0.0797894
0.0710149
36.0571
12.8529
5.76645
3.10212
1.89476
1.22669
0.866499
0.643982
0.492249
0.383962
0.305792
0.247914
0.203912
0.169933
0.143312
0.122174
0.105166
0.091308
0.0799743
0.0715779
38.7028
13.0541
5.74336
3.08733
1.88067
1.22751
0.86948
0.645388
0.492597
0.384786
0.307031
0.249052
0.204985
0.170992
0.14441
0.123348
0.106457
0.0927635
0.0815998
0.0731068
45.0226
13.4729
5.73075
3.07323
1.86023
1.227
0.873585
0.64979
0.497027
0.389499
0.311314
0.253008
0.20902
0.175268
0.148902
0.128012
0.111322
0.0978931
0.0871022
0.0788484
58.5856
14.5696
6.08947
3.33296
2.08218
1.40268
0.998667
0.740303
0.565926
0.443955
0.35606
0.290982
0.241487
0.203097
0.173247
0.150044
0.131708
0.117215
0.106503
0.099495
90.5034
12.1248
4.3887
2.46659
1.63316
1.18308
0.902025
0.720679
0.59461
0.502534
0.432725
0.379347
0.336411
0.300055
0.270475
0.246585
0.227194
0.211936
0.203147
0.195002
0.380336
0.299218
0.234221
0.198916
0.178504
0.165819
0.156415
0.148935
0.14285
0.137799
0.133476
0.129562
0.125886
0.122353
0.118959
0.115938
0.112998
0.110341
0.107824
0.105437
0.103206
0.101119
0.0992034
0.0974116
0.095597
0.0938825
0.0922027
0.0905914
0.0889858
0.0874809
0.0859713
0.0845318
0.083135
0.0817525
0.080454
0.079199
0.0780094
0.0768192
0.0758059
0.0740548
0.130053
0.108744
0.0920213
0.0803887
0.0731809
0.0679154
0.0637263
0.0603564
0.057533
0.055067
0.0528645
0.0509356
0.0492133
0.047555
0.0459485
0.0445193
0.0431841
0.0419731
0.0408593
0.0398074
0.0388226
0.0379114
0.0370738
0.0363178
0.0355936
0.0348915
0.0342157
0.0335632
0.0329287
0.0323174
0.0317224
0.0311448
0.0305856
0.0300531
0.0295336
0.0290459
0.0285734
0.0281146
0.0276805
0.0271924
0.0833634
0.0740119
0.0660191
0.0599705
0.0550443
0.0509388
0.0475175
0.0446267
0.0421554
0.0400201
0.0381543
0.0365084
0.0351004
0.0337376
0.0324491
0.0313254
0.0302822
0.0293513
0.0284765
0.0276471
0.026844
0.0260525
0.0253399
0.0246996
0.0241255
0.0235677
0.0230337
0.0225234
0.0220349
0.0215676
0.0211156
0.0206844
0.0202701
0.0198765
0.0194981
0.0191462
0.0188056
0.0184788
0.0181682
0.0178488
0.0712108
0.0629475
0.0566086
0.0515462
0.0473574
0.0438197
0.0407835
0.038157
0.0358632
0.0338445
0.0320552
0.0304652
0.0290602
0.0277786
0.0266199
0.0255648
0.0245955
0.0237375
0.0229093
0.022078
0.0213415
0.020674
0.0200413
0.0194539
0.0189051
0.018391
0.0179146
0.0174599
0.0170334
0.0166301
0.0162365
0.0158613
0.0155009
0.0151729
0.0148562
0.0145624
0.0142744
0.014006
0.0137475
0.0134842
0.0719429
0.0605914
0.0536003
0.0483724
0.0441603
0.0406816
0.0377445
0.0352127
0.0329918
0.0310283
0.0292836
0.0277295
0.0263455
0.0250819
0.0239386
0.0229004
0.0219611
0.0211066
0.0203183
0.0195956
0.018928
0.0183326
0.017702
0.0171337
0.0166088
0.0161226
0.0156689
0.0152458
0.0148501
0.0144825
0.0141265
0.0137844
0.0134649
0.013168
0.0128744
0.0126021
0.0123405
0.0120971
0.0118692
0.0116563
0.0709393
0.0601205
0.053064
0.047661
0.0433196
0.0397472
0.036748
0.0341921
0.0319575
0.0299778
0.0282161
0.0266422
0.025234
0.0239688
0.0228269
0.0217932
0.0208565
0.0200047
0.0192292
0.0185298
0.0178877
0.0172998
0.0167432
0.0162721
0.0157548
0.0152499
0.0147939
0.0143806
0.0140034
0.0136591
0.0133323
0.0130295
0.012718
0.0124423
0.012121
0.0118907
0.0116259
0.0114107
0.011199
0.0109994
0.0679912
0.0598917
0.053487
0.0482874
0.0439576
0.0403114
0.0372196
0.034566
0.0322433
0.0301984
0.0283932
0.0267959
0.0253809
0.0241131
0.0229716
0.0219397
0.0210048
0.0201574
0.0193867
0.0186884
0.0180579
0.0174771
0.0169219
0.016426
0.0159303
0.0154373
0.0149903
0.0145919
0.0142177
0.013875
0.0135453
0.0132399
0.0129229
0.012642
0.0123581
0.0121161
0.0118761
0.0116479
0.0114273
0.0112182
0.0727178
0.0646859
0.0578182
0.0519514
0.0470205
0.0429396
0.039525
0.0366274
0.0341493
0.0320109
0.030151
0.0285269
0.0270939
0.0258064
0.0246495
0.0235994
0.0226541
0.0217999
0.0210206
0.0203055
0.0196569
0.0190423
0.0184212
0.0178995
0.0173998
0.0169408
0.0165028
0.0161027
0.0156983
0.0153163
0.0149621
0.0146358
0.0143342
0.0140403
0.0137559
0.0134805
0.0132121
0.0129542
0.0127064
0.0124683
0.0946815
0.0799149
0.0688633
0.0598191
0.0533096
0.0485744
0.044835
0.0417609
0.0391903
0.0369968
0.0351045
0.0334583
0.0319971
0.0306821
0.0295003
0.0282971
0.0272418
0.0262758
0.0254198
0.0246088
0.023875
0.0231876
0.0225265
0.0219448
0.0213904
0.0208796
0.0203936
0.0199391
0.0195034
0.0191045
0.0187196
0.0183497
0.0179913
0.0176483
0.0173184
0.0169979
0.0166868
0.0163817
0.016091
0.0158036
0.142584
0.118121
0.0971446
0.0819137
0.0722245
0.0659031
0.0612386
0.057644
0.0547398
0.0522619
0.0500707
0.0481933
0.0463805
0.0446896
0.0431084
0.0416312
0.0402647
0.0390038
0.0378583
0.0367905
0.0358183
0.0349443
0.0341565
0.0334595
0.0327675
0.0321086
0.0314765
0.0308719
0.0302876
0.0297385
0.0291943
0.0286659
0.0281545
0.0276592
0.0271744
0.0267022
0.0262715
0.0258531
0.0254606
0.0250223
0.380361
0.299213
0.234264
0.198819
0.177994
0.165247
0.155928
0.14857
0.142632
0.137756
0.133464
0.12977
0.126062
0.122562
0.119222
0.116157
0.113234
0.110537
0.107992
0.105612
0.103324
0.101237
0.0992758
0.0975039
0.0956794
0.0939971
0.0923238
0.0907272
0.0891261
0.0876164
0.086101
0.0846568
0.0832444
0.0818566
0.0805177
0.0792162
0.0780902
0.0769034
0.075902
0.0741335
0.142607
0.118114
0.0971011
0.0818537
0.0723144
0.0661447
0.0614486
0.0577987
0.0548393
0.0522941
0.0501221
0.048117
0.0462993
0.0445977
0.0429799
0.0415238
0.0401403
0.0389028
0.0377648
0.0367103
0.0357547
0.034894
0.0341163
0.0334257
0.0327352
0.0320712
0.0314346
0.0308263
0.0302387
0.0296904
0.0291472
0.0286208
0.0281099
0.0276213
0.027152
0.0266987
0.0262584
0.0258296
0.0254309
0.0249892
0.0642674
0.0533093
0.046794
0.0413438
0.0368999
0.0337503
0.0314989
0.0293856
0.0275109
0.0258831
0.0244908
0.0232102
0.0221123
0.0210052
0.0201896
0.0191986
0.0184596
0.0176468
0.0169788
0.0163328
0.0157266
0.0151651
0.0146202
0.0141466
0.0137397
0.0133581
0.0130085
0.0126391
0.0123755
0.0119722
0.0117141
0.0114756
0.0112151
0.0110404
0.0106158
0.0104935
0.0103386
0.0101655
0.0100118
0.00983565
0.054364
0.0432676
0.0374319
0.0325944
0.0293882
0.0266915
0.024422
0.0224825
0.0208242
0.0193851
0.0181478
0.0168926
0.0161059
0.0149363
0.0143285
0.0134173
0.0129244
0.0121973
0.0117729
0.0112079
0.0107632
0.0104064
0.0099047
0.00964021
0.00922134
0.00896602
0.00867894
0.00836011
0.00815083
0.00787173
0.00767819
0.00746896
0.0073129
0.00706474
0.00688449
0.00671079
0.00660362
0.00640997
0.00626019
0.00603088
0.0499064
0.0418847
0.0360659
0.0314336
0.0278179
0.024938
0.0226878
0.0207356
0.0190446
0.017571
0.0162799
0.015133
0.0141061
0.013221
0.0124316
0.0117189
0.0110919
0.0105288
0.00998838
0.00957123
0.00903409
0.00872638
0.0082379
0.00803136
0.00761863
0.00741182
0.00707705
0.00690057
0.00662244
0.00646886
0.00624473
0.00606274
0.00594199
0.00570805
0.00557819
0.00548812
0.00538234
0.00519478
0.00508023
0.00485501
0.0459722
0.0403568
0.0354839
0.0313522
0.0278729
0.0247595
0.0221365
0.020057
0.0184004
0.0169258
0.015619
0.014458
0.0134212
0.0125153
0.011709
0.0109883
0.0103426
0.00976247
0.00923861
0.00876556
0.00833635
0.00794707
0.00759788
0.00727261
0.00698546
0.00669001
0.00645136
0.00618645
0.0059775
0.00579924
0.00562519
0.00542967
0.00531752
0.00510346
0.00498619
0.00491434
0.0048028
0.00464788
0.00452687
0.00432664
0.0457488
0.0402095
0.0353823
0.0312651
0.0277755
0.0247853
0.0221316
0.0197782
0.0180302
0.0166143
0.0153268
0.0141702
0.0131412
0.0122198
0.0114025
0.0106747
0.0100242
0.00944094
0.00891665
0.00844407
0.00801743
0.00763181
0.00728856
0.00698146
0.00667862
0.00639963
0.00615184
0.0059076
0.00570066
0.00551826
0.00533738
0.00518493
0.00504472
0.00487974
0.00474715
0.00466837
0.00454586
0.00442651
0.00424745
0.00410097
0.0461755
0.0403467
0.0353571
0.0311308
0.0275832
0.0245392
0.0218289
0.0195763
0.0179352
0.0165133
0.0152314
0.0140849
0.0130657
0.0121674
0.0113668
0.0106509
0.0100093
0.00943303
0.0089134
0.00844495
0.00802122
0.00763783
0.00729573
0.00698671
0.00669893
0.00641611
0.00618756
0.00589382
0.00571211
0.00546242
0.0053223
0.00517711
0.00503536
0.00484144
0.00470907
0.00462682
0.00450471
0.00437898
0.00421991
0.00405945
0.0454597
0.0400694
0.0350329
0.0307412
0.0272221
0.0240246
0.021646
0.0198586
0.0182582
0.016842
0.0155905
0.0144756
0.0134872
0.0126303
0.0118581
0.0111599
0.0105246
0.00995484
0.00942581
0.00895686
0.0085252
0.00813611
0.00780661
0.00740443
0.00716837
0.00679646
0.00661322
0.0062949
0.0061179
0.0058413
0.00570723
0.00554595
0.00540566
0.00515379
0.00501323
0.00486204
0.00476294
0.00463941
0.00449085
0.00430393
0.0508035
0.0417226
0.0364471
0.0314569
0.0280514
0.025559
0.0234001
0.0215453
0.019921
0.0185063
0.0172619
0.0161552
0.0151991
0.014325
0.0135347
0.0128539
0.0121045
0.0116113
0.0108997
0.0105189
0.00994127
0.00961386
0.00910747
0.00881794
0.00849227
0.00812897
0.00792486
0.0075758
0.00739602
0.00706816
0.00690283
0.0067129
0.00655314
0.00629732
0.00613734
0.00599854
0.00576905
0.00565703
0.00549935
0.00533019
0.0641935
0.053362
0.0467729
0.0415562
0.0372636
0.0340672
0.0314018
0.0292911
0.0273327
0.025735
0.0243542
0.0230529
0.0220617
0.0209799
0.0201084
0.019184
0.0183889
0.0176187
0.0169471
0.0163052
0.0157258
0.0151387
0.0146442
0.0141249
0.0137515
0.0133402
0.0130212
0.0126406
0.0123745
0.0119717
0.0117095
0.0114686
0.011221
0.0109722
0.0107305
0.0106117
0.0101856
0.0100951
0.00996412
0.00979159
0.130056
0.108701
0.092118
0.0802387
0.0727283
0.0675409
0.063467
0.0601793
0.0574064
0.0550157
0.0527816
0.0509855
0.0492432
0.0476103
0.0460191
0.0445857
0.0432485
0.0420367
0.0409054
0.0398601
0.03886
0.0379466
0.0370996
0.0363456
0.0356222
0.0349256
0.0342562
0.0336078
0.0329766
0.0323676
0.0317722
0.0311936
0.0306338
0.0300953
0.0295762
0.0290713
0.0285993
0.0281474
0.0277149
0.0272266
0.094686
0.0798864
0.0689227
0.0596352
0.0531471
0.0485218
0.0448324
0.0417728
0.0392023
0.0370011
0.0351037
0.0334282
0.0319646
0.0306506
0.0294419
0.028248
0.027168
0.0262327
0.0253608
0.024563
0.0238361
0.0231425
0.0224893
0.0219088
0.0213614
0.0208506
0.020365
0.0199102
0.0194747
0.0190775
0.0186935
0.0183248
0.0179679
0.0176274
0.0172986
0.0169846
0.0166799
0.016379
0.0160895
0.0158019
0.0507893
0.0418735
0.0366667
0.0313335
0.0280422
0.0255784
0.0234433
0.021592
0.0199711
0.0185539
0.0173238
0.016194
0.0152507
0.0143105
0.0136283
0.0127798
0.0122516
0.0114611
0.0110374
0.0104234
0.00999277
0.0096488
0.00911905
0.00886408
0.0084332
0.00815479
0.00793105
0.00758189
0.007401
0.00706955
0.00690849
0.00671933
0.00656299
0.00631225
0.00616504
0.00593912
0.00581721
0.00566299
0.00550759
0.00535754
0.0457519
0.0395513
0.034445
0.0300837
0.0265606
0.0236697
0.021255
0.0192162
0.0174765
0.015977
0.014678
0.013542
0.0125223
0.011627
0.0108522
0.0101146
0.00948298
0.00882954
0.00836152
0.00793383
0.00753895
0.00718102
0.00678394
0.00650158
0.00618079
0.00587395
0.00567131
0.00539346
0.00521258
0.00500535
0.00486682
0.00470594
0.004591
0.00437906
0.00426111
0.0041973
0.00411053
0.00394406
0.00384659
0.00364477
0.0477987
0.0414094
0.0360657
0.0315865
0.0278396
0.0246975
0.0220544
0.0198058
0.0178793
0.0162179
0.0147771
0.0135207
0.0124111
0.0114401
0.0105795
0.00981414
0.00913085
0.00851191
0.00796034
0.00747232
0.00702538
0.00663868
0.00620258
0.00587048
0.00561421
0.00538048
0.00512368
0.0049203
0.00469436
0.00452085
0.00434081
0.00421813
0.00411127
0.00392891
0.0038112
0.00377584
0.00366827
0.00355818
0.00344379
0.00330586
0.0500841
0.0432591
0.0376371
0.0329589
0.0290346
0.0257079
0.0228806
0.0204742
0.0184249
0.0166595
0.0151283
0.0137926
0.01262
0.0115924
0.010684
0.00987814
0.00916066
0.00851897
0.00794381
0.00742691
0.00696068
0.00654521
0.00614586
0.00581821
0.00550531
0.00521579
0.00490476
0.00469764
0.0045326
0.00439203
0.00423233
0.00408516
0.00394858
0.00382732
0.00370733
0.00367444
0.00356079
0.00344639
0.00333292
0.00322414
0.0503283
0.0437272
0.0381488
0.0334419
0.0294637
0.0260841
0.0231958
0.0207182
0.0186066
0.0167994
0.0152368
0.0138754
0.0126809
0.0116358
0.0107122
0.0098933
0.00916437
0.00851284
0.00792963
0.00740656
0.00693567
0.00651454
0.00611829
0.0057924
0.00547566
0.00518162
0.00491742
0.00466712
0.00442807
0.00433109
0.00418108
0.00403983
0.00390558
0.00378694
0.00367067
0.00364891
0.00353294
0.00341732
0.00330164
0.00318887
0.049362
0.0429535
0.0375097
0.0328894
0.0289701
0.025636
0.0227906
0.020363
0.0182976
0.0165259
0.0149964
0.0136673
0.0124975
0.0114813
0.0105824
0.00978423
0.00907411
0.00843829
0.00786872
0.00735722
0.00689655
0.00648238
0.0060944
0.00576839
0.00545152
0.00516587
0.0049088