/*--------------------------------*- C++ -*----------------------------------*\
| =========                 |                                                 |
| \\      /  F ield         | OpenFOAM: The Open Source CFD Toolbox           |
|  \\    /   O peration     | Version:  2212                                  |
|   \\  /    A nd           | Website:  www.openfoam.com                      |
|    \\/     M anipulation  |                                                 |
\*---------------------------------------------------------------------------*/
FoamFile
{
    version     2.0;
    format      ascii;
    arch        "LSB;label=32;scalar=64";
    class       volScalarField;
    location    "2.5";
    object      k;
}
// * * * * * * * * * * * * * * * * * * * * * * * * * * * * * * * * * * * * * //

dimensions      [0 2 -2 0 0 0 0];

internalField   nonuniform List<scalar> 
6840
(
0.213564
0.055916
0.0283994
0.0193412
0.0146928
0.0118512
0.00989079
0.00851621
0.00749157
0.0066967
0.0060612
0.00555187
0.00512463
0.00474831
0.00443087
0.00416588
0.00394439
0.00376544
0.00366079
0.00356017
0.264759
0.104702
0.0585298
0.0391631
0.02862
0.0219936
0.0175363
0.0143636
0.0120087
0.0102145
0.00881738
0.00770728
0.00680644
0.00606448
0.00545471
0.00495614
0.00454378
0.00420425
0.00394437
0.00376907
0.283364
0.126774
0.071702
0.0473282
0.0338664
0.0256618
0.020461
0.0167973
0.014049
0.0119416
0.0102847
0.00895677
0.00788603
0.00701254
0.00629033
0.00568746
0.00518195
0.00475667
0.00440079
0.00411972
0.292299
0.141633
0.0819302
0.0541654
0.0389231
0.0292875
0.0232723
0.0190786
0.0159341
0.0135149
0.0116267
0.0101127
0.00888163
0.00787058
0.00703208
0.00633078
0.00573915
0.0052364
0.00480843
0.00447414
0.295943
0.148782
0.0871941
0.0576749
0.0415193
0.0310722
0.0246449
0.0202208
0.0169046
0.0143244
0.0123074
0.0107009
0.009394
0.00831918
0.00742602
0.00667679
0.0060421
0.00549944
0.00503531
0.00467945
0.295943
0.148782
0.0871941
0.0576749
0.0415193
0.0310721
0.0246448
0.0202206
0.0169044
0.0143241
0.0123071
0.0107004
0.00939329
0.00831825
0.00742474
0.00667462
0.00603859
0.00549378
0.00502523
0.00465028
0.292299
0.141633
0.0819301
0.0541653
0.038923
0.0292873
0.0232721
0.0190784
0.0159338
0.0135144
0.011626
0.0101116
0.00888019
0.00786868
0.00702934
0.00632638
0.00573218
0.00522535
0.00479232
0.00446287
0.283364
0.126774
0.071702
0.0473282
0.0338663
0.0256617
0.0204608
0.0167971
0.0140487
0.0119411
0.010284
0.00895578
0.0078847
0.00701077
0.00628772
0.00568336
0.00517549
0.00474643
0.00438509
0.00409987
0.264759
0.104702
0.0585298
0.0391631
0.02862
0.0219936
0.0175362
0.0143636
0.0120087
0.0102144
0.00881717
0.00770694
0.00680586
0.00606365
0.00545337
0.0049538
0.0045395
0.00419594
0.00392758
0.00374451
0.213564
0.055916
0.0283994
0.0193412
0.0146928
0.0118512
0.00989078
0.00851621
0.00749157
0.0066967
0.00606118
0.00555188
0.00512458
0.00474833
0.00443082
0.00416581
0.00394431
0.00376533
0.00366068
0.00355996
0.264759
0.104702
0.0585298
0.0391631
0.02862
0.0219936
0.0175363
0.0143636
0.0120087
0.0102144
0.00881718
0.00770695
0.00680593
0.00606354
0.00545344
0.00495392
0.00453963
0.00419608
0.00392775
0.0037448
0.311746
0.197541
0.130357
0.0911458
0.0668024
0.0508113
0.0397947
0.0319125
0.0260948
0.0216881
0.0182777
0.01559
0.0134431
0.011701
0.0102715
0.00908571
0.00809301
0.00725637
0.00656032
0.00588676
0.31754
0.217754
0.151086
0.108549
0.0807157
0.0618728
0.0486775
0.039142
0.032059
0.026672
0.0224907
0.0191881
0.0165399
0.014388
0.0126189
0.0111512
0.00992301
0.00888688
0.00800934
0.00725971
0.319723
0.227073
0.162232
0.118772
0.0893611
0.0689928
0.0545306
0.0439844
0.0360998
0.0300747
0.025382
0.021665
0.0186774
0.0162446
0.0142408
0.0125739
0.0111743
0.00998914
0.00897741
0.00810827
0.320484
0.23086
0.167176
0.123531
0.0935158
0.0724824
0.0574404
0.0464209
0.0381533
0.0318164
0.0268697
0.022945
0.0197855
0.0172092
0.0150841
0.0133134
0.0118234
0.0105581
0.00947411
0.0085326
0.320484
0.23086
0.167176
0.123531
0.0935157
0.0724823
0.0574403
0.0464207
0.038153
0.0318161
0.0268692
0.0229443
0.0197845
0.0172079
0.0150825
0.0133108
0.0118194
0.0105522
0.0094653
0.00851716
0.319723
0.227073
0.162232
0.118772
0.089361
0.0689926
0.0545303
0.0439841
0.0360992
0.030074
0.025381
0.0216636
0.0186754
0.0162421
0.0142373
0.0125685
0.0111661
0.00997694
0.0089592
0.00807205
0.31754
0.217754
0.151085
0.108549
0.0807156
0.0618726
0.0486773
0.0391417
0.0320586
0.0266714
0.0224898
0.0191869
0.0165383
0.014386
0.0126162
0.0111471
0.00991681
0.00887761
0.00799651
0.0072409
0.311746
0.197541
0.130357
0.0911458
0.0668024
0.0508113
0.0397947
0.0319125
0.0260948
0.0216881
0.0182777
0.01559
0.013443
0.0117011
0.0102714
0.00908553
0.00809278
0.00725608
0.00655993
0.00588615
0.264759
0.104702
0.0585298
0.0391631
0.02862
0.0219936
0.0175363
0.0143636
0.0120087
0.0102145
0.00881736
0.00770725
0.00680639
0.00606448
0.00545466
0.00495606
0.00454366
0.00420409
0.00394413
0.0037687
0.283364
0.126774
0.071702
0.0473282
0.0338663
0.0256617
0.0204608
0.0167971
0.0140487
0.0119411
0.010284
0.00895578
0.00788465
0.00701068
0.00628782
0.00568348
0.00517559
0.00474652
0.00438521
0.00410005
0.31754
0.217754
0.151085
0.108549
0.0807156
0.0618726
0.0486773
0.0391417
0.0320586
0.0266714
0.0224898
0.0191869
0.0165383
0.0143859
0.0126164
0.0111473
0.009917
0.00887779
0.00799673
0.0072413
0.322005
0.239026
0.177588
0.133616
0.102323
0.079867
0.0635107
0.0513823
0.0422219
0.0351798
0.0296762
0.02531
0.021799
0.0189409
0.0165886
0.0146333
0.0129935
0.0116067
0.0104218
0.00936404
0.323293
0.245617
0.187499
0.144537
0.112864
0.0894039
0.0718633
0.0585865
0.0483997
0.0404745
0.034225
0.0292337
0.0251997
0.0219034
0.0191828
0.0169165
0.0150124
0.0133992
0.0120189
0.0108142
0.323714
0.247819
0.191099
0.14881
0.117249
0.0935707
0.0756572
0.0619604
0.0513625
0.0430609
0.0364788
0.0311989
0.0269168
0.0234083
0.020506
0.0180839
0.0160456
0.0143155
0.0128312
0.0115242
0.323714
0.247819
0.191099
0.14881
0.117249
0.0935706
0.0756571
0.0619603
0.0513624
0.0430607
0.0364785
0.0311986
0.0269164
0.0234078
0.0205054
0.0180831
0.0160444
0.0143141
0.0128301
0.0115278
0.323293
0.245617
0.187499
0.144537
0.112864
0.0894039
0.0718632
0.0585864
0.0483995
0.0404742
0.0342246
0.0292331
0.025199
0.0219026
0.0191817
0.0169149
0.01501
0.0133959
0.0120139
0.0108006
0.322005
0.239026
0.177588
0.133616
0.102323
0.079867
0.0635107
0.0513823
0.0422219
0.0351798
0.0296762
0.02531
0.021799
0.0189409
0.0165886
0.0146332
0.0129934
0.0116066
0.0104216
0.0093637
0.31754
0.217754
0.151086
0.108549
0.0807157
0.0618728
0.0486775
0.039142
0.032059
0.026672
0.0224906
0.019188
0.0165398
0.0143878
0.0126189
0.0111512
0.00992293
0.00888672
0.00800908
0.00725925
0.283364
0.126774
0.071702
0.0473282
0.0338664
0.0256618
0.020461
0.0167973
0.014049
0.0119416
0.0102847
0.00895674
0.00788596
0.00701243
0.00629036
0.00568749
0.00518195
0.00475665
0.00440073
0.00411949
0.292299
0.141633
0.0819301
0.0541653
0.038923
0.0292873
0.0232721
0.0190784
0.0159338
0.0135144
0.011626
0.0101116
0.00888013
0.00786857
0.00702945
0.00632647
0.00573225
0.00522539
0.00479234
0.00446291
0.319723
0.227073
0.162232
0.118772
0.089361
0.0689926
0.0545303
0.0439841
0.0360993
0.030074
0.025381
0.0216636
0.0186753
0.0162419
0.0142375
0.0125686
0.0111662
0.00997698
0.00895917
0.00807194
0.323293
0.245617
0.187499
0.144537
0.112864
0.0894039
0.0718632
0.0585864
0.0483995
0.0404742
0.0342246
0.0292332
0.025199
0.0219026
0.0191817
0.0169149
0.0150101
0.0133959
0.0120139
0.0108007
0.324288
0.250862
0.19613
0.154888
0.123591
0.09968
0.0812741
0.0669838
0.0557848
0.0469225
0.0398397
0.0341239
0.0294677
0.0256405
0.0224677
0.019816
0.0175825
0.015686
0.0140577
0.0126235
0.32459
0.252403
0.19891
0.158543
0.12769
0.103871
0.08532
0.0707498
0.0592098
0.0499926
0.0425683
0.0365382
0.0316003
0.0275247
0.024135
0.0212948
0.0188977
0.0168581
0.0151006
0.0135309
0.32459
0.252403
0.19891
0.158543
0.12769
0.103871
0.08532
0.0707498
0.0592098
0.0499925
0.0425682
0.0365381
0.0316002
0.0275246
0.0241349
0.0212947
0.0188976
0.0168583
0.0151027
0.0135455
0.324288
0.250862
0.19613
0.154888
0.123591
0.09968
0.0812741
0.0669838
0.0557848
0.0469225
0.0398397
0.0341239
0.0294677
0.0256405
0.0224677
0.019816
0.0175825
0.0156859
0.0140576
0.0126233
0.323293
0.245617
0.187499
0.144537
0.112864
0.0894039
0.0718633
0.0585865
0.0483997
0.0404744
0.034225
0.0292337
0.0251996
0.0219034
0.0191828
0.0169165
0.0150123
0.0133991
0.0120187
0.0108139
0.319723
0.227073
0.162232
0.118772
0.0893611
0.0689928
0.0545306
0.0439844
0.0360997
0.0300747
0.025382
0.021665
0.0186773
0.0162444
0.0142409
0.0125739
0.0111743
0.0099891
0.0089773
0.00810809
0.292299
0.141633
0.0819302
0.0541654
0.0389231
0.0292875
0.0232723
0.0190786
0.0159341
0.0135149
0.0116267
0.0101126
0.00888156
0.00787044
0.00703217
0.00633086
0.00573921
0.00523645
0.00480847
0.00447411
0.295943
0.148782
0.0871941
0.0576749
0.0415193
0.0310721
0.0246448
0.0202206
0.0169044
0.0143241
0.0123071
0.0107004
0.00939327
0.00831819
0.00742471
0.0066746
0.00603856
0.00549372
0.00502516
0.00465037
0.320484
0.23086
0.167176
0.123531
0.0935158
0.0724823
0.0574403
0.0464207
0.038153
0.0318161
0.0268693
0.0229443
0.0197845
0.0172078
0.0150824
0.0133107
0.0118193
0.010552
0.00946508
0.00851677
0.323714
0.247819
0.191099
0.14881
0.117249
0.0935706
0.0756571
0.0619603
0.0513624
0.0430608
0.0364786
0.0311986
0.0269164
0.0234077
0.0205054
0.018083
0.0160443
0.014314
0.01283
0.0115276
0.32459
0.252403
0.19891
0.158543
0.12769
0.103871
0.08532
0.0707498
0.0592098
0.0499925
0.0425682
0.0365381
0.0316002
0.0275246
0.0241349
0.0212947
0.0188976
0.0168583
0.0151027
0.0135455
0.324844
0.253685
0.20131
0.161836
0.131535
0.107943
0.08937
0.0746125
0.062792
0.0532534
0.0455013
0.0391574
0.0339303
0.0295945
0.0259743
0.0229319
0.020358
0.0181638
0.0162707
0.0145884
0.324844
0.253685
0.20131
0.161836
0.131535
0.107943
0.08937
0.0746125
0.062792
0.0532534
0.0455013
0.0391573
0.0339303
0.0295945
0.0259743
0.0229319
0.0203579
0.0181638
0.0162707
0.0145884
0.32459
0.252403
0.19891
0.158543
0.12769
0.103871
0.08532
0.0707498
0.0592098
0.0499926
0.0425683
0.0365382
0.0316003
0.0275247
0.024135
0.0212948
0.0188977
0.0168581
0.0151006
0.0135309
0.323714
0.247819
0.191099
0.14881
0.117249
0.0935707
0.0756572
0.0619604
0.0513625
0.0430609
0.0364788
0.0311988
0.0269168
0.0234082
0.020506
0.0180839
0.0160455
0.0143154
0.0128311
0.0115241
0.320484
0.23086
0.167176
0.123531
0.0935158
0.0724824
0.0574404
0.0464209
0.0381533
0.0318164
0.0268697
0.022945
0.0197854
0.017209
0.0150842
0.0133135
0.0118235
0.0105581
0.00947409
0.00853264
0.295943
0.148782
0.0871941
0.0576749
0.0415193
0.0310722
0.0246449
0.0202208
0.0169046
0.0143243
0.0123074
0.0107009
0.00939396
0.00831909
0.0074261
0.00667686
0.00604217
0.00549951
0.00503539
0.00467958
0.295943
0.148782
0.0871941
0.0576749
0.0415193
0.0310722
0.0246449
0.0202208
0.0169046
0.0143244
0.0123074
0.0107009
0.00939399
0.00831916
0.00742601
0.00667677
0.00604207
0.00549938
0.00503523
0.00467937
0.320484
0.23086
0.167176
0.123531
0.0935158
0.0724824
0.0574404
0.0464209
0.0381533
0.0318164
0.0268698
0.022945
0.0197855
0.0172091
0.0150841
0.0133134
0.0118234
0.010558
0.0094739
0.00853223
0.323714
0.247819
0.191099
0.14881
0.117249
0.0935707
0.0756572
0.0619604
0.0513625
0.0430609
0.0364788
0.0311989
0.0269168
0.0234082
0.020506
0.0180839
0.0160455
0.0143155
0.0128311
0.011524
0.32459
0.252403
0.19891
0.158543
0.12769
0.103871
0.08532
0.0707498
0.0592098
0.0499926
0.0425683
0.0365382
0.0316003
0.0275247
0.024135
0.0212948
0.0188977
0.0168581
0.0151006
0.0135309
0.324844
0.253685
0.20131
0.161836
0.131535
0.107943
0.08937
0.0746125
0.062792
0.0532534
0.0455013
0.0391574
0.0339303
0.0295945
0.0259743
0.0229319
0.020358
0.0181638
0.0162707
0.0145884
0.324844
0.253685
0.20131
0.161836
0.131535
0.107943
0.08937
0.0746125
0.062792
0.0532534
0.0455013
0.0391574
0.0339303
0.0295945
0.0259743
0.0229319
0.020358
0.0181638
0.0162707
0.0145884
0.32459
0.252403
0.19891
0.158543
0.12769
0.103871
0.08532
0.0707498
0.0592098
0.0499925
0.0425682
0.0365381
0.0316002
0.0275246
0.0241349
0.0212947
0.0188976
0.0168583
0.0151027
0.0135456
0.323714
0.247819
0.191099
0.14881
0.117249
0.0935706
0.0756571
0.0619603
0.0513624
0.0430607
0.0364785
0.0311986
0.0269164
0.0234078
0.0205053
0.018083
0.0160443
0.014314
0.0128301
0.0115279
0.320484
0.23086
0.167176
0.123531
0.0935157
0.0724823
0.0574403
0.0464207
0.038153
0.0318161
0.0268692
0.0229443
0.0197845
0.0172078
0.0150824
0.0133107
0.0118194
0.0105521
0.00946532
0.00851721
0.295943
0.148782
0.0871941
0.0576749
0.0415193
0.0310721
0.0246448
0.0202206
0.0169044
0.0143241
0.0123071
0.0107004
0.00939331
0.00831823
0.00742469
0.0066746
0.00603858
0.00549378
0.00502528
0.00465062
0.292299
0.141633
0.0819302
0.0541654
0.0389231
0.0292875
0.0232723
0.0190786
0.0159341
0.0135149
0.0116267
0.0101127
0.00888164
0.00787058
0.00703209
0.00633078
0.00573914
0.00523639
0.00480842
0.00447416
0.319723
0.227073
0.162232
0.118772
0.0893611
0.0689928
0.0545306
0.0439845
0.0360998
0.0300747
0.0253821
0.0216651
0.0186774
0.0162447
0.0142408
0.0125739
0.0111743
0.00998911
0.00897737
0.00810837
0.323293
0.245617
0.187499
0.144537
0.112864
0.089404
0.0718633
0.0585866
0.0483997
0.0404745
0.034225
0.0292337
0.0251997
0.0219035
0.0191828
0.0169165
0.0150124
0.0133992
0.0120189
0.0108143
0.324288
0.250862
0.19613
0.154888
0.123591
0.09968
0.0812741
0.0669838
0.0557849
0.0469225
0.0398397
0.0341239
0.0294678
0.0256405
0.0224677
0.019816
0.0175826
0.0156861
0.0140578
0.0126237
0.32459
0.252403
0.19891
0.158543
0.12769
0.103871
0.08532
0.0707498
0.0592098
0.0499925
0.0425682
0.0365381
0.0316002
0.0275246
0.0241349
0.0212947
0.0188976
0.0168583
0.0151027
0.0135457
0.32459
0.252403
0.19891
0.158543
0.12769
0.103871
0.08532
0.0707498
0.0592098
0.0499926
0.0425683
0.0365382
0.0316003
0.0275247
0.024135
0.0212948
0.0188977
0.0168581
0.0151006
0.0135309
0.324288
0.250862
0.19613
0.154888
0.123591
0.09968
0.0812741
0.0669838
0.0557848
0.0469225
0.0398397
0.0341239
0.0294677
0.0256405
0.0224677
0.019816
0.0175825
0.015686
0.0140577
0.0126235
0.323293
0.245617
0.187499
0.144537
0.112864
0.0894039
0.0718632
0.0585864
0.0483995
0.0404742
0.0342246
0.0292332
0.025199
0.0219026
0.0191817
0.0169149
0.0150101
0.0133959
0.012014
0.0108008
0.319723
0.227073
0.162232
0.118772
0.089361
0.0689926
0.0545303
0.0439841
0.0360992
0.030074
0.025381
0.0216636
0.0186754
0.0162421
0.0142373
0.0125685
0.0111661
0.00997702
0.00895935
0.00807231
0.292299
0.141633
0.0819301
0.0541653
0.038923
0.0292873
0.0232721
0.0190784
0.0159338
0.0135144
0.011626
0.0101116
0.0088802
0.00786869
0.00702934
0.00632638
0.00573218
0.00522536
0.00479237
0.00446317
0.283364
0.126774
0.071702
0.0473282
0.0338664
0.0256618
0.020461
0.0167973
0.014049
0.0119416
0.0102847
0.00895678
0.00788605
0.00701257
0.00629034
0.00568748
0.00518199
0.00475674
0.00440086
0.00411988
0.31754
0.217754
0.151086
0.108549
0.0807157
0.0618728
0.0486776
0.039142
0.032059
0.026672
0.0224907
0.0191881
0.01654
0.0143881
0.012619
0.0111513
0.0099231
0.00888706
0.00800955
0.00726017
0.322005
0.239026
0.177588
0.133616
0.102323
0.079867
0.0635107
0.0513823
0.0422219
0.0351798
0.0296762
0.0253101
0.0217991
0.018941
0.0165887
0.0146333
0.0129936
0.0116069
0.010422
0.00936438
0.323293
0.245617
0.187499
0.144537
0.112864
0.0894039
0.0718632
0.0585864
0.0483995
0.0404742
0.0342246
0.0292332
0.025199
0.0219026
0.0191818
0.016915
0.0150102
0.0133961
0.0120141
0.0108009
0.323714
0.247819
0.191099
0.14881
0.117249
0.0935706
0.0756571
0.0619603
0.0513624
0.0430608
0.0364786
0.0311986
0.0269164
0.0234078
0.0205054
0.0180831
0.0160444
0.0143141
0.0128302
0.0115278
0.323714
0.247819
0.191099
0.14881
0.117249
0.0935707
0.0756572
0.0619604
0.0513625
0.0430609
0.0364788
0.0311989
0.0269168
0.0234082
0.020506
0.0180839
0.0160455
0.0143155
0.0128311
0.0115239
0.323293
0.245617
0.187499
0.144537
0.112864
0.0894039
0.0718633
0.0585866
0.0483997
0.0404745
0.034225
0.0292337
0.0251996
0.0219034
0.0191828
0.0169165
0.0150124
0.0133991
0.0120188
0.010814
0.322005
0.239026
0.177588
0.133616
0.102323
0.079867
0.0635107
0.0513823
0.0422219
0.0351798
0.0296762
0.02531
0.021799
0.018941
0.0165886
0.0146333
0.0129935
0.0116067
0.0104218
0.0093641
0.31754
0.217754
0.151085
0.108549
0.0807156
0.0618726
0.0486773
0.0391417
0.0320586
0.0266714
0.0224898
0.0191869
0.0165383
0.0143861
0.0126163
0.0111472
0.00991691
0.00887776
0.00799672
0.00724121
0.283364
0.126774
0.071702
0.0473282
0.0338663
0.0256617
0.0204609
0.0167971
0.0140487
0.0119411
0.010284
0.00895578
0.00788471
0.00701079
0.00628774
0.00568338
0.00517551
0.00474647
0.00438517
0.00410009
0.264759
0.104702
0.0585298
0.0391631
0.02862
0.0219936
0.0175363
0.0143636
0.0120087
0.0102145
0.00881739
0.0077073
0.00680646
0.00606452
0.00545474
0.00495619
0.00454385
0.00420436
0.00394454
0.00376941
0.311746
0.197541
0.130357
0.0911458
0.0668024
0.0508113
0.0397947
0.0319125
0.0260948
0.0216881
0.0182777
0.0155901
0.0134431
0.0117011
0.0102716
0.00908583
0.0080932
0.00725665
0.00656069
0.00588748
0.31754
0.217754
0.151085
0.108549
0.0807156
0.0618726
0.0486773
0.0391418
0.0320586
0.0266714
0.0224899
0.0191869
0.0165383
0.0143859
0.0126164
0.0111474
0.00991715
0.008878
0.00799704
0.00724178
0.319723
0.227073
0.162232
0.118772
0.089361
0.0689926
0.0545303
0.0439841
0.0360993
0.030074
0.025381
0.0216636
0.0186753
0.016242
0.0142375
0.0125687
0.0111663
0.0099771
0.00895937
0.00807221
0.320484
0.23086
0.167176
0.123531
0.0935158
0.0724823
0.0574403
0.0464207
0.038153
0.0318161
0.0268693
0.0229443
0.0197845
0.0172078
0.0150824
0.0133107
0.0118194
0.0105521
0.00946513
0.0085168
0.320484
0.23086
0.167176
0.123531
0.0935158
0.0724824
0.0574404
0.0464209
0.0381533
0.0318165
0.0268698
0.022945
0.0197855
0.017209
0.015084
0.0133133
0.0118233
0.010558
0.00947389
0.00853218
0.319723
0.227073
0.162232
0.118772
0.0893611
0.0689928
0.0545306
0.0439845
0.0360998
0.0300747
0.0253821
0.0216651
0.0186773
0.0162444
0.0142409
0.0125739
0.0111743
0.00998915
0.00897736
0.00810814
0.31754
0.217754
0.151086
0.108549
0.0807157
0.0618728
0.0486775
0.039142
0.032059
0.026672
0.0224907
0.0191881
0.0165399
0.0143879
0.012619
0.0111514
0.00992313
0.00888705
0.00800948
0.00725993
0.311746
0.197541
0.130357
0.0911458
0.0668024
0.0508113
0.0397947
0.0319125
0.0260948
0.0216881
0.0182777
0.0155901
0.0134431
0.0117011
0.0102715
0.00908568
0.00809301
0.00725643
0.00656038
0.00588699
0.264759
0.104702
0.0585298
0.0391631
0.02862
0.0219936
0.0175363
0.0143636
0.0120087
0.0102144
0.00881718
0.00770696
0.0068059
0.00606368
0.00545342
0.00495387
0.00453959
0.00419608
0.0039278
0.00374502
0.213564
0.055916
0.0283994
0.0193412
0.0146928
0.0118512
0.00989079
0.00851621
0.00749158
0.00669671
0.0060612
0.00555188
0.00512465
0.00474833
0.0044309
0.00416591
0.00394443
0.0037655
0.00366086
0.00356039
0.264759
0.104702
0.0585298
0.0391631
0.02862
0.0219936
0.0175363
0.0143636
0.0120087
0.0102144
0.00881719
0.00770697
0.00680596
0.00606358
0.00545349
0.00495399
0.00453973
0.00419622
0.00392793
0.0037451
0.283364
0.126774
0.071702
0.0473282
0.0338663
0.0256617
0.0204608
0.0167971
0.0140487
0.0119411
0.010284
0.00895579
0.00788467
0.0070107
0.00628786
0.00568352
0.00517563
0.00474657
0.00438527
0.00410014
0.292299
0.141633
0.0819301
0.0541653
0.038923
0.0292873
0.0232721
0.0190784
0.0159338
0.0135144
0.011626
0.0101116
0.00888014
0.00786857
0.00702946
0.00632648
0.00573225
0.00522538
0.00479232
0.00446288
0.295943
0.148782
0.0871941
0.0576749
0.0415193
0.0310721
0.0246448
0.0202206
0.0169044
0.0143241
0.0123071
0.0107004
0.00939327
0.00831818
0.0074247
0.00667459
0.00603854
0.00549369
0.00502511
0.0046503
0.295943
0.148782
0.0871941
0.0576749
0.0415193
0.0310722
0.0246449
0.0202208
0.0169046
0.0143244
0.0123074
0.0107009
0.00939398
0.00831913
0.00742598
0.00667675
0.00604206
0.00549938
0.00503524
0.00467938
0.292299
0.141633
0.0819302
0.0541654
0.0389231
0.0292875
0.0232723
0.0190786
0.0159341
0.013515
0.0116267
0.0101127
0.00888159
0.00787045
0.00703218
0.00633087
0.00573922
0.00523647
0.00480851
0.00447426
0.283364
0.126774
0.071702
0.0473282
0.0338664
0.0256618
0.020461
0.0167973
0.014049
0.0119416
0.0102847
0.00895678
0.00788601
0.00701248
0.00629042
0.00568758
0.00518208
0.00475682
0.00440094
0.00411995
0.264759
0.104702
0.0585298
0.0391631
0.02862
0.0219936
0.0175363
0.0143636
0.0120087
0.0102145
0.00881738
0.00770729
0.00680644
0.00606453
0.00545474
0.00495616
0.00454382
0.00420432
0.00394448
0.00376923
0.213564
0.055916
0.0283994
0.0193412
0.0146928
0.0118512
0.00989079
0.00851621
0.00749157
0.0066967
0.00606119
0.00555189
0.0051246
0.00474836
0.00443087
0.00416588
0.0039444
0.00376547
0.00366087
0.0035603
0.00488323
0.00416736
0.0035423
0.00317797
0.00295751
0.00281697
0.0027107
0.00262458
0.00255303
0.00249273
0.0024403
0.00239259
0.00234722
0.00230327
0.00226055
0.00222214
0.00218446
0.00215012
0.00211739
0.00208605
0.00205663
0.00202899
0.00200348
0.0019795
0.00195503
0.00193179
0.00190887
0.00188677
0.0018646
0.00184375
0.00182262
0.00180237
0.0017826
0.00176292
0.00174431
0.00172623
0.00170897
0.00169161
0.00167674
0.0016509
0.00395389
0.00351367
0.00314948
0.00288347
0.00271032
0.00258087
0.00247558
0.00238901
0.00231502
0.00224896
0.00218883
0.00213552
0.00208701
0.00204021
0.0019942
0.00195277
0.00191366
0.00187781
0.00184454
0.00181285
0.00178291
0.00175498
0.00172922
0.00170581
0.00168324
0.00166118
0.00163981
0.00161906
0.00159874
0.00157908
0.00155977
0.0015409
0.00152252
0.00150491
0.00148763
0.00147128
0.00145537
0.00143982
0.00142502
0.00140829
0.00377869
0.00350108
0.00325206
0.00305394
0.00288679
0.00274156
0.00261809
0.00251169
0.00241898
0.00233737
0.00226465
0.00219927
0.00214205
0.00208698
0.00203363
0.00198657
0.00194241
0.00190249
0.00186463
0.00182842
0.00179282
0.00175754
0.00172539
0.00169635
0.00167002
0.00164424
0.00161939
0.00159547
0.00157241
0.00155022
0.00152858
0.00150778
0.0014877
0.00146844
0.00144986
0.00143243
0.00141552
0.00139913
0.00138351
0.00136732
0.0039861
0.00365494
0.00340104
0.00319364
0.0030178
0.00286577
0.00273221
0.00261407
0.00250866
0.00241396
0.00232837
0.0022509
0.0021812
0.00211667
0.00205759
0.00200304
0.00195229
0.00190658
0.00186224
0.00181707
0.00177642
0.00173922
0.00170361
0.00167021
0.00163872
0.00160895
0.00158111
0.00155433
0.00152895
0.00150485
0.00148116
0.00145811
0.00143643
0.00141566
0.00139654
0.00137755
0.00135991
0.00134264
0.00132627
0.0013093
0.00431135
0.00384561
0.00354395
0.0033093
0.00311421
0.00294846
0.00280482
0.00267796
0.00256414
0.00246134
0.0023681
0.00228346
0.00220664
0.00213554
0.00207018
0.00200993
0.0019546
0.00190362
0.00185596
0.00181173
0.00177033
0.00173312
0.00169319
0.00165679
0.00162282
0.00159104
0.0015611
0.00153293
0.00150631
0.00148148
0.00145718
0.00143361
0.00141164
0.00139037
0.00137059
0.00135068
0.00133229
0.00131463
0.00129818
0.00128267
0.00438322
0.00392267
0.00360823
0.0033596
0.00315301
0.00297737
0.00282554
0.00269269
0.00257372
0.00246596
0.0023681
0.00227891
0.00219754
0.00212331
0.00205521
0.00199258
0.00193498
0.00188188
0.00183289
0.00178816
0.0017466
0.00170813
0.00167131
0.00163984
0.00160494
0.00157049
0.00153906
0.00151034
0.0014838
0.00145951
0.00143624
0.00141424
0.0013929
0.00136929
0.00135139
0.00132948
0.00131291
0.00129565
0.00127947
0.00126424
0.00413375
0.00381292
0.00354232
0.00331133
0.00311087
0.00293607
0.00278326
0.00264857
0.0025278
0.00241911
0.00232116
0.00223278
0.002153
0.00208049
0.00201415
0.00195326
0.00189732
0.00184591
0.00179852
0.00175507
0.00171538
0.00167836
0.00164263
0.00161029
0.00157775
0.00154507
0.00151515
0.00148828
0.00146271
0.00143926
0.0014165
0.00139506
0.00137369
0.00135213
0.00133383
0.00131549
0.0012985
0.00128183
0.00126565
0.00125023
0.00405231
0.0037411
0.00346824
0.00322764
0.0030177
0.00283848
0.00268435
0.00255023
0.00243281
0.00232929
0.00223747
0.00215582
0.0020825
0.00201578
0.00195495
0.00189894
0.00184788
0.0018011
0.00175788
0.00171776
0.00168102
0.00164558
0.0016096
0.00157911
0.00154963
0.00152231
0.00149604
0.00147186
0.00144711
0.00142377
0.00140192
0.00138175
0.0013628
0.00134422
0.00132614
0.00130851
0.00129124
0.00127448
0.00125826
0.00124256
0.0041815
0.00372782
0.0033729
0.00307218
0.00283957
0.00266657
0.00252731
0.00240975
0.00230907
0.00222143
0.00214436
0.00207614
0.0020148
0.00195908
0.0019081
0.00185586
0.00180952
0.00176652
0.00172791
0.00169095
0.0016572
0.00162494
0.00159418
0.00156663
0.00154026
0.00151569
0.0014922
0.00147009
0.00144873
0.00142912
0.00141005
0.00139159
0.00137358
0.00135621
0.00133939
0.00132293
0.00130688
0.00129102
0.00127576
0.00126055
0.00424482
0.00374628
0.00329069
0.00293938
0.00269908
0.00253826
0.00241742
0.00232192
0.00224305
0.0021747
0.00211235
0.0020588
0.00200657
0.0019575
0.00191093
0.00186703
0.00182599
0.00178768
0.00175258
0.00171948
0.0016891
0.00166165
0.00163672
0.00161452
0.00159232
0.00157106
0.00155054
0.00153081
0.00151163
0.00149356
0.00147548
0.0014578
0.00144058
0.00142379
0.00140724
0.00139099
0.00137606
0.00136146
0.00134767
0.00133218
0.00488346
0.00416719
0.00354278
0.00317706
0.00295166
0.00281042
0.00270522
0.00262044
0.00255068
0.00249247
0.00244043
0.00239521
0.00234949
0.00230599
0.00226401
0.00222513
0.00218772
0.00215292
0.00211987
0.00208864
0.00205847
0.0020308
0.00200467
0.0019809
0.00195628
0.00193345
0.00191061
0.00188872
0.00186663
0.00184574
0.00182456
0.00180428
0.00178432
0.00176458
0.00174542
0.00172665
0.00171032
0.001693
0.00167832
0.00165224
0.00424536
0.00374628
0.00328953
0.00293787
0.0027015
0.00254444
0.00242266
0.00232584
0.00224554
0.00217523
0.00211337
0.00205648
0.00200405
0.00195473
0.00190703
0.00186365
0.00182198
0.00178429
0.00174932
0.00171663
0.00168675
0.00165974
0.00163515
0.0016132
0.00159109
0.00156969
0.00154905
0.00152921
0.00150992
0.00149186
0.00147378
0.00145614
0.00143891
0.00142232
0.00140627
0.00139066
0.00137541
0.00136045
0.00134644
0.00133083
0.00419456
0.00377957
0.00341523
0.00312392
0.00292228
0.00274867
0.00257175
0.00241779
0.00227819
0.00214987
0.00203155
0.00192874
0.00182355
0.00173109
0.00163684
0.00156122
0.00148503
0.0014217
0.0013637
0.00130445
0.00125194
0.00120858
0.0011747
0.00114486
0.00111256
0.00108145
0.00105106
0.00102342
0.000995392
0.000973163
0.000948914
0.000924697
0.000900999
0.000877198
0.000859818
0.000839813
0.00081887
0.000798647
0.000778893
0.000760495
0.00564738
0.00509812
0.00464721
0.00427662
0.00395846
0.00367869
0.00343121
0.00320885
0.00300793
0.00282638
0.00266044
0.00251386
0.00237523
0.00225792
0.00214225
0.00204394
0.00194705
0.00186378
0.00178349
0.00170883
0.00164046
0.00157189
0.00151353
0.00145662
0.0014067
0.00135786
0.00131169
0.00127096
0.00122978
0.00119433
0.00115851
0.00112507
0.00109098
0.0010602
0.00103204
0.00100445
0.000975691
0.000949828
0.000924006
0.000892768
0.00677138
0.00610535
0.00554856
0.00507796
0.00467347
0.00432112
0.00400945
0.00373259
0.00348503
0.00326341
0.00306408
0.00288445
0.0027223
0.00257551
0.00244162
0.00231967
0.00220783
0.002105
0.00201194
0.00192311
0.00184536
0.00176876
0.00170122
0.00163482
0.00157723
0.0015205
0.00147074
0.00142073
0.00137577
0.00133152
0.00129008
0.00125157
0.00121253
0.00117805
0.00114516
0.00111161
0.00107778
0.00104747
0.00101718
0.000981232
0.00734858
0.00666192
0.00606324
0.00554277
0.00508879
0.00469327
0.00434736
0.00404186
0.00376827
0.00352253
0.00330165
0.0031027
0.00292389
0.00276173
0.00261434
0.00248002
0.0023573
0.00224489
0.00214185
0.00204659
0.00196001
0.00187523
0.00179448
0.00172661
0.00166457
0.00160706
0.00155185
0.00149787
0.00144785
0.001401
0.00135597
0.0013154
0.00127465
0.00123716
0.0012008
0.00116369
0.00112669
0.00109247
0.00105867
0.00101847
0.00750732
0.00682402
0.00622048
0.00569118
0.00522701
0.00481883
0.00446085
0.00414807
0.00386948
0.00361819
0.00339162
0.00318689
0.00300343
0.00283636
0.00268458
0.00254623
0.00241976
0.00230382
0.00219727
0.00209909
0.0020086
0.00192453
0.00184704
0.00177053
0.00169568
0.0016287
0.00157326
0.00152309
0.00147545
0.00143021
0.00138631
0.00134646
0.00130449
0.00126174
0.00122173
0.00118111
0.00114245
0.00110505
0.00107006
0.00102763
0.00727773
0.00661255
0.006027
0.00551533
0.00506845
0.00467786
0.00433778
0.00404056
0.00377423
0.00353412
0.00331775
0.00312177
0.0029475
0.002787
0.00264067
0.00250681
0.00238407
0.00227113
0.00216706
0.00207092
0.00198182
0.00189949
0.00182159
0.00175059
0.00168207
0.00161882
0.00155795
0.00150435
0.00145121
0.00140491
0.00135856
0.00131423
0.00127037
0.00122983
0.00119119
0.00115216
0.00111417
0.00107733
0.00104179
0.00099854
0.00676772
0.00608576
0.00551909
0.00504136
0.00463366
0.00428735
0.00398645
0.00371839
0.0034782
0.00326233
0.00306736
0.00289066
0.00273364
0.00258713
0.00245278
0.00232885
0.002215
0.00210937
0.00201234
0.00192217
0.00183819
0.00176104
0.00168443
0.00161968
0.00155416
0.00149701
0.00143936
0.00138886
0.00133728
0.00129437
0.00125047
0.00120769
0.00116426
0.00112651
0.00108982
0.00105448
0.00101853
0.000982161
0.000946834
0.000905246
0.00543543
0.00499629
0.00456709
0.0042025
0.00389025
0.00361781
0.00337701
0.00315937
0.00296201
0.00278239
0.00261602
0.00246901
0.00233133
0.00220453
0.0020873
0.00197649
0.00187853
0.00178228
0.00170115
0.00161986
0.00154811
0.00147858
0.0014155
0.00136348
0.00131052
0.00126492
0.00121791
0.00117798
0.00113565
0.00110303
0.00106885
0.00103502
0.00100021
0.000970118
0.000941183
0.000911574
0.000884305
0.000854374
0.000826821
0.000802915
0.00419401
0.00377865
0.00342149
0.00311791
0.00290198
0.00272437
0.00255665
0.00240844
0.0022741
0.00215228
0.00203096
0.00193693
0.00183324
0.00173947
0.00164742
0.00156882
0.00149501
0.00142987
0.00137111
0.00131279
0.00125723
0.00121304
0.00117724
0.001148
0.00111491
0.0010846
0.00105398
0.00102648
0.000998605
0.000976392
0.000952275
0.000928175
0.000904283
0.000881902
0.000860482
0.000837457
0.000821357
0.000802423
0.000783256
0.000765226
0.0039539
0.00351261
0.00315148
0.00287996
0.00269913
0.00257133
0.00246897
0.00238443
0.00231173
0.00224779
0.00218695
0.002137
0.00208793