/*--------------------------------*- C++ -*----------------------------------*\
| =========                 |                                                 |
| \\      /  F ield         | OpenFOAM: The Open Source CFD Toolbox           |
|  \\    /   O peration     | Version:  2212                                  |
|   \\  /    A nd           | Website:  www.openfoam.com                      |
|    \\/     M anipulation  |                                                 |
\*---------------------------------------------------------------------------*/
FoamFile
{
    version     2.0;
    format      ascii;
    arch        "LSB;label=32;scalar=64";
    class       volScalarField;
    location    "2.5";
    object      nut;
}
// * * * * * * * * * * * * * * * * * * * * * * * * * * * * * * * * * * * * * //

dimensions      [0 2 -1 0 0 0 0];

internalField   nonuniform List<scalar> 
6840
(
4.5356e-05
2.3208e-05
1.65396e-05
1.36494e-05
1.18966e-05
1.06844e-05
9.7608e-06
9.05718e-06
8.49486e-06
8.03155e-06
7.64094e-06
7.31285e-06
7.02579e-06
6.76279e-06
6.53271e-06
6.33415e-06
6.16321e-06
6.02107e-06
5.93738e-06
5.85019e-06
0.000107685
6.77183e-05
5.06311e-05
4.14159e-05
3.54049e-05
3.10368e-05
2.77139e-05
2.50819e-05
2.29338e-05
2.11513e-05
1.96516e-05
1.8373e-05
1.72659e-05
1.62979e-05
1.54569e-05
1.47338e-05
1.41082e-05
1.35721e-05
1.31479e-05
1.2851e-05
0.000160509
0.00010736
8.07409e-05
6.55976e-05
5.54897e-05
4.83027e-05
4.31312e-05
3.90794e-05
3.57397e-05
3.29505e-05
3.05793e-05
2.85372e-05
2.67774e-05
2.52514e-05
2.39165e-05
2.27427e-05
2.17101e-05
2.08026e-05
2.00125e-05
1.93742e-05
0.000198681
0.0001383
0.000105187
8.55269e-05
7.25013e-05
6.28902e-05
5.60612e-05
5.07594e-05
4.63882e-05
4.2722e-05
3.96256e-05
3.69558e-05
3.4634e-05
3.26038e-05
3.08193e-05
2.92439e-05
2.78466e-05
2.66035e-05
2.55017e-05
2.46446e-05
0.000218609
0.000155003
0.000118661
9.65069e-05
8.18823e-05
7.08355e-05
6.30854e-05
5.71432e-05
5.22479e-05
4.80955e-05
4.45813e-05
4.15701e-05
3.89493e-05
3.6654e-05
3.46313e-05
3.28393e-05
3.1242e-05
2.98101e-05
2.85321e-05
2.75323e-05
0.000218609
0.000155003
0.000118661
9.65068e-05
8.18822e-05
7.08353e-05
6.30852e-05
5.71429e-05
5.22474e-05
4.80948e-05
4.45801e-05
4.15683e-05
3.89467e-05
3.66501e-05
3.46254e-05
3.28293e-05
3.12254e-05
2.97827e-05
2.84835e-05
2.74066e-05
0.000198681
0.0001383
0.000105187
8.55269e-05
7.25011e-05
6.289e-05
5.60608e-05
5.07588e-05
4.63873e-05
4.27207e-05
3.96234e-05
3.69525e-05
3.4629e-05
3.25964e-05
3.08078e-05
2.92251e-05
2.78158e-05
2.65528e-05
2.54221e-05
2.45291e-05
0.000160509
0.00010736
8.07408e-05
6.55975e-05
5.54896e-05
4.83025e-05
4.31309e-05
3.9079e-05
3.57391e-05
3.29493e-05
3.05775e-05
2.85345e-05
2.67735e-05
2.52455e-05
2.39072e-05
2.27276e-05
2.16856e-05
2.07627e-05
1.99496e-05
1.92792e-05
0.000107685
6.77183e-05
5.06311e-05
4.14159e-05
3.54049e-05
3.10368e-05
2.77138e-05
2.50818e-05
2.29338e-05
2.11511e-05
1.96512e-05
1.83723e-05
1.72647e-05
1.62957e-05
1.54533e-05
1.47276e-05
1.40966e-05
1.35491e-05
1.31016e-05
1.27745e-05
4.5356e-05
2.3208e-05
1.65396e-05
1.36494e-05
1.18966e-05
1.06844e-05
9.7608e-06
9.05718e-06
8.49486e-06
8.03155e-06
7.64093e-06
7.31286e-06
7.02573e-06
6.76283e-06
6.53267e-06
6.33409e-06
6.16314e-06
6.02099e-06
5.9373e-06
5.85004e-06
0.000107685
6.77183e-05
5.06311e-05
4.14159e-05
3.54049e-05
3.10368e-05
2.77138e-05
2.50818e-05
2.29338e-05
2.11511e-05
1.96512e-05
1.83723e-05
1.72647e-05
1.62955e-05
1.54534e-05
1.47277e-05
1.40968e-05
1.35493e-05
1.31019e-05
1.2775e-05
0.000528907
0.000369984
0.000305097
0.000261371
0.000228529
0.000202477
0.000181116
0.000163077
0.000147544
0.00013399
0.000122058
0.000111479
0.000102153
9.38873e-05
8.65158e-05
7.97384e-05
7.35696e-05
6.80546e-05
6.38973e-05
5.54436e-05
0.000663952
0.000488459
0.000404619
0.000347249
0.000305037
0.00027213
0.000245322
0.000222894
0.000203764
0.000187192
0.000172673
0.000159842
0.000148413
0.000138174
0.000128958
0.000120769
0.000113413
0.000106717
0.000100986
9.53182e-05
0.00071288
0.000556432
0.000466397
0.000402355
0.000354427
0.000317052
0.000286677
0.000261257
0.000239585
0.000220851
0.000204451
0.00018996
0.000177058
0.000165482
0.000155021
0.000145564
0.000136952
0.000129064
0.000121805
0.000115189
0.000728543
0.000588231
0.000496002
0.000429131
0.000378509
0.000338934
0.000306816
0.000279969
0.000257066
0.000237245
0.000219891
0.000204546
0.000190864
0.000178572
0.000167445
0.000157342
0.00014808
0.000139518
0.000131514
0.000123706
0.000728543
0.000588231
0.000496001
0.000429131
0.000378508
0.000338932
0.000306814
0.000279965
0.00025706
0.000237235
0.000219877
0.000204525
0.000190833
0.000178533
0.000167396
0.000157251
0.000147936
0.000139303
0.000131207
0.000123184
0.00071288
0.000556432
0.000466396
0.000402354
0.000354425
0.000317048
0.000286672
0.000261251
0.000239573
0.000220832
0.000204421
0.000189916
0.000176996
0.000165404
0.000154911
0.000145378
0.000136664
0.000128635
0.000121181
0.000114178
0.000663952
0.000488458
0.000404619
0.000347248
0.000305035
0.000272127
0.000245318
0.000222889
0.000203755
0.000187178
0.000172651
0.000159809
0.000148367
0.00013812
0.000128873
0.000120634
0.000113213
0.000106429
0.000100622
9.40131e-05
0.000528907
0.000369984
0.000305097
0.000261371
0.000228529
0.000202477
0.000181116
0.000163077
0.000147544
0.00013399
0.000122058
0.000111479
0.000102152
9.38949e-05
8.65081e-05
7.97326e-05
7.35639e-05
6.80482e-05
6.3889e-05
5.5428e-05
0.000107685
6.77183e-05
5.06311e-05
4.14159e-05
3.54049e-05
3.10368e-05
2.77139e-05
2.50819e-05
2.29338e-05
2.11513e-05
1.96516e-05
1.8373e-05
1.72658e-05
1.62979e-05
1.54568e-05
1.47336e-05
1.4108e-05
1.35718e-05
1.31475e-05
1.28503e-05
0.000160509
0.00010736
8.07408e-05
6.55975e-05
5.54896e-05
4.83025e-05
4.31309e-05
3.9079e-05
3.57391e-05
3.29493e-05
3.05775e-05
2.85344e-05
2.67734e-05
2.52453e-05
2.39074e-05
2.27278e-05
2.16858e-05
2.07629e-05
1.99499e-05
1.92796e-05
0.000663952
0.000488458
0.000404619
0.000347248
0.000305035
0.000272127
0.000245318
0.000222889
0.000203755
0.000187178
0.000172651
0.000159809
0.000148365
0.000138108
0.000128886
0.000120642
0.000113218
0.000106431
0.000100633
9.40395e-05
0.000786828
0.000662293
0.000567975
0.000495806
0.000439464
0.000394563
0.000357976
0.000327455
0.000301495
0.000279057
0.000259408
0.000242018
0.000226495
0.000212545
0.000199941
0.000188506
0.000178097
0.000168568
0.000159767
0.000149991
0.000809324
0.000713906
0.000631505
0.000562574
0.000505378
0.000457787
0.000417843
0.000383942
0.000354808
0.000329456
0.000307165
0.000287392
0.000269719
0.000253818
0.000239432
0.000226369
0.000214442
0.000203481
0.000193252
0.000183072
0.000814958
0.000730426
0.000654634
0.000589043
0.000533067
0.000485438
0.000444762
0.000409792
0.000379468
0.000352929
0.000329488
0.000308624
0.000289931
0.000273083
0.000257817
0.000243928
0.000231215
0.000219484
0.000208432
0.00019721
0.000814958
0.000730426
0.000654634
0.000589043
0.000533066
0.000485437
0.000444761
0.00040979
0.000379465
0.000352924
0.000329481
0.000308613
0.000289916
0.000273068
0.000257799
0.000243893
0.000231161
0.000219411
0.000208358
0.000197218
0.000809324
0.000713906
0.000631504
0.000562574
0.000505377
0.000457785
0.000417841
0.000383939
0.000354803
0.000329448
0.000307153
0.000287374
0.000269696
0.000253793
0.000239393
0.000226301
0.000214337
0.000203327
0.000193016
0.000182388
0.000786828
0.000662293
0.000567975
0.000495806
0.000439464
0.000394563
0.000357976
0.000327455
0.000301495
0.000279057
0.000259408
0.000242017
0.000226494
0.000212546
0.000199936
0.000188502
0.000178092
0.00016856
0.000159756
0.000149966
0.000663952
0.000488459
0.000404619
0.000347249
0.000305037
0.00027213
0.000245322
0.000222894
0.000203764
0.000187192
0.000172672
0.000159841
0.00014841
0.000138169
0.00012896
0.000120768
0.00011341
0.000106712
0.000100978
9.53012e-05
0.000160509
0.00010736
8.07409e-05
6.55976e-05
5.54897e-05
4.83027e-05
4.31312e-05
3.90794e-05
3.57397e-05
3.29505e-05
3.05793e-05
2.85371e-05
2.67773e-05
2.52512e-05
2.39166e-05
2.27427e-05
2.17101e-05
2.08025e-05
2.00122e-05
1.9373e-05
0.000198681
0.0001383
0.000105187
8.55269e-05
7.25011e-05
6.289e-05
5.60608e-05
5.07588e-05
4.63873e-05
4.27207e-05
3.96234e-05
3.69525e-05
3.46289e-05
3.25962e-05
3.0808e-05
2.92253e-05
2.7816e-05
2.65529e-05
2.54222e-05
2.45292e-05
0.00071288
0.000556432
0.000466396
0.000402354
0.000354425
0.000317048
0.000286672
0.000261251
0.000239573
0.000220832
0.000204421
0.000189915
0.000176991
0.000165394
0.000154922
0.000145384
0.000136666
0.000128634
0.000121176
0.00011417
0.000809324
0.000713906
0.000631504
0.000562574
0.000505377
0.000457785
0.000417841
0.000383939
0.000354803
0.000329448
0.000307153
0.000287374
0.000269693
0.000253788
0.000239401
0.000226305
0.000214339
0.000203329
0.000193018
0.000182395
0.000823497
0.000753987
0.000688491
0.000628748
0.000575387
0.000528266
0.000486845
0.000450442
0.000418363
0.000389974
0.000364728
0.000342164
0.000321897
0.000303609
0.000287037
0.000271952
0.000258157
0.000245436
0.000233447
0.000221294
0.000826292
0.000764347
0.000706102
0.000651936
0.00060223
0.000557103
0.000516427
0.000479911
0.000447179
0.000417831
0.000391474
0.000367748
0.00034633
0.000326938
0.000309321
0.000293262
0.000278551
0.000264943
0.00025199
0.000238391
0.000826292
0.000764347
0.000706102
0.000651936
0.00060223
0.000557103
0.000516427
0.000479911
0.000447179
0.00041783
0.000391472
0.000367745
0.000346327
0.000326935
0.000309318
0.000293257
0.000278545
0.000264946
0.000252058
0.000238965
0.000823497
0.000753987
0.000688491
0.000628748
0.000575387
0.000528266
0.000486845
0.000450442
0.000418363
0.000389974
0.000364728
0.000342163
0.000321896
0.00030361
0.000287035
0.00027195
0.000258154
0.000245432
0.000233439
0.000221284
0.000809324
0.000713906
0.000631505
0.000562574
0.000505378
0.000457787
0.000417842
0.000383942
0.000354807
0.000329455
0.000307164
0.000287391
0.000269715
0.000253814
0.000239436
0.000226369
0.000214438
0.000203472
0.00019324
0.000183055
0.00071288
0.000556432
0.000466397
0.000402355
0.000354427
0.000317052
0.000286677
0.000261257
0.000239585
0.00022085
0.00020445
0.000189959
0.000177053
0.00016547
0.000155031
0.00014557
0.000136955
0.000129063
0.000121803
0.000115185
0.000198681
0.0001383
0.000105187
8.55269e-05
7.25013e-05
6.28902e-05
5.60612e-05
5.07594e-05
4.63882e-05
4.2722e-05
3.96256e-05
3.69558e-05
3.46338e-05
3.26035e-05
3.08195e-05
2.92441e-05
2.78468e-05
2.66036e-05
2.55017e-05
2.4644e-05
0.000218609
0.000155003
0.000118661
9.65068e-05
8.18822e-05
7.08353e-05
6.30852e-05
5.71429e-05
5.22474e-05
4.80948e-05
4.45801e-05
4.15683e-05
3.89467e-05
3.665e-05
3.46253e-05
3.28293e-05
3.12253e-05
2.97825e-05
2.84833e-05
2.74067e-05
0.000728543
0.000588231
0.000496001
0.000429131
0.000378508
0.000338932
0.000306814
0.000279966
0.00025706
0.000237235
0.000219876
0.000204524
0.000190831
0.000178526
0.000167395
0.000157248
0.00014793
0.000139294
0.000131192
0.000123162
0.000814958
0.000730426
0.000654634
0.000589043
0.000533066
0.000485437
0.000444761
0.00040979
0.000379465
0.000352924
0.00032948
0.000308612
0.000289915
0.000273065
0.000257799
0.000243891
0.000231157
0.000219404
0.000208349
0.000197207
0.000826292
0.000764347
0.000706102
0.000651936
0.00060223
0.000557103
0.000516427
0.000479911
0.000447179
0.00041783
0.000391472
0.000367745
0.000346327
0.000326934
0.000309319
0.000293257
0.000278544
0.000264944
0.000252057
0.000238963
0.000828382
0.0007726
0.000721137
0.00067296
0.000627781
0.000585619
0.000546546
0.000510577
0.000477646
0.000447612
0.000420284
0.000395443
0.000372861
0.000352316
0.000333592
0.000316487
0.000300797
0.000286268
0.000272482
0.000258637
0.000828382
0.0007726
0.000721137
0.00067296
0.000627781
0.000585619
0.000546546
0.000510577
0.000477646
0.000447612
0.000420284
0.000395443
0.000372861
0.000352315
0.000333592
0.000316487
0.000300796
0.000286268
0.000272482
0.000258639
0.000826292
0.000764347
0.000706102
0.000651936
0.00060223
0.000557103
0.000516427
0.000479911
0.000447179
0.000417831
0.000391474
0.000367747
0.000346329
0.000326937
0.000309321
0.000293261
0.000278549
0.00026494
0.000251985
0.000238389
0.000814958
0.000730426
0.000654634
0.000589043
0.000533067
0.000485438
0.000444762
0.000409791
0.000379468
0.000352929
0.000329487
0.000308623
0.000289928
0.000273079
0.00025782
0.000243928
0.000231212
0.000219477
0.000208422
0.000197199
0.000728543
0.000588231
0.000496002
0.000429131
0.000378509
0.000338934
0.000306816
0.000279969
0.000257066
0.000237245
0.000219891
0.000204546
0.000190862
0.000178562
0.000167455
0.000157348
0.000148083
0.00013952
0.000131516
0.000123709
0.000218609
0.000155003
0.000118661
9.65069e-05
8.18823e-05
7.08355e-05
6.30854e-05
5.71431e-05
5.22479e-05
4.80955e-05
4.45813e-05
4.157e-05
3.89492e-05
3.66537e-05
3.46316e-05
3.28396e-05
3.12422e-05
2.98103e-05
2.85324e-05
2.75326e-05
0.000218609
0.000155003
0.000118661
9.65069e-05
8.18823e-05
7.08355e-05
6.30854e-05
5.71432e-05
5.22479e-05
4.80955e-05
4.45813e-05
4.157e-05
3.89493e-05
3.66539e-05
3.46313e-05
3.28393e-05
3.12419e-05
2.98099e-05
2.8532e-05
2.75321e-05
0.000728543
0.000588231
0.000496002
0.000429131
0.000378509
0.000338934
0.000306816
0.000279969
0.000257066
0.000237245
0.000219891
0.000204546
0.000190863
0.00017857
0.000167445
0.00015734
0.000148076
0.000139511
0.000131502
0.000123688
0.000814958
0.000730426
0.000654634
0.000589043
0.000533067
0.000485438
0.000444762
0.000409792
0.000379468
0.000352929
0.000329488
0.000308623
0.00028993
0.000273082
0.000257816
0.000243925
0.000231211
0.000219477
0.000208421
0.000197195
0.000826292
0.000764347
0.000706102
0.000651936
0.00060223
0.000557103
0.000516427
0.000479911
0.000447179
0.000417831
0.000391474
0.000367748
0.00034633
0.000326937
0.00030932
0.000293261
0.00027855
0.000264941
0.000251986
0.000238387
0.000828382
0.0007726
0.000721137
0.00067296
0.000627781
0.000585619
0.000546546
0.000510577
0.000477646
0.000447612
0.000420284
0.000395443
0.000372862
0.000352316
0.000333593
0.000316487
0.000300797
0.000286269
0.000272484
0.00025864
0.000828382
0.0007726
0.000721137
0.00067296
0.000627781
0.000585619
0.000546546
0.000510577
0.000477646
0.000447612
0.000420284
0.000395443
0.000372861
0.000352316
0.000333593
0.000316487
0.000300797
0.000286268
0.000272483
0.000258643
0.000826292
0.000764347
0.000706102
0.000651936
0.00060223
0.000557103
0.000516427
0.000479911
0.000447179
0.00041783
0.000391472
0.000367745
0.000346328
0.000326936
0.000309317
0.000293256
0.000278545
0.000264945
0.000252058
0.000238971
0.000814958
0.000730426
0.000654634
0.000589043
0.000533066
0.000485437
0.000444761
0.00040979
0.000379465
0.000352924
0.000329481
0.000308613
0.000289917
0.000273067
0.000257796
0.00024389
0.000231159
0.000219409
0.000208357
0.000197225
0.000728543
0.000588231
0.000496001
0.000429131
0.000378508
0.000338932
0.000306814
0.000279966
0.00025706
0.000237235
0.000219877
0.000204525
0.000190834
0.000178528
0.000167394
0.00015725
0.000147935
0.000139303
0.000131208
0.000123186
0.000218609
0.000155003
0.000118661
9.65068e-05
8.18822e-05
7.08353e-05
6.30852e-05
5.71429e-05
5.22474e-05
4.80948e-05
4.45801e-05
4.15684e-05
3.89467e-05
3.665e-05
3.46254e-05
3.28294e-05
3.12255e-05
2.97828e-05
2.84838e-05
2.74072e-05
0.000198681
0.0001383
0.000105187
8.55269e-05
7.25013e-05
6.28902e-05
5.60612e-05
5.07594e-05
4.63882e-05
4.2722e-05
3.96256e-05
3.69559e-05
3.4634e-05
3.26038e-05
3.08193e-05
2.92439e-05
2.78466e-05
2.66035e-05
2.55018e-05
2.46448e-05
0.00071288
0.000556432
0.000466397
0.000402355
0.000354427
0.000317052
0.000286677
0.000261257
0.000239585
0.000220851
0.000204451
0.00018996
0.000177058
0.000165482
0.00015502
0.000145563
0.000136952
0.000129063
0.000121804
0.000115195
0.000809324
0.000713906
0.000631505
0.000562574
0.000505378
0.000457787
0.000417843
0.000383942
0.000354808
0.000329456
0.000307165
0.000287393
0.00026972
0.000253819
0.000239431
0.000226368
0.000214442
0.000203482
0.000193254
0.000183083
0.000823497
0.000753987
0.000688491
0.000628748
0.000575387
0.000528266
0.000486845
0.000450442
0.000418363
0.000389974
0.000364729
0.000342164
0.000321897
0.00030361
0.000287037
0.000271953
0.000258159
0.000245439
0.000233451
0.000221306
0.000826292
0.000764347
0.000706102
0.000651936
0.00060223
0.000557103
0.000516427
0.000479911
0.000447179
0.00041783
0.000391472
0.000367746
0.000346328
0.000326935
0.00030932
0.000293258
0.000278547
0.000264948
0.000252062
0.000238975
0.000826292
0.000764347
0.000706102
0.000651936
0.00060223
0.000557103
0.000516427
0.000479911
0.00044718
0.000417831
0.000391474
0.000367748
0.00034633
0.000326937
0.000309321
0.000293262
0.00027855
0.000264941
0.000251985
0.000238391
0.000823497
0.000753987
0.000688491
0.000628748
0.000575387
0.000528266
0.000486845
0.000450442
0.000418363
0.000389974
0.000364728
0.000342164
0.000321897
0.00030361
0.000287036
0.000271951
0.000258156
0.000245435
0.000233444
0.000221295
0.000809324
0.000713906
0.000631504
0.000562574
0.000505377
0.000457785
0.000417841
0.000383939
0.000354803
0.000329448
0.000307153
0.000287375
0.000269697
0.000253793
0.000239394
0.000226303
0.00021434
0.000203334
0.000193027
0.000182409
0.00071288
0.000556432
0.000466396
0.000402354
0.000354425
0.000317049
0.000286672
0.00026125
0.000239573
0.000220832
0.000204421
0.000189916
0.000176996
0.000165404
0.000154911
0.000145378
0.000136665
0.000128637
0.000121185
0.000114187
0.000198681
0.0001383
0.000105187
8.55269e-05
7.25011e-05
6.289e-05
5.60608e-05
5.07588e-05
4.63873e-05
4.27207e-05
3.96234e-05
3.69525e-05
3.4629e-05
3.25965e-05
3.08078e-05
2.92251e-05
2.78159e-05
2.65529e-05
2.54223e-05
2.45303e-05
0.000160509
0.00010736
8.07409e-05
6.55976e-05
5.54897e-05
4.83027e-05
4.31312e-05
3.90794e-05
3.57397e-05
3.29505e-05
3.05794e-05
2.85372e-05
2.67775e-05
2.52515e-05
2.39166e-05
2.27427e-05
2.17102e-05
2.08028e-05
2.00125e-05
1.93746e-05
0.000663952
0.000488459
0.000404619
0.000347249
0.000305037
0.00027213
0.000245322
0.000222894
0.000203764
0.000187192
0.000172674
0.000159842
0.000148414
0.000138177
0.000128958
0.000120771
0.000113419
0.000106728
0.000100993
9.53442e-05
0.000786828
0.000662293
0.000567975
0.000495806
0.000439464
0.000394563
0.000357977
0.000327455
0.000301495
0.000279058
0.000259409
0.000242019
0.000226497
0.000212548
0.000199942
0.00018851
0.000178105
0.00016858
0.000159787
0.000150028
0.000809324
0.000713906
0.000631504
0.000562574
0.000505377
0.000457785
0.000417841
0.00038394
0.000354803
0.000329448
0.000307154
0.000287375
0.000269695
0.000253791
0.000239402
0.000226309
0.000214346
0.000203341
0.000193036
0.000182417
0.000814958
0.000730426
0.000654634
0.000589043
0.000533066
0.000485437
0.000444761
0.00040979
0.000379466
0.000352925
0.000329481
0.000308613
0.000289916
0.000273066
0.000257801
0.000243894
0.000231161
0.000219411
0.000208357
0.000197218
0.000814958
0.000730426
0.000654634
0.000589043
0.000533067
0.000485438
0.000444762
0.000409792
0.000379468
0.000352929
0.000329488
0.000308623
0.000289929
0.00027308
0.000257816
0.000243926
0.000231211
0.000219476
0.00020842
0.000197194
0.000809324
0.000713906
0.000631505
0.000562574
0.000505378
0.000457787
0.000417843
0.000383942
0.000354808
0.000329456
0.000307165
0.000287392
0.000269716
0.000253814
0.000239436
0.00022637
0.000214441
0.000203477
0.000193246
0.000183064
0.000786828
0.000662293
0.000567975
0.000495806
0.000439464
0.000394563
0.000357977
0.000327455
0.000301495
0.000279057
0.000259408
0.000242018
0.000226496
0.000212547
0.000199939
0.000188506
0.000178099
0.000168571
0.000159772
0.000150003
0.000663952
0.000488458
0.000404619
0.000347248
0.000305036
0.000272128
0.000245319
0.000222889
0.000203755
0.000187178
0.000172651
0.000159809
0.000148367
0.000138121
0.000128874
0.000120636
0.000113215
0.000106433
0.000100628
9.40464e-05
0.000160509
0.00010736
8.07408e-05
6.55975e-05
5.54896e-05
4.83025e-05
4.3131e-05
3.9079e-05
3.57391e-05
3.29493e-05
3.05775e-05
2.85345e-05
2.67735e-05
2.52455e-05
2.39073e-05
2.27276e-05
2.16856e-05
2.07628e-05
1.99497e-05
1.92794e-05
0.000107685
6.77183e-05
5.06311e-05
4.14159e-05
3.54049e-05
3.10368e-05
2.77139e-05
2.50819e-05
2.29339e-05
2.11513e-05
1.96516e-05
1.8373e-05
1.72659e-05
1.62979e-05
1.5457e-05
1.47339e-05
1.41083e-05
1.35723e-05
1.31482e-05
1.28517e-05
0.000528907
0.000369984
0.000305097
0.000261371
0.000228529
0.000202477
0.000181116
0.000163077
0.000147544
0.00013399
0.000122059
0.00011148
0.000102155
9.38891e-05
8.65174e-05
7.97414e-05
7.35745e-05
6.80618e-05
6.39087e-05
5.54645e-05
0.000663952
0.000488458
0.000404619
0.000347248
0.000305036
0.000272128
0.000245318
0.00022289
0.000203756
0.000187178
0.000172652
0.00015981
0.000148366
0.00013811
0.000128888
0.000120645
0.000113223
0.000106438
0.000100644
9.40525e-05
0.00071288
0.000556432
0.000466396
0.000402354
0.000354425
0.000317048
0.000286672
0.000261251
0.000239573
0.000220832
0.000204421
0.000189915
0.000176992
0.000165394
0.000154924
0.000145386
0.000136668
0.000128637
0.000121182
0.000114178
0.000728543
0.000588231
0.000496001
0.000429131
0.000378508
0.000338932
0.000306814
0.000279966
0.00025706
0.000237235
0.000219876
0.000204524
0.000190831
0.000178526
0.000167395
0.000157249
0.000147931
0.000139294
0.000131193
0.000123163
0.000728543
0.000588231
0.000496002
0.000429131
0.000378509
0.000338934
0.000306816
0.00027997
0.000257066
0.000237245
0.000219891
0.000204546
0.000190863
0.000178567
0.000167444
0.000157339
0.000148075
0.00013951
0.000131502
0.000123687
0.00071288
0.000556432
0.000466397
0.000402355
0.000354427
0.000317052
0.000286676
0.000261258
0.000239586
0.000220851
0.000204451
0.00018996
0.000177055
0.000165469
0.00015503
0.00014557
0.000136956
0.000129066
0.000121806
0.000115189
0.000663952
0.000488459
0.000404619
0.000347249
0.000305037
0.00027213
0.000245322
0.000222895
0.000203764
0.000187193
0.000172674
0.000159842
0.000148413
0.000138171
0.000128963
0.000120775
0.000113421
0.000106729
0.000100991
9.53389e-05
0.000528907
0.000369984
0.000305097
0.000261371
0.000228529
0.000202477
0.000181116
0.000163077
0.000147544
0.00013399
0.000122058
0.00011148
0.000102153
9.38961e-05
8.65102e-05
7.97361e-05
7.35692e-05
6.80561e-05
6.3901e-05
5.54553e-05
0.000107685
6.77183e-05
5.06311e-05
4.14159e-05
3.54049e-05
3.10368e-05
2.77139e-05
2.50818e-05
2.29338e-05
2.11511e-05
1.96512e-05
1.83723e-05
1.72647e-05
1.62957e-05
1.54534e-05
1.47277e-05
1.40967e-05
1.35493e-05
1.3102e-05
1.27754e-05
4.5356e-05
2.3208e-05
1.65396e-05
1.36494e-05
1.18966e-05
1.06844e-05
9.7608e-06
9.05719e-06
8.49486e-06
8.03155e-06
7.64095e-06
7.31285e-06
7.0258e-06
6.76281e-06
6.53273e-06
6.33418e-06
6.16324e-06
6.02113e-06
5.93742e-06
5.85036e-06
0.000107685
6.77183e-05
5.06311e-05
4.14159e-05
3.54049e-05
3.10368e-05
2.77138e-05
2.50819e-05
2.29338e-05
2.11511e-05
1.96512e-05
1.83723e-05
1.72648e-05
1.62955e-05
1.54535e-05
1.47278e-05
1.40969e-05
1.35495e-05
1.31021e-05
1.27754e-05
0.000160509
0.00010736
8.07408e-05
6.55975e-05
5.54896e-05
4.83025e-05
4.31309e-05
3.9079e-05
3.57391e-05
3.29493e-05
3.05776e-05
2.85345e-05
2.67734e-05
2.52454e-05
2.39075e-05
2.27279e-05
2.16858e-05
2.0763e-05
1.995e-05
1.92797e-05
0.000198681
0.0001383
0.000105187
8.55269e-05
7.25011e-05
6.289e-05
5.60608e-05
5.07589e-05
4.63873e-05
4.27207e-05
3.96234e-05
3.69525e-05
3.46289e-05
3.25962e-05
3.08081e-05
2.92253e-05
2.7816e-05
2.65529e-05
2.54221e-05
2.45291e-05
0.000218609
0.000155003
0.000118661
9.65068e-05
8.18822e-05
7.08353e-05
6.30852e-05
5.71429e-05
5.22474e-05
4.80948e-05
4.45801e-05
4.15683e-05
3.89467e-05
3.665e-05
3.46253e-05
3.28292e-05
3.12253e-05
2.97824e-05
2.84832e-05
2.74065e-05
0.000218609
0.000155003
0.000118661
9.65069e-05
8.18823e-05
7.08355e-05
6.30854e-05
5.71432e-05
5.22479e-05
4.80955e-05
4.45813e-05
4.15701e-05
3.89493e-05
3.66539e-05
3.46312e-05
3.28392e-05
3.12419e-05
2.981e-05
2.85321e-05
2.75321e-05
0.000198681
0.0001383
0.000105187
8.55269e-05
7.25013e-05
6.28902e-05
5.60612e-05
5.07594e-05
4.63882e-05
4.27221e-05
3.96256e-05
3.69559e-05
3.46339e-05
3.26036e-05
3.08195e-05
2.92441e-05
2.78468e-05
2.66038e-05
2.5502e-05
2.46449e-05
0.000160509
0.00010736
8.07409e-05
6.55976e-05
5.54897e-05
4.83027e-05
4.31312e-05
3.90794e-05
3.57397e-05
3.29505e-05
3.05794e-05
2.85372e-05
2.67774e-05
2.52513e-05
2.39167e-05
2.27429e-05
2.17104e-05
2.08029e-05
2.00127e-05
1.93746e-05
0.000107685
6.77183e-05
5.06311e-05
4.14159e-05
3.54049e-05
3.10368e-05
2.77139e-05
2.50819e-05
2.29339e-05
2.11513e-05
1.96516e-05
1.8373e-05
1.72659e-05
1.6298e-05
1.5457e-05
1.47338e-05
1.41082e-05
1.35722e-05
1.3148e-05
1.28513e-05
4.5356e-05
2.3208e-05
1.65396e-05
1.36494e-05
1.18966e-05
1.06844e-05
9.76081e-06
9.05719e-06
8.49486e-06
8.03155e-06
7.64093e-06
7.31287e-06
7.02574e-06
6.76285e-06
6.5327e-06
6.33414e-06
6.16321e-06
6.02111e-06
5.93747e-06
5.85026e-06
5.64273e-06
5.22368e-06
4.82157e-06
4.56956e-06
4.41007e-06
4.30697e-06
4.22791e-06
4.16259e-06
4.10654e-06
4.05833e-06
4.01539e-06
3.9765e-06
3.93886e-06
3.90228e-06
3.8661e-06
3.83317e-06
3.80066e-06
3.77075e-06
3.74221e-06
3.7145e-06
3.68847e-06
3.66413e-06
3.64156e-06
3.62029e-06
3.59837e-06
3.57747e-06
3.55672e-06
3.53665e-06
3.51636e-06
3.49729e-06
3.47761e-06
3.45869e-06
3.44008e-06
3.4214e-06
3.40364e-06
3.38625e-06
3.36947e-06
3.35252e-06
3.33788e-06
3.31232e-06
1.08186e-05
1.02178e-05
9.70132e-06
9.30844e-06
9.03415e-06
8.82684e-06
8.65518e-06
8.51054e-06
8.38372e-06
8.26635e-06
8.15645e-06
8.05806e-06
7.96546e-06
7.8776e-06
7.78948e-06
7.70896e-06
7.63218e-06
7.56095e-06
7.49423e-06
7.43025e-06
7.36914e-06
7.3117e-06
7.25897e-06
7.21082e-06
7.1641e-06
7.11797e-06
7.073e-06
7.02919e-06
6.98592e-06
6.94403e-06
6.90237e-06
6.86133e-06
6.82109e-06
6.78222e-06
6.74401e-06
6.70735e-06
6.67157e-06
6.63631e-06
6.60256e-06
6.56414e-06
1.54152e-05
1.49054e-05
1.44175e-05
1.39967e-05
1.36257e-05
1.32797e-05
1.29826e-05
1.27227e-05
1.24926e-05
1.22862e-05
1.20977e-05
1.19236e-05
1.17649e-05
1.16189e-05
1.14706e-05
1.13384e-05
1.12134e-05
1.10983e-05
1.09886e-05
1.08829e-05
1.07763e-05
1.0671e-05
1.05734e-05
1.04853e-05
1.04042e-05
1.03242e-05
1.02466e-05
1.01715e-05
1.00986e-05
1.00282e-05
9.95896e-06
9.89179e-06
9.8269e-06
9.76368e-06
9.70288e-06
9.64506e-06
9.58927e-06
9.53423e-06
9.48181e-06
9.42698e-06
2.00814e-05
1.90996e-05
1.83901e-05
1.78081e-05
1.73076e-05
1.68677e-05
1.64736e-05
1.61177e-05
1.57934e-05
1.54958e-05
1.52212e-05
1.49676e-05
1.47344e-05
1.45157e-05
1.43138e-05
1.41247e-05
1.39468e-05
1.37821e-05
1.3624e-05
1.34594e-05
1.33079e-05
1.31683e-05
1.30334e-05
1.29056e-05
1.27841e-05
1.26684e-05
1.25591e-05
1.24534e-05
1.23517e-05
1.22556e-05
1.21605e-05
1.20638e-05
1.19799e-05
1.18875e-05
1.18152e-05
1.1728e-05
1.16602e-05
1.15837e-05
1.15155e-05
1.14418e-05
2.32531e-05
2.19666e-05
2.10887e-05
2.03759e-05
1.97655e-05
1.92324e-05
1.87585e-05
1.83296e-05
1.79358e-05
1.75723e-05
1.72352e-05
1.69234e-05
1.66341e-05
1.63644e-05
1.61125e-05
1.58768e-05
1.56568e-05
1.5452e-05
1.52579e-05
1.50754e-05
1.49021e-05
1.4746e-05
1.45758e-05
1.44187e-05
1.42707e-05
1.41309e-05
1.3998e-05
1.3872e-05
1.37512e-05
1.36392e-05
1.35281e-05
1.3419e-05
1.33194e-05
1.32125e-05
1.31319e-05
1.30287e-05
1.29451e-05
1.28579e-05
1.27788e-05
1.27032e-05
2.43748e-05
2.30348e-05
2.20816e-05
2.13135e-05
2.06542e-05
2.00726e-05
1.95529e-05
1.90849e-05
1.86548e-05
1.82563e-05
1.78874e-05
1.7544e-05
1.72238e-05
1.69287e-05
1.66536e-05
1.63966e-05
1.61567e-05
1.59328e-05
1.57237e-05
1.55304e-05
1.53488e-05
1.5179e-05
1.50147e-05
1.48732e-05
1.47145e-05
1.45562e-05
1.44102e-05
1.42762e-05
1.41501e-05
1.40357e-05
1.39248e-05
1.38154e-05
1.37298e-05
1.35623e-05
1.35602e-05
1.33783e-05
1.33439e-05
1.32406e-05
1.31559e-05
1.30777e-05
2.26192e-05
2.18469e-05
2.11139e-05
2.04368e-05
1.9814e-05
1.92463e-05
1.87318e-05
1.82648e-05
1.78357e-05
1.74409e-05
1.7078e-05
1.67442e-05
1.64371e-05
1.61555e-05
1.58941e-05
1.56507e-05
1.54243e-05
1.52134e-05
1.50166e-05
1.4834e-05
1.46654e-05
1.45059e-05
1.43507e-05
1.42075e-05
1.40636e-05
1.39178e-05
1.3783e-05
1.36615e-05
1.35435e-05
1.34366e-05
1.33318e-05
1.32295e-05
1.3142e-05
1.30155e-05
1.29565e-05
1.28545e-05
1.27777e-05
1.26956e-05
1.26161e-05
1.254e-05
2.03239e-05
1.9473e-05
1.87238e-05
1.80474e-05
1.74304e-05
1.68871e-05
1.64077e-05
1.59806e-05
1.55983e-05
1.52543e-05
1.49436e-05
1.46627e-05
1.44059e-05
1.4171e-05
1.39542e-05
1.3752e-05
1.35658e-05
1.33926e-05
1.32305e-05
1.30783e-05
1.29382e-05
1.27986e-05
1.26579e-05
1.25379e-05
1.24209e-05
1.23115e-05
1.22059e-05
1.21081e-05
1.20059e-05
1.19115e-05
1.18221e-05
1.17404e-05
1.1661e-05
1.15826e-05
1.15062e-05
1.14312e-05
1.13575e-05
1.1285e-05
1.12141e-05
1.11448e-05
1.66204e-05
1.56504e-05
1.48683e-05
1.42002e-05
1.36126e-05
1.31747e-05
1.28216e-05
1.25146e-05
1.22444e-05
1.20044e-05
1.1789e-05
1.15945e-05
1.14181e-05
1.12581e-05
1.11076e-05
1.09544e-05
1.08176e-05
1.06887e-05
1.05709e-05
1.04572e-05
1.03526e-05
1.02485e-05
1.01536e-05
1.00657e-05
9.98187e-06
9.90246e-06
9.82663e-06
9.7549e-06
9.68522e-06
9.62154e-06
9.55903e-06
9.49807e-06
9.43809e-06
9.37982e-06
9.32284e-06
9.26659e-06
9.21176e-06
9.1569e-06
9.10336e-06
9.04914e-06
1.13734e-05
1.06934e-05
1.00322e-05
9.49287e-06
9.07796e-06
8.79849e-06
8.58861e-06
8.41748e-06
8.27215e-06
8.1443e-06
8.0203e-06
7.91562e-06
7.81296e-06
7.71684e-06
7.6238e-06
7.53573e-06
7.4527e-06
7.37419e-06
7.30188e-06
7.23271e-06
7.16879e-06
7.11128e-06
7.05856e-06
7.01146e-06
6.96401e-06
6.9184e-06
6.87424e-06
6.83162e-06
6.78998e-06
6.75104e-06
6.71137e-06
6.6723e-06
6.63395e-06
6.59622e-06
6.55869e-06
6.52142e-06
6.48678e-06
6.45264e-06
6.42003e-06
6.38322e-06
5.64288e-06
5.22334e-06
4.82199e-06
4.56917e-06
4.40525e-06
4.30183e-06
4.224e-06
4.15967e-06
4.10521e-06
4.05874e-06
4.01616e-06
3.97884e-06
3.94097e-06
3.90481e-06
3.8694e-06
3.83625e-06
3.80409e-06
3.77391e-06
3.74517e-06
3.71756e-06
3.69088e-06
3.66641e-06
3.6432e-06
3.62199e-06
3.59985e-06
3.57926e-06
3.55855e-06
3.53866e-06
3.51849e-06
3.49945e-06
3.47977e-06
3.4609e-06
3.44218e-06
3.42352e-06
3.40525e-06
3.38718e-06
3.37133e-06
3.35438e-06
3.33993e-06
3.31416e-06
1.13744e-05
1.0694e-05
1.00296e-05
9.49004e-06
9.08296e-06
8.80911e-06