/*--------------------------------*- C++ -*----------------------------------*\
| =========                 |                                                 |
| \\      /  F ield         | OpenFOAM: The Open Source CFD Toolbox           |
|  \\    /   O peration     | Version:  2212                                  |
|   \\  /    A nd           | Website:  www.openfoam.com                      |
|    \\/     M anipulation  |                                                 |
\*---------------------------------------------------------------------------*/
FoamFile
{
    version     2.0;
    format      ascii;
    arch        "LSB;label=32;scalar=64";
    class       volScalarField;
    location    "2.5";
    object      p;
}
// * * * * * * * * * * * * * * * * * * * * * * * * * * * * * * * * * * * * * //

dimensions      [0 2 -2 0 0 0 0];

internalField   nonuniform List<scalar> 
6840
(
0.017894
0.0107796
0.00848812
0.00795029
0.00767591
0.00745366
0.00726694
0.00710041
0.00693909
0.00677939
0.00662135
0.00646471
0.00630809
0.00614976
0.00598979
0.00582708
0.00565842
0.00547877
0.00523297
0.0047542
0.0107152
0.00998133
0.00888842
0.00822244
0.00781981
0.007546
0.00733471
0.00714832
0.00697363
0.00680585
0.00664238
0.0064813
0.00632063
0.00615894
0.0059957
0.00582882
0.00565306
0.00545493
0.00519023
0.00474385
0.0103669
0.0095154
0.00875112
0.00819196
0.00781577
0.00754768
0.00733193
0.00713886
0.00696019
0.00679124
0.00662701
0.0064652
0.00630503
0.00614576
0.00598577
0.00582288
0.00565311
0.00547115
0.00527414
0.0050554
0.00995765
0.00919492
0.00857615
0.00812482
0.00778083
0.00751179
0.00729215
0.00710331
0.00693542
0.00677787
0.006622
0.00646638
0.00631169
0.00615838
0.0060066
0.00585667
0.00570901
0.00556469
0.00542841
0.00531209
0.00982347
0.00908229
0.00849411
0.008086
0.00776407
0.00749738
0.00727589
0.00708533
0.00691472
0.00675827
0.00660884
0.00645968
0.0063102
0.00616262
0.00601962
0.00588394
0.00575928
0.00564934
0.00556029
0.00550467
0.00982349
0.00908231
0.00849414
0.00808604
0.00776413
0.00749748
0.00727605
0.0070856
0.00691517
0.00675901
0.00661005
0.0064617
0.00631355
0.0061682
0.00602929
0.00590097
0.00578885
0.00570015
0.00565115
0.00566632
0.0099577
0.00919497
0.00857621
0.00812491
0.00778097
0.00751201
0.00729253
0.00710394
0.00693647
0.00677959
0.00662481
0.00647097
0.00631918
0.00617071
0.00602731
0.00589199
0.00576929
0.00566573
0.00559812
0.00558935
0.010367
0.00951545
0.00875118
0.00819205
0.00781591
0.00754792
0.00733232
0.00713949
0.00696122
0.00679292
0.00662976
0.00646965
0.0063122
0.00615736
0.00600473
0.00585385
0.00570424
0.00555711
0.00542515
0.00533346
0.0107152
0.00998135
0.00888846
0.00822248
0.00781989
0.00754613
0.00733493
0.00714868
0.00697423
0.00680683
0.00664396
0.00648386
0.00632492
0.00616607
0.00600724
0.00584744
0.00568403
0.00550888
0.00529216
0.00495606
0.017894
0.0107796
0.00848812
0.00795029
0.00767591
0.00745367
0.00726695
0.00710041
0.0069391
0.0067794
0.00662136
0.00646472
0.00630811
0.0061498
0.00598986
0.00582714
0.00565849
0.00547886
0.00523308
0.00475433
0.0107152
0.00998136
0.00888846
0.00822249
0.00781989
0.00754613
0.00733493
0.00714868
0.00697423
0.00680682
0.00664395
0.00648385
0.00632491
0.00616603
0.00600717
0.00584738
0.00568395
0.00550877
0.00529201
0.00495586
0.0099986
0.00996689
0.00923866
0.00852814
0.00808175
0.00776574
0.00750675
0.00727896
0.00707414
0.00688538
0.0067071
0.00653539
0.00636684
0.00619931
0.0060316
0.00586167
0.00568505
0.00549732
0.00531289
0.00521181
0.00907312
0.0091993
0.00889639
0.00848015
0.00811297
0.00779428
0.00751562
0.00727499
0.00706209
0.00686702
0.00668292
0.00650634
0.00633499
0.00616667
0.00599915
0.00583037
0.00565865
0.00548302
0.00531069
0.00516433
0.00865475
0.00869826
0.00853268
0.00826973
0.00798933
0.00771797
0.00746695
0.00724053
0.00703743
0.00685069
0.00667325
0.00650208
0.00633581
0.00617299
0.00601238
0.00585325
0.00569529
0.00553942
0.00538809
0.0052448
0.00843882
0.00846065
0.00833345
0.00811595
0.00788355
0.00765443
0.0074317
0.00721867
0.00701815
0.00683128
0.00665558
0.00648799
0.00632701
0.00617097
0.00601943
0.00587436
0.00573678
0.00560665
0.00548641
0.00537989
0.00843885
0.00846068
0.0083335
0.00811602
0.00788365
0.00765458
0.00743192
0.00721901
0.00701867
0.00683213
0.006657
0.00649035
0.00633064
0.00617636
0.00602786
0.00588753
0.00575644
0.00563398
0.00552208
0.00542325
0.00865482
0.00869832
0.00853276
0.00826985
0.00798951
0.00771823
0.00746734
0.00724115
0.00703845
0.00685243
0.0066762
0.00650685
0.00634302
0.0061839
0.00602959
0.00588056
0.00573769
0.00560321
0.00548528
0.00539206
0.00907315
0.00919934
0.00889645
0.00848023
0.00811308
0.00779445
0.0075159
0.00727545
0.00706287
0.00686828
0.00668488
0.00650936
0.00633968
0.00617392
0.00601012
0.00584659
0.00568117
0.00551122
0.00533582
0.00515251
0.0099986
0.00996689
0.00923866
0.00852814
0.00808175
0.00776574
0.00750675
0.00727896
0.00707414
0.00688539
0.00670711
0.00653541
0.00636686
0.00619935
0.00603165
0.00586174
0.00568512
0.00549742
0.005313
0.00521193
0.0107152
0.00998134
0.00888843
0.00822244
0.00781982
0.00754601
0.00733472
0.00714833
0.00697364
0.00680586
0.00664239
0.00648132
0.00632065
0.00615898
0.00599576
0.00582888
0.00565312
0.00545501
0.00519032
0.00474392
0.010367
0.00951545
0.00875119
0.00819205
0.00781591
0.00754792
0.00733232
0.0071395
0.00696122
0.00679292
0.00662976
0.00646964
0.00631218
0.00615732
0.00600467
0.00585379
0.00570416
0.00555698
0.00542496
0.00533318
0.00907315
0.00919934
0.00889645
0.00848023
0.00811308
0.00779445
0.0075159
0.00727545
0.00706287
0.00686827
0.00668487
0.00650935
0.00633965
0.00617389
0.00601008
0.00584653
0.0056811
0.00551113
0.00533571
0.00515236
0.00850365
0.00860462
0.00849306
0.00826756
0.00801179
0.00775337
0.00749493
0.00725322
0.0070352
0.00683471
0.00664677
0.00646812
0.00629595
0.00612787
0.00596228
0.00579794
0.00563415
0.00547302
0.00532155
0.0051796
0.00813567
0.00820373
0.00815134
0.00800435
0.00781946
0.00761432
0.00740365
0.00719672
0.00699553
0.00680296
0.00662012
0.00644514
0.00627596
0.00611116
0.0059496
0.00579016
0.00563183
0.00547461
0.00532001
0.00516416
0.00795265
0.00801708
0.00798762
0.00786278
0.00770378
0.00753015
0.00734394
0.00715601
0.00696998
0.00678667
0.0066076
0.00643377
0.0062656
0.00610333
0.00594712
0.00579604
0.00564796
0.00550195
0.00535974
0.00521476
0.00795267
0.0080171
0.00798765
0.00786283
0.00770388
0.00753028
0.0073441
0.00715625
0.00697034
0.00678722
0.00660843
0.00643499
0.00626736
0.00610588
0.00595082
0.00580115
0.00565427
0.00550842
0.00536272
0.00520649
0.0081357
0.00820377
0.0081514
0.00800444
0.00781959
0.00761449
0.00740388
0.00719708
0.00699608
0.00680384
0.00662154
0.00644735
0.0062793
0.00611618
0.00595712
0.00580124
0.00564773
0.00549633
0.0053479
0.00519348
0.00850365
0.00860463
0.00849306
0.00826757
0.0080118
0.00775337
0.00749493
0.00725323
0.0070352
0.00683471
0.00664678
0.00646813
0.00629597
0.00612788
0.0059623
0.00579798
0.00563419
0.00547305
0.00532158
0.00517965
0.00907312
0.0091993
0.0088964
0.00848016
0.00811298
0.00779429
0.00751563
0.00727499
0.0070621
0.00686704
0.00668293
0.00650636
0.00633502
0.00616669
0.00599917
0.00583041
0.0056587
0.00548307
0.00531073
0.00516435
0.0103669
0.00951541
0.00875113
0.00819197
0.00781578
0.00754769
0.00733194
0.00713888
0.0069602
0.00679125
0.00662703
0.00646521
0.00630505
0.00614578
0.0059858
0.00582292
0.00565315
0.00547119
0.00527416
0.00505539
0.00995771
0.00919498
0.00857622
0.00812491
0.00778098
0.00751202
0.00729253
0.00710395
0.00693647
0.00677958
0.00662481
0.00647096
0.00631916
0.00617067
0.00602725
0.00589192
0.00576919
0.0056656
0.00559792
0.00558902
0.00865482
0.00869833
0.00853277
0.00826986
0.00798951
0.00771823
0.00746734
0.00724115
0.00703845
0.00685242
0.00667619
0.00650683
0.00634299
0.00618387
0.00602955
0.0058805
0.00573761
0.00560312
0.0054852
0.00539198
0.00813571
0.00820377
0.0081514
0.00800444
0.00781959
0.00761449
0.00740388
0.00719708
0.00699607
0.00680383
0.00662153
0.00644733
0.00627928
0.00611616
0.0059571
0.00580121
0.00564769
0.0054963
0.00534789
0.0051935
0.00783779
0.00789694
0.007885
0.00778961
0.00764999
0.0074845
0.0073043
0.00711982
0.00693582
0.00675541
0.00658022
0.00641005
0.00624428
0.00608227
0.00592345
0.00576692
0.0056117
0.00545739
0.00530449
0.00514436
0.0076867
0.00774959
0.00775335
0.0076797
0.00755959
0.00741323
0.00725037
0.00707898
0.00690487
0.00673133
0.00656018
0.00639232
0.0062281
0.00606754
0.00591049
0.00575624
0.00560374
0.00545304
0.00530592
0.00515276
0.00768671
0.0077496
0.00775336
0.00767972
0.00755962
0.00741327
0.00725042
0.00707906
0.00690497
0.00673146
0.00656036
0.00639256
0.00622841
0.00606794
0.00591097
0.00575665
0.00560373
0.00545194
0.00530227
0.00514451
0.0078378
0.00789694
0.007885
0.00778961
0.00764999
0.0074845
0.00730431
0.00711983
0.00693583
0.00675541
0.00658022
0.00641006
0.00624429
0.00608228
0.00592346
0.00576694
0.00561172
0.00545741
0.00530451
0.00514437
0.00813567
0.00820373
0.00815135
0.00800436
0.00781947
0.00761433
0.00740365
0.00719673
0.00699553
0.00680297
0.00662013
0.00644515
0.00627597
0.00611118
0.00594963
0.00579019
0.00563186
0.00547464
0.00532005
0.00516423
0.00865476
0.00869827
0.00853268
0.00826974
0.00798934
0.00771798
0.00746696
0.00724054
0.00703743
0.0068507
0.00667326
0.00650209
0.00633582
0.006173
0.0060124
0.00585328
0.00569532
0.00553945
0.00538812
0.00524482
0.00995766
0.00919493
0.00857616
0.00812483
0.00778084
0.0075118
0.00729216
0.00710332
0.00693543
0.00677788
0.00662201
0.00646639
0.0063117
0.00615838
0.0060066
0.00585668
0.00570901
0.00556468
0.00542839
0.00531203
0.0098235
0.00908231
0.00849415
0.00808605
0.00776414
0.00749748
0.00727606
0.0070856
0.00691517
0.00675901
0.00661004
0.00646168
0.00631352
0.00616817
0.00602923
0.0059009
0.00578875
0.00570001
0.00565094
0.00566599
0.00843886
0.00846069
0.0083335
0.00811602
0.00788365
0.00765458
0.00743192
0.00721901
0.00701866
0.00683212
0.00665699
0.00649033
0.00633062
0.00617633
0.00602782
0.00588748
0.00575638
0.00563393
0.00552206
0.00542335
0.00795267
0.00801711
0.00798765
0.00786283
0.00770388
0.00753028
0.0073441
0.00715625
0.00697033
0.00678721
0.00660842
0.00643498
0.00626734
0.00610586
0.0059508
0.00580112
0.00565425
0.00550842
0.00536275
0.0052066
0.00768671
0.0077496
0.00775336
0.00767972
0.00755962
0.00741327
0.00725042
0.00707906
0.00690497
0.00673146
0.00656036
0.00639256
0.0062284
0.00606794
0.00591096
0.00575664
0.00560372
0.00545194
0.00530228
0.00514454
0.00754392
0.00761343
0.00763556
0.00758302
0.00748178
0.00735086
0.00720096
0.00704
0.00687351
0.00670518
0.00653736
0.0063715
0.00620834
0.0060482
0.00589104
0.00573608
0.00558217
0.00542873
0.00527624
0.00511501
0.00754392
0.00761343
0.00763556
0.00758302
0.00748178
0.00735086
0.00720096
0.00704
0.00687351
0.00670518
0.00653737
0.0063715
0.00620834
0.00604821
0.00589104
0.00573609
0.00558217
0.00542874
0.00527624
0.005115
0.00768671
0.0077496
0.00775335
0.00767971
0.0075596
0.00741323
0.00725037
0.00707899
0.00690488
0.00673133
0.00656019
0.00639233
0.00622811
0.00606755
0.0059105
0.00575626
0.00560376
0.00545306
0.00530595
0.00515279
0.00795265
0.00801709
0.00798762
0.00786278
0.00770379
0.00753016
0.00734394
0.00715602
0.00696998
0.00678668
0.00660761
0.00643378
0.00626561
0.00610335
0.00594714
0.00579606
0.00564798
0.00550197
0.00535978
0.00521481
0.00843883
0.00846066
0.00833346
0.00811596
0.00788356
0.00765444
0.0074317
0.00721868
0.00701816
0.00683129
0.00665559
0.00648799
0.00632701
0.00617097
0.00601944
0.00587436
0.00573678
0.00560666
0.00548644
0.00537995
0.00982348
0.0090823
0.00849412
0.00808601
0.00776408
0.00749739
0.0072759
0.00708534
0.00691473
0.00675828
0.00660884
0.00645968
0.0063102
0.00616261
0.0060196
0.00588392
0.00575924
0.00564929
0.00556021
0.00550457
0.00982348
0.0090823
0.00849412
0.00808601
0.00776408
0.00749738
0.00727589
0.00708533
0.00691472
0.00675827
0.00660882
0.00645966
0.00631017
0.00616258
0.00601957
0.00588387
0.00575918
0.00564921
0.00556009
0.00550435
0.00843883
0.00846066
0.00833346
0.00811596
0.00788356
0.00765444
0.0074317
0.00721867
0.00701815
0.00683127
0.00665557
0.00648797
0.00632699
0.00617094
0.0060194
0.00587431
0.00573672
0.00560659
0.00548637
0.00537991
0.00795265
0.00801709
0.00798762
0.00786278
0.00770379
0.00753015
0.00734394
0.00715601
0.00696997
0.00678667
0.0066076
0.00643376
0.00626559
0.00610332
0.0059471
0.00579602
0.00564794
0.00550193
0.00535973
0.00521478
0.00768671
0.0077496
0.00775335
0.00767971
0.0075596
0.00741323
0.00725037
0.00707898
0.00690487
0.00673133
0.00656018
0.00639232
0.00622809
0.00606754
0.00591048
0.00575624
0.00560373
0.00545304
0.00530592
0.00515277
0.00754393
0.00761344
0.00763556
0.00758302
0.00748178
0.00735086
0.00720096
0.00704
0.00687351
0.00670518
0.00653737
0.0063715
0.00620834
0.00604821
0.00589104
0.00573609
0.00558218
0.00542874
0.00527625
0.00511502
0.00754393
0.00761344
0.00763556
0.00758302
0.00748178
0.00735086
0.00720096
0.00704
0.00687351
0.00670518
0.00653737
0.0063715
0.00620834
0.00604821
0.00589104
0.00573609
0.00558218
0.00542875
0.00527626
0.00511502
0.00768672
0.00774961
0.00775337
0.00767972
0.00755962
0.00741327
0.00725043
0.00707906
0.00690498
0.00673147
0.00656037
0.00639257
0.00622841
0.00606795
0.00591098
0.00575666
0.00560375
0.00545196
0.00530231
0.00514457
0.00795268
0.00801711
0.00798765
0.00786284
0.00770388
0.00753029
0.00734411
0.00715626
0.00697034
0.00678722
0.00660843
0.006435
0.00626736
0.00610588
0.00595082
0.00580116
0.0056543
0.00550848
0.00536283
0.00520668
0.00843886
0.00846069
0.0083335
0.00811603
0.00788366
0.00765459
0.00743192
0.00721902
0.00701867
0.00683213
0.006657
0.00649035
0.00633064
0.00617635
0.00602785
0.00588752
0.00575643
0.005634
0.00552219
0.00542357
0.0098235
0.00908232
0.00849415
0.00808605
0.00776414
0.00749749
0.00727606
0.00708561
0.00691517
0.00675902
0.00661006
0.0064617
0.00631354
0.00616819
0.00602926
0.00590092
0.00578877
0.00570003
0.00565098
0.00566607
0.00995766
0.00919493
0.00857616
0.00812483
0.00778084
0.0075118
0.00729216
0.00710331
0.00693542
0.00677787
0.00662199
0.00646637
0.00631167
0.00615835
0.00600656
0.00585662
0.00570893
0.00556458
0.00542825
0.00531185
0.00865476
0.00869827
0.00853268
0.00826974
0.00798934
0.00771798
0.00746695
0.00724053
0.00703743
0.00685068
0.00667324
0.00650207
0.00633579
0.00617297
0.00601235
0.00585322
0.00569526
0.00553938
0.00538805
0.00524475
0.00813567
0.00820374
0.00815135
0.00800436
0.00781947
0.00761433
0.00740365
0.00719672
0.00699553
0.00680296
0.00662012
0.00644514
0.00627596
0.00611115
0.00594959
0.00579015
0.00563182
0.00547459
0.00531997
0.00516407
0.0078378
0.00789694
0.00788501
0.00778961
0.00764999
0.00748451
0.00730431
0.00711983
0.00693583
0.00675541
0.00658022
0.00641006
0.00624428
0.00608228
0.00592345
0.00576692
0.0056117
0.00545739
0.00530448
0.00514431
0.00768672
0.00774961
0.00775337
0.00767973
0.00755962
0.00741327
0.00725043
0.00707906
0.00690498
0.00673147
0.00656037
0.00639257
0.00622841
0.00606795
0.00591097
0.00575665
0.00560374
0.00545195
0.0053023
0.00514457
0.00768671
0.0077496
0.00775336
0.00767971
0.0075596
0.00741324
0.00725038
0.00707899
0.00690488
0.00673133
0.00656019
0.00639233
0.0062281
0.00606755
0.0059105
0.00575626
0.00560376
0.00545307
0.00530596
0.00515282
0.0078378
0.00789694
0.00788501
0.00778961
0.00764999
0.00748451
0.00730431
0.00711983
0.00693583
0.00675542
0.00658023
0.00641006
0.00624429
0.00608228
0.00592346
0.00576694
0.00561173
0.00545742
0.00530454
0.00514441
0.00813571
0.00820377
0.00815141
0.00800444
0.00781959
0.0076145
0.00740389
0.00719708
0.00699608
0.00680384
0.00662154
0.00644735
0.0062793
0.00611617
0.00595711
0.00580124
0.00564774
0.00549638
0.00534803
0.00519375
0.00865483
0.00869833
0.00853277
0.00826986
0.00798951
0.00771824
0.00746735
0.00724116
0.00703845
0.00685243
0.0066762
0.00650685
0.006343
0.00618388
0.00602956
0.00588052
0.00573764
0.00560318
0.00548534
0.00539233
0.00995771
0.00919498
0.00857622
0.00812492
0.00778098
0.00751202
0.00729253
0.00710395
0.00693648
0.00677959
0.00662482
0.00647097
0.00631917
0.00617069
0.00602727
0.00589192
0.00576918
0.00566556
0.00559787
0.00558891
0.0103669
0.00951541
0.00875113
0.00819197
0.00781578
0.00754769
0.00733194
0.00713887
0.0069602
0.00679124
0.00662701
0.00646519
0.00630502
0.00614574
0.00598575
0.00582285
0.00565307
0.00547111
0.00527409
0.00505538
0.00907313
0.00919931
0.00889641
0.00848016
0.00811298
0.00779429
0.00751563
0.00727499
0.0070621
0.00686703
0.00668292
0.00650634
0.00633499
0.00616667
0.00599914
0.00583037
0.00565866
0.00548305
0.00531075
0.00516441
0.00850366
0.00860463
0.00849307
0.00826757
0.0080118
0.00775338
0.00749494
0.00725323
0.0070352
0.00683471
0.00664677
0.00646813
0.00629596
0.00612788
0.0059623
0.00579797
0.00563418
0.00547305
0.00532158
0.00517959
0.00813572
0.00820378
0.00815141
0.00800445
0.0078196
0.0076145
0.00740389
0.00719709
0.00699609
0.00680384
0.00662154
0.00644735
0.0062793
0.00611618
0.00595712
0.00580123
0.00564772
0.00549632
0.00534789
0.00519344
0.00795268
0.00801712
0.00798766
0.00786284
0.00770389
0.00753029
0.00734412
0.00715626
0.00697035
0.00678723
0.00660843
0.006435
0.00626736
0.00610589
0.00595082
0.00580115
0.00565428
0.00550845
0.00536279
0.00520664
0.00795266
0.00801709
0.00798763
0.00786279
0.00770379
0.00753016
0.00734395
0.00715602
0.00696999
0.00678668
0.00660761
0.00643378
0.00626561
0.00610334
0.00594713
0.00579605
0.00564797
0.00550196
0.00535978
0.00521487
0.00813568
0.00820374
0.00815136
0.00800436
0.00781947
0.00761433
0.00740366
0.00719673
0.00699554
0.00680297
0.00662013
0.00644514
0.00627597
0.00611117
0.00594961
0.00579017
0.00563184
0.00547462
0.00532003
0.0051642
0.00850366
0.00860463
0.00849306
0.00826757
0.0080118
0.00775338
0.00749494
0.00725323
0.00703521
0.00683472
0.00664678
0.00646813
0.00629596
0.00612787
0.00596229
0.00579797
0.00563418
0.00547305
0.00532164
0.00517979
0.00907316
0.00919935
0.00889646
0.00848023
0.00811308
0.00779445
0.00751591
0.00727546
0.00706288
0.00686828
0.00668488
0.00650936
0.00633967
0.0061739
0.00601008
0.00584653
0.00568109
0.00551112
0.00533571
0.00515241
0.010367
0.00951546
0.00875119
0.00819206
0.00781592
0.00754793
0.00733233
0.0071395
0.00696123
0.00679293
0.00662977
0.00646965
0.00631219
0.00615734
0.00600469
0.00585378
0.00570412
0.0055569
0.00542478
0.00533275
0.0107152
0.00998134
0.00888844
0.00822245
0.00781982
0.00754601
0.00733473
0.00714833
0.00697364
0.00680586
0.00664238
0.0064813
0.00632063
0.00615894
0.00599569
0.0058288
0.00565304
0.00545493
0.00519024
0.0047439
0.00999861
0.0099669
0.00923867
0.00852815
0.00808176
0.00776575
0.00750676
0.00727897
0.00707415
0.00688539
0.0067071
0.00653539
0.00636684
0.00619932
0.0060316
0.00586168
0.00568506
0.00549737
0.00531299
0.00521203
0.00907317
0.00919935
0.00889647
0.00848024
0.00811309
0.00779446
0.00751591
0.00727546
0.00706288
0.00686828
0.00668488
0.00650936
0.00633967
0.0061739
0.0060101
0.00584655
0.00568113
0.00551119
0.00533579
0.00515244
0.00865483
0.00869834
0.00853278
0.00826987
0.00798952
0.00771824
0.00746736
0.00724117
0.00703846
0.00685243
0.00667621
0.00650685
0.00634301
0.00618389
0.00602958
0.00588053
0.00573765
0.00560316
0.00548524
0.005392
0.00843887
0.0084607
0.00833351
0.00811604
0.00788367
0.00765459
0.00743193
0.00721903
0.00701868
0.00683214
0.00665701
0.00649035
0.00633064
0.00617636
0.00602786
0.00588752
0.00575642
0.00563396
0.00552209
0.00542336
0.00843884
0.00846067
0.00833347
0.00811597
0.00788357
0.00765445
0.00743171
0.00721869
0.00701816
0.00683129
0.00665559
0.00648799
0.00632701
0.00617097
0.00601943
0.00587435
0.00573676
0.00560663
0.0054864
0.00537994
0.00865477
0.00869827
0.00853269
0.00826974
0.00798935
0.00771799
0.00746696
0.00724054
0.00703744
0.0068507
0.00667326
0.00650208
0.00633581
0.00617299
0.00601239
0.00585325
0.00569528
0.00553939
0.00538805
0.00524476
0.00907313
0.00919931
0.00889641
0.00848016
0.00811298
0.00779429
0.00751564
0.007275
0.00706211
0.00686704
0.00668293
0.00650635
0.00633501
0.00616668
0.00599914
0.00583038
0.00565866
0.00548302
0.0053107
0.00516433
0.00999861
0.0099669
0.00923867
0.00852814
0.00808176
0.00776575
0.00750676
0.00727897
0.00707415
0.00688539
0.00670711
0.0065354
0.00636684
0.00619933
0.00603161
0.00586168
0.00568504
0.0054973
0.00531283
0.00521169
0.0107152
0.00998136
0.00888846
0.00822249
0.00781989
0.00754614
0.00733494
0.00714869
0.00697424
0.00680683
0.00664396
0.00648386
0.00632491
0.00616605
0.0060072
0.00584738
0.00568393
0.00550872
0.00529188
0.00495551
0.017894
0.0107796
0.00848813
0.0079503
0.00767592
0.00745368
0.00726696
0.00710042
0.0069391
0.0067794
0.00662135
0.00646471
0.00630809
0.00614976
0.00598979
0.00582707
0.00565842
0.00547878
0.005233
0.00475429
0.0107152
0.00998137
0.00888847
0.0082225
0.0078199
0.00754614
0.00733494
0.00714869
0.00697424
0.00680683
0.00664396
0.00648386
0.00632491
0.00616604
0.00600717
0.00584738
0.00568396
0.0055088
0.00529207
0.00495601
0.010367
0.00951547
0.0087512
0.00819207
0.00781592
0.00754793
0.00733234
0.00713951
0.00696123
0.00679293
0.00662977
0.00646965
0.00631219
0.00615733
0.00600468
0.0058538
0.00570418
0.00555702
0.00542503
0.00533333
0.00995772
0.00919499
0.00857623
0.00812493
0.00778099
0.00751203
0.00729254
0.00710396
0.00693648
0.0067796
0.00662482
0.00647098
0.00631918
0.00617069
0.00602728
0.00589195
0.00576923
0.00566564
0.00559798
0.00558911
0.00982351
0.00908233
0.00849416
0.00808606
0.00776415
0.0074975
0.00727607
0.00708562
0.00691518
0.00675903
0.00661007
0.00646171
0.00631355
0.0061682
0.00602927
0.00590094
0.00578879
0.00570006
0.005651
0.00566607
0.00982349
0.0090823
0.00849413
0.00808602
0.00776409
0.00749739
0.00727591
0.00708535
0.00691474
0.00675829
0.00660885
0.00645969
0.00631021
0.00616262
0.00601961
0.00588391
0.00575923
0.00564925
0.00556014
0.00550441
0.00995767
0.00919493
0.00857616
0.00812483
0.00778085
0.00751181
0.00729217
0.00710333
0.00693544
0.00677789
0.00662202
0.0064664
0.0063117
0.00615837
0.00600659
0.00585665
0.00570897
0.00556461
0.00542827
0.00531185
0.0103669
0.00951542
0.00875113
0.00819197
0.00781578
0.0075477
0.00733195
0.00713888
0.00696021
0.00679125
0.00662702
0.00646521
0.00630505
0.00614576
0.00598577
0.00582287
0.0056531
0.00547112
0.00527408
0.0050553
0.0107152
0.00998134
0.00888844
0.00822245
0.00781982
0.00754601
0.00733473
0.00714834
0.00697365
0.00680586
0.00664239
0.00648131
0.00632063
0.00615896
0.00599572
0.00582882
0.00565305
0.00545492
0.00519021
0.00474382
0.017894
0.0107796
0.00848813
0.0079503
0.00767592
0.00745367
0.00726696
0.00710042
0.00693911
0.0067794
0.00662136
0.00646472
0.0063081
0.00614978
0.00598982
0.00582708
0.00565841
0.00547875
0.0052329
0.00475408
0.00566396
0.00495187
0.00447184
0.00435708
0.00426175
0.00413219
0.00399992
0.00386952
0.00373975
0.00361003
0.00348017
0.0033511
0.00322272
0.00309519
0.00296753
0.00284009
0.0027138
0.00258832
0.0024647
0.00234183
0.00221991
0.00209863
0.00197839
0.00185964
0.00174187
0.00162531
0.00150915
0.00139382
0.00127922
0.00116556
0.00105342
0.000941715
0.000829979
0.000718168
0.000607526
0.000498078
0.000388238
0.000277377
0.000168154
5.16763e-05
0.00568855
0.00502613
0.00456066
0.00439243
0.00427383
0.00414257
0.00401007
0.00387859
0.00374693
0.00361504
0.00348284
0.00335137
0.00322038
0.00309032
0.00296093
0.00283236
0.00270538
0.00257954
0.00245568
0.0023328
0.00221093
0.00209024
0.00197107
0.00185314
0.00173584
0.00161932
0.00150311
0.00138778
0.00127328
0.00115983
0.0010479
0.000936568
0.000825271
0.000713796
0.00060351
0.000494505
0.000384977
0.00027465
0.000165483
5.0918e-05
0.00536558
0.0050285
0.00469815
0.00448495
0.00432709
0.00417992
0.0040363
0.00389636
0.00375875
0.00362254
0.00348712
0.00335316
0.00322
0.00308832
0.0029583
0.00282958
0.00270236
0.00257636
0.00245204
0.00232854
0.00220649
0.00208547
0.00196592
0.00184757
0.00172988
0.00161326
0.00149702
0.00138185
0.00126771
0.0011546
0.00104276
0.000931928
0.000821082
0.000710269
0.00060067
0.000491788
0.000382299
0.000272249
0.000163717
5.0013e-05
0.00506409
0.00494273
0.00474511
0.00455394
0.00438626
0.00422988
0.00407838
0.00393088
0.00378695
0.00364593
0.00350731
0.00337102
0.00323679
0.00310441
0.00297363
0.0028443
0.00271632
0.00258951
0.00246408
0.00233943
0.00221583
0.00209267
0.00197052
0.00185012
0.00173123
0.00161376
0.00149743
0.00138226
0.00126807
0.00115481
0.00104208
0.000930473
0.000819172
0.000708461
0.000599263
0.000490418
0.000380987
0.000271487
0.000163371
4.96648e-05
0.00493179
0.0048661
0.0047365
0.00456826
0.00440118
0.00424194
0.00408811
0.0039394
0.00379452
0.00365246
0.00351285
0.00337627
0.00324238
0.0031103
0.00297968
0.00285046
0.00272256
0.0025959
0.00247044
0.00234609
0.00222298
0.002101
0.00197982
0.00185953
0.00174033
0.0016224
0.00150576
0.00139031
0.00127602
0.00116232
0.00104864
0.000935552
0.000823236
0.000712086
0.00060251
0.000493036
0.000382854
0.00027257
0.000163843
4.97809e-05
0.00489782
0.0048394
0.00471605
0.00455813
0.00439597
0.00423674
0.00408256
0.00393406
0.00379052
0.00365028
0.00351231
0.0033768
0.00324348
0.0031118
0.00298156
0.00285264
0.00272499
0.00259854
0.00247327
0.0023492
0.00222629
0.00210451
0.00198388
0.0018643
0.00174538
0.00162704
0.00150955
0.00139345
0.00127889
0.00116531
0.00105243
0.000940373
0.000828966
0.000718259
0.00060823
0.000497975
0.000386895
0.00027528
0.000165409
5.07016e-05
0.0049952
0.00488679
0.00472096
0.0045463
0.00437962
0.00422076
0.00406789
0.00392156
0.00378036
0.00364229
0.00350647
0.00337246
0.00323985
0.00310871
0.00297908
0.00285072
0.00272352
0.00259748
0.00247261
0.00234886
0.00222621
0.00210469
0.0019841
0.00186447
0.00174557
0.00162738
0.00150994
0.00139405
0.00127963
0.00116636
0.0010543
0.000942497
0.000830543
0.000719348
0.000609613
0.000499919
0.000389456
0.00027833
0.000168016
5.23622e-05
0.00519403
0.00498334
0.0047393
0.00453392
0.00435819
0.00419769
0.00404699
0.00390343
0.00376468
0.00362906
0.0034954
0.00336296
0.00323132
0.00310078
0.00297169
0.00284385
0.00271725
0.00259175
0.0024674
0.00234421
0.00222202
0.00210101
0.00198059
0.00186148
0.00174362
0.00162712
0.00151154
0.00139657
0.00128242
0.00116927
0.00105743
0.000945618
0.000833237
0.000721639
0.000611897
0.000502484
0.000392421
0.000281232
0.000170063
5.36124e-05
0.00544829
0.00505706
0.00469991
0.00447085
0.00429987
0.00414763
0.00400494
0.00386975
0.00373875
0.00360873
0.00347886
0.00334971
0.00322228
0.00309571
0.00296896
0.00284199
0.00271596
0.00259068
0.00246657
0.00234373
0.00222154
0.00210033
0.00197989
0.00186116
0.00174362
0.00162776
0.00151259
0.00139762
0.00128313
0.0011695
0.00105743
0.000945609
0.000833318
0.000721487
0.000611225
0.00050105
0.000390734
0.000279916
0.000168699
5.30084e-05
0.00568111
0.00502256
0.00455398
0.00438213
0.00425971
0.00412195
0.00398738
0.00385879
0.00373206
0.00360541
0.0034777
0.00335058
0.00322566
0.00310109
0.00297537
0.00284884
0.00272298
0.0025979
0.00247407
0.00235142
0.00222905
0.00210713
0.00198599
0.00186667
0.00174887
0.00163214
0.00151613
0.00140069
0.00128586
0.00117198
0.00105975
0.000947865
0.00083563
0.000723651
0.000613045
0.000502345
0.000391739
0.000281165
0.000170121
5.37141e-05
0.00566388
0.00495175
0.00447282
0.00435908
0.0042623
0.00413057
0.00399768
0.00386811
0.00373886
0.00360976
0.00347979
0.00335064
0.00322305
0.00309545
0.00296776
0.00284022
0.00271387
0.00258854
0.00246457
0.00234188
0.00221967
0.00209834
0.00197813
0.00185953
0.00174214
0.00162548
0.00150949
0.0013941
0.00127942
0.00116571
0.00105356
0.000941923
0.000830109
0.000718512
0.000608262
0.000497954
0.000387794
0.000277484
0.000168141
5.15868e-05
0.00568127
0.00502273
0.00455301
0.00438014
0.00425882
0.00412312
0.00398946
0.00386029
0.00373307
0.00360583
0.00347818
0.00335118
0.00322562
0.00310118
0.00297534
0.00284881
0.00272289
0.0025976
0.00247408
0.00235123
0.00222915
0.0021072
0.00198599
0.00186649
0.00174843
0.00163187
0.00151577
0.00140041
0.00128564
0.00117178
0.0010595
0.000947542
0.000835408
0.000723175
0.00061212
0.000502297
0.00039212
0.000280952
0.000169957
5.37243e-05
0.00543639
0.00501194
0.00466667
0.00445427
0.00429414
0.00414683
0.00400807
0.00387565
0.00374528
0.00361551
0.00348594
0.00335722
0.00322871
0.0031011
0.00297389
0.00284721
0.00272134
0.00259644
0.00247317
0.00235039
0.00222922
0.00210809
0.00198759
0.00186824
0.00174975
0.00163298
0.00151641
0.00140072
0.00128593
0.00117208
0.00105967
0.000947739
0.000835458
0.000723356
0.000612456
0.000502399
0.000392219
0.000281191
0.000171004
5.42495e-05
0.00518638
0.00493802
0.00470058
0.00449274
0.0043204
0.00416494
0.00401868
0.00387975
0.00374481
0.00361192
0.00348049
0.00334974
0.00322009
0.00309152
0.00296392
0.00283742
0.00271168
0.00258726
0.00246391
0.00234125
0.00221954
0.00209846
0.00197826
0.00185914
0.0017409
0.00162396
0.00150806
0.00139297
0.00127894
0.00116585
0.00105306
0.000940897
0.000828846
0.000717732
0.000608105
0.000498251
0.000387566
0.000276818
0.000167609
5.26771e-05
0.00497714
0.00481904
0.00466129
0.00448809
0.00432647
0.00417731
0.00403423
0.00389487
0.00375825
0.00362373
0.00349113
0.00335939
0.00322901
0.00309971
0.00297138
0.00284418
0.00271795
0.0025929
0.00246871
0.00234568
0.00222331
0.00210171
0.00198095
0.00186164
0.00174362
0.0016262
0.00151001
0.00139471
0.00128031
0.00116658
0.00105306
0.00093992
0.000827605
0.00071653
0.000606613
0.000496533
0.000386079
0.000275893
0.00016686
5.32041e-05
0.00481113
0.00468168
0.0045896
0.00445777
0.00431338
0.00417311
0.00403561
0.00389817
0.00376187
0.00362753
0.00349489
0.00336342
0.00323294
0.00310345
0.0029751
0.0028479
0.00272177
0.00259674
0.00247266
0.00234964
0.00222735
0.00210578
0.00198522
0.0018658
0.00174734
0.00162966
0.00151333
0.0013983
0.00128407
0.0011701
0.00105641
0.000943151
0.000830986
0.000719668
0.000608678
0.000497565
0.00038616
0.000275171
0.000165699
5.34584e-05
0.00484743
0.00470305
0.00460015
0.00446881
0.00432531
0.00418516
0.00404617
0.00390718
0.00376924
0.0036335
0.00349997
0.00336779
0.00323676
0.00310691
0.00297823
0.00285071
0.00272429
0.00259899
0.00247474
0.00235149
0.0022291