/*--------------------------------*- C++ -*----------------------------------*\
| =========                 |                                                 |
| \\      /  F ield         | OpenFOAM: The Open Source CFD Toolbox           |
|  \\    /   O peration     | Version:  2212                                  |
|   \\  /    A nd           | Website:  www.openfoam.com                      |
|    \\/     M anipulation  |                                                 |
\*---------------------------------------------------------------------------*/
FoamFile
{
    version     2.0;
    format      ascii;
    arch        "LSB;label=32;scalar=64";
    class       surfaceScalarField;
    location    "2.5";
    object      phi;
}
// * * * * * * * * * * * * * * * * * * * * * * * * * * * * * * * * * * * * * //

dimensions      [0 3 -1 0 0 0 0];

oriented        oriented;

internalField   nonuniform List<scalar> 
19019
(
3.3225e-07
1.09686e-09
1.09676e-09
2.79191e-07
2.65296e-08
2.65293e-08
2.49218e-07
1.49865e-08
1.49859e-08
2.29255e-07
9.98216e-09
9.98121e-09
2.14836e-07
7.21039e-09
7.20857e-09
2.03201e-07
5.81886e-09
5.81605e-09
1.93774e-07
4.7161e-09
4.71083e-09
1.86007e-07
3.88783e-09
3.87857e-09
1.79361e-07
3.33124e-09
3.31543e-09
1.73535e-07
2.92632e-09
2.89967e-09
1.68367e-07
2.60569e-09
2.56231e-09
1.63753e-07
2.34239e-09
2.27134e-09
1.59608e-07
2.1342e-09
2.01111e-09
1.55862e-07
1.97813e-09
1.76703e-09
1.52535e-07
1.83808e-09
1.48957e-09
1.49691e-07
1.70685e-09
1.13712e-09
1.47462e-07
1.57498e-09
6.53935e-10
1.47147e-07
9.19915e-10
-6.04802e-10
1.5102e-07
-5.52918e-10
-3.32071e-09
-1.45485e-08
-2.7618e-08
6.3138e-07
3.58755e-09
7.40285e-09
6.14564e-07
2.26456e-08
2.07001e-08
5.86446e-07
2.43754e-08
1.87289e-08
5.61728e-07
1.88537e-08
1.58463e-08
5.39623e-07
1.55673e-08
1.37484e-08
5.20646e-07
1.35065e-08
1.12893e-08
5.04707e-07
1.19456e-08
8.70971e-09
4.90965e-07
1.07891e-08
6.84045e-09
4.78763e-07
9.92936e-09
5.60404e-09
4.67713e-07
9.20863e-09
4.76784e-09
4.5759e-07
8.56628e-09
4.16218e-09
4.48266e-07
7.97261e-09
3.69343e-09
4.39651e-07
7.40794e-09
3.34123e-09
4.3169e-07
6.86103e-09
3.07788e-09
4.24442e-07
6.27825e-09
2.80798e-09
4.18093e-07
5.57897e-09
2.4765e-09
4.13267e-07
4.53801e-09
1.86303e-09
4.12116e-07
1.96815e-09
1.02688e-10
4.19436e-07
-3.17433e-09
-4.69838e-09
-1.65117e-08
-2.0501e-08
8.90375e-07
2.85251e-09
6.33231e-09
8.82487e-07
1.3408e-08
1.71256e-08
8.70361e-07
1.78659e-08
1.86355e-08
8.55115e-07
1.69525e-08
1.71464e-08
8.39988e-07
1.53352e-08
1.53595e-08
8.25544e-07
1.41611e-08
1.37894e-08
8.11784e-07
1.33638e-08
1.2342e-08
7.98804e-07
1.26485e-08
1.1121e-08
7.86754e-07
1.1842e-08
1.01373e-08
7.7565e-07
1.09671e-08
9.34552e-09
7.6536e-07
1.01106e-08
8.74481e-09
7.5575e-07
9.28051e-09
8.30302e-09
7.46718e-07
8.46604e-09
7.97347e-09
7.38251e-07
7.62774e-09
7.70025e-09
7.3041e-07
6.67962e-09
7.43929e-09
7.23483e-07
5.42392e-09
7.08228e-09
7.1794e-07
3.63533e-09
6.44572e-09
7.14103e-07
7.25833e-10
5.07926e-09
7.12514e-07
-4.22996e-09
2.64369e-09
-1.29768e-08
-2.40293e-09
1.07432e-06
1.06464e-09
5.56887e-09
1.06824e-06
5.58589e-09
1.39002e-08
1.06138e-06
8.46268e-09
1.62616e-08
1.05339e-06
9.03753e-09
1.59086e-08
1.0451e-06
8.61374e-09
1.5002e-08
1.03722e-06
8.11319e-09
1.39337e-08
1.02983e-06
7.77369e-09
1.29783e-08
1.02283e-06
7.53233e-09
1.21174e-08
1.01599e-06
7.33186e-09
1.13499e-08
1.00923e-06
7.02126e-09
1.07017e-08
1.00259e-06
6.53925e-09
1.02139e-08
9.96037e-07
5.97116e-09
9.86306e-09
9.89518e-07
5.36136e-09
9.62409e-09
9.82966e-07
4.6916e-09
9.48815e-09
9.76287e-07
3.9213e-09
9.43716e-09
9.69414e-07
2.85353e-09
9.44286e-09
9.62265e-07
1.29985e-09
9.48424e-09
9.54412e-07
-1.00871e-09
9.58793e-09
9.45028e-07
-4.68467e-09
9.83868e-09
-9.85349e-09
1.0716e-08
1.16914e-06
-1.03322e-13
4.90652e-09
1.16312e-06
-4.70727e-13
1.16084e-08
1.15731e-06
-1.01343e-12
1.42756e-08
1.15201e-06
-1.75317e-12
1.43342e-08
1.1469e-06
-2.91783e-12
1.37321e-08
1.14204e-06
-4.90193e-12
1.29727e-08
1.13772e-06
-8.28097e-12
1.21064e-08
1.13395e-06
-1.37929e-11
1.13179e-08
1.13064e-06
-2.29613e-11
1.06673e-08
1.12747e-06
-3.81144e-11
1.02204e-08
1.12413e-06
-6.32419e-11
9.9467e-09
1.12043e-06
-1.04878e-10
9.7768e-09
1.11624e-06
-1.74469e-10
9.72851e-09
1.11138e-06
-2.95415e-10
9.84349e-09
1.10565e-06
-4.94931e-10
1.0149e-08
1.09863e-06
-8.41084e-10
1.07127e-08
1.08967e-06
-1.42929e-09
1.16837e-08
1.07794e-06
-2.48773e-09
1.32095e-08
1.06258e-06
-4.38398e-09
1.50658e-08
-7.97704e-09
1.8657e-08
1.16914e-06
-1.06485e-09
4.90656e-09
1.16312e-06
-5.58662e-09
1.16086e-08
1.15731e-06
-8.4641e-09
1.42758e-08
1.15201e-06
-9.03992e-09
1.43346e-08
1.14689e-06
-8.61791e-09
1.37331e-08
1.14203e-06
-8.12041e-09
1.29746e-08
1.1377e-06
-7.78596e-09
1.21092e-08
1.13392e-06
-7.55272e-09
1.13225e-08
1.13059e-06
-7.36593e-09
1.06752e-08
1.12739e-06
-7.07685e-09
1.02336e-08
1.12399e-06
-6.62942e-09
9.96789e-09
1.12019e-06
-6.11738e-09
9.81266e-09
1.11582e-06
-5.60206e-09
9.79474e-09
1.11065e-06
-5.09444e-09
9.9691e-09
1.10436e-06
-4.57789e-09
1.03749e-08
1.09638e-06
-3.98803e-09
1.11279e-08
1.08572e-06
-3.22914e-09
1.24581e-08
1.07081e-06
-2.23115e-09
1.46588e-08
1.04945e-06
-7.20477e-10
1.76893e-08
2.13996e-10
2.57855e-08
1.07432e-06
-2.85251e-09
5.56888e-09
1.06824e-06
-1.3408e-08
1.39003e-08
1.06138e-06
-1.7866e-08
1.62621e-08
1.05338e-06
-1.69529e-08
1.59098e-08
1.04509e-06
-1.53359e-08
1.50042e-08
1.0372e-06
-1.41625e-08
1.39369e-08
1.0298e-06
-1.33663e-08
1.29833e-08
1.02277e-06
-1.26521e-08
1.21254e-08
1.01589e-06
-1.18476e-08
1.13631e-08
1.00906e-06
-1.09754e-08
1.07243e-08
1.0023e-06
-1.01227e-08
1.02523e-08
9.95553e-07
-9.29846e-09
9.93066e-09
9.88702e-07
-8.49442e-09
9.74331e-09
9.81583e-07
-7.67415e-09
9.69938e-09
9.73937e-07
-6.75034e-09
9.81777e-09
9.65384e-07
-5.58906e-09
1.01545e-08
9.55267e-07
-3.93539e-09
1.08228e-08
9.42391e-07
-1.33725e-09
1.19823e-08
9.2505e-07
2.94638e-09
1.36745e-08
8.88411e-09
1.89596e-08
8.90375e-07
-3.58745e-09
6.33236e-09
8.82486e-07
-2.26452e-08
1.7126e-08
8.70358e-07
-2.43749e-08
1.86362e-08
8.55111e-07
-1.88528e-08
1.71477e-08
8.39979e-07
-1.55656e-08
1.53613e-08
8.25528e-07
-1.35036e-08
1.37919e-08
8.11756e-07
-1.19405e-08
1.23462e-08
7.98756e-07
-1.07804e-08
1.11282e-08
7.86674e-07
-9.91468e-09
1.01491e-08
7.75517e-07
-9.1838e-09
9.36493e-09
7.65142e-07
-8.5246e-09
8.77763e-09
7.55389e-07
-7.90542e-09
8.36003e-09
7.46122e-07
-7.30003e-09
8.07169e-09
7.37264e-07
-6.68605e-09
7.87067e-09
7.28762e-07
-5.99584e-09
7.74699e-09
7.20654e-07
-5.15001e-09
7.66974e-09
7.13013e-07
-3.876e-09
7.58131e-09
7.0547e-07
-1.14147e-09
7.3479e-09
6.96847e-07
4.48416e-09
7.08525e-09
2.35391e-08
5.07117e-09
6.3138e-07
-1.09678e-09
7.40291e-09
6.14564e-07
-2.65293e-08
2.07004e-08
5.86445e-07
-1.4986e-08
1.87294e-08
5.61727e-07
-9.98127e-09
1.58472e-08
5.3962e-07
-7.20864e-09
1.37497e-08
5.20641e-07
-5.81613e-09
1.12917e-08
5.04698e-07
-4.71091e-09
8.71354e-09
4.90949e-07
-3.87866e-09
6.84655e-09
4.78736e-07
-3.31553e-09
5.61409e-09
4.67667e-07
-2.89978e-09
4.78475e-09
4.57512e-07
-2.56243e-09
4.19346e-09
4.48132e-07
-2.27145e-09
3.74577e-09
4.39431e-07
-2.01132e-09
3.41204e-09
4.31332e-07
-1.76711e-09
3.17994e-09
4.23845e-07
-1.48936e-09
2.98065e-09
4.17047e-07
-1.13705e-09
2.78494e-09
4.11374e-07
-6.53914e-10
2.452e-09
4.08438e-07
6.04948e-10
1.18896e-09
4.12461e-07
3.32124e-09
-2.85971e-09
2.76192e-08
-2.20074e-08
3.3225e-07
1.09685e-09
2.79191e-07
2.65296e-08
2.49218e-07
1.49865e-08
2.29255e-07
9.98213e-09
2.14836e-07
7.21035e-09
2.03201e-07
5.81883e-09
1.93774e-07
4.71607e-09
1.86007e-07
3.88781e-09
1.7936e-07
3.33122e-09
1.73534e-07
2.9263e-09
1.68366e-07
2.60568e-09
1.63752e-07
2.34239e-09
1.59607e-07
2.13432e-09
1.55861e-07
1.97844e-09
1.52533e-07
1.83853e-09
1.49689e-07
1.70758e-09
1.47459e-07
1.57583e-09
1.47143e-07
9.21023e-10
1.51016e-07
-5.513e-10
-1.45455e-08
6.3138e-07
7.4029e-09
3.58743e-09
6.14564e-07
2.07004e-08
2.26452e-08
5.86445e-07
1.87293e-08
2.43748e-08
5.61727e-07
1.58471e-08
1.88527e-08
5.3962e-07
1.37496e-08
1.55655e-08
5.20641e-07
1.12916e-08
1.35035e-08
5.04698e-07
8.71348e-09
1.19404e-08
4.9095e-07
6.84647e-09
1.07803e-08
4.78737e-07
5.61398e-09
9.91453e-09
4.67668e-07
4.78462e-09
9.18361e-09
4.57513e-07
4.19331e-09
8.52438e-09
4.48133e-07
3.74555e-09
7.90516e-09
4.39433e-07
3.41135e-09
7.2998e-09
4.31335e-07
3.17928e-09
6.68555e-09
4.23849e-07
2.98041e-09
5.99507e-09
4.17053e-07
2.78422e-09
5.14909e-09
4.11381e-07
2.45094e-09
3.87477e-09
4.08449e-07
1.18758e-09
1.14e-09
4.12476e-07
-2.86149e-09
-4.4857e-09
-2.2011e-08
-2.35397e-08
9.23617e-07
7.03383e-09
7.03371e-09
9.25318e-07
1.98496e-08
1.98492e-08
9.17185e-07
2.27962e-08
2.27956e-08
9.04277e-07
2.23014e-08
2.23002e-08
8.90537e-07
2.062e-08
2.0618e-08
8.77414e-07
1.78533e-08
1.78497e-08
8.65449e-07
1.46971e-08
1.46912e-08
8.54779e-07
1.21833e-08
1.21738e-08
8.45353e-07
1.03304e-08
1.0314e-08
8.3703e-07
8.95154e-09
8.92369e-09
8.29631e-07
7.90026e-09
7.85385e-09
8.22981e-07
7.08192e-09
7.00713e-09
8.17e-07
6.42544e-09
6.30844e-09
8.11729e-07
5.85598e-09
5.67209e-09
8.07247e-07
5.27855e-09
4.99163e-09
8.03713e-07
4.61354e-09
4.18121e-09
8.01311e-07
3.6699e-09
3.04571e-09
7.99391e-07
2.02699e-09
1.18389e-09
7.9474e-07
-1.00902e-09
-1.90035e-09
-6.46268e-09
-6.91278e-09
1.1589e-06
5.28121e-09
6.10238e-09
1.1657e-06
1.39982e-08
1.61821e-08
1.16845e-06
1.79768e-08
2.0705e-08
1.16662e-06
1.9177e-08
2.21023e-08
1.16222e-06
1.88732e-08
2.15029e-08
1.15655e-06
1.75406e-08
1.97667e-08
1.1505e-06
1.56763e-08
1.74202e-08
1.14461e-06
1.38697e-08
1.53214e-08
1.1392e-06
1.22561e-08
1.36169e-08
1.13441e-06
1.08379e-08
1.22492e-08
1.13025e-06
9.64866e-09
1.11586e-08
1.12669e-06
8.65175e-09
1.02914e-08
1.12373e-06
7.77878e-09
9.58386e-09
1.12138e-06
6.94706e-09
8.96244e-09
1.11966e-06
6.0621e-09
8.36797e-09
1.11862e-06
5.03138e-09
7.70619e-09
1.11822e-06
3.6857e-09
6.83048e-09
1.11792e-06
1.82932e-09
5.58028e-09
1.11646e-06
-7.44287e-10
3.83642e-09
-4.19274e-09
2.12143e-09
1.32763e-06
2.718e-09
4.93097e-09
1.33539e-06
7.12014e-09
1.30086e-08
1.34287e-06
9.5521e-09
1.72153e-08
1.34848e-06
1.05757e-08
1.88988e-08
1.35198e-06
1.08712e-08
1.95013e-08
1.35376e-06
1.05738e-08
1.91163e-08
1.35443e-06
9.88065e-09
1.81034e-08
1.35458e-06
9.02745e-09
1.68166e-08
1.35455e-06
8.16309e-09
1.54736e-08
1.35449e-06
7.3427e-09
1.42507e-08
1.35449e-06
6.58889e-09
1.32776e-08
1.35459e-06
5.89444e-09
1.25237e-08
1.3548e-06
5.23777e-09
1.19485e-08
1.35515e-06
4.56986e-09
1.15171e-08
1.35564e-06
3.81205e-09
1.11976e-08
1.35624e-06
2.90183e-09
1.09671e-08
1.35687e-06
1.7267e-09
1.08139e-08
1.35734e-06
1.93773e-10
1.07543e-08
1.35741e-06
-1.82968e-09
1.08578e-08
-4.06175e-09
1.1515e-08
1.41518e-06
-1.77498e-13
4.19282e-09
1.42279e-06
-5.07708e-13
1.11159e-08
1.43152e-06
-8.80035e-13
1.50986e-08
1.4398e-06
-1.52791e-12
1.663e-08
1.44713e-06
-2.65892e-12
1.72775e-08
1.45317e-06
-4.42958e-12
1.75143e-08
1.458e-06
-7.10673e-12
1.71608e-08
1.46191e-06
-1.14033e-11
1.64502e-08
1.46518e-06
-1.86561e-11
1.5573e-08
1.46807e-06
-3.12765e-11
1.47095e-08
1.47073e-06
-5.19697e-11
1.39256e-08
1.47321e-06
-8.58461e-11
1.32784e-08
1.47545e-06
-1.36494e-10
1.28616e-08
1.4774e-06
-2.16055e-10
1.26789e-08
1.47903e-06
-3.42676e-10
1.26751e-08
1.48027e-06
-5.39144e-10
1.29139e-08
1.48101e-06
-8.31517e-10
1.34979e-08
1.48115e-06
-1.24543e-09
1.45062e-08
1.4803e-06
-1.78538e-09
1.58762e-08
-2.24193e-09
1.76141e-08
1.41518e-06
-2.71821e-09
4.19291e-09
1.42279e-06
-7.12074e-09
1.11161e-08
1.43152e-06
-9.55319e-09
1.5099e-08
1.4398e-06
-1.05777e-08
1.66307e-08
1.44712e-06
-1.08746e-08
1.72791e-08
1.45316e-06
-1.05793e-08
1.75169e-08
1.45798e-06
-9.88943e-09
1.71649e-08
1.46188e-06
-9.04154e-09
1.64566e-08
1.46514e-06
-8.18602e-09
1.55831e-08
1.468e-06
-7.38213e-09
1.4726e-08
1.47061e-06
-6.65492e-09
1.39532e-08
1.47302e-06
-6.00245e-09
1.33263e-08
1.47514e-06
-5.40321e-09
1.29436e-08
1.4769e-06
-4.82919e-09
1.28124e-08
1.47828e-06
-4.23552e-09
1.2892e-08
1.47917e-06
-3.59094e-09
1.32852e-08
1.47951e-06
-2.83211e-09
1.41192e-08
1.47933e-06
-1.91325e-09
1.55104e-08
1.47862e-06
-8.00306e-10
1.74116e-08
4.13714e-10
1.9442e-08
1.32762e-06
-5.28115e-09
4.93114e-09
1.33539e-06
-1.39981e-08
1.30091e-08
1.34286e-06
-1.79768e-08
1.72162e-08
1.34847e-06
-1.9177e-08
1.89009e-08
1.35197e-06
-1.88731e-08
1.95049e-08
1.35374e-06
-1.75401e-08
1.91217e-08
1.3544e-06
-1.56756e-08
1.81118e-08
1.35453e-06
-1.3869e-08
1.68299e-08
1.35446e-06
-1.22541e-08
1.54944e-08
1.35435e-06
-1.08338e-08
1.42846e-08
1.35426e-06
-9.64109e-09
1.33357e-08
1.3542e-06
-8.63716e-09
1.26209e-08
1.35418e-06
-7.74792e-09
1.21084e-08
1.35416e-06
-6.89336e-09
1.17807e-08
1.35409e-06
-5.98525e-09
1.16362e-08
1.35388e-06
-4.92399e-09
1.16981e-08
1.3534e-06
-3.5441e-09
1.20228e-08
1.35241e-06
-1.61683e-09
1.26683e-08
1.3504e-06
1.28613e-09
1.36026e-08
5.8139e-09
1.45543e-08
1.1589e-06
-7.03372e-09
6.10256e-09
1.1657e-06
-1.98492e-08
1.61828e-08
1.16844e-06
-2.27956e-08
2.07063e-08
1.16661e-06
-2.23002e-08
2.21044e-08
1.16221e-06
-2.06181e-08
2.1506e-08
1.15654e-06
-1.78498e-08
1.97712e-08
1.15048e-06
-1.46913e-08
1.74276e-08
1.14458e-06
-1.21739e-08
1.53339e-08
1.13915e-06
-1.03141e-08
1.3638e-08
1.13432e-06
-8.92383e-09
1.22837e-08
1.13009e-06
-7.85404e-09
1.12153e-08
1.12644e-06
-7.00745e-09
1.03829e-08
1.12334e-06
-6.30936e-09
9.73156e-09
1.12079e-06
-5.67222e-09
9.19893e-09
1.1188e-06
-4.99096e-09
8.74506e-09
1.11742e-06
-4.1817e-09
8.30644e-09
1.11672e-06
-3.04688e-09
7.78591e-09
1.11662e-06
-1.1854e-09
7.01727e-09
1.11743e-06
1.89895e-09
5.65711e-09
6.90955e-09
3.29887e-09
9.23617e-07
-7.40285e-09
7.03383e-09
9.25318e-07
-2.07001e-08
1.98496e-08
9.17185e-07
-1.87289e-08
2.27962e-08
9.04277e-07
-1.58463e-08
2.23014e-08
8.90537e-07
-1.37484e-08
2.062e-08
8.77414e-07
-1.12893e-08
1.78534e-08
8.65449e-07
-8.70971e-09
1.46972e-08
8.54778e-07
-6.84046e-09
1.21835e-08
8.45352e-07
-5.60405e-09
1.03306e-08
8.37029e-07
-4.76784e-09
8.95185e-09
8.2963e-07
-4.16214e-09
7.90063e-09
8.22979e-07
-3.69339e-09
7.08237e-09
8.16997e-07
-3.34145e-09
6.42642e-09
8.11725e-07
-3.07804e-09
5.85698e-09
8.07243e-07
-2.80767e-09
5.27936e-09
8.03708e-07
-2.47653e-09
4.61495e-09
8.01305e-07
-1.86316e-09
3.67152e-09
7.99383e-07
-1.02786e-10
2.02887e-09
7.94731e-07
4.69821e-09
-1.00702e-09
2.05002e-08
-6.45767e-09
6.3138e-07
3.58753e-09
6.14564e-07
2.26456e-08
5.86446e-07
2.43754e-08
5.61728e-07
1.88537e-08
5.39623e-07
1.55674e-08
5.20646e-07
1.35066e-08
5.04706e-07
1.19457e-08
4.90965e-07
1.07892e-08
4.78762e-07
9.92952e-09
4.67712e-07
9.20885e-09
4.57589e-07
8.56656e-09
4.48265e-07
7.97294e-09
4.39649e-07
7.40823e-09
4.31687e-07
6.86218e-09
4.24438e-07
6.28029e-09
4.18088e-07
5.58114e-09
4.1326e-07
4.54043e-09
4.12107e-07
1.971e-09
4.19424e-07
-3.17012e-09
-1.65069e-08
8.90375e-07
6.33236e-09
2.8525e-09
8.82486e-07
1.71259e-08
1.3408e-08
8.70358e-07
1.86362e-08
1.78659e-08
8.55111e-07
1.71476e-08
1.69528e-08
8.39979e-07
1.53613e-08
1.53358e-08
8.25528e-07
1.37919e-08
1.41624e-08
8.11756e-07
1.23461e-08
1.33662e-08
7.98756e-07
1.11281e-08
1.2652e-08
7.86675e-07
1.01489e-08
1.18474e-08
7.75518e-07
9.36475e-09
1.09752e-08
7.65143e-07
8.77738e-09
1.01224e-08
7.5539e-07
8.35962e-09
9.29805e-09
7.46125e-07
8.07106e-09
8.49391e-09
7.37267e-07
7.87e-09
7.67322e-09
7.28768e-07
7.74597e-09
6.74895e-09
7.20661e-07
7.668e-09
5.58744e-09
7.13024e-07
7.57867e-09
3.93317e-09
7.05486e-07
7.34402e-09
1.33447e-09
6.96871e-07
7.07967e-09
-2.95071e-09
5.06271e-09
-8.88691e-09
1.1589e-06
6.10256e-09
5.28115e-09
1.1657e-06
1.61827e-08
1.39981e-08
1.16844e-06
2.07062e-08
1.79767e-08
1.16661e-06
2.21043e-08
1.91769e-08
1.16221e-06
2.15059e-08
1.88731e-08
1.15654e-06
1.97711e-08
1.754e-08
1.15048e-06
1.74274e-08
1.56755e-08
1.14458e-06
1.53337e-08
1.38689e-08
1.13915e-06
1.36377e-08
1.22539e-08
1.13432e-06
1.22833e-08
1.08336e-08
1.13009e-06
1.12147e-08
9.64071e-09
1.12644e-06
1.03822e-08
8.63654e-09
1.12334e-06
9.73034e-09
7.7469e-09
1.1208e-06
9.19814e-09
6.89289e-09
1.1188e-06
8.74437e-09
5.98505e-09
1.11743e-06
8.3047e-09
4.9227e-09
1.11673e-06
7.78328e-09
3.54174e-09
1.11663e-06
7.01408e-09
1.61358e-09
1.11744e-06
5.65367e-09
-1.29072e-09
3.29324e-09
-5.82074e-09
1.37712e-06
4.57716e-09
4.577e-09
1.38565e-06
1.19165e-08
1.19161e-08
1.39417e-06
1.64458e-08
1.64451e-08
1.40126e-06
1.85585e-08
1.85574e-08
1.40642e-06
1.89273e-08
1.89255e-08
1.40952e-06
1.82179e-08
1.8215e-08
1.41096e-06
1.67093e-08
1.67044e-08
1.41156e-06
1.50321e-08
1.50243e-08
1.41186e-06
1.34822e-08
1.34694e-08
1.41214e-06
1.21356e-08
1.2115e-08
1.41258e-06
1.09822e-08
1.09489e-08
1.41331e-06
1.00029e-08
9.94943e-09
1.41438e-06
9.1633e-09
9.07711e-09
1.41584e-06
8.41696e-09
8.28061e-09
1.41771e-06
7.72336e-09
7.51593e-09
1.41998e-06
7.02523e-09
6.71734e-09
1.42253e-06
6.25663e-09
5.8127e-09
1.42501e-06
5.35719e-09
4.75438e-09
1.42663e-06
4.30922e-09
3.55732e-09
3.39426e-09
2.61502e-09
1.53312e-06
2.36579e-09
3.64912e-09
1.54218e-06
6.23817e-09
9.63333e-09
1.55328e-06
8.87219e-09
1.36909e-08
1.56445e-06
1.03453e-08
1.59354e-08
1.57507e-06
1.08969e-08
1.691e-08
1.58472e-06
1.07505e-08
1.69433e-08
1.59302e-06
1.01372e-08
1.63743e-08
1.6001e-06
9.32159e-09
1.54437e-08
1.60627e-06
8.4448e-09
1.43419e-08
1.61179e-06
7.61515e-09
1.32481e-08
1.61692e-06
6.87553e-09
1.22585e-08
1.62182e-06
6.22386e-09
1.13997e-08
1.62663e-06
5.63537e-09
1.06703e-08
1.63143e-06
5.07399e-09
1.00551e-08
1.63631e-06
4.51044e-09
9.53402e-09
1.6413e-06
3.9114e-09
9.08524e-09
1.64644e-06
3.24039e-09
8.69445e-09
1.65173e-06
2.46194e-09
8.3618e-09
1.65722e-06
1.56437e-09
8.11048e-09
6.68091e-10
8.13797e-09
1.61424e-06
-1.32608e-13
3.09278e-09
1.62332e-06
-3.35829e-13
8.27388e-09
1.63533e-06
-5.85602e-13
1.1957e-08
1.64819e-06
-9.84898e-13
1.41143e-08
1.66117e-06
-1.63642e-12
1.52003e-08
1.67385e-06
-2.56512e-12
1.55836e-08
1.68572e-06
-4.05164e-12
1.54317e-08
1.69654e-06
-6.28644e-12
1.49622e-08
1.70628e-06
-9.9798e-12
1.42925e-08
1.71509e-06
-1.5996e-11
1.3526e-08
1.72316e-06
-2.53853e-11
1.27547e-08
1.73065e-06
-3.95845e-11
1.20503e-08
1.73774e-06
-5.98924e-11
1.14667e-08
1.74455e-06
-8.91818e-11
1.10358e-08
1.7511e-06
-1.35844e-10
1.07756e-08
1.75743e-06
-2.03569e-10
1.0694e-08
1.76365e-06
-2.90952e-10
1.08062e-08
1.76989e-06
-3.87618e-10
1.11201e-08
1.7762e-06
-4.57467e-10
1.15827e-08
-4.19921e-10
1.21286e-08
1.61424e-06
-2.3659e-09
3.09288e-09
1.62332e-06
-6.23847e-09
8.27414e-09
1.63533e-06
-8.87275e-09
1.19574e-08
1.64819e-06
-1.03462e-08
1.41152e-08
1.66117e-06
-1.08983e-08
1.52019e-08
1.67385e-06
-1.07526e-08
1.5586e-08
1.68571e-06
-1.01404e-08
1.54352e-08
1.69652e-06
-9.3266e-09
1.49677e-08
1.70625e-06
-8.45268e-09
1.43011e-08
1.71505e-06
-7.62832e-09
1.35398e-08
1.72309e-06
-6.89739e-09
1.2777e-08
1.73055e-06
-6.25903e-09
1.20864e-08
1.7376e-06
-5.68859e-09
1.15244e-08
1.74435e-06
-5.15333e-09
1.11261e-08
1.75083e-06
-4.63735e-09
1.09162e-08
1.75712e-06
-4.11537e-09
1.09094e-08
1.76338e-06
-3.56111e-09
1.11251e-08
1.76989e-06
-2.94869e-09
1.15643e-08
1.77698e-06
-2.27328e-09
1.21372e-08
-1.56052e-09
1.26589e-08
1.53312e-06
-4.57701e-09
3.64933e-09
1.54218e-06
-1.19162e-08
9.63389e-09
1.55327e-06
-1.64452e-08
1.36919e-08
1.56445e-06
-1.85575e-08
1.59372e-08
1.57507e-06
-1.89255e-08
1.69129e-08
1.5847e-06
-1.82151e-08
1.69479e-08
1.593e-06
-1.67045e-08
1.63814e-08
1.60007e-06
-1.50245e-08
1.54551e-08
1.60622e-06
-1.34696e-08
1.43596e-08
1.61172e-06
-1.21152e-08
1.3276e-08
1.6168e-06
-1.09492e-08
1.23035e-08
1.62164e-06
-9.94987e-09
1.14719e-08
1.62635e-06
-9.07772e-09
1.07872e-08
1.63102e-06
-8.28124e-09
1.02424e-08
1.63571e-06
-7.51669e-09
9.82716e-09
1.64047e-06
-6.71856e-09
9.53685e-09
1.64538e-06
-5.81446e-09
9.37243e-09
1.65053e-06
-4.75682e-09
9.32368e-09
1.65609e-06
-3.56084e-09
9.3249e-09
-2.6214e-09
9.21049e-09
1.37712e-06
-6.10238e-09
4.57716e-09
1.38565e-06
-1.61822e-08
1.19166e-08
1.39417e-06
-2.0705e-08
1.64459e-08
1.40126e-06
-2.21024e-08
1.85587e-08
1.40642e-06
-2.15029e-08
1.89275e-08
1.40952e-06
-1.97667e-08
1.82181e-08
1.41096e-06
-1.74203e-08
1.67095e-08
1.41156e-06
-1.53215e-08
1.50325e-08
1.41186e-06
-1.36171e-08
1.34827e-08
1.41214e-06
-1.22493e-08
1.21362e-08
1.41258e-06
-1.11588e-08
1.0983e-08
1.4133e-06
-1.02915e-08
1.00039e-08
1.41438e-06
-9.58408e-09
9.16455e-09
1.41584e-06
-8.96285e-09
8.41833e-09
1.41771e-06
-8.36868e-09
7.72488e-09
1.41998e-06
-7.707e-09
7.02714e-09
1.42252e-06
-6.83138e-09
6.25889e-09
1.425e-06
-5.58141e-09
5.35959e-09
1.42663e-06
-3.8379e-09
4.31161e-09
-2.12561e-09
3.39769e-09
1.1589e-06
-6.33231e-09
5.28121e-09
1.1657e-06
-1.71257e-08
1.39982e-08
1.16845e-06
-1.86355e-08
1.79769e-08
1.16661e-06
-1.71464e-08
1.91771e-08
1.16222e-06
-1.53595e-08
1.88734e-08
1.15655e-06
-1.37894e-08
1.75408e-08
1.1505e-06
-1.2342e-08
1.56766e-08
1.14461e-06
-1.1121e-08
1.38701e-08
1.1392e-06
-1.01374e-08
1.22565e-08
1.13441e-06
-9.34558e-09
1.08384e-08
1.13025e-06
-8.74485e-09
9.64935e-09
1.12669e-06
-8.30299e-09
8.65254e-09
1.12373e-06
-7.97327e-09
7.77974e-09
1.12137e-06
-7.70046e-09
6.94861e-09
1.11966e-06
-7.44014e-09
6.06419e-09
1.11862e-06
-7.08304e-09
5.03362e-09
1.11822e-06
-6.44633e-09
3.68808e-09
1.11791e-06
-5.07982e-09
1.83181e-09
1.11645e-06
-2.64431e-09
-7.41403e-10
2.40192e-09
-4.18643e-09
8.90375e-07
2.8525e-09
8.82487e-07
1.3408e-08
8.70361e-07
1.78659e-08
8.55115e-07
1.69526e-08
8.39988e-07
1.53352e-08
8.25544e-07
1.41612e-08
8.11784e-07
1.3364e-08
7.98803e-07
1.26488e-08
7.86753e-07
1.18424e-08
7.75648e-07
1.09676e-08
7.65359e-07
1.01113e-08
7.55747e-07
9.28136e-09
7.46715e-07
8.4671e-09
7.38247e-07
7.6293e-09
7.30406e-07
6.68186e-09
7.23477e-07
5.42689e-09
7.17932e-07
3.63898e-09
7.14093e-07
7.29754e-10
7.12503e-07
-4.22432e-09
-1.29705e-08
1.07432e-06
5.56889e-09
1.06484e-09
1.06824e-06
1.39003e-08
5.58659e-09
1.06138e-06
1.62621e-08
8.46404e-09
1.05338e-06
1.59098e-08
9.03984e-09
1.04509e-06
1.50041e-08
8.6178e-09
1.0372e-06
1.39369e-08
8.12027e-09
1.0298e-06
1.29832e-08
7.78579e-09
1.02277e-06
1.21253e-08
7.55251e-09
1.01589e-06
1.13629e-08
7.36566e-09
1.00906e-06
1.07241e-08
7.07652e-09
1.0023e-06
1.0252e-08
6.62902e-09
9.95555e-07
9.9302e-09
6.11688e-09
9.88705e-07
9.7426e-09
5.60139e-09
9.81587e-07
9.6984e-09
5.09334e-09
9.73943e-07
9.81635e-09
4.5763e-09
9.65392e-07
1.01523e-08
3.98612e-09
9.55279e-07
1.08193e-08
3.22665e-09
9.42409e-07
1.19768e-08
2.22796e-09
9.25076e-07
1.36659e-08
7.15979e-10
1.89497e-08
-2.16499e-10
1.32762e-06
4.93114e-09
2.7182e-09
1.33539e-06
1.30091e-08
7.12071e-09
1.34286e-06
1.72162e-08
9.55314e-09
1.34847e-06
1.89008e-08
1.05776e-08
1.35197e-06
1.95048e-08
1.08745e-08
1.35375e-06
1.91215e-08
1.05792e-08
1.3544e-06
1.81116e-08
9.88925e-09
1.35453e-06
1.68297e-08
9.04131e-09
1.35446e-06
1.5494e-08
8.18572e-09
1.35435e-06
1.42841e-08
7.38175e-09
1.35426e-06
1.33351e-08
6.6544e-09
1.3542e-06
1.262e-08
6.00173e-09
1.35418e-06
1.21071e-08
5.40221e-09
1.35417e-06
1.17797e-08
4.82825e-09
1.3541e-06
1.16348e-08
4.23453e-09
1.35389e-06
1.16957e-08
3.58915e-09
1.3534e-06
1.20193e-08
2.82933e-09
1.35242e-06
1.26634e-08
1.90918e-09
1.3504e-06
1.35963e-08
7.94418e-10
1.45474e-08
-4.21368e-10
1.53312e-06
3.64933e-09
2.36589e-09
1.54218e-06
9.63386e-09
6.23844e-09
1.55327e-06
1.36918e-08
8.87271e-09
1.56445e-06
1.5937e-08
1.03461e-08
1.57507e-06
1.69127e-08
1.08982e-08
1.5847e-06
1.69477e-08
1.07525e-08
1.593e-06
1.63811e-08
1.01402e-08
1.60007e-06
1.54547e-08
9.32641e-09
1.60622e-06
1.43591e-08
8.45244e-09
1.61172e-06
1.32754e-08
7.628e-09
1.6168e-06
1.23027e-08
6.89695e-09
1.62164e-06
1.14708e-08
6.25842e-09
1.62635e-06
1.07858e-08
5.68781e-09
1.63102e-06
1.0241e-08
5.15248e-09
1.63571e-06
9.8255e-09
4.6363e-09
1.64048e-06
9.53465e-09
4.11379e-09
1.64538e-06
9.36971e-09
3.55887e-09
1.65053e-06
9.32059e-09
2.9456e-09
1.65609e-06
9.32173e-09
2.269e-09
9.2077e-09
1.55429e-09
1.68027e-06
1.89094e-09
1.89089e-09
1.68934e-06
5.09904e-09
5.09891e-09
1.7018e-06
7.46372e-09
7.4635e-09
1.71578e-06
8.94522e-09
8.94485e-09
1.73022e-06
9.69169e-09
9.69106e-09
1.74439e-06
9.85923e-09
9.85815e-09
1.75785e-06
9.65008e-09
9.64834e-09
1.77036e-06
9.19623e-09
9.19345e-09
1.78184e-06
8.60949e-09
8.60518e-09
1.79241e-06
7.98343e-09
7.97671e-09
1.80221e-06
7.38299e-09
7.37224e-09
1.81142e-06
6.83998e-09
6.82248e-09
1.82018e-06
6.36401e-09
6.33528e-09
1.82862e-06
5.95088e-09
5.90473e-09
1.83687e-06
5.58678e-09
5.51713e-09
1.84507e-06
5.26272e-09
5.16406e-09
1.85332e-06
4.97069e-09
4.83945e-09
1.86177e-06
4.69618e-09
4.53681e-09
1.87054e-06
4.40706e-09
4.25713e-09
4.10643e-09
4.08147e-09
1.7569e-06
-4.193e-14
1.61311e-09
1.76589e-06
-9.682e-14
4.38384e-09
1.77878e-06
-1.59685e-13
6.53134e-09
1.79389e-06
-2.42063e-13
7.95044e-09
1.81003e-06
-3.47625e-13
8.75491e-09
1.82638e-06
-4.79526e-13
9.08482e-09
1.8424e-06
-6.66801e-13
9.07137e-09
1.85772e-06
-1.02529e-12
8.8356e-09
1.87216e-06
-1.60279e-12
8.46261e-09
1.88565e-06
-2.42103e-12
8.01879e-09
1.89824e-06
-3.43302e-12
7.55603e-09
1.91002e-06
-4.50189e-12
7.11265e-09
1.92114e-06
-5.3673e-12
6.71563e-09
1.93175e-06
-6.09408e-12
6.38446e-09
1.94198e-06
-7.93865e-12
6.13673e-09
1.95197e-06
-1.12898e-11
5.97971e-09
1.96185e-06
-1.5081e-11
5.91525e-09
1.97174e-06
-1.50804e-11
5.9407e-09
1.98169e-06
-9.01804e-12
6.04363e-09
6.28701e-13
6.17881e-09
1.7569e-06
-1.8909e-09
1.61317e-09
1.76589e-06
-5.09894e-09
4.38401e-09
1.77878e-06
-7.46354e-09
6.53164e-09
1.79389e-06
-8.94491e-09
7.95095e-09
1.81002e-06
-9.69114e-09
8.75571e-09
1.82638e-06
-9.85825e-09
9.08605e-09
1.84239e-06
-9.64846e-09
9.07317e-09
1.85771e-06
-9.19361e-09
8.83828e-09
1.87215e-06
-8.60538e-09
8.46668e-09
1.88564e-06
-7.97698e-09
8.02499e-09
1.89822e-06
-7.3726e-09
7.5655e-09
1.91e-06
-6.82296e-09
7.12711e-09
1.92112e-06
-6.33592e-09
6.73756e-09
1.93173e-06
-5.90556e-09
6.41736e-09
1.94197e-06
-5.51822e-09
6.18516e-09
1.95198e-06
-5.16549e-09
6.04677e-09
1.96193e-06
-4.84135e-09
6e-09
1.97199e-06
-4.53934e-09
6.03379e-09
1.98226e-06
-4.26049e-09
6.119e-09
-4.08565e-09
6.18596e-09
1.68027e-06
-3.64913e-09
1.89095e-09
1.68934e-06
-9.63335e-09
5.0991e-09
1.7018e-06
-1.36909e-08
7.46384e-09
1.71578e-06
-1.59354e-08
8.9454e-09
1.73022e-06
-1.691e-08
9.69195e-09
1.74439e-06
-1.69434e-08
9.85956e-09
1.75785e-06
-1.63744e-08
9.65052e-09
1.77036e-06
-1.54438e-08
9.19678e-09
1.78184e-06
-1.4342e-08
8.61017e-09
1.79241e-06
-1.32483e-08
7.98428e-09
1.80221e-06
-1.22588e-08
7.38404e-09
1.81142e-06
-1.14e-08
6.84126e-09
1.82018e-06
-1.06708e-08
6.36557e-09
1.82861e-06
-1.00558e-08
5.95272e-09
1.83687e-06
-9.53496e-09
5.58895e-09
1.84506e-06
-9.08633e-09
5.26527e-09
1.85332e-06
-8.69579e-09
4.97357e-09
1.86176e-06
-8.36362e-09
4.69924e-09
1.87053e-06
-8.11322e-09
4.41008e-09
-8.14264e-09
4.10877e-09
1.53312e-06
-4.93098e-09
2.3658e-09
1.54218e-06
-1.30086e-08
6.23822e-09
1.55328e-06
-1.72153e-08
8.8723e-09
1.56445e-06
-1.88989e-08
1.03454e-08
1.57507e-06
-1.95014e-08
1.08971e-08
1.58471e-06
-1.91163e-08
1.07508e-08
1.59302e-06
-1.81034e-08
1.01376e-08
1.6001e-06
-1.68167e-08
9.32211e-09
1.60627e-06
-1.54737e-08
8.44546e-09
1.61179e-06
-1.42508e-08
7.61598e-09
1.61692e-06
-1.32778e-08
6.87657e-09
1.62182e-06
-1.25238e-08
6.22514e-09
1.62662e-06
-1.19486e-08
5.63695e-09
1.63143e-06
-1.15176e-08
5.07597e-09
1.6363e-06
-1.11984e-08
4.51281e-09
1.6413e-06
-1.09675e-08
3.91404e-09
1.64643e-06
-1.08142e-08
3.2433e-09
1.65172e-06
-1.07544e-08
2.46498e-09
1.65721e-06
-1.08583e-08
1.56745e-09
-1.15188e-08
6.71204e-10
1.32763e-06
-5.56887e-09
2.718e-09
1.33539e-06
-1.39002e-08
7.12018e-09
1.34287e-06
-1.62617e-08
9.55218e-09
1.34848e-06
-1.59086e-08
1.05758e-08
1.35198e-06
-1.5002e-08
1.08715e-08
1.35376e-06
-1.39337e-08
1.05741e-08
1.35443e-06
-1.29784e-08
9.88102e-09
1.35458e-06
-1.21174e-08
9.02794e-09
1.35455e-06
-1.135e-08
8.16371e-09
1.35449e-06
-1.07018e-08
7.3435e-09
1.35449e-06
-1.0214e-08
6.5899e-09
1.35458e-06
-9.86315e-09
5.89571e-09
1.3548e-06
-9.62407e-09
5.23928e-09
1.35515e-06
-9.4883e-09
4.57207e-09
1.35563e-06
-9.43741e-09
3.81492e-09
1.35624e-06
-9.44286e-09
2.905e-09
1.35687e-06
-9.48385e-09
1.73026e-09
1.35733e-06
-9.58688e-09
1.97385e-10
1.3574e-06
-9.83702e-09
-1.82576e-09
-1.07151e-08
-4.05671e-09
1.07432e-06
1.06463e-09
1.06824e-06
5.58589e-09
1.06138e-06
8.46271e-09
1.05339e-06
9.0376e-09
1.0451e-06
8.61387e-09
1.03722e-06
8.11339e-09
1.02983e-06
7.77398e-09
1.02283e-06
7.53273e-09
1.01599e-06
7.3324e-09
1.00923e-06
7.02199e-09
1.00259e-06
6.54021e-09
9.96035e-07
5.97241e-09
9.89515e-07
5.36296e-09
9.82963e-07
4.69358e-09
9.76283e-07
3.92375e-09
9.6941e-07
2.85694e-09
9.62261e-07
1.30427e-09
9.54407e-07
-1.00297e-09
9.45022e-07
-4.67758e-09
-9.84394e-09
1.16914e-06
4.90656e-09
9.83383e-14
1.16312e-06
1.16085e-08
4.46699e-13
1.15731e-06
1.42757e-08
9.63295e-13
1.15201e-06
1.43345e-08
1.67564e-12
1.14689e-06
1.3733e-08
2.81109e-12
1.14203e-06
1.29745e-08
4.76217e-12
1.1377e-06
1.21091e-08
8.1025e-12
1.13392e-06
1.13224e-08
1.35678e-11
1.13059e-06
1.0675e-08
2.26787e-11
1.12739e-06
1.02334e-08
3.77597e-11
1.12399e-06
9.96758e-09
6.27942e-11
1.12019e-06
9.81224e-09
1.0431e-10
1.11583e-06
9.79406e-09
1.73736e-10
1.11066e-06
9.96801e-09
2.94425e-10
1.10437e-06
1.03733e-08
4.9365e-10
1.09639e-06
1.11255e-08
8.39462e-10
1.08573e-06
1.24542e-08
1.42736e-09
1.07082e-06
1.46524e-08
2.4855e-09
1.04948e-06
1.76792e-08
4.38133e-09
2.5776e-08
7.97438e-09
1.41518e-06
4.1929e-09
1.65934e-13
1.42279e-06
1.11161e-08
4.74732e-13
1.43152e-06
1.5099e-08
8.25506e-13
1.4398e-06
1.66306e-08
1.44927e-12
1.44712e-06
1.72789e-08
2.55075e-12
1.45316e-06
1.75167e-08
4.28603e-12
1.45798e-06
1.71646e-08
6.92216e-12
1.46188e-06
1.64563e-08
1.11682e-11
1.46514e-06
1.55827e-08
1.83527e-11
1.468e-06
1.47255e-08
3.08812e-11
1.47062e-06
1.39525e-08
5.1446e-11
1.47302e-06
1.33254e-08
8.51511e-11
1.47514e-06
1.29424e-08
1.35601e-10
1.47691e-06
1.28109e-08
2.14982e-10
1.47828e-06
1.28902e-08
3.41418e-10
1.47918e-06
1.32825e-08
5.37496e-10
1.47952e-06
1.41154e-08
8.29419e-10
1.47933e-06
1.55053e-08
1.24295e-09
1.47862e-06
1.74055e-08
1.78283e-09
1.9438e-08
2.23999e-09
1.61424e-06
3.09288e-09
1.18959e-13
1.62332e-06
8.27411e-09
3.035e-13
1.63533e-06
1.19574e-08
5.36285e-13
1.64819e-06
1.41151e-08
9.15931e-13
1.66117e-06