/*--------------------------------*- C++ -*----------------------------------*\
| =========                 |                                                 |
| \\      /  F ield         | OpenFOAM: The Open Source CFD Toolbox           |
|  \\    /   O peration     | Version:  2212                                  |
|   \\  /    A nd           | Website:  www.openfoam.com                      |
|    \\/     M anipulation  |                                                 |
\*---------------------------------------------------------------------------*/
FoamFile
{
    version     2.0;
    format      ascii;
    arch        "LSB;label=32;scalar=64";
    class       volVectorField;
    location    "2.5";
    object      U;
}
// * * * * * * * * * * * * * * * * * * * * * * * * * * * * * * * * * * * * * //

dimensions      [0 1 -1 0 0 0 0];

internalField   nonuniform List<vector> 
6840
(
(0.0956456 -0.00836005 -0.00836005)
(0.0904939 0.00152204 0.00152199)
(0.0790684 0.00242975 0.00242964)
(0.0713015 0.0014878 0.00148761)
(0.0661801 0.000830576 0.000830244)
(0.0623237 0.000563712 0.000563185)
(0.0592226 0.000426523 0.000425487)
(0.0566877 0.00032427 0.000322577)
(0.0545543 0.000253572 0.000250817)
(0.0527048 0.000203553 0.000199044)
(0.0510711 0.000168069 0.000160592)
(0.0496169 0.000143012 0.000130902)
(0.0483131 0.00012395 0.00010512)
(0.0471335 0.000109679 7.94353e-05)
(0.0460764 9.95232e-05 4.93696e-05)
(0.0451491 9.40649e-05 1.04363e-05)
(0.0443806 9.06926e-05 -2.04995e-05)
(0.0439457 6.69061e-05 -0.000150255)
(0.0444735 -1.9588e-05 -0.000348997)
(0.0430613 -0.00205762 -0.00269434)
(0.0999088 0.001297 0.000712553)
(0.0969669 0.00365589 0.00274723)
(0.0935347 0.00264023 0.00211809)
(0.0895896 0.00182042 0.00162044)
(0.0858329 0.00152875 0.0013904)
(0.0825913 0.00135118 0.00116097)
(0.0798672 0.00117942 0.00089676)
(0.0775701 0.00104065 0.000691752)
(0.075563 0.000943043 0.000559888)
(0.0737596 0.000866292 0.000478891)
(0.0721153 0.000794057 0.000430898)
(0.070603 0.00072125 0.000401891)
(0.0692062 0.000652516 0.000385925)
(0.0679136 0.000594026 0.000379481)
(0.0667284 0.000536028 0.0003761)
(0.0656637 0.000472658 0.000370764)
(0.0647764 0.00037953 0.000334064)
(0.0642647 0.000147088 0.000147587)
(0.0646603 -0.000271607 -0.00018573)
(0.0626419 -0.000860783 -0.000505299)
(0.099413 0.000345222 0.000270228)
(0.0988664 0.00201898 0.00187488)
(0.0979217 0.002573 0.00218894)
(0.0963663 0.00237963 0.00190825)
(0.0946344 0.00211371 0.00162649)
(0.0929738 0.00192612 0.00141849)
(0.0913668 0.00180026 0.00127102)
(0.0898584 0.0017034 0.00115972)
(0.0884621 0.0016015 0.00106945)
(0.0871703 0.00148891 0.000997662)
(0.0859771 0.00137491 0.000949729)
(0.0848696 0.00126505 0.000922176)
(0.0838318 0.0011567 0.000910224)
(0.0828561 0.0010418 0.000908498)
(0.0819438 0.000910304 0.000912095)
(0.0811116 0.000744694 0.000908636)
(0.0804023 0.000519576 0.000884678)
(0.079866 9.50146e-05 0.000786651)
(0.0795581 -0.000650307 0.000589545)
(0.0787511 -0.00240284 0.000117695)
(0.0995405 0.00024501 0.000321898)
(0.0992576 0.00105545 0.00154093)
(0.098849 0.00150199 0.00211446)
(0.0981251 0.00157881 0.00209167)
(0.0973373 0.00151373 0.00188629)
(0.0965857 0.00144445 0.00166621)
(0.0958666 0.00140667 0.00149865)
(0.0951995 0.00137315 0.00137268)
(0.0945716 0.00132359 0.0012868)
(0.0939277 0.00124604 0.00123296)
(0.093301 0.00114628 0.0011974)
(0.09269 0.00103403 0.00117753)
(0.0920857 0.000914898 0.00117164)
(0.0914813 0.000786492 0.00117924)
(0.0908696 0.000639558 0.00119812)
(0.0902418 0.000441158 0.00122639)
(0.0895925 0.000159323 0.00126367)
(0.0889046 -0.000260745 0.00132374)
(0.0881121 -0.000922264 0.00142782)
(0.0871265 -0.00193262 0.00164262)
(0.0993801 3.37498e-05 5.89204e-05)
(0.0992677 0.00027425 0.0012)
(0.0989804 0.000432079 0.00188849)
(0.0984746 0.000482945 0.00200652)
(0.0979954 0.000477941 0.00191479)
(0.0975704 0.000463935 0.00173493)
(0.09718 0.000450064 0.00154765)
(0.0968291 0.000437581 0.00138924)
(0.0965269 0.00042813 0.00127132)
(0.0962687 0.000414706 0.00120189)
(0.095988 0.000388343 0.00117673)
(0.0956835 0.000349314 0.00117849)
(0.0953495 0.000299304 0.00119473)
(0.0949668 0.000237875 0.00122676)
(0.094521 0.000165833 0.001285)
(0.0939862 6.10766e-05 0.00137871)
(0.0933238 -0.00010086 0.00152986)
(0.0924492 -0.000356403 0.00175718)
(0.0913034 -0.000790663 0.00200179)
(0.0901714 -0.00144284 0.00262805)
(0.0993802 -3.37745e-05 5.89585e-05)
(0.0992677 -0.000274377 0.00120003)
(0.0989803 -0.000432344 0.00188851)
(0.0984744 -0.0004834 0.00200656)
(0.0979951 -0.000478704 0.00191488)
(0.0975698 -0.000465228 0.0017351)
(0.097179 -0.000452259 0.0015479)
(0.0968273 -0.00044124 0.00138966)
(0.0965238 -0.000434213 0.00127209)
(0.0962634 -0.000424779 0.00120323)
(0.095979 -0.000404993 0.00117897)
(0.0956681 -0.00037677 0.00118226)
(0.0953231 -0.000344759 0.00120168)
(0.0949204 -0.000314571 0.00124077)
(0.0944395 -0.000292877 0.00131113)
(0.0938431 -0.000274091 0.00142482)
(0.0930726 -0.000258207 0.00161587)
(0.0919975 -0.000263925 0.00191927)
(0.0905009 -0.000280799 0.00228722)
(0.0887492 -0.00032713 0.00350729)
(0.0995405 -0.000245021 0.0003219)
(0.0992576 -0.00105551 0.00154094)
(0.0988489 -0.0015021 0.00211452)
(0.0981247 -0.00157901 0.00209177)
(0.0973366 -0.00151411 0.00188644)
(0.0965843 -0.00144514 0.00166643)
(0.0958641 -0.00140782 0.00149895)
(0.0951952 -0.00137498 0.00137321)
(0.0945644 -0.00132662 0.00128784)
(0.0939155 -0.00125075 0.00123514)
(0.0932807 -0.00115356 0.00120139)
(0.0926557 -0.0010453 0.00118503)
(0.092028 -0.000933125 0.00118445)
(0.0913834 -0.000816166 0.00120121)
(0.0907034 -0.000685363 0.00123882)
(0.0899603 -0.000526268 0.001305)
(0.0891096 -0.000303752 0.00141709)
(0.0880517 3.03263e-05 0.00160543)
(0.0866982 0.000533835 0.00187894)
(0.0854644 0.00110597 0.00305431)
(0.099413 -0.000345211 0.000270232)
(0.0988664 -0.00201894 0.00187491)
(0.0979215 -0.00257291 0.00218904)
(0.096366 -0.00237949 0.00190842)
(0.0946336 -0.00211349 0.00162673)
(0.0929725 -0.00192575 0.00141884)
(0.0913644 -0.0017997 0.00127159)
(0.0898543 -0.00170246 0.00116069)
(0.0884552 -0.0015999 0.00107102)
(0.087159 -0.0014862 0.00100028)
(0.0859583 -0.00137033 0.000953935)
(0.0848384 -0.00125747 0.000929501)
(0.0837804 -0.00114452 0.000922954)
(0.0827712 -0.00102244 0.000930537)
(0.0818032 -0.000879546 0.000951488)
(0.0808738 -0.000698852 0.000984806)
(0.079989 -0.000445854 0.00102817)
(0.0791317 6.69431e-06 0.00107769)
(0.0782665 0.000789944 0.00117506)
(0.0770873 0.00239274 0.00101617)
(0.0999088 -0.00129699 0.000712559)
(0.0969669 -0.00365581 0.00274727)
(0.0935346 -0.00264008 0.00211817)
(0.0895894 -0.00182017 0.0016206)
(0.0858325 -0.00152827 0.00139062)
(0.0825907 -0.00135043 0.00116139)
(0.0798661 -0.00117801 0.000897489)
(0.0775683 -0.00103821 0.000692893)
(0.0755598 -0.000938882 0.00056175)
(0.0737543 -0.000859255 0.000481966)
(0.0721061 -0.000782197 0.000436655)
(0.0705869 -0.000701767 0.000411488)
(0.0691794 -0.000621061 0.000397327)
(0.0678703 -0.00054212 0.000393991)
(0.0666567 -0.000449495 0.000400537)
(0.0655411 -0.000329338 0.000415715)
(0.0645557 -0.000136909 0.000421493)
(0.0638503 0.000233526 0.000319155)
(0.0638121 0.000981123 3.70411e-05)
(0.0628221 0.00375731 -0.00206143)
(0.0956456 0.00836005 -0.00836005)
(0.0904939 -0.00152199 0.00152204)
(0.0790684 -0.00242964 0.00242975)
(0.0713015 -0.00148761 0.0014878)
(0.0661801 -0.000830249 0.000830573)
(0.0623237 -0.000563191 0.000563711)
(0.0592225 -0.000425494 0.000426521)
(0.0566876 -0.000322584 0.000324267)
(0.0545543 -0.000250826 0.000253569)
(0.0527047 -0.000199053 0.000203549)
(0.051071 -0.000160603 0.000168064)
(0.0496168 -0.00013091 0.000143)
(0.0483128 -0.000105142 0.000123958)
(0.0471333 -7.94209e-05 0.000109683)
(0.046076 -4.9306e-05 9.95247e-05)
(0.0451486 -1.04021e-05 9.41102e-05)
(0.0443799 2.05296e-05 9.07497e-05)
(0.0439448 0.000150303 6.69836e-05)
(0.0444724 0.000349101 -1.94977e-05)
(0.0430601 0.00269473 -0.00205753)
(0.0999088 0.000712559 0.00129699)
(0.0969669 0.00274726 0.0036558)
(0.0935346 0.00211817 0.00264007)
(0.0895894 0.0016206 0.00182015)
(0.0858325 0.00139061 0.00152826)
(0.0825907 0.00116139 0.00135041)
(0.0798662 0.000897482 0.001178)
(0.0775683 0.000692886 0.00103818)
(0.0755599 0.000561741 0.000938855)
(0.0737544 0.000481956 0.000859221)
(0.0721062 0.000436648 0.000782156)
(0.0705871 0.00041148 0.000701716)
(0.0691798 0.000397311 0.000620994)
(0.0678706 0.000393939 0.000542035)
(0.0666573 0.000400473 0.000449457)
(0.0655419 0.000415648 0.000329305)
(0.0645567 0.000421404 0.000136861)
(0.0638517 0.000319026 -0.000233552)
(0.063814 3.68268e-05 -0.000981064)
(0.0628248 -0.00206188 -0.00375702)
(0.100226 0.000720815 0.000720795)
(0.0999601 0.00198271 0.00198264)
(0.0997824 0.00245186 0.00245169)
(0.0987885 0.00241964 0.00241934)
(0.0972761 0.00220089 0.00220042)
(0.0957757 0.00181185 0.00181102)
(0.0943946 0.00138302 0.00138169)
(0.0931669 0.00107097 0.00106874)
(0.0920819 0.000855315 0.000851537)
(0.0911234 0.000704028 0.000697608)
(0.0902768 0.000593617 0.000582365)
(0.08952 0.000511269 0.000493146)
(0.0888341 0.000451087 0.000424244)
(0.0882226 0.000407448 0.000365629)
(0.0876934 0.000367751 0.00029947)
(0.0872563 0.000327719 0.000217683)
(0.0869281 0.000277353 9.54839e-05)
(0.0866984 0.000153376 -0.000135932)
(0.0863708 -0.000228433 -0.000650092)
(0.08644 -0.00135629 -0.00196446)
(0.10014 0.000775 0.000869236)
(0.100454 0.00196233 0.00196351)
(0.100911 0.00242738 0.00233439)
(0.100979 0.00252636 0.0024411)
(0.100695 0.00242595 0.00233659)
(0.100225 0.00219696 0.00211236)
(0.0997107 0.00191574 0.00182313)
(0.0991867 0.00166412 0.00157532)
(0.0986941 0.00145995 0.00138957)
(0.0982501 0.00129149 0.00124987)
(0.0978628 0.00115122 0.00114691)
(0.0975296 0.00103319 0.0010732)
(0.0972478 0.000930307 0.00101907)
(0.0970176 0.00083258 0.000974503)
(0.096841 0.00073075 0.000935095)
(0.0967213 0.000611047 0.000889645)
(0.09666 0.000448326 0.000815868)
(0.0966386 0.000212616 0.000692399)
(0.0965802 -0.000140292 0.000497963)
(0.0966891 -0.00068014 0.000237975)
(0.100093 0.000445888 0.000763198)
(0.100504 0.00119435 0.00174902)
(0.101105 0.00158655 0.00212955)
(0.101635 0.00173999 0.0022347)
(0.101979 0.00178156 0.00228724)
(0.102172 0.00172788 0.00223633)
(0.102254 0.00160624 0.00211665)
(0.102278 0.00145724 0.00196591)
(0.102281 0.00130006 0.00180447)
(0.102274 0.00114834 0.00165678)
(0.102269 0.00101443 0.00155084)
(0.102272 0.000896772 0.00147878)
(0.102284 0.000786854 0.0014321)
(0.102305 0.000675682 0.0014065)
(0.102336 0.000549448 0.00139941)
(0.102378 0.00039912 0.00140935)
(0.102426 0.000205929 0.00143668)
(0.102471 -5.10523e-05 0.00148597)
(0.102495 -0.000383878 0.00157392)
(0.102639 -0.000743702 0.00176296)
(0.100087 0.000144351 0.000707011)
(0.100477 0.000390385 0.00161777)
(0.101066 0.000540916 0.00203464)
(0.101694 0.000609828 0.00211768)
(0.102269 0.000635454 0.00215046)
(0.102742 0.000625871 0.00218045)
(0.103123 0.000593262 0.00213523)
(0.103427 0.000546797 0.00204634)
(0.103678 0.000499784 0.00193888)
(0.103894 0.00045418 0.00183636)
(0.104088 0.000405581 0.0017431)
(0.10427 0.000354188 0.00166561)
(0.104439 0.000302003 0.00162231)
(0.104586 0.000244721 0.00161598)
(0.104712 0.000176813 0.00163608)
(0.104818 9.29589e-05 0.00169406)
(0.104889 -1.8005e-05 0.00180734)
(0.104919 -0.000167244 0.00199228)
(0.104907 -0.00036416 0.00224299)
(0.105135 -0.000576672 0.00256046)
(0.100087 -0.000144393 0.000707016)
(0.100477 -0.000390509 0.00161779)
(0.101065 -0.000541133 0.00203465)
(0.101694 -0.000610198 0.00211772)
(0.102268 -0.000636098 0.00215062)
(0.102741 -0.000626952 0.00218074)
(0.103122 -0.000594993 0.00213568)
(0.103425 -0.000549578 0.00204702)
(0.103676 -0.000504369 0.00193993)
(0.10389 -0.000461887 0.00183808)
(0.104081 -0.000418377 0.00174585)
(0.10426 -0.000375177 0.00167048)
(0.104422 -0.000335278 0.00163124)
(0.104558 -0.000297611 0.00163136)
(0.10467 -0.000260717 0.00166193)
(0.104754 -0.000225112 0.00174226)
(0.104799 -0.000187211 0.00189447)
(0.104799 -0.000145003 0.00214619)
(0.104772 -9.70892e-05 0.00250286)
(0.105032 -3.03654e-05 0.00289301)
(0.100093 -0.000445895 0.000763208)
(0.100504 -0.00119438 0.00174904)
(0.101105 -0.0015866 0.00212963)
(0.101634 -0.00174011 0.00223495)
(0.101979 -0.00178175 0.00228771)
(0.102171 -0.00172816 0.002237)
(0.102252 -0.0016067 0.00211766)
(0.102275 -0.00145797 0.00196747)
(0.102276 -0.00130116 0.00180681)
(0.102266 -0.00115029 0.00166058)
(0.102256 -0.00101759 0.00155746)
(0.10225 -0.000901809 0.00149014)
(0.102247 -0.000793387 0.00145157)
(0.102246 -0.000684697 0.00144)
(0.102244 -0.000565629 0.00145708)
(0.102235 -0.000426997 0.00150936)
(0.10221 -0.000250798 0.00161146)
(0.102152 -1.41507e-05 0.00177919)
(0.102062 0.000308043 0.00201059)
(0.102305 0.000690341 0.00224386)
(0.10014 -0.00077498 0.000869259)
(0.100454 -0.00196228 0.0019636)
(0.100911 -0.00242728 0.00233459)
(0.100978 -0.00252616 0.00244144)
(0.100694 -0.00242561 0.0023371)
(0.100225 -0.00219638 0.00211306)
(0.0997094 -0.00191482 0.00182423)
(0.0991845 -0.00166269 0.00157724)
(0.0986903 -0.00145752 0.0013928)
(0.0982438 -0.00128729 0.00125521)
(0.0978523 -0.0011444 0.00115585)
(0.0975123 -0.00102178 0.00108797)
(0.0972209 -0.000910787 0.00104339)
(0.096977 -0.000800723 0.00101423)
(0.09678 -0.000680953 0.00100049)
(0.0966334 -0.000535139 0.000998711)
(0.0965427 -0.000337625 0.00100323)
(0.0965094 -5.40544e-05 0.00100573)
(0.0965273 0.000363984 0.000977573)
(0.0967142 0.000930974 0.000800972)
(0.100226 -0.000720796 0.000720815)
(0.0999601 -0.00198264 0.00198272)
(0.0997824 -0.00245169 0.00245186)
(0.0987885 -0.00241934 0.00241964)
(0.0972761 -0.00220043 0.0022009)
(0.0957757 -0.00181102 0.00181186)
(0.0943945 -0.00138169 0.00138304)
(0.0931668 -0.00106874 0.00107098)
(0.0920819 -0.000851544 0.000855333)
(0.0911233 -0.000697617 0.000704048)
(0.0902767 -0.000582374 0.000593639)
(0.0895198 -0.000493158 0.000511301)
(0.0888338 -0.000424344 0.000451222)
(0.0882222 -0.000365633 0.000407502)
(0.0876931 -0.000299304 0.000367687)
(0.0872558 -0.000217638 0.000327797)
(0.0869275 -9.54829e-05 0.000277476)
(0.0866976 0.000135937 0.000153529)
(0.0863699 0.000650137 -0.000228272)
(0.0864388 0.00196424 -0.00135575)
(0.0999088 -0.000712552 0.001297)
(0.0969669 -0.00274723 0.00365589)
(0.0935347 -0.00211809 0.00264022)
(0.0895896 -0.00162044 0.00182042)
(0.0858328 -0.00139039 0.00152874)
(0.0825913 -0.00116097 0.00135118)
(0.0798671 -0.000896756 0.00117942)
(0.0775701 -0.000691747 0.00104065)
(0.0755629 -0.000559882 0.000943049)
(0.0737595 -0.000478884 0.000866303)
(0.0721151 -0.000430886 0.000794069)
(0.0706028 -0.000401877 0.000721265)
(0.0692059 -0.000385893 0.00065254)
(0.0679134 -0.000379496 0.000594149)
(0.0667278 -0.000376132 0.00053622)
(0.0656629 -0.000370768 0.000472874)
(0.0647755 -0.000334052 0.000379768)
(0.0642635 -0.000147558 0.000147379)
(0.0646588 0.000185712 -0.000271124)
(0.0626393 0.000505217 -0.00086027)
(0.099413 0.000270232 0.000345209)
(0.0988664 0.00187491 0.00201893)
(0.0979215 0.00218904 0.0025729)
(0.096366 0.00190842 0.00237948)
(0.0946336 0.00162673 0.00211347)
(0.0929725 0.00141883 0.00192573)
(0.0913644 0.00127159 0.00179968)
(0.0898544 0.00116069 0.00170244)
(0.0884553 0.00107102 0.00159987)
(0.0871591 0.00100027 0.00148617)
(0.0859585 0.000953928 0.00137028)
(0.0848386 0.000929485 0.00125742)
(0.0837807 0.000922938 0.00114447)
(0.0827715 0.000930479 0.00102237)
(0.0818038 0.000951359 0.000879411)
(0.0808745 0.000984626 0.000698683)
(0.07999 0.00102791 0.000445625)
(0.0791332 0.00107727 -6.98008e-06)
(0.0782686 0.00117433 -0.000790274)
(0.0770906 0.00101522 -0.00239287)
(0.10014 0.00086926 0.000774979)
(0.100454 0.0019636 0.00196228)
(0.100911 0.00233459 0.00242728)
(0.100978 0.00244143 0.00252616)
(0.100694 0.0023371 0.0024256)
(0.100225 0.00211305 0.00219637)
(0.0997094 0.00182422 0.0019148)
(0.0991845 0.00157722 0.00166268)
(0.0986904 0.00139278 0.0014575)
(0.0982439 0.00125519 0.00128726)
(0.0978524 0.00115581 0.00114436)
(0.0975125 0.0010879 0.00102171)
(0.0972211 0.00104326 0.000910675)
(0.0969773 0.0010142 0.000800707)
(0.0967804 0.00100048 0.000680977)
(0.0966338 0.000998528 0.00053503)
(0.0965432 0.00100291 0.000337406)
(0.09651 0.00100531 5.37791e-05)
(0.096528 0.00097712 -0.00036428)
(0.0967149 0.000800144 -0.000931548)
(0.10006 0.000641392 0.00064136)
(0.100502 0.00164503 0.00164494)
(0.101149 0.00221237 0.0022122)
(0.101738 0.00243993 0.00243965)
(0.102205 0.00244201 0.00244155)
(0.102502 0.00231373 0.00231301)
(0.102647 0.00209286 0.00209166)
(0.102717 0.00186957 0.00186764)
(0.102744 0.00167202 0.00166887)
(0.10276 0.00150645 0.0015013)
(0.102784 0.00136937 0.00136101)
(0.102824 0.00125643 0.00124297)
(0.102889 0.00116323 0.00114169)
(0.10298 0.0010844 0.0010503)
(0.103101 0.00101401 0.000960961)
(0.103252 0.000944895 0.000864144)
(0.103428 0.000867464 0.000748602)
(0.103616 0.000767388 0.00060298)
(0.103798 0.000626743 0.000424139)
(0.104129 0.000485385 0.000303356)
(0.100046 0.000395684 0.000540224)
(0.10048 0.00104476 0.00138404)
(0.101154 0.00147518 0.00192288)
(0.101913 0.00170495 0.00219243)
(0.102632 0.00177963 0.00229391)
(0.103302 0.00174418 0.00227808)
(0.103895 0.00163323 0.00218544)
(0.104391 0.00149001 0.00205244)
(0.10482 0.00134261 0.00190503)
(0.105199 0.00120592 0.00176605)
(0.105544 0.00108412 0.00164466)
(0.10587 0.000977115 0.00154244)
(0.106185 0.000881114 0.00145896)
(0.106498 0.000791083 0.00139189)
(0.106813 0.000703434 0.0013383)
(0.107136 0.000611609 0.00129563)
(0.107466 0.000508863 0.001263)
(0.107805 0.000389239 0.00124204)
(0.108163 0.000251864 0.00123671)
(0.108625 0.000107117 0.00127989)
(0.100039 0.000131301 0.000478762)
(0.100448 0.000350408 0.00123477)
(0.101114 0.000504923 0.00174647)
(0.101909 0.000596931 0.00202684)
(0.102728 0.000638192 0.00215217)
(0.103529 0.000637638 0.00218665)
(0.104297 0.000603542 0.00215374)
(0.105007 0.000557701 0.00208032)
(0.105642 0.00050769 0.00198262)
(0.106215 0.000458167 0.00187722)
(0.106737 0.000411564 0.00177655)
(0.107218 0.000368209 0.00168937)
(0.107667 0.000327068 0.00162263)
(0.108098 0.00028534 0.00157901)
(0.108513 0.000240694 0.00155844)
(0.108912 0.000191991 0.00156307)
(0.109299 0.00013603 0.0015996)
(0.109682 7.04693e-05 0.00167335)
(0.110082 -1.28785e-06 0.0017761)
(0.110595 -6.20011e-05 0.00189977)
(0.100039 -0.00013133 0.000478774)
(0.100448 -0.000350485 0.0012348)
(0.101114 -0.00050506 0.00174654)
(0.101909 -0.000597156 0.00202695)
(0.102728 -0.000638555 0.00215237)
(0.103528 -0.000638207 0.00218696)
(0.104297 -0.000604457 0.00215423)
(0.105006 -0.000559128 0.00208107)
(0.105641 -0.00050996 0.0019838)
(0.106213 -0.000461819 0.00187915)
(0.106733 -0.0004174 0.00177977)
(0.107212 -0.00037736 0.00169477)
(0.10766 -0.000341 0.00163154)
(0.108088 -0.000306148 0.00159316)
(0.108499 -0.000272524 0.00158094)
(0.108893 -0.00024019 0.00159881)
(0.109279 -0.00020644 0.0016554)
(0.10967 -0.000167721 0.00175641)
(0.110098 -0.000122652 0.0018911)
(0.110645 -7.19756e-05 0.00203619)
(0.100046 -0.000395678 0.000540253)
(0.10048 -0.00104475 0.00138413)
(0.101154 -0.00147516 0.00192303)
(0.101913 -0.00170492 0.0021927)
(0.102632 -0.00177957 0.00229436)
(0.103301 -0.00174407 0.00227879)
(0.103894 -0.00163301 0.00218657)
(0.10439 -0.00148966 0.00205427)
(0.104818 -0.00134201 0.00190789)
(0.105196 -0.00120503 0.00177057)
(0.105539 -0.00108278 0.00165202)
(0.105861 -0.000975052 0.00155435)
(0.106171 -0.000877552 0.00147849)
(0.106476 -0.000785236 0.00142367)
(0.106781 -0.00069539 0.001389)
(0.107089 -0.000601282 0.00137584)
(0.107403 -0.000496497 0.00138731)
(0.107729 -0.000377045 0.00142522)
(0.108089 -0.000244764 0.00148199)
(0.108588 -0.000109737 0.00153175)
(0.10006 -0.000641361 0.000641392)
(0.100502 -0.00164494 0.00164503)
(0.101149 -0.00221221 0.00221238)
(0.101738 -0.00243965 0.00243994)
(0.102205 -0.00244156 0.00244203)
(0.102502 -0.00231301 0.00231375)
(0.102647 -0.00209167 0.00209289)
(0.102716 -0.00186765 0.0018696)
(0.102744 -0.00166888 0.00167207)
(0.10276 -0.00150131 0.00150651)
(0.102784 -0.00136103 0.00136945)
(0.102824 -0.00124301 0.00125653)
(0.102888 -0.00114174 0.00116336)
(0.10298 -0.00105035 0.00108454)
(0.103101 -0.000961015 0.00101416)
(0.103252 -0.000864239 0.000945101)
(0.103428 -0.000748745 0.000867723)
(0.103616 -0.000603187 0.000767683)
(0.103798 -0.000424438 0.000627052)
(0.104129 -0.00030394 0.000485858)
(0.10014 -0.000869236 0.000774999)
(0.100454 -0.00196351 0.00196234)
(0.100911 -0.00233439 0.00242738)
(0.100979 -0.0024411 0.00252637)
(0.100695 -0.00233659 0.00242596)
(0.100225 -0.00211236 0.00219698)
(0.0997106 -0.00182313 0.00191576)
(0.0991866 -0.00157532 0.00166415)
(0.098694 -0.00138958 0.00146)
(0.09825 -0.00124987 0.00129155)
(0.0978627 -0.00114691 0.00115129)
(0.0975294 -0.00107318 0.00103327)
(0.0972476 -0.00101903 0.000930403)
(0.0970173 -0.000974514 0.000832755)
(0.0968407 -0.000935168 0.000731002)
(0.0967209 -0.00088968 0.000611306)
(0.0966594 -0.000815862 0.000448592)
(0.096638 -0.000692376 0.000212907)
(0.0965795 -0.000497943 -0.000139957)
(0.0966881 -0.000238401 -0.000679446)
(0.099413 -0.000270228 0.00034522)
(0.0988664 -0.00187488 0.00201898)
(0.0979217 -0.00218894 0.002573)
(0.0963663 -0.00190825 0.00237963)
(0.0946343 -0.00162649 0.00211372)
(0.0929738 -0.00141849 0.00192613)
(0.0913667 -0.00127102 0.00180027)
(0.0898583 -0.00115972 0.00170343)
(0.088462 -0.00106944 0.00160153)
(0.0871702 -0.000997657 0.00148896)
(0.0859769 -0.00094972 0.00137498)
(0.0848694 -0.000922158 0.00126513)
(0.0838315 -0.000910179 0.00115679)
(0.0828558 -0.000908477 0.00104197)
(0.0819434 -0.000912135 0.000910616)
(0.0811111 -0.000908681 0.000745082)
(0.0804015 -0.000884697 0.000520063)
(0.0798651 -0.000786639 9.5622e-05)
(0.079557 -0.000589507 -0.000649503)
(0.0787491 -0.000117315 -0.00240211)
(0.0995405 0.0003219 0.000245019)
(0.0992576 0.00154094 0.0010555)
(0.0988489 0.00211452 0.00150209)
(0.0981247 0.00209177 0.001579)
(0.0973366 0.00188643 0.0015141)
(0.0965843 0.00166643 0.00144512)
(0.0958641 0.00149895 0.00140779)
(0.0951953 0.0013732 0.00137495)
(0.0945645 0.00128783 0.00132658)
(0.0939156 0.00123513 0.0012507)
(0.0932808 0.00120137 0.0011535)
(0.0926559 0.001185 0.00104523)
(0.0920282 0.00118441 0.000933036)
(0.0913836 0.00120111 0.000816022)
(0.0907039 0.00123865 0.000685155)
(0.0899609 0.00130476 0.000526035)
(0.0891105 0.00141672 0.000303438)
(0.088053 0.00160482 -3.07125e-05)
(0.0867002 0.00187795 -0.000534342)
(0.0854672 0.00305351 -0.00110636)
(0.100093 0.000763208 0.000445893)
(0.100504 0.00174904 0.00119437)
(0.101105 0.00212962 0.0015866)
(0.101634 0.00223494 0.0017401)
(0.101979 0.0022877 0.00178174)
(0.102171 0.00223698 0.00172815)
(0.102252 0.00211765 0.00160668)
(0.102275 0.00196744 0.00145795)
(0.102276 0.00180678 0.00130113)
(0.102266 0.00166054 0.00115025)
(0.102256 0.00155741 0.00101753)
(0.10225 0.00149005 0.000901723)
(0.102247 0.00145143 0.000793266)
(0.102246 0.0014399 0.000684601)
(0.102244 0.00145695 0.000565547)
(0.102235 0.00150907 0.000426809)
(0.10221 0.00161098 0.000250482)
(0.102153 0.00177847 1.36741e-05)
(0.102062 0.00200958 -0.000308756)
(0.102306 0.00224271 -0.000691329)
(0.100046 0.000540253 0.000395677)
(0.10048 0.00138412 0.00104475)
(0.101154 0.00192302 0.00147516)
(0.101913 0.00219268 0.00170492)
(0.102632 0.00229434 0.00177957)
(0.103301 0.00227877 0.00174406)
(0.103894 0.00218653 0.001633)
(0.10439 0.00205422 0.00148964)
(0.104818 0.00190783 0.00134199)
(0.105196 0.0017705 0.001205)
(0.105539 0.00165193 0.00108274)
(0.105861 0.00155423 0.000974992)
(0.106171 0.00147834 0.000877473)
(0.106476 0.00142351 0.000785153)
(0.106781 0.00138882 0.000695286)
(0.107089 0.00137558 0.000601112)
(0.107404 0.00138696 0.000496243)
(0.107729 0.0014248 0.000376678)
(0.108089 0.00148152 0.000244218)
(0.108587 0.00153126 0.000108838)
(0.100036 0.000323134 0.000323115)
(0.100429 0.000868642 0.000868595)
(0.10108 0.00126234 0.00126225)
(0.101891 0.00150427 0.00150414)
(0.102756 0.00162141 0.00162119)
(0.103616 0.00164255 0.0016422)
(0.104446 0.00160445 0.0016039)
(0.105224 0.00152612 0.00152524)
(0.105939 0.00142659 0.00142519)
(0.106595 0.00132175 0.00131953)
(0.1072 0.00122213 0.00121858)
(0.107765 0.00113274 0.00112709)
(0.108298 0.00105512 0.00104618)
(0.108809 0.00098902 0.000975087)
(0.109305 0.000933445 0.000912282)
(0.109794 0.000887039 0.00085588)
(0.110282 0.000848245 0.000804297)
(0.110778 0.000814254 0.000756727)
(0.1113 0.000780291 0.000714847)
(0.111904 0.000743043 0.000694141)
(0.100031 0.000107064 0.000281369)
(0.100395 0.000293009 0.000768596)
(0.101024 0.000434016 0.00113301)
(0.101843 0.000526127 0.00136913)
(0.102751 0.000576201 0.00150134)
(0.103688 0.000591533 0.00155415)
(0.104617 0.000582039 0.00154921)
(0.105515 0.000557264 0.00150841)
(0.106366 0.000523405 0.00144498)
(0.107163 0.000485964 0.00136924)
(0.107906 0.000449166 0.00128997)
(0.108599 0.000415291 0.001214)
(0.10925 0.000385077 0.00114632)
(0.109867 0.000357924 0.00109079)
(0.11046 0.000331739 0.0010511)
(0.111035 0.000306053 0.00102842)
(0.111598 0.000280807 0.00102237)
(0.11216 0.000256253 0.0010313)
(0.112738 0.000231555 0.00105206)
(0.11339 0.000210177 0.00108031)
(0.100031 -0.00010707 0.000281379)
(0.100395 -0.000293027 0.000768624)
(0.101024 -0.000434046 0.00113307)
(0.101843 -0.000526174 0.00136922)
(0.102751 -0.000576267 0.00150149)
(0.103688 -0.000591621 0.00155437)
(0.104617 -0.000582156 0.00154954)
(0.105515 -0.000557445 0.0015089)
(0.106366 -0.000523695 0.00144574)
(0.107162 -0.000486411 0.00137043)
(0.107905 -0.000449804 0.00129182)
(0.108598 -0.000416119 0.00121689)
(0.109248 -0.000386028 0.00115077)
(0.109866 -0.000358938 0.00109757)
(0.110459 -0.000333095 0.0010614)
(0.111034 -0.000308301 0.00104338)
(0.111601 -0.000284509 0.00104263)
(0.112168 -0.000261325 0.00105615)
(0.112759 -0.000238333 0.00107735)
(0.113423 -0.000220707 0.0010941)
(0.100036 -0.000323117 0.000323135)
(0.100429 -0.000868598 0.000868648)
(0.10108 -0.00126226 0.00126235)
(0.101891 -0.00150414 0.00150429)
(0.102756 -0.00162119 0.00162144)
(0.103616 -0.00164221 0.00164259)
(0.104446 -0.00160391 0.00160449)
(0.105224 -0.00152525 0.00152618)
(0.105939 -0.00142521 0.00142666)
(0.106595 -0.00131955 0.00132185)
(0.1072 -0.00121861 0.00122225)
(0.107765 -0.00112713 0.00113288)
(0.108298 -0.00104624 0.00105529)
(0.108809 -0.000975173 0.000989214)
(0.109305 -0.000912399 0.000933669)
(0.109794 -0.000856035 0.000887304)
(0.110282 -0.000804507 0.000848546)
(0.110777 -0.000757016 0.000814568)
(0.111299 -0.000715254 0.000780581)
(0.111904 -0.000694685 0.000743226)
(0.100046 -0.000540225 0.000395685)
(0.10048 -0.00138404 0.00104477)
(0.101154 -0.00192288 0.00147519)
(0.101913 -0.00219243 0.00170496)
(0.102632 -0.00229392 0.00177965)
(0.103302 -0.00227808 0.00174421)
(0.103895 -0.00218545 0.00163327)
(0.104391 -0.00205245 0.00149007)
(0.10482 -0.00190504 0.00134268)
(0.105199 -0.00176606 0.00120601)
(0.105544 -0.00164467 0.00108424)
(0.10587 -0.00154246 0.000977253)
(0.106185 -0.00145899 0.000881285)
(0.106498 -0.00139195 0.000791292)
(0.106813 -0.00133838 0.000703673)
(0.107135 -0.00129571 0.000611875)
(0.107465 -0.00126309 0.000509158)
(0.107805 -0.00124216 0.000389543)
(0.108163 -0.00123693 0.000252168)
(0.108625 -0.00128041 0.000107471)
(0.100093 -0.000763199 0.000445888)
(0.100504 -0.00174902 0.00119436)
(0.101105 -0.00212955 0.00158656)
(0.101635 -0.0022347 0.00174001)
(0.101979 -0.00228724 0.00178158)
(0.102172 -0.00223633 0.00172791)
(0.102254 -0.00211666 0.00160628)
(0.102278 -0.00196592 0.00145729)
(0.102281 -0.00180447 0.00130013)
(0.102274 -0.00165679 0.00114843)
(0.102269 -0.00155084 0.00101455)
(0.102272 -0.00147876 0.000896913)
(0.102284 -0.00143205 0.000787014)
(0.102305 -0.00140652 0.000675933)
(0.102336 -0.00139946 0.000549777)
(0.102378 -0.00140931 0.000399476)
(0.102425 -0.00143656 0.000206328)
(0.10247 -0.00148579 -5.06122e-05)
(0.102494 -0.00157373 -0.000383361)
(0.102637 -0.00176332 -0.000742742)
(0.0995405 -0.000321898 0.000245009)
(0.0992576 -0.00154093 0.00105545)
(0.098849 -0.00211446 0.00150199)
(0.098125 -0.00209167 0.00157882)
(0.0973373 -0.00188629 0.00151374)
(0.0965857 -0.00166621 0.00144448)
(0.0958665 -0.00149865 0.00140671)
(0.0951994 -0.00137268 0.0013732)
(0.0945716 -0.0012868 0.00132367)
(0.0939276 -0.00123296 0.00124614)
(0.0933009 -0.0011974 0.00114641)
(0.0926898 -0.00117753 0.00103419)
(0.0920855 -0.00117163 0.000915103)
(0.0914809 -0.00117922 0.000786763)
(0.0908693 -0.00119809 0.000639905)
(0.0902415 -0.00122633 0.000441644)
(0.0895921 -0.00126355 0.000159928)
(0.0889041 -0.0013235 -0.000259971)
(0.0881116 -0.00142741 -0.000921292)
(0.087126 -0.00164182 -0.00193109)
(0.0993802 5.89571e-05 3.37736e-05)
(0.0992677 0.00120003 0.000274373)
(0.0989803 0.00188851 0.000432336)
(0.0984744 0.00200656 0.000483388)
(0.0979951 0.00191487 0.000478689)
(0.0975698 0.00173509 0.000465208)
(0.097179 0.00154789 0.000452233)
(0.0968273 0.00138965 0.000441208)
(0.0965239 0.00127208 0.000434173)
(0.0962635 0.00120321 0.000424731)
(0.0959791 0.00117895 0.000404933)
(0.0956683 0.00118223 0.000376697)
(0.0953232 0.00120162 0.000344666)
(0.0949206 0.00124066 0.000314427)
(0.0944398 0.00131094 0.000292677)
(0.0938436 0.00142453 0.000273846)
(0.0930733 0.00161543 0.000257922)
(0.0919986 0.00191853 0.00026359)
(0.0905026 0.002286 0.000280395)
(0.0887506 0.00350734 0.000326889)
(0.100087 0.000707016 0.000144391)
(0.100477 0.00161779 0.000390504)
(0.101065 0.00203465 0.000541126)
(0.101694 0.00211772 0.000610188)
(0.102268 0.00215061 0.000636084)
(0.102741 0.00218072 0.000626933)
(0.103122 0.00213565 0.000594969)
(0.103425 0.00204699 0.000549547)
(0.103676 0.00193989 0.000504328)
(0.10389 0.00183803 0.000461834)
(0.104081 0.00174579 0.000418307)
(0.10426 0.00167038 0.000375085)
(0.104422 0.00163109 0.000335158)
(0.104558 0.00163118 0.000297475)
(0.10467 0.00166169 0.000260562)
(0.104755 0.0017419 0.000224893)
(0.104799 0.00189391 0.000186908)
(0.104799 0.00214534 0.000144597)
(0.104772 0.0025017 9.65568e-05)
(0.105031 0.00289198 2.97438e-05)
(0.100039 0.000478774 0.000131328)