/*--------------------------------*- C++ -*----------------------------------*\
| =========                 |                                                 |
| \\      /  F ield         | OpenFOAM: The Open Source CFD Toolbox           |
|  \\    /   O peration     | Version:  2212                                  |
|   \\  /    A nd           | Website:  www.openfoam.com                      |
|    \\/     M anipulation  |                                                 |
\*---------------------------------------------------------------------------*/
FoamFile
{
    version     2.0;
    format      ascii;
    arch        "LSB;label=32;scalar=64";
    class       surfaceVectorField;
    location    "2.5";
    object      Uf;
}
// * * * * * * * * * * * * * * * * * * * * * * * * * * * * * * * * * * * * * //

dimensions      [0 1 -1 0 0 0 0];

internalField   nonuniform List<vector> 
19019
(
(0.0993441 -0.00341901 -0.00341903)
(0.0973536 0.00106248 -0.00148428)
(0.0973536 -0.00148428 0.00106246)
(0.0834792 0.00197589 0.00197581)
(0.0930873 0.00326901 0.00253346)
(0.0930872 0.0025335 0.00326893)
(0.0745173 0.00195877 0.00195862)
(0.0848642 0.00163588 0.00179233)
(0.0848642 0.0017924 0.00163572)
(0.0685482 0.00115919 0.00115892)
(0.0786284 0.00107357 0.00122132)
(0.0786284 0.00122148 0.00107331)
(0.0642369 0.000697144 0.000696715)
(0.0740537 0.000785451 0.000865094)
(0.0740536 0.000865336 0.000784983)
(0.060758 0.000495118 0.000494336)
(0.0704437 0.000650682 0.000669324)
(0.0704435 0.000669735 0.000649941)
(0.0579393 0.000375397 0.000374032)
(0.0674936 0.000547115 0.000508641)
(0.0674932 0.000509428 0.000545712)
(0.0556171 0.000288921 0.000286697)
(0.065054 0.000469462 0.000387722)
(0.0650533 0.000388968 0.000467078)
(0.0536297 0.000228563 0.00022493)
(0.0629712 0.000416186 0.00030834)
(0.06297 0.000310343 0.000412188)
(0.0518877 0.000185811 0.000179818)
(0.0611402 0.00037434 0.000255878)
(0.0611381 0.000259144 0.000367665)
(0.0503424 0.000155541 0.000145747)
(0.0595022 0.000337188 0.000221222)
(0.0594986 0.000226932 0.000326094)
(0.0489629 0.000133481 0.000118011)
(0.0580248 0.00030362 0.000198004)
(0.0580184 0.000207315 0.000285472)
(0.0477234 0.000116815 9.22777e-05)
(0.0566837 0.000275443 0.000182448)
(0.0566731 0.000195091 0.000246037)
(0.0466036 0.000104601 6.44025e-05)
(0.0554588 0.000254309 0.000170805)
(0.0554416 0.000189162 0.000205819)
(0.0456086 9.6794e-05 2.9903e-05)
(0.0543504 0.000236598 0.000158208)
(0.0543219 0.000188951 0.000156292)
(0.0447582 9.23787e-05 -5.0316e-06)
(0.053368 0.000222889 0.00014146)
(0.0533192 0.000194703 8.98637e-05)
(0.0440917 7.87994e-05 -8.5377e-05)
(0.0525519 0.000209765 0.000123509)
(0.0524639 0.00019891 9.4212e-07)
(0.0439975 2.36591e-05 -0.000249626)
(0.0520863 0.00016142 5.48208e-06)
(0.0519208 0.000158079 -0.000200481)
(0.0451557 -0.0010386 -0.00152167)
(0.0525611 1.90164e-05 -0.000202134)
(0.0522221 5.72449e-06 -0.000597583)
(0.0509061 -0.00155185 -0.00180199)
(0.0509794 -0.00232939 -0.00358287)
(0.0984572 0.00247645 0.00172989)
(0.0996871 0.000439226 0.00034548)
(0.100049 0.00105638 0.000750964)
(0.0958349 0.00314806 0.00243266)
(0.0978162 0.00273276 0.00228227)
(0.0982937 0.0028092 0.00216143)
(0.0914502 0.00223032 0.00186926)
(0.0954961 0.00300164 0.00230311)
(0.0963041 0.00244263 0.00199775)
(0.0875957 0.00167458 0.00150542)
(0.0926195 0.00229922 0.00183873)
(0.0936672 0.00198066 0.00172687)
(0.0841486 0.00143996 0.00127568)
(0.089768 0.00189162 0.00153565)
(0.0909053 0.0017196 0.00149775)
(0.0811894 0.0012653 0.00102887)
(0.0872333 0.00165592 0.00129479)
(0.0884355 0.00145442 0.00121181)
(0.0787038 0.00111003 0.000794256)
(0.0850086 0.00149108 0.00107744)
(0.0863067 0.00118337 0.00090885)
(0.0765609 0.000991845 0.00062582)
(0.0830642 0.00136992 0.000913891)
(0.0844836 0.000982723 0.000691109)
(0.0746581 0.000904668 0.000519389)
(0.0813301 0.00127577 0.000802728)
(0.0828853 0.000844675 0.000549352)
(0.0729349 0.000830175 0.000454894)
(0.0797555 0.00118947 0.000728384)
(0.0814564 0.00074369 0.000456724)
(0.0713564 0.000757654 0.000416395)
(0.0783129 0.00110448 0.000682735)
(0.0801657 0.000660845 0.000393759)
(0.0699025 0.000686883 0.000393908)
(0.0769816 0.00101979 0.000656213)
(0.0789883 0.000588298 0.000348615)
(0.068559 0.000623271 0.000382703)
(0.0757453 0.000934698 0.000642572)
(0.0779066 0.000526939 0.000317609)
(0.0673176 0.000565027 0.000377791)
(0.0745944 0.000849096 0.000637499)
(0.0769159 0.000478256 0.000295617)
(0.0661874 0.000504343 0.000373432)
(0.0735312 0.000756181 0.000636431)
(0.0760215 0.000431493 0.000271748)
(0.0651973 0.000426094 0.000352414)
(0.0725705 0.000646104 0.000631545)
(0.075235 0.000381361 0.000239325)
(0.0644448 0.000263309 0.000240826)
(0.0717627 0.000491859 0.000599717)
(0.0745955 0.000309594 0.000170382)
(0.0642653 -6.22595e-05 -1.90714e-05)
(0.0712401 0.000142589 0.00044067)
(0.0742088 0.000125011 -3.65326e-05)
(0.0654067 -0.000566195 -0.000345515)
(0.0713211 -0.000554043 0.000116586)
(0.0742838 -0.000347165 -0.000614154)
(0.0698443 -0.00242183 -0.000568168)
(0.0731908 -0.00169733 -0.00260216)
(0.0993753 0.0011821 0.00107255)
(0.099473 0.000349743 0.000307057)
(0.0997475 0.000610969 0.000779876)
(0.0984949 0.00229599 0.00203191)
(0.0990504 0.00157673 0.00172046)
(0.0995971 0.00201825 0.00200286)
(0.0971415 0.00247631 0.0020486)
(0.0983578 0.00213093 0.00216887)
(0.0992974 0.0024614 0.00210239)
(0.09544 0.00224667 0.00176737)
(0.0971936 0.00203548 0.00200241)
(0.0984886 0.00237426 0.00190257)
(0.0937516 0.00201991 0.00152249)
(0.0959057 0.00185509 0.00175441)
(0.0974229 0.00218052 0.00168869)
(0.0921395 0.00186319 0.00134476)
(0.0946727 0.00173179 0.00154282)
(0.0963106 0.0019841 0.00150837)
(0.0906037 0.00175183 0.00121537)
(0.0934833 0.00165107 0.0013868)
(0.0952061 0.00180047 0.0013429)
(0.089155 0.00165245 0.00111458)
(0.0923706 0.00157395 0.00126617)
(0.0941507 0.00164267 0.00120413)
(0.0878101 0.0015452 0.00103355)
(0.0913357 0.00147658 0.00117308)
(0.0931702 0.00150142 0.00109645)
(0.0865707 0.00143191 0.000973696)
(0.0903487 0.00136286 0.00110547)
(0.0922686 0.00136942 0.00101509)
(0.0854224 0.00131998 0.000935953)
(0.0894219 0.00124626 0.0010611)
(0.0914462 0.00124844 0.000959419)
(0.0843497 0.00121088 0.0009162)
(0.0885479 0.00112899 0.00103564)
(0.090695 0.00113884 0.000924468)
(0.0833417 0.00109925 0.000909361)
(0.0877141 0.00101038 0.00102528)
(0.0900051 0.0010363 0.000904434)
(0.0823966 0.00097605 0.000910297)
(0.086913 0.000885294 0.00102701)
(0.0893724 0.000932299 0.000893339)
(0.0815215 0.000827499 0.000910366)
(0.0861421 0.000741954 0.00103669)
(0.0887986 0.000817396 0.000887267)
(0.0807484 0.000632135 0.000896657)
(0.0854061 0.000552908 0.00104621)
(0.0882943 0.000675798 0.000874429)
(0.0801297 0.000307295 0.000835664)
(0.0847249 0.000286604 0.00104754)
(0.0878831 0.000481455 0.000834649)
(0.0797014 -0.000277646 0.000688098)
(0.0841174 -0.000140082 0.00102284)
(0.0875838 0.000144124 0.000726059)
(0.0795242 -0.00152657 0.00035362)
(0.0835815 -0.00086264 0.000963361)
(0.0873907 -0.000422849 0.000522546)
(0.0826905 -0.002135 0.00084627)
(0.0870051 -0.00162852 0.000109829)
(0.0996493 0.00065023 0.000931415)
(0.0994625 0.000129349 0.000192484)
(0.0997993 0.000375098 0.000741362)
(0.0990855 0.00127872 0.0018277)
(0.0992625 0.000636758 0.0013706)
(0.0998409 0.00115026 0.00181422)
(0.0984493 0.0015404 0.00210306)
(0.0989129 0.000973167 0.00200357)
(0.0999048 0.00153625 0.00209014)
(0.0977079 0.00154627 0.00198898)
(0.0982951 0.00104961 0.0020507)
(0.0997676 0.00163127 0.00202302)
(0.0969398 0.00147909 0.00177625)
(0.0976574 0.00100675 0.00189978)
(0.0995098 0.00160888 0.00189577)
(0.0962083 0.00142556 0.00158243)
(0.0970647 0.000958791 0.00169862)
(0.0992001 0.00154641 0.00175194)
(0.095523 0.00138991 0.00143567)
(0.0965055 0.000931016 0.00152128)
(0.0988556 0.0014727 0.00162634)
(0.0948736 0.00134837 0.00132974)
(0.0959921 0.000913019 0.00138015)
(0.0985122 0.00138974 0.00151596)
(0.0942392 0.00128482 0.00125988)
(0.0955227 0.000896063 0.0012802)
(0.0981795 0.00129431 0.0014212)
(0.0936126 0.00119616 0.00121518)
(0.0950664 0.000858816 0.00121984)
(0.0978339 0.00118584 0.00134588)
(0.0929964 0.00109016 0.00118747)
(0.094608 0.000793687 0.00118921)
(0.0974981 0.001073 0.00129449)
(0.0923885 0.000974466 0.00117459)
(0.094146 0.000713863 0.00117949)
(0.0971744 0.000960369 0.00126287)
(0.0917838 0.000850695 0.00117544)
(0.0936732 0.000626426 0.00118415)
(0.0968584 0.000847176 0.00124751)
(0.0911761 0.000713025 0.00118868)
(0.0931767 0.000528745 0.00120341)
(0.0965466 0.000728265 0.00124801)
(0.0905565 0.000540358 0.00121225)
(0.0926457 0.000414609 0.00124101)
(0.0962358 0.000592527 0.00126364)
(0.0899191 0.00030024 0.00124503)
(0.0920631 0.000255552 0.0013004)
(0.0959216 0.000418426 0.00129396)
(0.089256 -5.07111e-05 0.0012937)
(0.0914075 2.35013e-05 0.00139207)
(0.0955984 0.000180395 0.00134027)
(0.0885275 -0.000591504 0.00137578)
(0.0906287 -0.000321828 0.00153287)
(0.0952534 -0.000160352 0.00141299)
(0.0876571 -0.00142744 0.00153522)
(0.0896644 -0.000865783 0.00170613)
(0.094843 -0.000663805 0.00153453)
(0.0886075 -0.00165123 0.00212696)
(0.0943861 -0.00136252 0.00177973)
(0.0996725 0.000154 0.000629462)
(0.0993801 -1.45196e-08 5.89394e-05)
(0.0997132 0.000103896 0.000687944)
(0.0991591 0.000353164 0.00154425)
(0.0992677 -6.61504e-08 0.00120002)
(0.0998376 0.000341534 0.00162228)
(0.0986636 0.000457512 0.00194751)
(0.0989804 -1.42416e-07 0.0018885)
(0.099963 0.000485263 0.00199139)
(0.0982122 0.000480443 0.00196066)
(0.0984745 -2.4637e-07 0.00200654)
(0.0999918 0.000539271 0.00199667)
(0.0977761 0.000470938 0.00182486)
(0.0979952 -4.10038e-07 0.00191483)
(0.100009 0.00054578 0.00191117)
(0.0973622 0.000456999 0.00164129)
(0.0975701 -6.8886e-07 0.00173502)
(0.100007 0.000532429 0.00180455)
(0.0969935 0.000443822 0.00146844)
(0.0971795 -1.16371e-06 0.00154777)
(0.0999807 0.000509678 0.00168332)
(0.096672 0.000432855 0.00133028)
(0.0968282 -1.9383e-06 0.00138945)
(0.0999381 0.000482056 0.00157337)
(0.0963896 0.000421418 0.0012366)
(0.0965254 -3.22671e-06 0.0012717)
(0.0998968 0.000456155 0.00148284)
(0.0961201 0.000401525 0.00118931)
(0.0962661 -5.35615e-06 0.00120256)
(0.0998622 0.000428868 0.00142117)
(0.095835 0.000368829 0.00117761)
(0.0959835 -8.88728e-06 0.00117785)
(0.0998049 0.00039317 0.00138446)
(0.0955195 0.000324309 0.00118661)
(0.0956758 -1.47383e-05 0.00118038)
(0.0997297 0.000349096 0.00136289)
(0.095162 0.000268589 0.00121074)
(0.0953363 -2.45178e-05 0.0011982)
(0.0996329 0.000298496 0.00135888)
(0.094748 0.000201854 0.00125588)
(0.0949436 -4.15141e-05 0.00123376)
(0.0994998 0.000239333 0.00137843)
(0.0942593 0.000113455 0.00133186)
(0.0944802 -6.95518e-05 0.00129806)
(0.0993236 0.000169619 0.00142551)
(0.0936609 -1.98919e-05 0.00145429)
(0.0939146 -0.000118196 0.00140177)
(0.0990905 7.5163e-05 0.00151048)
(0.0928975 -0.000228632 0.00164352)
(0.0931982 -0.000200855 0.00157287)
(0.098774 -6.21052e-05 0.00165542)
(0.0918975 -0.000573533 0.00187949)
(0.0922234 -0.000349596 0.00183822)
(0.0983257 -0.000266452 0.00188253)
(0.0905874 -0.00111675 0.00231492)
(0.0909022 -0.000616073 0.00214451)
(0.0977139 -0.000587037 0.00216285)
(0.0894603 -0.001121 0.00306767)
(0.0972227 -0.00102915 0.00269523)
(0.0996725 -0.000154076 0.000629496)
(0.0994625 -0.000129376 0.000192505)
(0.0997132 -0.000103928 0.000687947)
(0.099159 -0.000353361 0.00154427)
(0.0992625 -0.00063686 0.00137063)
(0.0998376 -0.000341659 0.0016223)
(0.0986635 -0.000457872 0.00194753)
(0.0989128 -0.000973363 0.00200361)
(0.0999629 -0.000485505 0.0019914)
(0.098212 -0.000481052 0.00196072)
(0.0982948 -0.00104994 0.00205077)
(0.0999917 -0.000539685 0.0019967)
(0.0977756 -0.000471966 0.00182499)
(0.0976569 -0.00100733 0.0018999)
(0.100009 -0.000546485 0.00191127)
(0.0973614 -0.000458743 0.0016415)
(0.0970637 -0.000959798 0.00169882)
(0.100007 -0.00053362 0.00180474)
(0.0969921 -0.000446749 0.00146878)
(0.0965037 -0.000932732 0.00152156)
(0.0999798 -0.000511652 0.00168361)
(0.0966695 -0.000437727 0.00133088)
(0.0959891 -0.000915867 0.00138064)
(0.0999364 -0.000485298 0.00157385)
(0.0963855 -0.000429496 0.00123766)
(0.0955175 -0.000900809 0.00128114)
(0.099894 -0.000461527 0.00148365)
(0.0961131 -0.000414886 0.0011911)
(0.0950575 -0.000866525 0.00122166)
(0.0998576 -0.000437817 0.00142253)
(0.0958231 -0.000390881 0.00118062)
(0.0945932 -0.000806163 0.00119243)
(0.0997972 -0.000407987 0.00138663)
(0.0954991 -0.000360764 0.00119197)
(0.094121 -0.000734025 0.0011853)
(0.099717 -0.000373472 0.0013666)
(0.0951268 -0.000329665 0.00122122)
(0.0936307 -0.000659546 0.00119429)
(0.0996108 -0.000338171 0.00136604)
(0.094686 -0.000303724 0.00127595)
(0.0931038 -0.000584012 0.00122183)
(0.0994619 -0.00030478 0.00139255)
(0.0941496 -0.000283484 0.00136798)
(0.0925207 -0.00050421 0.00127513)
(0.0992605 -0.000276333 0.00145151)
(0.0934692 -0.000266149 0.00152035)
(0.0918489 -0.000409829 0.00136401)
(0.0989849 -0.000250176 0.00155944)
(0.0925605 -0.000261066 0.00176757)
(0.0910372 -0.00028425 0.00151409)
(0.0985985 -0.000224848 0.00174891)
(0.091289 -0.000272362 0.00210325)
(0.089971 -0.000113678 0.00175818)
(0.0980299 -0.000209818 0.00206091)
(0.0894686 -0.000303965 0.00289726)
(0.0885479 0.000138681 0.0020774)
(0.097226 -0.00019986 0.00248996)
(0.0870622 0.000410909 0.00327441)
(0.0964223 -0.00021047 0.00363408)
(0.0996493 -0.000650264 0.000931421)
(0.099473 -0.000349742 0.00030706)
(0.0997993 -0.000375106 0.000741362)
(0.0990854 -0.00127881 0.00182773)
(0.0990504 -0.00157673 0.00172048)
(0.0998409 -0.0011503 0.00181423)
(0.0984491 -0.00154056 0.00210315)
(0.0983577 -0.00213094 0.00216895)
(0.0999047 -0.00153633 0.0020902)
(0.0977073 -0.00154656 0.0019891)
(0.0971932 -0.00203549 0.00200254)
(0.0997672 -0.00163143 0.00202316)
(0.0969387 -0.00147963 0.00177643)
(0.095905 -0.00185516 0.0017546)
(0.0995091 -0.00160917 0.00189603)
(0.0962064 -0.00142648 0.00158269)
(0.0946713 -0.00173194 0.00154311)
(0.0991989 -0.00154691 0.00175233)
(0.0955198 -0.0013914 0.00143608)
(0.0934808 -0.00165133 0.00138725)
(0.0988535 -0.00147351 0.00162692)
(0.0948681 -0.0013508 0.00133052)
(0.0923665 -0.00157431 0.00126692)
(0.0985085 -0.00139105 0.0015169)
(0.0942298 -0.00128868 0.00126149)
(0.0913287 -0.00147709 0.00117439)
(0.0981734 -0.00129641 0.00142275)
(0.0935966 -0.00120215 0.00121827)
(0.090337 -0.00136353 0.00110786)
(0.0978237 -0.00118922 0.00134858)
(0.0929697 -0.00109943 0.00119321)
(0.0894024 -0.00124707 0.00106516)
(0.0974811 -0.00107826 0.00129916)
(0.0923436 -0.000989212 0.00118474)
(0.0885153 -0.00112989 0.00104295)
(0.0971459 -0.000968563 0.00127126)
(0.0917081 -0.000874646 0.00119283)
(0.0876597 -0.00101156 0.00103782)
(0.0968104 -0.00085979 0.00126261)
(0.0910477 -0.000750765 0.00122002)
(0.086822 -0.000886979 0.00104853)
(0.0964671 -0.000748234 0.00127516)
(0.0903386 -0.000605816 0.00127191)
(0.0859895 -0.000743015 0.00107568)
(0.0961043 -0.000624627 0.00131321)
(0.0895452 -0.00041501 0.00136105)
(0.0851477 -0.000559271 0.00112125)
(0.0957048 -0.000477468 0.00138682)
(0.0886068 -0.000136713 0.00151126)
(0.0842789 -0.000296421 0.00119107)
(0.0952405 -0.000280449 0.00151679)
(0.0874125 0.000282081 0.00174218)
(0.0833273 0.000116827 0.00130191)
(0.0946506 1.80779e-06 0.00173221)
(0.085804 0.000819904 0.00246662)
(0.0822324 0.000795935 0.00147547)
(0.0938882 0.000410298 0.00204601)
(0.0810275 0.00179933 0.00197196)
(0.0933459 0.000875259 0.00288868)
(0.0993753 -0.00118207 0.00107257)
(0.0996871 -0.00043921 0.000345483)
(0.0997475 -0.000610954 0.000779888)
(0.0984948 -0.00229592 0.00203198)
(0.0978161 -0.00273268 0.00228231)
(0.0995971 -0.0020182 0.00200292)
(0.0971413 -0.0024762 0.00204873)
(0.095496 -0.00300151 0.00230319)
(0.0992973 -0.00246131 0.00210253)
(0.0954394 -0.00224649 0.00176758)
(0.0926192 -0.00229901 0.0018389)
(0.0984883 -0.00237409 0.00190281)
(0.0937506 -0.00201962 0.00152278)
(0.0897675 -0.00189125 0.00153588)
(0.0974223 -0.00218025 0.00168905)
(0.0921377 -0.00186272 0.00134521)
(0.0872324 -0.0016553 0.00129516)
(0.0963095 -0.00198364 0.0015089)
(0.0906006 -0.00175108 0.00121614)
(0.085007 -0.00149 0.00107808)
(0.0952043 -0.00179975 0.00134374)
(0.0891497 -0.00165118 0.00111586)
(0.0830614 -0.00136812 0.000914942)
(0.0941475 -0.00164152 0.00120557)
(0.0878012 -0.00154305 0.00103565)
(0.0813253 -0.00127275 0.000804459)
(0.0931648 -0.00149944 0.0010988)
(0.086556 -0.00142826 0.000977108)
(0.0797475 -0.00118437 0.000731255)
(0.0922596 -0.00136603 0.00101901)
(0.0853979 -0.0013139 0.000941718)
(0.0782994 -0.00109582 0.000687781)
(0.0914312 -0.00124288 0.000965996)
(0.0843094 -0.00120099 0.000926227)
(0.0769588 -0.00100566 0.000664808)
(0.0906702 -0.00112965 0.000935756)
(0.0832752 -0.00108348 0.000926746)
(0.0757075 -0.000912602 0.00065486)
(0.0899649 -0.00102109 0.000923703)
(0.0822865 -0.000950994 0.000941013)
(0.0745325 -0.000813761 0.000656165)
(0.0893079 -0.000907964 0.000926175)
(0.0813376 -0.000789199 0.000968147)
(0.0734287 -0.000698205 0.000668973)
(0.0886947 -0.000779657 0.000944752)
(0.0804326 -0.000572353 0.00100649)
(0.0723964 -0.00055327 0.000693158)
(0.0881255 -0.0006201 0.000979428)
(0.0795798 -0.00021958 0.00105293)
(0.0714559 -0.000339508 0.000717991)
(0.0876061 -0.000399926 0.00103002)
(0.0787379 0.000398319 0.00112638)
(0.0706826 8.26421e-05 0.000677675)
(0.0871279 -3.73787e-05 0.00110006)
(0.0777755 0.00159134 0.00109562)
(0.0702747 0.000927131 0.000533515)
(0.0866691 0.000551188 0.00123135)
(0.0692001 0.00345424 -0.000805699)
(0.0861185 0.00162654 0.00123926)
(0.0984572 -0.0024764 0.00172991)
(0.0973536 -0.00106247 -0.00148428)
(0.100049 -0.00105637 0.000750979)
(0.0958349 -0.00314795 0.00243272)
(0.0930872 -0.00326893 0.0025335)
(0.0982937 -0.00280913 0.00216151)
(0.0914501 -0.00223013 0.00186939)
(0.0848642 -0.00163573 0.0017924)
(0.0963041 -0.00244248 0.00199789)
(0.0875955 -0.00167422 0.00150561)
(0.0786284 -0.00107332 0.00122148)
(0.0936671 -0.0019804 0.00172712)
(0.0841482 -0.00143935 0.00127601)
(0.0740536 -0.000784995 0.000865339)
(0.0909051 -0.00171916 0.00149814)
(0.0811886 -0.00126422 0.00102944)
(0.0704435 -0.000649953 0.000669737)
(0.0884352 -0.00145368 0.00121252)
(0.0787024 -0.00110811 0.000795191)
(0.0674932 -0.000545725 0.00050943)
(0.0863061 -0.00118207 0.000910026)
(0.0765585 -0.000988544 0.000627322)
(0.0650532 -0.000467093 0.00038897)
(0.0844826 -0.000980505 0.000693042)
(0.074654 -0.000899069 0.000521858)
(0.0629699 -0.000412205 0.000310345)
(0.0828835 -0.000840906 0.000552585)
(0.0729279 -0.000820726 0.000459311)
(0.061138 -0.000367684 0.000259145)
(0.0814534 -0.000737309 0.000462181)
(0.0713442 -0.000741982 0.000424071)
(0.0594985 -0.000326116 0.00022693)
(0.0801605 -0.000649907 0.000403485)
(0.0698815 -0.000661414 0.000404408)
(0.0580183 -0.000285495 0.00020731)
(0.0789792 -0.00057055 0.000364653)
(0.0685248 -0.000581591 0.000395659)
(0.0566728 -0.000246071 0.000195099)
(0.0778916 -0.000499615 0.000340715)
(0.0672618 -0.000495808 0.000397264)
(0.0554414 -0.000205826 0.000189174)
(0.0768916 -0.000434458 0.0003308)
(0.0660943 -0.000389416 0.000408126)
(0.0543214 -0.000156247 0.000188964)
(0.0759814 -0.000359301 0.000330458)
(0.0650342 -0.000233123 0.000418604)
(0.0533186 -8.98286e-05 0.000194741)
(0.0751665 -0.0002639 0.00033931)
(0.0641495 4.83087e-05 0.000370324)
(0.0524631 -9.09154e-07 0.00019896)
(0.0744724 -0.000114766 0.000348771)
(0.0636917 0.000607325 0.000178098)
(0.0519197 0.000200548 0.000158149)
(0.0739777 0.000180182 0.000269446)
(0.0643191 0.00236922 -0.0010122)
(0.0522206 0.000597737 5.82481e-06)
(0.0738112 0.000844552 -0.000104407)
(0.0509775 0.00358322 -0.00232916)
(0.0732906 0.00316408 -0.00222243)
(0.0993441 0.00341903 -0.00341901)
(0.0973536 0.00148428 0.00106248)
(0.0834792 -0.00197582 0.00197589)
(0.0930873 -0.00253346 0.00326901)
(0.0745173 -0.00195863 0.00195877)
(0.0848642 -0.00179232 0.00163587)
(0.0685482 -0.00115893 0.00115919)
(0.0786284 -0.00122132 0.00107357)
(0.0642368 -0.00069672 0.000697142)
(0.0740537 -0.000865093 0.000785444)
(0.0607579 -0.000494343 0.000495116)
(0.0704437 -0.000669323 0.000650678)
(0.0579392 -0.000374039 0.000375394)
(0.0674936 -0.000508641 0.00054711)
(0.055617 -0.000286705 0.000288918)
(0.0650539 -0.000387722 0.000469458)
(0.0536296 -0.000224939 0.000228559)
(0.0629711 -0.00030834 0.000416183)
(0.0518876 -0.000179828 0.000185806)
(0.0611401 -0.000255878 0.000374338)
(0.0503423 -0.000145757 0.000155532)
(0.0595021 -0.000221222 0.000337186)
(0.0489627 -0.000118026 0.000133479)
(0.0580246 -0.000198004 0.00030362)
(0.0477231 -9.22813e-05 0.00011682)
(0.0566834 -0.000182451 0.000275462)
(0.0466032 -6.43634e-05 0.000104604)
(0.0554586 -0.000170805 0.000254364)
(0.0456081 -2.98541e-05 9.68175e-05)
(0.0543499 -0.00015819 0.000236689)
(0.0447576 5.06373e-06 9.243e-05)
(0.0533674 -0.000141453 0.000223023)
(0.0440909 8.54163e-05 7.88667e-05)
(0.0525511 -0.000123502 0.000209922)
(0.0439964 0.000249702 2.3743e-05)
(0.0520852 -5.46699e-06 0.000161627)
(0.0451543 0.00152192 -0.00103851)
(0.0525599 0.000202157 1.93193e-05)
(0.0509043 0.00180203 -0.0015513)
(0.0984572 0.00172991 0.00247639)
(0.100049 0.000750979 0.00105637)
(0.0996871 0.000345482 0.000439207)
(0.0958349 0.00243272 0.00314794)
(0.0982937 0.00216151 0.00280913)
(0.0978161 0.00228231 0.00273268)
(0.0914501 0.00186938 0.00223011)
(0.0963041 0.00199789 0.00244247)
(0.095496 0.00230319 0.0030015)
(0.0875955 0.0015056 0.00167421)
(0.0936671 0.00172712 0.00198039)
(0.0926192 0.00183889 0.002299)
(0.0841482 0.001276 0.00143934)
(0.0909051 0.00149814 0.00171915)
(0.0897675 0.00153587 0.00189124)
(0.0811886 0.00102943 0.00126421)
(0.0884352 0.00121251 0.00145367)
(0.0872324 0.00129516 0.00165529)
(0.0787025 0.000795184 0.00110809)
(0.0863061 0.00091002 0.00118206)
(0.085007 0.00107808 0.00148999)
(0.0765586 0.000627314 0.000988519)
(0.0844826 0.000693034 0.000980491)
(0.0830614 0.000914939 0.0013681)
(0.074654 0.000521849 0.000899038)
(0.0828835 0.000552575 0.000840888)
(0.0813254 0.000804454 0.00127272)
(0.072928 0.000459302 0.000820688)
(0.0814535 0.000462168 0.000737287)
(0.0797476 0.00073125 0.00118434)
(0.0713444 0.000424064 0.000741936)
(0.0801606 0.000403472 0.00064988)
(0.0782995 0.000687777 0.00109579)
(0.0698818 0.000404395 0.000661355)
(0.0789794 0.000364632 0.000570515)
(0.076959 0.000664801 0.00100562)
(0.0685251 0.000395625 0.000581515)
(0.0778919 0.000340639 0.000499531)
(0.0757078 0.000654853 0.000912569)
(0.0672623 0.000397206 0.000495746)
(0.0768919 0.000330718 0.000434397)
(0.0745328 0.000656118 0.000813699)
(0.0660949 0.000408061 0.000389381)
(0.0759819 0.000330405 0.000359334)
(0.0734293 0.000668878 0.000698119)
(0.0650351 0.000418526 0.000233083)
(0.0751671 0.0003392 0.000263885)
(0.0723971 0.000693038 0.00055317)
(0.0641507 0.000370215 -4.83457e-05)
(0.0744732 0.000348618 0.000114719)
(0.0714569 0.000717824 0.000339376)
(0.0636934 0.000177926 -0.000607308)
(0.0739789 0.00026924 -0.000180223)
(0.070684 0.000677417 -8.27753e-05)
(0.0643213 -0.00101253 -0.00236904)
(0.0738127 -0.0001047 -0.000844543)
(0.0702766 0.000533087 -0.00092721)
(0.0732926 -0.00222303 -0.00316406)
(0.0692031 -0.000806354 -0.00345408)
(0.10008 0.00135176 0.00135172)
(0.100186 0.000798758 0.000804935)
(0.100186 0.000804956 0.000798735)
(0.100264 0.00221729 0.00221717)
(0.10019 0.00231183 0.00207141)
(0.10019 0.00207148 0.00231175)
(0.0993831 0.00243575 0.00243551)
(0.100307 0.00263366 0.00245294)
(0.100307 0.00245312 0.00263351)
(0.0979844 0.00231026 0.00230988)
(0.0998053 0.00256033 0.00245573)
(0.0998052 0.00245604 0.00256007)
(0.0964956 0.00200637 0.00200572)
(0.0988632 0.00236439 0.00228066)
(0.098863 0.00228114 0.00236396)
(0.0950737 0.00159744 0.00159636)
(0.0978416 0.00204913 0.00196779)
(0.0978412 0.00196855 0.00204839)
(0.0937772 0.001227 0.00122521)
(0.0968627 0.00169139 0.00160424)
(0.0968621 0.00160545 0.00169018)
(0.092621 0.000963143 0.000960137)
(0.0959617 0.00140472 0.00132076)
(0.0959607 0.00132281 0.00140274)
(0.0915996 0.000779672 0.000774572)
(0.0951517 0.00119179 0.00111741)
(0.09515 0.00112086 0.0011884)
(0.0906978 0.000648822 0.000639987)
(0.0944321 0.00103222 0.000969997)
(0.0944292 0.000975804 0.00102646)
(0.0898961 0.000552443 0.000537756)
(0.0937988 0.000909594 0.000860936)
(0.0937939 0.000870956 0.000899903)
(0.0891755 0.000481178 0.000458695)
(0.0932386 0.000813109 0.000779616)
(0.0932307 0.000795964 0.000797433)
(0.0885274 0.000429267 0.000394936)
(0.0927404 0.000734658 0.000718019)
(0.092728 0.000743355 0.000710203)
(0.0879562 0.0003876 0.00033255)
(0.0923058 0.000666195 0.000666011)
(0.0922871 0.000706436 0.000627584)
(0.0874706 0.000347735 0.000258577)
(0.0919404 0.000597108 0.000612114)
(0.0919122 0.000678608 0.00053588)
(0.0870876 0.000302536 0.000156584)
(0.0916506 0.000518496 0.000546739)
(0.09161 0.000656052 0.000423606)
(0.0868274 0.000215365 -2.02239e-05)
(0.0914463 0.000409491 0.000445153)
(0.0913921 0.000630567 0.000264534)
(0.0866193 -3.75285e-05 -0.000393012)
(0.0913133 0.000221959 0.000260485)
(0.0912536 0.000565697 1.03677e-05)
(0.0861154 -0.000792363 -0.00130728)
(0.0911107 -0.000119754 -9.75436e-05)
(0.0910865 0.000369433 -0.000385067)
(0.0911983 -0.000703706 -0.000844263)
(0.0912103 -0.00020225 -0.000954832)
(0.100171 0.00136867 0.00141637)
(0.100118 0.000577394 0.000811291)
(0.100102 0.000699758 0.000700659)
(0.100759 0.00219486 0.00214895)
(0.100478 0.0015828 0.00185871)
(0.100477 0.00182252 0.00186455)
(0.100996 0.00247687 0.00238774)
(0.101004 0.00205865 0.00224241)
(0.101024 0.00234674 0.00238275)
(0.100838 0.00247615 0.00238885)
(0.101292 0.00220332 0.0023519)
(0.101338 0.0025059 0.0025434)
(0.100458 0.00231145 0.00222448)
(0.101309 0.00216712 0.00232187)
(0.101409 0.00245053 0.00247192)
(0.0999684 0.00205635 0.00196774)
(0.101157 0.00201041 0.00217848)
(0.101302 0.00226462 0.00226996)
(0.0994448 0.00178993 0.00169922)
(0.100927 0.00179293 0.00196811)
(0.101099 0.00200897 0.00199789)
(0.098936 0.00156203 0.00148245)
(0.100666 0.00158201 0.00176524)
(0.100856 0.00176981 0.0017566)
(0.0984688 0.00137572 0.00131972)
(0.10041 0.00139259 0.00158973)
(0.100609 0.00156827 0.00156211)
(0.0980547 0.00122136 0.00119839)
(0.100176 0.00122443 0.00144482)
(0.100383 0.00140077 0.00140718)
(0.097695 0.00109221 0.00111006)
(0.0999711 0.00108057 0.00133924)
(0.10019 0.00126164 0.00128476)
(0.0973874 0.000981749 0.00104613)
(0.0997987 0.000957338 0.00126535)
(0.100034 0.0011457 0.00118845)
(0.0971312 0.000881443 0.000996786)
(0.0996574 0.000847024 0.00121406)
(0.0999155 0.00104712 0.00111067)
(0.0969278 0.000781665 0.000954799)
(0.0995473 0.000739622 0.00117798)
(0.0998375 0.000958115 0.00104284)
(0.0967798 0.000670899 0.00091237)
(0.0994702 0.000622857 0.00115345)
(0.0998017 0.000870865 0.00097837)
(0.0966897 0.000529687 0.000852757)
(0.0994279 0.000485237 0.00113392)
(0.09981 0.00077465 0.000906416)
(0.0966551 0.000330471 0.000754133)
(0.0994186 0.000305619 0.0011081)
(0.0998608 0.000651758 0.000810324)
(0.0966289 3.61621e-05 0.000595181)
(0.099429 5.8799e-05 0.00106713)
(0.0999385 0.00047943 0.000672521)
(0.0965029 -0.000410216 0.000367969)
(0.09941 -0.000282979 0.00100807)
(0.0999939 0.000226384 0.000482819)
(0.0995357 -0.000746718 0.000961124)
(0.100208 -0.00011968 0.000315525)
(0.100242 0.000820121 0.00125611)
(0.10009 0.000294306 0.000735342)
(0.100071 0.000415652 0.000602752)
(0.100828 0.00139045 0.00193928)
(0.100491 0.000791896 0.00168399)
(0.100493 0.00112434 0.00158692)
(0.101392 0.00166327 0.00218212)
(0.101086 0.00107756 0.00208333)
(0.101128 0.0015407 0.00209397)
(0.101816 0.00176078 0.00226097)
(0.101664 0.00120405 0.0021789)
(0.101768 0.00173248 0.00229397)
(0.102081 0.00175472 0.00226178)
(0.102121 0.00123925 0.00222189)
(0.102291 0.00178951 0.0023669)
(0.102215 0.00166706 0.00217649)
(0.102451 0.00120111 0.00221008)
(0.102711 0.00174323 0.00232143)
(0.102266 0.00153174 0.00204128)
(0.10268 0.00111709 0.00212636)
(0.103037 0.00162515 0.00220141)
(0.102277 0.00137865 0.00188519)
(0.102841 0.0010152 0.00200564)
(0.103287 0.00147769 0.00204864)
(0.102274 0.0012242 0.00173063)
(0.102965 0.000913065 0.00187073)
(0.103493 0.00132463 0.00188911)
(0.10227 0.00108139 0.00160381)
(0.103068 0.000815891 0.00174539)
(0.103671 0.00117995 0.00174445)
(0.10227 0.000955603 0.00151481)
(0.10316 0.000725259 0.00164579)
(0.103833 0.0010518 0.00163086)
(0.102277 0.000841813 0.00145544)
(0.103251 0.000640291 0.00157108)
(0.10399 0.000939218 0.00154438)
(0.102294 0.000731268 0.0014193)
(0.10334 0.000557742 0.00152598)
(0.104147 0.000835979 0.00148043)
(0.10232 0.000612565 0.00140295)
(0.103422 0.000471225 0.00150967)
(0.104307 0.000734922 0.00143521)
(0.102357 0.000474284 0.00140438)
(0.1035 0.00037095 0.00151567)
(0.104474 0.000627066 0.00140554)
(0.102403 0.000302524 0.00142301)
(0.103573 0.000248274 0.00154872)
(0.10465 0.00050455 0.00138933)
(0.10245 7.74381e-05 0.00146133)
(0.103632 8.76426e-05 0.00161748)
(0.104832 0.000354368 0.00138654)
(0.102486 -0.000217465 0.00152995)
(0.10367 -0.00012409 0.00173256)
(0.105018 0.000162806 0.0014009)
(0.102491 -0.00056379 0.00166844)
(0.103676 -0.000404828 0.00189898)
(0.105201 -7.69259e-05 0.00144239)
(0.103861 -0.000720207 0.00214853)
(0.105497 -0.000334382 0.00155904)
(0.100243 0.000267368 0.00116239)
(0.100087 -2.30669e-08 0.000707013)
(0.100064 0.000135791 0.000537317)
(0.100782 0.00046565 0.00182621)
(0.100477 -6.59796e-08 0.00161778)
(0.100463 0.000370835 0.0014241)
(0.101401 0.000575372 0.00207616)
(0.101066 -1.14365e-07 0.00203465)
(0.101089 0.000525077 0.00193354)
(0.101987 0.000622641 0.00213407)
(0.101694 -1.98561e-07 0.0021177)
(0.101797 0.000605728 0.00212859)
(0.102506 0.000630663 0.00216546)
(0.102269 -3.45542e-07 0.00215054)
(0.102489 0.000639054 0.00221111)
(0.102934 0.000609567 0.00215784)
(0.102741 -5.75649e-07 0.00218059)
(0.103119 0.00063375 0.00224195)
(0.103276 0.000570029 0.00209079)
(0.103123 -9.23559e-07 0.00213546)
(0.103686 0.000600231 0.00219748)
(0.103553 0.00052329 0.00199261)
(0.103426 -1.48193e-06 0.00204668)
(0.104184 0.000553733 0.00210732)
(0.103785 0.000476982 0.00188762)
(0.103677 -2.42446e-06 0.00193941)