/*--------------------------------*- C++ -*----------------------------------*\
| =========                 |                                                 |
| \\      /  F ield         | OpenFOAM: The Open Source CFD Toolbox           |
|  \\    /   O peration     | Version:  2212                                  |
|   \\  /    A nd           | Website:  www.openfoam.com                      |
|    \\/     M anipulation  |                                                 |
\*---------------------------------------------------------------------------*/
FoamFile
{
    version     2.0;
    format      ascii;
    arch        "LSB;label=32;scalar=64";
    class       surfaceVectorField;
    location    "1.8";
    object      Uf;
}
// * * * * * * * * * * * * * * * * * * * * * * * * * * * * * * * * * * * * * //

dimensions      [0 1 -1 0 0 0 0];

internalField   nonuniform List<vector> 
1812
(
(0.0323361 -1.67678e-05 2.94907e-05)
(0.0408756 -0.000532176 0.000195441)
(0.0392747 0.0001435 -4.49604e-05)
(0.031678 -5.8872e-06 6.2764e-05)
(0.0399595 -0.000405717 0.000186695)
(0.0385391 0.00014402 8.69758e-06)
(0.0310809 -6.92078e-07 8.77646e-05)
(0.0392104 -0.000310235 0.000186045)
(0.0378848 0.000115911 5.47103e-05)
(0.0305185 3.23258e-06 9.93657e-05)
(0.0385109 -0.000234312 0.000181481)
(0.0372474 8.30788e-05 8.8043e-05)
(0.0299829 5.16761e-06 0.000100596)
(0.0378677 -0.000192966 0.000175869)
(0.0366445 6.50108e-05 0.000101835)
(0.029477 5.08765e-06 9.66889e-05)
(0.0372545 -0.00017035 0.000167574)
(0.0360596 5.61335e-05 0.000103469)
(0.0290054 4.14634e-06 9.06487e-05)
(0.0366938 -0.00015565 0.000156126)
(0.0355216 5.08215e-05 9.91996e-05)
(0.0361569 -0.000146549 0.000144644)
(0.0350045 4.61454e-05 9.35711e-05)
(0.0525514 -0.000940595 0.000223863)
(0.0617282 -0.00127875 0.000128265)
(0.0648054 -0.000758263 0.000132803)
(0.0514535 -0.000730049 0.000213484)
(0.060275 -0.00107762 0.000124805)
(0.0638609 -0.000537705 0.000125802)
(0.0505281 -0.000564159 0.000210617)
(0.0591168 -0.000929071 0.000154016)
(0.0630988 -0.000391612 0.000140088)
(0.0497042 -0.0004555 0.000212987)
(0.0581242 -0.000816444 0.000189249)
(0.0624122 -0.000287953 0.000155269)
(0.0489394 -0.000399228 0.000214827)
(0.0572469 -0.000747848 0.00020778)
(0.0617797 -0.000230075 0.00016862)
(0.0482267 -0.000364683 0.000208402)
(0.056444 -0.000697877 0.000204641)
(0.0611795 -0.000197138 0.000174563)
(0.0475631 -0.000341427 0.000196819)
(0.0557178 -0.000659828 0.00018898)
(0.0606199 -0.000174832 0.000172174)
(0.0550198 -0.000631709 0.000170863)
(0.0600693 -0.000162862 0.000166363)
(0.073409 -0.00193382 0.000384362)
(0.0796616 -0.00217457 0.000621074)
(0.0839286 -0.0020596 0.000436053)
(0.0715139 -0.00163784 0.000228386)
(0.0777726 -0.00187157 0.00036037)
(0.08258 -0.00170346 0.000259361)
(0.0699642 -0.00143223 0.000167879)
(0.0761938 -0.0016484 0.000200483)
(0.0814865 -0.00145592 0.000178003)
(0.0686888 -0.00128021 0.000154829)
(0.074858 -0.0014717 9.81659e-05)
(0.0805951 -0.00126587 0.000148572)
(0.0676181 -0.00116913 0.000153797)
(0.0737086 -0.00133579 3.33894e-05)
(0.0798597 -0.00112378 0.000143844)
(0.0666899 -0.00108781 0.000143902)
(0.0726899 -0.00123978 -1.06125e-05)
(0.0792309 -0.00102547 0.000140852)
(0.0658572 -0.00102664 0.000123488)
(0.0717687 -0.0011686 -4.73244e-05)
(0.0786812 -0.000955432 0.000131361)
(0.0650898 -0.000979454 9.7449e-05)
(0.070922 -0.00111699 -7.84714e-05)
(0.0781886 -0.000902309 0.000114408)
(0.0701116 -0.00107527 -0.000107663)
(0.0777271 -0.000867803 9.75226e-05)
(0.0893487 -0.00242417 0.00133507)
(0.0905434 -0.00195144 0.00108722)
(0.0952183 -0.00231922 0.00107773)
(0.0878297 -0.00257274 0.00122728)
(0.0894773 -0.00234448 0.00123894)
(0.094713 -0.00264678 0.00109406)
(0.0862166 -0.00236985 0.000923745)
(0.0884128 -0.00228227 0.00102647)
(0.0941166 -0.00246106 0.000888647)
(0.0846441 -0.00212686 0.000615752)
(0.0871708 -0.00209826 0.000715366)
(0.093313 -0.00221877 0.000638833)
(0.0831883 -0.00191779 0.000373582)
(0.0859099 -0.00192841 0.000446271)
(0.0924584 -0.00200486 0.000419566)
(0.081859 -0.00174542 0.000200241)
(0.0847224 -0.00178886 0.000252274)
(0.091654 -0.00182219 0.000251407)
(0.0806483 -0.00160388 7.19294e-05)
(0.0836138 -0.0016734 0.000108481)
(0.0909175 -0.00166686 0.000122791)
(0.0795444 -0.00149195 -2.58817e-05)
(0.082576 -0.00157995 -4.34052e-06)
(0.0902463 -0.00154233 2.3638e-05)
(0.0785316 -0.00140617 -0.000100176)
(0.0815963 -0.00150781 -9.35579e-05)
(0.0896336 -0.00144619 -5.26791e-05)
(0.077589 -0.00134131 -0.000155277)
(0.0806672 -0.0014528 -0.000163902)
(0.0890727 -0.00137212 -0.000111523)
(0.0766966 -0.00129232 -0.000195418)
(0.0797753 -0.00141175 -0.00021541)
(0.088551 -0.00131658 -0.000155999)
(0.0789056 -0.00137981 -0.000250926)
(0.0880565 -0.0012736 -0.000189567)
(0.0911166 -0.00183303 0.000933212)
(0.0901298 -0.00140554 0.000725443)
(0.0974767 -0.00181551 0.000685833)
(0.0903074 -0.00200053 0.000946993)
(0.0895795 -0.00164195 0.000851314)
(0.0972498 -0.00205597 0.000797979)
(0.0894415 -0.00197092 0.00074926)
(0.0890164 -0.00169939 0.000696825)
(0.0969813 -0.00204128 0.000702474)
(0.0885261 -0.00187879 0.000512238)
(0.088353 -0.00167385 0.000478792)
(0.096611 -0.00195371 0.000530834)
(0.087583 -0.00178767 0.000304906)
(0.0875992 -0.00163441 0.000277432)
(0.0961673 -0.00186582 0.000357512)
(0.0866407 -0.00170735 0.000138531)
(0.0867989 -0.00159448 0.000109726)
(0.0956896 -0.00178679 0.000205759)
(0.0857149 -0.00164072 5.49304e-06)
(0.0859794 -0.00156013 -2.99019e-05)
(0.0952016 -0.00171438 7.62826e-05)
(0.0848078 -0.00158825 -0.000101239)
(0.0851532 -0.0015352 -0.000144609)
(0.0947142 -0.00165136 -3.23427e-05)
(0.0839186 -0.00154837 -0.000187186)
(0.0843172 -0.00151779 -0.000237061)
(0.0942303 -0.00159829 -0.000121506)
(0.0830437 -0.00151852 -0.000254043)
(0.0834755 -0.00150499 -0.000310364)
(0.0937525 -0.00155663 -0.000194285)
(0.0821771 -0.00149544 -0.000301107)
(0.0826292 -0.00149383 -0.000359722)
(0.0932785 -0.00152528 -0.000249877)
(0.0817775 -0.00148283 -0.000390376)
(0.0928056 -0.00150229 -0.000288626)
(0.0886557 -0.00119572 0.000599671)
(0.0859195 -0.000707022 0.000454939)
(0.0961573 -0.00124388 0.000396672)
(0.0883194 -0.00132051 0.000552847)
(0.0857533 -0.000890566 0.000387125)
(0.0960836 -0.0013887 0.000432408)
(0.0879154 -0.0013872 0.000392655)
(0.0855225 -0.00103629 0.00024752)
(0.095964 -0.00145358 0.000348429)
(0.0874042 -0.00141877 0.000221522)
(0.0852004 -0.00114012 0.000119934)
(0.0958135 -0.00148089 0.000231442)
(0.0868002 -0.0014343 6.93054e-05)
(0.0847377 -0.00121565 2.98822e-07)
(0.0955931 -0.00149505 0.000113887)
(0.0861289 -0.00144324 -6.46815e-05)
(0.0841658 -0.00127085 -0.000115404)
(0.0953064 -0.00150362 2.30752e-06)
(0.085411 -0.00145248 -0.000182219)
(0.0835203 -0.00131363 -0.000228047)
(0.0949728 -0.00151062 -0.000101846)
(0.0846569 -0.00146392 -0.000280486)
(0.0828199 -0.00134921 -0.000323216)
(0.0946062 -0.00151527 -0.000192615)
(0.0838722 -0.00147462 -0.000358554)
(0.0820683 -0.00137767 -0.000394628)
(0.0942111 -0.00151642 -0.000266576)
(0.0830613 -0.00148128 -0.000412987)
(0.0812793 -0.00139563 -0.000445622)
(0.0937924 -0.00151606 -0.000324625)
(0.0822308 -0.00148273 -0.000444865)
(0.0804637 -0.00140389 -0.000474959)
(0.0933551 -0.00151385 -0.000362892)
(0.0796304 -0.00140438 -0.000489118)
(0.0929031 -0.00150952 -0.00038657)
(0.0830136 -0.000405871 0.000219726)
(0.0788341 0.000141822 0.000130709)
(0.091852 -0.000512736 8.39547e-05)
(0.0830321 -0.000612102 7.51289e-05)
(0.0789589 -0.000160515 -0.000161061)
(0.0919256 -0.000702886 -4.58991e-06)
(0.0828991 -0.000794436 -2.82389e-05)
(0.078931 -0.000447096 -0.000234839)
(0.0919303 -0.000853042 -7.34182e-05)
(0.0825929 -0.000941069 -0.000104659)
(0.0787166 -0.000664907 -0.000231716)
(0.0918981 -0.00097412 -0.000117263)
(0.0821512 -0.00105545 -0.000187017)
(0.078311 -0.000833735 -0.000261574)
(0.0917696 -0.00107557 -0.000167797)
(0.081606 -0.00114386 -0.000280333)
(0.0777843 -0.000960279 -0.000323107)
(0.0915546 -0.00116004 -0.000229682)
(0.0809758 -0.00121269 -0.000368875)
(0.0771636 -0.00105023 -0.000392898)
(0.0912765 -0.00122639 -0.000295507)
(0.0802767 -0.00126535 -0.000434621)
(0.0764704 -0.00111314 -0.000445478)
(0.0909479 -0.00127353 -0.000346513)
(0.0795237 -0.00130114 -0.000477364)
(0.0757227 -0.00115415 -0.000476447)
(0.0905746 -0.00130574 -0.000380324)
(0.0787305 -0.00132071 -0.000502758)
(0.0749389 -0.00117676 -0.0004924)
(0.0901682 -0.00132577 -0.000402514)
(0.0779116 -0.00132796 -0.000514534)
(0.0741317 -0.00118534 -0.000496699)
(0.0897372 -0.00133617 -0.000414369)
(0.0733133 -0.0011839 -0.000492884)
(0.0892891 -0.00133865 -0.00041716)
(0.0750063 0.000366443 -0.000323112)
(0.0699159 0.000858626 -0.000483093)
(0.0852872 0.000289692 -0.000380127)
(0.0752192 -1.60496e-05 -0.000457023)
(0.0699047 0.0003191 -0.000777304)
(0.0854184 -8.27785e-05 -0.0005672)
(0.0750663 -0.000334705 -0.000409576)
(0.0697413 -7.51543e-05 -0.000564552)
(0.0854763 -0.000365135 -0.000537777)
(0.0747068 -0.000571263 -0.000368435)
(0.0692901 -0.000341719 -0.000403597)
(0.0854143 -0.000560596 -0.000470002)
(0.0742162 -0.000750009 -0.000379872)
(0.0686925 -0.000533578 -0.000369657)
(0.0852277 -0.00072049 -0.000440924)
(0.0736188 -0.000877031 -0.00041571)
(0.0680427 -0.000662475 -0.000380388)
(0.0849622 -0.000840306 -0.000435638)
(0.0729372 -0.000960734 -0.000448633)
(0.0673425 -0.000745458 -0.000393372)
(0.0846362 -0.000915326 -0.000429226)
(0.0721976 -0.00101194 -0.000469377)
(0.0666057 -0.000796707 -0.000403385)
(0.0842652 -0.000964275 -0.000421965)
(0.0714222 -0.00103987 -0.00047742)
(0.0658506 -0.000824678 -0.000406644)
(0.083863 -0.000995184 -0.000412401)
(0.0706246 -0.00105162 -0.000475508)
(0.0650868 -0.000835654 -0.000401882)
(0.0834398 -0.00101252 -0.000401759)
(0.0698163 -0.00105161 -0.000467003)
(0.0643232 -0.000833822 -0.0003918)
(0.0830028 -0.00101893 -0.000389061)
(0.0825599 -0.00101644 -0.000374515)
(0.0656987 0.000799505 -0.000579246)
(0.0585082 0.000821492 -0.000847266)
(0.076903 0.000663773 -0.00076272)
(0.0652756 0.00025359 -0.000640765)
(0.0581199 0.000314675 -0.000858169)
(0.0769164 8.16162e-05 -0.00104802)
(0.0646206 -9.49695e-05 -0.000496402)
(0.0573688 0.000108069 -0.000454692)
(0.0768098 -0.000148197 -0.00086376)
(0.0639344 -0.000321688 -0.000433011)
(0.056405 -5.40649e-05 -0.000272628)
(0.0764608 -0.000292812 -0.000696393)
(0.063222 -0.000467263 -0.000429341)
(0.0555492 -0.000185136 -0.000237329)
(0.0760319 -0.000401388 -0.000600259)
(0.0624833 -0.000555407 -0.000435492)
(0.0547947 -0.000272727 -0.000234099)
(0.0755941 -0.000471266 -0.000532381)
(0.0617329 -0.0006084 -0.000437673)
(0.0540599 -0.000328796 -0.000244605)
(0.0751461 -0.000517714 -0.000486335)
(0.0609828 -0.000637945 -0.000434541)
(0.0533364 -0.000366286 -0.000258109)
(0.0746933 -0.000548892 -0.0004478)
(0.0602388 -0.00064994 -0.000425036)
(0.052629 -0.000384986 -0.000265224)
(0.0742424 -0.000566585 -0.000416115)
(0.0595045 -0.000648055 -0.000409598)
(0.0519354 -0.000388003 -0.000261719)
(0.0737962 -0.000572751 -0.000388107)
(0.0512703 -0.000380986 -0.000251528)
(0.0733558 -0.000569227 -0.000363207)
(0.0532002 0.000315683 -0.00144756)
(0.0473581 -0.000375418 -0.00258729)
(0.0650173 -5.46265e-05 -0.00206723)
(0.0518127 0.000149707 -0.000825588)
(0.0436285 9.51319e-05 -0.00110426)
(0.0650678 -0.000212734 -0.00187174)
(0.0505173 0.000138439 -0.000181127)
(0.0417447 0.000190412 -0.000166219)
(0.0643485 -7.97103e-05 -0.00105617)
(0.0495421 7.36057e-05 6.21603e-05)
(0.0402328 0.000121012 9.87207e-05)
(0.0633724 -5.16513e-05 -0.000554342)
(0.048711 -3.81543e-06 0.000109718)
(0.039228 4.40483e-05 0.000146148)
(0.0625398 -7.34631e-05 -0.000323283)
(0.0479555 -6.36524e-05 0.000101817)
(0.0384939 -1.05827e-05 0.000142328)
(0.0618538 -0.000102271 -0.000199973)
(0.047243 -0.000107713 6.90952e-05)
(0.0378404 -5.57143e-05 0.000114204)
(0.0612261 -0.000130996 -0.000138455)
(0.0465558 -0.000136843 3.55785e-05)
(0.0372132 -8.76186e-05 8.34984e-05)
(0.0606311 -0.000151756 -0.000107835)
(0.0458918 -0.000148243 1.64736e-05)
(0.0366212 -0.000101032 6.60592e-05)
(0.0600618 -0.000158338 -8.50697e-05)
(0.045257 -0.000147496 8.83333e-06)
(0.0360504 -0.00010275 5.70059e-05)
(0.0595099 -0.000156592 -6.81867e-05)
(0.0355163 -9.89031e-05 5.11085e-05)
(0.0589857 -0.000150093 -5.69515e-05)
(0.0415582 -0.000284465 -0.00163057)
(0.0523505 -0.000582611 -0.00212798)
(0.0365779 0.000122976 -0.000554131)
(0.0469364 -0.000165494 -0.0014425)
(0.0344159 0.000105542 -0.000121457)
(0.0442391 -0.000189842 -0.000996647)
(0.033159 2.19832e-05 -3.7828e-05)
(0.0421754 -0.000216334 -0.000740586)
(0.0323089 -3.06312e-05 -1.67994e-05)
(0.0408316 -0.000199511 -0.000537269)
(0.0316431 -6.34555e-05 -6.73387e-06)
(0.0399154 -0.000188334 -0.000405745)
(0.0310499 -8.74514e-05 -1.30605e-06)
(0.0391668 -0.000184459 -0.000306814)
(0.0304959 -9.84381e-05 3.10127e-06)
(0.0384777 -0.000179386 -0.000232015)
(0.02997 -9.95841e-05 5.40646e-06)
(0.0378451 -0.000173739 -0.000190976)
(0.0294724 -9.5898e-05 5.30618e-06)
(0.0372454 -0.000165627 -0.000168755)
(0.0366886 -0.000154964 -0.000154615)
(0.0487758 0.00011057 1.33489e-06)
(0.0625743 -0.000326689 7.27483e-05)
(0.0556036 -0.000224511 0.000178356)
(0.0480205 0.000100677 6.24446e-05)
(0.0618813 -0.000197636 9.88722e-05)
(0.0548421 -0.000236342 0.000271006)
(0.0472961 6.54894e-05 0.000107944)
(0.0612513 -0.000137197 0.000129148)
(0.0541015 -0.000254291 0.00033081)
(0.0465938 3.04188e-05 0.000138023)
(0.0606512 -0.000108494 0.000150988)
(0.0533674 -0.000270614 0.000370402)
(0.0459143 1.19528e-05 0.00014945)
(0.0600749 -8.63834e-05 0.000158196)
(0.0526483 -0.000277619 0.000389715)
(0.0452668 5.52152e-06 0.000148306)
(0.0595143 -6.98672e-05 0.000156671)
(0.0519406 -0.000271377 0.000391905)
(0.0446565 2.79563e-06 0.000142224)
(0.0589862 -5.70856e-05 0.000149447)
(0.0512702 -0.000259545 0.000384244)
(0.0584632 -5.16139e-05 0.000143267)
(0.050614 -0.000247788 0.000372405)
(0.0791694 -0.000648951 8.60648e-05)
(0.086447 -0.00125919 0.00016137)
(0.084624 -0.000862178 0.000234076)
(0.078628 -0.000439702 9.50041e-05)
(0.0859732 -0.00100215 0.000143853)
(0.0842696 -0.000653758 0.000246334)
(0.0781447 -0.000313756 0.000121079)
(0.0855642 -0.000829259 0.000154035)
(0.0839556 -0.000521114 0.000277476)
(0.0776975 -0.000233327 0.000143185)
(0.0852019 -0.000710242 0.00017229)
(0.0836656 -0.000430189 0.0003075)
(0.0772731 -0.000185163 0.000159288)
(0.0848719 -0.000629822 0.000188884)
(0.0833876 -0.000371594 0.000329311)
(0.0768558 -0.000158749 0.000169851)
(0.0845699 -0.00058089 0.000201148)
(0.08312 -0.000336743 0.000344869)
(0.0764414 -0.000143769 0.000174033)
(0.084281 -0.000545628 0.000204667)
(0.0828525 -0.00031392 0.000352242)
(0.0839998 -0.000529171 0.000204028)
(0.0825798 -0.000299317 0.000354194)
(0.0947241 -0.00200324 0.000321168)
(0.0984038 -0.0022553 0.000432854)
(0.0982906 -0.00199654 0.000412726)
(0.094377 -0.00168528 0.000222961)
(0.0981822 -0.00197043 0.000285629)
(0.0982154 -0.00173092 0.00033813)
(0.0940539 -0.00144454 0.00017299)
(0.0979437 -0.00173533 0.000181809)
(0.0981245 -0.00151372 0.000300824)
(0.0937771 -0.00126193 0.000151173)
(0.0977234 -0.00154468 0.000110923)
(0.0980445 -0.00134036 0.000287265)
(0.093547 -0.00112809 0.000143727)
(0.0975319 -0.00139825 6.28587e-05)
(0.0979885 -0.00120675 0.000286668)
(0.0933594 -0.00103525 0.000141297)
(0.0973701 -0.00129029 2.8747e-05)
(0.0979581 -0.00110861 0.000290467)
(0.0932041 -0.000968952 0.00013614)
(0.0972385 -0.00121427 3.38922e-06)
(0.0979536 -0.00104051 0.000293709)
(0.0930726 -0.000927698 0.000129805)
(0.0971256 -0.00115655 -2.02502e-05)
(0.097964 -0.000988942 0.000290882)
(0.0970339 -0.00112447 -3.70789e-05)
(0.0979942 -0.000962519 0.000288963)
(0.101615 -0.00233853 0.000806903)
(0.102812 -0.00199608 0.000691743)
(0.104043 -0.00195718 0.000676603)
(0.102022 -0.0025054 0.00072397)
(0.103225 -0.00230057 0.000701216)
(0.104477 -0.00225409 0.000634549)
(0.1022 -0.00241665 0.000579991)
(0.103494 -0.00231506 0.000610409)
(0.104806 -0.00227823 0.000546527)
(0.102203 -0.00224618 0.000428095)
(0.103631 -0.00221822 0.00047663)
(0.105045 -0.00218558 0.000444187)
(0.102113 -0.00205794 0.000289445)
(0.103657 -0.0020893 0.000340785)
(0.10519 -0.00204937 0.000343095)
(0.101987 -0.00187977 0.000169634)
(0.103621 -0.00195996 0.000214072)
(0.10528 -0.00190293 0.000250704)
(0.101859 -0.00172843 7.23789e-05)
(0.10356 -0.00183769 0.000102542)
(0.105349 -0.00176479 0.000172488)
(0.10174 -0.00160947 -3.72032e-06)
(0.103491 -0.00173353 1.02154e-05)
(0.105413 -0.00164951 0.000110058)
(0.101639 -0.00151836 -6.35504e-05)
(0.103424 -0.00164816 -6.46915e-05)
(0.105482 -0.0015574 6.04676e-05)
(0.101555 -0.00144996 -0.000111235)
(0.103364 -0.00158246 -0.000125542)
(0.105561 -0.00148623 2.07339e-05)
(0.101483 -0.00139999 -0.000148979)
(0.103309 -0.00153413 -0.000174519)
(0.105648 -0.00143185 -1.18383e-05)
(0.103259 -0.00150101 -0.000210905)
(0.105745 -0.00139347 -3.7728e-05)
(0.104425 -0.001934 0.000542754)
(0.104284 -0.0015847 0.000357903)
(0.106863 -0.00172205 0.000423258)
(0.104764 -0.00208071 0.000533095)
(0.104578 -0.00176817 0.000392422)
(0.107259 -0.00190734 0.000420655)
(0.105012 -0.00209198 0.000460383)
(0.104794 -0.00184106 0.000359288)
(0.107584 -0.00198171 0.00038053)
(0.105165 -0.00204427 0.000355617)
(0.104981 -0.00184785 0.000283699)
(0.107886 -0.0019794 0.000312936)
(0.105248 -0.001981 0.00024167)
(0.105116 -0.00183075 0.000190036)
(0.108143 -0.00194462 0.000231661)
(0.105281 -0.00191273 0.000129546)
(0.105198 -0.00180803 8.96546e-05)
(0.108352 -0.00189788 0.000146875)
(0.105283 -0.00184111 2.64586e-05)
(0.105241 -0.00177835 -7.7969e-06)
(0.108529 -0.00184192 6.48559e-05)
(0.105268 -0.00177258 -6.31447e-05)
(0.105258 -0.00174169 -9.37736e-05)
(0.108684 -0.00178367 -8.88956e-06)
(0.105244 -0.00171395 -0.000138193)
(0.105259 -0.00170268 -0.000165041)
(0.108829 -0.00172979 -7.17659e-05)
(0.105215 -0.00166947 -0.000199323)
(0.105249 -0.00167132 -0.000223156)
(0.108966 -0.00168582 -0.000123631)
(0.105181 -0.00163866 -0.000246732)
(0.105228 -0.00164892 -0.000268825)
(0.109096 -0.00165255 -0.00016527)
(0.1052 -0.00163339 -0.000302057)
(0.109223 -0.00162846 -0.000197121)
(0.104369 -0.00141763 0.000216332)
(0.102971 -0.00105871 4.02776e-05)
(0.107128 -0.00135883 7.66097e-05)
(0.104575 -0.00152272 0.000212226)
(0.103158 -0.0011759 4.81516e-05)
(0.107415 -0.00144841 8.7751e-05)
(0.104773 -0.00158925 0.000168018)
(0.103295 -0.00128305 1.79701e-05)
(0.107665 -0.00153082 6.3624e-05)
(0.104937 -0.00162737 0.000103769)
(0.103462 -0.00136139 -2.293e-05)
(0.107937 -0.00158264 2.29496e-05)
(0.105064 -0.00165237 2.68047e-05)
(0.10361 -0.00142327 -7.63719e-05)
(0.108202 -0.00161567 -2.96901e-05)
(0.105156 -0.00167008 -5.46372e-05)
(0.103717 -0.00147615 -0.000136995)
(0.108442 -0.00163953 -8.94266e-05)
(0.105216 -0.00167708 -0.000130937)
(0.103791 -0.00151535 -0.00019358)
(0.108657 -0.00165511 -0.000148865)
(0.10525 -0.00167119 -0.000195787)
(0.103837 -0.00153346 -0.000239289)
(0.108851 -0.00165865 -0.000201531)
(0.105264 -0.00166028 -0.000248415)
(0.103862 -0.00153763 -0.00027515)
(0.109028 -0.00165278 -0.000245034)
(0.105262 -0.00165159 -0.000289928)
(0.103869 -0.0015403 -0.00030367)
(0.10919 -0.00164588 -0.000279716)
(0.105247 -0.00164494 -0.000320326)
(0.103861 -0.00154187 -0.000324849)
(0.109339 -0.00163957 -0.000305832)
(0.103838 -0.00154095 -0.000336641)
(0.109477 -0.00163321 -0.000323561)
(0.101705 -0.000816275 -0.000155526)
(0.0993208 -0.000428249 -0.000402596)
(0.105054 -0.000855643 -0.000325494)
(0.101859 -0.000938402 -0.000157895)
(0.0994001 -0.000593243 -0.000414432)
(0.105273 -0.000929442 -0.000297706)
(0.102021 -0.00105888 -0.000174537)
(0.0994998 -0.000764048 -0.000412411)
(0.105471 -0.00103912 -0.000311391)
(0.102166 -0.00116143 -0.000199747)
(0.09964 -0.000892817 -0.000397571)
(0.10572 -0.00113095 -0.00033155)
(0.102285 -0.00125125 -0.000233954)
(0.0997601 -0.00100209 -0.000387928)
(0.105974 -0.00121136 -0.000354328)
(0.102375 -0.00132527 -0.000269445)
(0.099841 -0.00109096 -0.000381615)
(0.106205 -0.00128257 -0.000377564)
(0.102436 -0.0013751 -0.000296487)
(0.0998963 -0.00114874 -0.000370051)
(0.106415 -0.00133821 -0.000394965)
(0.102474 -0.00140296 -0.000313757)
(0.0999319 -0.00118526 -0.000357748)
(0.106607 -0.00137429 -0.000403918)
(0.102491 -0.00142043 -0.000326036)
(0.0999488 -0.00120998 -0.000346886)
(0.106782 -0.00139724 -0.000408036)
(0.102491 -0.00143316 -0.000334529)
(0.0999493 -0.00122787 -0.000339542)
(0.106941 -0.00141364 -0.000410102)
(0.102475 -0.00144032 -0.000337439)
(0.0999353 -0.00123872 -0.000331905)
(0.107087 -0.0014238 -0.000408949)
(0.0999103 -0.0012415 -0.00032181)
(0.107221 -0.00142744 -0.000403891)
(0.0970474 -0.000220204 -0.000656396)
(0.0935053 7.33369e-05 -0.000853521)
(0.101072 -0.000350436 -0.000873193)
(0.0971265 -0.000433141 -0.000648237)
(0.0936669 -0.000222775 -0.000977012)
(0.101239 -0.00048613 -0.000860352)
(0.0972629 -0.000611115 -0.000612263)
(0.0937931 -0.000406257 -0.000936655)
(0.101441 -0.000617935 -0.000843311)
(0.0973691 -0.00074553 -0.000566664)
(0.093854 -0.000510831 -0.000803118)
(0.10169 -0.000719164 -0.00080421)
(0.0974431 -0.000852966 -0.00052251)
(0.0938666 -0.000589523 -0.000674073)
(0.101924 -0.000809004 -0.000757057)
(0.0974913 -0.000925428 -0.000473401)
(0.0938491 -0.000652811 -0.000568372)
(0.10212 -0.000882792 -0.000704537)
(0.0975231 -0.000970005 -0.000424831)
(0.0938166 -0.00069681 -0.000489447)
(0.102294 -0.000932985 -0.000647698)
(0.0975384 -0.00100322 -0.000386178)
(0.0937753 -0.000731977 -0.00042671)
(0.102453 -0.000971574 -0.000598597)
(0.0975383 -0.00102804 -0.000357837)
(0.0937256 -0.000758964 -0.000380124)
(0.102598 -0.0010017 -0.000558438)
(0.0975254 -0.00104379 -0.000336843)
(0.09367 -0.000777501 -0.000348055)
(0.102732 -0.00102228 -0.000527521)
(0.0975027 -0.00105011 -0.000318406)
(0.0936065 -0.000787302 -0.000324985)
(0.102858 -0.00103379 -0.000502286)
(0.10298 -0.00103626 -0.000480559)
(0.0903133 5.79991e-05 -0.00117443)
(0.0849189 -0.000218021 -0.00168187)
(0.0953358 -8.02104e-05 -0.00132914)
(0.0906064 -0.000206786 -0.00122617)
(0.0854674 -0.000339533 -0.00190343)
(0.0956856 -0.000279564 -0.00152511)
(0.0907086 -0.000320075 -0.001084)
(0.0854034 -0.000272036 -0.00155452)
(0.0959234 -0.000367039 -0.00147032)
(0.0906712 -0.000372416 -0.00089843)
(0.0850435 -0.000228614 -0.00114147)
(0.0960736 -0.000399033 -0.00131159)
(0.090594 -0.000409954 -0.000733273)
(0.0846454 -0.000230416 -0.000853736)
(0.0961591 -0.000423281 -0.00114605)
(0.0905026 -0.00044634 -0.000610394)
(0.0842929 -0.000250923 -0.000655206)
(0.0962055 -0.000450893 -0.00100085)
(0.0904046 -0.000481311 -0.000523701)
(0.0839766 -0.000281275 -0.00052257)
(0.0962332 -0.000481253 -0.000891421)
(0.0903046 -0.000510395 -0.000457539)
(0.0836816 -0.000310076 -0.000431246)
(0.0962562 -0.000510505 -0.000803353)
(0.0902044 -0.000531263 -0.00040931)
(0.0834001 -0.000330821 -0.00037189)
(0.0962803 -0.000533545 -0.000736404)
(0.090102 -0.000544015 -0.000374601)
(0.0831274 -0.000345151 -0.000335078)
(0.096309 -0.000549668 -0.000687008)
(0.0828594 -0.000353916 -0.00031443)
(0.0963385 -0.000558938 -0.000651845)
(0.08081 -0.00058735 -0.00253946)
(0.071975 -0.00111318 -0.00358429)
(0.0868939 -0.000703427 -0.00243648)
(0.0809861 -0.000391678 -0.00216883)
(0.0696778 -0.00076951 -0.00278324)
(0.0875594 -0.000593979 -0.00262724)
(0.0804468 -0.000182198 -0.00148183)
(0.0678249 -0.000356431 -0.00176023)
(0.0874754 -0.000352638 -0.00213708)
(0.0797971 -9.60156e-05 -0.000962279)
(0.0660798 -0.000186113 -0.00113087)
(0.0870037 -0.00020718 -0.00161564)
(0.0791881 -8.37199e-05 -0.000643663)
(0.0647746 -0.000134264 -0.00076124)
(0.0864723 -0.000156759 -0.00125306)
(0.0786461 -0.000100083 -0.00044572)
(0.063835 -0.000128717 -0.000538613)
(0.0860001 -0.000146403 -0.0010057)
(0.0781585 -0.000125699 -0.000320041)
(0.0630747 -0.00013968 -0.000389016)
(0.0855886 -0.000155684 -0.00083152)
(0.0777078 -0.000146904 -0.000238532)
(0.0623934 -0.000154385 -0.000286494)
(0.0852214 -0.000173227 -0.000711211)
(0.077281 -0.000161336 -0.000187829)
(0.0617675 -0.000167243 -0.000228691)
(0.0848879 -0.000189031 -0.000629455)
(0.0768641 -0.000171561 -0.000160909)
(0.0611753 -0.000172727 -0.000195592)
(0.0845814 -0.000200236 -0.000579224)
(0.0606194 -0.000171571 -0.000174668)
(0.0842917 -0.000205329 -0.000546257)
(0.0645624 -0.000971915 -0.00247465)
(0.072998 -0.00160723 -0.002798)
(0.0592024 -0.000682022 -0.00227064)
(0.0691291 -0.00110831 -0.00278115)
(0.0559454 -0.000407183 -0.0017342)
(0.0662332 -0.000479651 -0.00211934)
(0.0539143 -0.000280791 -0.00127242)
(0.0636488 -0.000223392 -0.00163302)
(0.0524895 -0.000229403 -0.000947063)
(0.0616766 -0.000140451 -0.0012954)
(0.051391 -0.000211695 -0.000723729)
(0.0602279 -0.000126124 -0.00107623)
(0.0504781 -0.000205756 -0.000555371)
(0.0590753 -0.000147789 -0.000919122)
(0.0496683 -0.000208019 -0.00044888)
(0.058093 -0.00018113 -0.000806002)
(0.0489179 -0.000210241 -0.000394108)
(0.0572263 -0.000199327 -0.000737677)
(0.048217 -0.000204713 -0.000360745)
(0.0564349 -0.00019815 -0.000689769)
(0.0557137 -0.000183745 -0.000652659)
(0.0639575 -0.00041771 0.000312207)
(0.0764682 -0.00068799 0.000285405)
(0.0693052 -0.000391859 0.000334134)
(0.063248 -0.000423796 0.000461741)
(0.0760349 -0.000592256 0.000393189)
(0.0687095 -0.000364529 0.00052725)
(0.0625069 -0.000443078 0.000556462)
(0.0755953 -0.000534633 0.000469015)
(0.0680575 -0.000385588 0.000661951)
(0.0617501 -0.00045177 0.000613873)
(0.0751452 -0.00049412 0.000519499)
(0.0673538 -0.000404395 0.000749656)
(0.0609918 -0.000450266 0.000645375)
(0.0746906 -0.000457386 0.000552903)
(0.0666123 -0.0004165 0.000803246)
(0.060239 -0.000439409 0.000657284)
(0.0742375 -0.000425767 0.00057155)
(0.0658515 -0.000419573 0.000831974)
(0.0594965 -0.000421444 0.000654398)
(0.0737898 -0.000395935 0.000576938)
(0.0650818 -0.000413064 0.00084226)
(0.0587694 -0.000400829 0.000641722)
(0.073348 -0.000369289 0.000572588)
(0.0643132 -0.000400964 0.000839647)
(0.0729123 -0.000348355 0.000563322)
(0.0635492 -0.000385264 0.000827775)
(0.0906526 -0.000901941 0.000372116)
(0.0960594 -0.00131867 0.000402754)
(0.0938454 -0.000809563 0.000508892)
(0.0905691 -0.000734211 0.000406189)
(0.0961364 -0.00114955 0.000423374)
(0.09385 -0.000678853 0.00058671)
(0.0904757 -0.00061138 0.000442928)
(0.0961817 -0.00100218 0.000448557)
(0.0938318 -0.000570167 0.000650509)
(0.090381 -0.000525005 0.000479505)
(0.0962101 -0.000892018 0.000479151)
(0.0937999 -0.000490204 0.000696062)
(0.090286 -0.000459141 0.000510042)
(0.0962364 -0.000803847 0.000509259)
(0.0937616 -0.000427495 0.000732856)
(0.0901917 -0.000410731 0.000531435)
(0.0962655 -0.000736932 0.000532955)
(0.093716 -0.000380852 0.000760788)
(0.0900958 -0.000375102 0.000543609)
(0.0963002 -0.00068736 0.000549294)
(0.0936655 -0.000348191 0.000779157)
(0.0899967 -0.000350646 0.000548708)
(0.096335 -0.000650899 0.000557369)
(0.0936066 -0.000323921 0.000788108)
(0.0963748 -0.000627408 0.000559329)
(0.0935436 -0.000306655 0.000789838)
(0.1022 -0.00159434 0.000435987)
(0.104981 -0.00178066 0.000411338)
(0.10419 -0.00137062 0.00057011)
(0.102411 -0.00143725 0.0004273)
(0.105291 -0.00165695 0.000372213)
(0.104504 -0.00124785 0.000586387)
(0.10259 -0.00129394 0.000429317)
(0.105546 -0.00152864 0.000342201)
(0.104772 -0.0011283 0.000606901)
(0.102757 -0.00117355 0.000438726)
(0.105771 -0.00141073 0.000322493)
(0.105015 -0.00102484 0.000629088)
(0.102923 -0.00107744 0.000450447)
(0.105987 -0.00130991 0.000308908)
(0.105248 -0.000938481 0.000650281)
(0.103096 -0.00100409 0.000460622)
(0.106203 -0.00122823 0.000298656)
(0.105479 -0.000868816 0.000667919)
(0.103277 -0.000949823 0.000466828)
(0.106423 -0.00116516 0.000290257)
(0.105711 -0.000815436 0.000680342)
(0.103465 -0.000912251 0.000468885)
(0.106647 -0.0011172 0.000281332)
(0.105945 -0.000775017 0.000686573)
(0.10688 -0.00108484 0.000273581)
(0.106185 -0.000748677 0.000687922)
(0.107059 -0.00180802 0.000492929)
(0.108264 -0.00166788 0.000423885)
(0.108513 -0.00149452 0.000512997)
(0.107491 -0.00191155 0.000451427)
(0.108682 -0.00179955 0.000385944)
(0.108928 -0.00157408 0.000479128)
(0.107928 -0.00191755 0.000411283)
(0.109072 -0.00185398 0.000352563)
(0.109322 -0.00160823 0.000460786)
(0.108318 -0.00186131 0.000364851)
(0.109487 -0.00184606 0.000313198)
(0.10976 -0.00158605 0.000444392)
(0.108659 -0.00177345 0.000313909)
(0.109876 -0.00180069 0.000262942)
(0.110182 -0.0015267 0.000422435)
(0.108962 -0.00167455 0.000266131)
(0.110225 -0.00173669 0.000209676)
(0.110567 -0.00145041 0.000398678)
(0.109242 -0.00157853 0.000225056)
(0.110545 -0.00166601 0.000159549)
(0.110928 -0.00136997 0.000376114)
(0.109512 -0.00149382 0.000190899)
(0.110849 -0.00159767 0.000116344)
(0.111273 -0.00129454 0.000355712)
(0.109778 -0.00142341 0.000162804)
(0.111143 -0.00153721 8.03179e-05)
(0.111611 -0.00122858 0.000337787)
(0.110045 -0.00136703 0.000139281)
(0.111432 -0.00148698 5.06826e-05)
(0.111945 -0.00117372 0.00032193)
(0.110314 -0.00132395 0.000119436)
(0.111719 -0.00144662 2.6041e-05)
(0.112277 -0.00112956 0.000307252)
(0.112006 -0.00141591 5.81557e-06)
(0.11261 -0.00109617 0.000293821)
(0.109844 -0.00165058 0.000296202)
(0.109933 -0.00146746 0.00012174)
(0.111106 -0.00139438 0.000288685)
(0.110271 -0.00173272 0.000266698)
(0.110326 -0.0015424 0.000106683)
(0.11155 -0.00145535 0.000256202)
(0.110703 -0.00177474 0.000236554)
(0.110692 -0.00160331 9.31565e-05)
(0.111966 -0.00150295 0.000238118)
(0.111116 -0.00177993 0.000196281)
(0.111088 -0.001635 6.72423e-05)
(0.112416 -0.00151812 0.000218328)
(0.111505 -0.00176104 0.000147212)
(0.111485 -0.00164462 2.92475e-05)
(0.112867 -0.00150877 0.000190901)
(0.11187 -0.00172784 9.50234e-05)
(0.111864 -0.00164068 -1.40956e-05)
(0.113301 -0.00148496 0.000159309)
(0.112215 -0.00168665 4.44791e-05)
(0.112225 -0.0016273 -5.8585e-05)
(0.113718 -0.00145167 0.000126379)
(0.112545 -0.00164351 -6.23504e-07)
(0.112571 -0.00160703 -9.96137e-05)
(0.114121 -0.00141297 9.55551e-05)
(0.112863 -0.00160383 -3.8603e-05)
(0.112904 -0.00158416 -0.000134714)
(0.114514 -0.00137435 6.85282e-05)