/*--------------------------------*- C++ -*----------------------------------*\
| =========                 |                                                 |
| \\      /  F ield         | OpenFOAM: The Open Source CFD Toolbox           |
|  \\    /   O peration     | Version:  2212                                  |
|   \\  /    A nd           | Website:  www.openfoam.com                      |
|    \\/     M anipulation  |                                                 |
\*---------------------------------------------------------------------------*/
FoamFile
{
    version     2.0;
    format      ascii;
    arch        "LSB;label=32;scalar=64";
    class       surfaceScalarField;
    location    "0.75";
    object      phi;
}
// * * * * * * * * * * * * * * * * * * * * * * * * * * * * * * * * * * * * * //

dimensions      [0 3 -1 0 0 0 0];

oriented        oriented;

internalField   nonuniform List<scalar> 
1763
(
6.81432e-08
-3.47015e-08
6.816e-08
-3.47138e-08
3.46971e-08
6.81484e-08
-3.47e-08
3.47117e-08
6.81135e-08
-3.46936e-08
3.47286e-08
6.80762e-08
-3.46977e-08
3.4735e-08
-3.47042e-08
3.47339e-08
2.17968e-07
-6.5494e-08
3.08182e-08
2.18018e-07
-6.55723e-08
3.08084e-08
2.18021e-07
-6.5564e-08
3.08618e-08
2.17972e-07
-6.5544e-08
3.08992e-08
2.17922e-07
-6.5546e-08
3.08985e-08
-6.55484e-08
3.08924e-08
4.26326e-07
4.26278e-07
-9.0555e-08
2.50311e-08
4.26228e-07
-9.05783e-08
2.50643e-08
4.26185e-07
-9.05881e-08
2.50874e-08
4.26153e-07
-9.05896e-08
2.50749e-08
-9.0585e-08
2.50761e-08
6.13032e-07
-1.0818e-07
1.77177e-08
6.12945e-07
-1.08209e-07
1.77179e-08
6.12891e-07
-1.08231e-07
1.76966e-08
6.1286e-07
-1.08231e-07
1.76728e-08
-1.08221e-07
1.76775e-08
7.31059e-07
9.24642e-09
7.30958e-07
-1.17335e-07
9.22669e-09
7.30883e-07
-1.17341e-07
9.18607e-09
7.30824e-07
-1.17335e-07
9.16156e-09
-1.17327e-07
9.16352e-09
7.55757e-07
-1.17361e-07
1.39086e-10
7.55665e-07
-1.17348e-07
9.9555e-11
7.55587e-07
-1.1733e-07
7.35353e-11
-1.17326e-07
7.15721e-11
6.89145e-07
-1.08316e-07
-8.94101e-09
6.89049e-07
-1.0828e-07
-8.972e-09
6.88963e-07
-1.08241e-07
-9.00266e-09
-1.0823e-07
-9.01361e-09
5.52835e-07
-9.06355e-08
-1.7524e-08
5.52692e-07
-9.06283e-08
-1.75096e-08
5.52588e-07
-9.06203e-08
-1.75169e-08
-9.06187e-08
-1.75187e-08
3.79371e-07
-6.55841e-08
-2.49699e-08
3.7927e-07
-6.55994e-08
-2.4928e-08
3.79173e-07
-6.55907e-08
-2.49331e-08
-6.5585e-08
-2.49369e-08
2.02922e-07
-3.4686e-08
2.02895e-07
-3.4694e-08
-3.08625e-08
2.02802e-07
-3.47201e-08
-3.07866e-08
2.02701e-07
-3.47308e-08
-3.07592e-08
-3.47297e-08
-3.07642e-08
6.81706e-08
-3.47086e-08
6.8165e-08
-3.46883e-08
6.81154e-08
-3.46706e-08
6.80548e-08
-3.46701e-08
-3.46857e-08
2.02912e-07
-3.08644e-08
2.0292e-07
-3.08161e-08
6.55197e-08
2.02862e-07
-3.07749e-08
6.55614e-08
2.02786e-07
-3.07749e-08
6.55864e-08
-3.07838e-08
6.55943e-08
5.20363e-07
5.20254e-07
-5.79648e-08
5.80176e-08
5.20175e-07
-5.79319e-08
5.80562e-08
5.20137e-07
-5.79292e-08
5.80918e-08
5.20097e-07
-5.79436e-08
5.81072e-08
-5.794e-08
5.81155e-08
8.21294e-07
-7.99048e-08
4.70074e-08
8.21196e-07
-7.98452e-08
4.70762e-08
8.211e-07
-7.98373e-08
4.70908e-08
8.21026e-07
-7.98624e-08
4.70683e-08
-7.98659e-08
4.70695e-08
1.04347e-06
-9.53044e-08
3.31191e-08
1.04342e-06
-9.52605e-08
3.31878e-08
1.04333e-06
-9.5252e-08
3.32014e-08
1.04323e-06
-9.52656e-08
3.31726e-08
-9.5271e-08
3.31597e-08
1.1742e-06
-1.03243e-07
1.72001e-08
1.17414e-06
-1.03228e-07
1.72526e-08
1.17405e-06
-1.03226e-07
1.72505e-08
1.17395e-06
-1.03233e-07
1.7227e-08
-1.03237e-07
1.72067e-08
1.20617e-06
-1.03242e-07
1.83523e-10
1.20611e-06
-1.03258e-07
2.3211e-10
1.20602e-06
-1.03273e-07
2.36562e-10
1.20593e-06
-1.03282e-07
2.13208e-10
-1.03284e-07
1.88723e-10
1.14475e-06
-1.68767e-08
1.14469e-06
-9.53221e-08
-1.68175e-08
1.14462e-06
-9.53853e-08
-1.67884e-08
1.14454e-06
-9.54171e-08
-1.67964e-08
-9.5415e-08
-1.68255e-08
1.00193e-06
-7.99363e-08
-3.29224e-08
1.0019e-06
-8.0041e-08
-3.28317e-08
1.00184e-06
-8.00674e-08
-3.27995e-08
-8.00584e-08
-3.28077e-08
7.91177e-07
-5.80194e-08
-4.68458e-08
7.91109e-07
-5.81048e-08
-4.67964e-08
7.91032e-07
-5.81277e-08
-4.67954e-08
-5.81281e-08
-4.67953e-08
5.20119e-07
-3.08287e-08
-5.79729e-08
5.20036e-07
-3.08927e-08
-5.79159e-08
5.19957e-07
-3.09136e-08
-5.7894e-08
-3.09072e-08
-5.78912e-08
2.18099e-07
-6.55052e-08
2.18033e-07
-6.54513e-08
2.17929e-07
-6.54595e-08
2.17834e-07
-6.54888e-08
-6.55161e-08
3.79491e-07
-2.50089e-08
9.05517e-08
3.79453e-07
-2.49681e-08
9.05672e-08
3.79386e-07
-2.4956e-08
9.06099e-08
-2.49491e-08
9.06324e-08
7.91481e-07
-4.68815e-08
7.91336e-07
-4.68022e-08
7.9994e-08
7.91196e-07
-4.67818e-08
8.00455e-08
7.91093e-07
-4.68112e-08
8.00656e-08
-4.68218e-08
8.00706e-08
1.10995e-06
-6.44926e-08
6.4631e-08
1.10992e-06
-6.44182e-08
6.47263e-08
1.10987e-06
-6.43905e-08
6.47525e-08
1.10981e-06
-6.44137e-08
6.47277e-08
-6.4429e-08
6.47161e-08
1.33683e-06
-7.68264e-08
4.54554e-08
1.33685e-06
-7.67802e-08
4.55228e-08
1.33688e-06
-7.6763e-08
4.55494e-08
1.33688e-06
-7.67775e-08
4.55315e-08
-7.67906e-08
4.55135e-08
1.47095e-06
-8.31847e-08
2.356e-08
1.47101e-06
-8.31749e-08
2.35916e-08
1.47107e-06
-8.31791e-08
2.35991e-08
1.47112e-06
-8.31896e-08
2.35911e-08
-8.32005e-08
2.35713e-08
1.50925e-06
-8.32137e-08
2.06944e-10
1.50932e-06
-8.32381e-08
2.32532e-10
1.5094e-06
-8.32652e-08
2.40089e-10
1.50947e-06
-8.32802e-08
2.31199e-10
-8.32852e-08
2.10188e-10
1.45603e-06
-7.69202e-08
-2.31747e-08
1.45607e-06
-7.6948e-08
-2.31496e-08
1.45613e-06
-7.69829e-08
-2.31291e-08
1.45618e-06
-7.70034e-08
-2.31298e-08
-7.7011e-08
-2.31545e-08
1.32007e-06
-6.46219e-08
-4.52105e-08
1.32006e-06
-6.46899e-08
-4.51735e-08
1.3201e-06
-6.47112e-08
-4.51372e-08
1.32014e-06
-6.47178e-08
-4.51313e-08
-6.47261e-08
-4.51374e-08
1.10993e-06
-6.44761e-08
1.10988e-06
-4.70353e-08
-6.44548e-08
1.10988e-06
-4.70721e-08
-6.4433e-08
1.10987e-06
-4.70935e-08
-6.44133e-08
-4.70978e-08
-6.44061e-08
8.21123e-07
-2.51297e-08
-7.98883e-08
8.211e-07
-2.51299e-08
-7.98355e-08
8.21033e-07
-2.51105e-08
-7.98097e-08
-2.5096e-08
-7.98197e-08
4.26406e-07
-9.04938e-08
4.26266e-07
-9.04402e-08
4.26148e-07
-9.04717e-08
4.26071e-07
-9.05223e-08
-9.05495e-08
5.53058e-07
-1.75579e-08
1.08285e-07
5.52908e-07
-1.75562e-08
1.08274e-07
5.52801e-07
-1.75355e-08
1.08252e-07
-1.75181e-08
1.08247e-07
1.00198e-06
-3.29055e-08
9.5371e-08
1.00193e-06
-3.28578e-08
9.54029e-08
1.00183e-06
-3.28097e-08
9.54328e-08
-3.27959e-08
9.54374e-08
1.31994e-06
-4.52317e-08
7.69572e-08
1.31996e-06
-4.51786e-08
7.69801e-08
1.31999e-06
-4.51364e-08
7.69994e-08
1.32002e-06
-4.51225e-08
7.70105e-08
-4.51226e-08
7.70156e-08
1.54484e-06
-5.3851e-08
5.40175e-08
1.54495e-06
-5.38176e-08
5.40489e-08
1.54508e-06
-5.37896e-08
5.40767e-08
1.54519e-06
-5.37829e-08
5.40839e-08
-5.37898e-08
5.40794e-08
1.67979e-06
-5.83207e-08
2.79135e-08
1.67996e-06
-5.83166e-08
2.79196e-08
1.68014e-06
-5.83093e-08
2.79377e-08
1.68032e-06
-5.83092e-08
2.79443e-08
-5.83155e-08
2.7936e-08
1.72262e-06
-5.83927e-08
1.48556e-10
1.72279e-06
-5.84029e-08
1.46956e-10
1.72298e-06
-5.84149e-08
1.56143e-10
1.72317e-06
-5.84259e-08
1.57895e-10
-5.84268e-08
1.473e-10
1.67543e-06
-2.75887e-08
1.67552e-06
-5.40238e-08
-2.76301e-08
1.67566e-06
-5.40449e-08
-2.76476e-08
1.67583e-06
-5.40713e-08
-2.76467e-08
1.67601e-06
-5.40868e-08
-2.76405e-08
-5.40878e-08
-2.76531e-08
1.5449e-06
-4.54616e-08
-5.38429e-08
1.545e-06
-4.54855e-08
-5.38402e-08
1.54513e-06
-4.55163e-08
-5.38206e-08
1.54526e-06
-4.553e-08
-5.38115e-08
-4.5522e-08
-5.38148e-08
1.33677e-06
-3.31436e-08
-7.68106e-08
1.33681e-06
-3.31657e-08
-7.68209e-08
1.33686e-06
-3.31901e-08
-7.68043e-08
1.33689e-06
-3.31887e-08
-7.67911e-08
-3.31713e-08
-7.67942e-08
1.04343e-06
-1.77742e-08
-9.52547e-08
1.04338e-06
-1.77751e-08
-9.52345e-08
1.04332e-06
-1.77343e-08
-9.52282e-08
1.04324e-06
-1.76936e-08
-9.52273e-08
-1.76827e-08
-9.52348e-08
6.13168e-07
-1.08104e-07
6.13046e-07
-1.08093e-07
6.12968e-07
-1.08127e-07
6.12912e-07
-1.0816e-07
-1.08175e-07
6.89481e-07
-8.94196e-09
1.17379e-07
6.89312e-07
-8.9366e-09
1.1739e-07
6.89177e-07
-8.96942e-09
1.17377e-07
6.89071e-07
-8.99902e-09
1.17358e-07
-9.00656e-09
1.17347e-07
1.1447e-06
-1.68543e-08
1.03261e-07
1.14468e-06
-1.68182e-08
1.03281e-07
1.14461e-06
-1.67987e-08
1.03298e-07
1.14453e-06
-1.67985e-08
1.0331e-07
-1.68168e-08
1.0331e-07
1.45589e-06
-2.31313e-08
8.32703e-08
1.45588e-06
-2.31441e-08
8.32482e-08
1.45594e-06
-2.31373e-08
8.32431e-08
1.45602e-06
-2.31346e-08
8.32549e-08
1.4561e-06
-2.31335e-08
8.32713e-08
-2.31479e-08
8.32801e-08
1.67531e-06
-2.76239e-08
5.83917e-08
1.67544e-06
-2.76249e-08
5.83727e-08
1.67559e-06
-2.7617e-08
5.83771e-08
1.67576e-06
-2.76142e-08
5.83908e-08
1.67592e-06
-2.76158e-08
5.84021e-08
-2.76299e-08
5.84064e-08
1.80841e-06
-2.99957e-08
3.01193e-08
1.80861e-06
-3.00038e-08
3.0092e-08
1.80882e-06
-3.00027e-08
3.00881e-08
1.80905e-06
-3.00018e-08
3.00947e-08
1.80929e-06
-3.00044e-08
3.01017e-08
-3.00117e-08
3.01028e-08
1.8527e-06
-3.01162e-08
7.28778e-11
1.85293e-06
-3.01267e-08
4.3993e-11
1.85316e-06
-3.01268e-08
3.18303e-11
1.85342e-06
-3.01275e-08
3.07072e-11
1.85367e-06
-3.01339e-08
3.43797e-11
-3.01325e-08
3.47212e-11
1.80841e-06
-2.79556e-08
-2.99824e-08
1.80862e-06
-2.79613e-08
-3.00091e-08
1.80885e-06
-2.79648e-08
-3.00325e-08
1.80908e-06
-2.79654e-08
-3.00405e-08
1.80931e-06
-2.79726e-08
-3.00379e-08
-2.7962e-08
-3.00406e-08
1.67965e-06
-2.36121e-08
-5.82708e-08
1.6798e-06
-2.36433e-08
-5.8311e-08
1.67997e-06
-2.3636e-08
-5.83353e-08
1.68014e-06
-2.36086e-08
-5.8343e-08
1.6803e-06
-2.36067e-08
-5.83418e-08
-2.35891e-08
-5.83441e-08
1.4709e-06
-1.72704e-08
-8.31383e-08
1.47095e-06
-1.73217e-08
-8.31773e-08
1.471e-06
-1.73099e-08
-8.32029e-08
1.47105e-06
-1.72495e-08
-8.32124e-08
1.4711e-06
-1.72319e-08
-8.32119e-08
-1.72225e-08
-8.32141e-08
1.17427e-06
-1.03201e-07
1.17422e-06
-9.32154e-09
-1.03204e-07
1.17414e-06
-9.26227e-09
-1.03204e-07
1.17406e-06
-9.18675e-09
-1.03207e-07
1.17396e-06
-9.15362e-09
-1.0321e-07
-9.15895e-09
-1.03213e-07
7.31152e-07
-1.17284e-07
7.31057e-07
-1.1726e-07
7.30999e-07
-1.17257e-07
7.30953e-07
-1.17268e-07
-1.17277e-07
7.55932e-07
1.9339e-10
1.17384e-07
7.5577e-07
1.6138e-10
1.1739e-07
7.55662e-07
1.1918e-10
1.17366e-07
7.55585e-07
8.8417e-11
1.17347e-07
8.31592e-11
1.17337e-07
1.20618e-06
2.19345e-10
1.03207e-07
1.20616e-06
2.49359e-10
1.03216e-07
1.20609e-06
2.47538e-10
1.03241e-07
1.20601e-06
2.24558e-10
1.03255e-07
2.03679e-10
1.03258e-07
1.50917e-06
3.68779e-10
1.50921e-06
3.33478e-10
8.31844e-08
1.50923e-06
2.99363e-10
8.31496e-08
1.5093e-06
2.73104e-10
8.31503e-08
1.50937e-06
2.52165e-10
8.31754e-08
1.50943e-06
2.40762e-10
8.31918e-08
2.20795e-10
8.32019e-08
1.7222e-06
2.42236e-10
1.72238e-06
2.33235e-10
5.83135e-08
1.72253e-06
2.26013e-10
5.82948e-08
1.72269e-06
2.1152e-10
5.82795e-08
1.72285e-06
1.97258e-10
5.82833e-08
1.72302e-06
1.86009e-10
5.82923e-08
1.69203e-10
5.8303e-08
1.85236e-06
1.85261e-06
9.6181e-11
3.00092e-08
1.85283e-06
9.69765e-11
2.99967e-08
1.85307e-06
8.85165e-11
2.99789e-08
1.8533e-06
7.91666e-11
2.99768e-08
1.85354e-06
7.02895e-11
2.99819e-08
6.16531e-11
2.99914e-08
1.89665e-06
-4.9855e-11
-6.32158e-11
1.89692e-06
-5.12349e-11
-7.83109e-11
1.89719e-06
-5.73754e-11
-9.54303e-11
1.89747e-06
-6.232e-11
-9.90476e-11
1.89773e-06
-6.80984e-11
-9.42579e-11
-6.74044e-11
-8.52485e-11
1.8526e-06
-1.65158e-10
-3.01204e-08
1.85286e-06
-1.823e-10
-3.01395e-08
1.85312e-06
-1.88861e-10
-3.01598e-08
1.85337e-06
-1.87146e-10
-3.01671e-08
1.85362e-06
-1.91112e-10
-3.01661e-08
-1.78319e-10
-3.01582e-08
1.72235e-06
-2.44727e-10
-5.83743e-08
1.72256e-06
-2.86629e-10
-5.84098e-08
1.72276e-06
-2.84544e-10
-5.84379e-08
1.72294e-06
-2.5673e-10
-5.84528e-08
1.72311e-06
-2.48448e-10
-5.84615e-08
-2.28065e-10
-5.84562e-08
1.50922e-06
-2.4331e-10
-8.32046e-08
1.5093e-06
-2.93334e-10
-8.32533e-08
1.50937e-06
-2.77959e-10
-8.32823e-08
1.50942e-06
-2.24835e-10
-8.3291e-08
1.50946e-06
-2.00509e-10
-8.3304e-08
-1.85261e-10
-8.33074e-08
1.20632e-06
-2.29926e-10
-1.03209e-07
1.20627e-06
-1.95895e-10
-1.03249e-07
1.20618e-06
-1.29285e-10
-1.03265e-07
1.20607e-06
-6.78295e-11
-1.03259e-07
1.20596e-06
-4.00448e-11
-1.0326e-07
-4.30825e-11
-1.03269e-07
7.5614e-07
-1.17357e-07
7.55974e-07
-1.17314e-07
7.5586e-07
-1.17275e-07
7.55794e-07
-1.17259e-07
7.55738e-07
-1.17252e-07
-1.17263e-07
7.31275e-07
9.31253e-09
1.08202e-07
7.31135e-07
9.28432e-09
1.08239e-07
7.31029e-07
9.22873e-09
1.08267e-07
7.30954e-07
9.17934e-09
1.08262e-07
7.30898e-07
9.15893e-09
1.08245e-07
9.15967e-09
1.08231e-07
1.17432e-06
1.72489e-08
9.53167e-08
1.17426e-06
1.72861e-08
9.52657e-08
1.17417e-06
1.72784e-08
9.52556e-08
1.17408e-06
1.72326e-08
9.52817e-08
1.17399e-06
1.72062e-08
9.52995e-08
1.71933e-08
9.53029e-08
1.47087e-06
2.36039e-08
7.67975e-08
1.47092e-06
2.36241e-08
7.67563e-08
1.47098e-06
2.3625e-08
7.67451e-08
1.47101e-06
2.36023e-08
7.67769e-08
1.47103e-06
2.359e-08
7.6789e-08
2.35724e-08
7.67941e-08
1.67951e-06
2.79583e-08
5.38148e-08
1.67968e-06
2.79697e-08
5.37775e-08
1.67985e-06
2.79804e-08
5.37571e-08
1.67999e-06
2.79755e-08
5.37682e-08
1.68012e-06
2.7968e-08
5.3778e-08
2.79527e-08
5.37954e-08
1.80822e-06
3.0129e-08
2.76285e-08
1.80845e-06
3.01315e-08
2.76097e-08
1.80868e-06
3.01355e-08
2.7592e-08
1.8089e-06
3.01341e-08
2.75993e-08
1.80911e-06
3.01308e-08
2.76086e-08
3.01248e-08
2.76258e-08
1.85252e-06
3.00145e-08
-1.84938e-10
1.85277e-06
3.00074e-08
-2.00528e-10
1.85303e-06
2.99995e-08
-2.1568e-10
1.85327e-06
2.99966e-08
-2.0798e-10
1.85351e-06
2.9995e-08
-1.97598e-10
3.00002e-08
-1.80302e-10
1.80831e-06
2.76441e-08
-2.79607e-08
1.80854e-06
2.76172e-08
-2.79826e-08
1.80878e-06
2.76042e-08
-2.80038e-08
1.809e-06
2.76033e-08
-2.80002e-08
1.80923e-06
2.75979e-08
-2.79918e-08
2.76132e-08
-2.79736e-08
1.6753e-06
2.31634e-08
-5.40376e-08
1.67549e-06
2.3103e-08
-5.40788e-08
1.67567e-06
2.30972e-08
-5.41113e-08
1.67582e-06
2.31216e-08
-5.4121e-08
1.67596e-06
2.31159e-08
-5.41243e-08
2.31311e-08
-5.41091e-08
1.45603e-06
1.68332e-08
-7.69181e-08
1.4561e-06
1.6763e-08
-7.69819e-08
1.45616e-06
1.67688e-08
-7.70122e-08
1.45617e-06
1.68266e-08
-7.70134e-08
1.45618e-06
1.68288e-08
-7.70281e-08
1.68233e-08
-7.70305e-08
1.14494e-06
8.9084e-09
-9.52832e-08
1.14489e-06
8.93443e-09
-9.53643e-08
1.14479e-06
8.99406e-09
-9.53921e-08
1.14468e-06
9.05476e-09
-9.53759e-08
1.14456e-06
9.06284e-09
-9.53752e-08
9.04281e-09
-9.5386e-08
6.89475e-07
-1.08267e-07
6.89312e-07
-1.08218e-07
6.89202e-07
-1.08171e-07
6.89148e-07
-1.0815e-07
6.89115e-07
-1.08156e-07
-1.08177e-07
6.13266e-07
1.77677e-08
9.05548e-08
6.13162e-07
1.77549e-08
9.0588e-08
6.13097e-07
1.77175e-08
9.0615e-08
6.13064e-07
1.76759e-08
9.06186e-08
6.13036e-07
1.76605e-08
9.06123e-08
1.76626e-08
9.06031e-08
1.0436e-06
3.31615e-08
7.99417e-08
1.04354e-06
3.3217e-08
7.98647e-08
1.04344e-06
3.32152e-08
7.98511e-08
1.04335e-06
3.31604e-08
7.989e-08
1.04327e-06
3.31337e-08
7.99089e-08
3.31297e-08
7.99075e-08
1.3368e-06
4.54869e-08
6.44766e-08
1.33682e-06
4.55401e-08
6.44138e-08
1.33682e-06
4.55544e-08
6.44008e-08
1.33679e-06
4.55198e-08
6.44499e-08
1.33675e-06
4.55086e-08
6.44516e-08
4.55019e-08
6.44378e-08
1.54466e-06
5.40478e-08
4.5195e-08
1.54477e-06
5.40836e-08
4.51243e-08
1.54487e-06
5.41025e-08
4.51022e-08
1.54493e-06
5.40932e-08
4.51346e-08
1.54499e-06
5.40893e-08
4.51406e-08
5.40789e-08
4.51499e-08
1.67513e-06
5.8396e-08
2.31674e-08
1.67529e-06
5.84115e-08
2.31226e-08
1.67545e-06
5.84235e-08
2.31087e-08
1.67559e-06
5.84235e-08
2.31297e-08
1.67572e-06
5.84223e-08
2.31454e-08
5.84194e-08
2.31645e-08
1.72224e-06
5.83192e-08
-2.49771e-10
1.72241e-06
5.83089e-08
-2.72077e-10
1.7226e-06
5.82975e-08
-2.71813e-10
1.72276e-06
5.82949e-08
-2.45228e-10
1.72292e-06
5.82957e-08
-2.28561e-10
5.83035e-08
-2.07829e-10
1.67956e-06
5.3826e-08
-2.35972e-08
1.67973e-06
5.37885e-08
-2.36283e-08
1.6799e-06
5.37583e-08
-2.36344e-08
1.68005e-06
5.37552e-08
-2.36071e-08
1.68019e-06
5.37565e-08
-2.35904e-08
5.37747e-08
-2.35719e-08
1.54483e-06
4.51858e-08
-4.54783e-08
1.54495e-06
4.51167e-08
-4.55309e-08
1.54507e-06
4.50853e-08
-4.55542e-08
1.54514e-06
4.50984e-08
-4.5534e-08
1.5452e-06
4.50963e-08
-4.55269e-08
4.51113e-08
-4.55152e-08
1.32013e-06
3.28791e-08
-6.46273e-08
1.32016e-06
3.27946e-08
-6.46955e-08
1.32017e-06
3.27784e-08
-6.47153e-08
1.32014e-06
3.28228e-08
-6.47076e-08
1.3201e-06
3.28357e-08
-6.47277e-08
3.28321e-08
-6.47293e-08
1.00219e-06
1.7504e-08
-7.98922e-08
1.00212e-06
1.7505e-08
-8.00006e-08
1.00201e-06
1.75385e-08
-8.00402e-08
1.00189e-06
1.75811e-08
-8.00233e-08
1.0018e-06
1.75857e-08
-8.00262e-08
1.75683e-08
-8.00378e-08
5.53008e-07
-9.06192e-08
5.52887e-07
-9.05912e-08
5.52818e-07
-9.05635e-08
5.52796e-07
-9.05469e-08
5.52776e-07
-9.055e-08
-9.05723e-08
4.26452e-07
2.50832e-08
6.55325e-08
4.26389e-07
2.51103e-08
6.5541e-08
4.26346e-07
2.51033e-08
6.55539e-08
4.26327e-07
2.50724e-08
6.55659e-08
4.26306e-07
2.50615e-08
6.55719e-08
2.50647e-08
6.55673e-08
8.21394e-07
4.7024e-08
5.80231e-08
8.21328e-07
4.70948e-08
5.79456e-08
8.21248e-07
4.71024e-08
5.7932e-08
8.21192e-07
4.70501e-08
5.79684e-08
8.21147e-07
4.70417e-08
5.79739e-08
4.70579e-08
5.79658e-08
1.10993e-06
6.4637e-08
4.68931e-08
1.10991e-06
6.47038e-08
4.68219e-08
1.10987e-06
6.47209e-08
4.6824e-08
1.10982e-06
6.46843e-08
4.68726e-08
1.10976e-06
6.4691e-08
4.686e-08
6.47081e-08
4.68403e-08
1.31992e-06
7.69395e-08
3.29132e-08
1.31994e-06
7.69907e-08
3.28252e-08
1.31994e-06
7.70104e-08
3.28082e-08
1.31991e-06
7.69953e-08
3.28544e-08
1.31987e-06
7.69995e-08
3.28698e-08
7.70072e-08
3.28691e-08
1.45579e-06
8.3231e-08
1.68727e-08
1.45584e-06
8.32603e-08
1.68e-08
1.45588e-06
8.32753e-08
1.6798e-08
1.4559e-06
8.32792e-08
1.68338e-08
1.4559e-06
8.32832e-08
1.68549e-08
8.32852e-08
1.68733e-08
1.50905e-06
8.31875e-08
-2.21903e-10
1.50912e-06
8.31836e-08
-2.62049e-10
1.50919e-06
8.3182e-08
-2.47076e-10
1.50923e-06
8.31891e-08
-1.96204e-10
1.50926e-06
8.31938e-08
-1.67433e-10
8.31995e-08
-1.51668e-10
1.47083e-06
7.68073e-08
-1.72417e-08
1.4709e-06
7.67705e-08
-1.72812e-08
1.47096e-06
7.67532e-08
-1.7265e-08
1.47098e-06
7.67693e-08
-1.7208e-08
1.47099e-06
7.67732e-08
-1.71778e-08
7.67787e-08
-1.71676e-08
1.33684e-06
6.44637e-08
-3.31547e-08
1.33688e-06
6.44025e-08
-3.32055e-08
1.33689e-06
6.43888e-08
-3.32008e-08
1.33686e-06
6.44087e-08
-3.31452e-08
1.33682e-06
6.44001e-08
-3.31169e-08
6.44045e-08
-3.31168e-08
1.10998e-06
4.68649e-08
-4.70183e-08
1.10997e-06
4.67999e-08
-4.70793e-08
1.10992e-06
4.67987e-08
-4.70737e-08
1.10983e-06
4.68288e-08
-4.70395e-08
1.10973e-06
4.68165e-08
-4.70456e-08
4.68035e-08
-4.70619e-08
7.91335e-07
2.49894e-08
-5.79701e-08
7.91249e-07
2.49486e-08
-5.80635e-08
7.91157e-07
2.49459e-08
-5.80958e-08
7.91088e-07
2.49616e-08
-5.80874e-08
7.91022e-07
2.49528e-08
-5.80963e-08
2.49452e-08
-5.81088e-08
3.79514e-07
-6.55513e-08
3.79438e-07
-6.55661e-08
3.79394e-07
-6.55732e-08
3.79381e-07
-6.55722e-08
3.79363e-07
-6.55792e-08
-6.55834e-08
2.18176e-07
3.07995e-08
3.4718e-08
2.18136e-07
3.0881e-08
3.46995e-08
2.1808e-07
3.09131e-08
3.46975e-08
2.18041e-07
3.0898e-08
3.47068e-08
2.18009e-07
3.0893e-08
3.47104e-08
3.08889e-08
3.47115e-08
5.2045e-07
5.7983e-08
3.08875e-08
5.20388e-07
5.80839e-08
3.08057e-08
5.20345e-07
5.81141e-08
3.07732e-08
5.20326e-07
5.8094e-08
3.0792e-08
5.20291e-07
5.81044e-08
3.07969e-08
5.81104e-08
3.07992e-08
7.91446e-07
7.98975e-08
2.50119e-08
7.91383e-07
8.00082e-08
2.49607e-08
7.91326e-07
8.00411e-08
2.49538e-08
7.91293e-07
8.00244e-08
2.49759e-08
7.91255e-07
8.00291e-08
2.49727e-08
8.00321e-08
2.49681e-08
1.00218e-06
9.5287e-08
1.75438e-08
1.00211e-06
9.53678e-08
1.7528e-08
1.00202e-06
9.53985e-08
1.75439e-08
1.00193e-06
9.53901e-08
1.75746e-08
1.00186e-06
9.53855e-08
1.75825e-08
9.53876e-08
1.75761e-08
1.14486e-06
1.03216e-07
8.95217e-09
1.1448e-06
1.03258e-07
8.96858e-09
1.1447e-06
1.03275e-07
9.01932e-09
1.14459e-06
1.03276e-07
9.05915e-09
1.14448e-06
1.0328e-07
9.07114e-09
1.03281e-07
9.06801e-09
1.20626e-06
1.0321e-07
-1.95319e-10
1.2062e-06
1.0321e-07
-1.51832e-10
1.2061e-06
1.03217e-07
-8.70681e-11
1.20598e-06
1.03232e-07
-3.51051e-11
1.20587e-06
1.03242e-07
-1.45699e-11
1.03246e-07
-2.08708e-11
1.17427e-06
9.52752e-08
-9.29569e-09
1.17421e-06
9.5236e-08
-9.2532e-09
1.17411e-06
9.52375e-08
-9.18665e-09
1.174e-06
9.52672e-08
-9.1314e-09
1.17389e-06
9.52873e-08
-9.108e-09
9.52937e-08
-9.11628e-09
1.04353e-06
7.98956e-08
-1.77735e-08
1.04348e-06
7.98268e-08
-1.77461e-08
1.04338e-06
7.98249e-08
-1.76928e-08
1.04327e-06
7.98694e-08
-1.76406e-08
1.04317e-06
7.98916e-08
-1.76169e-08
7.98907e-08
-1.76266e-08
8.21278e-07
5.79886e-08
-2.50911e-08
8.21207e-07
5.79262e-08
-2.51079e-08
8.21118e-07
5.79252e-08
-2.50848e-08
8.21046e-07
5.79553e-08
-2.50538e-08
8.20978e-07
5.7962e-08
-2.50476e-08
5.79533e-08
-2.5055e-08
5.20222e-07
3.08825e-08
-3.07879e-08
5.2016e-07
3.07975e-08
-3.08723e-08
5.20139e-07
3.07596e-08
-3.09101e-08
5.20148e-07
3.07655e-08
-3.09064e-08
5.20147e-07
3.07701e-08
-3.09034e-08
3.07805e-08
-3.08951e-08
2.03013e-07
-3.46785e-08
2.02959e-07
-3.47142e-08
2.02881e-07
-3.47355e-08
2.02813e-07
-3.47393e-08
2.02744e-07
-3.47401e-08
-3.47358e-08
6.82199e-08
3.46878e-08
6.81987e-08
3.47207e-08
6.81573e-08
3.47389e-08
6.81266e-08
3.47375e-08
6.80999e-08
3.47371e-08
3.47332e-08
2.03082e-07
6.55445e-08
2.03044e-07
6.55649e-08
2.02977e-07
6.55791e-08
2.02923e-07
6.55834e-08
2.0287e-07
6.55873e-08
6.55864e-08
3.79978e-07
3.79881e-07
9.05984e-08
3.79838e-07
9.05993e-08
3.79765e-07
9.05986e-08
3.79696e-07
9.0602e-08
3.79648e-07
9.06077e-08
3.79601e-07
9.06064e-08
9.06076e-08
5.53506e-07
1.0825e-07
5.53403e-07
1.08247e-07
5.53306e-07
1.08223e-07
5.53248e-07
1.08203e-07
5.53224e-07
1.08206e-07
5.532e-07
1.08213e-07
1.08218e-07
6.89971e-07
6.89822e-07
1.17347e-07
6.89687e-07
1.17327e-07
6.896e-07
1.1731e-07
6.89561e-07
1.17304e-07
6.89542e-07
1.17304e-07
1.17312e-07
7.56337e-07
1.17293e-07
7.56208e-07
1.17304e-07
7.56117e-07
1.17315e-07
7.56064e-07
1.17321e-07
7.56029e-07
1.17325e-07
1.17324e-07
7.31439e-07
1.08136e-07
7.31316e-07
1.08173e-07
7.31232e-07
1.08213e-07
7.31187e-07
1.08235e-07
7.31161e-07
1.08243e-07
1.08236e-07
6.13311e-07
9.04874e-08
6.13203e-07
9.05351e-08
6.13139e-07
9.05844e-08
6.13116e-07
9.0618e-08
6.13108e-07
9.06337e-08
9.06228e-08
4.26399e-07
6.54817e-08
4.26324e-07
6.55016e-08
4.2629e-07
6.55342e-08
4.26292e-07
6.55615e-08
4.26307e-07
6.55715e-08
6.55706e-08
2.18132e-07
3.46996e-08
2.18076e-07
3.4685e-08
2.18014e-07
3.46866e-08
2.1797e-07
3.46989e-08
2.17932e-07
3.47057e-08
3.47105e-08
6.82119e-08
6.81826e-08
6.81338e-08
6.80934e-08
6.8059e-08
)
;

boundaryField
{
    inlet
    {
        type            calculated;
        value           nonuniform List<scalar> 0();
    }
    ami1
    {
        type            cyclicAMI;
        value           nonuniform List<scalar> 0();
    }
    walls
    {
        type            calculated;
        value           nonuniform List<scalar> 
244
(
2.90979e-14
2.43942e-14
1.84387e-14
2.90979e-14
2.43942e-14
1.84387e-14
1.28555e-14
6.40674e-15
-2.43942e-14
-2.90979e-14
2.90979e-14
2.43942e-14
1.84387e-14
1.28555e-14
6.40674e-15
-7.64884e-22
-6.40674e-15
-1.28555e-14
-1.84387e-14
-2.43942e-14
-2.90979e-14
2.90979e-14
2.43942e-14
1.84387e-14
1.28555e-14
6.40674e-15
-7.64884e-22
-6.40674e-15
-1.28555e-14
-1.84387e-14
-2.43942e-14
-2.90979e-14
2.90979e-14
2.43942e-14
1.84387e-14
1.28555e-14
6.40674e-15
-5.74632e-22
-6.40674e-15
-1.28555e-14
-1.84387e-14
-2.43942e-14
-2.90979e-14
2.90979e-14
2.43942e-14
1.84387e-14
1.28555e-14
6.40674e-15
-7.66952e-22
-6.40674e-15
-1.28555e-14
-1.84387e-14
-2.43942e-14
-2.90979e-14
-7.64884e-22
-6.40674e-15
-1.28555e-14
-1.84387e-14
-2.43942e-14
-2.90979e-14
2.90979e-14
2.43942e-14
1.84387e-14
1.28555e-14
6.40674e-15
-7.67727e-22
-6.40674e-15
-1.28555e-14
-1.84387e-14
-2.43942e-14
-2.90979e-14
2.90979e-14
2.43942e-14
1.84387e-14
1.28555e-14
6.40674e-15
-7.64884e-22
-6.40674e-15
-1.28555e-14
-1.84387e-14
-2.43942e-14
-2.90979e-14
2.90979e-14
2.43942e-14
1.84387e-14
1.28555e-14
6.40674e-15
-7.64884e-22
-6.40674e-15
-1.28555e-14
-1.84387e-14
-2.43942e-14
-2.90979e-14
2.90979e-14
2.43942e-14
1.84387e-14
1.28555e-14
6.40674e-15
-5.74632e-22
-6.40674e-15
-1.28555e-14
-1.84387e-14
-2.43942e-14
-2.90979e-14
2.90979e-14
2.43942e-14
1.84387e-14
1.28555e-14
6.40674e-15
-7.66952e-22
-6.40674e-15
-1.28555e-14
-1.84387e-14
-2.43942e-14
-2.90979e-14
-1.84387e-14
-1.84387e-14
-1.28555e-14
-6.40674e-15
-2.90979e-14
-2.43942e-14
-1.84387e-14
-1.28555e-14
-6.40674e-15
-7.64464e-22
6.40674e-15
1.28555e-14
1.84387e-14
2.43942e-14
2.90979e-14
-2.90979e-14
-2.43942e-14
-1.84387e-14
-1.28555e-14
-6.40674e-15
-7.64464e-22
6.40674e-15
1.28555e-14
1.84387e-14
2.43942e-14
2.90979e-14
-2.90979e-14
-2.43942e-14
-1.84387e-14
-1.28555e-14
-6.40674e-15
-7.64981e-22
6.40674e-15
1.28555e-14
1.84387e-14
2.43942e-14
2.90979e-14
-2.90979e-14
-2.43942e-14
-1.84387e-14
-1.28555e-14
-6.40674e-15
-7.64981e-22
6.40674e-15
1.28555e-14
1.84387e-14
2.43942e-14
2.90979e-14
-2.90979e-14
-2.43942e-14
-1.84387e-14
-1.28555e-14
-6.40674e-15
-4.81493e-22
6.40674e-15
1.28555e-14
1.84387e-14
2.43942e-14
2.90979e-14
-2.90979e-14
-2.43942e-14
-1.84387e-14
-1.28555e-14
-6.40674e-15
-7.64625e-22
6.40674e-15
1.28555e-14
1.84387e-14
2.43942e-14
2.90979e-14
-2.90979e-14
6.40674e-15
1.28555e-14
1.84387e-14
2.43942e-14
2.90979e-14
-2.90979e-14
-2.43942e-14
-6.40674e-15
-7.64464e-22
6.40674e-15
1.28555e-14
1.84387e-14
2.43942e-14
2.90979e-14
-2.90979e-14
-2.43942e-14
-1.84387e-14
-1.28555e-14
-6.40674e-15
-7.64981e-22
6.40674e-15
1.28555e-14
1.84387e-14
2.43942e-14
2.90979e-14
-2.90979e-14
-2.43942e-14
-1.84387e-14
-1.28555e-14
-6.40674e-15
-7.64981e-22
6.40674e-15
1.28555e-14
1.84387e-14
2.43942e-14
2.90979e-14
-2.90979e-14
-2.43942e-14
-1.84387e-14
-1.28555e-14
-6.40674e-15
-4.81493e-22
6.40674e-15
1.28555e-14
1.84387e-14
2.43942e-14
2.90979e-14
-2.90979e-14
-2.43942e-14
-1.84387e-14
-1.28555e-14
-6.40674e-15
-7.64625e-22
6.40674e-15
1.28555e-14
1.84387e-14
2.43942e-14
2.90979e-14
)
;
    }
    ami2
    {
        type            cyclicAMI;
        value           nonuniform List<scalar> 0();
    }
    outlet
    {
        type            calculated;
        value           nonuniform List<scalar> 
121
(
6.80464e-08
2.17873e-07
4.26114e-07
6.12819e-07
7.30766e-07
7.55514e-07
6.88881e-07
5.52495e-07
3.79077e-07
2.0261e-07
6.80108e-08
2.02709e-07
5.2003e-07
8.20958e-07
1.04315e-06
1.17387e-06
1.20586e-06
1.14449e-06
1.00177e-06
7.9096e-07
5.19863e-07
2.17757e-07
3.79297e-07
7.91011e-07
1.10977e-06
1.33689e-06
1.47117e-06
1.50953e-06
1.45624e-06
1.32019e-06
1.10986e-06
8.2096e-07
4.26008e-07
5.52705e-07
1.00175e-06
1.32005e-06
1.54529e-06
1.68048e-06
1.72335e-06
1.67617e-06
1.54537e-06
1.33693e-06
1.04317e-06
6.12855e-07
6.88977e-07
1.14447e-06
1.45616e-06
1.67608e-06
1.8095e-06
1.8539e-06
1.80953e-06
1.68046e-06
1.47115e-06
1.17387e-06
7.30896e-07
7.55512e-07
1.20594e-06
1.5095e-06
1.72317e-06
1.85376e-06
1.89798e-06
1.85385e-06
1.72327e-06
1.50951e-06
1.20588e-06
7.55681e-07
7.30844e-07
1.17391e-06
1.47106e-06
1.68025e-06
1.8093e-06
1.85373e-06
1.80943e-06
1.6761e-06
1.45621e-06
1.14446e-06
6.89071e-07
6.13001e-07
1.0432e-06
1.33673e-06
1.54506e-06
1.67584e-06
1.72306e-06
1.68031e-06
1.54527e-06
1.32008e-06
1.00171e-06
5.5274e-07
4.26277e-07
8.21096e-07
1.10971e-06
1.31985e-06
1.45592e-06
1.50929e-06
1.471e-06
1.3368e-06
1.10966e-06
7.90951e-07
3.79319e-07
2.17976e-07
5.20236e-07
7.91206e-07
1.0018e-06
1.14439e-06
1.20577e-06
1.17379e-06
1.04308e-06
8.20908e-07
5.20106e-07
2.02677e-07
6.80782e-08
2.02816e-07
3.79548e-07
5.53166e-07
6.89515e-07
7.55996e-07
7.31133e-07
6.13094e-07
4.26304e-07
2.17897e-07
6.80337e-08
)
;
    }
    procBoundary6to5
    {
        type            processor;
        value           nonuniform List<scalar> 
177
(
-6.8138e-08
3.46964e-08
-2.17994e-07
-4.26412e-07
-9.05177e-08
2.51099e-08
-6.13125e-07
-7.31162e-07
-1.17322e-07
-7.55871e-07
-1.52964e-10
-6.89249e-07
8.96805e-09
-5.52991e-07
-3.79452e-07
6.55544e-08
-2.02905e-07
-3.08855e-08
-6.81479e-08
-2.02858e-07
3.08511e-08
6.55078e-08
-5.20465e-07
-5.79535e-08
5.80232e-08
-8.2133e-07
-1.04347e-06
-1.17421e-06
-1.2062e-06
-1.14477e-06
-9.53061e-08
-1.00191e-06
3.29208e-08
-7.91218e-07
4.68747e-08
-5.20199e-07
3.0803e-08
-2.18105e-07
-3.79514e-07
2.50286e-08
-7.91542e-07
7.99317e-08
-1.10997e-06
-1.33683e-06
-1.47095e-06
-1.50925e-06
-1.45602e-06
2.30975e-08
-1.32008e-06
-1.10993e-06
-4.70226e-08
-8.21113e-07
2.5088e-08
7.98874e-08
-4.26506e-07
-5.53233e-07
-1.08253e-07
-1.00201e-06
3.28892e-08
-9.53475e-08
-1.31993e-06
-7.69964e-08
-1.54478e-06
-5.40847e-08
-1.67968e-06
-2.79998e-08
-1.72249e-06
5.83859e-08
-2.18867e-10
-1.67526e-06
-5.40731e-08
-1.54483e-06
5.37462e-08
-1.33675e-06
7.67253e-08
-1.04343e-06
9.52525e-08
-6.13332e-07
-6.89665e-07
-1.14471e-06
1.67914e-08
-1.45582e-06
-8.32962e-08
-1.67513e-06
-5.84408e-08
-1.80815e-06
-3.01753e-08
-1.85243e-06
-1.80818e-06
-1.67947e-06
-1.47083e-06
-1.17426e-06
-9.32598e-09
-7.31294e-07
1.17316e-07
-7.5613e-07
-1.1733e-07
-4.39743e-10
-1.20615e-06
-2.85139e-10
-1.03241e-07
-1.50898e-06
8.31786e-08
-1.72191e-06
5.82699e-08
-1.852e-06
8.62345e-11
2.99653e-08
-1.89637e-06
-1.85235e-06
-1.72217e-06
-1.50915e-06
-1.20633e-06
-7.56329e-07
-7.31459e-07
-1.17433e-06
-1.47083e-06
-1.67936e-06
-1.80801e-06
-1.85229e-06
-1.80809e-06
-1.67516e-06
-1.45598e-06
-1.14494e-06
-6.89656e-07
-6.13387e-07
-1.04362e-06
-1.3368e-06
-1.5446e-06
-1.67502e-06
-1.7221e-06
-1.67944e-06
-1.54475e-06
-1.32011e-06
-1.00221e-06
-5.53152e-07
-4.26513e-07
-8.21416e-07
-1.10996e-06
-1.31995e-06
-1.45578e-06
-1.50904e-06
-1.47081e-06
-1.33682e-06
-1.10999e-06
-7.91381e-07
-3.79593e-07
-2.18161e-07
-5.20498e-07
-2.48164e-08
-7.9148e-07
-2.49466e-08
-1.0022e-06
-1.7466e-08
-1.14486e-06
-8.86109e-09
-1.20629e-06
-1.17428e-06
-1.04353e-06
-8.21298e-07
-5.20298e-07
-2.03003e-07
-6.81896e-08
-6.55879e-08
-2.03051e-07
-6.55551e-08
-3.8018e-07
9.06072e-08
-5.53692e-07
-6.90205e-07
1.17345e-07
-7.56478e-07
-7.31578e-07
-6.13437e-07
-4.26484e-07
-2.18138e-07
-6.81908e-08
)
;
    }
}


// ************************************************************************* //
