/*--------------------------------*- C++ -*----------------------------------*\
| =========                 |                                                 |
| \\      /  F ield         | OpenFOAM: The Open Source CFD Toolbox           |
|  \\    /   O peration     | Version:  2212                                  |
|   \\  /    A nd           | Website:  www.openfoam.com                      |
|    \\/     M anipulation  |                                                 |
\*---------------------------------------------------------------------------*/
FoamFile
{
    version     2.0;
    format      ascii;
    arch        "LSB;label=32;scalar=64";
    class       volScalarField;
    location    "2.2";
    object      nut;
}
// * * * * * * * * * * * * * * * * * * * * * * * * * * * * * * * * * * * * * //

dimensions      [0 2 -1 0 0 0 0];

internalField   nonuniform List<scalar> 
690
(
3.97457e-06
3.93699e-06
3.89979e-06
3.86682e-06
3.83352e-06
3.8029e-06
3.77252e-06
3.74373e-06
3.71585e-06
3.68798e-06
3.66201e-06
8.04774e-06
7.95295e-06
7.85883e-06
7.77558e-06
7.69426e-06
7.6208e-06
7.5501e-06
7.4825e-06
7.41877e-06
7.35558e-06
7.29634e-06
1.18674e-05
1.16978e-05
1.15402e-05
1.14005e-05
1.12673e-05
1.11482e-05
1.10318e-05
1.09186e-05
1.08129e-05
1.07021e-05
1.06002e-05
1.48369e-05
1.46065e-05
1.43909e-05
1.41908e-05
1.4003e-05
1.38389e-05
1.3662e-05
1.34919e-05
1.33402e-05
1.31963e-05
1.30584e-05
1.67009e-05
1.64244e-05
1.61667e-05
1.59263e-05
1.57044e-05
1.54944e-05
1.52962e-05
1.51097e-05
1.49352e-05
1.477e-05
1.45955e-05
7.87859e-06
7.78386e-06
7.69219e-06
7.60859e-06
7.52376e-06
7.44778e-06
7.37296e-06
7.30253e-06
7.23606e-06
7.17158e-06
7.11179e-06
1.50023e-05
1.4286e-05
1.33509e-05
1.27867e-05
1.20533e-05
1.156e-05
1.09929e-05
1.0526e-05
1.00461e-05
9.53053e-06
9.15168e-06
3.25152e-05
3.169e-05
2.97598e-05
2.89267e-05
2.72489e-05
2.6448e-05
2.50619e-05
2.41675e-05
2.31887e-05
2.19965e-05
2.13909e-05
4.75055e-05
4.54028e-05
4.34194e-05
4.15872e-05
3.9806e-05
3.81312e-05
3.66986e-05
3.49772e-05
3.41063e-05
3.24073e-05
3.17365e-05
5.7248e-05
5.48025e-05
5.25117e-05
5.03684e-05
4.83567e-05
4.64638e-05
4.46903e-05
4.29926e-05
4.14605e-05
3.97213e-05
3.80003e-05
1.14817e-05
1.1324e-05
1.11794e-05
1.10317e-05
1.08882e-05
1.0764e-05
1.0645e-05
1.05319e-05
1.04272e-05
1.03225e-05
1.02238e-05
3.39939e-05
3.24677e-05
3.05039e-05
2.93536e-05
2.75117e-05
2.67414e-05
2.51265e-05
2.42607e-05
2.31119e-05
2.17317e-05
2.10818e-05
6.64699e-05
6.37214e-05
6.0935e-05
5.85706e-05
5.60889e-05
5.43206e-05
5.18217e-05
4.94523e-05
4.72523e-05
4.50683e-05
4.35307e-05
8.95137e-05
8.61871e-05
8.30084e-05
7.99708e-05
7.70603e-05
7.43364e-05
7.16967e-05
6.90691e-05
6.66243e-05
6.40383e-05
6.24822e-05
0.000103384
9.97123e-05
9.6213e-05
9.28739e-05
8.96823e-05
8.66367e-05
8.37235e-05
8.09255e-05
7.82612e-05
7.55578e-05
7.32458e-05
1.44553e-05
1.42255e-05
1.40119e-05
1.38125e-05
1.36261e-05
1.34551e-05
1.32944e-05
1.31428e-05
1.30011e-05
1.2866e-05
1.27259e-05
5.14249e-05
4.91717e-05
4.70354e-05
4.50783e-05
4.32017e-05
4.14867e-05
3.98265e-05
3.8273e-05
3.67749e-05
3.52201e-05
3.40054e-05
9.18703e-05
8.85259e-05
8.53397e-05
8.23102e-05
7.94172e-05
7.67408e-05
7.41144e-05
7.1527e-05
6.90219e-05
6.65633e-05
6.42734e-05
0.000118795
0.00011489
0.000111158
0.000107581
0.000104148
0.000100868
9.77129e-05
9.46747e-05
9.1757e-05
8.887e-05
8.63592e-05
0.00013405
0.000129798
0.000125744
0.000121867
0.000118155
0.000114597
0.000111179
0.000107888
0.000104721
0.000101605
9.88123e-05
1.6468e-05
1.61919e-05
1.59347e-05
1.56944e-05
1.54696e-05
1.52594e-05
1.5063e-05
1.48801e-05
1.47099e-05
1.45499e-05
1.43932e-05
6.07583e-05
5.82964e-05
5.59864e-05
5.38184e-05
5.17716e-05
4.98394e-05
4.80063e-05
4.6263e-05
4.46038e-05
4.29971e-05
4.14434e-05
0.00010585
0.000102199
9.87252e-05
9.54142e-05
9.2249e-05
8.92309e-05
8.63428e-05
8.35672e-05
8.09051e-05
7.82937e-05
7.59559e-05
0.000134731
0.000130504
0.00012648
0.000122643
0.000118983
0.000115484
0.000112131
0.000108894
0.000105774
0.000102719
9.99538e-05
0.000150883
0.000146285
0.000141914
0.000137747
0.000133766
0.000129955
0.000126301
0.000122787
0.000119403
0.000116116
0.000113099
0.000156243
0.000151501
0.000146996
0.000142703
0.000138602
0.000134676
0.00013091
0.000127286
0.000123794
0.000120396
0.000117272
1.7248e-05
1.69557e-05
1.66835e-05
1.64291e-05
1.6191e-05
1.59677e-05
1.57591e-05
1.55649e-05
1.53817e-05
1.52094e-05
1.5043e-05
6.19541e-05
5.94064e-05
5.70231e-05
5.47865e-05
5.2684e-05
5.07031e-05
4.88339e-05
4.70609e-05
4.53901e-05
4.37675e-05
4.22289e-05
0.000108987
0.000105216
0.000101636
9.82301e-05
9.49882e-05
9.18997e-05
8.89478e-05
8.61147e-05
8.34044e-05
8.07323e-05
7.83709e-05
0.000139359
0.00013501
0.000130873
0.000126928
0.00012316
0.000119556
0.000116102
0.000112783
0.000109592
0.00010648
0.000103651
0.000156222
0.000151505
0.000147024
0.000142757
0.000138683
0.000134788
0.000131055
0.000127469
0.000124019
0.000120673
0.00011758
0.00016172
0.000156863
0.000152252
0.000147861
0.00014367
0.000139663
0.000135821
0.00013213
0.000128577
0.00012513
0.000121933
1.67012e-05
1.64242e-05
1.61659e-05
1.59251e-05
1.57029e-05
1.54926e-05
1.52943e-05
1.51081e-05
1.49338e-05
1.47696e-05
1.45956e-05
5.7239e-05
5.47935e-05
5.25019e-05
5.03616e-05
4.83542e-05
4.64715e-05
4.47077e-05
4.30228e-05
4.15121e-05
3.97904e-05
3.80933e-05
0.000103351
9.96837e-05
9.61941e-05
9.28707e-05
8.97e-05
8.66787e-05
8.37928e-05
8.10274e-05
7.8398e-05
7.57477e-05
7.34585e-05
0.000133995
0.000129764
0.00012573
0.000121877
0.000118193
0.000114666
0.000111283
0.000108032
0.000104906
0.000101844
9.90829e-05
0.000150828
0.000146248
0.000141892
0.00013774
0.000133773
0.000129979
0.000126341
0.000122846
0.000119483
0.00011622
0.000113221
0.000156205
0.000151488
0.000147004
0.000142731
0.000138651
0.000134745
0.000131001
0.000127402
0.000123936
0.000120571
0.000117468
1.48356e-05
1.4605e-05
1.43892e-05
1.41892e-05
1.40014e-05
1.38377e-05
1.36611e-05
1.34914e-05
1.33402e-05
1.3197e-05
1.3059e-05
1.29258e-05
4.74766e-05
4.53937e-05
4.34e-05
4.15852e-05
3.97903e-05
3.81674e-05
3.66884e-05
3.50444e-05
3.41143e-05
3.24466e-05
3.17439e-05
3.02715e-05
8.94662e-05
8.61511e-05
8.29803e-05
7.99593e-05
7.70557e-05
7.43592e-05
7.17347e-05
6.91382e-05
6.67023e-05
6.41361e-05
6.26311e-05
0.000118752
0.000114853
0.000111131
0.000107564
0.000104147
0.000100884
9.77465e-05
9.47272e-05
9.1828e-05
8.89659e-05
8.64728e-05
0.000134726
0.000130502
0.00012648
0.000122647
0.000118989
0.000115494
0.000112144
0.000108911
0.000105793
0.000102743
9.9985e-05
0.000139409
0.000135049
0.0001309
0.000126942
0.000123158
0.000119536
0.000116062
0.000112721
0.000109506
0.000106364
0.000103522
1.18649e-05
1.16959e-05
1.15383e-05
1.13991e-05
1.12661e-05
1.11477e-05
1.10312e-05
1.09192e-05
1.08136e-05
1.07031e-05
1.06018e-05
1.05068e-05
3.2452e-05
3.16525e-05
2.97319e-05
2.89153e-05
2.72421e-05
2.64605e-05
2.50563e-05
2.42607e-05
2.30848e-05
2.21089e-05
2.13918e-05
2.03473e-05
6.63288e-05
6.36124e-05
6.08389e-05
5.85026e-05
5.60237e-05
5.42941e-05
5.18017e-05
4.94921e-05
4.72513e-05
4.51066e-05
4.36132e-05
9.1761e-05
8.84277e-05
8.5257e-05
8.22358e-05
7.93607e-05
7.66937e-05
7.40844e-05
7.15171e-05
6.902e-05
6.6583e-05
6.43188e-05
0.000105825
0.000102178
9.87066e-05
9.53982e-05
9.22363e-05
8.92208e-05
8.63361e-05
8.35628e-05
8.09031e-05
7.82966e-05
7.59623e-05
0.000109028
0.000105255
0.00010167
9.82551e-05
9.50057e-05
9.19095e-05
8.89468e-05
8.61011e-05
8.33771e-05
8.06854e-05
7.83113e-05
8.04433e-06
7.94865e-06
7.85504e-06
7.77231e-06
7.69156e-06
7.61881e-06
7.54814e-06
7.48188e-06
7.41807e-06
7.35545e-06
7.29709e-06
7.24163e-06
1.4909e-05
1.41686e-05
1.32912e-05
1.2699e-05
1.20119e-05
1.15019e-05
1.09552e-05
1.05037e-05
9.99633e-06
9.51418e-06
9.14885e-06
8.82271e-06
3.375e-05
3.22573e-05
3.03238e-05
2.91847e-05
2.73622e-05
2.66027e-05
2.5013e-05
2.41484e-05
2.303e-05
2.16508e-05
2.10386e-05
5.12188e-05
4.89851e-05
4.68635e-05
4.49171e-05
4.30516e-05
4.13475e-05
3.97009e-05
3.81633e-05
3.66824e-05
3.51577e-05
3.39335e-05
6.06516e-05
5.82002e-05
5.58966e-05
5.37341e-05
5.16924e-05
4.97655e-05
4.79384e-05
4.62025e-05
4.45516e-05
4.29565e-05
4.14082e-05
6.19181e-05
5.9385e-05
5.70099e-05
5.47775e-05
5.26766e-05
5.06955e-05
4.88244e-05
4.70492e-05
4.53749e-05
4.37477e-05
4.22023e-05
3.97276e-06
3.93485e-06
3.89806e-06
3.86518e-06
3.83213e-06
3.80168e-06
3.77158e-06
3.74329e-06
3.71543e-06
3.68807e-06
3.66232e-06
3.63738e-06
7.87499e-06
7.77615e-06
7.68414e-06
7.60063e-06
7.51676e-06
7.4415e-06
7.36724e-06
7.29823e-06
7.23266e-06
7.16924e-06
7.11082e-06
7.05529e-06
1.14712e-05
1.13117e-05
1.11664e-05
1.10189e-05
1.08761e-05
1.07531e-05
1.06352e-05
1.05232e-05
1.04199e-05
1.03165e-05
1.02189e-05
1.44432e-05
1.42131e-05
1.39993e-05
1.38e-05
1.36139e-05
1.34437e-05
1.3284e-05
1.31334e-05
1.29928e-05
1.28593e-05
1.272e-05
1.64597e-05
1.61834e-05
1.59261e-05
1.56859e-05
1.54613e-05
1.52515e-05
1.50556e-05
1.48732e-05
1.47039e-05
1.4545e-05
1.43891e-05
1.72434e-05
1.69515e-05
1.66795e-05
1.64253e-05
1.61874e-05
1.59642e-05
1.57558e-05
1.55619e-05
1.5379e-05
1.52073e-05
1.50411e-05
)
;

boundaryField
{
    inlet
    {
        type            calculated;
        value           nonuniform List<scalar> 0();
    }
    ami1
    {
        type            cyclicAMI;
        value           nonuniform List<scalar> 0();
    }
    walls
    {
        type            nutkWallFunction;
        blending        stepwise;
        value           uniform 0;
    }
    ami2
    {
        type            cyclicAMI;
        value           nonuniform List<scalar> 0();
    }
    outlet
    {
        type            calculated;
        value           nonuniform List<scalar> 0();
    }
    procBoundary8to0
    {
        type            processor;
        value           nonuniform List<scalar> 
29
(
4.01371e-06
8.14359e-06
1.20272e-05
1.50747e-05
1.6989e-05
7.9878e-06
1.58297e-05
3.45624e-05
4.95887e-05
5.98197e-05
1.16521e-05
3.57129e-05
6.9161e-05
9.29044e-05
0.000107233
1.46999e-05
5.35503e-05
9.51105e-05
0.000122847
0.000138589
1.67617e-05
6.32883e-05
0.000109523
0.000139184
0.000155832
0.000161379
0.000144014
0.000161328
0.000167003
)
;
    }
    procBoundary8to1
    {
        type            processor;
        value           nonuniform List<scalar> 
33
(
1.75578e-05
6.47752e-05
0.000112957
1.69906e-05
5.98622e-05
0.000107229
0.000138536
0.000155781
0.000161327
1.50738e-05
4.96203e-05
9.29034e-05
0.000122839
0.0001392
0.000144076
1.20234e-05
3.45732e-05
6.91019e-05
9.50403e-05
0.000109494
0.000112945
8.14239e-06
1.58326e-05
3.55687e-05
5.33839e-05
6.31928e-05
6.47194e-05
4.01248e-06
7.98358e-06
1.16408e-05
1.46879e-05
1.67537e-05
1.75529e-05
)
;
    }
    procBoundary8to7
    {
        type            processor;
        value           nonuniform List<scalar> 
68
(
3.63731e-06
7.24115e-06
1.05047e-05
1.29238e-05
1.44329e-05
7.05644e-06
8.86149e-06
2.02569e-05
2.99838e-05
3.67084e-05
1.01292e-05
1.98423e-05
4.14984e-05
6.02671e-05
7.05328e-05
1.25978e-05
3.22221e-05
6.20323e-05
8.34933e-05
9.55225e-05
1.42516e-05
3.99045e-05
7.33495e-05
9.67651e-05
0.000109574
0.000113636
1.48961e-05
4.04565e-05
7.55916e-05
0.000100352
0.000113991
0.00011822
1.44346e-05
1.44346e-05
3.68405e-05
3.68405e-05
7.08352e-05
9.58608e-05
0.000109736
0.000113852
1.28002e-05
2.95603e-05
6.0428e-05
6.0428e-05
8.36172e-05
9.67825e-05
0.000100165
1.04217e-05
1.97723e-05
4.15497e-05
4.15497e-05
6.20651e-05
7.33311e-05
7.54777e-05
7.19003e-06
8.57385e-06
1.98467e-05
1.98467e-05
3.23551e-05
3.98929e-05
4.04201e-05
3.61384e-06
7.00325e-06
1.01278e-05
1.01278e-05
1.25958e-05
1.4249e-05
1.48953e-05
)
;
    }
    procBoundary8to9
    {
        type            processor;
        value           nonuniform List<scalar> 
132
(
1.72461e-05
1.69549e-05
1.66836e-05
1.643e-05
1.61925e-05
1.59695e-05
1.5761e-05
1.55668e-05
1.53834e-05
1.52107e-05
1.50443e-05
6.1956e-05
5.94277e-05
5.7056e-05
5.48246e-05
5.27219e-05
5.07352e-05
4.88556e-05
4.7068e-05
4.53779e-05
4.37326e-05
4.2162e-05
0.000109032
0.000105262
0.000101678
9.82607e-05
9.50013e-05
9.18936e-05
8.89157e-05
8.60498e-05
8.3299e-05
8.05815e-05
7.81938e-05
0.000139405
0.000135034
0.000130873
0.000126901
0.000123102
0.000119461
0.000115966
0.0001126
0.000109355
0.000106177
0.000103312
0.000139405
0.000135034
0.000130873
0.000126901
0.000123102
0.000119461
0.000115966
0.0001126
0.000109355
0.000106177
0.000103312
0.000150889
0.00014628
0.000141899
0.000137722
0.000133731
0.00012991
0.000126243
0.000122716
0.000119316
0.000116009
0.000112982
0.000156237
0.000151502
0.000147006
0.000142723
0.000138633
0.000134718
0.000130964
0.000127355
0.000123877
0.000120497
0.000117382
0.000150848
0.000146251
0.000141879
0.000137709
0.000133724
0.000129908
0.000126246
0.000122722
0.000119325
0.000116021
0.000112997
0.000134076
0.000129822
0.000125767
0.000121892
0.000118182
0.000114627
0.000111213
0.000107925
0.000104759
0.000101647
9.88612e-05
0.000103436
9.97606e-05
9.62594e-05
9.29201e-05
8.97347e-05
8.66922e-05
8.37847e-05
8.09951e-05
7.83334e-05
7.56474e-05
7.33339e-05
5.7268e-05
5.48211e-05
5.25304e-05
5.03859e-05
4.83772e-05
4.64884e-05
4.47145e-05
4.30334e-05
4.149e-05
3.97799e-05
3.80008e-05
1.67014e-05
1.64245e-05
1.61663e-05
1.59255e-05
1.57034e-05
1.54931e-05
1.52949e-05
1.51084e-05
1.49344e-05
1.477e-05
1.45963e-05
)
;
    }
}


// ************************************************************************* //
