/*--------------------------------*- C++ -*----------------------------------*\
| =========                 |                                                 |
| \\      /  F ield         | OpenFOAM: The Open Source CFD Toolbox           |
|  \\    /   O peration     | Version:  2212                                  |
|   \\  /    A nd           | Website:  www.openfoam.com                      |
|    \\/     M anipulation  |                                                 |
\*---------------------------------------------------------------------------*/
FoamFile
{
    version     2.0;
    format      ascii;
    arch        "LSB;label=32;scalar=64";
    class       volScalarField;
    location    "2.9";
    object      epsilon;
}
// * * * * * * * * * * * * * * * * * * * * * * * * * * * * * * * * * * * * * //

dimensions      [0 2 -3 0 0 0 0];

internalField   nonuniform List<scalar> 
682
(
0.0255492
0.024191
0.0229703
0.0218711
0.0208796
0.0199879
0.0191882
0.0184617
0.0178
0.017198
0.016638
0.0255872
0.024224
0.0230081
0.0219198
0.0209436
0.0200649
0.0192742
0.0185624
0.0179225
0.0173258
0.0167721
0.027155
0.0258014
0.024591
0.0235052
0.0225333
0.0216567
0.020861
0.0201333
0.0194938
0.0188403
0.0182453
0.0335882
0.0320599
0.0306776
0.0294346
0.0282041
0.0271112
0.0261672
0.0252844
0.0244789
0.0237305
0.0230214
0.0223775
0.0486891
0.0467924
0.0449017
0.0432867
0.0417936
0.040423
0.0391637
0.0379911
0.0369046
0.0358828
0.0349425
0.034089
0.12951
0.125833
0.122355
0.11916
0.116132
0.113309
0.110607
0.10808
0.105649
0.1033
0.101058
0.0990085
0.0131308
0.0122087
0.0113894
0.0106603
0.0100088
0.00942487
0.00889994
0.00842687
0.00799933
0.0076125
0.00726538
0.0130531
0.0121463
0.011343
0.010627
0.00998617
0.00941033
0.00889186
0.00842276
0.00799913
0.00761499
0.00726803
0.013459
0.0125802
0.011799
0.0110972
0.0104686
0.00989107
0.00938113
0.00890105
0.00847862
0.00808822
0.00771037
0.0160537
0.0150037
0.0141184
0.013318
0.0125567
0.0119973
0.0112273
0.0108188
0.0101891
0.00986197
0.00933049
0.00901101
0.0224364
0.0210888
0.0200603
0.0190872
0.0182639
0.017476
0.0167904
0.0161559
0.0155719
0.0150026
0.0145431
0.014047
0.050991
0.0492307
0.0476072
0.0460647
0.0446199
0.0433188
0.0421003
0.0409843
0.0399264
0.0389164
0.0379501
0.0370708
0.0126847
0.0116371
0.0107118
0.0098913
0.00916051
0.00850753
0.00792294
0.00739825
0.00692547
0.00650176
0.00610774
0.0125021
0.0114804
0.010579
0.00977962
0.00906833
0.00843236
0.0078611
0.00734837
0.00688534
0.00646915
0.00608184
0.0122585
0.0112962
0.0104433
0.00968523
0.00900502
0.00839303
0.00784347
0.00735918
0.00691577
0.00652371
0.00614704
0.0135107
0.0124773
0.0115984
0.0107951
0.0100819
0.00939906
0.00881216
0.0083133
0.0079328
0.00746859
0.00715988
0.00670062
0.0169482
0.0155967
0.0148985
0.0139101
0.0133685
0.0125841
0.0121369
0.011502
0.011136
0.0105801
0.0102794
0.0097932
0.0363497
0.0349466
0.03371
0.0324203
0.0312491
0.0302194
0.0292663
0.0284053
0.0275725
0.0267961
0.0260023
0.025277
0.0137356
0.0125352
0.0114764
0.0105392
0.00970693
0.0089653
0.00830246
0.0077085
0.00717468
0.0066953
0.00625433
0.0134781
0.0123086
0.0112771
0.0103634
0.00955092
0.00882612
0.00817777
0.00759714
0.00707531
0.00660643
0.00617508
0.0128469
0.0117647
0.0108091
0.00996182
0.00920871
0.00853485
0.00793163
0.00738972
0.00690092
0.00646218
0.00605238
0.0135121
0.0124096
0.0114348
0.0105729
0.00980407
0.00911843
0.00850014
0.00794694
0.00746064
0.00700829
0.00662106
0.00619992
0.0150777
0.0140527
0.0131582
0.0123639
0.0116678
0.0110305
0.0104768
0.0099295
0.00953008
0.00898013
0.00868311
0.00819935
0.0305259
0.0290822
0.0277842
0.0266148
0.0255476
0.0245733
0.0236899
0.0228706
0.0220391
0.021293
0.0206171
0.0199851
0.0143621
0.0130893
0.0119664
0.0109725
0.01009
0.00930394
0.0086017
0.00797264
0.00740757
0.0068993
0.00643417
0.0134919
0.0123225
0.0112904
0.0103762
0.00956384
0.00883942
0.00819156
0.00761045
0.00708774
0.00661827
0.00618586
0.0137914
0.0126231
0.0115938
0.0106835
0.00987522
0.00915518
0.00851121
0.00793393
0.00741441
0.00694578
0.00652557
0.00613138
0.0144315
0.0133989
0.0124878
0.0116793
0.0109582
0.0103124
0.00973292
0.00920981
0.0087375
0.00830753
0.00792176
0.00756099
0.0280051
0.0265416
0.0252247
0.0240346
0.0229584
0.021994
0.0211112
0.020299
0.0195569
0.0188716
0.0182614
0.0176279
0.0146925
0.013383
0.0122277
0.0112053
0.0102976
0.0094894
0.00876755
0.00812106
0.0075405
0.00701851
0.00654187
0.0137349
0.0125343
0.0114751
0.0105373
0.00970415
0.00896157
0.00829769
0.0077026
0.00716761
0.00668677
0.00624547
0.0138737
0.0126837
0.0116365
0.010711
0.00989
0.00915859
0.00850483
0.0079195
0.00739393
0.00692048
0.00649551
0.00610181
0.014159
0.0131245
0.012205
0.0113869
0.010658
0.0100063
0.009422
0.00889667
0.00842315
0.00799513
0.00760788
0.00725974
0.0270596
0.0255462
0.024188
0.0229677
0.0218691
0.0208782
0.0199872
0.0191884
0.0184626
0.0178016
0.0172001
0.0166395
0.0143629
0.0130898
0.0119667
0.0109727
0.0100901
0.00930399
0.00860168
0.00797255
0.00740743
0.00689912
0.00643387
0.0134776
0.0123084
0.011277
0.0103632
0.00955055
0.00882552
0.00817692
0.00759602
0.00707394
0.00660482
0.0061732
0.0136619
0.0124999
0.0114797
0.0105789
0.0097793
0.00906805
0.00843127
0.00786007
0.00734642
0.00688374
0.00646624
0.0060795
0.0140668
0.0130461
0.0121436
0.011342
0.0106262
0.00998542
0.00940924
0.00889069
0.00842132
0.00799783
0.00761298
0.0072666
0.0271229
0.0255882
0.0242252
0.0230094
0.0219213
0.0209454
0.0200671
0.0192767
0.0185656
0.0179259
0.0173299
0.0167759
0.0134907
0.0123219
0.0112903
0.0103768
0.0095651
0.00884133
0.00819407
0.00761364
0.00709149
0.00662293
0.00619047
0.0128438
0.011763
0.0108083
0.00996166
0.00920885
0.00853508
0.00793199
0.00739004
0.00690147
0.00646305
0.00605308
0.0133465
0.0122553
0.0112938
0.0104445
0.00968426
0.00900829
0.00839149
0.00784593
0.00735513
0.0069218
0.00651595
0.00615021
0.0144407
0.0134514
0.0125768
0.0118014
0.0110955
0.0104693
0.00988989
0.00938138
0.00889839
0.00848273
0.00807957
0.00771862
0.028686
0.0271665
0.0258114
0.0246
0.0235138
0.0225418
0.0216652
0.0208694
0.0201425
0.0195017
0.0188518
0.0182555
0.0126208
0.0115924
0.010683
0.00987553
0.00915628
0.00851288
0.00793601
0.00741723
0.00694892
0.00653024
0.00613526
0.012406
0.0114336
0.010573
0.00980487
0.00912156
0.00850075
0.00795007
0.00745861
0.00701389
0.00662081
0.00620412
0.0134925
0.0124885
0.0115881
0.0108176
0.0100624
0.00944063
0.00879822
0.00834741
0.00788389
0.00756037
0.00706392
0.00677425
0.0160372
0.0150319
0.0140938
0.0133787
0.0125161
0.0120061
0.011225
0.0108281
0.0101864
0.00987548
0.00932352
0.00901996
0.0335965
0.0320713
0.0306942
0.029449
0.0282233
0.0271287
0.026184
0.0252993
0.0244954
0.023743
0.023039
0.0223929
0.0134092
0.0124928
0.0116825
0.0109606
0.0103149
0.009735
0.00921259
0.0087405
0.00831141
0.00792842
0.00756373
0.0140735
0.0131681
0.0123765
0.0116707
0.0110456
0.010468
0.0099483
0.00950624
0.00900434
0.00869372
0.00821031
0.0167635
0.0158047
0.0147501
0.0141222
0.0132385
0.0127494
0.0120383
0.0116335
0.0110469
0.0107025
0.0102022
0.00987312
0.022428
0.0211481
0.0200502
0.0191289
0.0182541
0.0175045
0.0167871
0.0161725
0.0155692
0.0150183
0.0145463
0.0140596
0.0486979
0.046811
0.0449457
0.0432991
0.0418284
0.0404379
0.0391896
0.0380043
0.036923
0.0358972
0.0349568
0.0341049
0.0265307
0.0252133
0.0240232
0.0229473
0.0219831
0.0211001
0.020288
0.0195458
0.0188609
0.0182494
0.0176157
0.029069
0.0277729
0.0266049
0.0255376
0.0245636
0.023681
0.0228587
0.0220272
0.0212813
0.0206038
0.019971
0.0363406
0.0349328
0.0336994
0.0323951
0.0312433
0.0301945
0.0292563
0.02838
0.0275586
0.0267721
0.0259812
0.0252593
0.0509869
0.0492081
0.0476169
0.0460448
0.0446265
0.0432993
0.0420966
0.0409605
0.0399151
0.0388985
0.0379367
0.0370588
0.129536
0.125829
0.122413
0.119156
0.116188
0.113292
0.11064
0.108064
0.105671
0.103298
0.101077
0.0990167
)
;

boundaryField
{
    inlet
    {
        type            fixedValue;
        value           nonuniform List<scalar> 0();
    }
    ami1
    {
        type            cyclicAMI;
        value           nonuniform List<scalar> 0();
    }
    walls
    {
        type            epsilonWallFunction;
        blending        stepwise;
        value           nonuniform List<scalar> 
259
(
0.0335882
0.0486891
0.12951
0.0255492
0.0255872
0.027155
0.0320599
0.0467924
0.125833
0.024191
0.024224
0.0258014
0.0306776
0.0449017
0.122355
0.0229703
0.0230081
0.024591
0.0294346
0.0432867
0.11916
0.0218711
0.0219198
0.0235052
0.0282041
0.0417936
0.116132
0.0208796
0.0209436
0.0225333
0.0271112
0.040423
0.113309
0.0199879
0.0200649
0.0216567
0.0261672
0.0391637
0.110607
0.0191882
0.0192742
0.020861
0.0252844
0.0379911
0.10808
0.0184617
0.0185624
0.0201333
0.0244789
0.0369046
0.105649
0.0178
0.0179225
0.0194938
0.0237305
0.0358828
0.1033
0.017198
0.0173258
0.0188403
0.0230214
0.0349425
0.101058
0.016638
0.0167721
0.0182453
0.0223775
0.034089
0.0990085
0.12951
0.050991
0.0363497
0.0305259
0.0280051
0.0270596
0.0271229
0.028686
0.0335965
0.0486979
0.129536
0.125833
0.0492307
0.0349466
0.0290822
0.0265416
0.0255462
0.0255882
0.0271665
0.0320713
0.046811
0.125829
0.122355
0.0476072
0.03371
0.0277842
0.0252247
0.024188
0.0242252
0.0258114
0.0306942
0.0449457
0.122413
0.11916
0.0460647
0.0324203
0.0266148
0.0240346
0.0229677
0.0230094
0.0246
0.029449
0.0432991
0.119156
0.116132
0.0446199
0.0312491
0.0255476
0.0229584
0.0218691
0.0219213
0.0235138
0.0282233
0.0418284
0.116188
0.113309
0.0433188
0.0302194
0.0245733
0.021994
0.0208782
0.0209454
0.0225418
0.0271287
0.0404379
0.113292
0.110607
0.0421003
0.0292663
0.0236899
0.0211112
0.0199872
0.0200671
0.0216652
0.026184
0.0391896
0.11064
0.10808
0.0409843
0.0284053
0.0228706
0.020299
0.0191884
0.0192767
0.0208694
0.0252993
0.0380043
0.108064
0.105649
0.0399264
0.0275725
0.0220391
0.0195569
0.0184626
0.0185656
0.0201425
0.0244954
0.036923
0.105671
0.1033
0.0389164
0.0267961
0.021293
0.0188716
0.0178016
0.0179259
0.0195017
0.023743
0.0358972
0.103298
0.101058
0.0379501
0.0260023
0.0206171
0.0182614
0.0172001
0.0173299
0.0188518
0.023039
0.0349568
0.101077
0.0990085
0.0370708
0.025277
0.0199851
0.0176279
0.0166395
0.0167759
0.0182555
0.0223929
0.0341049
0.0990167
0.0363406
0.0509869
0.129536
0.0265307
0.029069
0.0349328
0.0492081
0.125829
0.0252133
0.0277729
0.0336994
0.0476169
0.122413
0.0240232
0.0266049
0.0323951
0.0460448
0.119156
0.0229473
0.0255376
0.0312433
0.0446265
0.116188
0.0219831
0.0245636
0.0301945
0.0432993
0.113292
0.0211001
0.023681
0.0292563
0.0420966
0.11064
0.020288
0.0228587
0.02838
0.0409605
0.108064
0.0195458
0.0220272
0.0275586
0.0399151
0.105671
0.0188609
0.0212813
0.0267721
0.0388985
0.103298
0.0182494
0.0206038
0.0259812
0.0379367
0.101077
0.0176157
0.019971
0.0252593
0.0370588
0.0990167
)
;
    }
    ami2
    {
        type            cyclicAMI;
        value           nonuniform List<scalar> 0();
    }
    outlet
    {
        type            zeroGradient;
    }
    procBoundary9to0
    {
        type            processor;
        value           nonuniform List<scalar> 
40
(
0.0270996
0.027148
0.0286922
0.0286922
0.0353182
0.0505889
0.133268
0.0141503
0.0140595
0.0144332
0.0144332
0.0170662
0.0230533
0.052857
0.0138794
0.0136657
0.0133488
0.0133488
0.0146173
0.0176952
0.0379852
0.0151058
0.0148128
0.0140801
0.0140801
0.014778
0.0161586
0.0321721
0.0158125
0.0148257
0.0148257
0.0151365
0.0155582
0.0296803
0.0161832
0.0151036
0.0151036
0.0152403
0.0152996
0.0287943
)
;
    }
    procBoundary9to1
    {
        type            processor;
        value           nonuniform List<scalar> 
30
(
0.0158125
0.0148108
0.0148108
0.0149935
0.0152025
0.0288926
0.0148261
0.0140788
0.0140788
0.0145889
0.0155281
0.0304195
0.0137993
0.0135181
0.0135181
0.014621
0.0170727
0.0353343
0.0144138
0.0150487
0.0150487
0.0177678
0.0230786
0.0505842
0.0280365
0.0305518
0.0305518
0.0379661
0.0528332
0.13324
)
;
    }
    procBoundary9to7
    {
        type            processor;
        value           nonuniform List<scalar> 
59
(
0.0161585
0.016271
0.0176884
0.0217377
0.0332494
0.0969217
0.00695586
0.00696455
0.00748416
0.00865567
0.0138915
0.0362218
0.00577041
0.00575109
0.00583909
0.00649752
0.00961857
0.0246244
0.00587509
0.00580249
0.00569518
0.0058389
0.00801912
0.0193865
0.00603236
0.00581207
0.00578834
0.00727245
0.0170552
0.00613011
0.00586492
0.00576192
0.00695045
0.0161633
0.00603228
0.00580083
0.00574739
0.00696119
0.0162788
0.00581799
0.00569696
0.00583117
0.00745458
0.0177013
0.00579448
0.00583804
0.00638856
0.0086321
0.0217568
0.00728259
0.00801775
0.00951958
0.0138895
0.0332661
0.017042
0.0193721
0.0246103
0.0362187
0.0969476
)
;
    }
    procBoundary9to8
    {
        type            processor;
        value           nonuniform List<scalar> 
132
(
0.026537
0.0252213
0.0240322
0.0229563
0.0219924
0.0211098
0.0202978
0.0195551
0.0188705
0.0182591
0.0176258
0.0134108
0.0124933
0.0116822
0.0109604
0.0103149
0.00973552
0.0092137
0.00874056
0.00831351
0.00792402
0.00757258
0.0126245
0.0115948
0.0106843
0.00987618
0.00915673
0.00851352
0.00793674
0.00741824
0.00695021
0.00653124
0.00613759
0.0134929
0.0123235
0.0112914
0.0103774
0.00956555
0.00884174
0.00819452
0.00761417
0.00709207
0.00662365
0.00619154
0.014692
0.0133826
0.0122276
0.0112056
0.0102983
0.00949052
0.00876911
0.0081231
0.00754303
0.00702165
0.00654511
0.014692
0.0133826
0.0122276
0.0112056
0.0102983
0.00949052
0.00876911
0.0081231
0.00754303
0.00702165
0.00654511
0.0150553
0.0137067
0.012517
0.0114641
0.0105295
0.00969733
0.00895422
0.00828879
0.00769131
0.00715405
0.00666442
0.0146928
0.0133827
0.012227
0.0112044
0.0102965
0.00948808
0.00876598
0.00811919
0.00753828
0.00701589
0.00653895
0.0137341
0.0125335
0.0114745
0.0105371
0.00970438
0.00896216
0.00829862
0.00770382
0.00716906
0.00668853
0.0062471
0.0126836
0.011636
0.0107105
0.00988977
0.00915862
0.00850512
0.00791999
0.00739461
0.00692113
0.00649656
0.00610256
0.0131309
0.0122076
0.0113872
0.0106572
0.010005
0.00942055
0.00889519
0.00842176
0.00799404
0.0076069
0.0072596
0.0255408
0.0241834
0.0229632
0.0218641
0.0208725
0.0199809
0.0191812
0.0184547
0.0177932
0.0171913
0.0166288
)
;
    }
}


// ************************************************************************* //
