/*--------------------------------*- C++ -*----------------------------------*\
| =========                 |                                                 |
| \\      /  F ield         | OpenFOAM: The Open Source CFD Toolbox           |
|  \\    /   O peration     | Version:  2212                                  |
|   \\  /    A nd           | Website:  www.openfoam.com                      |
|    \\/     M anipulation  |                                                 |
\*---------------------------------------------------------------------------*/
FoamFile
{
    version     2.0;
    format      ascii;
    arch        "LSB;label=32;scalar=64";
    class       surfaceScalarField;
    location    "2.45";
    object      phi;
}
// * * * * * * * * * * * * * * * * * * * * * * * * * * * * * * * * * * * * * //

dimensions      [0 3 -1 0 0 0 0];

oriented        oriented;

internalField   nonuniform List<scalar> 
1805
(
7.37961e-07
-9.98669e-09
1.25672e-07
7.47148e-07
-7.22349e-09
1.27354e-07
-5.35327e-09
1.27482e-07
1.13519e-06
-9.83114e-09
1.1204e-07
1.13823e-06
-9.2962e-09
1.13697e-07
-8.52309e-09
1.14068e-07
1.39869e-06
8.95367e-08
1.40361e-06
9.01011e-08
9.0311e-08
7.39143e-07
-9.18012e-09
1.18808e-07
7.55107e-07
-6.56873e-09
1.17959e-07
7.68547e-07
-4.12067e-09
1.18163e-07
7.78452e-07
-1.95154e-09
1.18692e-07
7.8502e-07
-1.45668e-10
1.19038e-07
7.88466e-07
1.53538e-09
1.19111e-07
7.89429e-07
2.84202e-09
1.18967e-07
7.88473e-07
3.86702e-09
1.18709e-07
7.86043e-07
4.65577e-09
1.18427e-07
7.82468e-07
5.29151e-09
1.18158e-07
7.77976e-07
5.83157e-09
1.17836e-07
6.22773e-09
1.17583e-07
1.15804e-06
2.29578e-09
1.02478e-07
1.16123e-06
1.87792e-09
1.0206e-07
1.16664e-06
2.48451e-09
1.0205e-07
1.17268e-06
3.28883e-09
1.02421e-07
1.17853e-06
4.10452e-09
1.02863e-07
1.18388e-06
4.9256e-09
1.03231e-07
1.18841e-06
5.68265e-09
1.03486e-07
1.19209e-06
6.28426e-09
1.03618e-07
1.19504e-06
6.71815e-09
1.03637e-07
1.19737e-06
7.07472e-09
1.03569e-07
1.19921e-06
7.40157e-09
1.03445e-07
7.68635e-09
1.03291e-07
1.42924e-06
8.06868e-08
1.43465e-06
8.04902e-08
1.44092e-06
8.04765e-08
1.44757e-06
8.06425e-08
1.45424e-06
8.09101e-08
1.46075e-06
8.12088e-08
1.46694e-06
8.14989e-08
1.47273e-06
8.17339e-08
1.47808e-06
8.18979e-08
1.48304e-06
8.20007e-08
1.48769e-06
8.20597e-08
8.20861e-08
7.04143e-07
-1.48222e-09
1.02436e-07
7.2056e-07
2.47534e-09
9.90666e-08
7.33813e-07
5.06073e-09
9.98499e-08
7.43481e-07
6.96455e-09
1.0206e-07
7.50038e-07
8.50358e-09
1.03978e-07
7.53855e-07
9.98347e-09
1.0531e-07
7.55456e-07
1.11676e-08
1.062e-07
7.55282e-07
1.21079e-08
1.06775e-07
7.53712e-07
1.28901e-08
1.07107e-07
7.51038e-07
1.35717e-08
1.07261e-07
7.47407e-07
1.41439e-08
1.07323e-07
1.46373e-08
1.07284e-07
1.11879e-06
1.88387e-08
8.31106e-08
1.12347e-06
1.88665e-08
8.09862e-08
1.12962e-06
1.95459e-08
8.14202e-08
1.13584e-06
2.01679e-08
8.29944e-08
1.14165e-06
2.07575e-08
8.47972e-08
1.14692e-06
2.13822e-08
8.65641e-08
1.1515e-06
2.19489e-08
8.8128e-08
1.15541e-06
2.24171e-08
8.93988e-08
1.15869e-06
2.28308e-08
9.04136e-08
1.16142e-06
2.32248e-08
9.11898e-08
1.16365e-06
2.35947e-08
9.1764e-08
2.39384e-08
9.21933e-08
1.3936e-06
3.01759e-08
6.57526e-08
1.39862e-06
2.97945e-08
6.45456e-08
1.40471e-06
2.97785e-08
6.41566e-08
1.41109e-06
2.98108e-08
6.46191e-08
1.41739e-06
2.98338e-08
6.55348e-08
1.42347e-06
2.98647e-08
6.66459e-08
1.42924e-06
2.98944e-08
6.77814e-08
1.43467e-06
2.99163e-08
6.88051e-08
1.43976e-06
2.99365e-08
6.97052e-08
1.44455e-06
2.99674e-08
7.04685e-08
1.44909e-06
3.00116e-08
7.11022e-08
3.00665e-08
7.16266e-08
1.58313e-06
3.43601e-08
4.44071e-08
1.59006e-06
3.42174e-08
4.38367e-08
1.59739e-06
3.41018e-08
4.3514e-08
1.60485e-06
3.40043e-08
4.35627e-08
1.61224e-06
3.38824e-08
4.39046e-08
1.61946e-06
3.37439e-08
4.44156e-08
1.62644e-06
3.35881e-08
4.50236e-08
1.63315e-06
3.34216e-08
4.56708e-08
1.63959e-06
3.32563e-08
4.62957e-08
1.6458e-06
3.31023e-08
4.68711e-08
1.65181e-06
3.29656e-08
4.73842e-08
3.28482e-08
4.78311e-08
1.69479e-06
3.25987e-08
2.02912e-08
1.70367e-06
3.25891e-08
2.02128e-08
1.71238e-06
3.26295e-08
2.0154e-08
1.72096e-06
3.26303e-08
2.01562e-08
1.72939e-06
3.25899e-08
2.024e-08
1.73764e-06
3.25331e-08
2.03834e-08
1.74568e-06
3.24551e-08
2.05838e-08
1.75348e-06
3.23631e-08
2.08281e-08
1.76105e-06
3.22666e-08
2.10988e-08
1.76838e-06
3.21716e-08
2.13704e-08
1.7755e-06
3.2082e-08
2.16283e-08
3.20002e-08
2.18647e-08
1.73422e-06
2.75127e-08
-5.75744e-09
1.7426e-06
2.74625e-08
-5.63107e-09
1.75118e-06
2.73879e-08
-5.65521e-09
1.75985e-06
2.73563e-08
-5.68442e-09
1.76849e-06
2.73725e-08
-5.6935e-09
1.77706e-06
2.7413e-08
-5.68065e-09
1.78548e-06
2.74804e-08
-5.64755e-09
1.79372e-06
2.75664e-08
-5.59282e-09
1.80175e-06
2.76611e-08
-5.51796e-09
1.80955e-06
2.77569e-08
-5.43276e-09
1.81714e-06
2.78483e-08
-5.34757e-09
2.79332e-08
-5.26784e-09
1.69478e-06
2.02914e-08
-3.4357e-08
1.70366e-06
2.0211e-08
-3.42153e-08
1.71237e-06
2.0151e-08
-3.40995e-08
1.72095e-06
2.01518e-08
-3.40011e-08
1.72938e-06
2.02338e-08
-3.3878e-08
1.73763e-06
2.03755e-08
-3.37381e-08
1.74567e-06
2.05742e-08
-3.35812e-08
1.75347e-06
2.08167e-08
-3.34141e-08
1.76103e-06
2.10859e-08
-3.32487e-08
1.76836e-06
2.13564e-08
-3.30948e-08
1.77547e-06
2.1613e-08
-3.29586e-08
2.18504e-08
-3.28417e-08
1.58365e-06
1.39618e-08
-6.28343e-08
1.59087e-06
1.36824e-08
-6.31607e-08
1.59833e-06
1.3439e-08
-6.33055e-08
1.60577e-06
1.33143e-08
-6.31436e-08
1.61301e-06
1.33161e-08
-6.27327e-08
1.61998e-06
1.34007e-08
-6.22134e-08
1.62665e-06
1.35775e-08
-6.16379e-08
1.63299e-06
1.38361e-08
-6.10557e-08
1.63903e-06
1.41411e-08
-6.0513e-08
1.64482e-06
1.44425e-08
-6.00314e-08
1.65042e-06
1.4719e-08
-5.96133e-08
-5.92557e-08
1.39871e-06
9.83723e-09
-8.93839e-08
1.40364e-06
9.29081e-09
-9.06401e-08
1.40931e-06
8.51147e-09
-9.10449e-08
1.41495e-06
7.97515e-09
-9.05202e-08
1.42022e-06
7.63055e-09
-8.94814e-08
1.42507e-06
7.40686e-09
-8.82698e-08
1.42943e-06
7.33467e-09
-8.69669e-08
1.43333e-06
7.43758e-09
-8.57302e-08
1.43684e-06
7.64099e-09
-8.46389e-08
1.44011e-06
7.82128e-09
-8.36991e-08
7.96951e-09
-8.29122e-08
1.13522e-06
9.99235e-09
-1.12212e-07
1.13826e-06
7.22333e-09
-1.14669e-07
1.14203e-06
5.34817e-09
-1.14671e-07
1.14528e-06
4.17357e-09
-1.13152e-07
1.14775e-06
3.31911e-09
-1.11101e-07
1.14936e-06
2.6791e-09
-1.08845e-07
1.15017e-06
2.28057e-09
-1.06602e-07
1.15039e-06
2.08767e-09
-1.04573e-07
1.15024e-06
2.03202e-09
-1.02865e-07
1.14985e-06
2.02722e-09
-1.01483e-07
2.0074e-09
-1.00369e-07
7.37984e-07
-1.2649e-07
7.47184e-07
-1.29303e-07
7.52883e-07
-1.27802e-07
7.54865e-07
-1.24432e-07
7.53794e-07
-1.21058e-07
7.50461e-07
-1.18074e-07
7.45617e-07
-1.15638e-07
7.39823e-07
-1.13721e-07
7.3347e-07
-1.12242e-07
7.26848e-07
-1.11196e-07
-1.10449e-07
6.3433e-07
1.57186e-08
7.01822e-08
6.44432e-07
2.02749e-08
6.86897e-08
6.49076e-07
2.12513e-08
7.39545e-08
6.50338e-07
2.13466e-08
7.94522e-08
6.49559e-07
2.15002e-08
8.32558e-08
6.47556e-07
2.16506e-08
8.56628e-08
6.44735e-07
2.18177e-08
8.72029e-08
6.41345e-07
2.20348e-08
8.81305e-08
6.37541e-07
2.22493e-08
8.86613e-08
6.3339e-07
2.24639e-08
8.89486e-08
6.28909e-07
2.27004e-08
8.91043e-08
2.29026e-08
8.91291e-08
1.02866e-06
4.07838e-08
5.9099e-08
1.03168e-06
4.24117e-08
5.58334e-08
1.03458e-06
4.25098e-08
5.72586e-08
1.03648e-06
4.19243e-08
6.05171e-08
1.03774e-06
4.12815e-08
6.37588e-08
1.03862e-06
4.07158e-08
6.6611e-08
1.03929e-06
4.02854e-08
6.89918e-08
1.03986e-06
4.00104e-08
7.086e-08
1.04035e-06
3.98497e-08
7.23238e-08
1.04076e-06
3.97781e-08
7.34601e-08
1.04112e-06
3.97851e-08
7.43182e-08
3.98325e-08
7.50159e-08
1.28591e-06
5.54651e-08
4.55123e-08
1.29315e-06
5.61923e-08
4.35267e-08
1.29952e-06
5.64399e-08
4.38505e-08
1.30466e-06
5.6074e-08
4.53322e-08
1.30883e-06
5.54243e-08
4.72196e-08
1.31229e-06
5.47221e-08
4.91859e-08
1.31526e-06
5.40573e-08
5.10337e-08
1.31798e-06
5.34597e-08
5.26398e-08
1.32056e-06
5.29752e-08
5.39938e-08
1.32311e-06
5.25889e-08
5.51133e-08
1.32567e-06
5.22939e-08
5.60327e-08
5.20717e-08
5.68014e-08
1.47319e-06
6.28333e-08
3.14794e-08
1.47976e-06
6.31565e-08
3.02987e-08
1.4867e-06
6.33022e-08
2.9716e-08
1.49329e-06
6.31427e-08
2.99057e-08
1.49932e-06
6.27344e-08
3.05676e-08
1.50483e-06
6.22171e-08
3.14069e-08
1.50986e-06
6.16428e-08
3.24031e-08
1.51451e-06
6.10617e-08
3.3419e-08
1.51891e-06
6.05196e-08
3.43595e-08
1.52314e-06
6.00379e-08
3.51909e-08
1.52728e-06
5.96182e-08
3.5914e-08
5.92599e-08
3.65256e-08
1.58366e-06
6.23253e-08
1.39579e-08
1.59088e-06
6.24689e-08
1.368e-08
1.59834e-06
6.25621e-08
1.34363e-08
1.60578e-06
6.25409e-08
1.33128e-08
1.61303e-06
6.24127e-08
1.33165e-08
1.62001e-06
6.22132e-08
1.34034e-08
1.62669e-06
6.19664e-08
1.35821e-08
1.63304e-06
6.16952e-08
1.38422e-08
1.6391e-06
6.14178e-08
1.41486e-08
1.6449e-06
6.11523e-08
1.44513e-08
1.65051e-06
6.0905e-08
1.47325e-08
6.06801e-08
1.49806e-08
1.61892e-06
5.53266e-08
-6.52603e-09
1.62664e-06
5.51846e-08
-6.07086e-09
1.63445e-06
5.51543e-08
-6.0501e-09
1.64231e-06
5.52078e-08
-6.21442e-09
1.65012e-06
5.53295e-08
-6.42171e-09
1.6578e-06
5.54952e-08
-6.63917e-09
1.66527e-06
5.56829e-08
-6.84217e-09
1.6725e-06
5.58731e-08
-6.99601e-09
1.67945e-06
5.60477e-08
-7.09276e-09
1.68612e-06
5.62005e-08
-7.15784e-09
1.69256e-06
5.63301e-08
-7.21213e-09
5.64381e-08
-7.26202e-09
1.58313e-06
4.44017e-08
-3.01701e-08
1.59006e-06
4.38263e-08
-2.97898e-08
1.59739e-06
4.35028e-08
-2.97745e-08
1.60485e-06
4.35517e-08
-2.98068e-08
1.61224e-06
4.38936e-08
-2.98289e-08
1.61945e-06
4.44045e-08
-2.98586e-08
1.62643e-06
4.50122e-08
-2.98871e-08
1.63314e-06
4.56593e-08
-2.99082e-08
1.63958e-06
4.6284e-08
-2.99281e-08
1.64578e-06
4.68591e-08
-2.99589e-08
1.65179e-06
4.73703e-08
-3.00036e-08
4.78178e-08
-3.00596e-08
1.47317e-06
3.14753e-08
-5.54648e-08
1.47975e-06
3.02902e-08
-5.61966e-08
1.48668e-06
2.97091e-08
-5.64406e-08
1.49325e-06
2.98995e-08
-5.60707e-08
1.49927e-06
3.05629e-08
-5.54176e-08
1.50477e-06
3.14028e-08
-5.47133e-08
1.50979e-06
3.23997e-08
-5.40475e-08
1.51443e-06
3.34166e-08
-5.34485e-08
1.51881e-06
3.43572e-08
-5.29635e-08
1.52302e-06
3.51885e-08
-5.25773e-08
1.52716e-06
3.59037e-08
-5.22851e-08
-5.20668e-08
1.2906e-06
1.83114e-08
-8.17161e-08
1.29753e-06
1.59728e-08
-8.32558e-08
1.30334e-06
1.54125e-08
-8.25539e-08
1.30761e-06
1.59497e-08
-8.08386e-08
1.31063e-06
1.69197e-08
-7.8864e-08
1.31269e-06
1.8082e-08
-7.70076e-08
1.31406e-06
1.94168e-08
-7.53558e-08
1.31507e-06
2.06678e-08
-7.39872e-08
1.31598e-06
2.1712e-08
-7.29039e-08
1.31695e-06
2.25641e-08
-7.20424e-08
2.32434e-08
-7.13836e-08
1.04127e-06
7.33793e-09
-1.02579e-07
1.04441e-06
3.22833e-09
-1.05069e-07
1.04544e-06
2.96078e-09
-1.03248e-07
1.04396e-06
3.84881e-09
-9.95725e-08
1.04087e-06
4.79925e-09
-9.58868e-08
1.03687e-06
5.92438e-09
-9.26892e-08
1.03262e-06
7.14811e-09
-9.00791e-08
1.0285e-06
8.28137e-09
-8.8073e-08
1.02475e-06
9.19312e-09
-8.65913e-08
1.02141e-06
9.89733e-09
-8.54772e-08
1.04059e-08
-8.46514e-08
6.89234e-07
-1.1857e-07
6.83383e-07
-1.20223e-07
6.73007e-07
-1.14466e-07
6.60085e-07
-1.07662e-07
6.46436e-07
-1.0261e-07
6.33373e-07
-9.90868e-08
6.21397e-07
-9.65139e-08
6.10642e-07
-9.46845e-08
6.01063e-07
-9.34703e-08
5.92491e-07
-9.27273e-08
-9.23003e-08
5.27827e-07
4.11537e-08
3.38837e-08
5.13209e-07
4.34823e-08
3.9826e-08
4.97543e-07
3.96745e-08
4.99458e-08
4.844e-07
3.62686e-08
5.63265e-08
4.74198e-07
3.38273e-08
5.96314e-08
4.66287e-07
3.21018e-08
6.14714e-08
4.59971e-07
3.09287e-08
6.25905e-08
4.54655e-07
3.02171e-08
6.3229e-08
4.49913e-07
2.98047e-08
6.35992e-08
4.45499e-07
2.9572e-08
6.37913e-08
4.41271e-07
2.94699e-08
6.38625e-08
2.94244e-08
6.3853e-08
8.55115e-07
6.27069e-08
2.64273e-08
8.63348e-07
6.55239e-08
2.55588e-08
8.64056e-07
6.44044e-08
3.18211e-08
8.60399e-07
6.1832e-08
3.86108e-08
8.55364e-07
5.94365e-08
4.31846e-08
8.50269e-07
5.74909e-08
4.63171e-08
8.45652e-07
5.59914e-08
4.85457e-08
8.41713e-07
5.49226e-08
5.00933e-08
8.38437e-07
5.41933e-08
5.12115e-08
8.35715e-07
5.36786e-08
5.20753e-08
8.33404e-07
5.33591e-08
5.27399e-08
5.30985e-08
5.33121e-08
1.11732e-06
8.17116e-08
2.56474e-08
1.12125e-06
8.32461e-08
2.18795e-08
1.12429e-06
8.25481e-08
2.26659e-08
1.12514e-06
8.0835e-08
2.54748e-08
1.1244e-06
7.88659e-08
2.85332e-08
1.12277e-06
7.70167e-08
3.12868e-08
1.12087e-06
7.53704e-08
3.35623e-08
1.11909e-06
7.40048e-08
3.53325e-08
1.11768e-06
7.29221e-08
3.66723e-08
1.11671e-06
7.20617e-08
3.77094e-08
1.11617e-06
7.1396e-08
3.85288e-08
7.08605e-08
3.91929e-08
1.29063e-06
8.93786e-08
1.83098e-08
1.29757e-06
9.06295e-08
1.59678e-08
1.3034e-06
9.10362e-08
1.54008e-08
1.30769e-06
9.05138e-08
1.59383e-08
1.31074e-06
8.94794e-08
1.69048e-08
1.31282e-06
8.82714e-08
1.80677e-08
1.31422e-06
8.69717e-08
1.94042e-08
1.31525e-06
8.57377e-08
2.06545e-08
1.31619e-06
8.46477e-08
2.16995e-08
1.31718e-06
8.37086e-08
2.255e-08
1.31833e-06
8.29154e-08
2.32468e-08
8.22466e-08
2.37927e-08
1.39871e-06
8.95351e-08
9.82691e-09
1.40365e-06
9.00978e-08
9.27839e-09
1.40932e-06
9.03049e-08
8.49584e-09
1.41497e-06
9.0212e-08
7.95975e-09
1.42026e-06
8.98932e-08
7.61728e-09
1.42512e-06
8.94197e-08
7.39613e-09
1.4295e-06
8.8846e-08
7.32529e-09
1.43342e-06
8.8228e-08
7.42923e-09
1.43697e-06
8.76181e-08
7.63383e-09
1.44026e-06
8.70509e-08
7.8146e-09
1.4434e-06
8.65327e-08
7.97283e-09
8.60751e-08
8.07993e-09
1.42925e-06
8.06839e-08
-2.29193e-09
1.43467e-06
8.0484e-08
-1.87774e-09
1.44095e-06
8.04677e-08
-2.48751e-09
1.44761e-06
8.06314e-08
-3.29344e-09
1.45429e-06
8.08961e-08
-4.10593e-09
1.4608e-06
8.11933e-08
-4.92338e-09
1.467e-06
8.14838e-08
-5.68139e-09
1.4728e-06
8.17196e-08
-6.2844e-09
1.47816e-06
8.1884e-08
-6.71575e-09
1.48313e-06
8.19874e-08
-7.06894e-09
1.4878e-06
8.20472e-08
-7.39316e-09
8.2075e-08
-7.67792e-09
1.3936e-06
6.57456e-08
-1.88289e-08
1.39862e-06
6.45316e-08
-1.88561e-08
1.40471e-06
6.41423e-08
-1.9538e-08
1.41109e-06
6.46057e-08
-2.01628e-08
1.41739e-06
6.55227e-08
-2.07541e-08
1.42347e-06
6.66359e-08
-2.13802e-08
1.42924e-06
6.77728e-08
-2.19471e-08
1.43467e-06
6.87971e-08
-2.24156e-08
1.43976e-06
6.96976e-08
-2.28291e-08
1.44455e-06
7.04605e-08
-2.32223e-08
1.44909e-06
7.10913e-08
-2.3591e-08
7.16136e-08
-2.39354e-08
1.28589e-06
4.55017e-08
-4.07743e-08
1.29312e-06
4.35108e-08
-4.24022e-08
1.29948e-06
4.3839e-08
-4.24993e-08
1.30461e-06
4.53225e-08
-4.19134e-08
1.30877e-06
4.72138e-08
-4.12703e-08
1.31221e-06
4.91866e-08
-4.07053e-08
1.31518e-06
5.1039e-08
-4.02788e-08
1.31788e-06
5.26468e-08
-4.00046e-08
1.32046e-06
5.40013e-08
-3.98441e-08
1.323e-06
5.51192e-08
-3.9773e-08
1.32555e-06
5.6031e-08
-3.97798e-08
-3.98339e-08
1.11729e-06
2.56432e-08
-6.26975e-08
1.12118e-06
2.18739e-08
-6.55105e-08
1.12418e-06
2.26658e-08
-6.43875e-08
1.12501e-06
2.54734e-08
-6.18135e-08
1.12424e-06
2.85387e-08
-5.94165e-08
1.12258e-06
3.13034e-08
-5.74723e-08
1.12066e-06
3.35855e-08
-5.59766e-08
1.11887e-06
3.53571e-08
-5.4911e-08
1.11745e-06
3.66956e-08
-5.41809e-08
1.11647e-06
3.77368e-08
-5.36721e-08
3.85425e-08
-5.33393e-08
8.63241e-07
-1.45753e-10
-8.80698e-08
8.7033e-07
-2.35106e-09
-8.79332e-08
8.68662e-07
1.99156e-09
-8.09062e-08
8.61734e-07
6.68199e-09
-7.38524e-08
8.53059e-07
1.06005e-08
-6.92737e-08
8.4439e-07
1.36284e-08
-6.63451e-08
8.36465e-07
1.58756e-08
-6.44444e-08
8.29548e-07
1.75038e-08
-6.33021e-08
8.23678e-07
1.8579e-08
-6.26056e-08
8.18726e-07
1.92908e-08
-6.20786e-08
1.97726e-08
-6.17074e-08
5.6288e-07
-9.93186e-08
5.34192e-07
-9.38858e-08
5.05546e-07
-8.38279e-08
4.808e-07
-7.62337e-08
4.60789e-07
-7.19981e-08
4.45109e-07
-6.97781e-08
4.32997e-07
-6.85269e-08
4.23517e-07
-6.77004e-08
4.15816e-07
-6.71901e-08
4.09279e-07
-6.68999e-08
-6.67464e-08
3.38242e-07
6.18519e-08
1.00754e-08
3.00398e-07
5.68015e-08
2.08689e-08
2.75869e-07
4.64578e-08
2.80162e-08
2.61563e-07
3.97639e-08
3.08695e-08
2.52618e-07
3.64683e-08
3.21079e-08
2.46416e-07
3.48078e-08
3.28658e-08
2.41749e-07
3.38781e-08
3.33792e-08
2.37903e-07
3.34008e-08
3.3674e-08
2.34523e-07
3.31428e-08
3.38368e-08
2.31449e-07
3.29458e-08
3.39194e-08
2.28571e-07
3.27971e-08
3.39433e-08
3.26549e-08
3.3937e-08
6.31955e-07
8.80784e-08
-4.0646e-09
6.25475e-07
8.79546e-08
8.85571e-10
6.11804e-07
8.0921e-08
1.10287e-08
5.97393e-07
7.38489e-08
1.8937e-08
5.84498e-07
6.92733e-08
2.32755e-08
5.73811e-07
6.63492e-08
2.54619e-08
5.65162e-07
6.44514e-08
2.66216e-08
5.58031e-07
6.33098e-08
2.73156e-08
5.51978e-07
6.26114e-08
2.77961e-08
5.4673e-07
6.20953e-08
2.81736e-08
5.42073e-07
6.17149e-08
2.84791e-08
6.14139e-08
2.87471e-08
8.6324e-07
1.02583e-07
-1.51928e-10
8.70375e-07
1.05073e-07
-2.37447e-09
8.68762e-07
1.03251e-07
1.94908e-09
8.61886e-07
9.95685e-08
6.63109e-09
8.5325e-07
9.58867e-08
1.0556e-08
8.44592e-07
9.26952e-08
1.35994e-08
8.36659e-07
9.0088e-08
1.58581e-08
8.29725e-07
8.8083e-08
1.74942e-08
8.23836e-07
8.66002e-08
1.85722e-08
8.18868e-07
8.54907e-08
1.9282e-08
8.14691e-07
8.46525e-08
1.97675e-08
8.40118e-08
2.00869e-08
1.04128e-06
1.12216e-07
7.32418e-09
1.04445e-06
1.14673e-07
3.20043e-09
1.04551e-06
1.14675e-07
2.92061e-09
1.04406e-06
1.13153e-07
3.80513e-09
1.04099e-06
1.11103e-07
4.75486e-09
1.03702e-06
1.08849e-07
5.88705e-09
1.03279e-06
1.06606e-07
7.11913e-09
1.02869e-06
1.04579e-07
8.25903e-09
1.02494e-06
1.0287e-07
9.17588e-09
1.02161e-06
1.01488e-07
9.88146e-09
1.01875e-06
1.00365e-07
1.03984e-08
9.94864e-08
1.07552e-08
1.13521e-06
1.12043e-07
9.98486e-09
1.13825e-06
1.13703e-07
7.2089e-09
1.14202e-06
1.14074e-07
5.32748e-09
1.14529e-06
1.13701e-07
4.14597e-09
1.14776e-06
1.12957e-07
3.28713e-09
1.14939e-06
1.11967e-07
2.64579e-09
1.15023e-06
1.10849e-07
2.24758e-09
1.15047e-06
1.09707e-07
2.05736e-09
1.15034e-06
1.0863e-07
2.00372e-09
1.14997e-06
1.07677e-07
2.0004e-09
1.14948e-06
1.06838e-07
1.98594e-09
1.06138e-07
1.98689e-09
1.15806e-06
1.0248e-07
9.1847e-09
1.16125e-06
1.02063e-07
6.57131e-09
1.16666e-06
1.02054e-07
4.11872e-09
1.1727e-06
1.02424e-07
1.94306e-09
1.17856e-06
1.02864e-07
1.3232e-10
1.18392e-06
1.03231e-07
-1.55196e-09
1.18847e-06
1.03484e-07
-2.8603e-09
1.19216e-06
1.03614e-07
-3.88597e-09
1.19512e-06
1.03631e-07
-4.67161e-09
1.19747e-06
1.0356e-07
-5.30369e-09
1.19932e-06
1.03434e-07
-5.83825e-09
1.03278e-07
-6.22908e-09
1.1188e-06
8.31147e-08
1.48902e-09
1.12348e-06
8.09936e-08
-2.46798e-09
1.12962e-06
8.14267e-08
-5.05436e-09
1.13584e-06
8.29986e-08
-6.96034e-09
1.14166e-06
8.48e-08
-8.50207e-09
1.14693e-06
8.65665e-08
-9.98558e-09
1.15151e-06
8.81269e-08
-1.11717e-08
1.15542e-06
8.9396e-08
-1.21133e-08
1.15871e-06
9.04095e-08
-1.2896e-08
1.16144e-06
9.11828e-08
-1.35771e-08
1.16368e-06
9.17568e-08
-1.41478e-08
9.2179e-08
-1.46393e-08
1.02867e-06
5.91051e-08
-1.57114e-08
1.03168e-06
5.58453e-08
-2.02655e-08
1.03458e-06
5.72693e-08
-2.12386e-08
1.03647e-06
6.05274e-08
-2.1333e-08
1.03771e-06
6.37716e-08
-2.14898e-08
1.0386e-06
6.66237e-08
-2.16436e-08
1.03926e-06
6.89993e-08
-2.18163e-08
1.03982e-06
7.08638e-08
-2.20354e-08
1.04031e-06
7.23272e-08
-2.22498e-08
1.04073e-06
7.3455e-08
-2.24607e-08
1.04108e-06
7.43244e-08
-2.26977e-08
-2.28928e-08
8.55129e-07
2.64391e-08
-4.11492e-08
8.63351e-07
2.55839e-08
-4.34713e-08
8.6404e-07
3.18404e-08
-3.96476e-08
8.60365e-07
3.8619e-08
-3.62297e-08
8.55313e-07
4.31987e-08
-3.37915e-08
8.5021e-07
4.63322e-08
-3.2078e-08
8.45589e-07
4.85619e-08
-3.09184e-08
8.41649e-07
5.01064e-08
-3.02139e-08
8.38375e-07
5.12224e-08
-2.98012e-08
8.35642e-07
5.20866e-08
-2.95707e-08
5.27587e-08
-2.94594e-08
6.31989e-07
-4.06012e-09
-6.18496e-08
6.25538e-07
8.94997e-10
-5.67924e-08
6.11879e-07
1.10391e-08
-4.64459e-08
5.97464e-07
1.89398e-08
-3.97583e-08
5.84572e-07
2.32798e-08
-3.64625e-08
5.73897e-07
2.54648e-08
-3.48034e-08
5.65265e-07
2.66264e-08
-3.38762e-08
5.58148e-07
2.73211e-08
-3.34002e-08
5.52107e-07
2.78011e-08
-3.31428e-08
5.46878e-07
2.81805e-08
-3.29435e-08
2.84875e-08
-3.27927e-08
3.54423e-07
-6.08417e-08
3.10335e-07
-4.89031e-08
2.78853e-07
-4.13062e-08
2.59273e-07
-3.77143e-08
2.46827e-07
-3.62721e-08
2.38275e-07
-3.57615e-08
2.31954e-07
-3.55793e-08
2.27012e-07
-3.54376e-08
2.22937e-07
-3.53137e-08
2.19422e-07
-3.5204e-08
-3.51089e-08
1.35596e-07
6.08437e-08
1.07559e-07
4.89067e-08
9.42666e-08
4.13084e-08
8.74217e-08
3.77144e-08
8.32585e-08
3.62711e-08
8.03662e-08
3.57581e-08
7.81696e-08
3.55758e-08
7.64097e-08
3.5434e-08
7.49368e-08
3.53097e-08
7.3656e-08
3.52002e-08
7.24944e-08
3.51049e-08
3.5019e-08
3.54395e-07
9.93239e-08
3.10286e-07
9.39013e-08
2.78763e-07
8.38607e-08
2.59137e-07
7.6277e-08
2.46651e-07
7.20328e-08
2.38077e-07
6.97939e-08
2.31745e-07
6.85292e-08
2.26801e-07
6.76942e-08
2.22726e-07
6.71803e-08
2.19211e-07
6.68887e-08
2.1606e-07
6.67354e-08
6.67029e-08
5.62817e-07
1.18595e-07
5.34072e-07
1.20272e-07
5.05354e-07
1.14528e-07
4.80537e-07
1.07725e-07
4.60464e-07
1.02662e-07
4.44743e-07
9.91138e-08
4.3261e-07
9.65204e-08
4.23122e-07
9.46762e-08
4.1542e-07
9.34541e-08
4.08882e-07
9.27087e-08
4.03102e-07
9.22836e-08
9.20926e-08
6.89177e-07
1.2652e-07
6.83301e-07
1.29348e-07
6.72895e-07
1.27855e-07
6.5994e-07
1.24486e-07
6.46251e-07
1.21105e-07
6.33141e-07
1.18111e-07
6.21118e-07
1.15663e-07
6.10319e-07
1.13734e-07
6.00705e-07
1.12245e-07
5.92102e-07
1.11193e-07
5.84337e-07
1.10447e-07
1.09976e-07
7.37992e-07
1.25673e-07
7.47196e-07
1.27353e-07
7.52892e-07
1.27487e-07
7.54862e-07
1.26661e-07
7.53771e-07
1.25484e-07
7.50408e-07
1.24119e-07
7.45527e-07
1.22792e-07
7.3969e-07
1.21629e-07
7.33291e-07
1.20647e-07
7.26626e-07
1.19858e-07
7.19909e-07
1.19149e-07
1.18678e-07
7.3917e-07
1.18808e-07
7.55138e-07
1.17957e-07
7.68582e-07
1.18162e-07
7.78491e-07
1.18695e-07
7.85059e-07
1.19048e-07
7.885e-07
1.19126e-07
7.89449e-07
1.18982e-07
7.88473e-07
1.18719e-07
7.86017e-07
1.18431e-07
7.82415e-07
1.18157e-07
7.77897e-07
1.17829e-07
1.17575e-07
7.04159e-07
1.02443e-07
7.20572e-07
9.90755e-08
7.33819e-07
9.98602e-08
7.43483e-07
1.02071e-07
7.50039e-07
1.03989e-07
7.53861e-07
1.05319e-07
7.55464e-07
1.06207e-07
7.55291e-07
1.06779e-07
7.53718e-07
1.07108e-07
7.51037e-07
1.07261e-07
7.47396e-07
1.07322e-07
1.07284e-07
6.34357e-07
7.01921e-08
6.44462e-07
6.8705e-08
6.49109e-07
7.39753e-08
6.50372e-07
7.94755e-08
6.49595e-07
8.32764e-08
6.47597e-07
8.56733e-08
6.44783e-07
8.7205e-08
6.41399e-07
8.81279e-08
6.37601e-07
8.8657e-08
6.33451e-07
8.89501e-08
6.28974e-07
8.91017e-08
5.27861e-07
3.38905e-08
5.13256e-07
3.98388e-08
4.97605e-07
4.99788e-08
4.84475e-07
5.63758e-08
4.74283e-07
5.96764e-08
4.6638e-07
6.14984e-08
4.60068e-07
6.25992e-08
4.54754e-07
6.32279e-08
4.50013e-07
6.35963e-08
4.45607e-07
6.37863e-08
6.3863e-08
3.3827e-07
1.00773e-08
3.00443e-07
2.08731e-08
2.75951e-07
2.8025e-08
2.61686e-07
3.08826e-08
2.52776e-07
3.21232e-08
2.46593e-07
3.28787e-08
2.41929e-07
3.33873e-08
2.38078e-07
3.36781e-08
2.34692e-07
3.38397e-08
2.31614e-07
3.39215e-08
3.39458e-08
1.35607e-07
1.07577e-07
9.42959e-08
8.74643e-08
8.33154e-08
8.04326e-08
7.82405e-08
7.64811e-08
7.5007e-08
7.37247e-08
)
;

boundaryField
{
    inlet
    {
        type            calculated;
        value           nonuniform List<scalar> 0();
    }
    ami1
    {
        type            cyclicAMI;
        value           nonuniform List<scalar> 0();
    }
    walls
    {
        type            calculated;
        value           nonuniform List<scalar> 
259
(
-6.40674e-15
-1.28555e-14
-1.84387e-14
-2.43942e-14
-2.90979e-14
-6.40674e-15
-1.28555e-14
-1.84387e-14
-2.43942e-14
-2.90979e-14
-6.40674e-15
-1.28555e-14
-1.84387e-14
-2.43942e-14
-2.90979e-14
-6.40674e-15
-1.28555e-14
-1.84387e-14
-2.43942e-14
-2.90979e-14
-6.40674e-15
-1.28555e-14
-1.84387e-14
-2.43942e-14
-2.90979e-14
-6.40674e-15
-1.28555e-14
-1.84387e-14
-2.43942e-14
-2.90979e-14
-6.40674e-15
-1.28555e-14
-1.84387e-14
-2.43942e-14
-2.90979e-14
-6.40674e-15
-1.28555e-14
-1.84387e-14
-2.43942e-14
-2.90979e-14
-6.40674e-15
-1.28555e-14
-1.84387e-14
-2.43942e-14
-2.90979e-14
-6.40674e-15
-1.28555e-14
-1.84387e-14
-2.43942e-14
-2.90979e-14
-6.40674e-15
-1.28555e-14
-1.84387e-14
-2.43942e-14
-2.90979e-14
-2.90979e-14
-2.43942e-14
-1.84387e-14
-1.28555e-14
-6.40674e-15
-1.2325e-21
6.40674e-15
1.28555e-14
1.84387e-14
2.43942e-14
2.90979e-14
-2.90979e-14
-2.43942e-14
-1.84387e-14
-1.28555e-14
-6.40674e-15
-1.22319e-21
6.40674e-15
1.28555e-14
1.84387e-14
2.43942e-14
2.90979e-14
-2.90979e-14
-2.43942e-14
-1.84387e-14
-1.28555e-14
-6.40674e-15
-1.23224e-21
6.40674e-15
1.28555e-14
1.84387e-14
2.43942e-14
2.90979e-14
-2.90979e-14
-2.43942e-14
-1.84387e-14
-1.28555e-14
-6.40674e-15
-1.3359e-21
6.40674e-15
1.28555e-14
1.84387e-14
2.43942e-14
2.90979e-14
-2.90979e-14
-2.43942e-14
-1.84387e-14
-1.28555e-14
-6.40674e-15
-1.23208e-21
6.40674e-15
1.28555e-14
1.84387e-14
2.43942e-14
2.90979e-14
-2.90979e-14
-2.43942e-14
-1.84387e-14
-1.28555e-14
-6.40674e-15
-1.22182e-21
6.40674e-15
1.28555e-14
1.84387e-14
2.43942e-14
2.90979e-14
-2.90979e-14
-2.43942e-14
-1.84387e-14
-1.28555e-14
-6.40674e-15
-1.23208e-21
6.40674e-15
1.28555e-14
1.84387e-14
2.43942e-14
2.90979e-14
-2.90979e-14
-2.43942e-14
-1.84387e-14
-1.28555e-14
-6.40674e-15
-1.23345e-21
6.40674e-15
1.28555e-14
1.84387e-14
2.43942e-14
2.90979e-14
-2.90979e-14
-2.43942e-14
-1.84387e-14
-1.28555e-14
-6.40674e-15
-1.23345e-21
6.40674e-15
1.28555e-14
1.84387e-14
2.43942e-14
2.90979e-14
-2.90979e-14
-2.43942e-14
-1.84387e-14
-1.28555e-14
-6.40674e-15
-1.13574e-21
6.40674e-15
1.28555e-14
1.84387e-14
2.43942e-14
2.90979e-14
-2.90979e-14
-2.43942e-14
-1.84387e-14
-1.28555e-14
-6.40674e-15
-1.23526e-21
6.40674e-15
1.28555e-14
1.84387e-14
2.43942e-14
2.90979e-14
-2.90979e-14
-2.43942e-14
-1.84387e-14
-1.28555e-14
-6.40674e-15
-1.23526e-21
6.40674e-15
1.28555e-14
-6.40674e-15
-1.2325e-21
6.40674e-15
1.28555e-14
1.84387e-14
2.43942e-14
2.90979e-14
-6.40674e-15
-1.22319e-21
6.40674e-15
1.28555e-14
1.84387e-14
2.43942e-14
2.90979e-14
-6.40674e-15
-1.23224e-21
6.40674e-15
1.28555e-14
1.84387e-14
2.43942e-14
2.90979e-14
-1.3359e-21
6.40674e-15
1.28555e-14
1.84387e-14
2.43942e-14
2.90979e-14
-1.23208e-21
6.40674e-15
1.28555e-14
1.84387e-14
2.43942e-14
2.90979e-14
-1.22182e-21
6.40674e-15
1.28555e-14
1.84387e-14
2.43942e-14
2.90979e-14
-1.23208e-21
6.40674e-15
1.28555e-14
1.84387e-14
2.43942e-14
2.90979e-14
-1.23345e-21
6.40674e-15
1.28555e-14
1.84387e-14
2.43942e-14
2.90979e-14
-1.23345e-21
6.40674e-15
1.28555e-14
1.84387e-14
2.43942e-14
2.90979e-14
-1.13574e-21
6.40674e-15
1.28555e-14
1.84387e-14
2.43942e-14
2.90979e-14
-1.23526e-21
6.40674e-15
1.28555e-14
1.84387e-14
2.43942e-14
2.90979e-14
-1.23526e-21
6.40674e-15
1.28555e-14
1.84387e-14
2.43942e-14
2.90979e-14
)
;
    }
    ami2
    {
        type            cyclicAMI;
        value           nonuniform List<scalar> 
61
(
-7.27142e-07
-1.13518e-06
-1.39472e-06
-7.231e-07
-1.15996e-06
-1.42463e-06
-6.86289e-07
-1.11974e-06
-1.39001e-06
-1.57639e-06
-1.6858e-06
-1.72581e-06
-1.6858e-06
-1.57681e-06
-1.39474e-06
-1.1352e-06
-7.27158e-07
-6.17794e-07
-1.02971e-06
-1.28035e-06
-1.46763e-06
-1.57682e-06
-1.61115e-06
-1.57639e-06
-1.46762e-06
-1.2851e-06
-1.03993e-06
-6.89817e-07
-5.32682e-07
-8.43996e-07
-1.11646e-06
-1.28512e-06
-1.39474e-06
-1.42464e-06
-1.39001e-06
-1.28034e-06
-1.11645e-06
-8.51961e-07
-5.82277e-07
-3.76285e-07
-6.27689e-07
-8.51945e-07
-1.03993e-06
-1.1352e-06
-1.15997e-06
-1.11975e-06
-1.02972e-06
-8.44011e-07
-6.2771e-07
-3.9696e-07
-1.86365e-07
-3.9694e-07
-5.8224e-07
-6.89778e-07
-7.2716e-07
-7.23119e-07
-6.86305e-07
-6.17818e-07
-5.32708e-07
-3.76306e-07
-1.86372e-07
)
;
    }
    outlet
    {
        type            calculated;
        value           nonuniform List<scalar> 0();
    }
    procBoundary1to0
    {
        type            processor;
        value           nonuniform List<scalar> 
138
(
7.52824e-07
-1.26646e-07
-1.25459e-07
-1.24093e-07
-1.22772e-07
-1.21621e-07
-1.20653e-07
-1.19876e-07
-1.19175e-07
-1.18704e-07
1.142e-06
-1.13698e-07
-1.12961e-07
-1.11974e-07
-1.10857e-07
-1.09717e-07
-1.08642e-07
-1.07691e-07
-1.06852e-07
-1.06151e-07
-1.39545e-08
-1.36776e-08
1.40926e-06
-1.34364e-08
-9.02229e-08
-8.99098e-08
-8.94377e-08
-8.88624e-08
-8.82422e-08
-8.76299e-08
-8.70596e-08
-8.65377e-08
-8.60769e-08
6.53107e-09
6.07592e-09
6.05419e-09
6.21889e-09
6.42873e-09
6.64862e-09
6.85247e-09
7.00672e-09
7.10432e-09
7.16982e-09
7.22352e-09
7.27132e-09
-5.533e-08
-5.51913e-08
-5.51635e-08
-5.52185e-08
-5.53416e-08
-5.55084e-08
-5.56967e-08
-5.5887e-08
-5.60617e-08
-5.62143e-08
-5.63435e-08
-5.645e-08
-2.7513e-08
-2.74644e-08
-2.73914e-08
-2.73615e-08
-2.73797e-08
-2.74215e-08
-2.74902e-08
-2.75776e-08
-2.76733e-08
-2.77698e-08
-2.78617e-08
-2.79461e-08
2.43394e-09
2.37139e-09
2.32329e-09
2.28985e-09
2.26491e-09
2.23558e-09
2.19629e-09
2.14965e-09
2.09807e-09
2.04458e-09
1.99226e-09
1.94289e-09
3.25956e-08
3.25864e-08
3.26267e-08
3.26271e-08
3.25865e-08
3.25292e-08
3.2451e-08
3.23594e-08
3.22633e-08
3.21686e-08
3.20793e-08
3.1997e-08
6.23243e-08
6.24697e-08
6.25628e-08
6.25408e-08
6.24121e-08
6.22126e-08
6.19664e-08
6.16959e-08
6.14191e-08
6.11541e-08
6.09073e-08
6.06811e-08
8.95349e-08
9.01015e-08
9.03086e-08
9.02145e-08
8.98947e-08
8.94209e-08
8.88476e-08
8.82303e-08
8.76208e-08
8.7054e-08
8.65376e-08
1.12036e-07
1.13696e-07
1.14068e-07
1.13695e-07
1.12951e-07
1.1196e-07
1.10842e-07
1.09701e-07
1.08625e-07
1.07673e-07
1.06839e-07
1.25657e-07
1.27326e-07
1.27452e-07
1.26624e-07
1.25448e-07
1.24086e-07
1.22762e-07
1.21603e-07
1.20627e-07
1.19845e-07
1.1914e-07
)
;
    }
    procBoundary1to2
    {
        type            processor;
        value           nonuniform List<scalar> 9(-1.26504e-07 -1.29317e-07 -1.27804e-07 -1.12208e-07 -1.14665e-07 -1.14665e-07 -8.93798e-08 -9.06382e-08 -9.10535e-08);
    }
    procBoundary1to8
    {
        type            processor;
        value           nonuniform List<scalar> 
33
(
7.72869e-07
1.20061e-06
1.4921e-06
7.43069e-07
1.16544e-06
1.45342e-06
1.65764e-06
1.78242e-06
1.82453e-06
6.24161e-07
1.04137e-06
1.32826e-06
1.5314e-06
1.65597e-06
1.6988e-06
4.37122e-07
8.31434e-07
1.11602e-06
1.31968e-06
1.44648e-06
1.49221e-06
2.25833e-07
5.37879e-07
8.11199e-07
1.01631e-06
1.14892e-06
1.20073e-06
7.14125e-08
2.13123e-07
3.97799e-07
5.77209e-07
7.13194e-07
7.72772e-07
)
;
    }
    procBoundary1to9
    {
        type            processor;