/*--------------------------------*- C++ -*----------------------------------*\
| =========                 |                                                 |
| \\      /  F ield         | OpenFOAM: The Open Source CFD Toolbox           |
|  \\    /   O peration     | Version:  2212                                  |
|   \\  /    A nd           | Website:  www.openfoam.com                      |
|    \\/     M anipulation  |                                                 |
\*---------------------------------------------------------------------------*/
FoamFile
{
    version     2.0;
    format      ascii;
    arch        "LSB;label=32;scalar=64";
    class       volScalarField;
    location    "1.25";
    object      k;
}
// * * * * * * * * * * * * * * * * * * * * * * * * * * * * * * * * * * * * * //

dimensions      [0 2 -2 0 0 0 0];

internalField   nonuniform List<scalar> 
678
(
0.00174952
0.00172927
0.00171668
0.00170297
0.00169191
0.00167632
0.00149876
0.00148515
0.00147104
0.00145886
0.00144817
0.00143664
0.00147262
0.00145531
0.00144054
0.00142677
0.00141437
0.00140302
0.00140149
0.00138684
0.00137263
0.00135984
0.00134832
0.00137376
0.00135653
0.0013415
0.00132776
0.0013157
0.0013259
0.00131131
0.00129773
0.00128531
0.00130038
0.00128406
0.0012692
0.00125569
0.0012826
0.00126579
0.00125063
0.00123686
0.00129261
0.00127796
0.00126436
0.00125191
0.00137966
0.00136561
0.00135163
0.00134036
0.001328
0.00173404
0.00171702
0.00170328
0.00169142
0.00167455
0.00138012
0.00136506
0.00135224
0.00134148
0.00132974
0.000791836
0.000763122
0.000742161
0.000725653
0.000712273
0.000702202
0.000913684
0.000876828
0.000841713
0.000810359
0.000784135
0.001035
0.000995781
0.000955339
0.000922149
0.000881906
0.00109123
0.00104818
0.00100699
0.000963833
0.000923951
0.00110275
0.00105625
0.00101297
0.000972325
0.000922948
0.00105214
0.00100417
0.000959606
0.000917464
0.000866748
0.000885469
0.000841715
0.000802458
0.000757669
0.000766913
0.000731897
0.000702499
0.000679776
0.00074809
0.000723992
0.000709095
0.00069936
0.00148644
0.00147354
0.00145978
0.00144797
0.00143524
0.00129441
0.00127909
0.00126561
0.00125349
0.000796236
0.000760289
0.000731137
0.000707072
0.000685726
0.000999174
0.000953303
0.000906532
0.000867677
0.000820054
0.00117009
0.00111927
0.00106791
0.0010228
0.000965305
0.00127305
0.00121917
0.00116536
0.00111563
0.00105273
0.00131233
0.0012565
0.00120093
0.0011492
0.00108433
0.00127747
0.00122097
0.001166
0.0011149
0.00105122
0.00116078
0.00110735
0.00105381
0.00100597
0.000945374
0.000999474
0.00095291
0.000908897
0.000867996
0.000818771
0.000880843
0.000844128
0.000808299
0.000780354
0.00145788
0.00144196
0.00142728
0.0014139
0.00140165
0.00128397
0.00126665
0.00125131
0.00123763
0.000885908
0.000840018
0.000803664
0.000760602
0.00115983
0.00110652
0.00105265
0.00100345
0.000942858
0.0013651
0.00130603
0.00124775
0.00119386
0.00112865
0.00149209
0.0014299
0.00136907
0.00131183
0.00124397
0.00153821
0.00147476
0.00141275
0.00135398
0.00128543
0.00156128
0.00149638
0.00143303
0.0013732
0.00131607
0.00124916
0.00136646
0.00130742
0.00124965
0.0011957
0.00113094
0.00116995
0.00111802
0.00106873
0.00102208
0.000965719
0.00103465
0.000992741
0.00095679
0.000921465
0.000881508
0.00140205
0.00138706
0.00137234
0.00135895
0.00134684
0.00131536
0.00129875
0.00128296
0.00126834
0.00125495
0.00105196
0.0010047
0.000958561
0.000915223
0.000865415
0.00133488
0.0012768
0.00121928
0.00116456
0.00111189
0.00104984
0.00156144
0.00149622
0.00143235
0.00137233
0.00131497
0.0012484
0.00170475
0.00163553
0.00156793
0.00150436
0.00144331
0.00137371
0.00175444
0.00168385
0.00161501
0.00155021
0.00148776
0.0014172
0.00170428
0.00163509
0.00156755
0.00150405
0.0014429
0.00137353
0.00155637
0.00149144
0.00142804
0.00136844
0.00131099
0.00124505
0.0013293
0.0012724
0.00121693
0.00116447
0.0011131
0.00105409
0.00113414
0.00108927
0.0010448
0.00100668
0.00096364
0.000924868
0.00137461
0.00135678
0.00134069
0.00132627
0.00131367
0.00133956
0.00132419
0.00130989
0.00129643
0.00128406
0.0011023
0.0010565
0.0010097
0.000969725
0.000921295
0.00143005
0.00136919
0.00130968
0.00125267
0.00119809
0.00114599
0.00108404
0.00167101
0.00160149
0.00153437
0.00147056
0.00141047
0.00135258
0.00128576
0.00182772
0.00175337
0.001682
0.00161404
0.00154993
0.00148805
0.00141783
0.00180777
0.00173521
0.0016647
0.00159849
0.00153484
0.00146311
0.00175438
0.00168348
0.00161445
0.00154954
0.00148713
0.00141651
0.00160298
0.00153633
0.00147149
0.00141062
0.00135205
0.00128492
0.00137043
0.00131134
0.00125406
0.00119944
0.00114639
0.00108468
0.00114833
0.00109981
0.00105265
0.00101148
0.000970878
0.000923033
0.00135382
0.0013379
0.00132169
0.00130685
0.00129352
0.00128135
0.00138935
0.00137162
0.00135527
0.0013403
0.00132657
0.00131431
0.0011346
0.00108998
0.00104477
0.0010055
0.000961873
0.000923679
0.0013289
0.00127167
0.00121502
0.00116223
0.0011114
0.00105209
0.00155618
0.00149041
0.0014264
0.00136658
0.00130952
0.00124365
0.00170528
0.00163573
0.00156785
0.00150416
0.00144308
0.00137376
0.00175453
0.0016837
0.00161461
0.00154967
0.0014873
0.00141678
0.00170415
0.00163458
0.0015668
0.0015031
0.00144196
0.00137242
0.00156041
0.00149457
0.00143059
0.00137061
0.00131317
0.00124683
0.00133475
0.00127581
0.00121851
0.00116388
0.00111134
0.00104971
0.00109695
0.00104854
0.000999638
0.000957098
0.000915771
0.000866516
0.00132802
0.00131068
0.00129386
0.00127806
0.00126363
0.00125074
0.00141657
0.00140091
0.00138555
0.00137146
0.0013587
0.00134693
0.00107506
0.00103353
0.000990945
0.000956299
0.000922063
0.000881826
0.00122208
0.00116811
0.00111469
0.00106621
0.00101942
0.000965101
0.00142531
0.00136306
0.00130221
0.00124532
0.0011914
0.00112891
0.00156127
0.00149565
0.00143149
0.00137139
0.00131383
0.00124798
0.0016032
0.00153679
0.00147183
0.00141086
0.00135231
0.00128542
0.00155583
0.00149051
0.00142679
0.00136701
0.00130975
0.0012437
0.00142468
0.00136267
0.00130214
0.00124548
0.00119167
0.00112864
0.00121288
0.00115693
0.00110107
0.00105031
0.00100145
0.000943481
0.000970362
0.000923088
0.000874206
0.000836391
0.000800929
0.000759447
0.00131232
0.00129317
0.00127526
0.00125909
0.00124475
0.00123204
0.00147097
0.00145461
0.00143966
0.00142599
0.00141362
0.00140203
0.000948802
0.000908928
0.000873037
0.000841489
0.000812455
0.00078389
0.00104434
0.000995669
0.000946418
0.000904919
0.000865592
0.000819726
0.00121444
0.00115775
0.00110145
0.00105021
0.00100134
0.000944231
0.00133555
0.001277
0.00121905
0.00116419
0.0011113
0.00105035
0.00137117
0.00131227
0.00125455
0.00119925
0.00114657
0.00108475
0.00132917
0.00127208
0.00121615
0.00116313
0.00111192
0.00105249
0.00122076
0.00116748
0.00111446
0.00106618
0.00101943
0.00096454
0.00104213
0.000993807
0.00094593
0.000904353
0.000864577
0.000817885
0.000821748
0.000784185
0.000752666
0.000726263
0.000702365
0.000680479
0.00131911
0.0013021
0.00128625
0.0012722
0.00125981
0.00124835
0.0014981
0.00148447
0.00147057
0.00145819
0.00144736
0.00143571
0.000787923
0.000759814
0.000739961
0.000724411
0.00071146
0.000699304
0.000825652
0.000786364
0.000756326
0.000730412
0.000707212
0.000683811
0.000974269
0.000925014
0.000875989
0.000838567
0.000803918
0.000762583
0.00109943
0.0010505
0.00100003
0.000956976
0.000915617
0.000867493
0.00114994
0.00110159
0.00105488
0.00100972
0.000970261
0.000922322
0.00113433
0.00108942
0.00104388
0.00100478
0.000961946
0.000922791
0.00107332
0.00103215
0.000990206
0.000955378
0.000920841
0.00088044
0.00094645
0.000907437
0.000872547
0.000840531
0.000810593
0.00078305
0.000786254
0.000758541
0.000738786
0.000723101
0.000710419
0.000698504
0.00138996
0.00137501
0.00136072
0.00134823
0.00133759
0.00132595
0.00174781
0.00172961
0.00171568
0.00170172
0.00169094
0.00167625
0.00139161
0.00137626
0.00136198
0.00134951
0.00133886
0.00132735
0.00135643
0.00133909
0.00132028
0.0013026
0.00128689
0.00127303
0.00126082
0.00124947
0.00133181
0.00131172
0.00129282
0.00127514
0.0012592
0.00124509
0.0012326
0.0013444
0.00132707
0.00131
0.00129339
0.0012777
0.00126335
0.00125052
0.00135448
0.0013376
0.00132134
0.0013068
0.00129316
0.00128091
0.0013882
0.00137003
0.00135328
0.00133796
0.00132406
0.00131177
0.0014157
0.00139963
0.00138388
0.00136938
0.00135635
0.00134454
0.00147
0.00145328
0.00143795
0.00142395
0.00141136
0.00139971
0.00149724
0.00148338
0.00146916
0.00145655
0.00144557
0.00143373
0.00174651
0.0017279
0.00171391
0.00169988
0.00168903
0.00167409
)
;

boundaryField
{
    inlet
    {
        type            fixedValue;
        value           nonuniform List<scalar> 0();
    }
    ami1
    {
        type            cyclicAMI;
        value           nonuniform List<scalar> 0();
    }
    walls
    {
        type            kqRWallFunction;
        value           nonuniform List<scalar> 
244
(
0.00174952
0.00149876
0.00147262
0.00172927
0.00148515
0.00145531
0.00140149
0.00137376
0.00137966
0.00173404
0.00171668
0.00147104
0.00144054
0.00138684
0.00135653
0.0013259
0.00130038
0.0012826
0.00129261
0.00136561
0.00171702
0.00170297
0.00145886
0.00142677
0.00137263
0.0013415
0.00131131
0.00128406
0.00126579
0.00127796
0.00135163
0.00170328
0.00169191
0.00144817
0.00141437
0.00135984
0.00132776
0.00129773
0.0012692
0.00125063
0.00126436
0.00134036
0.00169142
0.00167632
0.00143664
0.00140302
0.00134832
0.0013157
0.00128531
0.00125569
0.00123686
0.00125191
0.001328
0.00167455
0.00135382
0.00132802
0.00131232
0.00131911
0.00138996
0.00174651
0.00173404
0.00148644
0.00145788
0.00140205
0.00137461
0.0013379
0.00131068
0.00129317
0.0013021
0.00137501
0.0017279
0.00171702
0.00147354
0.00144196
0.00138706
0.00135678
0.00132169
0.00129386
0.00127526
0.00128625
0.00136072
0.00171391
0.00170328
0.00145978
0.00142728
0.00137234
0.00134069
0.00130685
0.00127806
0.00125909
0.0012722
0.00134823
0.00169988
0.00169142
0.00144797
0.0014139
0.00135895
0.00132627
0.00129352
0.00126363
0.00124475
0.00125981
0.00133759
0.00168903
0.00167455
0.00143524
0.00140165
0.00134684
0.00131367
0.00128135
0.00125074
0.00123204
0.00124835
0.00132595
0.00167409
0.00135643
0.00133909
0.00133181
0.0013444
0.00174781
0.00139161
0.00132028
0.00131172
0.00132707
0.00135448
0.0013882
0.0014157
0.00147
0.00149724
0.00174651
0.00172961
0.00137626
0.0013026
0.00129282
0.00131
0.0013376
0.00137003
0.00139963
0.00145328
0.00148338
0.0017279
0.00171568
0.00136198
0.00128689
0.00127514
0.00129339
0.00132134
0.00135328
0.00138388
0.00143795
0.00146916
0.00171391
0.00170172
0.00134951
0.00127303
0.0012592
0.0012777
0.0013068
0.00133796
0.00136938
0.00142395
0.00145655
0.00169988
0.00169094
0.00133886
0.00126082
0.00124509
0.00126335
0.00129316
0.00132406
0.00135635
0.00141136
0.00144557
0.00168903
0.00167625
0.00132735
0.00124947
0.0012326
0.00125052
0.00128091
0.00131177
0.00134454
0.00139971
0.00143373
0.00167409
0.00174952
0.00138935
0.00141657
0.00147097
0.0014981
0.00174781
0.00172927
0.00138012
0.00131536
0.00133956
0.00137162
0.00140091
0.00145461
0.00148447
0.00172961
0.00171668
0.00136506
0.00129441
0.00128397
0.00129875
0.00132419
0.00135527
0.00138555
0.00143966
0.00147057
0.00171568
0.00170297
0.00135224
0.00127909
0.00126665
0.00128296
0.00130989
0.0013403
0.00137146
0.00142599
0.00145819
0.00170172
0.00169191
0.00134148
0.00126561
0.00125131
0.00126834
0.00129643
0.00132657
0.0013587
0.00141362
0.00144736
0.00169094
0.00167632
0.00132974
0.00125349
0.00123763
0.00125495
0.00128406
0.00131431
0.00134693
0.00140203
0.00143571
0.00167625
)
;
    }
    ami2
    {
        type            cyclicAMI;
        value           nonuniform List<scalar> 0();
    }
    outlet
    {
        type            zeroGradient;
    }
    procBoundary6to5
    {
        type            processor;
        value           nonuniform List<scalar> 
177
(
0.00176134
0.00139381
0.00151046
0.00148335
0.00141403
0.000948276
0.00141403
0.00138518
0.00133795
0.00133795
0.00133795
0.00131142
0.00131142
0.00129388
0.00130445
0.00130445
0.00138926
0.000770232
0.00174497
0.00139381
0.00139381
0.00130695
0.000815219
0.000948276
0.000828125
0.000948276
0.00107206
0.00113175
0.00114599
0.00109489
0.000924907
0.000924907
0.000924907
0.00079465
0.00079465
0.000770232
0.000770232
0.00149549
0.00130695
0.00130695
0.000828125
0.00092672
0.0010417
0.00121803
0.00132475
0.00136589
0.00133119
0.00133119
0.00121062
0.00104138
0.00091557
0.00091557
0.00091557
0.00091557
0.00146776
0.00129562
0.00129562
0.00092672
0.00092672
0.00092672
0.00121044
0.00121044
0.00142184
0.00142184
0.00155212
0.00155212
0.00159952
0.00159952
0.00159952
0.00162371
0.00142301
0.00142301
0.00142301
0.00121898
0.00121898
0.00107265
0.00107265
0.00141389
0.00132704
0.00109477
0.00109477
0.00139067
0.00139067
0.00162461
0.00162461
0.00177225
0.00177225
0.00182316
0.00177156
0.00161904
0.00138374
0.00117556
0.00138684
0.00138684
0.00138684
0.00135331
0.00135331
0.00119722
0.00114601
0.00114601
0.00114601
0.00148933
0.00138423
0.00173877
0.0016199
0.00190021
0.00187862
0.00177304
0.00187862
0.00182336
0.00166733
0.00142692
0.00119332
0.00136924
0.00140225
0.00117633
0.00138423
0.0016199
0.00177304
0.0018235
0.00177168
0.001624
0.00139122
0.00114193
0.00134224
0.00142986
0.00111455
0.00127323
0.00148523
0.00162484
0.00166749
0.00161893
0.00148436
0.00126639
0.00101536
0.0013268
0.00148278
0.00098589
0.00109041
0.00126819
0.00139226
0.00142824
0.00138423
0.00127194
0.00108721
0.000862443
0.00133405
0.00150974
0.000815081
0.000911143
0.000869486
0.000869486
0.00102094
0.00102094
0.00114577
0.00114577
0.00119653
0.00117716
0.00111246
0.000982203
0.000812188
0.0014033
0.00176107
0.00142287
0.00140539
0.00140539
0.00137152
0.00134696
0.00134696
0.00136109
0.00137012
0.00137012
0.00140192
0.00142897
0.00148178
0.00150883
0.00175982
)
;
    }
}


// ************************************************************************* //
