/*--------------------------------*- C++ -*----------------------------------*\
| =========                 |                                                 |
| \\      /  F ield         | OpenFOAM: The Open Source CFD Toolbox           |
|  \\    /   O peration     | Version:  2212                                  |
|   \\  /    A nd           | Website:  www.openfoam.com                      |
|    \\/     M anipulation  |                                                 |
\*---------------------------------------------------------------------------*/
FoamFile
{
    version     2.0;
    format      ascii;
    arch        "LSB;label=32;scalar=64";
    class       volVectorField;
    location    "1.25";
    object      U;
}
// * * * * * * * * * * * * * * * * * * * * * * * * * * * * * * * * * * * * * //

dimensions      [0 1 -1 0 0 0 0];

internalField   nonuniform List<vector> 
678
(
(0.0218583 2.10973e-05 3.40245e-05)
(0.0216931 1.83457e-05 3.09422e-05)
(0.0215423 1.42626e-05 2.907e-05)
(0.0213874 9.24304e-06 2.65442e-05)
(0.0212597 4.38143e-06 2.07208e-05)
(0.0210536 -3.5279e-06 1.83018e-05)
(0.0371457 -6.55075e-05 0.000130278)
(0.0368819 -5.91412e-05 0.000113649)
(0.0366454 -5.71309e-05 0.00010135)
(0.0364133 -5.76532e-05 9.0343e-05)
(0.0362175 -5.35718e-05 7.33451e-05)
(0.0359187 -5.74518e-05 5.67993e-05)
(0.0517488 -0.000280258 0.000172212)
(0.051369 -0.000257932 0.000150229)
(0.0510289 -0.000233193 0.000128227)
(0.0507069 -0.000209202 0.000109435)
(0.0504384 -0.000183102 8.79911e-05)
(0.0500393 -0.000161463 7.48954e-05)
(0.0599706 -0.000480763 0.00016038)
(0.0595784 -0.000439038 0.000139972)
(0.0592011 -0.000394972 0.000120057)
(0.0588888 -0.00034945 0.000102062)
(0.0584195 -0.000297185 9.27194e-05)
(0.0644625 -0.00071278 0.000184098)
(0.0640099 -0.000661679 0.000168476)
(0.0635822 -0.000595669 0.000147936)
(0.0632202 -0.000517105 0.000126844)
(0.0627029 -0.000430244 0.000109877)
(0.0644121 -0.000668179 0.000118574)
(0.0639861 -0.000599868 0.000103453)
(0.0636131 -0.000515231 8.99392e-05)
(0.0631036 -0.000413074 7.44779e-05)
(0.0611223 -0.000453405 6.55714e-05)
(0.0607346 -0.00039661 5.53784e-05)
(0.0603927 -0.000330302 5.1873e-05)
(0.0599307 -0.000251963 4.58133e-05)
(0.0549246 -0.000287623 6.25262e-05)
(0.0545561 -0.00025485 5.808e-05)
(0.0542431 -0.000206682 5.54637e-05)
(0.0538297 -0.000159161 4.64399e-05)
(0.0458361 -0.000178261 4.24524e-05)
(0.0455318 -0.000158147 3.86672e-05)
(0.0452725 -0.000126816 3.33714e-05)
(0.0449118 -0.000109213 2.15301e-05)
(0.0341782 -5.59095e-05 4.89905e-05)
(0.0339305 -5.23723e-05 4.26605e-05)
(0.0337018 -5.09445e-05 3.45692e-05)
(0.0335117 -4.542e-05 2.23214e-05)
(0.0332234 -4.85495e-05 9.68397e-06)
(0.0216965 -2.91632e-05 1.51929e-05)
(0.0215423 -2.73859e-05 1.32169e-05)
(0.0213864 -2.67408e-05 9.35056e-06)
(0.0212542 -2.14551e-05 4.92059e-06)
(0.0210311 -1.95213e-05 -2.451e-06)
(0.0341792 5.49659e-05 5.20645e-05)
(0.03395 4.68355e-05 5.1413e-05)
(0.0337245 3.61494e-05 5.3457e-05)
(0.0335337 2.37133e-05 4.84453e-05)
(0.0332587 1.17928e-05 4.87557e-05)
(0.0661108 -5.63513e-05 0.000280668)
(0.0656924 -5.50559e-05 0.000270055)
(0.0653196 -5.66083e-05 0.000259517)
(0.0649743 -6.03359e-05 0.000243764)
(0.0646928 -6.42333e-05 0.000221249)
(0.0642961 -7.10745e-05 0.000187238)
(0.0883772 -0.000402475 0.000416562)
(0.088129 -0.000387211 0.000401655)
(0.0878722 -0.000369405 0.000380328)
(0.0876605 -0.000344335 0.000346973)
(0.0873317 -0.000293321 0.000282177)
(0.098785 -0.00067801 0.000396531)
(0.0986399 -0.000641878 0.000380063)
(0.0984885 -0.000608856 0.00036432)
(0.0983534 -0.000564488 0.00033823)
(0.0981459 -0.00047242 0.000278292)
(0.103046 -0.000845929 0.000392106)
(0.102952 -0.000800158 0.000374451)
(0.102857 -0.000753381 0.000356934)
(0.102765 -0.000696561 0.000333909)
(0.102623 -0.00058587 0.000284712)
(0.103551 -0.000852091 0.000350865)
(0.103484 -0.000814735 0.00033694)
(0.103408 -0.00076974 0.000319939)
(0.103342 -0.000701446 0.000295416)
(0.103236 -0.000591115 0.000255816)
(0.101303 -0.000778255 0.000226558)
(0.10124 -0.000751492 0.000212059)
(0.10117 -0.000714567 0.000197539)
(0.101108 -0.000652126 0.000179359)
(0.101003 -0.000546853 0.000148384)
(0.0958171 -0.000653375 4.35527e-05)
(0.0956808 -0.000627479 3.53872e-05)
(0.0955629 -0.000591954 2.7535e-05)
(0.0953705 -0.000506115 1.82554e-05)
(0.0848524 -0.000561658 -7.94628e-05)
(0.0845736 -0.000537004 -7.95204e-05)
(0.084326 -0.000503642 -7.91437e-05)
(0.0839617 -0.000430358 -7.67355e-05)
(0.0653212 -0.000241166 -5.69423e-05)
(0.0649608 -0.00024135 -6.39782e-05)
(0.0646583 -0.000228214 -6.98538e-05)
(0.0642412 -0.00019725 -7.58169e-05)
(0.0369148 -0.000110742 -6.76576e-05)
(0.0366562 -0.000107023 -6.2707e-05)
(0.0364097 -9.97109e-05 -5.86586e-05)
(0.0362038 -8.18773e-05 -5.13399e-05)
(0.0358829 -6.52023e-05 -5.52751e-05)
(0.0458665 5.46699e-05 0.000161562)
(0.0455743 4.94052e-05 0.000142403)
(0.045327 4.0386e-05 0.000119661)
(0.0449772 2.66951e-05 0.00010578)
(0.0851854 -7.41842e-05 0.000577576)
(0.0848874 -7.62462e-05 0.000570442)
(0.0845851 -7.53438e-05 0.000550365)
(0.0843432 -7.06619e-05 0.000506652)
(0.0839783 -6.69692e-05 0.00042086)
(0.106844 -0.000442398 0.000802811)
(0.106872 -0.000428731 0.000780559)
(0.106888 -0.000411736 0.000748988)
(0.106889 -0.000386168 0.000696428)
(0.106858 -0.000327254 0.000591191)
(0.115955 -0.000709106 0.000674114)
(0.116098 -0.000678018 0.000651686)
(0.116239 -0.00064527 0.000629963)
(0.116351 -0.000602336 0.000595827)
(0.116496 -0.000515327 0.000510285)
(0.119668 -0.00086618 0.000558935)
(0.119855 -0.000827697 0.000540322)
(0.120035 -0.00078119 0.000516789)
(0.12019 -0.000725247 0.000484443)
(0.120389 -0.000626165 0.000421592)
(0.120412 -0.000919564 0.00038227)
(0.120624 -0.000875405 0.000367233)
(0.120827 -0.000826589 0.000347337)
(0.121006 -0.000765228 0.000321529)
(0.121236 -0.000661663 0.000276584)
(0.119052 -0.000902785 0.000122212)
(0.119279 -0.000866134 0.000113302)
(0.119492 -0.000821802 0.000102729)
(0.11968 -0.000762912 8.98577e-05)
(0.119918 -0.000665503 7.11716e-05)
(0.115268 -0.000877063 -0.000185119)
(0.115457 -0.000840867 -0.000182034)
(0.115634 -0.000804265 -0.000178736)
(0.115784 -0.000756125 -0.000173012)
(0.115976 -0.000650488 -0.0001552)
(0.106837 -0.000806459 -0.000444948)
(0.106876 -0.000788499 -0.000433436)
(0.106891 -0.000753407 -0.000416185)
(0.106902 -0.000698718 -0.000388806)
(0.106881 -0.000603518 -0.000334828)
(0.0881035 -0.000389197 -0.000384206)
(0.0878693 -0.000378938 -0.000369621)
(0.0876524 -0.000354741 -0.000348119)
(0.0873209 -0.000299829 -0.000300985)
(0.0514158 -0.000149129 -0.000264508)
(0.0510465 -0.000151799 -0.000245744)
(0.0507043 -0.000139271 -0.000219755)
(0.0504143 -0.000109075 -0.000186599)
(0.0499955 -8.83704e-05 -0.000160227)
(0.0549632 7.27119e-05 0.000279421)
(0.0545916 7.08798e-05 0.000237464)
(0.0542932 6.65195e-05 0.000190282)
(0.0538843 5.45492e-05 0.000150451)
(0.0958222 4.49648e-05 0.00064296)
(0.0956863 3.53126e-05 0.000630344)
(0.0955501 3.00599e-05 0.000599361)
(0.0953515 2.30873e-05 0.000497852)
(0.115255 -0.000180819 0.000864847)
(0.115442 -0.00018279 0.000839767)
(0.11562 -0.000181484 0.000802358)
(0.115769 -0.000176273 0.000752223)
(0.115958 -0.000159173 0.00065606)
(0.123471 -0.000394428 0.000665694)
(0.123746 -0.000380151 0.000639393)
(0.124012 -0.000365607 0.000616289)
(0.124248 -0.000345918 0.000584309)
(0.124555 -0.000309299 0.000522998)
(0.126999 -0.000534869 0.00047891)
(0.127295 -0.00050985 0.000459678)
(0.12758 -0.000484367 0.000440915)
(0.127834 -0.000452143 0.000415549)
(0.128166 -0.000403873 0.000374373)
(0.127904 -0.000604324 0.000233986)
(0.128209 -0.000575073 0.000221818)
(0.128502 -0.00054595 0.000209502)
(0.128766 -0.000508626 0.000194785)
(0.129109 -0.000456227 0.000173124)
(0.126513 -0.000680836 -6.43888e-05)
(0.126839 -0.000650889 -6.5108e-05)
(0.127144 -0.000622352 -6.62598e-05)
(0.127436 -0.000591091 -6.69757e-05)
(0.127697 -0.000550694 -6.59033e-05)
(0.128038 -0.000493639 -6.29356e-05)
(0.123473 -0.000673046 -0.000390449)
(0.12375 -0.000644705 -0.000379094)
(0.124015 -0.000618977 -0.000366494)
(0.124251 -0.000583599 -0.000345731)
(0.124559 -0.000522055 -0.000309101)
(0.115962 -0.000673928 -0.000703763)
(0.116112 -0.000654822 -0.000682243)
(0.116245 -0.000629346 -0.000651003)
(0.116365 -0.000591283 -0.000604896)
(0.11651 -0.000517584 -0.000524602)
(0.0987817 -0.000393342 -0.000674974)
(0.0986378 -0.000389106 -0.000652979)
(0.098487 -0.000376356 -0.0006219)
(0.0983502 -0.00034604 -0.000568026)
(0.098144 -0.000295468 -0.000481337)
(0.0599878 -0.000169304 -0.000486664)
(0.0595767 -0.000165778 -0.000444318)
(0.0592025 -0.000149203 -0.000398564)
(0.0588739 -0.000124641 -0.000349143)
(0.0583969 -0.000108198 -0.000294511)
(0.061592 8.27607e-05 0.000506285)
(0.0611629 7.01959e-05 0.000454946)
(0.060769 6.29025e-05 0.000391791)
(0.0604253 6.0247e-05 0.000321892)
(0.0599621 5.21666e-05 0.000245124)
(0.101298 0.000227806 0.000777348)
(0.101238 0.000210162 0.000749087)
(0.101168 0.000193563 0.000712602)
(0.101103 0.000175379 0.000651205)
(0.100995 0.000146215 0.000542962)
(0.118805 0.00013422 0.000946115)
(0.119044 0.000123611 0.00091216)
(0.119267 0.000113084 0.000871675)
(0.119479 0.000100026 0.000821232)
(0.11967 8.59453e-05 0.000759425)
(0.119909 6.73656e-05 0.000661681)
(0.126507 -7.19394e-05 0.000672555)
(0.12683 -6.89661e-05 0.00064392)
(0.127137 -6.58305e-05 0.000617574)
(0.127432 -6.42227e-05 0.000587698)
(0.127695 -6.31944e-05 0.000547747)
(0.128035 -6.11356e-05 0.000490919)
(0.12998 -0.00022421 0.000418998)
(0.130321 -0.000212496 0.000402103)
(0.130643 -0.000200414 0.000385382)
(0.130951 -0.00018895 0.000366513)
(0.131229 -0.000176584 0.000342751)
(0.13158 -0.000160937 0.000311215)
(0.130973 -0.000331249 0.000116748)
(0.131316 -0.000316197 0.000110497)
(0.131641 -0.000300755 0.000104282)
(0.131953 -0.000283714 9.80489e-05)
(0.132235 -0.000264405 9.1467e-05)
(0.132592 -0.000245697 8.48213e-05)
(0.129983 -0.000424344 -0.000214224)
(0.130322 -0.000406638 -0.000208349)
(0.130643 -0.000388619 -0.000201987)
(0.130952 -0.00036915 -0.000193108)
(0.13123 -0.000345148 -0.000180634)
(0.131581 -0.000313226 -0.000163976)
(0.126682 -0.000505223 -0.000552359)
(0.126995 -0.000485458 -0.000532866)
(0.127292 -0.000466718 -0.000514063)
(0.127578 -0.000446037 -0.000489178)
(0.127833 -0.000418176 -0.000454413)
(0.128163 -0.000376003 -0.000404709)
(0.119464 -0.000577886 -0.000900091)
(0.119665 -0.000561234 -0.000870641)
(0.119856 -0.000542486 -0.000834023)
(0.120036 -0.000518544 -0.000786211)
(0.120197 -0.000487036 -0.000729858)
(0.120392 -0.000429607 -0.000634146)
(0.10315 -0.000419107 -0.000897297)
(0.103054 -0.000403756 -0.000853723)
(0.10296 -0.000389586 -0.000815283)
(0.102855 -0.000369412 -0.00076955)
(0.102765 -0.000341368 -0.000697499)
(0.102622 -0.00029822 -0.000590737)
(0.0644757 -0.000198947 -0.0007169)
(0.0640136 -0.000186962 -0.000661505)
(0.0635895 -0.000166236 -0.000592478)
(0.063216 -0.000143466 -0.000512544)
(0.0626983 -0.000123153 -0.000424641)
(0.0649273 0.000137502 0.000722875)
(0.0644607 0.000118782 0.000673113)
(0.0640153 0.000105438 0.000607053)
(0.0636453 9.48938e-05 0.00052165)
(0.0631268 7.94127e-05 0.000419107)
(0.103547 0.000355124 0.000856271)
(0.103478 0.000339493 0.000810841)
(0.103407 0.000320885 0.00076815)
(0.103339 0.000294182 0.000706159)
(0.103239 0.000250848 0.000582598)
(0.119945 0.000405502 0.000989516)
(0.120182 0.000395448 0.000964965)
(0.120408 0.000384769 0.000929591)
(0.12062 0.00037009 0.000885643)
(0.120826 0.000348961 0.000834559)
(0.121004 0.000321017 0.00076713)
(0.121233 0.000275412 0.000662789)
(0.127245 0.000247759 0.000654004)
(0.127581 0.000238944 0.000632459)
(0.1279 0.000232371 0.000609283)
(0.128205 0.0002251 0.000582269)
(0.1285 0.000214313 0.000549717)
(0.128763 0.00019874 0.000508559)
(0.129103 0.000175571 0.000454134)
(0.130614 0.000114852 0.000331484)
(0.130973 0.000110512 0.000323075)
(0.131313 0.000108682 0.000314324)
(0.131637 0.000106703 0.000302463)
(0.131949 0.000102452 0.000286688)
(0.13223 9.56938e-05 0.000267364)
(0.132585 8.79325e-05 0.000248199)
(0.131972 -4.06119e-06 -1.11638e-06)
(0.132318 -2.18331e-06 5.67455e-07)
(0.132647 -7.55745e-08 1.41825e-06)
(0.132965 1.1579e-06 1.68571e-06)
(0.133247 1.24061e-06 1.66815e-06)
(0.133622 7.53489e-07 1.49478e-06)
(0.13097 -0.000118454 -0.000323729)
(0.131311 -0.000113113 -0.000311273)
(0.131637 -0.000107273 -0.000299106)
(0.131951 -0.000100782 -0.000283674)
(0.132235 -9.36741e-05 -0.000264374)
(0.132592 -8.6509e-05 -0.000245275)
(0.127577 -0.000247306 -0.000627522)
(0.127898 -0.00023695 -0.000603174)
(0.128204 -0.000226395 -0.000580335)
(0.128501 -0.000214063 -0.000550749)
(0.128766 -0.000198878 -0.000509925)
(0.129108 -0.000176943 -0.000454956)
(0.120183 -0.000401609 -0.000957056)
(0.120405 -0.000387397 -0.00092297)
(0.12062 -0.000370278 -0.000882125)
(0.120827 -0.000348876 -0.000833066)
(0.12101 -0.000323757 -0.000767284)
(0.121235 -0.000282275 -0.000665067)
(0.103632 -0.000381598 -0.000910265)
(0.103561 -0.00036527 -0.000865666)
(0.103493 -0.000349811 -0.00082781)
(0.103412 -0.000330633 -0.000778537)
(0.103343 -0.000302671 -0.000701328)
(0.103235 -0.000262453 -0.000583829)
(0.0653775 -0.000156902 -0.000767822)
(0.0648858 -0.000143622 -0.00072018)
(0.0644165 -0.000131009 -0.000659842)
(0.0639864 -0.000117631 -0.000589128)
(0.0636108 -0.000103571 -0.000504452)
(0.0631046 -8.65684e-05 -0.000402117)
(0.0649963 0.000203787 0.00075187)
(0.064513 0.000183244 0.000711755)
(0.0640533 0.000161443 0.0006624)
(0.0636271 0.000143548 0.000600289)
(0.0632513 0.000129591 0.000524575)
(0.0627303 0.000114247 0.000438645)
(0.103149 0.000406012 0.000893355)
(0.103051 0.000393405 0.000850322)
(0.102955 0.000382092 0.000810126)
(0.10285 0.000361207 0.000762638)
(0.102761 0.000330321 0.000695005)
(0.102621 0.000284063 0.000591278)
(0.119462 0.000566271 0.000899004)
(0.11966 0.000556443 0.000868332)
(0.119851 0.00054365 0.000830486)
(0.120032 0.000519999 0.000782152)
(0.120192 0.00048377 0.000724812)
(0.120384 0.000421744 0.000630261)
(0.126682 0.000493373 0.000548144)
(0.126993 0.000478014 0.000530304)
(0.12729 0.000465277 0.000512058)
(0.127578 0.000447137 0.000487135)
(0.127833 0.000418294 0.000452697)
(0.128161 0.000374057 0.000403435)
(0.129974 0.000417191 0.000212309)
(0.130311 0.000400215 0.000206526)
(0.130633 0.000385416 0.000200817)
(0.130943 0.000367555 0.000192706)
(0.131222 0.000343298 0.000181001)
(0.131571 0.000310734 0.000164996)
(0.130967 0.000322894 -0.000114373)
(0.131307 0.000310421 -0.000109678)
(0.131632 0.000298643 -0.000104848)
(0.131945 0.000283994 -9.8996e-05)
(0.132228 0.00026534 -9.18209e-05)
(0.132584 0.000246116 -8.43064e-05)
(0.12998 0.000213153 -0.00041655)
(0.130318 0.000206537 -0.000401935)
(0.13064 0.000200058 -0.000387542)
(0.130951 0.000191528 -0.000369144)
(0.131231 0.000179543 -0.000344272)
(0.131581 0.00016313 -0.000311388)
(0.126511 6.12065e-05 -0.000667205)
(0.126833 6.23833e-05 -0.00064375)
(0.127142 6.42468e-05 -0.000622784)
(0.12744 6.53304e-05 -0.000594218)
(0.127705 6.39233e-05 -0.000551767)
(0.128045 6.04787e-05 -0.00049199)
(0.118815 -0.000142807 -0.000941653)
(0.119047 -0.000131066 -0.000909197)
(0.119275 -0.000117665 -0.000871784)
(0.119492 -0.000103123 -0.000822586)
(0.119684 -9.03762e-05 -0.000758698)
(0.11992 -7.36295e-05 -0.000658676)
(0.101383 -0.000255532 -0.000824843)
(0.101319 -0.000237898 -0.000788934)
(0.101254 -0.000222111 -0.000761319)
(0.101175 -0.000206465 -0.0007218)
(0.101107 -0.000187041 -0.00064932)
(0.100997 -0.000155959 -0.000535335)
(0.0619947 -9.3918e-05 -0.000560632)
(0.0615472 -8.55601e-05 -0.000497926)
(0.0611205 -7.86397e-05 -0.000432714)
(0.060731 -7.19479e-05 -0.000369485)
(0.0603896 -6.67104e-05 -0.000308485)
(0.0599376 -5.79262e-05 -0.000238173)
(0.0604393 0.000177868 0.000520621)
(0.0600194 0.000153845 0.000481048)
(0.0596181 0.000129963 0.000439077)
(0.0592468 0.000112427 0.000397829)
(0.0589198 0.000101092 0.00035454)
(0.0584477 9.65283e-05 0.000304549)
(0.0989439 0.000404902 0.000712667)
(0.0988014 0.000392544 0.000681874)
(0.0986509 0.000383034 0.000655695)
(0.0984973 0.000363507 0.000620224)
(0.0983585 0.00032763 0.000564405)
(0.0981527 0.000274526 0.000478049)
(0.115795 0.000686351 0.000734699)
(0.11595 0.000669575 0.00070736)
(0.116102 0.000657118 0.000680693)
(0.116238 0.000633946 0.00064649)
(0.116356 0.000588699 0.000597465)
(0.116494 0.00050582 0.000516093)
(0.12318 0.000686521 0.000402194)
(0.123466 0.000666134 0.000391325)
(0.123743 0.000652143 0.000381639)
(0.124009 0.000630113 0.000367358)
(0.124245 0.000589385 0.000344544)
(0.124544 0.000520312 0.00030659)
(0.126502 0.000665402 6.46301e-05)
(0.12682 0.000640844 6.51754e-05)
(0.127126 0.000620145 6.68012e-05)
(0.127424 0.000592709 6.79555e-05)
(0.127688 0.000550957 6.69197e-05)
(0.128024 0.000490797 6.40359e-05)
(0.127571 0.00062615 -0.000241544)
(0.127888 0.000600582 -0.000232532)
(0.128193 0.000577075 -0.000223172)
(0.12849 0.000548303 -0.000211404)
(0.128754 0.000508307 -0.000195815)
(0.129093 0.0004526 -0.00017297)
(0.126681 0.00055029 -0.000497306)
(0.126991 0.00053012 -0.000481887)
(0.127289 0.000510723 -0.000467723)
(0.127577 0.000485556 -0.000448095)
(0.127832 0.00045083 -0.000418438)
(0.12816 0.000400903 -0.000374332)
(0.123189 0.000402258 -0.000692814)
(0.123477 0.000390804 -0.000671679)
(0.123756 0.000380551 -0.00065567)
(0.124023 0.000365949 -0.000632392)
(0.124259 0.000342684 -0.000591212)
(0.124561 0.000304185 -0.000523003)
(0.115084 0.000176455 -0.000899742)
(0.115277 0.000176673 -0.000872164)
(0.115468 0.000178507 -0.000849828)
(0.115641 0.000177062 -0.00081543)
(0.115795 0.000169099 -0.000754301)
(0.115977 0.000150552 -0.000650299)
(0.0961044 -6.88073e-05 -0.000718971)
(0.0959742 -5.94938e-05 -0.000696977)
(0.0958322 -5.11798e-05 -0.000684356)
(0.0956868 -4.53873e-05 -0.000657233)
(0.0955538 -4.07578e-05 -0.000594959)
(0.0953583 -3.19038e-05 -0.000492562)
(0.0557105 -6.82651e-05 -0.000332535)
(0.0553027 -7.24657e-05 -0.000300584)
(0.0549116 -7.42039e-05 -0.000262655)
(0.0545562 -7.25092e-05 -0.000226993)
(0.054248 -6.92368e-05 -0.000187518)
(0.0538487 -5.82906e-05 -0.000150695)
(0.0517693 0.00016617 0.000284905)
(0.0514023 0.00014387 0.000262041)
(0.0510626 0.000120744 0.000237208)
(0.0507398 0.000102017 0.000214049)
(0.0504676 8.34292e-05 0.000189583)
(0.0500616 7.53643e-05 0.000168658)
(0.0886428 0.000427382 0.000423202)
(0.0883975 0.00041719 0.000411898)
(0.0881412 0.000403812 0.000400579)
(0.087895 0.000378757 0.00038211)
(0.0876735 0.000332495 0.000348104)
(0.0873586 0.000262061 0.000290968)
(0.106813 0.000822277 0.000458594)
(0.106856 0.000803087 0.000445098)
(0.106881 0.000783145 0.000432115)
(0.106897 0.000746253 0.000412826)
(0.1069 0.000683209 0.000382468)
(0.106868 0.000581155 0.000327189)
(0.115068 0.00089124 0.000179113)
(0.115259 0.00086464 0.000180045)
(0.115449 0.000843944 0.000182486)
(0.115622 0.00081131 0.000181597)
(0.115774 0.000749627 0.000173642)
(0.115952 0.000643365 0.000154843)
(0.118803 0.000936239 -0.000137854)
(0.119032 0.000903782 -0.000125891)
(0.119257 0.000867487 -0.000111749)
(0.119473 0.000818615 -9.64845e-05)
(0.119665 0.000753932 -8.35314e-05)
(0.119897 0.000652129 -6.64815e-05)
(0.120172 0.00094994 -0.000397508)
(0.120393 0.000914644 -0.000383629)
(0.120607 0.000873967 -0.000365774)
(0.120817 0.000828535 -0.000344246)
(0.120996 0.000761044 -0.000317371)
(0.121223 0.000650129 -0.000272258)
(0.119462 0.000895169 -0.000575861)
(0.11966 0.000863435 -0.000561633)
(0.119851 0.000824881 -0.0005441)
(0.120034 0.000777161 -0.000518564)
(0.120194 0.000718408 -0.000483559)
(0.120387 0.000622197 -0.000423087)
(0.115807 0.000733313 -0.000695714)
(0.115962 0.000705867 -0.00067839)
(0.116113 0.000678018 -0.000663487)
(0.116249 0.000642082 -0.000638467)
(0.116368 0.000592054 -0.000593925)
(0.116507 0.000510039 -0.00051285)
(0.106826 0.000455655 -0.000833137)
(0.106866 0.00044072 -0.0008123)
(0.106891 0.000426243 -0.00079016)
(0.106906 0.000405588 -0.000752304)
(0.10691 0.000374605 -0.000690805)
(0.106877 0.000319582 -0.00059112)
(0.0854474 7.57005e-05 -0.000600559)
(0.0851591 7.50864e-05 -0.000595299)
(0.08486 7.38681e-05 -0.000585535)
(0.0845785 6.97773e-05 -0.000554042)
(0.0843275 6.39597e-05 -0.000502695)
(0.0839705 6.00751e-05 -0.000416713)
(0.0464943 -4.85454e-05 -0.000209585)
(0.0461443 -5.16429e-05 -0.000187216)
(0.0458228 -5.13565e-05 -0.000165944)
(0.0455199 -4.80553e-05 -0.000147301)
(0.0452661 -4.30848e-05 -0.000121106)
(0.0449212 -3.01951e-05 -0.000106846)
(0.0371652 0.000124741 6.77814e-05)
(0.0369045 0.000112634 6.76276e-05)
(0.0366601 9.97385e-05 6.75031e-05)
(0.0364185 8.5125e-05 6.5922e-05)
(0.0362231 6.50598e-05 5.89111e-05)
(0.0359308 5.13418e-05 6.10141e-05)
(0.0661007 0.000268268 5.57832e-05)
(0.0657048 0.000266289 6.25186e-05)
(0.065347 0.000262682 7.15296e-05)
(0.0650019 0.000246729 7.7064e-05)
(0.0647179 0.000214888 7.61286e-05)
(0.0643229 0.000173544 7.68316e-05)
(0.085463 0.000588872 8.11933e-05)
(0.0851787 0.000591111 8.36471e-05)
(0.0848819 0.000585329 8.44469e-05)
(0.0846049 0.000551252 8.0659e-05)
(0.0843587 0.000493403 7.43429e-05)
(0.084014 0.000398887 6.89627e-05)
(0.0961042 0.000706271 -6.38548e-05)
(0.0959785 0.000689785 -5.32729e-05)
(0.0958377 0.00068205 -4.44235e-05)
(0.0956937 0.000655798 -3.85448e-05)
(0.0955621 0.000590887 -3.38853e-05)
(0.0953716 0.000483999 -2.48122e-05)
(0.101383 0.000811956 -0.00025173)
(0.101321 0.000779245 -0.000233014)
(0.10126 0.000754748 -0.000216414)
(0.101182 0.000717239 -0.000200185)
(0.101114 0.000644108 -0.000180795)
(0.101004 0.000526611 -0.00014945)
(0.103635 0.000896264 -0.000377346)
(0.103567 0.000857816 -0.000361903)
(0.103498 0.000814179 -0.000343762)
(0.103424 0.000765826 -0.000323541)
(0.103354 0.000694418 -0.000295876)
(0.103249 0.000565318 -0.000251009)
(0.103161 0.000889467 -0.000415578)
(0.103066 0.000843454 -0.000398717)
(0.102972 0.000802039 -0.000385701)
(0.102868 0.000755723 -0.000365956)
(0.102779 0.000684702 -0.00033588)
(0.102638 0.000576746 -0.000288742)
(0.0989507 0.000711639 -0.000415447)
(0.0988066 0.000677111 -0.000401484)
(0.0986551 0.000647746 -0.000391553)
(0.0985016 0.000610024 -0.000372478)
(0.0983638 0.00055246 -0.000337322)
(0.0981571 0.000464972 -0.000283378)
(0.0886351 0.000417586 -0.000434367)
(0.0883885 0.000404855 -0.000425585)
(0.0881286 0.000392212 -0.00041493)
(0.0878803 0.000369091 -0.000386925)
(0.0876583 0.000335584 -0.000343684)
(0.0873353 0.000282904 -0.000279511)
(0.066071 4.7412e-05 -0.000275758)
(0.065673 5.24889e-05 -0.000273414)
(0.06531 5.92418e-05 -0.000269507)
(0.0649637 6.29362e-05 -0.000253654)
(0.0646739 6.12718e-05 -0.0002221)
(0.0642798 6.3929e-05 -0.000182132)
(0.0344201 -6.12161e-05 -5.85541e-05)
(0.0341621 -5.4952e-05 -5.75222e-05)
(0.0339192 -4.62965e-05 -5.8091e-05)
(0.0336796 -3.75271e-05 -5.6029e-05)
(0.0334879 -2.66793e-05 -4.75688e-05)
(0.0332203 -1.43739e-05 -4.79341e-05)
(0.0218705 3.22737e-05 -1.94509e-05)
(0.0217068 3.07305e-05 -1.47449e-05)
(0.0215425 2.85478e-05 -9.46745e-06)
(0.0213759 2.5007e-05 -4.7781e-06)
(0.0212499 1.81006e-05 -8.92851e-07)
(0.0210581 1.58571e-05 5.47229e-06)
(0.0344452 5.6351e-05 -5.68728e-05)
(0.0341901 5.62681e-05 -4.93026e-05)
(0.0339485 5.78276e-05 -3.91508e-05)
(0.0337081 5.56807e-05 -3.03514e-05)
(0.0335166 4.59934e-05 -2.04265e-05)
(0.0332556 4.48539e-05 -8.86985e-06)
(0.0473283 0.000239896 -3.29962e-05)
(0.0469329 0.00022675 -3.95315e-05)
(0.0465354 0.000207947 -4.41893e-05)
(0.0461875 0.000185308 -4.60607e-05)
(0.0458743 0.000164548 -4.44171e-05)
(0.0455711 0.00014694 -4.05875e-05)
(0.04532 0.000122139 -3.58049e-05)
(0.0449768 0.000106614 -2.37706e-05)
(0.0562045 0.000352175 -6.36239e-05)
(0.0557566 0.000332044 -6.50949e-05)
(0.0553536 0.000298062 -6.82396e-05)
(0.0549689 0.000258607 -6.92242e-05)
(0.054618 0.0002237 -6.65867e-05)
(0.0543137 0.000187094 -6.23006e-05)
(0.0539202 0.000151633 -5.08982e-05)
(0.062541 0.000622413 -0.00010682)
(0.0620479 0.000559938 -9.4911e-05)
(0.0616043 0.000499048 -8.54803e-05)
(0.0611832 0.000431398 -7.75129e-05)
(0.0607972 0.000365274 -6.95288e-05)
(0.0604607 0.000304308 -6.23896e-05)
(0.0600163 0.000235738 -5.26042e-05)
(0.0654343 0.000764545 -0.000157415)
(0.0649435 0.000714574 -0.000142534)
(0.0644859 0.000653689 -0.000128617)
(0.0640465 0.000582079 -0.000113721)
(0.0636827 0.00049845 -9.85284e-05)
(0.0631837 0.000397528 -8.06972e-05)
(0.0650022 0.000753314 -0.00020199)
(0.0645214 0.000706243 -0.000189151)
(0.064064 0.000650125 -0.000172777)
(0.0636408 0.000583369 -0.000154025)
(0.0632703 0.000505908 -0.000135607)
(0.062763 0.000418492 -0.000116314)
(0.0604331 0.000517506 -0.000179782)
(0.0600147 0.000475112 -0.000160303)
(0.0596147 0.000428979 -0.000139905)
(0.0592446 0.000385003 -0.000123359)
(0.0589199 0.000340039 -0.000109293)
(0.058456 0.000288822 -9.99414e-05)
(0.0517578 0.000279423 -0.000170769)
(0.0513896 0.000255098 -0.000150485)
(0.0510514 0.000228074 -0.000129581)
(0.0507286 0.000203187 -0.000111332)
(0.0504537 0.000177229 -9.06151e-05)
(0.0500557 0.00015612 -7.93021e-05)
(0.0371515 6.22762e-05 -0.000130158)
(0.0368893 6.03635e-05 -0.000118402)
(0.0366441 5.89021e-05 -0.000106919)
(0.0364023 5.65447e-05 -9.21799e-05)
(0.0362065 4.98504e-05 -7.19776e-05)
(0.035913 5.34056e-05 -5.68096e-05)
(0.0218571 -2.28421e-05 -3.4343e-05)
(0.0216912 -1.90474e-05 -3.28323e-05)
(0.0215265 -1.46244e-05 -3.08284e-05)
(0.0213604 -1.0089e-05 -2.73157e-05)
(0.0212339 -5.9195e-06 -2.05663e-05)
(0.0210373 1.83227e-06 -1.84233e-05)
)
;

boundaryField
{
    inlet
    {
        type            fixedValue;
        value           nonuniform List<vector> 0();
    }
    ami1
    {
        type            cyclicAMI;
        value           nonuniform List<vector> 0();
    }
    walls
    {
        type            noSlip;
    }
    ami2
    {
        type            cyclicAMI;
        value           nonuniform List<vector> 0();
    }
    outlet
    {
        type            zeroGradient;
    }
    procBoundary6to5
    {
        type            processor;
        value           nonuniform List<vector> 
177
(
(0.022045 2.23643e-05 3.88291e-05)
(0.0344376 5.82367e-05 6.02533e-05)
(0.0374466 -7.0822e-05 0.000145009)
(0.0521439 -0.000295445 0.000184928)
(0.0604044 -0.000514841 0.00017745)
(0.0886368 -0.000426351 0.000441794)
(0.0604044 -0.000514841 0.00017745)
(0.064958 -0.000750632 0.000196148)
(0.0648786 -0.000721275 0.000134948)
(0.0648786 -0.000721275 0.000134948)
(0.0648786 -0.000721275 0.000134948)
(0.0615478 -0.000497767 7.97164e-05)
(0.0615478 -0.000497767 7.97164e-05)
(0.0553297 -0.000304928 6.65012e-05)
(0.0461717 -0.000190842 4.44911e-05)
(0.0461717 -0.000190842 4.44911e-05)
(0.0344405 -6.23175e-05 5.28916e-05)
(0.0657123 -0.000258204 -6.12983e-05)
(0.0218568 -3.34486e-05 1.67718e-05)
(0.0344376 5.82367e-05 6.02533e-05)
(0.0344376 5.82367e-05 6.02533e-05)
(0.0461821 5.10148e-05 0.00018898)
(0.0665335 -6.44207e-05 0.000303534)
(0.0886368 -0.000426351 0.000441794)
(0.085482 -7.9893e-05 0.000606213)
(0.0886368 -0.000426351 0.000441794)
(0.0989334 -0.000726095 0.00042425)
(0.103141 -0.000907121 0.000419915)
(0.10362 -0.000919328 0.000374556)
(0.101371 -0.000838838 0.000247623)
(0.0959436 -0.000696219 5.11162e-05)
(0.0959436 -0.000696219 5.11162e-05)
(0.0959436 -0.000696219 5.11162e-05)
(0.0851469 -0.000591849 -8.32563e-05)
(0.0851469 -0.000591849 -8.32563e-05)
(0.0657123 -0.000258204 -6.12983e-05)
(0.0657123 -0.000258204 -6.12983e-05)
(0.0371753 -0.000121158 -7.17817e-05)
(0.0461821 5.10148e-05 0.00018898)
(0.0461821 5.10148e-05 0.00018898)
(0.085482 -7.9893e-05 0.000606213)
(0.0959515 5.67735e-05 0.000686345)
(0.106802 -0.000460276 0.000835256)
(0.115794 -0.000743857 0.000704197)
(0.119464 -0.00090965 0.000581034)
(0.120184 -0.000966485 0.000398514)
(0.118808 -0.000954953 0.000134217)
(0.118808 -0.000954953 0.000134217)
(0.115067 -0.000919941 -0.000187815)
(0.106799 -0.000843244 -0.000466461)
(0.0883476 -0.000408898 -0.000407045)
(0.0883476 -0.000408898 -0.000407045)
(0.0883476 -0.000408898 -0.000407045)
(0.0883476 -0.000408898 -0.000407045)
(0.0517887 -0.000151275 -0.000279315)
(0.0553662 6.94047e-05 0.00030983)
(0.0553662 6.94047e-05 0.00030983)
(0.0959515 5.67735e-05 0.000686345)
(0.0959515 5.67735e-05 0.000686345)
(0.0959515 5.67735e-05 0.000686345)
(0.115051 -0.000181568 0.000904063)
(0.115051 -0.000181568 0.000904063)
(0.123178 -0.000412844 0.000704248)
(0.123178 -0.000412844 0.000704248)
(0.126684 -0.000565079 0.00050431)
(0.126684 -0.000565079 0.00050431)
(0.127581 -0.000640257 0.000247412)
(0.127581 -0.000640257 0.000247412)
(0.127581 -0.000640257 0.000247412)
(0.126174 -0.000712678 -6.41897e-05)
(0.123178 -0.000713315 -0.000408672)
(0.123178 -0.000713315 -0.000408672)
(0.123178 -0.000713315 -0.000408672)
(0.115797 -0.000704164 -0.00073597)
(0.115797 -0.000704164 -0.00073597)
(0.0989278 -0.000415314 -0.000718621)
(0.0989278 -0.000415314 -0.000718621)
(0.0604263 -0.000169252 -0.000520729)
(0.0620571 9.60633e-05 0.000552571)
(0.101358 0.000251487 0.000834748)
(0.101358 0.000251487 0.000834748)
(0.118556 0.000147888 0.000980661)
(0.118556 0.000147888 0.000980661)
(0.126167 -7.12388e-05 0.000706143)
(0.126167 -7.12388e-05 0.000706143)
(0.129623 -0.000232318 0.000437001)
(0.129623 -0.000232318 0.000437001)
(0.130613 -0.000345718 0.000122269)
(0.129626 -0.000441682 -0.00022214)
(0.126354 -0.000525345 -0.000578642)
(0.119248 -0.000594048 -0.00093438)
(0.103247 -0.000439402 -0.000946328)
(0.0649611 -0.00020289 -0.000759445)
(0.0649611 -0.00020289 -0.000759445)
(0.0649611 -0.00020289 -0.000759445)
(0.0654336 0.000157551 0.000757363)
(0.0654336 0.000157551 0.000757363)
(0.103685 0.000396764 0.00097679)
(0.10361 0.000373122 0.000915486)
(0.10361 0.000373122 0.000915486)
(0.10361 0.000373122 0.000915486)
(0.119702 0.000418443 0.00101577)
(0.119246 0.000583488 0.000932571)
(0.126898 0.000259506 0.000679457)
(0.126355 0.000515695 0.000572368)
(0.13024 0.000122068 0.000343773)
(0.13161 -4.09066e-06 -2.4912e-06)
(0.129621 0.000438544 0.000220704)
(0.13161 -4.09066e-06 -2.4912e-06)
(0.130611 -0.000123429 -0.000339271)
(0.127242 -0.000258473 -0.000660989)