/*--------------------------------*- C++ -*----------------------------------*\
| =========                 |                                                 |
| \\      /  F ield         | OpenFOAM: The Open Source CFD Toolbox           |
|  \\    /   O peration     | Version:  2212                                  |
|   \\  /    A nd           | Website:  www.openfoam.com                      |
|    \\/     M anipulation  |                                                 |
\*---------------------------------------------------------------------------*/
FoamFile
{
    version     2.0;
    format      ascii;
    arch        "LSB;label=32;scalar=64";
    class       surfaceVectorField;
    location    "1.25";
    object      Uf;
}
// * * * * * * * * * * * * * * * * * * * * * * * * * * * * * * * * * * * * * //

dimensions      [0 1 -1 0 0 0 0];

internalField   nonuniform List<vector> 
1763
(
(0.0217762 1.97215e-05 3.24833e-05)
(0.0279718 -1.51694e-05 7.95314e-05)
(0.0216193 1.63041e-05 3.00061e-05)
(0.0277671 -1.43787e-05 7.14786e-05)
(0.0266863 4.20162e-05 2.86831e-05)
(0.021467 1.17528e-05 2.78071e-05)
(0.027582 -1.57729e-05 6.43538e-05)
(0.0265042 3.49918e-05 2.8868e-05)
(0.0213176 6.81224e-06 2.36325e-05)
(0.0273963 -1.8507e-05 5.63448e-05)
(0.026321 2.65877e-05 2.94964e-05)
(0.0211792 4.26768e-07 1.95113e-05)
(0.0272413 -1.98321e-05 4.62235e-05)
(0.0261681 1.61759e-05 2.69879e-05)
(0.0269981 -2.50816e-05 3.36517e-05)
(0.0259344 6.37414e-06 2.60025e-05)
(0.0370154 -6.23244e-05 0.000121963)
(0.043651 -0.000161258 0.000149962)
(0.0499676 -3.17236e-05 0.000169018)
(0.0367668 -5.8136e-05 0.000107499)
(0.0433356 -0.000147628 0.00012912)
(0.0496354 -3.05968e-05 0.000157855)
(0.036532 -5.7392e-05 9.58467e-05)
(0.0430529 -0.000135503 0.000112617)
(0.0493385 -3.60384e-05 0.000151836)
(0.0363071 -5.56125e-05 8.1844e-05)
(0.0427808 -0.000125152 9.86996e-05)
(0.0490564 -4.33738e-05 0.000143778)
(0.0361075 -5.55118e-05 6.50722e-05)
(0.0425526 -0.000111175 7.86894e-05)
(0.0488227 -4.65518e-05 0.000127827)
(0.0422091 -0.000103837 6.54662e-05)
(0.0484805 -5.70308e-05 0.000108501)
(0.0515596 -0.000269095 0.000161221)
(0.0512029 -0.000245563 0.000139228)
(0.0553921 -0.000362092 0.000156317)
(0.0683889 -0.000300879 0.0002552)
(0.050871 -0.000221197 0.000118831)
(0.0550276 -0.000329437 0.000134431)
(0.068091 -0.000283103 0.000238401)
(0.0505636 -0.000196152 9.87131e-05)
(0.0546797 -0.000296062 0.000114975)
(0.067799 -0.000266335 0.000221702)
(0.050284 -0.000172282 8.14432e-05)
(0.0543907 -0.000260897 9.47404e-05)
(0.0675566 -0.000243745 0.000197041)
(0.0539588 -0.000224943 8.31866e-05)
(0.0671899 -0.00021492 0.000164875)
(0.059778 -0.000459901 0.000150176)
(0.062138 -0.000592928 0.000170484)
(0.0781465 -0.000555602 0.000260662)
(0.0593935 -0.000417005 0.000130014)
(0.0617166 -0.000546655 0.000152535)
(0.07787 -0.000516759 0.000242254)
(0.0590349 -0.000372211 0.000111059)
(0.061315 -0.000492006 0.000132284)
(0.0775985 -0.000479299 0.000225136)
(0.0587039 -0.000323317 9.73907e-05)
(0.0609787 -0.000430438 0.000113437)
(0.0773692 -0.000437308 0.000205108)
(0.0604863 -0.000361325 0.000101381)
(0.0770224 -0.000372009 0.000175367)
(0.0642402 -0.000687229 0.000176287)
(0.0826856 -0.000759869 0.000275183)
(0.0637994 -0.000628674 0.000158206)
(0.0642088 -0.000665769 0.000140611)
(0.0824024 -0.00071129 0.000258603)
(0.0633903 -0.000556387 0.00013739)
(0.0637819 -0.000598394 0.000123578)
(0.0821318 -0.00065478 0.000239679)
(0.0630172 -0.000473675 0.000118361)
(0.0634145 -0.000516674 0.000106793)
(0.0818972 -0.000589867 0.000219206)
(0.062901 -0.000422025 9.13898e-05)
(0.0815575 -0.000496072 0.000188975)
(0.0642023 -0.000634024 0.000111013)
(0.0627489 -0.000558826 9.374e-05)
(0.0829133 -0.0007269 0.000218426)
(0.0637875 -0.00055755 9.66961e-05)
(0.0623423 -0.000496662 8.02825e-05)
(0.0826532 -0.000668966 0.000202195)
(0.0634141 -0.000464153 8.22085e-05)
(0.061985 -0.00042176 7.06335e-05)
(0.0824256 -0.000594735 0.000184354)
(0.0614995 -0.000332103 5.87571e-05)
(0.082107 -0.000490646 0.000158107)
(0.0609317 -0.000425007 6.04749e-05)
(0.057915 -0.000372135 5.53496e-05)
(0.0800699 -0.000594331 0.000134788)
(0.0605519 -0.000363456 5.36257e-05)
(0.0575373 -0.000326783 5.00193e-05)
(0.0798325 -0.000545922 0.000122333)
(0.0602103 -0.000291132 4.88432e-05)
(0.0572103 -0.000268212 5.01305e-05)
(0.0796227 -0.000481552 0.000111921)
(0.0567735 -0.000204808 4.44742e-05)
(0.0793295 -0.000389317 9.38352e-05)
(0.0547458 -0.000271237 6.03031e-05)
(0.0500868 -0.000221811 6.30116e-05)
(0.0740736 -0.000458528 5.36005e-05)
(0.0543909 -0.000230766 5.67718e-05)
(0.0497526 -0.000196897 5.72707e-05)
(0.0738138 -0.000426488 4.71374e-05)
(0.0540791 -0.000182922 5.09518e-05)
(0.0494681 -0.00015941 5.07008e-05)
(0.0735922 -0.000381155 4.17277e-05)
(0.0490828 -0.000129865 3.7163e-05)
(0.0732823 -0.000317691 3.28056e-05)
(0.0456893 -0.000168204 4.05598e-05)
(0.0392341 -0.000122455 2.67761e-05)
(0.0637794 -0.000339526 -1.3641e-05)
(0.045395 -0.000142482 3.60193e-05)
(0.0389718 -0.000110387 2.32151e-05)
(0.0634869 -0.000318337 -1.57102e-05)
(0.0451352 -0.000118015 2.74507e-05)
(0.0387509 -8.93274e-05 1.86194e-05)
(0.063233 -0.000285346 -1.83985e-05)
(0.0384303 -8.04423e-05 9.47009e-06)
(0.0628706 -0.000251182 -2.36713e-05)
(0.0340552 -5.41409e-05 4.58255e-05)
(0.0266879 -2.81801e-05 3.8555e-05)
(0.0338228 -5.16584e-05 3.86148e-05)
(0.0264963 -2.67323e-05 3.39667e-05)
(0.0478262 -0.000125626 -2.8191e-07)
(0.0335999 -4.81822e-05 2.84453e-05)
(0.0263114 -2.75465e-05 2.69165e-05)
(0.0475392 -0.00012752 -8.19631e-06)
(0.0334044 -4.69847e-05 1.60027e-05)
(0.026156 -2.59459e-05 1.61729e-05)
(0.0472993 -0.000120371 -1.78175e-05)
(0.0259068 -2.63932e-05 6.39508e-06)
(0.046954 -0.000112936 -2.80045e-05)
(0.0216195 -2.82745e-05 1.42049e-05)
(0.0277823 -6.74505e-05 -1.92577e-05)
(0.0214687 -2.70633e-05 1.12837e-05)
(0.0275864 -6.40694e-05 -1.82712e-05)
(0.0213145 -2.40979e-05 7.13557e-06)
(0.0273943 -6.0161e-05 -1.88334e-05)
(0.0211672 -2.04882e-05 1.23479e-06)
(0.0272326 -5.11997e-05 -1.88776e-05)
(0.0269704 -3.82845e-05 -2.36907e-05)
(0.0340679 5.09007e-05 5.17387e-05)
(0.0481291 7.43833e-06 0.000138)
(0.0338397 4.14925e-05 5.2435e-05)
(0.0478363 1.71958e-06 0.000137466)
(0.0392585 3.66465e-05 0.000112611)
(0.033621 2.99314e-05 5.09512e-05)
(0.0475578 -6.30559e-06 0.0001354)
(0.0390033 2.99197e-05 0.00010384)
(0.0334301 1.77531e-05 4.86005e-05)
(0.0473269 -1.48923e-05 0.000122015)
(0.0387873 2.27895e-05 8.7575e-05)
(0.046998 -2.47819e-05 0.000109087)
(0.038479 1.31813e-05 7.88141e-05)
(0.0659022 -5.57036e-05 0.000275361)
(0.0655114 -5.58321e-05 0.000264786)
(0.0761952 -0.000215728 0.00036491)
(0.0747174 -8.52866e-05 0.000428182)
(0.0651508 -5.84721e-05 0.00025164)
(0.07588 -0.000209546 0.000344599)
(0.0743792 -7.96268e-05 0.000413732)
(0.064823 -6.22846e-05 0.000232506)
(0.0755757 -0.000203344 0.000320158)
(0.0740538 -7.79816e-05 0.000393598)
(0.064526 -6.76539e-05 0.000204243)
(0.0753265 -0.000193858 0.000288306)
(0.0737907 -7.55799e-05 0.000359554)
(0.0749613 -0.000173948 0.000234777)
(0.0734087 -7.37451e-05 0.00029877)
(0.0882551 -0.000394843 0.000409108)
(0.093335 -0.000533664 0.000407597)
(0.0970937 -0.000449689 0.000616318)
(0.0880042 -0.000378308 0.000390991)
(0.0931358 -0.000508425 0.000392267)
(0.096976 -0.000429718 0.000594587)
(0.0877583 -0.00035687 0.000363651)
(0.0929293 -0.000483455 0.000372817)
(0.0968481 -0.00040634 0.000564764)
(0.0875214 -0.000318828 0.000314575)
(0.0927541 -0.000449152 0.000343302)
(0.0967365 -0.000377689 0.000520287)
(0.0924831 -0.000378663 0.000280062)
(0.0965484 -0.000315685 0.000431938)
(0.0987127 -0.000659944 0.000388297)
(0.100859 -0.000760208 0.000392013)
(0.106974 -0.000721747 0.000543681)
(0.0985655 -0.000625367 0.000372191)
(0.100739 -0.0007191 0.000376397)
(0.106967 -0.000685206 0.000522934)
(0.098416 -0.000586672 0.000351275)
(0.100615 -0.000679237 0.000360517)
(0.106955 -0.000647814 0.000502041)
(0.0982685 -0.000518454 0.000308261)
(0.1005 -0.000628727 0.000336329)
(0.106937 -0.000599907 0.000469958)
(0.100325 -0.000527566 0.000281766)
(0.106898 -0.000500134 0.000392644)
(0.102999 -0.000823043 0.000383278)
(0.103296 -0.000849556 0.000369673)
(0.111016 -0.000888791 0.000485944)
(0.102904 -0.00077677 0.000365692)
(0.103216 -0.000808238 0.000352891)
(0.111057 -0.000843713 0.00046666)
(0.102808 -0.000724971 0.000345421)
(0.10313 -0.000762245 0.000335972)
(0.111094 -0.000793044 0.000444579)
(0.102709 -0.000641216 0.000309311)
(0.103051 -0.000699499 0.000313032)
(0.11112 -0.000730857 0.000414667)
(0.102927 -0.000588853 0.000269058)
(0.111142 -0.000613441 0.000353789)
(0.103517 -0.000833413 0.000343903)
(0.102417 -0.000812809 0.00029359)
(0.111649 -0.000918085 0.000377108)
(0.103446 -0.000792237 0.000328439)
(0.102352 -0.000780608 0.000279872)
(0.111715 -0.000874524 0.000361673)
(0.103373 -0.000735593 0.000307677)
(0.10228 -0.000739829 0.000263734)
(0.111774 -0.000823634 0.000341933)
(0.1033 -0.00064628 0.000275616)
(0.102216 -0.000674997 0.000241059)
(0.111826 -0.00075276 0.000314829)
(0.10211 -0.000567979 0.000203793)
(0.11188 -0.000632991 0.000268447)
(0.101272 -0.000764874 0.000219309)
(0.109813 -0.000868601 0.000184216)
(0.101205 -0.00073303 0.000204799)
(0.0984562 -0.000704275 0.000118959)
(0.109889 -0.000832559 0.000171258)
(0.101136 -0.000683346 0.000188449)
(0.0983525 -0.000673214 0.000107274)
(0.109955 -0.000787006 0.000157356)
(0.101068 -0.00059949 0.000163871)
(0.0982617 -0.000624405 9.47816e-05)
(0.110013 -0.000721353 0.000140488)
(0.0981121 -0.000527783 7.77247e-05)
(0.110073 -0.000608916 0.000112661)
(0.0957495 -0.000640427 3.94699e-05)
(0.0900754 -0.000605065 -2.03868e-05)
(0.105185 -0.000772306 -5.89893e-05)
(0.0956158 -0.000609717 3.14611e-05)
(0.0898645 -0.000579581 -2.39035e-05)
(0.105198 -0.000736237 -6.2555e-05)
(0.0954818 -0.000549034 2.28952e-05)
(0.0896787 -0.000545535 -2.8032e-05)
(0.105208 -0.00069029 -6.46866e-05)
(0.0893963 -0.00046504 -2.91121e-05)
(0.105199 -0.000581857 -6.32969e-05)
(0.0847155 -0.000549331 -7.94916e-05)
(0.0743639 -0.000405438 -8.89333e-05)
(0.0952477 -0.000703986 -0.000243348)
(0.0844401 -0.000520323 -7.9332e-05)
(0.0740412 -0.000390445 -8.77467e-05)
(0.0951076 -0.000667082 -0.000235899)
(0.0841749 -0.000467 -7.79396e-05)
(0.0737642 -0.000363318 -8.44489e-05)
(0.0949822 -0.000616853 -0.000223394)
(0.0733715 -0.000308836 -8.1211e-05)
(0.09478 -0.00051875 -0.000197956)
(0.0651475 -0.000241258 -6.04603e-05)
(0.0493453 -0.000144105 -3.63361e-05)
(0.0758691 -0.0003381 -0.000208274)
(0.0648005 -0.000234782 -6.6916e-05)
(0.0490484 -0.00014358 -4.08997e-05)
(0.0755671 -0.000326457 -0.000205346)
(0.0644861 -0.000212732 -7.28353e-05)
(0.0487998 -0.000132669 -4.45952e-05)
(0.0753043 -0.000298686 -0.000198608)
(0.0484362 -0.000116716 -5.69553e-05)
(0.0749268 -0.000248735 -0.00018004)
(0.0367871 -0.000108883 -6.51823e-05)
(0.0433747 -0.000127739 -0.000155341)
(0.0365401 -0.000103367 -6.06828e-05)
(0.0430667 -0.000127149 -0.000144261)
(0.036299 -9.07941e-05 -5.49993e-05)
(0.0427776 -0.000117005 -0.000130396)
(0.0360862 -7.35398e-05 -5.33075e-05)
(0.0425343 -9.19571e-05 -0.000111424)
(0.0421697 -7.58283e-05 -0.000102054)
(0.0457237 5.20376e-05 0.000151983)
(0.063812 -5.5702e-06 0.000330267)
(0.0501211 7.49241e-05 0.000208647)
(0.0454419 4.48956e-05 0.000131032)
(0.0635151 -7.99202e-06 0.000314648)
(0.0497917 6.9242e-05 0.000180202)
(0.0451912 3.35405e-05 0.000112721)
(0.0632703 -1.07063e-05 0.000284578)
(0.0495206 5.93254e-05 0.000148122)
(0.0629136 -1.63891e-05 0.000245612)
(0.0491431 4.35528e-05 0.000124067)
(0.0850382 -7.52152e-05 0.000574009)
(0.0954084 -0.000244501 0.000722349)
(0.0847413 -7.5795e-05 0.000560404)
(0.0952646 -0.000239604 0.000702941)
(0.0900962 -2.13515e-05 0.000606668)
(0.0844559 -7.30029e-05 0.000528508)
(0.0951125 -0.000231959 0.000668023)
(0.0898731 -2.21552e-05 0.00058818)
(0.0841884 -6.88156e-05 0.000463756)
(0.094985 -0.000217995 0.000613784)
(0.0896816 -2.0913e-05 0.000549767)
(0.0947778 -0.00018926 0.000507519)
(0.0893959 -2.20107e-05 0.000456316)
(0.106856 -0.000435564 0.000791685)
(0.111229 -0.000572753 0.000729015)
(0.110892 -0.000310977 0.00082983)
(0.10688 -0.000420233 0.000764774)
(0.111313 -0.000550261 0.000709322)
(0.110997 -0.000307698 0.000807693)
(0.106889 -0.000398952 0.000722708)
(0.111389 -0.00052521 0.000685329)
(0.111091 -0.00029843 0.000773403)
(0.106883 -0.000356711 0.00064381)
(0.111443 -0.000490942 0.000643682)
(0.111163 -0.000282277 0.000721811)
(0.111497 -0.000418262 0.000549377)
(0.111238 -0.000243252 0.000620819)
(0.116025 -0.000693562 0.0006629)
(0.117772 -0.000785926 0.0006179)
(0.119595 -0.000549069 0.000666598)
(0.116167 -0.000661644 0.000640824)
(0.117936 -0.000751053 0.000598049)
(0.119802 -0.000526636 0.000642526)
(0.116299 -0.000623803 0.000612895)
(0.118097 -0.000711422 0.000576083)
(0.120004 -0.000503483 0.000620484)
(0.116417 -0.000558831 0.000553056)
(0.118229 -0.000662275 0.000542176)
(0.120175 -0.000472169 0.000587555)
(0.118401 -0.000569362 0.00046772)
(0.120399 -0.000411114 0.000514446)
(0.11976 -0.000846939 0.000549628)
(0.120038 -0.000893499 0.000468508)
(0.12323 -0.000694645 0.000515941)
(0.119944 -0.000804444 0.000528556)
(0.120237 -0.000852382 0.000451056)
(0.12347 -0.000663057 0.000497164)
(0.120118 -0.000753219 0.000500616)
(0.120428 -0.000804576 0.000429839)
(0.123701 -0.000627354 0.000476179)
(0.120278 -0.000675706 0.000453017)
(0.120596 -0.000745613 0.000401837)
(0.123904 -0.000584201 0.000447717)
(0.120809 -0.000644095 0.000348579)
(0.124167 -0.000513202 0.000396718)
(0.120516 -0.000897485 0.000374751)
(0.119727 -0.000909444 0.000255907)
(0.124055 -0.000753225 0.000305827)
(0.120724 -0.000850997 0.000357285)
(0.119947 -0.00086926 0.00024342)
(0.124312 -0.000717494 0.000292576)
(0.120923 -0.000795909 0.000334433)
(0.120155 -0.000823081 0.000227182)
(0.124559 -0.000679235 0.000276692)
(0.121105 -0.000713446 0.000299056)
(0.120339 -0.00076329 0.000206997)
(0.12478 -0.000630996 0.000256754)
(0.120572 -0.000663277 0.000174032)
(0.125064 -0.000556957 0.000224675)
(0.119163 -0.00088446 0.000117757)
(0.117119 -0.000890512 -3.67323e-05)
(0.122835 -0.000766395 2.73227e-05)
(0.119384 -0.000843968 0.000108015)
(0.117327 -0.000853848 -3.8952e-05)
(0.1231 -0.000734911 2.25214e-05)
(0.119593 -0.000792357 9.62931e-05)
(0.117522 -0.000813494 -4.25111e-05)
(0.123351 -0.000698684 1.72233e-05)
(0.119784 -0.000714207 8.05147e-05)
(0.117691 -0.000759993 -4.56512e-05)
(0.123575 -0.000650637 1.16415e-05)
(0.117905 -0.000658396 -4.57308e-05)
(0.123863 -0.000577375 4.73459e-06)
(0.115362 -0.000858965 -0.000183576)
(0.110896 -0.000836742 -0.000312704)
(0.119241 -0.000765055 -0.000287495)
(0.115543 -0.000822566 -0.000180385)
(0.111006 -0.000810417 -0.000306049)
(0.119473 -0.000732418 -0.000280459)
(0.115714 -0.000780195 -0.000175874)
(0.111099 -0.000775297 -0.000296868)
(0.119693 -0.00070292 -0.000272247)
(0.115869 -0.000703307 -0.000164106)
(0.111178 -0.000724412 -0.000281174)
(0.119884 -0.000663455 -0.000258686)
(0.111259 -0.000624521 -0.000245249)
(0.120133 -0.000583902 -0.000230708)
(0.106857 -0.000797479 -0.000439192)
(0.11123 -0.000731983 -0.00057131)
(0.106881 -0.000770953 -0.000424811)
(0.0969643 -0.000592297 -0.000431231)
(0.111322 -0.000710784 -0.000555429)
(0.106895 -0.000726062 -0.000402495)
(0.0968477 -0.000567511 -0.000410824)
(0.111393 -0.000682561 -0.00053107)
(0.106899 -0.000651118 -0.000361817)
(0.0967385 -0.000526982 -0.000383393)
(0.111457 -0.000640375 -0.000493927)
(0.0965536 -0.000447074 -0.000323302)
(0.111516 -0.000558962 -0.000426709)
(0.0879875 -0.000384067 -0.000376913)
(0.0680888 -0.000247829 -0.000291759)
(0.0931215 -0.000387001 -0.000512468)
(0.0877505 -0.00036684 -0.00035887)
(0.0677963 -0.000237258 -0.000272243)
(0.092927 -0.00037551 -0.000490031)
(0.087516 -0.000327285 -0.000324552)
(0.0675399 -0.000210474 -0.000245323)
(0.0927483 -0.000350782 -0.000452852)
(0.0671612 -0.000179824 -0.000217175)
(0.0924765 -0.000297355 -0.000386939)
(0.051235 -0.000150464 -0.000255126)
(0.055425 -0.000159873 -0.000368354)
(0.0508813 -0.000145535 -0.00023275)
(0.0550361 -0.000161383 -0.000338484)
(0.0505499 -0.000124173 -0.000203177)
(0.054679 -0.000146004 -0.000303293)
(0.0502539 -9.87227e-05 -0.000173413)
(0.0543709 -0.000116508 -0.000262615)
(0.0539249 -9.75742e-05 -0.000223035)
(0.0547836 7.17958e-05 0.000258443)
(0.0740965 5.94845e-05 0.000447544)
(0.0579546 6.18374e-05 0.000369164)
(0.0544331 6.86996e-05 0.000213873)
(0.0738353 5.35488e-05 0.000415336)
(0.0575722 6.0373e-05 0.000315409)
(0.0541275 6.05344e-05 0.000170367)
(0.0736129 4.85948e-05 0.000374151)
(0.057252 6.05146e-05 0.000255342)
(0.0733024 3.94706e-05 0.000310008)
(0.0568168 5.15343e-05 0.000197107)
(0.0957541 4.01387e-05 0.000636652)
(0.10518 -5.85535e-05 0.000766672)
(0.098458 0.000117467 0.000698374)
(0.0956129 3.26863e-05 0.000614852)
(0.105194 -6.38028e-05 0.00073742)
(0.0983542 0.000103995 0.000674351)
(0.0954695 2.65736e-05 0.000548606)
(0.105194 -6.49189e-05 0.000692317)
(0.0982526 9.34099e-05 0.000628107)
(0.10518 -6.27334e-05 0.00057979)
(0.098098 7.9694e-05 0.000521389)
(0.115347 -0.000181805 0.000852307)
(0.119234 -0.000287528 0.000753739)
(0.117109 -3.29178e-05 0.000888454)
(0.115528 -0.000182137 0.000821062)
(0.119464 -0.00028147 0.000728788)
(0.117313 -3.80867e-05 0.000855405)
(0.115699 -0.000178878 0.000777291)
(0.119684 -0.000273071 0.000701375)
(0.117508 -4.53072e-05 0.000812273)
(0.115855 -0.000167723 0.000704141)
(0.119875 -0.000260299 0.000662502)
(0.117678 -4.99724e-05 0.000756617)
(0.120121 -0.000232892 0.000587055)
(0.117891 -4.93482e-05 0.000659253)
(0.123606 -0.00038729 0.000652543)
(0.125203 -0.00046291 0.000575697)
(0.12512 -0.00023566 0.000655398)
(0.123877 -0.000372879 0.000627841)
(0.125488 -0.000443257 0.000553251)
(0.12541 -0.000226842 0.00062907)
(0.124137 -0.000355763 0.000600299)
(0.125764 -0.000423442 0.000531916)
(0.125691 -0.000218942 0.000602761)
(0.12438 -0.000327609 0.000553653)
(0.126008 -0.000397789 0.000502478)
(0.12594 -0.000208162 0.000566768)
(0.126328 -0.00035538 0.000451311)
(0.126263 -0.000188591 0.000507692)
(0.127145 -0.000522359 0.000469294)
(0.127448 -0.000570302 0.000354246)
(0.128632 -0.000376998 0.000441377)
(0.127436 -0.000497109 0.000450297)
(0.127749 -0.000543069 0.000338879)
(0.128941 -0.000357999 0.000423254)
(0.127714 -0.000468255 0.000428232)
(0.128039 -0.000515594 0.000323911)
(0.129238 -0.000339377 0.000404428)
(0.127975 -0.000428008 0.000394961)
(0.128297 -0.000480619 0.00030453)
(0.129504 -0.000316509 0.000379702)
(0.128635 -0.000430006 0.000273989)
(0.129845 -0.000284999 0.000343528)
(0.128054 -0.000589699 0.000227902)
(0.127368 -0.000626683 8.65455e-05)
(0.129583 -0.000463414 0.000173513)
(0.128354 -0.000560512 0.00021566)
(0.127673 -0.00059805 7.91861e-05)
(0.129897 -0.000440497 0.000164121)
(0.128641 -0.000527288 0.000202143)
(0.127966 -0.000568071 7.20833e-05)
(0.1302 -0.00041728 0.000154785)
(0.12891 -0.000482427 0.000183955)
(0.128228 -0.000529392 6.47711e-05)
(0.130472 -0.000388255 0.000143882)
(0.12857 -0.000475025 5.44439e-05)
(0.130822 -0.000353025 0.000129806)
(0.126677 -0.000665862 -6.47484e-05)
(0.12822 -0.000555781 -0.000137742)
(0.126989 -0.00063662 -6.56839e-05)
(0.125125 -0.000662701 -0.000232089)
(0.128552 -0.000531013 -0.000135471)
(0.127288 -0.000606721 -6.66177e-05)
(0.125416 -0.000634011 -0.000226239)
(0.128864 -0.000507857 -0.000132866)
(0.127574 -0.000570892 -6.64395e-05)
(0.125694 -0.000605601 -0.000220259)
(0.129164 -0.000482707 -0.00012877)
(0.127841 -0.000522167 -6.44194e-05)
(0.125942 -0.000567741 -0.000209115)
(0.129434 -0.000449945 -0.00012222)
(0.126267 -0.00050849 -0.000189233)
(0.12978 -0.000405793 -0.000112357)
(0.123608 -0.000658875 -0.000384771)
(0.119599 -0.000669395 -0.000542901)
(0.125202 -0.000580966 -0.000460354)
(0.12388 -0.000631841 -0.000372794)
(0.119811 -0.000646963 -0.000528854)
(0.125489 -0.000558181 -0.000445117)
(0.12414 -0.000601288 -0.000356112)
(0.120008 -0.000621728 -0.000507446)
(0.125764 -0.000535614 -0.000426303)
(0.124383 -0.000552827 -0.000327416)
(0.120184 -0.000584818 -0.000473287)
(0.126009 -0.000503377 -0.000398815)
(0.120408 -0.000517997 -0.000416343)
(0.126328 -0.000451384 -0.000355756)
(0.116034 -0.000664375 -0.000693003)
(0.106976 -0.000542111 -0.000717975)
(0.117774 -0.0006173 -0.000785763)
(0.116177 -0.000642084 -0.000666623)
(0.106972 -0.000528036 -0.000690827)
(0.117944 -0.000600889 -0.000756264)
(0.11631 -0.000610315 -0.00062795)
(0.106957 -0.000507475 -0.000656261)
(0.1181 -0.000577318 -0.000716644)
(0.116429 -0.000554433 -0.000564749)
(0.106942 -0.000472037 -0.000603295)
(0.11824 -0.000541346 -0.000665786)
(0.106904 -0.000404835 -0.000508686)
(0.118409 -0.000475416 -0.000577993)
(0.098711 -0.000391224 -0.000663977)
(0.0781541 -0.000264415 -0.00055817)
(0.100861 -0.000395706 -0.000762511)
(0.0985617 -0.000382731 -0.00063744)
(0.0778681 -0.000261248 -0.000526531)
(0.100741 -0.000386266 -0.000732586)
(0.0984126 -0.000361198 -0.000594963)
(0.0775985 -0.000246467 -0.000487654)
(0.100613 -0.000371507 -0.000694055)
(0.0982676 -0.000320754 -0.000524682)
(0.0773598 -0.000220519 -0.000438373)
(0.100499 -0.000344068 -0.00063098)
(0.0770096 -0.000191505 -0.000374532)
(0.100324 -0.000297232 -0.000534497)
(0.0597875 -0.000167541 -0.000465491)
(0.0621532 -0.000184651 -0.000597585)
(0.0593929 -0.00015749 -0.000421441)
(0.0617176 -0.000174801 -0.000549305)
(0.0590261 -0.000136922 -0.000373854)
(0.0613193 -0.000155579 -0.000492425)
(0.0586896 -0.000116419 -0.000321827)
(0.060969 -0.000133065 -0.000428091)
(0.0604724 -0.000115848 -0.000357229)
(0.0613834 7.64783e-05 0.000480616)
(0.0803454 0.000152027 0.000637773)
(0.0632411 0.000111428 0.000612745)
(0.0609693 6.65492e-05 0.000423369)
(0.0800905 0.00013667 0.000595542)
(0.0627934 9.7243e-05 0.000561629)
(0.0605853 6.15747e-05 0.000356841)
(0.0798495 0.000124179 0.000541332)
(0.0623741 8.51668e-05 0.000497739)
(0.060241 5.62068e-05 0.000283508)
(0.0796375 0.000114184 0.000475424)
(0.0620174 7.6426e-05 0.000421031)
(0.0793419 9.61772e-05 0.000383932)
(0.0615268 6.47714e-05 0.000331486)
(0.101267 0.000218984 0.000763217)
(0.109807 0.000184947 0.000870275)
(0.102413 0.000296477 0.000814368)
(0.101201 0.000201863 0.000730845)
(0.109882 0.00016973 0.000832229)
(0.102349 0.000280186 0.000777463)
(0.101133 0.000184471 0.000681903)
(0.109948 0.000154053 0.00078596)
(0.102278 0.000261908 0.00073816)
(0.101063 0.000160797 0.000597083)
(0.110006 0.000136693 0.000719808)
(0.102212 0.000238162 0.000676974)
(0.110064 0.000109679 0.000604945)
(0.102107 0.000199908 0.00056192)
(0.118926 0.000128915 0.000929138)
(0.122547 3.0094e-05 0.000798897)
(0.119489 0.000267371 0.000954213)
(0.119153 0.000118347 0.000891918)
(0.122827 2.59319e-05 0.000766981)
(0.119721 0.000256925 0.000919481)
(0.119372 0.000106555 0.000846454)
(0.12309 2.25348e-05 0.00073514)
(0.119938 0.000243703 0.000877508)
(0.119582 9.29855e-05 0.000790329)
(0.123343 1.71204e-05 0.00069656)
(0.120148 0.000226816 0.000826682)
(0.119774 7.66555e-05 0.000710553)
(0.123569 1.08953e-05 0.000647229)
(0.120333 0.00020564 0.000762161)
(0.123857 3.64921e-06 0.000574078)
(0.120566 0.000171346 0.000661981)
(0.126668 -7.04528e-05 0.000658237)
(0.128215 -0.000146396 0.000549258)
(0.12704 8.63447e-05 0.00065129)
(0.126982 -6.73983e-05 0.000630747)
(0.128547 -0.000138975 0.000526895)
(0.127362 8.48205e-05 0.000625281)
(0.127283 -6.50266e-05 0.000602636)
(0.128861 -0.000131541 0.000504947)
(0.127668 8.21295e-05 0.000598835)
(0.12757 -6.37085e-05 0.000567723)
(0.129162 -0.000125239 0.000479976)
(0.127963 7.68932e-05 0.000567871)
(0.127838 -6.2165e-05 0.000519333)
(0.129433 -0.000118833 0.00044733)
(0.128226 6.87701e-05 0.000527639)
(0.129778 -0.000109935 0.000403464)
(0.128566 5.67242e-05 0.00047256)
(0.13015 -0.000218353 0.000410551)
(0.130474 -0.000278129 0.000266546)
(0.130474 -5.41756e-05 0.000370068)
(0.13048 -0.000206455 0.000393743)
(0.130816 -0.000264702 0.000255112)
(0.130814 -4.87771e-05 0.00035708)
(0.130796 -0.000194682 0.000375948)
(0.131139 -0.000250847 0.000243931)
(0.131138 -4.46155e-05 0.000343093)
(0.131096 -0.000182767 0.000354632)
(0.131449 -0.000236485 0.000231733)
(0.131447 -4.21161e-05 0.000326157)
(0.131375 -0.000168761 0.000326983)
(0.131729 -0.000220482 0.00021709)
(0.131727 -4.0307e-05 0.000304961)
(0.132083 -0.000203149 0.00019844)
(0.13208 -3.71433e-05 0.000279865)
(0.131144 -0.000323723 0.000113622)
(0.130476 -0.000377252 -4.73152e-05)
(0.13147 -0.000166485 5.74514e-05)
(0.131477 -0.000308476 0.000107389)
(0.130816 -0.000361041 -4.79783e-05)
(0.131814 -0.0001577 5.50518e-05)
(0.131796 -0.000292234 0.000101166)
(0.13114 -0.000344441 -4.82726e-05)
(0.132142 -0.000149246 5.24697e-05)
(0.1321 -0.00027406 9.4758e-05)
(0.131449 -0.000326277 -4.71916e-05)
(0.132456 -0.000140647 4.96621e-05)
(0.132383 -0.000255051 8.81441e-05)
(0.13173 -0.000304758 -4.46299e-05)
(0.132738 -0.00013218 4.67704e-05)
(0.132084 -0.000279603 -4.01319e-05)
(0.133104 -0.0001233 4.34371e-05)
(0.130152 -0.000415491 -0.000211287)
(0.128305 -0.000465933 -0.00038741)
(0.130474 -0.0002701 -0.000269364)
(0.130481 -0.000397629 -0.000205168)
(0.128631 -0.00044696 -0.00037401)
(0.130814 -0.000258871 -0.000260111)
(0.130797 -0.000378885 -0.000197547)
(0.12894 -0.000428423 -0.000360908)
(0.131138 -0.000247032 -0.000250822)
(0.131097 -0.000357149 -0.000186871)
(0.129237 -0.000408325 -0.000343859)
(0.131448 -0.00023425 -0.000238609)
(0.131376 -0.000329187 -0.000172305)
(0.129503 -0.000382306 -0.000319901)
(0.13173 -0.000219229 -0.000222555)
(0.129844 -0.000345421 -0.000287123)
(0.132084 -0.000200195 -0.000204498)
(0.126838 -0.000495341 -0.000542612)
(0.122971 -0.000537944 -0.00071923)
(0.127127 -0.000374513 -0.000590501)
(0.127142 -0.000476088 -0.000523464)
(0.123226 -0.000520117 -0.000695486)
(0.127444 -0.000359537 -0.000568559)
(0.127435 -0.000456377 -0.00050162)
(0.123469 -0.000501723 -0.000668421)
(0.127746 -0.00034504 -0.000547696)
(0.127713 -0.000432106 -0.000471795)
(0.1237 -0.000479612 -0.000632382)
(0.128037 -0.000328701 -0.000520414)
(0.127972 -0.00039709 -0.000429561)
(0.123907 -0.000450258 -0.000587499)
(0.128297 -0.000307693 -0.000482467)
(0.124167 -0.000401722 -0.000517945)
(0.128633 -0.000276566 -0.000429838)
(0.119565 -0.00056956 -0.000885366)
(0.110972 -0.000510164 -0.00093437)
(0.119821 -0.000487619 -0.000929197)
(0.119759 -0.00055186 -0.000852332)
(0.111019 -0.000492943 -0.000894585)
(0.120032 -0.000472414 -0.000897375)
(0.119946 -0.000530515 -0.000810117)
(0.111061 -0.000475456 -0.000854332)
(0.120235 -0.000454806 -0.000858559)
(0.120123 -0.00050279 -0.000758035)
(0.111093 -0.000451859 -0.000803733)
(0.120429 -0.000432293 -0.000810078)
(0.120281 -0.000458322 -0.000682002)
(0.111123 -0.000419608 -0.000733113)
(0.1206 -0.000404235 -0.00074896)
(0.111142 -0.000364388 -0.000619142)
(0.12081 -0.000355584 -0.00064976)
(0.103103 -0.000411431 -0.00087551)
(0.103389 -0.000398115 -0.000904415)
(0.103006 -0.000396671 -0.000834503)
(0.0826966 -0.000288026 -0.000764632)
(0.103306 -0.000381926 -0.000860435)
(0.102907 -0.000379499 -0.000792417)
(0.082408 -0.000274638 -0.000716426)
(0.103224 -0.000367968 -0.00082204)
(0.102808 -0.00035539 -0.000733525)
(0.0821347 -0.000254712 -0.000659589)
(0.103131 -0.000348664 -0.000774444)
(0.102709 -0.000319794 -0.000644118)
(0.0818951 -0.000231708 -0.000588361)
(0.103051 -0.00032069 -0.000699828)
(0.0815546 -0.000202499 -0.00049572)
(0.102926 -0.000279524 -0.000587591)
(0.0642475 -0.000192954 -0.000689202)
(0.0646785 -0.00016659 -0.000719895)
(0.0638032 -0.000176599 -0.000626991)
(0.0642129 -0.000155497 -0.000661726)
(0.0633903 -0.000154851 -0.000552511)
(0.0637857 -0.00013993 -0.000591446)
(0.0630159 -0.000133309 -0.000468593)
(0.0634112 -0.000122912 -0.000508771)
(0.0628992 -0.000104078 -0.000413775)
(0.0646975 0.000128142 0.000697994)
(0.0832141 0.000238478 0.000779804)
(0.0647178 0.00015535 0.000718702)
(0.0642414 0.00011211 0.000640083)
(0.0829361 0.000220357 0.000729496)
(0.0642547 0.000135208 0.000669109)
(0.063819 0.000100166 0.000564351)
(0.0826679 0.000203831 0.000672429)
(0.063819 0.000121503 0.000604513)
(0.0634395 8.71532e-05 0.000470378)
(0.0824411 0.000186383 0.000600358)
(0.0634461 0.000111131 0.000523487)
(0.0821205 0.000158469 0.00049014)
(0.0629264 9.56461e-05 0.000429363)
(0.10351 0.000347309 0.000833556)
(0.111644 0.00038008 0.000923742)
(0.103297 0.000374177 0.000853343)
(0.103442 0.000330189 0.000789495)
(0.11171 0.000364187 0.000876861)
(0.103214 0.000359661 0.000810859)
(0.103372 0.000307533 0.000737154)
(0.111772 0.000343147 0.000826463)
(0.103126 0.000339444 0.000765881)
(0.103301 0.000272515 0.000644378)
(0.111823 0.000313808 0.00075572)
(0.103048 0.000310564 0.000701064)
(0.111881 0.00026524 0.000628919)
(0.102927 0.00026642 0.000587315)
(0.120066 0.000400475 0.00097724)
(0.123495 0.000324697 0.000814034)
(0.120295 0.000390109 0.000947278)
(0.12378 0.000314604 0.000789015)
(0.11982 0.000479683 0.000932285)
(0.120512 0.00037743 0.000907617)
(0.124052 0.000305676 0.000758834)
(0.120032 0.000469668 0.000899208)
(0.120722 0.000359525 0.000860101)
(0.124309 0.000294923 0.000724095)
(0.120233 0.000455831 0.000858365)
(0.120921 0.000334989 0.000800845)
(0.124558 0.000279455 0.000683926)
(0.120426 0.000433072 0.000808774)
(0.121104 0.000298215 0.00071496)
(0.124777 0.000258308 0.00063162)
(0.120595 0.000401169 0.000746361)
(0.12506 0.000225162 0.000556213)
(0.120806 0.000348531 0.000646579)
(0.127413 0.000243351 0.000643232)
(0.128902 0.000182622 0.000496082)
(0.12774 0.000235657 0.000620871)
(0.12925 0.000176188 0.000481539)
(0.127129 0.00036327 0.000591184)
(0.128052 0.000228735 0.000595776)
(0.129579 0.000172034 0.000465716)
(0.127444 0.00035232 0.000570679)
(0.128352 0.000219706 0.000565993)
(0.129894 0.000167329 0.000446046)
(0.127745 0.000343047 0.000547843)
(0.128639 0.000206526 0.000529138)
(0.130197 0.000159684 0.000421527)
(0.128036 0.00032926 0.000518911)
(0.128906 0.000187155 0.000481347)
(0.130469 0.000148168 0.000390268)
(0.128295 0.000307954 0.00048084)
(0.130816 0.000132709 0.000353582)