/*--------------------------------*- C++ -*----------------------------------*\
| =========                 |                                                 |
| \\      /  F ield         | OpenFOAM: The Open Source CFD Toolbox           |
|  \\    /   O peration     | Version:  2212                                  |
|   \\  /    A nd           | Website:  www.openfoam.com                      |
|    \\/     M anipulation  |                                                 |
\*---------------------------------------------------------------------------*/
FoamFile
{
    version     2.0;
    format      ascii;
    arch        "LSB;label=32;scalar=64";
    class       volScalarField;
    location    "2.35";
    object      nut;
}
// * * * * * * * * * * * * * * * * * * * * * * * * * * * * * * * * * * * * * //

dimensions      [0 2 -1 0 0 0 0];

internalField   nonuniform List<scalar> 
678
(
3.49984e-06
3.47931e-06
3.45942e-06
3.43989e-06
3.42036e-06
6.94789e-06
6.90429e-06
6.8615e-06
6.8196e-06
6.77922e-06
1.00291e-05
9.95803e-06
9.88889e-06
9.82217e-06
9.75696e-06
1.2255e-05
1.21584e-05
1.20588e-05
1.19735e-05
1.1878e-05
1.18044e-05
1.36397e-05
1.35271e-05
1.34145e-05
1.33127e-05
1.32022e-05
1.31204e-05
1.40421e-05
1.39289e-05
1.38163e-05
1.37299e-05
1.35553e-05
1.35563e-05
1.33604e-05
1.34522e-05
1.3344e-05
1.32371e-05
1.31489e-05
1.30111e-05
1.29548e-05
1.28429e-05
1.1932e-05
1.18371e-05
1.17476e-05
1.16648e-05
1.1583e-05
1.15033e-05
1.14248e-05
9.63762e-06
9.57076e-06
9.5057e-06
9.44185e-06
9.38013e-06
9.32017e-06
9.26138e-06
6.75974e-06
6.71706e-06
6.67521e-06
6.63425e-06
6.59413e-06
6.55451e-06
3.50149e-06
3.48085e-06
3.46084e-06
3.44105e-06
3.4214e-06
3.40227e-06
6.75631e-06
6.71389e-06
6.67238e-06
6.6316e-06
6.59211e-06
6.55359e-06
7.19764e-06
6.96996e-06
6.73607e-06
6.52716e-06
6.27257e-06
1.63555e-05
1.57373e-05
1.5227e-05
1.45948e-05
1.42332e-05
1.38219e-05
2.46172e-05
2.39107e-05
2.31513e-05
2.21434e-05
2.17256e-05
2.09819e-05
3.03821e-05
2.93101e-05
2.85483e-05
2.73409e-05
2.67945e-05
2.58046e-05
3.33131e-05
3.23139e-05
3.13762e-05
3.01939e-05
2.91456e-05
2.80581e-05
3.26486e-05
3.12798e-05
3.00363e-05
2.87952e-05
2.79998e-05
2.69524e-05
2.60906e-05
2.48325e-05
2.37598e-05
2.25769e-05
2.20951e-05
2.11905e-05
2.03918e-05
1.57097e-05
1.50188e-05
1.44224e-05
1.37394e-05
1.34012e-05
1.29041e-05
1.23607e-05
7.22833e-06
7.0002e-06
6.76483e-06
6.54151e-06
6.34602e-06
6.16674e-06
5.90589e-06
6.95165e-06
6.90791e-06
6.86491e-06
6.82287e-06
6.78187e-06
6.74203e-06
9.63352e-06
9.56685e-06
9.50219e-06
9.43889e-06
9.37779e-06
9.31812e-06
9.26046e-06
1.56381e-05
1.4945e-05
1.43552e-05
1.36795e-05
1.3321e-05
1.27877e-05
3.28741e-05
3.13068e-05
3.00439e-05
2.84997e-05
2.77615e-05
2.6574e-05
4.7466e-05
4.57251e-05
4.35562e-05
4.13312e-05
4.00883e-05
3.83964e-05
5.67791e-05
5.44231e-05
5.21383e-05
4.99221e-05
4.76793e-05
4.56584e-05
6.11338e-05
5.85062e-05
5.59997e-05
5.3599e-05
5.11501e-05
4.88914e-05
5.92081e-05
5.65574e-05
5.40497e-05
5.16207e-05
4.93794e-05
4.69388e-05
4.97957e-05
4.71772e-05
4.49385e-05
4.25063e-05
4.13793e-05
3.95572e-05
3.2944e-05
3.13231e-05
3.00797e-05
2.84803e-05
2.7794e-05
2.65778e-05
1.64226e-05
1.58083e-05
1.52939e-05
1.46484e-05
1.432e-05
1.38014e-05
1.33612e-05
1.00345e-05
9.96365e-06
9.89434e-06
9.82751e-06
9.76232e-06
9.70027e-06
1.1928e-05
1.18328e-05
1.17442e-05
1.16621e-05
1.15815e-05
1.15017e-05
1.14236e-05
2.57778e-05
2.46887e-05
2.36838e-05
2.25354e-05
2.20432e-05
2.10331e-05
2.03192e-05
4.9623e-05
4.74453e-05
4.51443e-05
4.28424e-05
4.11714e-05
3.94654e-05
6.82292e-05
6.52673e-05
6.2496e-05
5.98305e-05
5.77298e-05
5.5059e-05
7.90215e-05
7.57947e-05
7.26948e-05
6.96853e-05
6.73025e-05
6.40006e-05
8.30769e-05
7.97132e-05
7.64813e-05
7.33309e-05
7.10255e-05
6.68447e-05
7.99285e-05
7.66215e-05
7.34306e-05
7.04887e-05
6.78014e-05
6.82345e-05
6.53214e-05
6.25502e-05
5.98927e-05
5.78344e-05
5.48374e-05
4.75409e-05
4.58763e-05
4.36899e-05
4.13722e-05
4.02782e-05
3.83051e-05
2.47584e-05
2.40627e-05
2.32682e-05
2.22638e-05
2.18218e-05
2.10093e-05
1.2261e-05
1.21662e-05
1.20655e-05
1.19815e-05
1.18857e-05
1.1809e-05
1.34502e-05
1.33411e-05
1.32412e-05
1.3125e-05
1.30436e-05
1.29295e-05
3.24139e-05
3.11985e-05
3.00193e-05
2.88802e-05
2.79334e-05
2.68476e-05
5.91415e-05
5.66436e-05
5.4173e-05
5.16687e-05
4.96335e-05
8.01367e-05
7.68063e-05
7.35945e-05
7.07902e-05
6.76577e-05
9.18545e-05
8.85034e-05
8.48939e-05
8.17238e-05
7.79377e-05
9.56615e-05
9.22513e-05
8.8596e-05
8.52844e-05
8.16759e-05
9.18016e-05
8.8442e-05
8.48418e-05
8.16298e-05
7.82432e-05
7.92141e-05
7.60221e-05
7.29209e-05
7.00852e-05
6.73779e-05
5.70585e-05
5.46918e-05
5.23941e-05
5.00371e-05
4.8299e-05
3.07754e-05
2.96894e-05
2.86598e-05
2.75087e-05
2.69338e-05
1.36455e-05
1.35371e-05
1.34191e-05
1.3322e-05
1.32117e-05
1.31132e-05
1.40428e-05
1.393e-05
1.38182e-05
1.37279e-05
1.3564e-05
1.35556e-05
3.32734e-05
3.23724e-05
3.135e-05
3.02997e-05
2.89685e-05
2.82556e-05
6.10922e-05
5.85286e-05
5.60367e-05
5.36949e-05
8.32411e-05
7.98648e-05
7.66811e-05
7.36849e-05
9.56468e-05
9.22295e-05
8.87192e-05
8.50731e-05
9.97239e-05
9.62668e-05
9.24706e-05
8.9153e-05
8.48843e-05
9.57507e-05
9.23209e-05
8.86711e-05
8.54212e-05
8.17813e-05
8.33435e-05
8.00173e-05
7.67712e-05
7.38789e-05
7.09198e-05
6.13997e-05
5.87993e-05
5.63093e-05
5.38866e-05
5.16887e-05
3.34222e-05
3.24925e-05
3.14953e-05
3.03901e-05
2.93516e-05
1.40473e-05
1.39344e-05
1.38231e-05
1.37349e-05
1.35708e-05
1.37574e-05
1.36429e-05
1.35248e-05
1.34276e-05
1.33114e-05
1.32117e-05
3.13087e-05
3.05327e-05
2.95271e-05
2.83522e-05
2.77271e-05
2.67531e-05
5.92068e-05
5.68941e-05
5.45634e-05
5.22179e-05
4.99655e-05
4.80788e-05
8.22634e-05
7.92711e-05
7.62434e-05
7.32206e-05
7.0617e-05
6.72278e-05
9.50007e-05
9.18541e-05
8.856e-05
8.51983e-05
8.2253e-05
7.83033e-05
9.55364e-05
9.21844e-05
8.86483e-05
8.5494e-05
8.18762e-05
9.18846e-05
8.85386e-05
8.49644e-05
8.1834e-05
7.84479e-05
8.01256e-05
7.68662e-05
7.37131e-05
7.08928e-05
6.81118e-05
5.94375e-05
5.68136e-05
5.43432e-05
5.18108e-05
5.0063e-05
3.28431e-05
3.14568e-05
3.02228e-05
2.90185e-05
2.81848e-05
1.34564e-05
1.33485e-05
1.32418e-05
1.31586e-05
1.30088e-05
1.23577e-05
1.2259e-05
1.2161e-05
1.20687e-05
1.19727e-05
1.18891e-05
2.54194e-05
2.48891e-05
2.37891e-05
2.32355e-05
2.22826e-05
2.18924e-05
4.91072e-05
4.76772e-05
4.55683e-05
4.34192e-05
4.19695e-05
4.03472e-05
7.09505e-05
6.83346e-05
6.56352e-05
6.29867e-05
6.06286e-05
5.83745e-05
8.31156e-05
8.01884e-05
7.7194e-05
7.41892e-05
7.14617e-05
6.86444e-05
8.3219e-05
8.01822e-05
7.70074e-05
7.41637e-05
7.12318e-05
7.92793e-05
7.61527e-05
7.30977e-05
7.03608e-05
6.76616e-05
6.83597e-05
6.55046e-05
6.27781e-05
6.0209e-05
5.80925e-05
4.99448e-05
4.73559e-05
4.51765e-05
4.26421e-05
4.21219e-05
2.61681e-05
2.49257e-05
2.38802e-05
2.27359e-05
2.22258e-05
1.19355e-05
1.18405e-05
1.17519e-05
1.16696e-05
1.15884e-05
1.01061e-05
1.00336e-05
9.9627e-06
9.89368e-06
9.82653e-06
9.76231e-06
1.689e-05
1.63717e-05
1.58192e-05
1.51688e-05
1.47877e-05
1.43089e-05
3.39437e-05
3.27718e-05
3.14992e-05
2.98738e-05
2.91127e-05
2.79096e-05
5.12888e-05
4.94457e-05
4.73127e-05
4.48825e-05
4.36056e-05
4.1785e-05
6.16426e-05
5.91705e-05
5.67733e-05
5.4407e-05
5.19421e-05
5.03091e-05
6.11765e-05
5.8676e-05
5.62872e-05
5.39123e-05
5.18857e-05
5.70559e-05
5.47475e-05
5.24872e-05
5.01351e-05
4.85172e-05
4.76547e-05
4.59611e-05
4.38112e-05
4.14728e-05
4.08203e-05
3.305e-05
3.14161e-05
3.0156e-05
2.86026e-05
2.81452e-05
1.57514e-05
1.50625e-05
1.4483e-05
1.38522e-05
1.33674e-05
9.63988e-06
9.57341e-06
9.50895e-06
9.44597e-06
9.38473e-06
6.99582e-06
6.95149e-06
6.90777e-06
6.86482e-06
6.82267e-06
6.78227e-06
7.4437e-06
7.2064e-06
6.96191e-06
6.7322e-06
6.54593e-06
6.28465e-06
1.61105e-05
1.55246e-05
1.49372e-05
1.42307e-05
1.38818e-05
1.32491e-05
2.65926e-05
2.57605e-05
2.47221e-05
2.35781e-05
2.2977e-05
2.2099e-05
3.33287e-05
3.22848e-05
3.11479e-05
3.00607e-05
2.89827e-05
2.81248e-05
3.34941e-05
3.23856e-05
3.1479e-05
3.03406e-05
2.94188e-05
3.07218e-05
2.96645e-05
2.86775e-05
2.75397e-05
2.70055e-05
2.4776e-05
2.4097e-05
2.3312e-05
2.23158e-05
2.1964e-05
1.64285e-05
1.58919e-05
1.5256e-05
1.47973e-05
1.43565e-05
7.23246e-06
7.01322e-06
6.76969e-06
6.57873e-06
6.31863e-06
6.76103e-06
6.71872e-06
6.67737e-06
6.63691e-06
6.59767e-06
3.52249e-06
3.50165e-06
3.48123e-06
3.46098e-06
3.44129e-06
3.42159e-06
6.80308e-06
6.7597e-06
6.71712e-06
6.67535e-06
6.63444e-06
6.59466e-06
9.70518e-06
9.63621e-06
9.56964e-06
9.50452e-06
1.20289e-05
1.19291e-05
1.18342e-05
1.1746e-05
1.16651e-05
1.35623e-05
1.345e-05
1.33422e-05
1.32376e-05
1.31432e-05
1.40439e-05
1.39301e-05
1.38284e-05
1.37013e-05
1.36452e-05
1.3643e-05
1.35431e-05
1.34075e-05
1.33264e-05
1.32213e-05
1.2261e-05
1.21669e-05
1.20665e-05
1.19824e-05
1.18913e-05
1.00353e-05
9.96516e-06
9.89629e-06
9.82989e-06
9.76568e-06
6.95246e-06
6.90916e-06
6.86664e-06
6.825e-06
6.78504e-06
3.50219e-06
3.48186e-06
3.462e-06
3.4427e-06
3.4232e-06
)
;

boundaryField
{
    inlet
    {
        type            calculated;
        value           nonuniform List<scalar> 0();
    }
    ami1
    {
        type            cyclicAMI;
        value           nonuniform List<scalar> 0();
    }
    walls
    {
        type            nutkWallFunction;
        blending        stepwise;
        value           uniform 0;
    }
    ami2
    {
        type            cyclicAMI;
        value           nonuniform List<scalar> 0();
    }
    outlet
    {
        type            calculated;
        value           nonuniform List<scalar> 0();
    }
    procBoundary5to6
    {
        type            processor;
        value           nonuniform List<scalar> 
177
(
3.40172e-06
3.40172e-06
6.73908e-06
9.6937e-06
9.6937e-06
9.6937e-06
1.17134e-05
1.30116e-05
1.30116e-05
1.33266e-05
2.65944e-05
1.27633e-05
2.55548e-05
1.13468e-05
9.20349e-06
6.51525e-06
6.51525e-06
6.51525e-06
3.38342e-06
6.51639e-06
6.2628e-06
6.51639e-06
6.2628e-06
6.2628e-06
6.2628e-06
1.33945e-05
2.0051e-05
2.45285e-05
2.65944e-05
2.55548e-05
2.55548e-05
1.93017e-05
3.67673e-05
1.19911e-05
2.49733e-05
5.93313e-06
6.70242e-06
6.70242e-06
9.20419e-06
1.24983e-05
1.24983e-05
1.24983e-05
2.504e-05
3.58615e-05
4.25611e-05
4.53761e-05
4.36577e-05
6.22496e-05
3.67673e-05
2.49733e-05
2.49733e-05
1.29187e-05
9.63834e-06
2.00271e-05
9.63834e-06
1.1347e-05
1.28538e-05
1.91739e-05
3.66635e-05
2.55046e-05
3.66635e-05
4.62767e-05
5.04048e-05
6.21764e-05
5.84822e-05
7.15075e-05
6.09734e-05
6.22496e-05
7.48744e-05
6.22496e-05
6.22496e-05
5.03638e-05
6.18933e-05
3.56391e-05
4.50454e-05
2.00271e-05
2.56975e-05
1.17221e-05
1.28538e-05
2.55046e-05
4.62767e-05
4.62767e-05
5.01173e-05
6.21764e-05
6.77582e-05
7.15075e-05
7.81899e-05
7.48744e-05
7.18156e-05
6.18933e-05
4.50454e-05
2.56975e-05
2.56975e-05
1.30232e-05
1.35816e-05
1.33366e-05
1.31121e-05
5.01173e-05
2.67803e-05
4.74978e-05
2.5474e-05
5.01173e-05
5.01173e-05
6.77582e-05
6.77582e-05
7.81899e-05
7.81899e-05
7.81899e-05
7.79347e-05
7.50314e-05
6.5115e-05
4.82502e-05
2.80239e-05
1.35816e-05
1.31121e-05
2.5474e-05
4.5001e-05
6.17349e-05
7.19448e-05
7.5133e-05
7.19683e-05
6.25088e-05
4.65814e-05
2.68929e-05
1.29859e-05
1.18033e-05
2.09721e-05
3.7751e-05
5.37386e-05
6.30845e-05
6.54164e-05
6.21185e-05
5.3372e-05
3.9018e-05
2.12317e-05
1.15088e-05
9.6995e-06
1.39251e-05
2.63304e-05
3.89883e-05
4.69901e-05
4.84499e-05
4.52594e-05
3.79856e-05
2.64791e-05
1.30586e-05
9.3253e-06
6.74231e-06
6.26669e-06
9.44185e-06
1.29955e-05
9.3806e-06
2.12437e-05
1.15844e-05
2.69418e-05
1.30146e-05
2.80742e-05
2.57931e-05
2.10665e-05
1.39807e-05
6.30068e-06
6.55932e-06
3.4035e-06
9.44185e-06
6.55639e-06
9.3806e-06
9.44185e-06
9.44185e-06
1.15844e-05
1.30146e-05
1.30146e-05
1.34318e-05
1.31112e-05
1.18101e-05
9.70336e-06
6.74526e-06
3.40488e-06
)
;
    }
    procBoundary5to7
    {
        type            processor;
        value           nonuniform List<scalar> 
131
(
3.52037e-06
6.99254e-06
1.01021e-05
1.23551e-05
1.37561e-05
1.4161e-05
1.35639e-05
1.20324e-05
9.70618e-06
6.80282e-06
3.52218e-06
6.79927e-06
7.32962e-06
1.68095e-05
2.57173e-05
3.15378e-05
3.43695e-05
3.34007e-05
2.66973e-05
1.60178e-05
7.36554e-06
6.99616e-06
9.70196e-06
1.59319e-05
3.40606e-05
4.9516e-05
5.9663e-05
6.4799e-05
6.2278e-05
5.13098e-05
3.4091e-05
1.68783e-05
1.0107e-05
1.20281e-05
2.67604e-05
5.12093e-05
7.17136e-05
8.31427e-05
8.73542e-05
8.40706e-05
7.17537e-05
4.95711e-05
2.57995e-05
1.23607e-05
1.35612e-05
3.34409e-05
6.24728e-05
8.42667e-05
9.61271e-05
9.9982e-05
9.60505e-05
8.32987e-05
5.98667e-05
3.16313e-05
1.37616e-05
1.41605e-05
1.41605e-05
3.45073e-05
3.45073e-05
6.47988e-05
6.47988e-05
8.75831e-05
8.75831e-05
0.000100059
0.000100059
0.000104138
0.000100062
8.7587e-05
6.50671e-05
3.45287e-05
1.41658e-05
1.38789e-05
3.29492e-05
6.2477e-05
8.59359e-05
9.89543e-05
9.99252e-05
9.99252e-05
9.61369e-05
8.42209e-05
6.24852e-05
3.3505e-05
1.35675e-05
1.24613e-05
2.66626e-05
5.14625e-05
7.41908e-05
8.68127e-05
8.7338e-05
8.7338e-05
8.33144e-05
7.18016e-05
5.14325e-05
2.67889e-05
1.20353e-05
1.01808e-05
1.75824e-05
3.57788e-05
5.34209e-05
6.51212e-05
6.47601e-05
6.47601e-05
5.99409e-05
4.95696e-05
3.41969e-05
1.60579e-05
9.70803e-06
7.04083e-06
7.60545e-06
1.67822e-05
2.77617e-05
3.4636e-05
3.43728e-05
3.43728e-05
3.16299e-05
2.58271e-05
1.69071e-05
7.37491e-06
6.80376e-06
3.54322e-06
6.84637e-06
9.77541e-06
1.21287e-05
1.36765e-05
1.41608e-05
1.41608e-05
1.37582e-05
1.23595e-05
1.01076e-05
6.99672e-06
3.52273e-06
)
;
    }
}


// ************************************************************************* //
