/*--------------------------------*- C++ -*----------------------------------*\
| =========                 |                                                 |
| \\      /  F ield         | OpenFOAM: The Open Source CFD Toolbox           |
|  \\    /   O peration     | Version:  2212                                  |
|   \\  /    A nd           | Website:  www.openfoam.com                      |
|    \\/     M anipulation  |                                                 |
\*---------------------------------------------------------------------------*/
FoamFile
{
    version     2.0;
    format      ascii;
    arch        "LSB;label=32;scalar=64";
    class       volScalarField;
    location    "1";
    object      epsilon;
}
// * * * * * * * * * * * * * * * * * * * * * * * * * * * * * * * * * * * * * //

dimensions      [0 2 -3 0 0 0 0];

internalField   nonuniform List<scalar> 
678
(
0.0969791
0.0963373
0.0956726
0.095053
0.0945225
0.0359856
0.0357047
0.0354436
0.0352095
0.0349836
0.0242001
0.0239617
0.0237462
0.0235612
0.02342
0.0187289
0.0185361
0.0183656
0.0182088
0.0180701
0.0179384
0.0162731
0.0161006
0.0159414
0.0157953
0.0156665
0.0155312
0.0152428
0.0150737
0.0149173
0.0147742
0.0146476
0.0145253
0.0144259
0.0153577
0.0151793
0.015014
0.0148641
0.0147346
0.0146119
0.0145114
0.0169036
0.01671
0.0165297
0.0163751
0.0162395
0.0161191
0.016022
0.0209962
0.0207721
0.02058
0.020409
0.0202622
0.0201338
0.0200282
0.0326956
0.0324174
0.032164
0.0319368
0.0317381
0.0315408
0.0969883
0.0963128
0.0956635
0.0950536
0.0945347
0.0941219
0.0327253
0.0324429
0.0321903
0.0319625
0.0317401
0.031651
0.0139133
0.0136639
0.0134081
0.01324
0.0131604
0.00919522
0.00901342
0.00886227
0.00865224
0.00857061
0.00858078
0.00749967
0.00734459
0.00722055
0.00701834
0.00696228
0.00686622
0.00676407
0.00660589
0.00647691
0.00630161
0.00623191
0.00613195
0.00648086
0.0063213
0.00617691
0.00605284
0.00595464
0.00588914
0.00657456
0.00641306
0.00628807
0.00611227
0.0060395
0.00594391
0.00707191
0.00690454
0.0067884
0.00657342
0.00651981
0.00638772
0.00644781
0.00848264
0.0082927
0.00814306
0.00793162
0.00787649
0.00775605
0.00782587
0.0139099
0.0136582
0.0133982
0.0132367
0.0131287
0.0130343
0.0130675
0.0360004
0.0357144
0.0354509
0.0352156
0.0350117
0.0348182
0.0210338
0.0208075
0.0206133
0.0204411
0.020291
0.0201564
0.0201365
0.00848526
0.00828883
0.00812918
0.00791858
0.00784145
0.00787748
0.00605263
0.005923
0.00579763
0.00559195
0.00550464
0.00549218
0.00545212
0.00531569
0.00519735
0.00504237
0.00493231
0.00490464
0.00530175
0.00515515
0.00502092
0.00490171
0.00480159
0.00472037
0.00524743
0.00510736
0.00497726
0.00485884
0.00476322
0.0046894
0.00528643
0.00514278
0.00501251
0.00489477
0.00476981
0.00477208
0.00540345
0.00527683
0.00517559
0.00497983
0.00487337
0.00485931
0.00605964
0.0059311
0.00581354
0.00560304
0.00552183
0.00550313
0.00920076
0.00901811
0.00885411
0.00865167
0.00856541
0.00846735
0.00853425
0.0242208
0.0239765
0.0237605
0.0235743
0.0234159
0.0232918
0.0169418
0.0167447
0.0165634
0.0164071
0.0162703
0.0161516
0.0160735
0.00706308
0.00689802
0.00677491
0.00656523
0.00650686
0.00639615
0.00648094
0.00540028
0.00526587
0.00514693
0.00499309
0.00486877
0.00487348
0.00512347
0.00504214
0.00485721
0.00469023
0.00452589
0.00455978
0.00512936
0.00504231
0.00486411
0.00469171
0.00452209
0.00454708
0.00514951
0.00506239
0.00488374
0.00470611
0.00454318
0.00452773
0.00512928
0.00504413
0.00486713
0.00467094
0.00461047
0.00512277
0.00504093
0.00485742
0.00468666
0.00452729
0.00450406
0.0054512
0.00531571
0.00520136
0.00503944
0.00494242
0.00495289
0.00750226
0.00734387
0.00721733
0.00701563
0.00694172
0.00695168
0.0187548
0.0185555
0.0183827
0.0182254
0.0180839
0.0179457
0.0153933
0.0152104
0.0150444
0.0148945
0.0147614
0.014608
0.00657118
0.0064045
0.00626342
0.00611264
0.00602374
0.00602066
0.00527321
0.00513027
0.00499785
0.00489436
0.00482655
0.00511452
0.00502976
0.00485333
0.00465621
0.00462448
0.00520965
0.0051202
0.00493335
0.00472942
0.00470261
0.00526768
0.00517597
0.00498637
0.00476977
0.00476816
0.0052156
0.00512704
0.00493975
0.00473381
0.00468773
0.00511599
0.00502949
0.00485147
0.00465553
0.0046085
0.00528983
0.00514355
0.00501224
0.00490797
0.00482466
0.00676107
0.00659924
0.00645541
0.00632013
0.00623455
0.0162953
0.0161153
0.0159549
0.0158051
0.0156758
0.0155748
0.0152743
0.0150996
0.0149429
0.0148004
0.0146711
0.0145213
0.00648541
0.00632515
0.00617375
0.00606694
0.00595501
0.00595156
0.00525339
0.00511163
0.00499024
0.00490275
0.00515098
0.00505532
0.00485831
0.00475317
0.00527614
0.00517671
0.00496382
0.00486083
0.00532418
0.00522954
0.00503753
0.00482601
0.00481585
0.00526109
0.00517043
0.00498064
0.00476705
0.00476282
0.005132
0.0050473
0.00486869
0.00466507
0.00465487
0.00523603
0.00509382
0.00496405
0.00486358
0.00478206
0.00646824
0.00630954
0.00616382
0.00606144
0.00594779
0.0152584
0.0150817
0.0149212
0.0147747
0.0146116
0.0165206
0.0163117
0.0161284
0.0159652
0.015816
0.0156739
0.00689583
0.00672981
0.00657209
0.00641839
0.00631489
0.00622456
0.00543011
0.00527127
0.00512677
0.00499517
0.00487833
0.0048685
0.00525715
0.00516364
0.00497277
0.00479247
0.00461643
0.00465484
0.00535735
0.0052537
0.00505479
0.00486876
0.00467704
0.00465233
0.00528294
0.0051825
0.00498285
0.00476479
0.00475914
0.00521278
0.00512425
0.00493701
0.00472486
0.00472405
0.00512761
0.00504306
0.0048594
0.00465732
0.0046583
0.00527027
0.00512515
0.0049949
0.00489595
0.00479587
0.00656351
0.00639692
0.00626232
0.00610528
0.00604823
0.0153645
0.0151777
0.0150091
0.0148599
0.0146967
0.0189753
0.0187544
0.0185572
0.0183809
0.0182198
0.0180648
0.00764922
0.00749644
0.00726368
0.00716331
0.00699892
0.00691497
0.00559288
0.00543396
0.00529781
0.00513844
0.00501758
0.00492139
0.0052516
0.00515526
0.00496161
0.00478145
0.00459032
0.00460099
0.00526014
0.00515855
0.00495849
0.00478052
0.00459686
0.00460524
0.00515744
0.00506023
0.00486241
0.00466515
0.00460807
0.00512679
0.00503976
0.00485266
0.00464193
0.00463255
0.00511496
0.00502911
0.00484839
0.0046487
0.00464684
0.00539085
0.00525652
0.00513762
0.00499488
0.00490581
0.00706334
0.00689191
0.00676521
0.00655397
0.00650326
0.0169042
0.0167003
0.0165164
0.0163614
0.0162234
0.0244617
0.0241823
0.0239376
0.0237276
0.0235479
0.0233997
0.00934223
0.00913894
0.00895796
0.00874014
0.00863026
0.00855205
0.00618259
0.00603389
0.00589109
0.00566413
0.0055561
0.00552726
0.00552793
0.00537216
0.00524056
0.00506253
0.00493237
0.00489827
0.00540249
0.00523767
0.0050906
0.00496203
0.00484721
0.00474827
0.0052619
0.00510782
0.00496724
0.00485217
0.00476856
0.00528226
0.00513464
0.00500136
0.00489402
0.00480759
0.00543597
0.00529747
0.00517842
0.00504513
0.00494556
0.00604485
0.00591464
0.00578492
0.00559231
0.00551112
0.00847049
0.0082795
0.00810438
0.00790992
0.00782992
0.0209956
0.0207575
0.0205603
0.0203884
0.0202194
0.0362984
0.035964
0.0356638
0.0354008
0.0351719
0.0349513
0.0140567
0.013782
0.0134962
0.013324
0.0131854
0.0131281
0.00859909
0.00838396
0.00819727
0.00797668
0.00786902
0.00786006
0.00718448
0.00699777
0.00684936
0.00662015
0.00654864
0.00645782
0.00668243
0.00650282
0.00632478
0.00620521
0.00605078
0.00600429
0.00648269
0.00630991
0.00616391
0.00602302
0.00596065
0.00675066
0.00658445
0.00643743
0.00630244
0.00620977
0.0074839
0.00732461
0.00718667
0.00699299
0.00692864
0.00918747
0.00902117
0.00878293
0.00864705
0.00854536
0.0138938
0.0136273
0.0133632
0.0131956
0.013118
0.0326762
0.0323827
0.032128
0.0318977
0.03166
0.0976928
0.0969137
0.0961951
0.0955166
0.0949409
0.0944932
0.0330149
0.0326769
0.0323886
0.0321266
0.0319178
0.0317004
0.0212628
0.02099
0.0207616
0.020541
0.0171686
0.0169135
0.0167129
0.0165368
0.0164136
0.0156014
0.0153817
0.0151919
0.0150263
0.0148545
0.01528
0.015092
0.0149328
0.0147824
0.0146405
0.0162844
0.0161024
0.0159439
0.0158017
0.0156646
0.0187289
0.0185262
0.0183543
0.0182031
0.0180563
0.0241776
0.0239317
0.023721
0.0235421
0.0233929
0.0359567
0.035662
0.0354013
0.0351713
0.0349428
0.0968863
0.0962046
0.0955501
0.0949296
0.0944259
)
;

boundaryField
{
    inlet
    {
        type            fixedValue;
        value           nonuniform List<scalar> 0();
    }
    ami1
    {
        type            cyclicAMI;
        value           nonuniform List<scalar> 0();
    }
    walls
    {
        type            epsilonWallFunction;
        blending        stepwise;
        value           nonuniform List<scalar> 
250
(
0.0969791
0.0359856
0.0242001
0.0187289
0.0162731
0.0152428
0.0153577
0.0169036
0.0209962
0.0326956
0.0969883
0.0963373
0.0357047
0.0239617
0.0185361
0.0161006
0.0150737
0.0151793
0.01671
0.0207721
0.0324174
0.0963128
0.0956726
0.0354436
0.0237462
0.0183656
0.0159414
0.0149173
0.015014
0.0165297
0.02058
0.032164
0.0956635
0.095053
0.0352095
0.0235612
0.0182088
0.0157953
0.0147742
0.0148641
0.0163751
0.020409
0.0319368
0.0950536
0.0945225
0.0349836
0.02342
0.0180701
0.0156665
0.0146476
0.0147346
0.0162395
0.0202622
0.0317381
0.0945347
0.0179384
0.0155312
0.0145253
0.0146119
0.0161191
0.0201338
0.0315408
0.0941219
0.0144259
0.0145114
0.016022
0.0200282
0.0969883
0.0360004
0.0242208
0.0187548
0.0162953
0.0152584
0.0153645
0.0169042
0.0209956
0.0326762
0.0968863
0.0963128
0.0357144
0.0239765
0.0185555
0.0161153
0.0150817
0.0151777
0.0167003
0.0207575
0.0323827
0.0962046
0.0956635
0.0354509
0.0237605
0.0183827
0.0159549
0.0149212
0.0150091
0.0165164
0.0205603
0.032128
0.0955501
0.0950536
0.0352156
0.0235743
0.0182254
0.0158051
0.0147747
0.0148599
0.0163614
0.0203884
0.0318977
0.0949296
0.0945347
0.0350117
0.0234159
0.0180839
0.0156758
0.0146116
0.0146967
0.0162234
0.0202194
0.03166
0.0944259
0.0941219
0.0348182
0.0232918
0.0179457
0.0155748
0.0976928
0.0330149
0.0212628
0.0171686
0.0156014
0.0969137
0.0326769
0.02099
0.0169135
0.0153817
0.01528
0.0162844
0.0187289
0.0241776
0.0359567
0.0968863
0.0961951
0.0323886
0.0207616
0.0167129
0.0151919
0.015092
0.0161024
0.0185262
0.0239317
0.035662
0.0962046
0.0955166
0.0321266
0.020541
0.0165368
0.0150263
0.0149328
0.0159439
0.0183543
0.023721
0.0354013
0.0955501
0.0949409
0.0319178
0.0164136
0.0148545
0.0147824
0.0158017
0.0182031
0.0235421
0.0351713
0.0949296
0.0944932
0.0317004
0.0146405
0.0156646
0.0180563
0.0233929
0.0349428
0.0944259
0.0165206
0.0189753
0.0244617
0.0362984
0.0976928
0.0969791
0.0327253
0.0210338
0.0169418
0.0153933
0.0152743
0.0163117
0.0187544
0.0241823
0.035964
0.0969137
0.0963373
0.0324429
0.0208075
0.0167447
0.0152104
0.0150996
0.0161284
0.0185572
0.0239376
0.0356638
0.0961951
0.0956726
0.0321903
0.0206133
0.0165634
0.0150444
0.0149429
0.0159652
0.0183809
0.0237276
0.0354008
0.0955166
0.095053
0.0319625
0.0204411
0.0164071
0.0148945
0.0148004
0.015816
0.0182198
0.0235479
0.0351719
0.0949409
0.0945225
0.0317401
0.020291
0.0162703
0.0147614
0.0146711
0.0156739
0.0180648
0.0233997
0.0349513
0.0944932
0.031651
0.0201564
0.0161516
0.014608
0.0145213
0.0201365
0.0160735
)
;
    }
    ami2
    {
        type            cyclicAMI;
        value           nonuniform List<scalar> 0();
    }
    outlet
    {
        type            zeroGradient;
    }
    procBoundary5to6
    {
        type            processor;
        value           nonuniform List<scalar> 
177
(
0.0942194
0.0942194
0.0348183
0.023299
0.023299
0.023299
0.0178247
0.0154303
0.0154303
0.014352
0.00602157
0.0144265
0.00611697
0.015942
0.0199324
0.0314402
0.0314402
0.0314402
0.0939222
0.0315221
0.0133783
0.0315221
0.0133783
0.0133783
0.0133783
0.00870067
0.0070161
0.00627447
0.00602157
0.00611697
0.00611697
0.00661042
0.00499734
0.00799019
0.0056623
0.0132698
0.0347126
0.0347126
0.0200619
0.00802131
0.00802131
0.00802131
0.00563287
0.00502577
0.00487162
0.00484368
0.00488673
0.00477458
0.00499734
0.0056623
0.0056623
0.00868107
0.0231819
0.00706683
0.0231819
0.0160019
0.0145089
0.00662709
0.00500227
0.00616177
0.00500227
0.00497001
0.00467916
0.00476388
0.00465453
0.00483206
0.00467735
0.00477458
0.00488049
0.00477458
0.00477458
0.00465806
0.00476138
0.00506213
0.00492907
0.00706683
0.00635954
0.0178311
0.0145089
0.00616177
0.00497001
0.00497001
0.00500862
0.00476388
0.00488272
0.00483206
0.00499314
0.00488049
0.00483065
0.00476138
0.00492907
0.00635954
0.00635954
0.0154847
0.0144729
0.0143906
0.0155418
0.00500862
0.00605956
0.00488552
0.00635172
0.00500862
0.00500862
0.00488272
0.00488272
0.00499314
0.00499314
0.00499314
0.0049252
0.00487602
0.00478229
0.00489493
0.00608425
0.0144729
0.0155418
0.00635172
0.00495855
0.00476571
0.0047885
0.00486345
0.00482951
0.00477224
0.0049202
0.00615845
0.0145526
0.0179285
0.00708097
0.00505931
0.00472973
0.0047289
0.00474144
0.00475476
0.00476827
0.00506131
0.00664186
0.0160865
0.023272
0.0087356
0.00565998
0.00501292
0.00487956
0.00486625
0.0049057
0.00506795
0.00568845
0.00802819
0.0200626
0.0348052
0.0133424
0.0203744
0.0080317
0.0202337
0.00662803
0.0162551
0.00612866
0.0146908
0.00605481
0.006328
0.00705428
0.00871406
0.0133059
0.0314668
0.0941932
0.0203744
0.0315335
0.0202337
0.0203744
0.0203744
0.0162551
0.0146908
0.0146908
0.0144948
0.0155301
0.0179139
0.0232445
0.0347662
0.0940382
)
;
    }
    procBoundary5to7
    {
        type            processor;
        value           nonuniform List<scalar> 
131
(
0.0977001
0.0362985
0.0244613
0.0189894
0.01653
0.0154906
0.015616
0.0171821
0.0212742
0.0330309
0.0976948
0.0330529
0.0138391
0.00913382
0.00748677
0.0067562
0.00646447
0.00654772
0.00700825
0.00840784
0.0138336
0.0363111
0.0213091
0.00840139
0.0059836
0.00541828
0.00528661
0.00521865
0.00525985
0.00535014
0.0059966
0.00913513
0.024485
0.0172132
0.00702898
0.00534647
0.00504555
0.00506782
0.00508958
0.00506484
0.00504646
0.00541853
0.00748228
0.0190177
0.0156474
0.00652189
0.00523786
0.00504646
0.00515071
0.00521264
0.00515741
0.00505163
0.0052667
0.0067291
0.0165544
0.0155236
0.0155236
0.00647579
0.00647579
0.00523048
0.00523048
0.00509188
0.00509188
0.00522336
0.00522336
0.00527106
0.00520481
0.00506752
0.00520269
0.00645311
0.0155047
0.0168078
0.00691256
0.00542726
0.00520858
0.00531538
0.00523338
0.00523338
0.00514979
0.00505148
0.00523455
0.00651085
0.0156258
0.0192734
0.00766431
0.00557936
0.00519576
0.00520829
0.00510095
0.00510095
0.00505064
0.00503365
0.0053338
0.00699546
0.0171884
0.0247669
0.00934208
0.0061561
0.00550511
0.00538774
0.00519793
0.00519793
0.00525327
0.00539848
0.00597958
0.00839128
0.0212787
0.0366669
0.0140229
0.00857065
0.00717582
0.00668589
0.00644858
0.00644858
0.00671061
0.00746144
0.00912202
0.0138175
0.0330216
0.0985365
0.0334012
0.0215874
0.017469
0.0158967
0.0155235
0.0155235
0.0165539
0.0190057
0.0244596
0.0362856
0.0976409
)
;
    }
}


// ************************************************************************* //
