/*--------------------------------*- C++ -*----------------------------------*\
| =========                 |                                                 |
| \\      /  F ield         | OpenFOAM: The Open Source CFD Toolbox           |
|  \\    /   O peration     | Version:  2212                                  |
|   \\  /    A nd           | Website:  www.openfoam.com                      |
|    \\/     M anipulation  |                                                 |
\*---------------------------------------------------------------------------*/
FoamFile
{
    version     2.0;
    format      ascii;
    arch        "LSB;label=32;scalar=64";
    class       volScalarField;
    location    "1";
    object      nut;
}
// * * * * * * * * * * * * * * * * * * * * * * * * * * * * * * * * * * * * * //

dimensions      [0 2 -1 0 0 0 0];

internalField   nonuniform List<scalar> 
678
(
3.54455e-06
3.53225e-06
3.52018e-06
3.50864e-06
3.49836e-06
7.0451e-06
7.01689e-06
6.99078e-06
6.96705e-06
6.9443e-06
1.01866e-05
1.01385e-05
1.00937e-05
1.00544e-05
1.00216e-05
1.2454e-05
1.23815e-05
1.23187e-05
1.22672e-05
1.22183e-05
1.21791e-05
1.38385e-05
1.37638e-05
1.36881e-05
1.36317e-05
1.35751e-05
1.3536e-05
1.42028e-05
1.41222e-05
1.40472e-05
1.39782e-05
1.39172e-05
1.386e-05
1.3796e-05
1.35582e-05
1.34755e-05
1.3399e-05
1.33315e-05
1.32714e-05
1.32185e-05
1.31683e-05
1.20132e-05
1.19292e-05
1.18707e-05
1.18126e-05
1.17598e-05
1.17138e-05
1.16774e-05
9.69697e-06
9.64462e-06
9.59579e-06
9.55579e-06
9.51906e-06
9.48722e-06
9.46069e-06
6.80778e-06
6.77791e-06
6.75084e-06
6.72636e-06
6.70406e-06
6.68221e-06
3.54463e-06
3.53209e-06
3.5202e-06
3.50882e-06
3.49857e-06
3.48982e-06
6.80974e-06
6.77963e-06
6.75256e-06
6.72798e-06
6.70403e-06
6.68617e-06
7.17314e-06
7.01293e-06
6.92342e-06
6.83386e-06
6.72804e-06
1.56846e-05
1.52108e-05
1.47953e-05
1.46322e-05
1.43278e-05
1.38098e-05
2.37351e-05
2.3036e-05
2.2371e-05
2.21585e-05
2.15703e-05
2.10399e-05
2.90891e-05
2.83408e-05
2.76016e-05
2.72491e-05
2.65471e-05
2.58932e-05
3.18666e-05
3.1095e-05
3.03433e-05
2.96177e-05
2.89084e-05
2.79596e-05
2.98091e-05
2.89559e-05
2.81009e-05
2.7694e-05
2.69726e-05
2.62704e-05
2.37785e-05
2.30188e-05
2.22276e-05
2.20058e-05
2.13747e-05
2.11276e-05
2.01527e-05
1.47133e-05
1.42565e-05
1.38539e-05
1.37199e-05
1.33876e-05
1.3235e-05
1.26877e-05
7.16129e-06
7.00142e-06
6.91609e-06
6.82282e-06
6.73425e-06
6.65904e-06
6.52446e-06
7.04603e-06
7.01777e-06
6.99162e-06
6.96796e-06
6.94657e-06
6.92651e-06
9.70161e-06
9.64964e-06
9.60099e-06
9.56066e-06
9.52368e-06
9.49471e-06
9.46436e-06
1.47985e-05
1.4349e-05
1.39613e-05
1.38274e-05
1.3542e-05
1.29917e-05
3.07424e-05
2.9553e-05
2.8532e-05
2.82018e-05
2.74685e-05
2.62268e-05
4.45789e-05
4.29822e-05
4.14802e-05
4.05697e-05
3.95807e-05
3.77956e-05
5.31769e-05
5.14165e-05
4.98089e-05
4.83381e-05
4.69787e-05
4.53161e-05
5.69816e-05
5.50346e-05
5.32588e-05
5.16575e-05
5.0119e-05
4.82493e-05
5.4392e-05
5.25343e-05
5.08152e-05
4.92692e-05
4.8111e-05
4.56432e-05
4.5556e-05
4.38171e-05
4.20803e-05
4.14711e-05
4.04022e-05
3.84494e-05
3.06306e-05
2.94496e-05
2.83872e-05
2.80812e-05
2.73169e-05
2.61148e-05
1.56915e-05
1.52133e-05
1.48246e-05
1.46479e-05
1.43631e-05
1.41269e-05
1.35818e-05
1.01891e-05
1.01408e-05
1.00962e-05
1.00569e-05
1.00222e-05
9.99309e-06
1.20149e-05
1.19361e-05
1.18775e-05
1.18203e-05
1.17678e-05
1.17209e-05
1.16859e-05
2.39785e-05
2.31977e-05
2.24374e-05
2.22081e-05
2.16084e-05
2.12703e-05
2.02354e-05
4.57328e-05
4.4046e-05
4.24805e-05
4.15131e-05
4.06053e-05
3.85052e-05
6.34176e-05
6.03932e-05
5.89955e-05
5.77671e-05
5.69166e-05
5.35426e-05
7.3917e-05
7.04809e-05
6.87096e-05
6.72791e-05
6.62644e-05
6.24438e-05
7.76676e-05
7.4054e-05
7.21742e-05
7.07385e-05
6.9459e-05
6.62544e-05
7.43815e-05
7.09019e-05
6.90875e-05
6.80421e-05
6.49919e-05
6.33529e-05
6.03443e-05
5.89164e-05
5.77463e-05
5.6754e-05
5.42264e-05
4.45948e-05
4.29968e-05
4.14532e-05
4.06065e-05
3.94681e-05
3.74299e-05
2.37922e-05
2.3096e-05
2.24345e-05
2.22308e-05
2.16752e-05
2.07904e-05
1.24583e-05
1.23859e-05
1.23228e-05
1.22713e-05
1.22219e-05
1.21814e-05
1.3566e-05
1.3483e-05
1.34076e-05
1.33406e-05
1.32805e-05
1.32169e-05
3.00407e-05
2.91848e-05
2.84218e-05
2.79156e-05
2.72721e-05
2.61533e-05
5.47317e-05
5.28541e-05
5.11698e-05
4.95126e-05
4.74791e-05
7.4734e-05
7.12404e-05
6.94383e-05
6.84393e-05
6.50718e-05
8.60104e-05
8.20171e-05
8.00023e-05
7.87892e-05
7.48219e-05
8.96407e-05
8.54886e-05
8.33711e-05
8.22841e-05
7.75473e-05
8.58352e-05
8.1829e-05
7.98005e-05
7.86258e-05
7.4797e-05
7.40842e-05
7.06396e-05
6.88516e-05
6.78102e-05
6.45585e-05
5.33551e-05
5.15835e-05
4.99343e-05
4.83139e-05
4.6406e-05
2.91946e-05
2.84469e-05
2.7776e-05
2.72356e-05
2.64e-05
1.38426e-05
1.3769e-05
1.36904e-05
1.36376e-05
1.35746e-05
1.35344e-05
1.42105e-05
1.41298e-05
1.40554e-05
1.39874e-05
1.39259e-05
1.38612e-05
3.20245e-05
3.12396e-05
3.0509e-05
2.97085e-05
2.91154e-05
2.78496e-05
5.71744e-05
5.51925e-05
5.33282e-05
5.10507e-05
7.78724e-05
7.43193e-05
7.2774e-05
6.98686e-05
8.96501e-05
8.55612e-05
8.38927e-05
8.04796e-05
9.36651e-05
8.93539e-05
8.71415e-05
8.58239e-05
8.12051e-05
8.97081e-05
8.55335e-05
8.34145e-05
8.22676e-05
7.7555e-05
7.78994e-05
7.42383e-05
7.23447e-05
7.1339e-05
6.73501e-05
5.71325e-05
5.51905e-05
5.34039e-05
5.16188e-05
4.95455e-05
3.20144e-05
3.12258e-05
3.04673e-05
2.96022e-05
2.88372e-05
1.42064e-05
1.41249e-05
1.40493e-05
1.39812e-05
1.39107e-05
1.39304e-05
1.38458e-05
1.37719e-05
1.36946e-05
1.36375e-05
1.35882e-05
3.02691e-05
2.93827e-05
2.86293e-05
2.80171e-05
2.73263e-05
2.65111e-05
5.55263e-05
5.35816e-05
5.17855e-05
5.01645e-05
4.86996e-05
4.61842e-05
7.71222e-05
7.33857e-05
7.14346e-05
6.97587e-05
6.84704e-05
6.41829e-05
8.94168e-05
8.5156e-05
8.29655e-05
8.10003e-05
7.96237e-05
7.56791e-05
8.94806e-05
8.54283e-05
8.345e-05
8.23747e-05
7.7691e-05
8.5858e-05
8.18349e-05
7.9791e-05
7.87096e-05
7.41322e-05
7.4332e-05
7.08125e-05
6.90717e-05
6.81028e-05
6.41297e-05
5.4545e-05
5.26692e-05
5.09278e-05
4.91945e-05
4.73936e-05
2.99275e-05
2.90626e-05
2.82355e-05
2.775e-05
2.67198e-05
1.35596e-05
1.34756e-05
1.33985e-05
1.33323e-05
1.32649e-05
1.25259e-05
1.24497e-05
1.23847e-05
1.23236e-05
1.2271e-05
1.22231e-05
2.45257e-05
2.36701e-05
2.32936e-05
2.26029e-05
2.22976e-05
2.16496e-05
4.63237e-05
4.46283e-05
4.30251e-05
4.19069e-05
4.08128e-05
3.94099e-05
6.6039e-05
6.28205e-05
6.11994e-05
5.97964e-05
5.90087e-05
5.55588e-05
7.75502e-05
7.38289e-05
7.20326e-05
7.03133e-05
6.91679e-05
6.51139e-05
7.76576e-05
7.41376e-05
7.25146e-05
7.14143e-05
6.81412e-05
7.3884e-05
7.04127e-05
6.87322e-05
6.79107e-05
6.41127e-05
6.3333e-05
6.03326e-05
5.88391e-05
5.80533e-05
5.47201e-05
4.55842e-05
4.38748e-05
4.22746e-05
4.12261e-05
3.96358e-05
2.38155e-05
2.30458e-05
2.22693e-05
2.20656e-05
2.1229e-05
1.2012e-05
1.19279e-05
1.18673e-05
1.18106e-05
1.17596e-05
1.02389e-05
1.0185e-05
1.01362e-05
1.00925e-05
1.0054e-05
1.00206e-05
1.618e-05
1.56398e-05
1.52059e-05
1.49892e-05
1.46898e-05
1.42834e-05
3.19362e-05
3.06206e-05
2.9505e-05
2.91235e-05
2.83763e-05
2.71023e-05
4.7548e-05
4.57489e-05
4.40188e-05
4.30062e-05
4.19444e-05
3.99377e-05
5.68622e-05
5.48446e-05
5.30325e-05
5.1326e-05
4.98322e-05
4.80877e-05
5.69401e-05
5.50791e-05
5.33939e-05
5.17828e-05
4.97653e-05
5.33758e-05
5.15806e-05
4.99379e-05
4.83689e-05
4.65112e-05
4.45887e-05
4.29789e-05
4.14599e-05
4.04036e-05
3.89803e-05
3.06134e-05
2.94091e-05
2.8392e-05
2.80245e-05
2.69996e-05
1.4727e-05
1.42518e-05
1.38798e-05
1.37422e-05
1.33498e-05
9.69446e-06
9.64372e-06
9.59355e-06
9.55275e-06
9.5156e-06
7.07615e-06
7.04436e-06
7.01514e-06
6.98889e-06
6.96498e-06
6.94226e-06
7.35129e-06
7.16119e-06
7.05923e-06
6.94672e-06
6.85817e-06
6.72575e-06
1.53385e-05
1.48105e-05
1.43925e-05
1.42008e-05
1.39398e-05
1.34281e-05
2.48565e-05
2.39868e-05
2.31799e-05
2.29125e-05
2.22742e-05
2.16361e-05
3.11035e-05
3.01379e-05
2.94261e-05
2.86105e-05
2.81999e-05
2.71894e-05
3.19704e-05
3.12162e-05
3.04481e-05
2.97923e-05
2.88425e-05
2.91938e-05
2.84446e-05
2.77806e-05
2.72506e-05
2.64702e-05
2.37665e-05
2.30497e-05
2.24253e-05
2.22144e-05
2.15069e-05
1.56555e-05
1.51171e-05
1.48705e-05
1.46045e-05
1.42367e-05
7.14695e-06
6.98909e-06
6.90806e-06
6.82681e-06
6.70128e-06
6.80627e-06
6.77553e-06
6.74828e-06
6.72339e-06
6.69834e-06
3.55815e-06
3.54406e-06
3.53093e-06
3.51833e-06
3.50699e-06
3.49743e-06
6.84127e-06
6.80719e-06
6.77678e-06
6.74923e-06
6.72458e-06
6.69994e-06
9.75259e-06
9.69551e-06
9.64089e-06
9.59771e-06
1.20797e-05
1.20075e-05
1.19284e-05
1.18715e-05
1.18205e-05
1.36501e-05
1.35578e-05
1.34749e-05
1.34035e-05
1.33323e-05
1.42088e-05
1.41257e-05
1.4052e-05
1.39817e-05
1.39181e-05
1.3843e-05
1.3768e-05
1.36915e-05
1.36341e-05
1.35829e-05
1.24583e-05
1.23813e-05
1.23194e-05
1.22658e-05
1.2219e-05
1.01852e-05
1.0136e-05
1.00915e-05
1.00528e-05
1.00189e-05
7.04353e-06
7.01468e-06
6.98851e-06
6.96487e-06
6.94181e-06
3.54335e-06
3.5307e-06
3.51867e-06
3.50704e-06
3.49693e-06
)
;

boundaryField
{
    inlet
    {
        type            calculated;
        value           nonuniform List<scalar> 0();
    }
    ami1
    {
        type            cyclicAMI;
        value           nonuniform List<scalar> 0();
    }
    walls
    {
        type            nutkWallFunction;
        blending        stepwise;
        value           uniform 0;
    }
    ami2
    {
        type            cyclicAMI;
        value           nonuniform List<scalar> 0();
    }
    outlet
    {
        type            calculated;
        value           nonuniform List<scalar> 0();
    }
    procBoundary5to6
    {
        type            processor;
        value           nonuniform List<scalar> 
177
(
3.49014e-06
3.49014e-06
6.92565e-06
9.99319e-06
9.99319e-06
9.99319e-06
1.21433e-05
1.34837e-05
1.34837e-05
1.37387e-05
2.61248e-05
1.31279e-05
2.43808e-05
1.16436e-05
9.43451e-06
6.66658e-06
6.66658e-06
6.66658e-06
3.48366e-06
6.66643e-06
6.41403e-06
6.66643e-06
6.41403e-06
6.41403e-06
6.41403e-06
1.30443e-05
1.96977e-05
2.41781e-05
2.61248e-05
2.43808e-05
2.43808e-05
1.87837e-05
3.53874e-05
1.19049e-05
2.41075e-05
6.24882e-06
6.91152e-06
6.91152e-06
9.44239e-06
1.22056e-05
1.22056e-05
1.22056e-05
2.42291e-05
3.49283e-05
4.1618e-05
4.43104e-05
4.22379e-05
5.95012e-05
3.53874e-05
2.41075e-05
2.41075e-05
1.28267e-05
9.96649e-06
1.95473e-05
9.96649e-06
1.16518e-05
1.31719e-05
1.89112e-05
3.55021e-05
2.43467e-05
3.55021e-05
4.3486e-05
4.94973e-05
5.98006e-05
5.80243e-05
6.90378e-05
6.10307e-05
5.95012e-05
7.18721e-05
5.95012e-05
5.95012e-05
4.9788e-05
5.91526e-05
3.47245e-05
4.291e-05
1.95473e-05
2.46419e-05
1.21452e-05
1.31719e-05
2.43467e-05
4.3486e-05
4.3486e-05
4.72138e-05
5.98006e-05
6.43168e-05
6.90378e-05
7.42014e-05
7.18721e-05
6.88085e-05
5.91526e-05
4.291e-05
2.46419e-05
2.46419e-05
1.34855e-05
1.38382e-05
1.37983e-05
1.35336e-05
4.72138e-05
2.6062e-05
4.59296e-05
2.47405e-05
4.72138e-05
4.72138e-05
6.43168e-05
6.43168e-05
7.42014e-05
7.42014e-05
7.42014e-05
7.53326e-05
7.18428e-05
6.20655e-05
4.57116e-05
2.68188e-05
1.38382e-05
1.35336e-05
2.47405e-05
4.28058e-05
5.93063e-05
6.96879e-05
7.21008e-05
6.87188e-05
5.92204e-05
4.35707e-05
2.48809e-05
1.32065e-05
1.21829e-05
2.01187e-05
3.61717e-05
5.10195e-05
5.99805e-05
6.26821e-05
5.90813e-05
5.03372e-05
3.61626e-05
1.96678e-05
1.17109e-05
9.99125e-06
1.33348e-05
2.49709e-05
3.67488e-05
4.41059e-05
4.60246e-05
4.29938e-05
3.58683e-05
2.46645e-05
1.23525e-05
9.48e-06
6.92431e-06
6.38393e-06
9.55401e-06
1.2499e-05
9.51397e-06
1.99769e-05
1.17653e-05
2.52584e-05
1.32658e-05
2.71261e-05
2.47344e-05
2.00976e-05
1.33052e-05
6.35892e-06
6.67617e-06
3.48966e-06
9.55401e-06
6.67883e-06
9.51397e-06
9.55401e-06
9.55401e-06
1.17653e-05
1.32658e-05
1.32658e-05
1.3849e-05
1.35293e-05
1.21761e-05
9.98733e-06
6.92255e-06
3.48825e-06
)
;
    }
    procBoundary5to7
    {
        type            processor;
        value           nonuniform List<scalar> 
131
(
3.55813e-06
7.07574e-06
1.02386e-05
1.25263e-05
1.39303e-05
1.42987e-05
1.36539e-05
1.20842e-05
9.75082e-06
6.8416e-06
3.55811e-06
6.84303e-06
7.57303e-06
1.67763e-05
2.52892e-05
3.09284e-05
3.36241e-05
3.19415e-05
2.56771e-05
1.58485e-05
7.56353e-06
7.07661e-06
9.75547e-06
1.59561e-05
3.33759e-05
4.81018e-05
5.70854e-05
6.12429e-05
5.85361e-05
4.93518e-05
3.32174e-05
1.67946e-05
1.02412e-05
1.20948e-05
2.57963e-05
4.95773e-05
6.89404e-05
7.9975e-05
8.39626e-05
8.05089e-05
6.88252e-05
4.80869e-05
2.53675e-05
1.25307e-05
1.36612e-05
3.22813e-05
5.90147e-05
8.0945e-05
9.28866e-05
9.67194e-05
9.26941e-05
8.01797e-05
5.73447e-05
3.11529e-05
1.39346e-05
1.4306e-05
1.4306e-05
3.37645e-05
3.37645e-05
6.13546e-05
6.13546e-05
8.41343e-05
8.41343e-05
9.66691e-05
9.66691e-05
0.000100976
9.68072e-05
8.42716e-05
6.14703e-05
3.37773e-05
1.43013e-05
1.40276e-05
3.20907e-05
5.95732e-05
8.33684e-05
9.64124e-05
9.64474e-05
9.64474e-05
9.28005e-05
8.06554e-05
5.88161e-05
3.21789e-05
1.36547e-05
1.2606e-05
2.60942e-05
4.99322e-05
7.16221e-05
8.38818e-05
8.38905e-05
8.38905e-05
8.01741e-05
6.89082e-05
4.94416e-05
2.57396e-05
1.20842e-05
1.02962e-05
1.7266e-05
3.45577e-05
5.13701e-05
6.11915e-05
6.16523e-05
6.16523e-05
5.74772e-05
4.81682e-05
3.32269e-05
1.58833e-05
9.75054e-06
7.10994e-06
7.7778e-06
1.65183e-05
2.67416e-05
3.32845e-05
3.38312e-05
3.38312e-05
3.11875e-05
2.53634e-05
1.6769e-05
7.56551e-06
6.8403e-06
3.57318e-06
6.87811e-06
9.8154e-06
1.2185e-05
1.37589e-05
1.43047e-05
1.43047e-05
1.39356e-05
1.25259e-05
1.02377e-05
7.07468e-06
3.55724e-06
)
;
    }
}


// ************************************************************************* //
