/*--------------------------------*- C++ -*----------------------------------*\
| =========                 |                                                 |
| \\      /  F ield         | OpenFOAM: The Open Source CFD Toolbox           |
|  \\    /   O peration     | Version:  2212                                  |
|   \\  /    A nd           | Website:  www.openfoam.com                      |
|    \\/     M anipulation  |                                                 |
\*---------------------------------------------------------------------------*/
FoamFile
{
    version     2.0;
    format      ascii;
    arch        "LSB;label=32;scalar=64";
    class       volScalarField;
    location    "1";
    object      p;
}
// * * * * * * * * * * * * * * * * * * * * * * * * * * * * * * * * * * * * * //

dimensions      [0 2 -2 0 0 0 0];

internalField   nonuniform List<scalar> 
678
(
0.00111101
0.000999495
0.000888991
0.000781178
0.000676
0.00110706
0.00099584
0.000885679
0.000778298
0.000673616
0.00110327
0.000992357
0.000882535
0.000775542
0.000671047
0.001103
0.00099207
0.000882399
0.000775503
0.000670827
0.000567452
0.00110568
0.00099472
0.000885089
0.000777983
0.000672907
0.000569369
0.00110781
0.000996894
0.000887379
0.00078014
0.000674846
0.0005711
0.000466299
0.0011113
0.000999381
0.000888893
0.000781226
0.000675943
0.000572657
0.000468348
0.00111256
0.00100086
0.000890131
0.000782242
0.000676707
0.000573023
0.000469825
0.0011127
0.00100113
0.000890462
0.000782559
0.000676962
0.000573132
0.000469927
0.00111522
0.00100315
0.000892122
0.000783798
0.000677765
0.000573622
0.00111106
0.0009995
0.000888931
0.000780973
0.00067527
0.000571364
0.00111534
0.00100336
0.00089243
0.0007843
0.000678986
0.000574405
0.001115
0.00100285
0.000891598
0.00078332
0.000678109
0.00110584
0.000995586
0.000886044
0.000778582
0.000673073
0.000569279
0.00110285
0.000993429
0.000885062
0.000777898
0.000671948
0.00056725
0.00110255
0.000993313
0.000885267
0.000778203
0.000672125
0.000567008
0.00110433
0.000994854
0.000886551
0.000779382
0.000673274
0.000567988
0.00110491
0.000995411
0.000887217
0.000780223
0.000674535
0.00056944
0.00110679
0.000996758
0.000887749
0.000780549
0.000675397
0.000571251
0.000465212
0.00110972
0.000999113
0.0008891
0.00078144
0.000676244
0.000572437
0.00046779
0.00111499
0.00100281
0.000891529
0.000783143
0.000677273
0.000573417
0.000470375
0.00110726
0.00099605
0.000885858
0.000778309
0.000673005
0.00056938
0.00111279
0.00100125
0.000890731
0.000782973
0.000677863
0.000573818
0.000468265
0.00110978
0.000999174
0.000889177
0.000781355
0.000675556
0.000571505
0.00109007
0.000983132
0.000877213
0.000771166
0.000664892
0.000559357
0.00108233
0.000976098
0.000870882
0.00076519
0.000659175
0.000553629
0.00107821
0.000972175
0.00086676
0.000761181
0.000655823
0.000550638
0.00107818
0.000971854
0.000866008
0.000760332
0.000655049
0.000550065
0.00107825
0.00097239
0.000867337
0.00076237
0.000657226
0.000551002
0.00108277
0.000976579
0.000871646
0.000766486
0.000661057
0.000555433
0.0010902
0.000983329
0.00087741
0.000771733
0.000666657
0.000561436
0.00110596
0.000995804
0.000886355
0.000779142
0.000674457
0.000570769
0.000465321
0.00110363
0.000992723
0.000882892
0.000775777
0.000671009
0.000567626
0.00111273
0.00100108
0.000890463
0.000782669
0.000677255
0.000573194
0.000468851
0.00110711
0.000997047
0.000888165
0.000780906
0.000675157
0.000570306
0.000464599
0.00108276
0.00097664
0.000871685
0.000766502
0.000660943
0.000554838
0.00107204
0.000966971
0.00086281
0.000758219
0.000652814
0.000547064
0.0010652
0.000960567
0.000856916
0.00075286
0.000648017
0.000543048
0.00106387
0.000959128
0.000855376
0.000751317
0.00064667
0.000542202
0.00106521
0.00096058
0.00085694
0.0007528
0.000647699
0.00107223
0.000967066
0.000863078
0.00075872
0.000653391
0.000547282
0.00108263
0.000976348
0.000871182
0.00076559
0.00065931
0.000553241
0.00110327
0.000993961
0.00088575
0.000778868
0.000673354
0.000568102
0.00110362
0.000992763
0.000883152
0.00077626
0.000671855
0.000568046
0.00111165
0.00099971
0.000889339
0.000781842
0.000676886
0.00057313
0.0011053
0.000995913
0.000887897
0.000781184
0.000675372
0.000568693
0.00107832
0.000972516
0.000867266
0.000761971
0.000656077
0.00106499
0.000960313
0.000856406
0.000751745
0.00064624
0.00105727
0.000952981
0.000850015
0.000746094
0.000641319
0.00105554
0.000951144
0.000848226
0.000744462
0.000640059
0.00105717
0.000952767
0.00084974
0.000745592
0.000640612
0.00106504
0.000960242
0.00085636
0.000751826
0.000646631
0.00107828
0.000972131
0.000866481
0.00076073
0.000654804
0.00110318
0.000994053
0.00088613
0.000779206
0.000672917
0.00110662
0.000995784
0.000886447
0.000779637
0.000675029
0.000569573
0.00110787
0.000997112
0.000887949
0.00078086
0.000675616
0.000571249
0.00110486
0.000995589
0.000887619
0.00078093
0.000673724
0.000565899
0.00107849
0.000971978
0.000865933
0.000760152
0.00106393
0.000958913
0.000854215
0.000748732
0.00105572
0.000951279
0.000847497
0.000742742
0.0010532
0.000948726
0.000845557
0.00074145
0.000637593
0.00105522
0.000950707
0.000847594
0.000743354
0.000638861
0.0010634
0.000958482
0.000854377
0.000749531
0.00064442
0.00107809
0.000971572
0.000865411
0.000759584
0.000653867
0.00110499
0.000995576
0.000887315
0.000780071
0.000673514
0.00110887
0.000998165
0.000888886
0.000781767
0.00067668
0.00121571
0.00110424
0.000993781
0.000885453
0.000779226
0.000674704
0.001213
0.00110275
0.000993529
0.000885479
0.000778605
0.000672031
0.00118672
0.00107934
0.000972774
0.000866361
0.000760157
0.00065392
0.00117288
0.00106665
0.000961703
0.000856535
0.00075057
0.000644936
0.00116493
0.0010589
0.00095472
0.000850384
0.000745055
0.00064001
0.00105575
0.000951429
0.000848044
0.000743614
0.000639095
0.00105681
0.000952443
0.000849313
0.000744815
0.000639975
0.00106462
0.000959764
0.00085568
0.000750659
0.000645205
0.00107816
0.000972039
0.000866398
0.000760513
0.000654155
0.00110559
0.000996186
0.000888036
0.000780675
0.000673964
0.00111237
0.00100066
0.000890453
0.000783271
0.000678505
0.00121251
0.00110049
0.000990119
0.000882171
0.000776333
0.000672556
0.00121276
0.00110231
0.00099295
0.000884834
0.000777905
0.000671908
0.00119097
0.00108366
0.000977281
0.000870796
0.000764165
0.00065733
0.00118007
0.00107366
0.000968277
0.000862668
0.000756516
0.000650148
0.00117288
0.00106679
0.000961876
0.000856714
0.000750901
0.000645099
0.00106388
0.000959094
0.00085467
0.000749529
0.000644353
0.00106464
0.000959798
0.00085572
0.000750637
0.000645181
0.00107184
0.000966381
0.000861716
0.000756361
0.000650145
0.00108273
0.000976419
0.000871084
0.000765069
0.000657916
0.00110742
0.000997493
0.000888767
0.000781442
0.000675256
0.00111353
0.00100207
0.000891639
0.000784368
0.000679901
0.00121223
0.00110046
0.000989814
0.000881783
0.000776235
0.000672588
0.00121525
0.00110394
0.000993573
0.000885187
0.000778922
0.000674106
0.00119854
0.00109046
0.000983692
0.000877033
0.000770126
0.000663289
0.00119091
0.00108361
0.000977573
0.000871274
0.000764472
0.000657733
0.00118659
0.00107953
0.000973071
0.000866735
0.000760436
0.000654018
0.00107828
0.000971676
0.000865339
0.00075927
0.000653597
0.00107803
0.000971749
0.000865912
0.000760064
0.000654069
0.0010824
0.000976034
0.000870559
0.000764539
0.000657572
0.00109021
0.000983419
0.000877506
0.000771002
0.000663805
0.00111023
0.000999796
0.000890068
0.000782604
0.000677516
0.00111355
0.00100223
0.000891821
0.000784415
0.000680002
0.00121638
0.00110425
0.000993119
0.000884595
0.000778621
0.000674765
0.00122514
0.0011119
0.000999514
0.000890033
0.000783631
0.000679602
0.00121903
0.00110744
0.000996537
0.00088791
0.000781678
0.000676754
0.00121656
0.00110551
0.000995544
0.000887114
0.000780219
0.000674445
0.00121499
0.00110455
0.00099506
0.000886708
0.000779366
0.000672977
0.00110462
0.000994878
0.000886341
0.000778978
0.00067245
0.00110273
0.000993434
0.00088534
0.000778179
0.000671623
0.00110301
0.000993756
0.00088551
0.000778305
0.000672061
0.00110604
0.000995987
0.000886669
0.000779406
0.000674299
0.0011155
0.0010034
0.000892371
0.000784538
0.000680149
0.00111603
0.00100415
0.00089335
0.000785561
0.000680785
0.00122073
0.00110817
0.000996592
0.000887651
0.000781263
0.000677084
0.00122546
0.00111231
0.00100021
0.000890908
0.000784294
0.00067983
0.00122207
0.00110952
0.000998067
0.000889399
0.00122206
0.00110943
0.000997831
0.000889122
0.000783095
0.00122141
0.00110881
0.00099724
0.000888103
0.000781682
0.00110737
0.000996417
0.000887199
0.000780396
0.000675383
0.00110582
0.000994802
0.00088538
0.000778523
0.000673791
0.00110325
0.00099234
0.000882751
0.000776067
0.000671802
0.00110362
0.000992607
0.00088291
0.000776177
0.000672022
0.00110745
0.000996203
0.000886111
0.000778937
0.000674602
0.00111153
0.00100007
0.000889654
0.000782096
0.000677472
)
;

boundaryField
{
    inlet
    {
        type            zeroGradient;
    }
    ami1
    {
        type            cyclicAMI;
        value           nonuniform List<scalar> 0();
    }
    walls
    {
        type            zeroGradient;
    }
    ami2
    {
        type            cyclicAMI;
        value           nonuniform List<scalar> 0();
    }
    outlet
    {
        type            fixedValue;
        value           nonuniform List<scalar> 0();
    }
    procBoundary5to6
    {
        type            processor;
        value           nonuniform List<scalar> 
177
(
0.000571849
0.000571849
0.000569698
0.000567664
0.000567664
0.000567664
0.00046298
0.000464816
0.000464816
0.000359647
0.000462999
0.000361153
0.000463464
0.000363768
0.000363984
0.000470364
0.000470364
0.000470364
0.000468136
0.000468339
0.0005745
0.000468339
0.0005745
0.0005745
0.0005745
0.000465045
0.00046277
0.000462255
0.000462999
0.000463464
0.000463464
0.000358761
0.000450322
0.000361224
0.000455244
0.000364526
0.000466199
0.000466199
0.000360891
0.000467427
0.000467427
0.000467427
0.000455701
0.000450601
0.000447939
0.000447628
0.00044695
0.000542788
0.000450322
0.000455244
0.000455244
0.000358502
0.000464055
0.000462122
0.000464055
0.000362134
0.000467505
0.000358767
0.000449985
0.00046157
0.000449985
0.00054985
0.000444914
0.000542547
0.000441724
0.000538547
0.000441266
0.000542788
0.000537681
0.000542788
0.000542788
0.00044441
0.00054306
0.00044977
0.000550335
0.000462122
0.000566797
0.00046269
0.000467505
0.00046157
0.00054985
0.00054985
0.000654094
0.000542547
0.000644209
0.000538547
0.000638996
0.000537681
0.000538369
0.00054306
0.000550335
0.000566797
0.000566797
0.000462397
0.000570743
0.000465278
0.000569345
0.000654094
0.000460126
0.000548919
0.000565768
0.000654094
0.000654094
0.000644209
0.000644209
0.000638996
0.000638996
0.000638996
0.000537047
0.000537755
0.000542264
0.000550151
0.000567535
0.000570743
0.000569345
0.000565768
0.0005499
0.000543084
0.00053877
0.000537982
0.000538704
0.000542996
0.000550318
0.000567962
0.000572249
0.000567343
0.000566383
0.000552928
0.00054705
0.000542942
0.000542387
0.000543005
0.000546974
0.000553368
0.000569133
0.000573551
0.000567463
0.00056861
0.000558425
0.000553424
0.000550251
0.000550162
0.000550319
0.000553027
0.000558429
0.000571513
0.000573778
0.000569454
0.000573805
0.000783443
0.000571033
0.000679179
0.000568575
0.00067891
0.000567136
0.000677417
0.000566569
0.000565758
0.000566261
0.000568609
0.000574324
0.000574619
0.000571507
0.000783443
0.000573758
0.000679179
0.000783443
0.000783443
0.00067891
0.000677417
0.000677417
0.000569469
0.000568063
0.000566322
0.000566791
0.000569198
0.000571803
)
;
    }
    procBoundary5to7
    {
        type            processor;
        value           nonuniform List<scalar> 
131
(
0.00122053
0.00121633
0.00121252
0.00121284
0.00121575
0.00121793
0.00122168
0.00122216
0.00122218
0.0012252
0.00122061
0.00122524
0.00122485
0.00121559
0.0012128
0.00121266
0.00121453
0.00121526
0.00121693
0.00121937
0.00122488
0.00121652
0.00122233
0.00121949
0.00119955
0.00119121
0.0011867
0.00118668
0.00118685
0.00119189
0.00119962
0.00121569
0.00121283
0.00122253
0.00121711
0.00119167
0.0011806
0.00117349
0.00117217
0.00117349
0.00118093
0.00119157
0.00121319
0.00121333
0.00122183
0.00121549
0.00118696
0.00117328
0.00116558
0.00116395
0.00116563
0.00117345
0.00118693
0.00121328
0.00121643
0.0012182
0.0012182
0.00121496
0.00121496
0.00118673
0.00118673
0.00117168
0.00117168
0.0011635
0.0011635
0.00116151
0.00116373
0.00117183
0.00118674
0.00121521
0.00121877
0.00132662
0.00132412
0.00129639
0.00128262
0.00127503
0.0011635
0.0011635
0.00116529
0.00117313
0.00118706
0.00121589
0.0012223
0.00132364
0.00132387
0.00130094
0.00128975
0.00128261
0.00117162
0.00117162
0.00117314
0.00118074
0.00119198
0.00121741
0.00122283
0.00132266
0.00132622
0.00130907
0.00130091
0.00129619
0.00118654
0.00118654
0.00118681
0.0011915
0.00119968
0.0012197
0.00122274
0.00132672
0.00133633
0.00132995
0.00132772
0.0013261
0.00121466
0.00121466
0.00121291
0.0012129
0.00121565
0.00122516
0.00122573
0.00133138
0.00133659
0.00133293
0.00133304
0.00133257
0.00121787
0.00121787
0.00121574
0.00121288
0.00121269
0.00121657
0.00122089
)
;
    }
}


// ************************************************************************* //
