/*--------------------------------*- C++ -*----------------------------------*\
| =========                 |                                                 |
| \\      /  F ield         | OpenFOAM: The Open Source CFD Toolbox           |
|  \\    /   O peration     | Version:  2212                                  |
|   \\  /    A nd           | Website:  www.openfoam.com                      |
|    \\/     M anipulation  |                                                 |
\*---------------------------------------------------------------------------*/
FoamFile
{
    version     2.0;
    format      ascii;
    arch        "LSB;label=32;scalar=64";
    class       surfaceScalarField;
    location    "1";
    object      phi;
}
// * * * * * * * * * * * * * * * * * * * * * * * * * * * * * * * * * * * * * //

dimensions      [0 3 -1 0 0 0 0];

oriented        oriented;

internalField   nonuniform List<scalar> 
1755
(
6.05986e-08
-3.43757e-08
3.46489e-08
6.03198e-08
-3.43898e-08
3.46688e-08
6.00296e-08
-3.4404e-08
3.46943e-08
5.97493e-08
-3.44303e-08
3.47108e-08
-3.44704e-08
3.4708e-08
1.97147e-07
-6.48221e-08
3.13009e-08
1.96322e-07
-6.48658e-08
3.13005e-08
1.95521e-07
-6.49186e-08
3.13158e-08
1.9476e-07
-6.49849e-08
3.1316e-08
-6.50401e-08
3.12563e-08
3.87007e-07
-8.9815e-08
2.66657e-08
3.8545e-07
-8.98732e-08
2.65646e-08
3.84022e-07
-8.99551e-08
2.6465e-08
3.82717e-07
-9.00375e-08
2.63578e-08
-9.00946e-08
2.62428e-08
5.54563e-07
-1.07735e-07
2.03187e-08
5.52356e-07
-1.07792e-07
2.01258e-08
5.50337e-07
-1.07865e-07
1.99295e-08
5.48488e-07
-1.07929e-07
1.97402e-08
5.46804e-07
-1.07974e-07
1.95639e-08
-1.07997e-07
1.93243e-08
6.65244e-07
-1.17342e-07
1.24257e-08
6.62632e-07
-1.17371e-07
1.21905e-08
6.60212e-07
-1.17393e-07
1.19468e-08
6.57975e-07
-1.17404e-07
1.17116e-08
6.55917e-07
-1.17406e-07
1.14906e-08
-1.17395e-07
1.12066e-08
6.89452e-07
-1.17838e-07
3.41876e-09
6.86714e-07
-1.17798e-07
3.16446e-09
6.84153e-07
-1.17736e-07
2.90455e-09
6.8177e-07
-1.17677e-07
2.65635e-09
6.79578e-07
-1.17632e-07
2.41773e-09
6.77662e-07
-1.17605e-07
2.12649e-09
-1.17597e-07
6.27754e-07
-1.08853e-07
-6.07058e-09
6.25046e-07
-1.08797e-07
-6.29338e-09
6.22558e-07
-1.08721e-07
-6.52698e-09
6.20277e-07
-1.08647e-07
-6.75032e-09
6.18188e-07
-1.0857e-07
-6.97242e-09
6.1635e-07
-1.08497e-07
-7.26986e-09
-1.08506e-07
5.03722e-07
-9.10935e-08
-1.54106e-08
5.01563e-07
-9.1037e-08
-1.5601e-08
4.99601e-07
-9.09884e-08
-1.57702e-08
4.97826e-07
-9.09419e-08
-1.59297e-08
4.96231e-07
-9.08909e-08
-1.60842e-08
4.94836e-07
-9.0836e-08
-1.62661e-08
-9.08024e-08
-1.647e-08
3.45514e-07
-6.58645e-08
-2.36347e-08
3.44029e-07
-6.58453e-08
-2.37068e-08
3.4265e-07
-6.58369e-08
-2.37715e-08
3.41377e-07
-6.58165e-08
-2.38528e-08
3.40212e-07
-6.57827e-08
-2.39426e-08
3.39191e-07
-6.57311e-08
-2.40835e-08
-2.426e-08
1.82162e-07
-3.46607e-08
-3.03418e-08
1.81343e-07
-3.46838e-08
-3.03423e-08
1.80544e-07
-3.47094e-08
-3.03286e-08
1.79789e-07
-3.47241e-08
-3.03365e-08
1.79102e-07
-3.47284e-08
-3.03679e-08
-3.47147e-08
-3.04554e-08
6.05944e-08
-3.43868e-08
6.03169e-08
-3.44062e-08
6.00314e-08
-3.44239e-08
5.97607e-08
-3.44533e-08
5.95244e-08
-3.44921e-08
-3.45392e-08
1.8224e-07
-3.03442e-08
6.58503e-08
1.8142e-07
-3.03368e-08
6.58266e-08
1.80608e-07
-3.03111e-08
6.58174e-08
1.79815e-07
-3.03029e-08
6.58066e-08
1.79097e-07
-3.03666e-08
6.57925e-08
6.57305e-08
4.91517e-07
-5.65179e-08
5.91928e-08
4.89916e-07
-5.65784e-08
5.91434e-08
4.88436e-07
-5.66296e-08
5.91144e-08
4.87047e-07
-5.66881e-08
5.90904e-08
-5.68104e-08
5.89976e-08
8.07225e-07
-7.84448e-08
4.97437e-08
8.06099e-07
-7.84838e-08
4.95964e-08
8.04993e-07
-7.85289e-08
4.94698e-08
8.03918e-07
-7.85956e-08
4.93411e-08
8.02882e-07
-7.86965e-08
4.91647e-08
-7.89041e-08
4.88604e-08
1.03394e-06
-9.42674e-08
3.67708e-08
1.03328e-06
-9.42961e-08
3.65921e-08
1.03259e-06
-9.43282e-08
3.64244e-08
1.03187e-06
-9.43824e-08
3.62455e-08
1.03115e-06
-9.4452e-08
3.6034e-08
-9.45984e-08
3.56429e-08
1.16672e-06
-1.02802e-07
2.14474e-08
1.1662e-06
-1.0282e-07
2.12394e-08
1.16563e-06
-1.0284e-07
2.10285e-08
1.16503e-06
-1.02867e-07
2.07988e-08
1.16443e-06
-1.02904e-07
2.05385e-08
-1.02961e-07
2.00968e-08
1.20021e-06
-1.03392e-07
4.53081e-09
1.19967e-06
-1.03407e-07
4.29231e-09
1.1991e-06
-1.03424e-07
4.05434e-09
1.19852e-06
-1.03435e-07
3.81018e-09
1.19794e-06
-1.03447e-07
3.53886e-09
-1.03412e-07
3.10394e-09
1.14029e-06
-9.60421e-08
-1.29526e-08
1.13978e-06
-9.60463e-08
-1.31407e-08
1.1392e-06
-9.60449e-08
-1.33282e-08
1.13856e-06
-9.60331e-08
-1.35183e-08
1.13792e-06
-9.60297e-08
-1.37504e-08
-9.59612e-08
-1.41835e-08
9.9729e-07
-8.11227e-08
-2.95747e-08
9.96499e-07
-8.11119e-08
-2.97444e-08
9.95663e-07
-8.10957e-08
-2.98835e-08
9.94782e-07
-8.10605e-08
-3.00204e-08
9.93864e-07
-8.10331e-08
-3.01631e-08
9.93021e-07
-8.09294e-08
-3.04545e-08
-8.06983e-08
7.77647e-07
-5.92112e-08
-4.41333e-08
7.76279e-07
-5.91662e-08
-4.42839e-08
7.74955e-07
-5.91331e-08
-4.44098e-08
7.7367e-07
-5.90867e-08
-4.4542e-08
7.72411e-07
-5.90322e-08
-4.46842e-08
7.71234e-07
-5.89159e-08
-4.492e-08
-5.87227e-08
4.91447e-07
-3.13099e-08
-5.65253e-08
4.89851e-07
-3.13103e-08
-5.66017e-08
4.88384e-07
-3.13218e-08
-5.6673e-08
4.87032e-07
-3.1311e-08
-5.67603e-08
4.85782e-07
-3.12777e-08
-5.68726e-08
4.84644e-07
-3.11981e-08
-5.70343e-08
-5.72098e-08
1.97205e-07
-6.48441e-08
1.96385e-07
-6.48967e-08
1.95594e-07
-6.49543e-08
1.94862e-07
-6.50323e-08
1.94224e-07
-6.51314e-08
-6.52276e-08
3.45749e-07
-2.36452e-08
9.10807e-08
3.44269e-07
-2.37119e-08
9.10191e-08
3.42884e-07
-2.37628e-08
9.09654e-08
3.41583e-07
-2.38137e-08
9.09213e-08
3.40372e-07
-2.38923e-08
9.08957e-08
3.39323e-07
-2.40826e-08
9.08625e-08
9.07717e-08
7.77764e-07
-4.41476e-08
8.1101e-08
7.76402e-07
-4.42866e-08
8.10805e-08
7.75091e-07
-4.43988e-08
8.10614e-08
7.73843e-07
-4.45032e-08
8.10283e-08
7.72673e-07
-4.46722e-08
8.09472e-08
-4.49939e-08
8.07739e-08
1.12596e-06
-6.1924e-08
6.71188e-08
1.12628e-06
-6.20261e-08
6.70177e-08
1.12647e-06
-6.20804e-08
6.69554e-08
1.12659e-06
-6.21497e-08
6.68725e-08
1.12667e-06
-6.2297e-08
6.67076e-08
-6.26112e-08
6.64042e-08
1.364e-06
-7.50851e-08
4.86533e-08
1.36519e-06
-7.51485e-08
4.85285e-08
1.36629e-06
-7.51921e-08
4.84356e-08
1.36729e-06
-7.52356e-08
4.83335e-08
1.3682e-06
-7.53192e-08
4.81488e-08
-7.55228e-08
4.7796e-08
1.50248e-06
-8.24757e-08
2.72095e-08
1.50401e-06
-8.24965e-08
2.70578e-08
1.50545e-06
-8.25174e-08
2.69152e-08
1.5068e-06
-8.25466e-08
2.6761e-08
1.50806e-06
-8.2592e-08
2.65446e-08
-8.26723e-08
2.61698e-08
1.54262e-06
-8.35767e-08
3.90611e-09
1.54425e-06
-8.35778e-08
3.74028e-09
1.54579e-06
-8.35938e-08
3.58967e-09
1.54725e-06
-8.3621e-08
3.42694e-09
1.54862e-06
-8.36248e-08
3.20083e-09
-8.35544e-08
2.81284e-09
1.48969e-06
-7.84497e-08
-1.9754e-08
1.49127e-06
-7.83953e-08
-1.98984e-08
1.49274e-06
-7.8376e-08
-2.00144e-08
1.4941e-06
-7.83585e-08
-2.01459e-08
1.4954e-06
-7.82941e-08
-2.03837e-08
-7.81279e-08
1.3502e-06
-6.71478e-08
-4.21793e-08
1.35141e-06
-6.70453e-08
-4.2305e-08
1.3525e-06
-6.69879e-08
-4.23667e-08
1.35347e-06
-6.69135e-08
-4.24364e-08
1.35438e-06
-6.67744e-08
-4.25919e-08
-6.64927e-08
-4.29349e-08
1.12599e-06
-4.9764e-08
-6.19147e-08
1.1263e-06
-4.96176e-08
-6.20211e-08
1.12647e-06
-4.94912e-08
-6.20774e-08
1.12652e-06
-4.93591e-08
-6.21456e-08
1.12653e-06
-4.92027e-08
-6.22702e-08
-4.89496e-08
-6.25362e-08
8.07217e-07
-2.66806e-08
-7.84633e-08
8.06091e-07
-2.6578e-08
-7.8515e-08
8.04973e-07
-2.64753e-08
-7.85705e-08
8.0385e-07
-2.63525e-08
-7.86439e-08
8.02721e-07
-2.62034e-08
-7.87435e-08
8.01664e-07
-2.60224e-08
-7.89043e-08
3.87234e-07
-8.98485e-08
3.85673e-07
-8.99138e-08
3.84243e-07
-9e-08
3.82957e-07
-9.00983e-08
3.81828e-07
-9.02062e-08
-9.02689e-08
5.04163e-07
-1.54055e-08
1.08825e-07
5.02004e-07
-1.55932e-08
1.08771e-07
5.00043e-07
-1.57622e-08
1.08689e-07
4.98269e-07
-1.59105e-08
1.08606e-07
4.96694e-07
-1.605e-08
1.08521e-07
4.95317e-07
-1.62274e-08
1.08467e-07
-1.64599e-08
9.9731e-07
-2.95723e-08
9.60237e-08
9.96523e-07
-2.97416e-08
9.60165e-08
9.95687e-07
-2.98754e-08
9.60103e-08
9.9483e-07
-3.00064e-08
9.5981e-08
9.93968e-07
-3.01703e-08
9.59296e-08
9.93159e-07
-3.05001e-08
9.58554e-08
1.34999e-06
-4.21827e-08
7.84368e-08
1.35119e-06
-4.23052e-08
7.83838e-08
1.35229e-06
-4.23753e-08
7.83622e-08
1.35326e-06
-4.24444e-08
7.83367e-08
1.35415e-06
-4.26129e-08
7.82567e-08
-4.29959e-08
1.58963e-06
-5.1851e-08
5.60107e-08
1.59184e-06
-5.19272e-08
5.59446e-08
1.59392e-06
-5.19548e-08
5.59268e-08
1.59589e-06
-5.19828e-08
5.59021e-08
1.59773e-06
-5.20955e-08
5.57928e-08
-5.23356e-08
1.73086e-06
-5.75712e-08
3.02269e-08
1.73345e-06
-5.75974e-08
3.01399e-08
1.73593e-06
-5.76086e-08
3.00879e-08
1.7383e-06
-5.76197e-08
3.00307e-08
1.7405e-06
-5.7656e-08
2.9901e-08
-5.77348e-08
1.77569e-06
-5.89754e-08
2.49415e-09
1.77839e-06
-5.89578e-08
2.39995e-09
1.78099e-06
-5.89595e-08
2.34365e-09
1.78347e-06
-5.89447e-08
2.27016e-09
1.78578e-06
-5.88829e-08
2.12063e-09
1.72716e-06
-5.60175e-08
-2.54381e-08
1.72978e-06
-5.59476e-08
-2.5523e-08
1.73229e-06
-5.59247e-08
-2.55582e-08
1.73471e-06
-5.58811e-08
-2.56285e-08
-5.57465e-08
-2.58067e-08
1.58968e-06
-4.86779e-08
-5.18359e-08
1.59188e-06
-4.85523e-08
-5.19013e-08
1.59396e-06
-4.84618e-08
-5.19097e-08
1.59592e-06
-4.83491e-08
-5.19297e-08
1.59775e-06
-4.81327e-08
-5.20379e-08
-4.77669e-08
1.36392e-06
-3.67923e-08
-7.50738e-08
1.36509e-06
-3.66174e-08
-7.51324e-08
1.36618e-06
-3.64626e-08
-7.51629e-08
1.36718e-06
-3.62932e-08
-7.51994e-08
1.36811e-06
-3.60345e-08
-7.52961e-08
-3.56229e-08
1.03392e-06
-2.03333e-08
-9.42838e-08
1.03326e-06
-2.01479e-08
-9.43165e-08
1.03253e-06
-1.99608e-08
-9.43476e-08
1.03177e-06
-1.9772e-08
-9.4399e-08
1.03104e-06
-1.95494e-08
-9.4499e-08
-1.92987e-08
5.55013e-07
-1.07765e-07
5.52774e-07
-1.07823e-07
5.50714e-07
-1.079e-07
5.4882e-07
-1.07976e-07
5.47097e-07
-1.08032e-07
-1.08012e-07
6.28418e-07
-6.08345e-09
1.17794e-07
6.25716e-07
-6.29964e-09
1.17772e-07
6.23219e-07
-6.53061e-09
1.17717e-07
6.20924e-07
-6.75834e-09
1.17659e-07
6.18845e-07
-7.00921e-09
1.17609e-07
-7.27885e-09
1.17584e-07
1.14025e-06
-1.29437e-08
1.03371e-07
1.1397e-06
-1.31259e-08
1.03386e-07
1.13909e-06
-1.33034e-08
1.03401e-07
1.13842e-06
-1.35169e-08
1.03408e-07
1.13777e-06
-1.38527e-08
1.03417e-07
1.03397e-07
1.48936e-06
-1.97421e-08
8.35865e-08
1.49092e-06
-1.98882e-08
8.35815e-08
1.4924e-06
-2.00062e-08
8.35919e-08
1.49381e-06
-2.01894e-08
8.35984e-08
-2.05392e-08
1.72692e-06
-2.54428e-08
5.89962e-08
1.72954e-06
-2.55391e-08
5.89704e-08
1.73208e-06
-2.55913e-08
5.89775e-08
1.7345e-06
-2.56989e-08
5.89837e-08
-2.59173e-08
1.86856e-06
-2.92394e-08
3.08916e-08
1.87157e-06
-2.92709e-08
3.08543e-08
1.87451e-06
-2.92865e-08
3.08475e-08
1.87732e-06
-2.93206e-08
3.08428e-08
-2.93891e-08
1.91548e-06
-3.08659e-08
8.67495e-10
1.91861e-06
-3.08327e-08
8.3812e-10
1.92165e-06
-3.08128e-08
8.28908e-10
1.92456e-06
-3.07716e-08
8.08284e-10
-3.06926e-08
7.4994e-10
1.86864e-06
-3.02256e-08
-2.92248e-08
1.87166e-06
-3.0133e-08
-2.92501e-08
1.87462e-06
-3.0075e-08
-2.92566e-08
1.87747e-06
-2.99658e-08
-2.92756e-08
-2.97478e-08
-2.93335e-08
1.73071e-06
-2.72272e-08
-5.75527e-08
1.73332e-06
-2.7079e-08
-5.757e-08
1.73584e-06
-2.69402e-08
-5.75686e-08
1.73827e-06
-2.67404e-08
-5.75762e-08
-2.6389e-08
-5.76196e-08
1.50223e-06
-2.14693e-08
-8.24656e-08
1.50377e-06
-2.12788e-08
-8.2479e-08
1.50524e-06
-2.10825e-08
-8.24906e-08
1.50665e-06
-2.08356e-08
-8.25107e-08
-2.04115e-08
-8.25535e-08
1.16666e-06
-1.24465e-08
-1.02807e-07
1.16612e-06
-1.22315e-08
-1.02822e-07
1.16553e-06
-1.20068e-08
-1.02835e-07
1.16494e-06
-1.17819e-08
-1.02858e-07
-1.14967e-08
-1.02891e-07
6.65797e-07
-1.17349e-07
6.63119e-07
-1.17377e-07
6.60607e-07
-1.17395e-07
6.58249e-07
-1.17401e-07
6.56114e-07
-1.17394e-07
6.90153e-07
3.40196e-09
1.17334e-07
6.87377e-07
3.14294e-09
1.17406e-07
6.8478e-07
2.88138e-09
1.17433e-07
6.82384e-07
2.63073e-09
1.17424e-07
6.80207e-07
2.39609e-09
1.1739e-07
2.13495e-09
1.20016e-06
4.53468e-09
1.02783e-07
1.19957e-06
4.29538e-09
1.02822e-07
1.19893e-06
4.04985e-09
1.0287e-07
1.19829e-06
3.75344e-09
1.02926e-07
1.1977e-06
1.02981e-07
1.54229e-06
3.90724e-09
8.24827e-08
1.54393e-06
3.74407e-09
8.24912e-08
1.54549e-06
3.56685e-09
8.25158e-08
3.26724e-09
8.25656e-08
1.77537e-06
2.47213e-09
5.75871e-08
1.77813e-06
2.37745e-09
5.75752e-08
1.78082e-06
2.28203e-09
5.75776e-08
2.0891e-09
5.76192e-08
1.91531e-06
8.31964e-10
2.92542e-08
1.91849e-06
8.06033e-10
2.92483e-08
1.92159e-06
7.71163e-10
2.92575e-08
6.96776e-10
2.93005e-08
1.96236e-06
-8.61891e-10
-8.28976e-10
1.96563e-06
-8.2088e-10
-8.01824e-10
1.96881e-06
-7.9922e-10
-7.85969e-10
1.97182e-06
-7.60484e-10
-7.42664e-10
-6.81098e-10
-6.56827e-10
1.91545e-06
-2.49662e-09
-3.08543e-08
1.91859e-06
-2.39374e-09
-3.08218e-08
1.92167e-06
-2.32888e-09
-3.08041e-08
1.9246e-06
-2.20042e-09
-3.07619e-08
-1.96298e-09
-3.06839e-08
1.77552e-06
-3.92398e-09
-5.89611e-08
1.77826e-06
-3.76443e-09
-5.8941e-08
1.78092e-06
-3.62036e-09
-5.89397e-08
1.78347e-06
-3.41306e-09
-5.89088e-08
-3.04644e-09
-5.883e-08
1.54237e-06
-4.55816e-09
-8.35706e-08
1.54403e-06
-4.33776e-09
-8.35674e-08
1.54561e-06
-4.1213e-09
-8.35736e-08
1.54713e-06
-3.87572e-09
-8.35661e-08
-3.45811e-09
-8.35006e-08
1.20011e-06
-3.44526e-09
-1.03388e-07
1.19956e-06
-3.21047e-09
-1.03402e-07
1.199e-06
-2.97531e-09
-1.03418e-07
1.19844e-06
-2.75202e-09
-1.03417e-07
-2.47138e-09
-1.03354e-07
6.89866e-07
-1.17825e-07
6.87063e-07
-1.17785e-07
6.8442e-07
-1.17727e-07
6.8195e-07
-1.17682e-07
-1.17657e-07
6.68624e-07
1.26884e-08
1.07613e-07
6.65786e-07
1.24454e-08
1.07726e-07
6.63144e-07
1.21947e-08
1.07854e-07
6.60671e-07
1.19499e-08
1.07956e-07
6.58366e-07
1.17144e-08
1.08014e-07
1.14416e-08
1.08017e-07
1.16733e-06
2.17371e-08
9.41933e-08
1.1668e-06
2.15234e-08
9.42318e-08
1.16622e-06
2.13093e-08
9.42835e-08
1.16561e-06
2.10786e-08
9.43503e-08
1.16502e-06
2.07921e-08
9.44386e-08
2.03455e-08
9.4608e-08
1.50064e-06
2.74045e-08
7.50379e-08
1.5023e-06
2.72564e-08
7.50904e-08
1.50386e-06
2.71189e-08
7.51219e-08
1.50533e-06
2.6967e-08
7.51552e-08
1.50673e-06
2.67244e-08
7.52297e-08
2.63354e-08
7.54223e-08
1.72791e-06
3.03041e-08
5.17849e-08
1.73068e-06
3.02153e-08
5.186e-08
1.73333e-06
3.01632e-08
5.18767e-08
1.73589e-06
3.0099e-08
5.1886e-08
1.73831e-06
2.99531e-08
5.19758e-08
2.9709e-08
5.221e-08
1.86534e-06
2.5353e-08
1.86851e-06
3.08444e-08
2.54483e-08
1.87157e-06
3.08552e-08
2.54945e-08
1.87455e-06
3.08428e-08
2.55422e-08
1.87734e-06
3.07951e-08
2.56608e-08
3.07135e-08
2.59016e-08
1.91537e-06
2.92076e-08
-2.46353e-09
1.91853e-06
2.92631e-08
-2.37274e-09
1.92161e-06
2.92925e-08
-2.31661e-09
1.92453e-06
2.93364e-08
-2.19904e-09
2.94135e-08
-1.96745e-09
1.86864e-06
2.54248e-08
-3.02171e-08
1.87168e-06
2.55218e-08
-3.01248e-08
1.87467e-06
2.55722e-08
-3.00715e-08
1.87751e-06
2.56884e-08
-2.99532e-08
2.59211e-08
-2.97244e-08
1.72713e-06
1.973e-08
-5.60144e-08
1.72979e-06
1.98664e-08
-5.59465e-08
1.73238e-06
1.99747e-08
-5.5929e-08
1.73485e-06
2.0151e-08
-5.5843e-08
2.05169e-08
-5.5625e-08
1.48954e-06
1.29188e-08
-7.8443e-08
1.49115e-06
1.30814e-08
-7.83965e-08
1.4927e-06
1.32286e-08
-7.83814e-08
1.4942e-06
1.3435e-08
-7.83458e-08
1.38702e-08
-7.81641e-08
1.14019e-06
6.04664e-09
-9.60309e-08
1.13966e-06
6.24556e-09
-9.60357e-08
1.13908e-06
6.44207e-09
-9.60533e-08
1.1385e-06
6.63821e-09
-9.60394e-08
6.91974e-09
-9.58956e-08
6.2796e-07
-1.08838e-07
6.25202e-07
-1.08781e-07
6.22626e-07
-1.08708e-07
6.20226e-07
-1.08645e-07
-1.08602e-07
5.57156e-07
2.05499e-08
8.96934e-08
5.54742e-07
2.03479e-08
8.9792e-08
5.52545e-07
2.0132e-08
8.99189e-08
5.50532e-07
1.9932e-08
9.0037e-08
5.48672e-07
1.97511e-08
9.01231e-08
1.95015e-08
9.01749e-08
1.03479e-06
3.70057e-08
7.8349e-08
1.03413e-06
3.68403e-08
7.83961e-08
1.03342e-06
3.667e-08
7.84547e-08
1.03268e-06
3.65016e-08
7.85283e-08
1.03194e-06
3.63e-08
7.86223e-08
3.5884e-08
7.886e-08
1.36276e-06
4.88032e-08
6.18089e-08
1.36409e-06
4.86901e-08
6.19153e-08
1.3653e-06
4.86086e-08
6.19658e-08
1.36641e-06
4.85246e-08
6.20244e-08
1.36742e-06
4.83633e-08
6.21558e-08
4.80058e-08
6.2444e-08
1.58728e-06
5.6056e-08
4.20316e-08
1.58967e-06
5.59931e-08
4.2164e-08
1.59194e-06
5.59812e-08
4.2237e-08
1.59408e-06
5.59703e-08
4.2297e-08
1.5961e-06
5.58765e-08
4.24442e-08
5.56475e-08
4.28109e-08
1.72424e-06
1.95587e-08
1.72702e-06
5.89465e-08
1.9711e-08
1.72969e-06
5.89705e-08
1.98367e-08
1.73226e-06
5.89823e-08
1.99606e-08
1.73469e-06
5.89568e-08
2.01459e-08
5.8881e-08
2.0529e-08
1.77549e-06
5.75313e-08
-3.8899e-09
1.77825e-06
5.75786e-08
-3.73616e-09
1.78091e-06
5.75998e-08
-3.59784e-09
1.78343e-06
5.76392e-08
-3.40183e-09
5.77195e-08
-3.04295e-09
1.7308e-06
5.18139e-08
-2.72207e-08
1.73343e-06
5.18896e-08
-2.70692e-08
1.73599e-06
5.19077e-08
-2.69361e-08
1.73843e-06
5.19926e-08
-2.67414e-08
5.22195e-08
-2.63859e-08
1.58975e-06
4.21495e-08
-4.86817e-08
1.592e-06
4.22592e-08
-4.85615e-08
1.59415e-06
4.23059e-08
-4.84861e-08
1.59622e-06
4.24254e-08
-4.8345e-08
4.27871e-08
-4.8013e-08
1.35015e-06
2.95386e-08
-6.71436e-08
1.35138e-06
2.96822e-08
-6.70541e-08
1.35255e-06
2.9774e-08
-6.70149e-08
1.35365e-06
2.99043e-08
-6.69291e-08
3.03036e-08
-6.66353e-08
9.97189e-07
1.5382e-08
-8.11071e-08
9.9638e-07
1.5554e-08
-8.10983e-08
9.9552e-07
1.56887e-08
-8.11083e-08
9.94651e-07
1.58169e-08
-8.10831e-08
1.6057e-08
-8.08772e-08
5.0375e-07
-9.10776e-08
5.01543e-07
-9.10194e-08
4.99494e-07
-9.09711e-08
4.97593e-07
-9.09259e-08
-9.0876e-08
3.88646e-07
2.68353e-08
6.47041e-08
3.86947e-07
2.67062e-08
6.47848e-08
3.85407e-07
2.65894e-08
6.48694e-08
3.84011e-07
2.64717e-08
6.49617e-08
3.82734e-07
2.6343e-08
6.50571e-08
2.61488e-08
6.51445e-08
8.08431e-07
4.99207e-08
5.641e-08
8.07291e-07
4.97721e-08
5.64705e-08
8.06153e-07
4.9648e-08
5.65341e-08
8.05022e-07
4.95243e-08
5.66074e-08
8.03919e-07
4.93706e-08
5.66972e-08
4.90718e-08
5.69266e-08
1.1257e-06
6.72412e-08
4.3976e-08
1.12612e-06
6.71399e-08
4.4128e-08
1.1264e-06
6.70862e-08
4.42477e-08
1.12657e-06
6.70293e-08
4.4349e-08
1.12671e-06
6.6903e-08
4.44869e-08
6.66166e-08
4.47914e-08
1.34879e-06
7.84711e-08
2.93542e-08
1.35014e-06
7.84191e-08
2.95344e-08
1.35138e-06
7.84049e-08
2.96736e-08
1.35251e-06
7.83998e-08
2.97989e-08
1.35355e-06
7.83571e-08
2.99522e-08
7.81793e-08
3.03538e-08
1.48778e-06
1.26647e-08
1.48949e-06
8.35572e-08
1.28619e-08
1.4911e-06
8.35728e-08
1.30567e-08
1.49262e-06
8.35921e-08
1.32444e-08
1.49406e-06
8.35979e-08
1.34692e-08
8.35383e-08
1.3931e-08
1.54239e-06
8.24395e-08
-4.52687e-09
1.54406e-06
8.24707e-08
-4.30134e-09
1.54564e-06
8.24975e-08
-4.08081e-09
1.54713e-06
8.25312e-08
-3.82342e-09
8.25986e-08
-3.41223e-09
1.50232e-06
7.50462e-08
-2.14584e-08
1.50387e-06
7.51078e-08
-2.12575e-08
1.50535e-06
7.51437e-08
-2.10597e-08
1.50676e-06
7.51982e-08
-2.08176e-08
7.53715e-08
-2.03889e-08
1.36401e-06
6.18812e-08
-3.6792e-08
1.3652e-06
6.19733e-08
-3.66203e-08
1.36633e-06
6.20095e-08
-3.6479e-08
1.36739e-06
6.20933e-08
-3.62989e-08
6.23784e-08
-3.59206e-08
1.12596e-06
4.40985e-08
-4.97603e-08
1.12628e-06
4.423e-08
-4.96275e-08
1.12649e-06
4.4312e-08
-4.95225e-08
1.12664e-06
4.44116e-08
-4.94047e-08
4.47213e-08
-4.91134e-08
7.77538e-07
2.36128e-08
-5.91981e-08
7.76147e-07
2.36775e-08
-5.91544e-08
7.7478e-07
2.37147e-08
-5.91441e-08
7.73451e-07
2.37733e-08
-5.91154e-08
2.39637e-08
-5.89199e-08
3.45479e-07
-6.58473e-08
3.43958e-07
-6.58214e-08
3.42515e-07
-6.5813e-08
3.41153e-07
-6.57907e-08
-6.57312e-08
1.98007e-07
3.13389e-08
3.43317e-08
1.97097e-07
3.13377e-08
3.43573e-08
1.96233e-07
3.13514e-08
3.43815e-08
1.9543e-07
3.13515e-08
3.4414e-08
1.94708e-07
3.13214e-08
3.44571e-08
3.11998e-08
3.45144e-08
4.93125e-07
5.92856e-08
3.03076e-08
4.914e-07
5.92347e-08
3.02989e-08
4.8981e-07
5.92001e-08
3.02754e-08
4.88326e-07
5.91721e-08
3.02707e-08
4.86914e-07
5.91255e-08
3.03054e-08
5.89336e-08
3.04501e-08
7.79094e-07
8.11805e-08
2.35266e-08
7.77689e-07
8.11532e-08
2.36145e-08
7.76324e-07
8.11375e-08
2.36762e-08
7.74987e-07
8.11222e-08
2.37352e-08
7.737e-07
8.10837e-08
8.08863e-08
9.98108e-07
9.60863e-08
1.51872e-08
9.97339e-07
9.6068e-08
1.53886e-08
9.96503e-07
9.60608e-08
1.55856e-08
9.95628e-07
9.60534e-08
1.5743e-08
9.94756e-07
9.60354e-08
1.58728e-08
9.58983e-08
1.14078e-06
5.79734e-09
1.14028e-06
1.03398e-07
6.03234e-09
1.13972e-06
1.03397e-07
6.28029e-09
1.13911e-06
1.034e-07
6.50698e-09
1.1385e-06
1.03395e-07
6.72024e-09
1.03344e-07
1.20019e-06
1.02804e-07
-3.41324e-09
1.19964e-06
1.02807e-07
-3.16222e-09
1.19907e-06
1.0281e-07
-2.91726e-09
1.19849e-06
1.02827e-07
-2.67581e-09
1.02871e-07
-2.39485e-09
1.16674e-06
9.42603e-08
-1.24241e-08
1.1662e-06
9.42827e-08
-1.21979e-08
1.16563e-06
9.42956e-08
-1.19694e-08
1.16505e-06
9.43376e-08
-1.17496e-08
9.44751e-08
-1.1468e-08
1.03393e-06
7.84249e-08
-2.03247e-08
1.03327e-06
7.8459e-08
-2.01353e-08
1.03255e-06
7.84865e-08
-1.99562e-08
1.03183e-06
7.85386e-08
-1.97786e-08
7.8736e-08
-1.95382e-08
8.07131e-07
5.64863e-08
-2.6678e-08
8.05997e-07
5.65436e-08
-2.65784e-08
8.04864e-07
5.65834e-08
-2.64857e-08
8.03741e-07
5.66349e-08
-2.63785e-08
5.68333e-08
-2.61896e-08
4.9134e-07
3.03271e-08
-3.13041e-08
4.89716e-07
3.03191e-08
-3.13062e-08
4.88193e-07
3.02889e-08
-3.13258e-08
4.86737e-07
3.02925e-08
-3.13172e-08
3.04225e-08
-3.1201e-08
1.8211e-07
-3.4644e-08
1.81271e-07
-3.46636e-08
1.80435e-07
-3.46876e-08
1.79632e-07
-3.4695e-08
-3.46693e-08
6.08944e-08
3.46479e-08
6.05829e-08
3.46689e-08
6.02687e-08
3.46957e-08
5.99686e-08
3.47141e-08
5.97071e-08
3.47187e-08
3.46939e-08
1.83102e-07
6.59225e-08
1.82188e-07
6.58824e-08
1.81302e-07
6.58565e-08
1.80456e-07
6.58311e-08
1.79684e-07
3.47236e-07
9.11872e-08
3.45622e-07
9.11107e-08
3.44124e-07
9.10309e-08
9.09659e-08
5.06336e-07
1.08946e-07
5.03969e-07
1.08866e-07
5.01833e-07
1.08753e-07
4.9988e-07
1.08662e-07
1.08601e-07
6.31173e-07
6.2826e-07
1.17811e-07
6.25572e-07
1.17721e-07
6.2309e-07
1.17651e-07
1.17608e-07
6.90085e-07
1.17356e-07
6.87302e-07
1.17342e-07
6.84702e-07
1.17335e-07
6.82303e-07
1.17331e-07
1.1732e-07
6.65805e-07
1.0775e-07
6.63162e-07
1.07787e-07
6.60686e-07
1.07841e-07
6.5838e-07
1.07888e-07
1.07906e-07
5.54874e-07
8.98129e-08
5.52657e-07
8.98688e-08
5.50602e-07
8.99396e-08
5.48699e-07
9.00125e-08
9.00619e-08
3.87075e-07
6.48094e-08
3.85511e-07
6.48549e-08
3.84061e-07
6.4904e-08
3.82726e-07
6.49685e-08
6.50446e-08
1.97114e-07
3.43661e-08
1.96283e-07
3.43799e-08
1.9547e-07
3.43909e-08
1.94706e-07
3.44159e-08
3.44666e-08
6.05671e-08
6.02834e-08
5.99868e-08
5.97077e-08
)
;

boundaryField
{
    inlet
    {
        type            calculated;
        value           nonuniform List<scalar> 0();
    }
    ami1
    {
        type            cyclicAMI;
        value           nonuniform List<scalar> 0();
    }
    walls
    {
        type            calculated;
        value           nonuniform List<scalar> 
250
(
2.90979e-14
2.43942e-14
1.84387e-14
1.28555e-14
6.40674e-15
1.55355e-22
-6.40674e-15
-1.28555e-14
-1.84387e-14
-2.43942e-14
-2.90979e-14
2.90979e-14
2.43942e-14
1.84387e-14
1.28555e-14
6.40674e-15
-7.03104e-23
-6.40674e-15
-1.28555e-14
-1.84387e-14
-2.43942e-14
-2.90979e-14
2.90979e-14
2.43942e-14
1.84387e-14
1.28555e-14
6.40674e-15
1.55096e-22
-6.40674e-15
-1.28555e-14
-1.84387e-14
-2.43942e-14
-2.90979e-14
2.90979e-14
2.43942e-14
1.84387e-14
1.28555e-14
6.40674e-15
1.55096e-22
-6.40674e-15
-1.28555e-14
-1.84387e-14
-2.43942e-14
-2.90979e-14
2.90979e-14
2.43942e-14
1.84387e-14
1.28555e-14
6.40674e-15
1.55096e-22
-6.40674e-15
-1.28555e-14
-1.84387e-14
-2.43942e-14
-2.90979e-14
1.28555e-14
6.40674e-15
1.55096e-22
-6.40674e-15
-1.28555e-14
-1.84387e-14
-2.43942e-14
-2.90979e-14
1.55096e-22
-6.40674e-15
-1.28555e-14
-1.84387e-14
2.90979e-14
2.43942e-14
1.84387e-14
1.28555e-14
6.40674e-15
1.55355e-22
-6.40674e-15
-1.28555e-14
-1.84387e-14
-2.43942e-14
-2.90979e-14
2.90979e-14
2.43942e-14
1.84387e-14
1.28555e-14
6.40674e-15
-7.03104e-23
-6.40674e-15
-1.28555e-14
-1.84387e-14
-2.43942e-14
-2.90979e-14
2.90979e-14
2.43942e-14
1.84387e-14
1.28555e-14
6.40674e-15
1.55096e-22
-6.40674e-15
-1.28555e-14
-1.84387e-14
-2.43942e-14
-2.90979e-14
2.90979e-14
2.43942e-14
1.84387e-14
1.28555e-14
6.40674e-15
1.55096e-22
-6.40674e-15
-1.28555e-14
-1.84387e-14
-2.43942e-14
-2.90979e-14
2.90979e-14
2.43942e-14
1.84387e-14
1.28555e-14
6.40674e-15
1.55096e-22
-6.40674e-15
-1.28555e-14
-1.84387e-14
-2.43942e-14
-2.90979e-14
2.90979e-14
2.43942e-14
1.84387e-14
1.28555e-14
6.40674e-15
-2.90979e-14
-2.43942e-14
-1.84387e-14
-1.28555e-14
-6.40674e-15
-2.90979e-14
-2.43942e-14
-1.84387e-14
-1.28555e-14
-6.40674e-15
-6.69499e-23
6.40674e-15
1.28555e-14
1.84387e-14
2.43942e-14
2.90979e-14
-2.90979e-14
-2.43942e-14
-1.84387e-14
-1.28555e-14
-6.40674e-15
2.66572e-24
6.40674e-15
1.28555e-14
1.84387e-14
2.43942e-14
2.90979e-14
-2.90979e-14
-2.43942e-14
-1.84387e-14
-1.28555e-14
-6.40674e-15
-6.2814e-23
6.40674e-15
1.28555e-14
1.84387e-14
2.43942e-14
2.90979e-14
-2.90979e-14
-2.43942e-14
-1.28555e-14
-6.40674e-15
-6.2814e-23
6.40674e-15
1.28555e-14
1.84387e-14
2.43942e-14
2.90979e-14
-2.90979e-14
-2.43942e-14
-6.2814e-23
6.40674e-15
1.28555e-14
1.84387e-14
2.43942e-14
2.90979e-14
6.40674e-15
1.28555e-14
1.84387e-14
2.43942e-14
2.90979e-14
-2.90979e-14
-2.43942e-14
-1.84387e-14
-1.28555e-14
-6.40674e-15
-6.69499e-23
6.40674e-15
1.28555e-14
1.84387e-14
2.43942e-14
2.90979e-14
-2.90979e-14
-2.43942e-14
-1.84387e-14
-1.28555e-14
-6.40674e-15
2.66572e-24
6.40674e-15
1.28555e-14
1.84387e-14
2.43942e-14
2.90979e-14
-2.90979e-14
-2.43942e-14
-1.84387e-14
-1.28555e-14
-6.40674e-15
-6.2814e-23
6.40674e-15
1.28555e-14
1.84387e-14
2.43942e-14
2.90979e-14
-2.90979e-14
-2.43942e-14
-1.84387e-14
-1.28555e-14
-6.40674e-15
-6.2814e-23
6.40674e-15
1.28555e-14
1.84387e-14
2.43942e-14
2.90979e-14
-2.90979e-14
-2.43942e-14
-1.84387e-14
-1.28555e-14
-6.40674e-15
-6.2814e-23
6.40674e-15
1.28555e-14
1.84387e-14
2.43942e-14
2.90979e-14
-2.43942e-14
-1.84387e-14
-1.28555e-14
-6.40674e-15
-6.2814e-23
-1.84387e-14
-1.28555e-14
)
;
    }
    ami2
    {
        type            cyclicAMI;
        value           nonuniform List<scalar> 0();
    }
    outlet
    {
        type            calculated;
        value           nonuniform List<scalar> 0();
    }
    procBoundary5to6
    {
        type            processor;
        value           nonuniform List<scalar> 
177
(
5.95119e-08
-3.46876e-08
1.94074e-07
3.81528e-07
9.01488e-08
-2.60436e-08
5.45328e-07
6.54108e-07
1.17387e-07
6.76026e-07
1.84558e-09
6.14777e-07
-7.51822e-09
4.93603e-07
3.38333e-07
-6.56847e-08
1.78542e-07
3.05926e-08
5.9349e-08
1.78561e-07
-3.05063e-08
-6.5652e-08
4.8575e-07
5.70138e-08
-5.88153e-08
8.01956e-07
1.03053e-06
1.1639e-06
1.19741e-06
1.13739e-06
9.58047e-08
9.92336e-07
-3.08918e-08
7.70237e-07
-4.52386e-08
4.83624e-07
-3.10855e-08
1.93714e-07
3.38486e-07
-2.42828e-08
7.71626e-07
-8.06256e-08
1.12674e-06
1.36895e-06
1.50914e-06
1.54979e-06
1.49655e-06
-2.07541e-08
1.35523e-06
1.12661e-06
4.86369e-08
8.00789e-07
-2.58791e-08
-7.90922e-08
3.80847e-07
4.94056e-07
1.08493e-07
9.92487e-07
-3.09281e-08
9.57655e-08
1.35496e-06
7.80943e-08
1.59931e-06
5.55599e-08
1.74241e-06
2.96598e-08
1.7878e-06
-5.88122e-08
1.87133e-09
1.73699e-06
5.55115e-08
1.59935e-06
-5.22765e-08
1.36891e-06
-7.54887e-08
1.03043e-06
-9.46192e-08
5.45541e-07
6.17008e-07
1.13724e-06
-1.42842e-08
1.49517e-06
8.35814e-08
1.73674e-06
5.89402e-08
1.8799e-06
3.07934e-08
1.92723e-06
1.88005e-06
1.74049e-06
1.50793e-06
1.16441e-06
1.12358e-08
6.54234e-07
-1.17368e-07
6.78265e-07
1.1739e-07
3.42158e-09
1.19721e-06
3.02264e-09
1.03001e-07
1.54701e-06
-8.26529e-08
1.78336e-06
-5.772e-08
1.92452e-06
-6.28917e-10
-2.93999e-08
1.97454e-06
1.92723e-06
1.78576e-06
1.54849e-06
1.19791e-06
6.79741e-07
6.56297e-07
1.16449e-06
1.50797e-06
1.74044e-06
1.87984e-06
1.92714e-06
1.88004e-06
1.73705e-06
1.49551e-06
1.13799e-06
6.18091e-07
5.47013e-07
1.03131e-06
1.36828e-06
1.59786e-06
1.73683e-06
1.78567e-06
1.74059e-06
1.59804e-06
1.35461e-06
9.93879e-07
4.95924e-07
3.81616e-07
8.0293e-07
1.12682e-06
1.35444e-06
1.4953e-06
1.54843e-06
1.50799e-06
1.36829e-06
1.12678e-06
7.72251e-07
3.39972e-07
1.94139e-07
4.85657e-07
2.38163e-08
7.72534e-07
2.40041e-08
9.93985e-07
1.6113e-08
1.13797e-06
7.01559e-09
1.19794e-06
1.16452e-06
1.03119e-06
8.0272e-07
4.85429e-07
1.78993e-07
5.95277e-08
6.57961e-08
1.79091e-07
6.57373e-08
3.42725e-07
-9.09214e-08
4.98073e-07
6.20803e-07
-1.17598e-07
6.80186e-07
6.56326e-07
5.47005e-07
3.81554e-07
1.94083e-07
5.9505e-08
)
;
    }
    procBoundary5to7
    {
        type            processor;
        value           nonuniform List<scalar> 
131
(
-6.08717e-08
-1.98001e-07
-3.8868e-07
-5.56962e-07
-6.68063e-07
-6.92374e-07
-6.30667e-07
-5.06071e-07
-3.47108e-07
-1.83024e-07
-6.08682e-08
-1.83097e-07
-4.93235e-07
-8.08377e-07
-1.03457e-06
-1.16721e-06
-1.20073e-06
-1.14076e-06
-9.98046e-07
-7.7906e-07
-4.93165e-07
-1.98058e-07
-3.47334e-07
-7.7917e-07
-1.12556e-06
-1.36273e-06
-1.50085e-06
-1.54089e-06
-1.48802e-06
-1.3489e-06
-1.12559e-06
-8.08362e-07
-3.8891e-07
-5.06502e-07
-9.98066e-07
-1.3487e-06
-1.58732e-06
-1.72816e-06
-1.77288e-06
-1.72444e-06
-1.58736e-06
-1.36264e-06
-1.03456e-06
-5.5743e-07
-6.31302e-07
-1.14073e-06
-1.48771e-06
-1.7242e-06
-1.86542e-06
-1.91223e-06
-1.86549e-06
-1.72799e-06
-1.50059e-06
-1.16716e-06
-6.68659e-07
-6.93096e-07
-1.17236e-07
-1.2007e-06
-1.02757e-07
-1.54056e-06
-8.24856e-08
-1.77253e-06
-5.75894e-08
-1.91203e-06
-2.92451e-08
-1.95897e-06
-1.91218e-06
-1.77268e-06
-1.54063e-06
-1.20064e-06
-6.92835e-07
-6.7169e-07
-1.16781e-06
-1.49886e-06
-1.725e-06
-1.86198e-06
3.08439e-08
-1.9121e-06
-1.86549e-06
-1.72438e-06
-1.48785e-06
-1.14067e-06
-6.30901e-07
-5.59786e-07
-1.0354e-06
-1.36133e-06
-1.58478e-06
-1.72132e-06
5.8936e-08
-1.77265e-06
-1.72808e-06
-1.58742e-06
-1.34884e-06
-9.97956e-07
-5.06128e-07
-3.90492e-07
-8.09578e-07
-1.12519e-06
-1.34734e-06
-1.48597e-06
8.35534e-08
-1.54064e-06
-1.50069e-06
-1.36274e-06
-1.12556e-06
-7.78961e-07
-3.47096e-07
-1.98973e-07
-4.94969e-07
-7.8054e-07
-9.98846e-07
-1.14125e-06
1.03419e-07
-1.20071e-06
-1.16723e-06
-1.03456e-06
-8.08275e-07
-4.93074e-07
-1.82986e-07
-6.12106e-08