/*--------------------------------*- C++ -*----------------------------------*\
| =========                 |                                                 |
| \\      /  F ield         | OpenFOAM: The Open Source CFD Toolbox           |
|  \\    /   O peration     | Version:  2212                                  |
|   \\  /    A nd           | Website:  www.openfoam.com                      |
|    \\/     M anipulation  |                                                 |
\*---------------------------------------------------------------------------*/
FoamFile
{
    version     2.0;
    format      ascii;
    arch        "LSB;label=32;scalar=64";
    class       volVectorField;
    location    "1";
    object      U;
}
// * * * * * * * * * * * * * * * * * * * * * * * * * * * * * * * * * * * * * //

dimensions      [0 1 -1 0 0 0 0];

internalField   nonuniform List<vector> 
678
(
(0.0240353 2.51416e-05 1.73052e-05)
(0.0239289 2.32147e-05 1.76526e-05)
(0.0238178 2.0723e-05 1.78248e-05)
(0.0237027 1.81158e-05 1.69265e-05)
(0.0235989 1.60344e-05 1.45408e-05)
(0.0405513 -1.30687e-05 0.000102489)
(0.0403805 -1.01728e-05 9.7364e-05)
(0.040219 -8.76611e-06 9.24804e-05)
(0.0400583 -8.31276e-06 8.46902e-05)
(0.0399128 -8.33198e-06 7.51026e-05)
(0.0563687 -0.000155843 0.000171751)
(0.0561344 -0.000138319 0.000158113)
(0.0559226 -0.0001215 0.000141676)
(0.0557266 -0.000106823 0.000124449)
(0.0555462 -9.55624e-05 0.000112596)
(0.0660146 -0.000315215 0.000238516)
(0.0657427 -0.000286287 0.000217392)
(0.0654958 -0.000256869 0.00019136)
(0.0652694 -0.000229998 0.000167108)
(0.0650579 -0.000206184 0.000147796)
(0.0648772 -0.00018594 0.000133435)
(0.0710364 -0.000404998 0.000246034)
(0.0707495 -0.000371986 0.000221176)
(0.070485 -0.000337641 0.000194604)
(0.0702387 -0.000305042 0.000170437)
(0.0700086 -0.000274448 0.000149759)
(0.0698094 -0.000245178 0.000134009)
(0.0711266 -0.000428977 0.000216974)
(0.0708373 -0.000393228 0.000195118)
(0.0705681 -0.000355289 0.000175248)
(0.0703142 -0.000318405 0.000157029)
(0.0700778 -0.000283252 0.000139357)
(0.0698717 -0.000250196 0.000121689)
(0.0696758 -0.000221153 0.000104556)
(0.0670443 -0.000389163 0.000185207)
(0.0667476 -0.000354237 0.000165346)
(0.0664748 -0.000314641 0.000148201)
(0.0662222 -0.00027598 0.000132546)
(0.0659897 -0.000238677 0.000117413)
(0.0657892 -0.000206515 0.000103657)
(0.0655901 -0.000186286 8.78716e-05)
(0.0599694 -0.000264931 0.000128427)
(0.0597041 -0.000229039 0.000111382)
(0.0594641 -0.000196553 9.67987e-05)
(0.0592457 -0.000167621 8.38303e-05)
(0.0590427 -0.000139791 7.17696e-05)
(0.0588724 -0.000116925 6.35151e-05)
(0.0587159 -0.000107441 5.55664e-05)
(0.0503298 -0.00013557 6.01294e-05)
(0.0501082 -0.000123339 5.2957e-05)
(0.0499056 -0.000111948 4.52604e-05)
(0.0497159 -0.000100093 3.88207e-05)
(0.0495353 -8.78353e-05 3.39682e-05)
(0.0493821 -7.45718e-05 3.14274e-05)
(0.0492447 -6.47907e-05 3.03302e-05)
(0.0374741 -2.6423e-05 4.67809e-05)
(0.0373045 -2.66607e-05 4.08339e-05)
(0.0371447 -2.90365e-05 3.4587e-05)
(0.0369845 -2.93124e-05 2.9603e-05)
(0.0368343 -2.66169e-05 2.56231e-05)
(0.0367065 -1.93844e-05 2.29144e-05)
(0.0240337 -1.68269e-05 2.23847e-05)
(0.0239272 -1.68637e-05 1.92507e-05)
(0.0238173 -1.67323e-05 1.599e-05)
(0.0237053 -1.54735e-05 1.30502e-05)
(0.0236032 -1.35419e-05 1.03372e-05)
(0.02352 -1.0479e-05 8.52121e-06)
(0.0374899 4.92582e-05 2.4775e-05)
(0.0373207 4.51397e-05 2.52231e-05)
(0.0371595 4.04871e-05 2.84138e-05)
(0.0369943 3.64888e-05 3.03329e-05)
(0.0368416 3.37505e-05 2.85429e-05)
(0.0367018 3.10155e-05 1.76453e-05)
(0.0699399 3.07274e-05 0.000162404)
(0.0697048 2.89948e-05 0.000159679)
(0.0694913 2.50742e-05 0.000160495)
(0.0692907 2.0426e-05 0.00015944)
(0.0691013 1.86199e-05 0.000139997)
(0.0907895 -0.00016365 0.000322406)
(0.090662 -0.000153783 0.000312184)
(0.0905377 -0.000144973 0.00030152)
(0.0904171 -0.000135808 0.000286711)
(0.0902959 -0.000124182 0.000263242)
(0.0901921 -0.00010496 0.000217624)
(0.1002 -0.000350432 0.000360891)
(0.100139 -0.000330896 0.000347292)
(0.100074 -0.000313292 0.000334012)
(0.100004 -0.000293251 0.000315477)
(0.0999358 -0.000271876 0.000293648)
(0.0998691 -0.000234786 0.000248782)
(0.104037 -0.000470938 0.000381231)
(0.103993 -0.0004467 0.00036367)
(0.103944 -0.000421942 0.000345427)
(0.103891 -0.00039438 0.000324024)
(0.103838 -0.00036608 0.000300173)
(0.103785 -0.000317661 0.00025711)
(0.104188 -0.000513437 0.000358146)
(0.104143 -0.000483744 0.000336552)
(0.104095 -0.000453321 0.000314274)
(0.104045 -0.000422364 0.0002916)
(0.103994 -0.000391194 0.000267662)
(0.103944 -0.000340389 0.000233507)
(0.10168 -0.000467686 0.000283347)
(0.101636 -0.000448466 0.000266442)
(0.101589 -0.000428364 0.000249549)
(0.101533 -0.000405638 0.00023201)
(0.101478 -0.000379996 0.00021268)
(0.101421 -0.000321775 0.000181413)
(0.0966557 -0.000401238 0.000176992)
(0.0965816 -0.000387158 0.000163837)
(0.0965035 -0.000374192 0.000152612)
(0.0964204 -0.000357835 0.000141435)
(0.0963365 -0.000344133 0.000130672)
(0.0962486 -0.000313011 0.000116849)
(0.0961598 -0.000244749 9.70509e-05)
(0.0874785 -0.000341963 6.69706e-05)
(0.0873227 -0.000330793 6.0795e-05)
(0.0871726 -0.000319467 5.4582e-05)
(0.087029 -0.000303526 4.88637e-05)
(0.0868871 -0.000289238 4.4265e-05)
(0.0867519 -0.000258712 4.11893e-05)
(0.0866166 -0.000201815 3.68727e-05)
(0.0699299 -0.000162804 2.68485e-05)
(0.0696952 -0.000158505 2.1848e-05)
(0.0694826 -0.000156547 1.55534e-05)
(0.069286 -0.000151191 9.64159e-06)
(0.0690984 -0.000141851 4.32864e-06)
(0.0689361 -0.00012173 2.01339e-06)
(0.0687811 -9.03188e-05 5.17716e-06)
(0.0405631 -9.92668e-05 -1.78918e-05)
(0.0403929 -9.28136e-05 -1.63635e-05)
(0.0402327 -8.70359e-05 -1.54673e-05)
(0.0400755 -7.80099e-05 -1.47272e-05)
(0.0399328 -6.54657e-05 -1.44777e-05)
(0.0398172 -5.12213e-05 -1.26366e-05)
(0.050363 6.24293e-05 0.000134413)
(0.0501431 5.68969e-05 0.000121972)
(0.0499405 5.06453e-05 0.000111494)
(0.0497478 4.54459e-05 0.000102404)
(0.0495676 4.12525e-05 9.67658e-05)
(0.049402 3.88736e-05 8.6746e-05)
(0.0492507 3.79914e-05 6.61038e-05)
(0.0874915 6.886e-05 0.000338638)
(0.0873361 6.49569e-05 0.000328535)
(0.0871873 6.11517e-05 0.000319425)
(0.0870459 5.77543e-05 0.000309227)
(0.0869067 5.51784e-05 0.000285722)
(0.0867896 5.18593e-05 0.000233318)
(0.105916 -0.000105224 0.00052688)
(0.105952 -9.99059e-05 0.000502093)
(0.105975 -9.47445e-05 0.000487571)
(0.105986 -8.84893e-05 0.000469477)
(0.105994 -7.96921e-05 0.000436082)
(0.106001 -6.81828e-05 0.000375932)
(0.114019 -0.000303167 0.000502629)
(0.114121 -0.000289092 0.000482204)
(0.114216 -0.000274097 0.000465701)
(0.114302 -0.000258716 0.000450632)
(0.114382 -0.000239349 0.000426646)
(0.114449 -0.000209662 0.000372415)
(0.117385 -0.000441705 0.000457973)
(0.117506 -0.000421924 0.000440439)
(0.117621 -0.000400179 0.000423046)
(0.117729 -0.000377544 0.000404496)
(0.117832 -0.000351349 0.000379726)
(0.117921 -0.000309031 0.000334012)
(0.117892 -0.000513898 0.000370993)
(0.118019 -0.000491347 0.000354793)
(0.118138 -0.000468991 0.000337189)
(0.118253 -0.000446229 0.000317668)
(0.118362 -0.000417842 0.000294417)
(0.118457 -0.000366238 0.000260255)
(0.116383 -0.000542115 0.000240879)
(0.116509 -0.000519979 0.00022826)
(0.116626 -0.000498926 0.000213333)
(0.116738 -0.000480857 0.00019846)
(0.116841 -0.000451866 0.000181625)
(0.116932 -0.000394377 0.000159054)
(0.112863 -0.000548935 6.99218e-05)
(0.112967 -0.000523601 6.44666e-05)
(0.113064 -0.000507451 5.8213e-05)
(0.113148 -0.000492091 5.23643e-05)
(0.113227 -0.00046536 4.69107e-05)
(0.113297 -0.000406548 4.01661e-05)
(0.105919 -0.00053032 -0.000108255)
(0.105955 -0.000504269 -0.000103983)
(0.105975 -0.000488583 -9.98889e-05)
(0.105984 -0.000469402 -9.48887e-05)
(0.105988 -0.000437781 -8.75452e-05)
(0.105987 -0.000383698 -7.591e-05)
(0.0907884 -0.000321486 -0.000168025)
(0.0906613 -0.000309388 -0.000160475)
(0.0905361 -0.000296432 -0.000153484)
(0.090413 -0.000279026 -0.000145539)
(0.0902885 -0.000258202 -0.000136443)
(0.0901651 -0.000224602 -0.000120558)
(0.0900395 -0.000179147 -9.72652e-05)
(0.056402 -0.000168483 -0.000162302)
(0.0561672 -0.000153412 -0.000146372)
(0.0559547 -0.000136385 -0.000130948)
(0.0557589 -0.000116412 -0.000116564)
(0.0555824 -9.37148e-05 -0.000103842)
(0.0554349 -7.51546e-05 -9.13893e-05)
(0.0600223 0.000131483 0.000265783)
(0.0597562 0.000116153 0.000231252)
(0.0595166 0.000102303 0.000196742)
(0.0592984 9.10569e-05 0.000168225)
(0.0590974 8.0844e-05 0.000143944)
(0.0589282 7.25872e-05 0.000125754)
(0.0587692 6.50002e-05 0.000112272)
(0.096657 0.000179678 0.000400501)
(0.0965836 0.000167769 0.000384452)
(0.0965066 0.000158706 0.000373281)
(0.0964229 0.000150609 0.000358059)
(0.0963424 0.000143237 0.000339928)
(0.0962592 0.000129135 0.00030287)
(0.0961783 0.000104373 0.000236954)
(0.112847 7.29618e-05 0.00054704)
(0.11295 6.80766e-05 0.000523372)
(0.113045 6.20266e-05 0.000505614)
(0.113131 5.64472e-05 0.000489923)
(0.113209 5.07902e-05 0.0004619)
(0.113274 4.3253e-05 0.000397731)
(0.120216 -0.000107386 0.000467918)
(0.120386 -0.000104617 0.000451232)
(0.120546 -0.000102732 0.000445522)
(0.1207 -0.000100423 0.000439436)
(0.120843 -9.5288e-05 0.000414643)
(0.120971 -8.45609e-05 0.000360619)
(0.123503 -0.000249754 0.000377285)
(0.123692 -0.00024019 0.000363491)
(0.123871 -0.000232866 0.000355845)
(0.124044 -0.000224922 0.000347965)
(0.124206 -0.000210904 0.000328404)
(0.124353 -0.000186418 0.000290291)
(0.124308 -0.000351049 0.000246472)
(0.1245 -0.000336659 0.000236599)
(0.124684 -0.000327732 0.000229801)
(0.124862 -0.000317432 0.000222444)
(0.125029 -0.000296532 0.000209686)
(0.125181 -0.000259289 0.000186477)
(0.123239 -0.000420981 8.08917e-05)
(0.123429 -0.000405267 7.71331e-05)
(0.12361 -0.00039938 7.42413e-05)
(0.123785 -0.000386058 7.05132e-05)
(0.123952 -0.000352196 6.49719e-05)
(0.120219 -0.00047014 -0.00010945)
(0.120389 -0.000454128 -0.000105548)
(0.12055 -0.000449538 -0.000102193)
(0.120703 -0.000443178 -9.69422e-05)
(0.120845 -0.000419837 -8.7143e-05)
(0.120972 -0.000366941 -7.37822e-05)
(0.114012 -0.00050501 -0.00030597)
(0.114113 -0.000484832 -0.000291953)
(0.114207 -0.000470053 -0.000277144)
(0.114293 -0.000455718 -0.000260658)
(0.114372 -0.000430515 -0.000236498)
(0.114443 -0.000379012 -0.000203753)
(0.1002 -0.000359735 -0.000355059)
(0.100138 -0.00034513 -0.000337097)
(0.100071 -0.00033229 -0.000321558)
(0.0999975 -0.000314819 -0.000302898)
(0.099926 -0.000284074 -0.000273522)
(0.0998559 -0.000237843 -0.000230763)
(0.0660696 -0.000234542 -0.000321192)
(0.0657947 -0.000213866 -0.000294787)
(0.065543 -0.000188032 -0.000267735)
(0.065311 -0.000161836 -0.000242841)
(0.0650986 -0.000137931 -0.000221101)
(0.0649043 -0.000126258 -0.000199428)
(0.0671139 0.000188705 0.000383472)
(0.0668186 0.000169292 0.000350214)
(0.0665464 0.000152889 0.000311283)
(0.0662919 0.000138001 0.000272054)
(0.0660615 0.000123314 0.000233383)
(0.0658564 0.000110877 0.00020612)
(0.101677 0.000286353 0.000466435)
(0.101632 0.000270794 0.000447518)
(0.101581 0.000255552 0.000427617)
(0.101523 0.000240726 0.000404027)
(0.101465 0.000220281 0.000368333)
(0.101402 0.000185304 0.000307471)
(0.116358 0.000242094 0.000543546)
(0.116482 0.000229979 0.000521678)
(0.116599 0.000215566 0.000501383)
(0.116713 0.000197837 0.000473791)
(0.116818 0.000172821 0.000423355)
(0.123221 8.06539e-05 0.000421998)
(0.123411 7.58306e-05 0.000405485)
(0.123594 7.06906e-05 0.00039896)
(0.12377 6.17286e-05 0.00038334)
(0.123935 4.97215e-05 0.000345905)
(0.12644 -6.11713e-05 0.000287598)
(0.126648 -5.95342e-05 0.000276268)
(0.126848 -5.98309e-05 0.000270524)
(0.127041 -6.12857e-05 0.000260432)
(0.127224 -6.06338e-05 0.000239071)
(0.127371 -0.000181638 0.00012274)
(0.127583 -0.000174917 0.000118678)
(0.127787 -0.000171609 0.000116979)
(0.127983 -0.000165246 0.00011361)
(0.12817 -0.00015219 0.000106215)
(0.126445 -0.000287787 -5.89357e-05)
(0.126654 -0.00027703 -5.56537e-05)
(0.126855 -0.000271875 -5.27709e-05)
(0.12705 -0.000262167 -4.7918e-05)
(0.127234 -0.000240404 -4.05012e-05)
(0.123492 -0.000380272 -0.000249841)
(0.123681 -0.000367568 -0.000239022)
(0.123863 -0.00036215 -0.000230415)
(0.124039 -0.000349372 -0.000215039)
(0.124204 -0.000318889 -0.00018834)
(0.117365 -0.000460859 -0.000443433)
(0.117487 -0.000444948 -0.000424215)
(0.117603 -0.0004292 -0.00040243)
(0.117716 -0.00040897 -0.000375879)
(0.117819 -0.000372025 -0.00033463)
(0.104032 -0.000380903 -0.000474266)
(0.103987 -0.000365184 -0.000452504)
(0.103937 -0.000348606 -0.000429554)
(0.103882 -0.000326633 -0.000400952)
(0.103831 -0.000285987 -0.000350536)
(0.0710979 -0.00024515 -0.000410346)
(0.0708053 -0.000222069 -0.000380268)
(0.0705328 -0.000197321 -0.000349051)
(0.0702752 -0.000175125 -0.000319516)
(0.0700401 -0.000157408 -0.000291266)
(0.0698121 -0.000146862 -0.000260761)
(0.0712008 0.000219701 0.000424085)
(0.0709082 0.000193844 0.000391225)
(0.0706347 0.000173419 0.000353975)
(0.0703768 0.000155609 0.000315103)
(0.0701442 0.000140779 0.000279025)
(0.0699336 0.000126163 0.000252797)
(0.104185 0.000360008 0.000511336)
(0.104137 0.000336425 0.000481573)
(0.104085 0.000313044 0.000452257)
(0.104031 0.000290371 0.000424813)
(0.103969 0.000263858 0.000389528)
(0.103921 0.000224634 0.000330569)
(0.117866 0.000369558 0.000515859)
(0.117993 0.00035461 0.000492577)
(0.118115 0.000335516 0.000467266)
(0.118232 0.000305793 0.000427674)
(0.124284 0.000242705 0.000352393)
(0.124479 0.000235604 0.000337037)
(0.124668 0.000226668 0.000323381)
(0.12485 0.000207013 0.000297381)
(0.127358 0.000117292 0.000180146)
(0.127573 0.000115175 0.00017175)
(0.127779 0.000110886 0.000164247)
(0.127979 9.98769e-05 0.000151065)
(0.128294 -3.4418e-06 -3.07256e-07)
(0.128511 -2.66826e-06 5.03438e-07)
(0.128721 -2.94106e-06 7.09618e-07)
(0.128922 -4.75822e-06 4.1866e-07)
(0.129111 -6.06567e-06 1.25566e-06)
(0.127368 -0.000124535 -0.000180087)
(0.127581 -0.000119714 -0.000171692)
(0.127787 -0.000116948 -0.000166417)
(0.127985 -0.000111991 -0.000156749)
(0.128171 -0.000102138 -0.000139615)
(0.124295 -0.000249058 -0.00035093)
(0.124489 -0.000239693 -0.000335705)
(0.124677 -0.000233836 -0.000326385)
(0.124858 -0.000222641 -0.000306965)
(0.125028 -0.000201686 -0.000270792)
(0.117872 -0.000373635 -0.000516331)
(0.118001 -0.00035944 -0.00049519)
(0.118123 -0.000344083 -0.000473374)
(0.118243 -0.000325271 -0.00044545)
(0.11835 -0.000295408 -0.000396342)
(0.10418 -0.000360154 -0.000516288)
(0.104134 -0.000340245 -0.00048849)
(0.104086 -0.000320767 -0.000460752)
(0.104037 -0.000301017 -0.000432492)
(0.103988 -0.000271643 -0.00038071)
(0.071172 -0.000220023 -0.000432028)
(0.070877 -0.000200187 -0.000399053)
(0.0706004 -0.000182591 -0.00036447)
(0.0703367 -0.000165781 -0.000330694)
(0.0701014 -0.000149638 -0.00029868)
(0.0714117 0.000280091 0.000431069)
(0.0710973 0.000246659 0.000403228)
(0.0708089 0.000212554 0.000373454)
(0.0705382 0.000184186 0.000342333)
(0.0702836 0.000163155 0.000311158)
(0.0700555 0.000151069 0.000280909)
(0.104091 0.000410462 0.000505359)
(0.104046 0.000389848 0.000479911)
(0.103997 0.000368267 0.000455491)
(0.103944 0.0003435 0.000429468)
(0.103891 0.000315133 0.000400669)
(0.103837 0.000271255 0.000353087)
(0.117234 0.000476541 0.000470084)
(0.117367 0.000461649 0.000450219)
(0.117492 0.000446503 0.000428665)
(0.11761 0.000429099 0.000406264)
(0.117723 0.000401283 0.000376752)
(0.117823 0.000355148 0.000334175)
(0.123285 0.000388843 0.000265352)
(0.123488 0.000376667 0.000253885)
(0.123679 0.000371051 0.000244321)
(0.123865 0.000364026 0.000233736)
(0.124041 0.000343685 0.000215628)
(0.124205 0.000304704 0.000189882)
(0.126215 0.000292071 5.9653e-05)
(0.126436 0.000283028 5.84261e-05)
(0.126645 0.000279605 5.76412e-05)
(0.126849 0.000274475 5.55829e-05)
(0.127044 0.000260985 5.08923e-05)
(0.127224 0.000233811 4.48488e-05)
(0.127363 0.000175085 -0.000124151)
(0.127576 0.000170842 -0.000116137)
(0.127783 0.000168233 -0.000111866)
(0.127981 0.000159976 -0.000106158)
(0.128166 0.00014378 -9.58395e-05)
(0.126446 5.70725e-05 -0.000289143)
(0.126655 5.54356e-05 -0.000276002)
(0.126857 5.44894e-05 -0.000268515)
(0.127053 5.18556e-05 -0.000254607)
(0.127237 4.68425e-05 -0.000228893)
(0.123235 -8.29461e-05 -0.00042153)
(0.123427 -7.90051e-05 -0.000405925)
(0.123613 -7.59176e-05 -0.000399769)
(0.123793 -7.08826e-05 -0.000379829)
(0.12396 -6.32255e-05 -0.000336248)
(0.116371 -0.000244363 -0.000545334)
(0.116498 -0.000233146 -0.000525275)
(0.116619 -0.000220197 -0.000506606)
(0.116739 -0.000205726 -0.000482174)
(0.116846 -0.000185654 -0.000428155)
(0.101671 -0.00028708 -0.000470672)
(0.101627 -0.000272622 -0.000454651)
(0.101578 -0.000259126 -0.000440648)
(0.101523 -0.000242962 -0.000417035)
(0.101475 -0.000215325 -0.000357096)
(0.067068 -0.000189536 -0.000390271)
(0.0667673 -0.000171951 -0.000358142)
(0.0664874 -0.000157336 -0.000322761)
(0.0662258 -0.000143718 -0.000289908)
(0.0659887 -0.00012877 -0.000261656)
(0.066337 0.000268438 0.000340126)
(0.0660368 0.000240074 0.000313322)
(0.0657696 0.000206548 0.000286219)
(0.0655193 0.000175711 0.000260188)
(0.0652924 0.000153533 0.000236901)
(0.0650886 0.000141239 0.000216377)
(0.100282 0.00038625 0.000378995)
(0.100223 0.000372161 0.00036136)
(0.100156 0.00035519 0.00034325)
(0.100086 0.000336802 0.000324889)
(0.100011 0.000314012 0.000303911)
(0.0999451 0.000261953 0.000262648)
(0.113908 0.000522397 0.000321859)
(0.114023 0.000504041 0.000309682)
(0.114128 0.000489601 0.000295971)
(0.114225 0.000476663 0.000281664)
(0.114313 0.000457063 0.000264494)
(0.114387 0.000406497 0.00023406)
(0.12003 0.000486607 0.000111102)
(0.120215 0.00046923 0.000109024)
(0.12039 0.000463802 0.000107516)
(0.120557 0.000460185 0.000105143)
(0.120713 0.000438399 9.88582e-05)
(0.120855 0.000385001 8.74978e-05)
(0.123023 0.000436191 -9.28889e-05)
(0.123226 0.000420424 -8.58295e-05)
(0.123419 0.000413331 -7.93072e-05)
(0.123605 0.000405996 -7.364e-05)
(0.123783 0.000384286 -6.74155e-05)
(0.123947 0.000338967 -5.93603e-05)
(0.124292 0.000345692 -0.00024997)
(0.124487 0.000334544 -0.000236918)
(0.124676 0.000327824 -0.000228541)
(0.124857 0.00031165 -0.000216161)
(0.125024 0.000277686 -0.000193835)
(0.123498 0.000247503 -0.000381475)
(0.123689 0.000238281 -0.000366947)
(0.123872 0.000232096 -0.000360133)
(0.124049 0.000218944 -0.000342679)
(0.124214 0.000195147 -0.00030532)
(0.120224 0.000107686 -0.000472815)
(0.120396 0.000104318 -0.000457278)
(0.120561 0.000102189 -0.00045476)
(0.12072 9.68861e-05 -0.000435742)
(0.120866 8.65973e-05 -0.000384793)
(0.112859 -7.40485e-05 -0.000552536)
(0.112964 -6.94196e-05 -0.000531156)
(0.113064 -6.38421e-05 -0.000517575)
(0.113156 -5.79935e-05 -0.000499316)
(0.11324 -5.14696e-05 -0.000438999)
(0.0966462 -0.000182237 -0.000404096)
(0.096571 -0.000171212 -0.000392671)
(0.096492 -0.000162943 -0.000388645)
(0.0964059 -0.000153578 -0.000374823)
(0.096326 -0.000136712 -0.000316404)
(0.0599748 -0.000133883 -0.00026728)
(0.0597051 -0.000118759 -0.00023339)
(0.0594566 -0.000106263 -0.00020327)
(0.0592286 -9.61092e-05 -0.000178789)
(0.0590208 -8.55103e-05 -0.000156956)
(0.0566199 0.00019984 0.000173899)
(0.0563612 0.000176758 0.00015419)
(0.0561308 0.000153149 0.000137535)
(0.0559201 0.000130726 0.000123678)
(0.0557272 0.000111342 0.000112329)
(0.0555599 9.67063e-05 0.000102984)
(0.0909256 0.000345697 0.000176001)
(0.0907972 0.000333993 0.000166947)
(0.0906709 0.000322143 0.000159831)
(0.0905437 0.000305892 0.000152718)
(0.0904193 0.000283943 0.000143998)
(0.0903013 0.000235123 0.000124648)
(0.105886 0.000555641 0.000111101)
(0.105933 0.000529645 0.000107064)
(0.105965 0.000514721 0.000103509)
(0.105983 0.000498439 9.94766e-05)
(0.105995 0.000468266 9.34396e-05)
(0.106005 0.000413499 8.29006e-05)
(0.112739 0.000574318 -8.14736e-05)
(0.112855 0.000549439 -7.55482e-05)
(0.112964 0.000531319 -6.81219e-05)
(0.113061 0.000517383 -6.0705e-05)
(0.113151 0.000494715 -5.42188e-05)
(0.113229 0.000433983 -4.70437e-05)
(0.116228 0.000569308 -0.000261907)
(0.116364 0.000547102 -0.000248506)
(0.116493 0.000526662 -0.000233168)
(0.116615 0.000507117 -0.000217367)
(0.116731 0.000482681 -0.000201309)
(0.116833 0.000426209 -0.000179232)
(0.117873 0.000509746 -0.000373947)
(0.118002 0.000490571 -0.00035727)
(0.118125 0.000470332 -0.00033996)
(0.118243 0.000444317 -0.000319689)
(0.118349 0.00039706 -0.000288192)
(0.117372 0.000440522 -0.000462944)
(0.117494 0.000421208 -0.000445451)
(0.117611 0.000400486 -0.000428754)
(0.117725 0.000375844 -0.000407384)
(0.117826 0.000336862 -0.000366368)
(0.114019 0.000303813 -0.000508607)
(0.114122 0.000289825 -0.000489162)
(0.114218 0.000275828 -0.000475503)
(0.114308 0.000259489 -0.000458555)
(0.114387 0.000231787 -0.000412469)
(0.105917 0.000103873 -0.000534531)
(0.105953 9.88775e-05 -0.000511683)
(0.105976 9.4857e-05 -0.000500667)
(0.105988 8.95277e-05 -0.000481409)
(0.105999 7.82629e-05 -0.00042495)
(0.0874668 -7.31712e-05 -0.00034452)
(0.0873099 -6.8971e-05 -0.000334952)
(0.0871557 -6.51301e-05 -0.000331332)
(0.0870077 -6.15656e-05 -0.000320546)
(0.0868666 -5.80067e-05 -0.000268243)
(0.0503265 -6.57105e-05 -0.000136641)
(0.0501011 -6.02575e-05 -0.000124571)
(0.0498902 -5.45038e-05 -0.000114787)
(0.049692 -5.07936e-05 -0.000105134)
(0.0495119 -4.83287e-05 -9.22008e-05)
(0.0407394 0.000116282 1.41899e-05)
(0.0405468 0.000107625 1.14425e-05)
(0.0403704 9.93561e-05 1.15236e-05)
(0.040199 8.9015e-05 1.27657e-05)
(0.0400422 7.58883e-05 1.38373e-05)
(0.039915 6.017e-05 1.31378e-05)
(0.0701787 0.000172196 -3.38776e-05)
(0.069924 0.000171234 -3.10931e-05)
(0.0696934 0.000171568 -2.57661e-05)
(0.0694786 0.000169538 -1.92424e-05)
(0.0692745 0.000162843 -1.29813e-05)
(0.0690916 0.000128054 -1.24215e-05)
(0.0876435 0.00036358 -7.20789e-05)
(0.0874838 0.000350327 -6.72196e-05)
(0.0873289 0.00034028 -6.2879e-05)
(0.0871804 0.000330796 -5.86924e-05)
(0.0870316 0.00031344 -5.4542e-05)
(0.0868969 0.000262199 -4.96316e-05)
(0.0967337 0.000429661 -0.0001938)
(0.0966623 0.000411589 -0.000181079)
(0.0965861 0.000400287 -0.000170706)
(0.0965014 0.000387283 -0.000160238)
(0.0964178 0.000369955 -0.000148763)
(0.0963352 0.000311881 -0.000130297)
(0.101723 0.000507185 -0.00030613)
(0.101681 0.00048413 -0.000291425)
(0.101634 0.000460657 -0.000275667)
(0.101582 0.000438854 -0.000259604)
(0.101526 0.000412121 -0.000241233)
(0.101474 0.00034834 -0.000210306)
(0.104186 0.000512405 -0.000358555)
(0.10414 0.000482607 -0.000339409)
(0.104093 0.000453883 -0.000320526)
(0.104042 0.000422278 -0.000299396)
(0.103992 0.000373234 -0.000268483)
(0.104039 0.000471614 -0.000381456)
(0.103994 0.000447356 -0.000365724)
(0.103945 0.000422825 -0.000350351)
(0.103891 0.000394844 -0.000330245)
(0.103841 0.000345039 -0.000289185)
(0.100199 0.000351028 -0.000363445)
(0.100139 0.000331978 -0.000350195)
(0.100073 0.000316212 -0.000341094)
(0.100001 0.000295691 -0.000324793)
(0.0999339 0.000256351 -0.000280025)
(0.0907785 0.000161397 -0.000326199)
(0.090652 0.000152943 -0.000317463)
(0.0905245 0.000145626 -0.000309274)
(0.0904014 0.000136577 -0.000296367)
(0.0902799 0.000116248 -0.000253416)
(0.069916 -3.57535e-05 -0.00016598)
(0.0696782 -3.29131e-05 -0.000164046)
(0.0694599 -2.83483e-05 -0.000166863)
(0.0692529 -2.47296e-05 -0.000165061)
(0.0690648 -2.71335e-05 -0.00013372)
(0.0374646 -5.26333e-05 -2.54582e-05)
(0.0372921 -4.85149e-05 -2.54362e-05)
(0.0371259 -4.41628e-05 -2.8444e-05)
(0.0369575 -4.13726e-05 -2.809e-05)
(0.036813 -3.96168e-05 -1.86256e-05)
(0.0241604 1.93279e-05 -2.691e-05)
(0.0240383 1.93162e-05 -2.45272e-05)
(0.0239166 1.90899e-05 -2.13181e-05)
(0.0237932 1.78479e-05 -1.7919e-05)
(0.0236796 1.5731e-05 -1.4503e-05)
(0.0235932 1.10572e-05 -1.23485e-05)
(0.0376783 2.84894e-05 -4.94506e-05)
(0.0374866 2.8433e-05 -4.56457e-05)
(0.0373088 3.10158e-05 -4.14836e-05)
(0.0371304 3.24476e-05 -3.76385e-05)
(0.0369632 2.98781e-05 -3.41996e-05)
(0.0368271 1.96933e-05 -3.15444e-05)
(0.0505908 0.000150842 -6.03626e-05)
(0.0503484 0.000134971 -5.59536e-05)
(0.0501285 0.000121868 -5.1185e-05)
(0.0499198 0.000109937 -4.6901e-05)
(0.0602949 0.000304044 -0.000140144)
(0.0600008 0.000266946 -0.000125959)
(0.0597384 0.000224107 -0.00011148)
(0.0595007 0.000190965 -9.95388e-05)
(0.0592767 0.000168042 -8.98253e-05)
(0.067423 0.00042844 -0.00020206)
(0.0670996 0.000389176 -0.000186201)
(0.0668065 0.000345609 -0.000171677)
(0.0665318 0.000304308 -0.000156719)
(0.0662803 0.000268255 -0.000140947)
(0.0711935 0.000429666 -0.000218292)
(0.0709009 0.000388797 -0.000203012)
(0.0706266 0.000349404 -0.000186014)
(0.0703696 0.00031272 -0.000167434)
(0.070141 0.000280049 -0.000148831)
(0.0710963 0.000406282 -0.000243755)
(0.0708081 0.000372034 -0.000223304)
(0.0705394 0.000337659 -0.000200888)
(0.070286 0.000305724 -0.000180543)
(0.0700578 0.00027564 -0.00016512)
(0.0660512 0.000315905 -0.000237348)
(0.0657795 0.000286962 -0.000217909)
(0.0655297 0.000257974 -0.000194752)
(0.0652989 0.000231918 -0.000173085)
(0.0650891 0.000209635 -0.000158588)
(0.0563786 0.000156199 -0.000173838)
(0.0561435 0.000138956 -0.000160005)
(0.0559302 0.000122301 -0.000144536)
(0.0557304 0.00010741 -0.00012794)
(0.0555557 9.47729e-05 -0.000113816)
(0.0405446 1.20358e-05 -0.000104931)
(0.0403732 9.28681e-06 -9.96414e-05)
(0.0402091 7.75647e-06 -9.54254e-05)
(0.0400474 6.23111e-06 -8.79166e-05)
(0.03991 2.78539e-06 -7.44121e-05)
(0.0240235 -2.66024e-05 -1.78034e-05)
(0.0239156 -2.4594e-05 -1.81225e-05)
(0.0238019 -2.24097e-05 -1.84577e-05)
(0.0236846 -2.05937e-05 -1.73468e-05)
(0.0235894 -1.96103e-05 -1.30924e-05)
)
;

boundaryField
{
    inlet
    {
        type            fixedValue;
        value           nonuniform List<vector> 0();
    }
    ami1
    {
        type            cyclicAMI;
        value           nonuniform List<vector> 0();
    }
    walls
    {
        type            noSlip;
    }
    ami2
    {
        type            cyclicAMI;
        value           nonuniform List<vector> 0();
    }
    outlet
    {
        type            zeroGradient;
    }
    procBoundary5to6
    {
        type            processor;
        value           nonuniform List<vector> 
177
(
(0.0235169 1.42431e-05 1.02913e-05)
(0.0235169 1.42431e-05 1.02913e-05)
(0.0397793 -5.8591e-06 5.88643e-05)
(0.0553877 -8.51275e-05 9.79779e-05)
(0.0553877 -8.51275e-05 9.79779e-05)
(0.0553877 -8.51275e-05 9.79779e-05)
(0.0646981 -0.000165037 0.000117937)
(0.0696147 -0.000216788 0.000119748)
(0.0696147 -0.000216788 0.000119748)
(0.0695202 -0.000194549 8.84038e-05)
(0.103901 -0.000289716 0.00020071)
(0.0654335 -0.000171172 7.03497e-05)
(0.101375 -0.000264487 0.000153309)
(0.0585602 -0.000104212 4.46309e-05)
(0.0491136 -5.9592e-05 2.63385e-05)
(0.0366111 -9.78816e-06 2.16276e-05)
(0.0366111 -9.78816e-06 2.16276e-05)
(0.0366111 -9.78816e-06 2.16276e-05)
(0.0234675 -7.13066e-06 8.72161e-06)
(0.0366092 2.63872e-05 6.91571e-06)
(0.0689321 1.78896e-05 0.000110974)
(0.0366092 2.63872e-05 6.91571e-06)
(0.0689321 1.78896e-05 0.000110974)
(0.0689321 1.78896e-05 0.000110974)
(0.0689321 1.78896e-05 0.000110974)
(0.0900835 -8.88357e-05 0.000180026)
(0.0998121 -0.00019704 0.000204816)
(0.103742 -0.000269073 0.000215791)
(0.103901 -0.000289716 0.00020071)
(0.101375 -0.000264487 0.000153309)
(0.101375 -0.000264487 0.000153309)
(0.0961118 -0.000197276 8.09606e-05)
(0.113364 -0.000351381 3.50275e-05)
(0.0865156 -0.000170477 2.88974e-05)
(0.105991 -0.000330493 -6.62947e-05)
(0.068629 -7.69713e-05 7.40998e-06)
(0.0397274 -4.35372e-05 -7.56846e-06)
(0.0397274 -4.35372e-05 -7.56846e-06)
(0.0491455 3.29202e-05 4.59451e-05)
(0.0866705 4.4963e-05 0.000193321)
(0.0866705 4.4963e-05 0.000193321)
(0.0866705 4.4963e-05 0.000193321)
(0.106011 -6.12665e-05 0.000322207)
(0.114513 -0.000183265 0.000320673)
(0.118005 -0.000269915 0.000290984)
(0.118545 -0.00031737 0.000230477)
(0.117023 -0.000341096 0.000140849)
(0.124107 -0.00031292 5.89645e-05)
(0.113364 -0.000351381 3.50275e-05)
(0.105991 -0.000330493 -6.62947e-05)
(0.105991 -0.000330493 -6.62947e-05)
(0.0899588 -0.000156821 -8.10553e-05)
(0.0552965 -7.5896e-05 -7.86622e-05)
(0.0998001 -0.000205741 -0.000196767)
(0.0552965 -7.5896e-05 -7.86622e-05)
(0.0586131 5.42141e-05 9.57509e-05)
(0.0656577 9.58253e-05 0.000193323)
(0.0961258 8.25367e-05 0.000193662)
(0.113342 3.6036e-05 0.000342821)
(0.101364 0.000153255 0.000259224)
(0.113342 3.6036e-05 0.000342821)
(0.116918 0.000151512 0.000376947)
(0.121089 -7.31486e-05 0.000308256)
(0.124089 4.30033e-05 0.000304009)
(0.124486 -0.000161359 0.000252184)
(0.127392 -5.42468e-05 0.000213554)
(0.125318 -0.000223412 0.000162172)
(0.124107 -0.00031292 5.89645e-05)
(0.128341 -0.000136222 9.60248e-05)
(0.124107 -0.00031292 5.89645e-05)
(0.124107 -0.00031292 5.89645e-05)
(0.121093 -0.000312179 -6.40541e-05)
(0.124357 -0.000283731 -0.000164896)
(0.114511 -0.000326311 -0.000179159)
(0.117916 -0.000331925 -0.000296095)
(0.0998001 -0.000205741 -0.000196767)
(0.103786 -0.000251187 -0.000304728)
(0.0647177 -0.000129122 -0.000173013)
(0.0656577 9.58253e-05 0.000193323)
(0.101364 0.000153255 0.000259224)
(0.116918 0.000151512 0.000376947)
(0.116918 0.000151512 0.000376947)
(0.118344 0.000275816 0.00039038)
(0.124089 4.30033e-05 0.000304009)
(0.125023 0.000184572 0.000268901)
(0.127392 -5.42468e-05 0.000213554)
(0.128169 8.78963e-05 0.000137775)
(0.128341 -0.000136222 9.60248e-05)
(0.127403 -0.000215081 -3.52686e-05)
(0.124357 -0.000283731 -0.000164896)
(0.117916 -0.000331925 -0.000296095)
(0.103786 -0.000251187 -0.000304728)
(0.103786 -0.000251187 -0.000304728)
(0.0696263 -0.000138634 -0.000225845)
(0.0698746 -0.000135191 -0.000266497)
(0.0697334 0.000106969 0.000232266)
(0.0698357 0.000136299 0.00025219)
(0.118344 0.000275816 0.00039038)
(0.103889 0.000193321 0.00028063)
(0.118443 0.00025505 0.000362416)
(0.103794 0.00023435 0.000305237)
(0.118344 0.000275816 0.00039038)
(0.118344 0.000275816 0.00039038)
(0.125023 0.000184572 0.000268901)
(0.125023 0.000184572 0.000268901)
(0.128169 8.78963e-05 0.000137775)
(0.128169 8.78963e-05 0.000137775)
(0.128169 8.78963e-05 0.000137775)
(0.129283 -4.47555e-06 2.88964e-06)
(0.128341 -9.10177e-05 -0.000123546)
(0.125184 -0.000179749 -0.000238033)