/*--------------------------------*- C++ -*----------------------------------*\
| =========                 |                                                 |
| \\      /  F ield         | OpenFOAM: The Open Source CFD Toolbox           |
|  \\    /   O peration     | Version:  2212                                  |
|   \\  /    A nd           | Website:  www.openfoam.com                      |
|    \\/     M anipulation  |                                                 |
\*---------------------------------------------------------------------------*/
FoamFile
{
    version     2.0;
    format      ascii;
    arch        "LSB;label=32;scalar=64";
    class       surfaceVectorField;
    location    "1";
    object      Uf;
}
// * * * * * * * * * * * * * * * * * * * * * * * * * * * * * * * * * * * * * //

dimensions      [0 1 -1 0 0 0 0];

internalField   nonuniform List<vector> 
1755
(
(0.0239854 2.41781e-05 1.74789e-05)
(0.0306401 9.9934e-06 5.75864e-05)
(0.0294158 4.09844e-05 7.47568e-06)
(0.0238751 2.19688e-05 1.77387e-05)
(0.0305079 9.98289e-06 5.51696e-05)
(0.0292843 3.73865e-05 9.50623e-06)
(0.0237602 1.94194e-05 1.73757e-05)
(0.0303767 9.03855e-06 5.27725e-05)
(0.0291532 3.33108e-05 1.23741e-05)
(0.0236493 1.70751e-05 1.57337e-05)
(0.0302434 7.63781e-06 4.82983e-05)
(0.029018 2.96095e-05 1.37145e-05)
(0.0301229 6.34805e-06 4.14795e-05)
(0.0288947 2.70752e-05 1.19602e-05)
(0.0404722 -1.16208e-05 9.99266e-05)
(0.0475976 -7.615e-05 0.00013645)
(0.0535607 2.23458e-05 0.000103916)
(0.0403029 -9.46945e-06 9.49222e-05)
(0.0473985 -6.67352e-05 0.000127548)
(0.0533615 2.11417e-05 0.000103064)
(0.0401385 -8.53944e-06 8.85853e-05)
(0.0472146 -5.8499e-05 0.000117301)
(0.0531769 1.80325e-05 0.000104083)
(0.0399822 -8.32237e-06 7.98964e-05)
(0.0470382 -5.17547e-05 0.000105036)
(0.0529986 1.45536e-05 0.000101895)
(0.0468771 -4.66688e-05 9.49187e-05)
(0.0528336 1.29757e-05 8.91468e-05)
(0.0562578 -0.000147081 0.000164932)
(0.0608802 -0.000231241 0.000200144)
(0.0721986 -0.000144843 0.000223027)
(0.0560315 -0.000129909 0.000149894)
(0.0606282 -0.00020826 0.00018341)
(0.0720134 -0.000132001 0.000212392)
(0.0558238 -0.000114161 0.000133063)
(0.0604 -0.000185471 0.000162743)
(0.0718418 -0.000120666 0.000200833)
(0.0556341 -0.000101192 0.000118523)
(0.0601899 -0.000164948 0.000142699)
(0.0716806 -0.000110309 0.000186921)
(0.0599949 -0.000147663 0.000127862)
(0.0715274 -0.000100112 0.000171246)
(0.0658838 -0.000300751 0.000227954)
(0.0684377 -0.000359823 0.000239182)
(0.0820229 -0.000320033 0.000284243)
(0.0656216 -0.000271578 0.000204376)
(0.0681585 -0.000329053 0.00021596)
(0.0818498 -0.000294911 0.000266055)
(0.0653817 -0.000243433 0.000179234)
(0.0679031 -0.000297287 0.000189599)
(0.0816882 -0.000270954 0.000245923)
(0.0651621 -0.000218091 0.000157452)
(0.0676671 -0.000267493 0.000165755)
(0.081535 -0.000248645 0.000225702)
(0.064962 -0.000196062 0.000140615)
(0.0674466 -0.000240218 0.000146219)
(0.0813904 -0.000227757 0.00020698)
(0.067257 -0.000215511 0.000131437)
(0.0812631 -0.00020111 0.000179807)
(0.0708975 -0.000388492 0.000233605)
(0.071081 -0.000415785 0.000233541)
(0.0866228 -0.000426595 0.00030224)
(0.0706191 -0.000354814 0.00020789)
(0.0707929 -0.000382037 0.000209086)
(0.0864503 -0.000396918 0.00028018)
(0.0703612 -0.000321342 0.000182521)
(0.0705261 -0.000346448 0.00018489)
(0.086288 -0.00036642 0.000256997)
(0.0701228 -0.000289745 0.000160098)
(0.070276 -0.000311947 0.000163284)
(0.0861327 -0.000336912 0.000234706)
(0.0699034 -0.000259813 0.000141884)
(0.0700428 -0.000279059 0.000144162)
(0.0859862 -0.000309087 0.000213879)
(0.0698402 -0.000247578 0.00012806)
(0.0858561 -0.000273267 0.000187227)
(0.0709862 -0.000411102 0.000206046)
(0.0690627 -0.000411404 0.000197361)
(0.0867817 -0.000458303 0.000276972)
(0.0707043 -0.000374258 0.000185183)
(0.0687697 -0.000374598 0.000178561)
(0.0866079 -0.000425079 0.00025502)
(0.0704406 -0.000336847 0.000166139)
(0.0684987 -0.000334715 0.000161607)
(0.0864437 -0.000390351 0.000233786)
(0.0701953 -0.000300828 0.000148193)
(0.0682454 -0.000296445 0.000145361)
(0.0862861 -0.000356944 0.000213888)
(0.0699696 -0.000266724 0.000130523)
(0.068011 -0.000260655 0.000128348)
(0.0861378 -0.000325176 0.000194212)
(0.0697723 -0.000235674 0.000113122)
(0.0678077 -0.000229343 0.000110861)
(0.0860057 -0.000286282 0.000170385)
(0.0676102 -0.000204588 9.46429e-05)
(0.066902 -0.0003717 0.000175276)
(0.0633831 -0.000324052 0.000156738)
(0.0834027 -0.000419063 0.000227943)
(0.0666134 -0.000334439 0.000156774)
(0.0631026 -0.00028933 0.000137551)
(0.0832257 -0.000389643 0.000208516)
(0.0663482 -0.000295311 0.000140374)
(0.0628468 -0.000253613 0.000121509)
(0.0830594 -0.000357547 0.000190631)
(0.0661052 -0.000257329 0.000124979)
(0.0626119 -0.000220119 0.000107097)
(0.0828997 -0.000326548 0.000174154)
(0.0658826 -0.000222596 0.000110535)
(0.0623947 -0.000187416 9.38912e-05)
(0.0827511 -0.000295817 0.000157575)
(0.0656867 -0.0001964 9.57642e-05)
(0.0622098 -0.000159193 8.39519e-05)
(0.0826182 -0.000253923 0.000136844)
(0.0620327 -0.000146121 7.04449e-05)
(0.0598437 -0.000246985 0.000119905)
(0.0548383 -0.000192323 9.53848e-05)
(0.0771488 -0.000320725 0.000148142)
(0.0595873 -0.000212796 0.00010409)
(0.0545963 -0.00016946 8.3211e-05)
(0.076973 -0.000294253 0.00013262)
(0.0593542 -0.000182087 9.03145e-05)
(0.0543762 -0.000148872 7.17025e-05)
(0.0768088 -0.000270484 0.000119449)
(0.0591433 -0.000153706 7.77999e-05)
(0.0541731 -0.000129868 6.14693e-05)
(0.0766538 -0.000247913 0.000107498)
(0.0589538 -0.000128358 6.76423e-05)
(0.053982 -0.000111073 5.25862e-05)
(0.0765065 -0.00022608 9.58114e-05)
(0.0587881 -0.000112183 5.95407e-05)
(0.0538208 -9.40958e-05 4.66868e-05)
(0.0763748 -0.000199302 8.49317e-05)
(0.0536744 -8.36874e-05 4.30615e-05)
(0.07625 -0.00016885 7.39043e-05)
(0.0502261 -0.000129455 5.65432e-05)
(0.043201 -8.9944e-05 4.26353e-05)
(0.0674143 -0.000217656 5.99759e-05)
(0.0500103 -0.000117644 4.91087e-05)
(0.0430082 -8.26231e-05 3.74999e-05)
(0.0672229 -0.000207254 5.36066e-05)
(0.0498097 -0.000106021 4.20405e-05)
(0.0428294 -7.70957e-05 3.18065e-05)
(0.0670445 -0.000198099 4.71596e-05)
(0.0496247 -9.39642e-05 3.63944e-05)
(0.0426561 -7.00767e-05 2.74549e-05)
(0.066876 -0.000186 4.14722e-05)
(0.0494553 -8.12035e-05 3.26978e-05)
(0.0424923 -6.12199e-05 2.43743e-05)
(0.0667131 -0.000172251 3.6593e-05)
(0.0493069 -6.96813e-05 3.08788e-05)
(0.0423532 -4.98145e-05 2.27472e-05)
(0.0665683 -0.000149535 3.34169e-05)
(0.0664318 -0.000120564 3.14765e-05)
(0.0373959 -2.65418e-05 4.38074e-05)
(0.0294086 -8.31871e-06 3.81115e-05)
(0.0518413 -7.90453e-05 3.68722e-05)
(0.0372278 -2.78486e-05 3.77104e-05)
(0.0292768 -1.02205e-05 3.29894e-05)
(0.0516428 -7.96922e-05 3.16827e-05)
(0.0370638 -2.91744e-05 3.2095e-05)
(0.0291469 -1.25869e-05 2.78114e-05)
(0.0514597 -8.28074e-05 2.57869e-05)
(0.0369087 -2.79647e-05 2.7613e-05)
(0.0290157 -1.32452e-05 2.34239e-05)
(0.0512834 -8.22143e-05 2.06197e-05)
(0.0367678 -2.30007e-05 2.42687e-05)
(0.0288943 -1.22271e-05 1.96147e-05)
(0.0511166 -7.75789e-05 1.61899e-05)
(0.0287933 -8.36563e-06 1.70215e-05)
(0.0509736 -6.33175e-05 1.347e-05)
(0.0239838 -1.68453e-05 2.08177e-05)
(0.0306439 -5.5755e-05 6.40478e-06)
(0.0238739 -1.6798e-05 1.76203e-05)
(0.0305119 -5.24783e-05 5.11997e-06)
(0.0237609 -1.61029e-05 1.45201e-05)
(0.0303818 -4.94823e-05 3.5087e-06)
(0.0236538 -1.45077e-05 1.16937e-05)
(0.0302518 -4.44935e-05 2.02727e-06)
(0.0235602 -1.20105e-05 9.42918e-06)
(0.0301334 -3.79028e-05 4.90108e-07)
(0.0300373 -2.98583e-05 1.2577e-07)
(0.037412 4.7199e-05 2.4999e-05)
(0.0518545 4.00059e-05 7.82068e-05)
(0.0432246 4.49348e-05 8.86604e-05)
(0.0372435 4.28134e-05 2.68185e-05)
(0.0516561 3.73047e-05 7.98285e-05)
(0.0430327 4.14177e-05 8.15492e-05)
(0.0370768 3.8488e-05 2.93734e-05)
(0.0514718 3.33557e-05 8.46786e-05)
(0.0428531 3.72497e-05 7.68838e-05)
(0.0369141 3.51196e-05 2.94379e-05)
(0.0512909 2.92579e-05 8.66247e-05)
(0.0426757 3.3759e-05 7.23593e-05)
(0.0367668 3.2383e-05 2.30941e-05)
(0.0511219 2.68316e-05 7.63022e-05)
(0.0425107 3.11199e-05 6.77517e-05)
(0.0423594 3.02334e-05 5.47505e-05)
(0.0698289 2.98611e-05 0.000161041)
(0.0795929 -5.32649e-05 0.000259358)
(0.078066 3.22265e-05 0.000263742)
(0.0696015 2.70345e-05 0.000160087)
(0.0794077 -5.07579e-05 0.000248852)
(0.0778678 3.25045e-05 0.000253915)
(0.0693912 2.27501e-05 0.000159968)
(0.0792354 -4.98536e-05 0.000240279)
(0.0776843 3.12197e-05 0.00024698)
(0.0691938 1.9523e-05 0.000149719)
(0.0790719 -4.87302e-05 0.000230478)
(0.0775111 2.85832e-05 0.000239941)
(0.0789141 -4.42573e-05 0.0002094)
(0.0773449 2.60917e-05 0.00021902)
(0.0907282 -0.000158716 0.000317295)
(0.0952722 -0.000253564 0.00033822)
(0.0979294 -0.000153991 0.000437415)
(0.0906016 -0.000149378 0.000306852)
(0.0951765 -0.000239044 0.000326514)
(0.0978792 -0.000143036 0.000416979)
(0.0904773 -0.000140391 0.000294116)
(0.0950805 -0.000226116 0.000314415)
(0.0978241 -0.000132291 0.000400719)
(0.0903564 -0.000129995 0.000274976)
(0.094984 -0.000211617 0.000298242)
(0.0977659 -0.00012289 0.000382699)
(0.09024 -0.000114571 0.000240433)
(0.0948879 -0.000195232 0.000275861)
(0.0977057 -0.000113067 0.000355027)
(0.0948017 -0.000167024 0.000231874)
(0.097654 -9.92042e-05 0.000304324)
(0.10017 -0.000340664 0.000354092)
(0.102068 -0.000409024 0.000370913)
(0.106791 -0.000345574 0.000444067)
(0.100107 -0.000322094 0.000340652)
(0.102015 -0.000387049 0.000355699)
(0.106808 -0.000326799 0.000425589)
(0.10004 -0.000303271 0.000324745)
(0.101958 -0.00036582 0.000340301)
(0.106819 -0.000308484 0.00040905)
(0.09997 -0.000282563 0.000304562)
(0.101896 -0.00034221 0.000320179)
(0.106824 -0.00028931 0.000390975)
(0.0999008 -0.000253331 0.000271215)
(0.101835 -0.000317616 0.000297051)
(0.106826 -0.000268364 0.000367651)
(0.101775 -0.000275106 0.000252867)
(0.106823 -0.000234969 0.000318463)
(0.104015 -0.000458819 0.000372451)
(0.104112 -0.00049316 0.000367816)
(0.110437 -0.000474734 0.000431447)
(0.103968 -0.000434321 0.000354549)
(0.104067 -0.000465938 0.000348734)
(0.110472 -0.000451121 0.00041276)
(0.103918 -0.000408161 0.000334725)
(0.104019 -0.000438025 0.000329082)
(0.110502 -0.000426867 0.000394216)
(0.103864 -0.00038023 0.000312098)
(0.103967 -0.000408596 0.000307363)
(0.110526 -0.000400822 0.000373544)
(0.103811 -0.000341871 0.000278642)
(0.103915 -0.00037876 0.000283663)
(0.110548 -0.000372519 0.000348489)
(0.103864 -0.000329201 0.000244944)
(0.110563 -0.000326293 0.000303603)
(0.104166 -0.00049859 0.000347349)
(0.102923 -0.000489415 0.000321779)
(0.110769 -0.000533068 0.000376778)
(0.104119 -0.000468532 0.000325413)
(0.102879 -0.000465268 0.000302174)
(0.110807 -0.000505154 0.000356716)
(0.10407 -0.000437842 0.000302937)
(0.102831 -0.000440595 0.000281833)
(0.11084 -0.00047769 0.000336094)
(0.104019 -0.000406779 0.000279631)
(0.102778 -0.000414094 0.000261313)
(0.110869 -0.00044985 0.000314409)
(0.103969 -0.000365792 0.000250584)
(0.102726 -0.000385828 0.000239533)
(0.110895 -0.000419013 0.000290156)
(0.102672 -0.000331009 0.000207226)
(0.110914 -0.000366925 0.00025542)
(0.101659 -0.000458076 0.000274895)
(0.0991008 -0.000434182 0.000228029)
(0.10873 -0.000523502 0.000273875)
(0.101613 -0.000438415 0.000257996)
(0.0990418 -0.000417419 0.000213268)
(0.108767 -0.000501097 0.000258058)
(0.101561 -0.000417001 0.00024078)
(0.0989786 -0.000400704 0.000199615)
(0.108799 -0.000479252 0.000241412)
(0.101505 -0.000392817 0.000222345)
(0.0989087 -0.000381092 0.000185529)
(0.108824 -0.000457214 0.000224315)
(0.101448 -0.000350886 0.000197047)
(0.098839 -0.000361915 0.000170192)
(0.108844 -0.000429089 0.000205707)
(0.0987659 -0.00031835 0.000146984)
(0.108858 -0.000372198 0.000179138)
(0.0966201 -0.000394198 0.000170414)
(0.0918501 -0.000369687 0.000119892)
(0.104386 -0.000493873 0.000135823)
(0.0965434 -0.000380675 0.000158224)
(0.0917332 -0.000357494 0.000110028)
(0.104397 -0.000471362 0.000124974)
(0.0964625 -0.000366013 0.000147023)
(0.0916174 -0.00034539 0.000101424)
(0.104402 -0.000453558 0.000114639)
(0.096377 -0.000350984 0.000136053)
(0.0915026 -0.000329395 9.29613e-05)
(0.104399 -0.000435733 0.000105136)
(0.0962881 -0.000328572 0.00012376)
(0.0913883 -0.000315685 8.51264e-05)
(0.104392 -0.000416303 9.71228e-05)
(0.0962064 -0.00027888 0.00010695)
(0.0912757 -0.000285081 7.67249e-05)
(0.10438 -0.000373655 8.74256e-05)
(0.0911625 -0.000223357 6.44457e-05)
(0.0874037 -0.000336378 6.38828e-05)
(0.0780546 -0.000265239 2.94793e-05)
(0.0961829 -0.000456352 -6.71359e-06)
(0.0872499 -0.00032513 5.76885e-05)
(0.0778565 -0.000254038 2.69789e-05)
(0.0961173 -0.000433221 -9.70625e-06)
(0.0871011 -0.000311496 5.17229e-05)
(0.0776728 -0.00024442 2.34414e-05)
(0.0960478 -0.000414197 -1.30517e-05)
(0.0869567 -0.000296382 4.65643e-05)
(0.0775008 -0.000231796 1.95561e-05)
(0.0959761 -0.000393589 -1.48222e-05)
(0.0868152 -0.000273975 4.27271e-05)
(0.0773343 -0.000218053 1.63021e-05)
(0.0959028 -0.000370467 -1.40153e-05)
(0.0866829 -0.000230264 3.9031e-05)
(0.0771846 -0.000192568 1.40819e-05)
(0.0958311 -0.000330967 -9.38708e-06)
(0.0770387 -0.000151556 1.19831e-05)
(0.0698189 -0.000160654 2.43483e-05)
(0.0535628 -0.000102699 1.76838e-05)
(0.0795871 -0.000259234 -5.73507e-05)
(0.0695921 -0.000157526 1.87007e-05)
(0.0533641 -0.00010055 1.41821e-05)
(0.0794022 -0.00024689 -5.77042e-05)
(0.0693837 -0.000153869 1.25975e-05)
(0.0531807 -9.99295e-05 9.68159e-06)
(0.0792301 -0.000235619 -5.89551e-05)
(0.0691917 -0.000146521 6.98512e-06)
(0.0530061 -9.52793e-05 5.71985e-06)
(0.0790675 -0.000221496 -5.92875e-05)
(0.0690141 -0.00013179 3.17102e-06)
(0.0528435 -8.64057e-05 2.06871e-06)
(0.0789091 -0.000203119 -5.89051e-05)
(0.0688524 -0.000106024 3.59528e-06)
(0.0527072 -7.04061e-05 1.52953e-06)
(0.0787648 -0.0001753 -5.31766e-05)
(0.0786234 -0.000143077 -3.92003e-05)
(0.0404841 -9.60402e-05 -1.71276e-05)
(0.047619 -0.000133674 -8.16237e-05)
(0.0403158 -8.99248e-05 -1.59154e-05)
(0.04742 -0.000123524 -7.3656e-05)
(0.0401534 -8.25229e-05 -1.50973e-05)
(0.0472365 -0.000112614 -6.63081e-05)
(0.0400031 -7.17378e-05 -1.46025e-05)
(0.0470621 -9.83915e-05 -5.95439e-05)
(0.0398721 -5.83435e-05 -1.35572e-05)
(0.0469043 -8.07979e-05 -5.38264e-05)
(0.0467745 -6.35853e-05 -4.74336e-05)
(0.0502603 5.96631e-05 0.000128192)
(0.0674382 6.20543e-05 0.000215375)
(0.0548807 9.81345e-05 0.000191996)
(0.0500451 5.37711e-05 0.000116733)
(0.0672479 5.76202e-05 0.000205367)
(0.0546392 8.77042e-05 0.000169581)
(0.0498437 4.80456e-05 0.000106949)
(0.0670701 5.31387e-05 0.000198026)
(0.0544193 7.71351e-05 0.000148728)
(0.0496546 4.33492e-05 9.95848e-05)
(0.0669009 4.93042e-05 0.000190511)
(0.0542147 6.8296e-05 0.000131471)
(0.0494786 4.00631e-05 9.17559e-05)
(0.0667396 4.62454e-05 0.000178177)
(0.0540247 5.99604e-05 0.000118616)
(0.0493261 3.84325e-05 7.64249e-05)
(0.0665963 4.30583e-05 0.000147203)
(0.0538574 5.37433e-05 0.000106008)
(0.0537026 5.25664e-05 8.54973e-05)
(0.0874169 6.69084e-05 0.000333587)
(0.0961882 -4.2178e-06 0.000453164)
(0.0918575 0.000122303 0.000367454)
(0.0872637 6.30543e-05 0.00032398)
(0.0961231 -5.48008e-06 0.000431296)
(0.0917411 0.000114172 0.000354931)
(0.0871164 5.9453e-05 0.000314326)
(0.0960551 -7.10135e-06 0.000413848)
(0.0916265 0.000108026 0.000344676)
(0.0869761 5.64663e-05 0.000297474)
(0.095986 -6.96212e-06 0.000397044)
(0.0915126 0.000102457 0.000332017)
(0.0868447 5.35188e-05 0.00025952)
(0.0959163 -4.15834e-06 0.000368904)
(0.0914014 9.82292e-05 0.000310442)
(0.0958575 5.00607e-07 0.000315607)
(0.0913004 8.9986e-05 0.000265135)
(0.105932 -0.000102565 0.000514486)
(0.109816 -0.000203714 0.000507925)
(0.109252 -1.50534e-05 0.000532675)
(0.105962 -9.73252e-05 0.000494832)
(0.109884 -0.000193287 0.000487266)
(0.10932 -1.60402e-05 0.000509664)
(0.10598 -9.16169e-05 0.000478524)
(0.109942 -0.000182439 0.000473954)
(0.109378 -1.74243e-05 0.000494606)
(0.105991 -8.40907e-05 0.00045278)
(0.109989 -0.000171405 0.000458193)
(0.109425 -1.66658e-05 0.000477491)
(0.105999 -7.39374e-05 0.000406007)
(0.110032 -0.000157681 0.00042896)
(0.109467 -1.34107e-05 0.000445424)
(0.110067 -0.000137807 0.000370787)
(0.109502 -1.05674e-05 0.000382893)
(0.114068 -0.000296129 0.000492416)
(0.115666 -0.00037112 0.000480455)
(0.11702 -0.000204224 0.000482529)
(0.114167 -0.000281595 0.000473952)
(0.115777 -0.000354149 0.000461644)
(0.117155 -0.000196368 0.000464507)
(0.114259 -0.000266407 0.000458167)
(0.115882 -0.00033562 0.00044515)
(0.117282 -0.000188391 0.000453764)
(0.114342 -0.000249033 0.000438639)
(0.115979 -0.000316661 0.000428432)
(0.117401 -0.000178994 0.00044277)
(0.114418 -0.000224506 0.00039953)
(0.11607 -0.0002942 0.00040359)
(0.117511 -0.00016592 0.000417915)
(0.116148 -0.000258578 0.000353057)
(0.117607 -0.000145939 0.000364202)
(0.117443 -0.000431814 0.000449206)
(0.117636 -0.00047878 0.000412739)
(0.120357 -0.000344801 0.000416162)
(0.117563 -0.000411051 0.000431742)
(0.117761 -0.000457258 0.000396476)
(0.120511 -0.000330389 0.000400734)
(0.117675 -0.000388861 0.000413771)
(0.117878 -0.000434813 0.000379637)
(0.120657 -0.00031557 0.000388019)
(0.117781 -0.000364446 0.000392111)
(0.117989 -0.000411793 0.00036114)
(0.120797 -0.000299532 0.000374266)
(0.11788 -0.00033019 0.000356869)
(0.118095 -0.000384353 0.000337387)
(0.120929 -0.000279186 0.000351979)
(0.118187 -0.000337891 0.000296632)
(0.121046 -0.00024609 0.000310357)
(0.117953 -0.000502622 0.000362893)
(0.117132 -0.000526636 0.000307626)
(0.121012 -0.000431215 0.000308198)
(0.118078 -0.000480169 0.000345991)
(0.117258 -0.000504802 0.000292487)
(0.121171 -0.000412846 0.000295212)
(0.118196 -0.00045761 0.000327428)
(0.117377 -0.000483681 0.000275387)
(0.121321 -0.000396664 0.000282634)
(0.118308 -0.000432036 0.000306042)
(0.11749 -0.000463888 0.000257319)
(0.121467 -0.000379417 0.000268678)
(0.118412 -0.00039204 0.000277336)
(0.117596 -0.000435315 0.000237126)
(0.121604 -0.000354659 0.000250521)
(0.117689 -0.000379517 0.000210599)
(0.121727 -0.000310496 0.000221981)
(0.116444 -0.000531047 0.000234569)
(0.114586 -0.000545735 0.000153391)
(0.119714 -0.000478173 0.000160234)
(0.116567 -0.000509453 0.000220797)
(0.1147 -0.000521937 0.000144468)
(0.119871 -0.000459957 0.000152379)
(0.116682 -0.000489891 0.000205897)
(0.114807 -0.000503638 0.00013365)
(0.120019 -0.000446766 0.000143582)
(0.116788 -0.000466361 0.000190042)
(0.114905 -0.000486767 0.000123624)
(0.120162 -0.000431381 0.00013434)
(0.11689 -0.000423121 0.000170339)
(0.114995 -0.00045858 0.000113051)
(0.120296 -0.00040038 0.000123196)
(0.115075 -0.00040111 9.76707e-05)
(0.112913 -0.000536268 6.71942e-05)
(0.109262 -0.000535453 -1.81812e-05)
(0.116426 -0.000504256 -2.02483e-05)
(0.113014 -0.000515526 6.13398e-05)
(0.10933 -0.00051108 -2.00912e-05)
(0.116562 -0.00048477 -2.04958e-05)
(0.113106 -0.000499771 5.52886e-05)
(0.109388 -0.000496263 -2.22077e-05)
(0.116689 -0.000475598 -2.13974e-05)
(0.113187 -0.000478725 4.96375e-05)
(0.109433 -0.000479352 -2.29132e-05)
(0.116807 -0.000464885 -2.17245e-05)
(0.113263 -0.000435954 4.35384e-05)
(0.109472 -0.000450285 -2.19555e-05)
(0.116916 -0.000439681 -1.98497e-05)
(0.109506 -0.000393246 -1.84025e-05)
(0.117014 -0.000384458 -1.64909e-05)
(0.105935 -0.000517294 -0.000106119)
(0.0979305 -0.000438303 -0.00015749)
(0.109815 -0.000510697 -0.000206705)
(0.105964 -0.000496426 -0.000101936)
(0.0978801 -0.000416342 -0.000148311)
(0.109882 -0.0004896 -0.000196805)
(0.10598 -0.000478993 -9.73888e-05)
(0.0978236 -0.00039851 -0.000139212)
(0.109938 -0.000476296 -0.000186696)
(0.105985 -0.000453592 -9.1217e-05)
(0.0977628 -0.000378592 -0.000131035)
(0.109983 -0.000460692 -0.000175619)
(0.105986 -0.00041074 -8.17276e-05)
(0.0976987 -0.000353168 -0.000123247)
(0.110024 -0.000433943 -0.000159395)
(0.0976332 -0.000311649 -0.000111063)
(0.110057 -0.00038227 -0.000137084)
(0.0907272 -0.000315437 -0.00016425)
(0.0722161 -0.000221349 -0.000150757)
(0.0952714 -0.000336948 -0.000258148)
(0.0906006 -0.00030291 -0.00015698)
(0.0720308 -0.000208933 -0.000139724)
(0.0951754 -0.000323902 -0.000245547)
(0.090475 -0.000287729 -0.000149512)
(0.0718584 -0.000195667 -0.000129708)
(0.095078 -0.000310851 -0.00023454)
(0.0903487 -0.000268614 -0.000140991)
(0.0716961 -0.00017837 -0.000119498)
(0.0949786 -0.000294056 -0.000221251)
(0.0902219 -0.000241402 -0.0001285)
(0.0715436 -0.000156392 -0.000108328)
(0.0948793 -0.000270696 -0.000201677)
(0.0901031 -0.000201874 -0.000108912)
(0.0714071 -0.000130409 -9.38867e-05)
(0.0947813 -0.000233695 -0.000172014)
(0.0562907 -0.000160948 -0.000154337)
(0.0609236 -0.000196429 -0.000237509)
(0.0560638 -0.000144899 -0.00013866)
(0.06067 -0.000179115 -0.000216566)
(0.055856 -0.000126399 -0.000123756)
(0.0604392 -0.000158283 -0.000195608)
(0.055669 -0.000105063 -0.000110203)
(0.0602265 -0.000135885 -0.000176161)
(0.0555049 -8.44347e-05 -9.76156e-05)
(0.0600332 -0.00011263 -0.000159219)
(0.0598638 -9.70296e-05 -0.000142534)
(0.0598961 0.000123818 0.000248517)
(0.0771775 0.000150917 0.000320545)
(0.063444 0.000160326 0.000321461)
(0.0596396 0.000109228 0.000213997)
(0.0770016 0.000136922 0.000293961)
(0.0631639 0.000142103 0.000288373)
(0.0594066 9.668e-05 0.000182484)
(0.0768382 0.000125071 0.000269736)
(0.0629085 0.000126771 0.000251955)
(0.0591959 8.59504e-05 0.000156085)
(0.0766829 0.000115561 0.000248139)
(0.0626728 0.000113962 0.000218094)
(0.0590088 7.67156e-05 0.000134849)
(0.0765384 0.00010703 0.000227672)
(0.0624576 0.000102806 0.000185779)
(0.0588452 6.87937e-05 0.000119013)
(0.0764094 9.63787e-05 0.000201556)
(0.0622711 9.33106e-05 0.000162512)
(0.076287 8.22211e-05 0.000167428)
(0.096622 0.000173724 0.000392477)
(0.104379 0.000138829 0.000492922)
(0.0991 0.000230782 0.00043327)
(0.0965457 0.000163237 0.000378867)
(0.10439 0.000128859 0.000470076)
(0.0990405 0.000217405 0.000415567)
(0.0964647 0.000154657 0.00036567)
(0.104395 0.000119803 0.000452559)
(0.0989762 0.000205581 0.000399942)
(0.0963817 0.000146923 0.000348993)
(0.104392 0.000111943 0.000434951)
(0.0989051 0.000194732 0.000380212)
(0.0962982 0.000136186 0.000321399)
(0.104387 0.000105147 0.000411561)
(0.0988357 0.000181781 0.00035288)
(0.0962198 0.000116754 0.000269912)
(0.104375 9.48193e-05 0.000363014)
(0.098762 0.000156284 0.000305266)
(0.112896 7.05192e-05 0.000535206)
(0.116415 -1.75943e-05 0.000502373)
(0.114565 0.000155489 0.000545506)
(0.112996 6.50516e-05 0.000514493)
(0.116551 -1.80586e-05 0.000483495)
(0.114678 0.000147099 0.000522693)
(0.113088 5.92369e-05 0.000497769)
(0.116678 -1.94156e-05 0.000473251)
(0.114784 0.000136443 0.000504093)
(0.113169 5.36187e-05 0.000475911)
(0.116797 -2.07141e-05 0.000463121)
(0.114883 0.000124478 0.000482923)
(0.113244 4.70216e-05 0.000429815)
(0.116906 -2.09865e-05 0.000436974)
(0.114975 0.000108675 0.000444457)
(0.117002 -2.01493e-05 0.00037679)
(0.120298 -0.000106001 0.000459575)
(0.121829 -0.000177072 0.000423776)
(0.121691 -1.58582e-05 0.000445939)
(0.120465 -0.000103674 0.000448377)
(0.122009 -0.000170916 0.000408602)
(0.121871 -1.69206e-05 0.000429415)
(0.120623 -0.000101577 0.000442479)
(0.122178 -0.000166427 0.000401825)
(0.122042 -1.84491e-05 0.000423279)
(0.120772 -9.78556e-05 0.00042704)
(0.122342 -0.000161434 0.000394713)
(0.122207 -2.20057e-05 0.000412756)
(0.120911 -8.99245e-05 0.000387631)
(0.122494 -0.000152133 0.000372143)
(0.122361 -2.6048e-05 0.000382315)
(0.122631 -0.000134895 0.000325496)
(0.123595 -0.000244972 0.000370388)
(0.123903 -0.000300867 0.00031102)
(0.124947 -0.000157149 0.000333268)
(0.12378 -0.000236528 0.000359668)
(0.124094 -0.000288707 0.000299495)
(0.125145 -0.000151775 0.000320886)
(0.123957 -0.000228894 0.000351905)
(0.124275 -0.000280365 0.00029263)
(0.125335 -0.000148126 0.000314126)
(0.124126 -0.000217913 0.000338184)
(0.124451 -0.000271118 0.000285225)
(0.125518 -0.000145041 0.000305321)
(0.124283 -0.000198661 0.000309347)
(0.124615 -0.000253754 0.000268925)
(0.12569 -0.000138146 0.000285251)
(0.124764 -0.000223132 0.000237887)
(0.124401 -0.000343854 0.000241536)
(0.12377 -0.000385372 0.000164458)
(0.125815 -0.000267361 0.00018538)
(0.124591 -0.000332195 0.0002332)
(0.123961 -0.000370542 0.000157323)
(0.126017 -0.000257117 0.000178605)
(0.124773 -0.000322582 0.000226122)
(0.124143 -0.00036333 0.000152212)
(0.12621 -0.000251093 0.000174405)
(0.124946 -0.000306982 0.000216065)
(0.12432 -0.000351523 0.000146662)
(0.126397 -0.000243042 0.00016921)
(0.125108 -0.00027791 0.000198082)
(0.124487 -0.000323839 0.000137927)
(0.126574 -0.000226266 0.000159261)
(0.123331 -0.000413124 7.90124e-05)
(0.121701 -0.000446447 -1.66223e-05)
(0.124815 -0.000355538 1.21688e-05)
(0.123518 -0.000402323 7.56872e-05)
(0.121881 -0.000430627 -1.65432e-05)
(0.125015 -0.000342598 1.20744e-05)
(0.123697 -0.000392719 7.23773e-05)
(0.122052 -0.00042554 -1.6446e-05)
(0.125205 -0.000337187 1.2092e-05)
(0.12387 -0.000369127 6.77425e-05)
(0.122216 -0.000416114 -1.60826e-05)
(0.12539 -0.000325995 1.27956e-05)
(0.12237 -0.000387934 -1.42599e-05)
(0.125566 -0.000298153 1.36681e-05)
(0.120302 -0.000462134 -0.000107499)
(0.117018 -0.000484877 -0.000206724)
(0.121825 -0.000426638 -0.000178017)
(0.120468 -0.000451833 -0.00010387)
(0.117153 -0.000467324 -0.000198368)
(0.122005 -0.000412424 -0.000170622)
(0.120626 -0.000446358 -9.95675e-05)
(0.117279 -0.000457964 -0.000189715)
(0.122176 -0.000407707 -0.000164532)
(0.120774 -0.000431508 -9.20426e-05)
(0.117397 -0.000447164 -0.000178258)
(0.12234 -0.000398719 -0.000154019)
(0.120913 -0.000393389 -8.04626e-05)
(0.117507 -0.00042192 -0.00015987)
(0.122494 -0.00037189 -0.000135914)
(0.117605 -0.000369657 -0.000136405)
(0.11406 -0.000494921 -0.000298961)
(0.106787 -0.000444596 -0.000349329)
(0.115652 -0.000483346 -0.000373259)
(0.114159 -0.000477442 -0.000284548)
(0.106803 -0.00042584 -0.000331553)
(0.115764 -0.000465459 -0.000356592)
(0.11425 -0.000462886 -0.000268901)
(0.106813 -0.000410564 -0.000314646)
(0.115869 -0.000450955 -0.000337979)
(0.114333 -0.000443117 -0.000248578)
(0.106816 -0.000393829 -0.000296159)
(0.115968 -0.000433988 -0.000316437)
(0.114411 -0.000404764 -0.000220125)
(0.106816 -0.000366168 -0.000269772)
(0.116059 -0.000402112 -0.0002844)
(0.106813 -0.000317509 -0.000231887)
(0.100169 -0.000352432 -0.000346078)
(0.0820519 -0.000281869 -0.000325661)
(0.102065 -0.000370152 -0.000413021)
(0.100105 -0.00033871 -0.000329328)
(0.0818767 -0.000263353 -0.000302522)
(0.102011 -0.000355278 -0.000393079)
(0.100034 -0.000323554 -0.000312228)
(0.0817116 -0.000243297 -0.000280551)
(0.101952 -0.000340957 -0.000373771)
(0.0999601 -0.000299446 -0.00028821)
(0.0815539 -0.000222014 -0.00025941)
(0.101888 -0.000321327 -0.000350257)
(0.0998894 -0.000260959 -0.000252143)
(0.0814074 -0.000196108 -0.000235307)
(0.101827 -0.000286017 -0.00031052)
(0.0812713 -0.000169794 -0.000205314)
(0.0659373 -0.000224204 -0.000307989)
(0.0684957 -0.000236549 -0.000365561)
(0.0656713 -0.000200949 -0.000281261)
(0.0682123 -0.00021437 -0.000337533)
(0.0654265 -0.000174934 -0.000255288)
(0.0679506 -0.000188559 -0.000308688)
(0.0652015 -0.000149883 -0.000231971)
(0.0677063 -0.000163887 -0.000281731)
(0.0649968 -0.000132094 -0.000210264)
(0.0674829 -0.000143332 -0.000256692)
(0.0672724 -0.000135097 -0.0002295)
(0.0669728 0.000178998 0.000366843)
(0.083438 0.000231083 0.00041522)
(0.0691346 0.000201483 0.000405385)
(0.0666849 0.00016109 0.000330749)
(0.0832609 0.000212408 0.000386584)
(0.0688406 0.000180822 0.00037093)
(0.0664187 0.000145445 0.000291669)
(0.0830933 0.000195465 0.000354477)
(0.0685678 0.000163383 0.000332144)
(0.0661741 0.000130657 0.000252718)
(0.0829318 0.000180306 0.00032204)
(0.0683116 0.00014671 0.000293337)
(0.0659526 0.000117095 0.000219751)
(0.0827828 0.00016366 0.000286284)
(0.0680801 0.000130234 0.000257183)
(0.0826445 0.000143512 0.000248985)
(0.0678723 0.000116103 0.000230876)
(0.101655 0.000278574 0.000456977)
(0.108716 0.00027613 0.000523737)
(0.10292 0.000324296 0.000487688)
(0.101606 0.000263173 0.000437567)
(0.108752 0.000261333 0.000501761)
(0.102873 0.000304647 0.000463473)
(0.101551 0.000248139 0.000415822)
(0.108782 0.000246038 0.000480838)
(0.102822 0.00028503 0.000439144)
(0.101492 0.000230503 0.00038618)
(0.108806 0.00022946 0.000454664)
(0.102766 0.000266041 0.000413836)
(0.101434 0.000202793 0.000337902)
(0.108826 0.000206718 0.000411707)
(0.102706 0.000240505 0.000379804)
(0.10265 0.000202533 0.00032051)
(0.116418 0.000236036 0.000532612)
(0.119693 0.000160892 0.00047966)
(0.117107 0.00030728 0.000528499)
(0.11654 0.000222772 0.00051153)
(0.119848 0.000152841 0.000461305)
(0.117233 0.000293004 0.000506445)
(0.116655 0.000206701 0.000487587)
(0.119997 0.000143245 0.000448244)
(0.117352 0.000275869 0.000483932)
(0.116766 0.000185329 0.000448573)
(0.120141 0.000130071 0.000426984)
(0.117467 0.000251941 0.000450549)
(0.120276 0.000111302 0.000382737)
(0.123314 7.82423e-05 0.000413741)
(0.124804 1.0767e-05 0.00035566)
(0.123749 0.000162105 0.000386794)
(0.123501 7.32606e-05 0.000402222)
(0.125003 9.20881e-06 0.000341843)
(0.123942 0.000155717 0.000371145)
(0.123682 6.62096e-05 0.00039115)
(0.125194 6.36485e-06 0.00033556)
(0.124128 0.000148109 0.000361465)
(0.123855 5.57251e-05 0.000364622)
(0.125379 9.10956e-07 0.000322354)
(0.124307 0.000133408 0.000340971)
(0.125552 -5.07319e-06 0.000292487)
(0.126542 -6.03527e-05 0.000281933)
(0.126903 -0.000121747 0.00020455)
(0.126897 2.8248e-05 0.000233723)
(0.126746 -5.96826e-05 0.000273396)
(0.127113 -0.000117442 0.000197058)
(0.127108 2.76717e-05 0.000224079)
(0.126945 -6.05583e-05 0.000265478)
(0.127315 -0.000115762 0.000193618)
(0.127311 2.46865e-05 0.000217921)
(0.127135 -6.09598e-05 0.000249751)
(0.12751 -0.000113312 0.000186897)
(0.127508 1.79977e-05 0.00020661)
(0.127694 -0.000106627 0.000172266)
(0.127475 -0.000178278 0.000120709)
(0.126906 -0.00023425 3.25528e-05)
(0.12783 -9.25343e-05 6.12357e-05)
(0.127683 -0.000173263 0.000117828)
(0.127116 -0.000225611 3.20138e-05)
(0.128045 -8.90195e-05 5.97562e-05)
(0.127885 -0.000168428 0.000115295)
(0.127318 -0.000221525 3.23896e-05)
(0.128251 -8.79238e-05 5.92822e-05)
(0.128079 -0.000158718 0.000109913)
(0.127514 -0.000213335 3.33742e-05)
(0.12845 -8.58701e-05 5.75985e-05)