/*--------------------------------*- C++ -*----------------------------------*\
| =========                 |                                                 |
| \\      /  F ield         | OpenFOAM: The Open Source CFD Toolbox           |
|  \\    /   O peration     | Version:  2212                                  |
|   \\  /    A nd           | Website:  www.openfoam.com                      |
|    \\/     M anipulation  |                                                 |
\*---------------------------------------------------------------------------*/
FoamFile
{
    version     2.0;
    format      ascii;
    arch        "LSB;label=32;scalar=64";
    class       volScalarField;
    location    "0.25";
    object      nut;
}
// * * * * * * * * * * * * * * * * * * * * * * * * * * * * * * * * * * * * * //

dimensions      [0 2 -1 0 0 0 0];

internalField   nonuniform List<scalar> 
693
(
5.02983e-06
5.03021e-06
5.03068e-06
5.0311e-06
5.03122e-06
5.03102e-06
1.11643e-05
1.11656e-05
1.11669e-05
1.11677e-05
1.11684e-05
1.11686e-05
1.67621e-05
1.67641e-05
1.67658e-05
1.67671e-05
1.67679e-05
1.67685e-05
2.14332e-05
2.14357e-05
2.1438e-05
2.14397e-05
2.14408e-05
2.1441e-05
2.44447e-05
2.44472e-05
2.44494e-05
2.4451e-05
2.44525e-05
2.44529e-05
2.55134e-05
2.55174e-05
2.55207e-05
2.55233e-05
2.55252e-05
2.5526e-05
2.45185e-05
2.45225e-05
2.45258e-05
2.45284e-05
2.45302e-05
2.4531e-05
2.15327e-05
2.1536e-05
2.15386e-05
2.15408e-05
2.15423e-05
2.1543e-05
1.68728e-05
1.68749e-05
1.68768e-05
1.68783e-05
1.68794e-05
1.68801e-05
1.11994e-05
1.12007e-05
1.12021e-05
1.12031e-05
1.12037e-05
1.12039e-05
5.0297e-06
5.03011e-06
5.03059e-06
5.03103e-06
5.03116e-06
5.03098e-06
1.11996e-05
1.12009e-05
1.12022e-05
1.12032e-05
1.12039e-05
1.1204e-05
7.06498e-05
7.0658e-05
7.06667e-05
7.06739e-05
7.06779e-05
7.06778e-05
0.000113559
0.00011357
0.000113583
0.000113594
0.000113598
0.000113591
0.000144361
0.000144361
0.00014437
0.000144379
0.00014438
0.000144362
0.000163832
0.000163764
0.000163749
0.00016375
0.000163746
0.000163709
0.000171488
0.00017151
0.000171535
0.000171558
0.000171563
0.000171526
0.000166277
0.00016632
0.000166353
0.000166379
0.000166383
0.00016634
0.000148328
0.000148352
0.000148376
0.000148394
0.0001484
0.000148383
0.000117214
0.000117231
0.000117249
0.000117263
0.000117268
0.000117261
7.06452e-05
7.06551e-05
7.06649e-05
7.06732e-05
7.06775e-05
7.06774e-05
1.11637e-05
1.11651e-05
1.11663e-05
1.11674e-05
1.11681e-05
1.11684e-05
1.68729e-05
1.68751e-05
1.6877e-05
1.68785e-05
1.68796e-05
1.68803e-05
0.000117214
0.00011723
0.000117249
0.000117263
0.000117268
0.000117262
0.000199988
0.000200017
0.000200052
0.000200076
0.000200077
0.000200045
0.000253235
0.000253316
0.000253372
0.000253414
0.000253405
0.00025329
0.000283311
0.000283439
0.00028352
0.000283582
0.000283569
0.000283412
0.000293795
0.000293893
0.000294032
0.000294108
0.000294106
0.000293995
0.000285046
0.000285173
0.000285257
0.000285314
0.000285299
0.000285139
0.000254998
0.00025507
0.000255131
0.000255171
0.000255161
0.00025505
0.000199995
0.000200025
0.00020006
0.000200084
0.000200086
0.000200051
0.000113547
0.000113564
0.000113582
0.000113595
0.000113601
0.000113592
1.67606e-05
1.67629e-05
1.67648e-05
1.67663e-05
1.67674e-05
1.67682e-05
2.15331e-05
2.15363e-05
2.1539e-05
2.15412e-05
2.15427e-05
2.15432e-05
0.000148337
0.000148361
0.000148385
0.000148402
0.000148406
0.000148387
0.000255018
0.000255084
0.000255145
0.000255181
0.000255166
0.000255046
0.00032298
0.00032306
0.000323176
0.000323226
0.000323217
0.000323046
0.000360457
0.000360597
0.000360796
0.000360895
0.000360867
0.000360659
0.000372804
0.000373002
0.000373267
0.000373399
0.000373381
0.00037316
0.000361117
0.00036124
0.000361424
0.000361512
0.000361487
0.000361283
0.000322999
0.000323084
0.000323198
0.000323247
0.000323242
0.000323082
0.000253281
0.000253358
0.000253419
0.000253458
0.000253445
0.000253328
0.000144321
0.000144344
0.000144369
0.000144387
0.000144392
0.000144372
2.14299e-05
2.14334e-05
2.14362e-05
2.14384e-05
2.14401e-05
2.14408e-05
2.4519e-05
2.45231e-05
2.45264e-05
2.4529e-05
2.45308e-05
2.45315e-05
0.000166303
0.000166345
0.000166376
0.000166398
0.000166396
0.000166345
0.000285188
0.000285278
0.000285346
0.000285378
0.000285333
0.000285137
0.000361336
0.000361422
0.00036154
0.000361578
0.000361534
0.000361258
0.000403619
0.000403753
0.000403945
0.000404006
0.000403957
0.000403622
0.000417103
0.000417347
0.000417665
0.000417805
0.000417752
0.000417414
0.000403452
0.00040365
0.000403912
0.000404002
0.000403985
0.000403694
0.00036066
0.000360772
0.000360915
0.000360972
0.000360958
0.000360744
0.000283452
0.000283563
0.000283633
0.000283678
0.000283654
0.000283492
0.000163684
0.000163715
0.000163745
0.000163767
0.00016377
0.000163738
2.44396e-05
2.44437e-05
2.44471e-05
2.44499e-05
2.44518e-05
2.44528e-05
2.55129e-05
2.55172e-05
2.55207e-05
2.55235e-05
2.55254e-05
2.55261e-05
0.000171487
0.000171522
0.000171555
0.000171578
0.000171576
0.000171528
0.000294056
0.000294122
0.000294181
0.0002942
0.000294132
0.000293913
0.000373318
0.000373389
0.000373472
0.000373507
0.0003734
0.000372992
0.000417523
0.000417634
0.000417763
0.000417818
0.000417695
0.000417182
0.000431563
0.000431768
0.000432047
0.000432127
0.000432066
0.000431649
0.000417265
0.000417474
0.000417739
0.000417827
0.000417796
0.000417462
0.00037319
0.000373309
0.000373457
0.000373514
0.000373495
0.000373265
0.000294025
0.000294111
0.000294189
0.000294234
0.000294224
0.000294097
0.000171503
0.000171539
0.000171573
0.000171597
0.0001716
0.000171563
2.55129e-05
2.55172e-05
2.55208e-05
2.55237e-05
2.55257e-05
2.55266e-05
2.44389e-05
2.44429e-05
2.44467e-05
2.44496e-05
2.44514e-05
0.000163542
0.000163655
0.00016372
0.000163745
0.000163747
0.000283483
0.000283571
0.000283616
0.000283598
0.00028342
0.000360814
0.000360876
0.00036094
0.000360925
0.000360669
0.000403792
0.000403881
0.000403977
0.000403967
0.000403639
0.000417357
0.000417532
0.000417756
0.000417811
0.000417719
0.000417241
0.000403543
0.000403734
0.000403968
0.000404047
0.000404011
0.000403695
0.000361288
0.000361404
0.000361546
0.000361602
0.000361586
0.000361372
0.000285186
0.000285302
0.000285375
0.000285419
0.000285396
0.000285231
0.000166309
0.000166355
0.000166391
0.000166415
0.000166416
0.000166372
2.45191e-05
2.45232e-05
2.45265e-05
2.45291e-05
2.4531e-05
2.45318e-05
2.1434e-05
2.14377e-05
2.14395e-05
2.14405e-05
0.000144475
0.000144423
0.000144399
0.000144376
0.000253337
0.000253396
0.000253426
0.000253406
0.000253279
0.000323112
0.000323182
0.000323228
0.000323209
0.000323027
0.000361334
0.00036141
0.000361489
0.000361487
0.000361263
0.000373103
0.000373234
0.000373394
0.000373438
0.000373376
0.000373038
0.000360566
0.000360714
0.000360891
0.000360956
0.000360937
0.00036071
0.000323022
0.000323122
0.000323241
0.000323294
0.000323291
0.000323133
0.000255049
0.000255126
0.000255192
0.000255232
0.000255221
0.00025511
0.000148345
0.000148372
0.000148399
0.000148418
0.000148423
0.000148403
2.15333e-05
2.15366e-05
2.15393e-05
2.15415e-05
2.1543e-05
2.15436e-05
1.67635e-05
1.67656e-05
1.6767e-05
1.67679e-05
0.000113618
0.000113606
0.0001136
0.000113587
0.000199921
0.000199968
0.000200018
0.000200038
0.000200009
0.000254994
0.000255061
0.000255108
0.000255112
0.000255004
0.000285146
0.000285246
0.000285299
0.000285293
0.00028514
0.00029394
0.000294027
0.000294122
0.000294156
0.000294129
0.000293943
0.000283407
0.000283522
0.000283612
0.000283662
0.000283635
0.00028346
0.00025329
0.000253373
0.000253442
0.000253482
0.000253469
0.000253354
0.000200015
0.000200052
0.000200089
0.000200114
0.000200116
0.00020008
0.000117223
0.000117242
0.000117261
0.000117276
0.000117281
0.000117274
1.68732e-05
1.68754e-05
1.68773e-05
1.68788e-05
1.68799e-05
1.68806e-05
1.11658e-05
1.11666e-05
1.11675e-05
1.11679e-05
7.07254e-05
7.06741e-05
7.06694e-05
7.06688e-05
0.000116676
0.000116989
0.000117154
0.000117217
0.00011723
0.000148233
0.000148277
0.00014833
0.000148363
0.000148357
0.000166287
0.000166328
0.000166362
0.000166381
0.000166377
0.000171531
0.00017155
0.000171571
0.000171588
0.000171586
0.000171546
0.000163871
0.000163801
0.000163785
0.000163784
0.000163775
0.000163736
0.000144386
0.000144387
0.000144397
0.000144406
0.000144405
0.000144382
0.000113573
0.000113586
0.0001136
0.000113611
0.000113614
0.000113605
7.06544e-05
7.06637e-05
7.06731e-05
7.06803e-05
7.0684e-05
7.06835e-05
1.11998e-05
1.12011e-05
1.12025e-05
1.12035e-05
1.12041e-05
1.12043e-05
5.03049e-06
5.03068e-06
5.03084e-06
5.0307e-06
1.12008e-05
1.12013e-05
1.12024e-05
1.12028e-05
1.68687e-05
1.68706e-05
1.68735e-05
1.6876e-05
1.68776e-05
2.15316e-05
2.15345e-05
2.15373e-05
2.15396e-05
2.15411e-05
2.45191e-05
2.45229e-05
2.4526e-05
2.45284e-05
2.453e-05
2.55148e-05
2.55186e-05
2.55218e-05
2.55243e-05
2.5526e-05
2.55267e-05
2.44459e-05
2.44484e-05
2.44505e-05
2.44521e-05
2.44535e-05
2.44538e-05
2.14341e-05
2.14365e-05
2.1439e-05
2.14406e-05
2.14416e-05
2.1442e-05
1.67626e-05
1.67647e-05
1.67663e-05
1.67676e-05
1.67684e-05
1.6769e-05
1.11646e-05
1.11659e-05
1.11672e-05
1.1168e-05
1.11687e-05
1.11689e-05
5.0299e-06
5.03029e-06
5.03076e-06
5.03119e-06
5.0313e-06
5.03111e-06
)
;

boundaryField
{
    inlet
    {
        type            calculated;
        value           nonuniform List<scalar> 0();
    }
    ami1
    {
        type            cyclicAMI;
        value           nonuniform List<scalar> 0();
    }
    walls
    {
        type            nutkWallFunction;
        blending        stepwise;
        value           uniform 0;
    }
    ami2
    {
        type            cyclicAMI;
        value           nonuniform List<scalar> 0();
    }
    outlet
    {
        type            calculated;
        value           nonuniform List<scalar> 0();
    }
    procBoundary7to5
    {
        type            processor;
        value           nonuniform List<scalar> 
131
(
5.03095e-06
1.11685e-05
1.67687e-05
2.14412e-05
2.44531e-05
2.55263e-05
2.45313e-05
2.15432e-05
1.68803e-05
1.12038e-05
5.03092e-06
1.12039e-05
7.06736e-05
0.000113579
0.00014434
0.000163681
0.000171496
0.000166309
0.00014836
0.000117248
7.06725e-05
1.11682e-05
1.68805e-05
0.000117249
0.0002
0.000253216
0.000283315
0.000293875
0.000285039
0.000254975
0.000200002
0.000113578
1.67685e-05
2.15435e-05
0.000148361
0.000254966
0.000322888
0.000360469
0.000372959
0.000361093
0.000322924
0.000253243
0.000144346
2.14411e-05
2.45317e-05
0.000166307
0.000285013
0.00036103
0.000403354
0.00041714
0.000403445
0.000360538
0.000283375
0.000163704
2.44532e-05
2.55264e-05
2.44527e-05
0.000171491
0.000163864
0.000293785
0.000283287
0.000372779
0.000360374
0.000416936
0.000403218
0.000431337
0.000417181
0.000373038
0.00029395
0.000171525
2.55269e-05
2.44527e-05
0.000163864
0.000283287
0.000360374
0.000403218
0.000403218
0.000417023
0.00040343
0.000361156
0.000285112
0.000166334
2.45321e-05
2.14412e-05
0.000144363
0.000253188
0.000322835
0.00036098
0.00036098
0.000372866
0.000360494
0.000322959
0.000255023
0.000148377
2.15439e-05
1.67683e-05
0.000113573
0.000199962
0.000254923
0.000285015
0.000285015
0.000293837
0.000283338
0.000253263
0.000200028
0.000117258
1.68807e-05
1.11678e-05
7.06649e-05
0.000117226
0.00014835
0.000166488
0.000166488
0.000171511
0.000163698
0.000144354
0.000113589
7.06778e-05
1.12041e-05
5.03073e-06
1.12029e-05
1.68786e-05
2.15422e-05
2.45314e-05
2.45314e-05
2.55271e-05
2.44538e-05
2.1442e-05
1.67691e-05
1.11687e-05
5.03104e-06
)
;
    }
    procBoundary7to8
    {
        type            processor;
        value           nonuniform List<scalar> 
68
(
5.02947e-06
1.11631e-05
1.67595e-05
2.14297e-05
2.444e-05
1.11982e-05
7.0642e-05
0.000113556
0.000144383
0.000164023
1.68702e-05
0.000117205
0.000199999
0.00025327
0.000283393
2.15292e-05
0.000148329
0.000255047
0.000323094
0.000360598
2.45144e-05
0.000166299
0.000285237
0.000361498
0.000403857
0.000417296
2.5508e-05
0.00017149
0.000294129
0.000373498
0.000417788
0.000431823
2.44348e-05
2.14313e-05
0.000163654
0.000144625
0.000283543
0.000360983
0.00040404
0.000417604
2.14313e-05
0.000144625
0.000144625
0.000253352
0.000323226
0.000361517
0.000373294
1.6761e-05
0.000113627
0.000113627
0.000199987
0.000255055
0.00028522
0.000294048
1.11647e-05
7.08993e-05
7.08993e-05
0.000117118
0.000148295
0.000166303
0.000171561
5.03071e-06
1.12002e-05
1.12002e-05
1.6869e-05
2.15291e-05
2.45149e-05
2.55103e-05
)
;
    }
    procBoundary7to9
    {
        type            processor;
        value           nonuniform List<scalar> 
59
(
2.55089e-05
2.45141e-05
2.15289e-05
1.687e-05
1.1198e-05
5.02932e-06
0.000171511
0.00016628
0.000148323
0.000117205
7.06364e-05
1.11623e-05
0.000293882
0.000285108
0.00025503
0.000200005
0.000113539
1.67577e-05
0.00037293
0.000361291
0.000323119
0.000253316
0.000144315
2.14259e-05
0.000403651
0.000360833
0.000283509
0.000163677
2.44348e-05
0.000417493
0.000373385
0.000294109
0.000171498
2.55081e-05
0.000403757
0.000361469
0.000285245
0.000166307
2.45146e-05
0.000360736
0.000323157
0.000255086
0.000148339
2.15295e-05
0.000283511
0.000253341
0.000200031
0.000117215
1.68705e-05
0.000164065
0.000144409
0.00011357
7.0647e-05
1.11985e-05
2.44413e-05
2.14306e-05
1.676e-05
1.11633e-05
5.02954e-06
)
;
    }
}


// ************************************************************************* //
