/*--------------------------------*- C++ -*----------------------------------*\
| =========                 |                                                 |
| \\      /  F ield         | OpenFOAM: The Open Source CFD Toolbox           |
|  \\    /   O peration     | Version:  2212                                  |
|   \\  /    A nd           | Website:  www.openfoam.com                      |
|    \\/     M anipulation  |                                                 |
\*---------------------------------------------------------------------------*/
FoamFile
{
    version     2.0;
    format      ascii;
    arch        "LSB;label=32;scalar=64";
    class       volScalarField;
    location    "0.65";
    object      k;
}
// * * * * * * * * * * * * * * * * * * * * * * * * * * * * * * * * * * * * * //

dimensions      [0 2 -2 0 0 0 0];

internalField   nonuniform List<scalar> 
689
(
0.00303262
0.00291035
0.00282459
0.00276241
0.00271477
0.00267669
0.00264442
0.00261824
0.00285169
0.00272322
0.0026267
0.00254781
0.00248415
0.00243238
0.0023882
0.00235482
0.00319693
0.00302555
0.00288122
0.00276037
0.00266226
0.00258187
0.00251632
0.00246204
0.00241708
0.00407921
0.00379398
0.00354902
0.00334141
0.0031655
0.00301496
0.0028865
0.00277712
0.0026843
0.00260576
0.00253953
0.00248375
0.00417928
0.00387026
0.00361461
0.00340098
0.00322167
0.00307098
0.00294106
0.00282876
0.00273201
0.00264899
0.00257803
0.00251749
0.00441524
0.00396307
0.00365837
0.0034207
0.00322879
0.00307211
0.00294025
0.00282666
0.00272881
0.00264475
0.00257278
0.00251121
0.0043146
0.00386596
0.00357803
0.00335055
0.00316633
0.00301483
0.00288559
0.00277436
0.00267899
0.00259755
0.00252831
0.00246943
0.00399277
0.00366585
0.003409
0.00320197
0.00303264
0.00288991
0.00276922
0.00266732
0.00258124
0.00250858
0.00244723
0.00239526
0.00378326
0.00347491
0.00322023
0.00301425
0.00285198
0.00272073
0.00261502
0.00252884
0.00245794
0.00239896
0.00234963
0.00404421
0.00357087
0.00316919
0.00289358
0.00271568
0.00259834
0.0025142
0.00244711
0.00239461
0.00235127
0.00231503
0.00491388
0.0041923
0.00358661
0.00323535
0.00303269
0.00291054
0.00282493
0.00276288
0.00271532
0.00267713
0.00264503
0.00271552
0.00259802
0.00251362
0.00244641
0.00239383
0.00235056
0.00231412
0.00228264
0.00307824
0.00293393
0.00280483
0.00268876
0.00258531
0.00249597
0.00241517
0.0023476
0.004294
0.00401377
0.00377473
0.00356928
0.003391
0.00323729
0.00310436
0.00299289
0.00289642
0.00682136
0.0061285
0.00557138
0.00511602
0.004743
0.00442527
0.0041512
0.00391476
0.00371131
0.00353645
0.00338725
0.00325961
0.0073388
0.0066796
0.00610244
0.00560468
0.00517895
0.00482188
0.00451442
0.00424595
0.00401303
0.00381216
0.00363992
0.0034922
0.00754215
0.00686714
0.00628374
0.00577951
0.00534388
0.00497337
0.00465791
0.00438056
0.00413843
0.00392896
0.003749
0.00359443
0.00739097
0.00672517
0.00614842
0.00565258
0.00522856
0.0048719
0.00456592
0.00429802
0.00406533
0.00386464
0.00369257
0.00354488
0.00682746
0.00617726
0.00563466
0.0051825
0.00481105
0.00449604
0.00422254
0.00398575
0.00378153
0.00360612
0.00345633
0.00332738
0.00564277
0.00511853
0.0046793
0.00434496
0.004067
0.00382782
0.00362051
0.00343967
0.00328233
0.00314618
0.00302961
0.00423286
0.00377947
0.00345842
0.00324522
0.0030784
0.00293466
0.00280598
0.00269013
0.00258702
0.00249709
0.00241783
0.00422905
0.00371161
0.00331682
0.00303624
0.00285175
0.00272341
0.00262702
0.00254821
0.00248465
0.00243279
0.00238885
0.00301409
0.00285156
0.0027201
0.00261421
0.00252791
0.00245693
0.00239797
0.00234854
0.00230719
0.00434482
0.00406632
0.00382662
0.00361894
0.00343787
0.00328042
0.00314407
0.00302746
0.00292881
0.005727
0.00530678
0.00495084
0.00464634
0.00438406
0.00415768
0.00396186
0.00379407
0.003651
0.008743
0.00801144
0.00734764
0.006762
0.00625259
0.005812
0.0054308
0.00510091
0.00481552
0.00456892
0.00435648
0.00417462
0.00977121
0.00886565
0.00809348
0.00742867
0.00685373
0.00635633
0.0059264
0.00555377
0.00523064
0.00495078
0.0047091
0.00450179
0.00998698
0.00909866
0.00832424
0.00764916
0.00706072
0.00654847
0.00610419
0.0057186
0.0053836
0.00509296
0.00484164
0.00462581
0.00971112
0.00884923
0.00809804
0.00744342
0.00687371
0.00637894
0.00595058
0.00557917
0.00525698
0.00497783
0.00473676
0.00452983
0.0088566
0.00807954
0.00739319
0.00679644
0.00628139
0.00583852
0.00545674
0.00512686
0.00484163
0.00459529
0.00438336
0.00420177
0.00758975
0.00684183
0.00623055
0.00572693
0.00530712
0.00495151
0.00464723
0.0043851
0.00415876
0.00396305
0.00379561
0.00547207
0.00502496
0.00462697
0.00429429
0.0040144
0.00377553
0.00357016
0.00339201
0.00323825
0.00310557
0.00299365
0.00420142
0.00377847
0.00345706
0.00319696
0.00302573
0.0028814
0.00276057
0.00266248
0.00258214
0.00251654
0.00246219
0.00320176
0.00303211
0.00288914
0.00276829
0.00266629
0.00258014
0.00250747
0.00244615
0.00239437
0.00518235
0.00481022
0.0044947
0.00422089
0.00398388
0.00377955
0.00360403
0.00345418
0.00332612
0.00679731
0.00628156
0.00583815
0.00545599
0.00512585
0.00484045
0.00459396
0.00438177
0.00420036
0.0104809
0.00953428
0.0087163
0.00800648
0.00738973
0.00685394
0.00638849
0.00598425
0.00563342
0.00532936
0.00506657
0.00484091
0.0114552
0.0104299
0.00953871
0.00876174
0.0080834
0.00749109
0.0069743
0.00652377
0.0061314
0.00579033
0.00549483
0.00524094
0.0117875
0.0107421
0.00982635
0.00902565
0.00832565
0.00771376
0.00717933
0.00671296
0.00630645
0.00595276
0.00564613
0.00538274
0.0115109
0.0104609
0.00955799
0.00877542
0.00809448
0.00750102
0.00698373
0.00653301
0.00614064
0.00579966
0.00550435
0.00525049
0.0104806
0.00953383
0.00871576
0.00800595
0.00738932
0.00685369
0.0063884
0.0059843
0.00563356
0.0053296
0.00506707
0.00484175
0.00874288
0.00801127
0.00734745
0.0067618
0.00625245
0.00581192
0.00543079
0.00510094
0.00481556
0.00456895
0.00435696
0.00682132
0.00612854
0.00557145
0.00511612
0.00474309
0.00442533
0.00415125
0.00391481
0.00371128
0.00353644
0.00338659
0.0040792
0.00379399
0.00354905
0.00334146
0.00316554
0.00301498
0.00288651
0.00277712
0.00268428
0.00260569
0.00253926
0.00335022
0.00316564
0.00301387
0.00288454
0.0027732
0.00267773
0.00259622
0.00252695
0.00246813
0.00565244
0.00522775
0.00487029
0.00456407
0.00429592
0.00406298
0.00386206
0.0036898
0.00354202
0.00744496
0.00687437
0.00637896
0.0059501
0.00557833
0.00525585
0.00497646
0.00473514
0.00452815
0.0115114
0.0104616
0.00955881
0.00877623
0.00809516
0.00750151
0.00698401
0.00653309
0.00614054
0.00579939
0.00550385
0.0052497
0.0125177
0.0114187
0.0104501
0.00959994
0.00885486
0.00820219
0.0076308
0.00713103
0.00669453
0.00631408
0.00598375
0.00569942
0.0129869
0.0117988
0.0107779
0.00989225
0.00911997
0.00844482
0.00785404
0.00733718
0.00688546
0.00649147
0.00614925
0.0058551
0.0125175
0.0114185
0.0104498
0.00959965
0.00885457
0.00820191
0.00763055
0.00713083
0.00669436
0.00631398
0.00598381
0.00569994
0.0114552
0.0104298
0.00953859
0.00876157
0.0080832
0.00749087
0.00697407
0.00652352
0.00613114
0.00579008
0.0054948
0.00524123
0.00977121
0.00886558
0.00809334
0.00742844
0.00685343
0.00635595
0.00592594
0.00555324
0.00523
0.00495007
0.00470883
0.00733877
0.00667951
0.00610228
0.00560443
0.00517859
0.00482139
0.00451384
0.00424526
0.00401219
0.0038112
0.00363809
0.00417925
0.00387021
0.00361452
0.00340085
0.0032215
0.00307077
0.00294082
0.00282848
0.00273168
0.00264856
0.00257733
0.0117882
0.0107428
0.00982723
0.00902665
0.00832668
0.00771473
0.00718017
0.00671365
0.00630695
0.00595307
0.00564623
0.00538255
0.0129873
0.0117993
0.0107784
0.00989285
0.00912062
0.00844551
0.00785473
0.00733786
0.00688611
0.00649209
0.00614979
0.00585527
0.0132978
0.0121245
0.0110915
0.0101856
0.00939175
0.00869602
0.0080863
0.00755226
0.00708505
0.0066772
0.00632273
0.006018
0.0129872
0.0117991
0.0107782
0.00989258
0.0091203
0.00844515
0.00785437
0.00733751
0.00688579
0.00649183
0.00614972
0.0058558
0.0117879
0.0107424
0.00982668
0.00902593
0.00832587
0.00771391
0.0071794
0.00671296
0.00630636
0.00595264
0.00564624
0.00538343
0.00998719
0.00909879
0.00832427
0.00764905
0.00706047
0.00654807
0.00610364
0.00571789
0.00538271
0.00509196
0.00484123
0.00754216
0.00686701
0.00628346
0.00577907
0.00534327
0.00497256
0.00465694
0.00437939
0.00413702
0.00392734
0.00374636
0.0044152
0.00396295
0.00365817
0.00342045
0.00322848
0.00307173
0.0029398
0.00282614
0.0027282
0.00264401
0.00257175
)
;

boundaryField
{
    inlet
    {
        type            fixedValue;
        value           nonuniform List<scalar> 0();
    }
    ami1
    {
        type            cyclicAMI;
        value           nonuniform List<scalar> 0();
    }
    walls
    {
        type            kqRWallFunction;
        value           nonuniform List<scalar> 
227
(
0.00407921
0.00417928
0.00441524
0.0043146
0.00399277
0.00378326
0.00404421
0.00491388
0.00379398
0.00387026
0.00396307
0.00386596
0.00366585
0.00347491
0.00357087
0.0041923
0.00354902
0.00361461
0.00365837
0.00357803
0.003409
0.00322023
0.00316919
0.00358661
0.00319693
0.00334141
0.00340098
0.0034207
0.00335055
0.00320197
0.00301425
0.00289358
0.00323535
0.00303262
0.00285169
0.00302555
0.0031655
0.00322167
0.00322879
0.00316633
0.00303264
0.00285198
0.00271568
0.00303269
0.00291035
0.00272322
0.00288122
0.00301496
0.00307098
0.00307211
0.00301483
0.00288991
0.00272073
0.00259834
0.00291054
0.00282459
0.0026267
0.00276037
0.0028865
0.00294106
0.00294025
0.00288559
0.00276922
0.00261502
0.0025142
0.00282493
0.00276241
0.00254781
0.00266226
0.00277712
0.00282876
0.00282666
0.00277436
0.00266732
0.00252884
0.00244711
0.00276288
0.00271477
0.00248415
0.00258187
0.0026843
0.00273201
0.00272881
0.00267899
0.00258124
0.00245794
0.00239461
0.00271532
0.00267669
0.00243238
0.00251632
0.00260576
0.00264899
0.00264475
0.00259755
0.00250858
0.00239896
0.00235127
0.00267713
0.00264442
0.0023882
0.00246204
0.00253953
0.00257803
0.00257278
0.00252831
0.00244723
0.00234963
0.00231503
0.00264503
0.00261824
0.00235482
0.00241708
0.00248375
0.00251749
0.00251121
0.00246943
0.00239526
0.00491388
0.00422905
0.00420142
0.0040792
0.00417925
0.0044152
0.0041923
0.00371161
0.00377847
0.00379399
0.00387021
0.00396295
0.00358661
0.00331682
0.00345706
0.00354905
0.00361452
0.00365817
0.00323535
0.00303624
0.00319696
0.00334146
0.00340085
0.00342045
0.00303269
0.00285175
0.00302573
0.00316554
0.0032215
0.00322848
0.00291054
0.00272341
0.0028814
0.00301498
0.00307077
0.00307173
0.00282493
0.00262702
0.00276057
0.00288651
0.00294082
0.0029398
0.00276288
0.00254821
0.00266248
0.00277712
0.00282848
0.00282614
0.00271532
0.00248465
0.00258214
0.00268428
0.00273168
0.0027282
0.00267713
0.00243279
0.00251654
0.00260569
0.00264856
0.00264401
0.00264503
0.00238885
0.00246219
0.00253926
0.00257733
0.00257175
0.00301409
0.00320176
0.00335022
0.00303262
0.00271552
0.00285156
0.00303211
0.00316564
0.00291035
0.00259802
0.0027201
0.00288914
0.00301387
0.00282459
0.00251362
0.00261421
0.00276829
0.00288454
0.00276241
0.00244641
0.00252791
0.00266629
0.0027732
0.00271477
0.00239383
0.00245693
0.00258014
0.00267773
0.00267669
0.00235056
0.00239797
0.00250747
0.00259622
0.00264442
0.00231412
0.00234854
0.00244615
0.00252695
0.00261824
0.00228264
0.00230719
0.00239437
0.00246813
)
;
    }
    ami2
    {
        type            cyclicAMI;
        value           nonuniform List<scalar> 
48
(
0.00423714
0.00436104
0.00469951
0.00464504
0.0041928
0.00394718
0.0042235
0.0047592
0.00721202
0.0077003
0.00792536
0.00776025
0.00720469
0.00592072
0.00442903
0.00446033
0.0091206
0.0103123
0.0104958
0.010206
0.00928333
0.0080482
0.00567078
0.00440885
0.0110339
0.0120482
0.0123803
0.0121298
0.0110336
0.00912051
0.00721199
0.00423713
0.0121301
0.013133
0.0136906
0.0131328
0.0120482
0.0103123
0.00770028
0.00436102
0.0123807
0.0136908
0.0139553
0.0136908
0.0123805
0.010496
0.00792536
0.00469948
)
;
    }
    outlet
    {
        type            zeroGradient;
    }
    procBoundary0to1
    {
        type            processor;
        value           nonuniform List<scalar> 
138
(
0.00357783
0.00342037
0.00322822
0.00307126
0.00293922
0.00282543
0.0027274
0.00264319
0.00257111
0.00250953
0.00614839
0.00577935
0.00534327
0.00497203
0.00465616
0.00437842
0.00413582
0.00392587
0.00374548
0.00359051
0.00971172
0.00884997
0.00809919
0.00809919
0.00765003
0.0070614
0.00654878
0.00610407
0.00571808
0.0053827
0.0050917
0.00484005
0.00462416
0.0099874
0.00909915
0.00832485
0.00765003
0.0070614
0.00654878
0.00610407
0.00571808
0.0053827
0.0050917
0.00484005
0.00462416
0.0114556
0.0104303
0.00953914
0.0087622
0.00808387
0.00749155
0.0069747
0.00652405
0.00613155
0.00579031
0.00549464
0.0052406
0.0125179
0.011419
0.0104503
0.00960025
0.00885521
0.00820258
0.00763122
0.00713148
0.00669498
0.00631453
0.00598424
0.00570023
0.0129872
0.0117992
0.0107783
0.00989268
0.00912041
0.00844527
0.0078545
0.00733764
0.00688591
0.00649193
0.00614974
0.00585573
0.0125178
0.0114189
0.0104502
0.00960004
0.00885496
0.00820228
0.00763091
0.00713117
0.00669468
0.00631429
0.00598417
0.00570074
0.0115112
0.0104613
0.00955834
0.00877572
0.0080947
0.00750115
0.00698377
0.00653294
0.00614047
0.00579944
0.0055043
0.00525136
0.00971132
0.00884937
0.00809806
0.00744331
0.00687344
0.00637851
0.00595001
0.00557844
0.00525607
0.0049768
0.00473626
0.00739096
0.00672503
0.00614815
0.00565216
0.00522801
0.00487119
0.00456511
0.00429705
0.00406417
0.00386332
0.0036903
0.00431456
0.00386583
0.00357786
0.00335034
0.00316608
0.00301455
0.00288529
0.00277402
0.00267858
0.00259704
0.0025275
)
;
    }
    procBoundary0to2
    {
        type            processor;
        value           nonuniform List<scalar> 
28
(
0.00323532
0.00303626
0.00303626
0.00420146
0.00377849
0.00345718
0.00345718
0.00289355
0.00289355
0.00324536
0.00324536
0.00324536
0.00547213
0.00502492
0.00462714
0.00462714
0.00322013
0.00467923
0.0075899
0.00684189
0.00623066
0.00623066
0.00340891
0.00563469
0.00885706
0.00808004
0.00739392
0.00739392
)
;
    }
    procBoundary0to8
    {
        type            processor;
        value           nonuniform List<scalar> 
29
(
0.00259693
0.00232743
0.00237972
0.00243677
0.0024659
0.00225587
0.00228934
0.00281328
0.00314944
0.00336424
0.00227217
0.00284404
0.00352648
0.00401815
0.00432391
0.00235062
0.0032162
0.0040446
0.00464729
0.00502348
0.00241824
0.003415
0.00435042
0.00503128
0.00545453
0.00560272
0.00515544
0.00560107
0.00575555
)
;
    }
    procBoundary0to9
    {
        type            processor;
        value           nonuniform List<scalar> 
40
(
0.00245858
0.00241938
0.0023512
0.00230797
0.00230797
0.00228338
0.0026189
0.00346083
0.00341744
0.00321613
0.00293043
0.00293043
0.00234926
0.00235531
0.00444043
0.0043519
0.00404545
0.00365213
0.00365213
0.00289581
0.00241704
0.00515741
0.00503218
0.00464786
0.00417475
0.00417475
0.00325731
0.0024832
0.005456
0.00502257
0.00450146
0.00450146
0.00348879
0.00251651
0.00560287
0.00515632
0.00462566
0.00462566
0.00359017
0.00250989
)
;
    }
}


// ************************************************************************* //
