/*--------------------------------*- C++ -*----------------------------------*\
| =========                 |                                                 |
| \\      /  F ield         | OpenFOAM: The Open Source CFD Toolbox           |
|  \\    /   O peration     | Version:  2212                                  |
|   \\  /    A nd           | Website:  www.openfoam.com                      |
|    \\/     M anipulation  |                                                 |
\*---------------------------------------------------------------------------*/
FoamFile
{
    version     2.0;
    format      ascii;
    arch        "LSB;label=32;scalar=64";
    class       volScalarField;
    location    "2.45";
    object      k;
}
// * * * * * * * * * * * * * * * * * * * * * * * * * * * * * * * * * * * * * //

dimensions      [0 2 -2 0 0 0 0];

internalField   nonuniform List<scalar> 
682
(
0.00219796
0.00212398
0.00205606
0.00199361
0.00193613
0.00188308
0.00183412
0.00178939
0.0017478
0.00170927
0.0016724
0.002154
0.00208182
0.00201571
0.00195495
0.00189906
0.00184766
0.00180028
0.00175679
0.00171705
0.00168006
0.00164431
0.00208469
0.00201827
0.00195758
0.00190163
0.00185049
0.00180371
0.00176049
0.00172037
0.00168351
0.00164841
0.00161238
0.00207902
0.00201846
0.00196278
0.00191232
0.00185994
0.00181331
0.00177015
0.00173153
0.00169451
0.00166066
0.00162873
0.0015976
0.00206439
0.00201249
0.00196322
0.00191664
0.00187257
0.00183132
0.00179288
0.00175754
0.00172433
0.00169378
0.00166596
0.00164066
0.0024022
0.00235604
0.00231202
0.00226968
0.00223053
0.00219286
0.00215782
0.00212444
0.00209309
0.00206264
0.00203461
0.00200805
0.0030059
0.00283871
0.00268676
0.00254819
0.00242149
0.00230533
0.00219859
0.00210023
0.00200963
0.00192544
0.00184793
0.00295279
0.00279204
0.00264541
0.00251118
0.00238804
0.00227472
0.00217031
0.00207388
0.00198455
0.00190206
0.00182408
0.00274122
0.00259452
0.00245985
0.00233553
0.00222123
0.00211519
0.00201779
0.00192732
0.00184313
0.0017659
0.00168929
0.00247789
0.00234101
0.00221447
0.00209719
0.00198615
0.00188774
0.00179119
0.00170957
0.00162802
0.00155625
0.00148653
0.0014232
0.00194922
0.00184664
0.00175241
0.00165979
0.0015806
0.00150608
0.00144059
0.00138086
0.00132314
0.00126724
0.0012218
0.0011854
0.00214392
0.00209479
0.00204784
0.0020017
0.00195972
0.00192015
0.00188398
0.00184988
0.00181813
0.0017875
0.00175929
0.00173285
0.00392091
0.0036908
0.00348089
0.00328889
0.00311282
0.00295098
0.00280189
0.00266422
0.0025369
0.00241866
0.00230917
0.00382532
0.00360356
0.00340107
0.00321566
0.00304543
0.00288874
0.00274425
0.0026107
0.00248701
0.00237214
0.00226541
0.00351778
0.0033167
0.00313264
0.00296365
0.00280811
0.00266474
0.00253244
0.00240999
0.00229617
0.00219046
0.00209153
0.00319946
0.00301315
0.00284314
0.00268622
0.00254256
0.00240929
0.00228796
0.00217464
0.00207047
0.00197128
0.00188229
0.00179689
0.00251806
0.00238092
0.00226417
0.00214881
0.00205046
0.0019532
0.00187071
0.0017882
0.00171664
0.00164347
0.00158076
0.00151664
0.00220448
0.0021473
0.0020914
0.00203759
0.00199023
0.00194552
0.00190557
0.00186709
0.00183099
0.00179502
0.00175989
0.00172726
0.004618
0.00434266
0.00409148
0.00386172
0.00365101
0.00345731
0.00327882
0.003114
0.00296149
0.00281999
0.00268876
0.00449324
0.00422678
0.00398365
0.0037612
0.00355713
0.00336945
0.00319646
0.00303664
0.00288869
0.00275137
0.00262393
0.00411527
0.00387352
0.00365275
0.00345056
0.00326488
0.00309395
0.00293629
0.00279056
0.00265559
0.00253017
0.0024137
0.003734
0.00351072
0.00330731
0.0031213
0.00295085
0.00279411
0.00264992
0.00251684
0.00239402
0.00227997
0.00217383
0.00207571
0.00288442
0.00272313
0.00257673
0.00244315
0.00232152
0.0022095
0.00210781
0.00201269
0.0019275
0.00184528
0.00177347
0.00170186
0.00225687
0.00218497
0.00212023
0.00206071
0.00200582
0.00195471
0.00190904
0.00186427
0.00181909
0.00177796
0.00174115
0.00170514
0.00491446
0.00462014
0.00435163
0.00410604
0.00388082
0.00367378
0.00348303
0.00330688
0.0031439
0.00299273
0.00285248
0.00448864
0.00422165
0.00397805
0.00375518
0.00355075
0.00336278
0.00318954
0.00302954
0.00288148
0.00274405
0.00261654
0.00405927
0.00381318
0.00358926
0.00338494
0.00319803
0.00302659
0.002869
0.00272381
0.00258977
0.00246592
0.00235041
0.00224288
0.00310404
0.00292519
0.00276308
0.00261571
0.00248143
0.00235872
0.00224644
0.00214332
0.00204834
0.00196165
0.00187734
0.00179648
0.00228659
0.00220882
0.00213758
0.00207209
0.00201171
0.00195632
0.00190522
0.00185749
0.00181317
0.00177176
0.00173451
0.00169455
0.00505947
0.00475575
0.00447869
0.00422528
0.00399293
0.00377936
0.00358261
0.00340096
0.0032329
0.00307706
0.00293249
0.00461835
0.00434305
0.00409193
0.00386224
0.00365161
0.00345799
0.00327959
0.00311486
0.00296245
0.00282106
0.00268994
0.00417452
0.00392154
0.00369143
0.00348155
0.00328961
0.00311362
0.00295188
0.0028029
0.00266535
0.00253817
0.0024201
0.00231074
0.00319124
0.00300659
0.00283933
0.00268734
0.00254878
0.00242213
0.00230606
0.00219944
0.00210124
0.00201077
0.00192682
0.00184939
0.00227881
0.00219799
0.00212399
0.00205608
0.00199365
0.0019362
0.00188319
0.00183425
0.00178957
0.00174804
0.00170958
0.00167278
0.00491447
0.00462018
0.0043517
0.00410613
0.00388093
0.00367391
0.00348317
0.00330704
0.00314407
0.00299292
0.00285269
0.00449378
0.0042273
0.00398417
0.00376173
0.00355767
0.00337
0.00319703
0.00303725
0.00288934
0.00275206
0.00262468
0.00406954
0.00382591
0.00360415
0.0034017
0.00321631
0.00304611
0.00288947
0.00274505
0.00261156
0.00248796
0.00237319
0.00226657
0.00312967
0.00295281
0.00279201
0.00264542
0.00251123
0.00238817
0.00227495
0.00217067
0.00207435
0.00198521
0.00190283
0.00182508
0.00223277
0.00215367
0.00208149
0.0020154
0.00195469
0.00189885
0.00184751
0.00180019
0.00175675
0.00171707
0.00168019
0.00164458
0.00448867
0.00422167
0.00397805
0.00375514
0.00355067
0.00336264
0.00318935
0.00302929
0.00288119
0.00274371
0.00261616
0.00411624
0.00387443
0.00365362
0.00345137
0.00326563
0.00309464
0.00293693
0.00279115
0.00265615
0.00253071
0.00241424
0.00373898
0.00351875
0.0033177
0.00313375
0.00296469
0.00280917
0.00266573
0.00253352
0.00241096
0.00229731
0.00219156
0.00209283
0.00290075
0.00274084
0.0025941
0.00245975
0.00233536
0.00222125
0.0021153
0.00201812
0.00192759
0.00184387
0.00176634
0.00169067
0.00215697
0.00208404
0.00201769
0.00195707
0.00190117
0.00185007
0.00180339
0.00176028
0.00172023
0.00168343
0.00164852
0.0016127
0.00381275
0.00358889
0.00338458
0.00319763
0.00302613
0.00286845
0.00272318
0.00258905
0.00246512
0.00234946
0.00224184
0.00351198
0.00330849
0.0031225
0.00295187
0.00279507
0.00265067
0.0025176
0.00239459
0.00228052
0.00217426
0.00207605
0.0032016
0.00301608
0.00284522
0.00268893
0.00254396
0.0024116
0.0022892
0.00217697
0.00207078
0.00197439
0.00188269
0.00179935
0.00247951
0.00234395
0.00221502
0.00209972
0.001986
0.00188906
0.00179206
0.00171066
0.00162832
0.00155796
0.00148705
0.00142547
0.00207911
0.00201867
0.00196277
0.00191234
0.0018597
0.00181314
0.00177
0.00173146
0.00169439
0.00166076
0.00162874
0.001598
0.00292412
0.00276211
0.0026148
0.00248049
0.00235775
0.00224536
0.00214219
0.00204707
0.00196033
0.00187552
0.00179437
0.00272433
0.00257771
0.00244427
0.00232216
0.00221043
0.00210797
0.00201359
0.00192762
0.00184565
0.0017733
0.00170146
0.00251883
0.00238794
0.00226273
0.00215459
0.00204851
0.00195808
0.00186928
0.00179268
0.00171591
0.00164762
0.00158064
0.00151925
0.00195071
0.00185267
0.00175097
0.00166476
0.00157887
0.00150864
0.00143907
0.00138175
0.00132255
0.00126863
0.00122261
0.0011871
0.00206513
0.00201387
0.00196311
0.00191735
0.00187219
0.00183144
0.00179247
0.00175738
0.00172424
0.00169397
0.0016663
0.00164112
0.00220879
0.00213745
0.00207187
0.00201136
0.00195592
0.00190472
0.00185689
0.00181248
0.00177105
0.00173364
0.0016936
0.00218589
0.00212098
0.00206126
0.0020062
0.00195488
0.00190912
0.00186424
0.00181896
0.00177777
0.00174088
0.00170476
0.00220584
0.00214842
0.00209224
0.00203897
0.00199047
0.00194633
0.00190565
0.0018677
0.00183111
0.00179555
0.00176022
0.00172755
0.00214476
0.00209631
0.00204823
0.00200291
0.00195982
0.00192079
0.00188396
0.00185028
0.00181827
0.00178797
0.00175972
0.00173333
0.00240302
0.00235725
0.00231206
0.00227044
0.00223026
0.00219338
0.00215739
0.00212483
0.00209301
0.00206318
0.00203495
0.00200877
)
;

boundaryField
{
    inlet
    {
        type            fixedValue;
        value           nonuniform List<scalar> 0();
    }
    ami1
    {
        type            cyclicAMI;
        value           nonuniform List<scalar> 0();
    }
    walls
    {
        type            kqRWallFunction;
        value           nonuniform List<scalar> 
259
(
0.00207902
0.00206439
0.0024022
0.00219796
0.002154
0.00208469
0.00201846
0.00201249
0.00235604
0.00212398
0.00208182
0.00201827
0.00196278
0.00196322
0.00231202
0.00205606
0.00201571
0.00195758
0.00191232
0.00191664
0.00226968
0.00199361
0.00195495
0.00190163
0.00185994
0.00187257
0.00223053
0.00193613
0.00189906
0.00185049
0.00181331
0.00183132
0.00219286
0.00188308
0.00184766
0.00180371
0.00177015
0.00179288
0.00215782
0.00183412
0.00180028
0.00176049
0.00173153
0.00175754
0.00212444
0.00178939
0.00175679
0.00172037
0.00169451
0.00172433
0.00209309
0.0017478
0.00171705
0.00168351
0.00166066
0.00169378
0.00206264
0.00170927
0.00168006
0.00164841
0.00162873
0.00166596
0.00203461
0.0016724
0.00164431
0.00161238
0.0015976
0.00164066
0.00200805
0.0024022
0.00214392
0.00220448
0.00225687
0.00228659
0.00227881
0.00223277
0.00215697
0.00207911
0.00206513
0.00240302
0.00235604
0.00209479
0.0021473
0.00218497
0.00220882
0.00219799
0.00215367
0.00208404
0.00201867
0.00201387
0.00235725
0.00231202
0.00204784
0.0020914
0.00212023
0.00213758
0.00212399
0.00208149
0.00201769
0.00196277
0.00196311
0.00231206
0.00226968
0.0020017
0.00203759
0.00206071
0.00207209
0.00205608
0.0020154
0.00195707
0.00191234
0.00191735
0.00227044
0.00223053
0.00195972
0.00199023
0.00200582
0.00201171
0.00199365
0.00195469
0.00190117
0.0018597
0.00187219
0.00223026
0.00219286
0.00192015
0.00194552
0.00195471
0.00195632
0.0019362
0.00189885
0.00185007
0.00181314
0.00183144
0.00219338
0.00215782
0.00188398
0.00190557
0.00190904
0.00190522
0.00188319
0.00184751
0.00180339
0.00177
0.00179247
0.00215739
0.00212444
0.00184988
0.00186709
0.00186427
0.00185749
0.00183425
0.00180019
0.00176028
0.00173146
0.00175738
0.00212483
0.00209309
0.00181813
0.00183099
0.00181909
0.00181317
0.00178957
0.00175675
0.00172023
0.00169439
0.00172424
0.00209301
0.00206264
0.0017875
0.00179502
0.00177796
0.00177176
0.00174804
0.00171707
0.00168343
0.00166076
0.00169397
0.00206318
0.00203461
0.00175929
0.00175989
0.00174115
0.00173451
0.00170958
0.00168019
0.00164852
0.00162874
0.0016663
0.00203495
0.00200805
0.00173285
0.00172726
0.00170514
0.00169455
0.00167278
0.00164458
0.0016127
0.001598
0.00164112
0.00200877
0.00220584
0.00214476
0.00240302
0.00220879
0.00218589
0.00214842
0.00209631
0.00235725
0.00213745
0.00212098
0.00209224
0.00204823
0.00231206
0.00207187
0.00206126
0.00203897
0.00200291
0.00227044
0.00201136
0.0020062
0.00199047
0.00195982
0.00223026
0.00195592
0.00195488
0.00194633
0.00192079
0.00219338
0.00190472
0.00190912
0.00190565
0.00188396
0.00215739
0.00185689
0.00186424
0.0018677
0.00185028
0.00212483
0.00181248
0.00181896
0.00183111
0.00181827
0.00209301
0.00177105
0.00177777
0.00179555
0.00178797
0.00206318
0.00173364
0.00174088
0.00176022
0.00175972
0.00203495
0.0016936
0.00170476
0.00172755
0.00173333
0.00200877
)
;
    }
    ami2
    {
        type            cyclicAMI;
        value           nonuniform List<scalar> 0();
    }
    outlet
    {
        type            zeroGradient;
    }
    procBoundary9to0
    {
        type            processor;
        value           nonuniform List<scalar> 
40
(
0.00227868
0.00223292
0.00215712
0.00215712
0.00214601
0.00211726
0.00244766
0.00318947
0.00312707
0.00289751
0.00289751
0.00262207
0.00203987
0.00219391
0.00417349
0.00406771
0.00373655
0.00373655
0.00340205
0.00265976
0.00226976
0.00492071
0.00478586
0.00438062
0.00438062
0.00398044
0.0030629
0.00233345
0.00523811
0.00478231
0.00478231
0.00433101
0.00330219
0.00237042
0.0053935
0.00492108
0.00492108
0.00445316
0.00339471
0.00236726
)
;
    }
    procBoundary9to1
    {
        type            processor;
        value           nonuniform List<scalar> 
30
(
0.00523814
0.00478654
0.00478654
0.00433696
0.00332226
0.00231987
0.00478233
0.0043817
0.0043817
0.00397991
0.00307258
0.0022372
0.004059
0.00373551
0.00373551
0.00340448
0.00262423
0.00214595
0.00310268
0.00288548
0.00288548
0.00266543
0.00204567
0.00211887
0.00228548
0.00225593
0.00225593
0.00227097
0.00219558
0.00244915
)
;
    }
    procBoundary9to7
    {
        type            processor;
        value           nonuniform List<scalar> 
59
(
0.00164081
0.00161202
0.00158175
0.00156984
0.00161811
0.00198391
0.00177129
0.00175297
0.00162453
0.0013709
0.00115544
0.00170913
0.00220644
0.0021661
0.00200061
0.00172261
0.00146522
0.00169838
0.00256601
0.00250484
0.00230505
0.00198505
0.00164036
0.00167203
0.00272131
0.0024972
0.00214275
0.00172797
0.0016581
0.00279726
0.00256722
0.00220816
0.00177342
0.00164148
0.00272152
0.00250559
0.00216731
0.00175418
0.00161229
0.00249679
0.0023055
0.00200175
0.00162563
0.00158217
0.00214158
0.0019852
0.00172294
0.00137154
0.00157031
0.00172562
0.00163966
0.00146541
0.00115643
0.0016187
0.00165709
0.00167162
0.00169856
0.00170958
0.00198457
)
;
    }
    procBoundary9to8
    {
        type            processor;
        value           nonuniform List<scalar> 
132
(
0.00220886
0.00213757
0.00207204
0.00201161
0.0019562
0.00190505
0.00185727
0.00181291
0.0017715
0.00173403
0.00169398
0.0029244
0.00276238
0.00261503
0.00248069
0.00235793
0.00224545
0.00214234
0.002047
0.00196044
0.00187544
0.00179463
0.00381278
0.00358881
0.00338442
0.0031974
0.00302584
0.00286809
0.00272278
0.00258855
0.0024646
0.00234884
0.00224119
0.00448858
0.0042215
0.00397781
0.00375485
0.00355032
0.00336224
0.0031889
0.00302879
0.00288064
0.00274312
0.00261551
0.00505944
0.00475571
0.00447862
0.00422518
0.00399278
0.00377918
0.00358239
0.00340071
0.00323262
0.00307673
0.00293213
0.00505944
0.00475571
0.00447862
0.00422518
0.00399278
0.00377918
0.00358239
0.00340071
0.00323262
0.00307673
0.00293213
0.00521176
0.00489833
0.00461239
0.00435087
0.00411107
0.00389068
0.00368766
0.00350023
0.00332685
0.00316609
0.00301695
0.00505929
0.0047556
0.00447857
0.0042252
0.00399286
0.00377932
0.00358259
0.00340097
0.00323294
0.00307712
0.00293258
0.00461779
0.00434249
0.00409136
0.00386166
0.00365102
0.00345738
0.00327897
0.00311423
0.00296181
0.00282041
0.00268928
0.00392008
0.00368998
0.0034801
0.00328814
0.00311213
0.00295037
0.00280136
0.00266379
0.00253659
0.00241848
0.0023091
0.00300393
0.00283666
0.00268469
0.00254616
0.00241954
0.00230349
0.00219687
0.00209864
0.00200816
0.00192407
0.00184671
0.00219658
0.00212249
0.00205453
0.00199213
0.0019347
0.0018817
0.00183279
0.0017881
0.00174656
0.0017081
0.00167126
)
;
    }
}


// ************************************************************************* //
