/*--------------------------------*- C++ -*----------------------------------*\
| =========                 |                                                 |
| \\      /  F ield         | OpenFOAM: The Open Source CFD Toolbox           |
|  \\    /   O peration     | Version:  2212                                  |
|   \\  /    A nd           | Website:  www.openfoam.com                      |
|    \\/     M anipulation  |                                                 |
\*---------------------------------------------------------------------------*/
FoamFile
{
    version     2.0;
    format      ascii;
    arch        "LSB;label=32;scalar=64";
    class       surfaceScalarField;
    location    "2.45";
    object      phi;
}
// * * * * * * * * * * * * * * * * * * * * * * * * * * * * * * * * * * * * * //

dimensions      [0 3 -1 0 0 0 0];

oriented        oriented;

internalField   nonuniform List<scalar> 
1786
(
7.6737e-07
-1.1833e-07
6.53235e-09
7.61514e-07
-1.18087e-07
6.77765e-09
7.55429e-07
-1.17906e-07
6.967e-09
7.49176e-07
-1.17765e-07
7.11006e-09
7.4281e-07
-1.17659e-07
7.20891e-09
7.36371e-07
-1.17577e-07
7.2707e-09
7.29889e-07
-1.17515e-07
7.30638e-09
7.23392e-07
-1.17472e-07
7.31805e-09
7.16902e-07
-1.17446e-07
7.30901e-09
7.10434e-07
-1.17432e-07
7.28154e-09
-1.17423e-07
7.2245e-09
7.06841e-07
-1.09658e-07
-2.01863e-09
7.00251e-07
-1.09453e-07
-2.04466e-09
6.9374e-07
-1.09318e-07
-2.0755e-09
6.87321e-07
-1.09224e-07
-2.1228e-09
6.81006e-07
-1.09155e-07
-2.18863e-09
6.74801e-07
-1.09101e-07
-2.27133e-09
6.6871e-07
-1.09059e-07
-2.36495e-09
6.62735e-07
-1.09033e-07
-2.46436e-09
6.56874e-07
-1.09014e-07
-2.57042e-09
6.51129e-07
-1.08999e-07
-2.68737e-09
-1.08968e-07
-2.81877e-09
5.70988e-07
-9.19776e-08
-1.10422e-08
5.6473e-07
-9.18908e-08
-1.13047e-08
5.58807e-07
-9.18459e-08
-1.15493e-08
5.53175e-07
-9.18038e-08
-1.17878e-08
5.47804e-07
-9.17691e-08
-1.20142e-08
5.42659e-07
-9.17244e-08
-1.22327e-08
5.37722e-07
-9.1684e-08
-1.24377e-08
5.3297e-07
-9.16552e-08
-1.26252e-08
5.28379e-07
-9.16241e-08
-1.27996e-08
5.23941e-07
-9.15751e-08
-1.29857e-08
-9.15243e-08
-1.31424e-08
3.98151e-07
-6.66838e-08
-2.00975e-08
3.93238e-07
-6.66697e-08
-2.03951e-08
3.88685e-07
-6.66068e-08
-2.07303e-08
3.84412e-07
-6.65424e-08
-2.10311e-08
3.80368e-07
-6.64918e-08
-2.12673e-08
3.76522e-07
-6.6447e-08
-2.1476e-08
3.72859e-07
-6.64117e-08
-2.16505e-08
3.6937e-07
-6.63855e-08
-2.18086e-08
3.66036e-07
-6.63603e-08
-2.19613e-08
3.62833e-07
-6.63346e-08
-2.20861e-08
3.59768e-07
-6.6284e-08
-2.22263e-08
-6.62429e-08
-2.23327e-08
2.13263e-07
-3.50187e-08
-2.87304e-08
2.10455e-07
-3.49354e-08
-2.8926e-08
2.0775e-07
-3.48564e-08
-2.90451e-08
2.05148e-07
-3.47858e-08
-2.9155e-08
2.02646e-07
-3.47406e-08
-2.92485e-08
2.00259e-07
-3.47071e-08
-2.93535e-08
1.97979e-07
-3.46851e-08
-2.94463e-08
1.95804e-07
-3.46683e-08
-2.95419e-08
1.93742e-07
-3.46527e-08
-2.96457e-08
1.91786e-07
-3.46452e-08
-2.9734e-08
1.89945e-07
-3.4651e-08
-2.97919e-08
-3.46775e-08
-2.98024e-08
7.14446e-08
-3.39325e-08
7.04193e-08
-3.391e-08
6.94369e-08
-3.38739e-08
6.84961e-08
-3.3845e-08
6.75891e-08
-3.38336e-08
6.6722e-08
-3.384e-08
6.58915e-08
-3.38547e-08
6.50985e-08
-3.38753e-08
6.43432e-08
-3.38974e-08
6.36144e-08
-3.39164e-08
6.29116e-08
-3.39483e-08
-3.39991e-08
1.20167e-06
-1.05531e-07
7.93347e-09
1.20238e-06
-1.05014e-07
8.14125e-09
1.20283e-06
-1.04576e-07
8.3128e-09
1.20308e-06
-1.04208e-07
8.45095e-09
1.20315e-06
-1.03898e-07
8.55676e-09
1.20309e-06
-1.03641e-07
8.637e-09
1.20291e-06
-1.03433e-07
8.69911e-09
1.20263e-06
-1.03263e-07
8.7422e-09
1.20227e-06
-1.03124e-07
8.7633e-09
1.20184e-06
-1.03011e-07
8.76561e-09
-1.02932e-07
8.73028e-09
1.14816e-06
-9.87611e-08
-8.17956e-09
1.14755e-06
-9.81595e-08
-8.28855e-09
1.14696e-06
-9.76676e-08
-8.39015e-09
1.14639e-06
-9.7277e-08
-8.48858e-09
1.14586e-06
-9.69641e-08
-8.58629e-09
1.14535e-06
-9.67264e-08
-8.67912e-09
1.14487e-06
-9.65481e-08
-8.76785e-09
1.14441e-06
-9.64093e-08
-8.85662e-09
1.14396e-06
-9.63054e-08
-8.94588e-09
1.14352e-06
-9.62161e-08
-9.04318e-09
-9.61785e-08
-9.14416e-09
1.01404e-06
-8.34896e-08
-2.42464e-08
1.01231e-06
-8.30709e-08
-2.46633e-08
1.01086e-06
-8.27393e-08
-2.50268e-08
1.00965e-06
-8.25172e-08
-2.53358e-08
1.00861e-06
-8.23346e-08
-2.56096e-08
1.00772e-06
-8.22244e-08
-2.58429e-08
1.00692e-06
-8.21497e-08
-2.60375e-08
1.00618e-06
-8.20772e-08
-2.62174e-08
1.00548e-06
-8.20232e-08
-2.63816e-08
1.00481e-06
-8.19768e-08
-2.65529e-08
-8.20014e-08
-2.66541e-08
8.11076e-07
-6.1413e-08
-3.91849e-08
8.08114e-07
-6.11664e-08
-3.97556e-08
8.05575e-07
-6.10211e-08
-4.02411e-08
8.0337e-07
-6.09154e-08
-4.06498e-08
8.01388e-07
-6.08578e-08
-4.09449e-08
7.99562e-07
-6.07873e-08
-4.11968e-08
7.9781e-07
-6.07333e-08
-4.13902e-08
7.96084e-07
-6.06653e-08
-4.15664e-08
7.9437e-07
-6.05803e-08
-4.17441e-08
7.92657e-07
-6.05264e-08
-4.18704e-08
7.90933e-07
-6.05059e-08
-4.19737e-08
-6.05416e-08
-4.20176e-08
5.3799e-07
-3.26647e-08
-5.32845e-08
5.34186e-07
-3.25352e-08
-5.37533e-08
5.30667e-07
-3.24463e-08
-5.4101e-08
5.2733e-07
-3.23667e-08
-5.43668e-08
5.24098e-07
-3.23065e-08
-5.45675e-08
5.2094e-07
-3.22375e-08
-5.47446e-08
5.17841e-07
-3.21796e-08
-5.49011e-08
5.14805e-07
-3.21195e-08
-5.50518e-08
5.11826e-07
-3.20544e-08
-5.51927e-08
5.08867e-07
-3.20111e-08
-5.52903e-08
5.05898e-07
-3.20041e-08
-5.53246e-08
-3.20256e-08
-5.53231e-08
2.25894e-07
-6.38614e-08
2.2325e-07
-6.38007e-08
2.20673e-07
-6.37434e-08
2.18188e-07
-6.37267e-08
2.15797e-07
-6.37494e-08
2.13507e-07
-6.37871e-08
2.11299e-07
-6.38262e-08
2.0916e-07
-6.38565e-08
2.07078e-07
-6.38697e-08
2.05025e-07
-6.38739e-08
2.03017e-07
-6.39447e-08
-6.40833e-08
1.49631e-06
-8.56675e-08
7.31992e-09
1.50033e-06
-8.53027e-08
7.35589e-09
1.5042e-06
-8.49821e-08
7.38585e-09
1.50795e-06
-8.47042e-08
7.41056e-09
1.5116e-06
-8.4465e-08
7.43114e-09
1.51517e-06
-8.42603e-08
7.44737e-09
1.51868e-06
-8.40881e-08
7.45853e-09
1.52213e-06
-8.39447e-08
7.46429e-09
1.52553e-06
-8.38302e-08
7.46246e-09
1.5289e-06
-8.37446e-08
7.46e-09
-8.36852e-08
7.44106e-09
1.44934e-06
-8.16764e-08
-1.519e-08
1.45234e-06
-8.1196e-08
-1.53961e-08
1.45535e-06
-8.07978e-08
-1.55804e-08
1.45837e-06
-8.04752e-08
-1.57439e-08
1.46143e-06
-8.02172e-08
-1.58868e-08
1.4645e-06
-8.0008e-08
-1.60102e-08
1.46761e-06
-7.98411e-08
-1.61192e-08
1.47073e-06
-7.97081e-08
-1.62183e-08
1.47388e-06
-7.96163e-08
-1.63068e-08
1.47704e-06
-7.9561e-08
-1.63821e-08
-7.95439e-08
-1.64542e-08
1.32104e-06
-7.04335e-08
-3.70415e-08
1.32278e-06
-7.00955e-08
-3.75062e-08
1.3247e-06
-6.98378e-08
-3.79045e-08
1.32678e-06
-6.96561e-08
-3.82404e-08
1.32901e-06
-6.95315e-08
-3.85222e-08
1.33136e-06
-6.94327e-08
-3.87646e-08
1.33379e-06
-6.93431e-08
-3.8973e-08
1.33629e-06
-6.92679e-08
-3.91568e-08
1.33885e-06
-6.92483e-08
-3.93053e-08
1.34142e-06
-6.92578e-08
-3.94233e-08
-6.92889e-08
-3.9501e-08
1.11588e-06
-5.31071e-08
-5.6784e-08
1.11606e-06
-5.29454e-08
-5.74223e-08
1.11651e-06
-5.28302e-08
-5.79623e-08
1.11717e-06
-5.27398e-08
-5.84059e-08
1.11801e-06
-5.26807e-08
-5.87529e-08
1.11894e-06
-5.26384e-08
-5.90226e-08
1.11997e-06
-5.26046e-08
-5.92527e-08
1.12109e-06
-5.25622e-08
-5.94693e-08
1.12227e-06
-5.25251e-08
-5.96616e-08
1.12345e-06
-5.25098e-08
-5.97861e-08
1.12458e-06
-5.25041e-08
-5.98592e-08
-5.24981e-08
-5.98957e-08
8.31399e-07
-2.9403e-08
-7.49804e-08
8.29614e-07
-2.94017e-08
-7.55124e-08
8.27998e-07
-2.93912e-08
-7.59238e-08
8.26495e-07
-2.93501e-08
-7.62529e-08
8.25047e-07
-2.92941e-08
-7.65069e-08
8.23613e-07
-2.92301e-08
-7.67188e-08
8.22157e-07
-2.91675e-08
-7.68819e-08
8.20653e-07
-2.91076e-08
-7.70021e-08
8.19097e-07
-2.90597e-08
-7.71025e-08
8.17508e-07
-2.90299e-08
-7.71812e-08
8.15836e-07
-2.89213e-08
-7.72359e-08
-2.87232e-08
-7.72776e-08
4.37121e-07
-8.91455e-08
4.33059e-07
-8.91409e-08
4.29038e-07
-8.91129e-08
4.25038e-07
-8.90767e-08
4.21045e-07
-8.90509e-08
4.1706e-07
-8.90318e-08
4.13084e-07
-8.90176e-08
4.09118e-07
-8.89984e-08
4.0516e-07
-8.89714e-08
4.01188e-07
-8.89319e-08
3.97269e-07
-8.89478e-08
-8.90246e-08
1.7048e-06
-6.04804e-08
1.7107e-06
-6.03012e-08
1.71648e-06
-6.01433e-08
1.72216e-06
-6.00059e-08
1.72775e-06
-5.98872e-08
1.73328e-06
-5.97856e-08
1.73875e-06
-5.96993e-08
1.74417e-06
-5.96275e-08
1.74955e-06
-5.95715e-08
1.75491e-06
-5.95322e-08
-5.95051e-08
1.66125e-06
-5.89536e-08
-2.20625e-08
1.6665e-06
-5.8701e-08
-2.22545e-08
1.6717e-06
-5.84938e-08
-2.24255e-08
1.67685e-06
-5.83263e-08
-2.25753e-08
1.68197e-06
-5.81918e-08
-2.27052e-08
1.68708e-06
-5.80821e-08
-2.28173e-08
1.69217e-06
-5.79925e-08
-2.29144e-08
1.69724e-06
-5.79216e-08
-2.29988e-08
1.70231e-06
-5.78738e-08
-2.30706e-08
1.70737e-06
-5.78548e-08
-2.31271e-08
-5.78529e-08
-2.31772e-08
1.53544e-06
-5.19008e-08
-4.82056e-08
1.53955e-06
-5.17822e-08
-4.85391e-08
1.54368e-06
-5.17044e-08
-4.88245e-08
1.54784e-06
-5.16586e-08
-4.90653e-08
1.55203e-06
-5.16372e-08
-4.92657e-08
1.55624e-06
-5.16243e-08
-4.94334e-08
1.56047e-06
-5.16168e-08
-4.95752e-08
1.56469e-06
-5.161e-08
-4.96955e-08
1.56893e-06
-5.16217e-08
-4.97914e-08
1.57317e-06
-5.16639e-08
-4.98559e-08
-5.17054e-08
-4.99018e-08
1.32823e-06
-3.98282e-08
-7.16153e-08
1.33085e-06
-3.98957e-08
-7.20455e-08
1.33348e-06
-3.99813e-08
-7.23995e-08
1.33613e-06
-4.00764e-08
-7.26843e-08
1.3388e-06
-4.01672e-08
-7.29071e-08
1.34147e-06
-4.0255e-08
-7.30772e-08
1.34413e-06
-4.03278e-08
-7.32136e-08
1.34678e-06
-4.04133e-08
-7.33239e-08
1.34939e-06
-4.04634e-08
-7.34132e-08
1.35196e-06
-4.05149e-08
-7.34654e-08
1.35447e-06
-4.05526e-08
-7.34778e-08
-4.05569e-08
-7.34821e-08
1.04138e-06
-2.28764e-08
-9.21708e-08
1.04151e-06
-2.30486e-08
-9.24871e-08
1.04152e-06
-2.3204e-08
-9.27118e-08
1.0414e-06
-2.33458e-08
-9.2869e-08
1.04117e-06
-2.34614e-08
-9.29792e-08
1.04081e-06
-2.35561e-08
-9.30545e-08
1.04033e-06
-2.36197e-08
-9.31081e-08
1.03971e-06
-2.36688e-08
-9.31311e-08
1.03898e-06
-2.36875e-08
-9.3148e-08
1.03813e-06
-2.36987e-08
-9.31457e-08
1.03716e-06
-2.36628e-08
-9.31542e-08
-2.35719e-08
-9.3172e-08
6.24129e-07
-1.07283e-07
6.19159e-07
-1.07219e-07
6.13986e-07
-1.07144e-07
6.08629e-07
-1.07066e-07
6.03109e-07
-1.06992e-07
5.97452e-07
-1.06932e-07
5.91696e-07
-1.06881e-07
5.8588e-07
-1.06851e-07
5.8005e-07
-1.06829e-07
5.74253e-07
-1.06834e-07
5.68526e-07
-1.06884e-07
-1.06957e-07
1.78916e-06
-3.27484e-08
-2.80071e-08
1.79579e-06
-3.26696e-08
-2.80735e-08
1.80229e-06
-3.26069e-08
-2.8132e-08
1.80869e-06
-3.25584e-08
-2.81829e-08
1.81501e-06
-3.25216e-08
-2.82264e-08
1.82126e-06
-3.24942e-08
-2.82634e-08
1.82745e-06
-3.24742e-08
-2.82949e-08
1.83359e-06
-3.24605e-08
-2.83218e-08
1.8397e-06
-3.24531e-08
-2.83444e-08
1.84577e-06
-3.24544e-08
-2.83618e-08
-3.24563e-08
-2.83769e-08
1.66332e-06
-3.01227e-08
-5.6526e-08
1.66889e-06
-3.01896e-08
-5.65917e-08
1.67436e-06
-3.02603e-08
-5.66425e-08
1.67975e-06
-3.03314e-08
-5.66809e-08
1.68507e-06
-3.04003e-08
-5.67088e-08
1.69034e-06
-3.04641e-08
-5.67285e-08
1.69555e-06
-3.05215e-08
-5.67426e-08
1.70072e-06
-3.05719e-08
-5.67532e-08
1.70585e-06
-3.0614e-08
-5.67609e-08
1.71096e-06
-3.06535e-08
-5.67619e-08
-3.06828e-08
-5.67589e-08
1.45342e-06
-2.39301e-08
-8.20796e-08
1.45757e-06
-2.42358e-08
-8.2079e-08
1.46155e-06
-2.45121e-08
-8.20578e-08
1.46539e-06
-2.47591e-08
-8.20219e-08
1.4691e-06
-2.49746e-08
-8.19759e-08
1.4727e-06
-2.51609e-08
-8.19213e-08
1.47621e-06
-2.53181e-08
-8.18638e-08
1.47962e-06
-2.54484e-08
-8.18095e-08
1.48295e-06
-2.55543e-08
-8.17603e-08
1.48621e-06
-2.56287e-08
-8.1715e-08
1.48941e-06
-2.56547e-08
-8.16699e-08
-2.56717e-08
-8.16225e-08
1.16547e-06
-1.46185e-08
-1.03275e-07
1.16687e-06
-1.50151e-08
-1.0311e-07
1.16793e-06
-1.53402e-08
-1.02939e-07
1.16868e-06
-1.56093e-08
-1.02772e-07
1.16917e-06
-1.5829e-08
-1.02613e-07
1.16942e-06
-1.60054e-08
-1.02464e-07
1.16947e-06
-1.61409e-08
-1.0233e-07
1.16933e-06
-1.62332e-08
-1.02213e-07
1.16904e-06
-1.62956e-08
-1.02111e-07
1.16861e-06
-1.6326e-08
-1.02021e-07
1.16806e-06
-1.63119e-08
-1.01952e-07
-1.62765e-08
-1.019e-07
7.43058e-07
-1.17571e-07
7.38181e-07
-1.17357e-07
7.32873e-07
-1.17176e-07
7.27225e-07
-1.17027e-07
7.21308e-07
-1.16904e-07
7.1518e-07
-1.16809e-07
7.08895e-07
-1.16737e-07
7.02493e-07
-1.16683e-07
6.96015e-07
-1.16646e-07
6.89479e-07
-1.16624e-07
6.82904e-07
-1.16621e-07
-1.16652e-07
1.83173e-06
-5.20403e-09
-3.19227e-08
1.83878e-06
-5.13841e-09
-3.18569e-08
1.8457e-06
-5.08045e-09
-3.17997e-08
1.8525e-06
-5.03003e-09
-3.17506e-08
1.8592e-06
-4.98658e-09
-3.17091e-08
1.86581e-06
-4.94913e-09
-3.16743e-08
1.87235e-06
-4.91658e-09
-3.16454e-08
1.87883e-06
-4.88817e-09
-3.16219e-08
1.88526e-06
-4.86328e-09
-3.16035e-08
1.89166e-06
-4.84431e-09
-3.1591e-08
-4.82232e-09
-3.15817e-08
1.70479e-06
-7.30773e-09
-6.04755e-08
1.7107e-06
-7.34238e-09
-6.02917e-08
1.71648e-06
-7.37206e-09
-6.01303e-08
1.72215e-06
-7.39687e-09
-5.99906e-08
1.72775e-06
-7.41728e-09
-5.98709e-08
1.73327e-06
-7.43299e-09
-5.97688e-08
1.73874e-06
-7.44354e-09
-5.96823e-08
1.74415e-06
-7.44856e-09
-5.96107e-08
1.74953e-06
-7.44628e-09
-5.95541e-08
1.75488e-06
-7.44338e-09
-5.95132e-08
-7.42443e-09
-5.94836e-08
1.49211e-06
-7.67276e-09
-8.60781e-08
1.4963e-06
-7.91616e-09
-8.56635e-08
1.50032e-06
-8.12341e-09
-8.52944e-08
1.50419e-06
-8.29553e-09
-8.49714e-08
1.50795e-06
-8.43416e-09
-8.46923e-08
1.5116e-06
-8.53989e-09
-8.44531e-08
1.51517e-06
-8.61896e-09
-8.4249e-08
1.51868e-06
-8.67978e-09
-8.40773e-08
1.52212e-06
-8.72085e-09
-8.39354e-08
1.52552e-06
-8.73991e-09
-8.38217e-08
1.52889e-06
-8.74048e-09
-8.37349e-08
-8.70567e-09
-8.36723e-08
1.20064e-06
-6.206e-09
-1.06141e-07
1.20167e-06
-6.51745e-09
-1.05534e-07
1.20238e-06
-6.765e-09
-1.05016e-07
1.20285e-06
-6.95543e-09
-1.04576e-07
1.2031e-06
-7.09836e-09
-1.04205e-07
1.20319e-06
-7.19612e-09
-1.03894e-07
1.20314e-06
-7.25586e-09
-1.03637e-07
1.20296e-06
-7.28862e-09
-1.03429e-07
1.20269e-06
-7.29742e-09
-1.0326e-07
1.20233e-06
-7.28482e-09
-1.03124e-07
1.20191e-06
-7.2538e-09
-1.03014e-07
-7.19527e-09
-1.02936e-07
7.72906e-07
-1.18674e-07
7.67377e-07
-1.18346e-07
7.61536e-07
-1.181e-07
7.55467e-07
-1.17913e-07
7.49232e-07
-1.17768e-07
7.42884e-07
-1.17657e-07
7.36465e-07
-1.17574e-07
7.30005e-07
-1.17511e-07
7.23531e-07
-1.1747e-07
7.17068e-07
-1.17446e-07
7.10628e-07
-1.17434e-07
-1.17428e-07
1.78916e-06
2.20676e-08
-3.27434e-08
1.79579e-06
2.2263e-08
-3.26631e-08
1.80229e-06
2.24362e-08
-3.25987e-08
1.80869e-06
2.25874e-08
-3.25486e-08
1.81502e-06
2.27183e-08
-3.25102e-08
1.82127e-06
2.28311e-08
-3.24811e-08
1.82747e-06
2.2929e-08
-3.24591e-08
1.83361e-06
2.30138e-08
-3.24433e-08
1.83972e-06
2.30863e-08
-3.2433e-08
1.8458e-06
2.31439e-08
-3.24311e-08
2.31959e-08
-3.24295e-08
1.66122e-06
1.52013e-08
-5.89504e-08
1.66647e-06
1.54096e-08
-5.86945e-08
1.67167e-06
1.55946e-08
-5.84846e-08
1.67682e-06
1.57581e-08
-5.83157e-08
1.68195e-06
1.59013e-08
-5.81806e-08
1.68706e-06
1.60253e-08
-5.80704e-08
1.69215e-06
1.61354e-08
-5.79795e-08
1.69723e-06
1.62339e-08
-5.79083e-08
1.70229e-06
1.63227e-08
-5.78583e-08
1.70736e-06
1.63984e-08
-5.78354e-08
1.64723e-08
-5.78282e-08
1.44629e-06
8.07857e-09
-8.22446e-08
1.44931e-06
8.19497e-09
-8.16722e-08
1.45231e-06
8.30258e-09
-8.11898e-08
1.45532e-06
8.40309e-09
-8.07899e-08
1.45835e-06
8.50195e-09
-8.04675e-08
1.46141e-06
8.60072e-09
-8.02111e-08
1.46449e-06
8.69538e-09
-8.0002e-08
1.4676e-06
8.78619e-09
-7.98336e-08
1.47073e-06
8.87595e-09
-7.97048e-08
1.47387e-06
8.96611e-09
-7.96116e-08
1.47703e-06
9.06208e-09
-7.95528e-08
9.16309e-09
-7.95293e-08
1.14876e-06
2.00495e-09
-9.94923e-08
1.14816e-06
2.02661e-09
-9.87629e-08
1.14756e-06
2.04978e-09
-9.8164e-08
1.14698e-06
2.08064e-09
-9.76719e-08
1.14643e-06
2.12994e-09
-9.72789e-08
1.1459e-06
2.19933e-09
-9.6967e-08
1.1454e-06
2.28524e-09
-9.67275e-08
1.14492e-06
2.38149e-09
-9.65485e-08
1.14447e-06
2.48354e-09
-9.64114e-08
1.14403e-06
2.59189e-09
-9.63091e-08
1.14359e-06
2.71027e-09
-9.62268e-08
2.84102e-09
-9.61901e-08
7.13474e-07
-1.09978e-07
7.06831e-07
-1.09676e-07
7.00251e-07
-1.0947e-07
6.93749e-07
-1.09331e-07
6.87343e-07
-1.09231e-07
6.81041e-07
-1.09157e-07
6.74852e-07
-1.09099e-07
6.68779e-07
-1.09057e-07
6.62824e-07
-1.09031e-07
6.56984e-07
-1.09014e-07
6.5126e-07
-1.08999e-07
-1.08973e-07
1.66332e-06
4.82092e-08
-3.01221e-08
1.6689e-06
4.85481e-08
-3.0189e-08
1.67437e-06
4.88372e-08
-3.02589e-08
1.67977e-06
4.90796e-08
-3.03292e-08
1.6851e-06
4.92807e-08
-3.0397e-08
1.69037e-06
4.94487e-08
-3.04593e-08
1.6956e-06
4.95911e-08
-3.05145e-08
1.70078e-06
4.97106e-08
-3.05623e-08
1.70592e-06
4.98069e-08
-3.06004e-08
1.71103e-06
4.98733e-08
-3.06354e-08
4.99227e-08
-3.06604e-08
1.53538e-06
3.70538e-08
-5.19004e-08
1.53949e-06
3.75205e-08
-5.17794e-08
1.54363e-06
3.79206e-08
-5.16991e-08
1.54779e-06
3.8256e-08
-5.16543e-08
1.55198e-06
3.85369e-08
-5.16329e-08
1.5562e-06
3.87799e-08
-5.16203e-08
1.56043e-06
3.89907e-08
-5.16098e-08
1.56467e-06
3.91689e-08
-5.16041e-08
1.56891e-06
3.9319e-08
-5.16114e-08
1.57316e-06
3.94382e-08
-5.16478e-08
3.95218e-08
-5.16841e-08
1.31943e-06
2.37872e-08
-7.08628e-08
1.32097e-06
2.42643e-08
-7.04303e-08
1.32272e-06
2.46747e-08
-7.0091e-08
1.32464e-06
2.50371e-08
-6.98294e-08
1.32673e-06
2.53484e-08
-6.96512e-08
1.32897e-06
2.56215e-08
-6.95322e-08
1.33132e-06
2.58565e-08
-6.94307e-08
1.33376e-06
2.60543e-08
-6.93326e-08
1.33627e-06
2.62339e-08
-6.92775e-08
1.33882e-06
2.63974e-08
-6.92475e-08
1.3414e-06
2.65583e-08
-6.92466e-08
2.66643e-08
-6.92733e-08
1.01609e-06
1.0764e-08
-8.40254e-08
1.01403e-06
1.10471e-08
-8.34922e-08
1.01232e-06
1.13041e-08
-8.30789e-08
1.01088e-06
1.15485e-08
-8.27473e-08
1.00968e-06
1.179e-08
-8.25169e-08
1.00865e-06
1.20234e-08
-8.23453e-08
1.00777e-06
1.22444e-08
-8.22284e-08
1.00697e-06
1.24505e-08
-8.21522e-08
1.00624e-06
1.26389e-08
-8.20797e-08
1.00554e-06
1.28167e-08
-8.20314e-08
1.00487e-06
1.29994e-08
-8.19935e-08
1.31558e-08
-8.20123e-08
5.77627e-07
-9.20928e-08
5.70991e-07
-9.19932e-08
5.64735e-07
-9.19093e-08
5.58816e-07
-9.18631e-08
5.53191e-07
-9.1817e-08
5.4783e-07
-9.17721e-08
5.42702e-07
-9.17265e-08
5.37782e-07
-9.1687e-08
5.33046e-07
-9.16562e-08
5.28473e-07
-9.16247e-08
5.24052e-07
-9.15789e-08
-9.15314e-08
1.45758e-06
7.20498e-08
-2.4247e-08
1.46157e-06
7.24105e-08
-2.45245e-08
1.46542e-06
7.26998e-08
-2.47709e-08
1.46914e-06
7.29232e-08
-2.4985e-08
1.47275e-06
7.30928e-08
-2.51693e-08
1.47627e-06
7.32279e-08
-2.53248e-08
1.47969e-06
7.33394e-08
-2.5453e-08
1.48303e-06
7.34259e-08
-2.55558e-08
1.48631e-06
7.34793e-08
-2.56269e-08
1.48951e-06
7.34952e-08
-2.56478e-08
7.35018e-08
-2.5662e-08
1.33077e-06
5.74355e-08
-3.99047e-08
1.33341e-06
5.79789e-08
-3.99911e-08
1.33607e-06
5.84285e-08
-4.00852e-08
1.33874e-06
5.87724e-08
-4.01756e-08
1.34142e-06
5.90363e-08
-4.02583e-08
1.34409e-06
5.92687e-08
-4.03349e-08
1.34675e-06
5.94938e-08
-4.04185e-08
1.34937e-06
5.96626e-08
-4.04601e-08
1.35195e-06
5.97966e-08
-4.05134e-08
1.35447e-06
5.98781e-08
-4.05485e-08
5.99163e-08
-4.05534e-08
1.11577e-06
3.9183e-08
-5.31237e-08
1.11595e-06
3.9761e-08
-5.29363e-08
1.11643e-06
4.02452e-08
-5.2829e-08
1.11711e-06
4.06645e-08
-5.27454e-08
1.11794e-06
4.09658e-08
-5.26823e-08
1.11889e-06
4.12044e-08
-5.26456e-08
1.11993e-06
4.14047e-08
-5.26037e-08
1.12106e-06
4.15919e-08
-5.25622e-08
1.12222e-06
4.17521e-08
-5.25343e-08
1.12341e-06
4.18836e-08
-5.25164e-08
1.12455e-06
4.19818e-08
-5.24949e-08
4.20306e-08
-5.2496e-08
8.11051e-07
2.00889e-08
-6.14305e-08
8.08103e-07
2.03889e-08
-6.11719e-08
8.05576e-07
2.07188e-08
-6.10252e-08
8.0339e-07
2.10289e-08
-6.0926e-08
8.01425e-07
2.12694e-08
-6.08547e-08
7.99607e-07
2.14726e-08
-6.07963e-08
7.97863e-07
2.16537e-08
-6.07333e-08
7.96148e-07
2.18215e-08
-6.06664e-08
7.9444e-07
2.19682e-08
-6.05878e-08
7.92729e-07
2.20989e-08
-6.05366e-08
7.90993e-07
2.2239e-08
-6.05145e-08
2.23489e-08
-6.05443e-08
3.98197e-07
-6.67025e-08
3.93285e-07
-6.66927e-08
3.88726e-07
-6.6631e-08
3.84449e-07
-6.65569e-08
3.80406e-07
-6.6505e-08
3.76567e-07
-6.64602e-08
3.72913e-07
-6.64194e-08
3.69432e-07
-6.63845e-08
3.66104e-07
-6.63601e-08
3.62912e-07
-6.63331e-08
3.59858e-07
-6.62865e-08
-6.62476e-08
1.16689e-06
9.24946e-08
-1.50378e-08
1.16795e-06
9.27204e-08
-1.53629e-08
1.16871e-06
9.28776e-08
-1.56303e-08
1.1692e-06
9.29881e-08
-1.58473e-08
1.16945e-06
9.30655e-08
-1.60212e-08
1.1695e-06
9.31181e-08
-1.61539e-08
1.16936e-06
9.31407e-08
-1.62449e-08
1.16907e-06
9.31602e-08
-1.63078e-08
1.16866e-06
9.31552e-08
-1.63372e-08
1.16812e-06
9.31644e-08
-1.63208e-08
9.31777e-08
-1.6282e-08
1.04146e-06
7.55349e-08
-2.30753e-08
1.04148e-06
7.59413e-08
-2.32319e-08
1.04138e-06
7.62614e-08
-2.33684e-08
1.04115e-06
7.65222e-08
-2.34799e-08
1.04079e-06
7.6729e-08
-2.35645e-08
1.04031e-06
7.68983e-08
-2.36278e-08
1.03969e-06
7.70113e-08
-2.36734e-08
1.03896e-06
7.71202e-08
-2.36899e-08
1.03812e-06
7.71868e-08
-2.37017e-08
1.03716e-06
7.72494e-08
-2.36708e-08
7.72796e-08
-2.35826e-08
8.31329e-07
5.32846e-08
-2.9424e-08
8.29577e-07
5.37735e-08
-2.94228e-08
8.27986e-07
5.41198e-08
-2.94171e-08
8.26502e-07
5.43709e-08
-2.937e-08
8.25065e-07
5.45839e-08
-2.93071e-08
8.23636e-07
5.47534e-08
-2.92414e-08
8.2218e-07
5.4919e-08
-2.91686e-08
8.20672e-07
5.50626e-08
-2.91052e-08
8.1911e-07
5.52045e-08
-2.90568e-08
8.17512e-07
5.5296e-08
-2.90278e-08
8.15838e-07
5.53435e-08
-2.89151e-08
5.53325e-08
-2.87282e-08
5.38038e-07
2.87271e-08
-3.26757e-08
5.34241e-07
2.89356e-08
-3.25371e-08
5.30725e-07
2.90562e-08
-3.24458e-08
5.27386e-07
2.91571e-08
-3.23724e-08
5.24163e-07
2.92567e-08
-3.2305e-08
5.21017e-07
2.93501e-08
-3.22463e-08
5.17932e-07
2.94512e-08
-3.21806e-08
5.14902e-07
2.9547e-08
-3.21214e-08
5.11923e-07
2.9651e-08
-3.20553e-08
5.08962e-07
2.97365e-08
-3.20157e-08
5.0599e-07
2.98022e-08
-3.20011e-08
2.9813e-08
-3.20236e-08
2.13324e-07
-3.50271e-08
2.10507e-07
-3.49393e-08
2.07791e-07
-3.48592e-08
2.0518e-07
-3.47888e-08
2.02674e-07
-3.47418e-08
2.00275e-07
-3.47116e-08
1.97995e-07
-3.46881e-08
1.95828e-07
-3.46702e-08
1.93774e-07
-3.46556e-08
1.91827e-07
-3.4649e-08
1.89997e-07
-3.46545e-08
-3.46806e-08
7.38151e-07
1.07214e-07
7.32824e-07
1.07133e-07
7.27157e-07
1.07054e-07
7.2122e-07
1.06987e-07
7.15071e-07
1.06932e-07
7.08765e-07
1.06887e-07
7.02343e-07
1.06859e-07
6.95847e-07
1.06833e-07
6.89295e-07
1.06835e-07
6.82709e-07
1.06878e-07
1.06948e-07
6.19235e-07
8.91214e-08
6.14046e-07
8.90894e-08
6.08671e-07
8.90613e-08
6.03133e-07
8.90446e-08
5.97463e-07
8.90375e-08
5.91695e-07
8.90271e-08
5.85868e-07
8.90121e-08
5.80024e-07
8.89871e-08
5.74212e-07
8.89457e-08
5.68473e-07
8.89464e-08
8.90139e-08
4.3725e-07
6.38615e-08
4.33162e-07
6.37861e-08
4.29113e-07
6.37219e-08
4.25092e-07
6.37118e-08
4.21091e-07
6.37383e-08
4.17105e-07
6.3782e-08
4.13134e-07
6.38295e-08
4.09174e-07
6.3867e-08
4.0522e-07
6.38842e-08
4.01248e-07
6.38903e-08
3.9732e-07
6.39593e-08
6.40887e-08
2.25988e-07
3.39367e-08
2.23326e-07
3.3911e-08
2.2073e-07
3.38722e-08
2.18227e-07
3.38418e-08
2.15828e-07
3.38328e-08
2.13525e-07
3.38391e-08
2.11316e-07
3.38573e-08
2.09182e-07
3.38793e-08
2.07108e-07
3.3903e-08
2.0506e-07
3.39224e-08
2.03062e-07
3.3956e-08
3.40053e-08
7.14713e-08
7.04431e-08
6.9456e-08
6.8509e-08
6.76e-08
6.67275e-08
6.58968e-08
6.51058e-08
6.43532e-08
6.36266e-08
6.29281e-08
)
;

boundaryField
{
    inlet
    {
        type            calculated;
        value           nonuniform List<scalar> 0();
    }
    ami1
    {
        type            cyclicAMI;
        value           nonuniform List<scalar> 0();
    }
    walls
    {
        type            calculated;
        value           nonuniform List<scalar> 
259
(
-1.84387e-14
-2.43942e-14
-2.90979e-14
-1.11954e-21
-6.40674e-15
-1.28555e-14
-1.84387e-14
-2.43942e-14
-2.90979e-14
-1.11954e-21
-6.40674e-15
-1.28555e-14
-1.84387e-14
-2.43942e-14
-2.90979e-14
-1.11954e-21
-6.40674e-15
-1.28555e-14
-1.84387e-14
-2.43942e-14
-2.90979e-14
-1.32246e-21
-6.40674e-15
-1.28555e-14
-1.84387e-14
-2.43942e-14
-2.90979e-14
-1.11902e-21
-6.40674e-15
-1.28555e-14
-1.84387e-14
-2.43942e-14
-2.90979e-14
-1.11902e-21
-6.40674e-15
-1.28555e-14
-1.84387e-14
-2.43942e-14
-2.90979e-14
-1.11902e-21
-6.40674e-15
-1.28555e-14
-1.84387e-14
-2.43942e-14
-2.90979e-14
-1.11902e-21
-6.40674e-15
-1.28555e-14
-1.84387e-14
-2.43942e-14
-2.90979e-14
-1.11902e-21
-6.40674e-15
-1.28555e-14
-1.84387e-14
-2.43942e-14
-2.90979e-14
-1.11902e-21
-6.40674e-15
-1.28555e-14
-1.84387e-14
-2.43942e-14
-2.90979e-14
-1.52382e-21
-6.40674e-15
-1.28555e-14
-1.84387e-14
-2.43942e-14
-2.90979e-14
2.90979e-14
2.43942e-14
1.84387e-14
1.28555e-14
6.40674e-15
-1.11954e-21
-6.40674e-15
-1.28555e-14
-1.84387e-14
-2.43942e-14
-2.90979e-14
2.90979e-14
2.43942e-14
1.84387e-14
1.28555e-14
6.40674e-15
-1.11954e-21
-6.40674e-15
-1.28555e-14
-1.84387e-14
-2.43942e-14
-2.90979e-14
2.90979e-14
2.43942e-14
1.84387e-14
1.28555e-14
6.40674e-15
-1.11954e-21
-6.40674e-15
-1.28555e-14
-1.84387e-14
-2.43942e-14
-2.90979e-14
2.90979e-14
2.43942e-14
1.84387e-14
1.28555e-14
6.40674e-15
-1.11954e-21
-6.40674e-15
-1.28555e-14
-1.84387e-14
-2.43942e-14
-2.90979e-14
2.90979e-14
2.43942e-14
1.84387e-14
1.28555e-14
6.40674e-15
-1.32246e-21
-6.40674e-15
-1.28555e-14
-1.84387e-14
-2.43942e-14
-2.90979e-14
2.90979e-14
2.43942e-14
1.84387e-14
1.28555e-14
6.40674e-15
-1.11902e-21
-6.40674e-15
-1.28555e-14
-1.84387e-14
-2.43942e-14
-2.90979e-14
2.90979e-14
2.43942e-14
1.84387e-14
1.28555e-14
6.40674e-15
-1.11902e-21
-6.40674e-15
-1.28555e-14
-1.84387e-14
-2.43942e-14
-2.90979e-14
2.90979e-14
2.43942e-14
1.84387e-14
1.28555e-14
6.40674e-15
-1.11902e-21
-6.40674e-15
-1.28555e-14
-1.84387e-14
-2.43942e-14
-2.90979e-14
2.90979e-14
2.43942e-14
1.84387e-14
1.28555e-14
6.40674e-15
-1.11902e-21
-6.40674e-15
-1.28555e-14
-1.84387e-14
-2.43942e-14
-2.90979e-14
2.90979e-14
2.43942e-14
1.84387e-14
1.28555e-14
6.40674e-15
-1.11902e-21
-6.40674e-15
-1.28555e-14
-1.84387e-14
-2.43942e-14
-2.90979e-14
2.90979e-14
2.43942e-14
1.84387e-14
1.28555e-14
6.40674e-15
-1.11902e-21
-6.40674e-15
-1.28555e-14
-1.84387e-14
-2.43942e-14
-2.90979e-14
2.90979e-14
2.43942e-14
1.84387e-14
1.28555e-14
6.40674e-15
-1.52382e-21
-6.40674e-15
-1.28555e-14
-1.84387e-14
-2.43942e-14
-2.90979e-14
1.84387e-14
2.43942e-14
2.90979e-14
6.40674e-15
1.28555e-14
1.84387e-14
2.43942e-14
2.90979e-14
6.40674e-15
1.28555e-14
1.84387e-14
2.43942e-14
2.90979e-14
6.40674e-15
1.28555e-14
1.84387e-14
2.43942e-14
2.90979e-14
6.40674e-15
1.28555e-14
1.84387e-14
2.43942e-14
2.90979e-14
6.40674e-15
1.28555e-14
1.84387e-14
2.43942e-14
2.90979e-14
6.40674e-15
1.28555e-14
1.84387e-14
2.43942e-14
2.90979e-14
6.40674e-15
1.28555e-14
1.84387e-14
2.43942e-14
2.90979e-14
6.40674e-15
1.28555e-14
1.84387e-14
2.43942e-14
2.90979e-14
6.40674e-15
1.28555e-14
1.84387e-14
2.43942e-14
2.90979e-14
6.40674e-15
1.28555e-14
1.84387e-14
2.43942e-14
2.90979e-14
6.40674e-15
1.28555e-14
1.84387e-14
2.43942e-14
2.90979e-14
)
;
    }
    ami2
    {
        type            cyclicAMI;
        value           nonuniform List<scalar> 0();
    }
    outlet
    {
        type            calculated;
        value           nonuniform List<scalar> 0();
    }
    procBoundary9to0
    {
        type            processor;
        value           nonuniform List<scalar> 
40
(
-7.7291e-07
-7.13494e-07
-5.77626e-07
9.20768e-08
-4.03446e-07
-2.16198e-07
-7.25307e-08
-1.20064e-06
-1.14877e-06
-1.01611e-06
8.40101e-08
-8.14586e-07
-5.42184e-07
-2.2863e-07
-1.49212e-06
-1.44632e-06
-1.31948e-06
7.08571e-08
-1.11603e-06
-8.33407e-07
-4.4124e-07
-1.69874e-06
-1.6559e-06
-1.53133e-06
5.20657e-08
-1.32563e-06
-1.04114e-06
-6.28868e-07
-1.7824e-06
-1.65762e-06
3.00614e-08
-1.44909e-06
-1.16367e-06
-7.47389e-07
-1.82451e-06
-1.69874e-06
7.26758e-09
-1.48771e-06
-1.19924e-06
-7.78009e-07
)
;
    }
    procBoundary9to1
    {
        type            processor;
        value           nonuniform List<scalar> 
30
(
-1.7824e-06
-1.65588e-06
-1.49697e-08
-1.44324e-06
-1.14934e-06
-7.20165e-07
-1.65763e-06
-1.53128e-06
-3.65144e-08
-1.31808e-06
-1.01853e-06
-5.84748e-07
-1.45343e-06
-1.32815e-06
-5.67852e-08
-1.11591e-06
-8.14552e-07
-4.03498e-07
-1.16548e-06
-1.04133e-06
-7.49845e-08
-8.33328e-07
-5.42235e-07
-2.16272e-07
-7.43048e-07
-6.24217e-07
-8.91482e-08
-4.41386e-07
-2.28738e-07
-7.25616e-08
)
;
    }
    procBoundary9to7
    {
        type            processor;
        value           nonuniform List<scalar> 
59
(
7.03985e-07
6.45493e-07
5.19639e-07
3.56819e-07
1.88182e-07
6.22332e-08
1.20136e-06
1.1431e-06
1.00415e-06
7.89159e-07
5.02902e-07
2.01075e-07
1.53224e-06
1.4802e-06
1.34401e-06
1.12567e-06
8.14016e-07
3.93487e-07
1.76025e-06
1.71245e-06
1.57742e-06
1.35691e-06
1.03607e-06
5.62887e-07
1.85183e-06
1.71604e-06
1.49254e-06
1.1674e-06
6.76323e-07
1.89801e-06
1.76021e-06
1.53222e-06
1.20143e-06
7.04208e-07
1.85185e-06
1.71243e-06
1.48019e-06
1.14317e-06
6.45646e-07
1.71612e-06
1.57742e-06
1.344e-06
1.0042e-06
5.19766e-07
1.49266e-06
1.35692e-06
1.12566e-06
7.89207e-07
3.56923e-07
1.16747e-06
1.03608e-06
8.14018e-07
5.02988e-07
1.88243e-07
6.76123e-07
5.62824e-07
3.93517e-07
2.01122e-07
6.22528e-08
)
;
    }
    procBoundary9to8
    {
        type            processor;
        value           nonuniform List<scalar> 
132
(
1.17337e-07
1.17166e-07
1.17024e-07
1.16908e-07
1.16816e-07
1.16746e-07
1.1669e-07
1.16651e-07
1.16626e-07
1.16619e-07
1.16647e-07
1.03106e-07
1.02941e-07
1.02777e-07
1.02621e-07
1.02474e-07
1.02339e-07
1.02224e-07
1.02119e-07
1.02027e-07
1.01956e-07
1.01903e-07
8.20876e-08
8.20712e-08
8.20385e-08
8.19936e-08
8.19388e-08
8.18795e-08
8.18237e-08
8.17718e-08
8.17256e-08
8.16818e-08
8.16361e-08
5.65351e-08
5.66057e-08
5.666e-08
5.67002e-08
5.67285e-08
5.67473e-08
5.67601e-08
5.67691e-08
5.67761e-08
5.67778e-08
5.67759e-08
5.21154e-09
5.14704e-09
5.0897e-09
5.03959e-09
4.99645e-09
4.95945e-09
4.92741e-09
4.89948e-09
4.87484e-09
4.85618e-09
4.83476e-09
3.19295e-08
3.18663e-08
3.18114e-08
3.17643e-08
3.17244e-08
3.16908e-08
3.16628e-08
3.16403e-08
3.16231e-08
3.16119e-08
3.1604e-08
1.90783e-09
1.86718e-09
1.83079e-09
1.7987e-09
1.77068e-09
1.74639e-09
1.72538e-09
1.70729e-09
1.69196e-09
1.6799e-09
1.66851e-09
-2.80106e-08
-2.80798e-08
-2.81409e-08
-2.81938e-08
-2.82392e-08
-2.8278e-08