/*--------------------------------*- C++ -*----------------------------------*\
| =========                 |                                                 |
| \\      /  F ield         | OpenFOAM: The Open Source CFD Toolbox           |
|  \\    /   O peration     | Version:  2212                                  |
|   \\  /    A nd           | Website:  www.openfoam.com                      |
|    \\/     M anipulation  |                                                 |
\*---------------------------------------------------------------------------*/
FoamFile
{
    version     2.0;
    format      ascii;
    arch        "LSB;label=32;scalar=64";
    class       surfaceVectorField;
    location    "2.45";
    object      Uf;
}
// * * * * * * * * * * * * * * * * * * * * * * * * * * * * * * * * * * * * * //

dimensions      [0 1 -1 0 0 0 0];

internalField   nonuniform List<vector> 
1786
(
(0.0790087 -0.000572708 -0.000817998)
(0.0774736 -0.000557988 -0.000836739)
(0.0911187 -0.000543517 -0.000877887)
(0.0784058 -0.000623491 -0.000828893)
(0.0768253 -0.000606703 -0.000834013)
(0.0908434 -0.000602934 -0.000878554)
(0.0777792 -0.000662996 -0.000836437)
(0.0761671 -0.000643385 -0.00083209)
(0.0905422 -0.00065141 -0.000876908)
(0.0771355 -0.000692924 -0.000841246)
(0.0755038 -0.000670339 -0.000829214)
(0.0902209 -0.000690734 -0.000873429)
(0.07648 -0.000714396 -0.000843394)
(0.0748388 -0.000688813 -0.000824806)
(0.0898845 -0.000721549 -0.000868007)
(0.075817 -0.000729354 -0.000842947)
(0.0741751 -0.000700239 -0.000818496)
(0.089537 -0.000745097 -0.00086107)
(0.0751497 -0.000738961 -0.000840401)
(0.0735145 -0.00070618 -0.000810657)
(0.0891811 -0.000762798 -0.000853666)
(0.0744807 -0.000743676 -0.000836074)
(0.0728588 -0.000707298 -0.000801963)
(0.0888192 -0.000775371 -0.000845628)
(0.0738125 -0.000744048 -0.000830193)
(0.072209 -0.000703921 -0.0007924)
(0.0884536 -0.000783757 -0.000836848)
(0.0731465 -0.000740304 -0.000823768)
(0.0715668 -0.000697085 -0.000781672)
(0.0880857 -0.000788073 -0.00082769)
(0.0709312 -0.000687802 -0.000769563)
(0.0877177 -0.00078644 -0.000817446)
(0.0753306 -0.000592844 -0.000851384)
(0.0718199 -0.000574455 -0.000802738)
(0.0882962 -0.000523859 -0.000988959)
(0.0746283 -0.000628202 -0.000835609)
(0.0710836 -0.000595248 -0.00077812)
(0.0878979 -0.000577428 -0.000948412)
(0.0739344 -0.000653049 -0.000822981)
(0.070373 -0.000605201 -0.000758701)
(0.0875036 -0.00061894 -0.000914978)
(0.0732503 -0.000668889 -0.000810907)
(0.0696853 -0.000606707 -0.000740208)
(0.0871154 -0.000649509 -0.000885718)
(0.0725773 -0.000677305 -0.00079835)
(0.0690208 -0.00060245 -0.000722221)
(0.0867339 -0.000670674 -0.000859215)
(0.071916 -0.000679567 -0.000785058)
(0.0683749 -0.000594022 -0.000703577)
(0.08636 -0.000683944 -0.00083478)
(0.0712669 -0.000676677 -0.000771634)
(0.0677501 -0.000582496 -0.000684698)
(0.0859933 -0.000690959 -0.000812443)
(0.0706301 -0.00066951 -0.000758106)
(0.0671418 -0.000568645 -0.000667083)
(0.0856343 -0.00069299 -0.000792329)
(0.0700055 -0.00065878 -0.000744037)
(0.0665505 -0.000553157 -0.000649726)
(0.0852824 -0.000690832 -0.000773747)
(0.0693932 -0.000645628 -0.000728538)
(0.0659765 -0.00053672 -0.000632136)
(0.0849375 -0.000684686 -0.000755761)
(0.0654108 -0.000520837 -0.000611889)
(0.0845996 -0.000675238 -0.000737246)
(0.0678351 -0.000571573 -0.000740263)
(0.0625176 -0.000483499 -0.000603475)
(0.0823202 -0.000515178 -0.000911432)
(0.0670917 -0.000562952 -0.000718556)
(0.0617936 -0.000457534 -0.00056868)
(0.0818283 -0.000526884 -0.000858269)
(0.066388 -0.000547867 -0.000697121)
(0.0611164 -0.000429009 -0.000540287)
(0.0813728 -0.000529309 -0.000813184)
(0.0657189 -0.000529521 -0.000674184)
(0.0604711 -0.000403779 -0.000514717)
(0.0809488 -0.000525246 -0.000772548)
(0.0650808 -0.000509554 -0.000650343)
(0.0598677 -0.000381589 -0.000492693)
(0.0805509 -0.000516874 -0.000736357)
(0.0644696 -0.000488721 -0.000625846)
(0.0592773 -0.000361955 -0.000470448)
(0.0801766 -0.000504935 -0.000703419)
(0.063883 -0.000467421 -0.000602502)
(0.05873 -0.000343264 -0.000449715)
(0.07982 -0.000490595 -0.00067418)
(0.0633185 -0.000446478 -0.0005805)
(0.0581904 -0.000325045 -0.00043155)
(0.0794803 -0.000475083 -0.000648664)
(0.0627731 -0.000426916 -0.000558389)
(0.0576833 -0.000308747 -0.00041427)
(0.079152 -0.00045948 -0.000625552)
(0.0622458 -0.00040895 -0.000535139)
(0.0571872 -0.000294172 -0.000394688)
(0.0788381 -0.000443079 -0.000600776)
(0.0567108 -0.000279916 -0.00037498)
(0.0785286 -0.000427397 -0.000580875)
(0.0578777 -0.000394144 -0.000521633)
(0.0503915 -0.000277956 -0.000352108)
(0.0734676 -0.000363548 -0.000714499)
(0.0571636 -0.000361846 -0.000479489)
(0.0497348 -0.000257253 -0.000338852)
(0.0729024 -0.000346558 -0.00066947)
(0.0565016 -0.000323986 -0.000430852)
(0.0491157 -0.000231139 -0.000313729)
(0.0723902 -0.000322692 -0.000620591)
(0.0558806 -0.000290184 -0.000394001)
(0.0485247 -0.000206912 -0.000289295)
(0.0719241 -0.000297565 -0.000578175)
(0.0552926 -0.000263129 -0.000367458)
(0.0479644 -0.000186366 -0.000269327)
(0.0714892 -0.000274439 -0.000546195)
(0.0547335 -0.000241607 -0.000346504)
(0.0474359 -0.000169657 -0.000252397)
(0.0710857 -0.000254147 -0.000517881)
(0.0542012 -0.000223402 -0.000328399)
(0.0469214 -0.000155148 -0.000238371)
(0.0706959 -0.000235674 -0.000494812)
(0.0536939 -0.000207134 -0.000312828)
(0.046444 -0.00014204 -0.000226766)
(0.0703304 -0.000218529 -0.000474048)
(0.0532093 -0.000192802 -0.000299318)
(0.0459771 -0.000130148 -0.000215966)
(0.0699706 -0.000202516 -0.000453798)
(0.0527436 -0.000180649 -0.000284617)
(0.0455393 -0.00011987 -0.000205906)
(0.0696266 -0.000188496 -0.000437596)
(0.0522981 -0.000169744 -0.000267571)
(0.0451177 -0.000111513 -0.000192198)
(0.069293 -0.000175116 -0.00041849)
(0.0447191 -0.000103199 -0.00018028)
(0.0689647 -0.000162442 -0.000404965)
(0.0437807 -0.00018977 -0.000157599)
(0.0347239 -0.000105141 -9.09824e-05)
(0.0585277 -0.000172168 -0.000316848)
(0.0432042 -0.000180205 -0.000143805)
(0.0342361 -0.000103591 -7.54183e-05)
(0.0579448 -0.00015632 -0.000287514)
(0.0426488 -0.000169991 -0.000128925)
(0.0337739 -0.000103225 -6.10234e-05)
(0.0574057 -0.000143448 -0.000270503)
(0.0421148 -0.000159068 -0.000114031)
(0.0333226 -0.000102177 -4.79215e-05)
(0.0568801 -0.000131234 -0.00025491)
(0.041601 -0.000148057 -0.000100435)
(0.0328962 -9.90339e-05 -3.8691e-05)
(0.0563859 -0.000119112 -0.000242103)
(0.0411111 -0.000137482 -8.88057e-05)
(0.0324841 -9.47388e-05 -3.1173e-05)
(0.055905 -0.000107814 -0.000227109)
(0.040643 -0.000127477 -7.97112e-05)
(0.0320916 -8.9845e-05 -2.5536e-05)
(0.0554412 -9.73152e-05 -0.000213982)
(0.0401964 -0.000118089 -7.18528e-05)
(0.0317164 -8.48711e-05 -2.07868e-05)
(0.0549949 -8.79415e-05 -0.000200073)
(0.0397731 -0.000109245 -6.46121e-05)
(0.0313598 -7.9869e-05 -1.62638e-05)
(0.0545641 -7.90616e-05 -0.000184644)
(0.0393717 -0.000100609 -5.80984e-05)
(0.0310165 -7.46854e-05 -1.31367e-05)
(0.0541455 -7.03021e-05 -0.000171837)
(0.0389937 -9.14233e-05 -5.43581e-05)
(0.0306923 -6.84192e-05 -1.20395e-05)
(0.0537445 -6.07963e-05 -0.000164425)
(0.0303786 -6.06942e-05 -1.41775e-05)
(0.0533478 -5.04541e-05 -0.000165372)
(0.0282784 -4.17711e-05 -5.02266e-05)
(0.0357547 1.2287e-05 -0.000136594)
(0.0278725 -4.20657e-05 -4.75603e-05)
(0.0352784 1.71276e-05 -0.00014117)
(0.0274837 -4.40935e-05 -4.50903e-05)
(0.0348297 1.68036e-05 -0.000147345)
(0.0271113 -4.55023e-05 -4.33597e-05)
(0.0343884 1.38206e-05 -0.000151912)
(0.0267523 -4.55063e-05 -4.17845e-05)
(0.0339724 1.11957e-05 -0.000153502)
(0.0264091 -4.43493e-05 -4.01765e-05)
(0.0335678 9.6088e-06 -0.000152174)
(0.0260804 -4.24382e-05 -3.86252e-05)
(0.0331834 9.29646e-06 -0.000149598)
(0.0257665 -4.0151e-05 -3.68122e-05)
(0.0328118 9.63701e-06 -0.000146087)
(0.0254675 -3.76206e-05 -3.50811e-05)
(0.0324571 9.70868e-06 -0.000142288)
(0.0251791 -3.45636e-05 -3.37734e-05)
(0.0321082 9.6403e-06 -0.000138987)
(0.0249009 -3.04387e-05 -3.30086e-05)
(0.0317742 1.00997e-05 -0.000133559)
(0.0314449 1.16792e-05 -0.000125012)
(0.104292 -0.000590585 -0.00096545)
(0.103314 -0.000519586 -0.00106656)
(0.109058 -0.000609673 -0.000977711)
(0.104354 -0.00065307 -0.000958367)
(0.103323 -0.000588663 -0.00103177)
(0.109247 -0.000662711 -0.000972623)
(0.104393 -0.000706289 -0.00094992)
(0.10332 -0.000646171 -0.0010011)
(0.109418 -0.000709041 -0.000966317)
(0.104415 -0.000750913 -0.000939809)
(0.103308 -0.000693098 -0.000973584)
(0.109573 -0.000748974 -0.00095907)
(0.104421 -0.000787749 -0.000928362)
(0.10329 -0.000730304 -0.000947997)
(0.109715 -0.000783138 -0.000950553)
(0.104416 -0.000817636 -0.000917296)
(0.103267 -0.000759267 -0.000924663)
(0.109848 -0.000811953 -0.000941689)
(0.1044 -0.000841549 -0.000906992)
(0.103239 -0.000781421 -0.000904357)
(0.109972 -0.00083561 -0.000933706)
(0.104376 -0.000860439 -0.00089646)
(0.103208 -0.000797972 -0.000886003)
(0.110088 -0.000854775 -0.000925889)
(0.104345 -0.000874498 -0.000885339)
(0.103173 -0.000809708 -0.000868932)
(0.1102 -0.000869564 -0.000917586)
(0.104307 -0.00088196 -0.000872561)
(0.103136 -0.000816241 -0.000851829)
(0.110306 -0.00088028 -0.000909145)
(0.103098 -0.000816228 -0.000834662)
(0.110409 -0.000885009 -0.000898627)
(0.10236 -0.000522229 -0.00112791)
(0.100307 -0.000476253 -0.00113749)
(0.107558 -0.000478828 -0.00123154)
(0.102306 -0.000585625 -0.00107059)
(0.100187 -0.000526489 -0.0010636)
(0.107643 -0.000534759 -0.00117255)
(0.102253 -0.000636373 -0.00102164)
(0.100082 -0.000565279 -0.00100101)
(0.107727 -0.000580764 -0.00112191)
(0.102203 -0.000675551 -0.000979263)
(0.0999918 -0.000593551 -0.000948914)
(0.107813 -0.000617483 -0.00107841)
(0.102155 -0.00070458 -0.000942341)
(0.0999112 -0.000612803 -0.000904006)
(0.107901 -0.000645913 -0.00104092)
(0.10211 -0.000725355 -0.000910426)
(0.0998432 -0.000624319 -0.000866952)
(0.107992 -0.000667609 -0.00100907)
(0.102067 -0.000739658 -0.000882734)
(0.0997784 -0.000630131 -0.000836493)
(0.108085 -0.000683774 -0.000981868)
(0.102026 -0.000748581 -0.000858462)
(0.0997215 -0.00063168 -0.000809986)
(0.10818 -0.000695088 -0.000958096)
(0.101986 -0.000752206 -0.000836113)
(0.0996651 -0.000629603 -0.00078709)
(0.108277 -0.000701749 -0.000937538)
(0.101947 -0.000750707 -0.000815261)
(0.0996124 -0.000622654 -0.000762554)
(0.108374 -0.00070364 -0.000918933)
(0.0995622 -0.000614045 -0.000746878)
(0.108474 -0.000701184 -0.000902759)
(0.0982429 -0.000478631 -0.00107775)
(0.094483 -0.000396201 -0.000989709)
(0.104091 -0.000402615 -0.00126354)
(0.0980753 -0.000504683 -0.000999743)
(0.0942363 -0.000405955 -0.00091698)
(0.104062 -0.000422823 -0.00117985)
(0.0979348 -0.000521349 -0.000935017)
(0.094025 -0.000409018 -0.000855729)
(0.104055 -0.000435719 -0.00110974)
(0.0978174 -0.000530032 -0.000881194)
(0.0938445 -0.000406944 -0.000811453)
(0.104069 -0.000442459 -0.00105264)
(0.0977172 -0.00053218 -0.00083668)
(0.0936777 -0.000400627 -0.000771438)
(0.104098 -0.000443946 -0.00100475)
(0.0976308 -0.000529373 -0.000801166)
(0.0935356 -0.000391535 -0.00074313)
(0.104143 -0.000441686 -0.000966074)
(0.0975534 -0.000523062 -0.000771847)
(0.0933894 -0.000380695 -0.000720269)
(0.104194 -0.000436791 -0.0009356)
(0.0974817 -0.0005144 -0.000746404)
(0.0932578 -0.000368663 -0.00069691)
(0.104255 -0.000429572 -0.000909046)
(0.0974139 -0.000502685 -0.000720848)
(0.0931183 -0.00035657 -0.000677047)
(0.10432 -0.000420409 -0.000886362)
(0.0973488 -0.000489513 -0.000700854)
(0.0929926 -0.000341598 -0.000656362)
(0.104387 -0.000408223 -0.000864265)
(0.0928547 -0.000328008 -0.000650418)
(0.104458 -0.00039668 -0.000853827)
(0.091161 -0.000324087 -0.000930292)
(0.0834885 -0.000219036 -0.000770158)
(0.0977786 -0.000258311 -0.0011859)
(0.090828 -0.000312107 -0.000863635)
(0.0830133 -0.000193962 -0.000708296)
(0.0975912 -0.000232507 -0.00110225)
(0.0905427 -0.000298552 -0.000809331)
(0.0825989 -0.000171654 -0.000667079)
(0.0974435 -0.0002062 -0.00103326)
(0.0902948 -0.00028419 -0.000767634)
(0.0822132 -0.000152474 -0.00063522)
(0.0973309 -0.000180983 -0.000976712)
(0.0900721 -0.000269344 -0.000734755)
(0.0818593 -0.000136897 -0.000614597)
(0.0972423 -0.000158203 -0.000938149)
(0.0898668 -0.000254241 -0.000708019)
(0.0815144 -0.000122687 -0.00059246)
(0.0971672 -0.000136716 -0.000906256)
(0.0896699 -0.000239752 -0.000688935)
(0.081187 -0.000110466 -0.000574652)
(0.0971098 -0.000117278 -0.000883219)
(0.0894759 -0.000225397 -0.000669254)
(0.08086 -9.99121e-05 -0.000555279)
(0.0970509 -0.000100114 -0.000861966)
(0.0892832 -0.000211268 -0.000649821)
(0.0805447 -8.91872e-05 -0.000532645)
(0.0970035 -8.38299e-05 -0.000840026)
(0.0890907 -0.000197336 -0.000632756)
(0.0802247 -7.90198e-05 -0.000516147)
(0.0969517 -6.84177e-05 -0.000826332)
(0.088897 -0.000184039 -0.000622982)
(0.0799167 -6.93016e-05 -0.000506167)
(0.0969056 -5.42689e-05 -0.000815907)
(0.0795911 -6.09694e-05 -0.000507536)
(0.0968484 -4.23429e-05 -0.00081441)
(0.0764312 -0.000141046 -0.000517828)
(0.0599643 -2.69697e-05 -0.000347456)
(0.0845096 -6.52049e-05 -0.000776974)
(0.0758908 -0.000116031 -0.000465484)
(0.0593974 -1.29268e-05 -0.000316911)
(0.0841076 -2.2458e-05 -0.000714543)
(0.0753909 -9.65806e-05 -0.000432445)
(0.0588771 -5.94038e-06 -0.000297202)
(0.0837433 1.32949e-05 -0.000669832)
(0.0749168 -8.10767e-05 -0.000412468)
(0.0583655 -3.90453e-06 -0.000281594)
(0.0834027 4.17753e-05 -0.000636114)
(0.0744576 -6.8321e-05 -0.000397565)
(0.0578857 -2.6891e-06 -0.000269945)
(0.0830761 6.57318e-05 -0.000611624)
(0.0740089 -5.74906e-05 -0.000382228)
(0.0574153 -1.78325e-06 -0.000256833)
(0.0827597 8.45679e-05 -0.000589099)
(0.0735686 -4.81494e-05 -0.000365053)
(0.0569629 2.44052e-07 -0.00024521)
(0.0824449 0.000100683 -0.000568987)
(0.0731373 -3.99598e-05 -0.000344098)
(0.0565216 2.37589e-06 -0.000233146)
(0.0821356 0.000113539 -0.000548566)
(0.0727141 -3.22001e-05 -0.000325188)
(0.0560935 3.77793e-06 -0.000220501)
(0.0818264 0.000123921 -0.000528828)
(0.0722937 -2.42837e-05 -0.000317477)
(0.0556669 4.70837e-06 -0.000212102)
(0.0815168 0.00013231 -0.000515625)
(0.0718719 -1.56218e-05 -0.000323124)
(0.0552523 6.37833e-06 -0.000209997)
(0.0812104 0.00013967 -0.000512735)
(0.0548338 9.64957e-06 -0.000212381)
(0.0808887 0.000146551 -0.000515722)
(0.0463737 0.000103736 -0.00024202)
(0.0543151 0.000219081 -0.000357632)
(0.0458308 0.000110506 -0.000254703)
(0.0537316 0.000239811 -0.000374226)
(0.0453018 0.000110465 -0.000264495)
(0.0531836 0.000251211 -0.000387479)
(0.0447917 0.000106615 -0.000267465)
(0.0526247 0.00025569 -0.00039169)
(0.0443009 0.000102113 -0.000264851)
(0.0520977 0.000256995 -0.000388158)
(0.0438307 9.84063e-05 -0.000259558)
(0.0515657 0.000256928 -0.000381619)
(0.0433774 9.56337e-05 -0.000253857)
(0.0510592 0.000256067 -0.000374626)
(0.0429384 9.25223e-05 -0.000248798)
(0.0505492 0.000254037 -0.000368798)
(0.042511 8.8399e-05 -0.000244829)
(0.0500601 0.000249832 -0.000365278)
(0.0420894 8.37106e-05 -0.000240002)
(0.0495589 0.00024469 -0.000363026)
(0.0416772 7.90117e-05 -0.000231076)
(0.0490788 0.000233701 -0.00034758)
(0.0485959 0.000216527 -0.000318583)
(0.114413 -0.000645382 -0.000937172)
(0.11371 -0.000528578 -0.00110091)
(0.116673 -0.00057236 -0.000814042)
(0.11472 -0.000678636 -0.000929865)
(0.113984 -0.000565902 -0.00106774)
(0.117037 -0.000591912 -0.000804181)
(0.115016 -0.000708669 -0.000922262)
(0.114252 -0.000598411 -0.00103826)
(0.117391 -0.000609926 -0.000794537)
(0.115303 -0.000735698 -0.000914593)
(0.114515 -0.000626254 -0.00101232)
(0.117735 -0.00062629 -0.000785335)
(0.115582 -0.000759857 -0.00090702)
(0.114775 -0.000650069 -0.000989814)
(0.118072 -0.000641204 -0.000776607)
(0.115855 -0.000780761 -0.00089979)
(0.115032 -0.000670399 -0.000970508)
(0.118403 -0.000654499 -0.000768455)
(0.116123 -0.000798242 -0.000893012)
(0.115288 -0.000687115 -0.00095382)
(0.118729 -0.000665832 -0.000761034)
(0.116387 -0.000812231 -0.000886519)
(0.115543 -0.000700344 -0.000939145)
(0.119051 -0.000675221 -0.000754273)
(0.116647 -0.00082315 -0.000880616)
(0.115796 -0.000709959 -0.000926347)
(0.11937 -0.000682397 -0.000748009)
(0.116905 -0.000830969 -0.000874485)
(0.116049 -0.000716576 -0.000916144)
(0.119686 -0.00068813 -0.000742829)
(0.1163 -0.000719004 -0.000906577)
(0.119999 -0.000691384 -0.000736802)
(0.11329 -0.00045165 -0.00122839)
(0.111759 -0.000367316 -0.00131118)
(0.115729 -0.000334587 -0.00114436)
(0.113524 -0.000487501 -0.001174)
(0.111944 -0.000390292 -0.0012394)
(0.116033 -0.000357964 -0.00109181)
(0.113759 -0.000517248 -0.00112696)
(0.112138 -0.000408119 -0.00117869)
(0.116335 -0.000377298 -0.001046)
(0.113996 -0.000541448 -0.00108681)
(0.112338 -0.00042121 -0.00112814)
(0.116636 -0.000392909 -0.00100652)
(0.114234 -0.000561123 -0.00105305)
(0.112547 -0.000430372 -0.0010864)
(0.116936 -0.000405325 -0.000972925)
(0.114475 -0.00057703 -0.00102467)
(0.112762 -0.000436594 -0.00105133)
(0.117236 -0.000415253 -0.000944515)
(0.114718 -0.000589318 -0.0010004)
(0.112983 -0.000440428 -0.00102222)
(0.117537 -0.000422889 -0.000920248)
(0.114962 -0.000597874 -0.000979814)
(0.113207 -0.000441694 -0.000997206)
(0.117839 -0.000428232 -0.00089939)
(0.115208 -0.000602805 -0.000963164)
(0.113437 -0.000440151 -0.000977518)
(0.118141 -0.000431054 -0.000882225)
(0.115454 -0.000603953 -0.000949686)
(0.113665 -0.0004362 -0.00096262)
(0.118443 -0.000431569 -0.000869019)
(0.113898 -0.000429935 -0.000952921)
(0.118746 -0.000429503 -0.000858284)
(0.110474 -0.000306396 -0.00132282)
(0.107595 -0.000210303 -0.00130944)
(0.113135 -0.000163473 -0.00128124)
(0.11062 -0.000311615 -0.0012456)
(0.107676 -0.000193896 -0.00123005)
(0.113357 -0.000158977 -0.00120643)
(0.110781 -0.000313166 -0.00118196)
(0.10778 -0.000177028 -0.00116565)
(0.113587 -0.0001526 -0.001144)
(0.110955 -0.000311758 -0.00113008)
(0.107896 -0.000159919 -0.00111565)
(0.113825 -0.000144886 -0.00109291)
(0.111141 -0.000308011 -0.00108717)
(0.108028 -0.00014358 -0.0010773)
(0.114072 -0.000136578 -0.00105128)
(0.111337 -0.000302438 -0.00105171)
(0.108167 -0.000127465 -0.00104408)
(0.114324 -0.000127848 -0.00101652)
(0.111541 -0.000295498 -0.00102214)
(0.108316 -0.000112473 -0.00101363)
(0.114582 -0.000118786 -0.000987687)
(0.11175 -0.000287405 -0.000997727)
(0.108472 -9.84752e-05 -0.000986829)
(0.114844 -0.000109521 -0.000963099)
(0.111964 -0.000278039 -0.000979086)
(0.108635 -8.48619e-05 -0.000971049)
(0.115109 -0.000100317 -0.000944399)
(0.112179 -0.000267739 -0.000967122)
(0.108791 -7.16022e-05 -0.000961148)
(0.115374 -9.03945e-05 -0.000931282)
(0.108953 -5.98339e-05 -0.000956742)
(0.115642 -8.10514e-05 -0.000924509)
(0.104984 -0.000127133 -0.00132229)
(0.098943 -1.81005e-05 -0.00118139)
(0.107862 -1.04461e-06 -0.0013049)
(0.105001 -8.78538e-05 -0.00124024)
(0.0988391 3.6121e-05 -0.00110955)
(0.10797 4.86487e-05 -0.00122755)
(0.105044 -5.10148e-05 -0.00117319)
(0.0987485 8.38124e-05 -0.0010515)
(0.108091 9.40603e-05 -0.00116412)
(0.105106 -1.73663e-05 -0.00112135)
(0.0986874 0.000124664 -0.00100335)
(0.108227 0.000135038 -0.00111418)
(0.105184 1.28902e-05 -0.00108356)
(0.09863 0.000159403 -0.000965782)
(0.108369 0.00017084 -0.00107735)
(0.105272 4.01211e-05 -0.00105372)
(0.0985873 0.000188523 -0.000935661)
(0.108521 0.000202349 -0.0010509)
(0.105369 6.44171e-05 -0.00102466)
(0.0985443 0.000213434 -0.000910355)
(0.108676 0.00022957 -0.00102855)
(0.105474 8.5834e-05 -0.000996815)
(0.0985055 0.000234474 -0.000886343)
(0.108836 0.000253385 -0.00100643)
(0.105585 0.000104845 -0.000978311)
(0.0984651 0.000251825 -0.000866134)
(0.108997 0.000274053 -0.000986507)
(0.105696 0.000121426 -0.000970137)
(0.0984251 0.000265277 -0.000853025)
(0.109163 0.000291949 -0.000976298)
(0.105802 0.000135144 -0.000966486)
(0.0983809 0.000275187 -0.000844441)
(0.109319 0.00030722 -0.000973132)
(0.0983282 0.000281756 -0.000838321)
(0.109476 0.00031837 -0.000973638)
(0.0934451 9.6059e-05 -0.000941682)
(0.077506 0.0002261 -0.000692936)
(0.0970398 0.000195904 -0.000947693)
(0.0932446 0.000152363 -0.000885319)
(0.0770828 0.00026898 -0.000665808)
(0.0969439 0.000264905 -0.000892972)
(0.0930629 0.000199085 -0.000839157)
(0.0766838 0.000300469 -0.000644052)
(0.0968426 0.000322561 -0.000852898)
(0.0928939 0.000237448 -0.00080018)
(0.0762848 0.000322941 -0.000622109)
(0.0967544 0.000369602 -0.000821318)
(0.0927313 0.000268728 -0.000767044)
(0.0759 0.000339586 -0.000600985)
(0.0966557 0.00040723 -0.000797624)
(0.0925701 0.000293838 -0.000738972)
(0.0755078 0.000352217 -0.000580859)
(0.0965611 0.000437652 -0.000777352)
(0.0924064 0.000313939 -0.000716006)
(0.0751264 0.000360997 -0.000563397)
(0.0964545 0.000461147 -0.000761795)
(0.0922373 0.000329547 -0.000696914)
(0.0747332 0.000366388 -0.000548587)
(0.096345 0.000480915 -0.000751589)
(0.0920625 0.000341485 -0.000681592)
(0.0743491 0.000368787 -0.000537926)
(0.0962209 0.000494998 -0.000741816)
(0.0918839 0.000350379 -0.000670459)
(0.0739482 0.000370064 -0.000531438)
(0.0960936 0.00050696 -0.000734633)
(0.091696 0.000356126 -0.000662969)
(0.0735617 0.000363705 -0.000514703)
(0.0959549 0.000513985 -0.000728977)
(0.0731613 0.000348772 -0.000486243)
(0.095807 0.000515709 -0.000722771)
(0.0635426 0.000395793 -0.000486746)
(0.0688018 0.00046914 -0.000460338)
(0.0629522 0.00042428 -0.000501574)
(0.0682053 0.000512179 -0.000480121)
(0.0623676 0.000441406 -0.000511518)
(0.0676196 0.000541906 -0.000498129)
(0.0617861 0.000450965 -0.000514427)
(0.0670086 0.000561705 -0.000513213)
(0.0612058 0.000456255 -0.000512146)
(0.0664047 0.000574964 -0.000523582)
(0.0606264 0.000458647 -0.000507552)
(0.0657776 0.000583808 -0.00053084)
(0.0600484 0.000458115 -0.000502757)
(0.0651595 0.000588716 -0.000535487)
(0.0594719 0.000454673 -0.000499638)
(0.0645222 0.00058883 -0.000538912)
(0.0588965 0.000449124 -0.000498745)
(0.0639014 0.000585627 -0.000542254)
(0.0583192 0.000436483 -0.000486149)
(0.0632593 0.000579951 -0.000546686)
(0.0577496 0.000410429 -0.000448374)
(0.0626419 0.000564193 -0.00053695)
(0.0620169 0.000537805 -0.000511841)
(0.119435 -0.000526548 -0.000687391)
(0.118828 -0.000382272 -0.000867121)
(0.119848 -0.000530398 -0.000675481)
(0.119226 -0.000388161 -0.000837766)
(0.120253 -0.000534344 -0.000664526)
(0.119617 -0.000393204 -0.000811734)
(0.120651 -0.000538266 -0.000654572)
(0.120002 -0.000397484 -0.000788951)
(0.121043 -0.000542069 -0.000645602)
(0.120382 -0.00040109 -0.000769183)
(0.12143 -0.00054561 -0.000637591)
(0.120759 -0.00040407 -0.000752117)
(0.121813 -0.000548724 -0.000630498)
(0.121134 -0.000406395 -0.000737381)
(0.122193 -0.000551229 -0.000624267)
(0.121506 -0.000407971 -0.000724725)
(0.12257 -0.000553195 -0.00061901)
(0.121876 -0.000408607 -0.000714149)
(0.122946 -0.000554409 -0.000614248)
(0.122245 -0.000408488 -0.000706066)
(0.122613 -0.000407184 -0.000699091)
(0.118624 -0.000245428 -0.00101565)
(0.117216 -0.00013282 -0.00112531)
(0.119666 -0.000109348 -0.000871151)
(0.119 -0.000252021 -0.000972764)
(0.11756 -0.000128236 -0.0010707)
(0.120081 -0.000112705 -0.000836559)
(0.119371 -0.000256987 -0.000935412)
(0.117902 -0.000122737 -0.00102403)
(0.120489 -0.000115052 -0.000806265)
(0.119739 -0.00026062 -0.000903236)
(0.118243 -0.000116833 -0.000984744)
(0.120891 -0.000116602 -0.000780098)
(0.120104 -0.000263188 -0.000875676)
(0.118584 -0.000110943 -0.000951966)
(0.121289 -0.000117538 -0.000757735)
(0.120469 -0.000264858 -0.000852069)
(0.118925 -0.000105455 -0.000924501)
(0.121684 -0.000118012 -0.000738708)
(0.120832 -0.000265626 -0.000831876)
(0.119266 -0.000100201 -0.000901227)
(0.122076 -0.000118045 -0.000722507)
(0.121194 -0.000265307 -0.000814977)
(0.119607 -9.48925e-05 -0.000881597)
(0.122466 -0.000117582 -0.000708817)
(0.121556 -0.000263791 -0.0008017)
(0.119948 -8.92689e-05 -0.00086615)
(0.122853 -0.000116475 -0.000697717)
(0.121918 -0.000261108 -0.000791497)
(0.120289 -8.31473e-05 -0.000855848)
(0.12324 -0.000114783 -0.000689626)
(0.12063 -7.68402e-05 -0.000848718)
(0.123626 -0.000112431 -0.000683121)
(0.116197 -1.89567e-05 -0.00117814)
(0.113537 8.33073e-05 -0.00119803)
(0.117283 0.000132668 -0.0010544)
(0.116508 -2.93281e-06 -0.00111982)
(0.113801 0.000118136 -0.0011406)
(0.117639 0.000147442 -0.00100976)
(0.116821 1.27556e-05 -0.00107114)
(0.114066 0.000150036 -0.00109402)
(0.117991 0.000161565 -0.000972621)
(0.117136 2.75174e-05 -0.00103109)
(0.114332 0.00017834 -0.00105723)
(0.118341 0.000174709 -0.000942201)
(0.117453 4.08969e-05 -0.000998245)
(0.114601 0.000203194 -0.00102859)
(0.118689 0.000186623 -0.000917583)
(0.117771 5.2886e-05 -0.000971019)
(0.114869 0.000224228 -0.00100538)
(0.119036 0.000197228 -0.000897456)
(0.118091 6.38422e-05 -0.000948207)
(0.115139 0.000242418 -0.00098601)
(0.119383 0.000206722 -0.000880834)
(0.118411 7.40609e-05 -0.000929857)
(0.115407 0.000258067 -0.000969296)
(0.119727 0.000215286 -0.000867094)
(0.118731 8.37381e-05 -0.000917002)
(0.115675 0.000272201 -0.000957669)
(0.120071 0.000222968 -0.000856777)
(0.119052 9.27178e-05 -0.000909123)
(0.115939 0.000284804 -0.000953508)
(0.120414 0.000229694 -0.000850967)
(0.116203 0.000294721 -0.000951847)
(0.120756 0.000235403 -0.000847515)
(0.111076 0.000170675 -0.00123234)
(0.105691 0.000252756 -0.00111811)
(0.112178 0.00031294 -0.00110909)
(0.111295 0.000226854 -0.00117499)
(0.105807 0.000323827 -0.00106807)
(0.112452 0.000364876 -0.00107211)
(0.111515 0.00027695 -0.00112939)
(0.105914 0.000384854 -0.00103055)
(0.112719 0.000410595 -0.00104372)
(0.111737 0.000320814 -0.0010945)
(0.106018 0.000436648 -0.00100314)
(0.112982 0.000450531 -0.00102306)
(0.11196 0.000358574 -0.00106876)
(0.106113 0.000479336 -0.000982993)
(0.113239 0.000484767 -0.00100894)
(0.112183 0.000390665 -0.0010495)
(0.106207 0.000514746 -0.000968744)
(0.113493 0.000513716 -0.0010001)
(0.112406 0.00041778 -0.00103413)
(0.10629 0.000543412 -0.000957536)
(0.113743 0.000538142 -0.000993837)
(0.112628 0.000440643 -0.00102092)
(0.10637 0.000568478 -0.000952056)
(0.113989 0.000558682 -0.000989298)
(0.112845 0.000459693 -0.00101044)
(0.106438 0.000587299 -0.000945162)
(0.114229 0.000575483 -0.000985763)
(0.113061 0.000475688 -0.00100635)
(0.106506 0.000602555 -0.000941709)
(0.114468 0.000588084 -0.000985594)
(0.11327 0.000488413 -0.00100741)
(0.106556 0.000612807 -0.000940018)
(0.114698 0.000597914 -0.000990252)
(0.106607 0.000617949 -0.000936285)
(0.114926 0.00060473 -0.00099421)
(0.100892 0.000361813 -0.000928264)
(0.0868211 0.000439488 -0.000715306)
(0.102317 0.000458618 -0.000844349)
(0.100904 0.000432322 -0.000891767)
(0.0865229 0.000498438 -0.000703598)
(0.102397 0.000525456 -0.00083194)
(0.100905 0.000490889 -0.00086724)
(0.0862044 0.000544874 -0.000698378)
(0.102452 0.000580676 -0.000828079)
(0.100894 0.000538422 -0.000850461)
(0.0858701 0.000581536 -0.000698119)
(0.10249 0.000625823 -0.000829528)
(0.100871 0.00057653 -0.000838683)
(0.0855174 0.000609777 -0.000699222)
(0.102506 0.000661571 -0.000833159)
(0.100836 0.000606631 -0.000829794)
(0.0851509 0.000631643 -0.000701111)
(0.102509 0.000690176 -0.000838299)
(0.100789 0.000631215 -0.000825548)
(0.0847707 0.000647172 -0.00070172)
(0.102492 0.000711955 -0.000842871)
(0.10073 0.000650526 -0.000823756)
(0.084379 0.00065799 -0.00070312)
(0.102465 0.000729754 -0.000850226)
(0.100659 0.000664902 -0.000822491)
(0.0839815 0.000663701 -0.000702386)
(0.102419 0.000741702 -0.000854908)
(0.100576 0.000674907 -0.000821535)
(0.0835755 0.000667014 -0.000702032)
(0.102367 0.000749632 -0.000860366)
(0.100482 0.0006785 -0.000815918)
(0.0831702 0.000665061 -0.000696314)
(0.102296 0.000751038 -0.000859775)
(0.0827627 0.000657137 -0.000684162)
(0.102223 0.000749948 -0.000855987)
(0.0741485 0.000567513 -0.000522046)
(0.076852 0.00058238 -0.00051223)
(0.0735579 0.000611952 -0.000547683)
(0.0763129 0.000634795 -0.000554641)
(0.0729434 0.000645092 -0.000572456)
(0.0757374 0.000673422 -0.00059091)
(0.072307 0.000670015 -0.000595309)
(0.0751303 0.000703088 -0.000622656)
(0.0716512 0.000688508 -0.000614744)
(0.074498 0.000725745 -0.000649297)
(0.0709792 0.000701497 -0.000630407)
(0.0738428 0.00074286 -0.000670419)
(0.0702953 0.000708843 -0.000641379)
(0.073173 0.000754751 -0.000686635)
(0.0696044 0.000711141 -0.000648344)
(0.0724875 0.000761637 -0.000696054)
(0.0689117 0.000710218 -0.000652552)
(0.0718011 0.000764641 -0.0007019)
(0.0682231 0.000705875 -0.000651722)
(0.0711034 0.000766489 -0.000702085)
(0.0675427 0.000696507 -0.000643767)
(0.0704157 0.00076662 -0.000693119)
(0.0697215 0.000762626 -0.000677362)
(0.121165 2.75821e-05 -0.000687023)
(0.119735 0.000164883 -0.000795626)
(0.121299 0.000198759 -0.000505552)
(0.121614 2.86923e-05 -0.000665255)
(0.120162 0.000172361 -0.000771433)
(0.121763 0.000194846 -0.000491359)
(0.122054 2.99829e-05 -0.000646299)
(0.120581 0.000179314 -0.000751054)
(0.122217 0.000191477 -0.000478911)
(0.122488 3.13591e-05 -0.000630024)
(0.120993 0.000185681 -0.000734153)
(0.122663 0.000188625 -0.000468152)
(0.122916 3.27562e-05 -0.000616201)
(0.121398 0.000191412 -0.000720309)
(0.123103 0.000186228 -0.000458978)
(0.123339 3.41632e-05 -0.000604532)
(0.1218 0.000196553 -0.000708996)
(0.123537 0.000184237 -0.00045122)
(0.123758 3.5602e-05 -0.000594746)
(0.122197 0.000201184 -0.000699735)
(0.123966 0.000182619 -0.000444677)
(0.124174 3.70986e-05 -0.000586714)
(0.122591 0.000205404 -0.000692206)
(0.124392 0.000181362 -0.000439191)
(0.124587 3.86712e-05 -0.000580546)
(0.122981 0.000209201 -0.000686411)
(0.124814 0.000180466 -0.000434722)
(0.124999 4.02923e-05 -0.00057589)
(0.12337 0.000212529 -0.000682896)
(0.125233 0.00017999 -0.000431443)
(0.123756 0.000215068 -0.000680379)
(0.12565 0.000179649 -0.000428664)
(0.118772 0.000306665 -0.0008783)
(0.116105 0.000416404 -0.000907263)
(0.118896 0.000495748 -0.000707774)
(0.11917 0.000319592 -0.000855342)
(0.116463 0.000442094 -0.000892757)
(0.119306 0.000496178 -0.00069704)
(0.119561 0.000331235 -0.000836823)
(0.116812 0.000464487 -0.000882598)
(0.119708 0.00049651 -0.000688749)
(0.119946 0.00034158 -0.000822127)
(0.117151 0.000483698 -0.000875991)
(0.120102 0.000496773 -0.000682501)
(0.120326 0.00035069 -0.000810548)
(0.117484 0.000499937 -0.000872185)
(0.12049 0.00049693 -0.000677926)
(0.120702 0.000358703 -0.000801388)
(0.11781 0.000513577 -0.000870185)