/*--------------------------------*- C++ -*----------------------------------*\
| =========                 |                                                 |
| \\      /  F ield         | OpenFOAM: The Open Source CFD Toolbox           |
|  \\    /   O peration     | Version:  2212                                  |
|   \\  /    A nd           | Website:  www.openfoam.com                      |
|    \\/     M anipulation  |                                                 |
\*---------------------------------------------------------------------------*/
FoamFile
{
    version     2.0;
    format      ascii;
    arch        "LSB;label=32;scalar=64";
    class       surfaceScalarField;
    location    "1.35";
    object      phi;
}
// * * * * * * * * * * * * * * * * * * * * * * * * * * * * * * * * * * * * * //

dimensions      [0 3 -1 0 0 0 0];

oriented        oriented;

internalField   nonuniform List<scalar> 
1755
(
5.73085e-08
-3.40235e-08
3.46427e-08
5.66876e-08
-3.40378e-08
3.46587e-08
5.60632e-08
-3.40583e-08
3.46828e-08
5.54462e-08
-3.40835e-08
3.47005e-08
-3.41081e-08
3.4705e-08
1.87016e-07
-6.40435e-08
3.18931e-08
1.85181e-07
-6.41153e-08
3.19131e-08
1.83387e-07
-6.42228e-08
3.19576e-08
1.81624e-07
-6.43134e-08
3.1993e-08
-6.43528e-08
3.19928e-08
3.66904e-07
-8.88742e-08
2.83908e-08
3.63414e-07
-8.89932e-08
2.83672e-08
3.60041e-07
-8.91771e-08
2.83275e-08
3.5676e-07
-8.93179e-08
2.82863e-08
-8.94179e-08
2.82865e-08
5.23319e-07
-1.07061e-07
2.33559e-08
5.18319e-07
-1.07151e-07
2.31581e-08
5.13548e-07
-1.07295e-07
2.28888e-08
5.08941e-07
-1.07415e-07
2.27042e-08
5.04441e-07
-1.07508e-07
2.25897e-08
-1.07554e-07
2.24104e-08
6.27959e-07
-1.17153e-07
1.62813e-08
6.21915e-07
-1.17253e-07
1.61461e-08
6.15998e-07
-1.1736e-07
1.59821e-08
6.10191e-07
-1.17442e-07
1.58346e-08
6.04485e-07
-1.1751e-07
1.5708e-08
-1.17541e-07
1.553e-08
6.55077e-07
-1.18277e-07
7.24706e-09
6.49018e-07
-1.18314e-07
7.12016e-09
6.42994e-07
-1.18312e-07
6.97635e-09
6.37006e-07
-1.18281e-07
6.82703e-09
6.31069e-07
-1.18251e-07
6.67807e-09
6.25291e-07
-1.18245e-07
6.48143e-09
-1.18237e-07
6.0152e-07
-1.09677e-07
-3.04451e-09
5.95989e-07
-1.09639e-07
-3.144e-09
5.90542e-07
-1.09549e-07
-3.31627e-09
5.8524e-07
-1.09438e-07
-3.54083e-09
5.80072e-07
-1.09325e-07
-3.75817e-09
5.75082e-07
-1.09212e-07
-4.04364e-09
-1.09155e-07
4.85439e-07
-9.17004e-08
-1.35942e-08
4.8107e-07
-9.16342e-08
-1.3636e-08
4.76749e-07
-9.15395e-08
-1.36888e-08
4.72461e-07
-9.1451e-08
-1.36996e-08
4.68186e-07
-9.13787e-08
-1.36706e-08
4.64007e-07
-9.1288e-08
-1.37454e-08
-9.12034e-08
-1.39013e-08
3.32031e-07
-6.62553e-08
-2.2151e-08
3.28772e-07
-6.62206e-08
-2.21545e-08
3.25574e-07
-6.61735e-08
-2.21678e-08
3.22428e-07
-6.6125e-08
-2.21802e-08
3.19315e-07
-6.60822e-08
-2.21832e-08
3.16336e-07
-6.60317e-08
-2.22771e-08
-2.24087e-08
1.74288e-07
-3.46461e-08
-2.98329e-08
1.72524e-07
-3.46643e-08
-2.97922e-08
1.70771e-07
-3.46888e-08
-2.97319e-08
1.69047e-07
-3.47055e-08
-2.96947e-08
1.67343e-07
-3.47193e-08
-2.96594e-08
-3.47184e-08
-2.9704e-08
5.73086e-08
-3.40275e-08
5.66886e-08
-3.40442e-08
5.60677e-08
-3.40679e-08
5.54599e-08
-3.40977e-08
5.48669e-08
-3.41263e-08
-3.41745e-08
1.74338e-07
-2.98345e-08
6.62528e-08
1.72575e-07
-2.97911e-08
6.62132e-08
1.70814e-07
-2.97237e-08
6.61673e-08
1.69053e-07
-2.96682e-08
6.61301e-08
1.67305e-07
-2.96651e-08
6.61175e-08
6.60383e-08
4.78342e-07
-5.52353e-08
6.07152e-08
4.74918e-07
-5.51894e-08
6.07354e-08
4.71513e-07
-5.51246e-08
6.07628e-08
4.68106e-07
-5.50619e-08
6.0794e-08
-5.50341e-08
6.07825e-08
7.97608e-07
-7.72336e-08
5.27014e-08
7.95198e-07
-7.7154e-08
5.27423e-08
7.92691e-07
-7.70736e-08
5.27827e-08
7.90104e-07
-7.70152e-08
5.2827e-08
7.87419e-07
-7.69567e-08
5.28943e-08
-7.70679e-08
5.27371e-08
1.02645e-06
-9.32891e-08
4.07916e-08
1.02497e-06
-9.32648e-08
4.07475e-08
1.02333e-06
-9.32484e-08
4.07069e-08
1.02155e-06
-9.32323e-08
4.06951e-08
1.01971e-06
-9.32085e-08
4.06888e-08
-9.32845e-08
4.04483e-08
1.16109e-06
-1.02051e-07
2.62126e-08
1.1599e-06
-1.02058e-07
2.61339e-08
1.15865e-06
-1.02066e-07
2.60459e-08
1.15735e-06
-1.0207e-07
2.59721e-08
1.15606e-06
-1.02074e-07
2.58656e-08
-1.02124e-07
2.55772e-08
1.1976e-06
-1.03137e-07
9.27314e-09
1.19668e-06
-1.03181e-07
9.16947e-09
1.19576e-06
-1.0322e-07
9.04912e-09
1.19483e-06
-1.03254e-07
8.93684e-09
1.19393e-06
-1.03289e-07
8.78991e-09
-1.03297e-07
8.47248e-09
1.1403e-06
-9.66396e-08
-9.01202e-09
1.13977e-06
-9.67247e-08
-9.07391e-09
1.1392e-06
-9.68147e-08
-9.15147e-09
1.13853e-06
-9.69198e-08
-9.20109e-09
1.13779e-06
-9.70345e-08
-9.26858e-09
-9.70609e-08
-9.56497e-09
9.97671e-07
-8.27112e-08
-2.65871e-08
9.96631e-07
-8.27776e-08
-2.65429e-08
9.95462e-07
-8.28227e-08
-2.65114e-08
9.94149e-07
-8.28594e-08
-2.64471e-08
9.92702e-07
-8.2914e-08
-2.63441e-08
9.91205e-07
-8.28783e-08
-2.64307e-08
-8.27384e-08
7.71726e-07
-6.07069e-08
-4.16324e-08
7.69066e-07
-6.07351e-08
-4.1537e-08
7.66297e-07
-6.07629e-08
-4.14587e-08
7.63428e-07
-6.07748e-08
-4.13961e-08
7.6046e-07
-6.08065e-08
-4.1322e-08
7.57452e-07
-6.07466e-08
-4.14008e-08
-6.05755e-08
4.78281e-07
-3.1891e-08
-5.52306e-08
4.74858e-07
-3.1913e-08
-5.5191e-08
4.71458e-07
-3.19564e-08
-5.51386e-08
4.68073e-07
-3.19802e-08
-5.5104e-08
4.64665e-07
-3.20083e-08
-5.50498e-08
4.61305e-07
-3.19687e-08
-5.5122e-08
-5.53206e-08
1.87063e-07
-6.40532e-08
1.85234e-07
-6.41282e-08
1.83451e-07
-6.42407e-08
1.81718e-07
-6.43455e-08
1.80022e-07
-6.44388e-08
-6.45432e-08
3.32219e-07
-2.21523e-08
9.16899e-08
3.28973e-07
-2.21575e-08
9.16171e-08
3.2578e-07
-2.21642e-08
9.1524e-08
3.22621e-07
-2.21523e-08
9.1442e-08
3.19475e-07
-2.21221e-08
9.13855e-08
3.16478e-07
-2.2279e-08
9.13143e-08
9.11641e-08
7.7184e-07
-4.16409e-08
8.27148e-08
7.69191e-07
-4.15432e-08
8.27695e-08
7.66436e-07
-4.14559e-08
8.28098e-08
7.63604e-07
-4.13727e-08
8.28458e-08
7.60704e-07
-4.13086e-08
8.2869e-08
-4.14729e-08
8.27495e-08
1.13241e-06
-5.98024e-08
6.98337e-08
1.13334e-06
-5.96673e-08
6.99399e-08
1.13414e-06
-5.95287e-08
7.00536e-08
1.13483e-06
-5.93941e-08
7.01562e-08
1.13547e-06
-5.92866e-08
7.02311e-08
-5.94125e-08
7.0101e-08
1.37544e-06
-7.36253e-08
5.2106e-08
1.37795e-06
-7.35603e-08
5.21331e-08
1.38041e-06
-7.34712e-08
5.21823e-08
1.38282e-06
-7.33627e-08
5.22548e-08
1.3852e-06
-7.32612e-08
5.22851e-08
-7.3301e-08
5.21046e-08
1.51688e-06
-8.16881e-08
3.11266e-08
1.52002e-06
-8.16549e-08
3.10887e-08
1.52314e-06
-8.16141e-08
3.10683e-08
1.52627e-06
-8.15721e-08
3.10475e-08
1.52943e-06
-8.15383e-08
3.0984e-08
-8.15464e-08
3.07651e-08
1.5592e-06
-8.36485e-08
7.76477e-09
1.56269e-06
-8.36731e-08
7.69863e-09
1.56619e-06
-8.37174e-08
7.64865e-09
1.56974e-06
-8.37755e-08
7.58992e-09
1.57334e-06
-8.38277e-08
7.47674e-09
-8.38224e-08
7.22365e-09
1.50691e-06
-7.98149e-08
-1.64273e-08
1.51054e-06
-7.99014e-08
-1.64787e-08
1.51418e-06
-8.00074e-08
-1.64974e-08
1.51784e-06
-8.01305e-08
-1.65095e-08
1.52158e-06
-8.02467e-08
-1.65906e-08
-8.02397e-08
1.36536e-06
-6.9834e-08
-3.95742e-08
1.36838e-06
-6.99491e-08
-3.9522e-08
1.37138e-06
-7.0064e-08
-3.94475e-08
1.37432e-06
-7.01705e-08
-3.93473e-08
1.37726e-06
-7.02706e-08
-3.92677e-08
-7.01698e-08
-3.94105e-08
1.13246e-06
-5.27075e-08
-5.97868e-08
1.13338e-06
-5.27555e-08
-5.96569e-08
1.13418e-06
-5.27962e-08
-5.95211e-08
1.13484e-06
-5.28373e-08
-5.93931e-08
1.13544e-06
-5.29191e-08
-5.92701e-08
-5.28149e-08
-5.93539e-08
7.97612e-07
-2.83916e-08
-7.72284e-08
7.95193e-07
-2.83706e-08
-7.71562e-08
7.92669e-07
-2.83291e-08
-7.70822e-08
7.90032e-07
-2.82731e-08
-7.70312e-08
7.87274e-07
-2.82355e-08
-7.69747e-08
7.8451e-07
-2.81195e-08
-7.70535e-08
3.67045e-07
-8.88992e-08
3.63567e-07
-8.90209e-08
3.60203e-07
-8.92059e-08
3.56942e-07
-8.93573e-08
3.53761e-07
-8.9493e-08
-8.9592e-08
4.8574e-07
-1.35992e-08
1.09648e-07
4.81392e-07
-1.36493e-08
1.09614e-07
4.77086e-07
-1.37021e-08
1.09533e-07
4.72809e-07
-1.37029e-08
1.09422e-07
4.6855e-07
-1.36604e-08
1.09304e-07
4.64379e-07
-1.37294e-08
1.09215e-07
-1.39244e-08
9.97735e-07
-2.65875e-08
9.66298e-08
9.96689e-07
-2.65532e-08
9.67193e-08
9.95507e-07
-2.65145e-08
9.68042e-08
9.94188e-07
-2.6437e-08
9.68991e-08
9.92755e-07
-2.63474e-08
9.69885e-08
9.91264e-07
-2.64858e-08
9.6997e-08
1.36511e-06
-3.95578e-08
7.98405e-08
1.36812e-06
-3.95317e-08
7.99116e-08
1.3711e-06
-3.9459e-08
8.00132e-08
1.37405e-06
-3.93565e-08
8.01242e-08
1.37702e-06
-3.92988e-08
8.0218e-08
-3.94914e-08
1.61096e-06
-5.01138e-08
5.80367e-08
1.6156e-06
-5.00981e-08
5.80593e-08
1.62024e-06
-5.00352e-08
5.81269e-08
1.62487e-06
-4.99473e-08
5.82142e-08
1.62952e-06
-4.9916e-08
5.82511e-08
-5.00373e-08
1.7555e-06
-5.68848e-08
3.26107e-08
1.76077e-06
-5.68713e-08
3.25963e-08
1.76603e-06
-5.68454e-08
3.26154e-08
1.7713e-06
-5.68132e-08
3.26417e-08
1.77655e-06
-5.67997e-08
3.2617e-08
-5.6835e-08
1.80179e-06
-5.95071e-08
4.87252e-09
1.8073e-06
-5.95126e-08
4.83476e-09
1.81281e-06
-5.95388e-08
4.83256e-09
1.81832e-06
-5.95659e-08
4.82767e-09
1.8238e-06
-5.95592e-08
4.75522e-09
1.75251e-06
-5.80112e-08
-2.33288e-08
1.75792e-06
-5.80431e-08
-2.33595e-08
1.76334e-06
-5.8116e-08
-2.3341e-08
1.76879e-06
-5.81965e-08
-2.33269e-08
-5.82206e-08
-2.3396e-08
1.61103e-06
-5.21058e-08
-5.01167e-08
1.61568e-06
-5.21311e-08
-5.00883e-08
1.62032e-06
-5.21853e-08
-5.00101e-08
1.62494e-06
-5.22509e-08
-4.99176e-08
1.6296e-06
-5.22667e-08
-4.98751e-08
-5.2064e-08
1.37543e-06
-4.07976e-08
-7.36089e-08
1.37794e-06
-4.07586e-08
-7.35417e-08
1.38041e-06
-4.07269e-08
-7.34495e-08
1.38282e-06
-4.07177e-08
-7.3335e-08
1.38523e-06
-4.06991e-08
-7.32413e-08
-4.04244e-08
1.02648e-06
-2.33558e-08
-9.32871e-08
1.025e-06
-2.31675e-08
-9.3262e-08
1.02334e-06
-2.2904e-08
-9.32435e-08
1.02153e-06
-2.27146e-08
-9.32258e-08
1.01966e-06
-2.25726e-08
-9.3228e-08
-2.23693e-08
5.23588e-07
-1.07089e-07
5.18577e-07
-1.07177e-07
5.13784e-07
-1.07317e-07
5.09152e-07
-1.0744e-07
5.04636e-07
-1.0755e-07
-1.07565e-07
6.01929e-07
-3.07013e-09
1.18242e-07
5.96417e-07
-3.16961e-09
1.18295e-07
5.90963e-07
-3.32895e-09
1.18316e-07
5.85646e-07
-3.54427e-09
1.18283e-07
5.80487e-07
-3.77281e-09
1.18237e-07
-4.02877e-09
1.18237e-07
1.14021e-06
-9.02416e-09
1.03152e-07
1.13965e-06
-9.07888e-09
1.03186e-07
1.13906e-06
-9.14886e-09
1.03212e-07
1.13838e-06
-9.1975e-09
1.03234e-07
1.13764e-06
-9.31731e-09
1.03276e-07
1.03292e-07
1.50671e-06
-1.64393e-08
8.36865e-08
1.51033e-06
-1.64847e-08
8.36989e-08
1.51397e-06
-1.64976e-08
8.3722e-08
1.51767e-06
-1.65335e-08
8.37613e-08
-1.66997e-08
1.75238e-06
-2.33362e-08
5.95376e-08
1.75779e-06
-2.33727e-08
5.95332e-08
1.76323e-06
-2.33588e-08
5.9554e-08
1.76869e-06
-2.33675e-08
5.95885e-08
-2.34749e-08
1.89809e-06
-2.85007e-08
3.16507e-08
1.90419e-06
-2.85149e-08
3.16354e-08
1.91031e-06
-2.85087e-08
3.1643e-08
1.91644e-06
-2.85114e-08
3.16617e-08
-2.85473e-08
1.94631e-06
-3.16268e-08
1.65672e-09
1.95261e-06
-3.16215e-08
1.64195e-09
1.95892e-06
-3.16317e-08
1.6454e-09
1.96522e-06
-3.16349e-08
1.64794e-09
-3.16064e-08
1.62028e-09
1.89813e-06
-3.25941e-08
-2.8495e-08
1.90423e-06
-3.25802e-08
-2.85054e-08
1.91036e-06
-3.26039e-08
-2.84957e-08
1.91649e-06
-3.26103e-08
-2.84874e-08
-3.25213e-08
-2.85077e-08
1.7554e-06
-3.11173e-08
-5.68843e-08
1.76068e-06
-3.10844e-08
-5.68647e-08
1.76597e-06
-3.10706e-08
-5.68286e-08
1.77127e-06
-3.10333e-08
-5.6791e-08
-3.0863e-08
-5.67812e-08
1.51678e-06
-2.61964e-08
-8.16829e-08
1.51993e-06
-2.6141e-08
-8.16433e-08
1.52309e-06
-2.60768e-08
-8.15987e-08
1.52627e-06
-2.60018e-08
-8.15449e-08
-2.57775e-08
-8.15151e-08
1.16116e-06
-1.62815e-08
-1.02052e-07
1.15997e-06
-1.61573e-08
-1.02052e-07
1.15871e-06
-1.6008e-08
-1.02055e-07
1.15741e-06
-1.58726e-08
-1.02049e-07
-1.57072e-08
-1.02063e-07
6.28208e-07
-1.17152e-07
6.22129e-07
-1.17256e-07
6.16162e-07
-1.17358e-07
6.10292e-07
-1.17442e-07
6.04544e-07
-1.17509e-07
6.55421e-07
7.21817e-09
1.1717e-07
6.49342e-07
7.07993e-09
1.17295e-07
6.43308e-07
6.94025e-09
1.17409e-07
6.37335e-07
6.78009e-09
1.17476e-07
6.31452e-07
6.63442e-09
1.17485e-07
6.48716e-09
1.19765e-06
9.225e-09
1.02072e-07
1.19671e-06
9.12765e-09
1.0208e-07
1.19573e-06
9.04279e-09
1.02089e-07
1.19475e-06
8.88513e-09
1.02108e-07
1.19381e-06
1.02149e-07
1.55906e-06
7.72862e-09
8.17165e-08
1.56255e-06
7.67318e-09
8.16622e-08
1.56608e-06
7.62416e-09
8.16064e-08
7.46845e-09
8.1564e-08
1.80158e-06
4.84087e-09
5.69108e-08
1.80712e-06
4.80462e-09
5.68648e-08
1.81268e-06
4.7983e-09
5.68168e-08
4.70903e-09
5.67837e-08
1.94619e-06
1.63013e-09
2.85136e-08
1.95252e-06
1.61968e-09
2.84908e-08
1.95887e-06
1.6175e-09
2.84723e-08
1.57689e-09
2.84676e-08
1.99461e-06
-1.65469e-09
-1.64118e-09
2.00114e-06
-1.63806e-09
-1.63318e-09
2.00768e-06
-1.6385e-09
-1.63898e-09
2.01418e-06
-1.63685e-09
-1.63366e-09
-1.60266e-09
-1.58687e-09
1.94627e-06
-4.86357e-09
-3.16287e-08
1.95257e-06
-4.82191e-09
-3.16232e-08
1.95889e-06
-4.82092e-09
-3.16333e-08
1.9652e-06
-4.79492e-09
-3.16344e-08
-4.6657e-09
-3.15985e-08
1.80167e-06
-7.75153e-09
-5.95105e-08
1.80718e-06
-7.69018e-09
-5.95129e-08
1.81272e-06
-7.6502e-09
-5.95343e-08
1.81826e-06
-7.57092e-09
-5.95527e-08
-7.35753e-09
-5.95292e-08
1.55909e-06
-9.24984e-09
-8.36582e-08
1.5626e-06
-9.1642e-09
-8.36763e-08
1.56615e-06
-9.0935e-09
-8.37057e-08
1.56975e-06
-8.9787e-09
-8.37417e-08
-8.7002e-09
-8.37515e-08
1.19765e-06
-7.25501e-09
-1.03138e-07
1.19674e-06
-7.13249e-09
-1.03175e-07
1.19581e-06
-7.01446e-09
-1.0321e-07
1.1949e-06
-6.88526e-09
-1.03232e-07
-6.70564e-09
-1.03222e-07
6.55241e-07
-1.18241e-07
6.49142e-07
-1.18289e-07
6.43076e-07
-1.18307e-07
6.37039e-07
-1.1829e-07
-1.18272e-07
6.34549e-07
1.63696e-08
1.0705e-07
6.28357e-07
1.62544e-08
1.07107e-07
6.22311e-07
1.61007e-08
1.0724e-07
6.16383e-07
1.59528e-08
1.07385e-07
6.10555e-07
1.5823e-08
1.07482e-07
1.56646e-08
1.07533e-07
1.16236e-06
2.62691e-08
9.33166e-08
1.16119e-06
2.61922e-08
9.33044e-08
1.15997e-06
2.6122e-08
9.32742e-08
1.15868e-06
2.60704e-08
9.32617e-08
1.15738e-06
2.59792e-08
9.32597e-08
2.57218e-08
9.33246e-08
1.51363e-06
3.11386e-08
7.3706e-08
1.5168e-06
3.11028e-08
7.36404e-08
1.51995e-06
3.10928e-08
7.35405e-08
1.52312e-06
3.10848e-08
7.34252e-08
1.52632e-06
3.10274e-08
7.33163e-08
3.08286e-08
7.33281e-08
1.75002e-06
3.26006e-08
5.01502e-08
1.75532e-06
3.25756e-08
5.01414e-08
1.76061e-06
3.25932e-08
5.00705e-08
1.76592e-06
3.26227e-08
4.99713e-08
1.77123e-06
3.26091e-08
4.98913e-08
3.2482e-08
4.99562e-08
1.89185e-06
2.32972e-08
1.89799e-06
3.16053e-08
2.33405e-08
1.90411e-06
3.16321e-08
2.33343e-08
1.91024e-06
3.16511e-08
2.33133e-08
1.91636e-06
3.16465e-08
2.33125e-08
3.16005e-08
2.34249e-08
1.9462e-06
2.84803e-08
-4.85804e-09
1.95251e-06
2.8504e-08
-4.8202e-09
1.95884e-06
2.85079e-08
-4.82501e-09
1.96514e-06
2.85115e-08
-4.80314e-09
2.8545e-08
-4.67347e-09
1.89809e-06
2.33249e-08
-3.25966e-08
1.90419e-06
2.33618e-08
-3.25834e-08
1.91032e-06
2.33516e-08
-3.2608e-08
1.91646e-06
2.33576e-08
-3.2611e-08
2.34704e-08
-3.25084e-08
1.75246e-06
1.64188e-08
-5.80095e-08
1.75788e-06
1.6469e-08
-5.80415e-08
1.76333e-06
1.64881e-08
-5.81184e-08
1.7688e-06
1.65199e-08
-5.81862e-08
1.67063e-08
-5.81388e-08
1.50682e-06
8.99047e-09
-7.98115e-08
1.51046e-06
9.04468e-09
-7.98981e-08
1.51415e-06
9.10128e-09
-8.00031e-08
1.51789e-06
9.15305e-09
-8.01226e-08
9.38876e-09
-8.01491e-08
1.14025e-06
3.03367e-09
-9.6637e-08
1.13971e-06
3.12387e-09
-9.67216e-08
1.13915e-06
3.27054e-09
-9.68186e-08
1.13853e-06
3.46767e-09
-9.6922e-08
3.73919e-09
-9.69316e-08
6.01691e-07
-1.09662e-07
5.96151e-07
-1.09625e-07
5.90659e-07
-1.09544e-07
5.85278e-07
-1.09442e-07
-1.09348e-07
5.28733e-07
2.34103e-08
8.88768e-08
5.23598e-07
2.33124e-08
8.89305e-08
5.18643e-07
2.31327e-08
8.90617e-08
5.13892e-07
2.28981e-08
8.92383e-08
5.09265e-07
2.27285e-08
8.93798e-08
2.25481e-08
8.94615e-08
1.02798e-06
4.08297e-08
7.72775e-08
1.02658e-06
4.07739e-08
7.72404e-08
1.02506e-06
4.07749e-08
7.71549e-08
1.02337e-06
4.07734e-08
7.70788e-08
1.02159e-06
4.07634e-08
7.70029e-08
4.05845e-08
7.70761e-08
1.37295e-06
5.20671e-08
5.98883e-08
1.37549e-06
5.20881e-08
5.97848e-08
1.378e-06
5.21594e-08
5.96464e-08
1.38046e-06
5.22469e-08
5.94951e-08
1.38289e-06
5.23082e-08
5.93458e-08
5.21737e-08
5.94235e-08
1.60629e-06
5.79716e-08
3.95792e-08
1.61096e-06
5.79878e-08
3.9576e-08
1.6156e-06
5.80605e-08
3.95199e-08
1.62026e-06
5.8159e-08
3.94039e-08
1.62494e-06
5.82348e-08
3.92852e-08
5.81678e-08
3.94166e-08
1.74691e-06
1.63594e-08
1.75232e-06
5.9488e-08
1.64304e-08
1.75774e-06
5.95189e-08
1.64585e-08
1.76318e-06
5.95585e-08
1.64753e-08
1.76864e-06
5.95896e-08
1.64952e-08
5.95684e-08
1.6684e-08
1.80157e-06
5.68802e-08
-7.74349e-09
1.80709e-06
5.6874e-08
-7.69228e-09
1.81262e-06
5.68501e-08
-7.64906e-09
1.81815e-06
5.68274e-08
-7.57212e-09
5.68395e-08
-7.35866e-09
1.75541e-06
5.01193e-08
-3.1112e-08
1.76069e-06
5.00986e-08
-3.10816e-08
1.76597e-06
5.00251e-08
-3.10686e-08
1.77127e-06
4.99543e-08
-3.10323e-08
4.99983e-08
-3.08531e-08
1.61106e-06
3.95684e-08
-5.20991e-08
1.61572e-06
3.95153e-08
-5.21231e-08
1.62038e-06
3.94326e-08
-5.21848e-08
1.62506e-06
3.93406e-08
-5.22499e-08
3.94203e-08
-5.21522e-08
1.36533e-06
2.65697e-08
-6.9828e-08
1.36837e-06
2.6512e-08
-6.99348e-08
1.37141e-06
2.64546e-08
-7.00597e-08
1.37444e-06
2.63724e-08
-7.01913e-08
2.6465e-08
-7.01583e-08
9.97631e-07
1.35795e-08
-8.27111e-08
9.9659e-07
1.36089e-08
-8.27774e-08
9.95419e-07
1.36394e-08
-8.2833e-08
9.94134e-07
1.36232e-08
-8.28871e-08
1.36687e-08
-8.28009e-08
4.85495e-07
-9.16902e-08
4.81107e-07
-9.16279e-08
4.76739e-07
-9.15363e-08
4.72364e-07
-9.1444e-08
-9.13661e-08
3.70575e-07
2.84016e-08
6.40462e-08
3.67053e-07
2.83607e-08
6.40918e-08
3.63606e-07
2.83491e-08
6.41591e-08
3.60259e-07
2.83285e-08
6.42569e-08
3.56976e-07
2.83222e-08
6.43408e-08
2.82278e-08
6.44102e-08
8.00021e-07
5.26818e-08
5.52431e-08
7.97687e-07
5.2691e-08
5.52437e-08
7.95262e-07
5.27339e-08
5.51947e-08
7.9274e-07
5.27954e-08
5.51347e-08
7.90111e-07
5.29051e-08
5.50492e-08
5.28196e-08
5.51159e-08
1.13141e-06
6.97564e-08
4.17198e-08
1.13242e-06
6.98424e-08
4.16227e-08
1.1333e-06
6.99564e-08
4.15425e-08
1.13407e-06
7.00916e-08
4.14345e-08
1.1348e-06
7.02342e-08
4.12894e-08
7.01568e-08
4.14198e-08
1.36215e-06
7.97608e-08
2.65762e-08
1.36517e-06
7.98182e-08
2.65786e-08
1.36818e-06
7.99057e-08
2.65623e-08
1.37117e-06
8.00392e-08
2.64682e-08
1.37418e-06
8.01841e-08
2.63297e-08
8.01768e-08
2.64933e-08
1.50309e-06
8.89467e-09
1.50668e-06
8.36562e-08
9.00756e-09
1.5103e-06
8.36758e-08
9.06378e-09
1.51397e-06
8.37219e-08
9.12295e-09
1.51771e-06
8.37775e-08
9.16966e-09
8.3788e-08
9.41202e-09
1.55904e-06
8.16883e-08
-9.23211e-09
1.56254e-06
8.16611e-08
-9.16903e-09
1.56605e-06
8.16207e-08
-9.06298e-09
1.56962e-06
8.15774e-08
-8.94452e-09
8.15636e-08
-8.67799e-09
1.51678e-06
7.36122e-08
-2.61752e-08
1.51993e-06
7.35567e-08
-2.61249e-08
1.52308e-06
7.34711e-08
-2.60617e-08
1.52625e-06
7.33595e-08
-2.59848e-08
7.33353e-08
-2.57513e-08
1.37547e-06
5.97784e-08
-4.07817e-08
1.37799e-06
5.96586e-08
-4.07385e-08
1.38048e-06
5.95155e-08
-4.07175e-08
1.38294e-06
5.9369e-08
-4.07246e-08
5.93901e-08
-4.05703e-08
1.13245e-06
4.16128e-08
-5.27045e-08
1.13339e-06
4.15146e-08
-5.27328e-08
1.13421e-06
4.14161e-08
-5.2785e-08
1.13497e-06
4.13111e-08
-5.28883e-08
4.1377e-08
-5.28191e-08
7.71701e-07
2.21338e-08
-6.07023e-08
7.69037e-07
2.21353e-08
-6.07335e-08
7.66253e-07
2.21366e-08
-6.07697e-08
7.63364e-07
2.21196e-08
-6.08064e-08
2.21966e-08
-6.07074e-08
3.32054e-07
-6.6248e-08
3.28772e-07
-6.62105e-08
3.25534e-07
-6.61623e-08
3.22326e-07
-6.61164e-08
-6.60655e-08
1.88956e-07
3.19214e-08
3.40219e-08
1.87101e-07
3.19098e-08
3.40361e-08
1.85274e-07
3.19378e-08
3.40489e-08
1.83485e-07
3.19749e-08
3.40713e-08
1.81711e-07
3.20191e-08
3.40956e-08
3.19448e-08
3.41369e-08
4.81775e-07
6.07366e-08
2.98219e-08
4.78382e-07
6.07378e-08
2.98095e-08
4.75008e-07
6.07445e-08
2.97611e-08
4.71633e-07
6.078e-08
2.97053e-08
4.68202e-07
6.08513e-08
2.96474e-08
6.07195e-08
2.97362e-08
7.74449e-07
8.26957e-08
2.21589e-08
7.71889e-07
8.27571e-08
2.21632e-08
7.69216e-07
8.27898e-08
2.2171e-08
7.66431e-07
8.28469e-08
2.2152e-08
7.63539e-07
8.29401e-08
8.28078e-08
9.98691e-07
9.6616e-08
1.35468e-08
9.9772e-07
9.66772e-08
1.36297e-08
9.96628e-07
9.67511e-08
1.36929e-08
9.95406e-07
9.6841e-08
1.36967e-08
9.94086e-07
9.6958e-08
1.36316e-08
9.69434e-08
1.14074e-06
2.94596e-09
1.14018e-06
1.03169e-07
3.0834e-09
1.1396e-06
1.03204e-07
3.18719e-09
1.139e-06
1.03238e-07
3.32034e-09
1.13838e-06
1.03256e-07
3.50071e-09
1.03236e-07
1.19766e-06
1.02067e-07
-7.19912e-09
1.19671e-06
1.02067e-07
-7.08701e-09
1.19578e-06
1.02067e-07
-6.95622e-09
1.19486e-06
1.02062e-07
-6.83202e-09
1.02083e-07
-6.66918e-09
1.16123e-06
9.32807e-08
-1.624e-08
1.16003e-06
9.32567e-08
-1.61178e-08
1.15877e-06
9.32324e-08
-1.59687e-08
1.15748e-06
9.32022e-08
-1.58363e-08
9.32508e-08
-1.56821e-08
1.02652e-06
7.72017e-08
-2.33353e-08
1.02506e-06
7.71384e-08
-2.31509e-08
1.02341e-06
7.70527e-08
-2.28942e-08
1.02165e-06
7.69539e-08
-2.27149e-08
7.70141e-08
-2.2539e-08
7.97607e-07
5.52045e-08
-2.83903e-08
7.95204e-07
5.51657e-08
-2.83577e-08
7.92695e-07
5.50967e-08
-2.832e-08
7.90064e-07
5.5003e-08
-2.83057e-08
5.50646e-08
-2.8219e-08
4.78283e-07
2.98189e-08
-3.18908e-08
4.7484e-07
2.97817e-08
-3.19063e-08
4.71403e-07
2.97147e-08
-3.19504e-08
4.67945e-07
2.965e-08
-3.19959e-08
2.97111e-08
-3.19396e-08
1.74281e-07
-3.46382e-08
1.72505e-07
-3.46531e-08
1.70733e-07
-3.46753e-08
1.68958e-07
-3.46911e-08
-3.46796e-08
5.79595e-08
3.46592e-08
5.73318e-08
3.46637e-08
5.67001e-08
3.46807e-08
5.60709e-08
3.47005e-08
5.54492e-08
3.47173e-08
3.46955e-08
1.76176e-07
6.6289e-08
1.74398e-07
6.62516e-08
1.72626e-07
6.6214e-08
1.7085e-07
6.61811e-08
1.69058e-07
3.35526e-07
9.17507e-08
3.32266e-07
9.16744e-08
3.29053e-07
9.15985e-08
9.15227e-08
4.90191e-07
1.09665e-07
4.85841e-07
1.09655e-07
4.81523e-07
1.09609e-07
4.77217e-07
1.09525e-07
1.09423e-07
6.07644e-07
6.0213e-07
1.18252e-07
5.96639e-07
1.18287e-07
5.91195e-07
1.18289e-07
1.18272e-07
6.5562e-07
1.17153e-07
6.49581e-07
1.17239e-07
6.43572e-07
1.17342e-07
6.37584e-07
1.17427e-07
1.17487e-07
6.28438e-07
1.07072e-07
6.22417e-07
1.07142e-07
6.16515e-07
1.07276e-07
6.10707e-07
1.07399e-07
1.0748e-07
5.23668e-07
8.88738e-08
5.18684e-07
8.89757e-08
5.13913e-07
8.91532e-08
5.09286e-07
8.93108e-08
8.94103e-08
3.67047e-07
6.40284e-08
3.63563e-07
6.41022e-08
3.60188e-07
6.4208e-08
3.56898e-07
6.42945e-08
6.437e-08
1.87052e-07
3.40141e-08
1.85218e-07
3.40297e-08
1.83426e-07
3.40492e-08
1.81654e-07
3.40711e-08
3.41131e-08
5.73012e-08
5.66778e-08
5.60517e-08
5.54318e-08
)
;

boundaryField
{
    inlet
    {
        type            calculated;
        value           nonuniform List<scalar> 0();
    }
    ami1
    {
        type            cyclicAMI;
        value           nonuniform List<scalar> 0();
    }
    walls
    {
        type            calculated;
        value           nonuniform List<scalar> 
250
(
2.90979e-14
2.43942e-14
1.84387e-14
1.28555e-14
6.40674e-15
8.65696e-22
-6.40674e-15
-1.28555e-14
-1.84387e-14
-2.43942e-14
-2.90979e-14
2.90979e-14
2.43942e-14
1.84387e-14
1.28555e-14
6.40674e-15
5.94536e-22
-6.40674e-15
-1.28555e-14
-1.84387e-14
-2.43942e-14
-2.90979e-14
2.90979e-14
2.43942e-14
1.84387e-14
1.28555e-14
6.40674e-15
8.64921e-22
-6.40674e-15
-1.28555e-14
-1.84387e-14
-2.43942e-14
-2.90979e-14
2.90979e-14
2.43942e-14
1.84387e-14
1.28555e-14
6.40674e-15
8.64921e-22
-6.40674e-15
-1.28555e-14
-1.84387e-14
-2.43942e-14
-2.90979e-14
2.90979e-14
2.43942e-14
1.84387e-14
1.28555e-14
6.40674e-15
8.64921e-22
-6.40674e-15
-1.28555e-14
-1.84387e-14
-2.43942e-14
-2.90979e-14
1.28555e-14
6.40674e-15
8.65696e-22
-6.40674e-15
-1.28555e-14
-1.84387e-14
-2.43942e-14
-2.90979e-14
8.64921e-22
-6.40674e-15
-1.28555e-14
-1.84387e-14
2.90979e-14
2.43942e-14
1.84387e-14
1.28555e-14
6.40674e-15
8.65696e-22
-6.40674e-15
-1.28555e-14
-1.84387e-14
-2.43942e-14
-2.90979e-14
2.90979e-14
2.43942e-14
1.84387e-14
1.28555e-14
6.40674e-15
5.94536e-22
-6.40674e-15
-1.28555e-14
-1.84387e-14
-2.43942e-14
-2.90979e-14
2.90979e-14
2.43942e-14
1.84387e-14
1.28555e-14
6.40674e-15
8.64921e-22
-6.40674e-15
-1.28555e-14
-1.84387e-14
-2.43942e-14
-2.90979e-14
2.90979e-14
2.43942e-14
1.84387e-14
1.28555e-14
6.40674e-15
8.64921e-22
-6.40674e-15
-1.28555e-14
-1.84387e-14
-2.43942e-14
-2.90979e-14
2.90979e-14
2.43942e-14
1.84387e-14
1.28555e-14
6.40674e-15
8.64921e-22
-6.40674e-15
-1.28555e-14
-1.84387e-14
-2.43942e-14
-2.90979e-14
2.90979e-14
2.43942e-14
1.84387e-14
1.28555e-14
6.40674e-15
-2.90979e-14
-2.43942e-14
-1.84387e-14
-1.28555e-14
-6.40674e-15
-2.90979e-14
-2.43942e-14
-1.84387e-14
-1.28555e-14
-6.40674e-15
8.65777e-22
6.40674e-15
1.28555e-14
1.84387e-14
2.43942e-14
2.90979e-14
-2.90979e-14
-2.43942e-14
-1.84387e-14
-1.28555e-14
-6.40674e-15
5.94795e-22
6.40674e-15
1.28555e-14
1.84387e-14
2.43942e-14
2.90979e-14
-2.90979e-14
-2.43942e-14
-1.84387e-14
-1.28555e-14
-6.40674e-15
8.65777e-22
6.40674e-15
1.28555e-14
1.84387e-14
2.43942e-14
2.90979e-14
-2.90979e-14
-2.43942e-14
-1.28555e-14
-6.40674e-15
8.65696e-22
6.40674e-15
1.28555e-14
1.84387e-14
2.43942e-14
2.90979e-14
-2.90979e-14
-2.43942e-14
8.65696e-22
6.40674e-15
1.28555e-14
1.84387e-14
2.43942e-14
2.90979e-14
6.40674e-15
1.28555e-14
1.84387e-14
2.43942e-14
2.90979e-14
-2.90979e-14
-2.43942e-14
-1.84387e-14
-1.28555e-14
-6.40674e-15
8.65777e-22
6.40674e-15
1.28555e-14
1.84387e-14
2.43942e-14
2.90979e-14
-2.90979e-14
-2.43942e-14
-1.84387e-14
-1.28555e-14
-6.40674e-15
5.94795e-22
6.40674e-15
1.28555e-14
1.84387e-14
2.43942e-14
2.90979e-14
-2.90979e-14
-2.43942e-14
-1.84387e-14
-1.28555e-14
-6.40674e-15
8.65777e-22
6.40674e-15
1.28555e-14
1.84387e-14
2.43942e-14
2.90979e-14
-2.90979e-14
-2.43942e-14
-1.84387e-14
-1.28555e-14
-6.40674e-15
8.65696e-22
6.40674e-15
1.28555e-14
1.84387e-14
2.43942e-14
2.90979e-14
-2.90979e-14
-2.43942e-14
-1.84387e-14
-1.28555e-14
-6.40674e-15
8.65696e-22
6.40674e-15
1.28555e-14
1.84387e-14
2.43942e-14
2.90979e-14
-2.43942e-14
-1.84387e-14
-1.28555e-14
-6.40674e-15
8.65696e-22
-1.84387e-14
-1.28555e-14
)
;
    }
    ami2
    {
        type            cyclicAMI;
        value           nonuniform List<scalar> 0();
    }
    outlet
    {
        type            calculated;
        value           nonuniform List<scalar> 0();
    }
    procBoundary5to6
    {
        type            processor;
        value           nonuniform List<scalar> 
177
(
5.48493e-08
-3.46879e-08
1.79876e-07
3.53538e-07
8.94947e-08
-2.81414e-08
5.0009e-07
5.98942e-07
1.17571e-07
6.19792e-07
6.16516e-09
5.70281e-07
-4.27947e-09
4.59956e-07
3.13553e-07
-6.60118e-08
1.65734e-07
2.98458e-08
5.4323e-08
1.65728e-07
-2.97734e-08
-6.59302e-08
4.64685e-07
5.51417e-08
-6.06461e-08
7.84749e-07
1.01789e-06
1.15485e-06
1.19312e-06
1.13707e-06
9.70194e-08
9.89708e-07
-2.66856e-08
7.54427e-07
-4.1547e-08
4.58058e-07
-3.1854e-08
1.78423e-07
3.13728e-07
-2.24839e-08
7.57795e-07
-8.26542e-08
1.13605e-06
1.38743e-06
1.53249e-06
1.57687e-06
1.52526e-06
-1.68229e-08
1.38017e-06
1.13604e-06
5.25696e-08
7.81824e-07
-2.79922e-08
-7.72123e-08
3.5069e-07
4.60302e-07
1.09166e-07
9.89775e-07
-2.67667e-08
9.69854e-08
1.37992e-06
8.02079e-08
1.63402e-06
5.81449e-08
1.78164e-06
3.24721e-08
1.82914e-06
-5.95243e-08
4.58017e-09
1.77425e-06
5.81162e-08
1.63411e-06
-4.99803e-08
1.38752e-06
-7.32898e-08
1.01784e-06
-9.32966e-08
5.0024e-07
5.75494e-07
1.13693e-06
-9.61282e-09
1.52146e-06
8.3803e-08
1.77412e-06
5.95934e-08
1.92247e-06
3.16525e-08
1.97142e-06
1.92252e-06
1.77651e-06
1.52946e-06
1.15617e-06
1.55072e-08
5.98991e-07
-1.1752e-07
6.25696e-07
1.17505e-07
8.69443e-09
1.19298e-06
8.44492e-09
1.02167e-07
1.5697e-06
-8.15718e-08
1.81825e-06
-5.68134e-08
1.96519e-06
-1.52005e-09
-2.85139e-08
2.02051e-06
1.97135e-06
1.8237e-06
1.57333e-06
1.19407e-06
6.31097e-07
6.04843e-07
1.15614e-06
1.52945e-06
1.77644e-06
1.92233e-06
1.97129e-06
1.92244e-06
1.77417e-06
1.52161e-06
1.13789e-06
5.80093e-07
5.04789e-07
1.0198e-06
1.3852e-06
1.62949e-06
1.77398e-06
1.82356e-06
1.77645e-06
1.62965e-06
1.37741e-06
9.92799e-07
4.68051e-07
3.53799e-07
7.87479e-07
1.13546e-06
1.37708e-06
1.52137e-06
1.57317e-06
1.52937e-06
1.3853e-06
1.13564e-06
7.60451e-07
3.19222e-07
1.80039e-07
4.64808e-07
2.2093e-08
7.6066e-07
2.22105e-08
9.92755e-07
1.36888e-08
1.13773e-06
3.7604e-09
1.194e-06
1.15625e-06
1.01986e-06
7.87413e-07
4.64531e-07
1.67283e-07
5.48906e-08
6.61565e-08
1.674e-07
6.60904e-08
3.25863e-07
-9.14518e-08
4.72878e-07
5.85847e-07
-1.18272e-07
6.31701e-07
6.05032e-07
5.04816e-07
3.5372e-07
1.79971e-07
5.48653e-08
)
;
    }
    procBoundary5to7
    {
        type            processor;
        value           nonuniform List<scalar> 
131
(
-5.79277e-08
-1.88889e-07
-3.70464e-07
-5.28488e-07
-6.34148e-07
-6.612e-07
-6.07075e-07
-4.89821e-07
-3.35325e-07
-1.76064e-07
-5.79272e-08
-1.76114e-07
-4.81763e-07
-7.9992e-07
-1.02783e-06
-1.16226e-06
-1.19854e-06
-1.14083e-06
-9.98607e-07
-7.74249e-07
-4.81699e-07
-1.88929e-07
-3.35504e-07
-7.74351e-07
-1.13138e-06
-1.37293e-06
-1.51373e-06
-1.55573e-06
-1.50333e-06
-1.36235e-06
-1.13143e-06
-7.9993e-07
-3.70591e-07
-4.90099e-07
-9.98661e-07
-1.36215e-06
-1.60634e-06
-1.75021e-06
-1.79628e-06
-1.7471e-06
-1.60639e-06
-1.37292e-06
-1.02787e-06
-5.28753e-07
-6.07453e-07
-1.14078e-06
-1.50314e-06
-1.74698e-06
-1.89196e-06
-1.93997e-06
-1.89199e-06
-1.75011e-06
-1.51362e-06
-1.16231e-06
-6.34427e-07
-6.61568e-07
-1.17058e-07
-1.19857e-06
-1.02065e-07
-1.55559e-06
-8.17672e-08
-1.79607e-06
-5.69362e-08
-1.93984e-06
-2.8511e-08
-1.98803e-06
-1.93993e-06
-1.79615e-06
-1.55562e-06
-1.19856e-06
-6.61407e-07
-6.4091e-07
-1.16351e-06
-1.51044e-06
-1.7447e-06
-1.88564e-06
3.16037e-08
-1.93985e-06
-1.89197e-06
-1.74705e-06
-1.50324e-06
-1.14079e-06
-6.07236e-07
-5.3397e-07
-1.02936e-06
-1.37037e-06
-1.60162e-06
-1.74149e-06
5.949e-08
-1.79608e-06
-1.75014e-06
-1.60642e-06
-1.36232e-06
-9.98566e-07
-4.89888e-07
-3.74146e-07
-8.02266e-07
-1.13032e-06
-1.35915e-06
-1.49954e-06
8.36683e-08
-1.55559e-06
-1.51365e-06
-1.37296e-06
-1.13141e-06
-7.74231e-07
-3.35362e-07
-1.90853e-07
-4.85169e-07
-7.76847e-07
-9.99582e-07
-1.14134e-06
1.03159e-07
-1.19859e-06
-1.16238e-06
-1.02789e-06
-7.99924e-07