/*--------------------------------*- C++ -*----------------------------------*\
| =========                 |                                                 |
| \\      /  F ield         | OpenFOAM: The Open Source CFD Toolbox           |
|  \\    /   O peration     | Version:  2212                                  |
|   \\  /    A nd           | Website:  www.openfoam.com                      |
|    \\/     M anipulation  |                                                 |
\*---------------------------------------------------------------------------*/
FoamFile
{
    version     2.0;
    format      ascii;
    arch        "LSB;label=32;scalar=64";
    class       volVectorField;
    location    "1.35";
    object      U;
}
// * * * * * * * * * * * * * * * * * * * * * * * * * * * * * * * * * * * * * //

dimensions      [0 1 -1 0 0 0 0];

internalField   nonuniform List<vector> 
678
(
(0.0228025 2.33807e-05 5.09174e-05)
(0.0225581 2.24219e-05 5.07713e-05)
(0.0223142 2.05623e-05 4.98177e-05)
(0.0220668 1.88543e-05 4.85225e-05)
(0.0218263 1.74311e-05 4.68454e-05)
(0.0385791 -0.000111187 0.000183721)
(0.0381959 -0.000108154 0.000176919)
(0.0378309 -0.000107353 0.000167634)
(0.0374647 -0.000107445 0.000158772)
(0.037109 -0.000108904 0.000153224)
(0.0535912 -0.000419036 0.000224934)
(0.0530714 -0.000404881 0.000214602)
(0.0525829 -0.000383454 0.00019686)
(0.052094 -0.000363251 0.000180797)
(0.0516247 -0.000349923 0.000171143)
(0.0624764 -0.000823629 0.000271526)
(0.0618614 -0.00077334 0.000245413)
(0.0612909 -0.000704515 0.000203724)
(0.0607298 -0.00065474 0.000174116)
(0.0601958 -0.000621535 0.000154068)
(0.059674 -0.000600471 0.000143104)
(0.0672498 -0.00103344 0.000226709)
(0.0665932 -0.00101014 0.000213731)
(0.0659617 -0.000983361 0.000197847)
(0.0653335 -0.00095446 0.000180559)
(0.0647267 -0.000928339 0.000166166)
(0.0641291 -0.000902857 0.000158379)
(0.0677586 -0.00102962 0.000168751)
(0.0671325 -0.0010105 0.000150673)
(0.0665124 -0.000989406 0.000133036)
(0.0658911 -0.000961692 0.000115404)
(0.0652801 -0.000932735 0.000100131)
(0.0646808 -0.000907579 8.78788e-05)
(0.0640838 -0.000855567 7.35458e-05)
(0.0643989 -0.000870653 5.42397e-05)
(0.0638061 -0.000849337 4.66096e-05)
(0.0632263 -0.000803988 4.36292e-05)
(0.0626442 -0.000729861 4.02866e-05)
(0.0620952 -0.000656946 3.76083e-05)
(0.0615593 -0.000603546 3.59436e-05)
(0.0610229 -0.000567538 3.13415e-05)
(0.0579279 -0.000464835 -1.49814e-06)
(0.0574024 -0.000449351 1.30779e-06)
(0.0569006 -0.000429881 8.73516e-06)
(0.0563801 -0.000413502 1.69622e-05)
(0.0558776 -0.000402534 2.55328e-05)
(0.0553744 -0.000389958 3.63127e-05)
(0.0548863 -0.000378008 4.43418e-05)
(0.0485004 -0.000298274 -1.6401e-05)
(0.0480178 -0.000286649 -1.03181e-05)
(0.0475628 -0.000273182 -1.6349e-06)
(0.0470953 -0.000262742 7.69917e-06)
(0.0466446 -0.000255521 1.66401e-05)
(0.0461977 -0.000244599 2.56636e-05)
(0.0457807 -0.000234372 3.02728e-05)
(0.0359554 -7.72716e-05 5.87655e-05)
(0.0355911 -7.84031e-05 5.7412e-05)
(0.035238 -8.12282e-05 5.59895e-05)
(0.0348796 -8.33937e-05 5.5828e-05)
(0.0345257 -8.45058e-05 5.57409e-05)
(0.0341866 -8.05148e-05 5.5173e-05)
(0.0228023 -5.07743e-05 2.29696e-05)
(0.0225583 -5.02447e-05 2.14031e-05)
(0.0223148 -4.88627e-05 1.91405e-05)
(0.0220706 -4.68683e-05 1.71042e-05)
(0.0218312 -4.5028e-05 1.47466e-05)
(0.0216047 -4.15225e-05 1.26643e-05)
(0.0359656 5.9183e-05 7.67078e-05)
(0.0356014 5.88253e-05 7.80954e-05)
(0.0352481 5.79716e-05 8.17156e-05)
(0.0348849 5.80272e-05 8.56423e-05)
(0.0345292 5.86293e-05 8.81084e-05)
(0.0341743 6.11478e-05 7.89706e-05)
(0.0681995 -0.000115306 0.000305508)
(0.0677027 -0.000115449 0.000316144)
(0.0672328 -0.00012109 0.000330895)
(0.0667417 -0.000127173 0.000342774)
(0.0662614 -0.000125975 0.000338349)
(0.0897798 -0.000588806 0.000442796)
(0.0895115 -0.000586685 0.000456276)
(0.0892395 -0.000587238 0.00047035)
(0.0889488 -0.000586842 0.000480656)
(0.0886536 -0.000591402 0.000494312)
(0.0883591 -0.000568912 0.000474607)
(0.0995119 -0.000975569 0.000402556)
(0.0993783 -0.000963577 0.000408876)
(0.0992245 -0.000952818 0.000415015)
(0.0990592 -0.000944172 0.000420456)
(0.0988823 -0.000937411 0.000425899)
(0.0987042 -0.000897916 0.000409433)
(0.103565 -0.00121424 0.000418335)
(0.103462 -0.00119737 0.000415745)
(0.103351 -0.00117719 0.00041248)
(0.103241 -0.00116308 0.000412047)
(0.10312 -0.00114593 0.000411489)
(0.103009 -0.00110416 0.00039628)
(0.10398 -0.00124817 0.000394848)
(0.103898 -0.00122722 0.000387358)
(0.103818 -0.00120248 0.000378546)
(0.103741 -0.0011839 0.000371712)
(0.103659 -0.00116341 0.000364355)
(0.103584 -0.00111685 0.000349595)
(0.101683 -0.00106662 0.000258099)
(0.101638 -0.00105826 0.000246393)
(0.101586 -0.00104663 0.000232527)
(0.101535 -0.00104524 0.000219812)
(0.101469 -0.00104376 0.000208067)
(0.101404 -0.000995996 0.000193765)
(0.0967032 -0.000852886 1.83996e-05)
(0.0966109 -0.00086085 6.67662e-06)
(0.0965018 -0.000865284 -4.05512e-06)
(0.0963815 -0.000873716 -1.54275e-05)
(0.0962483 -0.000890798 -2.79287e-05)
(0.0961106 -0.00088008 -3.61939e-05)
(0.0959498 -0.000835133 -3.84798e-05)
(0.0868832 -0.000683905 -0.000201274)
(0.0865874 -0.000697584 -0.000204544)
(0.0862898 -0.000707665 -0.000204905)
(0.0859655 -0.000711891 -0.000202689)
(0.0856424 -0.000717286 -0.00020135)
(0.0853112 -0.000705475 -0.00019365)
(0.0849595 -0.000676422 -0.00018127)
(0.0681909 -0.000305908 -0.000114233)
(0.067694 -0.000315421 -0.000116185)
(0.0672246 -0.000328308 -0.000123031)
(0.0667353 -0.00033551 -0.000128632)
(0.0662579 -0.000343534 -0.000137208)
(0.0657769 -0.000334639 -0.00013754)
(0.0653089 -0.000300236 -0.000121889)
(0.0385879 -0.000182258 -0.000111598)
(0.0382064 -0.000174559 -0.000109363)
(0.0378427 -0.000164214 -0.000109002)
(0.0374806 -0.000153628 -0.000108909)
(0.0371266 -0.000143322 -0.000108949)
(0.0367918 -0.000128751 -0.000105644)
(0.0485266 -1.5852e-05 0.000298001)
(0.0480465 -8.58284e-06 0.000286152)
(0.0475922 3.51845e-07 0.000273351)
(0.0471252 9.19423e-06 0.000265563)
(0.0466718 1.58444e-05 0.00026502)
(0.0462243 2.55293e-05 0.000255244)
(0.0457878 4.03055e-05 0.000229585)
(0.0868951 -0.000203158 0.000683221)
(0.0866016 -0.00020453 0.000697346)
(0.0863039 -0.000203542 0.000709024)
(0.0859829 -0.000200714 0.000717094)
(0.0856617 -0.00019673 0.000721929)
(0.0853453 -0.000179329 0.000687022)
(0.106494 -0.000631743 0.00084221)
(0.10659 -0.000639689 0.000865056)
(0.106664 -0.000645957 0.000886955)
(0.106737 -0.000651555 0.000907558)
(0.106796 -0.00065604 0.000923983)
(0.106853 -0.000639074 0.000900108)
(0.11492 -0.000972455 0.000663325)
(0.115132 -0.000969071 0.000673516)
(0.115336 -0.000965295 0.00068785)
(0.115544 -0.000966288 0.000707661)
(0.115742 -0.000966432 0.000725657)
(0.115931 -0.000941083 0.0007144)
(0.118446 -0.00117596 0.000537741)
(0.118692 -0.00116781 0.000543239)
(0.118936 -0.00115957 0.000551419)
(0.119181 -0.00114958 0.00056025)
(0.119427 -0.00113643 0.000568098)
(0.119667 -0.00110399 0.00056235)
(0.119089 -0.00122103 0.00037239)
(0.119354 -0.00121331 0.00037213)
(0.119622 -0.00120559 0.000370713)
(0.119891 -0.0011944 0.000367521)
(0.120166 -0.00117827 0.000362488)
(0.120436 -0.00114264 0.000354232)
(0.11765 -0.00114087 0.000112963)
(0.117932 -0.00113411 0.000103918)
(0.118214 -0.00113012 9.10268e-05)
(0.118503 -0.00112808 7.62619e-05)
(0.11879 -0.00112107 6.11206e-05)
(0.119075 -0.00108804 4.91387e-05)
(0.114057 -0.000995135 -0.000270035)
(0.114311 -0.00100331 -0.00028313)
(0.114557 -0.00101162 -0.000297914)
(0.114811 -0.00102756 -0.000313835)
(0.115054 -0.00104491 -0.000327844)
(0.115295 -0.00102414 -0.000329502)
(0.106497 -0.000844178 -0.000632556)
(0.106595 -0.000866686 -0.00064118)
(0.106669 -0.000887701 -0.000647829)
(0.106739 -0.000905736 -0.000653254)
(0.106797 -0.000924012 -0.000659655)
(0.106853 -0.000905523 -0.000644857)
(0.0897809 -0.000444089 -0.000589167)
(0.0895109 -0.000456165 -0.000588395)
(0.0892386 -0.000468392 -0.00058973)
(0.0889444 -0.000476414 -0.000589735)
(0.0886452 -0.000488351 -0.000595629)
(0.0883375 -0.000478414 -0.000583249)
(0.0880116 -0.000446034 -0.000548783)
(0.0536104 -0.000221829 -0.000420236)
(0.0530931 -0.000210818 -0.000407221)
(0.0526057 -0.000192349 -0.000386369)
(0.0521185 -0.000173857 -0.000365247)
(0.0516529 -0.000155535 -0.000347513)
(0.0512046 -0.000138481 -0.000332316)
(0.0579619 1.32328e-06 0.000463748)
(0.0574401 4.25608e-06 0.000447784)
(0.0569389 1.14302e-05 0.000428378)
(0.0564214 1.97736e-05 0.000412356)
(0.0559203 2.86492e-05 0.000403642)
(0.0554201 3.75132e-05 0.000396678)
(0.0549267 4.76091e-05 0.000381947)
(0.0967104 1.86179e-05 0.000851603)
(0.0966171 7.76273e-06 0.000859492)
(0.096506 -1.98133e-06 0.000864467)
(0.0963867 -1.18921e-05 0.000876237)
(0.0962513 -2.06233e-05 0.000893236)
(0.0961137 -2.58328e-05 0.000874048)
(0.0959598 -3.11471e-05 0.000822723)
(0.114037 -0.000272177 0.000997899)
(0.114289 -0.000283324 0.00100035)
(0.114535 -0.000297444 0.00100959)
(0.114787 -0.000311694 0.00102543)
(0.115034 -0.00032422 0.00103908)
(0.115272 -0.000324935 0.00101248)
(0.121738 -0.000550191 0.000740204)
(0.12209 -0.000554627 0.000744016)
(0.122439 -0.000562862 0.000756872)
(0.122791 -0.000572574 0.000773633)
(0.123141 -0.000575921 0.000778598)
(0.123484 -0.000561771 0.000753722)
(0.125166 -0.000736772 0.000506696)
(0.125544 -0.000734031 0.00050863)
(0.125919 -0.000735043 0.000514799)
(0.126296 -0.000736622 0.000522868)
(0.12667 -0.000729904 0.000524769)
(0.127038 -0.000705213 0.000510986)
(0.126037 -0.000812125 0.00021748)
(0.126424 -0.000804939 0.00021701)
(0.126809 -0.000803123 0.00021713)
(0.127196 -0.000801543 0.000217118)
(0.12758 -0.000788492 0.000215183)
(0.127958 -0.000756842 0.00020929)
(0.124948 -0.000801376 -0.000131055)
(0.125335 -0.000796789 -0.000134946)
(0.125721 -0.000800688 -0.000141224)
(0.12611 -0.000803172 -0.000148115)
(0.126497 -0.000789718 -0.000152037)
(0.121743 -0.000738988 -0.000548629)
(0.122096 -0.00074404 -0.000553194)
(0.122445 -0.000758605 -0.000561819)
(0.122798 -0.000775171 -0.000570114)
(0.123147 -0.000783262 -0.00057147)
(0.123489 -0.000763484 -0.000556439)
(0.114919 -0.000666069 -0.000972793)
(0.115132 -0.000675787 -0.000969493)
(0.115336 -0.000690191 -0.000966275)
(0.115544 -0.000710231 -0.00096703)
(0.115743 -0.000729178 -0.000964592)
(0.115934 -0.00071822 -0.000934241)
(0.0995154 -0.000403389 -0.000975243)
(0.0993811 -0.000408929 -0.000964976)
(0.0992267 -0.000414695 -0.000956267)
(0.0990584 -0.000419293 -0.000947567)
(0.0988805 -0.000422926 -0.000936998)
(0.0986979 -0.000404252 -0.00089081)
(0.0625079 -0.000266333 -0.000826037)
(0.0618932 -0.000240558 -0.000777767)
(0.0613201 -0.000199492 -0.000709342)
(0.0607569 -0.000168827 -0.000659724)
(0.06022 -0.00014442 -0.000625829)
(0.0596969 -0.000134485 -0.000603604)
(0.0644404 5.88086e-05 0.000864803)
(0.0638518 4.99748e-05 0.000844374)
(0.0632714 4.51742e-05 0.000804233)
(0.0626889 4.23162e-05 0.000732483)
(0.0621394 4.10986e-05 0.000657678)
(0.0616032 3.81966e-05 0.000609414)
(0.101677 0.000258006 0.00106561)
(0.101628 0.000246198 0.00105621)
(0.101575 0.000233833 0.00104421)
(0.101522 0.000224579 0.00104436)
(0.101458 0.000214334 0.00104129)
(0.101384 0.000198331 0.000991541)
(0.117635 0.000107877 0.00113793)
(0.117916 9.99904e-05 0.00113403)
(0.118197 8.91959e-05 0.00113145)
(0.118487 7.60075e-05 0.00112566)
(0.118776 6.10055e-05 0.00110197)
(0.124939 -0.000135097 0.000801948)
(0.125326 -0.000138291 0.000796352)
(0.125713 -0.000144423 0.000800055)
(0.126102 -0.000153021 0.000799692)
(0.126488 -0.000160293 0.000780963)
(0.128335 -0.000307193 0.000472862)
(0.12875 -0.000305948 0.000468709)
(0.129164 -0.000308028 0.000470148)
(0.129578 -0.000311028 0.000470251)
(0.129987 -0.000310858 0.000461864)
(0.129316 -0.000411519 0.000100069)
(0.129738 -0.000407759 9.9032e-05)
(0.130157 -0.000408123 9.90754e-05)
(0.130576 -0.000407814 9.89393e-05)
(0.13099 -0.000401225 9.72501e-05)
(0.128337 -0.000473304 -0.000304428)
(0.128753 -0.00046999 -0.000303248)
(0.129166 -0.000472133 -0.000304816)
(0.129581 -0.000474007 -0.000305374)
(0.129991 -0.000468015 -0.00030029)
(0.125159 -0.000506466 -0.000735178)
(0.125538 -0.00050976 -0.000732178)
(0.125914 -0.000518155 -0.000734011)
(0.126292 -0.000526022 -0.000731935)
(0.126666 -0.000524263 -0.00071399)
(0.118438 -0.000539152 -0.00117512)
(0.118685 -0.00054581 -0.00116742)
(0.118931 -0.000554523 -0.00115949)
(0.11918 -0.00056438 -0.00114823)
(0.119425 -0.000566308 -0.0011198)
(0.103571 -0.000417027 -0.0012098)
(0.103468 -0.000416586 -0.00119792)
(0.103357 -0.000415143 -0.00118284)
(0.103245 -0.000415606 -0.00116879)
(0.103128 -0.000406516 -0.00113457)
(0.0672763 -0.000224574 -0.00103706)
(0.0666181 -0.000210834 -0.00101417)
(0.0659815 -0.000195997 -0.000987745)
(0.0653492 -0.000179753 -0.000960827)
(0.0647411 -0.000166341 -0.000938307)
(0.0641248 -0.000162764 -0.00091072)
(0.067794 0.00017031 0.0010292)
(0.0671667 0.000149831 0.00100893)
(0.0665422 0.000129513 0.000983696)
(0.0659288 0.000112446 0.000953588)
(0.0653141 0.00010207 0.000925506)
(0.0647221 9.18901e-05 0.000906423)
(0.103984 0.000389469 0.00123883)
(0.103902 0.000382724 0.00121791)
(0.103821 0.0003768 0.00120363)
(0.103736 0.000369973 0.00118498)
(0.103648 0.000360788 0.00115927)
(0.103567 0.00034748 0.00111446)
(0.119078 0.000366542 0.00121761)
(0.119343 0.000368509 0.0012108)
(0.119612 0.000369201 0.0012003)
(0.119884 0.000364224 0.00117516)
(0.126023 0.000212714 0.00080889)
(0.12641 0.000214627 0.000802019)
(0.126799 0.000216757 0.000800571)
(0.127186 0.000213906 0.00078533)
(0.129308 9.63974e-05 0.000408292)
(0.129731 9.78302e-05 0.000404081)
(0.130152 9.90006e-05 0.000402932)
(0.130571 9.67957e-05 0.000395366)
(0.130295 -1.30965e-06 -1.29255e-06)
(0.130726 -8.8488e-07 -1.02773e-06)
(0.131153 -6.98507e-07 -9.47302e-07)
(0.131579 -1.46504e-06 -2.21516e-06)
(0.131998 -2.89451e-06 -3.78765e-06)
(0.129313 -0.000100219 -0.000410663)
(0.129735 -9.93124e-05 -0.000406404)
(0.130155 -9.9421e-05 -0.000406114)
(0.130574 -9.95408e-05 -0.000404396)
(0.130987 -9.82238e-05 -0.000394754)
(0.126028 -0.000216878 -0.000810745)
(0.126416 -0.000216939 -0.000803073)
(0.126802 -0.000218216 -0.000802255)
(0.12719 -0.00021861 -0.000796753)
(0.127573 -0.000215326 -0.000772509)
(0.11908 -0.000371329 -0.00122013)
(0.119347 -0.000372113 -0.00121339)
(0.119616 -0.000372421 -0.00120638)
(0.11989 -0.000371413 -0.00119257)
(0.120164 -0.000366135 -0.00116081)
(0.103983 -0.000393511 -0.00124228)
(0.103904 -0.000387485 -0.00122435)
(0.103825 -0.000381998 -0.00121094)
(0.103745 -0.000377113 -0.00119376)
(0.103667 -0.000367625 -0.00115168)
(0.0677768 -0.000173636 -0.00103451)
(0.0671465 -0.000155136 -0.00101565)
(0.0665212 -0.000136046 -0.000994074)
(0.0659006 -0.000117333 -0.000969077)
(0.0652882 -0.000102104 -0.000946283)
(0.0679625 0.000237326 0.00105055)
(0.0672896 0.000221603 0.00103146)
(0.0666392 0.000201592 0.00100639)
(0.0659987 0.000183262 0.000977065)
(0.0653802 0.000170272 0.000950942)
(0.0647686 0.000166939 0.00093094)
(0.103677 0.00041758 0.00122802)
(0.103575 0.000414661 0.0012113)
(0.103468 0.000411202 0.00119395)
(0.103359 0.000410006 0.00118347)
(0.10324 0.000407206 0.00116897)
(0.103124 0.000391815 0.00112901)
(0.118191 0.000526281 0.00118041)
(0.11844 0.000533929 0.00117333)
(0.118686 0.000543955 0.00116737)
(0.118933 0.000554316 0.00115923)
(0.119181 0.000562865 0.00114586)
(0.119427 0.000558707 0.00111809)
(0.124773 0.000500331 0.000740237)
(0.125154 0.000502681 0.000735442)
(0.125531 0.000510922 0.00073524)
(0.12591 0.00052149 0.000736398)
(0.126289 0.000528064 0.000730364)
(0.126662 0.00051896 0.000707365)
(0.127909 0.00047285 0.000302877)
(0.12833 0.00046984 0.000301827)
(0.128743 0.00047261 0.000304136)
(0.129158 0.000476384 0.00030673)
(0.129572 0.000477539 0.000306236)
(0.12998 0.000468095 0.000298796)
(0.129308 0.000408803 -0.000102835)
(0.129731 0.000406386 -9.96763e-05)
(0.130151 0.000407402 -9.79757e-05)
(0.130571 0.000406184 -9.73485e-05)
(0.130984 0.00039637 -9.59238e-05)
(0.128335 0.000304761 -0.00047419)
(0.12875 0.000303973 -0.000469817)
(0.129164 0.000305939 -0.00047058)
(0.129579 0.000306663 -0.000470367)
(0.129987 0.000301224 -0.000460857)
(0.124944 0.000131227 -0.00080179)
(0.125332 0.000135142 -0.00079671)
(0.125719 0.000141334 -0.000800266)
(0.126109 0.000147817 -0.000800006)
(0.126494 0.000149933 -0.000778318)
(0.117643 -0.000112837 -0.00114277)
(0.117925 -0.000104379 -0.00113701)
(0.118209 -9.29865e-05 -0.00113347)
(0.118503 -7.99129e-05 -0.0011291)
(0.118791 -6.77057e-05 -0.00110228)
(0.101679 -0.000259294 -0.00107041)
(0.101633 -0.000248321 -0.00106245)
(0.101581 -0.000235711 -0.00105489)
(0.101531 -0.000224822 -0.00105419)
(0.101471 -0.000214791 -0.00102306)
(0.0644168 -5.87509e-05 -0.000869695)
(0.0638243 -5.10922e-05 -0.000850814)
(0.0632414 -4.66501e-05 -0.000809731)
(0.0626544 -4.25285e-05 -0.000740876)
(0.0621053 -3.85019e-05 -0.000673688)
(0.0631239 0.000272032 0.000837225)
(0.0625037 0.000262515 0.000818779)
(0.0619007 0.000231173 0.000768284)
(0.0613318 0.000190193 0.000701913)
(0.0607716 0.000162747 0.000656396)
(0.0602413 0.00014816 0.000627653)
(0.0996603 0.000397567 0.000991344)
(0.0995269 0.00039992 0.000973836)
(0.099389 0.000410149 0.000969481)
(0.0992288 0.000416651 0.000963616)
(0.0990636 0.000419008 0.00095421)
(0.0988876 0.000407465 0.000923766)
(0.114709 0.000651777 0.000971812)
(0.114925 0.000661517 0.00097017)
(0.115135 0.00067716 0.000970507)
(0.115343 0.00069753 0.000973474)
(0.115546 0.000717601 0.000975591)
(0.115742 0.000712408 0.000955492)
(0.121382 0.000735808 0.000543075)
(0.121737 0.000736809 0.000546985)
(0.122088 0.000749595 0.000556536)
(0.122441 0.000766602 0.000567152)
(0.122794 0.000780231 0.000574012)
(0.12314 0.000765608 0.000564188)
(0.124548 0.000808884 0.000124658)
(0.124936 0.000801389 0.000127563)
(0.125321 0.000802139 0.000134553)
(0.125709 0.000805699 0.000143535)
(0.126099 0.000805459 0.000152008)
(0.126482 0.000782749 0.000153876)
(0.126022 0.000809739 -0.000218971)
(0.126408 0.000802691 -0.000216793)
(0.126795 0.000803101 -0.000215792)
(0.127183 0.000798795 -0.000214293)
(0.127565 0.000775086 -0.000209611)
(0.12516 0.000735505 -0.000505992)
(0.125538 0.000733023 -0.000507876)
(0.125914 0.000735485 -0.000515074)
(0.126292 0.000733723 -0.000521111)
(0.126664 0.000715023 -0.000514681)
(0.121745 0.00054804 -0.000738574)
(0.122098 0.000552879 -0.000743247)
(0.122449 0.000562736 -0.000758682)
(0.122804 0.000570239 -0.000771803)
(0.123151 0.000562897 -0.00076091)
(0.114055 0.000268411 -0.000996869)
(0.114309 0.000281102 -0.00100591)
(0.114558 0.000295929 -0.00101599)
(0.114816 0.000312493 -0.00103331)
(0.115061 0.000318799 -0.00102506)
(0.0966995 -2.00291e-05 -0.000855882)
(0.0966067 -8.69502e-06 -0.000866083)
(0.0964983 1.94124e-06 -0.000875373)
(0.0963772 1.26471e-05 -0.000887072)
(0.096251 1.7625e-05 -0.000869868)
(0.0579349 -6.29268e-07 -0.000465869)
(0.0574087 -3.83555e-06 -0.000452191)
(0.0569022 -1.14366e-05 -0.000435109)
(0.0563753 -2.10067e-05 -0.000422127)
(0.0558727 -3.01343e-05 -0.000414797)
(0.0541281 0.00022197 0.000424023)
(0.0536033 0.000215658 0.000413944)
(0.0531053 0.000204826 0.000400745)
(0.0526098 0.000188989 0.00038318)
(0.0521267 0.000173178 0.000367145)
(0.0516678 0.000162197 0.000354569)
(0.0900475 0.000436756 0.000597415)
(0.0897876 0.000441915 0.000589039)
(0.0895217 0.000455001 0.00058899)
(0.0892441 0.000467153 0.000590691)
(0.0889547 0.00048423 0.000598669)
(0.0886598 0.000474685 0.000585107)
(0.106395 0.000827918 0.000626295)
(0.1065 0.000844268 0.000632916)
(0.106583 0.000865893 0.000640802)
(0.106662 0.000889675 0.00064958)
(0.106729 0.000914588 0.000659589)
(0.106792 0.00090133 0.000649212)
(0.113788 0.000992537 0.000259103)
(0.114042 0.000993276 0.000270453)
(0.11429 0.000998651 0.000284225)
(0.114546 0.00101804 0.000302106)
(0.114792 0.00104223 0.000319873)
(0.115036 0.00102396 0.000322156)
(0.117352 0.001148 -0.000117497)
(0.117631 0.00113872 -0.000111779)
(0.117913 0.00113504 -0.000102922)
(0.118197 0.00113232 -8.98965e-05)
(0.118488 0.00113167 -7.44709e-05)
(0.118774 0.00110539 -6.2744e-05)
(0.119078 0.00121799 -0.000370761)
(0.119342 0.00121303 -0.000371477)
(0.119609 0.00120526 -0.000370275)
(0.119882 0.00119177 -0.000367139)
(0.120152 0.00115984 -0.000360349)
(0.11844 0.00117312 -0.000537876)
(0.118685 0.00116635 -0.00054264)
(0.11893 0.00115883 -0.00055045)
(0.119178 0.00114797 -0.000559655)
(0.119421 0.00111925 -0.000558769)
(0.114923 0.000971278 -0.000666026)
(0.115135 0.000967903 -0.000674573)
(0.115341 0.000965357 -0.000688586)
(0.115551 0.000967108 -0.000708823)
(0.115748 0.000951791 -0.000710707)
(0.106496 0.00063048 -0.000846088)
(0.106593 0.000637938 -0.000867572)
(0.106673 0.000645566 -0.000891292)
(0.106745 0.000654249 -0.000914547)
(0.106808 0.000648001 -0.000910349)
(0.0868807 0.000199416 -0.000687974)
(0.0865851 0.000201895 -0.000701739)
(0.0862856 0.000202192 -0.000714612)
(0.0859588 0.000200814 -0.000726041)
(0.0856409 0.00018807 -0.000706259)
(0.0485038 1.3973e-05 -0.000299566)
(0.0480218 7.43091e-06 -0.000289151)
(0.0475586 -1.90485e-06 -0.00027686)
(0.0470855 -1.30649e-05 -0.000268548)
(0.0466388 -2.33934e-05 -0.000261888)
(0.0389816 0.00018319 0.000114481)
(0.0385938 0.000178269 0.000109835)
(0.0382205 0.000172374 0.000109046)
(0.0378498 0.000163075 0.000110003)
(0.0374823 0.000153791 0.000111929)
(0.0371366 0.000143568 0.000108928)
(0.0686877 0.000307098 0.000125594)
(0.0681941 0.000310004 0.000119307)
(0.0677255 0.000319754 0.000119938)
(0.0672409 0.00033117 0.000125071)
(0.066761 0.000343436 0.000133804)
(0.0662893 0.000327528 0.000125872)
(0.0871853 0.000676174 0.000203447)
(0.0868994 0.000691743 0.000207399)
(0.0866112 0.000700905 0.000206535)
(0.0862998 0.000713527 0.00020627)
(0.0859832 0.000733191 0.00020899)
(0.0856609 0.000699854 0.000192567)
(0.0968003 0.000860014 -2.70602e-05)
(0.0967132 0.0008584 -1.49491e-05)
(0.09661 0.000859395 -4.76378e-06)
(0.096501 0.000872127 5.83899e-06)
(0.096373 0.000893689 1.79384e-05)
(0.0962463 0.000863083 2.12061e-05)
(0.101725 0.00109137 -0.000264237)
(0.101674 0.00106984 -0.000253802)
(0.101623 0.00106007 -0.000242223)
(0.101572 0.00105203 -0.000230602)
(0.101515 0.00105026 -0.00022027)
(0.101458 0.00101705 -0.000210827)
(0.103985 0.00124045 -0.00038948)
(0.103903 0.00122816 -0.000384578)
(0.103821 0.00120639 -0.000377351)
(0.103742 0.00118815 -0.000372431)
(0.103661 0.00114964 -0.000363568)
(0.103577 0.00120682 -0.000416109)
(0.103474 0.00119616 -0.000415929)
(0.103363 0.00118087 -0.000414655)
(0.10325 0.00116614 -0.000415399)
(0.103134 0.00113139 -0.000405361)
(0.0995188 0.000971579 -0.000405478)
(0.0993847 0.000960576 -0.00041129)
(0.0992345 0.000953474 -0.000418759)
(0.099067 0.000947386 -0.00042593)
(0.0988937 0.000919608 -0.000416508)
(0.0897805 0.000586942 -0.000449804)
(0.0895105 0.000581802 -0.000458652)
(0.0892419 0.000583356 -0.000472956)
(0.0889466 0.00059232 -0.000493297)
(0.0886541 0.00057893 -0.000484898)
(0.06819 0.000110341 -0.00030958)
(0.067698 0.000111351 -0.000320537)
(0.0672158 0.000117514 -0.000335903)
(0.0667221 0.00012455 -0.000349309)
(0.0662512 0.00011735 -0.000335975)
(0.0359547 -6.19083e-05 -7.8274e-05)
(0.0355894 -6.14711e-05 -7.91814e-05)
(0.035232 -6.11177e-05 -8.236e-05)
(0.0348657 -6.23964e-05 -8.62282e-05)
(0.0345185 -6.48786e-05 -8.33047e-05)
(0.0230637 5.07584e-05 -2.12975e-05)
(0.0228146 5.07785e-05 -2.17342e-05)
(0.0225674 5.04489e-05 -2.075e-05)
(0.0223175 4.90188e-05 -1.89174e-05)
(0.022067 4.77441e-05 -1.65142e-05)
(0.0218346 4.38487e-05 -1.64926e-05)
(0.0363481 7.72785e-05 -5.34535e-05)
(0.0359784 7.7517e-05 -5.46818e-05)
(0.0356197 8.06519e-05 -5.47638e-05)
(0.0352559 8.49583e-05 -5.44354e-05)
(0.0348879 8.90401e-05 -5.47474e-05)
(0.0345404 8.24821e-05 -5.89829e-05)
(0.0490106 0.000301819 2.41909e-05)
(0.048527 0.000290255 1.72276e-05)
(0.0480689 0.000279317 9.92845e-06)
(0.047597 0.000271417 1.93957e-06)
(0.0584951 0.0004757 1.54062e-06)
(0.0579691 0.000455465 1.67406e-06)
(0.0574646 0.000437674 -2.52011e-06)
(0.0569465 0.000421932 -1.02165e-05)
(0.0564418 0.000414236 -1.98719e-05)
(0.065054 0.000883568 -6.96548e-05)
(0.0644619 0.000861451 -5.47058e-05)
(0.0638756 0.000838452 -4.76502e-05)
(0.0632961 0.00079994 -4.57816e-05)
(0.0627145 0.000735146 -4.38191e-05)
(0.0678112 0.001024 -0.000169501)
(0.0671894 0.00100246 -0.000152324)
(0.0665732 0.000982166 -0.000135239)
(0.06595 0.000958979 -0.000117877)
(0.0653498 0.000938412 -0.000101396)
(0.0672973 0.00102829 -0.000224646)
(0.0666457 0.00100394 -0.000213652)
(0.0660162 0.000977415 -0.000198904)
(0.0653901 0.000951565 -0.000182429)
(0.064789 0.000931525 -0.0001713)
(0.0625156 0.00082001 -0.00027062)
(0.0619049 0.000771728 -0.000247836)
(0.0613338 0.00070333 -0.00020787)
(0.0607728 0.00065426 -0.000176406)
(0.0602448 0.0006237 -0.000157251)
(0.053609 0.000416009 -0.000226976)
(0.0530974 0.000403002 -0.000217966)
(0.0526001 0.000382015 -0.000200682)
(0.0521147 0.000361877 -0.000183087)
(0.0516574 0.000347904 -0.000170282)
(0.0385858 0.000109023 -0.000187104)
(0.0382047 0.000105695 -0.000179714)
(0.0378378 0.000104849 -0.000170574)
(0.0374707 0.000105674 -0.000162583)
(0.037124 0.000103695 -0.000152033)
(0.0228003 -2.50294e-05 -5.22845e-05)
(0.0225549 -2.40796e-05 -5.19753e-05)
(0.0223099 -2.2358e-05 -5.10857e-05)
(0.0220602 -2.06493e-05 -5.01647e-05)
(0.0218265 -2.00399e-05 -4.66495e-05)
)
;

boundaryField
{
    inlet
    {
        type            fixedValue;
        value           nonuniform List<vector> 0();
    }
    ami1
    {
        type            cyclicAMI;
        value           nonuniform List<vector> 0();
    }
    walls
    {
        type            noSlip;
    }
    ami2
    {
        type            cyclicAMI;
        value           nonuniform List<vector> 0();
    }
    outlet
    {
        type            zeroGradient;
    }
    procBoundary5to6
    {
        type            processor;
        value           nonuniform List<vector> 
177
(
(0.0215987 1.68592e-05 4.2252e-05)
(0.0215987 1.68592e-05 4.2252e-05)
(0.0367541 -0.000102804 0.000138944)
(0.0511719 -0.00033683 0.000158042)
(0.0511719 -0.00033683 0.000158042)
(0.0511719 -0.00033683 0.000158042)
(0.0591561 -0.000576009 0.000133016)
(0.0635391 -0.000844566 0.000141538)
(0.0635391 -0.000844566 0.000141538)
(0.0635373 -0.000768161 5.55931e-05)
(0.103515 -0.00106243 0.00033374)
(0.0605242 -0.000532413 2.55352e-05)
(0.101338 -0.00094932 0.000177484)
(0.0544015 -0.000358898 4.6781e-05)
(0.0453783 -0.00021961 3.21682e-05)
(0.0338737 -7.42691e-05 5.20145e-05)
(0.0338737 -7.42691e-05 5.20145e-05)
(0.0338737 -7.42691e-05 5.20145e-05)
(0.0214047 -3.67802e-05 1.12211e-05)
(0.0338686 6.0049e-05 6.87386e-05)
(0.0657894 -0.000119197 0.000322364)
(0.0338686 6.0049e-05 6.87386e-05)
(0.0657894 -0.000119197 0.000322364)
(0.0657894 -0.000119197 0.000322364)
(0.0657894 -0.000119197 0.000322364)
(0.0880523 -0.000539011 0.0004451)
(0.0985272 -0.00085145 0.000391201)
(0.102903 -0.0010524 0.000379763)
(0.103515 -0.00106243 0.00033374)
(0.101338 -0.00094932 0.000177484)
(0.101338 -0.00094932 0.000177484)
(0.0958139 -0.000787093 -4.127e-05)
(0.115537 -0.000991667 -0.0003264)
(0.0846245 -0.000649678 -0.000174249)
(0.106901 -0.000883007 -0.000626901)
(0.0648429 -0.00027976 -0.000113308)
(0.0364774 -0.000117622 -0.000101377)
(0.0364774 -0.000117622 -0.000101377)
(0.0454107 4.89777e-05 0.0002017)
(0.0850098 -0.000169768 0.00066328)
(0.0850098 -0.000169768 0.00066328)
(0.0850098 -0.000169768 0.00066328)
(0.106909 -0.000621762 0.000874139)
(0.116118 -0.000909947 0.000695733)
(0.119906 -0.00106507 0.000550584)
(0.120706 -0.00109953 0.000345322)
(0.119366 -0.00104991 4.03388e-05)
(0.126883 -0.000763424 -0.000152165)
(0.115537 -0.000991667 -0.0003264)
(0.106901 -0.000883007 -0.000626901)
(0.106901 -0.000883007 -0.000626901)
(0.0877273 -0.000423314 -0.000520476)
(0.050762 -0.000137486 -0.000323304)
(0.0985198 -0.000391496 -0.00085028)
(0.050762 -0.000137486 -0.000323304)
(0.0544377 5.71712e-05 0.000351275)
(0.0610646 3.19722e-05 0.000577683)
(0.0958221 -4.04588e-05 0.000782597)
(0.115517 -0.00032281 0.000976994)
(0.101327 0.000177887 0.000943744)
(0.115517 -0.00032281 0.000976994)
(0.119069 4.82844e-05 0.00107552)
(0.123826 -0.000542827 0.000722328)
(0.126874 -0.000160854 0.00075196)
(0.127401 -0.000675482 0.000492606)
(0.130393 -0.000303537 0.000447994)
(0.12833 -0.000722478 0.000201018)
(0.126883 -0.000763424 -0.000152165)
(0.131399 -0.0003888 9.38625e-05)
(0.126883 -0.000763424 -0.000152165)
(0.126883 -0.000763424 -0.000152165)
(0.123833 -0.000731516 -0.000537302)
(0.127038 -0.000512396 -0.000688706)
(0.11613 -0.000695835 -0.000901617)
(0.119673 -0.000560246 -0.00108908)
(0.0985198 -0.000391496 -0.00085028)
(0.103019 -0.000392899 -0.00108662)
(0.0591655 -0.000141532 -0.000578921)
(0.0610646 3.19722e-05 0.000577683)
(0.101327 0.000177887 0.000943744)
(0.119069 4.82844e-05 0.00107552)
(0.119069 4.82844e-05 0.00107552)
(0.120162 0.000356027 0.00115272)
(0.126874 -0.000160854 0.00075196)
(0.127575 0.00020701 0.000762025)
(0.130393 -0.000303537 0.000447994)
(0.13099 9.21627e-05 0.000384129)
(0.131399 -0.0003888 9.38625e-05)
(0.130396 -0.000455071 -0.000292675)
(0.127038 -0.000512396 -0.000688706)
(0.119673 -0.000560246 -0.00108908)
(0.103019 -0.000392899 -0.00108662)
(0.103019 -0.000392899 -0.00108662)
(0.0635395 -0.000154806 -0.000845194)
(0.0646736 -9.17101e-05 -0.000918548)
(0.0641245 7.36233e-05 0.000863655)
(0.0641581 0.000163212 0.000906773)
(0.120162 0.000356027 0.00115272)
(0.103507 0.000333817 0.00105558)
(0.120437 0.00035175 0.00113776)
(0.103018 0.000378996 0.00108226)
(0.120162 0.000356027 0.00115272)
(0.120162 0.000356027 0.00115272)
(0.127575 0.00020701 0.000762025)
(0.127575 0.00020701 0.000762025)
(0.13099 9.21627e-05 0.000384129)
(0.13099 9.21627e-05 0.000384129)
(0.13099 9.21627e-05 0.000384129)
(0.132408 -2.85277e-06 -2.81573e-06)
(0.131394 -9.53595e-05 -0.000381204)
(0.127952 -0.000209013 -0.000741118)
(0.120437 -0.000358152 -0.0011268)
(0.103598 -0.000356316 -0.00109965)
(0.0646736 -9.17101e-05 -0.000918548)
(0.0641581 0.000163212 0.000906773)