/*--------------------------------*- C++ -*----------------------------------*\
| =========                 |                                                 |
| \\      /  F ield         | OpenFOAM: The Open Source CFD Toolbox           |
|  \\    /   O peration     | Version:  2212                                  |
|   \\  /    A nd           | Website:  www.openfoam.com                      |
|    \\/     M anipulation  |                                                 |
\*---------------------------------------------------------------------------*/
FoamFile
{
    version     2.0;
    format      ascii;
    arch        "LSB;label=32;scalar=64";
    class       volScalarField;
    location    "0.85";
    object      k;
}
// * * * * * * * * * * * * * * * * * * * * * * * * * * * * * * * * * * * * * //

dimensions      [0 2 -2 0 0 0 0];

internalField   nonuniform List<scalar> 
678
(
0.00211455
0.00211078
0.00210622
0.00210149
0.00209768
0.00182016
0.00181559
0.00181135
0.00180775
0.00180392
0.00180642
0.0018002
0.00179425
0.00178961
0.00178705
0.00176912
0.00176415
0.00175843
0.00175331
0.0017496
0.00174461
0.00174523
0.0017401
0.00173407
0.00172834
0.0017243
0.0017172
0.0017187
0.00171282
0.00170627
0.00170026
0.00169552
0.0016913
0.00169159
0.00169266
0.00168547
0.00167769
0.00167142
0.00166682
0.00166288
0.00166344
0.00167188
0.0016641
0.00165651
0.00165098
0.00164705
0.00164447
0.00164097
0.00166331
0.00165738
0.00165132
0.00164679
0.00164375
0.0016414
0.00163981
0.00172429
0.00171945
0.00171535
0.00171199
0.00170922
0.00170596
0.00211466
0.0021106
0.00210614
0.00210176
0.00209838
0.00209631
0.0017251
0.00172024
0.00171613
0.00171253
0.00170881
0.00170906
0.00128198
0.00126908
0.00126132
0.00125715
0.00125387
0.00152291
0.00150439
0.00149002
0.00148141
0.00147625
0.00146924
0.00166795
0.00164841
0.0016316
0.00161956
0.00161192
0.00160096
0.00175314
0.00173107
0.00170986
0.0016944
0.00168375
0.00167097
0.00178443
0.00176114
0.00174221
0.0017279
0.00171625
0.00170925
0.00176527
0.00174324
0.00172472
0.00171057
0.00170046
0.00169032
0.00166638
0.00164507
0.00162724
0.00161521
0.00160836
0.00160326
0.00159885
0.00146285
0.00144346
0.00142921
0.00142138
0.00141806
0.0014145
0.0014104
0.0012811
0.00126777
0.00125998
0.00125593
0.00125416
0.00125159
0.00124985
0.00182069
0.00181577
0.00181151
0.00180796
0.00180511
0.00180214
0.00166501
0.00165901
0.00165293
0.00164839
0.00164525
0.00164259
0.00164463
0.00146686
0.0014471
0.0014329
0.0014256
0.00142194
0.00141621
0.00174824
0.00172407
0.00170319
0.00168846
0.00167876
0.00166391
0.00196741
0.00193891
0.0019133
0.00189327
0.00187908
0.001861
0.00210357
0.00207186
0.00204337
0.00201971
0.00200217
0.00198036
0.0021604
0.00212706
0.00209751
0.00207294
0.002054
0.00203146
0.00212697
0.00209518
0.00206657
0.00204317
0.00202456
0.00200803
0.00198795
0.00195919
0.00193313
0.00191315
0.00189793
0.00188397
0.00174743
0.00172296
0.00170159
0.00168625
0.00167667
0.0016616
0.00152449
0.00150522
0.00149051
0.00148185
0.00147755
0.001472
0.00146819
0.00180737
0.00180077
0.00179485
0.00179019
0.00178674
0.00178475
0.00167406
0.00166612
0.00165836
0.0016528
0.00164891
0.00164606
0.00164363
0.00167213
0.00165035
0.00163264
0.00162116
0.00161441
0.00160775
0.00160434
0.00199092
0.00196214
0.00193657
0.00191671
0.00190215
0.00188449
0.00225424
0.00221819
0.00218671
0.00216105
0.00214063
0.00212219
0.00241884
0.00237855
0.0023428
0.00231325
0.00228837
0.00228476
0.00247875
0.00243688
0.00239969
0.00236899
0.0023428
0.00233075
0.00242658
0.00238628
0.00235038
0.00232105
0.00229161
0.00225294
0.00221682
0.00218498
0.00215926
0.00213663
0.00212803
0.00196831
0.00193926
0.00191311
0.00189321
0.00187695
0.00186094
0.00167117
0.00165083
0.00163364
0.00162196
0.00161259
0.00160349
0.00177072
0.00176522
0.00175948
0.00175441
0.00175049
0.00174486
0.00169523
0.00168761
0.00167969
0.00167335
0.00166907
0.00166241
0.0017715
0.00174901
0.00173052
0.0017167
0.0017063
0.00169456
0.00213141
0.00209931
0.00207106
0.00204793
0.00202422
0.00242951
0.00238913
0.00235363
0.00232391
0.00229801
0.00261445
0.0025692
0.00252915
0.00249514
0.0024688
0.00267744
0.00263066
0.00258909
0.00255404
0.00252384
0.00261238
0.00256732
0.00252714
0.00249339
0.00246289
0.00241847
0.00237795
0.00234191
0.00231247
0.00228261
0.00210517
0.0020728
0.00204374
0.00202103
0.00199213
0.00175687
0.00173381
0.0017122
0.00169701
0.00167927
0.00174717
0.00174122
0.00173502
0.00172946
0.0017241
0.00172335
0.00172131
0.00171457
0.00170802
0.0017019
0.00169777
0.0016907
0.00178893
0.00176513
0.00174656
0.00173126
0.00172281
0.00170985
0.00216597
0.00213121
0.00210221
0.0020697
0.00248439
0.00244063
0.00240383
0.00236672
0.00268197
0.00263352
0.00259143
0.00255316
0.00274616
0.00269744
0.00265416
0.00261761
0.00259099
0.00267649
0.00262965
0.00258807
0.00255296
0.00252268
0.00247815
0.00243602
0.00239878
0.00236811
0.00233809
0.00216125
0.00212727
0.00209728
0.00207361
0.00204457
0.00178746
0.00176294
0.00174416
0.00172876
0.00171786
0.00171987
0.00171328
0.00170675
0.00170105
0.001694
0.00175543
0.00174867
0.00174177
0.00173531
0.00173014
0.00172262
0.00177859
0.00175332
0.00172976
0.00171154
0.00169815
0.0016807
0.00214249
0.00210504
0.0020721
0.00204454
0.0020219
0.00200118
0.0024636
0.00241731
0.00237655
0.00234217
0.00231335
0.00229021
0.00266332
0.00261016
0.0025657
0.00252693
0.00249387
0.00246922
0.0026802
0.00263201
0.00258981
0.00255451
0.00252456
0.00261159
0.00256636
0.00252624
0.00249271
0.00246243
0.00242443
0.00238399
0.00234834
0.00231924
0.00228969
0.0021262
0.00209383
0.00206495
0.00204286
0.00201455
0.00176675
0.00174381
0.00172566
0.00171166
0.0016972
0.001693
0.0016853
0.00167769
0.00167201
0.00166421
0.00177786
0.00177127
0.0017647
0.00175876
0.00175445
0.00174856
0.00168845
0.00166524
0.00164644
0.001632
0.00162395
0.00160963
0.00199855
0.00196383
0.00193419
0.00191079
0.00189464
0.00187097
0.00229066
0.00224816
0.00221193
0.00218228
0.00215945
0.00213272
0.00247025
0.00242196
0.00238242
0.00234847
0.00232086
0.00229248
0.0024817
0.00243809
0.00240042
0.00236977
0.00233975
0.00241665
0.00237605
0.00234042
0.00231146
0.0022816
0.00225008
0.00221368
0.00218196
0.00215734
0.00212817
0.00198574
0.00195643
0.00193032
0.00191238
0.00188737
0.00166671
0.00164505
0.00162726
0.00161773
0.00160282
0.00167179
0.00166381
0.00165634
0.00165123
0.00164574
0.00181257
0.001805
0.00179835
0.00179308
0.00178926
0.00178674
0.00153537
0.00151391
0.00149818
0.00148838
0.00148382
0.00147648
0.00176878
0.00173935
0.00171567
0.00169885
0.00168898
0.00167323
0.0020182
0.0019833
0.0019537
0.00193069
0.00191501
0.00189218
0.00216378
0.00212429
0.00209238
0.00206528
0.00204492
0.00202198
0.00216276
0.0021279
0.00209803
0.00207476
0.00204767
0.00210259
0.00207016
0.00204178
0.00201987
0.0019934
0.00196441
0.00193524
0.00190952
0.00189198
0.0018668
0.00174377
0.00171915
0.00169805
0.00168584
0.00166603
0.00146256
0.00144301
0.00142897
0.00142338
0.00141364
0.00166329
0.00165699
0.00165113
0.00164707
0.00164217
0.00182488
0.00181916
0.00181437
0.00181042
0.00180722
0.00180389
0.00128801
0.00127353
0.00126535
0.00126109
0.00125921
0.001256
0.00147722
0.00145513
0.00144025
0.00143215
0.00142963
0.00142432
0.00168874
0.0016633
0.00164369
0.00163103
0.00162364
0.00161302
0.00179236
0.00176533
0.00174477
0.00172881
0.001717
0.00170678
0.00178705
0.00176301
0.00174511
0.00173053
0.0017206
0.00175409
0.00173132
0.00171095
0.00169717
0.00168067
0.00166786
0.00164782
0.00163155
0.00162225
0.0016074
0.00152093
0.00150216
0.00148853
0.00148259
0.00147218
0.00127993
0.0012668
0.00125975
0.00125617
0.00125138
0.00172416
0.00171902
0.00171497
0.00171142
0.00170716
0.00211923
0.00211444
0.0021095
0.00210466
0.00210082
0.00209872
0.00172944
0.00172348
0.00171898
0.0017152
0.00171269
0.001709
0.00166979
0.00166258
0.00165642
0.00164963
0.00167988
0.00167066
0.00166246
0.00165636
0.00165223
0.00170269
0.0016934
0.001685
0.00167849
0.00167006
0.00172112
0.00171357
0.00170719
0.00170131
0.0016958
0.00174607
0.00174027
0.00173457
0.00172956
0.00172383
0.00176886
0.00176379
0.00175864
0.00175433
0.00174905
0.00180543
0.00179915
0.00179376
0.00178959
0.00178658
0.00181974
0.00181483
0.00181073
0.00180726
0.00180344
0.00211406
0.00210987
0.00210527
0.00210071
0.00209774
)
;

boundaryField
{
    inlet
    {
        type            fixedValue;
        value           nonuniform List<scalar> 0();
    }
    ami1
    {
        type            cyclicAMI;
        value           nonuniform List<scalar> 0();
    }
    walls
    {
        type            kqRWallFunction;
        value           nonuniform List<scalar> 
250
(
0.00211455
0.00182016
0.00180642
0.00176912
0.00174523
0.0017187
0.00169266
0.00167188
0.00166331
0.00172429
0.00211466
0.00211078
0.00181559
0.0018002
0.00176415
0.0017401
0.00171282
0.00168547
0.0016641
0.00165738
0.00171945
0.0021106
0.00210622
0.00181135
0.00179425
0.00175843
0.00173407
0.00170627
0.00167769
0.00165651
0.00165132
0.00171535
0.00210614
0.00210149
0.00180775
0.00178961
0.00175331
0.00172834
0.00170026
0.00167142
0.00165098
0.00164679
0.00171199
0.00210176
0.00209768
0.00180392
0.00178705
0.0017496
0.0017243
0.00169552
0.00166682
0.00164705
0.00164375
0.00170922
0.00209838
0.00174461
0.0017172
0.0016913
0.00166288
0.00164447
0.0016414
0.00170596
0.00209631
0.00169159
0.00166344
0.00164097
0.00163981
0.00211466
0.00182069
0.00180737
0.00177072
0.00174717
0.00171987
0.001693
0.00167179
0.00166329
0.00172416
0.00211406
0.0021106
0.00181577
0.00180077
0.00176522
0.00174122
0.00171328
0.0016853
0.00166381
0.00165699
0.00171902
0.00210987
0.00210614
0.00181151
0.00179485
0.00175948
0.00173502
0.00170675
0.00167769
0.00165634
0.00165113
0.00171497
0.00210527
0.00210176
0.00180796
0.00179019
0.00175441
0.00172946
0.00170105
0.00167201
0.00165123
0.00164707
0.00171142
0.00210071
0.00209838
0.00180511
0.00178674
0.00175049
0.0017241
0.001694
0.00166421
0.00164574
0.00164217
0.00170716
0.00209774
0.00209631
0.00180214
0.00178475
0.00174486
0.00172335
0.00211923
0.00172944
0.00166979
0.00167988
0.00170269
0.00211444
0.00172348
0.00166258
0.00167066
0.0016934
0.00172112
0.00174607
0.00176886
0.00180543
0.00181974
0.00211406
0.0021095
0.00171898
0.00165642
0.00166246
0.001685
0.00171357
0.00174027
0.00176379
0.00179915
0.00181483
0.00210987
0.00210466
0.0017152
0.00164963
0.00165636
0.00167849
0.00170719
0.00173457
0.00175864
0.00179376
0.00181073
0.00210527
0.00210082
0.00171269
0.00165223
0.00167006
0.00170131
0.00172956
0.00175433
0.00178959
0.00180726
0.00210071
0.00209872
0.001709
0.0016958
0.00172383
0.00174905
0.00178658
0.00180344
0.00209774
0.00175543
0.00177786
0.00181257
0.00182488
0.00211923
0.00211455
0.0017251
0.00166501
0.00167406
0.00169523
0.00172131
0.00174867
0.00177127
0.001805
0.00181916
0.00211444
0.00211078
0.00172024
0.00165901
0.00166612
0.00168761
0.00171457
0.00174177
0.0017647
0.00179835
0.00181437
0.0021095
0.00210622
0.00171613
0.00165293
0.00165836
0.00167969
0.00170802
0.00173531
0.00175876
0.00179308
0.00181042
0.00210466
0.00210149
0.00171253
0.00164839
0.0016528
0.00167335
0.0017019
0.00173014
0.00175445
0.00178926
0.00180722
0.00210082
0.00209768
0.00170881
0.00164525
0.00164891
0.00166907
0.00169777
0.00172262
0.00174856
0.00178674
0.00180389
0.00209872
0.00170906
0.00164259
0.00164606
0.00166241
0.0016907
0.00164463
0.00164363
)
;
    }
    ami2
    {
        type            cyclicAMI;
        value           nonuniform List<scalar> 0();
    }
    outlet
    {
        type            zeroGradient;
    }
    procBoundary5to6
    {
        type            processor;
        value           nonuniform List<scalar> 
177
(
0.00209628
0.00209628
0.00180206
0.00178525
0.00178525
0.00178525
0.0017422
0.00171563
0.00171563
0.00169097
0.00170302
0.00166239
0.00168337
0.00164025
0.00163888
0.00170612
0.00170612
0.00170612
0.00209641
0.00170585
0.00124694
0.00170585
0.00124694
0.00124694
0.00124694
0.00146025
0.00159164
0.00166279
0.00170302
0.00168337
0.00168337
0.00159004
0.00187476
0.00140173
0.0016525
0.00124265
0.00180219
0.00180219
0.00164294
0.00140812
0.00140812
0.00140812
0.00165277
0.00184904
0.00197127
0.00202156
0.00199823
0.00228199
0.00187476
0.0016525
0.0016525
0.00145713
0.00178349
0.00159164
0.00178349
0.00164298
0.00166034
0.00159571
0.00187448
0.00168503
0.00187448
0.00200886
0.00211198
0.00228292
0.00227984
0.00245735
0.00232331
0.00228199
0.00251332
0.00228199
0.00228199
0.00212105
0.00227174
0.00184935
0.00197514
0.00159164
0.00166599
0.00174239
0.00166034
0.00168503
0.00200886
0.00200886
0.00205049
0.00228292
0.00234782
0.00245735
0.00253527
0.00251332
0.00245309
0.00227174
0.00197514
0.00166599
0.00166599
0.00172106
0.00168924
0.00168752
0.00171687
0.00205049
0.00170091
0.00203595
0.00166765
0.00205049
0.00205049
0.00234782
0.00234782
0.00253527
0.00253527
0.00253527
0.00257873
0.0025122
0.00232637
0.00202758
0.00170603
0.00168924
0.00171687
0.00166765
0.00198355
0.00227365
0.00245518
0.00251299
0.00245217
0.00227748
0.00199767
0.00168349
0.00165992
0.00174463
0.00159621
0.00185409
0.00211548
0.00227694
0.0023271
0.00226974
0.00211404
0.00187014
0.0015872
0.00164176
0.00178487
0.00146567
0.00165836
0.00187541
0.0020044
0.00203084
0.00197591
0.00184877
0.00164909
0.00139992
0.0016388
0.00180277
0.00124708
0.00164662
0.00141361
0.00164506
0.00159866
0.0016475
0.00169205
0.00166506
0.00170819
0.00166673
0.00159122
0.00145781
0.00124035
0.00170432
0.00209784
0.00164662
0.00170705
0.00164506
0.00164662
0.00164662
0.0016475
0.00166506
0.00166506
0.00169026
0.00171767
0.00174388
0.00178318
0.00180127
0.00209591
)
;
    }
    procBoundary5to7
    {
        type            processor;
        value           nonuniform List<scalar> 
131
(
0.0021194
0.00182511
0.0018125
0.00177697
0.00175427
0.00172725
0.00170037
0.00167827
0.00166987
0.00173039
0.00211937
0.00173089
0.00129839
0.00154456
0.00169211
0.00177584
0.00181076
0.00179319
0.00169266
0.00148551
0.0012981
0.00182561
0.00167166
0.00148979
0.00177822
0.00200139
0.00213946
0.0021977
0.0021634
0.00202128
0.0017768
0.00154706
0.00181381
0.00168048
0.00169962
0.00202536
0.00229292
0.00245966
0.00252038
0.0024672
0.00229106
0.00200207
0.00169663
0.00177912
0.00170288
0.00180137
0.0021688
0.0024703
0.00265764
0.00272187
0.00265556
0.00245895
0.0021415
0.00178129
0.00175642
0.00172984
0.00172984
0.00181871
0.00181871
0.00220497
0.00220497
0.00252625
0.00252625
0.00272697
0.00272697
0.00279149
0.00272076
0.00251956
0.00219881
0.00181536
0.00172889
0.00176614
0.00180721
0.00218398
0.0025101
0.00271194
0.00272546
0.00272546
0.00265466
0.00246508
0.00216292
0.00179619
0.00170126
0.00178771
0.00171643
0.00203867
0.00233611
0.00251709
0.00252411
0.00252411
0.00245717
0.00228837
0.00201973
0.0016945
0.00167883
0.00182045
0.00156086
0.00180523
0.00205927
0.00220628
0.00220234
0.00220234
0.00213952
0.00199899
0.00177454
0.00148704
0.00167059
0.00183092
0.00130675
0.00150572
0.0017227
0.00182694
0.00181771
0.00181771
0.00177935
0.00169412
0.00154559
0.00129855
0.0017306
0.00212505
0.00173634
0.00167884
0.00168907
0.00171302
0.00173127
0.00173127
0.00175605
0.00177811
0.00181273
0.00182521
0.00211921
)
;
    }
}


// ************************************************************************* //
