/*--------------------------------*- C++ -*----------------------------------*\
| =========                 |                                                 |
| \\      /  F ield         | OpenFOAM: The Open Source CFD Toolbox           |
|  \\    /   O peration     | Version:  2212                                  |
|   \\  /    A nd           | Website:  www.openfoam.com                      |
|    \\/     M anipulation  |                                                 |
\*---------------------------------------------------------------------------*/
FoamFile
{
    version     2.0;
    format      ascii;
    arch        "LSB;label=32;scalar=64";
    class       volScalarField;
    location    "2.55";
    object      p;
}
// * * * * * * * * * * * * * * * * * * * * * * * * * * * * * * * * * * * * * //

dimensions      [0 2 -2 0 0 0 0];

internalField   nonuniform List<scalar> 
682
(
0.00322609
0.003095
0.00296534
0.00283706
0.00271005
0.00258419
0.00245952
0.00233605
0.00221375
0.0020926
0.00197261
0.00322203
0.0030916
0.00296256
0.00283482
0.0027083
0.00258292
0.00245869
0.0023356
0.0022136
0.00209273
0.00197282
0.00321328
0.00308345
0.0029551
0.00282798
0.00270207
0.00257724
0.00245354
0.002331
0.00220945
0.00208909
0.00196934
0.00333163
0.00320507
0.00307923
0.00295306
0.00282661
0.00270113
0.00257642
0.00245289
0.00233064
0.00220907
0.00208851
0.00196871
0.00333394
0.0032097
0.00308556
0.00296015
0.00283394
0.00270853
0.00258395
0.00246066
0.00233857
0.00221675
0.00209542
0.0019749
0.0033358
0.00320833
0.00308084
0.00295321
0.00282585
0.00269983
0.00257491
0.00245142
0.00232925
0.00220756
0.00208684
0.00196728
0.00322134
0.00309169
0.00296331
0.00283612
0.0027101
0.00258525
0.00246147
0.00233869
0.00221679
0.00209573
0.00197576
0.00322112
0.00309074
0.00296184
0.00283442
0.00270829
0.00258333
0.00245947
0.00233662
0.00221473
0.00209367
0.00197386
0.00321295
0.0030826
0.00295387
0.00282686
0.00270097
0.00257643
0.00245303
0.00233056
0.00220916
0.00208882
0.00196975
0.00333535
0.00320445
0.0030746
0.00294657
0.00282025
0.00269502
0.00257124
0.00244866
0.00232697
0.00220615
0.0020867
0.00196834
0.00334177
0.00321401
0.00308659
0.00295963
0.00283302
0.00270756
0.00258306
0.00245982
0.00233785
0.00221656
0.0020961
0.00197636
0.00333797
0.00320751
0.00307721
0.00294764
0.00281898
0.00269202
0.00256654
0.00244277
0.00232046
0.00219881
0.00207862
0.00196005
0.00318073
0.00305127
0.00292322
0.00279646
0.00267093
0.00254662
0.00242338
0.00230113
0.00217977
0.00205935
0.0019399
0.00318238
0.00305227
0.00292383
0.00279678
0.002671
0.00254639
0.00242287
0.00230044
0.00217917
0.00205894
0.00193988
0.00318146
0.0030512
0.00292278
0.00279607
0.00267067
0.00254627
0.00242269
0.00230027
0.00217965
0.0020602
0.00194211
0.00331294
0.0031819
0.00305267
0.00292497
0.00279903
0.00267406
0.00255028
0.00242726
0.00230512
0.00218465
0.00206546
0.00194752
0.00333471
0.00320534
0.00307707
0.00294967
0.00282336
0.00269792
0.0025738
0.00245069
0.00232853
0.00220698
0.00208632
0.00196684
0.00333925
0.00320655
0.00307501
0.00294489
0.00281611
0.00268893
0.00256324
0.00243903
0.00231616
0.00219418
0.00207366
0.00195474
0.00316527
0.0030358
0.00290785
0.00278129
0.00265603
0.00253196
0.00240899
0.00228707
0.00216617
0.00204629
0.00192721
0.00316768
0.00303786
0.00290964
0.00278287
0.00265743
0.00253321
0.00241013
0.00228817
0.00216734
0.0020476
0.0019287
0.00317233
0.00304254
0.00291443
0.00278786
0.00266265
0.00253856
0.00241551
0.0022936
0.00217309
0.00205384
0.00193545
0.0033121
0.00318095
0.00305156
0.00292375
0.00279735
0.0026722
0.00254793
0.00242467
0.00230249
0.00218212
0.0020628
0.00194415
0.00334404
0.00321389
0.00308489
0.0029569
0.00283
0.00270414
0.00257942
0.00245574
0.00233297
0.00221118
0.00209008
0.00196992
0.00335583
0.00322208
0.00308998
0.00295935
0.00283023
0.00270252
0.00257618
0.00245091
0.00232693
0.0022036
0.00208078
0.00195916
0.00315884
0.00302917
0.00290107
0.00277439
0.00264903
0.00252488
0.00240187
0.00227994
0.00215904
0.00203915
0.00192005
0.00316545
0.00303602
0.00290813
0.00278165
0.00265646
0.00253246
0.00240956
0.00228774
0.00216697
0.00204726
0.00192839
0.00330935
0.00317854
0.00304932
0.00292158
0.00279517
0.00266998
0.00254588
0.00242283
0.00230076
0.0021797
0.00205962
0.00194066
0.00334764
0.00321739
0.0030882
0.0029602
0.00283331
0.00270754
0.00258288
0.00245931
0.00233662
0.00221487
0.00209388
0.00197393
0.0033593
0.00322601
0.00309447
0.00296428
0.00283546
0.002708
0.0025818
0.00245677
0.00233292
0.00221027
0.00208883
0.00196826
0.0031567
0.00302709
0.00289904
0.00277239
0.00264706
0.00252293
0.00239994
0.00227802
0.00215711
0.00203718
0.00191804
0.00316529
0.00303582
0.0029079
0.00278135
0.00265608
0.002532
0.00240902
0.0022871
0.00216618
0.00204629
0.00192719
0.00331178
0.00318069
0.0030512
0.00292318
0.00279644
0.00267091
0.00254658
0.00242334
0.00230107
0.00217973
0.00205931
0.00193984
0.00335214
0.00322129
0.00309161
0.00296322
0.002836
0.00270995
0.00258505
0.00246124
0.00233842
0.0022165
0.00209543
0.00197546
0.0033587
0.00322612
0.00309505
0.00296532
0.00283697
0.00270988
0.00258395
0.00245921
0.00233569
0.00221333
0.00209214
0.00197212
0.00315882
0.00302915
0.00290105
0.00277436
0.00264899
0.00252483
0.0024018
0.00227986
0.00215894
0.00203904
0.00191994
0.00316764
0.00303782
0.00290963
0.00278286
0.00265741
0.00253317
0.00241007
0.00228809
0.00216722
0.00204745
0.00192852
0.00331436
0.00318228
0.00305217
0.00292378
0.00279676
0.00267097
0.00254632
0.00242276
0.00230034
0.00217903
0.00205876
0.00193966
0.00335311
0.00322104
0.00309066
0.00296175
0.00283431
0.00270814
0.00258312
0.00245923
0.00233636
0.00221445
0.00209341
0.00197356
0.0033538
0.0032221
0.00309163
0.00296249
0.00283469
0.0027081
0.00258267
0.00245841
0.00233528
0.00221325
0.00209234
0.00197242
0.00316546
0.003036
0.00290809
0.00278159
0.00265638
0.00253235
0.00240942
0.00228757
0.00216676
0.00204702
0.00192815
0.00317228
0.00304249
0.0029144
0.00278784
0.00266261
0.00253847
0.00241535
0.00229346
0.00217285
0.00205352
0.00193509
0.00331356
0.00318132
0.0030511
0.00292272
0.00279607
0.00267069
0.00254616
0.00242246
0.00230022
0.00217943
0.00205984
0.00194165
0.00334503
0.00321294
0.00308257
0.00295378
0.0028267
0.00270087
0.00257621
0.00245276
0.00233029
0.00220894
0.00208862
0.00196953
0.00334415
0.00321346
0.0030835
0.00295501
0.0028278
0.00270183
0.00257702
0.00245333
0.00233073
0.00220917
0.00208875
0.00196904
0.00317858
0.00304934
0.00292157
0.00279513
0.00266992
0.00254579
0.00242267
0.00230056
0.00217943
0.00205927
0.00194031
0.00318091
0.00305151
0.00292369
0.00279736
0.0026722
0.00254786
0.00242446
0.00230235
0.00218179
0.00206229
0.00194365
0.00331297
0.00318164
0.00305249
0.00292488
0.00279894
0.00267415
0.00255015
0.00242703
0.00230503
0.0021845
0.00206506
0.00194704
0.00333532
0.0032044
0.0030745
0.00294649
0.00281996
0.00269475
0.00257094
0.00244851
0.00232669
0.00220607
0.00208671
0.00196831
0.00333152
0.00320512
0.00307918
0.00295293
0.00282646
0.00270078
0.00257622
0.00245281
0.00233045
0.00220888
0.00208832
0.00196855
0.00321752
0.00308832
0.00296029
0.00283338
0.00270758
0.0025829
0.0024593
0.00233656
0.00221479
0.00209374
0.00197377
0.00321385
0.00308488
0.00295697
0.00283005
0.00270421
0.00257942
0.00245575
0.00233292
0.00221114
0.00208991
0.00196971
0.00333476
0.0032052
0.00307697
0.00294971
0.0028232
0.00269777
0.0025736
0.00245068
0.00232843
0.00220705
0.00208642
0.00196684
0.00334177
0.00321426
0.0030867
0.00295958
0.00283288
0.0027072
0.00258285
0.00245973
0.00233772
0.00221648
0.00209621
0.00197643
0.00333392
0.00320994
0.00308568
0.00296
0.00283389
0.00270829
0.00258385
0.00246056
0.00233837
0.00221654
0.00209532
0.00197478
0.00322611
0.00309453
0.00296433
0.0028355
0.00270804
0.00258184
0.00245683
0.00233301
0.00221037
0.00208891
0.00196825
0.00322221
0.00309007
0.00295938
0.0028302
0.00270248
0.00257611
0.0024509
0.00232702
0.00220369
0.00208089
0.00195912
0.00333943
0.00320685
0.0030751
0.00294474
0.00281593
0.00268865
0.00256307
0.00243889
0.00231608
0.00219417
0.00207385
0.00195482
0.00333817
0.00320786
0.00307735
0.00294745
0.0028189
0.0026918
0.00256647
0.00244267
0.00232034
0.00219873
0.00207872
0.0019601
0.0033359
0.00320861
0.00308096
0.00295303
0.00282579
0.00269957
0.0025748
0.00245131
0.0023291
0.00220742
0.00208685
0.00196725
)
;

boundaryField
{
    inlet
    {
        type            zeroGradient;
    }
    ami1
    {
        type            cyclicAMI;
        value           nonuniform List<scalar> 0();
    }
    walls
    {
        type            zeroGradient;
    }
    ami2
    {
        type            cyclicAMI;
        value           nonuniform List<scalar> 0();
    }
    outlet
    {
        type            fixedValue;
        value           nonuniform List<scalar> 0();
    }
    procBoundary9to0
    {
        type            processor;
        value           nonuniform List<scalar> 
40
(
0.00335879
0.00335391
0.00334419
0.00334419
0.00345976
0.00346
0.00346476
0.00335216
0.00335313
0.00334502
0.00334502
0.00346653
0.00347014
0.00346942
0.00331171
0.00331427
0.00331346
0.00331346
0.00344564
0.00346496
0.00347317
0.00329637
0.00329919
0.00330382
0.00330382
0.00344495
0.00347523
0.00349186
0.00329019
0.00329652
0.00329652
0.00344178
0.00347874
0.00349545
0.00328804
0.00329643
0.00329643
0.00344466
0.00348401
0.00349356
)
;
    }
    procBoundary9to1
    {
        type            processor;
        value           nonuniform List<scalar> 
30
(
0.0032902
0.00329923
0.00329923
0.00344851
0.00348685
0.00348697
0.00329655
0.00330389
0.00330389
0.0034475
0.00347884
0.00347559
0.00330932
0.00331209
0.00331209
0.00344549
0.00346649
0.00345967
0.00334775
0.00334414
0.00334414
0.00346506
0.00347036
0.00345999
0.00335951
0.00335605
0.00335605
0.00347367
0.00346974
0.00346492
)
;
    }
    procBoundary9to7
    {
        type            processor;
        value           nonuniform List<scalar> 
59
(
0.00185366
0.00185384
0.00185089
0.00185064
0.00185619
0.00184925
0.00185686
0.00185494
0.00185128
0.00185074
0.0018579
0.00184271
0.00182146
0.00182178
0.00182469
0.00183028
0.0018487
0.00183702
0.00180897
0.0018105
0.00181736
0.00182592
0.00185135
0.00183954
0.00180178
0.00181027
0.00182249
0.00185512
0.00184871
0.00179976
0.00180891
0.00182138
0.00185654
0.00185319
0.00180169
0.00181034
0.00182153
0.00185459
0.00185345
0.00181006
0.00181703
0.00182413
0.00185108
0.0018506
0.00182217
0.00182539
0.00182972
0.00185076
0.00185025
0.0018549
0.00185095
0.00184854
0.00185789
0.001856
0.00184855
0.00183932
0.00183713
0.00184275
0.00184918
)
;
    }
    procBoundary9to8
    {
        type            processor;
        value           nonuniform List<scalar> 
132
(
0.00322593
0.00309436
0.00296422
0.00283549
0.00270812
0.00258199
0.00245707
0.00233326
0.00221071
0.00208931
0.00196875
0.00321743
0.00308824
0.00296023
0.00283337
0.00270763
0.00258306
0.00245945
0.00233691
0.00221514
0.00209413
0.00197417
0.00317853
0.00304929
0.00292151
0.0027951
0.00266993
0.00254588
0.0024228
0.00230079
0.00217965
0.00205956
0.00194063
0.00316536
0.00303591
0.00290799
0.00278151
0.00265633
0.00253235
0.00240946
0.00228765
0.00216686
0.00204717
0.00192835
0.00315667
0.00302706
0.00289899
0.00277235
0.00264701
0.00252289
0.00239991
0.00227799
0.00215708
0.00203717
0.00191804
0.00315667
0.00302706
0.00289899
0.00277235
0.00264701
0.00252289
0.00239991
0.00227799
0.00215708
0.00203717
0.00191804
0.0031537
0.00302417
0.00289617
0.00276956
0.00264426
0.00252016
0.00239719
0.00227529
0.0021544
0.00203447
0.00191533
0.0031567
0.00302709
0.00289902
0.00277238
0.00264703
0.0025229
0.0023999
0.00227798
0.00215706
0.00203713
0.00191799
0.00316531
0.00303582
0.00290785
0.00278129
0.002656
0.00253191
0.00240891
0.00228697
0.00216604
0.00204613
0.00192703
0.00318072
0.00305123
0.00292316
0.00279638
0.00267083
0.00254648
0.00242321
0.00230092
0.00217953
0.00205907
0.00193958
0.00322137
0.00309169
0.00296327
0.00283603
0.00270996
0.00258505
0.00246122
0.00233837
0.00221642
0.0020953
0.00197527
0.0032262
0.00309509
0.00296539
0.00283705
0.00270997
0.00258405
0.0024593
0.00233578
0.0022134
0.00209215
0.00197206
)
;
    }
}


// ************************************************************************* //
