/*--------------------------------*- C++ -*----------------------------------*\
| =========                 |                                                 |
| \\      /  F ield         | OpenFOAM: The Open Source CFD Toolbox           |
|  \\    /   O peration     | Version:  2212                                  |
|   \\  /    A nd           | Website:  www.openfoam.com                      |
|    \\/     M anipulation  |                                                 |
\*---------------------------------------------------------------------------*/
FoamFile
{
    version     2.0;
    format      ascii;
    arch        "LSB;label=32;scalar=64";
    class       volScalarField;
    location    "1.35";
    object      epsilon;
}
// * * * * * * * * * * * * * * * * * * * * * * * * * * * * * * * * * * * * * //

dimensions      [0 2 -3 0 0 0 0];

internalField   nonuniform List<scalar> 
6840
(
90.5034
12.1248
4.38869
2.46658
1.63315
1.18306
0.902005
0.72065
0.594566
0.50247
0.432628
0.379207
0.336195
0.299672
0.269871
0.245647
0.225776
0.209444
0.197579
0.184508
58.5856
14.5696
6.08947
3.33295
2.08217
1.40266
0.998646
0.740277
0.565892
0.443913
0.356007
0.290911
0.241387
0.202985
0.173088
0.149819
0.131399
0.116735
0.105495
0.0973673
45.0226
13.4729
5.73075
3.07323
1.86023
1.227
0.87358
0.649785
0.497021
0.389499
0.311313
0.253009
0.209026
0.175281
0.148924
0.12804
0.111356
0.097929
0.0871262
0.0787143
38.7028
13.0541
5.74337
3.08734
1.88067
1.22751
0.869487
0.645397
0.492609
0.384803
0.307057
0.249088
0.205038
0.171073
0.144521
0.123504
0.106677
0.0930679
0.0819822
0.0730533
36.0571
12.8529
5.76645
3.10212
1.89476
1.2267
0.866514
0.644001
0.492273
0.383995
0.305841
0.247979
0.204001
0.170059
0.14349
0.122423
0.105518
0.0918116
0.0806605
0.0721504
36.0571
12.8529
5.76645
3.10212
1.89476
1.22669
0.866507
0.643991
0.492261
0.383979
0.305817
0.247947
0.203958
0.169997
0.143402
0.122301
0.105349
0.0915814
0.0803908
0.0722207
38.7028
13.0541
5.74336
3.08733
1.88066
1.2275
0.869471
0.645376
0.492581
0.384766
0.307003
0.249016
0.204936
0.170927
0.144316
0.123212
0.106256
0.0924657
0.08121
0.0730753
45.0226
13.4729
5.73075
3.07322
1.86022
1.22698
0.873565
0.649764
0.496994
0.389452
0.311253
0.252926
0.20891
0.175116
0.148678
0.127676
0.110807
0.097089
0.0858728
0.077072
58.5856
14.5696
6.08946
3.33295
2.08217
1.40266
0.998642
0.740271
0.565884
0.443896
0.355979
0.290867
0.241319
0.202838
0.172875
0.149486
0.130822
0.11567
0.103508
0.094017
90.5034
12.1248
4.38869
2.46658
1.63315
1.18306
0.902005
0.72065
0.594565
0.502471
0.432626
0.37921
0.336193
0.299673
0.269871
0.245649
0.225777
0.209446
0.197582
0.184516
58.5856
14.5696
6.08946
3.33295
2.08217
1.40266
0.998642
0.740271
0.565884
0.443896
0.355979
0.290867
0.241318
0.20284
0.172875
0.149484
0.13082
0.115667
0.103505
0.0940109
16.5373
9.49238
5.0127
2.8606
1.75746
1.14759
0.786929
0.562047
0.415362
0.315941
0.246323
0.19621
0.159203
0.131226
0.109747
0.093149
0.0800824
0.0695811
0.0604894
0.0560277
13.6679
8.73671
5.07741
3.05388
1.92224
1.26609
0.869292
0.618635
0.453964
0.342041
0.263659
0.207323
0.165916
0.134864
0.111164
0.0927075
0.0781861
0.0666454
0.0571628
0.0500332
12.9054
8.33993
5.07879
3.15547
2.02775
1.35121
0.933544
0.666467
0.489556
0.368608
0.283621
0.222407
0.177352
0.143555
0.117774
0.097802
0.0821181
0.0696516
0.0596193
0.0513414
12.6882
8.1544
5.07113
3.20039
2.0794
1.39506
0.967836
0.692728
0.509645
0.384025
0.295515
0.231661
0.184608
0.149279
0.122303
0.101404
0.0849884
0.0719358
0.0614456
0.0529623
12.6882
8.1544
5.07113
3.20038
2.07939
1.39506
0.967831
0.692722
0.509637
0.384016
0.295503
0.231647
0.18459
0.149256
0.122275
0.10137
0.0849464
0.0718863
0.061389
0.0528979
12.9054
8.33993
5.07879
3.15547
2.02774
1.3512
0.933534
0.666454
0.489541
0.368589
0.283597
0.222377
0.177314
0.143508
0.117715
0.0977292
0.0820304
0.069549
0.0595052
0.0511919
13.6679
8.73671
5.0774
3.05388
1.92223
1.26609
0.869286
0.618627
0.453954
0.342027
0.263641
0.2073
0.165888
0.134831
0.111116
0.0926492
0.0781189
0.0665731
0.0570934
0.049656
16.5373
9.49238
5.0127
2.8606
1.75746
1.14759
0.786929
0.562047
0.415362
0.315941
0.246323
0.19621
0.159203
0.131233
0.109741
0.0931467
0.0800814
0.0695806
0.060489
0.0560277
58.5856
14.5696
6.08947
3.33295
2.08217
1.40266
0.998646
0.740277
0.565892
0.443913
0.356007
0.29091
0.241388
0.202985
0.173087
0.14982
0.1314
0.116735
0.105495
0.0973662
45.0226
13.4729
5.73075
3.07322
1.86022
1.22698
0.873565
0.649764
0.496994
0.389452
0.311253
0.252927
0.208911
0.175118
0.148678
0.127675
0.110806
0.0970886
0.0858718
0.0770699
13.6679
8.73671
5.0774
3.05388
1.92223
1.26609
0.869285
0.618627
0.453954
0.342027
0.263641
0.2073
0.165887
0.134827
0.111119
0.0926503
0.0781184
0.066571
0.0570941
0.0496551
11.8601
7.76395
4.99734
3.24076
2.14419
1.45499
1.0141
0.725635
0.532155
0.399148
0.305544
0.23822
0.188823
0.151913
0.123875
0.102238
0.08532
0.0719284
0.0611851
0.0525858
11.6229
7.60535
5.01031
3.34209
2.26848
1.57142
1.11236
0.804591
0.594208
0.447522
0.343217
0.267641
0.211908
0.170131
0.138338
0.1138
0.0946187
0.0794474
0.0673151
0.0575211
11.5726
7.56718
5.02065
3.38345
2.32103
1.62326
1.15829
0.843157
0.625693
0.472852
0.363488
0.283858
0.224911
0.180595
0.146795
0.120673
0.100232
0.0840536
0.0711123
0.0606361
11.5726
7.56718
5.02065
3.38344
2.32103
1.62326
1.15828
0.843153
0.625688
0.472846
0.36348
0.283849
0.2249
0.180581
0.146778
0.120652
0.100207
0.0840247
0.0710834
0.0606212
11.6229
7.60535
5.0103
3.34209
2.26848
1.57142
1.11236
0.804585
0.5942
0.447512
0.343204
0.267626
0.21189
0.170108
0.138308
0.113763
0.0945747
0.0793968
0.0672627
0.0574903
11.8601
7.76395
4.99734
3.24076
2.14419
1.45499
1.0141
0.725635
0.532155
0.399148
0.305545
0.238221
0.188825
0.151916
0.123872
0.102237
0.0853198
0.0719285
0.0611858
0.0525891
13.6679
8.73671
5.07741
3.05388
1.92224
1.26609
0.869292
0.618635
0.453964
0.342041
0.263659
0.207323
0.165916
0.134867
0.111162
0.092706
0.0781849
0.0666443
0.0571615
0.050038
45.0226
13.4729
5.73075
3.07323
1.86023
1.227
0.87358
0.649785
0.497021
0.389499
0.311313
0.253009
0.209026
0.175281
0.148922
0.12804
0.111355
0.0979285
0.0871254
0.0787112
38.7028
13.0541
5.74336
3.08733
1.88066
1.2275
0.869471
0.645376
0.492581
0.384766
0.307003
0.249016
0.204937
0.170929
0.144315
0.123211
0.106255
0.0924652
0.0812091
0.0730736
12.9054
8.33993
5.07879
3.15547
2.02774
1.3512
0.933534
0.666454
0.489541
0.368589
0.283596
0.222376
0.177313
0.143507
0.117717
0.0977292
0.0820295
0.0695472
0.0595027
0.0511878
11.6229
7.60535
5.0103
3.34209
2.26848
1.57142
1.11236
0.804585
0.5942
0.447512
0.343204
0.267625
0.211889
0.170107
0.138309
0.113764
0.0945741
0.0793957
0.0672611
0.0574873
11.4933
7.5119
5.02843
3.434
2.3892
1.6928
1.22111
0.896487
0.669456
0.508122
0.391656
0.306285
0.242784
0.194888
0.158282
0.129955
0.107779
0.0902305
0.0761949
0.0648119
11.4757
7.50136
5.04297
3.47002
2.43665
1.74299
1.26863
0.938713
0.705584
0.538337
0.416595
0.32673
0.259501
0.208559
0.169487
0.139172
0.115394
0.0965486
0.0814527
0.0691557
11.4757
7.50136
5.04297
3.47002
2.43665
1.74299
1.26863
0.938711
0.705583
0.538335
0.416592
0.326727
0.259498
0.208556
0.169483
0.139167
0.115388
0.0965419
0.0814451
0.0691264
11.4933
7.5119
5.02843
3.434
2.3892
1.6928
1.22111
0.896487
0.669456
0.508122
0.391656
0.306286
0.242785
0.194888
0.158281
0.129955
0.10778
0.0902307
0.0761954
0.064814
11.6229
7.60535
5.01031
3.34209
2.26848
1.57142
1.11236
0.804591
0.594208
0.447522
0.343217
0.267641
0.211908
0.170131
0.138337
0.1138
0.0946183
0.079447
0.0673147
0.0575223
12.9054
8.33993
5.07879
3.15547
2.02775
1.35121
0.933544
0.666467
0.489556
0.368608
0.283621
0.222407
0.177351
0.143554
0.117774
0.0978021
0.082118
0.0696512
0.0596189
0.0513414
38.7028
13.0541
5.74337
3.08734
1.88067
1.22751
0.869487
0.645397
0.492609
0.384803
0.307057
0.249088
0.205038
0.171073
0.144521
0.123504
0.106677
0.0930674
0.0819813
0.0730519
36.0571
12.8529
5.76645
3.10212
1.89476
1.22669
0.866507
0.643991
0.492261
0.383979
0.305817
0.247947
0.203958
0.169997
0.143402
0.122301
0.105349
0.0915816
0.0803909
0.0722223
12.6882
8.1544
5.07113
3.20038
2.07939
1.39506
0.967831
0.692722
0.509637
0.384016
0.295503
0.231646
0.18459
0.149256
0.122275
0.101369
0.0849454
0.0718849
0.0613869
0.052895
11.5726
7.56718
5.02065
3.38344
2.32103
1.62326
1.15828
0.843153
0.625688
0.472846
0.36348
0.283848
0.224899
0.18058
0.146778
0.120651
0.100206
0.0840235
0.0710818
0.0606194
11.4757
7.50136
5.04297
3.47002
2.43665
1.74299
1.26863
0.938711
0.705583
0.538335
0.416592
0.326727
0.259498
0.208556
0.169483
0.139167
0.115387
0.0965414
0.0814447
0.0691265
11.4647
7.49683
5.0577
3.50272
2.48038
1.79068
1.31522
0.981305
0.742925
0.57021
0.443351
0.348968
0.277889
0.223737
0.182021
0.149546
0.124008
0.103731
0.0874528
0.0740955
11.4647
7.49683
5.0577
3.50272
2.48038
1.79068
1.31522
0.981305
0.742925
0.57021
0.443351
0.348968
0.277889
0.223737
0.182021
0.149546
0.124009
0.103731
0.0874531
0.0740955
11.4757
7.50136
5.04297
3.47002
2.43665
1.74299
1.26863
0.938713
0.705584
0.538336
0.416594
0.32673
0.259501
0.208559
0.169487
0.139172
0.115393
0.0965483
0.0814524
0.0691554
11.5726
7.56718
5.02065
3.38345
2.32103
1.62326
1.15829
0.843157
0.625693
0.472852
0.363488
0.283858
0.22491
0.180594
0.146796
0.120673
0.100232
0.0840528
0.0711112
0.0606356
12.6882
8.1544
5.07113
3.20039
2.0794
1.39506
0.967836
0.692728
0.509645
0.384025
0.295515
0.231661
0.184607
0.149276
0.122306
0.101406
0.0849892
0.0719363
0.0614458
0.0529626
36.0571
12.8529
5.76645
3.10212
1.89476
1.2267
0.866513
0.644
0.492273
0.383995
0.30584
0.247978
0.204
0.170058
0.143491
0.122424
0.105519
0.0918119
0.0806606
0.0721501
36.0571
12.8529
5.76645
3.10212
1.89476
1.2267
0.866513
0.644
0.492273
0.383995
0.30584
0.247979
0.204001
0.170059
0.14349
0.122423
0.105518
0.091812
0.0806614
0.0721508
12.6882
8.1544
5.07113
3.20039
2.0794
1.39506
0.967836
0.692728
0.509645
0.384025
0.295515
0.231661
0.184608
0.149279
0.122303
0.101404
0.0849884
0.0719359
0.0614456
0.0529624
11.5726
7.56718
5.02065
3.38345
2.32103
1.62326
1.15829
0.843157
0.625693
0.472852
0.363488
0.283858
0.224911
0.180595
0.146795
0.120673
0.100232
0.0840536
0.0711124
0.060637
11.4757
7.50136
5.04297
3.47002
2.43665
1.74299
1.26863
0.938713
0.705584
0.538337
0.416595
0.32673
0.259501
0.20856
0.169487
0.139172
0.115394
0.0965488
0.081453
0.0691565
11.4647
7.49683
5.0577
3.50272
2.48038
1.79068
1.31522
0.981305
0.742925
0.57021
0.443351
0.348968
0.277889
0.223737
0.182021
0.149546
0.124009
0.103731
0.087453
0.074096
11.4647
7.49683
5.0577
3.50272
2.48038
1.79068
1.31522
0.981305
0.742925
0.57021
0.443351
0.348968
0.277889
0.223737
0.182021
0.149546
0.124008
0.103731
0.0874531
0.0740952
11.4757
7.50136
5.04297
3.47002
2.43665
1.74299
1.26863
0.938711
0.705583
0.538335
0.416592
0.326727
0.259498
0.208556
0.169483
0.139167
0.115387
0.0965415
0.0814448
0.0691264
11.5726
7.56718
5.02065
3.38344
2.32103
1.62326
1.15828
0.843153
0.625688
0.472846
0.36348
0.283848
0.224899
0.18058
0.146778
0.120652
0.100206
0.084024
0.0710826
0.0606205
12.6882
8.1544
5.07113
3.20038
2.07939
1.39506
0.967831
0.692721
0.509637
0.384016
0.295503
0.231647
0.184589
0.149253
0.122278
0.101371
0.0849472
0.0718869
0.0613894
0.0528982
36.0571
12.8529
5.76645
3.10212
1.89476
1.22669
0.866506
0.643991
0.492261
0.383979
0.305817
0.247947
0.203956
0.169996
0.143404
0.122303
0.10535
0.0915825
0.0803917
0.0722226
38.7028
13.0541
5.74337
3.08734
1.88067
1.22751
0.869487
0.645397
0.492609
0.384802
0.307056
0.249088
0.205038
0.171072
0.144521
0.123504
0.106677
0.0930681
0.081983
0.0730548
12.9054
8.33993
5.07879
3.15547
2.02775
1.35121
0.933544
0.666467
0.489556
0.368608
0.283621
0.222408
0.177352
0.143556
0.117774
0.0978024
0.082119
0.0696528
0.0596209
0.0513435
11.6229
7.60535
5.01031
3.34209
2.26848
1.57142
1.11236
0.804591
0.594208
0.447522
0.343217
0.267641
0.211909
0.170132
0.138338
0.1138
0.0946196
0.0794487
0.067317
0.0575247
11.4933
7.5119
5.02843
3.434
2.3892
1.6928
1.22111
0.896487
0.669456
0.508122
0.391656
0.306286
0.242785
0.194888
0.158282
0.129955
0.10778
0.0902314
0.0761961
0.0648149
11.4757
7.50136
5.04297
3.47002
2.43665
1.74299
1.26863
0.938711
0.705583
0.538335
0.416592
0.326727
0.259498
0.208556
0.169483
0.139167
0.115387
0.0965416
0.081445
0.0691261
11.4757
7.50136
5.04297
3.47002
2.43665
1.74299
1.26863
0.938713
0.705584
0.538336
0.416594
0.32673
0.259501
0.20856
0.169487
0.139172
0.115393
0.0965483
0.0814524
0.0691555
11.4933
7.5119
5.02843
3.434
2.3892
1.6928
1.22111
0.896486
0.669456
0.508122
0.391656
0.306286
0.242785
0.194888
0.158281
0.129955
0.10778
0.0902309
0.0761955
0.0648142
11.6229
7.60535
5.0103
3.34209
2.26848
1.57142
1.11236
0.804584
0.5942
0.447512
0.343204
0.267625
0.21189
0.170108
0.138308
0.113763
0.0945747
0.079397
0.067263
0.0574903
12.9054
8.33993
5.07879
3.15547
2.02774
1.3512
0.933534
0.666454
0.489541
0.368589
0.283597
0.222377
0.177314
0.143508
0.117716
0.0977294
0.0820306
0.0695491
0.0595052
0.0511915
38.7028
13.0541
5.74336
3.08733
1.88066
1.2275
0.86947
0.645376
0.492581
0.384766
0.307003
0.249015
0.204936
0.170928
0.144317
0.123212
0.106256
0.0924664
0.0812103
0.0730758
45.0226
13.4729
5.73075
3.07323
1.86023
1.227
0.87358
0.649785
0.497021
0.389499
0.311313
0.253008
0.209025
0.17528
0.148924
0.12804
0.111355
0.0979284
0.0871265
0.0787156
13.6679
8.73671
5.07741
3.05388
1.92224
1.26609
0.869292
0.618635
0.453964
0.342041
0.263659
0.207323
0.165917
0.134865
0.111165
0.0927085
0.0781879
0.0666483
0.0571631
0.0500376
11.8601
7.76395
4.99734
3.24076
2.14419
1.45499
1.0141
0.725635
0.532155
0.399148
0.305545
0.238221
0.188824
0.151914
0.123875
0.102239
0.0853216
0.0719305
0.0611882
0.0525898
11.6229
7.60535
5.0103
3.34209
2.26848
1.57142
1.11236
0.804585
0.5942
0.447512
0.343204
0.267625
0.211889
0.170107
0.138309
0.113764
0.0945749
0.0793969
0.0672627
0.0574892
11.5726
7.56718
5.02065
3.38344
2.32103
1.62326
1.15828
0.843153
0.625688
0.472846
0.36348
0.283848
0.224899
0.18058
0.146778
0.120651
0.100206
0.0840234
0.0710818
0.060619
11.5726
7.56718
5.02065
3.38345
2.32103
1.62326
1.15829
0.843158
0.625693
0.472852
0.363488
0.283858
0.224911
0.180594
0.146795
0.120672
0.100231
0.0840528
0.0711111
0.0606354
11.6229
7.60535
5.01031
3.34209
2.26848
1.57142
1.11236
0.804591
0.594208
0.447522
0.343217
0.267641
0.211909
0.170131
0.138337
0.1138
0.0946189
0.0794479
0.0673158
0.0575222
11.8601
7.76395
4.99734
3.24076
2.14419
1.45499
1.0141
0.725634
0.532155
0.399148
0.305545
0.238221
0.188825
0.151916
0.123873
0.102238
0.0853206
0.0719298
0.0611872
0.0525884
13.6679
8.73671
5.0774
3.05388
1.92223
1.26609
0.869286
0.618626
0.453954
0.342027
0.263641
0.2073
0.165888
0.134831
0.111116
0.0926491
0.0781188
0.0665728
0.0570931
0.0496581
45.0226
13.4729
5.73075
3.07322
1.86022
1.22698
0.873564
0.649764
0.496994
0.389452
0.311252
0.252926
0.20891
0.175116
0.148678
0.127676
0.110807
0.0970892
0.0858733
0.0770727
58.5856
14.5696
6.08947
3.33295
2.08217
1.40266
0.998646
0.740277
0.565891
0.443913
0.356006
0.29091
0.241387
0.202985
0.173087
0.149819
0.131399
0.116736
0.105497
0.0973695
16.5373
9.49238
5.0127
2.8606
1.75746
1.14759
0.786928
0.562047
0.415362
0.315941
0.246323
0.19621
0.159203
0.131226
0.109747
0.0931494
0.080083
0.0695816
0.0604909
0.0560308
13.6679
8.73671
5.0774
3.05388
1.92223
1.26609
0.869285
0.618627
0.453954
0.342027
0.263641
0.207299
0.165886
0.134826
0.11112
0.0926503
0.0781184
0.066571
0.0570943
0.0496552
12.9054
8.33993
5.07879
3.15547
2.02774
1.3512
0.933534
0.666454
0.489541
0.368589
0.283596
0.222376
0.177313
0.143507
0.117717
0.097729
0.0820292
0.0695468
0.0595024
0.0511875
12.6882
8.1544
5.07113
3.20038
2.07939
1.39506
0.967831
0.692721
0.509637
0.384016
0.295503
0.231646
0.184589
0.149255
0.122275
0.101369
0.0849452
0.0718846
0.0613866
0.0528948
12.6882
8.1544
5.07113
3.20039
2.0794
1.39506
0.967836
0.692728
0.509645
0.384025
0.295515
0.231661
0.184608
0.149278
0.122303
0.101404
0.0849883
0.0719359
0.0614457
0.0529626
12.9054
8.33993
5.07879
3.15547
2.02775
1.35121
0.933544
0.666467
0.489556
0.368608
0.283621
0.222408
0.177352
0.143554
0.117774
0.0978027
0.0821191
0.0696529
0.059621
0.0513433
13.6679
8.73671
5.07741
3.05388
1.92224
1.2661
0.869293
0.618635
0.453964
0.342041
0.263659
0.207323
0.165917
0.134867
0.111163
0.0927076
0.0781873
0.0666478
0.0571626
0.0500367
16.5373
9.49238
5.0127
2.8606
1.75746
1.14759
0.786929
0.562046
0.415362
0.31594
0.246323
0.19621
0.159203
0.131233
0.109741
0.0931468
0.0800817
0.0695805
0.0604899
0.0560297
58.5856
14.5696
6.08946
3.33295
2.08217
1.40266
0.998641
0.740271
0.565884
0.443895
0.355979
0.290866
0.241318
0.202837
0.172875
0.149486
0.130821
0.115669
0.103507
0.0940156
90.5034
12.1248
4.38869
2.46658
1.63315
1.18306
0.902004
0.720649
0.594566
0.50247
0.432627
0.379206
0.336194
0.299671
0.26987
0.245646
0.225774
0.209443
0.19758
0.184509
58.5856
14.5696
6.08946
3.33295
2.08217
1.40266
0.998642
0.740271
0.565883
0.443895
0.355979
0.290866
0.241317
0.202839
0.172874
0.149483
0.130818
0.115665
0.103501
0.0940076
45.0226
13.4729
5.73075
3.07322
1.86022
1.22698
0.873564
0.649764
0.496994
0.389451
0.311252
0.252926
0.208911
0.175117
0.148677
0.127674
0.110805
0.097087
0.0858696
0.0770653
38.7028
13.0541
5.74336
3.08733
1.88066
1.2275
0.86947
0.645375
0.492581
0.384766
0.307003
0.249015
0.204937
0.170929
0.144314
0.12321
0.106254
0.0924644
0.0812077
0.073072
36.0571
12.8529
5.76645
3.10212
1.89476
1.22669
0.866506
0.643991
0.492261
0.383979
0.305817
0.247947
0.203958
0.169997
0.143401
0.122301
0.105349
0.0915817
0.0803909
0.0722225
36.0571
12.8529
5.76645
3.10212
1.89476
1.2267
0.866513
0.644
0.492273
0.383995
0.30584
0.247979
0.204001
0.170059
0.143489
0.122423
0.105519
0.0918124
0.0806618
0.0721511
38.7028
13.0541
5.74337
3.08734
1.88067
1.22751
0.869487
0.645397
0.492609
0.384802
0.307056
0.249088
0.205038
0.171072
0.144521
0.123504
0.106677
0.0930684
0.0819832
0.0730528
45.0226
13.4729
5.73075
3.07323
1.86023
1.227
0.87358
0.649785
0.497021
0.389499
0.311313
0.253009
0.209025
0.175281
0.148922
0.128039
0.111355
0.0979284
0.0871265
0.0787157
58.5856
14.5696
6.08947
3.33295
2.08217
1.40266
0.998646
0.740277
0.565892
0.443913
0.356007
0.29091
0.241387
0.202984
0.173087
0.14982
0.1314
0.116736
0.105498
0.0973704
90.5034
12.1248
4.38869
2.46658
1.63315
1.18306
0.902004
0.72065
0.594565
0.502471
0.432625
0.379209
0.336192
0.299673
0.26987
0.245648
0.225777
0.209447
0.197586
0.184517
0.265245
0.226844
0.195754
0.177558
0.166265
0.158492
0.152221
0.146595
0.1416
0.137405
0.13364
0.130107
0.126575
0.123175
0.11993
0.116834
0.1139
0.111112
0.108477
0.106
0.103568
0.101253
0.0991043
0.0970536
0.0950905
0.093209
0.0913717
0.0895684
0.0878539
0.0862378
0.0845961
0.0830865
0.0815888
0.0801932
0.0790489
0.0776228
0.0766061
0.0755261
0.0746517
0.0733548
0.100221
0.0889276
0.0801226
0.0741156
0.0695478
0.0659658
0.0628441
0.0599701
0.0572991
0.0550214
0.053016
0.0512214
0.0494822
0.0479309
0.0463761
0.0449225
0.0435582
0.0423147
0.0411448
0.0400625
0.0390281
0.0380398
0.0371296
0.0362936
0.0355181
0.0347695
0.0340517
0.0333609
0.0326785
0.0320541
0.0314325
0.030832
0.0302713
0.0297178
0.0292706
0.0288107
0.0283465
0.0279351
0.0275614
0.0271493
0.0878443
0.0728344
0.0638748
0.0582127
0.0538065
0.0501415
0.0470703
0.0444441
0.0421473
0.0400863
0.0382424
0.0366068
0.0351486
0.0339282
0.0326225
0.031448
0.0303798
0.0294213
0.0285291
0.0276833
0.0268908
0.0260776
0.0253313
0.0246709
0.0240835
0.0235153
0.0229693
0.0224476
0.0219561
0.0214995
0.0210308
0.0205932
0.0201842
0.01982
0.0195296
0.0191676
0.0188353
0.0185231
0.0182322
0.0179581
0.0741212
0.0643906
0.0574435
0.0520709
0.0477566
0.0441897
0.0411459
0.0385118
0.0362044
0.0341657
0.0323516
0.0307228
0.0292417
0.0279323
0.0267527
0.0256749
0.0246889
0.0237975
0.0229598
0.0221121
0.0213573
0.0206681
0.0200092
0.0194045
0.0188444
0.0183235
0.0178412
0.0173888
0.0169427
0.0165383
0.0161367
0.015765
0.0154236
0.0151131
0.0148339
0.0145922
0.0143292
0.0140774
0.013844
0.0136279
0.0680474
0.0606759
0.0546157
0.0495794
0.0453461
0.041756
0.03869
0.0360405
0.0337069
0.0316388
0.0297949
0.0281392
0.0266397
0.0253188
0.0241234
0.0230421
0.0220705
0.0211783
0.0203578
0.0196045
0.0189219
0.0182799
0.0176255
0.0170443
0.016509
0.0160177
0.0155609
0.0151401
0.0147246
0.014364
0.0140013
0.0136717
0.0133639
0.013075
0.0128189
0.0126145
0.0123563
0.0121215
0.0119042
0.0117076
0.0666089
0.0599849
0.0542227
0.0492541
0.0449831
0.0412986
0.0381224
0.0353663
0.0329374
0.0307805
0.0288632
0.0271521
0.02561
0.0242525
0.0230313
0.0219303
0.0209361
0.0200422
0.0192373
0.0185037
0.0178343
0.0172235
0.0166589
0.0161343
0.0155907
0.0150826
0.0146214
0.0142117
0.0138109
0.0134756
0.0131476
0.012822
0.0125009
0.0122018
0.0119481
0.0117203
0.0115284
0.0113085
0.0111005
0.0109108
0.0715993
0.0633635
0.0566242
0.051002
0.0462561
0.0422115
0.0387477
0.0357646
0.0331756
0.0309181
0.0289426
0.0272026
0.025658
0.0243004
0.0230871
0.0219985
0.0210195
0.0201364
0.0193414
0.0186219
0.0179729
0.0173653
0.0167902
0.0162659
0.0157205
0.0152229
0.0147679
0.0143568
0.0139514
0.0135932
0.013248
0.012907
0.0125793
0.0122953
0.0120332
0.0118035
0.0116101
0.0113661
0.0111383
0.0109297
0.0794546
0.068764
0.0603728
0.0538004
0.0484897
0.0440762
0.0404076
0.0373292
0.0347135
0.0324633
0.030521
0.0288109
0.0272869
0.0259363
0.0247283
0.0236395
0.0226657
0.0217812
0.0209788
0.0202406
0.019592
0.018919
0.0182972
0.017734
0.0172025
0.0167078
0.0162381
0.0157976
0.0153426
0.0149196
0.0145511
0.0142108
0.0138746
0.0135537
0.0132494
0.0129755
0.0127437
0.0124631
0.0122075
0.0119727
0.0925584
0.0785874
0.0676904
0.059359
0.0535011
0.0489612
0.0452903
0.0422641
0.0396743
0.0374406
0.0354912
0.0337751
0.0322696
0.0308916
0.0296867
0.0284382
0.0273439
0.0263588
0.025479
0.0246385
0.0238801
0.0231413
0.0224596
0.0217995
0.0211769
0.0206065
0.0200638
0.0195559
0.0190742
0.01862
0.0181762
0.0177567
0.0173555
0.0169674
0.0165961
0.0162795
0.0159972
0.0156875
0.0154011
0.0151341
0.120498
0.103362
0.0886659
0.0780845
0.0708126
0.0656614
0.0616659
0.0582368
0.0552695
0.0528301
0.0506805
0.0488715
0.0471176
0.0452606
0.0436157
0.0420974
0.0406879
0.0393903
0.0381801
0.0370587
0.0360041
0.035025
0.0341286
0.0332902
0.0324993
0.0317501
0.0310315
0.0303431
0.029662
0.0290185
0.0284003
0.027815
0.0272611
0.0267334
0.0262098
0.0257803
0.0253392
0.024912
0.0245489
0.0241365
0.265268
0.226853
0.195813
0.177607
0.166359
0.158741
0.152513
0.146836
0.141759
0.137486
0.13369
0.130136
0.12657
0.123125
0.119865
0.116786
0.113856
0.111077
0.108456
0.105976
0.103553
0.101229
0.099087
0.0970302
0.0950769
0.0931965
0.0913609
0.0895619
0.0878503
0.0862327
0.0845887
0.0830827
0.0815952
0.0801855
0.0789016
0.0778685
0.0765895
0.0755192
0.0745876
0.0732147
0.120516
0.103318
0.088581
0.0780614
0.0707706
0.0655397
0.0615091
0.0581151
0.0551856
0.052777
0.0506557
0.0488538
0.0470929
0.0452727
0.0436415
0.0421294
0.0407112
0.0394176
0.0381988
0.0370758
0.0360204
0.0350361
0.0341428
0.0333038
0.0325161
0.0317642
0.031047
0.030359
0.0296771
0.0290369
0.0284177
0.0278328
0.0272778
0.0267341
0.026237
0.0258006
0.0253464
0.024941
0.0245875
0.0241891
0.0597587
0.0498509
0.0430396
0.0383537
0.0349769
0.0321746
0.0299588
0.0280595
0.0263943
0.0249853
0.0237313
0.0225858
0.0215983
0.0205116
0.0196525
0.0187369
0.017995
0.0172471
0.0166067
0.0160047
0.0154117
0.0148772
0.0143323
0.013969
0.0136074
0.0131891
0.0128139
0.012464
0.0121073
0.0120084
0.0116627
0.0112409
0.0109374
0.010682
0.0107803
0.0104159
0.0100581
0.00981802
0.00964506
0.00947538
0.0472218
0.0419997
0.0360692
0.0316948
0.0284801
0.0259463
0.0237948
0.0219601
0.0204057
0.0190256
0.0178397
0.0166449
0.0159243
0.0147703
0.014178
0.0132867
0.0128059
0.0121009
0.011687
0.0111469
0.0107105
0.0103621
0.00989746
0.0096331
0.00927363
0.00899139
0.00873379
0.00843039
0.00820433
0.00815068
0.00796521
0.00761467
0.00743418
0.00718762
0.00707215
0.00718499
0.00697371
0.0066439
0.00644352
0.00622418
0.0470124
0.0405466
0.0353371
0.0310858
0.0274175
0.0244198
0.0222394
0.0203942
0.01878
0.0173621
0.0161141
0.0150104
0.0140346
0.0131581
0.0123785
0.0116794
0.0110631
0.010516
0.00997088
0.00958759
0.00902806
0.00873719
0.00828375
0.00808963
0.00769826
0.00750638
0.00717741
0.00703226
0.00668982
0.00665896
0.00653763
0.00628119
0.00615463
0.0059081
0.00582515
0.00589469
0.005771
0.00549039
0.00539737
0.0051689
0.0455485
0.0400325
0.0352224
0.0311359
0.0276832
0.0246845
0.0220455
0.019855
0.0182369
0.0167962
0.0155196
0.0143886
0.0133807
0.0124897
0.0116937
0.0109816
0.0103443
0.00977251
0.00925712
0.00879342
0.00837351
0.00800049
0.00766804
0.00735913
0.00708695
0.00678798
0.00655014
0.00630604
0.00609042
0.00595981
0.00584072
0.00566771
0.00555072
0.00532096
0.00524015
0.00529164
0.0051733
0.00495303
0.00485918
0.00464696
0.0456785
0.0400625
0.0352756
0.0311991
0.0277278
0.0247753
0.0220709
0.0197881
0.0179995
0.0165687
0.0152859
0.0141413
0.0131164
0.0122123
0.0114042
0.0106831
0.0100387
0.00946169
0.00894432
0.00847947
0.00806161
0.00768664
0.00736414
0.00708618
0.00679065
0.00651324
0.00626173
0.00602859
0.00582163
0.00569449
0.00556664
0.00542236
0.00527956
0.005097
0.0049954
0.00504351
0.0048994
0.00478605
0.00454012
0.00443856
0.0474113
0.040969
0.0356732
0.0312926
0.027643
0.024477
0.0217939
0.0195803
0.0179218
0.0164691
0.0151811
0.014044
0.0130353
0.0121427
0.0113471
0.0106383
0.0100045
0.00943666
0.00892622
0.00846793
0.00805467
0.00768275
0.00736771
0.00708422
0.00681529
0.0065031
0.00630994
0.0060116
0.00584243
0.00575956
0.0056056
0.00541287
0.00529109
0.00504026
0.00496263
0.00504325
0.00488848
0.00477737
0.00451718
0.00441282
0.0500685
0.0420881
0.0359382
0.0311244
0.0271327
0.023941
0.0215943
0.0197381
0.0181207
0.0167098
0.0154759
0.0143935
0.0134361
0.0125725
0.0117998
0.011107
0.010477
0.00991701
0.00940114
0.00894955
0.00853612
0.00813716
0.00781648
0.00745027
0.00724212
0.0068739
0.00671323
0.00638904
0.00623641
0.00618049
0.00601622
0.00573213
0.00560734
0.00532794
0.00520484
0.0051445
0.00526535
0.00510855
0.00479283
0.00463816
0.0524379
0.0431262
0.0362996
0.0311803
0.0277404
0.0251982
0.0230466
0.0212084
0.0196255
0.0182554
0.0170654
0.0159935
0.0150553
0.0141756
0.0133633
0.0127214
0.0119321
0.011465
0.010773
0.0104173
0.00984571
0.00953145
0.00906321
0.0087871
0.00851534
0.0081288
0.00794257
0.00758628
0.00740476
0.00733496
0.00713146
0.00677323
0.00662462
0.00632342
0.00618366
0.00612618
0.00625089
0.0060345
0.00566884
0.00550425
0.0597474
0.0498833
0.0430612
0.0384098
0.034836
0.0322098
0.0300189
0.0281267
0.0264381
0.0250079
0.0237456
0.0225701
0.0215827
0.0205144
0.0196138
0.0187377
0.0179756
0.0172422
0.0166049
0.015992
0.0154224
0.0148572
0.0143318
0.0139393
0.0136264
0.0131781
0.0128195
0.0124643
0.0121052
0.012005
0.0116561
0.0112373
0.0109303
0.0106715
0.0104009
0.0103177
0.0104035
0.0100285
0.00968593
0.00946793
0.100236
0.088991
0.0801838
0.0741518
0.0697081
0.0661283
0.0630079
0.0600951
0.0573916
0.0550815
0.0530583
0.051246
0.0495132
0.0479347
0.0463677
0.0449039
0.0435495
0.0423031
0.0411408
0.0400633
0.0390265
0.0380461
0.0371333
0.0362975
0.0355191
0.0347744
0.0340567
0.0333674
0.0326868
0.0320627
0.0314436
0.030843
0.0302808
0.0297523
0.0292347
0.0288284
0.0283962
0.0279532
0.0275547
0.0271152
0.0925439
0.0785518
0.067565
0.0594983
0.0535308
0.0489376
0.0452391
0.0422166
0.0396428
0.0374235
0.0354829
0.0337821
0.0322752
0.0309047
0.0296954
0.0284626
0.027355
0.0263886
0.0254947
0.0246624
0.0238995
0.0231573
0.0224744
0.0218083
0.0211937
0.0206234
0.0200832
0.0195757
0.0190946
0.0186407
0.0181963
0.0177755
0.0173739
0.0169887
0.0166225
0.0163017
0.0160179
0.0157038
0.0154188
0.015158
0.0524515
0.0430809
0.0361846
0.0312454
0.0277706
0.0251949
0.0230328
0.0211932
0.019614
0.0182477
0.0170568
0.0159893
0.0151009
0.0141411
0.013478
0.012577
0.0120722
0.0112985
0.0108837
0.010344
0.00987118
0.00955529
0.00905775
0.00882681
0.00845773
0.00815419
0.00793354
0.00757603
0.00739379
0.00733389
0.00711705
0.00676458
0.00659943
0.00633039
0.00622348
0.00636302
0.0060904
0.00583312
0.00560972
0.00540199
0.0460765
0.0396863
0.0343817
0.0300348
0.0264484
0.0235247
0.0211013
0.0190686
0.0173447
0.0158637
0.0145814
0.0134542
0.012476
0.0115847
0.01081
0.0100919
0.00943761
0.0087911
0.00836711
0.00795269
0.00755935
0.00718958
0.00682351
0.00652285
0.00626688
0.00596304
0.00578542
0.0055203
0.00534955
0.00531748
0.00519009
0.00494643
0.00481932
0.00458102
0.00449313
0.00459427
0.00447678
0.00425598
0.00415671
0.00392524
0.0473619
0.0412297
0.0359917
0.031557
0.0278102
0.0246505
0.0220058
0.0197616
0.017842
0.0161883
0.0147547
0.0135034
0.0124095
0.0114433
0.0105857
0.00982586
0.00914348
0.00852818
0.00798449
0.00750352
0.00706744
0.00666386
0.0062369
0.0060219
0.00575686
0.00552693
0.00526236
0.00509765
0.00479155
0.00475937
0.00463549
0.0044966
0.00438496
0.00417505
0.00406886
0.00414197
0.00402513
0.00390473
0.00381073
0.00359457
0.0495198
0.0429488
0.0374692
0.0328656
0.0289788
0.0256795
0.0228616
0.0204511
0.0184032
0.0166445
0.0151198
0.0137893
0.0126322
0.0116091
0.010705
0.00990347
0.00919013
0.00855246
0.00798198
0.00747024
0.00701169
0.00660075
0.00620192
0.00590071
0.00556885
0.00528713
0.00508442
0.00489744
0.004713
0.0045994
0.0044814
0.00434878
0.00421998
0.00409876
0.0039804
0.00402859
0.00390946
0.00379455
0.00368471
0.00356928
0.0506365
0.0437897
0.0381311
0.0334046
0.0294259
0.0260561
0.0231734
0.0207008
0.0185894
0.0167847
0.0152268
0.0138698
0.0126917
0.0116505
0.0107314
0.00991719
0.0091934
0.00854664
0.00796846
0.00745135
0.00698659
0.00657421
0.00617454
0.00588067
0.00556454
0.00526022
0.00505019
0.00479302
0.00462141
0.00457294
0.00445172
0.00431592
0.00418346
0.00407039
0.00395509
0.004008
0.00388723
0.00377087
0.00365704
0.00354508
0.0501472
0.0433332
0.037672
0.0329431
0.0289703
0.0256108
0.0227578
0.0203301
0.0182675
0.0164988
0.0149729
0.0136478
0.0125005
0.0114857
0.0105901
0.00979656
0.00909074
0.00845994
0.00789712
0.00739307
0.0069386
0.00653516
0.00613897
0.00584642
0.00554006
0.00524524
0.00501459
0.00482467
0.00465648
0.00456637
0.00444982