/*--------------------------------*- C++ -*----------------------------------*\
| =========                 |                                                 |
| \\      /  F ield         | OpenFOAM: The Open Source CFD Toolbox           |
|  \\    /   O peration     | Version:  2212                                  |
|   \\  /    A nd           | Website:  www.openfoam.com                      |
|    \\/     M anipulation  |                                                 |
\*---------------------------------------------------------------------------*/
FoamFile
{
    version     2.0;
    format      ascii;
    arch        "LSB;label=32;scalar=64";
    class       volScalarField;
    location    "1.35";
    object      k;
}
// * * * * * * * * * * * * * * * * * * * * * * * * * * * * * * * * * * * * * //

dimensions      [0 2 -2 0 0 0 0];

internalField   nonuniform List<scalar> 
6840
(
0.213564
0.055916
0.0283994
0.0193411
0.0146927
0.011851
0.00989063
0.00851597
0.00749119
0.00669612
0.00606026
0.00555048
0.00512235
0.00474422
0.00442412
0.00415498
0.00392733
0.00373464
0.00358918
0.00342451
0.264759
0.104702
0.0585298
0.039163
0.0286199
0.0219934
0.017536
0.0143633
0.0120082
0.0102138
0.00881644
0.00770594
0.00680444
0.00606207
0.00545107
0.00495067
0.0045357
0.00419085
0.00391537
0.0037078
0.283364
0.126774
0.071702
0.0473282
0.0338663
0.0256617
0.0204609
0.0167972
0.0140488
0.0119415
0.0102846
0.00895662
0.00788589
0.00701247
0.00629051
0.00568759
0.00518183
0.00475596
0.00439826
0.00410657
0.292299
0.141633
0.0819302
0.0541654
0.0389231
0.0292875
0.0232724
0.0190788
0.0159343
0.0135153
0.0116273
0.0101135
0.00888289
0.00787259
0.00703533
0.00633549
0.00574602
0.00524616
0.00482053
0.00446329
0.295943
0.148782
0.0871941
0.057675
0.0415194
0.0310723
0.0246452
0.0202211
0.0169052
0.0143252
0.0123087
0.0107027
0.00939667
0.00832316
0.00743202
0.00668562
0.0060552
0.00551892
0.00506228
0.00469453
0.295943
0.148782
0.0871941
0.0576749
0.0415194
0.0310722
0.024645
0.020221
0.0169049
0.0143248
0.0123081
0.0107018
0.0093954
0.00832124
0.00742913
0.00668143
0.00604912
0.00551036
0.00505222
0.00470165
0.292299
0.141633
0.0819301
0.0541653
0.038923
0.0292873
0.0232721
0.0190784
0.0159338
0.0135145
0.011626
0.0101116
0.00888009
0.00786835
0.007029
0.00632601
0.00573173
0.00522492
0.0047927
0.00446865
0.283364
0.126774
0.0717019
0.0473281
0.0338662
0.0256615
0.0204607
0.0167968
0.0140483
0.0119406
0.0102833
0.00895476
0.00788313
0.00700826
0.00628386
0.00567724
0.00516551
0.00472997
0.00435879
0.0040588
0.264759
0.104702
0.0585298
0.039163
0.0286199
0.0219934
0.017536
0.0143632
0.0120081
0.0102135
0.00881601
0.00770519
0.00680319
0.00605924
0.00544674
0.00494354
0.00452282
0.00416621
0.00386836
0.00362939
0.213564
0.055916
0.0283994
0.0193411
0.0146927
0.011851
0.00989063
0.00851597
0.00749118
0.00669613
0.00606024
0.00555049
0.00512233
0.00474425
0.0044241
0.00415499
0.00392735
0.00373467
0.00358922
0.00342466
0.264759
0.104702
0.0585298
0.039163
0.0286199
0.0219934
0.017536
0.0143632
0.0120081
0.0102136
0.008816
0.0077052
0.00680319
0.00605926
0.00544674
0.00494351
0.00452276
0.00416614
0.00386826
0.00362923
0.311746
0.197541
0.130357
0.0911456
0.0668022
0.050811
0.0397943
0.031912
0.0260941
0.0216871
0.0182763
0.0155881
0.0134404
0.0116973
0.0102656
0.00907735
0.0080812
0.00723782
0.00653346
0.00589913
0.31754
0.217754
0.151085
0.108549
0.0807156
0.0618726
0.0486774
0.0391418
0.0320587
0.0266716
0.0224902
0.0191875
0.0165392
0.0143873
0.0126182
0.0111501
0.00992133
0.00888417
0.0080058
0.00726015
0.319723
0.227073
0.162232
0.118772
0.0893612
0.0689929
0.0545308
0.0439847
0.0361002
0.0300753
0.0253829
0.0216664
0.0186794
0.0162478
0.0142457
0.0125806
0.0111837
0.0100023
0.00899535
0.0081336
0.320484
0.23086
0.167176
0.123531
0.093516
0.0724826
0.0574409
0.0464215
0.0381542
0.0318177
0.0268716
0.0229477
0.0197895
0.0172151
0.0150928
0.0133257
0.0118409
0.0105829
0.00950871
0.00858694
0.320484
0.23086
0.167176
0.123531
0.0935159
0.0724825
0.0574406
0.0464212
0.0381537
0.0318171
0.0268707
0.0229464
0.0197876
0.0172121
0.0150885
0.0133198
0.0118327
0.0105716
0.00949324
0.00856877
0.319723
0.227073
0.162232
0.118772
0.0893609
0.0689926
0.0545303
0.043984
0.0360992
0.0300739
0.0253809
0.0216635
0.0186752
0.0162416
0.0142369
0.0125681
0.0111655
0.00997617
0.00895795
0.00808207
0.31754
0.217754
0.151085
0.108549
0.0807154
0.0618723
0.048677
0.0391413
0.0320579
0.0266705
0.0224886
0.0191852
0.0165359
0.0143824
0.012611
0.0111397
0.00990563
0.00886021
0.00796922
0.00717956
0.311746
0.197541
0.130357
0.0911456
0.0668022
0.050811
0.0397943
0.031912
0.0260941
0.0216871
0.0182763
0.0155881
0.0134404
0.0116973
0.0102656
0.0090774
0.00808128
0.00723792
0.00653362
0.0058996
0.264759
0.104702
0.0585298
0.039163
0.0286199
0.0219934
0.017536
0.0143633
0.0120082
0.0102138
0.00881644
0.00770593
0.00680443
0.00606208
0.00545105
0.00495067
0.00453572
0.00419085
0.00391536
0.00370787
0.283364
0.126774
0.0717019
0.0473281
0.0338662
0.0256615
0.0204607
0.0167968
0.0140483
0.0119406
0.0102833
0.00895476
0.00788315
0.0070083
0.00628384
0.00567722
0.00516549
0.00472995
0.00435874
0.00405871
0.31754
0.217754
0.151085
0.108549
0.0807154
0.0618723
0.048677
0.0391413
0.0320579
0.0266705
0.0224886
0.0191852
0.0165359
0.0143824
0.012611
0.0111396
0.00990556
0.00886013
0.00796909
0.0071791
0.322005
0.239026
0.177588
0.133616
0.102323
0.0798668
0.0635104
0.0513819
0.0422213
0.035179
0.0296752
0.0253087
0.0217972
0.0189384
0.0165852
0.0146285
0.0129869
0.0115978
0.010411
0.00936931
0.323293
0.245617
0.187499
0.144537
0.112864
0.0894039
0.0718633
0.0585865
0.0483997
0.0404744
0.034225
0.0292337
0.0251997
0.0219036
0.0191832
0.016917
0.0150132
0.0134005
0.0120218
0.0108238
0.323714
0.247819
0.191099
0.14881
0.117249
0.0935708
0.0756574
0.0619607
0.0513629
0.0430615
0.0364795
0.0311999
0.0269183
0.0234103
0.0205088
0.0180879
0.0160511
0.0143234
0.0128441
0.0115561
0.323714
0.247819
0.191099
0.14881
0.117249
0.0935707
0.0756573
0.0619605
0.0513626
0.0430611
0.036479
0.0311991
0.0269172
0.0234087
0.0205067
0.018085
0.0160471
0.0143178
0.0128345
0.0115294
0.323293
0.245617
0.187499
0.144536
0.112864
0.0894038
0.0718631
0.0585862
0.0483992
0.0404738
0.034224
0.0292324
0.0251979
0.021901
0.0191796
0.016912
0.0150062
0.0133905
0.0120047
0.0107736
0.322005
0.239026
0.177588
0.133616
0.102323
0.0798668
0.0635104
0.0513819
0.0422213
0.035179
0.0296752
0.0253087
0.0217972
0.0189384
0.0165851
0.0146285
0.012987
0.0115979
0.0104111
0.00936948
0.31754
0.217754
0.151085
0.108549
0.0807156
0.0618726
0.0486774
0.0391418
0.0320587
0.0266716
0.0224902
0.0191875
0.0165392
0.0143873
0.0126181
0.0111501
0.00992134
0.00888422
0.00800596
0.00726034
0.283364
0.126774
0.071702
0.0473282
0.0338663
0.0256617
0.0204609
0.0167972
0.0140488
0.0119415
0.0102846
0.00895662
0.0078859
0.00701248
0.00629046
0.00568755
0.00518181
0.00475594
0.00439824
0.00410647
0.292299
0.141633
0.0819301
0.0541653
0.038923
0.0292873
0.0232721
0.0190784
0.0159338
0.0135145
0.011626
0.0101116
0.00888013
0.0078684
0.00702894
0.00632597
0.0057317
0.0052249
0.00479267
0.00446861
0.319723
0.227073
0.162232
0.118772
0.0893609
0.0689926
0.0545303
0.043984
0.0360992
0.0300739
0.0253809
0.0216635
0.0186752
0.0162417
0.0142368
0.012568
0.0111655
0.00997612
0.00895791
0.008082
0.323293
0.245617
0.187499
0.144536
0.112864
0.0894038
0.0718631
0.0585862
0.0483992
0.0404738
0.034224
0.0292324
0.0251979
0.021901
0.0191796
0.016912
0.0150062
0.0133904
0.0120047
0.0107738
0.324288
0.250862
0.19613
0.154888
0.123591
0.09968
0.0812741
0.0669838
0.0557847
0.0469223
0.0398395
0.0341236
0.0294673
0.0256399
0.0224668
0.0198148
0.0175809
0.0156839
0.0140549
0.012618
0.32459
0.252403
0.19891
0.158543
0.12769
0.103871
0.0853201
0.0707499
0.05921
0.0499928
0.0425685
0.0365384
0.0316006
0.0275251
0.0241354
0.0212954
0.0188984
0.0168595
0.0151053
0.0135555
0.32459
0.252403
0.19891
0.158543
0.12769
0.103871
0.08532
0.0707499
0.0592099
0.0499926
0.0425683
0.0365382
0.0316003
0.0275247
0.0241349
0.0212946
0.0188974
0.016858
0.0151022
0.0135454
0.324288
0.250862
0.19613
0.154888
0.123591
0.09968
0.0812741
0.0669838
0.0557847
0.0469223
0.0398395
0.0341236
0.0294673
0.0256399
0.0224668
0.0198148
0.017581
0.015684
0.014055
0.012618
0.323293
0.245617
0.187499
0.144537
0.112864
0.0894039
0.0718633
0.0585865
0.0483997
0.0404744
0.034225
0.0292337
0.0251997
0.0219036
0.0191832
0.016917
0.0150132
0.0134005
0.0120219
0.0108239
0.319723
0.227073
0.162232
0.118772
0.0893612
0.0689929
0.0545308
0.0439847
0.0361001
0.0300753
0.0253829
0.0216664
0.0186794
0.0162478
0.0142457
0.0125806
0.0111837
0.0100023
0.00899532
0.00813351
0.292299
0.141633
0.0819302
0.0541654
0.0389231
0.0292875
0.0232724
0.0190788
0.0159343
0.0135153
0.0116273
0.0101135
0.00888288
0.00787259
0.0070353
0.00633548
0.005746
0.00524614
0.00482049
0.00446322
0.295943
0.148782
0.0871941
0.0576749
0.0415194
0.0310722
0.024645
0.020221
0.0169049
0.0143248
0.0123081
0.0107018
0.00939541
0.00832126
0.00742915
0.00668144
0.00604912
0.00551038
0.00505223
0.00470172
0.320484
0.23086
0.167176
0.123531
0.0935159
0.0724825
0.0574406
0.0464212
0.0381537
0.0318171
0.0268707
0.0229464
0.0197876
0.0172122
0.0150886
0.0133198
0.0118327
0.0105716
0.00949328
0.00856892
0.323714
0.247819
0.191099
0.14881
0.117249
0.0935707
0.0756573
0.0619605
0.0513626
0.0430611
0.036479
0.0311991
0.0269172
0.0234087
0.0205067
0.018085
0.0160471
0.0143178
0.0128346
0.0115297
0.32459
0.252403
0.19891
0.158543
0.12769
0.103871
0.08532
0.0707499
0.0592099
0.0499926
0.0425683
0.0365382
0.0316003
0.0275247
0.0241349
0.0212946
0.0188974
0.016858
0.0151022
0.0135455
0.324844
0.253685
0.20131
0.161836
0.131535
0.107943
0.0893701
0.0746126
0.0627921
0.0532535
0.0455015
0.0391575
0.0339304
0.0295946
0.0259742
0.0229315
0.0203571
0.0181618
0.0162647
0.0145641
0.324844
0.253685
0.20131
0.161836
0.131535
0.107943
0.0893701
0.0746126
0.0627921
0.0532535
0.0455015
0.0391575
0.0339304
0.0295946
0.0259742
0.0229315
0.0203571
0.0181618
0.0162647
0.014564
0.32459
0.252403
0.19891
0.158543
0.12769
0.103871
0.0853201
0.0707499
0.05921
0.0499928
0.0425685
0.0365384
0.0316006
0.0275251
0.0241354
0.0212954
0.0188984
0.0168595
0.0151054
0.0135556
0.323714
0.247819
0.191099
0.14881
0.117249
0.0935708
0.0756574
0.0619607
0.0513629
0.0430615
0.0364795
0.0311999
0.0269182
0.0234103
0.0205089
0.0180879
0.0160511
0.0143234
0.0128441
0.0115562
0.320484
0.23086
0.167176
0.123531
0.093516
0.0724826
0.0574409
0.0464215
0.0381542
0.0318177
0.0268716
0.0229477
0.0197895
0.0172151
0.0150928
0.0133257
0.0118409
0.0105829
0.00950859
0.00858684
0.295943
0.148782
0.0871941
0.057675
0.0415194
0.0310723
0.0246452
0.0202211
0.0169052
0.0143252
0.0123087
0.0107027
0.00939665
0.00832314
0.00743206
0.00668565
0.00605521
0.00551893
0.00506228
0.0046945
0.295943
0.148782
0.0871941
0.057675
0.0415194
0.0310723
0.0246452
0.0202211
0.0169052
0.0143252
0.0123087
0.0107027
0.00939667
0.00832316
0.00743202
0.00668562
0.0060552
0.00551894
0.00506232
0.00469455
0.320484
0.23086
0.167176
0.123531
0.093516
0.0724826
0.0574409
0.0464215
0.0381542
0.0318177
0.0268716
0.0229477
0.0197895
0.0172151
0.0150928
0.0133257
0.0118409
0.010583
0.0095088
0.00858711
0.323714
0.247819
0.191099
0.14881
0.117249
0.0935708
0.0756574
0.0619607
0.0513629
0.0430615
0.0364795
0.0311999
0.0269183
0.0234103
0.0205088
0.0180879
0.0160511
0.0143235
0.0128441
0.0115563
0.32459
0.252403
0.19891
0.158543
0.12769
0.103871
0.0853201
0.0707499
0.05921
0.0499928
0.0425685
0.0365384
0.0316006
0.0275251
0.0241354
0.0212954
0.0188984
0.0168595
0.0151053
0.0135557
0.324844
0.253685
0.20131
0.161836
0.131535
0.107943
0.0893701
0.0746126
0.0627921
0.0532535
0.0455015
0.0391575
0.0339304
0.0295946
0.0259742
0.0229315
0.0203571
0.0181618
0.0162648
0.0145641
0.324844
0.253685
0.20131
0.161836
0.131535
0.107943
0.0893701
0.0746126
0.0627921
0.0532535
0.0455015
0.0391575
0.0339304
0.0295946
0.0259742
0.0229315
0.0203571
0.0181618
0.0162647
0.014564
0.32459
0.252403
0.19891
0.158543
0.12769
0.103871
0.08532
0.0707499
0.0592099
0.0499926
0.0425683
0.0365382
0.0316003
0.0275247
0.0241349
0.0212946
0.0188974
0.016858
0.0151022
0.0135454
0.323714
0.247819
0.191099
0.14881
0.117249
0.0935707
0.0756573
0.0619605
0.0513626
0.043061
0.036479
0.0311991
0.0269171
0.0234087
0.0205067
0.018085
0.0160471
0.0143178
0.0128345
0.0115296
0.320484
0.23086
0.167176
0.123531
0.0935159
0.0724825
0.0574406
0.0464212
0.0381537
0.0318171
0.0268707
0.0229463
0.0197875
0.0172121
0.0150887
0.0133198
0.0118327
0.0105715
0.00949313
0.00856875
0.295943
0.148782
0.0871941
0.0576749
0.0415194
0.0310722
0.024645
0.020221
0.0169049
0.0143248
0.0123081
0.0107018
0.00939536
0.00832121
0.00742923
0.0066815
0.00604917
0.0055104
0.00505225
0.00470172
0.292299
0.141633
0.0819302
0.0541654
0.0389231
0.0292875
0.0232724
0.0190788
0.0159343
0.0135153
0.0116273
0.0101135
0.00888288
0.00787258
0.00703531
0.00633549
0.00574602
0.00524617
0.00482056
0.00446334
0.319723
0.227073
0.162232
0.118772
0.0893612
0.0689929
0.0545308
0.0439847
0.0361001
0.0300753
0.0253829
0.0216664
0.0186794
0.0162478
0.0142457
0.0125807
0.0111837
0.0100024
0.00899541
0.00813369
0.323293
0.245617
0.187499
0.144537
0.112864
0.0894039
0.0718633
0.0585865
0.0483997
0.0404744
0.034225
0.0292337
0.0251997
0.0219036
0.0191832
0.016917
0.0150132
0.0134005
0.0120218
0.010824
0.324288
0.250862
0.19613
0.154888
0.123591
0.09968
0.0812741
0.0669838
0.0557847
0.0469223
0.0398395
0.0341236
0.0294673
0.0256399
0.0224668
0.0198148
0.0175809
0.015684
0.014055
0.012618
0.32459
0.252403
0.19891
0.158543
0.12769
0.103871
0.08532
0.0707499
0.0592099
0.0499926
0.0425683
0.0365382
0.0316003
0.0275247
0.0241349
0.0212946
0.0188974
0.016858
0.0151022
0.0135455
0.32459
0.252403
0.19891
0.158543
0.12769
0.103871
0.0853201
0.0707499
0.05921
0.0499928
0.0425685
0.0365384
0.0316006
0.0275251
0.0241354
0.0212954
0.0188984
0.0168595
0.0151053
0.0135554
0.324288
0.250862
0.19613
0.154888
0.123591
0.09968
0.0812741
0.0669838
0.0557847
0.0469223
0.0398395
0.0341236
0.0294673
0.0256399
0.0224668
0.0198148
0.0175809
0.0156839
0.014055
0.0126179
0.323293
0.245617
0.187499
0.144536
0.112864
0.0894038
0.0718631
0.0585862
0.0483992
0.0404738
0.034224
0.0292324
0.0251979
0.021901
0.0191795
0.016912
0.0150062
0.0133904
0.0120046
0.0107737
0.319723
0.227073
0.162232
0.118772
0.0893609
0.0689925
0.0545303
0.043984
0.0360992
0.0300739
0.0253809
0.0216635
0.0186752
0.0162416
0.0142369
0.0125681
0.0111655
0.00997613
0.00895789
0.00808198
0.292299
0.141633
0.0819301
0.0541653
0.038923
0.0292873
0.0232721
0.0190784
0.0159338
0.0135145
0.011626
0.0101116
0.00888009
0.00786835
0.00702901
0.00632603
0.00573175
0.00522495
0.00479271
0.00446867
0.283364
0.126774
0.071702
0.0473282
0.0338663
0.0256617
0.0204609
0.0167972
0.0140488
0.0119415
0.0102846
0.00895661
0.00788588
0.00701246
0.00629049
0.00568758
0.00518181
0.00475594
0.00439826
0.0041066
0.31754
0.217754
0.151085
0.108549
0.0807156
0.0618726
0.0486774
0.0391418
0.0320587
0.0266716
0.0224901
0.0191874
0.0165392
0.0143873
0.0126182
0.0111501
0.00992132
0.00888415
0.00800584
0.00726021
0.322005
0.239026
0.177588
0.133616
0.102323
0.0798668
0.0635104
0.0513819
0.0422213
0.035179
0.0296752
0.0253086
0.0217971
0.0189384
0.0165852
0.0146285
0.0129869
0.0115978
0.0104109
0.00936931
0.323293
0.245617
0.187499
0.144536
0.112864
0.0894038
0.0718631
0.0585862
0.0483992
0.0404737
0.034224
0.0292324
0.0251979
0.021901
0.0191795
0.016912
0.0150061
0.0133904
0.0120047
0.0107737
0.323714
0.247819
0.191099
0.14881
0.117249
0.0935707
0.0756572
0.0619605
0.0513626
0.043061
0.036479
0.0311991
0.0269172
0.0234087
0.0205067
0.0180849
0.016047
0.0143177
0.0128345
0.0115295
0.323714
0.247819
0.191099
0.14881
0.117249
0.0935708
0.0756574
0.0619607
0.0513629
0.0430615
0.0364795
0.0311999
0.0269183
0.0234103
0.0205088
0.0180879
0.016051
0.0143234
0.012844
0.011556
0.323293
0.245617
0.187499
0.144537
0.112864
0.0894039
0.0718633
0.0585865
0.0483996
0.0404744
0.034225
0.0292337
0.0251997
0.0219036
0.0191831
0.016917
0.0150132
0.0134005
0.0120217
0.0108239
0.322005
0.239026
0.177588
0.133616
0.102323
0.0798668
0.0635104
0.0513819
0.0422213
0.035179
0.0296752
0.0253087
0.0217972
0.0189384
0.0165851
0.0146285
0.0129869
0.0115978
0.0104109
0.00936934
0.31754
0.217754
0.151085
0.108549
0.0807154
0.0618723
0.048677
0.0391413
0.0320579
0.0266705
0.0224886
0.0191852
0.0165359
0.0143824
0.012611
0.0111396
0.00990559
0.00886016
0.00796923
0.00717921
0.283364
0.126774
0.0717019
0.0473281
0.0338662
0.0256615
0.0204607
0.0167968
0.0140483
0.0119406
0.0102833
0.00895476
0.00788312
0.00700826
0.00628385
0.00567724
0.00516551
0.00472998
0.00435879
0.00405879
0.264759
0.104702
0.0585298
0.039163
0.0286199
0.0219934
0.017536
0.0143633
0.0120082
0.0102138
0.00881643
0.00770593
0.00680442
0.00606206
0.00545106
0.00495066
0.0045357
0.00419086
0.00391541
0.00370785
0.311746
0.197541
0.130357
0.0911456
0.0668022
0.050811
0.0397943
0.031912
0.0260941
0.0216871
0.0182763
0.0155881
0.0134404
0.0116973
0.0102656
0.00907733
0.00808116
0.00723778
0.00653345
0.00589912
0.31754
0.217754
0.151085
0.108549
0.0807154
0.0618723
0.048677
0.0391412
0.0320579
0.0266705
0.0224886
0.0191852
0.0165359
0.0143824
0.012611
0.0111396
0.00990551
0.00886006
0.00796907
0.00717895
0.319723
0.227073
0.162232
0.118772
0.0893609
0.0689925
0.0545303
0.043984
0.0360992
0.0300739
0.0253809
0.0216635
0.0186752
0.0162417
0.0142368
0.012568
0.0111654
0.00997603
0.00895776
0.0080817
0.320484
0.23086
0.167176
0.123531
0.0935159
0.0724825
0.0574406
0.0464212
0.0381537
0.0318171
0.0268707
0.0229463
0.0197875
0.0172122
0.0150885
0.0133197
0.0118327
0.0105715
0.00949308
0.00856867
0.320484
0.23086
0.167176
0.123531
0.093516
0.0724826
0.0574409
0.0464215
0.0381542
0.0318177
0.0268716
0.0229477
0.0197895
0.0172151
0.0150927
0.0133256
0.0118409
0.0105829
0.00950866
0.00858695
0.319723
0.227073
0.162232
0.118772
0.0893612
0.0689929
0.0545308
0.0439847
0.0361001
0.0300753
0.0253829
0.0216664
0.0186794
0.0162478
0.0142457
0.0125806
0.0111837
0.0100023
0.00899539
0.00813366
0.31754
0.217754
0.151085
0.108549
0.0807156
0.0618726
0.0486774
0.0391418
0.0320587
0.0266716
0.0224902
0.0191874
0.0165392
0.0143873
0.0126181
0.0111501
0.00992131
0.00888416
0.00800593
0.00726023
0.311746
0.197541
0.130357
0.0911456
0.0668022
0.050811
0.0397943
0.031912
0.0260941
0.0216871
0.0182763
0.0155881
0.0134404
0.0116972
0.0102656
0.00907737
0.00808123
0.00723785
0.00653354
0.00589926
0.264759
0.104702
0.0585298
0.039163
0.0286199
0.0219934
0.017536
0.0143632
0.0120081
0.0102135
0.008816
0.00770519
0.00680319
0.00605924
0.00544672
0.00494352
0.00452279
0.00416617
0.0038683
0.00362935
0.213564
0.055916
0.0283994
0.0193411
0.0146927
0.011851
0.00989063
0.00851597
0.00749119
0.00669612
0.00606025
0.00555047
0.00512233
0.00474421
0.0044241
0.00415496
0.00392731
0.00373463
0.00358918
0.00342453
0.264759
0.104702
0.0585298
0.039163
0.0286199
0.0219934
0.017536
0.0143632
0.0120081
0.0102135
0.00881599
0.00770519
0.00680317
0.00605924
0.00544672
0.00494348
0.00452271
0.00416607
0.00386814
0.00362907
0.283364
0.126774
0.0717019
0.0473281
0.0338662
0.0256615
0.0204607
0.0167968
0.0140483
0.0119406
0.0102833
0.00895475
0.00788313
0.00700828
0.00628382
0.00567719
0.00516545
0.0047299
0.00435865
0.00405853
0.292299
0.141633
0.0819301
0.0541653
0.038923
0.0292873
0.0232721
0.0190784
0.0159338
0.0135145
0.011626
0.0101116
0.00888012
0.00786839
0.00702892
0.00632595
0.00573168
0.00522487
0.00479261
0.00446855
0.295943
0.148782
0.0871941
0.0576749
0.0415194
0.0310722
0.024645
0.020221
0.0169049
0.0143248
0.0123081
0.0107018
0.0093954
0.00832126
0.00742913
0.00668143
0.00604912
0.00551038
0.00505223
0.00470173
0.295943
0.148782
0.0871941
0.057675
0.0415194
0.0310723
0.0246452
0.0202211
0.0169052
0.0143252
0.0123087
0.0107027
0.00939667
0.00832316
0.00743201
0.00668563
0.00605521
0.00551896
0.00506234
0.00469453
0.292299
0.141633
0.0819302
0.0541654
0.0389231
0.0292875
0.0232724
0.0190788
0.0159343
0.0135153
0.0116273
0.0101135
0.00888288
0.00787259
0.0070353
0.00633548
0.00574602
0.00524618
0.00482057
0.0044633
0.283364
0.126774
0.071702
0.0473282
0.0338663
0.0256617
0.0204609
0.0167972
0.0140488
0.0119415
0.0102846
0.00895661
0.00788589
0.00701247
0.00629045
0.00568755
0.0051818
0.00475594
0.00439827
0.00410662
0.264759
0.104702
0.0585298
0.039163
0.0286199
0.0219934
0.017536
0.0143633
0.0120082
0.0102138
0.00881644
0.00770593
0.00680442
0.00606207
0.00545104
0.00495066
0.00453571
0.00419087
0.00391541
0.00370788
0.213564
0.055916
0.0283994
0.0193411
0.0146927
0.011851
0.00989063
0.00851597
0.00749118
0.00669613
0.00606024
0.00555049
0.00512232
0.00474424
0.00442408
0.00415497
0.00392733
0.00373467
0.00358925
0.00342462
0.00379658
0.00344137
0.00313831
0.00294935
0.00282634
0.00273968
0.00266817
0.0026023
0.00254269
0.00249221
0.00244638
0.00240342
0.00235947
0.00231721
0.00227614
0.00223713
0.00219935
0.00216353
0.00212916
0.00209658
0.00206449
0.00203347
0.00200456
0.00197653
0.00194974
0.00192373
0.00189814
0.00187281
0.00184839
0.00182486
0.00180142
0.00177945
0.00175744
0.00173662
0.0017185
0.00169787
0.00168234
0.00166583
0.00165229
0.00163187
0.00336653
0.00309784
0.0028941
0.00274848
0.00263466
0.00254376
0.00246364
0.00238764
0.0023154
0.00225331
0.00219775
0.00214819
0.00209877
0.00205456
0.00200973
0.00196767
0.00192754
0.00189074
0.00185575
0.00182296
0.00179152
0.00176104
0.00173275
0.00170632
0.00168176
0.00165794
0.00163485
0.00161243
0.00159017
0.00156922
0.0015484
0.00152827
0.00150921
0.00149031
0.00147434
0.00145817
0.001442
0.00142748
0.00141401
0.00139905
0.00394316
0.00349214
0.00320041
0.00300398
0.00285284
0.0027229
0.00261069
0.00251275
0.0024254
0.00234546
0.00227271
0.00220705
0.00214797
0.00209771
0.00204336
0.00199404
0.00194853
0.00190728
0.00186845
0.00183112
0.00179601
0.00175951
0.00172584
0.00169502
0.00166782
0.00164138
0.00161571
0.00159091
0.00156729
0.0015449
0.00152205
0.00150043
0.00148
0.00146147
0.00144605
0.00142784
0.00141071
0.00139446
0.00137912
0.0013645
0.00405927
0.00371
0.00344316
0.00322611
0.00304552
0.00289174
0.00275704
0.00263767
0.00253082
0.00243452
0.00234723
0.00226748
0.00219371
0.00212765
0.00206715
0.00201109
0.00195911
0.0019116
0.00186615
0.00181976
0.00177808
0.00173942
0.0017023
0.0016674
0.00163493
0.00160441
0.00157589
0.00154888
0.00152223
0.00149753
0.00147272
0.00144946
0.00142784
0.00140799
0.00138992
0.00137379
0.0013567
0.00134017
0.00132468
0.00131016
0.00414003
0.00384568
0.00359061
0.00336901
0.00317553
0.00300593
0.00285682
0.00272457
0.00260527
0.0024972
0.00239885
0.00230883
0.00222576
0.00215136
0.00208291
0.0020201
0.0019627
0.00190926
0.00185947
0.00181315
0.0017707
0.00173016
0.00168857
0.00165093
0.00161593
0.00158347
0.00155299
0.00152464
0.0014966
0.00147177
0.00144622
0.00142285
0.00140074
0.00138009
0.00136113
0.00134552
0.00132679
0.00130939
0.00129313
0.00127815
0.004212
0.0039244
0.00366726
0.00343893
0.00323661
0.00305692
0.00289773
0.00275597
0.00262789
0.00251152
0.00240581
0.00230949
0.00222098
0.00214156
0.00206884
0.00200219
0.00194105
0.00188533
0.00183436
0.00178728
0.00174379
0.00170359
0.00166626
0.00163082
0.00159372
0.0015587
0.0015266
0.0014977
0.00146956
0.00144501
0.00142106
0.0013974
0.00137277
0.00135111
0.001331
0.0013136
0.00129803
0.00128102
0.00126469
0.00124963
0.00430231
0.0039666
0.00367961
0.00343167
0.00321494
0.0030245
0.00285667
0.00270811
0.00257583
0.00245758
0.00235166
0.00225634
0.00217002
0.00209264
0.00202226
0.00195806
0.00189943
0.00184578
0.00179683
0.00175192
0.0017109
0.00167209
0.00163501
0.00160063
0.00156449
0.00153126
0.00150046
0.00147235
0.00144466
0.00141909
0.00139462
0.00136995
0.00134676
0.00132528
0.00130612
0.00128868
0.00127335
0.00125498
0.00123757
0.00122143
0.00425671
0.00386995
0.0035484
0.00328895
0.00306928
0.0028808
0.00271937
0.00257985
0.00245821
0.00235097
0.00225628
0.00217119
0.00209394
0.00202422
0.00196082
0.00190279
0.00185013
0.00180164
0.0017571
0.00171563
0.00167875
0.00164025
0.00160413
0.001571
0.00153935
0.00150966
0.00148111
0.00145419
0.00142617
0.0013992
0.00137497
0.00135333
0.00133164
0.00131058
0.00129034
0.00127172
0.00125524
0.0012362
0.00121861
0.00120229
0.00406632
0.00365392
0.00330666
0.00303885
0.00283988
0.002677
0.00254153
0.00242756
0.00232767
0.00223959
0.00216119
0.00209083
0.00202838
0.00197023
0.00191878
0.00186449
0.00181645
0.00177237
0.00173286
0.00169447
0.00165961
0.00162526
0.00159327
0.00156197
0.00153194
0.00150416
0.00147756
0.00145231
0.00142812
0.0014048
0.00138203
0.0013604
0.00133947
0.00131896
0.001299
0.00128139
0.00126532
0.00124843
0.00123265
0.00121775
0.00375549
0.00340016
0.00307861
0.00283557
0.00266103
0.00253197
0.0024297
0.00233923
0.00225862
0.00219176
0.00213181
0.00208079
0.00203156
0.00197793
0.00192948
0.00188432
0.00184203
0.00180264
0.00176559
0.00173086
0.001698
0.00166712
0.00163865
0.00161154
0.00158582
0.00156128
0.0015375
0.00151451
0.0014916
0.00146933
0.00144809
0.00142786
0.00140844
0.00138976
0.00137115
0.00135491
0.00133855
0.00132298
0.00130948
0.00129403
0.00379666
0.00344133
0.00313889
0.0029495
0.00282762
0.00274253
0.0026715
0.00260512
0.00254456
0.00249327
0.00244704
0.00240377
0.00235976
0.00231688
0.00227565
0.00223657
0.00219891
0.00216307
0.00212884
0.00209632
0.00206425
0.00203325
0.00200428
0.00197625
0.00194953
0.00192362
0.00189801
0.00187272
0.00184834
0.00182481
0.00180138
0.00177946
0.00175764
0.00173676
0.0017174
0.00170107
0.00168196
0.00166564
0.00165126
0.00162971
0.0037558
0.00339947
0.00307687
0.00283566
0.00265997
0.00252886
0.00242572
0.00233595
0.00225635
0.0021902
0.00213105
0.00208048
0.0020307
0.00197781
0.00192968
0.00188519
0.00184254
0.00180351
0.00176622
0.00173142
0.00169855
0.00166742
0.00163902
0.00161188
0.00158631
0.00156171
0.00153797
0.001515
0.00149209
0.0014699
0.00144863
0.00142839
0.00140893
0.0013896
0.00137132
0.00135512
0.00133882
0.00132416
0.00131098
0.00129602
0.00444712
0.00393062
0.003579
0.0033138
0.00307802
0.00288969
0.00271588
0.00254258
0.00238289
0.00225586
0.00213492
0.00202941
0.00191483
0.00181388
0.00171694
0.00163517
0.00155554
0.00148734
0.00142165
0.0013626
0.00130222
0.0012443
0.00120006
0.00115726
0.00111638
0.00107796
0.00104103
0.00100619
0.000972875
0.00093319
0.000898353
0.000869389
0.000842019
0.000815915
0.000783187
0.000756998
0.000735515
0.000717549
0.000702705
0.00069137
0.00593145
0.00535411
0.00486848
0.00446274
0.00411426
0.00381133
0.00354418
0.00330729
0.00309503
0.00290375
0.00272954
0.00257625
0.00242755
0.00230372
0.00218355
0.00208016
0.00197947
0.00189235
0.00180835
0.00173104
0.00165985
0.00158773
0.00152595
0.0014629
0.00140612
0.0013518
0.00130028
0.00125208
0.00120808
0.00116032
0.00111121
0.00107005
0.00102804
0.000992048
0.000955925
0.000913697
0.000871487
0.000837005
0.000801645
0.000769425
0.00687152
0.0062067
0.00564078
0.00515674
0.00474161
0.00438251
0.00406469
0.00378198
0.00352904
0.00330192
0.00309787
0.00291387
0.0027475
0.00259666
0.00245946
0.00233449
0.00222005
0.00211462
0.00201951
0.0019282
0.00184882
0.00176989
0.00169949
0.00162866
0.00156731
0.00150714
0.00145409
0.00139995
0.00135271
0.00130259
0.00125174
0.00120576
0.00115919
0.00111844
0.00107811
0.00103318
0.000988166
0.000950362
0.000911702
0.00086536
0.00729573
0.00662711
0.00604107
0.00552896
0.00508063
0.0046877
0.00434376
0.0040412
0.0037694
0.00352439
0.00330369
0.00310407
0.00292496
0.00276145
0.00261276
0.00247724
0.00235347
0.00224007
0.00213609
0.00203978
0.00195231
0.00186391
0.001781
0.00171124
0.00164783
0.00158931
0.00153273
0.00147609
0.00142325
0.00137054
0.00131985
0.00127163
0.00122311
0.00117873
0.00113486
0.00108711
0.00104015
0.000997247
0.000954323
0.000903859
0.00746875
0.00677776
0.00617525
0.00564941
0.00518945
0.00478538
0.00443201
0.00412212
0.00384636
0.0035976
0.00337314
0.00317009
0.00298789
0.00282159
0.00267029
0.00253224
0.00240596
0.00229014
0.00218365
0.00208531
0.00199452
0.00190974
0.00183073
0.00174801
0.00167079
0.00160575
0.00154977
0.00149705
0.00144661
0.00139575
0.00134946
0.00129772
0.00124512
0.00119596
0.00114823
0.00109757
0.00104886
0.00100032
0.000957174
0.000902462
0.00727519
0.00658798
0.00599369
0.0054796
0.00503338
0.00464603
0.00430901
0.0040134
0.00374883
0.00351094
0.0032968
0.00310325
0.0029284
0.0027691
0.0026239
0.002491
0.00236896
0.0022565
0.00215272
0.00205653
0.00196731
0.00188373
0.00180623
0.00172776
0.00165878
0.00159414
0.00152973
0.00147112
0.00141518
0.00135757
0.00130095
0.0012478
0.00119437
0.00114604
0.00109822
0.00104565
0.000995165
0.00094276
0.000897439
0.000839837
0.00670724
0.0060376
0.00547826
0.00500865
0.00461221
0.00427414
0.00397826
0.00371427
0.00347755
0.00326421
0.00307137
0.00289562
0.00273436
0.00258771
0.00245323
0.00232906
0.00221493
0.00210902
0.00201143
0.0019201
0.00183502
0.00175512
0.00168022
0.00160904
0.00153792
0.0014749
0.00141096
0.00135341
0.00129713
0.00123775
0.00117738
0.00112425
0.0010704
0.00102179
0.000973425
0.000924509
0.000871656
0.000819297
0.000778514
0.000728886
0.00575689
0.00513224
0.00465277
0.00427606
0.00396276
0.00369054
0.00344911
0.0032269
0.0030265
0.00284406
0.00267789
0.00252133
0.00237902
0.00224743
0.00212704
0.0020125
0.00191212
0.00181438
0.00172961
0.00164535
0.00157085
0.00149571
0.00143159
0.00136792
0.00130534
0.00125167
0.00119641
0.0011478
0.00110053
0.00104891
0.000995902
0.000953373
0.000910504
0.000868177
0.000824533
0.000786236
0.000744866
0.000707403
0.000677981
0.000651433
0.00444681
0.00393176
0.00357796
0.00331341
0.00309765
0.00290371
0.00272739
0.00255032
0.00238697
0.00225841
0.00213675
0.00202988
0.0019188
0.00181483
0.00171841
0.00163387
0.00155548
0.00148597
0.00142054
0.00136214
0.00130064
0.00124475
0.00120043
0.00115819
0.00111587
0.0010778
0.00104057
0.0010057
0.000972385
0.000932712
0.000898111
0.000869265
0.000842083
0.00081683
0.000793675
0.000768198
0.000735383
0.00071187
0.000697175
0.000686981
0.00336651
0.00309919
0.00289537
0.00274919
0.00263872
0.0025481
0.0024678
0.00239092
0.00231782