/*--------------------------------*- C++ -*----------------------------------*\
| =========                 |                                                 |
| \\      /  F ield         | OpenFOAM: The Open Source CFD Toolbox           |
|  \\    /   O peration     | Version:  2212                                  |
|   \\  /    A nd           | Website:  www.openfoam.com                      |
|    \\/     M anipulation  |                                                 |
\*---------------------------------------------------------------------------*/
FoamFile
{
    version     2.0;
    format      ascii;
    arch        "LSB;label=32;scalar=64";
    class       volScalarField;
    location    "1.35";
    object      p;
}
// * * * * * * * * * * * * * * * * * * * * * * * * * * * * * * * * * * * * * //

dimensions      [0 2 -2 0 0 0 0];

internalField   nonuniform List<scalar> 
6840
(
0.0178435
0.0107291
0.00843765
0.00789984
0.00762549
0.00740332
0.00721674
0.00705039
0.00688935
0.00673009
0.00657272
0.00641712
0.0062623
0.00610726
0.00595206
0.00579694
0.00564274
0.00548818
0.00532167
0.00507276
0.0106647
0.00993086
0.00883797
0.008172
0.00776942
0.0074957
0.00728454
0.00709832
0.00692391
0.00675656
0.00659377
0.00643375
0.00627483
0.00611599
0.00595692
0.00579762
0.00563498
0.00545992
0.00524684
0.00494023
0.0103164
0.00946491
0.00870064
0.00814151
0.00776533
0.00749726
0.00728153
0.00708849
0.00690986
0.00674099
0.0065769
0.00641528
0.00625542
0.00609665
0.0059377
0.00577653
0.00561041
0.00543542
0.00524914
0.00504695
0.00990712
0.00914439
0.00852562
0.00807429
0.00773028
0.0074612
0.00724147
0.00705246
0.00688429
0.00672632
0.00656976
0.00641303
0.00625661
0.00610067
0.00594483
0.00578857
0.00563142
0.00547368
0.00531827
0.00516715
0.00977291
0.00903172
0.00844354
0.0080354
0.00771342
0.00744663
0.00722498
0.00703413
0.00686301
0.00670573
0.0065549
0.00640348
0.00625041
0.00609716
0.00594472
0.00579359
0.00564411
0.00549668
0.00535102
0.00521071
0.00977292
0.00903174
0.00844357
0.00803545
0.00771348
0.00744673
0.00722514
0.0070344
0.00686347
0.00670648
0.00655611
0.00640546
0.00625364
0.00610233
0.00595288
0.00580626
0.00566336
0.0055246
0.00538642
0.00525067
0.00990717
0.00914444
0.00852568
0.00807437
0.00773042
0.00746141
0.00724185
0.00705313
0.00688543
0.0067282
0.00657286
0.00641806
0.00626468
0.00611357
0.00596556
0.00582188
0.00568437
0.00555478
0.00543224
0.00531864
0.0103165
0.00946496
0.0087007
0.00814158
0.00776546
0.0074975
0.00728195
0.00708919
0.00691102
0.00674295
0.00658022
0.00642077
0.00626439
0.00611139
0.00596222
0.00581781
0.00568069
0.0055537
0.00544477
0.00536891
0.0106647
0.00993088
0.00883799
0.00817204
0.00776948
0.00749581
0.00728473
0.00709866
0.00692449
0.00675757
0.00659544
0.00643653
0.00627965
0.00612461
0.00597223
0.00582419
0.00568038
0.00554126
0.00541458
0.00532056
0.0178435
0.0107291
0.00843766
0.00789984
0.0076255
0.00740333
0.00721675
0.0070504
0.00688936
0.0067301
0.00657273
0.00641714
0.00626231
0.00610727
0.00595206
0.00579695
0.00564275
0.00548818
0.00532166
0.00507274
0.0106647
0.00993088
0.00883799
0.00817203
0.00776948
0.00749581
0.00728473
0.00709865
0.00692449
0.00675756
0.00659543
0.00643652
0.00627964
0.00612461
0.00597224
0.0058242
0.00568039
0.00554128
0.00541461
0.00532058
0.00994813
0.00991643
0.00918823
0.00847775
0.00803143
0.00771554
0.00745673
0.00722919
0.00702482
0.00683676
0.00665955
0.00648955
0.00632392
0.00616107
0.0060006
0.00584188
0.00568483
0.00552911
0.0053833
0.00526795
0.00902265
0.00914884
0.00884596
0.00842976
0.00806263
0.007744
0.00746545
0.00722499
0.00701236
0.00681773
0.00663432
0.00645881
0.00628912
0.00612325
0.00595953
0.00579644
0.0056329
0.00546819
0.005302
0.00514328
0.00860425
0.00864776
0.00848218
0.00821924
0.00793885
0.00766749
0.00741644
0.00718998
0.00698677
0.00679982
0.00662219
0.0064507
0.00628396
0.00612068
0.0059595
0.00579945
0.00564003
0.00548158
0.00532531
0.00517595
0.00838827
0.00841009
0.00828289
0.00806535
0.0078329
0.00760371
0.00738084
0.0071676
0.00696669
0.00677914
0.00660235
0.00643286
0.00626903
0.00610938
0.00595243
0.00579813
0.0056469
0.00549917
0.0053563
0.0052185
0.0083883
0.00841013
0.00828293
0.00806544
0.00783304
0.00760389
0.00738111
0.007168
0.00696727
0.0067801
0.00660401
0.00643563
0.0062734
0.00611615
0.00596269
0.005813
0.00566805
0.0055291
0.00539722
0.00526759
0.00860432
0.00864783
0.00848229
0.00821939
0.00793907
0.00766779
0.00741689
0.00719068
0.00698793
0.00680199
0.00662616
0.00645721
0.00629358
0.00613474
0.00598101
0.00583297
0.00569126
0.00555751
0.00543372
0.00531517
0.00902269
0.00914889
0.00884603
0.00842985
0.00806275
0.00774419
0.00746578
0.00722558
0.00701341
0.00681949
0.00663712
0.00646323
0.00629619
0.00613483
0.00597859
0.00582746
0.00568274
0.00554678
0.00542497
0.00533088
0.00994814
0.00991644
0.00918823
0.00847775
0.00803144
0.00771555
0.00745674
0.0072292
0.00702483
0.00683678
0.00665957
0.00648957
0.00632394
0.00616109
0.00600061
0.0058419
0.00568485
0.00552914
0.00538334
0.00526802
0.0106647
0.00993087
0.00883798
0.00817201
0.00776943
0.00749571
0.00728455
0.00709833
0.00692392
0.00675657
0.00659379
0.00643377
0.00627486
0.00611601
0.00595694
0.00579764
0.00563502
0.00545996
0.00524688
0.00494029
0.0103165
0.00946495
0.0087007
0.00814158
0.00776546
0.0074975
0.00728195
0.00708919
0.00691102
0.00674295
0.00658022
0.00642077
0.00626439
0.00611139
0.00596223
0.00581781
0.00568069
0.00555371
0.00544478
0.00536893
0.00902269
0.00914889
0.00884603
0.00842985
0.00806275
0.00774419
0.00746578
0.00722558
0.0070134
0.00681949
0.00663711
0.00646322
0.00629618
0.00613481
0.00597857
0.00582743
0.00568272
0.00554674
0.00542491
0.00533082
0.00845318
0.00855416
0.00844262
0.00821717
0.00796146
0.00770311
0.00744481
0.00720335
0.0069857
0.00678579
0.00659869
0.00642133
0.00625123
0.00608643
0.00592578
0.00576842
0.00561373
0.00546208
0.00531449
0.00516934
0.00808516
0.00815322
0.00810084
0.00795387
0.007769
0.0075639
0.00735327
0.00714641
0.00694536
0.00675301
0.00657049
0.00639599
0.00622753
0.00606367
0.00590336
0.00574565
0.00558954
0.00543409
0.00527819
0.00511944
0.00790208
0.00796652
0.00793705
0.00781219
0.00765315
0.00747945
0.00729316
0.00710512
0.00691894
0.00673544
0.00655619
0.00638217
0.00621375
0.00605021
0.00589093
0.00573567
0.00558336
0.00543265
0.00528283
0.00513058
0.0079021
0.00796654
0.00793708
0.00781227
0.0076533
0.00747966
0.00729341
0.00710544
0.00691941
0.00673616
0.0065573
0.00638381
0.00621609
0.00605365
0.00589614
0.00574313
0.00559348
0.00544708
0.00530517
0.00516046
0.00808521
0.00815327
0.00810092
0.00795399
0.0077692
0.00756414
0.00735358
0.00714686
0.00694604
0.00675411
0.00657231
0.00639884
0.00623176
0.00606996
0.00591271
0.00575893
0.00560834
0.00546245
0.005323
0.0051798
0.00845318
0.00855417
0.00844262
0.00821718
0.00796147
0.00770312
0.00744482
0.00720336
0.00698571
0.00678581
0.00659871
0.00642135
0.00625125
0.00608646
0.00592582
0.00576846
0.00561377
0.00546213
0.00531454
0.00516938
0.00902266
0.00914885
0.00884597
0.00842977
0.00806264
0.00774401
0.00746546
0.007225
0.00701238
0.00681775
0.00663434
0.00645883
0.00628915
0.00612328
0.00595958
0.00579648
0.00563295
0.00546825
0.00530207
0.00514338
0.0103164
0.00946492
0.00870065
0.00814152
0.00776535
0.00749728
0.00728155
0.00708851
0.00690988
0.00674101
0.00657692
0.00641531
0.00625545
0.00609668
0.00593773
0.00577658
0.00561047
0.00543549
0.00524924
0.0050471
0.00990717
0.00914445
0.00852569
0.00807438
0.00773042
0.00746142
0.00724185
0.00705314
0.00688544
0.0067282
0.00657286
0.00641806
0.00626467
0.00611357
0.00596555
0.00582187
0.00568436
0.00555477
0.00543223
0.00531863
0.00860432
0.00864784
0.00848229
0.00821939
0.00793907
0.00766779
0.00741689
0.00719068
0.00698793
0.00680199
0.00662616
0.0064572
0.00629358
0.00613473
0.00598099
0.00583295
0.00569124
0.00555748
0.00543367
0.00531511
0.00808521
0.00815327
0.00810091
0.00795399
0.0077692
0.00756414
0.00735357
0.00714686
0.00694603
0.0067541
0.00657231
0.00639883
0.00623175
0.00606994
0.00591269
0.00575891
0.00560832
0.00546243
0.00532298
0.00517978
0.00778729
0.00784643
0.00783451
0.00773913
0.00759952
0.00743407
0.00725393
0.00706952
0.00688565
0.00670542
0.00653049
0.00636071
0.00619549
0.00603425
0.00587643
0.00572136
0.0055684
0.00541722
0.0052684
0.00511579
0.00763615
0.00769905
0.00770281
0.00762916
0.00750904
0.00736264
0.00719973
0.00702829
0.00685413
0.00668056
0.00650941
0.00634157
0.00617733
0.00601655
0.00585894
0.00570416
0.00555155
0.00540079
0.00525271
0.00510121
0.00763617
0.00769906
0.00770283
0.00762919
0.00750907
0.0073627
0.00719982
0.00702842
0.0068543
0.00668079
0.00650972
0.006342
0.00617793
0.00601746
0.00586035
0.00570609
0.00555391
0.00540354
0.00525595
0.00510413
0.00778729
0.00784643
0.00783451
0.00773913
0.00759953
0.00743407
0.00725393
0.00706953
0.00688566
0.00670543
0.0065305
0.00636072
0.00619551
0.00603427
0.00587646
0.00572138
0.00556842
0.00541723
0.0052684
0.00511577
0.00808516
0.00815323
0.00810085
0.00795387
0.00776901
0.00756391
0.00735328
0.00714643
0.00694537
0.00675302
0.00657051
0.00639601
0.00622756
0.0060637
0.0059034
0.00574569
0.00558959
0.00543413
0.00527823
0.00511946
0.00860425
0.00864777
0.00848219
0.00821925
0.00793886
0.00766751
0.00741645
0.00719
0.00698679
0.00679984
0.00662222
0.00645073
0.00628399
0.00612072
0.00595954
0.0057995
0.00564008
0.00548162
0.00532534
0.00517596
0.00990713
0.0091444
0.00852563
0.0080743
0.0077303
0.00746121
0.00724148
0.00705248
0.00688432
0.00672634
0.00656979
0.00641306
0.00625664
0.0061007
0.00594488
0.00578862
0.00563147
0.00547374
0.00531834
0.00516722
0.00977292
0.00903174
0.00844357
0.00803545
0.00771349
0.00744673
0.00722515
0.00703441
0.00686348
0.00670648
0.00655612
0.00640546
0.00625364
0.00610233
0.00595288
0.00580626
0.00566335
0.00552458
0.0053864
0.00525065
0.0083883
0.00841013
0.00828294
0.00806545
0.00783304
0.0076039
0.00738112
0.00716801
0.00696728
0.0067801
0.00660401
0.00643564
0.0062734
0.00611614
0.00596269
0.00581299
0.00566805
0.00552909
0.00539721
0.00526756
0.00790211
0.00796654
0.00793708
0.00781227
0.00765331
0.00747967
0.00729341
0.00710545
0.00691941
0.00673617
0.00655731
0.00638382
0.00621609
0.00605365
0.00589614
0.00574313
0.00559348
0.00544709
0.00530519
0.00516049
0.00763617
0.00769906
0.00770283
0.00762919
0.00750907
0.0073627
0.00719982
0.00702842
0.00685431
0.00668079
0.00650972
0.006342
0.00617793
0.00601746
0.00586034
0.00570609
0.00555392
0.00540355
0.00525597
0.00510417
0.00749335
0.00756287
0.00758499
0.00753245
0.00743119
0.00730026
0.00715033
0.00698933
0.00682282
0.00665449
0.0064867
0.00632088
0.00615779
0.00599774
0.00584073
0.00568653
0.00553459
0.0053851
0.00523976
0.00509218
0.00749335
0.00756287
0.00758499
0.00753245
0.00743119
0.00730026
0.00715033
0.00698933
0.00682283
0.00665449
0.0064867
0.00632088
0.0061578
0.00599774
0.00584074
0.00568653
0.0055346
0.00538511
0.00523977
0.00509217
0.00763616
0.00769905
0.00770281
0.00762917
0.00750904
0.00736265
0.00719974
0.0070283
0.00685414
0.00668057
0.00650942
0.00634159
0.00617735
0.00601657
0.00585897
0.00570419
0.00555158
0.00540082
0.00525274
0.00510123
0.00790209
0.00796652
0.00793706
0.0078122
0.00765317
0.00747947
0.00729317
0.00710513
0.00691895
0.00673546
0.00655622
0.0063822
0.00621378
0.00605024
0.00589097
0.00573571
0.00558341
0.0054327
0.00528289
0.00513065
0.00838828
0.00841011
0.0082829
0.00806537
0.00783292
0.00760373
0.00738086
0.00716762
0.00696672
0.00677916
0.00660238
0.00643289
0.00626907
0.00610943
0.00595248
0.00579818
0.00564696
0.00549922
0.00535636
0.00521854
0.00977292
0.00903173
0.00844355
0.00803541
0.00771343
0.00744665
0.007225
0.00703415
0.00686304
0.00670576
0.00655493
0.00640351
0.00625045
0.0060972
0.00594477
0.00579365
0.00564417
0.00549676
0.0053511
0.0052108
0.00977292
0.00903173
0.00844355
0.00803541
0.00771343
0.00744664
0.00722499
0.00703414
0.00686303
0.00670574
0.00655492
0.00640349
0.00625042
0.00609717
0.00594473
0.0057936
0.00564412
0.00549669
0.00535102
0.00521071
0.00838827
0.0084101
0.00828289
0.00806536
0.00783291
0.00760372
0.00738085
0.00716761
0.00696671
0.00677915
0.00660236
0.00643287
0.00626904
0.0061094
0.00595245
0.00579815
0.00564692
0.00549919
0.00535632
0.00521852
0.00790209
0.00796652
0.00793706
0.0078122
0.00765316
0.00747947
0.00729317
0.00710513
0.00691895
0.00673546
0.00655621
0.00638219
0.00621377
0.00605022
0.00589094
0.00573569
0.00558338
0.00543267
0.00528287
0.00513061
0.00763616
0.00769905
0.00770281
0.00762917
0.00750904
0.00736265
0.00719974
0.0070283
0.00685414
0.00668057
0.00650942
0.00634158
0.00617734
0.00601656
0.00585895
0.00570417
0.00555156
0.00540081
0.00525273
0.00510122
0.00749335
0.00756287
0.00758499
0.00753245
0.0074312
0.00730026
0.00715033
0.00698934
0.00682283
0.00665449
0.0064867
0.00632089
0.0061578
0.00599775
0.00584074
0.00568653
0.0055346
0.00538511
0.00523977
0.00509218
0.00749335
0.00756287
0.00758499
0.00753245
0.0074312
0.00730026
0.00715033
0.00698934
0.00682283
0.00665449
0.00648671
0.00632089
0.0061578
0.00599775
0.00584075
0.00568654
0.0055346
0.00538512
0.00523978
0.00509218
0.00763617
0.00769907
0.00770283
0.00762919
0.00750908
0.0073627
0.00719983
0.00702843
0.00685431
0.0066808
0.00650974
0.00634201
0.00617795
0.00601748
0.00586037
0.00570611
0.00555394
0.00540357
0.00525599
0.00510417
0.00790211
0.00796655
0.00793709
0.00781228
0.00765331
0.00747967
0.00729342
0.00710546
0.00691942
0.00673618
0.00655732
0.00638384
0.00621612
0.00605368
0.00589618
0.00574317
0.00559352
0.00544713
0.00530522
0.0051605
0.00838831
0.00841014
0.00828294
0.00806545
0.00783305
0.00760391
0.00738113
0.00716802
0.00696729
0.00678012
0.00660404
0.00643567
0.00627344
0.00611619
0.00596274
0.00581305
0.0056681
0.00552916
0.00539727
0.00526761
0.00977293
0.00903175
0.00844358
0.00803546
0.0077135
0.00744674
0.00722516
0.00703442
0.00686349
0.0067065
0.00655614
0.00640549
0.00625367
0.00610237
0.00595293
0.00580632
0.00566343
0.00552468
0.00538653
0.00525082
0.00990713
0.0091444
0.00852563
0.0080743
0.0077303
0.00746121
0.00724148
0.00705248
0.00688431
0.00672634
0.00656978
0.00641306
0.00625663
0.00610069
0.00594486
0.0057886
0.00563146
0.00547372
0.00531833
0.00516721
0.00860426
0.00864777
0.00848219
0.00821925
0.00793886
0.00766751
0.00741645
0.00719
0.00698678
0.00679984
0.00662222
0.00645073
0.00628399
0.00612071
0.00595953
0.00579949
0.00564007
0.00548163
0.00532536
0.00517602
0.00808516
0.00815323
0.00810085
0.00795388
0.00776902
0.00756392
0.00735329
0.00714643
0.00694538
0.00675302
0.00657051
0.00639601
0.00622755
0.00606369
0.00590339
0.00574568
0.00558958
0.00543413
0.00527825
0.00511949
0.00778729
0.00784644
0.00783451
0.00773914
0.00759953
0.00743408
0.00725394
0.00706954
0.00688566
0.00670544
0.0065305
0.00636072
0.00619551
0.00603428
0.00587646
0.00572138
0.00556842
0.00541724
0.00526842
0.00511581
0.00763617
0.00769907
0.00770284
0.00762919
0.00750908
0.0073627
0.00719983
0.00702843
0.00685431
0.0066808
0.00650974
0.00634201
0.00617794
0.00601748
0.00586036
0.0057061
0.00555394
0.00540357
0.00525599
0.00510419
0.00763616
0.00769905
0.00770282
0.00762917
0.00750904
0.00736265
0.00719974
0.0070283
0.00685415
0.00668057
0.00650943
0.00634159
0.00617735
0.00601657
0.00585897
0.00570419
0.00555158
0.00540083
0.00525276
0.00510127
0.00778729
0.00784644
0.00783451
0.00773913
0.00759953
0.00743408
0.00725394
0.00706954
0.00688566
0.00670544
0.00653051
0.00636073
0.00619552
0.00603429
0.00587647
0.0057214
0.00556844
0.00541726
0.00526845
0.00511584
0.00808521
0.00815328
0.00810092
0.007954
0.00776921
0.00756415
0.00735359
0.00714687
0.00694605
0.00675412
0.00657233
0.00639886
0.00623178
0.00606998
0.00591274
0.00575896
0.00560837
0.00546248
0.00532304
0.00517984
0.00860433
0.00864784
0.0084823
0.0082194
0.00793908
0.0076678
0.0074169
0.0071907
0.00698795
0.00680201
0.00662618
0.00645724
0.00629361
0.00613478
0.00598105
0.00583301
0.00569131
0.00555755
0.00543376
0.0053152
0.00990718
0.00914445
0.00852569
0.00807438
0.00773043
0.00746143
0.00724186
0.00705315
0.00688546
0.00672823
0.00657289
0.00641809
0.00626471
0.00611361
0.0059656
0.00582194
0.00568444
0.00555487
0.00543237
0.00531881
0.0103164
0.00946492
0.00870066
0.00814152
0.00776535
0.00749728
0.00728155
0.00708851
0.00690989
0.00674101
0.00657692
0.00641531
0.00625546
0.00609668
0.00593774
0.00577658
0.00561046
0.00543548
0.00524921
0.00504703
0.00902266
0.00914885
0.00884598
0.00842977
0.00806264
0.00774402
0.00746547
0.00722501
0.00701238
0.00681775
0.00663435
0.00645884
0.00628916
0.00612329
0.00595958
0.00579649
0.00563296
0.00546826
0.00530207
0.00514336
0.00845319
0.00855417
0.00844263
0.00821719
0.00796147
0.00770313
0.00744483
0.00720337
0.00698572
0.00678581
0.00659872
0.00642136
0.00625126
0.00608646
0.00592582
0.00576847
0.00561379
0.00546214
0.00531455
0.0051694
0.00808521
0.00815328
0.00810092
0.007954
0.00776921
0.00756415
0.00735359
0.00714687
0.00694605
0.00675412
0.00657233
0.00639885
0.00623178
0.00606997
0.00591272
0.00575894
0.00560836
0.00546247
0.00532302
0.0051798
0.00790211
0.00796655
0.00793709
0.00781228
0.00765331
0.00747967
0.00729342
0.00710546
0.00691942
0.00673618
0.00655732
0.00638384
0.00621612
0.00605367
0.00589617
0.00574316
0.00559351
0.00544713
0.00530523
0.00516052
0.00790209
0.00796652
0.00793706
0.0078122
0.00765317
0.00747947
0.00729317
0.00710513
0.00691896
0.00673546
0.00655621
0.0063822
0.00621378
0.00605024
0.00589097
0.00573572
0.00558342
0.00543273
0.00528295
0.00513076
0.00808516
0.00815323
0.00810085
0.00795387
0.00776902
0.00756392
0.00735329
0.00714643
0.00694538
0.00675303
0.00657051
0.00639602
0.00622756
0.0060637
0.0059034
0.00574569
0.0055896
0.00543416
0.0052783
0.00511961
0.00845319
0.00855417
0.00844262
0.00821718
0.00796147
0.00770312
0.00744483
0.00720337
0.00698572
0.00678581
0.00659872
0.00642136
0.00625126
0.00608647
0.00592583
0.00576847
0.00561379
0.00546215
0.00531458
0.00516946
0.00902269
0.00914889
0.00884604
0.00842986
0.00806276
0.0077442
0.00746579
0.0072256
0.00701343
0.00681951
0.00663714
0.00646325
0.00629621
0.00613485
0.00597862
0.00582749
0.00568278
0.00554681
0.005425
0.00533091
0.0103165
0.00946496
0.0087007
0.00814159
0.00776547
0.00749752
0.00728196
0.0070892
0.00691104
0.00674297
0.00658025
0.0064208
0.00626442
0.00611142
0.00596227
0.00581786
0.00568075
0.00555378
0.00544487
0.00536905
0.0106647
0.00993087
0.00883798
0.00817202
0.00776943
0.00749572
0.00728456
0.00709834
0.00692393
0.00675658
0.0065938
0.00643378
0.00627487
0.00611603
0.00595696
0.00579767
0.00563504
0.00545999
0.00524692
0.00494033
0.00994814
0.00991645
0.00918824
0.00847776
0.00803144
0.00771556
0.00745675
0.00722922
0.00702484
0.00683679
0.00665958
0.00648958
0.00632396
0.00616112
0.00600065
0.00584194
0.00568489
0.00552919
0.00538338
0.00526807
0.0090227
0.0091489
0.00884604
0.00842986
0.00806276
0.0077442
0.00746579
0.0072256
0.00701342
0.00681951
0.00663714
0.00646325
0.00629621
0.00613485
0.00597862
0.00582749
0.00568278
0.00554682
0.00542501
0.00533091
0.00860433
0.00864784
0.0084823
0.0082194
0.00793908
0.0076678
0.0074169
0.0071907
0.00698795
0.00680201
0.00662618
0.00645723
0.00629361
0.00613477
0.00598104
0.005833
0.0056913
0.00555755
0.00543375
0.00531517
0.00838831
0.00841014
0.00828294
0.00806545
0.00783305
0.00760391
0.00738113
0.00716802
0.00696729
0.00678012
0.00660403
0.00643566
0.00627343
0.00611617
0.00596272
0.00581303
0.00566809
0.00552915
0.00539726
0.00526761
0.00838827
0.0084101
0.0082829
0.00806536
0.00783292
0.00760373
0.00738086
0.00716762
0.00696671
0.00677916
0.00660237
0.00643288
0.00626906
0.00610941
0.00595247
0.00579817
0.00564694
0.00549922
0.00535637
0.00521859
0.00860425
0.00864776
0.00848219
0.00821925
0.00793886
0.00766751
0.00741645
0.00719
0.00698679
0.00679984
0.00662222
0.00645073
0.00628399
0.00612071
0.00595953
0.00579948
0.00564006
0.00548161
0.00532534
0.00517599
0.00902266
0.00914885
0.00884597
0.00842977
0.00806264
0.00774401
0.00746546
0.00722501
0.00701238
0.00681775
0.00663435
0.00645883
0.00628915
0.00612328
0.00595957
0.00579648
0.00563294
0.00546823
0.00530203
0.00514332
0.00994814
0.00991644
0.00918823
0.00847775
0.00803144
0.00771555
0.00745674
0.00722921
0.00702484
0.00683679
0.00665958
0.00648958
0.00632395
0.0061611
0.00600063
0.00584192
0.00568487
0.00552915
0.00538333
0.00526797
0.0106647
0.00993088
0.008838
0.00817204
0.00776949
0.00749582
0.00728474
0.00709867
0.00692451
0.00675758
0.00659546
0.00643655
0.00627968
0.00612464
0.00597226
0.00582423
0.00568043
0.00554132
0.00541466
0.00532062
0.0178435
0.0107291
0.00843767
0.00789985
0.00762551
0.00740334
0.00721676
0.00705041
0.00688937
0.00673011
0.00657275
0.00641715
0.00626233
0.0061073
0.0059521
0.00579699
0.0056428
0.00548824
0.00532175
0.00507288
0.0106647
0.00993089
0.008838
0.00817205
0.00776949
0.00749582
0.00728475
0.00709867
0.00692451
0.00675759
0.00659546
0.00643655
0.00627968
0.00612465
0.00597229
0.00582425
0.00568045
0.00554135
0.00541471
0.00532074
0.0103165
0.00946497
0.00870071
0.00814159
0.00776547
0.00749752
0.00728196
0.00708921
0.00691104
0.00674297
0.00658024
0.0064208
0.00626442
0.00611143
0.00596227
0.00581786
0.00568075
0.00555379
0.00544491
0.00536912
0.00990718
0.00914445
0.0085257
0.00807439
0.00773043
0.00746143
0.00724186
0.00705315
0.00688545
0.00672822
0.00657288
0.00641809
0.0062647
0.0061136
0.0059656
0.00582193
0.00568443
0.00555486
0.00543236
0.00531881
0.00977293
0.00903175
0.00844358
0.00803546
0.0077135
0.00744674
0.00722516
0.00703442
0.00686349
0.0067065
0.00655613
0.00640548
0.00625366
0.00610236
0.00595291
0.0058063
0.00566341
0.00552466
0.0053865
0.00525079
0.00977292
0.00903173
0.00844355
0.00803541
0.00771343
0.00744664
0.007225
0.00703415
0.00686303
0.00670575
0.00655492
0.0064035
0.00625043
0.00609718
0.00594475
0.00579362
0.00564413
0.00549671
0.00535104
0.00521071
0.00990713
0.0091444
0.00852563
0.0080743
0.00773029
0.00746121
0.00724148
0.00705248
0.00688431
0.00672634
0.00656978
0.00641305
0.00625663
0.00610069
0.00594486
0.00578859
0.00563143
0.00547368
0.00531823
0.00516704
0.0103164
0.00946492
0.00870065
0.00814152
0.00776534
0.00749728
0.00728155
0.00708851
0.00690988
0.00674101
0.00657692
0.0064153
0.00625545
0.00609667
0.00593772
0.00577656
0.00561043
0.00543543
0.00524913
0.00504689
0.0106647
0.00993087
0.00883798
0.00817201
0.00776943
0.00749571
0.00728455
0.00709834
0.00692392
0.00675658
0.00659379
0.00643377
0.00627486
0.00611601
0.00595694
0.00579764
0.00563502
0.00545994
0.00524684
0.00494019
0.0178435
0.0107291
0.00843766
0.00789985
0.0076255
0.00740333
0.00721676
0.00705041
0.00688937
0.00673011
0.00657274
0.00641715
0.00626233
0.00610729
0.00595207
0.00579697
0.00564278
0.00548821
0.00532169
0.00507274
0.00538647
0.00488171
0.00458271
0.00445043
0.0043329
0.00419963
0.00406379
0.00392904
0.0037936
0.00365806
0.00352351
0.00339067
0.0032584
0.00312685
0.00299627
0.0028663
0.00273747
0.00260996
0.00248447
0.00235998
0.00223719
0.00211503
0.00199432
0.00187517
0.00175616
0.00163828
0.00152145
0.00140553
0.00129177
0.00117836
0.00106294
0.000948206
0.000835372
0.000724099
0.000613937
0.000502448
0.000389436
0.00027671
0.00016677
5.1882e-05
0.00522133
0.00487724
0.00463581
0.00450312
0.0043747
0.00423327
0.004091
0.00395013
0.00380925
0.00366909
0.00353039
0.003394
0.00325857
0.00312397
0.00299089
0.00285929
0.00272948
0.00260136
0.00247541
0.00235069
0.00222773
0.00210598
0.00198613
0.00186776
0.00174907
0.00163102
0.00151404
0.00139811
0.00128432
0.00117104
0.0010561
0.000941903
0.000829548
0.000718714
0.000608847
0.000497783
0.000385408
0.000273678
0.000164253
5.12521e-05
0.005097
0.00491483
0.00469908
0.00453269
0.00438727
0.0042409
0.00409346
0.00394779
0.00380428
0.0036628
0.00352297
0.00338547
0.0032489
0.00311377
0.00298092
0.00285002
0.00272095
0.00259338
0.00246768
0.0023429
0.00221977
0.00209789
0.00197778
0.00185903
0.00174039
0.00162268
0.00150594
0.0013903
0.00127661
0.00116376
0.00104982
0.000936689
0.000824889
0.000714012
0.000604906
0.000495046
0.000382914
0.000271552
0.000162951
5.04843e-05
0.00498222
0.00486074
0.00469398
0.00453766
0.00439145
0.00424603
0.00410046
0.00395601
0.00381321
0.00367207
0.00353268
0.00339515
0.00325944
0.0031252
0.00299261
0.00286184
0.00273264
0.0026047
0.00247833
0.00235287
0.00222869
0.0021053
0.00198264
0.00186118
0.00174109
0.00162262
0.00150572
0.00139006
0.00127604
0.00116335
0.00104955
0.000936076
0.000823785
0.00071296
0.000604186
0.000494743
0.000382953
0.000271723
0.000163286
5.02396e-05
0.00497995
0.00484963
0.00469463
0.00453634
0.00438341
0.00423452
0.00408811
0.00394487
0.00380455
0.0036659
0.00352846
0.00339273
0.00325851
0.00312573
0.00299434
0.00286446
0.00273586
0.00260842
0.00248226
0.00235735
0.00223388
0.00211154
0.00198976
0.00186862
0.00174842
0.00162975
0.00151289
0.0013974
0.00128327
0.00116959
0.00105488
0.000940391
0.000827247
0.000716096
0.000607044
0.000497316
0.000385412
0.00027361
0.0001642
5.02101e-05
0.00502016
0.00486273
0.0046966
0.00453296
0.004377
0.00422687
0.00408074
0.00393858
0.00379955
0.00366238
0.00352621
0.00339115
0.00325744
0.00312533
0.00299459
0.00286505
0.00273684
0.0026099
0.00248423
0.00235983
0.00223671
0.00211482
0.00199416
0.00187409
0.00175398
0.00163468
0.00151703
0.00140118
0.00128708
0.00117358
0.00105978
0.000946414
0.000833783
0.000722412
0.000612717
0.000502186
0.000389686
0.000276728
0.000166038
5.12692e-05
0.0051047
0.0049151
0.00471505
0.00453762
0.0043766
0.00422335
0.00407564
0.00393283
0.0037937
0.00365654
0.0035209
0.00338664
0.00325366
0.00312196
0.00299175
0.00286298
0.00273547
0.0026091
0.00248393
0.00236002
0.00223732
0.00211586
0.00199553
0.00187567
0.00175554
0.00163671
0.00151965
0.00140419
0.00129089
0.00117766
0.00106334
0.000949823
0.000837247
0.000725948
0.000616843
0.000506695
0.000394153
0.000280567
0.000168828
5.29035e-05
0.00521432
0.00498223
0.00473406
0.00453388
0.00436418
0.00420833
0.00406081
0.00391913
0.00378153
0.00364609
0.00351232
0.00337986
0.00324829
0.00311695
0.00298658
0.00285798
0.00273102
0.0026053
0.00248071
0.00235724
0.00223479
0.00211352
0.00199335
0.0018746
0.00175655
0.00163977
0.00152388
0.00140882
0.00129593
0.00118253
0.00106718
0.000953116
0.000840794
0.000729437
0.000619731
0.000509889
0.000397583
0.000282737
0.000169596
5.35257e-05
0.00533718
0.00501312
0.00470132
0.00448977
0.00432332
0.0041722
0.00403007
0.00389428
0.00376226
0.00363166
0.00350164
0.00337188
0.00324225
0.0031139
0.00298714
0.00285987
0.00273309
0.00260726
0.00248257
0.00235902
0.00223633
0.00211475
0.00199441
0.0018762
0.00175859
0.00164214
0.00152622
0.0014107
0.00129734
0.00118358
0.00106761
0.000952769
0.000840075
0.000728494
0.000618276
0.000507924
0.00039523
0.000280313
0.000167416
5.27159e-05
0.0054229
0.00495086
0.00458177
0.00441045
0.00428892
0.00416206
0.00403282
0.0039044
0.00377496
0.00364472
0.00351451
0.00338514
0.00325638
0.00312877
0.00300205
0.00287413
0.00274624
0.00261942
0.00249402
0.00237009
0.00224713
0.00212461
0.00200343
0.00188436
0.00176558
0.00164753
0.00153075
0.00141474
0.00130096
0.00118714
0.00107095
0.000955451
0.000842047
0.000729893
0.000619452
0.000509705
0.000397341
0.000282113
0.000168681
5.32206e-05
0.00538649
0.00488175
0.00458231
0.00444902
0.00433217
0.00420045
0.00406478
0.00392978
0.00379399
0.00365821
0.00352342
0.00339034
0.0032584
0.00312708
0.00299668
0.0028666
0.0027376
0.0026101
0.00248423
0.00235997
0.00223689
0.00211457
0.00199423
0.00187568
0.00175692
0.00163872
0.00152192
0.00140587
0.00129198
0.00117844
0.00106289
0.000948052
0.000835121
0.00072336
0.000613348
0.000504011
0.000392292
0.00027799
0.000166667
5.16572e-05
0.00542277
0.00495064
0.00458208
0.00441195
0.00428978
0.0041613
0.0040318
0.00390363
0.00377451
0.0036445
0.00351448
0.0033853
0.00325624
0.00312845
0.00300146
0.00287368
0.00274594
0.00261912
0.00249412
0.00236994
0.00224731
0.00212487
0.00200335
0.00188369
0.00176466
0.00164695
0.00153022
0.00141441
0.00130079
0.00118713
0.0010711
0.000955746
0.000842532
0.000731125
0.000620509
0.000508099
0.000394141
0.000280517
0.000168545
5.32619e-05
0.00513383
0.00485886
0.00464006
0.0044838
0.00434207
0.00420322
0.00406816
0.00393476
0.00380125
0.00366755
0.00353393
0.0034016
0.00326908
0.00313713
0.0030061
0.00287616
0.00274751
0.00262031
0.00249515
0.00237045
0.00224773
0.00212553
0.00200436
0.00188466
0.00176512
0.00164694
0.00152953
0.00141313
0.00129933
0.00118589
0.00106985
0.000954287
0.000840752
0.000728797
0.000619247
0.000508125
0.000393729
0.000279898
0.000168884
5.35695e-05
0.00498408
0.00480365
0.00464765
0.0044909
0.00434369
0.00420294
0.00406405
0.00392645
0.00379042
0.00365525
0.00352062
0.00338647
0.00325361
0.00312214
0.00299174
0.00286245
0.0027342
0.00260761
0.00248248
0.00235792
0.00223418
0.00211169
0.00199035
0.00187012
0.00175097
0.00163309
0.00151632
0.00140026
0.00128545
0.00117171
0.00105729
0.000943111
0.00082971
0.000717279
0.000607431
0.000497725
0.000385764
0.000274247
0.000165545
5.25259e-05
0.00494895
0.00479133
0.00464329
0.00449559
0.00435196
0.00421125
0.0040718
0.00393387
0.00379734
0.00366167
0.00352697
0.00339286
0.00326037
0.00312903
0.00299831
0.00286851
0.00273979
0.00261253
0.00248637
0.00236159
0.00223758
0.00211452
0.00199276
0.0018722
0.00175266
0.00163397
0.0015166
0.00139996
0.00128407
0.00116899
0.00105427
0.000939945
0.000826321
0.000713934
0.000602835
0.000492135
0.000381669
0.000271818
0.000163306
5.21925e-05
0.00496922
0.004809
0.00466151
0.00451472
0.00436873
0.00422464
0.00408242
0.00394204
0.00380327
0.00366618
0.0035306
0.00339632
0.00326336
0.00313165
0.003001
0.00287146
0.00274304
0.00261582
0.00248967
0.00236472
0.00224059
0.00211721
0.00199508
0.00187432
0.00175481
0.00163655
0.00151922
0.00140249
0.00128631
0.00117042
0.00105534
0.000941043
0.000827774
0.000715242
0.000602787
0.000490501
0.000379304
0.00026938
0.000161166
5.18958e-05
0.00499799
0.00483784
0.00469153
0.00454225
0.00439244
0.00424508
0.00410011
0.0039568
0.00381519
0.00367584
0.00353863
0.00340307
0.00326881
0.00313601
0.0030046
0.00287442
0.00274552
0.00261789
0.0024915
0.00236633