/*--------------------------------*- C++ -*----------------------------------*\
| =========                 |                                                 |
| \\      /  F ield         | OpenFOAM: The Open Source CFD Toolbox           |
|  \\    /   O peration     | Version:  2212                                  |
|   \\  /    A nd           | Website:  www.openfoam.com                      |
|    \\/     M anipulation  |                                                 |
\*---------------------------------------------------------------------------*/
FoamFile
{
    version     2.0;
    format      ascii;
    arch        "LSB;label=32;scalar=64";
    class       surfaceScalarField;
    location    "1.35";
    object      phi;
}
// * * * * * * * * * * * * * * * * * * * * * * * * * * * * * * * * * * * * * //

dimensions      [0 3 -1 0 0 0 0];

oriented        oriented;

internalField   nonuniform List<scalar> 
19019
(
3.32249e-07
1.09684e-09
1.09684e-09
2.7919e-07
2.65297e-08
2.65294e-08
2.49217e-07
1.49868e-08
1.49863e-08
2.29253e-07
9.98267e-09
9.98188e-09
2.14832e-07
7.21137e-09
7.20932e-09
2.03194e-07
5.82045e-09
5.81731e-09
1.93763e-07
4.71857e-09
4.71204e-09
1.85991e-07
3.89233e-09
3.88053e-09
1.79333e-07
3.33917e-09
3.31851e-09
1.7349e-07
2.93948e-09
2.90355e-09
1.68295e-07
2.62728e-09
2.56783e-09
1.63636e-07
2.37896e-09
2.28004e-09
1.59412e-07
2.19693e-09
2.02713e-09
1.55542e-07
2.08667e-09
1.78264e-09
1.52012e-07
2.0332e-09
1.49758e-09
1.48836e-07
2.01864e-09
1.15683e-09
1.4608e-07
2.0535e-09
7.02346e-10
1.44084e-07
2.09598e-09
-9.93063e-11
1.43523e-07
2.69191e-09
-2.1302e-09
-3.29074e-09
-1.34294e-08
6.3138e-07
3.58767e-09
7.40286e-09
6.14563e-07
2.26463e-08
2.07003e-08
5.86444e-07
2.43766e-08
1.87291e-08
5.61724e-07
1.8856e-08
1.5847e-08
5.39614e-07
1.55717e-08
1.37492e-08
5.20632e-07
1.3514e-08
1.12885e-08
5.04684e-07
1.19581e-08
8.70801e-09
4.90928e-07
1.081e-08
6.83841e-09
4.78702e-07
9.96442e-09
5.60075e-09
4.67614e-07
9.26627e-09
4.76122e-09
4.57432e-07
8.66124e-09
4.14792e-09
4.48014e-07
8.1286e-09
3.66869e-09
4.39248e-07
7.66346e-09
3.29952e-09
4.31045e-07
7.26924e-09
3.0206e-09
4.23365e-07
6.94301e-09
2.76938e-09
4.16392e-07
6.62414e-09
2.36796e-09
4.10515e-07
6.19636e-09
1.73441e-09
4.07084e-07
5.10711e-09
4.19691e-10
4.0885e-07
3.20851e-09
-2.28201e-09
-2.48821e-09
-1.21934e-08
8.90375e-07
2.85272e-09
6.33232e-09
8.82486e-07
1.3409e-08
1.71257e-08
8.70359e-07
1.78681e-08
1.86354e-08
8.55113e-07
1.69566e-08
1.71463e-08
8.39984e-07
1.53416e-08
1.53588e-08
8.25539e-07
1.41713e-08
1.37876e-08
8.11777e-07
1.33813e-08
1.23388e-08
7.98794e-07
1.26781e-08
1.11153e-08
7.86739e-07
1.18905e-08
1.0128e-08
7.75629e-07
1.10468e-08
9.32948e-09
7.65334e-07
1.02411e-08
8.71596e-09
7.55716e-07
9.49272e-09
8.25344e-09
7.4668e-07
8.80721e-09
7.89207e-09
7.38198e-07
8.1686e-09
7.58275e-09
7.30335e-07
7.53187e-09
7.2746e-09
7.23299e-07
6.78586e-09
6.87401e-09
7.17503e-07
5.7656e-09
6.22665e-09
7.13285e-07
4.22666e-09
5.09919e-09
7.11069e-07
2.05236e-09
3.37259e-09
-2.28543e-09
2.71442e-10
1.07432e-06
1.06486e-09
5.56888e-09
1.06824e-06
5.58677e-09
1.39002e-08
1.06138e-06
8.46442e-09
1.62614e-08
1.05339e-06
9.04039e-09
1.59077e-08
1.04511e-06
8.61827e-09
1.49994e-08
1.03723e-06
8.12047e-09
1.39289e-08
1.02986e-06
7.78557e-09
1.29706e-08
1.02288e-06
7.55152e-09
1.21045e-08
1.01608e-06
7.36228e-09
1.13285e-08
1.00939e-06
7.07226e-09
1.06642e-08
1.00286e-06
6.6241e-09
1.01519e-08
9.96477e-07
6.11258e-09
9.75978e-09
9.90237e-07
5.59467e-09
9.45203e-09
9.84141e-07
5.06087e-09
9.20357e-09
9.78207e-07
4.49234e-09
8.97345e-09
9.7247e-07
3.81552e-09
8.70783e-09
9.66985e-07
2.91619e-09
8.33416e-09
9.61761e-07
1.66348e-09
7.78748e-09
9.56735e-07
-2.2669e-11
7.1005e-09
-2.08394e-09
6.6944e-09
1.16914e-06
-9.85827e-14
4.90654e-09
1.16312e-06
-4.85197e-13
1.16084e-08
1.15731e-06
-1.16455e-12
1.42754e-08
1.15202e-06
-2.12085e-12
1.4333e-08
1.14692e-06
-3.67967e-12
1.37285e-08
1.14208e-06
-6.50001e-12
1.29657e-08
1.13778e-06
-1.1607e-11
1.20951e-08
1.13405e-06
-1.99946e-11
1.12989e-08
1.13081e-06
-3.4143e-11
1.06346e-08
1.12778e-06
-5.7416e-11
1.01644e-08
1.12464e-06
-9.55301e-11
9.85434e-09
1.12129e-06
-1.57717e-10
9.62331e-09
1.11768e-06
-2.5962e-10
9.46399e-09
1.11379e-06
-4.25998e-10
9.38202e-09
1.10959e-06
-6.81369e-10
9.37298e-09
1.10508e-06
-1.08058e-09
9.40544e-09
1.10024e-06
-1.70058e-09
9.45464e-09
1.09506e-06
-2.67292e-09
9.51777e-09
1.08932e-06
-3.86434e-09
9.5818e-09
-6.00843e-09
9.84454e-09
1.16914e-06
-1.06509e-09
4.90658e-09
1.16312e-06
-5.58758e-09
1.16086e-08
1.15731e-06
-8.46596e-09
1.42754e-08
1.15202e-06
-9.04303e-09
1.43335e-08
1.14691e-06
-8.62333e-09
1.37301e-08
1.14206e-06
-8.13014e-09
1.2969e-08
1.13775e-06
-7.80329e-09
1.21002e-08
1.13401e-06
-7.58247e-09
1.13074e-08
1.13074e-06
-7.41674e-09
1.06495e-08
1.12766e-06
-7.16354e-09
1.01898e-08
1.12444e-06
-6.77369e-09
9.8962e-09
1.12095e-06
-6.35657e-09
9.69328e-09
1.1171e-06
-5.99652e-09
9.5831e-09
1.11282e-06
-5.7304e-09
9.58105e-09
1.10804e-06
-5.59429e-09
9.69563e-09
1.10267e-06
-5.63913e-09
9.92945e-09
1.09661e-06
-5.93119e-09
1.02913e-08
1.08977e-06
-6.62347e-09
1.07936e-08
1.08223e-06
-7.65903e-09
1.13289e-08
-1.03606e-08
1.14577e-08
1.07432e-06
-2.85269e-09
5.56887e-09
1.06824e-06
-1.34089e-08
1.39002e-08
1.06138e-06
-1.7868e-08
1.62621e-08
1.05338e-06
-1.69564e-08
1.59097e-08
1.0451e-06
-1.53421e-08
1.50033e-08
1.0372e-06
-1.41731e-08
1.39351e-08
1.02981e-06
-1.33851e-08
1.29798e-08
1.02279e-06
-1.26842e-08
1.21196e-08
1.01592e-06
-1.19018e-08
1.13539e-08
1.00911e-06
-1.10665e-08
1.07079e-08
1.00239e-06
-1.02737e-08
1.02276e-08
9.95688e-07
-9.54904e-09
9.89055e-09
9.88928e-07
-8.91173e-09
9.67519e-09
9.81987e-07
-8.37075e-09
9.58098e-09
9.74701e-07
-7.92522e-09
9.61699e-09
9.66827e-07
-7.57872e-09
9.81357e-09
9.58045e-07
-7.39067e-09
1.02415e-08
9.47942e-07
-7.47727e-09
1.0956e-08
9.36457e-07
-8.07974e-09
1.19063e-08
-1.08044e-08
1.2374e-08
8.90374e-07
-3.58758e-09
6.3324e-09
8.82485e-07
-2.26458e-08
1.71262e-08
8.70356e-07
-2.4376e-08
1.86369e-08
8.55106e-07
-1.88549e-08
1.71488e-08
8.3997e-07
-1.55691e-08
1.53625e-08
8.25514e-07
-1.35095e-08
1.37926e-08
8.11732e-07
-1.19503e-08
1.2347e-08
7.98715e-07
-1.07971e-08
1.11298e-08
7.86605e-07
-9.94259e-09
1.01515e-08
7.75399e-07
-9.22856e-09
9.36787e-09
7.64941e-07
-8.59617e-09
8.78026e-09
7.5505e-07
-8.02328e-09
8.36501e-09
7.45554e-07
-7.50145e-09
8.08591e-09
7.36292e-07
-7.0215e-09
7.91323e-09
7.27086e-07
-6.56399e-09
7.84486e-09
7.17634e-07
-6.0488e-09
7.92163e-09
7.07495e-07
-5.46047e-09
8.20831e-09
6.9596e-07
-4.73948e-09
8.79713e-09
6.82062e-07
-3.71363e-09
9.53211e-09
-4.27365e-09
1.12937e-08
6.3138e-07
-1.09685e-09
7.40294e-09
6.14563e-07
-2.65295e-08
2.07007e-08
5.86443e-07
-1.49863e-08
1.87299e-08
5.61722e-07
-9.98192e-09
1.58486e-08
5.39611e-07
-7.20938e-09
1.37514e-08
5.20626e-07
-5.81739e-09
1.12928e-08
5.04672e-07
-4.71214e-09
8.71494e-09
4.90906e-07
-3.88065e-09
6.84979e-09
4.78662e-07
-3.31866e-09
5.62001e-09
4.67543e-07
-2.90373e-09
4.79461e-09
4.57301e-07
-2.56804e-09
4.21315e-09
4.47776e-07
-2.28029e-09
3.78276e-09
4.38824e-07
-2.02733e-09
3.47759e-09
4.30314e-07
-1.78303e-09
3.272e-09
4.22101e-07
-1.49812e-09
3.14629e-09
4.14141e-07
-1.15734e-09
3.0685e-09
4.06289e-07
-7.02945e-10
3.09508e-09
3.9823e-07
9.83551e-11
3.22138e-09
3.89585e-07
2.12899e-09
2.80217e-09
1.3428e-08
2.51283e-09
3.32249e-07
1.09683e-09
2.7919e-07
2.65297e-08
2.49217e-07
1.49867e-08
2.29253e-07
9.98264e-09
2.14832e-07
7.21133e-09
2.03194e-07
5.8204e-09
1.93763e-07
4.7185e-09
1.85991e-07
3.89224e-09
1.79333e-07
3.33905e-09
1.7349e-07
2.93933e-09
1.68295e-07
2.62712e-09
1.63635e-07
2.37876e-09
1.59412e-07
2.1966e-09
1.55542e-07
2.08627e-09
1.52011e-07
2.03273e-09
1.48836e-07
2.018e-09
1.4608e-07
2.05284e-09
1.44084e-07
2.09513e-09
1.43522e-07
2.69069e-09
-3.29156e-09
6.3138e-07
7.40294e-09
3.58757e-09
6.14563e-07
2.07007e-08
2.26457e-08
5.86443e-07
1.87299e-08
2.43759e-08
5.61722e-07
1.58486e-08
1.88548e-08
5.39611e-07
1.37514e-08
1.5569e-08
5.20626e-07
1.12929e-08
1.35094e-08
5.04672e-07
8.71496e-09
1.19502e-08
4.90906e-07
6.84982e-09
1.07969e-08
4.78662e-07
5.62005e-09
9.94239e-09
4.67543e-07
4.79466e-09
9.22832e-09
4.57301e-07
4.2132e-09
8.59587e-09
4.47776e-07
3.78286e-09
8.02292e-09
4.38824e-07
3.47794e-09
7.50097e-09
4.30313e-07
3.27219e-09
7.0212e-09
4.22101e-07
3.14621e-09
6.56378e-09
4.14141e-07
3.06871e-09
6.04831e-09
4.06288e-07
3.09538e-09
5.45973e-09
3.98229e-07
3.22159e-09
4.73833e-09
3.89585e-07
2.80214e-09
3.7119e-09
2.51278e-09
4.26987e-09
9.23616e-07
7.03404e-09
7.03389e-09
9.25317e-07
1.98505e-08
1.98499e-08
9.17181e-07
2.2798e-08
2.27969e-08
9.04269e-07
2.23046e-08
2.23025e-08
8.90524e-07
2.06246e-08
2.06211e-08
8.77393e-07
1.78596e-08
1.7853e-08
8.65412e-07
1.47073e-08
1.46965e-08
8.54715e-07
1.22013e-08
1.21839e-08
8.45244e-07
1.03612e-08
1.03308e-08
8.36848e-07
9.0028e-09
8.94924e-09
8.29333e-07
7.98395e-09
7.89161e-09
8.22505e-07
7.21666e-09
7.06344e-09
8.16237e-07
6.64577e-09
6.39985e-09
8.1049e-07
6.21519e-09
5.82389e-09
8.05257e-07
5.88844e-09
5.26007e-09
8.00459e-07
5.62639e-09
4.60902e-09
7.96072e-07
5.40836e-09
3.80777e-09
7.91819e-07
5.18954e-09
2.70553e-09
7.8702e-07
4.54041e-09
7.78968e-10
2.32767e-09
-2.6015e-09
1.1589e-06
5.2816e-09
6.10255e-09
1.1657e-06
1.39995e-08
1.61827e-08
1.16844e-06
1.79793e-08
2.0706e-08
1.16661e-06
1.91811e-08
2.21038e-08
1.16221e-06
1.88794e-08
2.1504e-08
1.15654e-06
1.75506e-08
1.97674e-08
1.15047e-06
1.56929e-08
1.74213e-08
1.14457e-06
1.3897e-08
1.53225e-08
1.13914e-06
1.23018e-08
1.36175e-08
1.13431e-06
1.09125e-08
1.22487e-08
1.13009e-06
9.76853e-09
1.11545e-08
1.12644e-06
8.83937e-09
1.02805e-08
1.12333e-06
8.07546e-09
9.56425e-09
1.12076e-06
7.42874e-09
8.94045e-09
1.11873e-06
6.84332e-09
8.35206e-09
1.11724e-06
6.26823e-09
7.72664e-09
1.11628e-06
5.6283e-09
6.95895e-09
1.11576e-06
4.84678e-09
5.96745e-09
1.11532e-06
3.73142e-09
4.62309e-09
1.95026e-09
3.17678e-09
1.32763e-06
2.71834e-09
4.93107e-09
1.33539e-06
7.12121e-09
1.30089e-08
1.34287e-06
9.55407e-09
1.72155e-08
1.34848e-06
1.05787e-08
1.88984e-08
1.35198e-06
1.08759e-08
1.94993e-08
1.35377e-06
1.05812e-08
1.91123e-08
1.35444e-06
9.89227e-09
1.80963e-08
1.35459e-06
9.04616e-09
1.68044e-08
1.35458e-06
8.19281e-09
1.54534e-08
1.35455e-06
7.38861e-09
1.42158e-08
1.35459e-06
6.66686e-09
1.32165e-08
1.35475e-06
6.0199e-09
1.24194e-08
1.35506e-06
5.43828e-09
1.17765e-08
1.35555e-06
4.89637e-09
1.12455e-08
1.35625e-06
4.33343e-09
1.07827e-08
1.35718e-06
3.70855e-09
1.03401e-08
1.3583e-06
2.96428e-09
9.87079e-09
1.35955e-06
2.03893e-09
9.34597e-09
1.36072e-06
8.61563e-10
8.80646e-09
-4.97086e-10
8.56473e-09
1.41518e-06
-2.04531e-13
4.19287e-09
1.42279e-06
-5.9452e-13
1.11159e-08
1.43152e-06
-1.02932e-12
1.50986e-08
1.43981e-06
-1.92677e-12
1.66291e-08
1.44714e-06
-3.63773e-12
1.72742e-08
1.45319e-06
-6.43039e-12
1.75073e-08
1.45804e-06
-1.06327e-11
1.71489e-08
1.46197e-06
-1.74227e-11
1.64302e-08
1.46529e-06
-2.9358e-11
1.55384e-08
1.46824e-06
-5.12974e-11
1.46485e-08
1.47103e-06
-8.85699e-11
1.3822e-08
1.47372e-06
-1.47955e-10
1.30976e-08
1.47632e-06
-2.36255e-10
1.25468e-08
1.47879e-06
-3.70972e-10
1.2177e-08
1.48114e-06
-5.81566e-10
1.19335e-08
1.48339e-06
-9.01392e-10
1.17692e-08
1.48551e-06
-1.3716e-09
1.16733e-08
1.48744e-06
-2.04215e-09
1.1661e-08
1.48906e-06
-2.92609e-09
1.17474e-08
-3.84142e-09
1.19737e-08
1.41518e-06
-2.71858e-09
4.19298e-09
1.42279e-06
-7.12187e-09
1.11162e-08
1.43152e-06
-9.55526e-09
1.5099e-08
1.4398e-06
-1.0581e-08
1.66302e-08
1.44713e-06
-1.08803e-08
1.72769e-08
1.45317e-06
-1.05888e-08
1.7512e-08
1.45801e-06
-9.90521e-09
1.71566e-08
1.46193e-06
-9.06782e-09
1.64421e-08
1.46522e-06
-8.22964e-09
1.55565e-08
1.46814e-06
-7.4569e-09
1.46781e-08
1.47086e-06
-6.78848e-09
1.38722e-08
1.47344e-06
-6.2212e-09
1.31849e-08
1.47584e-06
-5.74692e-09
1.26959e-08
1.478e-06
-5.37123e-09
1.24222e-08
1.47989e-06
-5.09996e-09
1.23181e-08
1.48152e-06
-4.94887e-09
1.23472e-08
1.48285e-06
-4.94293e-09
1.25362e-08
1.48382e-06
-5.13948e-09
1.29244e-08
1.48429e-06
-5.49881e-09
1.34318e-08
-5.72005e-09
1.36856e-08
1.32762e-06
-5.28148e-09
4.9313e-09
1.33539e-06
-1.39992e-08
1.30096e-08
1.34286e-06
-1.79791e-08
1.72171e-08
1.34847e-06
-1.91807e-08
1.89023e-08
1.35196e-06
-1.88786e-08
1.95063e-08
1.35374e-06
-1.75489e-08
1.91231e-08
1.35439e-06
-1.5691e-08
1.81131e-08
1.35451e-06
-1.38961e-08
1.6831e-08
1.35443e-06
-1.22995e-08
1.54942e-08
1.35431e-06
-1.09077e-08
1.42826e-08
1.35418e-06
-9.75965e-09
1.3332e-08
1.35405e-06
-8.82103e-09
1.26131e-08
1.35393e-06
-8.04287e-09
1.20926e-08
1.35377e-06
-7.38227e-09
1.17574e-08
1.35347e-06
-6.79889e-09
1.16128e-08
1.35292e-06
-6.27157e-09
1.16879e-08
1.35199e-06
-5.79431e-09
1.20235e-08
1.35059e-06
-5.37327e-09
1.25901e-08
1.34853e-06
-4.85632e-09
1.33238e-08
-4.15172e-09
1.3511e-08
1.1589e-06
-7.03389e-09
6.10283e-09
1.16569e-06
-1.985e-08
1.61839e-08
1.16844e-06
-2.2797e-08
2.07086e-08
1.1666e-06
-2.23026e-08
2.2108e-08
1.1622e-06
-2.06212e-08
2.15102e-08
1.15652e-06
-1.78532e-08
1.97761e-08
1.15044e-06
-1.46966e-08
1.74357e-08
1.14451e-06
-1.21841e-08
1.53475e-08
1.13903e-06
-1.0331e-08
1.36605e-08
1.13412e-06
-8.94955e-09
1.23202e-08
1.12976e-06
-7.89197e-09
1.1273e-08
1.12589e-06
-7.06382e-09
1.04751e-08
1.12245e-06
-6.39998e-09
9.88472e-09
1.11934e-06
-5.82462e-09
9.46687e-09
1.11643e-06
-5.2615e-09
9.21392e-09
1.11354e-06
-4.61022e-09
9.15395e-09
1.11044e-06
-3.80919e-09
9.32268e-09
1.10682e-06
-2.70782e-09
9.75109e-09
1.10205e-06
-7.83569e-10
1.02243e-08
2.59569e-09
1.03434e-08
9.23616e-07
-7.40286e-09
7.03404e-09
9.25317e-07
-2.07003e-08
1.98505e-08
9.17181e-07
-1.87291e-08
2.2798e-08
9.04269e-07
-1.58471e-08
2.23046e-08
8.90524e-07
-1.37493e-08
2.06245e-08
8.77393e-07
-1.12886e-08
1.78596e-08
8.65412e-07
-8.70809e-09
1.47072e-08
8.54715e-07
-6.83851e-09
1.22011e-08
8.45244e-07
-5.60087e-09
1.03611e-08
8.36848e-07
-4.76136e-09
9.00261e-09
8.29333e-07
-4.14813e-09
7.98373e-09
8.22505e-07
-3.66889e-09
7.21637e-09
8.16237e-07
-3.29949e-09
6.64511e-09
8.1049e-07
-3.02064e-09
6.21479e-09
8.05256e-07
-2.76986e-09
5.88837e-09
8.00457e-07
-2.36843e-09
5.62593e-09
7.9607e-07
-1.73499e-09
5.40789e-09
7.91815e-07
-4.20687e-10
5.1893e-09
7.87013e-07
2.28041e-09
4.5403e-09
1.21899e-08
2.32504e-09
6.3138e-07
3.58766e-09
6.14563e-07
2.26463e-08
5.86444e-07
2.43766e-08
5.61724e-07
1.8856e-08
5.39614e-07
1.55717e-08
5.20632e-07
1.3514e-08
5.04684e-07
1.1958e-08
4.90928e-07
1.08099e-08
4.78702e-07
9.96424e-09
4.67614e-07
9.26605e-09
4.57432e-07
8.66099e-09
4.48013e-07
8.12833e-09
4.39247e-07
7.66323e-09
4.31044e-07
7.26858e-09
4.23365e-07
6.94194e-09
4.16392e-07
6.62314e-09
4.10514e-07
6.19544e-09
4.07083e-07
5.10607e-09
4.08847e-07
3.20679e-09
-2.48835e-09
8.90374e-07
6.3324e-09
2.85268e-09
8.82485e-07
1.71262e-08
1.34089e-08
8.70356e-07
1.86369e-08
1.7868e-08
8.55106e-07
1.71488e-08
1.69564e-08
8.3997e-07
1.53626e-08
1.5342e-08
8.25514e-07
1.37926e-08
1.4173e-08
8.11732e-07
1.2347e-08
1.33849e-08
7.98715e-07
1.11298e-08
1.2684e-08
7.86604e-07
1.01516e-08
1.19016e-08
7.75399e-07
9.36796e-09
1.10661e-08
7.64941e-07
8.78038e-09
1.02733e-08
7.5505e-07
8.36519e-09
9.54855e-09
7.45554e-07
8.08613e-09
8.91114e-09
7.36291e-07
7.91352e-09
8.3702e-09
7.27085e-07
7.84532e-09
7.92469e-09
7.17633e-07
7.92223e-09
7.57794e-09
7.07494e-07
8.20896e-09
7.38957e-09
6.95958e-07
8.79761e-09
7.47594e-09
6.8206e-07
9.5321e-09
8.07786e-09
1.12928e-08
1.0801e-08
1.1589e-06
6.10284e-09
5.28147e-09
1.16569e-06
1.61839e-08
1.39992e-08
1.16844e-06
2.07086e-08
1.7979e-08
1.1666e-06
2.21081e-08
1.91806e-08
1.1622e-06
2.15102e-08
1.88785e-08
1.15652e-06
1.97762e-08
1.75488e-08
1.15044e-06
1.74357e-08
1.56908e-08
1.14451e-06
1.53477e-08
1.38958e-08
1.13903e-06
1.36606e-08
1.22992e-08
1.13412e-06
1.23204e-08
1.09073e-08
1.12976e-06
1.12733e-08
9.75917e-09
1.12589e-06
1.04755e-08
8.82051e-09
1.12245e-06
9.88528e-09
8.04231e-09
1.11934e-06
9.4672e-09
7.38121e-09
1.11643e-06
9.21415e-09
6.79739e-09
1.11354e-06
9.1545e-09
6.27005e-09
1.11044e-06
9.32332e-09
5.79252e-09
1.10682e-06
9.75123e-09
5.37064e-09
1.10205e-06
1.02236e-08
4.85234e-09
1.03418e-08
4.14567e-09
1.37712e-06
4.57765e-09
4.57737e-09
1.38565e-06
1.19181e-08
1.19173e-08
1.39417e-06
1.64488e-08
1.64473e-08
1.40126e-06
1.85636e-08
1.8561e-08
1.40641e-06
1.89344e-08
1.89301e-08
1.4095e-06
1.82279e-08
1.82213e-08
1.41092e-06
1.67253e-08
1.67144e-08
1.41149e-06
1.50576e-08
1.50404e-08
1.41175e-06
1.35227e-08
1.34947e-08
1.41197e-06
1.21993e-08
1.21543e-08
1.4123e-06
1.1082e-08
1.10096e-08
1.41286e-06
1.01593e-08
1.00426e-08
1.41367e-06
9.41123e-09
9.22209e-09
1.41476e-06
8.81441e-09
8.51002e-09
1.4161e-06
8.3514e-09
7.87397e-09
1.41767e-06
8.02035e-09
7.28573e-09
1.41944e-06
7.81374e-09
6.69914e-09
1.42138e-06
7.71077e-09
6.06513e-09
1.42333e-06
7.5901e-09
5.31326e-09
7.14754e-09
4.53962e-09
1.53312e-06
2.36623e-09
3.64927e-09
1.54218e-06
6.23941e-09
9.63378e-09
1.55328e-06
8.87439e-09
1.36916e-08
1.56445e-06
1.03489e-08
1.59363e-08
1.57507e-06
1.09026e-08
1.69112e-08
1.58471e-06
1.07594e-08
1.69444e-08
1.59301e-06
1.01508e-08
1.63751e-08
1.60008e-06
9.34265e-09
1.54435e-08
1.60624e-06
8.47763e-09
1.43407e-08
1.61174e-06
7.66522e-09
1.32449e-08
1.61684e-06
6.95196e-09
1.22493e-08
1.6217e-06
6.33957e-09
1.13801e-08
1.62644e-06
5.81151e-09
1.0634e-08
1.63116e-06
5.35008e-09
9.99383e-09
1.63592e-06
4.93051e-09
9.43966e-09
1.6408e-06
4.54129e-09
8.94446e-09
1.64585e-06
4.15757e-09
8.47769e-09
1.65115e-06
3.75171e-09
7.99717e-09
1.6568e-06
3.26239e-09
7.48613e-09
2.63734e-09
7.09571e-09
1.61424e-06
-1.51352e-13
3.09279e-09
1.62332e-06
-3.68297e-13
8.27391e-09
1.63534e-06
-6.54656e-13
1.19569e-08
1.6482e-06
-1.17604e-12
1.4114e-08
1.66118e-06
-2.11492e-12
1.51991e-08
1.67387e-06
-3.48155e-12
1.55809e-08
1.68575e-06
-5.75841e-12
1.54265e-08
1.69658e-06
-9.21472e-12
1.49531e-08
1.70633e-06
-1.52588e-11
1.42765e-08
1.71518e-06
-2.57782e-11
1.34977e-08
1.72329e-06
-4.28205e-11
1.27051e-08
1.73083e-06
-6.86404e-11
1.19642e-08
1.73797e-06
-1.05645e-10
1.132e-08
1.74487e-06
-1.60591e-10
1.07908e-08
1.75161e-06
-2.46912e-10
1.03735e-08
1.75823e-06
-3.76978e-10
1.00652e-08
1.76479e-06
-5.69019e-10
9.84366e-09
1.77135e-06
-8.33127e-10
9.68558e-09
1.77799e-06
-1.18204e-09
9.5495e-09
-1.55015e-09
9.45633e-09
1.61424e-06
-2.36634e-09
3.09294e-09
1.62332e-06
-6.23965e-09
8.27435e-09
1.63533e-06
-8.87483e-09
1.19578e-08
1.6482e-06
-1.03497e-08
1.41157e-08
1.66117e-06
-1.09038e-08
1.52024e-08
1.67386e-06
-1.0761e-08
1.55861e-08
1.68573e-06
-1.01537e-08
1.5434e-08
1.69654e-06
-9.34771e-09
1.4964e-08
1.70628e-06
-8.48631e-09
1.42933e-08
1.71509e-06
-7.68192e-09
1.35244e-08
1.72315e-06
-6.98279e-09
1.27484e-08
1.73062e-06
-6.39113e-09
1.20347e-08
1.73767e-06
-5.88942e-09
1.14336e-08
1.74443e-06
-5.46452e-09
1.09714e-08
1.75095e-06
-5.10824e-09
1.06546e-08
1.75726e-06
-4.82155e-09
1.04807e-08
1.76339e-06
-4.60616e-09
1.04424e-08
1.7694e-06
-4.44321e-09
1.05313e-08
1.77528e-06
-4.31111e-09
1.06784e-08
-4.12719e-09
1.0729e-08
1.53312e-06
-4.57738e-09
3.64963e-09
1.54218e-06
-1.19173e-08
9.63482e-09
1.55327e-06
-1.64473e-08
1.36936e-08
1.56445e-06
-1.85611e-08
1.594e-08
1.57506e-06
-1.89303e-08
1.69173e-08
1.58469e-06
-1.82214e-08
1.69541e-08
1.59297e-06
-1.67146e-08
1.63898e-08
1.60003e-06
-1.50407e-08
1.54672e-08
1.60616e-06
-1.3495e-08
1.43773e-08
1.61161e-06
-1.21547e-08
1.3302e-08
1.61663e-06
-1.10101e-08
1.23408e-08
1.62137e-06
-1.00433e-08
1.15273e-08
1.62592e-06
-9.22293e-09
1.08728e-08
1.63035e-06
-8.51125e-09
1.03779e-08
1.63469e-06
-7.87563e-09
1.00413e-08
1.63898e-06
-7.2877e-09
9.86272e-09
1.64325e-06
-6.70158e-09
9.85014e-09
1.64748e-06
-6.06821e-09
9.9827e-09
1.65163e-06
-5.31679e-09
1.01794e-08
-4.54311e-09
1.01612e-08
1.37712e-06
-6.10255e-09
4.57764e-09
1.38565e-06
-1.61827e-08
1.19181e-08
1.39417e-06
-2.07061e-08
1.64488e-08
1.40126e-06
-2.21039e-08
1.85635e-08
1.40641e-06
-2.15041e-08
1.89343e-08
1.4095e-06
-1.97675e-08
1.82278e-08
1.41092e-06
-1.74215e-08
1.67252e-08
1.41149e-06
-1.53227e-08
1.50574e-08
1.41175e-06
-1.36178e-08
1.35225e-08
1.41197e-06
-1.2249e-08
1.2199e-08
1.4123e-06
-1.11549e-08
1.10816e-08
1.41286e-06
-1.0281e-08
1.01588e-08
1.41367e-06
-9.56484e-09
9.41068e-09
1.41476e-06
-8.94137e-09
8.81393e-09
1.4161e-06
-8.35336e-09
8.35096e-09
1.41767e-06
-7.72826e-09
8.01975e-09
1.41944e-06
-6.96113e-09
7.81304e-09
1.42138e-06
-5.97041e-09
7.71009e-09
1.42333e-06
-4.62631e-09
7.58918e-09
-3.17745e-09
7.1458e-09
1.1589e-06
-6.33232e-09
5.28159e-09
1.1657e-06
-1.71257e-08
1.39994e-08
1.16844e-06
-1.86354e-08
1.79793e-08
1.16661e-06
-1.71463e-08
1.91811e-08
1.16221e-06
-1.53589e-08
1.88793e-08
1.15654e-06
-1.37876e-08
1.75505e-08
1.15047e-06
-1.23389e-08
1.56927e-08
1.14457e-06
-1.11154e-08
1.38969e-08
1.13914e-06
-1.01281e-08
1.23016e-08
1.13431e-06
-9.32967e-09
1.09123e-08
1.13008e-06
-8.7162e-09
9.76821e-09
1.12643e-06
-8.25375e-09
8.83898e-09
1.12333e-06
-7.89248e-09
8.07493e-09
1.12076e-06
-7.58309e-09
7.42821e-09
1.11873e-06
-7.27488e-09
6.84284e-09
1.11723e-06
-6.87464e-09
6.26768e-09
1.11628e-06
-6.22775e-09
5.6278e-09
1.11575e-06
-5.10094e-09
4.84651e-09
1.11531e-06
-3.37478e-09
3.73101e-09
-2.73051e-10
1.94762e-09
8.90375e-07
2.85271e-09
8.82486e-07
1.3409e-08
8.70359e-07
1.7868e-08
8.55113e-07
1.69565e-08
8.39984e-07
1.53415e-08
8.25539e-07
1.41712e-08
8.11777e-07
1.33812e-08
7.98793e-07
1.26779e-08
7.86739e-07
1.18902e-08
7.75629e-07
1.10465e-08
7.65333e-07
1.02408e-08
7.55715e-07
9.49231e-09
7.46679e-07
8.80675e-09
7.38197e-07
8.16789e-09
7.30333e-07
7.53088e-09
7.23297e-07
6.78487e-09
7.175e-07
5.76474e-09
7.13279e-07
4.22607e-09
7.11058e-07
2.0525e-09
-2.28201e-09
1.07432e-06
5.56887e-09
1.06508e-09
1.06824e-06
1.39002e-08
5.58757e-09
1.06138e-06
1.62621e-08
8.46593e-09
1.05338e-06
1.59097e-08
9.04298e-09
1.0451e-06
1.50034e-08
8.62325e-09
1.0372e-06
1.39351e-08
8.13004e-09
1.02981e-06
1.29798e-08
7.80314e-09
1.02279e-06
1.21196e-08
7.58227e-09
1.01592e-06
1.1354e-08
7.41648e-09
1.00911e-06
1.0708e-08
7.16321e-09
1.00239e-06
1.02278e-08
6.77326e-09
9.95687e-07
9.89072e-09
6.35604e-09
9.88927e-07
9.67542e-09
5.99588e-09
9.81986e-07
9.58129e-09
5.72971e-09
9.74699e-07
9.61737e-09
5.59351e-09
9.66825e-07
9.81399e-09
5.63812e-09
9.58043e-07
1.02419e-08
5.92991e-09
9.4794e-07
1.09565e-08
6.62198e-09
9.36453e-07
1.19065e-08
7.65738e-09
1.23724e-08
1.0358e-08
1.32762e-06
4.9313e-09
2.71857e-09
1.33539e-06
1.30096e-08
7.12184e-09
1.34286e-06
1.72172e-08
9.55521e-09
1.34847e-06
1.89023e-08
1.05809e-08
1.35196e-06
1.95063e-08
1.08802e-08
1.35374e-06
1.91231e-08
1.05886e-08
1.35439e-06
1.81132e-08
9.90499e-09
1.3545e-06
1.68311e-08
9.06753e-09
1.35443e-06
1.54944e-08
8.22929e-09
1.35431e-06
1.42828e-08
7.45647e-09
1.35418e-06
1.33323e-08
6.78795e-09
1.35405e-06
1.26134e-08
6.22057e-09
1.35393e-06
1.20931e-08
5.74615e-09
1.35377e-06
1.17577e-08
5.37015e-09
1.35347e-06
1.16132e-08
5.09855e-09
1.35292e-06
1.16885e-08
4.94727e-09
1.35199e-06
1.20241e-08
4.94103e-09
1.35059e-06
1.25905e-08
5.13708e-09
1.34853e-06
1.33239e-08
5.49566e-09
1.35094e-08
5.71553e-09
1.53312e-06
3.64964e-09
2.36633e-09
1.54218e-06
9.63484e-09
6.23961e-09
1.55327e-06
1.36936e-08
8.87476e-09
1.56445e-06
1.59401e-08
1.03496e-08
1.57506e-06
1.69174e-08
1.09036e-08
1.58469e-06
1.69543e-08
1.07608e-08
1.59297e-06
1.639e-08
1.01534e-08
1.60003e-06
1.54674e-08
9.34737e-09
1.60616e-06
1.43776e-08
8.4859e-09
1.61161e-06
1.33023e-08
7.68141e-09
1.61663e-06
1.23411e-08
6.98217e-09
1.62137e-06
1.15277e-08
6.39038e-09
1.62592e-06
1.08733e-08
5.88847e-09
1.63035e-06
1.03784e-08
5.46326e-09
1.63468e-06
1.00419e-08
5.10664e-09
1.63898e-06
9.86348e-09
4.81967e-09
1.64324e-06
9.85106e-09
4.60395e-09
1.64747e-06
9.98375e-09
4.4406e-09
1.65162e-06
1.01806e-08
4.30813e-09
1.01626e-08
4.12388e-09
1.68027e-06
1.89129e-09
1.89113e-09
1.68934e-06
5.10002e-09
5.09952e-09
1.70179e-06
7.46546e-09
7.46451e-09
1.71578e-06
8.94807e-09
8.94648e-09
1.73022e-06
9.69619e-09
9.69361e-09
1.74439e-06
9.86584e-09
9.8617e-09
1.75784e-06
9.6597e-09
9.65336e-09
1.77034e-06
9.21028e-09
9.20079e-09
1.78181e-06
8.62996e-09
8.61608e-09
1.79235e-06
8.01314e-09
7.99262e-09
1.80212e-06
7.426e-09
7.39468e-09
1.81127e-06
6.90303e-09
6.85356e-09
1.81994e-06
6.45822e-09
6.37822e-09
1.82826e-06
6.09431e-09
5.96553e-09
1.83632e-06
5.80724e-09
5.60743e-09
1.84425e-06
5.58566e-09
5.29682e-09
1.85213e-06
5.42099e-09
5.02605e-09
1.86005e-06
5.29792e-09
4.76699e-09
1.86803e-06
5.17526e-09
4.51011e-09
4.98881e-09
4.29349e-09
1.7569e-06
-2.60615e-14
1.61323e-09
1.76589e-06
-1.72293e-14
4.38411e-09
1.77878e-06
2.98875e-15
6.53173e-09
1.79389e-06
3.30507e-14
7.95091e-09
1.81003e-06
9.64397e-14
8.75536e-09
1.82639e-06
2.10932e-13
9.08506e-09
1.84241e-06
3.31436e-13
9.07111e-09
1.85774e-06
2.02786e-13
8.83441e-09
1.87218e-06
-2.73565e-13
8.45984e-09
1.88568e-06
-1.13135e-12
8.01326e-09
1.89827e-06
-2.13203e-12
7.54559e-09
1.91005e-06
-2.67665e-12
7.09338e-09
1.92115e-06
-1.70386e-12
6.68003e-09
1.93171e-06
1.13969e-12
6.318e-09
1.94188e-06
4.61314e-12
6.01204e-09
1.95176e-06
2.97997e-12
5.7641e-09
1.96147e-06
-7.94437e-12
5.56507e-09
1.97109e-06
-3.2282e-11
5.394e-09
1.98066e-06
-6.75521e-11
5.21693e-09
-1.08594e-10
5.07396e-09
1.7569e-06
-1.89114e-09
1.61335e-09
1.76589e-06
-5.09956e-09
4.38446e-09
1.77878e-06
-7.46458e-09
6.53241e-09
1.79389e-06
-8.9466e-09
7.95212e-09
1.81003e-06
-9.69377e-09
8.75734e-09
1.82639e-06
-9.86191e-09
9.08811e-09
1.8424e-06
-9.65363e-09
9.07557e-09
1.85773e-06
-9.20114e-09
8.84091e-09
1.87217e-06
-8.61651e-09
8.4695e-09
1.88565e-06
-7.99315e-09
8.02788e-09
1.89823e-06
-7.39533e-09
7.56804e-09
1.90999e-06
-6.85437e-09
7.12813e-09
1.92106e-06
-6.37921e-09
6.73402e-09
1.9316e-06
-5.96677e-09
6.40161e-09
1.94173e-06
-5.60895e-09
6.13988e-09
1.95156e-06
-5.29861e-09
5.95137e-09
1.9612e-06
-5.02815e-09
5.8272e-09
1.97072e-06
-4.76938e-09
5.74612e-09
1.98018e-06
-4.51269e-09
5.65886e-09
-4.29597e-09
5.54651e-09
1.68027e-06
-3.64929e-09
1.89128e-09
1.68934e-06
-9.63382e-09
5.09999e-09
1.70179e-06
-1.36917e-08
7.46541e-09
1.71578e-06
-1.59364e-08
8.94799e-09
1.73022e-06
-1.69113e-08
9.69609e-09
1.74439e-06
-1.69446e-08
9.86571e-09
1.75784e-06
-1.63753e-08
9.65952e-09
1.77034e-06
-1.54438e-08
9.21006e-09
1.78181e-06
-1.43411e-08
8.62969e-09
1.79235e-06
-1.32454e-08
8.01281e-09
1.80212e-06
-1.225e-08
7.4256e-09
1.81127e-06
-1.13808e-08
6.90255e-09
1.81994e-06
-1.06349e-08
6.45765e-09
1.82826e-06
-9.99504e-09
6.09366e-09
1.83632e-06
-9.44119e-09
5.80646e-09
1.84425e-06
-8.94637e-09
5.58467e-09
1.85213e-06
-8.48005e-09
5.4197e-09
1.86005e-06
-8.00003e-09
5.29623e-09
1.86803e-06
-7.48938e-09
5.17292e-09
-7.09908e-09
4.98552e-09
1.53312e-06
-4.93108e-09
2.36623e-09
1.54218e-06
-1.30089e-08
6.23939e-09
1.55328e-06
-1.72156e-08
8.87435e-09
1.56445e-06
-1.88985e-08
1.03488e-08
1.57507e-06
-1.94994e-08
1.09026e-08
1.58471e-06
-1.91124e-08
1.07593e-08
1.59301e-06
-1.80965e-08
1.01506e-08
1.60008e-06
-1.68047e-08
9.34246e-09
1.60624e-06
-1.54537e-08
8.47739e-09
1.61174e-06
-1.42162e-08
7.66492e-09
1.61684e-06
-1.3217e-08
6.9516e-09
1.6217e-06
-1.242e-08
6.33914e-09
1.62644e-06
-1.17772e-08
5.811e-09
1.63116e-06
-1.12464e-08
5.34952e-09
1.63592e-06
-1.07839e-08
4.9299e-09
1.6408e-06
-1.03416e-08
4.54054e-09
1.64584e-06
-9.87285e-09
4.15659e-09
1.65115e-06
-9.34861e-09
3.75041e-09
1.6568e-06
-8.80956e-09
3.26054e-09
-8.56827e-09
2.63453e-09
1.32763e-06
-5.56888e-09
2.71834e-09
1.33539e-06
-1.39002e-08
7.12119e-09
1.34287e-06
-1.62614e-08
9.55403e-09
1.34848e-06
-1.59077e-08
1.05787e-08
1.35198e-06
-1.49994e-08
1.08758e-08
1.35377e-06
-1.3929e-08
1.05811e-08
1.35444e-06
-1.29707e-08
9.89213e-09
1.35459e-06
-1.21046e-08
9.04598e-09
1.35458e-06
-1.13286e-08
8.19259e-09
1.35455e-06
-1.06644e-08
7.38835e-09
1.35459e-06
-1.01522e-08
6.66653e-09
1.35474e-06
-9.76009e-09
6.0195e-09
1.35506e-06
-9.45244e-09
5.43781e-09
1.35555e-06
-9.204e-09
4.89582e-09
1.35625e-06
-8.97396e-09
4.33281e-09
1.35717e-06
-8.70865e-09
3.70785e-09
1.3583e-06
-8.33545e-09
2.96346e-09
1.35955e-06
-7.78942e-09
2.03795e-09
1.36071e-06
-7.10342e-09
8.60358e-10
-6.69897e-09
-4.98542e-10
1.07432e-06
1.06485e-09
1.06824e-06
5.58675e-09
1.06138e-06
8.46437e-09
1.05339e-06
9.04032e-09
1.04511e-06
8.61817e-09
1.03723e-06
8.12034e-09
1.02986e-06
7.78541e-09
1.02288e-06
7.55131e-09
1.01608e-06
7.36203e-09
1.00939e-06
7.07196e-09
1.00286e-06
6.62373e-09
9.96475e-07
6.11214e-09
9.90235e-07
5.59415e-09
9.84139e-07
5.06022e-09
9.78204e-07
4.49151e-09
9.72466e-07
3.81455e-09
9.6698e-07
2.91509e-09
9.61755e-07
1.66219e-09
9.56728e-07
-2.38581e-11
-2.08534e-09
1.16914e-06
4.90658e-09
9.07894e-14
1.16312e-06
1.16086e-08
4.69457e-13
1.15731e-06
1.42754e-08
1.15311e-12
1.15202e-06
1.43335e-08
2.08635e-12
1.14691e-06
1.37301e-08
3.62059e-12
1.14206e-06
1.29691e-08
6.41175e-12
1.13775e-06
1.21002e-08
1.14831e-11
1.13401e-06
1.13075e-08
1.98263e-11
1.13074e-06
1.06496e-08
3.39196e-11
1.12766e-06
1.019e-08
5.71233e-11
1.12444e-06
9.89633e-09
9.51511e-11
1.12095e-06
9.69342e-09
1.5723e-10
1.1171e-06
9.58329e-09
2.59007e-10
1.11282e-06
9.58129e-09
4.25258e-10
1.10804e-06
9.69589e-09
6.80484e-10
1.10267e-06
9.9297e-09
1.07948e-09
1.09661e-06
1.02916e-08
1.69923e-09
1.08976e-06
1.07939e-08
2.67126e-09
1.08223e-06
1.13292e-08
3.86254e-09
1.14573e-08
6.00635e-09
1.41518e-06
4.19299e-09
1.94877e-13
1.42279e-06
1.11163e-08
5.7058e-13
1.43152e-06
1.50991e-08
9.7611e-13
1.4398e-06
1.66303e-08
1.83971e-12
1.44713e-06
1.7277e-08
3.51283e-12
1.45317e-06
1.75121e-08
6.26167e-12
1.45801e-06
1.71567e-08
1.04134e-11
1.46193e-06
1.64423e-08
1.71443e-11
1.46522e-06
1.55568e-08
2.90118e-11
1.46814e-06
1.46783e-08
5.08688e-11
1.47086e-06
1.38725e-08
8.80426e-11
1.47344e-06
1.31852e-08
1.47307e-10
1.47584e-06
1.26963e-08
2.35457e-10
1.478e-06
1.24226e-08
3.69959e-10
1.47989e-06
1.23186e-08
5.80295e-10
1.48152e-06
1.23477e-08
8.99867e-10
1.48285e-06
1.25367e-08
1.36978e-09
1.48381e-06
1.2925e-08
2.03994e-09
1.48428e-06
1.34323e-08
2.92337e-09
1.36857e-08
3.838e-09
1.61424e-06
3.09295e-09
1.38156e-13
1.62332e-06
8.27438e-09
3.29396e-13
1.63533e-06
1.19578e-08
5.80397e-13
1.6482e-06
1.41158e-08