/*--------------------------------*- C++ -*----------------------------------*\
| =========                 |                                                 |
| \\      /  F ield         | OpenFOAM: The Open Source CFD Toolbox           |
|  \\    /   O peration     | Version:  2212                                  |
|   \\  /    A nd           | Website:  www.openfoam.com                      |
|    \\/     M anipulation  |                                                 |
\*---------------------------------------------------------------------------*/
FoamFile
{
    version     2.0;
    format      ascii;
    arch        "LSB;label=32;scalar=64";
    class       volVectorField;
    location    "1.35";
    object      U;
}
// * * * * * * * * * * * * * * * * * * * * * * * * * * * * * * * * * * * * * //

dimensions      [0 1 -1 0 0 0 0];

internalField   nonuniform List<vector> 
6840
(
(0.0956456 -0.00836005 -0.00836005)
(0.0904939 0.00152207 0.00152199)
(0.0790682 0.00242983 0.00242969)
(0.0713011 0.0014879 0.00148759)
(0.0661792 0.000830762 0.000830159)
(0.0623222 0.000564146 0.000563159)
(0.0592201 0.000427342 0.000425107)
(0.0566838 0.000325702 0.000321803)
(0.0545479 0.000255973 0.000249556)
(0.0526944 0.00020747 0.000196895)
(0.0510543 0.000174648 0.000156564)
(0.0495897 0.00015411 0.000123855)
(0.0482682 0.000142261 9.38069e-05)
(0.0470613 0.000138298 6.275e-05)
(0.0459538 0.000142902 2.50663e-05)
(0.0449484 0.000161368 -1.75819e-07)
(0.0440603 0.000211497 -7.49827e-05)
(0.0433294 0.000286787 -0.000218383)
(0.0430308 0.000393234 -0.000491101)
(0.0416235 -0.000576159 -0.00215096)
(0.0999088 0.001297 0.000712547)
(0.0969668 0.00365598 0.0027472)
(0.0935345 0.00264035 0.00211802)
(0.0895891 0.0018207 0.00162039)
(0.0858318 0.00152934 0.00139026)
(0.0825896 0.00135216 0.00116054)
(0.0798644 0.00118091 0.00089609)
(0.0775657 0.00104324 0.00069052)
(0.0755557 0.000947477 0.000557796)
(0.0737477 0.00087373 0.000475278)
(0.0720961 0.000806969 0.000423994)
(0.0705722 0.000743003 0.000390254)
(0.0691571 0.000688636 0.000367041)
(0.0678362 0.000649892 0.000353498)
(0.0665981 0.000628563 0.000342932)
(0.0654516 0.00061827 0.000299924)
(0.0644448 0.000616564 0.000219481)
(0.06368 0.000580199 2.04712e-05)
(0.0634824 0.000628625 -0.000190823)
(0.0615323 0.000344132 -0.000681234)
(0.099413 0.00034525 0.000270227)
(0.0988664 0.00201914 0.00187484)
(0.0979216 0.00257333 0.00218883)
(0.0963661 0.00238023 0.00190809)
(0.0946339 0.00211472 0.0016262)
(0.0929733 0.00192778 0.00141787)
(0.0913661 0.00180314 0.00126992)
(0.0898574 0.00170824 0.00115789)
(0.0884607 0.00160955 0.00106646)
(0.0871684 0.00150217 0.000992704)
(0.0859745 0.00139663 0.000941535)
(0.0848661 0.0013004 0.000908825)
(0.0838277 0.00121395 0.000888621)
(0.082851 0.00113397 0.000874758)
(0.0819369 0.00105652 0.000860538)
(0.0810985 0.000974908 0.000834112)
(0.0803705 0.000872092 0.000780331)
(0.0798003 0.00071512 0.00066599)
(0.079436 0.000453773 0.000481729)
(0.0787707 -0.000361296 0.000112413)
(0.0995405 0.000245041 0.000321898)
(0.0992576 0.00105561 0.00154092)
(0.0988491 0.00150234 0.00211437)
(0.0981252 0.00157941 0.00209148)
(0.0973378 0.00151469 0.00188589)
(0.0965867 0.00144607 0.00166549)
(0.0958685 0.00140942 0.00149746)
(0.0952029 0.00137773 0.00137068)
(0.0945779 0.00133092 0.00128329)
(0.0939386 0.00125825 0.00122648)
(0.0933197 0.00116613 0.00118724)
(0.0927211 0.00106627 0.00116112)
(0.092137 0.000966742 0.00114478)
(0.0915651 0.000868261 0.0011356)
(0.0910067 0.000767635 0.00112732)
(0.0904642 0.000651602 0.00111337)
(0.0899402 0.000500709 0.00108513)
(0.089439 0.000285947 0.00103728)
(0.0889735 -2.03237e-05 0.000976324)
(0.0885336 -0.00043383 0.000993676)
(0.0993802 3.37625e-05 5.8961e-05)
(0.0992678 0.000274317 0.00120002)
(0.0989806 0.000432202 0.00188843)
(0.098475 0.000483141 0.0020063)
(0.0979963 0.000478246 0.00191434)
(0.0975724 0.000464388 0.00173417)
(0.0971837 0.000450734 0.00154641)
(0.0968357 0.000438603 0.00138715)
(0.0965383 0.000429744 0.00126767)
(0.0962882 0.00041746 0.00119558)
(0.0960212 0.000393115 0.00116603)
(0.0957391 0.000357731 0.00116058)
(0.0954429 0.000314176 0.00116424)
(0.0951247 0.000261723 0.00117188)
(0.09478 0.000200939 0.00118552)
(0.094409 0.000125001 0.00120536)
(0.0940111 1.96525e-05 0.00122878)
(0.0935869 -0.00012996 0.00125619)
(0.0931149 -0.000324106 0.00128952)
(0.0925908 -0.000589246 0.00137227)
(0.0993802 -3.37905e-05 5.90059e-05)
(0.0992678 -0.000274459 0.00120005)
(0.0989805 -0.000432512 0.00188844)
(0.0984748 -0.000483689 0.00200636)
(0.0979959 -0.000479206 0.00191449)
(0.0975716 -0.000466116 0.0017345)
(0.0971822 -0.000453864 0.0015469)
(0.096833 -0.000444035 0.00138799)
(0.0965338 -0.000439026 0.00126929)
(0.0962805 -0.000433101 0.00119852)
(0.0960082 -0.000419172 0.00117103)
(0.095717 -0.000400648 0.00116887)
(0.0954056 -0.000384567 0.00117811)
(0.0950619 -0.000377193 0.00119506)
(0.0946772 -0.00038623 0.00122366)
(0.0942465 -0.000420854 0.00126894)
(0.0937627 -0.000489615 0.00133162)
(0.0932248 -0.000617091 0.00141048)
(0.0925798 -0.000775772 0.00150151)
(0.0917812 -0.00115623 0.00152512)
(0.0995405 -0.000245051 0.000321898)
(0.0992576 -0.00105566 0.00154092)
(0.0988489 -0.00150243 0.00211447)
(0.0981247 -0.00157958 0.00209165)
(0.0973367 -0.00151513 0.00188617)
(0.0965846 -0.00144701 0.00166591)
(0.0958647 -0.00141115 0.00149795)
(0.0951965 -0.00138064 0.00137151)
(0.0945666 -0.00133618 0.00128517)
(0.0939193 -0.00126679 0.00123081)
(0.0932868 -0.00117954 0.00119586)
(0.0926655 -0.00108769 0.00117695)
(0.0920441 -0.00100295 0.00117082)
(0.0914115 -0.000931413 0.00117717)
(0.090755 -0.000876323 0.00119784)
(0.0900577 -0.000841062 0.00123736)
(0.0892942 -0.000833357 0.00130561)
(0.0884349 -0.000868009 0.00141632)
(0.0874113 -0.000956935 0.0015689)
(0.086203 -0.00133071 0.00164733)
(0.099413 -0.000345235 0.000270233)
(0.0988664 -0.00201907 0.00187491)
(0.0979214 -0.00257318 0.00218904)
(0.0963656 -0.00237994 0.00190845)
(0.0946329 -0.00211427 0.00162672)
(0.0929713 -0.00192706 0.00141861)
(0.0913624 -0.00180209 0.00127113)
(0.0898509 -0.00170654 0.00115994)
(0.0884493 -0.00160672 0.00106976)
(0.0871491 -0.0014975 0.000998127)
(0.0859416 -0.00138892 0.000950044)
(0.0848098 -0.00128811 0.000923626)
(0.0837323 -0.00119547 0.000914441)
(0.0826896 -0.00110818 0.000919094)
(0.0816632 -0.00102386 0.000937446)
(0.0806293 -0.00094163 0.000975109)
(0.0795517 -0.000859007 0.00104375)
(0.0783472 -0.000779368 0.0011627)
(0.0769513 -0.000730201 0.00131279)
(0.0754797 -0.000873778 0.00177713)
(0.0999088 -0.00129699 0.000712563)
(0.0969668 -0.00365586 0.00274728)
(0.0935344 -0.00264018 0.0021182)
(0.0895889 -0.00182039 0.00162073)
(0.0858314 -0.00152864 0.00139076)
(0.0825888 -0.00135107 0.00116145)
(0.0798631 -0.00117892 0.000897595)
(0.0775632 -0.00103982 0.000692963)
(0.0755511 -0.00094156 0.000561904)
(0.0737397 -0.00086341 0.000482273)
(0.0720813 -0.000788955 0.000437654)
(0.0705448 -0.000712742 0.000414261)
(0.0691076 -0.000639664 0.000403337)
(0.0677498 -0.000570773 0.000400311)
(0.0664507 -0.00049643 0.000406861)
(0.0651944 -0.000382881 0.000423387)
(0.063966 -0.000235702 0.000464315)
(0.0627198 -3.35367e-05 0.000541279)
(0.0613968 0.000324646 0.000627597)
(0.0601179 0.000951419 0.00117034)
(0.0956456 0.00836005 -0.00836005)
(0.0904939 -0.00152199 0.00152206)
(0.0790682 -0.00242969 0.00242983)
(0.0713011 -0.0014876 0.00148789)
(0.0661792 -0.000830171 0.000830752)
(0.0623222 -0.000563175 0.000564131)
(0.0592201 -0.000425133 0.000427318)
(0.0566838 -0.000321836 0.000325671)
(0.0545479 -0.000249596 0.000255935)
(0.0526943 -0.000196942 0.000207422)
(0.0510543 -0.000156623 0.000174589)
(0.0495897 -0.000123927 0.000154037)
(0.0482682 -9.38765e-05 0.000142155)
(0.0470612 -6.28557e-05 0.000138191)
(0.0459538 -2.51715e-05 0.000142786)
(0.0449484 8.90674e-08 0.000161207)
(0.0440603 7.48032e-05 0.000211297)
(0.0433294 0.000218153 0.000286559)
(0.0430306 0.000490837 0.000392998)
(0.0416233 0.00215057 -0.000576484)
(0.0999088 0.000712564 0.00129699)
(0.0969668 0.00274728 0.00365586)
(0.0935344 0.0021182 0.00264017)
(0.0895889 0.00162074 0.00182038)
(0.0858314 0.00139077 0.00152862)
(0.0825888 0.00116146 0.00135105)
(0.0798631 0.000897607 0.00117889)
(0.0775632 0.000692979 0.00103978)
(0.0755511 0.000561926 0.000941517)
(0.0737397 0.000482301 0.000863354)
(0.0720813 0.000437693 0.000788885)
(0.0705448 0.000414314 0.000712656)
(0.0691075 0.000403399 0.000639572)
(0.0677498 0.0004004 0.000570678)
(0.0664505 0.000406967 0.000496273)
(0.0651942 0.000423504 0.000382654)
(0.0639659 0.000464456 0.000235424)
(0.0627197 0.000541444 3.31672e-05)
(0.0613968 0.000627794 -0.000325123)
(0.060118 0.00117067 -0.000952238)
(0.100226 0.000720832 0.000720805)
(0.09996 0.00198281 0.00198269)
(0.0997822 0.00245206 0.00245176)
(0.0987879 0.00242001 0.00241948)
(0.0972751 0.00220141 0.00220057)
(0.0957741 0.0018124 0.00181089)
(0.0943915 0.00138384 0.00138138)
(0.0931617 0.00107261 0.00106845)
(0.0920732 0.000858246 0.000851047)
(0.0911085 0.000709035 0.000696465)
(0.0902519 0.000602623 0.000579686)
(0.0894794 0.000526372 0.00048815)
(0.0887705 0.0004759 0.00041591)
(0.0881193 0.000445022 0.000353608)
(0.0875257 0.000431432 0.000286546)
(0.0869844 0.000439668 0.000190901)
(0.0864864 0.00047528 5.34465e-05)
(0.086016 0.000542937 -0.000165329)
(0.0855386 0.000555348 -0.000587601)
(0.0853534 0.000328219 -0.0014798)
(0.10014 0.000775045 0.000869234)
(0.100454 0.0019625 0.0019635)
(0.100911 0.00242771 0.00233434)
(0.100978 0.00252693 0.00244097)
(0.100694 0.00242681 0.00233629)
(0.100224 0.00219841 0.0021118)
(0.099709 0.00191818 0.00182219)
(0.0991839 0.00166815 0.00157367)
(0.0986895 0.00146675 0.00138671)
(0.0982431 0.00130281 0.00124498)
(0.0978515 0.00116916 0.00113847)
(0.0975118 0.00106165 0.00105896)
(0.0972207 0.000975918 0.000995874)
(0.0969754 0.000907809 0.00093948)
(0.0967762 0.0008543 0.000882361)
(0.0966235 0.000809681 0.000814071)
(0.0965174 0.000767487 0.000714823)
(0.096458 0.000723559 0.000566478)
(0.0964102 0.000652732 0.000353126)
(0.0964671 0.000460137 0.000111496)
(0.100093 0.000445943 0.000763196)
(0.100504 0.00119454 0.00174901)
(0.101105 0.0015869 0.00212949)
(0.101635 0.00174056 0.00223447)
(0.10198 0.00178249 0.00228662)
(0.102172 0.00172941 0.00223525)
(0.102254 0.00160869 0.0021149)
(0.102279 0.00146125 0.00196311)
(0.102282 0.00130668 0.00179999)
(0.102277 0.00115879 0.00164937)
(0.102275 0.0010318 0.00153823)
(0.102281 0.000924137 0.00145775)
(0.102299 0.00083025 0.00139756)
(0.102329 0.000745328 0.00135087)
(0.102373 0.00066071 0.00131179)
(0.102434 0.000572423 0.00127343)
(0.102511 0.00047223 0.00122844)
(0.102603 0.000349242 0.00117108)
(0.102695 0.000189547 0.00110939)
(0.102883 -1.10447e-05 0.00108585)
(0.100087 0.000144376 0.000707013)
(0.100477 0.000390462 0.00161777)
(0.101066 0.000541058 0.00203463)
(0.101695 0.000610041 0.00211754)
(0.102269 0.000635766 0.00214985)
(0.102743 0.000626327 0.00217918)
(0.103125 0.000593974 0.00213321)
(0.10343 0.000547902 0.002043)
(0.103684 0.00050141 0.00193322)
(0.103904 0.000456575 0.00182664)
(0.104104 0.000409753 0.00172733)
(0.104297 0.000361154 0.001639)
(0.104485 0.000313351 0.00157596)
(0.104664 0.000264097 0.00154034)
(0.104834 0.000206909 0.00152323)
(0.104997 0.000137315 0.00151481)
(0.105152 4.99289e-05 0.00151332)
(0.105296 -6.16251e-05 0.00152066)
(0.105428 -0.000203708 0.00153849)
(0.105666 -0.000356983 0.0015722)
(0.100087 -0.000144425 0.000707018)
(0.100477 -0.00039061 0.00161778)
(0.101066 -0.000541316 0.00203463)
(0.101694 -0.000610502 0.00211761)
(0.102269 -0.000636642 0.00215013)
(0.102742 -0.000627896 0.00217971)
(0.103124 -0.00059657 0.00213404)
(0.103428 -0.000552185 0.00204431)
(0.10368 -0.000508747 0.00193518)
(0.103898 -0.000469524 0.00182981)
(0.104094 -0.000432193 0.0017326)
(0.104282 -0.000398509 0.00164824)
(0.10446 -0.00037254 0.00159216)
(0.104622 -0.000356376 0.00156741)
(0.104764 -0.000351695 0.00156587)
(0.104889 -0.000363766 0.00158021)
(0.104995 -0.000397598 0.00161365)
(0.105077 -0.000458963 0.00167273)
(0.105141 -0.00054625 0.00174384)
(0.105337 -0.000636743 0.00175966)
(0.100093 -0.000445947 0.000763206)
(0.100504 -0.00119455 0.00174904)
(0.101105 -0.00158693 0.00212963)
(0.101634 -0.00174065 0.00223495)
(0.101979 -0.00178267 0.00228756)
(0.102171 -0.00172971 0.00223662)
(0.102251 -0.00160931 0.00211697)
(0.102274 -0.00146238 0.00196627)
(0.102274 -0.00130847 0.00180472)
(0.102264 -0.00116249 0.00165694)
(0.102252 -0.00103844 0.00155147)
(0.102242 -0.00093474 0.00148025)
(0.102233 -0.000845258 0.00143518)
(0.102223 -0.000768709 0.00141321)
(0.102207 -0.000703142 0.00141466)
(0.102178 -0.000646351 0.00144355)
(0.102122 -0.000600324 0.00150695)
(0.102036 -0.000574322 0.00160213)
(0.101922 -0.000562019 0.00172346)
(0.102026 -0.000538451 0.00172939)
(0.10014 -0.000775015 0.000869273)
(0.100454 -0.00196241 0.00196368)
(0.100911 -0.00242754 0.00233476)
(0.100978 -0.00252656 0.00244167)
(0.100693 -0.00242617 0.00233732)
(0.100223 -0.00219729 0.00211317)
(0.0997068 -0.00191643 0.00182433)
(0.09918 -0.00166556 0.00157749)
(0.0986827 -0.0014623 0.00139329)
(0.0982309 -0.00129488 0.001256)
(0.0978303 -0.00115605 0.00115703)
(0.0974757 -0.00103966 0.00108981)
(0.0971613 -0.000939606 0.0010471)
(0.09688 -0.000847596 0.00102385)
(0.0966228 -0.000756814 0.00102085)
(0.0963755 -0.000662381 0.00104563)
(0.0961207 -0.000555465 0.00110597)
(0.0958342 -0.000423789 0.00121129)
(0.095479 -0.000237705 0.00132663)
(0.0954243 -1.2965e-05 0.00133696)
(0.100226 -0.000720806 0.000720832)
(0.09996 -0.00198269 0.00198281)
(0.0997822 -0.00245176 0.00245206)
(0.0987879 -0.00241949 0.00242001)
(0.0972751 -0.00220059 0.0022014)
(0.0957741 -0.00181092 0.00181238)
(0.0943915 -0.00138141 0.00138382)
(0.0931617 -0.00106848 0.00107259)
(0.0920731 -0.000851092 0.00085821)
(0.0911085 -0.000696522 0.000708988)
(0.0902519 -0.000579762 0.00060256)
(0.0894794 -0.000488237 0.000526286)
(0.0887705 -0.000415947 0.000475731)
(0.0881193 -0.000353739 0.000444909)
(0.0875256 -0.000286822 0.000431366)
(0.0869842 -0.000191154 0.000439485)
(0.0864862 -5.37489e-05 0.000475055)
(0.0860156 0.000164896 0.000542713)
(0.0855381 0.000586958 0.000555182)
(0.0853527 0.00147898 0.000328004)
(0.0999088 -0.000712547 0.001297)
(0.0969668 -0.0027472 0.00365597)
(0.0935345 -0.00211802 0.00264035)
(0.0895891 -0.00162039 0.00182069)
(0.0858318 -0.00139027 0.00152932)
(0.0825896 -0.00116055 0.00135214)
(0.0798644 -0.000896108 0.00118088)
(0.0775657 -0.000690542 0.0010432)
(0.0755557 -0.000557823 0.000947433)
(0.0737477 -0.000475313 0.000873674)
(0.0720961 -0.000424042 0.0008069)
(0.0705721 -0.000390312 0.000742915)
(0.069157 -0.000367107 0.000688519)
(0.067836 -0.000353527 0.000649712)
(0.066598 -0.00034299 0.000628335)
(0.0654516 -0.000300054 0.000618019)
(0.0644447 -0.000219641 0.000616293)
(0.0636798 -2.06907e-05 0.00057987)
(0.063482 0.000190599 0.000628151)
(0.061532 0.000680567 0.00034398)
(0.099413 0.000270233 0.000345234)
(0.0988664 0.00187491 0.00201906)
(0.0979213 0.00218905 0.00257317)
(0.0963656 0.00190845 0.00237993)
(0.0946329 0.00162673 0.00211426)
(0.0929713 0.00141862 0.00192704)
(0.0913624 0.00127114 0.00180206)
(0.0898509 0.00115995 0.00170651)
(0.0884493 0.00106978 0.00160668)
(0.0871491 0.000998158 0.00149745)
(0.0859415 0.000950082 0.00138885)
(0.0848098 0.000923676 0.00128803)
(0.0837323 0.000914497 0.00119536)
(0.0826895 0.000919191 0.00110806)
(0.0816631 0.000937593 0.00102376)
(0.0806292 0.000975266 0.000941492)
(0.0795515 0.00104392 0.000858812)
(0.078347 0.00116287 0.000779103)
(0.0769511 0.00131294 0.000729828)
(0.0754795 0.00177736 0.000873217)
(0.10014 0.000869273 0.000775014)
(0.100454 0.00196368 0.0019624)
(0.100911 0.00233477 0.00242753)
(0.100978 0.00244168 0.00252655)
(0.100693 0.00233733 0.00242616)
(0.100223 0.00211318 0.00219727)
(0.0997068 0.00182435 0.0019164)
(0.09918 0.00157752 0.00166552)
(0.0986827 0.00139332 0.00146225)
(0.0982309 0.00125604 0.00129482)
(0.0978303 0.00115709 0.00115598)
(0.0974757 0.00108989 0.00103958)
(0.0971613 0.00104721 0.000939513)
(0.09688 0.00102394 0.000847425)
(0.0966228 0.00102094 0.000756582)
(0.0963756 0.00104579 0.000662139)
(0.0961207 0.00110617 0.00055517)
(0.0958343 0.00121144 0.000423351)
(0.0954791 0.00132666 0.000237048)
(0.0954245 0.00133678 1.19867e-05)
(0.10006 0.000641444 0.00064139)
(0.100501 0.00164521 0.00164503)
(0.101149 0.00221274 0.00221239)
(0.101738 0.00244056 0.00243996)
(0.102204 0.00244281 0.00244184)
(0.102501 0.0023148 0.00231329)
(0.102644 0.00209465 0.00209213)
(0.102713 0.00187241 0.00186838)
(0.102738 0.00167657 0.00166996)
(0.10275 0.00151372 0.00150284)
(0.102768 0.0013809 0.00136307)
(0.102799 0.00127482 0.00124581)
(0.102848 0.00119298 0.00114602)
(0.102917 0.00113338 0.0010576)
(0.103006 0.00109545 0.000974008)
(0.103112 0.00108065 0.000887669)
(0.103234 0.00109208 0.000789626)
(0.103369 0.00112895 0.000674459)
(0.10352 0.0011723 0.000530904)
(0.103818 0.0011688 0.000393224)
(0.100046 0.000395751 0.000540234)
(0.10048 0.00104497 0.00138407)
(0.101154 0.00147555 0.0019229)
(0.101913 0.00170556 0.00219242)
(0.102632 0.00178061 0.00229379)
(0.103302 0.00174568 0.00227778)
(0.103894 0.00163556 0.00218485)
(0.104391 0.00149368 0.00205127)
(0.104818 0.00134844 0.00190305)
(0.105197 0.00121497 0.00176271)
(0.105541 0.00109832 0.0016386)
(0.105864 0.000999168 0.00153204)
(0.106176 0.000915411 0.00144189)
(0.106483 0.000844633 0.00136515)
(0.106792 0.000784254 0.0012985)
(0.107106 0.000733825 0.0012369)
(0.10743 0.000690675 0.00117597)
(0.107767 0.000651227 0.00111311)
(0.108125 0.000605248 0.00104981)
(0.108546 0.000534228 0.00101655)
(0.100039 0.000131332 0.000478764)
(0.100448 0.000350497 0.00123476)
(0.101114 0.00050508 0.00174644)
(0.101909 0.000597194 0.00202672)
(0.102729 0.000638578 0.0021519)
(0.10353 0.000638235 0.00218607)
(0.104299 0.000604463 0.00215268)
(0.105009 0.000559131 0.00207848)
(0.105645 0.000509848 0.00197944)
(0.106219 0.000461347 0.0018716)
(0.106743 0.000416245 0.00176659)
(0.107227 0.000375102 0.0016718)
(0.10768 0.000337375 0.00159255)
(0.108114 0.000301519 0.00153083)
(0.108536 0.000264611 0.00148447)
(0.108951 0.000225614 0.00145189)
(0.109359 0.000181808 0.0014303)
(0.109765 0.000129982 0.00141914)
(0.110177 6.63016e-05 0.00141548)
(0.110643 -3.33623e-06 0.00142195)
(0.100039 -0.000131366 0.000478781)
(0.100448 -0.000350585 0.00123482)
(0.101114 -0.000505238 0.00174655)
(0.101909 -0.000597457 0.00202692)
(0.102728 -0.000639031 0.00215228)
(0.103529 -0.000638978 0.00218671)
(0.104297 -0.000605737 0.00215365)
(0.105007 -0.000561216 0.00207995)
(0.105642 -0.000513336 0.00198169)
(0.106215 -0.000467277 0.00187521)
(0.106736 -0.000426168 0.00177259)
(0.107217 -0.000391102 0.00168192)
(0.107665 -0.000362127 0.00160948)
(0.108091 -0.000339157 0.0015584)
(0.108504 -0.000322322 0.00152776)
(0.108902 -0.000313794 0.00151573)
(0.109286 -0.000315794 0.00152278)
(0.109662 -0.000326926 0.00154975)
(0.110042 -0.000344777 0.00158614)
(0.110497 -0.000361236 0.00160688)
(0.100046 -0.000395735 0.00054028)
(0.10048 -0.00104491 0.00138421)
(0.101154 -0.00147546 0.00192319)
(0.101913 -0.00170544 0.00219295)
(0.102631 -0.00178038 0.00229469)
(0.103301 -0.00174527 0.00227925)
(0.103893 -0.00163486 0.00218716)
(0.104388 -0.00149257 0.00205504)
(0.104814 -0.00134663 0.00190889)
(0.10519 -0.00121238 0.00177185)
(0.10553 -0.00109457 0.00165341)
(0.105847 -0.000993357 0.00155616)
(0.106149 -0.000905545 0.0014815)
(0.106442 -0.000828149 0.00142959)
(0.106728 -0.000759403 0.00140082)
(0.107008 -0.00069824 0.00139701)
(0.107287 -0.00064168 0.0014213)
(0.107566 -0.000584899 0.00146853)
(0.107855 -0.000526211 0.00152562)
(0.108257 -0.000463661 0.00154883)
(0.10006 -0.000641391 0.000641443)
(0.100501 -0.00164504 0.00164521)
(0.101149 -0.0022124 0.00221273)
(0.101738 -0.00243997 0.00244055)
(0.102204 -0.00244186 0.0024428)
(0.102501 -0.00231331 0.00231478)
(0.102644 -0.00209216 0.00209462)
(0.102713 -0.00186842 0.00187238)
(0.102738 -0.00167001 0.00167653)
(0.10275 -0.0015029 0.00151368)
(0.102768 -0.00136315 0.00138085)
(0.102799 -0.00124591 0.00127474)
(0.102848 -0.00114614 0.00119288)
(0.102917 -0.00105777 0.00113329)
(0.103006 -0.000974236 0.00109535)
(0.103112 -0.000887947 0.00108053)
(0.103234 -0.000789978 0.00109195)
(0.103369 -0.000674915 0.00112882)
(0.10352 -0.000531451 0.00117216)
(0.103818 -0.000393757 0.00116858)
(0.10014 -0.000869235 0.000775044)
(0.100454 -0.0019635 0.00196249)
(0.100911 -0.00233435 0.00242771)
(0.100978 -0.00244098 0.00252692)
(0.100694 -0.00233631 0.0024268)
(0.100224 -0.00211182 0.00219839)
(0.099709 -0.00182222 0.00191816)
(0.0991839 -0.00157371 0.00166812)
(0.0986895 -0.00138675 0.00146672)
(0.098243 -0.00124504 0.00130277)
(0.0978514 -0.00113855 0.0011691)
(0.0975118 -0.00105905 0.00106157)
(0.0972206 -0.000995981 0.000975815)
(0.0969753 -0.000939627 0.000907691)
(0.0967761 -0.000882554 0.000854175)
(0.0966233 -0.000814319 0.000809541)
(0.0965171 -0.000715159 0.000767345)
(0.0964576 -0.000566927 0.000723422)
(0.0964097 -0.000353567 0.000652493)
(0.0964666 -0.000111349 0.000459326)
(0.099413 -0.000270227 0.000345249)
(0.0988664 -0.00187485 0.00201914)
(0.0979216 -0.00218883 0.00257332)
(0.0963661 -0.00190809 0.00238022)
(0.0946339 -0.00162621 0.0021147)
(0.0929733 -0.00141788 0.00192776)
(0.0913661 -0.00126994 0.00180311)
(0.0898574 -0.00115791 0.0017082)
(0.0884607 -0.00106649 0.0016095)
(0.0871684 -0.000992742 0.00150211)
(0.0859744 -0.000941582 0.00139656)
(0.084866 -0.000908885 0.00130032)
(0.0838276 -0.000888705 0.00121387)
(0.0828509 -0.000874828 0.00113383)
(0.0819367 -0.000860592 0.00105632)
(0.0810982 -0.000834212 0.000974698)
(0.0803702 -0.00078049 0.00087189)
(0.0797997 -0.00066624 0.000714909)
(0.0794352 -0.000482102 0.000453574)
(0.0787695 -0.000113098 -0.000361061)
(0.0995405 0.000321898 0.00024505)
(0.0992576 0.00154092 0.00105566)
(0.0988489 0.00211447 0.00150243)
(0.0981247 0.00209166 0.00157957)
(0.0973367 0.00188618 0.00151512)
(0.0965846 0.00166592 0.00144699)
(0.0958647 0.00149796 0.00141112)
(0.0951965 0.00137152 0.0013806)
(0.0945666 0.00128518 0.00133613)
(0.0939192 0.00123083 0.00126674)
(0.0932868 0.00119588 0.00117946)
(0.0926655 0.00117698 0.0010876)
(0.092044 0.00117087 0.00100284)
(0.0914114 0.00117723 0.000931299)
(0.0907549 0.00119792 0.000876196)
(0.0900576 0.00123745 0.00084089)
(0.089294 0.00130569 0.000833133)
(0.0884347 0.00141641 0.000867753)
(0.087411 0.00156896 0.000956606)
(0.0862027 0.0016472 0.00133014)
(0.100093 0.000763207 0.000445946)
(0.100504 0.00174904 0.00119455)
(0.101105 0.00212963 0.00158692)
(0.101634 0.00223495 0.00174064)
(0.101979 0.00228757 0.00178266)
(0.102171 0.00223664 0.00172968)
(0.102251 0.00211699 0.00160928)
(0.102274 0.00196629 0.00146234)
(0.102274 0.00180475 0.00130842)
(0.102264 0.00165697 0.00116242)
(0.102252 0.00155151 0.00103837)
(0.102242 0.00148031 0.00093465)
(0.102233 0.00143526 0.000845149)
(0.102223 0.00141328 0.000768551)
(0.102207 0.00141473 0.000702935)
(0.102178 0.00144365 0.000646116)
(0.102122 0.00150708 0.000600044)
(0.102036 0.00160226 0.000573967)
(0.101922 0.00172354 0.000561537)
(0.102026 0.00172913 0.000537751)
(0.100046 0.000540282 0.000395733)
(0.10048 0.00138422 0.00104491)
(0.101154 0.00192319 0.00147545)
(0.101913 0.00219296 0.00170542)
(0.102631 0.0022947 0.00178036)
(0.103301 0.00227927 0.00174524)
(0.103893 0.00218718 0.00163482)
(0.104388 0.00205507 0.00149253)
(0.104814 0.00190893 0.00134658)
(0.10519 0.00177189 0.00121232)
(0.10553 0.00165346 0.00109449)
(0.105847 0.00155622 0.000993257)
(0.106149 0.00148158 0.000905418)
(0.106442 0.00142967 0.000827977)
(0.106728 0.00140091 0.00075918)
(0.107008 0.00139711 0.000697977)
(0.107287 0.00142142 0.000641366)
(0.107566 0.00146865 0.000584523)
(0.107854 0.00152574 0.000525785)
(0.108257 0.00154894 0.000463163)
(0.100036 0.00032318 0.000323142)
(0.100429 0.000868781 0.000868668)
(0.10108 0.00126259 0.00126238)
(0.101891 0.0015047 0.00150434)
(0.102756 0.0016221 0.00162151)
(0.103616 0.00164355 0.00164262)
(0.104446 0.00160584 0.00160446)
(0.105223 0.00152816 0.001526)
(0.105937 0.00142961 0.00142628)
(0.106592 0.00132626 0.00132107)
(0.107196 0.00122887 0.0012207)
(0.107758 0.00114286 0.00112992)
(0.108287 0.00107036 0.00104994)
(0.108792 0.00101202 0.000980087)
(0.109279 0.000967778 0.000919014)
(0.109754 0.000937 0.000865334)
(0.110224 0.000918953 0.000816831)
(0.110694 0.000912633 0.000767372)
(0.111175 0.000910118 0.000716048)
(0.111718 0.000894638 0.000673369)
(0.100031 0.000107089 0.000281379)
(0.100395 0.000293083 0.000768623)
(0.101024 0.000434149 0.00113305)
(0.101844 0.000526345 0.00136917)
(0.102751 0.000576538 0.00150137)
(0.103689 0.000592039 0.00155411)
(0.104618 0.000582783 0.00154907)
(0.105516 0.000558334 0.00150806)
(0.106367 0.000524914 0.00144428)
(0.107165 0.000488065 0.00136792)
(0.107907 0.000452097 0.0012876)
(0.108601 0.000419466 0.0012098)
(0.109251 0.000391261 0.00113892)
(0.109867 0.000367563 0.00107726)
(0.110456 0.000347569 0.00102591)
(0.111026 0.000329412 0.000985598)
(0.111583 0.000312142 0.00095475)
(0.112133 0.000294436 0.000929984)
(0.112687 0.00027549 0.000906513)
(0.113285 0.000255194 0.000886422)
(0.100031 -0.00010709 0.000281396)
(0.100395 -0.00029308 0.000768677)
(0.101024 -0.000434137 0.00113316)
(0.101843 -0.000526322 0.00136937)
(0.102751 -0.000576493 0.00150171)
(0.103689 -0.000591949 0.00155464)
(0.104617 -0.000582638 0.00154981)
(0.105516 -0.000558187 0.00150914)
(0.106367 -0.000524838 0.00144591)
(0.107163 -0.000488127 0.00137045)
(0.107906 -0.000452305 0.00129157)
(0.108598 -0.00041968 0.00121602)
(0.109247 -0.000391072 0.00114858)
(0.109861 -0.000366361 0.00109219)
(0.110449 -0.000344982 0.00104882)
(0.111017 -0.00032658 0.00101952)
(0.11157 -0.000311307 0.00100311)
(0.112115 -0.000298517 0.000996952)
(0.112664 -0.000286967 0.000994117)
(0.11326 -0.000276467 0.000984039)
(0.100036 -0.000323144 0.000323178)
(0.100429 -0.000868673 0.000868778)
(0.10108 -0.00126239 0.00126259)
(0.101891 -0.00150435 0.00150469)
(0.102756 -0.00162153 0.00162209)
(0.103616 -0.00164265 0.00164353)
(0.104446 -0.00160449 0.00160582)
(0.105223 -0.00152605 0.00152813)
(0.105937 -0.00142633 0.00142958)
(0.106592 -0.00132114 0.00132622)
(0.107196 -0.00122078 0.00122882)
(0.107758 -0.00113003 0.00114279)
(0.108287 -0.00105007 0.00107029)
(0.108792 -0.000980247 0.00101193)
(0.109279 -0.000919213 0.000967678)
(0.109754 -0.000865574 0.000936873)
(0.110224 -0.000817118 0.000918791)
(0.110694 -0.00076771 0.000912429)
(0.111176 -0.000716425 0.000909849)
(0.111719 -0.000673747 0.000894266)
(0.100046 -0.000540235 0.00039575)
(0.10048 -0.00138407 0.00104496)
(0.101154 -0.00192291 0.00147555)
(0.101913 -0.00219243 0.00170555)
(0.102632 -0.0022938 0.0017806)
(0.103302 -0.0022778 0.00174567)
(0.103894 -0.00218488 0.00163554)
(0.104391 -0.00205131 0.00149365)
(0.104818 -0.0019031 0.0013484)
(0.105197 -0.00176277 0.00121493)
(0.105541 -0.00163868 0.00109827)
(0.105864 -0.00153213 0.0009991)
(0.106176 -0.00144201 0.000915329)
(0.106483 -0.00136531 0.000844545)
(0.106792 -0.00129869 0.000784158)
(0.107106 -0.00123715 0.000733706)
(0.107429 -0.00117628 0.000690526)
(0.107767 -0.00111349 0.000651039)
(0.108125 -0.00105025 0.00060499)
(0.108546 -0.00101702 0.00053384)
(0.100093 -0.000763197 0.000445942)
(0.100504 -0.00174901 0.00119454)
(0.101105 -0.0021295 0.0015869)
(0.101635 -0.00223448 0.00174055)
(0.10198 -0.00228663 0.00178248)
(0.102172 -0.00223527 0.00172939)
(0.102254 -0.00211492 0.00160867)
(0.102279 -0.00196314 0.00146123)
(0.102282 -0.00180003 0.00130664)
(0.102277 -0.00164942 0.00115874)
(0.102275 -0.00153829 0.00103174)
(0.102281 -0.00145783 0.000924068)
(0.102299 -0.00139765 0.000830166)
(0.102329 -0.00135099 0.000745231)
(0.102372 -0.00131193 0.000660602)
(0.102434 -0.00127363 0.000572301)
(0.102511 -0.00122871 0.000472093)
(0.102602 -0.00117145 0.000349094)
(0.102694 -0.00110986 0.000189392)
(0.102883 -0.00108647 -1.12181e-05)
(0.0995405 -0.000321899 0.00024504)
(0.0992576 -0.00154092 0.0010556)
(0.0988491 -0.00211438 0.00150233)
(0.0981252 -0.00209149 0.0015794)
(0.0973378 -0.0018859 0.00151467)
(0.0965867 -0.0016655 0.00144605)
(0.0958685 -0.00149748 0.00140939)
(0.0952029 -0.00137069 0.00137769)
(0.0945778 -0.00128331 0.00133088)
(0.0939386 -0.00122651 0.00125819)
(0.0933196 -0.00118728 0.00116606)
(0.092721 -0.00116117 0.00106619)
(0.0921368 -0.00114484 0.000966646)
(0.091565 -0.00113567 0.000868136)
(0.0910064 -0.00112739 0.000767476)
(0.0904639 -0.00111348 0.000651424)
(0.0899398 -0.0010853 0.000500519)
(0.0894385 -0.00103752 0.000285755)
(0.0889728 -0.000976685 -2.04723e-05)
(0.088533 -0.000994252 -0.000433848)
(0.0993802 5.90033e-05 3.37902e-05)
(0.0992678 0.00120005 0.000274457)
(0.0989805 0.00188844 0.000432509)
(0.0984748 0.00200636 0.000483683)
(0.0979959 0.0019145 0.000479197)
(0.0975715 0.00173451 0.000466102)
(0.0971822 0.00154691 0.000453845)
(0.096833 0.00138799 0.000444009)
(0.0965337 0.00126929 0.000438992)
(0.0962805 0.00119853 0.000433057)
(0.0960081 0.00117104 0.000419115)
(0.0957169 0.00116889 0.000400576)
(0.0954055 0.00117813 0.000384479)
(0.0950618 0.00119509 0.000377093)
(0.094677 0.00122369 0.000386112)
(0.0942463 0.00126896 0.000420709)
(0.0937625 0.00133164 0.000489438)
(0.0932245 0.0014105 0.000616873)
(0.0925796 0.00150152 0.000775575)
(0.0917811 0.00152503 0.001156)
(0.100087 0.000707019 0.000144424)
(0.100477 0.00161779 0.000390606)
(0.101066 0.00203463 0.000541308)
(0.101694 0.00211761 0.00061049)
(0.102269 0.00215014 0.000636624)
(0.102742 0.00217973 0.000627873)
(0.103124 0.00213406 0.000596539)
(0.103428 0.00204433 0.000552147)
(0.10368 0.0019352 0.0005087)
(0.103898 0.00182984 0.000469466)
(0.104094 0.00173264 0.000432122)
(0.104282 0.00164828 0.000398422)
(0.10446 0.00159222 0.000372433)
(0.104622 0.00156746 0.000356238)
(0.104764 0.00156593 0.00035152)
(0.104889 0.00158027 0.000363558)
(0.104995 0.00161372 0.000397352)
(0.105077 0.00167281 0.000458665)
(0.10514 0.00174393 0.000545885)
(0.105337 0.00175961 0.00063627)
(0.100039 0.000478782 0.000131364)