/*--------------------------------*- C++ -*----------------------------------*\
| =========                 |                                                 |
| \\      /  F ield         | OpenFOAM: The Open Source CFD Toolbox           |
|  \\    /   O peration     | Version:  2212                                  |
|   \\  /    A nd           | Website:  www.openfoam.com                      |
|    \\/     M anipulation  |                                                 |
\*---------------------------------------------------------------------------*/
FoamFile
{
    version     2.0;
    format      ascii;
    arch        "LSB;label=32;scalar=64";
    class       volScalarField;
    location    "2.1";
    object      epsilon;
}
// * * * * * * * * * * * * * * * * * * * * * * * * * * * * * * * * * * * * * //

dimensions      [0 2 -3 0 0 0 0];

internalField   nonuniform List<scalar> 
689
(
0.180677
0.169652
0.16132
0.154336
0.148184
0.142783
0.138242
0.134072
0.0785147
0.0725741
0.0679048
0.0640578
0.0606473
0.0576786
0.0552577
0.0530495
0.0649233
0.0589872
0.0542421
0.0502358
0.0468842
0.0440773
0.0416744
0.039596
0.0377313
0.0779608
0.0689677
0.0615965
0.0556416
0.0507636
0.0466628
0.0431464
0.040118
0.0374916
0.0351986
0.0331936
0.0314228
0.0676669
0.0609134
0.0550991
0.0501325
0.0458855
0.0422525
0.0391199
0.0363985
0.034007
0.0318961
0.0300248
0.0283623
0.0688538
0.0599103
0.0532997
0.048052
0.0437653
0.0401987
0.0371846
0.0345986
0.0323345
0.0303313
0.0285496
0.0269624
0.0723083
0.061183
0.0536628
0.0481698
0.0438027
0.0402297
0.0372368
0.0346699
0.0324188
0.0304324
0.0286697
0.0271004
0.0755671
0.0630224
0.055498
0.0501869
0.0458711
0.0423068
0.0392779
0.03666
0.034374
0.0323598
0.0305725
0.0289883
0.0786774
0.0702393
0.0627983
0.05678
0.0520018
0.0480999
0.0448658
0.0421296
0.0397507
0.0376701
0.0358277
0.119391
0.101698
0.0875492
0.0777047
0.0709464
0.0661174
0.062326
0.0592113
0.0562774
0.0538157
0.0516832
0.349953
0.280733
0.227963
0.198153
0.180527
0.16921
0.16069
0.153684
0.147433
0.142183
0.137634
0.0710583
0.0663752
0.0626553
0.059531
0.0566643
0.054128
0.0520178
0.0500959
0.0354843
0.0330086
0.0307319
0.0287976
0.0270403
0.0254284
0.0240245
0.0229004
0.0317692
0.0287807
0.0262375
0.0240612
0.0221926
0.0205896
0.0192035
0.01793
0.0169327
0.0465311
0.0404272
0.0353781
0.03117
0.0275185
0.0246088
0.0224598
0.0205678
0.0189169
0.0174735
0.0162031
0.0150798
0.0467448
0.0405367
0.0355137
0.0313635
0.0278476
0.0247374
0.0221831
0.0200605
0.0183852
0.0169053
0.0156007
0.0144442
0.0468213
0.0406945
0.0356615
0.0314647
0.0279378
0.0248401
0.0221649
0.0198986
0.0181428
0.0166678
0.0153551
0.0141856
0.0465099
0.0407017
0.0356164
0.0313201
0.0277161
0.0245457
0.0218286
0.019651
0.0180013
0.0165321
0.0152277
0.0140727
0.0457556
0.0409824
0.0355441
0.0310483
0.0272839
0.0240496
0.0217197
0.01986
0.0182263
0.0167945
0.0155386
0.0144285
0.046472
0.0419901
0.0362861
0.0314167
0.0280827
0.0255443
0.0233659
0.0214883
0.0198545
0.0184266
0.0171797
0.0558803
0.0497814
0.0437312
0.039346
0.0360042
0.0331804
0.0309056
0.0289137
0.0271412
0.0254885
0.0241185
0.139183
0.11559
0.0989902
0.0868232
0.0784266
0.0723785
0.0676415
0.0637882
0.0603015
0.0574328
0.0549352
0.0568093
0.0520867
0.0482095
0.044987
0.0422513
0.0398734
0.0377831
0.0359331
0.0342852
0.0312943
0.0280373
0.0255191
0.0233455
0.0214746
0.0198459
0.0184246
0.0171827
0.0161165
0.0300792
0.02655
0.0236421
0.0212142
0.0191692
0.0174283
0.015933
0.0146322
0.0135087
0.0476439
0.0413071
0.0360076
0.0315685
0.0278257
0.0246744
0.0220338
0.0197877
0.0178642
0.016206
0.0147681
0.0135133
0.0498793
0.0431252
0.037551
0.0329048
0.0289979
0.0256839
0.0228654
0.0204595
0.0184112
0.0166492
0.0151211
0.0137878
0.0507644
0.0438968
0.0382024
0.0334496
0.0294544
0.0260683
0.0231789
0.020705
0.0185954
0.0167887
0.0152274
0.0138673
0.0499336
0.0432651
0.0376641
0.0329572
0.0289913
0.02563
0.022773
0.0203442
0.0182801
0.0165084
0.0149789
0.0136502
0.0475586
0.0413364
0.0360092
0.0314926
0.0276912
0.0244893
0.021808
0.0195524
0.0176362
0.015995
0.0145757
0.0133338
0.045273
0.0394471
0.0344275
0.0301041
0.0265588
0.0236442
0.0212164
0.0191718
0.0174307
0.0159349
0.0146371
0.0482683
0.0416064
0.0363958
0.0319209
0.0288711
0.0263013
0.0241151
0.0222382
0.020627
0.0192411
0.0179158
0.0993155
0.0842203
0.0735709
0.0649096
0.0589995
0.054225
0.0501815
0.0468033
0.0440034
0.0415753
0.0394821
0.0502732
0.0459392
0.0423659
0.0393301
0.0367069
0.0344154
0.0323949
0.0306015
0.0290015
0.0311477
0.0272876
0.024047
0.0217268
0.0198646
0.0182297
0.0167978
0.015542
0.0144379
0.031494
0.0276891
0.0244883
0.0218095
0.0195553
0.0176396
0.0159986
0.0145787
0.0133408
0.0520933
0.0450349
0.0391752
0.0342705
0.030139
0.0266415
0.0236694
0.021138
0.0189697
0.0171024
0.0154859
0.0140787
0.0558
0.0481754
0.0418526
0.0365752
0.0321395
0.0283877
0.0251971
0.0224691
0.0201243
0.0181017
0.0163504
0.0148264
0.0571722
0.0493425
0.0428446
0.0374225
0.0328691
0.0290202
0.0257468
0.0229475
0.0205422
0.0184666
0.016668
0.0151031
0.0557791
0.0481598
0.0418472
0.0365723
0.0321344
0.0283782
0.0251823
0.0224507
0.0201062
0.0180845
0.0163332
0.0148093
0.0520747
0.045018
0.0391698
0.0342685
0.0301378
0.0266402
0.0236676
0.0211358
0.0189674
0.0171002
0.0154839
0.014077
0.0476048
0.0412958
0.0360093
0.0315638
0.0278186
0.0246688
0.0220279
0.0197822
0.0178596
0.0162022
0.0147651
0.0465547
0.04042
0.0354027
0.0311742
0.0275266
0.0246257
0.0224759
0.0205811
0.0189278
0.0174822
0.0162033
0.0779622
0.0689739
0.0616009
0.0556418
0.050754
0.0466467
0.0431242
0.0400915
0.0374621
0.0351699
0.0331697
0.0482119
0.0438298
0.0402531
0.0372562
0.0346852
0.0324318
0.0304437
0.0286785
0.0271047
0.0313023
0.0276825
0.0245012
0.0218159
0.0196537
0.0180012
0.016531
0.0152273
0.0140739
0.0329432
0.0289778
0.0256196
0.022768
0.0203433
0.0182813
0.0165108
0.0149819
0.0136541
0.0557892
0.0481781
0.0418559
0.0365738
0.0321328
0.028376
0.0251808
0.0224503
0.0201067
0.0180856
0.0163347
0.014811
0.0602376
0.051985
0.0451331
0.0394099
0.0345997
0.0305323
0.0270733
0.0241155
0.0215734
0.0193784
0.0174746
0.0158168
0.0618382
0.0533613
0.0463211
0.0404392
0.0354952
0.0313148
0.0277597
0.0247198
0.0221069
0.0198504
0.0178928
0.0161881
0.0602342
0.0519766
0.0451258
0.0394049
0.0345967
0.0305306
0.0270723
0.0241148
0.0215729
0.0193779
0.0174742
0.0158167
0.0558002
0.0481593
0.0418379
0.0365646
0.0321322
0.0283825
0.0251937
0.0224665
0.0201221
0.0180997
0.0163489
0.0148269
0.0498856
0.0431
0.0375285
0.032887
0.0289831
0.0256713
0.0228578
0.0204527
0.0184033
0.0166417
0.0151141
0.0467446
0.0405369
0.035515
0.0313627
0.0278441
0.0247342
0.0221818
0.0200599
0.0183844
0.0169042
0.0155941
0.067668
0.0609066
0.0550949
0.0501322
0.0458883
0.0422571
0.039125
0.0364032
0.0340113
0.0319006
0.0300353
0.0571601
0.0493295
0.0428349
0.0374161
0.0328653
0.0290187
0.025747
0.0229487
0.020544
0.018469
0.016671
0.0151069
0.0618482
0.0533668
0.0463248
0.040442
0.0354976
0.031317
0.0277618
0.0247218
0.0221089
0.0198524
0.0178949
0.0161903
0.063515
0.0548118
0.0475822
0.0415389
0.0364568
0.0321582
0.0285018
0.025375
0.0226873
0.0203657
0.0183515
0.0165972
0.0618482
0.0533695
0.0463245
0.04044
0.0354951
0.0313147
0.0277599
0.0247203
0.0221078
0.0198515
0.0178942
0.0161899
0.0571692
0.0493257
0.042827
0.0374082
0.0328586
0.0290128
0.0257421
0.0229445
0.0205404
0.0184655
0.0166676
0.0151052
0.0507713
0.0438541
0.038159
0.0334146
0.0294274
0.0260475
0.0231655
0.0206947
0.0185863
0.0167797
0.0152192
0.0468764
0.0407041
0.035658
0.0314551
0.0279231
0.0248244
0.0221588
0.0198879
0.0181318
0.0166587
0.015344
0.068846
0.0598908
0.0532912
0.0480553
0.0437771
0.0402158
0.0372037
0.0346185
0.0323543
0.0303505
0.0285732
)
;

boundaryField
{
    inlet
    {
        type            fixedValue;
        value           nonuniform List<scalar> 0();
    }
    ami1
    {
        type            cyclicAMI;
        value           nonuniform List<scalar> 0();
    }
    walls
    {
        type            epsilonWallFunction;
        blending        stepwise;
        value           nonuniform List<scalar> 
227
(
0.0779608
0.0676669
0.0688538
0.0723083
0.0755671
0.0786774
0.119391
0.349953
0.0689677
0.0609134
0.0599103
0.061183
0.0630224
0.0702393
0.101698
0.280733
0.0615965
0.0550991
0.0532997
0.0536628
0.055498
0.0627983
0.0875492
0.227963
0.0649233
0.0556416
0.0501325
0.048052
0.0481698
0.0501869
0.05678
0.0777047
0.198153
0.180677
0.0785147
0.0589872
0.0507636
0.0458855
0.0437653
0.0438027
0.0458711
0.0520018
0.0709464
0.180527
0.169652
0.0725741
0.0542421
0.0466628
0.0422525
0.0401987
0.0402297
0.0423068
0.0480999
0.0661174
0.16921
0.16132
0.0679048
0.0502358
0.0431464
0.0391199
0.0371846
0.0372368
0.0392779
0.0448658
0.062326
0.16069
0.154336
0.0640578
0.0468842
0.040118
0.0363985
0.0345986
0.0346699
0.03666
0.0421296
0.0592113
0.153684
0.148184
0.0606473
0.0440773
0.0374916
0.034007
0.0323345
0.0324188
0.034374
0.0397507
0.0562774
0.147433
0.142783
0.0576786
0.0416744
0.0351986
0.0318961
0.0303313
0.0304324
0.0323598
0.0376701
0.0538157
0.142183
0.138242
0.0552577
0.039596
0.0331936
0.0300248
0.0285496
0.0286697
0.0305725
0.0358277
0.0516832
0.137634
0.134072
0.0530495
0.0377313
0.0314228
0.0283623
0.0269624
0.0271004
0.0289883
0.349953
0.139183
0.0993155
0.0779622
0.067668
0.068846
0.280733
0.11559
0.0842203
0.0689739
0.0609066
0.0598908
0.227963
0.0989902
0.0735709
0.0616009
0.0550949
0.0532912
0.198153
0.0868232
0.0649096
0.0556418
0.0501322
0.0480553
0.180527
0.0784266
0.0589995
0.050754
0.0458883
0.0437771
0.16921
0.0723785
0.054225
0.0466467
0.0422571
0.0402158
0.16069
0.0676415
0.0501815
0.0431242
0.039125
0.0372037
0.153684
0.0637882
0.0468033
0.0400915
0.0364032
0.0346185
0.147433
0.0603015
0.0440034
0.0374621
0.0340113
0.0323543
0.142183
0.0574328
0.0415753
0.0351699
0.0319006
0.0303505
0.137634
0.0549352
0.0394821
0.0331697
0.0300353
0.0285732
0.0568093
0.0502732
0.0482119
0.180677
0.0710583
0.0520867
0.0459392
0.0438298
0.169652
0.0663752
0.0482095
0.0423659
0.0402531
0.16132
0.0626553
0.044987
0.0393301
0.0372562
0.154336
0.059531
0.0422513
0.0367069
0.0346852
0.148184
0.0566643
0.0398734
0.0344154
0.0324318
0.142783
0.054128
0.0377831
0.0323949
0.0304437
0.138242
0.0520178
0.0359331
0.0306015
0.0286785
0.134072
0.0500959
0.0342852
0.0290015
0.0271047
)
;
    }
    ami2
    {
        type            cyclicAMI;
        value           nonuniform List<scalar> 
48
(
0.0755896
0.0716126
0.0731427
0.0799547
0.0886039
0.0842586
0.0986898
0.211475
0.0524463
0.0495393
0.049121
0.0492129
0.0480706
0.0526768
0.0640978
0.105558
0.0515025
0.0542558
0.0544449
0.0533821
0.0515571
0.048718
0.0569445
0.0858711
0.0563233
0.0603454
0.0620216
0.0605531
0.0563145
0.0514837
0.0524586
0.0755924
0.0605583
0.0651896
0.0673605
0.0651877
0.0603451
0.0542582
0.049538
0.0716148
0.0620156
0.0673656
0.0687906
0.0673658
0.0620198
0.054447
0.0491468
0.0731395
)
;
    }
    outlet
    {
        type            zeroGradient;
    }
    procBoundary0to1
    {
        type            processor;
        value           nonuniform List<scalar> 
138
(
0.0536709
0.0480711
0.0437851
0.0402176
0.0372014
0.0346133
0.0323475
0.0303426
0.028559
0.0269688
0.0356327
0.031432
0.0279055
0.0248132
0.0221514
0.0198849
0.0181296
0.0166578
0.0153485
0.0141824
0.0499594
0.0432631
0.0376505
0.0376505
0.0334386
0.0294451
0.0260615
0.0231748
0.0207024
0.0185941
0.0167886
0.0152287
0.0138698
0.0507813
0.0438853
0.038191
0.0334386
0.0294451
0.0260615
0.0231748
0.0207024
0.0185941
0.0167886
0.0152287
0.0138698
0.0558213
0.0481802
0.0418554
0.0365782
0.0321427
0.0283906
0.0251997
0.0224715
0.0201266
0.0181041
0.0163531
0.0148296
0.0602509
0.0519952
0.0451405
0.0394157
0.0346046
0.0305365
0.0270769
0.0241187
0.0215763
0.0193811
0.0174772
0.0158195
0.0618456
0.0533745
0.0463318
0.0404471
0.0355011
0.0313195
0.0277637
0.0247233
0.0221101
0.0198533
0.0178956
0.0161909
0.0602513
0.0519873
0.0451333
0.0394106
0.0346012
0.0305343
0.0270754
0.0241176
0.0215754
0.0193802
0.0174764
0.0158189
0.0557917
0.0481709
0.0418509
0.0365713
0.0321316
0.0283752
0.0251799
0.0224493
0.0201054
0.0180842
0.0163334
0.0148113
0.0498959
0.0432549
0.0376527
0.032944
0.0289783
0.0256181
0.0227642
0.0203382
0.0182743
0.0165027
0.0149736
0.0464532
0.0406433
0.0355742
0.0312918
0.0276917
0.024528
0.0218196
0.0196445
0.0179933
0.0165243
0.0152192
0.0722911
0.0611974
0.0536821
0.0481838
0.0438145
0.0402401
0.0372452
0.0346762
0.0324234
0.0304361
0.0286774
)
;
    }
    procBoundary0to2
    {
        type            processor;
        value           nonuniform List<scalar> 
28
(
0.198325
0.0868838
0.0868838
0.0993634
0.0842815
0.0736869
0.0736869
0.0778065
0.0778065
0.0394298
0.0394298
0.0394298
0.0483356
0.041635
0.0363526
0.0363526
0.0629085
0.0363015
0.0452535
0.0394686
0.0344189
0.0344189
0.055549
0.0354394
0.047528
0.041294
0.0359738
0.0359738
)
;
    }
    procBoundary0to8
    {
        type            processor;
        value           nonuniform List<scalar> 
29
(
0.130189
0.0511416
0.0361551
0.0298625
0.0268941
0.0483996
0.0216076
0.0156455
0.0140533
0.013398
0.0328651
0.0150493
0.0124683
0.0124072
0.0126228
0.0275872
0.0134383
0.0122439
0.01285
0.0135029
0.0257058
0.0130412
0.0124931
0.0134853
0.0143755
0.0147081
0.0137476
0.0147079
0.0150724
)
;
    }
    procBoundary0to9
    {
        type            processor;
        value           nonuniform List<scalar> 
40
(
0.0255539
0.0257042
0.0275752
0.0342353
0.0342353
0.049887
0.133694
0.013129
0.0130394
0.0134395
0.0160573
0.0160573
0.022809
0.0528568
0.0126811
0.0124915
0.0122451
0.0134836
0.0134836
0.0169468
0.0376603
0.0137458
0.0134849
0.0128515
0.0135052
0.0135052
0.0150492
0.0314277
0.014377
0.0135042
0.0137875
0.0137875
0.0144108
0.0283951
0.0147092
0.0137478
0.0138682
0.0138682
0.014154
0.0270021
)
;
    }
}


// ************************************************************************* //
