/*--------------------------------*- C++ -*----------------------------------*\
| =========                 |                                                 |
| \\      /  F ield         | OpenFOAM: The Open Source CFD Toolbox           |
|  \\    /   O peration     | Version:  2212                                  |
|   \\  /    A nd           | Website:  www.openfoam.com                      |
|    \\/     M anipulation  |                                                 |
\*---------------------------------------------------------------------------*/
FoamFile
{
    version     2.0;
    format      ascii;
    arch        "LSB;label=32;scalar=64";
    class       volScalarField;
    location    "1.3";
    object      p;
}
// * * * * * * * * * * * * * * * * * * * * * * * * * * * * * * * * * * * * * //

dimensions      [0 2 -2 0 0 0 0];

internalField   nonuniform List<scalar> 
682
(
0.00323979
0.00310812
0.00297762
0.00284834
0.00272036
0.00259365
0.00246823
0.00234409
0.00222121
0.00209958
0.00197923
0.00323567
0.00310434
0.00297438
0.00284595
0.00271882
0.00259275
0.00246787
0.00234424
0.00222182
0.00210061
0.0019806
0.00322971
0.00309868
0.00296864
0.00284051
0.002714
0.00258862
0.00246441
0.00234129
0.00221917
0.00209824
0.00197843
0.00335213
0.00322307
0.00309539
0.00296906
0.00284211
0.0027158
0.0025903
0.00246609
0.00234297
0.00222064
0.00209936
0.00197947
0.0033643
0.00323616
0.0031092
0.00298307
0.00285568
0.00272839
0.00260213
0.00247735
0.00235393
0.00223134
0.00210916
0.00198855
0.00337053
0.00323894
0.00310812
0.00297811
0.00284854
0.00272006
0.00259305
0.00246776
0.00234399
0.00222123
0.00209925
0.00197935
0.00324936
0.00311702
0.002986
0.00285622
0.00272769
0.00260045
0.00247442
0.0023496
0.0022258
0.00210278
0.00198091
0.00324917
0.0031156
0.00298372
0.00285369
0.00272521
0.00259793
0.00247178
0.002347
0.00222355
0.00210108
0.00197971
0.00323969
0.00310635
0.00297464
0.00284544
0.00271792
0.00259174
0.00246659
0.00234249
0.00221954
0.00209764
0.00197695
0.00336409
0.00323174
0.00309983
0.00296883
0.00283989
0.00271264
0.00258725
0.00246325
0.0023399
0.00221707
0.00209595
0.00197659
0.00338062
0.00324884
0.00311777
0.00298773
0.00285806
0.00272986
0.00260304
0.00247791
0.00235408
0.00223111
0.00210921
0.00198911
0.00337505
0.00324008
0.00310605
0.00297346
0.00284213
0.00271257
0.00258486
0.00245904
0.00233492
0.00221197
0.0020903
0.00197125
0.00320405
0.00307213
0.00294186
0.00281295
0.00268524
0.00255861
0.00243301
0.00230846
0.00218488
0.00206217
0.00194014
0.00320553
0.00307312
0.00294237
0.002813
0.00268499
0.00255817
0.00243237
0.00230774
0.00218432
0.00206197
0.00194042
0.0032032
0.00307113
0.00294065
0.00281189
0.00268452
0.00255795
0.00243226
0.00230806
0.00218562
0.00206411
0.00194324
0.00333454
0.0032026
0.00307208
0.00294265
0.00281496
0.00268818
0.00256247
0.00243759
0.00231382
0.00219148
0.00207031
0.00195007
0.00336704
0.00323449
0.00310338
0.00297347
0.00284459
0.00271672
0.00259053
0.00246559
0.00234148
0.00221778
0.00209557
0.00197491
0.00336795
0.00323159
0.00309695
0.00296454
0.00283378
0.00270484
0.00257751
0.0024518
0.00232752
0.00220423
0.00208241
0.00196319
0.00318712
0.00305572
0.00292573
0.00279705
0.00266956
0.00254319
0.00241788
0.00229361
0.00217034
0.00204807
0.00192641
0.00318927
0.00305774
0.00292763
0.0027988
0.00267121
0.00254475
0.00241937
0.00229507
0.00217184
0.00204967
0.00192801
0.00319326
0.00306195
0.00293204
0.00280345
0.00267611
0.00254975
0.00242443
0.00230035
0.00217764
0.00205599
0.00193447
0.00333307
0.00320104
0.00307038
0.00294093
0.00281281
0.00268586
0.00255956
0.00243429
0.0023103
0.00218808
0.00206655
0.00194499
0.00337363
0.00324143
0.00311012
0.00297968
0.00285031
0.00272201
0.00259507
0.0024694
0.00234477
0.00222121
0.00209865
0.00197705
0.00337814
0.00324235
0.00310814
0.00297583
0.00284524
0.00271614
0.00258852
0.00246205
0.00233713
0.00221306
0.00208978
0.00196775
0.00317847
0.00304712
0.00291723
0.00278863
0.00266122
0.00253492
0.00240968
0.00228544
0.00216216
0.00203983
0.00191812
0.00318626
0.00305517
0.00292542
0.00279693
0.00266962
0.00254339
0.00241821
0.00229406
0.00217089
0.0020487
0.00192713
0.0033323
0.00319998
0.00306905
0.00293941
0.00281108
0.00268389
0.00255768
0.00243249
0.00230825
0.00218482
0.00206216
0.0019405
0.00337673
0.00324409
0.00311274
0.00298241
0.00285321
0.00272515
0.0025982
0.00247249
0.00234776
0.00222402
0.00210104
0.0019792
0.00337545
0.00324131
0.00310855
0.00297735
0.00284763
0.00271918
0.00259195
0.00246598
0.00234135
0.0022181
0.00209606
0.00197466
0.00317648
0.00304508
0.00291514
0.00278652
0.0026591
0.00253281
0.00240759
0.00228336
0.00216008
0.00203774
0.00191604
0.00318705
0.00305568
0.00292572
0.00279706
0.00266959
0.00254324
0.00241795
0.0022937
0.00217043
0.00204815
0.00192647
0.00333742
0.00320392
0.00307203
0.00294179
0.00281291
0.00268522
0.00255861
0.00243303
0.00230851
0.00218495
0.00206224
0.00194019
0.00338313
0.00324924
0.00311686
0.00298582
0.00285602
0.0027275
0.00260025
0.00247424
0.00234942
0.00222565
0.00210266
0.00198082
0.00337317
0.00323971
0.00310792
0.00297735
0.00284803
0.00272002
0.00259331
0.00246788
0.00234374
0.00222089
0.00209931
0.00197904
0.00317845
0.00304709
0.00291721
0.0027886
0.00266119
0.00253489
0.00240964
0.00228541
0.00216213
0.00203982
0.00191815
0.00318923
0.0030577
0.00292759
0.00279877
0.00267118
0.00254472
0.00241933
0.00229505
0.00217182
0.00204964
0.00192802
0.00333983
0.00320549
0.00307306
0.00294229
0.00281293
0.00268493
0.00255809
0.0024323
0.00230772
0.00218427
0.0020619
0.00194039
0.00338447
0.00324912
0.0031155
0.00298358
0.00285352
0.00272504
0.00259774
0.00247159
0.00234685
0.0022234
0.00210094
0.0019796
0.00336824
0.00323556
0.00310419
0.00297417
0.0028457
0.00271855
0.00259249
0.00246762
0.00234399
0.00222161
0.00210044
0.00198048
0.00318623
0.00305512
0.00292535
0.00279685
0.00266953
0.00254328
0.00241808
0.00229393
0.00217075
0.00204859
0.0019271
0.00319323
0.0030619
0.00293198
0.00280342
0.00267607
0.00254967
0.00242431
0.00230028
0.0021775
0.00205585
0.00193444
0.00333703
0.0032032
0.00307111
0.00294057
0.00281189
0.00268452
0.00255781
0.00243206
0.00230815
0.00218547
0.00206384
0.00194324
0.00337454
0.00323966
0.00310629
0.00297453
0.00284534
0.00271787
0.00259157
0.00246642
0.00234233
0.00221944
0.00209756
0.00197682
0.00336081
0.00322954
0.00309851
0.00296848
0.00284029
0.00271375
0.00258845
0.00246426
0.00234107
0.00221906
0.00209817
0.00197831
0.00319998
0.00306902
0.00293938
0.00281104
0.00268382
0.00255757
0.00243232
0.00230806
0.00218462
0.002062
0.00194046
0.00320095
0.00307034
0.00294091
0.00281289
0.00268591
0.0025595
0.00243409
0.00231025
0.00218786
0.00206627
0.00194502
0.00333459
0.00320241
0.00307202
0.00294263
0.00281505
0.0026884
0.00256238
0.00243744
0.00231382
0.00219138
0.00207011
0.0019501
0.00336408
0.00323177
0.00309976
0.00296873
0.00283971
0.0027125
0.00258717
0.00246325
0.00233961
0.00221711
0.00209613
0.00197639
0.00335205
0.00322298
0.00309522
0.00296892
0.00284184
0.00271538
0.0025902
0.00246608
0.00234285
0.00222057
0.00209933
0.00197941
0.00324405
0.00311273
0.00298241
0.0028532
0.00272511
0.00259816
0.00247239
0.0023476
0.00222387
0.00210087
0.00197907
0.00324126
0.0031101
0.00297974
0.00285032
0.00272206
0.00259505
0.00246938
0.00234469
0.00222113
0.00209847
0.001977
0.00336707
0.00323449
0.00310333
0.00297344
0.00284444
0.00271662
0.00259047
0.00246566
0.00234133
0.00221785
0.00209565
0.00197474
0.00338048
0.00324895
0.0031177
0.00298762
0.00285784
0.00272946
0.00260296
0.00247791
0.00235398
0.00223112
0.00210932
0.00198884
0.00336411
0.00323596
0.00310907
0.00298294
0.00285547
0.00272807
0.00260201
0.00247733
0.00235381
0.00223124
0.00210913
0.00198839
0.00324127
0.00310855
0.00297734
0.00284758
0.00271913
0.0025919
0.00246596
0.00234134
0.00221807
0.00209596
0.0019744
0.00324241
0.00310816
0.00297579
0.00284512
0.00271602
0.00258838
0.00246202
0.00233719
0.00221304
0.00208968
0.00196748
0.00336794
0.00323183
0.00309694
0.00296436
0.00283358
0.00270453
0.0025774
0.00245174
0.00232747
0.00220425
0.00208257
0.00196284
0.00337497
0.00324008
0.00310604
0.00297338
0.00284198
0.00271232
0.00258478
0.00245904
0.00233487
0.00221196
0.00209037
0.00197103
0.0033704
0.00323884
0.00310808
0.00297806
0.00284837
0.0027198
0.00259295
0.00246777
0.0023439
0.0022212
0.00209926
0.00197918
)
;

boundaryField
{
    inlet
    {
        type            zeroGradient;
    }
    ami1
    {
        type            cyclicAMI;
        value           nonuniform List<scalar> 0();
    }
    walls
    {
        type            zeroGradient;
    }
    ami2
    {
        type            cyclicAMI;
        value           nonuniform List<scalar> 0();
    }
    outlet
    {
        type            fixedValue;
        value           nonuniform List<scalar> 0();
    }
    procBoundary9to0
    {
        type            processor;
        value           nonuniform List<scalar> 
40
(
0.00337327
0.00336836
0.00336095
0.00336095
0.0034813
0.00349271
0.00350293
0.00338317
0.00338448
0.00337456
0.00337456
0.00349746
0.00351246
0.00351114
0.00333751
0.00333985
0.00333699
0.00333699
0.00346864
0.0035007
0.00350551
0.00331995
0.00332239
0.00332616
0.00332616
0.00346674
0.00350716
0.00351584
0.00331139
0.00331882
0.00331882
0.00346605
0.00351054
0.00351118
0.00330935
0.00331987
0.00331987
0.0034722
0.00351831
0.00350805
)
;
    }
    procBoundary9to1
    {
        type            processor;
        value           nonuniform List<scalar> 
30
(
0.00331136
0.00332234
0.00332234
0.00347599
0.0035216
0.00350226
0.00331882
0.00332614
0.00332614
0.00347298
0.0035114
0.003493
0.00333229
0.00333304
0.00333304
0.00346845
0.00349741
0.00348132
0.00337667
0.00337361
0.00337361
0.00350062
0.00351262
0.00349282
0.00337543
0.00337815
0.00337815
0.00350583
0.00351136
0.00350306
)
;
    }
    procBoundary9to7
    {
        type            processor;
        value           nonuniform List<scalar> 
59
(
0.00185943
0.00186101
0.00186015
0.00186168
0.0018699
0.00186121
0.00186038
0.0018592
0.00185721
0.00185831
0.00187052
0.00185381
0.00181945
0.00181977
0.00182287
0.00183099
0.00185537
0.0018452
0.00180565
0.00180706
0.00181312
0.00182444
0.00185674
0.00184705
0.00179722
0.00180642
0.00182022
0.00185868
0.00185403
0.00179517
0.00180569
0.00181947
0.00186028
0.00185937
0.0017973
0.0018071
0.00181976
0.00185911
0.00186095
0.00180644
0.00181312
0.00182286
0.00185714
0.00186
0.00182024
0.00182443
0.00183097
0.00185818
0.00186142
0.00185852
0.00185657
0.00185516
0.00187021
0.00186963
0.00185363
0.00184672
0.00184493
0.00185352
0.00186095
)
;
    }
    procBoundary9to8
    {
        type            processor;
        value           nonuniform List<scalar> 
132
(
0.00324142
0.00310878
0.00297765
0.00284796
0.00271954
0.00259232
0.00246639
0.00234173
0.0022185
0.00209639
0.00197486
0.00324419
0.00311294
0.00298264
0.00285344
0.00272535
0.00259845
0.0024726
0.00234798
0.00222414
0.00210104
0.00197928
0.00320012
0.00306917
0.00293952
0.00281115
0.00268392
0.00255768
0.0024324
0.00230815
0.0021846
0.00206197
0.00194045
0.00318636
0.00305523
0.00292545
0.00279693
0.00266959
0.00254333
0.00241812
0.00229395
0.00217075
0.00204859
0.00192711
0.00317649
0.00304509
0.00291514
0.0027865
0.00265908
0.00253278
0.00240755
0.00228332
0.00216003
0.00203769
0.001916
0.00317649
0.00304509
0.00291514
0.0027865
0.00265908
0.00253278
0.00240755
0.00228332
0.00216003
0.00203769
0.001916
0.00317316
0.00304198
0.00291216
0.0027836
0.00265622
0.00252995
0.00240474
0.00228052
0.00215725
0.0020349
0.00191322
0.00317647
0.00304507
0.00291512
0.0027865
0.00265908
0.00253279
0.00240756
0.00228334
0.00216006
0.00203772
0.00191604
0.00318703
0.00305564
0.00292567
0.00279699
0.00266951
0.00254315
0.00241785
0.0022936
0.00217033
0.00204806
0.00192641
0.00320395
0.00307203
0.00294177
0.00281287
0.00268515
0.00255852
0.00243293
0.00230839
0.00218482
0.00206212
0.00194009
0.00324921
0.00311683
0.00298578
0.00285596
0.00272742
0.00260015
0.0024741
0.00234927
0.00222547
0.00210247
0.0019806
0.00323961
0.00310786
0.00297729
0.00284795
0.00271993
0.0025932
0.00246777
0.00234362
0.00222074
0.0020991
0.00197878
)
;
    }
}


// ************************************************************************* //
