/*--------------------------------*- C++ -*----------------------------------*\
| =========                 |                                                 |
| \\      /  F ield         | OpenFOAM: The Open Source CFD Toolbox           |
|  \\    /   O peration     | Version:  2212                                  |
|   \\  /    A nd           | Website:  www.openfoam.com                      |
|    \\/     M anipulation  |                                                 |
\*---------------------------------------------------------------------------*/
FoamFile
{
    version     2.0;
    format      ascii;
    arch        "LSB;label=32;scalar=64";
    class       volScalarField;
    location    "0.15";
    object      nut;
}
// * * * * * * * * * * * * * * * * * * * * * * * * * * * * * * * * * * * * * //

dimensions      [0 2 -1 0 0 0 0];

internalField   nonuniform List<scalar> 
689
(
5.76143e-06
5.77153e-06
5.7785e-06
5.78468e-06
5.79025e-06
5.79502e-06
5.79926e-06
5.80159e-06
1.39001e-05
1.39356e-05
1.39666e-05
1.39945e-05
1.4019e-05
1.404e-05
1.40605e-05
1.40784e-05
2.10212e-05
2.10549e-05
2.10987e-05
2.11437e-05
2.11856e-05
2.12232e-05
2.12561e-05
2.12844e-05
2.13083e-05
2.80985e-05
2.75828e-05
2.73589e-05
2.73048e-05
2.7311e-05
2.73431e-05
2.73853e-05
2.74299e-05
2.74731e-05
2.75129e-05
2.75484e-05
2.75788e-05
3.20377e-05
3.165e-05
3.14522e-05
3.13738e-05
3.13447e-05
3.13525e-05
3.13814e-05
3.14203e-05
3.14625e-05
3.15042e-05
3.1543e-05
3.15781e-05
3.32261e-05
3.30445e-05
3.2913e-05
3.28347e-05
3.2798e-05
3.2793e-05
3.28109e-05
3.28425e-05
3.28805e-05
3.292e-05
3.2958e-05
3.29926e-05
3.1895e-05
3.17767e-05
3.16671e-05
3.15737e-05
3.15449e-05
3.1541e-05
3.1557e-05
3.15858e-05
3.16208e-05
3.16573e-05
3.16922e-05
3.17233e-05
2.84145e-05
2.79963e-05
2.76824e-05
2.76209e-05
2.76046e-05
2.76125e-05
2.76352e-05
2.76657e-05
2.7699e-05
2.77319e-05
2.77614e-05
2.77861e-05
2.24302e-05
2.16111e-05
2.14047e-05
2.13801e-05
2.13903e-05
2.14158e-05
2.1447e-05
2.14792e-05
2.15098e-05
2.1538e-05
2.15635e-05
1.35024e-05
1.36171e-05
1.37835e-05
1.39061e-05
1.39846e-05
1.40381e-05
1.40743e-05
1.41028e-05
1.41265e-05
1.41498e-05
1.41705e-05
6.18341e-06
5.82438e-06
5.75935e-06
5.75174e-06
5.76136e-06
5.77093e-06
5.77844e-06
5.78475e-06
5.79017e-06
5.79503e-06
5.79785e-06
1.40033e-05
1.40432e-05
1.40749e-05
1.41026e-05
1.41267e-05
1.41472e-05
1.41671e-05
1.41848e-05
0.000108143
0.000108516
0.000109013
0.000109362
0.000109647
0.000109878
0.00011008
0.000110348
0.00016122
0.00016345
0.000164818
0.000165777
0.000166457
0.000166965
0.000167354
0.000167655
0.00016791
0.000181729
0.000189959
0.00019628
0.00019998
0.000202422
0.00020396
0.000205065
0.000205883
0.000206509
0.000206998
0.000207387
0.000207701
0.000213333
0.000218629
0.00022249
0.000225138
0.000227027
0.000228412
0.000229484
0.00023032
0.000230985
0.000231519
0.000231956
0.000232352
0.000231757
0.000233179
0.000234684
0.000236111
0.000237252
0.000238232
0.000239089
0.00023983
0.00024045
0.000240963
0.000241379
0.000241711
0.00023213
0.000230658
0.000230514
0.000231002
0.000231579
0.000232219
0.000232864
0.00023347
0.000233997
0.000234442
0.000234796
0.000235042
0.000206701
0.000207069
0.000207602
0.000208275
0.000208861
0.000209464
0.000210052
0.000210584
0.000211046
0.000211427
0.000211678
0.000211523
0.000161451
0.000164252
0.00016653
0.000167841
0.000168818
0.000169604
0.000170229
0.000170733
0.000171146
0.000171486
0.000171832
8.55857e-05
9.84389e-05
0.000103843
0.000106329
0.000107674
0.000108453
0.000108965
0.000109342
0.000109634
0.000109879
0.0001102
1.41033e-05
1.37522e-05
1.3763e-05
1.38184e-05
1.38817e-05
1.39312e-05
1.39664e-05
1.39951e-05
1.40194e-05
1.40409e-05
1.40655e-05
2.13778e-05
2.1389e-05
2.14143e-05
2.14459e-05
2.14787e-05
2.15102e-05
2.15389e-05
2.15644e-05
2.15863e-05
0.000167203
0.000168638
0.000169527
0.000170216
0.000170743
0.000171165
0.000171507
0.000171779
0.000172014
0.000276206
0.000278507
0.000280267
0.000281634
0.000282704
0.000283552
0.000284224
0.000284745
0.000285119
0.000328761
0.000333964
0.000338501
0.000342018
0.000344749
0.000346839
0.000348562
0.000349917
0.000351015
0.000351902
0.000352606
0.000353141
0.000371209
0.000374138
0.000377242
0.00037995
0.000382292
0.000384217
0.00038594
0.000387359
0.000388534
0.000389498
0.000390268
0.000390855
0.000389645
0.000390773
0.000392451
0.000394306
0.000396078
0.000397679
0.000399187
0.000400533
0.000401687
0.000402646
0.00040341
0.000403984
0.000381726
0.000381813
0.000382795
0.000384176
0.000385616
0.000387032
0.000388376
0.000389587
0.000390635
0.000391516
0.000392226
0.00039276
0.000340084
0.00034236
0.000344586
0.000346589
0.000348322
0.000349847
0.000351165
0.000352299
0.000353259
0.000354052
0.000354677
0.00035514
0.00026184
0.000268003
0.000273025
0.000276308
0.000278652
0.000280386
0.000281712
0.000282748
0.000283568
0.000284215
0.000284715
0.000138984
0.000150581
0.000157841
0.000161496
0.000163545
0.000164888
0.000165813
0.000166478
0.000166974
0.000167353
0.000167673
2.18277e-05
2.12112e-05
2.10194e-05
2.10205e-05
2.10556e-05
2.11008e-05
2.11461e-05
2.11878e-05
2.12249e-05
2.12572e-05
2.12852e-05
2.7625e-05
2.76061e-05
2.76136e-05
2.76367e-05
2.7668e-05
2.77021e-05
2.77358e-05
2.77669e-05
2.77938e-05
0.00020847
0.000208941
0.00020953
0.000210129
0.000210677
0.000211153
0.000211558
0.00021189
0.000212145
0.000346597
0.000348252
0.000349794
0.00035114
0.0003523
0.000353284
0.000354102
0.000354761
0.00035526
0.000423809
0.000426096
0.000428679
0.000431123
0.000433368
0.00043536
0.000437165
0.00043871
0.000440018
0.000441102
0.000441967
0.000442608
0.000471028
0.000473395
0.000475855
0.000478266
0.000480561
0.000482644
0.000484586
0.000486279
0.000487727
0.00048893
0.000489881
0.000490553
0.000487603
0.00048985
0.000492075
0.000494287
0.000496439
0.000498445
0.000500337
0.00050202
0.000503476
0.000504692
0.000505646
0.000506297
0.000473623
0.000475571
0.000477598
0.000479661
0.000481697
0.00048362
0.00048543
0.000487039
0.000488432
0.000489596
0.000490519
0.000491184
0.000423866
0.000426151
0.000428741
0.000431198
0.000433449
0.000435437
0.000437224
0.000438748
0.000440033
0.000441093
0.000441929
0.000442547
0.00032885
0.000334078
0.000338615
0.000342146
0.000344862
0.000346935
0.00034863
0.000349963
0.000351038
0.000351898
0.00035256
0.00018211
0.000190543
0.000196811
0.000200276
0.000202569
0.000204047
0.000205119
0.000205918
0.00020653
0.000207005
0.000207374
2.81016e-05
2.75875e-05
2.73644e-05
2.73105e-05
2.73165e-05
2.73476e-05
2.73888e-05
2.74326e-05
2.74751e-05
2.75143e-05
2.75485e-05
3.15827e-05
3.155e-05
3.15459e-05
3.15629e-05
3.15927e-05
3.16286e-05
3.16658e-05
3.17013e-05
3.1733e-05
0.000231173
0.000231978
0.000232727
0.00023343
0.000234067
0.000234612
0.000235068
0.000235429
0.000235658
0.000384054
0.000385584
0.000387048
0.000388445
0.000389687
0.000390758
0.000391654
0.000392372
0.000392897
0.000473531
0.000475463
0.00047748
0.000479556
0.000481609
0.000483546
0.000485379
0.000487009
0.000488419
0.000489601
0.000490541
0.00049122
0.000524252
0.000527185
0.000529871
0.000532425
0.000534729
0.000536958
0.000539012
0.000540838
0.000542416
0.000543732
0.000544764
0.000545477
0.000540713
0.000544013
0.000546927
0.000549623
0.000552019
0.00055432
0.000556423
0.000558291
0.000559907
0.000561249
0.000562283
0.00056295
0.000524295
0.000527234
0.000529924
0.000532478
0.000534782
0.000537006
0.00053905
0.000540865
0.000542431
0.00054373
0.000544737
0.000545412
0.000471062
0.000473433
0.000475898
0.000478313
0.00048061
0.000482693
0.000484626
0.000486306
0.000487736
0.000488915
0.000489834
0.000490485
0.000371264
0.000374212
0.000377328
0.000380038
0.000382375
0.000384294
0.000386007
0.000387411
0.000388567
0.000389498
0.000390205
0.00021341
0.000218752
0.000222626
0.000225258
0.000227123
0.000228491
0.000229551
0.000230377
0.000231031
0.000231548
0.000231947
3.20389e-05
3.16519e-05
3.14544e-05
3.13768e-05
3.13476e-05
3.13556e-05
3.13844e-05
3.14232e-05
3.14652e-05
3.15065e-05
3.15447e-05
0.000487488
0.000489716
0.000491934
0.000494146
0.000496304
0.000498317
0.000500225
0.000501921
0.000503385
0.000504604
0.00050556
0.000506228
0.000540635
0.000543924
0.000546833
0.000549528
0.000551924
0.00055423
0.00055634
0.000558214
0.000559832
0.000561175
0.000562214
0.000562912
0.000557445
0.000561208
0.00056443
0.000567324
0.000569857
0.000572264
0.000574435
0.00057636
0.00057802
0.000579388
0.000580426
0.000581078
0.000540681
0.000543979
0.000546894
0.000549592
0.000551991
0.000554294
0.000556396
0.00055826
0.000559866
0.000561189
0.000562195
0.000562842
0.000487583
0.000489834
0.000492066
0.000494285
0.000496443
0.000498452
0.000500343
0.000502019
0.000503459
0.000504647
0.000505561
0.000506188
0.000389666
0.000390818
0.000392517
0.000394386
0.000396166
0.00039777
0.000399277
0.000400615
0.000401748
0.000402668
0.000403356
0.00023182
0.000233287
0.000234824
0.000236266
0.000237418
0.000238404
0.000239259
0.000239995
0.000240608
0.000241104
0.00024148
3.32273e-05
3.30464e-05
3.29158e-05
3.28382e-05
3.28019e-05
3.27974e-05
3.28155e-05
3.28472e-05
3.28852e-05
3.29246e-05
3.29622e-05
)
;

boundaryField
{
    inlet
    {
        type            calculated;
        value           nonuniform List<scalar> 0();
    }
    ami1
    {
        type            cyclicAMI;
        value           nonuniform List<scalar> 0();
    }
    walls
    {
        type            nutkWallFunction;
        blending        stepwise;
        value           uniform 0;
    }
    ami2
    {
        type            cyclicAMI;
        value           nonuniform List<scalar> 
48
(
3.1719e-05
3.45951e-05
3.45759e-05
3.27847e-05
3.38085e-05
3.13191e-05
1.92443e-05
1.017e-05
0.000189653
0.000220157
0.000237008
0.0002351
0.000207265
0.000163163
8.98868e-05
1.87027e-05
0.000328867
0.000372698
0.000391493
0.000383067
0.000339541
0.000261056
0.000146329
2.61918e-05
0.000423569
0.000470661
0.000487023
0.000473168
0.000423621
0.00032893
0.000189858
3.17209e-05
0.000473094
0.000522695
0.000538814
0.000522734
0.000470695
0.000372745
0.000220215
3.45961e-05
0.000486938
0.000538759
0.000555183
0.000538799
0.000487016
0.000391513
0.000237054
3.45768e-05
)
;
    }
    outlet
    {
        type            calculated;
        value           nonuniform List<scalar> 0();
    }
    procBoundary0to1
    {
        type            processor;
        value           nonuniform List<scalar> 
138
(
3.16518e-05
3.28343e-05
3.27984e-05
3.27942e-05
3.28127e-05
3.2845e-05
3.28835e-05
3.29235e-05
3.29618e-05
3.29964e-05
0.000230196
0.000236109
0.000237298
0.000238312
0.000239192
0.000239948
0.000240579
0.000241098
0.000241509
0.000241812
0.000381613
0.000381678
0.000382636
0.000382636
0.000394199
0.000395995
0.000397617
0.000399148
0.000400511
0.000401675
0.000402637
0.000403394
0.000403952
0.000389554
0.000390671
0.000392345
0.000394199
0.000395995
0.000397617
0.000399148
0.000400511
0.000401675
0.000402637
0.000403394
0.000403952
0.000470968
0.000473322
0.000475777
0.000478188
0.000480483
0.000482565
0.00048451
0.000486203
0.000487648
0.000488845
0.000489787
0.000490456
0.000524208
0.000527131
0.000529815
0.000532367
0.000534668
0.000536896
0.000538948
0.000540771
0.000542343
0.000543649
0.000544664
0.000545353
0.000540659
0.000543946
0.000546857
0.000549553
0.00055195
0.000554254
0.000556359
0.000558227
0.000559838
0.000561169
0.000562187
0.000562837
0.000524247
0.000527177
0.000529867
0.000532423
0.000534728
0.000536956
0.000539004
0.000540819
0.00054238
0.000543668
0.000544653
0.000545292
0.000473597
0.000475548
0.000477583
0.000479655
0.000481699
0.000483626
0.000485439
0.000487048
0.00048843
0.000489572
0.000490455
0.000491061
0.000381783
0.000381912
0.000382928
0.000384332
0.000385784
0.000387208
0.000388558
0.000389767
0.000390804
0.000391654
0.000392287
0.0002325
0.000231161
0.000231082
0.000231605
0.000232203
0.000232851
0.000233506
0.000234116
0.000234637
0.000235062
0.000235348
3.18985e-05
3.17819e-05
3.1673e-05
3.15818e-05
3.1553e-05
3.15495e-05
3.1566e-05
3.15952e-05
3.16304e-05
3.16668e-05
3.17011e-05
)
;
    }
    procBoundary0to2
    {
        type            processor;
        value           nonuniform List<scalar> 
28
(
5.75285e-06
1.38419e-05
1.38419e-05
2.18293e-05
2.12162e-05
2.10262e-05
2.10262e-05
1.39297e-05
1.39297e-05
0.000107537
0.000107537
0.000107537
0.000139497
0.000151439
0.000158695
0.000158695
2.14055e-05
0.000166497
0.000261913
0.000268186
0.000273196
0.000273196
2.76899e-05
0.000208404
0.000340128
0.000342476
0.0003447
0.0003447
)
;
    }
    procBoundary0to8
    {
        type            processor;
        value           nonuniform List<scalar> 
29
(
5.80434e-06
1.40907e-05
2.13278e-05
2.76052e-05
3.16102e-05
1.41968e-05
0.000110497
0.000168083
0.000207983
0.000232938
2.1604e-05
0.000172164
0.000285435
0.000353597
0.000391374
2.78168e-05
0.000212337
0.000355684
0.000443166
0.000491141
3.17593e-05
0.000235608
0.000393335
0.00049184
0.000546162
0.000563576
0.0005069
0.000563645
0.00058177
)
;
    }
    procBoundary0to9
    {
        type            processor;
        value           nonuniform List<scalar> 
40
(
3.30234e-05
3.17516e-05
2.78116e-05
2.15886e-05
2.15886e-05
1.41851e-05
5.80143e-06
0.000242015
0.00023532
0.000212093
0.000172644
0.000172644
0.000110418
1.40791e-05
0.000404477
0.000393237
0.000355609
0.000285187
0.000285187
0.00016789
2.13082e-05
0.000506858
0.000491787
0.000443113
0.0003531
0.0003531
0.000207668
2.75784e-05
0.000546048
0.000491109
0.000390776
0.000390776
0.000232267
3.15788e-05
0.00056351
0.000506841
0.000403927
0.000403927
0.000241765
3.29963e-05
)
;
    }
}


// ************************************************************************* //
