/*--------------------------------*- C++ -*----------------------------------*\
| =========                 |                                                 |
| \\      /  F ield         | OpenFOAM: The Open Source CFD Toolbox           |
|  \\    /   O peration     | Version:  2212                                  |
|   \\  /    A nd           | Website:  www.openfoam.com                      |
|    \\/     M anipulation  |                                                 |
\*---------------------------------------------------------------------------*/
FoamFile
{
    version     2.0;
    format      ascii;
    arch        "LSB;label=32;scalar=64";
    class       volScalarField;
    location    "2.75";
    object      nut;
}
// * * * * * * * * * * * * * * * * * * * * * * * * * * * * * * * * * * * * * //

dimensions      [0 2 -1 0 0 0 0];

internalField   nonuniform List<scalar> 
678
(
3.48929e-06
3.47075e-06
3.45223e-06
3.43428e-06
3.41714e-06
6.93299e-06
6.89183e-06
6.85178e-06
6.81329e-06
6.77571e-06
1.00204e-05
9.9518e-06
9.88472e-06
9.82139e-06
9.75995e-06
1.22456e-05
1.21532e-05
1.20574e-05
1.19754e-05
1.18854e-05
1.18137e-05
1.36228e-05
1.35153e-05
1.34081e-05
1.33095e-05
1.32072e-05
1.3125e-05
1.4009e-05
1.3899e-05
1.3793e-05
1.37041e-05
1.35629e-05
1.35171e-05
1.33895e-05
1.33981e-05
1.32933e-05
1.31942e-05
1.31077e-05
1.29946e-05
1.29245e-05
1.28398e-05
1.18696e-05
1.17792e-05
1.17017e-05
1.16259e-05
1.15511e-05
1.14782e-05
1.14077e-05
9.58636e-06
9.52222e-06
9.46232e-06
9.40563e-06
9.35136e-06
9.29813e-06
9.24686e-06
6.72869e-06
6.68968e-06
6.65206e-06
6.61592e-06
6.58089e-06
6.54707e-06
3.49145e-06
3.47278e-06
3.45416e-06
3.43625e-06
3.41897e-06
3.40216e-06
6.72354e-06
6.68461e-06
6.6473e-06
6.61148e-06
6.57618e-06
6.54183e-06
6.86916e-06
6.74037e-06
6.59143e-06
6.44218e-06
6.31912e-06
1.59755e-05
1.55701e-05
1.4988e-05
1.46536e-05
1.4109e-05
1.37494e-05
2.49753e-05
2.40055e-05
2.31696e-05
2.26922e-05
2.17803e-05
2.13148e-05
3.06229e-05
2.9691e-05
2.85588e-05
2.8056e-05
2.69644e-05
2.64052e-05
3.34278e-05
3.24857e-05
3.16076e-05
3.072e-05
2.96184e-05
2.86422e-05
3.16747e-05
3.101e-05
2.99066e-05
2.88869e-05
2.78777e-05
2.70572e-05
2.45928e-05
2.41567e-05
2.31281e-05
2.23371e-05
2.13786e-05
2.09743e-05
2.01275e-05
1.46186e-05
1.43468e-05
1.37938e-05
1.3423e-05
1.28879e-05
1.26123e-05
1.22384e-05
6.91463e-06
6.77751e-06
6.62031e-06
6.4742e-06
6.32246e-06
6.1831e-06
6.07411e-06
6.93653e-06
6.89554e-06
6.85539e-06
6.81678e-06
6.77941e-06
6.74354e-06
9.57883e-06
9.51445e-06
9.45439e-06
9.3978e-06
9.34347e-06
9.29087e-06
9.23966e-06
1.45067e-05
1.42388e-05
1.36868e-05
1.33297e-05
1.27855e-05
1.2566e-05
3.21779e-05
3.12726e-05
2.98911e-05
2.9095e-05
2.767e-05
2.70728e-05
4.83619e-05
4.63291e-05
4.4641e-05
4.30346e-05
4.08915e-05
4.01462e-05
5.79307e-05
5.57905e-05
5.36651e-05
5.15948e-05
4.94002e-05
4.78977e-05
6.25212e-05
6.00528e-05
5.76889e-05
5.54218e-05
5.30589e-05
5.1252e-05
5.98434e-05
5.75868e-05
5.52885e-05
5.30734e-05
5.0722e-05
4.8782e-05
4.89811e-05
4.78143e-05
4.54594e-05
4.40112e-05
4.18011e-05
4.10497e-05
3.22236e-05
3.13946e-05
2.99585e-05
2.92069e-05
2.77737e-05
2.71801e-05
1.60263e-05
1.56233e-05
1.5049e-05
1.47145e-05
1.41663e-05
1.38471e-05
1.33652e-05
1.00244e-05
9.95631e-06
9.88943e-06
9.82641e-06
9.76514e-06
9.70722e-06
1.1863e-05
1.17699e-05
1.16934e-05
1.16167e-05
1.15418e-05
1.14683e-05
1.13983e-05
2.47216e-05
2.38738e-05
2.29362e-05
2.21781e-05
2.11926e-05
2.07881e-05
1.99051e-05
4.91377e-05
4.75439e-05
4.55788e-05
4.38209e-05
4.16689e-05
4.07661e-05
6.93866e-05
6.69185e-05
6.44409e-05
6.19745e-05
5.97393e-05
5.74111e-05
8.08463e-05
7.80808e-05
7.52998e-05
7.24945e-05
7.00214e-05
6.70523e-05
8.50137e-05
8.2152e-05
7.92612e-05
7.63058e-05
7.38906e-05
7.01427e-05
8.1616e-05
7.88231e-05
7.59884e-05
7.3172e-05
7.06744e-05
6.9455e-05
6.70044e-05
6.45617e-05
6.21156e-05
5.99263e-05
5.72878e-05
4.84059e-05
4.63901e-05
4.4782e-05
4.32261e-05
4.11273e-05
4.01663e-05
2.50244e-05
2.40825e-05
2.32911e-05
2.27935e-05
2.19054e-05
2.13673e-05
1.22499e-05
1.21583e-05
1.2063e-05
1.19822e-05
1.18922e-05
1.18201e-05
1.33905e-05
1.3285e-05
1.31942e-05
1.30771e-05
1.30145e-05
1.29013e-05
3.17194e-05
3.07614e-05
2.97446e-05
2.87485e-05
2.77598e-05
2.68224e-05
5.98601e-05
5.75491e-05
5.52794e-05
5.30306e-05
5.08681e-05
8.17336e-05
7.89277e-05
7.60585e-05
7.3369e-05
7.04453e-05
9.3859e-05
9.0941e-05
8.78501e-05
8.49031e-05
8.14285e-05
9.779e-05
9.48305e-05
9.16934e-05
8.86192e-05
8.53549e-05
9.38296e-05
9.09178e-05
8.78353e-05
8.48267e-05
8.17674e-05
8.10258e-05
7.82966e-05
7.55276e-05
7.28045e-05
7.0333e-05
5.81332e-05
5.60296e-05
5.39339e-05
5.18483e-05
4.99014e-05
3.05739e-05
2.98147e-05
2.88852e-05
2.81063e-05
2.71527e-05
1.36275e-05
1.35199e-05
1.34159e-05
1.33135e-05
1.32183e-05
1.31236e-05
1.40037e-05
1.3894e-05
1.37882e-05
1.36956e-05
1.35646e-05
1.35094e-05
3.35285e-05
3.24381e-05
3.16707e-05
3.06065e-05
2.96032e-05
2.84346e-05
6.2433e-05
5.99948e-05
5.76446e-05
5.53468e-05
8.51517e-05
8.22807e-05
7.93785e-05
7.66673e-05
9.78186e-05
9.48424e-05
9.17686e-05
8.85914e-05
0.000101939
9.89202e-05
9.56975e-05
9.26321e-05
8.87619e-05
9.78706e-05
9.49062e-05
9.17637e-05
8.87288e-05
8.54687e-05
8.52529e-05
8.24166e-05
7.95233e-05
7.67312e-05
7.40516e-05
6.27675e-05
6.03244e-05
5.79988e-05
5.57405e-05
5.35702e-05
3.35712e-05
3.25864e-05
3.17889e-05
3.08746e-05
2.97896e-05
1.40131e-05
1.39034e-05
1.37986e-05
1.37072e-05
1.35756e-05
1.37331e-05
1.36212e-05
1.35114e-05
1.34189e-05
1.32953e-05
1.32137e-05
3.19395e-05
3.06646e-05
2.97365e-05
2.89356e-05
2.7856e-05
2.71904e-05
6.03728e-05
5.81002e-05
5.59038e-05
5.37563e-05
5.15943e-05
4.97189e-05
8.366e-05
8.10127e-05
7.83342e-05
7.56008e-05
7.30741e-05
7.0067e-05
9.6706e-05
9.39116e-05
9.10112e-05
8.80135e-05
8.52191e-05
8.16879e-05
9.77235e-05
9.47951e-05
9.17146e-05
8.87587e-05
8.55262e-05
9.38944e-05
9.09953e-05
8.79317e-05
8.49836e-05
8.19523e-05
8.178e-05
7.90419e-05
7.62353e-05
7.35162e-05
7.10041e-05
6.0052e-05
5.78513e-05
5.55869e-05
5.33896e-05
5.13778e-05
3.17437e-05
3.11633e-05
3.00699e-05
2.90643e-05
2.8018e-05
1.34015e-05
1.32972e-05
1.31989e-05
1.31085e-05
1.30059e-05
1.23413e-05
1.2246e-05
1.21516e-05
1.20676e-05
1.1967e-05
1.18959e-05
2.58466e-05
2.47358e-05
2.41973e-05
2.32196e-05
2.27034e-05
2.1931e-05
5.01502e-05
4.78771e-05
4.65423e-05
4.48463e-05
4.2808e-05
4.18534e-05
7.18318e-05
6.94681e-05
6.71197e-05
6.47705e-05
6.23944e-05
6.05098e-05
8.43766e-05
8.17667e-05
7.91009e-05
7.63938e-05
7.37797e-05
7.13103e-05
8.50538e-05
8.2352e-05
7.95624e-05
7.68564e-05
7.42469e-05
8.10304e-05
7.83541e-05
7.56342e-05
7.29977e-05
7.05534e-05
6.95059e-05
6.71688e-05
6.47324e-05
6.23563e-05
6.03365e-05
4.91146e-05
4.79745e-05
4.55961e-05
4.43218e-05
4.26699e-05
2.46771e-05
2.42333e-05
2.32353e-05
2.24532e-05
2.15204e-05
1.18722e-05
1.17832e-05
1.17051e-05
1.16298e-05
1.15558e-05
1.00916e-05
1.00218e-05
9.95357e-06
9.88762e-06
9.82346e-06
9.76262e-06
1.67285e-05
1.60925e-05
1.55774e-05
1.51792e-05
1.46078e-05
1.4235e-05
3.40532e-05
3.24406e-05
3.12556e-05
3.04336e-05
2.89519e-05
2.82863e-05
5.12196e-05
4.92547e-05
4.74481e-05
4.59874e-05
4.37527e-05
4.29585e-05
6.25621e-05
6.00694e-05
5.78007e-05
5.55592e-05
5.34035e-05
5.14684e-05
6.24782e-05
6.0127e-05
5.78672e-05
5.56693e-05
5.35691e-05
5.81197e-05
5.60224e-05
5.39404e-05
5.18967e-05
4.99894e-05
4.83116e-05
4.64257e-05
4.47794e-05
4.33377e-05
4.17185e-05
3.22924e-05
3.146e-05
3.00583e-05
2.93028e-05
2.8181e-05
1.46595e-05
1.43765e-05
1.38483e-05
1.34523e-05
1.30164e-05
9.58918e-06
9.5252e-06
9.46516e-06
9.40856e-06
9.35461e-06
6.97665e-06
6.93482e-06
6.89401e-06
6.85441e-06
6.81563e-06
6.77788e-06
7.09471e-06
6.94878e-06
6.78656e-06
6.63206e-06
6.46554e-06
6.34325e-06
1.54262e-05
1.48155e-05
1.4276e-05
1.38955e-05
1.33075e-05
1.30481e-05
2.58518e-05
2.47601e-05
2.3961e-05
2.31636e-05
2.2188e-05
2.16572e-05
3.30179e-05
3.18677e-05
3.08751e-05
2.98703e-05
2.88977e-05
2.79287e-05
3.33023e-05
3.25047e-05
3.16101e-05
3.07539e-05
2.96654e-05
3.05465e-05
2.97447e-05
2.88086e-05
2.80725e-05
2.71218e-05
2.5022e-05
2.40603e-05
2.32891e-05
2.27942e-05
2.19776e-05
1.60485e-05
1.55598e-05
1.51684e-05
1.4638e-05
1.42324e-05
6.92548e-06
6.77878e-06
6.63843e-06
6.4691e-06
6.35402e-06
6.73013e-06
6.69117e-06
6.65366e-06
6.6175e-06
6.58221e-06
3.50977e-06
3.49078e-06
3.47208e-06
3.45368e-06
3.43561e-06
3.4184e-06
6.76703e-06
6.72703e-06
6.68857e-06
6.6515e-06
6.61524e-06
6.57963e-06
9.64986e-06
9.58385e-06
9.52074e-06
9.46169e-06
1.19621e-05
1.18658e-05
1.17763e-05
1.16989e-05
1.16228e-05
1.35037e-05
1.33941e-05
1.329e-05
1.31908e-05
1.31065e-05
1.40059e-05
1.38955e-05
1.37937e-05
1.36888e-05
1.36045e-05
1.36212e-05
1.35185e-05
1.34007e-05
1.33161e-05
1.32136e-05
1.22462e-05
1.21558e-05
1.20585e-05
1.19811e-05
1.18894e-05
1.00232e-05
9.95497e-06
9.88858e-06
9.82568e-06
9.7647e-06
6.93665e-06
6.89556e-06
6.85569e-06
6.81714e-06
6.77966e-06
3.49194e-06
3.47323e-06
3.4548e-06
3.43672e-06
3.41973e-06
)
;

boundaryField
{
    inlet
    {
        type            calculated;
        value           nonuniform List<scalar> 0();
    }
    ami1
    {
        type            cyclicAMI;
        value           nonuniform List<scalar> 0();
    }
    walls
    {
        type            nutkWallFunction;
        blending        stepwise;
        value           uniform 0;
    }
    ami2
    {
        type            cyclicAMI;
        value           nonuniform List<scalar> 0();
    }
    outlet
    {
        type            calculated;
        value           nonuniform List<scalar> 0();
    }
    procBoundary5to6
    {
        type            processor;
        value           nonuniform List<scalar> 
177
(
3.40011e-06
3.40011e-06
6.73958e-06
9.70152e-06
9.70152e-06
9.70152e-06
1.17313e-05
1.30282e-05
1.30282e-05
1.33275e-05
2.76097e-05
1.27651e-05
2.61066e-05
1.13402e-05
9.19634e-06
6.51439e-06
6.51439e-06
6.51439e-06
3.38604e-06
6.50916e-06
6.0977e-06
6.50916e-06
6.0977e-06
6.0977e-06
6.0977e-06
1.3371e-05
2.06614e-05
2.54978e-05
2.76097e-05
2.61066e-05
2.61066e-05
1.94925e-05
3.86521e-05
1.17551e-05
2.59571e-05
5.85462e-06
6.70877e-06
6.70877e-06
9.18822e-06
1.20488e-05
1.20488e-05
1.20488e-05
2.58186e-05
3.79153e-05
4.52983e-05
4.83082e-05
4.56568e-05
6.54811e-05
3.86521e-05
2.59571e-05
2.59571e-05
1.30081e-05
9.65066e-06
2.07438e-05
9.65066e-06
1.13308e-05
1.28372e-05
1.93513e-05
3.84269e-05
2.58275e-05
3.84269e-05
4.84357e-05
5.31734e-05
6.53137e-05
6.19311e-05
7.53682e-05
6.46977e-05
6.54811e-05
7.89688e-05
6.54811e-05
6.54811e-05
5.31157e-05
6.52627e-05
3.78612e-05
4.76905e-05
2.07438e-05
2.6521e-05
1.17395e-05
1.28372e-05
2.58275e-05
4.84357e-05
4.84357e-05
5.2669e-05
6.53137e-05
7.11916e-05
7.53682e-05
8.22636e-05
7.89688e-05
7.57204e-05
6.52627e-05
4.76905e-05
2.6521e-05
2.6521e-05
1.30413e-05
1.35449e-05
1.33675e-05
1.31141e-05
5.2669e-05
2.76617e-05
5.01633e-05
2.6303e-05
5.2669e-05
5.2669e-05
7.11916e-05
7.11916e-05
8.22636e-05
8.22636e-05
8.22636e-05
8.21875e-05
7.91284e-05
6.86603e-05
5.10514e-05
2.8771e-05
1.35449e-05
1.31141e-05
2.6303e-05
4.74481e-05
6.49975e-05
7.57245e-05
7.92035e-05
7.58932e-05
6.58512e-05
4.90737e-05
2.72937e-05
1.29335e-05
1.18035e-05
2.13856e-05
3.96802e-05
5.6298e-05
6.62375e-05
6.88957e-05
6.54794e-05
5.61523e-05
4.08652e-05
2.11678e-05
1.14858e-05
9.70323e-06
1.37754e-05
2.69697e-05
4.05954e-05
4.9209e-05
5.11381e-05
4.78532e-05
4.00119e-05
2.72352e-05
1.25828e-05
9.30287e-06
6.74129e-06
6.10011e-06
9.40477e-06
1.24246e-05
9.35004e-06
2.07463e-05
1.15486e-05
2.7056e-05
1.29778e-05
2.87458e-05
2.65207e-05
2.14675e-05
1.38429e-05
6.1373e-06
6.5486e-06
3.40094e-06
9.40477e-06
6.54456e-06
9.35004e-06
9.40477e-06
9.40477e-06
1.15486e-05
1.29778e-05
1.29778e-05
1.34607e-05
1.31183e-05
1.18205e-05
9.70725e-06
6.74396e-06
3.40282e-06
)
;
    }
    procBoundary5to7
    {
        type            processor;
        value           nonuniform List<scalar> 
131
(
3.50956e-06
6.97618e-06
1.00906e-05
1.2342e-05
1.37351e-05
1.41233e-05
1.35064e-05
1.19644e-05
9.6519e-06
6.77053e-06
3.51151e-06
6.76592e-06
7.20771e-06
1.67432e-05
2.56085e-05
3.16718e-05
3.43903e-05
3.31938e-05
2.60949e-05
1.55414e-05
7.23543e-06
6.97923e-06
9.64542e-06
1.54771e-05
3.40222e-05
4.9722e-05
6.07421e-05
6.56777e-05
6.30006e-05
5.13265e-05
3.40685e-05
1.67758e-05
1.00936e-05
1.19569e-05
2.58514e-05
5.12192e-05
7.22159e-05
8.41195e-05
8.83612e-05
8.48827e-05
7.22668e-05
4.98084e-05
2.56464e-05
1.23448e-05
1.34995e-05
3.30311e-05
6.30393e-05
8.50078e-05
9.73203e-05
0.000101324
9.72842e-05
8.42742e-05
6.09254e-05
3.20006e-05
1.37384e-05
1.4118e-05
1.4118e-05
3.42983e-05
3.42983e-05
6.56905e-05
6.56905e-05
8.85542e-05
8.85542e-05
0.000101409
0.000101409
0.000105587
0.000101402
8.85698e-05
6.59015e-05
3.44787e-05
1.41268e-05
1.3851e-05
3.26034e-05
6.32253e-05
8.67069e-05
0.000100025
0.000101341
0.000101341
9.73565e-05
8.5029e-05
6.31992e-05
3.32924e-05
1.351e-05
1.24402e-05
2.643e-05
5.15543e-05
7.4583e-05
8.74307e-05
8.84104e-05
8.84104e-05
8.42709e-05
7.23133e-05
5.14749e-05
2.61701e-05
1.19683e-05
1.01622e-05
1.71984e-05
3.51292e-05
5.33344e-05
6.51992e-05
6.56972e-05
6.56972e-05
6.09379e-05
4.9871e-05
3.41632e-05
1.55832e-05
9.655e-06
7.01979e-06
7.421e-06
1.59726e-05
2.67861e-05
3.39619e-05
3.44597e-05
3.44597e-05
3.19557e-05
2.56242e-05
1.67779e-05
7.24315e-06
6.77215e-06
3.53022e-06
6.81037e-06
9.71966e-06
1.20644e-05
1.36177e-05
1.41201e-05
1.41201e-05
1.37327e-05
1.23412e-05
1.00924e-05
6.9793e-06
3.51195e-06
)
;
    }
}


// ************************************************************************* //
