/*--------------------------------*- C++ -*----------------------------------*\
| =========                 |                                                 |
| \\      /  F ield         | OpenFOAM: The Open Source CFD Toolbox           |
|  \\    /   O peration     | Version:  2212                                  |
|   \\  /    A nd           | Website:  www.openfoam.com                      |
|    \\/     M anipulation  |                                                 |
\*---------------------------------------------------------------------------*/
FoamFile
{
    version     2.0;
    format      ascii;
    arch        "LSB;label=32;scalar=64";
    class       surfaceScalarField;
    location    "1.25";
    object      phi;
}
// * * * * * * * * * * * * * * * * * * * * * * * * * * * * * * * * * * * * * //

dimensions      [0 3 -1 0 0 0 0];

oriented        oriented;

internalField   nonuniform List<scalar> 
1826
(
6.14124e-08
-3.40261e-08
3.47162e-08
6.07435e-08
-3.40491e-08
3.47181e-08
6.00792e-08
-3.4051e-08
3.47154e-08
5.94234e-08
-3.40495e-08
3.47054e-08
5.87849e-08
-3.40512e-08
3.46898e-08
-3.40687e-08
3.46638e-08
1.99028e-07
-6.39927e-08
3.19449e-08
1.97099e-07
-6.40586e-08
3.19389e-08
1.95187e-07
-6.40866e-08
3.19481e-08
1.933e-07
-6.41095e-08
3.1947e-08
1.91445e-07
-6.41314e-08
3.19354e-08
-6.41548e-08
3.18665e-08
3.89605e-07
-8.8937e-08
2.86558e-08
3.85976e-07
-8.89393e-08
2.85096e-08
3.82427e-07
-8.89573e-08
2.84189e-08
3.78962e-07
-8.89836e-08
2.834e-08
3.7556e-07
-8.90083e-08
2.82788e-08
-8.90387e-08
2.81849e-08
5.57172e-07
-1.06914e-07
2.35355e-08
5.51774e-07
-1.06962e-07
2.3421e-08
5.46538e-07
-1.07018e-07
2.32969e-08
5.41454e-07
-1.07074e-07
2.31745e-08
5.36497e-07
-1.07127e-07
2.3076e-08
-1.07166e-07
2.29281e-08
6.68779e-07
-1.16846e-07
1.65456e-08
6.62327e-07
-1.16912e-07
1.64015e-08
6.56032e-07
-1.16957e-07
1.62338e-08
6.4989e-07
-1.17002e-07
1.60698e-08
6.439e-07
-1.1706e-07
1.59227e-08
-1.1713e-07
1.57562e-08
6.95235e-07
-1.17811e-07
7.6971e-09
6.88668e-07
-1.17847e-07
7.50332e-09
6.82299e-07
-1.17898e-07
7.31001e-09
6.76132e-07
-1.17964e-07
7.12823e-09
6.70157e-07
-1.18041e-07
6.95643e-09
-1.18125e-07
6.75913e-09
6.3653e-07
-1.095e-07
-2.30527e-09
6.30681e-07
-1.09488e-07
-2.51004e-09
6.24974e-07
-1.0946e-07
-2.73165e-09
6.19414e-07
-1.09455e-07
-2.94896e-09
6.13985e-07
-1.0948e-07
-3.13218e-09
-1.09507e-07
-3.32506e-09
5.12131e-07
-9.19976e-08
-1.2769e-08
5.07548e-07
-9.19298e-08
-1.29746e-08
5.03142e-07
-9.18198e-08
-1.32343e-08
4.98845e-07
-9.17388e-08
-1.34191e-08
4.94602e-07
-9.16774e-08
-1.3559e-08
-9.16283e-08
-1.3707e-08
3.51875e-07
-6.65283e-08
-2.21639e-08
3.486e-07
-6.64507e-08
-2.22042e-08
3.45356e-07
-6.63857e-08
-2.21903e-08
3.42123e-07
-6.6334e-08
-2.21714e-08
3.38907e-07
-6.62789e-08
-2.21827e-08
-6.62347e-08
-2.22412e-08
1.8553e-07
-3.47077e-08
-2.98647e-08
1.83621e-07
-3.47118e-08
-2.98306e-08
1.81752e-07
-3.47085e-08
-2.98077e-08
1.79904e-07
-3.47035e-08
-2.97827e-08
1.78088e-07
-3.46912e-08
-2.97711e-08
-3.46706e-08
-2.98212e-08
6.14122e-08
-3.40189e-08
6.07381e-08
-3.40377e-08
6.00762e-08
-3.40466e-08
5.94219e-08
-3.40491e-08
5.87835e-08
-3.40528e-08
-3.40733e-08
1.85569e-07
-2.98739e-08
6.65503e-08
1.83668e-07
-2.9856e-08
6.64755e-08
1.81796e-07
-2.98157e-08
6.64033e-08
1.79952e-07
-2.9788e-08
6.63376e-08
1.78138e-07
-2.97744e-08
6.62781e-08
-2.98256e-08
6.62228e-08
4.98343e-07
-5.53977e-08
6.06188e-08
4.9516e-07
-5.53606e-08
6.06268e-08
4.91966e-07
-5.53269e-08
6.06535e-08
4.88755e-07
-5.53008e-08
6.06706e-08
4.85496e-07
-5.52603e-08
6.06809e-08
-5.53091e-08
6.05932e-08
8.10686e-07
-7.75836e-08
5.24508e-08
8.0895e-07
-7.75322e-08
5.24169e-08
8.07077e-07
-7.74584e-08
5.24236e-08
8.05089e-07
-7.74038e-08
5.24313e-08
8.03009e-07
-7.73443e-08
5.24423e-08
-7.73779e-08
5.23585e-08
1.03451e-06
-9.36289e-08
4.04723e-08
1.03352e-06
-9.3561e-08
4.04483e-08
1.03243e-06
-9.35031e-08
4.04245e-08
1.03128e-06
-9.3469e-08
4.03962e-08
1.03006e-06
-9.34312e-08
4.03771e-08
-9.34567e-08
4.02172e-08
1.16771e-06
-1.02387e-07
2.60154e-08
1.16689e-06
-1.02304e-07
2.59688e-08
1.16598e-06
-1.02252e-07
2.58897e-08
1.16501e-06
-1.02222e-07
2.57955e-08
1.164e-06
-1.02208e-07
2.57106e-08
-1.02228e-07
2.5541e-08
1.2027e-06
-1.0331e-07
9.24145e-09
1.20205e-06
-1.03278e-07
9.13161e-09
1.20132e-06
-1.03254e-07
9.03847e-09
1.20052e-06
-1.03245e-07
8.95556e-09
1.19965e-06
-1.03243e-07
8.86032e-09
-1.03231e-07
8.65179e-09
1.14377e-06
-9.64772e-08
-8.58816e-09
1.14323e-06
-9.65108e-08
-8.73001e-09
1.14265e-06
-9.65317e-08
-8.87617e-09
1.14204e-06
-9.65621e-08
-9.02585e-09
1.14141e-06
-9.65876e-08
-9.15846e-09
-9.65751e-08
-9.37381e-09
1.00276e-06
-8.22189e-08
-2.6351e-08
1.00203e-06
-8.22908e-08
-2.64602e-08
1.00121e-06
-8.2408e-08
-2.65409e-08
1.00034e-06
-8.25154e-08
-2.65896e-08
9.99418e-07
-8.25707e-08
-2.66586e-08
-8.25376e-08
-2.68142e-08
7.85105e-07
-6.05987e-08
-4.19697e-08
7.83209e-07
-6.06151e-08
-4.19835e-08
7.81176e-07
-6.06293e-08
-4.19365e-08
7.79005e-07
-6.06547e-08
-4.18603e-08
7.76723e-07
-6.06653e-08
-4.18064e-08
-6.05913e-08
-4.18422e-08
4.98271e-07
-3.19358e-08
-5.53815e-08
4.95085e-07
-3.19457e-08
-5.53143e-08
4.91897e-07
-3.19399e-08
-5.53087e-08
4.88684e-07
-3.194e-08
-5.52844e-08
4.85429e-07
-3.19312e-08
-5.52496e-08
-3.18655e-08
-5.53054e-08
1.99047e-07
-6.39833e-08
1.97112e-07
-6.40483e-08
1.95212e-07
-6.40862e-08
1.93333e-07
-6.411e-08
1.91481e-07
-6.41326e-08
-6.41591e-08
3.51992e-07
-2.21714e-08
9.20214e-08
3.48733e-07
-2.22186e-08
9.19534e-08
3.45504e-07
-2.21975e-08
9.18296e-08
3.42294e-07
-2.21834e-08
9.17313e-08
3.39084e-07
-2.21862e-08
9.16737e-08
-2.22524e-08
9.16117e-08
7.85206e-07
-4.19924e-08
8.22404e-08
7.83309e-07
-4.20064e-08
8.23111e-08
7.81271e-07
-4.19392e-08
8.24338e-08
7.79099e-07
-4.18656e-08
8.2525e-08
7.76817e-07
-4.18104e-08
8.25873e-08
-4.18497e-08
8.25289e-08
1.12549e-06
-6.02213e-08
6.92494e-08
1.12681e-06
-6.01958e-08
6.92901e-08
1.12805e-06
-6.01247e-08
6.9365e-08
1.12921e-06
-6.00382e-08
6.94465e-08
1.1303e-06
-5.99688e-08
6.95068e-08
-5.99957e-08
6.94758e-08
1.35928e-06
-7.41024e-08
5.15038e-08
1.36204e-06
-7.40481e-08
5.15381e-08
1.36474e-06
-7.39814e-08
5.15816e-08
1.36737e-06
-7.39029e-08
5.1635e-08
1.36994e-06
-7.38339e-08
5.16717e-08
-7.38396e-08
5.15863e-08
1.49703e-06
-8.21107e-08
3.07817e-08
1.50023e-06
-8.20365e-08
3.07573e-08
1.5034e-06
-8.19827e-08
3.07207e-08
1.50654e-06
-8.19381e-08
3.06896e-08
1.50965e-06
-8.18954e-08
3.06587e-08
-8.1872e-08
3.05441e-08
1.53799e-06
-8.38931e-08
7.71517e-09
1.54129e-06
-8.38415e-08
7.63622e-09
1.5446e-06
-8.37982e-08
7.5484e-09
1.54789e-06
-8.37681e-08
7.49202e-09
1.55118e-06
-8.37429e-08
7.4184e-09
-8.37131e-08
7.23499e-09
1.48555e-06
-7.95217e-08
-1.61939e-08
1.48881e-06
-7.95288e-08
-1.63078e-08
1.49212e-06
-7.95628e-08
-1.64175e-08
1.49545e-06
-7.96129e-08
-1.65172e-08
1.49882e-06
-7.965e-08
-1.66128e-08
-7.96386e-08
-1.67822e-08
1.34719e-06
-6.92351e-08
-3.95368e-08
1.35011e-06
-6.92862e-08
-3.9617e-08
1.353e-06
-6.9354e-08
-3.96456e-08
1.35588e-06
-6.94329e-08
-3.96524e-08
1.35874e-06
-6.94936e-08
-3.96744e-08
-6.94708e-08
-3.97907e-08
1.12552e-06
-5.24326e-08
-6.02058e-08
1.12685e-06
-5.24342e-08
-6.0166e-08
1.1281e-06
-5.24177e-08
-6.01171e-08
1.12927e-06
-5.2426e-08
-6.00369e-08
1.13037e-06
-5.24355e-08
-5.99695e-08
-5.23553e-08
-5.99931e-08
8.10707e-07
-2.86413e-08
-7.75695e-08
8.08957e-07
-2.85138e-08
-7.74852e-08
8.07082e-07
-2.84058e-08
-7.74454e-08
8.05094e-07
-2.8335e-08
-7.73871e-08
8.03018e-07
-2.82785e-08
-7.73304e-08
-2.81883e-08
-7.73714e-08
3.89663e-07
-8.89286e-08
3.86051e-07
-8.89507e-08
3.82533e-07
-8.89734e-08
3.79083e-07
-8.89953e-08
3.75693e-07
-8.90217e-08
-8.90555e-08
5.12409e-07
-1.27764e-08
1.09508e-07
5.07824e-07
-1.29722e-08
1.09511e-07
5.0341e-07
-1.32374e-08
1.09481e-07
4.99119e-07
-1.34427e-08
1.09465e-07
4.94878e-07
-1.35576e-08
1.09472e-07
-1.37269e-08
1.09497e-07
1.00273e-06
-2.63561e-08
9.65049e-08
1.002e-06
-2.64668e-08
9.6534e-08
1.00119e-06
-2.65587e-08
9.65616e-08
1.00032e-06
-2.6622e-08
9.65757e-08
9.99398e-07
-2.66526e-08
9.66046e-08
-2.68474e-08
9.65633e-08
1.34708e-06
-3.95331e-08
7.95455e-08
1.34997e-06
-3.96104e-08
7.95501e-08
1.35286e-06
-3.96567e-08
7.95708e-08
1.35573e-06
-3.96646e-08
7.96192e-08
1.35859e-06
-3.967e-08
7.96635e-08
-3.98028e-08
7.96408e-08
1.58254e-06
-5.02378e-08
5.76727e-08
1.58705e-06
-5.02596e-08
5.76786e-08
1.59153e-06
-5.02614e-08
5.77045e-08
1.596e-06
-5.02447e-08
5.77494e-08
1.60045e-06
-5.02344e-08
5.77861e-08
-5.03013e-08
5.77423e-08
1.72266e-06
-5.70363e-08
3.23821e-08
1.72782e-06
-5.70229e-08
3.23659e-08
1.73293e-06
-5.70086e-08
3.23529e-08
1.73802e-06
-5.69936e-08
3.23474e-08
1.74309e-06
-5.6978e-08
3.23363e-08
-5.69828e-08
3.22659e-08
1.76765e-06
-5.95341e-08
4.87059e-09
1.77296e-06
-5.95122e-08
4.81355e-09
1.77824e-06
-5.94983e-08
4.76264e-09
1.7835e-06
-5.94897e-08
4.7238e-09
1.78875e-06
-5.94835e-08
4.67745e-09
-5.94597e-08
4.56773e-09
1.71935e-06
-5.76674e-08
-2.32154e-08
1.72449e-06
-5.76773e-08
-2.32846e-08
1.72962e-06
-5.77054e-08
-2.33436e-08
1.73475e-06
-5.77482e-08
-2.3391e-08
1.73988e-06
-5.77783e-08
-2.34431e-08
-5.7731e-08
-2.35532e-08
1.58256e-06
-5.14979e-08
-5.02413e-08
1.58707e-06
-5.15419e-08
-5.02614e-08
1.59155e-06
-5.15734e-08
-5.02591e-08
1.59602e-06
-5.16302e-08
-5.0239e-08
1.60047e-06
-5.16704e-08
-5.02292e-08
-5.15824e-08
-5.02931e-08
1.35927e-06
-4.04545e-08
-7.40956e-08
1.36205e-06
-4.04597e-08
-7.4032e-08
1.36474e-06
-4.04062e-08
-7.39734e-08
1.36737e-06
-4.03976e-08
-7.38929e-08
1.36993e-06
-4.03817e-08
-7.38226e-08
-4.02213e-08
-7.38266e-08
1.03459e-06
-2.35173e-08
-9.36253e-08
1.03359e-06
-2.34041e-08
-9.35383e-08
1.03251e-06
-2.32685e-08
-9.34972e-08
1.03134e-06
-2.31616e-08
-9.34588e-08
1.03012e-06
-2.30678e-08
-9.34215e-08
-2.29266e-08
-9.3448e-08
5.57352e-07
-1.06913e-07
5.51982e-07
-1.06985e-07
5.46779e-07
-1.07039e-07
5.41722e-07
-1.071e-07
5.3679e-07
-1.07157e-07
-1.07198e-07
6.36798e-07
-2.3304e-09
1.17819e-07
6.30972e-07
-2.51958e-09
1.17857e-07
6.25282e-07
-2.73626e-09
1.17907e-07
6.19736e-07
-2.96201e-09
1.17974e-07
6.14327e-07
-3.15087e-09
1.18032e-07
-3.34982e-09
1.18102e-07
1.14376e-06
-8.60416e-09
1.03338e-07
1.14321e-06
-8.7337e-09
1.03303e-07
1.14263e-06
-8.87306e-09
1.0328e-07
1.14201e-06
-9.03321e-09
1.03263e-07
1.14137e-06
-9.16644e-09
1.03263e-07
-9.39753e-09
1.03245e-07
1.48545e-06
-1.61934e-08
8.39127e-08
1.48871e-06
-1.6299e-08
8.38626e-08
1.492e-06
-1.64098e-08
8.38146e-08
1.49532e-06
-1.65147e-08
8.37765e-08
1.49869e-06
-1.6624e-08
8.3754e-08
-1.68112e-08
8.37236e-08
1.71928e-06
-2.32079e-08
5.95378e-08
1.72442e-06
-2.32756e-08
5.95166e-08
1.72955e-06
-2.33359e-08
5.95012e-08
1.73468e-06
-2.33872e-08
5.94929e-08
1.73979e-06
-2.34469e-08
5.9494e-08
-2.35661e-08
5.94756e-08
1.85968e-06
-2.84606e-08
3.15686e-08
1.86569e-06
-2.84814e-08
3.15606e-08
1.87165e-06
-2.85004e-08
3.1555e-08
1.87758e-06
-2.85183e-08
3.15542e-08
1.88345e-06
-2.85408e-08
3.15572e-08
-2.85825e-08
3.15416e-08
1.90634e-06
-3.1573e-08
1.65252e-09
1.91261e-06
-3.1565e-08
1.63345e-09
1.91881e-06
-3.15582e-08
1.61714e-09
1.92496e-06
-3.15538e-08
1.60375e-09
1.93106e-06
-3.15469e-08
1.58915e-09
-3.15218e-08
1.55611e-09
1.85969e-06
-3.23902e-08
-2.8463e-08
1.8657e-06
-3.23739e-08
-2.84839e-08
1.87166e-06
-3.23591e-08
-2.85021e-08
1.87759e-06
-3.2351e-08
-2.8518e-08
1.88347e-06
-3.23356e-08
-2.85358e-08
-3.22603e-08
-2.85716e-08
1.72258e-06
-3.07813e-08
-5.70346e-08
1.72773e-06
-3.07561e-08
-5.70205e-08
1.73283e-06
-3.07163e-08
-5.70056e-08
1.73791e-06
-3.06847e-08
-5.69893e-08
1.74298e-06
-3.06568e-08
-5.69701e-08
-3.05444e-08
-5.69714e-08
1.49692e-06
-2.59978e-08
-8.21099e-08
1.50012e-06
-2.59518e-08
-8.20328e-08
1.50328e-06
-2.58765e-08
-8.19783e-08
1.50642e-06
-2.57779e-08
-8.19336e-08
1.50953e-06
-2.57052e-08
-8.1882e-08
-2.5546e-08
-8.18517e-08
1.16772e-06
-1.6527e-08
-1.02394e-07
1.16692e-06
-1.63763e-08
-1.02308e-07
1.16601e-06
-1.62165e-08
-1.02252e-07
1.16505e-06
-1.6052e-08
-1.02221e-07
1.16404e-06
-1.59125e-08
-1.02204e-07
-1.57535e-08
-1.0222e-07
6.69099e-07
-1.16854e-07
6.62664e-07
-1.16926e-07
6.56385e-07
-1.16976e-07
6.50251e-07
-1.17018e-07
6.44267e-07
-1.17085e-07
-1.17163e-07
6.9555e-07
7.67207e-09
1.16852e-07
6.89011e-07
7.47934e-09
1.16916e-07
6.82661e-07
7.28882e-09
1.16968e-07
6.76497e-07
7.11337e-09
1.17025e-07
6.70525e-07
6.93061e-09
1.17073e-07
6.72035e-09
1.20274e-06
9.22457e-09
1.02401e-07
1.20209e-06
9.11036e-09
1.02323e-07
1.20137e-06
9.02737e-09
1.02261e-07
1.20057e-06
8.95734e-09
1.02215e-07
1.19973e-06
8.82722e-09
1.02211e-07
8.59137e-09
1.53789e-06
7.71727e-09
8.21239e-08
1.54118e-06
7.6339e-09
8.20491e-08
1.54448e-06
7.55396e-09
8.19886e-08
1.54778e-06
7.49788e-09
8.19314e-08
1.55107e-06
7.39339e-09
8.18993e-08
7.19956e-09
1.76752e-06
4.88442e-09
5.70421e-08
1.77282e-06
4.82612e-09
5.70272e-08
1.77809e-06
4.7741e-09
5.70108e-08
1.78335e-06
4.73166e-09
5.6997e-08
1.78856e-06
4.66577e-09
5.70099e-08
4.53785e-09
1.90626e-06
1.66618e-09
2.84652e-08
1.91251e-06
1.64535e-09
2.84844e-08
1.91872e-06
1.62511e-09
2.8502e-08
1.92487e-06
1.60468e-09
2.85251e-08
1.93094e-06
1.57366e-09
2.85764e-08
1.52522e-09
1.95293e-06
-1.65236e-09
-1.65582e-09
1.95948e-06
-1.63362e-09
-1.63743e-09
1.96596e-06
-1.61769e-09
-1.62071e-09
1.97238e-06
-1.60533e-09
-1.60513e-09
1.97872e-06
-1.59162e-09
-1.57881e-09
-1.55799e-09
-1.53405e-09
1.90631e-06
-4.87551e-09
-3.15652e-08
1.91257e-06
-4.81639e-09
-3.15593e-08
1.91877e-06
-4.76341e-09
-3.15548e-08
1.92492e-06
-4.72464e-09
-3.15523e-08
1.93101e-06
-4.67638e-09
-3.15454e-08
-4.56342e-09
-3.15181e-08
1.76756e-06
-7.71564e-09
-5.95247e-08
1.77286e-06
-7.62988e-09
-5.95047e-08
1.77812e-06
-7.54108e-09
-5.94923e-08
1.78338e-06
-7.48972e-09
-5.94838e-08
1.78862e-06
-7.40821e-09
-5.94782e-08
-7.22114e-09
-5.94542e-08
1.53788e-06
-9.23194e-09
-8.38899e-08
1.54118e-06
-9.11589e-09
-8.38377e-08
1.54448e-06
-9.02394e-09
-8.37959e-08
1.54777e-06
-8.95333e-09
-8.37663e-08
1.55107e-06
-8.84036e-09
-8.37451e-08
-8.6129e-09
-8.37185e-08
1.20268e-06
-7.68665e-09
-1.03321e-07
1.20204e-06
-7.4916e-09
-1.03284e-07
1.20132e-06
-7.30005e-09
-1.03259e-07
1.20052e-06
-7.12871e-09
-1.0325e-07
1.19968e-06
-6.95306e-09
-1.03251e-07
-6.74818e-09
-1.03238e-07
6.95491e-07
-1.17829e-07
6.88938e-07
-1.17865e-07
6.82572e-07
-1.17911e-07
6.76396e-07
-1.1797e-07
6.70387e-07
-1.1803e-07
-1.181e-07
6.69085e-07
1.65226e-08
6.62673e-07
1.63791e-08
1.06949e-07
6.56416e-07
1.62115e-08
1.07014e-07
6.50307e-07
1.60531e-08
1.07081e-07
1.58794e-08
1.07135e-07
1.1678e-06
2.59999e-08
1.16698e-06
2.59444e-08
9.35717e-08
1.16608e-06
2.58812e-08
9.34969e-08
1.16509e-06
2.58165e-08
9.34384e-08
2.56584e-08
9.34418e-08
1.49695e-06
3.07821e-08
7.41082e-08
1.50013e-06
3.0759e-08
7.40602e-08
1.50329e-06
3.07289e-08
7.39765e-08
1.50645e-06
3.07016e-08
7.38898e-08
3.06049e-08
7.38736e-08
1.72255e-06
3.23942e-08
5.02457e-08
1.72769e-06
3.23786e-08
5.02672e-08
1.73281e-06
3.23664e-08
5.02581e-08
1.73791e-06
3.23517e-08
5.02436e-08
3.2282e-08
5.03022e-08
1.85962e-06
3.15826e-08
2.32174e-08
1.86563e-06
3.15733e-08
2.32825e-08
1.8716e-06
3.15627e-08
2.33364e-08
1.87754e-06
3.15452e-08
2.33919e-08
3.15008e-08
2.35035e-08
1.90629e-06
2.84729e-08
-4.86932e-09
1.91254e-06
2.84916e-08
-4.8131e-09
1.91874e-06
2.85061e-08
-4.76566e-09
1.9249e-06
2.85148e-08
-4.73199e-09
1.93098e-06
2.85199e-08
-4.67435e-09
2.85458e-08
-4.55224e-09
1.8597e-06
2.32196e-08
-3.23754e-08
1.86571e-06
2.32883e-08
-3.23618e-08
1.87166e-06
2.33462e-08
-3.23528e-08
1.87759e-06
2.33914e-08
-3.23519e-08
1.88346e-06
2.34401e-08
-3.23393e-08
2.35467e-08
-3.22626e-08
1.71932e-06
1.62003e-08
-5.76553e-08
1.72446e-06
1.63125e-08
-5.76633e-08
1.72959e-06
1.64183e-08
-5.76915e-08
1.73471e-06
1.65167e-08
-5.77354e-08
1.73983e-06
1.66101e-08
-5.77676e-08
1.67765e-08
-5.77237e-08
1.48549e-06
8.60006e-09
-7.95197e-08
1.48875e-06
8.74172e-09
-7.95231e-08
1.49205e-06
8.87835e-09
-7.95556e-08
1.49538e-06
9.02779e-09
-7.96038e-08
1.49873e-06
9.14743e-09
-7.96402e-08
9.35286e-09
-7.96291e-08
1.14376e-06
2.31081e-09
-9.64844e-08
1.14321e-06
2.51234e-09
-9.65127e-08
1.14264e-06
2.73013e-09
-9.65412e-08
1.14205e-06
2.95002e-09
-9.65739e-08
1.14141e-06
3.12719e-09
-9.65984e-08
3.31407e-09
-9.65792e-08
6.36652e-07
-1.09516e-07
6.30806e-07
-1.09506e-07
6.25098e-07
-1.09473e-07
6.19536e-07
-1.09459e-07
6.14113e-07
-1.09479e-07
-1.09504e-07
5.51922e-07
2.33895e-08
8.89373e-08
5.46708e-07
2.32901e-08
8.89382e-08
5.41644e-07
2.3175e-08
8.89693e-08
2.30332e-08
8.89952e-08
1.03366e-06
4.03981e-08
7.75322e-08
1.03259e-06
4.04219e-08
7.74405e-08
1.03143e-06
4.04211e-08
7.73517e-08
4.03051e-08
7.73693e-08
1.35932e-06
5.14934e-08
6.02123e-08
1.36207e-06
5.15195e-08
6.01875e-08
1.36478e-06
5.15879e-08
6.01074e-08
1.36743e-06
5.16474e-08
6.0008e-08
5.15891e-08
6.0044e-08
1.58252e-06
5.76697e-08
3.95313e-08
1.58701e-06
5.76748e-08
3.96153e-08
1.59151e-06
5.77069e-08
3.96424e-08
1.59601e-06
5.77425e-08
3.96522e-08
5.77037e-08
3.97795e-08
1.71926e-06
5.95401e-08
1.61998e-08
1.72439e-06
5.95186e-08
1.63048e-08
1.72952e-06
5.95006e-08
1.64078e-08
1.73467e-06
5.9477e-08
1.65135e-08
5.94277e-08
1.66851e-08
1.76756e-06
5.70443e-08
-7.70393e-09
1.77285e-06
5.70295e-08
-7.61842e-09
1.77812e-06
5.70122e-08
-7.54063e-09
1.78337e-06
5.69908e-08
-7.49936e-09
1.78858e-06
5.69629e-08
-7.42176e-09
5.69572e-08
-7.23975e-09
1.72264e-06
5.02472e-08
-3.07664e-08
1.72778e-06
5.027e-08
-3.07414e-08
1.73288e-06
5.02698e-08
-3.07135e-08
1.73797e-06
5.02499e-08
-3.06938e-08
1.74302e-06
5.02366e-08
-3.06645e-08
5.02955e-08
-3.05492e-08
1.58259e-06
3.95415e-08
-5.14868e-08
1.58709e-06
3.96249e-08
-5.15253e-08
1.59158e-06
3.9655e-08
-5.15615e-08
1.59605e-06
3.96634e-08
-5.16201e-08
1.6005e-06
3.968e-08
-5.16596e-08
3.97919e-08
-5.15749e-08
1.34716e-06
2.63587e-08
-6.92372e-08
1.35007e-06
2.64734e-08
-6.92754e-08
1.35297e-06
2.65462e-08
-6.9347e-08
1.35586e-06
2.65895e-08
-6.94227e-08
1.35873e-06
2.66503e-08
-6.94816e-08
2.68035e-08
-6.94588e-08
1.00274e-06
1.27677e-08
-8.22211e-08
1.00202e-06
1.29766e-08
-8.2291e-08
1.0012e-06
1.32358e-08
-8.24179e-08
1.00032e-06
1.34197e-08
-8.25233e-08
9.99402e-07
1.35518e-08
-8.25795e-08
1.36917e-08
-8.25405e-08
5.12186e-07
-9.20092e-08
5.07595e-07
-9.19383e-08
5.0318e-07
-9.18223e-08
4.9888e-07
-9.17387e-08
4.9463e-07
-9.16773e-08
-9.16288e-08
3.86026e-07
2.84914e-08
6.40557e-08
3.82471e-07
2.84154e-08
6.40775e-08
3.78984e-07
2.8347e-08
6.41095e-08
2.82321e-08
6.41434e-08
8.08969e-07
5.23971e-08
5.53621e-08
8.07096e-07
5.24134e-08
5.53159e-08
8.05096e-07
5.24553e-08
5.52435e-08
5.23707e-08
5.52722e-08
1.12553e-06
6.9236e-08
4.19907e-08
1.12685e-06
6.92772e-08
4.19907e-08
1.12809e-06
6.93651e-08
4.19124e-08
1.12929e-06
6.94642e-08
4.18042e-08
6.94321e-08
4.18637e-08
1.34708e-06
7.95328e-08
2.63347e-08
1.34996e-06
7.95326e-08
2.64761e-08
1.35287e-06
7.95641e-08
2.65357e-08
1.3558e-06
7.96087e-08
2.65805e-08
7.95877e-08
2.67717e-08
1.48542e-06
8.39026e-08
8.60702e-09
1.48867e-06
8.38521e-08
8.73899e-09
1.49197e-06
8.38071e-08
8.86793e-09
1.49532e-06
8.377e-08
9.00255e-09
8.3712e-08
9.2293e-09
1.53789e-06
8.21178e-08
-9.21462e-09
1.54118e-06
8.20431e-08
-9.09857e-09
1.54448e-06
8.19864e-08
-9.0146e-09
1.54775e-06
8.19365e-08
-8.93705e-09
1.551e-06
8.18858e-08
-8.84778e-09
8.18565e-08
-8.65021e-09
1.497e-06
7.41014e-08
-2.59847e-08
1.5002e-06
7.40445e-08
-2.59392e-08
1.50335e-06
7.39815e-08
-2.58663e-08
1.50647e-06
7.38984e-08
-2.57724e-08
1.50956e-06
7.38307e-08
-2.5701e-08
7.38362e-08
-2.5544e-08
1.35932e-06
6.02085e-08
-4.04449e-08
1.3621e-06
6.01843e-08
-4.04463e-08
1.36479e-06
6.01222e-08
-4.03947e-08
1.36742e-06
6.0038e-08
-4.03864e-08
1.36999e-06
5.99721e-08
-4.03703e-08
5.99936e-08
-4.02089e-08
1.1255e-06
4.19769e-08
-5.24364e-08
1.12684e-06
4.1998e-08
-5.24212e-08
1.12809e-06
4.19331e-08
-5.24092e-08
1.12926e-06
4.18548e-08
-5.24144e-08
1.13038e-06
4.17968e-08
-5.24215e-08
4.18302e-08
-5.23465e-08
7.85107e-07
2.2166e-08
-6.05988e-08
7.83209e-07
2.22137e-08
-6.06091e-08
7.81166e-07
2.2192e-08
-6.06336e-08
7.78987e-07
2.21694e-08
-6.06582e-08
7.76699e-07
2.21739e-08
-6.0669e-08
2.22276e-08
-6.059e-08
3.51889e-07
-6.65313e-08
3.48615e-07
-6.64505e-08
3.45371e-07
-6.63856e-08
3.42134e-07
-6.63329e-08
3.38908e-07
-6.62773e-08
-6.62314e-08
1.97117e-07
3.19256e-08
3.40503e-08
1.95208e-07
3.19353e-08
3.40512e-08
1.93316e-07
3.19555e-08
3.40457e-08
3.18972e-08
3.40593e-08
4.9514e-07
6.06077e-08
2.9856e-08
4.91933e-07
6.06407e-08
2.98177e-08
4.88666e-07
6.0699e-08
2.97669e-08
6.06259e-08
2.98067e-08
7.85206e-07
8.22345e-08
2.21767e-08
7.83298e-07
8.22943e-08
2.22122e-08
7.81235e-07
8.24305e-08
2.21855e-08
7.79017e-07
8.25589e-08
2.21618e-08
8.25267e-08
2.22424e-08
1.0027e-06
9.64983e-08
1.27642e-08
1.00198e-06
9.65153e-08
1.29756e-08
1.00117e-06
9.65577e-08
1.32153e-08
1.00031e-06
9.65986e-08
1.34012e-08
9.65705e-08
1.3597e-08
1.14374e-06
1.03324e-07
2.33791e-09
1.14318e-06
1.03287e-07
2.52268e-09
1.1426e-06
1.03273e-07
2.72961e-09
1.14199e-06
1.0328e-07
2.93012e-09
1.03266e-07
3.14359e-09
1.20272e-06
1.02391e-07
-7.6605e-09
1.20207e-06
1.02307e-07
-7.46598e-09
1.20136e-06
1.02255e-07
-7.28106e-09
1.20058e-06
1.02228e-07
-7.10621e-09
1.19973e-06
1.02208e-07
-6.94455e-09
1.02222e-07
-6.74994e-09
1.16778e-06
9.36211e-08
-1.65101e-08
1.16697e-06
9.35342e-08
-1.63589e-08
1.16607e-06
9.34906e-08
-1.61998e-08
1.16511e-06
9.34486e-08
-1.60357e-08
1.1641e-06
9.34081e-08
-1.5895e-08
9.34353e-08
-1.57369e-08
1.03461e-06
7.75658e-08
-2.35062e-08
1.0336e-06
7.74832e-08
-2.33932e-08
1.03252e-06
7.74364e-08
-2.32597e-08
1.03136e-06
7.73745e-08
-2.3154e-08
1.03015e-06
7.73139e-08
-2.30609e-08
7.73488e-08
-2.2918e-08
8.10691e-07
5.53777e-08
-2.86411e-08
8.08943e-07
5.53168e-08
-2.85062e-08
8.07067e-07
5.53032e-08
-2.84003e-08
8.05081e-07
5.52756e-08
-2.83295e-08
8.03012e-07
5.52354e-08
-2.82731e-08
5.52838e-08
-2.81869e-08
4.98268e-07
2.98651e-08
-3.19367e-08
4.95083e-07
2.98352e-08
-3.19418e-08
4.91887e-07
2.9805e-08
-3.19399e-08
4.88666e-07
2.9778e-08
-3.19392e-08
4.85399e-07
2.97641e-08
-3.193e-08
2.98136e-08
-3.18623e-08
1.85528e-07
-3.47069e-08
1.83621e-07
-3.47086e-08
1.81747e-07
-3.47065e-08
1.79893e-07
-3.47007e-08
1.78067e-07
-3.46866e-08
-3.46627e-08
6.07465e-08
3.47137e-08
6.00839e-08
3.47138e-08
5.94226e-08
3.47071e-08
3.46761e-08
1.83666e-07
6.64745e-08
1.81789e-07
6.64081e-08
1.79932e-07
6.63316e-08
6.62481e-08
3.51993e-07
9.20168e-08
3.48735e-07
9.19444e-08
3.45492e-07
9.18373e-08
3.42242e-07
9.1743e-08
9.16802e-08
5.12476e-07
1.09493e-07
5.07882e-07
1.09514e-07
5.03437e-07
1.09498e-07
4.9908e-07
1.09501e-07
1.09541e-07
6.36898e-07
1.17805e-07
6.31082e-07
1.17852e-07
6.25398e-07
1.17912e-07
6.19841e-07
1.17988e-07
1.18102e-07
6.9562e-07
1.16835e-07
6.89093e-07
1.16913e-07
6.82757e-07
1.16968e-07
6.76619e-07
1.17019e-07
6.70688e-07
1.17089e-07
1.17165e-07
6.6907e-07
1.06898e-07
6.62657e-07
1.06966e-07
6.56406e-07
1.07019e-07
6.50308e-07
1.07081e-07
6.44367e-07
1.07135e-07
1.0717e-07
5.57286e-07
8.89195e-08
5.51925e-07
8.89346e-08
5.46731e-07
8.89536e-08
5.41686e-07
8.8971e-08
5.3677e-07
8.8991e-08
8.90193e-08
3.8963e-07
6.39768e-08
3.86018e-07
6.40407e-08
3.82493e-07
6.40783e-08
3.79036e-07
6.40987e-08
3.75638e-07
6.41157e-08
6.41339e-08
1.99032e-07
3.40171e-08
1.97096e-07
3.40348e-08
1.95192e-07
3.40423e-08
1.93308e-07
3.40436e-08
1.91449e-07
3.40449e-08
3.40622e-08
6.14071e-08
6.07333e-08
6.00691e-08
5.94121e-08
5.87704e-08
)
;

boundaryField
{
    inlet
    {
        type            calculated;
        value           nonuniform List<scalar> 0();
    }
    ami1
    {
        type            cyclicAMI;
        value           nonuniform List<scalar> 0();
    }
    walls
    {
        type            calculated;
        value           nonuniform List<scalar> 
248
(
2.90979e-14
2.43942e-14
1.84387e-14
1.28555e-14
6.40674e-15
-3.7068e-22
-6.40674e-15
-1.28555e-14
-1.84387e-14
-2.43942e-14
-2.90979e-14
2.90979e-14
2.43942e-14
1.84387e-14
1.28555e-14
6.40674e-15
-3.71197e-22
-6.40674e-15
-1.28555e-14
-1.84387e-14
-2.43942e-14
-2.90979e-14
2.90979e-14
2.43942e-14
1.84387e-14
1.28555e-14
6.40674e-15
-3.71197e-22
-6.40674e-15
-1.28555e-14
-1.84387e-14
-2.43942e-14
-2.90979e-14
2.90979e-14
2.43942e-14
1.84387e-14
1.28555e-14
6.40674e-15
-3.71197e-22
-6.40674e-15
-1.28555e-14
-1.84387e-14
-2.43942e-14
-2.90979e-14
2.90979e-14
2.43942e-14
1.84387e-14
1.28555e-14
6.40674e-15
-3.71197e-22
-6.40674e-15
-1.28555e-14
-1.84387e-14
-2.43942e-14
-2.90979e-14
2.90979e-14
2.43942e-14
1.84387e-14
1.28555e-14
6.40674e-15
-3.71197e-22
-6.40674e-15
-1.28555e-14
-1.84387e-14
-2.43942e-14
-2.90979e-14
2.90979e-14
2.43942e-14
1.84387e-14
1.28555e-14
6.40674e-15
-3.7068e-22
-6.40674e-15
-1.28555e-14
-1.84387e-14
-2.43942e-14
-2.90979e-14
2.90979e-14
2.43942e-14
1.84387e-14
1.28555e-14
6.40674e-15
-3.71197e-22
-6.40674e-15
-1.28555e-14
-1.84387e-14
-2.43942e-14
-2.90979e-14
2.90979e-14
2.43942e-14
1.84387e-14
1.28555e-14
6.40674e-15
-3.71197e-22
-6.40674e-15
-1.28555e-14
-1.84387e-14
-2.43942e-14
-2.90979e-14
2.90979e-14
2.43942e-14
1.84387e-14
1.28555e-14
6.40674e-15
-3.71197e-22
-6.40674e-15
-1.28555e-14
-1.84387e-14
-2.43942e-14
-2.90979e-14
2.90979e-14
2.43942e-14
1.84387e-14
1.28555e-14
6.40674e-15
-3.71197e-22
-6.40674e-15
-1.28555e-14
-1.84387e-14
-2.43942e-14
-2.90979e-14
2.90979e-14
2.43942e-14
1.84387e-14
1.28555e-14
6.40674e-15
-3.71197e-22
-6.40674e-15
-1.28555e-14
-1.84387e-14
-2.43942e-14
-2.90979e-14
-1.84387e-14
-1.28555e-14
-6.40674e-15
-3.92394e-22
6.40674e-15
1.28555e-14
1.84387e-14
2.43942e-14
2.90979e-14
-2.90979e-14
-2.43942e-14
-1.84387e-14
-1.28555e-14
-6.40674e-15
-3.92652e-22
6.40674e-15
1.28555e-14
1.84387e-14
2.43942e-14
2.90979e-14
-2.90979e-14
-2.43942e-14
-1.84387e-14
-1.28555e-14
-6.40674e-15
-3.92652e-22
6.40674e-15
1.28555e-14
1.84387e-14
2.43942e-14
2.90979e-14
-2.90979e-14
-2.43942e-14
-1.84387e-14
-1.28555e-14
-6.40674e-15
-3.92652e-22
6.40674e-15
1.28555e-14
1.84387e-14
2.43942e-14
2.90979e-14
-2.90979e-14
-2.43942e-14
-1.84387e-14
-1.28555e-14
-6.40674e-15
-3.92652e-22
6.40674e-15
1.28555e-14
1.84387e-14
2.43942e-14
2.90979e-14
-3.92652e-22
6.40674e-15
1.28555e-14
1.84387e-14
2.43942e-14
2.90979e-14
-2.90979e-14
-2.43942e-14
-1.84387e-14
-1.28555e-14
-6.40674e-15
-3.92394e-22
6.40674e-15
-2.90979e-14
-2.43942e-14
-1.84387e-14
-1.28555e-14
-6.40674e-15
-3.92652e-22
6.40674e-15
1.28555e-14
1.84387e-14
2.43942e-14
2.90979e-14
-2.90979e-14
-2.43942e-14
-1.84387e-14
-1.28555e-14
-6.40674e-15
-3.92652e-22
6.40674e-15
1.28555e-14
1.84387e-14
2.43942e-14
2.90979e-14
-2.90979e-14
-2.43942e-14
-1.84387e-14
-1.28555e-14
-6.40674e-15
-3.92652e-22
6.40674e-15
1.28555e-14
1.84387e-14
2.43942e-14
2.90979e-14
-2.90979e-14
-2.43942e-14
-1.84387e-14
-1.28555e-14
-6.40674e-15
-3.92652e-22
6.40674e-15
1.28555e-14
1.84387e-14
2.43942e-14
2.90979e-14
-2.90979e-14
-2.43942e-14
-1.84387e-14
-1.28555e-14
-6.40674e-15
-3.92652e-22
)
;
    }
    ami2
    {
        type            cyclicAMI;
        value           nonuniform List<scalar> 0();
    }
    outlet
    {
        type            calculated;
        value           nonuniform List<scalar> 0();
    }
    procBoundary7to5
    {
        type            processor;
        value           nonuniform List<scalar> 
131
(
5.819e-08
1.89664e-07
3.72259e-07
5.31697e-07
6.38107e-07
6.64393e-07
6.08693e-07
4.9043e-07
3.35755e-07
1.76345e-07
5.81863e-08
1.76405e-07
4.82253e-07
8.00905e-07
1.02885e-06
1.16298e-06
1.19876e-06
1.14081e-06
9.98488e-07
7.74378e-07
4.82187e-07
1.89702e-07
3.35948e-07
7.74478e-07
1.13133e-06
1.37241e-06
1.51268e-06
1.55444e-06
1.50215e-06
1.36155e-06
1.13141e-06
8.00917e-07
3.72402e-07
4.90719e-07
9.98484e-07
1.36138e-06
1.60479e-06
1.74805e-06
1.79389e-06
1.74492e-06
1.60482e-06
1.3724e-06
1.0289e-06
5.32006e-07
6.09072e-07
1.14073e-06
1.50202e-06
1.74481e-06
1.88919e-06
1.93701e-06
1.88922e-06
1.74794e-06
1.51255e-06
1.16302e-06
6.38478e-07
6.64761e-07
1.17146e-07
1.19887e-06
1.02232e-07
1.55431e-06
8.18767e-08
1.79367e-06
5.70273e-08
1.93687e-06
2.86278e-08
1.98489e-06
1.93697e-06
1.79376e-06
1.55433e-06
1.19884e-06
6.64575e-07
6.44366e-07
1.16408e-06
1.50953e-06
1.74294e-06
1.88339e-06
-3.1458e-08
1.93691e-06
1.88921e-06
1.74487e-06
1.50207e-06
1.14079e-06
6.08832e-07
5.36751e-07
1.03023e-06
1.36998e-06
1.60041e-06
1.73976e-06
-5.93863e-08
1.7937e-06
1.74797e-06
1.60485e-06
1.36155e-06
9.98475e-07
4.90446e-07
3.75604e-07
8.03054e-07
1.13041e-06
1.35865e-06
1.49865e-06
-8.36645e-08
1.55422e-06
1.51258e-06
1.37246e-06
1.13143e-06
7.74351e-07
3.35739e-07
1.91503e-07
4.85403e-07
7.76738e-07
9.99441e-07
1.14138e-06
-1.03242e-07
1.19885e-06
1.16308e-06
1.02894e-06
8.00917e-07
4.82141e-07
1.76312e-07
5.88058e-08
1.78166e-07
3.39052e-07
4.94817e-07
6.14423e-07
-1.18194e-07
6.64967e-07
6.38624e-07
5.32003e-07
3.72337e-07
1.89659e-07
5.81699e-08
)
;
    }
    procBoundary7to8
    {
        type            processor;
        value           nonuniform List<scalar> 
68
(
-6.21024e-08
-2.01007e-07
-3.93316e-07
-5.62731e-07
-6.75393e-07
-1.8753e-07
-5.01493e-07
-8.12295e-07
-1.0354e-06
-1.16842e-06
-3.55291e-07
-7.87006e-07
-1.12406e-06
-1.35643e-06
-1.49379e-06
-5.17119e-07
-1.00341e-06
-1.3442e-06
-1.578e-06
-1.71746e-06
-6.42779e-07
-1.14432e-06
-1.48223e-06
-1.71413e-06
-1.85361e-06
-1.90001e-06
-7.02255e-07
-1.20336e-06
-1.53459e-06
-1.7622e-06
-1.89993e-06
-1.94631e-06
-6.75667e-07
1.06912e-07
-1.16849e-06
9.36136e-08
-1.49372e-06
-1.71737e-06
-1.85356e-06
-1.89996e-06
-5.573e-07
-1.03463e-06
-4.04691e-08
-1.35645e-06
-1.57798e-06
-1.71411e-06
-1.76223e-06
-3.89636e-07
-8.10705e-07
-5.24651e-08
-1.12408e-06
-1.34418e-06
-1.4822e-06
-1.5346e-06
-1.99037e-07
-4.98316e-07
-6.06201e-08
-7.87006e-07
-1.00339e-06
-1.14429e-06
-1.20335e-06
-6.14098e-08
-1.8557e-07
-6.65289e-08
-3.55304e-07
-5.17188e-07
-6.42872e-07
-7.02311e-07
)
;
    }
    procBoundary7to9
    {
        type            processor;
        value           nonuniform List<scalar> 
59
(
-7.01968e-07
-6.42535e-07
-5.16864e-07
-3.5518e-07
-1.87485e-07
-6.21009e-08
-1.20332e-06
-1.14432e-06
-1.00344e-06
-7.86919e-07
-5.01417e-07
-2.01019e-07
-1.53468e-06
-1.48231e-06