/*--------------------------------*- C++ -*----------------------------------*\
| =========                 |                                                 |
| \\      /  F ield         | OpenFOAM: The Open Source CFD Toolbox           |
|  \\    /   O peration     | Version:  2212                                  |
|   \\  /    A nd           | Website:  www.openfoam.com                      |
|    \\/     M anipulation  |                                                 |
\*---------------------------------------------------------------------------*/
FoamFile
{
    version     2.0;
    format      ascii;
    arch        "LSB;label=32;scalar=64";
    class       volScalarField;
    location    "2.5";
    object      k;
}
// * * * * * * * * * * * * * * * * * * * * * * * * * * * * * * * * * * * * * //

dimensions      [0 2 -2 0 0 0 0];

internalField   nonuniform List<scalar> 
680
(
0.00443087
0.00416588
0.00394439
0.00376544
0.00366079
0.00356017
0.00545471
0.00495614
0.00454378
0.00420425
0.00394437
0.00376907
0.00629033
0.00568746
0.00518195
0.00475667
0.00440079
0.00411972
0.00703208
0.00633078
0.00573915
0.0052364
0.00480843
0.00447414
0.00742602
0.00667679
0.0060421
0.00549944
0.00503531
0.00467945
0.00742474
0.00667462
0.00603859
0.00549378
0.00502523
0.00465028
0.00786868
0.00702934
0.00632638
0.00573218
0.00522535
0.00479232
0.00446287
0.00701077
0.00628772
0.00568336
0.00517549
0.00474643
0.00438509
0.00409987
0.00606365
0.00545337
0.0049538
0.0045395
0.00419594
0.00392758
0.00374451
0.00474833
0.00443082
0.00416581
0.00394431
0.00376533
0.00366068
0.00355996
0.00545344
0.00495392
0.00453963
0.00419608
0.00392775
0.0037448
0.0102715
0.00908571
0.00809301
0.00725637
0.00656032
0.00588676
0.0126189
0.0111512
0.00992301
0.00888688
0.00800934
0.00725971
0.0142408
0.0125739
0.0111743
0.00998914
0.00897741
0.00810827
0.0150841
0.0133134
0.0118234
0.0105581
0.00947411
0.0085326
0.0150825
0.0133108
0.0118194
0.0105522
0.0094653
0.00851716
0.0162421
0.0142373
0.0125685
0.0111661
0.00997694
0.0089592
0.00807205
0.014386
0.0126162
0.0111471
0.00991681
0.00887761
0.00799651
0.0072409
0.0117011
0.0102714
0.00908553
0.00809278
0.00725608
0.00655993
0.00588615
0.00606448
0.00545466
0.00495606
0.00454366
0.00420409
0.00394413
0.0037687
0.00628782
0.00568348
0.00517559
0.00474652
0.00438521
0.00410005
0.0126164
0.0111473
0.009917
0.00887779
0.00799673
0.0072413
0.0165886
0.0146333
0.0129935
0.0116067
0.0104218
0.00936404
0.0191828
0.0169165
0.0150124
0.0133992
0.0120189
0.0108142
0.020506
0.0180839
0.0160456
0.0143155
0.0128312
0.0115242
0.0205054
0.0180831
0.0160444
0.0143141
0.0128301
0.0115278
0.0219026
0.0191817
0.0169149
0.01501
0.0133959
0.0120139
0.0108006
0.0189409
0.0165886
0.0146332
0.0129934
0.0116066
0.0104216
0.0093637
0.0143878
0.0126189
0.0111512
0.00992293
0.00888672
0.00800908
0.00725925
0.00701243
0.00629036
0.00568749
0.00518195
0.00475665
0.00440073
0.00411949
0.00702945
0.00632647
0.00573225
0.00522539
0.00479234
0.00446291
0.0142375
0.0125686
0.0111662
0.00997698
0.00895917
0.00807194
0.0191817
0.0169149
0.0150101
0.0133959
0.0120139
0.0108007
0.0224677
0.019816
0.0175825
0.015686
0.0140577
0.0126235
0.024135
0.0212948
0.0188977
0.0168581
0.0151006
0.0135309
0.0241349
0.0212947
0.0188976
0.0168583
0.0151027
0.0135455
0.0256405
0.0224677
0.019816
0.0175825
0.0156859
0.0140576
0.0126233
0.0219034
0.0191828
0.0169165
0.0150123
0.0133991
0.0120187
0.0108139
0.0162444
0.0142409
0.0125739
0.0111743
0.0099891
0.0089773
0.00810809
0.00787044
0.00703217
0.00633086
0.00573921
0.00523645
0.00480847
0.00447411
0.00742471
0.0066746
0.00603856
0.00549372
0.00502516
0.00465037
0.0150824
0.0133107
0.0118193
0.010552
0.00946508
0.00851677
0.0205054
0.018083
0.0160443
0.014314
0.01283
0.0115276
0.0241349
0.0212947
0.0188976
0.0168583
0.0151027
0.0135455
0.0259743
0.0229319
0.020358
0.0181638
0.0162707
0.0145884
0.0259743
0.0229319
0.0203579
0.0181638
0.0162707
0.0145884
0.0275247
0.024135
0.0212948
0.0188977
0.0168581
0.0151006
0.0135309
0.0234082
0.020506
0.0180839
0.0160455
0.0143154
0.0128311
0.0115241
0.017209
0.0150842
0.0133135
0.0118235
0.0105581
0.00947409
0.00853264
0.00831909
0.0074261
0.00667686
0.00604217
0.00549951
0.00503539
0.00467958
0.00742601
0.00667677
0.00604207
0.00549938
0.00503523
0.00467937
0.0150841
0.0133134
0.0118234
0.010558
0.0094739
0.00853223
0.020506
0.0180839
0.0160455
0.0143155
0.0128311
0.011524
0.024135
0.0212948
0.0188977
0.0168581
0.0151006
0.0135309
0.0259743
0.0229319
0.020358
0.0181638
0.0162707
0.0145884
0.0259743
0.0229319
0.020358
0.0181638
0.0162707
0.0145884
0.0275246
0.0241349
0.0212947
0.0188976
0.0168583
0.0151027
0.0135456
0.0234078
0.0205053
0.018083
0.0160443
0.014314
0.0128301
0.0115279
0.0172078
0.0150824
0.0133107
0.0118194
0.0105521
0.00946532
0.00851721
0.00831823
0.00742469
0.0066746
0.00603858
0.00549378
0.00502528
0.00465062
0.00703209
0.00633078
0.00573914
0.00523639
0.00480842
0.00447416
0.0142408
0.0125739
0.0111743
0.00998911
0.00897737
0.00810837
0.0191828
0.0169165
0.0150124
0.0133992
0.0120189
0.0108143
0.0224677
0.019816
0.0175826
0.0156861
0.0140578
0.0126237
0.0241349
0.0212947
0.0188976
0.0168583
0.0151027
0.0135457
0.024135
0.0212948
0.0188977
0.0168581
0.0151006
0.0135309
0.0256405
0.0224677
0.019816
0.0175825
0.015686
0.0140577
0.0126235
0.0219026
0.0191817
0.0169149
0.0150101
0.0133959
0.012014
0.0108008
0.0162421
0.0142373
0.0125685
0.0111661
0.00997702
0.00895935
0.00807231
0.00786869
0.00702934
0.00632638
0.00573218
0.00522536
0.00479237
0.00446317
0.00629034
0.00568748
0.00518199
0.00475674
0.00440086
0.00411988
0.012619
0.0111513
0.0099231
0.00888706
0.00800955
0.00726017
0.0165887
0.0146333
0.0129936
0.0116069
0.010422
0.00936438
0.0191818
0.016915
0.0150102
0.0133961
0.0120141
0.0108009
0.0205054
0.0180831
0.0160444
0.0143141
0.0128302
0.0115278
0.020506
0.0180839
0.0160455
0.0143155
0.0128311
0.0115239
0.0219034
0.0191828
0.0169165
0.0150124
0.0133991
0.0120188
0.010814
0.018941
0.0165886
0.0146333
0.0129935
0.0116067
0.0104218
0.0093641
0.0143861
0.0126163
0.0111472
0.00991691
0.00887776
0.00799672
0.00724121
0.00701079
0.00628774
0.00568338
0.00517551
0.00474647
0.00438517
0.00410009
0.00545474
0.00495619
0.00454385
0.00420436
0.00394454
0.00376941
0.0102716
0.00908583
0.0080932
0.00725665
0.00656069
0.00588748
0.0126164
0.0111474
0.00991715
0.008878
0.00799704
0.00724178
0.0142375
0.0125687
0.0111663
0.0099771
0.00895937
0.00807221
0.0150824
0.0133107
0.0118194
0.0105521
0.00946513
0.0085168
0.015084
0.0133133
0.0118233
0.010558
0.00947389
0.00853218
0.0162444
0.0142409
0.0125739
0.0111743
0.00998915
0.00897736
0.00810814
0.0143879
0.012619
0.0111514
0.00992313
0.00888705
0.00800948
0.00725993
0.0117011
0.0102715
0.00908568
0.00809301
0.00725643
0.00656038
0.00588699
0.00606368
0.00545342
0.00495387
0.00453959
0.00419608
0.0039278
0.00374502
0.0044309
0.00416591
0.00394443
0.0037655
0.00366086
0.00356039
0.00545349
0.00495399
0.00453973
0.00419622
0.00392793
0.0037451
0.00628786
0.00568352
0.00517563
0.00474657
0.00438527
0.00410014
0.00702946
0.00632648
0.00573225
0.00522538
0.00479232
0.00446288
0.0074247
0.00667459
0.00603854
0.00549369
0.00502511
0.0046503
0.00742598
0.00667675
0.00604206
0.00549938
0.00503524
0.00467938
0.00787045
0.00703218
0.00633087
0.00573922
0.00523647
0.00480851
0.00447426
0.00701248
0.00629042
0.00568758
0.00518208
0.00475682
0.00440094
0.00411995
0.00606453
0.00545474
0.00495616
0.00454382
0.00420432
0.00394448
0.00376923
0.00474836
0.00443087
0.00416588
0.0039444
0.00376547
0.00366087
0.0035603
0.00488323
0.00416736
0.0035423
0.00317797
0.00395389
0.00351367
0.00314948
0.00288347
0.00377869
0.00350108
0.00325206
0.00424536
0.00374628
0.00328953
0.00293787
0.00419456
0.00377957
0.00341523
0.00312392
0.00564738
0.00509812
0.00464721
0.0041816
0.00372685
0.00337418
0.00543481
0.00499327
0.00455697
0.00755682
0.00681108
0.00618597
0.00405299
0.00374189
0.00346735
0.00676743
0.00608393
0.00551672
0.00867925
0.0079436
0.00727061
)
;

boundaryField
{
    inlet
    {
        type            fixedValue;
        value           nonuniform List<scalar> 0();
    }
    ami1
    {
        type            cyclicAMI;
        value           nonuniform List<scalar> 
100
(
0.00391967
0.00404775
0.00412367
0.00445489
0.00475353
0.00461546
0.00455495
0.00404763
0.00387608
0.00391939
0.00387636
0.00532009
0.00693013
0.00771139
0.00808762
0.00807456
0.00760914
0.00696365
0.00531961
0.00404707
0.00404788
0.00696389
0.0087821
0.0102559
0.0108821
0.0109084
0.0101954
0.00878173
0.00692984
0.00412265
0.00455524
0.007609
0.0101956
0.0119366
0.012735
0.0127811
0.0119362
0.0102559
0.00771223
0.00445507
0.00461593
0.00807405
0.0109083
0.0127814
0.0137696
0.0137695
0.0127348
0.0108823
0.00808735
0.00475367
0.00475361
0.00808723
0.0108817
0.012735
0.0137696
0.0137696
0.0127814
0.0109089
0.00807388
0.00461621
0.00445495
0.00771186
0.0102558
0.011937
0.0127815
0.012735
0.0119366
0.0101959
0.00761009
0.00455635
0.00412377
0.00693046
0.00878225
0.0101958
0.0109085
0.0108818
0.0102558
0.0087822
0.00696403
0.00404812
0.00404874
0.00532097
0.00696453
0.00760944
0.00807425
0.00808727
0.00771134
0.00693031
0.00532042
0.00387749
0.00392026
0.00387669
0.00404806
0.00455529
0.00461586
0.00475361
0.00445502
0.00412383
0.00404789
0.00392008
)
;
    }
    walls
    {
        type            kqRWallFunction;
        value           nonuniform List<scalar> 
283
(
0.00474833
0.00606448
0.00701243
0.00787044
0.00831909
0.00831823
0.00786869
0.00701079
0.00606368
0.00474836
0.00443082
0.00545466
0.00629036
0.00703217
0.0074261
0.00742469
0.00702934
0.00628774
0.00545342
0.00443087
0.00416581
0.00495606
0.00568749
0.00633086
0.00667686
0.0066746
0.00632638
0.00568338
0.00495387
0.00416588
0.00394431
0.00454366
0.00518195
0.00573921
0.00604217
0.00603858
0.00573218
0.00517551
0.00453959
0.0039444
0.00376533
0.00420409
0.00475665
0.00523645
0.00549951
0.00549378
0.00522536
0.00474647
0.00419608
0.00376547
0.00366068
0.00394413
0.00440073
0.00480847
0.00503539
0.00502528
0.00479237
0.00438517
0.0039278
0.00366087
0.00355996
0.0037687
0.00411949
0.00447411
0.00467958
0.00465062
0.00446317
0.00410009
0.00374502
0.0035603
0.00786868
0.00701077
0.00606365
0.00474833
0.00443087
0.00545471
0.00629033
0.00703208
0.00742602
0.00742474
0.00702934
0.00628772
0.00545337
0.00443082
0.00416588
0.00495614
0.00568746
0.00633078
0.00667679
0.00667462
0.00632638
0.00568336
0.0049538
0.00416581
0.00394439
0.00454378
0.00518195
0.00573915
0.0060421
0.00603859
0.00573218
0.00517549
0.0045395
0.00394431
0.00376544
0.00420425
0.00475667
0.0052364
0.00549944
0.00549378
0.00522535
0.00474643
0.00419594
0.00376533
0.00366079
0.00394437
0.00440079
0.00480843
0.00503531
0.00502523
0.00479232
0.00438509
0.00392758
0.00366068
0.00356017
0.00376907
0.00411972
0.00447414
0.00467945
0.00465028
0.00446287
0.00409987
0.00374451
0.00355996
0.00443087
0.00545344
0.00628782
0.00702945
0.00742471
0.00742601
0.00703209
0.00629034
0.00545474
0.0044309
0.00416588
0.00495392
0.00568348
0.00632647
0.0066746
0.00667677
0.00633078
0.00568748
0.00495619
0.00416591
0.00394439
0.00453963
0.00517559
0.00573225
0.00603856
0.00604207
0.00573914
0.00518199
0.00454385
0.00394443
0.00376544
0.00419608
0.00474652
0.00522539
0.00549372
0.00549938
0.00523639
0.00475674
0.00420436
0.0037655
0.00366079
0.00392775
0.00438521
0.00479234
0.00502516
0.00503523
0.00480842
0.00440086
0.00394454
0.00366086
0.00356017
0.0037448
0.00410005
0.00446291
0.00465037
0.00467937
0.00447416
0.00411988
0.00376941
0.00356039
0.00787045
0.00701248
0.00606453
0.00474836
0.0044309
0.00545349
0.00628786
0.00702946
0.0074247
0.00742598
0.00703218
0.00629042
0.00545474
0.00443087
0.00416591
0.00495399
0.00568352
0.00632648
0.00667459
0.00667675
0.00633087
0.00568758
0.00495616
0.00416588
0.00394443
0.00453973
0.00517563
0.00573225
0.00603854
0.00604206
0.00573922
0.00518208
0.00454382
0.0039444
0.0037655
0.00419622
0.00474657
0.00522538
0.00549369
0.00549938
0.00523647
0.00475682
0.00420432
0.00376547
0.00366086
0.00392793
0.00438527
0.00479232
0.00502511
0.00503524
0.00480851
0.00440094
0.00394448
0.00366087
0.00356039
0.0037451
0.00410014
0.00446288
0.0046503
0.00467938
0.00447426
0.00411995
0.00376923
0.0035603
0.00488323
0.00395389
0.00377869
0.00416736
0.00351367
0.00350108
0.0035423
0.00314948
0.00325206
0.00317797
0.00288347
0.00488323
0.00424536
0.0041816
0.00405299
0.00416736
0.00374628
0.00372685
0.00374189
0.0035423
0.00328953
0.00337418
0.00346735
0.00317797
0.00293787
)
;
    }
    ami2
    {
        type            cyclicAMI;
        value           nonuniform List<scalar> 
12
(
0.00473177
0.0041659
0.00393492
0.0044556
0.00439857
0.00592673
0.00439039
0.00563519
0.00800934
0.00421874
0.0071577
0.00906328
)
;
    }
    outlet
    {
        type            zeroGradient;
    }
    procBoundary2to0
    {
        type            processor;
        value           nonuniform List<scalar> 
28
(
0.00295751
0.00271032
0.00305394
0.0039861
0.00365494
0.00305394
0.00340104
0.0027015
0.00306718
0.00292228
0.00427662
0.00420015
0.00677138
0.00610535
0.00427662
0.00554856
0.00306718
0.00420015
0.0088207
0.00802673
0.0056556
0.00732525
0.00321897
0.00504077
0.0104429
0.00948475
0.0066703
0.00865071
)
;
    }
    procBoundary2to1
    {
        type            processor;
        value           nonuniform List<scalar> 9(0.0041309 0.00381039 0.00353969 0.00728035 0.00661507 0.00602888 0.00972563 0.00881009 0.00802306);
    }
    procBoundary2to3
    {
        type            processor;
        value           nonuniform List<scalar> 
110
(
0.00474831
0.00606448
0.00701254
0.00787058
0.00831918
0.00831825
0.00831825
0.00888019
0.0078847
0.00680586
0.00512458
0.00606354
0.011701
0.014388
0.0162446
0.0172092
0.0172079
0.0172079
0.0186754
0.0165383
0.013443
0.00680639
0.00701068
0.0143859
0.0189409
0.0219034
0.0234083
0.0234078
0.0234078
0.025199
0.021799
0.0165398
0.00788596
0.00786857
0.0162419
0.0219026
0.0256405
0.0275247
0.0275246
0.0275246
0.0294677
0.0251996
0.0186773
0.00888156
0.00831819
0.0172078
0.0234077
0.0275246
0.0295945
0.0295945
0.0295945
0.0316003
0.0269168
0.0197854
0.00939396
0.00831916
0.0172091
0.0234082
0.0275247
0.0295945
0.0295945
0.0295945
0.0316002
0.0269164
0.0197845
0.00939331
0.00787058
0.0162447
0.0219035
0.0256405
0.0275246
0.0275247
0.0275247
0.0294677
0.025199
0.0186754
0.0088802
0.00701257
0.0143881
0.018941
0.0219026
0.0234078
0.0234082
0.0234082
0.0251996
0.021799
0.0165383
0.00788471
0.00606452
0.0117011
0.0143859
0.016242
0.0172078
0.017209
0.017209
0.0186773
0.0165399
0.0134431
0.0068059
0.00474833
0.00606358
0.0070107
0.00786857
0.00831818
0.00831913
0.00831913
0.00888159
0.00788601
0.00680644
0.0051246
)
;
    }
}


// ************************************************************************* //
