/*--------------------------------*- C++ -*----------------------------------*\
| =========                 |                                                 |
| \\      /  F ield         | OpenFOAM: The Open Source CFD Toolbox           |
|  \\    /   O peration     | Version:  2212                                  |
|   \\  /    A nd           | Website:  www.openfoam.com                      |
|    \\/     M anipulation  |                                                 |
\*---------------------------------------------------------------------------*/
FoamFile
{
    version     2.0;
    format      ascii;
    arch        "LSB;label=32;scalar=64";
    class       volScalarField;
    location    "2.5";
    object      p;
}
// * * * * * * * * * * * * * * * * * * * * * * * * * * * * * * * * * * * * * //

dimensions      [0 2 -2 0 0 0 0];

internalField   nonuniform List<scalar> 
680
(
0.00598979
0.00582708
0.00565842
0.00547877
0.00523297
0.0047542
0.0059957
0.00582882
0.00565306
0.00545493
0.00519023
0.00474385
0.00598577
0.00582288
0.00565311
0.00547115
0.00527414
0.0050554
0.0060066
0.00585667
0.00570901
0.00556469
0.00542841
0.00531209
0.00601962
0.00588394
0.00575928
0.00564934
0.00556029
0.00550467
0.00602929
0.00590097
0.00578885
0.00570015
0.00565115
0.00566632
0.00617071
0.00602731
0.00589199
0.00576929
0.00566573
0.00559812
0.00558935
0.00615736
0.00600473
0.00585385
0.00570424
0.00555711
0.00542515
0.00533346
0.00616607
0.00600724
0.00584744
0.00568403
0.00550888
0.00529216
0.00495606
0.0061498
0.00598986
0.00582714
0.00565849
0.00547886
0.00523308
0.00475433
0.00600717
0.00584738
0.00568395
0.00550877
0.00529201
0.00495586
0.0060316
0.00586167
0.00568505
0.00549732
0.00531289
0.00521181
0.00599915
0.00583037
0.00565865
0.00548302
0.00531069
0.00516433
0.00601238
0.00585325
0.00569529
0.00553942
0.00538809
0.0052448
0.00601943
0.00587436
0.00573678
0.00560665
0.00548641
0.00537989
0.00602786
0.00588753
0.00575644
0.00563398
0.00552208
0.00542325
0.0061839
0.00602959
0.00588056
0.00573769
0.00560321
0.00548528
0.00539206
0.00617392
0.00601012
0.00584659
0.00568117
0.00551122
0.00533582
0.00515251
0.00619935
0.00603165
0.00586174
0.00568512
0.00549742
0.005313
0.00521193
0.00615898
0.00599576
0.00582888
0.00565312
0.00545501
0.00519032
0.00474392
0.00600467
0.00585379
0.00570416
0.00555698
0.00542496
0.00533318
0.00601008
0.00584653
0.0056811
0.00551113
0.00533571
0.00515236
0.00596228
0.00579794
0.00563415
0.00547302
0.00532155
0.0051796
0.0059496
0.00579016
0.00563183
0.00547461
0.00532001
0.00516416
0.00594712
0.00579604
0.00564796
0.00550195
0.00535974
0.00521476
0.00595082
0.00580115
0.00565427
0.00550842
0.00536272
0.00520649
0.00611618
0.00595712
0.00580124
0.00564773
0.00549633
0.0053479
0.00519348
0.00612788
0.0059623
0.00579798
0.00563419
0.00547305
0.00532158
0.00517965
0.00616669
0.00599917
0.00583041
0.0056587
0.00548307
0.00531073
0.00516435
0.00614578
0.0059858
0.00582292
0.00565315
0.00547119
0.00527416
0.00505539
0.00602725
0.00589192
0.00576919
0.0056656
0.00559792
0.00558902
0.00602955
0.0058805
0.00573761
0.00560312
0.0054852
0.00539198
0.0059571
0.00580121
0.00564769
0.0054963
0.00534789
0.0051935
0.00592345
0.00576692
0.0056117
0.00545739
0.00530449
0.00514436
0.00591049
0.00575624
0.00560374
0.00545304
0.00530592
0.00515276
0.00591097
0.00575665
0.00560373
0.00545194
0.00530227
0.00514451
0.00608228
0.00592346
0.00576694
0.00561172
0.00545741
0.00530451
0.00514437
0.00611118
0.00594963
0.00579019
0.00563186
0.00547464
0.00532005
0.00516423
0.006173
0.0060124
0.00585328
0.00569532
0.00553945
0.00538812
0.00524482
0.00615838
0.0060066
0.00585668
0.00570901
0.00556468
0.00542839
0.00531203
0.00602923
0.0059009
0.00578875
0.00570001
0.00565094
0.00566599
0.00602782
0.00588748
0.00575638
0.00563393
0.00552206
0.00542335
0.0059508
0.00580112
0.00565425
0.00550842
0.00536275
0.0052066
0.00591096
0.00575664
0.00560372
0.00545194
0.00530228
0.00514454
0.00589104
0.00573608
0.00558217
0.00542873
0.00527624
0.00511501
0.00589104
0.00573609
0.00558217
0.00542874
0.00527624
0.005115
0.00606755
0.0059105
0.00575626
0.00560376
0.00545306
0.00530595
0.00515279
0.00610335
0.00594714
0.00579606
0.00564798
0.00550197
0.00535978
0.00521481
0.00617097
0.00601944
0.00587436
0.00573678
0.00560666
0.00548644
0.00537995
0.00616261
0.0060196
0.00588392
0.00575924
0.00564929
0.00556021
0.00550457
0.00601957
0.00588387
0.00575918
0.00564921
0.00556009
0.00550435
0.0060194
0.00587431
0.00573672
0.00560659
0.00548637
0.00537991
0.0059471
0.00579602
0.00564794
0.00550193
0.00535973
0.00521478
0.00591048
0.00575624
0.00560373
0.00545304
0.00530592
0.00515277
0.00589104
0.00573609
0.00558218
0.00542874
0.00527625
0.00511502
0.00589104
0.00573609
0.00558218
0.00542875
0.00527626
0.00511502
0.00606795
0.00591098
0.00575666
0.00560375
0.00545196
0.00530231
0.00514457
0.00610588
0.00595082
0.00580116
0.0056543
0.00550848
0.00536283
0.00520668
0.00617635
0.00602785
0.00588752
0.00575643
0.005634
0.00552219
0.00542357
0.00616819
0.00602926
0.00590092
0.00578877
0.00570003
0.00565098
0.00566607
0.00600656
0.00585662
0.00570893
0.00556458
0.00542825
0.00531185
0.00601235
0.00585322
0.00569526
0.00553938
0.00538805
0.00524475
0.00594959
0.00579015
0.00563182
0.00547459
0.00531997
0.00516407
0.00592345
0.00576692
0.0056117
0.00545739
0.00530448
0.00514431
0.00591097
0.00575665
0.00560374
0.00545195
0.0053023
0.00514457
0.0059105
0.00575626
0.00560376
0.00545307
0.00530596
0.00515282
0.00608228
0.00592346
0.00576694
0.00561173
0.00545742
0.00530454
0.00514441
0.00611617
0.00595711
0.00580124
0.00564774
0.00549638
0.00534803
0.00519375
0.00618388
0.00602956
0.00588052
0.00573764
0.00560318
0.00548534
0.00539233
0.00617069
0.00602727
0.00589192
0.00576918
0.00566556
0.00559787
0.00558891
0.00598575
0.00582285
0.00565307
0.00547111
0.00527409
0.00505538
0.00599914
0.00583037
0.00565866
0.00548305
0.00531075
0.00516441
0.0059623
0.00579797
0.00563418
0.00547305
0.00532158
0.00517959
0.00595712
0.00580123
0.00564772
0.00549632
0.00534789
0.00519344
0.00595082
0.00580115
0.00565428
0.00550845
0.00536279
0.00520664
0.00594713
0.00579605
0.00564797
0.00550196
0.00535978
0.00521487
0.00611117
0.00594961
0.00579017
0.00563184
0.00547462
0.00532003
0.0051642
0.00612787
0.00596229
0.00579797
0.00563418
0.00547305
0.00532164
0.00517979
0.0061739
0.00601008
0.00584653
0.00568109
0.00551112
0.00533571
0.00515241
0.00615734
0.00600469
0.00585378
0.00570412
0.0055569
0.00542478
0.00533275
0.00599569
0.0058288
0.00565304
0.00545493
0.00519024
0.0047439
0.0060316
0.00586168
0.00568506
0.00549737
0.00531299
0.00521203
0.0060101
0.00584655
0.00568113
0.00551119
0.00533579
0.00515244
0.00602958
0.00588053
0.00573765
0.00560316
0.00548524
0.005392
0.00602786
0.00588752
0.00575642
0.00563396
0.00552209
0.00542336
0.00601943
0.00587435
0.00573676
0.00560663
0.0054864
0.00537994
0.00617299
0.00601239
0.00585325
0.00569528
0.00553939
0.00538805
0.00524476
0.00616668
0.00599914
0.00583038
0.00565866
0.00548302
0.0053107
0.00516433
0.00619933
0.00603161
0.00586168
0.00568504
0.0054973
0.00531283
0.00521169
0.00616605
0.0060072
0.00584738
0.00568393
0.00550872
0.00529188
0.00495551
0.00598979
0.00582707
0.00565842
0.00547878
0.005233
0.00475429
0.00600717
0.00584738
0.00568396
0.0055088
0.00529207
0.00495601
0.00600468
0.0058538
0.00570418
0.00555702
0.00542503
0.00533333
0.00602728
0.00589195
0.00576923
0.00566564
0.00559798
0.00558911
0.00602927
0.00590094
0.00578879
0.00570006
0.005651
0.00566607
0.00601961
0.00588391
0.00575923
0.00564925
0.00556014
0.00550441
0.00615837
0.00600659
0.00585665
0.00570897
0.00556461
0.00542827
0.00531185
0.00614576
0.00598577
0.00582287
0.0056531
0.00547112
0.00527408
0.0050553
0.00615896
0.00599572
0.00582882
0.00565305
0.00545492
0.00519021
0.00474382
0.00614978
0.00598982
0.00582708
0.00565841
0.00547875
0.0052329
0.00475408
0.00566396
0.00495187
0.00447184
0.00435708
0.00568855
0.00502613
0.00456066
0.00439243
0.00536558
0.0050285
0.00469815
0.00568127
0.00502273
0.00455301
0.00438014
0.00543639
0.00501194
0.00466667
0.00445427
0.00518638
0.00493802
0.00470058
0.00544874
0.00505753
0.0046996
0.00523127
0.00499249
0.00475768
0.00516601
0.00496002
0.00475454
0.00519442
0.00498362
0.00473943
0.0051308
0.00495139
0.00475875
0.00501524
0.0048409
0.00469234
)
;

boundaryField
{
    inlet
    {
        type            zeroGradient;
    }
    ami1
    {
        type            cyclicAMI;
        value           nonuniform List<scalar> 
100
(
0.00484901
0.0048321
0.00504658
0.00527577
0.00545176
0.00556772
0.00551896
0.00533031
0.00502107
0.00484914
0.00502084
0.00506264
0.00502904
0.00513234
0.00523117
0.00527672
0.00522084
0.00503837
0.00506276
0.00483219
0.00532997
0.0050382
0.00501454
0.00504279
0.0050841
0.00507853
0.00505549
0.00501458
0.00502907
0.00504662
0.00551854
0.00522076
0.00505557
0.00502005
0.00502356
0.00501735
0.00502005
0.00504281
0.00513234
0.00527568
0.00556727
0.00527694
0.00507874
0.0050174
0.00499583
0.00499582
0.0050236
0.00508417
0.00523126
0.00545161
0.00545135
0.00523128
0.00508418
0.00502358
0.00499584
0.00499584
0.00501741
0.00507874
0.00527709
0.00556741
0.00527542
0.0051323
0.00504268
0.00501999
0.00501742
0.00502364
0.00502008
0.00505568
0.00522105
0.00551856
0.00504652
0.0050291
0.00501448
0.00505541
0.00507876
0.00508427
0.00504282
0.00501467
0.00503832
0.00532964
0.00483222
0.0050629
0.00503824
0.00522075
0.00527694
0.00523133
0.00513234
0.00502907
0.00506262
0.00502051
0.00484926
0.00502112
0.00533017
0.00551865
0.00556735
0.0054514
0.00527542
0.00504646
0.00483211
0.00484897
)
;
    }
    walls
    {
        type            zeroGradient;
    }
    ami2
    {
        type            cyclicAMI;
        value           nonuniform List<scalar> 
12
(
0.00565055
0.0056082
0.00533753
0.00563121
0.00554109
0.00533469
0.00543898
0.0053714
0.00529306
0.00522091
0.00523706
0.00517549
)
;
    }
    outlet
    {
        type            fixedValue;
        value           nonuniform List<scalar> 0();
    }
    procBoundary2to0
    {
        type            processor;
        value           nonuniform List<scalar> 
28
(
0.00426175
0.00427383
0.00448495
0.00506409
0.00494273
0.00448495
0.00474511
0.00425882
0.00447024
0.00429414
0.00449274
0.00454368
0.00497714
0.00481904
0.00449274
0.00466129
0.00447024
0.00454368
0.00496997
0.00480518
0.00454769
0.0046638
0.00453376
0.0045661
0.00495063
0.00478175
0.00452421
0.00463793
)
;
    }
    procBoundary2to1
    {
        type            processor;
        value           nonuniform List<scalar> 9(0.0049954 0.00488707 0.00472115 0.00499461 0.00483211 0.00468173 0.00496679 0.00479542 0.00464834);
    }
    procBoundary2to3
    {
        type            processor;
        value           nonuniform List<scalar> 
110
(
0.00614976
0.00615894
0.00614576
0.00615838
0.00616262
0.0061682
0.0061682
0.00631918
0.0063122
0.00632492
0.00630811
0.00616603
0.00619931
0.00616667
0.00617299
0.00617097
0.00617636
0.00617636
0.00634302
0.00633968
0.00636686
0.00632065
0.00615732
0.00617389
0.00612787
0.00611116
0.00610333
0.00610588
0.00610588
0.0062793
0.00629597
0.00633502
0.00630505
0.00617067
0.00618387
0.00611616
0.00608227
0.00606754
0.00606794
0.00606794
0.00624429
0.00627597
0.00633582
0.0063117
0.00616817
0.00617633
0.00610586
0.00606794
0.0060482
0.00604821
0.00604821
0.00622811
0.00626561
0.00632701
0.0063102
0.00616258
0.00617094
0.00610332
0.00606754
0.00604821
0.00604821
0.00604821
0.00622841
0.00626736
0.00633064
0.00631354
0.00615835
0.00617297
0.00611115
0.00608228
0.00606795
0.00606755
0.00606755
0.00624429
0.0062793
0.006343
0.00631917
0.00614574
0.00616667
0.00612788
0.00611618
0.00610589
0.00610334
0.00610334
0.00627597
0.00629596
0.00633967
0.00631219
0.00615894
0.00619932
0.0061739
0.00618389
0.00617636
0.00617097
0.00617097
0.00633581
0.00633501
0.00636684
0.00632491
0.00614976
0.00616604
0.00615733
0.00617069
0.0061682
0.00616262
0.00616262
0.0063117
0.00630505
0.00632063
0.0063081
)
;
    }
}


// ************************************************************************* //
