/*--------------------------------*- C++ -*----------------------------------*\
| =========                 |                                                 |
| \\      /  F ield         | OpenFOAM: The Open Source CFD Toolbox           |
|  \\    /   O peration     | Version:  2212                                  |
|   \\  /    A nd           | Website:  www.openfoam.com                      |
|    \\/     M anipulation  |                                                 |
\*---------------------------------------------------------------------------*/
FoamFile
{
    version     2.0;
    format      ascii;
    arch        "LSB;label=32;scalar=64";
    class       volScalarField;
    location    "2.3";
    object      p;
}
// * * * * * * * * * * * * * * * * * * * * * * * * * * * * * * * * * * * * * //

dimensions      [0 2 -2 0 0 0 0];

internalField   nonuniform List<scalar> 
678
(
0.000610928
0.000500971
0.000390485
0.000278772
0.000168798
5.17636e-05
0.000606534
0.000497027
0.000386906
0.000275852
0.000166022
5.09441e-05
0.00060384
0.000494542
0.00038454
0.000273892
0.000164865
5.04209e-05
0.000493081
0.000383268
0.000273157
0.000164495
5.00175e-05
0.00049544
0.000384844
0.000274183
0.000165107
5.02736e-05
0.000389142
0.000277153
0.00016685
5.11539e-05
0.000392508
0.000280698
0.000169631
5.283e-05
0.000395548
0.000283379
0.000171279
5.38826e-05
0.000393443
0.000281319
0.000169086
5.29128e-05
0.000505131
0.000393758
0.000282209
0.00017038
5.35614e-05
0.000500764
0.000389934
0.00027878
0.000168738
5.16434e-05
0.000505201
0.00039432
0.000282157
0.000170288
5.35731e-05
0.000615833
0.000505288
0.00039446
0.000282501
0.000171575
5.41975e-05
0.000500956
0.000389702
0.000278398
0.000168822
5.30914e-05
0.000498728
0.00038764
0.000276884
0.000167325
5.31891e-05
0.000498896
0.000386697
0.000275401
0.000165767
5.33778e-05
0.000500439
0.000388097
0.0002764
0.000165886
5.40167e-05
0.000497994
0.000385988
0.000275056
0.000165192
5.40067e-05
0.000390701
0.000279432
0.000169319
5.51938e-05
0.000393373
0.000281155
0.000170284
5.41816e-05
0.00039455
0.000282565
0.000171327
5.40895e-05
0.000496571
0.00038608
0.000275653
0.000165824
5.08073e-05
0.000393254
0.000280983
0.000169017
5.29956e-05
0.000503648
0.000392239
0.000280524
0.000170247
5.41737e-05
0.000488132
0.000377603
0.000268584
0.000161048
5.25968e-05
0.000478664
0.000369842
0.000262457
0.000155884
5.3097e-05
0.000472017
0.000363663
0.000257096
0.000151765
5.29976e-05
0.000470787
0.000362477
0.000256219
0.0001511
5.36149e-05
0.00047041
0.000361828
0.000255821
0.000150946
5.34409e-05
0.000478798
0.00036902
0.000261545
0.000155266
5.35371e-05
0.000488159
0.000377904
0.000268607
0.000161099
5.25702e-05
0.000390571
0.000278534
0.000168414
5.30431e-05
0.000494107
0.000384259
0.000273769
0.000164478
5.03039e-05
0.000395096
0.000282745
0.000170842
5.38358e-05
0.000390088
0.000278996
0.000169029
5.50456e-05
0.000478762
0.000369171
0.000261712
0.000155258
5.35621e-05
0.000467399
0.0003602
0.000255396
0.000151384
5.58537e-05
0.000459288
0.000353691
0.000250862
0.000149021
5.68132e-05
0.000457497
0.000352482
0.000250152
0.000148783
5.7287e-05
0.000567222
0.000458307
0.000353092
0.000250588
0.000149067
5.7157e-05
0.000466769
0.000359564
0.000255371
0.000151794
5.60048e-05
0.000477921
0.000369063
0.000262451
0.000156458
5.30964e-05
0.000498635
0.000387419
0.000276318
0.000166744
5.29373e-05
0.000492529
0.000382541
0.000272201
0.000163506
4.98085e-05
0.00050294
0.000391762
0.000280031
0.000169168
5.26731e-05
0.000497144
0.000385275
0.000274785
0.000165208
5.39905e-05
0.000581102
0.000470322
0.000361925
0.0002559
0.000150928
5.34506e-05
0.000567236
0.000458785
0.000353602
0.000250813
0.00014906
5.7147e-05
0.000558124
0.000451313
0.00034843
0.000247938
0.000148925
5.93334e-05
0.000556168
0.000449877
0.000347584
0.000247619
0.000149107
6.00002e-05
0.00055794
0.000451652
0.000348902
0.000248218
0.000148986
5.93045e-05
0.00056792
0.000459561
0.000354397
0.000251603
0.000149641
5.70469e-05
0.000581635
0.000471414
0.000363203
0.000257404
0.000152531
5.3207e-05
0.000610817
0.000498346
0.000386203
0.000275164
0.000165628
5.31723e-05
0.000494293
0.000383343
0.000272595
0.000163789
4.99641e-05
0.000499772
0.000388256
0.000276536
0.000166449
5.09423e-05
0.000499064
0.000387133
0.000275956
0.000165566
5.38644e-05
0.000692109
0.000580571
0.000470228
0.000362109
0.00025612
0.00015121
5.3776e-05
0.000675655
0.000566047
0.000459253
0.00035456
0.000251569
0.000149605
5.75917e-05
0.000665273
0.00055675
0.000451856
0.000349414
0.000248653
0.000149555
6.00987e-05
0.000553931
0.00044905
0.000347382
0.000247679
0.000148826
6.04892e-05
0.000556239
0.00045076
0.000348606
0.000248284
0.000149411
6.00747e-05
0.00056579
0.000458516
0.000353936
0.000251218
0.000149402
5.74832e-05
0.000580516
0.000470762
0.000362641
0.000256711
0.000151776
5.38784e-05
0.000612243
0.000499827
0.000387647
0.000276324
0.000165939
5.39467e-05
0.000611104
0.000499253
0.000387339
0.000275397
0.000165402
5.07339e-05
0.000605099
0.000494188
0.000383424
0.000272865
0.000164105
5.00576e-05
0.0006104
0.000498082
0.000386122
0.000275071
0.000165469
5.31115e-05
0.000581652
0.00047199
0.000363789
0.000257643
0.000152538
5.31635e-05
0.000567977
0.000460616
0.000355685
0.000252523
0.000150195
5.72158e-05
0.000558159
0.000452359
0.000349741
0.000248866
0.000149414
5.94377e-05
0.000556457
0.000450979
0.000348811
0.000248437
0.0001495
6.00771e-05
0.000558139
0.000452255
0.000349657
0.00024883
0.000149381
5.94203e-05
0.000567076
0.000459524
0.000354679
0.00025172
0.000149667
5.72734e-05
0.000580909
0.000470908
0.000362718
0.000257023
0.000152149
5.38359e-05
0.000609831
0.000497098
0.000385323
0.00027496
0.000165434
5.405e-05
0.000613117
0.00050188
0.000390506
0.000278631
0.000167928
5.23736e-05
0.000601828
0.000491716
0.000381651
0.000271719
0.000163409
4.98484e-05
0.00060906
0.000497481
0.000386542
0.000275923
0.000166503
5.28712e-05
0.000588301
0.000478456
0.000369908
0.000262937
0.00015659
5.30407e-05
0.000576813
0.00046831
0.00036163
0.000257062
0.000153001
5.63518e-05
0.000567407
0.000459862
0.000354952
0.000251874
0.000149717
5.72466e-05
0.000566163
0.000458995
0.000354477
0.000251664
0.00014969
5.75405e-05
0.000568055
0.000460588
0.000355738
0.000252646
0.000150274
5.71887e-05
0.000576831
0.000467913
0.000361366
0.000257052
0.000153027
5.63368e-05
0.000588982
0.000478442
0.000369445
0.000262699
0.000156559
5.39614e-05
0.000612281
0.000500713
0.000389158
0.00027799
0.000168043
5.47086e-05
0.00061583
0.000504946
0.000393336
0.000280839
0.000169238
5.3293e-05
0.000603482
0.000493485
0.00038297
0.000272328
0.000163631
5.01203e-05
0.00061093
0.000499344
0.000387974
0.000276904
0.000167619
5.28794e-05
0.000598058
0.000486886
0.000376988
0.000268219
0.000160643
5.23539e-05
0.000588753
0.000478687
0.000369762
0.000262829
0.000156571
5.39394e-05
0.000581338
0.00047148
0.000363212
0.00025723
0.000152153
5.37964e-05
0.000581002
0.000471251
0.00036322
0.000257014
0.000151744
5.38254e-05
0.000581966
0.000472131
0.000363936
0.000257831
0.000152691
5.3185e-05
0.000588576
0.000478327
0.000369715
0.000262819
0.00015651
5.30197e-05
0.000598289
0.000487114
0.000377073
0.000268216
0.000160591
5.23524e-05
0.00061394
0.000502285
0.000390447
0.000278686
0.000168635
5.37201e-05
0.000614063
0.00050317
0.000391638
0.000279322
0.000167743
5.25628e-05
0.000605986
0.00049601
0.000385399
0.00027433
0.000164829
5.05937e-05
0.000614946
0.000503963
0.000392627
0.000280707
0.000170172
5.37791e-05
0.000613704
0.000501865
0.000390113
0.000278529
0.000168602
5.3747e-05
0.000611764
0.000500078
0.000388669
0.000277718
0.000167868
5.46522e-05
0.000609278
0.000496618
0.000384952
0.000274647
0.000165238
5.40317e-05
0.000611702
0.000499222
0.000387481
0.00027616
0.000165728
5.38826e-05
0.00061016
0.000497916
0.000386011
0.000274935
0.000165374
5.30847e-05
0.000608665
0.000497301
0.00038642
0.000275784
0.000166328
5.28256e-05
0.000610582
0.000499217
0.000387885
0.000276779
0.000167488
5.28486e-05
0.000615061
0.000504112
0.000392657
0.000280591
0.000170085
5.37535e-05
0.000614951
0.000504212
0.000392779
0.000280519
0.000169022
5.31387e-05
0.000610038
0.000499691
0.000388756
0.000277085
0.000167485
5.13378e-05
0.000614374
0.000503675
0.000392363
0.000280279
0.00016891
5.31032e-05
0.000836474
0.000724549
0.000613365
0.000502551
0.000391175
0.000279087
0.00016768
5.25707e-05
0.000725159
0.000614789
0.000504049
0.000392655
0.000280447
0.000169107
5.33119e-05
0.000722229
0.000611738
0.000500811
0.000389553
0.00027805
0.000167732
5.23549e-05
0.000609787
0.00049836
0.000386299
0.000274789
0.000165322
5.07372e-05
0.000603811
0.000493059
0.000382177
0.00027174
0.000163338
4.98877e-05
0.000600915
0.000490874
0.000380795
0.000270981
0.000162904
4.97326e-05
0.000602799
0.000492917
0.000382412
0.000271852
0.000163398
5.00964e-05
0.000605561
0.000495636
0.000385034
0.000273976
0.00016462
5.05519e-05
0.00061014
0.000499798
0.000388795
0.000277014
0.000167445
5.13485e-05
)
;

boundaryField
{
    inlet
    {
        type            zeroGradient;
    }
    ami1
    {
        type            cyclicAMI;
        value           nonuniform List<scalar> 0();
    }
    walls
    {
        type            zeroGradient;
    }
    ami2
    {
        type            cyclicAMI;
        value           nonuniform List<scalar> 0();
    }
    outlet
    {
        type            fixedValue;
        value           uniform 0;
    }
    procBoundary6to5
    {
        type            processor;
        value           nonuniform List<scalar> 
177
(
0.000722225
0.000615577
0.000717429
0.000713927
0.000602177
0.000611327
0.000602177
0.000605289
0.000500797
0.000500797
0.000500797
0.000503577
0.000503577
0.000506356
0.000504501
0.000504501
0.000616534
0.000505603
0.000611695
0.000615577
0.000615577
0.000504164
0.000727408
0.000611327
0.000614326
0.000611327
0.000609483
0.000611042
0.000612623
0.000610433
0.000502003
0.000502003
0.000502003
0.000504079
0.000504079
0.000505603
0.000505603
0.000607251
0.000504164
0.000504164
0.000614326
0.00050178
0.000598749
0.000589135
0.000582194
0.000580874
0.000581406
0.000581406
0.000589562
0.000598226
0.000501302
0.000501302
0.000501302
0.000501302
0.000604008
0.000506007
0.000506007
0.00050178
0.00050178
0.00050178
0.000589515
0.000589515
0.000577547
0.000577547
0.000568598
0.000568598
0.000566205
0.000566205
0.000566205
0.000678342
0.000577304
0.000577304
0.000577304
0.000588507
0.000588507
0.000609439
0.000609439
0.000602238
0.00061342
0.000610154
0.000610154
0.000692566
0.000692566
0.000678133
0.000678133
0.00066851
0.00066851
0.00066632
0.000668174
0.000678882
0.000693043
0.00072278
0.000605172
0.000605172
0.000605172
0.000610811
0.000610811
0.000725117
0.000611961
0.000611961
0.000611961
0.000803847
0.000692831
0.000787427
0.000678479
0.000776929
0.000662914
0.000668137
0.000662914
0.000665924
0.000676193
0.000691694
0.0007246
0.00072221
0.000715525
0.000722508
0.000692831
0.000678479
0.000668137
0.000666157
0.000668194
0.000677793
0.000692229
0.000722494
0.000723725
0.000711471
0.00072008
0.000699375
0.000687681
0.000678099
0.000676555
0.000678723
0.000688206
0.000700042
0.000722603
0.000726215
0.000713367
0.00072121
0.000708483
0.000699469
0.000692356
0.000692071
0.000693181
0.000699854
0.000708387
0.000724192
0.000725366
0.000716655
0.000726359
0.000834906
0.000724147
0.000724147
0.000722316
0.000722316
0.00072179
0.00072179
0.000724002
0.00072201
0.000719408
0.000720705
0.000726578
0.000726767
0.000721138
0.000838606
0.00072601
0.00072601
0.000949538
0.000836388
0.000836388
0.000833502
0.000720656
0.000720656
0.000714143
0.000710626
0.000712813
0.000716418
0.000721424
)
;
    }
}


// ************************************************************************* //
