/*--------------------------------*- C++ -*----------------------------------*\
| =========                 |                                                 |
| \\      /  F ield         | OpenFOAM: The Open Source CFD Toolbox           |
|  \\    /   O peration     | Version:  2212                                  |
|   \\  /    A nd           | Website:  www.openfoam.com                      |
|    \\/     M anipulation  |                                                 |
\*---------------------------------------------------------------------------*/
FoamFile
{
    version     2.0;
    format      ascii;
    arch        "LSB;label=32;scalar=64";
    class       volVectorField;
    location    "2.3";
    object      U;
}
// * * * * * * * * * * * * * * * * * * * * * * * * * * * * * * * * * * * * * //

dimensions      [0 1 -1 0 0 0 0];

internalField   nonuniform List<vector> 
678
(
(0.0219158 -2.06031e-05 1.51347e-05)
(0.0217115 -1.92507e-05 1.13692e-05)
(0.0215218 -1.86319e-05 7.38348e-06)
(0.0213308 -2.02976e-05 2.33835e-06)
(0.0211802 -1.83588e-05 -5.10062e-06)
(0.020867 -2.55706e-05 -1.29179e-05)
(0.0370605 -0.000162391 -2.96847e-05)
(0.036739 -0.000151877 -3.45919e-05)
(0.0364288 -0.000144782 -3.9309e-05)
(0.0361188 -0.00013911 -4.62563e-05)
(0.0358582 -0.000123509 -5.18801e-05)
(0.0353792 -0.0001259 -6.67466e-05)
(0.0514066 -0.000292676 -0.000185659)
(0.0509658 -0.00027486 -0.000182272)
(0.0505281 -0.000266074 -0.000180263)
(0.0500985 -0.000258322 -0.000178083)
(0.0497247 -0.000236683 -0.00017172)
(0.049095 -0.000229494 -0.000166952)
(0.0593179 -0.000445601 -0.000386889)
(0.0588049 -0.000424697 -0.000365876)
(0.0583119 -0.000398185 -0.000339478)
(0.057883 -0.000363344 -0.000307735)
(0.0572044 -0.000329933 -0.000276336)
(0.0638498 -0.00063317 -0.000591361)
(0.0632967 -0.000566445 -0.000537201)
(0.062776 -0.00049424 -0.000481461)
(0.0623338 -0.000427222 -0.000424305)
(0.0616575 -0.000358426 -0.000366531)
(0.0643058 -0.000500875 -0.000576692)
(0.0637914 -0.000438526 -0.0005137)
(0.0633666 -0.000366649 -0.000436932)
(0.0627156 -0.000300223 -0.000357971)
(0.0617148 -0.000288165 -0.000355599)
(0.061269 -0.000265382 -0.000328031)
(0.0608845 -0.00024725 -0.000295238)
(0.0602866 -0.000222851 -0.000251312)
(0.0557706 -0.000202479 -0.000220651)
(0.0553603 -0.000196625 -0.000205786)
(0.0550114 -0.000184241 -0.000181152)
(0.0544777 -0.000163806 -0.000166042)
(0.0465958 -0.000118868 -0.000132598)
(0.0462547 -0.000113362 -0.000125205)
(0.0459733 -9.88764e-05 -0.000114602)
(0.0455093 -8.70013e-05 -0.000122018)
(0.0346252 -5.22405e-05 -3.27602e-05)
(0.0343759 -4.71805e-05 -3.0423e-05)
(0.0341145 -4.18808e-05 -3.54179e-05)
(0.0339012 -2.87355e-05 -4.20572e-05)
(0.0335178 -2.49132e-05 -5.80492e-05)
(0.0217065 -1.41864e-05 -1.91531e-05)
(0.0215237 -1.00793e-05 -1.84644e-05)
(0.0213335 -5.62592e-06 -1.94735e-05)
(0.021183 7.25962e-07 -1.79633e-05)
(0.0208633 8.00179e-06 -2.5095e-05)
(0.0346492 -3.68811e-05 4.93856e-05)
(0.0343788 -3.65915e-05 4.44594e-05)
(0.0341167 -3.94585e-05 3.83016e-05)
(0.0339039 -4.30521e-05 2.38095e-05)
(0.0335259 -5.8321e-05 1.97959e-05)
(0.0665542 -0.000333065 1.60094e-05)
(0.0661384 -0.00031698 9.61296e-06)
(0.0657215 -0.000307473 2.73492e-06)
(0.0653082 -0.000303513 -4.90239e-06)
(0.0649643 -0.000298598 -1.48666e-05)
(0.0643898 -0.000307657 -2.8296e-05)
(0.0880652 -0.000667135 -0.000237377)
(0.0877353 -0.000655721 -0.00023248)
(0.0874039 -0.000645881 -0.000227361)
(0.0871153 -0.000620315 -0.000220563)
(0.086631 -0.000580724 -0.000207994)
(0.0982654 -0.000835155 -0.000490221)
(0.098045 -0.000829173 -0.000471145)
(0.0978114 -0.000821613 -0.000449796)
(0.0976097 -0.000803509 -0.000423322)
(0.0972685 -0.000756118 -0.000382358)
(0.102652 -0.000962832 -0.000618139)
(0.102516 -0.000944 -0.000597018)
(0.102367 -0.000920091 -0.000572906)
(0.102236 -0.000886165 -0.000540054)
(0.102009 -0.000814315 -0.000486403)
(0.103336 -0.000900586 -0.000641696)
(0.103252 -0.000873017 -0.000625182)
(0.103164 -0.000843411 -0.000610259)
(0.103081 -0.000801469 -0.000584837)
(0.102943 -0.000724909 -0.000527978)
(0.101224 -0.000668806 -0.000632503)
(0.10115 -0.00064331 -0.000631246)
(0.101068 -0.00061622 -0.000629187)
(0.100996 -0.00058012 -0.000614503)
(0.100878 -0.000512578 -0.000565037)
(0.0958852 -0.000379011 -0.000656292)
(0.0957267 -0.00036093 -0.000651418)
(0.0955865 -0.000341334 -0.000641902)
(0.0953502 -0.000303828 -0.000600122)
(0.0852079 -0.000168185 -0.000616299)
(0.084878 -0.000161142 -0.000606308)
(0.0846038 -0.000151827 -0.000602558)
(0.0841369 -0.000130121 -0.000572856)
(0.0657215 -1.19498e-05 -0.000324823)
(0.0652942 -4.4634e-06 -0.000307756)
(0.0649533 5.08385e-06 -0.000297846)
(0.0643741 1.74078e-05 -0.000304814)
(0.0367331 2.90824e-05 -0.000151938)
(0.0364452 3.39869e-05 -0.000139723)
(0.0361359 3.96567e-05 -0.000136612)
(0.0358724 4.24422e-05 -0.000127503)
(0.0353832 5.58834e-05 -0.00013014)
(0.0466153 -0.000142607 0.000115467)
(0.0462772 -0.000134638 0.000109231)
(0.0459963 -0.000118091 9.28772e-05)
(0.0455366 -0.000121608 8.08261e-05)
(0.0855243 -0.000630449 0.000169242)
(0.0852131 -0.000611385 0.000160259)
(0.0848997 -0.000600619 0.000150975)
(0.0846261 -0.000594099 0.000139701)
(0.0841688 -0.000566782 0.000118337)
(0.106472 -0.00104297 -6.2374e-05)
(0.106464 -0.0010408 -6.20432e-05)
(0.106434 -0.00102893 -6.21079e-05)
(0.106406 -0.00100163 -6.33168e-05)
(0.10632 -0.000935976 -6.375e-05)
(0.11566 -0.00113515 -0.000362308)
(0.115792 -0.00112834 -0.000351516)
(0.115915 -0.00111271 -0.000337856)
(0.116023 -0.00108472 -0.000320024)
(0.116166 -0.00101219 -0.000289509)
(0.119514 -0.00112924 -0.000570378)
(0.119718 -0.00111677 -0.000555806)
(0.119919 -0.00109314 -0.00053535)
(0.120096 -0.00105228 -0.00050526)
(0.120344 -0.000973872 -0.000456898)
(0.1203 -0.000944007 -0.000708353)
(0.120545 -0.000927529 -0.000697316)
(0.120791 -0.000901467 -0.000680121)
(0.121007 -0.000858908 -0.000649571)
(0.121315 -0.000782663 -0.000597687)
(0.11888 -0.000621432 -0.000842578)
(0.119136 -0.000604601 -0.000839424)
(0.11939 -0.000583599 -0.000830022)
(0.119613 -0.000554132 -0.000807531)
(0.119924 -0.000500692 -0.000754528)
(0.114985 -0.000262472 -0.000995678)
(0.115173 -0.000254271 -0.000996266)
(0.115358 -0.000244584 -0.000988007)
(0.115515 -0.000229762 -0.000963214)
(0.115734 -0.000202885 -0.000902217)
(0.106478 5.31769e-05 -0.00104729)
(0.106465 5.21422e-05 -0.00103963)
(0.106441 5.08919e-05 -0.00103315)
(0.106409 5.11506e-05 -0.00101184)
(0.106326 5.28704e-05 -0.000934018)
(0.087744 0.000222227 -0.000653265)
(0.0873993 0.000215548 -0.00064132)
(0.0871155 0.000207982 -0.000625286)
(0.0866236 0.000192896 -0.00058203)
(0.0509835 0.000174705 -0.000277386)
(0.0505541 0.000170421 -0.000260333)
(0.0501098 0.000164756 -0.000256091)
(0.0497361 0.000155258 -0.000242888)
(0.0490976 0.000149305 -0.000236204)
(0.0557928 -0.000222336 0.000196957)
(0.0553865 -0.000209846 0.00019065)
(0.0550445 -0.000184026 0.000177286)
(0.0545162 -0.000166641 0.000156432)
(0.0959 -0.000651185 0.000370769)
(0.0957436 -0.000649686 0.000354365)
(0.0956031 -0.000639289 0.000333201)
(0.0953708 -0.000594117 0.000292637)
(0.114984 -0.000990074 0.000251835)
(0.115173 -0.00099192 0.000243631)
(0.115354 -0.000983505 0.000233819)
(0.115511 -0.000957605 0.000219116)
(0.115727 -0.000900165 0.000193326)
(0.123429 -0.00097312 -4.84971e-05)
(0.123748 -0.000968341 -4.72304e-05)
(0.124062 -0.000961176 -4.50443e-05)
(0.124345 -0.000942392 -4.30651e-05)
(0.124739 -0.000897263 -3.9279e-05)
(0.127127 -0.000868122 -0.000298373)
(0.127491 -0.000856759 -0.000291149)
(0.127851 -0.000842443 -0.000282448)
(0.128179 -0.000818525 -0.000270377)
(0.128632 -0.000777072 -0.000251641)
(0.12808 -0.000631785 -0.000510701)
(0.128463 -0.000619655 -0.000503701)
(0.128842 -0.000604863 -0.00049514)
(0.129188 -0.000582393 -0.000479987)
(0.129665 -0.000547913 -0.000456771)
(0.126569 -0.000314922 -0.000749155)
(0.126954 -0.000307638 -0.000746282)
(0.127329 -0.000300217 -0.000742989)
(0.1277 -0.000289226 -0.000732057)
(0.128039 -0.000274241 -0.000711615)
(0.128506 -0.000254353 -0.000679451)
(0.123433 3.8488e-05 -0.000973996)
(0.123752 3.81337e-05 -0.000968766)
(0.124069 3.77257e-05 -0.000961362)
(0.124351 3.7754e-05 -0.000943878)
(0.124748 3.53779e-05 -0.000898464)
(0.115665 0.000353566 -0.00113104)
(0.115798 0.000341077 -0.00112297)
(0.115928 0.000328097 -0.00111367)
(0.116031 0.000311857 -0.00109199)
(0.116179 0.000281309 -0.00101806)
(0.0982771 0.000479843 -0.000836918)
(0.0980554 0.000456441 -0.000827738)
(0.0978233 0.000435188 -0.000825205)
(0.0976213 0.000410735 -0.000814603)
(0.0972805 0.000365828 -0.000756183)
(0.0593527 0.00037604 -0.000451063)
(0.0588445 0.00035143 -0.000432329)
(0.0583362 0.000320754 -0.000407885)
(0.0579146 0.000286747 -0.000373614)
(0.0572333 0.00025499 -0.000337208)
(0.0621965 -0.00039328 0.00031628)
(0.0617461 -0.000358741 0.000283325)
(0.0613039 -0.000330138 0.00025927)
(0.0609227 -0.00029538 0.00023997)
(0.0603298 -0.000250578 0.000214771)
(0.101241 -0.000629634 0.000658754)
(0.101169 -0.000630552 0.000633486)
(0.101089 -0.000629201 0.000607473)
(0.101015 -0.000613797 0.000571351)
(0.100897 -0.000564567 0.00050351)
(0.118613 -0.000838045 0.000629703)
(0.118875 -0.000841811 0.000613984)
(0.11913 -0.000840599 0.000596861)
(0.119382 -0.000829127 0.000574192)
(0.119604 -0.000802923 0.00054325)
(0.119916 -0.000749762 0.000490635)
(0.12656 -0.000746033 0.000302936)
(0.126944 -0.000743324 0.000297946)
(0.12732 -0.000740511 0.00029473)
(0.127693 -0.000729401 0.000287219)
(0.128032 -0.000707869 0.000274352)
(0.128498 -0.000675211 0.000255307)
(0.130196 -0.000583595 3.25866e-06)
(0.130615 -0.000577566 4.70078e-06)
(0.131026 -0.000570118 7.35892e-06)
(0.13143 -0.000557816 8.95477e-06)
(0.131806 -0.000539377 9.34918e-06)
(0.132305 -0.000515767 9.07806e-06)
(0.131235 -0.000320833 -0.000283462)
(0.131662 -0.000314725 -0.000279819)
(0.132081 -0.000307825 -0.000275595)
(0.132494 -0.000298398 -0.000268597)
(0.132881 -0.000287383 -0.000259699)
(0.133392 -0.000281834 -0.000255529)
(0.130199 -1.27298e-05 -0.000583105)
(0.130615 -1.02035e-05 -0.000578962)
(0.131024 -7.56219e-06 -0.00057362)
(0.131427 -5.51053e-06 -0.000562749)
(0.131803 -4.12457e-06 -0.000545119)
(0.132301 -3.44607e-06 -0.000521327)
(0.126757 0.000295665 -0.000875222)
(0.127126 0.000292411 -0.000868874)
(0.127487 0.000289486 -0.00086193)
(0.127845 0.000282513 -0.000846865)
(0.12817 0.000270818 -0.000821365)
(0.128621 0.000251864 -0.000778591)
(0.119292 0.000575731 -0.00113663)
(0.119505 0.000564446 -0.00112894)
(0.11971 0.000549415 -0.00111403)
(0.119915 0.000528916 -0.00109029)
(0.12009 0.000500018 -0.00105172)
(0.12034 0.000452452 -0.000976024)
(0.102799 0.00062817 -0.000984689)
(0.102665 0.000608318 -0.000969007)
(0.102527 0.000585656 -0.000950329)
(0.10238 0.000562834 -0.000928821)
(0.102244 0.000532339 -0.000896972)
(0.102019 0.000472342 -0.000813241)
(0.0638988 0.000578869 -0.000644836)
(0.0633533 0.000522908 -0.00058114)
(0.0628265 0.000463753 -0.000506169)
(0.0623945 0.000404667 -0.000435677)
(0.0617216 0.000344166 -0.000364104)
(0.0648956 -0.000616727 0.00053564)
(0.0643622 -0.000581219 0.000497786)
(0.0638496 -0.0005217 0.000437547)
(0.0634187 -0.00044492 0.000363653)
(0.0627678 -0.000365156 0.000295378)
(0.103337 -0.000639279 0.000894343)
(0.103255 -0.000624352 0.000868152)
(0.103168 -0.000608574 0.000836798)
(0.10309 -0.000582616 0.000793652)
(0.102955 -0.000531059 0.000718565)
(0.119787 -0.000715205 0.000958819)
(0.120039 -0.000716069 0.000952603)
(0.12029 -0.000712639 0.000943904)
(0.120537 -0.000700168 0.0009252)
(0.120782 -0.000679972 0.00089663)
(0.121 -0.000647322 0.000854151)
(0.121306 -0.000595655 0.00077879)
(0.127301 -0.000518334 0.000639505)
(0.127691 -0.000517351 0.000635401)
(0.128076 -0.000515202 0.000632457)
(0.128455 -0.000508448 0.000625024)
(0.128831 -0.000495719 0.000609928)
(0.129176 -0.000476617 0.000586367)
(0.129647 -0.000451815 0.000551282)
(0.130803 -0.000276637 0.000314485)
(0.131236 -0.000276682 0.000313022)
(0.13166 -0.000276482 0.000313899)
(0.132077 -0.000273667 0.000312867)
(0.132489 -0.000267116 0.000306924)
(0.132874 -0.000258502 0.000297543)
(0.133382 -0.000254506 0.000291967)
(0.132279 2.36713e-06 -3.42454e-06)
(0.132712 2.08282e-06 -6.48293e-07)
(0.133139 2.36293e-06 2.05275e-06)
(0.133563 2.80576e-06 3.63994e-06)
(0.133949 2.71604e-06 4.03401e-06)
(0.134491 2.2812e-06 3.70818e-06)
(0.13123 0.00027963 -0.00031962)
(0.131654 0.000277443 -0.000314754)
(0.132072 0.00027553 -0.00030969)
(0.132485 0.00027047 -0.000301323)
(0.132871 0.000262808 -0.00029056)
(0.133381 0.000259095 -0.000284672)
(0.127686 0.000514656 -0.000641402)
(0.12807 0.000509856 -0.000632019)
(0.128449 0.000506171 -0.000622564)
(0.128825 0.000496874 -0.000606945)
(0.12917 0.000480037 -0.000583155)
(0.129643 0.000455795 -0.00054786)
(0.120036 0.000710781 -0.000959335)
(0.120286 0.000703821 -0.000944941)
(0.120531 0.000693009 -0.000925508)
(0.120776 0.000674763 -0.00089669)
(0.120991 0.000643702 -0.000853602)
(0.121297 0.000592286 -0.000777957)
(0.103432 0.000646032 -0.000929419)
(0.103347 0.000630963 -0.000905851)
(0.103261 0.000613857 -0.000877715)
(0.103175 0.000599121 -0.000848311)
(0.103089 0.000575215 -0.00080715)
(0.102949 0.00051679 -0.000725959)
(0.0654463 0.000628154 -0.000580032)
(0.0648946 0.000607107 -0.000551985)
(0.0643704 0.000565013 -0.00051169)
(0.0638579 0.000499752 -0.000448588)
(0.0634408 0.0004189 -0.000372823)
(0.0628009 0.000335244 -0.000304216)
(0.0644846 -0.000622401 0.000663347)
(0.0639031 -0.000591957 0.000629618)
(0.0633589 -0.000541145 0.000564357)
(0.0628339 -0.000486533 0.000489428)
(0.0624009 -0.000430848 0.000420644)
(0.0617244 -0.000373354 0.000352942)
(0.102804 -0.000634071 0.000966932)
(0.102669 -0.000616356 0.000953849)
(0.102529 -0.000596122 0.000937141)
(0.102381 -0.000574672 0.000917037)
(0.102243 -0.000545334 0.000886424)
(0.102019 -0.000486946 0.000804472)
(0.119297 -0.000578795 0.00112696)
(0.119506 -0.000566921 0.00112079)
(0.119709 -0.000550715 0.00110734)
(0.119912 -0.00052953 0.00108461)
(0.120086 -0.000500614 0.00104719)
(0.120331 -0.00045426 0.000972093)
(0.126752 -0.000293963 0.000864816)
(0.127119 -0.000291204 0.000860709)
(0.127479 -0.000287563 0.00085732)
(0.127836 -0.000279617 0.000845521)
(0.128161 -0.000267152 0.00082234)
(0.128608 -0.000248351 0.000780609)
(0.130187 1.64466e-05 0.000580118)
(0.130601 1.36334e-05 0.000575169)
(0.131009 1.14005e-05 0.000570916)
(0.131412 9.80878e-06 0.000561903)
(0.131787 8.49423e-06 0.000545793)
(0.132282 7.42713e-06 0.000523034)
(0.131227 0.000319585 0.000280591)
(0.131649 0.000315769 0.000278442)
(0.132066 0.000312106 0.000276575)
(0.132477 0.000304916 0.000271515)
(0.132862 0.000294867 0.000263909)
(0.133371 0.000288931 0.000260111)
(0.130192 0.000578708 -1.08424e-05)
(0.130606 0.000575087 -8.95254e-06)
(0.131013 0.000571597 -7.35656e-06)
(0.131416 0.000562819 -5.91198e-06)
(0.131791 0.000546697 -4.64523e-06)
(0.132286 0.000523525 -3.99541e-06)
(0.126559 0.00074002 -0.00031242)
(0.126939 0.000737398 -0.000304925)
(0.127311 0.000736645 -0.000298057)
(0.127682 0.000728777 -0.000287701)
(0.128019 0.000710773 -0.000273281)
(0.128482 0.00067952 -0.000253979)
(0.118609 0.000835057 -0.000638773)
(0.118867 0.000835032 -0.000622591)
(0.119118 0.000830342 -0.00060353)
(0.119368 0.000818266 -0.000579129)
(0.119586 0.00079505 -0.000547712)
(0.119893 0.000744727 -0.00049523)
(0.101309 0.000623951 -0.000694965)
(0.101241 0.000621143 -0.000670886)
(0.101168 0.000615194 -0.000643924)
(0.101088 0.000613554 -0.000619449)
(0.101008 0.000601775 -0.000587171)
(0.100886 0.000551419 -0.000517757)
(0.0626897 0.0004402 -0.000374122)
(0.0622196 0.000388789 -0.000329074)
(0.0617765 0.000346926 -0.000293283)
(0.0613361 0.000312669 -0.000267007)
(0.060968 0.000274552 -0.000245872)
(0.0603889 0.00023102 -0.000221411)
(0.0598956 -0.000404421 0.000453989)
(0.0593753 -0.000388834 0.000438876)
(0.0588778 -0.000368331 0.000419317)
(0.0583783 -0.00034261 0.000391197)
(0.0579618 -0.000312383 0.000355814)
(0.057286 -0.000281885 0.00032345)
(0.0985056 -0.000508801 0.000838298)
(0.0982869 -0.000491566 0.000825685)
(0.0980658 -0.000473508 0.000817657)
(0.0978323 -0.000453926 0.000809887)
(0.0976321 -0.000429849 0.000795851)
(0.0972955 -0.000385241 0.000739454)
(0.115525 -0.000371086 0.00112572)
(0.115664 -0.000360825 0.00112371)
(0.11579 -0.000348403 0.00111353)
(0.115916 -0.000334792 0.00110162)
(0.116015 -0.000318144 0.00107778)
(0.116154 -0.000287555 0.00100486)
(0.123105 -4.1373e-05 0.000964988)
(0.123423 -4.09121e-05 0.000964617)
(0.123734 -4.00618e-05 0.00096743)
(0.124045 -3.8959e-05 0.000960779)
(0.124319 -3.79212e-05 0.000941696)
(0.124705 -3.52053e-05 0.000895402)
(0.126553 0.000312331 0.00074212)
(0.126929 0.000305394 0.000739587)
(0.127299 0.000299102 0.000738672)
(0.127666 0.000289025 0.000730177)
(0.128001 0.000274295 0.000711327)
(0.128461 0.000254031 0.00067947)
(0.127681 0.000636257 0.000517018)
(0.128062 0.000628423 0.000512176)
(0.128437 0.000621081 0.00050816)
(0.12881 0.000606734 0.000498223)
(0.129152 0.000583333 0.00048075)
(0.12962 0.000547746 0.000456083)
(0.126752 0.000866491 0.000297643)
(0.127116 0.000861429 0.000294221)
(0.127473 0.000857001 0.000290102)
(0.127828 0.000844265 0.000281856)
(0.128151 0.000820172 0.00026915)
(0.128596 0.000777422 0.000249818)
(0.123102 0.000965795 4.03762e-05)
(0.123424 0.000966205 4.02376e-05)
(0.123736 0.000969071 3.94367e-05)
(0.124047 0.00096205 3.80228e-05)
(0.124322 0.000942391 3.63243e-05)
(0.124709 0.000894854 3.28312e-05)
(0.114782 0.000977927 -0.000269653)
(0.114977 0.000981028 -0.000261728)
(0.11516 0.000978302 -0.000252244)
(0.115342 0.000974413 -0.000243517)
(0.115489 0.000953634 -0.000231265)
(0.115697 0.000893539 -0.000204138)
(0.0961979 0.000642534 -0.000414276)
(0.0960547 0.000645359 -0.000399483)
(0.0959103 0.000641971 -0.000382688)
(0.0957514 0.000640948 -0.000367948)
(0.0956167 0.00063488 -0.000349545)
(0.0953864 0.000590521 -0.000309147)
(0.0566519 0.00023447 -0.000209924)
(0.0562338 0.000224485 -0.00020853)
(0.0558325 0.000214431 -0.000204277)
(0.0554322 0.000199404 -0.000195704)
(0.0551025 0.000174662 -0.000180766)
(0.0545853 0.0001595 -0.000160229)
(0.0514617 -0.000190693 0.000283197)
(0.0510215 -0.000186882 0.000270253)
(0.050594 -0.00018422 0.000263563)
(0.0501632 -0.000181766 0.000254713)
(0.0497985 -0.000176031 0.000232927)
(0.0491745 -0.000171762 0.000224574)
(0.0884266 -0.000247514 0.000667892)
(0.0881003 -0.000243302 0.000652205)
(0.0877871 -0.000239105 0.000644587)
(0.087453 -0.00023431 0.000638809)
(0.0871766 -0.000227938 0.000618822)
(0.0866989 -0.000214362 0.000573683)
(0.106493 -6.68693e-05 0.00103017)
(0.106494 -6.55952e-05 0.00103147)
(0.10648 -6.48427e-05 0.00102879)
(0.106449 -6.47052e-05 0.00101708)
(0.106418 -6.56071e-05 0.000992123)
(0.106336 -6.74497e-05 0.000915462)
(0.114797 0.000260869 0.000974036)
(0.114988 0.000253857 0.000979312)
(0.115169 0.000244152 0.000976194)
(0.115348 0.000234256 0.000970579)
(0.115494 0.000221065 0.000950746)
(0.115699 0.00019391 0.000892405)
(0.118618 0.000632702 0.000835913)
(0.118871 0.000615948 0.000835056)
(0.119117 0.000596716 0.000830339)
(0.119363 0.000571882 0.00081795)
(0.119577 0.000538591 0.000792819)
(0.119878 0.000484659 0.000741248)
(0.12004 0.000949133 0.000709468)
(0.120285 0.000934696 0.000702708)
(0.120527 0.000915843 0.000692542)
(0.120767 0.000887441 0.000674745)
(0.120979 0.000843896 0.000643236)
(0.121278 0.000767853 0.000591585)
(0.119291 0.00112567 0.000571908)
(0.119499 0.001117 0.000561049)
(0.1197 0.00110124 0.000546088)
(0.119902 0.00107683 0.000525745)
(0.120073 0.0010379 0.000496894)
(0.120316 0.000961515 0.000449829)
(0.115512 0.00112557 0.000361906)
(0.115653 0.00112111 0.000351529)
(0.11578 0.00111102 0.000339493)
(0.115906 0.00109881 0.000326044)
(0.116006 0.00107397 0.000309236)
(0.116145 0.000999668 0.000278404)
(0.10648 0.00103672 5.25521e-05)
(0.106478 0.00103368 5.09102e-05)
(0.106465 0.0010284 5.0058e-05)
(0.106433 0.00101563 4.98823e-05)
(0.106403 0.000989746 5.06169e-05)
(0.106321 0.00091248 5.23326e-05)
(0.0858573 0.000632036 -0.000183757)
(0.0855492 0.000617961 -0.000178911)
(0.0852547 0.000602508 -0.000170807)
(0.084941 0.000591532 -0.000161621)
(0.0846834 0.000587058 -0.000150623)
(0.0842364 0.000559918 -0.000128642)
(0.0473621 0.000156836 -0.000125991)
(0.0470044 0.000146742 -0.000124946)
(0.0466605 0.00014006 -0.000121792)
(0.046324 0.000133003 -0.00011444)
(0.0460434 0.000118655 -9.76228e-05)
(0.0455842 0.00012156 -8.48139e-05)
(0.0370962 -3.60267e-05 0.000155145)
(0.036782 -4.03825e-05 0.000146789)
(0.0364764 -4.44286e-05 0.000142334)
(0.036165 -5.11713e-05 0.000137737)
(0.0359033 -5.6696e-05 0.000122979)
(0.035426 -7.14051e-05 0.000123515)
(0.0666093 6.2043e-06 0.000323404)
(0.0661937 -9.98091e-07 0.000310163)
(0.0657888 -8.23581e-06 0.000304555)
(0.0653793 -1.58809e-05 0.000302885)
(0.0650433 -2.57513e-05 0.000300588)
(0.0644753 -3.8698e-05 0.000307034)
(0.0858722 0.000165845 0.000633033)
(0.0855663 0.00015928 0.000618121)
(0.0852745 0.000149905 0.00060324)
(0.0849643 0.000139604 0.000591144)
(0.0847106 0.000128204 0.000585853)
(0.0842676 0.000107752 0.000560693)
(0.0962224 0.000400638 0.000646583)
(0.0960819 0.000384175 0.000647685)
(0.0959395 0.000366238 0.000643088)
(0.095784 0.000350351 0.000640417)
(0.0956511 0.000330474 0.000631754)
(0.0954273 0.000289684 0.000587257)
(0.101337 0.000684291 0.000627125)
(0.101269 0.000658602 0.00062319)
(0.101195 0.000631813 0.000617687)
(0.101115 0.000606008 0.000614664)
(0.101037 0.000571028 0.000599945)
(0.100917 0.000501524 0.000550376)
(0.103452 0.000915787 0.00064141)
(0.103367 0.000890174 0.000625531)
(0.103281 0.000865843 0.000612877)
(0.103191 0.000834849 0.000597795)
(0.103109 0.00078879 0.000569645)
(0.10297 0.000711763 0.000516438)
(0.102817 0.000971753 0.000620618)
(0.102682 0.000953247 0.000601963)
(0.102543 0.000932441 0.000581461)
(0.102398 0.000910138 0.000559861)
(0.102261 0.000878006 0.000529801)
(0.102037 0.000795784 0.000471716)
(0.0985183 0.000839433 0.000491837)
(0.0982987 0.000826697 0.000474291)
(0.0980785 0.000817517 0.000455799)
(0.0978455 0.00080833 0.000435585)
(0.097647 0.000792793 0.000411148)
(0.0973129 0.000735037 0.000366917)
(0.0884322 0.000672067 0.000227794)
(0.0881066 0.000652999 0.000222292)
(0.0877954 0.000645452 0.00021777)
(0.0874604 0.000639353 0.000213078)
(0.0871851 0.00061521 0.000206717)
(0.0867097 0.000570028 0.000194127)
(0.0666185 0.000325532 -2.85782e-05)
(0.0662012 0.000310855 -2.25824e-05)
(0.0657935 0.000303575 -1.56121e-05)
(0.0653867 0.00030138 -7.18176e-06)
(0.0650511 0.000298472 4.02818e-06)
(0.0644841 0.000304894 1.94242e-05)
(0.034968 3.33394e-05 -5.94895e-05)
(0.0346851 3.31064e-05 -5.5551e-05)
(0.0344172 3.46658e-05 -5.06427e-05)
(0.0341537 3.86768e-05 -4.43971e-05)
(0.0339368 4.34094e-05 -2.94648e-05)
(0.0335547 5.83534e-05 -2.38506e-05)
(0.0219369 1.02893e-05 2.0359e-05)
(0.0217394 6.63858e-06 1.9381e-05)
(0.0215524 3.13547e-06 1.9444e-05)
(0.0213594 -1.36158e-06 2.12411e-05)
(0.0212054 -8.55763e-06 1.92069e-05)
(0.0208906 -1.61877e-05 2.5982e-05)
(0.0349653 4.64422e-05 3.87449e-05)
(0.034687 4.23809e-05 3.87475e-05)
(0.0344221 3.76749e-05 4.00824e-05)
(0.0341598 3.20954e-05 4.3185e-05)
(0.0339443 1.84582e-05 4.66943e-05)
(0.0335637 1.44972e-05 6.07679e-05)
(0.0481134 0.000117966 0.000194483)
(0.0477254 0.000113589 0.000178731)
(0.0473674 0.000110761 0.000160294)
(0.0470146 0.00010977 0.000151447)
(0.0466734 0.00010726 0.00014582)
(0.0463389 0.000100959 0.000139)
(0.0460585 8.52756e-05 0.000123599)
(0.0456026 7.3712e-05 0.000125314)
(0.0570908 0.000197505 0.000251407)
(0.0566788 0.000193575 0.000236569)
(0.0562681 0.00019196 0.000228525)
(0.0558718 0.000187904 0.000220612)
(0.0554762 0.000180093 0.000207072)
(0.0551495 0.000166494 0.000182207)
(0.0546375 0.000147334 0.000165481)
(0.0632105 0.000405111 0.00048715)
(0.0627294 0.000362009 0.000437473)
(0.0622689 0.000315502 0.000386868)
(0.0618343 0.000278784 0.000348314)
(0.0614041 0.000251788 0.000316739)
(0.0610414 0.000231161 0.0002801)
(0.060472 0.000207096 0.000237092)
(0.0654999 0.000566191 0.000617916)
(0.0649602 0.000531996 0.000594191)
(0.0644424 0.000499875 0.000563283)
(0.0639445 0.000439148 0.00050254)
(0.0635269 0.000363162 0.000423642)
(0.0628965 0.000293432 0.000343078)
(0.0645441 0.000663385 0.00060432)
(0.0639696 0.000631237 0.00057353)
(0.0634322 0.000570696 0.000522411)
(0.0629146 0.000494595 0.000465036)
(0.0624887 0.000423749 0.00040838)
(0.0618266 0.000353225 0.000350518)
(0.0599369 0.000458927 0.000387413)
(0.0594211 0.000442323 0.000370025)
(0.0589292 0.000422471 0.000348714)
(0.0584352 0.000393827 0.000321673)
(0.0580231 0.000358185 0.000290761)
(0.0573569 0.000323767 0.000260719)
(0.0514882 0.000290142 0.000175707)
(0.0510498 0.00027564 0.000170149)
(0.050622 0.000266887 0.000165946)
(0.0501978 0.000256709 0.000162915)
(0.0498338 0.000234376 0.000157309)
(0.0492158 0.000224559 0.00015419)
(0.0371122 0.000162313 2.25827e-05)
(0.0367958 0.000152713 2.63109e-05)
(0.0364889 0.000147043 3.01232e-05)
(0.0361788 0.000141333 3.69388e-05)
(0.0359175 0.000125165 4.31469e-05)
(0.0354431 0.000124258 5.93035e-05)
(0.0219429 1.96841e-05 -1.97247e-05)
(0.0217427 1.85078e-05 -1.62419e-05)
(0.0215545 1.8357e-05 -1.24832e-05)
(0.0213611 2.0023e-05 -7.20724e-06)
(0.0212066 1.83531e-05 9.03438e-07)
(0.0208925 2.51611e-05 9.67727e-06)
)
;

boundaryField
{
    inlet
    {
        type            fixedValue;
        value           nonuniform List<vector> 0();
    }
    ami1
    {
        type            cyclicAMI;
        value           nonuniform List<vector> 0();
    }
    walls
    {
        type            noSlip;
    }
    ami2
    {
        type            cyclicAMI;
        value           nonuniform List<vector> 0();
    }
    outlet
    {
        type            zeroGradient;
    }
    procBoundary6to5
    {
        type            processor;
        value           nonuniform List<vector> 
177
(
(0.0221288 -2.09337e-05 1.8386e-05)
(0.0349355 -3.73621e-05 5.31446e-05)
(0.037385 -0.000174591 -2.51939e-05)
(0.051861 -0.000319024 -0.000192322)
(0.0598402 -0.000463819 -0.000401826)
(0.0883955 -0.000684544 -0.000242718)
(0.0598402 -0.000463819 -0.000401826)
(0.0644354 -0.000668572 -0.00062468)
(0.0648373 -0.000541348 -0.000618242)
(0.0648373 -0.000541348 -0.000618242)
(0.0648373 -0.000541348 -0.000618242)
(0.0621665 -0.000321033 -0.000392995)
(0.0621665 -0.000321033 -0.000392995)
(0.0561858 -0.000205031 -0.000234333)
(0.0469395 -0.000121732 -0.000151858)
(0.0469395 -0.000121732 -0.000151858)
(0.034921 -5.61317e-05 -3.85019e-05)
(0.0661398 -1.63878e-05 -0.00032163)
(0.021914 -1.76506e-05 -2.00284e-05)
(0.0349355 -3.73621e-05 5.31446e-05)
(0.0349355 -3.73621e-05 5.31446e-05)
(0.0469648 -0.000151054 0.000117851)
(0.0669876 -0.000324781 1.87093e-05)
(0.0883955 -0.000684544 -0.000242718)
(0.0858323 -0.000639118 0.000172586)
(0.0883955 -0.000684544 -0.000242718)
(0.0984911 -0.000856172 -0.000512204)
(0.10279 -0.000990384 -0.000642409)
(0.103424 -0.000930398 -0.000661567)
(0.101297 -0.000696812 -0.000639637)
(0.096035 -0.000400951 -0.000663602)
(0.096035 -0.000400951 -0.000663602)
(0.096035 -0.000400951 -0.000663602)
(0.0855257 -0.000173945 -0.000626769)
(0.0855257 -0.000173945 -0.000626769)
(0.0661398 -1.63878e-05 -0.00032163)
(0.0661398 -1.63878e-05 -0.00032163)
(0.0370636 2.51425e-05 -0.000166658)
(0.0469648 -0.000151054 0.000117851)
(0.0469648 -0.000151054 0.000117851)
(0.0858323 -0.000639118 0.000172586)
(0.0960475 -0.000659393 0.00039235)
(0.10648 -0.00105752 -6.22555e-05)
(0.11552 -0.00114561 -0.0003748)
(0.119302 -0.00114299 -0.000585792)
(0.120048 -0.000963353 -0.000722508)
(0.118617 -0.000641012 -0.000848086)
(0.118617 -0.000641012 -0.000848086)
(0.114791 -0.00027314 -0.000999638)
(0.106483 5.45864e-05 -0.00105845)
(0.0880788 0.000229091 -0.000671232)
(0.0880788 0.000229091 -0.000671232)
(0.0880788 0.000229091 -0.000671232)
(0.0880788 0.000229091 -0.000671232)
(0.0514286 0.000180092 -0.000301017)
(0.0562063 -0.000229898 0.000199848)
(0.0562063 -0.000229898 0.000199848)
(0.0960475 -0.000659393 0.00039235)
(0.0960475 -0.000659393 0.00039235)
(0.0960475 -0.000659393 0.00039235)
(0.11479 -0.000993371 0.000263596)
(0.11479 -0.000993371 0.000263596)
(0.123105 -0.000987704 -4.7737e-05)
(0.123105 -0.000987704 -4.7737e-05)
(0.126759 -0.000884828 -0.000306988)
(0.126759 -0.000884828 -0.000306988)
(0.127693 -0.000648225 -0.000523625)
(0.127693 -0.000648225 -0.000523625)
(0.127693 -0.000648225 -0.000523625)
(0.126184 -0.000324099 -0.000756169)
(0.123106 3.84048e-05 -0.000986893)
(0.123106 3.84048e-05 -0.000986893)
(0.123106 3.84048e-05 -0.000986893)
(0.115519 0.000366457 -0.00114119)
(0.115519 0.000366457 -0.00114119)
(0.0985018 0.000501694 -0.000852826)
(0.0985018 0.000501694 -0.000852826)
(0.0598788 0.000394285 -0.000468862)
(0.0626701 -0.000444003 0.000362157)
(0.101309 -0.000632909 0.000688328)
(0.101309 -0.000632909 0.000688328)
(0.118352 -0.00083921 0.000649534)
(0.118352 -0.00083921 0.000649534)
(0.126175 -0.000752418 0.000314511)
(0.126175 -0.000752418 0.000314511)
(0.129773 -0.000588779 5.84606e-06)
(0.129773 -0.000588779 5.84606e-06)
(0.130804 -0.000325783 -0.000286981)
(0.129777 -1.4219e-05 -0.000589047)
(0.126385 0.000303032 -0.0008853)
(0.119077 0.000590001 -0.00114771)
(0.102941 0.000649878 -0.00100969)
(0.064484 0.000613489 -0.000677938)
(0.064484 0.000613489 -0.000677938)
(0.064484 0.000613489 -0.000677938)
(0.0654459 -0.000632237 0.000563393)
(0.0654459 -0.000632237 0.000563393)
(0.103516 -0.00066941 0.000945651)
(0.103422 -0.000659919 0.000924623)
(0.103422 -0.000659919 0.000924623)
(0.103422 -0.000659919 0.000924623)
(0.119535 -0.000721854 0.000972304)
(0.119083 -0.00059163 0.00113692)
(0.126911 -0.000525003 0.000650053)
(0.126383 -0.000299833 0.000876016)
(0.130368 -0.000280049 0.000320621)
(0.131841 2.56423e-06 -4.14834e-06)
(0.129768 1.81475e-05 0.00058768)
(0.131841 2.56423e-06 -4.14834e-06)
(0.130801 0.000283678 -0.000325552)
(0.127298 0.000525188 -0.000654745)
(0.119785 0.000721196 -0.00097613)