/*--------------------------------*- C++ -*----------------------------------*\
| =========                 |                                                 |
| \\      /  F ield         | OpenFOAM: The Open Source CFD Toolbox           |
|  \\    /   O peration     | Version:  2212                                  |
|   \\  /    A nd           | Website:  www.openfoam.com                      |
|    \\/     M anipulation  |                                                 |
\*---------------------------------------------------------------------------*/
FoamFile
{
    version     2.0;
    format      ascii;
    arch        "LSB;label=32;scalar=64";
    class       volVectorField;
    location    "0.35";
    object      U;
}
// * * * * * * * * * * * * * * * * * * * * * * * * * * * * * * * * * * * * * //

dimensions      [0 1 -1 0 0 0 0];

internalField   nonuniform List<vector> 
690
(
(0.0830946 -0.00113985 -0.00135454)
(0.0839992 -0.000862954 -0.00126139)
(0.0849234 -0.000633676 -0.00109079)
(0.100391 -0.000481285 -0.000275379)
(0.100672 -0.000425027 -0.000363608)
(0.100951 -0.000365118 -0.00036338)
(0.10707 -9.8695e-05 0.000189153)
(0.107202 -0.000184432 0.00013627)
(0.107329 -0.000194834 0.000114271)
(0.0889604 -0.00011518 -0.00165152)
(0.0894253 0.000126286 -0.00161406)
(0.0898465 0.000215515 -0.00143538)
(0.0902202 0.000208397 -0.00121636)
(0.090501 0.000172982 -0.000993274)
(0.0907091 0.000134517 -0.00078598)
(0.0908656 9.92779e-05 -0.000604652)
(0.0909827 6.98289e-05 -0.000453443)
(0.0910685 4.69302e-05 -0.000332698)
(0.0911303 2.97364e-05 -0.000239741)
(0.0911746 1.70114e-05 -0.000170093)
(0.0912064 7.71133e-06 -0.000119274)
(0.103203 0.000204369 -0.000754721)
(0.103351 0.000280015 -0.000895406)
(0.103533 0.000304429 -0.00089394)
(0.103763 0.000286762 -0.000822613)
(0.103976 0.000252552 -0.00071898)
(0.104148 0.000212239 -0.00060271)
(0.10428 0.000171192 -0.000487803)
(0.10438 0.000133112 -0.000383654)
(0.104453 9.99943e-05 -0.000294864)
(0.104505 7.21963e-05 -0.000222551)
(0.104542 4.90377e-05 -0.000165853)
(0.104567 3.03929e-05 -0.000122564)
(0.108387 0.0003116 -0.000215586)
(0.108534 0.000285119 -0.000293489)
(0.108669 0.000271877 -0.000319385)
(0.108836 0.000253319 -0.000314437)
(0.108995 0.000227635 -0.000289746)
(0.109128 0.000197606 -0.000253767)
(0.109235 0.00016581 -0.000213571)
(0.109318 0.000134559 -0.000174238)
(0.109379 0.000105542 -0.000138837)
(0.109424 7.93966e-05 -0.000108934)
(0.109454 5.6305e-05 -8.48413e-05)
(0.109475 3.761e-05 -6.55003e-05)
(0.0923151 0.000701236 -0.00172513)
(0.0923019 0.000937161 -0.00179634)
(0.0922408 0.000896486 -0.00157093)
(0.092076 0.000730723 -0.00129041)
(0.0918599 0.00054985 -0.00102343)
(0.0916553 0.000399173 -0.000791783)
(0.0914831 0.000288516 -0.000599136)
(0.0913454 0.000202397 -0.000444359)
(0.0912389 0.000136212 -0.000323335)
(0.0911596 8.8663e-05 -0.000230904)
(0.0911037 5.52304e-05 -0.000162059)
(0.0910648 3.19978e-05 -0.000111989)
(0.104067 0.000842912 -0.000929848)
(0.104283 0.000990838 -0.00104872)
(0.104449 0.000976758 -0.00104828)
(0.104561 0.000864457 -0.000961532)
(0.104603 0.000721738 -0.00083202)
(0.104593 0.000577896 -0.000689204)
(0.104555 0.000446343 -0.000551629)
(0.104507 0.00033448 -0.000429494)
(0.104458 0.000244312 -0.000326827)
(0.104414 0.000174295 -0.000243886)
(0.104377 0.000120111 -0.000179122)
(0.104348 7.89046e-05 -0.000129935)
(0.108297 0.000746661 -0.000431902)
(0.108493 0.000809241 -0.000466778)
(0.108658 0.000805667 -0.000475264)
(0.10882 0.000744943 -0.000452642)
(0.108941 0.000652562 -0.000406473)
(0.109015 0.0005474 -0.000348214)
(0.109053 0.000442332 -0.000287133)
(0.109069 0.000346094 -0.000229629)
(0.10907 0.000263185 -0.000179304)
(0.109064 0.000194291 -0.000137394)
(0.109054 0.000138627 -0.000103703)
(0.109043 9.56573e-05 -7.73326e-05)
(0.110656 0.000579558 -0.000140524)
(0.11084 0.000565763 -0.000122972)
(0.110988 0.000551124 -0.000121664)
(0.111148 0.000517443 -0.000119561)
(0.111291 0.000465871 -0.000111779)
(0.111403 0.000403737 -9.9789e-05)
(0.111489 0.00033788 -8.56562e-05)
(0.111552 0.000273828 -7.11324e-05)
(0.111598 0.000215428 -5.75338e-05)
(0.111629 0.000164515 -4.55355e-05)
(0.111649 0.000121509 -3.52982e-05)
(0.111661 8.68568e-05 -2.68923e-05)
(0.112053 0.000325088 -0.00011048)
(0.112234 0.000296873 -9.16796e-05)
(0.112377 0.000277144 -7.43138e-05)
(0.11253 0.000255727 -6.14118e-05)
(0.112673 0.000230672 -5.20656e-05)
(0.112797 0.000202766 -4.48113e-05)
(0.112902 0.000173367 -3.85826e-05)
(0.112988 0.000144038 -3.28189e-05)
(0.113057 0.000116241 -2.73167e-05)
(0.11311 9.09614e-05 -2.20394e-05)
(0.11315 6.87476e-05 -1.70465e-05)
(0.113178 5.02541e-05 -1.26627e-05)
(0.112512 7.55762e-05 -0.000212544)
(0.112712 6.66138e-05 -0.00019503)
(0.112867 5.78257e-05 -0.000171817)
(0.113023 5.0172e-05 -0.000150189)
(0.113169 4.33822e-05 -0.000130705)
(0.113296 3.71274e-05 -0.000112745)
(0.113405 3.12528e-05 -9.58465e-05)
(0.113496 2.57529e-05 -7.98917e-05)
(0.113571 2.06905e-05 -6.49758e-05)
(0.11363 1.61083e-05 -5.12349e-05)
(0.113674 1.20058e-05 -3.88476e-05)
(0.113707 8.48496e-06 -2.83727e-05)
(0.112053 -0.000110414 -0.000325356)
(0.112234 -9.16268e-05 -0.000297237)
(0.112377 -7.42968e-05 -0.000277563)
(0.112529 -6.14494e-05 -0.000256149)
(0.112672 -5.21605e-05 -0.00023104)
(0.112796 -4.49373e-05 -0.000203034)
(0.112901 -3.86852e-05 -0.000173498)
(0.112987 -3.28229e-05 -0.000143991)
(0.113057 -2.71465e-05 -0.000115961)
(0.11311 -2.16738e-05 -9.03923e-05)
(0.11315 -1.66035e-05 -6.78915e-05)
(0.113178 -1.23692e-05 -4.92799e-05)
(0.110438 -0.000100932 -0.000351208)
(0.110579 -5.97323e-05 -0.000307477)
(0.110698 -3.64541e-05 -0.000291591)
(0.110839 -2.30355e-05 -0.000273481)
(0.110978 -1.62737e-05 -0.000246737)
(0.111099 -1.37418e-05 -0.000214156)
(0.111199 -1.30383e-05 -0.000179105)
(0.11128 -1.25068e-05 -0.000144521)
(0.111343 -1.12676e-05 -0.000112617)
(0.111391 -8.95905e-06 -8.44792e-05)
(0.111425 -5.78875e-06 -6.05146e-05)
(0.111449 -3.12552e-06 -4.18089e-05)
(0.107069 9.84591e-05 -0.000188914)
(0.1072 0.000183843 -0.000136296)
(0.107327 0.000194009 -0.000114798)
(0.107505 0.000176498 -9.7538e-05)
(0.107681 0.000148359 -7.96334e-05)
(0.107832 0.000116981 -6.24809e-05)
(0.107956 8.7796e-05 -4.67309e-05)
(0.108056 6.36374e-05 -3.28559e-05)
(0.108132 4.56565e-05 -2.08591e-05)
(0.10819 3.37437e-05 -1.04998e-05)
(0.108232 2.5906e-05 -2.75038e-06)
(0.100392 0.000480303 0.000274817)
(0.100672 0.000423639 0.000362764)
(0.100951 0.00036423 0.000362803)
(0.101311 0.000300478 0.000335912)
(0.101646 0.000233451 0.000294906)
(0.10192 0.000172113 0.000247554)
(0.102139 0.000122185 0.000201192)
(0.10231 8.4688e-05 0.000159695)
(0.102441 5.82883e-05 0.000124776)
(0.102538 4.10047e-05 9.69235e-05)
(0.102609 3.08793e-05 7.57317e-05)
(0.0830996 0.00114035 0.00135355)
(0.0840061 0.000863491 0.00126102)
(0.0849317 0.000634053 0.00109071)
(0.0857784 0.000471858 0.000906232)
(0.0864486 0.000341891 0.000724316)
(0.0869532 0.000238624 0.000559045)
(0.0873283 0.00016171 0.000418357)
(0.0876036 0.000107495 0.000306661)
(0.0878015 7.08341e-05 0.000221528)
(0.0879413 4.71379e-05 0.000158617)
(0.0880393 3.22388e-05 0.00011326)
(0.0924662 0.00152303 -0.0019491)
(0.0918088 0.00184764 -0.00187893)
(0.0910839 0.00152217 -0.00154582)
(0.0901503 0.00114542 -0.00118289)
(0.0892625 0.000830576 -0.000882291)
(0.0885445 0.000583888 -0.000647101)
(0.0879983 0.000401279 -0.00046178)
(0.0875934 0.000269354 -0.000323865)
(0.0873009 0.000174881 -0.000225074)
(0.0870952 0.000110858 -0.000154368)
(0.0869534 6.75767e-05 -0.000103995)
(0.086858 3.86217e-05 -6.84827e-05)
(0.102265 0.00153755 -0.00109974)
(0.102748 0.00179908 -0.00112425)
(0.102936 0.0016548 -0.00101979)
(0.102881 0.0013732 -0.000854861)
(0.102671 0.00109733 -0.000685019)
(0.102406 0.000843648 -0.000529567)
(0.102147 0.000618353 -0.000396482)
(0.101921 0.000439655 -0.00029135)
(0.101736 0.000308913 -0.000212323)
(0.101592 0.0002134 -0.000153245)
(0.101484 0.000143716 -0.000109338)
(0.101406 9.39108e-05 -7.71442e-05)
(0.106377 0.00119412 -0.000461547)
(0.106606 0.00134325 -0.00044603)
(0.106781 0.00132466 -0.000406678)
(0.106906 0.00118633 -0.000345351)
(0.106944 0.000999797 -0.000277163)
(0.106915 0.000805631 -0.000214185)
(0.106853 0.000625876 -0.000161438)
(0.106778 0.000471757 -0.000119694)
(0.106706 0.00034707 -8.81485e-05)
(0.106643 0.000249732 -6.48209e-05)
(0.10659 0.000174901 -4.71901e-05)
(0.106549 0.000118994 -3.38987e-05)
(0.108721 0.000814962 -8.08752e-05)
(0.108918 0.000822948 -5.65042e-05)
(0.10907 0.00080714 -3.42977e-05)
(0.109233 0.000747572 -1.75319e-05)
(0.109365 0.000657281 -6.71466e-06)
(0.109454 0.000553392 -1.12358e-06)
(0.109511 0.000448773 1.0007e-06)
(0.109546 0.00035224 1.29553e-06)
(0.109566 0.000268769 8.25321e-07)
(0.109575 0.000199628 3.73137e-07)
(0.109579 0.000143669 6.0596e-07)
(0.109578 0.000100291 1.09175e-06)
(0.110439 0.000351197 -0.000101019)
(0.110579 0.000307376 -5.97682e-05)
(0.110699 0.000291417 -3.64487e-05)
(0.11084 0.000273259 -2.29873e-05)
(0.110979 0.000246497 -1.61809e-05)
(0.111099 0.00021393 -1.36191e-05)
(0.1112 0.000178932 -1.29304e-05)
(0.111281 0.000144473 -1.25041e-05)
(0.111344 0.000112828 -1.15132e-05)
(0.111391 8.51306e-05 -9.59374e-06)
(0.111425 6.16531e-05 -6.7502e-06)
(0.111449 4.27535e-05 -3.71297e-06)
(0.111184 2.75445e-05 -0.000323441)
(0.111325 9.06622e-06 -0.000285552)
(0.111444 -7.3839e-06 -0.000261415)
(0.11158 -1.80023e-05 -0.000237922)
(0.111714 -2.28261e-05 -0.000212287)
(0.111834 -2.36221e-05 -0.000185111)
(0.111936 -2.21407e-05 -0.000157364)
(0.112019 -1.96529e-05 -0.00013015)
(0.112085 -1.69818e-05 -0.000104487)
(0.112135 -1.46347e-05 -8.09746e-05)
(0.112171 -1.28869e-05 -5.98934e-05)
(0.112197 -1.15067e-05 -4.222e-05)
(0.110656 -0.000140334 -0.000579758)
(0.11084 -0.000122733 -0.000566042)
(0.110987 -0.000121435 -0.000551436)
(0.111147 -0.000119414 -0.000517748)
(0.11129 -0.000111764 -0.000466139)
(0.111402 -9.98916e-05 -0.000403954)
(0.111488 -8.58121e-05 -0.000338048)
(0.111551 -7.12499e-05 -0.000273945)
(0.111596 -5.75188e-05 -0.000215456)
(0.111628 -4.53356e-05 -0.000164355)
(0.111648 -3.49791e-05 -0.00012101)
(0.11166 -2.66359e-05 -8.60934e-05)
(0.10872 -8.07577e-05 -0.00081491)
(0.108917 -5.63961e-05 -0.000822964)
(0.10907 -3.42151e-05 -0.000807208)
(0.109233 -1.75018e-05 -0.00074768)
(0.109364 -6.76251e-06 -0.000657424)
(0.109453 -1.25176e-06 -0.000553574)
(0.10951 8.25944e-07 -0.000448988)
(0.109545 1.15282e-06 -0.00035245)
(0.109565 8.4522e-07 -0.000268864)
(0.109575 6.86245e-07 -0.000199424)
(0.109578 1.10389e-06 -0.000143182)
(0.109577 1.44385e-06 -9.98323e-05)
(0.104996 0.000298862 -0.000852955)
(0.105057 0.000379973 -0.000887571)
(0.105153 0.000385765 -0.000859895)
(0.105283 0.00035837 -0.000766466)
(0.10539 0.000312047 -0.000641782)
(0.105462 0.000257295 -0.000513044)
(0.105509 0.000203441 -0.000394871)
(0.105539 0.000155707 -0.000294611)
(0.105559 0.000115901 -0.000214375)
(0.105572 8.50418e-05 -0.00015146)
(0.105579 6.21548e-05 -0.000103814)
(0.0969499 0.0010222 -0.000530426)
(0.0972614 0.00102503 -0.000668157)
(0.0975104 0.00090832 -0.000611189)
(0.0977989 0.00074478 -0.000483923)
(0.0980393 0.00057634 -0.000363501)
(0.0982209 0.000427954 -0.000263715)
(0.0983617 0.000309097 -0.000184208)
(0.0984708 0.000218759 -0.000124645)
(0.0985534 0.000152536 -8.18833e-05)
(0.0986152 0.00010626 -5.07578e-05)
(0.0986607 7.45759e-05 -2.87583e-05)
(0.0752697 0.00254558 0.00070976)
(0.0769946 0.00210635 0.0004298)
(0.0784008 0.0016415 0.000322618)
(0.0794434 0.00120325 0.000294001)
(0.0801682 0.000825271 0.000256002)
(0.0806706 0.000546865 0.00020781)
(0.0810225 0.000354726 0.000162068)
(0.0812667 0.000226439 0.000123117)
(0.0814337 0.000143334 9.24682e-05)
(0.0815471 9.06147e-05 6.9662e-05)
(0.0816236 5.73514e-05 5.33336e-05)
(0.0877197 0.00258702 -0.00191209)
(0.0854895 0.00262806 -0.00159223)
(0.0833259 0.00187021 -0.000968584)
(0.0812195 0.00117778 -0.000468586)
(0.0796007 0.000734855 -0.000209976)
(0.078508 0.000463398 -8.61001e-05)
(0.0777785 0.000290873 -2.92907e-05)
(0.0772875 0.000183326 -3.44197e-06)
(0.0769606 0.000114268 7.43852e-06)
(0.0767468 6.87509e-05 1.10358e-05)
(0.0766098 3.84207e-05 1.14898e-05)
(0.0765238 1.7985e-05 1.07097e-05)
(0.0968598 0.00242213 -0.00100931)
(0.097651 0.0027328 -0.000885535)
(0.0976482 0.00226495 -0.000584234)
(0.097176 0.00167091 -0.000329147)
(0.0965686 0.0011891 -0.000166745)
(0.0960156 0.000827126 -7.41935e-05)
(0.0955699 0.000564973 -2.7246e-05)
(0.0952306 0.000382795 -7.56279e-06)
(0.0949817 0.000258539 -1.41397e-06)
(0.0948044 0.000173753 -2.1344e-08)
(0.09468 0.000115022 3.46581e-07)
(0.094594 7.39686e-05 6.02878e-07)
(0.101799 0.00162988 -6.45128e-05)
(0.10208 0.00181223 -5.92265e-05)
(0.102216 0.00168588 1.25198e-05)
(0.10222 0.00140496 8.33345e-05)
(0.102115 0.00110192 0.000122835)
(0.101963 0.000829512 0.00013249)
(0.10181 0.000608451 0.000120572)
(0.101677 0.000437686 9.91783e-05)
(0.101569 0.000309464 7.64272e-05)
(0.101487 0.000215186 5.60606e-05)
(0.101425 0.000146058 4.05749e-05)
(0.101381 9.6359e-05 2.93877e-05)
(0.104996 0.000853257 0.00029871)
(0.105057 0.00088788 0.000379831)
(0.105154 0.000860147 0.000385665)
(0.105284 0.000766643 0.000358332)
(0.105391 0.000641878 0.000312084)
(0.105463 0.00051305 0.000257413)
(0.105509 0.000394806 0.000203613)
(0.10554 0.000294556 0.000155843)
(0.10556 0.000214562 0.000115771)
(0.105573 0.000152261 8.4301e-05)
(0.10558 0.000104575 6.12015e-05)
(0.105584 6.92557e-05 4.47764e-05)
(0.107069 0.000189089 9.82875e-05)
(0.107201 0.000136428 0.000183688)
(0.107328 0.000114874 0.000193887)
(0.107506 9.75537e-05 0.00017643)
(0.107683 7.95885e-05 0.000148361)
(0.107834 6.23782e-05 0.000117057)
(0.107958 4.65956e-05 8.79125e-05)
(0.108057 3.27892e-05 6.36764e-05)
(0.108134 2.1146e-05 4.53203e-05)
(0.108191 1.14877e-05 3.26959e-05)
(0.108233 3.85576e-06 2.46914e-05)
(0.108262 -1.64581e-06 1.97849e-05)
(0.108386 -0.000215369 -0.00031184)
(0.108534 -0.0002931 -0.00028546)
(0.108668 -0.000318852 -0.000272298)
(0.108835 -0.000314013 -0.000253651)
(0.108994 -0.000289675 -0.000227773)
(0.109127 -0.000253988 -0.00019762)
(0.109234 -0.000213935 -0.000165792)
(0.109316 -0.000174609 -0.000134567)
(0.109378 -0.000139112 -0.000105603)
(0.109422 -0.000109042 -7.95241e-05)
(0.109453 -8.47868e-05 -5.64896e-05)
(0.109474 -6.54941e-05 -3.75948e-05)
(0.108297 -0.000431742 -0.000746653)
(0.108493 -0.000466523 -0.000809256)
(0.108658 -0.000474972 -0.000805707)
(0.108819 -0.000452417 -0.000744988)
(0.10894 -0.000406409 -0.000652607)
(0.109014 -0.000348313 -0.00054746)
(0.109052 -0.000287328 -0.00044243)
(0.109068 -0.000229836 -0.000346234)
(0.109069 -0.000179436 -0.000263318)
(0.109063 -0.000137389 -0.000194317)
(0.109053 -0.00010358 -0.000138436)
(0.109042 -7.72065e-05 -9.5236e-05)
(0.106377 -0.0004615 -0.00119401)
(0.106605 -0.00044596 -0.00134315)
(0.106781 -0.000406599 -0.00132456)
(0.106905 -0.0003453 -0.00118625)
(0.106943 -0.00027719 -0.000999758)
(0.106915 -0.000214314 -0.000805671)
(0.106852 -0.000161645 -0.000625998)
(0.106777 -0.000119926 -0.000471941)
(0.106705 -8.83254e-05 -0.000347219)
(0.106642 -6.48501e-05 -0.000249664)
(0.10659 -4.70583e-05 -0.000174505)
(0.106548 -3.36555e-05 -0.000118345)
(0.101799 -6.4452e-05 -0.00162966)
(0.10208 -5.91652e-05 -0.00181199)
(0.102216 1.25649e-05 -0.00168564)
(0.10222 8.33454e-05 -0.00140473)
(0.102115 0.000122794 -0.00110174)
(0.101963 0.00013235 -0.000829439)
(0.10181 0.000120345 -0.000608465)
(0.101676 9.89453e-05 -0.000437677)
(0.101569 7.62979e-05 -0.000309286)
(0.101486 5.63621e-05 -0.000214392)
(0.101424 4.104e-05 -0.000145287)
(0.0933074 0.000729831 -0.00174265)
(0.0932863 0.000675571 -0.00190095)
(0.093239 0.000620258 -0.00157878)
(0.0930548 0.000550852 -0.00116936)
(0.0928405 0.000458976 -0.000833312)
(0.0926678 0.000360326 -0.000579441)
(0.0925477 0.000269108 -0.000396335)
(0.0924695 0.000192835 -0.000269258)
(0.0924194 0.000133947 -0.000181484)
(0.0923887 9.14468e-05 -0.000119851)
(0.0923695 6.20007e-05 -7.65415e-05)
(0.0677203 0.00306636 -0.000286175)
(0.0696052 0.00241836 -0.000585486)
(0.0704304 0.00172744 -0.000200446)
(0.070716 0.00116927 3.52453e-05)
(0.070834 0.000764293 7.87643e-05)
(0.0709241 0.000489741 7.29057e-05)
(0.0709965 0.000309304 6.45969e-05)
(0.0710473 0.000191989 5.55254e-05)
(0.071083 0.000117098 4.6857e-05)
(0.0711069 7.10519e-05 4.04718e-05)
(0.0711247 4.32434e-05 3.5903e-05)
(0.0725164 0.00290884 -0.00103912)
(0.0673286 0.00273258 -0.000774817)
(0.0640366 0.00183873 -0.000303441)
(0.061568 0.00115113 -7.0579e-05)
(0.0601895 0.000694182 2.46795e-05)
(0.0595258 0.000417072 5.47136e-05)
(0.059172 0.000261431 4.95031e-05)
(0.058958 0.000171759 3.324e-05)
(0.0588256 0.000115369 1.92514e-05)
(0.0587453 7.73986e-05 1.09024e-05)
(0.0586988 5.08806e-05 6.71412e-06)
(0.0586745 3.18372e-05 4.62019e-06)
(0.0852811 0.00427953 -0.000911624)
(0.086174 0.00392554 -0.000689871)
(0.0856455 0.00260406 -0.000224892)
(0.0846197 0.00157827 4.51635e-05)
(0.0837852 0.000977144 0.00012964)
(0.0832442 0.000618872 0.000135747)
(0.0828965 0.000400622 0.000111643)
(0.0826692 0.000265043 8.0333e-05)
(0.0825225 0.000177908 5.26503e-05)
(0.082428 0.000119527 3.21231e-05)
(0.0823677 7.94983e-05 1.8435e-05)
(0.08233 5.20359e-05 9.69143e-06)
(0.0933068 0.0017428 0.000729675)
(0.0932857 0.00190111 0.000675397)
(0.0932384 0.00157893 0.000620104)
(0.0930543 0.00116951 0.000550734)
(0.09284 0.000833451 0.00045891)
(0.0926673 0.000579548 0.000360336)
(0.0925474 0.000396406 0.000269215)
(0.0924693 0.000269381 0.000193001)
(0.0924194 0.000181918 0.000134012)
(0.0923886 0.000120974 9.11344e-05)
(0.0923698 7.83058e-05 6.12828e-05)
(0.0923585 4.85419e-05 4.11227e-05)
(0.0969495 0.000530629 0.00102213)
(0.097261 0.000668393 0.001025)
(0.09751 0.000611432 0.000908306)
(0.0977985 0.000484145 0.000744785)
(0.098039 0.000363675 0.000576381)
(0.0982207 0.000263848 0.000428032)
(0.0983616 0.000184251 0.000309262)
(0.0984709 0.000124625 0.000219)
(0.0985537 8.20335e-05 0.000152652)
(0.0986156 5.16622e-05 0.000105708)
(0.098661 3.00109e-05 7.35711e-05)
(0.0986938 1.49265e-05 5.20052e-05)
(0.100392 -0.000274829 0.000480404)
(0.100673 -0.000362785 0.000423678)
(0.100952 -0.000362777 0.000364157)
(0.101312 -0.000335879 0.000300366)
(0.101648 -0.000294909 0.00023337)
(0.101922 -0.000247625 0.00017212)
(0.102141 -0.000201362 0.000122312)
(0.102313 -0.000159903 8.48559e-05)
(0.102443 -0.000124867 5.83171e-05)
(0.10254 -9.64876e-05 4.04297e-05)
(0.102611 -7.46765e-05 2.95625e-05)
(0.102661 -5.83334e-05 2.35767e-05)
(0.103203 -0.000754663 -0.000204657)
(0.103351 -0.000895162 -0.000280434)
(0.103533 -0.000893474 -0.000304798)
(0.103763 -0.000822146 -0.000286916)
(0.103976 -0.000718729 -0.000252506)
(0.104148 -0.000602683 -0.000212135)
(0.10428 -0.000487921 -0.000171136)
(0.104381 -0.00038384 -0.000133143)
(0.104454 -0.00029505 -0.000100079)
(0.104507 -0.000222728 -7.22683e-05)
(0.104543 -0.000166007 -4.91228e-05)
(0.104568 -0.000122721 -3.04268e-05)
(0.104066 -0.000929989 -0.000842829)
(0.104283 -0.0010488 -0.000990787)
(0.104449 -0.00104829 -0.000976717)
(0.104561 -0.000961508 -0.000864438)
(0.104603 -0.000832012 -0.000721755)
(0.104593 -0.000689228 -0.000577954)
(0.104555 -0.000551677 -0.000446458)
(0.104507 -0.000429566 -0.000334667)
(0.104458 -0.000326921 -0.000244554)
(0.104414 -0.000244048 -0.000174264)
(0.104377 -0.000179379 -0.000119868)
(0.104348 -0.000130138 -7.88895e-05)
(0.102265 -0.00109994 -0.00153739)
(0.102748 -0.00112444 -0.00179891)
(0.102936 -0.00101995 -0.00165461)
(0.102881 -0.000854988 -0.00137304)
(0.102671 -0.000685144 -0.00109724)
(0.102406 -0.0005297 -0.000843626)
(0.102147 -0.000396632 -0.000618394)
(0.101921 -0.00029153 -0.000439769)
(0.101736 -0.000212545 -0.00030901)
(0.101592 -0.000153494 -0.000213207)
(0.101484 -0.000109488 -0.00014271)
(0.101405 -7.71797e-05 -9.28642e-05)
(0.0968602 -0.00100945 -0.00242201)
(0.0976513 -0.000885697 -0.00273259)
(0.0976485 -0.000584377 -0.00226467)
(0.0971762 -0.00032928 -0.00167062)
(0.0965688 -0.000166898 -0.00118888)
(0.0960157 -7.43902e-05 -0.000827001)
(0.09557 -2.74865e-05 -0.000564902)
(0.0952306 -7.83129e-06 -0.000382686)
(0.0949815 -1.68738e-06 -0.000258257)
(0.0948041 -2.66161e-07 -0.000173198)
(0.0946792 -4.79649e-07 -0.000115686)
(0.0852821 -0.000911664 -0.00427951)
(0.0861749 -0.000689892 -0.00392544)
(0.0856463 -0.000224881 -0.00260386)
(0.0846206 4.51689e-05 -0.00157805)
(0.083786 0.000129615 -0.000976951)
(0.083245 0.000135658 -0.000618723)
(0.0828973 0.000111484 -0.000400489)
(0.0826699 8.01224e-05 -0.000264827)
(0.0825231 5.24585e-05 -0.000177407)
(0.082429 3.20716e-05 -0.000118507)
(0.0823689 1.81529e-05 -7.89599e-05)
(0.0605726 0.000783237 -0.00358833)
(0.0584421 0.000622192 -0.0027092)
(0.0573073 0.000734265 -0.000951662)
(0.0564797 0.00063622 -6.44641e-05)
(0.056165 0.000461385 0.000132657)
(0.0560987 0.000299893 0.000145423)
(0.0560709 0.000179892 0.000123313)
(0.056041 0.000102344 9.67537e-05)
(0.0560176 5.6226e-05 7.44651e-05)
(0.0560019 2.99167e-05 5.74736e-05)
(0.0559934 1.50297e-05 4.47185e-05)
(0.0525097 0.00366685 -0.000693888)
(0.0428906 0.00142837 0.000217886)
(0.0396777 0.000313964 0.00040116)
(0.0380156 8.17023e-05 0.000272376)
(0.0373469 6.30756e-05 0.000155201)
(0.0371071 3.88631e-05 8.82668e-05)
(0.0369876 2.32065e-05 4.57358e-05)
(0.0369118 1.28085e-05 2.04293e-05)
(0.036865 6.11906e-06 7.02251e-06)
(0.0368373 2.33596e-06 7.24565e-07)
(0.0368225 4.60413e-07 -1.9519e-06)
(0.0368172 -5.05588e-07 -2.84856e-06)
(0.0605715 0.00358828 0.00078307)
(0.0584409 0.0027092 0.000621969)
(0.057306 0.000951645 0.000734019)
(0.0564783 6.44948e-05 0.000635995)
(0.0561636 -0.000132648 0.000461214)
(0.0560972 -0.000145353 0.000299778)
(0.0560695 -0.000123196 0.000179844)
(0.0560397 -9.65426e-05 0.000102364)
(0.0560162 -7.40762e-05 5.62711e-05)
(0.056 -5.67591e-05 2.99536e-05)
(0.0559909 -4.37654e-05 1.51858e-05)
(0.0559882 -3.36012e-05 6.86676e-06)
(0.067719 0.000286126 0.00306609)
(0.0696038 0.00058536 0.00241808)
(0.0704289 0.000200294 0.00172708)
(0.0707144 -3.53843e-05 0.00116893)
(0.0708323 -7.88595e-05 0.000763987)
(0.0709224 -7.29386e-05 0.000489495)
(0.0709948 -6.45943e-05 0.00030915)
(0.0710457 -5.54949e-05 0.000191938)
(0.0710815 -4.67089e-05 0.000117113)
(0.0711053 -3.99733e-05 7.10087e-05)
(0.0711229 -3.48568e-05 4.31507e-05)
(0.0711369 -3.07933e-05 2.63777e-05)
(0.0752682 -0.000709774 0.0025452)
(0.0769929 -0.000429955 0.00210593)
(0.0783989 -0.000322786 0.00164105)
(0.0794412 -0.000294138 0.00120279)
(0.0801657 -0.000256112 0.000824885)
(0.080668 -0.000207918 0.000546575)
(0.0810199 -0.000162155 0.000354516)
(0.0812641 -0.000123173 0.000226306)
(0.0814313 -9.25199e-05 0.000143342)
(0.0815445 -6.95948e-05 9.06828e-05)
(0.0816212 -5.30342e-05 5.74219e-05)
(0.0816738 -4.16813e-05 3.70809e-05)
(0.0830971 -0.00135303 0.00113976)
(0.0840024 -0.00126027 0.000862726)
(0.084927 -0.00109003 0.000633265)
(0.0857728 -0.000905738 0.000471128)
(0.0864423 -0.000723987 0.000341251)
(0.0869462 -0.000558903 0.000238099)
(0.0873209 -0.000418274 0.000161336)
(0.087596 -0.000306686 0.000107297)
(0.0877938 -0.000221704 7.07851e-05)
(0.0879337 -0.000159081 4.73639e-05)
(0.0880321 -0.000113922 3.27514e-05)
(0.0881006 -8.1791e-05 2.38188e-05)
(0.0889621 -0.00165185 0.000115197)
(0.0894273 -0.0016146 -0.000126441)
(0.0898488 -0.0014357 -0.000215812)
(0.0902228 -0.00121617 -0.000208781)
(0.0905036 -0.000992502 -0.000173439)
(0.0907114 -0.000784907 -0.000135126)
(0.0908673 -0.000603486 -0.000100023)
(0.0909839 -0.000452353 -7.0642e-05)
(0.0910691 -0.000331782 -4.76736e-05)
(0.0911304 -0.000239107 -3.02607e-05)
(0.0911745 -0.000169813 -1.7188e-05)
(0.0912064 -0.000119355 -7.36817e-06)
(0.092316 -0.00172578 -0.000701088)
(0.092303 -0.00179707 -0.000937116)
(0.0922421 -0.00157157 -0.000896483)
(0.0920774 -0.00129078 -0.000730753)
(0.0918615 -0.00102342 -0.000549923)
(0.0916571 -0.000791439 -0.000399343)
(0.0914849 -0.000598563 -0.00028885)
(0.0913473 -0.00044366 -0.000202948)
(0.0912407 -0.000322736 -0.000136673)
(0.0911616 -0.000230564 -8.89037e-05)
(0.0911057 -0.000162005 -5.52643e-05)
(0.0910671 -0.000112268 -3.14928e-05)
(0.0924668 -0.00194967 -0.00152289)
(0.0918095 -0.00187954 -0.00184754)
(0.0910847 -0.00154642 -0.00152206)
(0.0901511 -0.00118339 -0.00114532)
(0.0892635 -0.000882629 -0.000830486)
(0.0885457 -0.000647232 -0.000583854)
(0.0879997 -0.000461716 -0.00040128)
(0.0875948 -0.000323762 -0.0002697)
(0.0873025 -0.000225032 -0.000175088)
(0.0870968 -0.000154436 -0.000110692)
(0.0869551 -0.000103906 -6.71675e-05)
(0.0868592 -6.83478e-05 -3.76989e-05)
(0.0877203 -0.00191245 -0.00258695)
(0.0854902 -0.00159264 -0.00262798)
(0.0833267 -0.000969014 -0.00187007)
(0.0812204 -0.00046898 -0.00117763)
(0.0796016 -0.000210353 -0.000734718)
(0.0785091 -8.63677e-05 -0.000463309)
(0.0777797 -2.94922e-05 -0.000290817)
(0.0772888 -3.65535e-06 -0.00018333)
(0.0769622 7.17674e-06 -0.000114152)
(0.0767488 1.07447e-05 -6.82722e-05)
(0.0766122 1.1386e-05 -3.65301e-05)
(0.0725173 -0.00103929 -0.00290895)
(0.0673295 -0.000775024 -0.00273259)
(0.0640376 -0.000303654 -0.00183867)
(0.0615691 -7.07829e-05 -0.00115101)
(0.0601907 2.44782e-05 -0.000694081)
(0.0595271 5.4517e-05 -0.000417011)
(0.0591733 4.92892e-05 -0.000261404)
(0.0589593 3.2958e-05 -0.000171764)
(0.058827 1.89008e-05 -0.000115324)
(0.0587472 1.04813e-05 -7.72419e-05)
(0.058701 6.08653e-06 -5.04678e-05)
(0.0525106 -0.000693941 -0.0036669)
(0.0428913 0.000217871 -0.0014284)
(0.0396784 0.00040119 -0.00031401)
(0.0380163 0.000272402 -8.17053e-05)
(0.0373477 0.000155202 -6.30507e-05)
(0.0371079 8.8241e-05 -3.8845e-05)
(0.0369883 4.56777e-05 -2.31731e-05)
(0.0369126 2.03133e-05 -1.27526e-05)
(0.0368659 6.84873e-06 -6.01209e-06)
(0.0368387 4.7464e-07 -2.14702e-06)
(0.0368244 -2.38255e-06 -2.66431e-07)
)
;

boundaryField
{
    inlet
    {
        type            fixedValue;
        value           nonuniform List<vector> 0();
    }
    ami1
    {
        type            cyclicAMI;
        value           nonuniform List<vector> 0();
    }
    walls
    {
        type            noSlip;
    }
    ami2
    {
        type            cyclicAMI;
        value           nonuniform List<vector> 
61
(
(0.0826263 -0.00103258 -0.00108226)
(0.100122 -0.000463283 -0.000177356)
(0.106909 -1.83182e-05 0.000231702)
(0.0887123 -0.000176922 -0.00142025)
(0.103108 0.000202339 -0.000618997)
(0.108237 0.000346072 -0.000148801)
(0.0924381 0.000527356 -0.00145446)
(0.103923 0.000748664 -0.00081663)
(0.108106 0.00072586 -0.000388675)
(0.110453 0.000594529 -0.000147944)
(0.111876 0.000346995 -0.000114896)
(0.112326 7.51974e-05 -0.000204974)
(0.111876 -0.000114831 -0.0003472)
(0.110301 -0.00013426 -0.000388303)
(0.106908 1.82232e-05 -0.000231474)
(0.100123 0.000462782 0.000177093)
(0.0826299 0.0010329 0.0010818)
(0.0931903 0.00114128 -0.00161505)
(0.101875 0.00127385 -0.000996278)
(0.10616 0.00111172 -0.00044253)
(0.108475 0.000828616 -9.89767e-05)
(0.110301 0.000388326 -0.00013436)
(0.111055 3.87761e-05 -0.000350803)
(0.110452 -0.000147795 -0.000594664)
(0.108475 -9.88606e-05 -0.00082853)
(0.104924 0.000222335 -0.000822279)
(0.0966423 0.000984833 -0.000409966)
(0.0741108 0.00216513 0.000506248)
(0.0898093 0.00187473 -0.00162423)
(0.0960779 0.0018938 -0.00084673)
(0.10151 0.00147848 -6.53043e-05)
(0.104924 0.000822542 0.000222195)
(0.106908 0.000231647 1.8063e-05)
(0.108237 -0.000148664 -0.000346238)
(0.108106 -0.000388567 -0.000725837)
(0.10616 -0.000442492 -0.00111159)
(0.10151 -6.52392e-05 -0.00147827)
(0.0934351 0.000781981 -0.00134709)
(0.0659158 0.00284595 0.000105746)
(0.079268 0.00229998 -0.000863613)
(0.0840379 0.00316561 -0.000547147)
(0.0934346 0.00134726 0.000781823)
(0.096642 0.000410167 0.000984732)
(0.100123 -0.000177001 0.000462779)
(0.103109 -0.00061897 -0.000202524)
(0.103923 -0.000816769 -0.000748549)
(0.101875 -0.000996464 -0.00127369)
(0.0960783 -0.000846851 -0.00189369)
(0.0840389 -0.000547159 -0.00316559)
(0.0631784 0.00139106 -0.00207785)
(0.0642998 0.00280338 -0.000116677)
(0.0631773 0.0020778 0.00139091)
(0.0659148 -0.000105762 0.00284574)
(0.0741097 -0.000506186 0.00216485)
(0.082628 -0.00108139 0.00103247)
(0.0887137 -0.00142053 0.000177008)
(0.0924389 -0.00145502 -0.000527136)
(0.0931909 -0.00161558 -0.0011411)
(0.08981 -0.0016246 -0.00187465)
(0.0792689 -0.00086374 -0.00230004)
(0.0643008 -0.000116671 -0.00280342)
)
;
    }
    outlet
    {
        type            zeroGradient;
    }
    procBoundary1to0
    {
        type            processor;
        value           nonuniform List<vector> 
138
(
(0.0857699 -0.000471665 -0.000905918)
(0.0857699 -0.000471665 -0.000905918)
(0.0864407 -0.000341936 -0.000723701)
(0.086946 -0.000238982 -0.000558024)
(0.0873221 -0.000162335 -0.000417504)
(0.0875984 -0.000108288 -0.000306245)
(0.0877971 -7.17599e-05 -0.000221671)
(0.0879376 -4.79395e-05 -0.000159106)
(0.0880364 -3.28468e-05 -0.000113836)
(0.0881048 -2.35839e-05 -8.16214e-05)
(0.101312 -0.000300205 -0.000335705)
(0.101312 -0.000300205 -0.000335705)
(0.101647 -0.000232573 -0.00029414)
(0.101921 -0.000171327 -0.000246718)
(0.10214 -0.000121711 -0.000200501)
(0.102311 -8.4486e-05 -0.000159188)
(0.102442 -5.81139e-05 -0.000124315)
(0.102538 -4.03214e-05 -9.60717e-05)
(0.102609 -2.96906e-05 -7.44886e-05)
(0.102659 -2.41065e-05 -5.84603e-05)
(0.11044 0.000100557 0.00035132)
(0.11058 5.914e-05 0.000307437)
(0.107507 -0.000176963 9.70198e-05)
(0.1107 3.57999e-05 0.000291422)
(0.107507 -0.000176963 9.70198e-05)
(0.107683 -0.000148297 7.95289e-05)
(0.107834 -0.00011677 6.25991e-05)
(0.107958 -8.75946e-05 4.69503e-05)
(0.108058 -6.34186e-05 3.3161e-05)
(0.108134 -4.51167e-05 2.15056e-05)
(0.108191 -3.26268e-05 1.17377e-05)
(0.108233 -2.49187e-05 3.84588e-06)
(0.108262 -2.00679e-05 -1.65622e-06)
(0.111185 0.000323 2.73759e-05)
(0.111326 0.000284997 8.83582e-06)
(0.111445 0.000260828 -7.60342e-06)
(0.111581 0.000237417 -1.80799e-05)
(0.111716 0.000211948 -2.26921e-05)
(0.111835 0.000184946 -2.33254e-05)
(0.111937 0.000157337 -2.17846e-05)
(0.11202 0.000130218 -1.93473e-05)
(0.112086 0.000104626 -1.68185e-05)