/*--------------------------------*- C++ -*----------------------------------*\
| =========                 |                                                 |
| \\      /  F ield         | OpenFOAM: The Open Source CFD Toolbox           |
|  \\    /   O peration     | Version:  2212                                  |
|   \\  /    A nd           | Website:  www.openfoam.com                      |
|    \\/     M anipulation  |                                                 |
\*---------------------------------------------------------------------------*/
FoamFile
{
    version     2.0;
    format      ascii;
    arch        "LSB;label=32;scalar=64";
    class       volScalarField;
    location    "2.65";
    object      nut;
}
// * * * * * * * * * * * * * * * * * * * * * * * * * * * * * * * * * * * * * //

dimensions      [0 2 -1 0 0 0 0];

internalField   nonuniform List<scalar> 
680
(
4.5356e-05
2.3208e-05
1.65396e-05
1.36493e-05
1.18966e-05
1.06844e-05
9.76077e-06
0.000107685
6.77183e-05
5.06311e-05
4.14159e-05
3.54049e-05
3.10367e-05
2.77138e-05
0.000160509
0.00010736
8.07409e-05
6.55976e-05
5.54897e-05
4.83027e-05
4.31312e-05
0.000198681
0.0001383
0.000105187
8.5527e-05
7.25013e-05
6.28903e-05
5.60613e-05
0.000218609
0.000155003
0.000118661
9.65069e-05
8.18824e-05
7.08356e-05
6.30856e-05
0.000218609
0.000155003
0.000118661
9.65068e-05
8.18823e-05
7.08354e-05
6.30853e-05
0.000198681
0.0001383
0.000105187
8.55268e-05
7.25011e-05
6.28899e-05
5.60607e-05
0.000160509
0.00010736
8.07408e-05
6.55975e-05
5.54895e-05
4.83024e-05
4.31308e-05
0.000107685
6.77183e-05
5.06311e-05
4.14159e-05
3.54049e-05
3.10367e-05
2.77137e-05
4.5356e-05
2.3208e-05
1.65396e-05
1.36493e-05
1.18966e-05
1.06844e-05
9.76077e-06
0.000107685
6.77183e-05
5.06311e-05
4.14159e-05
3.54049e-05
3.10367e-05
2.77137e-05
0.000528907
0.000369984
0.000305097
0.000261371
0.000228528
0.000202476
0.000181115
0.000663952
0.000488459
0.000404619
0.000347249
0.000305037
0.00027213
0.000245322
0.00071288
0.000556432
0.000466397
0.000402356
0.000354427
0.000317053
0.000286679
0.000728543
0.000588231
0.000496002
0.000429132
0.00037851
0.000338935
0.000306818
0.000728543
0.000588231
0.000496001
0.000429131
0.000378508
0.000338932
0.000306814
0.00071288
0.000556432
0.000466396
0.000402354
0.000354424
0.000317047
0.00028667
0.000663952
0.000488458
0.000404619
0.000347247
0.000305035
0.000272126
0.000245316
0.000528907
0.000369984
0.000305097
0.000261371
0.000228528
0.000202476
0.000181115
0.000107685
6.77183e-05
5.06311e-05
4.14159e-05
3.54049e-05
3.10367e-05
2.77138e-05
0.000160509
0.00010736
8.07408e-05
6.55975e-05
5.54895e-05
4.83024e-05
4.31308e-05
0.000663952
0.000488458
0.000404619
0.000347247
0.000305035
0.000272126
0.000245316
0.000786828
0.000662293
0.000567974
0.000495805
0.000439464
0.000394563
0.000357975
0.000809324
0.000713906
0.000631505
0.000562574
0.000505378
0.000457787
0.000417843
0.000814958
0.000730426
0.000654634
0.000589044
0.000533067
0.000485439
0.000444763
0.000814958
0.000730426
0.000654634
0.000589043
0.000533066
0.000485437
0.000444761
0.000809324
0.000713905
0.000631504
0.000562573
0.000505376
0.000457784
0.000417839
0.000786828
0.000662293
0.000567974
0.000495805
0.000439464
0.000394562
0.000357975
0.000663952
0.000488459
0.000404619
0.000347249
0.000305037
0.00027213
0.000245322
0.000160509
0.00010736
8.07409e-05
6.55976e-05
5.54897e-05
4.83027e-05
4.31312e-05
0.000198681
0.0001383
0.000105187
8.55268e-05
7.25011e-05
6.28899e-05
5.60607e-05
0.00071288
0.000556432
0.000466396
0.000402354
0.000354424
0.000317047
0.00028667
0.000809324
0.000713905
0.000631504
0.000562573
0.000505376
0.000457784
0.000417839
0.000823497
0.000753987
0.000688491
0.000628748
0.000575387
0.000528266
0.000486845
0.000826292
0.000764347
0.000706102
0.000651936
0.00060223
0.000557103
0.000516427
0.000826292
0.000764347
0.000706102
0.000651936
0.00060223
0.000557103
0.000516427
0.000823497
0.000753987
0.000688491
0.000628748
0.000575387
0.000528266
0.000486845
0.000809324
0.000713906
0.000631505
0.000562574
0.000505378
0.000457787
0.000417843
0.00071288
0.000556432
0.000466397
0.000402356
0.000354427
0.000317053
0.000286678
0.000198681
0.0001383
0.000105187
8.5527e-05
7.25013e-05
6.28903e-05
5.60613e-05
0.000218609
0.000155003
0.000118661
9.65068e-05
8.18823e-05
7.08354e-05
6.30853e-05
0.000728543
0.000588231
0.000496001
0.000429131
0.000378508
0.000338932
0.000306814
0.000814958
0.000730426
0.000654634
0.000589043
0.000533066
0.000485437
0.000444761
0.000826292
0.000764347
0.000706102
0.000651936
0.00060223
0.000557103
0.000516427
0.000828382
0.0007726
0.000721137
0.00067296
0.000627781
0.00058562
0.000546546
0.000828382
0.0007726
0.000721137
0.00067296
0.000627781
0.00058562
0.000546546
0.000826292
0.000764347
0.000706102
0.000651936
0.00060223
0.000557103
0.000516427
0.000814958
0.000730426
0.000654634
0.000589044
0.000533067
0.000485439
0.000444763
0.000728543
0.000588231
0.000496002
0.000429132
0.00037851
0.000338935
0.000306818
0.000218609
0.000155003
0.000118661
9.65069e-05
8.18824e-05
7.08356e-05
6.30856e-05
0.000218609
0.000155003
0.000118661
9.65069e-05
8.18824e-05
7.08356e-05
6.30856e-05
0.000728543
0.000588231
0.000496002
0.000429132
0.00037851
0.000338935
0.000306818
0.000814958
0.000730426
0.000654634
0.000589044
0.000533067
0.000485439
0.000444763
0.000826292
0.000764347
0.000706102
0.000651936
0.00060223
0.000557103
0.000516427
0.000828382
0.0007726
0.000721137
0.00067296
0.000627781
0.00058562
0.000546546
0.000828382
0.0007726
0.000721137
0.00067296
0.000627781
0.00058562
0.000546546
0.000826292
0.000764347
0.000706102
0.000651936
0.00060223
0.000557103
0.000516427
0.000814958
0.000730426
0.000654634
0.000589043
0.000533066
0.000485437
0.000444761
0.000728543
0.000588231
0.000496001
0.000429131
0.000378508
0.000338932
0.000306814
0.000218609
0.000155003
0.000118661
9.65068e-05
8.18823e-05
7.08354e-05
6.30853e-05
0.000198681
0.0001383
0.000105187
8.5527e-05
7.25013e-05
6.28903e-05
5.60613e-05
0.00071288
0.000556432
0.000466397
0.000402356
0.000354427
0.000317053
0.000286679
0.000809324
0.000713906
0.000631505
0.000562574
0.000505378
0.000457787
0.000417843
0.000823497
0.000753987
0.000688491
0.000628748
0.000575387
0.000528266
0.000486845
0.000826292
0.000764347
0.000706102
0.000651936
0.00060223
0.000557103
0.000516427
0.000826292
0.000764347
0.000706102
0.000651936
0.00060223
0.000557103
0.000823497
0.000753987
0.000688491
0.000628748
0.000575387
0.000528266
0.000809324
0.000713905
0.000631504
0.000562573
0.000505376
0.000457785
0.00071288
0.000556432
0.000466396
0.000402354
0.000354424
0.000317048
0.000198681
0.0001383
0.000105187
8.55268e-05
7.25011e-05
6.28899e-05
0.000160509
0.00010736
8.07409e-05
6.55976e-05
5.54897e-05
4.83027e-05
4.31312e-05
0.000663952
0.000488459
0.000404619
0.000347249
0.000305037
0.00027213
0.000245323
0.000786828
0.000662293
0.000567974
0.000495805
0.000439464
0.000394563
0.000357975
0.000809324
0.000713905
0.000631504
0.000562573
0.000505376
0.000457784
0.00041784
0.000814958
0.000730426
0.000654634
0.000589043
0.000533066
0.000485437
0.000444761
0.000814958
0.000730426
0.000654634
0.000589044
0.000533067
0.000485438
0.000809324
0.000713906
0.000631505
0.000562574
0.000505378
0.000457787
0.000786828
0.000662293
0.000567974
0.000495805
0.000439464
0.000394563
0.000663952
0.000488458
0.000404619
0.000347248
0.000305035
0.000272126
0.000160509
0.00010736
8.07408e-05
6.55975e-05
5.54895e-05
4.83024e-05
0.000107685
6.77183e-05
5.06311e-05
4.14159e-05
3.54049e-05
3.10367e-05
2.77138e-05
0.000528907
0.000369984
0.000305097
0.000261371
0.000228528
0.000202476
0.000181115
0.000663952
0.000488458
0.000404619
0.000347247
0.000305035
0.000272126
0.000245316
0.00071288
0.000556432
0.000466396
0.000402354
0.000354424
0.000317047
0.00028667
0.000728543
0.000588231
0.000496001
0.000429131
0.000378508
0.000338932
0.000306814
0.000728543
0.000588231
0.000496002
0.000429132
0.00037851
0.000338935
0.00071288
0.000556432
0.000466397
0.000402356
0.000354427
0.000317053
0.000663952
0.000488459
0.000404619
0.000347249
0.000305037
0.00027213
0.000528907
0.000369984
0.000305097
0.000261371
0.000228528
0.000202476
0.000107685
6.77183e-05
5.06311e-05
4.14159e-05
3.54049e-05
3.10367e-05
4.5356e-05
2.3208e-05
1.65396e-05
1.36493e-05
1.18966e-05
1.06844e-05
9.76077e-06
0.000107685
6.77183e-05
5.06311e-05
4.14159e-05
3.54049e-05
3.10367e-05
2.77137e-05
0.000160509
0.00010736
8.07408e-05
6.55975e-05
5.54895e-05
4.83024e-05
4.31308e-05
0.000198681
0.0001383
0.000105187
8.55268e-05
7.25011e-05
6.28899e-05
5.60607e-05
0.000218609
0.000155003
0.000118661
9.65068e-05
8.18823e-05
7.08354e-05
6.30853e-05
0.000218609
0.000155003
0.000118661
9.65069e-05
8.18824e-05
7.08356e-05
0.000198681
0.0001383
0.000105187
8.5527e-05
7.25013e-05
6.28903e-05
0.000160509
0.00010736
8.07409e-05
6.55976e-05
5.54897e-05
4.83027e-05
0.000107685
6.77183e-05
5.06311e-05
4.14159e-05
3.54049e-05
3.10367e-05
4.5356e-05
2.3208e-05
1.65396e-05
1.36493e-05
1.18966e-05
1.06844e-05
)
;

boundaryField
{
    inlet
    {
        type            calculated;
        value           uniform 0.000851986;
    }
    ami1
    {
        type            cyclicAMI;
        value           nonuniform List<scalar> 0();
    }
    walls
    {
        type            nutkWallFunction;
        blending        stepwise;
        value           nonuniform List<scalar> 
271
(
0
9.40055e-06
1.69775e-05
2.22372e-05
2.4929e-05
2.4929e-05
2.22372e-05
1.69775e-05
9.40055e-06
0
0
3.31268e-06
9.3526e-06
1.38415e-05
1.62058e-05
1.62058e-05
1.38415e-05
9.3526e-06
3.31268e-06
0
0
5.57024e-07
5.34227e-06
9.03108e-06
1.10106e-05
1.10106e-05
9.03107e-06
5.34227e-06
5.57023e-07
0
0
0
2.97694e-06
6.07581e-06
7.73694e-06
7.73693e-06
6.07579e-06
2.97693e-06
0
0
0
0
1.35317e-06
4.06427e-06
5.51778e-06
5.51777e-06
4.06424e-06
1.35315e-06
0
0
0
0
1.7138e-07
2.54597e-06
3.80337e-06
3.80334e-06
2.54592e-06
1.71343e-07
0
0
0
0
0
1.44612e-06
2.57714e-06
2.5771e-06
0
9.40055e-06
1.69775e-05
2.22372e-05
2.4929e-05
2.4929e-05
2.22372e-05
1.69775e-05
9.40055e-06
0
0
3.31268e-06
9.3526e-06
1.38415e-05
1.62058e-05
1.62058e-05
1.38415e-05
9.3526e-06
3.31268e-06
0
0
5.57024e-07
5.34227e-06
9.03108e-06
1.10106e-05
1.10106e-05
9.03107e-06
5.34227e-06
5.57023e-07
0
0
0
2.97694e-06
6.07581e-06
7.73694e-06
7.73693e-06
6.07579e-06
2.97693e-06
0
0
0
0
1.35317e-06
4.06427e-06
5.51778e-06
5.51777e-06
4.06424e-06
1.35315e-06
0
0
0
0
1.71381e-07
2.54597e-06
3.80337e-06
3.80334e-06
2.54592e-06
1.71342e-07
0
0
0
0
0
1.44612e-06
2.57714e-06
2.5771e-06
1.44604e-06
0
0
0
0
9.40055e-06
1.69775e-05
2.22372e-05
2.4929e-05
2.4929e-05
2.22372e-05
1.69775e-05
9.40055e-06
0
0
3.31268e-06
9.3526e-06
1.38415e-05
1.62058e-05
1.62058e-05
1.38415e-05
9.3526e-06
3.31268e-06
0
0
5.57023e-07
5.34227e-06
9.03107e-06
1.10106e-05
1.10106e-05
9.03108e-06
5.34227e-06
5.57024e-07
0
0
0
2.97693e-06
6.07579e-06
7.73694e-06
7.73694e-06
6.07581e-06
2.97694e-06
0
0
0
0
1.35315e-06
4.06424e-06
5.51777e-06
5.51778e-06
4.06427e-06
1.35317e-06
0
0
0
0
1.71342e-07
2.54592e-06
3.80334e-06
3.80337e-06
2.54597e-06
1.71381e-07
0
0
0
0
0
1.44604e-06
2.5771e-06
2.57714e-06
1.44612e-06
0
0
0
0
9.40055e-06
1.69775e-05
2.22372e-05
2.4929e-05
2.4929e-05
2.22372e-05
1.69775e-05
9.40055e-06
0
0
3.31268e-06
9.3526e-06
1.38415e-05
1.62058e-05
1.62058e-05
1.38415e-05
9.3526e-06
3.31268e-06
0
0
5.57023e-07
5.34227e-06
9.03107e-06
1.10106e-05
1.10106e-05
9.03108e-06
5.34227e-06
5.57024e-07
0
0
0
2.97693e-06
6.07579e-06
7.73694e-06
7.73694e-06
6.07581e-06
2.97694e-06
0
0
0
0
1.35315e-06
4.06424e-06
5.51777e-06
5.51778e-06
4.06427e-06
1.35317e-06
0
0
0
0
1.71343e-07
2.54592e-06
3.80334e-06
3.80337e-06
2.54597e-06
1.71381e-07
0
0
0
0
0
1.44604e-06
2.5771e-06
)
;
    }
    ami2
    {
        type            cyclicAMI;
        value           nonuniform List<scalar> 0();
    }
    outlet
    {
        type            calculated;
        value           nonuniform List<scalar> 0();
    }
    procBoundary4to3
    {
        type            processor;
        value           nonuniform List<scalar> 
109
(
9.05713e-06
2.50818e-05
3.90794e-05
5.07596e-05
5.71434e-05
5.7143e-05
5.07587e-05
3.90788e-05
2.50817e-05
9.05713e-06
2.50817e-05
0.000163075
0.000222895
0.00026126
0.000279972
0.000279966
0.000261248
0.000222886
0.000163075
2.50818e-05
3.90788e-05
0.000222886
0.000327453
0.000383943
0.000409793
0.00040979
0.000383937
0.000327453
0.000222895
3.90794e-05
5.07587e-05
0.000261248
0.000383937
0.000450441
0.000479911
0.000479911
0.000450441
0.000383942
0.00026126
5.07596e-05
5.7143e-05
0.000279966
0.00040979
0.000479911
0.000510578
0.000510578
0.000479911
0.000409793
0.000279972
5.71434e-05
5.71434e-05
0.000279972
0.000409793
0.000479911
0.000510578
0.000510578
0.000516428
0.000479911
0.000486845
0.00040979
0.00041784
0.000279966
0.00028667
5.7143e-05
5.60607e-05
5.07596e-05
0.00026126
0.000383943
0.000450441
0.000479911
0.000516428
0.000516428
0.000486845
0.00041784
0.00028667
5.60607e-05
3.90794e-05
0.000222895
0.000327453
0.000383937
0.00040979
0.000444763
0.000444763
0.000417843
0.000357975
0.000245317
4.31308e-05
2.50818e-05
0.000163075
0.000222886
0.000261248
0.000279966
0.000306818
0.000306818
0.000286678
0.000245322
0.000181115
2.77138e-05
9.05713e-06
2.50817e-05
3.90788e-05
5.07587e-05
5.7143e-05
6.30856e-05
6.30856e-05
5.60613e-05
4.31312e-05
2.77138e-05
9.76077e-06
)
;
    }
}


// ************************************************************************* //
