/*--------------------------------*- C++ -*----------------------------------*\
| =========                 |                                                 |
| \\      /  F ield         | OpenFOAM: The Open Source CFD Toolbox           |
|  \\    /   O peration     | Version:  2212                                  |
|   \\  /    A nd           | Website:  www.openfoam.com                      |
|    \\/     M anipulation  |                                                 |
\*---------------------------------------------------------------------------*/
FoamFile
{
    version     2.0;
    format      ascii;
    arch        "LSB;label=32;scalar=64";
    class       volScalarField;
    location    "2.75";
    object      epsilon;
}
// * * * * * * * * * * * * * * * * * * * * * * * * * * * * * * * * * * * * * //

dimensions      [0 2 -3 0 0 0 0];

internalField   nonuniform List<scalar> 
6840
(
90.5034
12.1248
4.38869
2.46659
1.63315
1.18307
0.902011
0.720661
0.594584
0.502495
0.432666
0.379267
0.336293
0.299836
0.270142
0.246077
0.226471
0.210754
0.200545
0.191094
58.5856
14.5696
6.08947
3.33295
2.08217
1.40267
0.998653
0.740288
0.565905
0.44393
0.35603
0.290945
0.241436
0.203045
0.17318
0.149956
0.131609
0.117119
0.106308
0.099011
45.0226
13.4729
5.73075
3.07323
1.86023
1.227
0.873584
0.649791
0.497029
0.389507
0.311323
0.253022
0.209043
0.175306
0.148959
0.128092
0.111434
0.0980556
0.0873746
0.0793764
38.7028
13.0541
5.74337
3.08734
1.88067
1.22751
0.869487
0.645398
0.492609
0.384803
0.307055
0.249086
0.205034
0.171065
0.144511
0.12349
0.106657
0.093045
0.08196
0.0730901
36.0571
12.8529
5.76645
3.10212
1.89476
1.2267
0.866509
0.643994
0.492265
0.383984
0.305823
0.247956
0.20397
0.170014
0.143425
0.122336
0.105399
0.0916478
0.0804574
0.0721319
36.0571
12.8529
5.76645
3.10212
1.89476
1.22669
0.8665
0.643982
0.49225
0.383964
0.305794
0.247917
0.203917
0.16994
0.143319
0.122185
0.105182
0.0913408
0.0800476
0.0718045
38.7028
13.0541
5.74336
3.08733
1.88066
1.22749
0.869468
0.645371
0.492575
0.384758
0.306991
0.249
0.204916
0.170898
0.144274
0.123148
0.106158
0.0923081
0.0809322
0.0722583
45.0226
13.4729
5.73075
3.07322
1.86022
1.22699
0.873566
0.649765
0.496996
0.389451
0.311253
0.252928
0.208915
0.175123
0.14869
0.127699
0.110849
0.097168
0.0860478
0.0776008
58.5856
14.5696
6.08947
3.33295
2.08217
1.40267
0.998648
0.740281
0.565896
0.44391
0.356
0.290896
0.24136
0.202903
0.172972
0.149633
0.131059
0.11609
0.104334
0.0954022
90.5034
12.1248
4.38869
2.46659
1.63315
1.18307
0.902011
0.720661
0.594583
0.502497
0.432663
0.379273
0.336285
0.299844
0.270138
0.246074
0.226468
0.210752
0.200545
0.191087
58.5856
14.5696
6.08947
3.33295
2.08217
1.40267
0.998648
0.740281
0.565896
0.443911
0.356
0.290896
0.241361
0.202897
0.172974
0.149636
0.13106
0.11609
0.104333
0.095401
16.5373
9.49239
5.0127
2.8606
1.75746
1.14759
0.786933
0.562051
0.415369
0.31595
0.246335
0.196226
0.159223
0.131253
0.109773
0.0931974
0.0801547
0.0696398
0.0606731
0.0565686
13.6679
8.73671
5.07741
3.05388
1.92224
1.2661
0.869294
0.618635
0.453966
0.342043
0.263662
0.207326
0.165919
0.134866
0.111155
0.0927044
0.0781829
0.0666435
0.0571706
0.0501503
12.9054
8.33993
5.07879
3.15547
2.02775
1.35121
0.933543
0.666463
0.489553
0.368605
0.283616
0.222402
0.177344
0.143545
0.117754
0.0977843
0.0820985
0.0696296
0.0596006
0.0513492
12.6882
8.1544
5.07113
3.20039
2.07939
1.39506
0.967834
0.692724
0.509641
0.38402
0.295508
0.231653
0.184599
0.149269
0.122292
0.101389
0.0849701
0.0719154
0.0614261
0.052954
12.6882
8.1544
5.07113
3.20038
2.07939
1.39506
0.967831
0.692722
0.509636
0.384015
0.295501
0.231645
0.184588
0.149257
0.122284
0.101374
0.0849509
0.0718933
0.0614019
0.0529248
12.9054
8.33993
5.07879
3.15547
2.02775
1.3512
0.933536
0.666458
0.489544
0.368593
0.283601
0.222383
0.177323
0.143528
0.117735
0.0977527
0.0820611
0.069591
0.0595629
0.0513302
13.6679
8.73671
5.07741
3.05388
1.92223
1.26609
0.869289
0.618631
0.453959
0.342034
0.26365
0.207311
0.165901
0.13485
0.11114
0.0926801
0.0781563
0.066621
0.0571697
0.0501718
16.5373
9.49239
5.0127
2.8606
1.75746
1.14759
0.786932
0.562051
0.415369
0.315949
0.246334
0.196225
0.159222
0.131251
0.109775
0.0931964
0.0801523
0.0696378
0.0606694
0.0565643
58.5856
14.5696
6.08947
3.33295
2.08217
1.40267
0.998653
0.740288
0.565905
0.44393
0.356031
0.290944
0.241435
0.20305
0.173178
0.149952
0.131605
0.117114
0.106302
0.0990026
45.0226
13.4729
5.73075
3.07322
1.86022
1.22699
0.873566
0.649765
0.496996
0.389451
0.311253
0.252927
0.208914
0.175124
0.148691
0.127699
0.110848
0.097167
0.0860464
0.0775989
13.6679
8.73671
5.07741
3.05388
1.92223
1.26609
0.869289
0.618631
0.45396
0.342034
0.263651
0.207312
0.165902
0.134846
0.111144
0.0926823
0.0781587
0.0666242
0.0571706
0.0501693
11.8601
7.76395
4.99734
3.24076
2.14419
1.45499
1.0141
0.725635
0.532157
0.399151
0.305548
0.238224
0.188827
0.151916
0.123874
0.102241
0.085325
0.0719355
0.0611987
0.0526494
11.6229
7.60535
5.0103
3.34209
2.26848
1.57142
1.11236
0.804589
0.594206
0.44752
0.343214
0.267637
0.211904
0.170124
0.138326
0.113789
0.094606
0.0794327
0.0673007
0.0575338
11.5726
7.56718
5.02065
3.38344
2.32103
1.62326
1.15828
0.843156
0.625691
0.47285
0.363485
0.283854
0.224907
0.18059
0.146789
0.120665
0.100222
0.0840421
0.0710976
0.0606013
11.5726
7.56718
5.02065
3.38344
2.32103
1.62326
1.15828
0.843155
0.625689
0.472847
0.363481
0.28385
0.224902
0.180584
0.146784
0.120657
0.100213
0.0840312
0.0710894
0.0606148
11.6229
7.60535
5.0103
3.34209
2.26848
1.57142
1.11236
0.804587
0.594203
0.447515
0.343208
0.26763
0.211895
0.170116
0.138317
0.113775
0.094589
0.0794137
0.0672832
0.0575221
11.8601
7.76395
4.99734
3.24076
2.14419
1.45499
1.0141
0.725635
0.532157
0.39915
0.305547
0.238223
0.188826
0.151915
0.123875
0.102241
0.0853235
0.0719335
0.0611963
0.0526476
13.6679
8.73671
5.07741
3.05388
1.92224
1.2661
0.869293
0.618635
0.453966
0.342043
0.263661
0.207325
0.165918
0.13486
0.111161
0.0927057
0.0781826
0.0666427
0.0571695
0.0501474
45.0226
13.4729
5.73075
3.07323
1.86023
1.227
0.873584
0.649791
0.497029
0.389507
0.311323
0.253022
0.209043
0.175307
0.148957
0.128089
0.111432
0.0980533
0.0873716
0.079372
38.7028
13.0541
5.74336
3.08733
1.88066
1.22749
0.869468
0.645371
0.492575
0.384758
0.306991
0.249
0.204916
0.1709
0.144273
0.123147
0.106157
0.0923071
0.0809306
0.0722556
12.9054
8.33993
5.07879
3.15547
2.02775
1.3512
0.933536
0.666458
0.489544
0.368593
0.283602
0.222383
0.177322
0.14352
0.117741
0.0977551
0.0820624
0.0695923
0.0595642
0.0513314
11.6229
7.60535
5.0103
3.34209
2.26848
1.57142
1.11236
0.804587
0.594203
0.447516
0.343209
0.267631
0.211895
0.170115
0.138319
0.113776
0.0945896
0.0794145
0.067284
0.0575239
11.4933
7.5119
5.02843
3.434
2.3892
1.6928
1.22111
0.896487
0.669456
0.508123
0.391656
0.306286
0.242785
0.194887
0.15828
0.129954
0.107779
0.0902297
0.0761942
0.0648171
11.4757
7.50136
5.04297
3.47002
2.43665
1.74299
1.26863
0.938712
0.705584
0.538336
0.416594
0.326729
0.2595
0.208558
0.169485
0.139169
0.11539
0.0965447
0.0814468
0.0691231
11.4757
7.50136
5.04297
3.47002
2.43665
1.74299
1.26863
0.938712
0.705583
0.538335
0.416593
0.326728
0.259498
0.208556
0.169484
0.139168
0.115388
0.096542
0.0814431
0.0691158
11.4933
7.5119
5.02843
3.434
2.3892
1.6928
1.22111
0.896487
0.669456
0.508122
0.391656
0.306286
0.242784
0.194887
0.15828
0.129954
0.107779
0.0902294
0.0761939
0.064817
11.6229
7.60535
5.0103
3.34209
2.26848
1.57142
1.11236
0.804589
0.594206
0.44752
0.343214
0.267637
0.211903
0.170123
0.138328
0.113789
0.0946051
0.0794315
0.0672994
0.0575313
12.9054
8.33993
5.07879
3.15547
2.02775
1.35121
0.933543
0.666463
0.489553
0.368605
0.283616
0.222401
0.177343
0.143539
0.11776
0.097786
0.0820989
0.0696297
0.0596005
0.0513491
38.7028
13.0541
5.74337
3.08734
1.88067
1.22751
0.869487
0.645398
0.492609
0.384802
0.307055
0.249085
0.205033
0.171065
0.144511
0.123489
0.106657
0.0930446
0.0819594
0.0730876
36.0571
12.8529
5.76645
3.10212
1.89476
1.22669
0.8665
0.643982
0.49225
0.383964
0.305795
0.247918
0.203917
0.16994
0.143319
0.122184
0.105181
0.09134
0.0800465
0.0718026
12.6882
8.1544
5.07113
3.20038
2.07939
1.39506
0.967831
0.692722
0.509636
0.384015
0.295501
0.231644
0.184588
0.149256
0.122286
0.101375
0.0849504
0.0718923
0.0614008
0.0529239
11.5726
7.56718
5.02065
3.38344
2.32103
1.62326
1.15828
0.843155
0.625689
0.472847
0.363481
0.28385
0.224901
0.180584
0.146785
0.120658
0.100213
0.084031
0.0710892
0.0606152
11.4757
7.50136
5.04297
3.47002
2.43665
1.74299
1.26863
0.938712
0.705583
0.538335
0.416593
0.326728
0.259498
0.208556
0.169484
0.139168
0.115388
0.0965421
0.0814431
0.0691164
11.4647
7.49683
5.0577
3.50272
2.48038
1.79068
1.31522
0.981305
0.742925
0.57021
0.443351
0.348968
0.277889
0.223736
0.18202
0.149545
0.124007
0.103728
0.0874451
0.0740801
11.4647
7.49683
5.0577
3.50272
2.48038
1.79068
1.31522
0.981305
0.742925
0.57021
0.443351
0.348968
0.277889
0.223736
0.18202
0.149545
0.124007
0.103728
0.087445
0.0740805
11.4757
7.50136
5.04297
3.47002
2.43665
1.74299
1.26863
0.938712
0.705584
0.538336
0.416594
0.326729
0.259499
0.208558
0.169485
0.139169
0.11539
0.0965447
0.0814469
0.0691265
11.5726
7.56718
5.02065
3.38344
2.32103
1.62326
1.15828
0.843156
0.625691
0.47285
0.363485
0.283854
0.224907
0.180589
0.14679
0.120665
0.100222
0.0840418
0.0710975
0.0606026
12.6882
8.1544
5.07113
3.20039
2.07939
1.39506
0.967834
0.692724
0.509641
0.38402
0.295508
0.231653
0.184599
0.149266
0.122293
0.10139
0.0849704
0.0719156
0.0614264
0.0529543
36.0571
12.8529
5.76645
3.10212
1.89476
1.2267
0.866509
0.643994
0.492265
0.383984
0.305823
0.247956
0.203968
0.170012
0.143428
0.122338
0.1054
0.0916491
0.0804586
0.0721326
36.0571
12.8529
5.76645
3.10212
1.89476
1.2267
0.866509
0.643994
0.492265
0.383984
0.305824
0.247956
0.20397
0.170014
0.143425
0.122336
0.105399
0.091648
0.0804578
0.0721332
12.6882
8.1544
5.07113
3.20039
2.07939
1.39506
0.967834
0.692724
0.509641
0.38402
0.295508
0.231653
0.184598
0.149267
0.122293
0.101389
0.0849689
0.0719135
0.0614236
0.0529515
11.5726
7.56718
5.02065
3.38344
2.32103
1.62326
1.15828
0.843156
0.625691
0.47285
0.363485
0.283854
0.224906
0.18059
0.14679
0.120665
0.100222
0.0840413
0.0710968
0.0606017
11.4757
7.50136
5.04297
3.47002
2.43665
1.74299
1.26863
0.938712
0.705584
0.538336
0.416594
0.326729
0.2595
0.208558
0.169485
0.139169
0.11539
0.0965446
0.0814467
0.0691227
11.4647
7.49683
5.0577
3.50272
2.48038
1.79068
1.31522
0.981305
0.742925
0.57021
0.443351
0.348968
0.277889
0.223736
0.18202
0.149545
0.124007
0.103728
0.0874451
0.074081
11.4647
7.49683
5.0577
3.50272
2.48038
1.79068
1.31522
0.981305
0.742925
0.57021
0.443351
0.348968
0.277889
0.223736
0.18202
0.149545
0.124007
0.103728
0.0874449
0.0740805
11.4757
7.50136
5.04297
3.47002
2.43665
1.74299
1.26863
0.938712
0.705583
0.538335
0.416593
0.326728
0.259498
0.208556
0.169484
0.139168
0.115388
0.0965423
0.0814435
0.0691193
11.5726
7.56718
5.02065
3.38344
2.32103
1.62326
1.15828
0.843155
0.625689
0.472847
0.363481
0.28385
0.224902
0.180585
0.146783
0.120657
0.100213
0.084032
0.0710905
0.0606179
12.6882
8.1544
5.07113
3.20038
2.07939
1.39506
0.967831
0.692722
0.509636
0.384015
0.295502
0.231645
0.184589
0.14926
0.12228
0.101373
0.0849505
0.0718931
0.061402
0.0529255
36.0571
12.8529
5.76645
3.10212
1.89476
1.22669
0.8665
0.643982
0.49225
0.383964
0.305794
0.247917
0.203915
0.169937
0.143322
0.122187
0.105184
0.0913426
0.0800495
0.0718066
38.7028
13.0541
5.74337
3.08734
1.88067
1.22751
0.869488
0.645398
0.492609
0.384803
0.307056
0.249086
0.205034
0.171066
0.144511
0.12349
0.106658
0.0930462
0.0819623
0.0730939
12.9054
8.33993
5.07879
3.15547
2.02775
1.35121
0.933543
0.666463
0.489553
0.368605
0.283616
0.222401
0.177344
0.143545
0.117754
0.0977837
0.0820975
0.0696283
0.0595989
0.0513486
11.6229
7.60535
5.0103
3.34209
2.26848
1.57142
1.11236
0.804589
0.594206
0.44752
0.343214
0.267637
0.211903
0.170124
0.138326
0.113788
0.0946054
0.079432
0.0673
0.057533
11.4933
7.5119
5.02843
3.434
2.3892
1.6928
1.22111
0.896487
0.669456
0.508122
0.391656
0.306286
0.242785
0.194887
0.15828
0.129954
0.107779
0.0902297
0.076194
0.0648159
11.4757
7.50136
5.04297
3.47002
2.43665
1.74299
1.26863
0.938712
0.705583
0.538335
0.416593
0.326728
0.259499
0.208556
0.169484
0.139168
0.115388
0.0965422
0.0814432
0.0691174
11.4757
7.50136
5.04297
3.47002
2.43665
1.74299
1.26863
0.938712
0.705584
0.538336
0.416594
0.326729
0.2595
0.208558
0.169485
0.13917
0.115391
0.0965448
0.0814466
0.0691231
11.4933
7.5119
5.02843
3.434
2.3892
1.6928
1.22111
0.896487
0.669456
0.508122
0.391656
0.306286
0.242784
0.194887
0.15828
0.129954
0.107779
0.0902297
0.0761941
0.064817
11.6229
7.60535
5.0103
3.34209
2.26848
1.57142
1.11236
0.804587
0.594203
0.447516
0.343209
0.267631
0.211896
0.170116
0.138317
0.113776
0.0945898
0.0794148
0.0672842
0.0575225
12.9054
8.33993
5.07879
3.15547
2.02775
1.3512
0.933537
0.666457
0.489544
0.368593
0.283601
0.222383
0.177323
0.143527
0.117734
0.0977526
0.082061
0.0695909
0.0595629
0.0513287
38.7028
13.0541
5.74336
3.08733
1.88066
1.22749
0.869467
0.645371
0.492575
0.384759
0.306991
0.249
0.204916
0.170899
0.144275
0.123149
0.106159
0.0923095
0.0809341
0.0722621
45.0226
13.4729
5.73075
3.07323
1.86023
1.227
0.873584
0.649791
0.497029
0.389507
0.311324
0.253023
0.209044
0.175306
0.14896
0.128093
0.111435
0.0980577
0.0873772
0.0793795
13.6679
8.73671
5.07741
3.05388
1.92224
1.2661
0.869294
0.618635
0.453966
0.342043
0.263662
0.207326
0.165919
0.134866
0.111154
0.0927038
0.0781825
0.066643
0.0571734
0.0501505
11.8601
7.76395
4.99734
3.24076
2.14419
1.45499
1.0141
0.725635
0.532157
0.399151
0.305548
0.238224
0.188827
0.151917
0.123873
0.102241
0.0853248
0.0719354
0.0611983
0.0526474
11.6229
7.60535
5.0103
3.34209
2.26848
1.57142
1.11236
0.804587
0.594203
0.447516
0.343209
0.267631
0.211896
0.170115
0.138318
0.113776
0.0945899
0.0794151
0.0672845
0.0575229
11.5726
7.56718
5.02065
3.38344
2.32103
1.62326
1.15828
0.843155
0.625689
0.472847
0.363482
0.28385
0.224902
0.180585
0.146785
0.120658
0.100213
0.084032
0.0710904
0.0606157
11.5726
7.56718
5.02065
3.38344
2.32103
1.62326
1.15828
0.843156
0.625691
0.47285
0.363485
0.283854
0.224907
0.18059
0.14679
0.120666
0.100222
0.0840418
0.0710974
0.0606008
11.6229
7.60535
5.0103
3.34209
2.26848
1.57142
1.11236
0.804589
0.594206
0.44752
0.343214
0.267637
0.211903
0.170123
0.138328
0.113789
0.0946052
0.0794316
0.0672994
0.0575319
11.8601
7.76395
4.99734
3.24076
2.14419
1.45499
1.0141
0.725635
0.532157
0.399151
0.305547
0.238224
0.188826
0.151915
0.123875
0.102241
0.0853243
0.0719343
0.0611972
0.0526451
13.6679
8.73671
5.07741
3.05388
1.92223
1.26609
0.86929
0.618631
0.453959
0.342034
0.26365
0.207311
0.165902
0.13485
0.11114
0.0926803
0.0781566
0.0666214
0.0571713
0.0501336
45.0226
13.4729
5.73075
3.07322
1.86022
1.22699
0.873566
0.649766
0.496996
0.389452
0.311253
0.252928
0.208915
0.175124
0.148691
0.1277
0.11085
0.0971689
0.0860486
0.0776046
58.5856
14.5696
6.08947
3.33295
2.08217
1.40267
0.998653
0.740288
0.565905
0.443931
0.35603
0.290945
0.241437
0.203046
0.173181
0.149958
0.131612
0.117123
0.106314
0.0990172
16.5373
9.49239
5.0127
2.8606
1.75746
1.14759
0.786933
0.562051
0.415369
0.31595
0.246335
0.196226
0.159224
0.131254
0.109773
0.0931981
0.0801561
0.0696419
0.0606764
0.0565704
13.6679
8.73671
5.07741
3.05388
1.92223
1.26609
0.869289
0.618631
0.45396
0.342034
0.263651
0.207312
0.165903
0.134847
0.111144
0.0926828
0.0781595
0.0666254
0.0571716
0.0501726
12.9054
8.33993
5.07879
3.15547
2.02775
1.3512
0.933536
0.666458
0.489545
0.368593
0.283602
0.222384
0.177323
0.143521
0.117742
0.0977554
0.0820627
0.0695926
0.0595645
0.0513319
12.6882
8.1544
5.07113
3.20038
2.07939
1.39506
0.967831
0.692722
0.509636
0.384015
0.295501
0.231644
0.184588
0.149255
0.122286
0.101375
0.0849505
0.0718923
0.0614009
0.0529238
12.6882
8.1544
5.07113
3.20039
2.07939
1.39506
0.967834
0.692725
0.509641
0.38402
0.295508
0.231653
0.184598
0.149267
0.122294
0.101389
0.0849688
0.0719134
0.0614236
0.0529509
12.9054
8.33993
5.07879
3.15547
2.02775
1.35121
0.933541
0.666464
0.489554
0.368605
0.283616
0.222401
0.177343
0.143539
0.11776
0.0977854
0.082098
0.0696286
0.0595991
0.0513488
13.6679
8.73671
5.07741
3.05388
1.92224
1.2661
0.869293
0.618636
0.453966
0.342043
0.263662
0.207326
0.165919
0.134859
0.111161
0.0927062
0.0781834
0.0666434
0.0571736
0.050148
16.5373
9.49239
5.0127
2.8606
1.75746
1.14759
0.786933
0.562051
0.41537
0.31595
0.246335
0.196226
0.159223
0.131251
0.109776
0.0931981
0.0801547
0.0696404
0.0606739
0.0565625
58.5856
14.5696
6.08947
3.33295
2.08217
1.40267
0.998649
0.740281
0.565896
0.443911
0.356
0.290897
0.24136
0.202904
0.172974
0.149634
0.13106
0.116091
0.104336
0.095418
90.5034
12.1248
4.38869
2.46659
1.63315
1.18307
0.902011
0.720661
0.594584
0.502495
0.432666
0.379267
0.336293
0.299837
0.270144
0.246079
0.226474
0.210758
0.200552
0.191101
58.5856
14.5696
6.08947
3.33295
2.08217
1.40267
0.998648
0.740281
0.565896
0.443911
0.356
0.290896
0.241361
0.202897
0.172975
0.149637
0.131061
0.116091
0.104335
0.0954046
45.0226
13.4729
5.73075
3.07322
1.86022
1.22699
0.873566
0.649766
0.496996
0.389451
0.311253
0.252927
0.208913
0.175124
0.148691
0.127699
0.110848
0.0971665
0.0860456
0.0775994
38.7028
13.0541
5.74336
3.08733
1.88066
1.22749
0.869468
0.645371
0.492575
0.384758
0.306991
0.249
0.204916
0.1709
0.144273
0.123147
0.106157
0.0923067
0.0809302
0.0722538
36.0571
12.8529
5.76645
3.10212
1.89476
1.22669
0.8665
0.643982
0.49225
0.383964
0.305795
0.247918
0.203917
0.16994
0.143318
0.122184
0.105181
0.0913402
0.0800469
0.0718037
36.0571
12.8529
5.76645
3.10212
1.89476
1.2267
0.866509
0.643994
0.492265
0.383984
0.305824
0.247956
0.20397
0.170015
0.143425
0.122335
0.105399
0.0916488
0.080459
0.0721352
38.7028
13.0541
5.74337
3.08734
1.88067
1.22751
0.869488
0.645398
0.492609
0.384803
0.307056
0.249086
0.205034
0.171066
0.144511
0.12349
0.106659
0.0930473
0.0819636
0.0730947
45.0226
13.4729
5.73075
3.07323
1.86023
1.227
0.873585
0.649791
0.497028
0.389507
0.311324
0.253023
0.209045
0.175308
0.148959
0.128092
0.111435
0.0980578
0.0873774
0.0793806
58.5856
14.5696
6.08947
3.33295
2.08217
1.40267
0.998654
0.740288
0.565905
0.44393
0.356031
0.290945
0.241436
0.203052
0.173181
0.149955
0.13161
0.117121
0.106312
0.0990174
90.5034
12.1248
4.38869
2.46659
1.63315
1.18307
0.902012
0.720661
0.594583
0.502497
0.432663
0.379272
0.336285
0.299846
0.27014
0.246076
0.226471
0.210756
0.20055
0.191102
0.321064
0.260297
0.211489
0.184968
0.16894
0.158574
0.151061
0.144957
0.139859
0.135501
0.131521
0.127925
0.124174
0.120786
0.117551
0.114542
0.111676
0.109021
0.106547
0.104164
0.101958
0.0999185
0.0980396
0.0962416
0.0945381
0.0929097
0.0913135
0.0897881
0.0883029
0.0868929
0.08549
0.0841518
0.082855
0.081592
0.080399
0.0792085
0.0781022
0.076998
0.0760647
0.0744256
0.108769
0.0933623
0.0820886
0.0746882
0.0691674
0.064867
0.0615185
0.0587315
0.056306
0.0541441
0.0521197
0.0503867
0.0486125
0.0469834
0.0454754
0.0440652
0.0427831
0.0415781
0.0404825
0.0394422
0.038457
0.037555
0.036735
0.0359705
0.035274
0.0346026
0.0339563
0.0333324
0.0327332
0.0321509
0.0315913
0.0310464
0.0305237
0.0300216
0.02954
0.0290786
0.0286358
0.0282066
0.0278026
0.0273462
0.079136
0.0700469
0.0631243
0.0576918
0.0532696
0.0495581
0.0464245
0.0437675
0.0414913
0.039498
0.0377478
0.0361653
0.0347823
0.0334455
0.0322117
0.0310981
0.030095
0.0291679
0.028314
0.0275047
0.0267007
0.0259236
0.0252203
0.0245956
0.0240256
0.0234776
0.0229533
0.0224538
0.0219781
0.021524
0.0210847
0.0206653
0.0202678
0.01989
0.0195329
0.0191919
0.0188672
0.0185546
0.0182582
0.0179534
0.0777809
0.064012
0.0562502
0.0510388
0.0468521
0.043382
0.0404243
0.037866
0.0356273
0.0336506
0.0318912
0.0303153
0.0288844
0.0276131
0.0264751
0.0254358
0.0244829
0.0236203
0.0228169
0.0220016
0.0212547
0.0205947
0.0199627
0.0193829
0.0188387
0.0183348
0.0178624
0.0174199
0.0169947
0.016604
0.0162199
0.0158531
0.0155055
0.0151865
0.0148822
0.0146021
0.0143284
0.0140701
0.0138222
0.0135687
0.0719363
0.061456
0.0543265
0.0489432
0.0446145
0.0410342
0.0380315
0.0354518
0.0331868
0.0311815
0.029395
0.0277935
0.0263429
0.0250629
0.0239058
0.0228564
0.0219105
0.0210505
0.0202573
0.0195308
0.0188585
0.0182647
0.017638
0.0170703
0.0165506
0.0160673
0.0156196
0.0152009
0.0148069
0.0144497
0.0141046
0.0137686
0.01346
0.0131713
0.0128906
0.0126335
0.0123842
0.0121501
0.0119306
0.0117259
0.0671772
0.0596567
0.0535223
0.0484449
0.0441822
0.04056
0.0374625
0.0347979
0.0324542
0.0303676
0.0285098
0.0268504
0.0253519
0.0240369
0.0228537
0.0217863
0.020821
0.0199491
0.0191636
0.0184543
0.0178054
0.0172163
0.0166654
0.0161907
0.0156706
0.0151684
0.0147164
0.0143102
0.0139341
0.0135996
0.0132805
0.0129848
0.0126846
0.012412
0.012125
0.011895
0.0116608
0.0114524
0.0112483
0.011056
0.0684326
0.0613195
0.0552251
0.0500139
0.0455301
0.041653
0.0383029
0.0353933
0.0328483
0.0306237
0.0286767
0.0269641
0.0254414
0.0241151
0.0229297
0.0218655
0.0209092
0.0200467
0.0192664
0.0185675
0.0179343
0.0173526
0.016804
0.016288
0.0157642
0.0152878
0.0148592
0.0144707
0.0141029
0.0137678
0.0134503
0.01316
0.012856
0.012591
0.0123312
0.0121068
0.0118876
0.0116701
0.0114606
0.0112622
0.0792128
0.0686274
0.0604441
0.0539588
0.0486572
0.0441913
0.0404111
0.0372042
0.0345033
0.0322131
0.03025
0.0285466
0.0270393
0.0257108
0.0245177
0.0234422
0.0224816
0.0216138
0.0208236
0.0201016
0.0194696
0.0188085
0.0182045
0.017674
0.0171891
0.0167336
0.0163152
0.0159232
0.0155252
0.015154
0.0148259
0.0145327
0.0142481
0.0139692
0.0137031
0.0134486
0.013206
0.0129651
0.0127341
0.0125114
0.0975335
0.081604
0.0699071
0.0610046
0.0540675
0.0491264
0.0451406
0.0418889
0.0392566
0.037024
0.0350801
0.0333504
0.0318176
0.0304823
0.0292128
0.0280102
0.0269405
0.0259951
0.0251148
0.0243138
0.0235772
0.0228636
0.0222186
0.0216316
0.0211019
0.0206013
0.0201369
0.0196939
0.0192812
0.0188941
0.0185336
0.0181919
0.0178663
0.0175495
0.0172471
0.016957
0.0166746
0.0163927
0.0161244
0.0158565
0.133639
0.111946
0.0937472
0.0808945
0.0718041
0.06542
0.0607931
0.0572451
0.0544276
0.0519857
0.04986
0.0478004
0.0459352
0.0442388
0.0426506
0.0411564
0.0397875
0.0385219
0.0373733
0.0363083
0.0353387
0.0344816
0.0337034
0.0329742
0.0323149
0.0316838
0.0310869
0.0305121
0.0299631
0.0294443
0.0289469
0.028465
0.028003
0.0275551
0.0271175
0.0266979
0.0262909
0.0259071
0.0255482
0.0251455
0.321125
0.260334
0.211609
0.184971
0.168971
0.158603
0.150989
0.144863
0.139797
0.135494
0.131691
0.127887
0.12439
0.121018
0.117801
0.114787
0.11193
0.109263
0.106779
0.1044
0.102163
0.100121
0.0982195
0.0964262
0.0947121
0.0930895
0.0914967
0.0899755
0.0884901
0.0870789
0.0856657
0.0843243
0.0830211
0.0817511
0.0805213
0.0793396
0.078255
0.0771576
0.0762336
0.0745829
0.133665
0.111887
0.0936283
0.0808944
0.0716378
0.0652578
0.0607505
0.0572581
0.0544523
0.052024
0.0497449
0.0479045
0.0458602
0.0441293
0.0425278
0.0410347
0.0396737
0.0384048
0.037264
0.0361991
0.0352345
0.0343887
0.033615
0.0328915
0.0322319
0.0316064
0.0310081
0.0304348
0.0298864
0.0293692
0.0288749
0.0283962
0.027935
0.0274903
0.0270631
0.0266505
0.0262453
0.0258527
0.0254886
0.0250815
0.0611293
0.052836
0.0445183
0.038514
0.0354675
0.0319596
0.0295198
0.0275846
0.025939
0.0245019
0.0232227
0.0218951
0.0212734
0.0200695
0.0190316
0.0182186
0.0174132
0.0167311
0.0160967
0.0155047
0.0149521
0.0144852
0.0140002
0.0138457
0.0133968
0.0130272
0.0127034
0.0124091
0.012086
0.0119576
0.0116248
0.011361
0.011122
0.0108587
0.0107379
0.0104675
0.0102636
0.01006
0.00986459
0.00962979
0.0496587
0.0431673
0.0367666
0.0320906
0.028725
0.0261289
0.0239534
0.0220662
0.0204275
0.0190136
0.017723
0.0166888
0.0156171
0.014906
0.0139072
0.0133658
0.0125746
0.0121318
0.0115047
0.011109
0.0106589
0.0101599
0.00983912
0.00946188
0.00921661
0.00886026
0.00859832
0.00835841
0.00807697
0.00792247
0.00766288
0.00749028
0.00725575
0.00711933
0.0069199
0.00675384
0.00658546
0.00648581
0.00629341
0.00613803
0.0468966
0.0412425
0.0356572
0.0312133
0.0275257
0.0245482
0.0223442
0.0204976
0.0188655
0.0174263
0.0161568
0.0150388
0.0140749
0.0131665
0.0123668
0.0116679
0.0110339
0.010462
0.00996852
0.00944578
0.00910083
0.00857151
0.00828001
0.00786707
0.00765562
0.00730426
0.00711764
0.00681496
0.00664146
0.00639005
0.00624345
0.00607153
0.00585341
0.00574388
0.00555644
0.00542
0.00530576
0.00521411
0.00502832
0.00489649
0.0464329
0.0404381
0.0354221
0.0312311
0.0277295
0.0247657
0.0220135
0.0198867
0.0182789
0.0168414
0.0155565
0.0144132
0.0134108
0.0124933
0.0116822
0.0109604
0.0103149
0.00973552
0.0092137
0.00874056
0.00831351
0.00792402
0.00757258
0.0072583
0.00694784
0.00668474
0.00640888
0.00618796
0.005952
0.00576246
0.00558114
0.00544557
0.0052303
0.00512231
0.00494027
0.00482128
0.00472282
0.00461693
0.00446792
0.00433703
0.0455402
0.0400163
0.0352504
0.0311735
0.0277075
0.0247591
0.0221322
0.0197511
0.0179745
0.0165726
0.0152972
0.0141503
0.0131308
0.0122087
0.0113894
0.0106603
0.0100088
0.00942487
0.00889994
0.00842687
0.00799933
0.0076125
0.00726538
0.00695586
0.0066514
0.00637557
0.00611688
0.00589341
0.00567034
0.00548295
0.00530549
0.00513973
0.00498793
0.00485053
0.00470824
0.00457874
0.00447014
0.00435365
0.00422332
0.00408941
0.0464706
0.0402502
0.0352289
0.0310292
0.0275144
0.0245241
0.0217971
0.0195623
0.0179075
0.0164807
0.0152001
0.0140595
0.0130531
0.0121463
0.011343
0.010627
0.00998617
0.00941033
0.00889186
0.00842276
0.00799913
0.00761499
0.00726803
0.00696455
0.00666177
0.00639784
0.00612789
0.00592006
0.00564365
0.00551472
0.00527509
0.00512598
0.00497885
0.00483612
0.00468168
0.00455844
0.0044431
0.00432514
0.00419632
0.00406576
0.0500637
0.0415663
0.0355506
0.0308141
0.0271304
0.0240917
0.0216914
0.0198294
0.0182035
0.0167801
0.0155287
0.0144332
0.013459
0.0125802
0.011799
0.0110972
0.0104686
0.00989107
0.00938113
0.00890105
0.00847862
0.00808822
0.00771037
0.00748416
0.00706004
0.00684342
0.00649382
0.00632913
0.006027
0.00593392
0.00564736
0.00550803
0.00534004
0.00520929
0.00499155
0.00487731
0.00472904
0.00461133
0.0044854
0.00434614
0.053586
0.0430744
0.0363385
0.0317527
0.0281908
0.0254627
0.0232081
0.0213132
0.0196912
0.0182972
0.0170662
0.0160537
0.0150037
0.0141184
0.013318
0.0125567
0.0119973
0.0112273
0.0108188
0.0101891
0.00986197
0.00933049
0.00901101
0.00865567
0.00833974
0.00810348
0.0077438
0.00757749
0.00725968
0.00717323
0.00687051
0.0067109
0.00650736
0.00637371
0.00616018
0.00600412
0.00588732
0.00569136
0.00556799
0.00542758
0.0611453
0.0528704
0.044548
0.038823
0.0347312
0.031693
0.0293776
0.0274984
0.0258787
0.0245093
0.0230533
0.0224364
0.0210888
0.0200603
0.0190872
0.0182639
0.017476
0.0167904
0.0161559
0.0155719
0.0150026
0.0145431
0.014047
0.0138915
0.0134177
0.0130752
0.0127288
0.012453
0.0121259
0.0119792
0.0116543
0.0113956
0.0111484
0.0109176
0.010693
0.0104434
0.0103466
0.0100817
0.00990465
0.00967605
0.108797
0.0934144
0.0821461
0.0746901
0.0692931
0.0649882
0.0615472
0.0587207
0.0562866
0.0541042
0.0522213
0.0502901
0.0486354
0.0470669
0.0455643
0.0441598
0.042868
0.0416665
0.0405627
0.0395187
0.0385326
0.0376182
0.0367989
0.0360218
0.0353302
0.0346565
0.0340144
0.0333916
0.0327923
0.0322103
0.031649
0.0311025
0.0305791
0.0300756
0.0295909
0.029128
0.0286813
0.028257
0.0278544
0.0273989
0.0975249
0.0815771
0.0698054
0.0610202
0.0540143
0.0490396
0.0450914
0.0418827
0.039271
0.0370331
0.0350639
0.0333508
0.0317883
0.0304382
0.029152
0.0279467
0.0268993
0.0259395
0.025075
0.024259
0.0235266
0.0228099
0.022164
0.0215781
0.021042
0.0205469
0.0200832
0.0196416
0.0192298
0.0188437
0.0184843
0.0181443
0.0178201
0.0175052
0.0172051
0.0169196
0.0166398
0.0163597
0.0160913
0.0158228
0.0536232
0.0429108
0.0363332
0.0319097
0.0281687
0.0253997
0.0231419
0.0212535
0.0196408
0.0182602
0.0170241
0.015945
0.0150329
0.0141597
0.0132074
0.0126282
0.011766
0.0113215
0.0106304
0.0102574
0.00975003
0.00929277
0.00897425
0.00862087
0.00837846
0.00802647
0.00772477
0.0075493
0.00723952
0.00716689
0.00685848
0.00669908
0.0064916
0.0063648
0.00612715
0.00603695
0.00583555
0.00570906
0.00556241
0.00542267
0.0455517
0.0395602
0.0344062
0.0300978
0.0265277
0.02361
0.0211879
0.0191471
0.0174068
0.0159097
0.014608
0.0134695
0.0124974
0.0115932
0.0107897
0.0100657
0.00938613
0.00879974
0.00829976
0.00789617
0.00749718
0.00709346
0.00676873
0.00640248
0.00615274
0.00586049
0.00557935
0.00539834
0.00514752
0.00502927
0.00480972
0.00467437
0.00448219
0.00438593
0.00419624
0.00410655
0.00400892
0.00392811
0.00375914
0.00364399
0.0479524
0.0415691
0.0361826
0.0316585
0.0278771
0.0247114
0.022055
0.0198035
0.0178766
0.0162149
0.0147734
0.0135141
0.0124146
0.0114365
0.0105719
0.00980223
0.00911688
0.00849811
0.00794752
0.00745429
0.00701385
0.00660424
0.00621797
0.00582026
0.00556906
0.00532584
0.00510196
0.00485902
0.0046812
0.00445111
0.00430377
0.00414131
0.00399237
0.00389796
0.00370227
0.00364363
0.00355684
0.00346024
0.00334968
0.00324011
0.0494944
0.0430245
0.0375502
0.0329293
0.0290282
0.025718
0.0228882
0.0204784
0.0184292
0.0166651
0.0151343
0.0137986
0.0126245
0.0115948
0.0106843
0.00987618
0.00915673
0.00851352
0.00793674
0.00741824
0.00695021
0.00653124
0.00613759
0.00579597
0.00547976
0.00519912
0.00489686
0.00464393
0.00447287
0.00433252
0.0041629
0.00400907
0.00386857
0.00374822
0.00359663
0.00352776
0.00343698
0.00333471
0.00322937
0.00312877
0.0502349
0.0436075
0.0380628
0.0333905
0.0294362
0.0260743
0.0231959
0.0207194
0.0186071
0.0168011
0.0152398
0.0138794
0.0126847
0.0116371
0.0107118
0.0098913
0.00916051
0.00850753
0.00792294
0.00739825
0.00692547
0.00650176
0.00610774
0.00577041
0.00545175
0.00515931
0.0048898
0.00464785
0.00437637
0.00425231
0.00409798
0.00395267
0.00381655
0.00369751
0.00355709
0.00349589
0.00340393
0.00329997
0.00319292
0.00308952
0.0499832
0.0431396
0.0375347
0.0328676
0.0289444
0.0256189
0.0227794
0.0203562
0.0182925
0.0165224
0.0149942
0.0136657
0.0125021
0.0114804
0.010579
0.00977962
0.00906833
0.00843236
0.0078611
0.00734837
0.00688534
0.00646915
0.00608184
0.00575109
0.00543174
0.00513998
0.00488148
0.00462388
0.00438938
0.00427032
0.00410412
0.00395749
0.00382069
0.00370532