/*--------------------------------*- C++ -*----------------------------------*\
| =========                 |                                                 |
| \\      /  F ield         | OpenFOAM: The Open Source CFD Toolbox           |
|  \\    /   O peration     | Version:  2212                                  |
|   \\  /    A nd           | Website:  www.openfoam.com                      |
|    \\/     M anipulation  |                                                 |
\*---------------------------------------------------------------------------*/
FoamFile
{
    version     2.0;
    format      ascii;
    arch        "LSB;label=32;scalar=64";
    class       volScalarField;
    location    "2.75";
    object      nut;
}
// * * * * * * * * * * * * * * * * * * * * * * * * * * * * * * * * * * * * * //

dimensions      [0 2 -1 0 0 0 0];

internalField   nonuniform List<scalar> 
6840
(
4.5356e-05
2.3208e-05
1.65396e-05
1.36493e-05
1.18966e-05
1.06844e-05
9.76074e-06
9.05707e-06
8.49468e-06
8.03127e-06
7.64047e-06
7.31212e-06
7.02461e-06
6.76057e-06
6.52894e-06
6.32797e-06
6.15355e-06
6.00432e-06
5.89701e-06
5.78118e-06
0.000107685
6.77183e-05
5.06311e-05
4.14159e-05
3.54048e-05
3.10367e-05
2.77137e-05
2.50816e-05
2.29334e-05
2.11506e-05
1.96507e-05
1.83716e-05
1.72637e-05
1.6295e-05
1.54526e-05
1.47273e-05
1.40986e-05
1.35575e-05
1.31196e-05
1.27995e-05
0.000160509
0.00010736
8.07409e-05
6.55976e-05
5.54896e-05
4.83026e-05
4.31311e-05
3.90793e-05
3.57395e-05
3.29503e-05
3.0579e-05
2.85368e-05
2.6777e-05
2.52511e-05
2.39166e-05
2.2743e-05
2.17105e-05
2.0803e-05
2.00146e-05
1.93762e-05
0.000198681
0.0001383
0.000105187
8.55269e-05
7.25013e-05
6.28902e-05
5.60612e-05
5.07595e-05
4.63884e-05
4.27223e-05
3.96262e-05
3.69568e-05
3.46356e-05
3.26066e-05
3.08242e-05
2.92516e-05
2.78584e-05
2.66205e-05
2.5521e-05
2.45661e-05
0.000218609
0.000155003
0.000118661
9.65069e-05
8.18824e-05
7.08356e-05
6.30856e-05
5.71435e-05
5.22485e-05
4.80965e-05
4.45829e-05
4.15726e-05
3.89533e-05
3.66602e-05
3.46412e-05
3.28547e-05
3.12659e-05
2.98473e-05
2.85831e-05
2.75336e-05
0.000218609
0.000155003
0.000118661
9.65068e-05
8.18823e-05
7.08355e-05
6.30854e-05
5.71432e-05
5.22479e-05
4.80956e-05
4.45815e-05
4.15704e-05
3.89498e-05
3.66547e-05
3.46324e-05
3.2841e-05
3.12447e-05
2.98154e-05
2.85426e-05
2.75506e-05
0.000198681
0.0001383
0.000105187
8.55268e-05
7.25011e-05
6.289e-05
5.60608e-05
5.07588e-05
4.63873e-05
4.27207e-05
3.96234e-05
3.69524e-05
3.46287e-05
3.25956e-05
3.08066e-05
2.92232e-05
2.78129e-05
2.65477e-05
2.54091e-05
2.44581e-05
0.000160509
0.00010736
8.07408e-05
6.55975e-05
5.54895e-05
4.83024e-05
4.31308e-05
3.90788e-05
3.57387e-05
3.29488e-05
3.05767e-05
2.85332e-05
2.67713e-05
2.5242e-05
2.39013e-05
2.27178e-05
2.16692e-05
2.07355e-05
1.99075e-05
1.92018e-05
0.000107685
6.77183e-05
5.06311e-05
4.14159e-05
3.54048e-05
3.10366e-05
2.77137e-05
2.50815e-05
2.29333e-05
2.11503e-05
1.96501e-05
1.83706e-05
1.72619e-05
1.62908e-05
1.54456e-05
1.47153e-05
1.40761e-05
1.35121e-05
1.30258e-05
1.26191e-05
4.5356e-05
2.3208e-05
1.65396e-05
1.36493e-05
1.18966e-05
1.06844e-05
9.76074e-06
9.05708e-06
8.49467e-06
8.03128e-06
7.64046e-06
7.31216e-06
7.02459e-06
6.76065e-06
6.52893e-06
6.32798e-06
6.15359e-06
6.00439e-06
5.89716e-06
5.78132e-06
0.000107685
6.77183e-05
5.06311e-05
4.14159e-05
3.54048e-05
3.10366e-05
2.77136e-05
2.50815e-05
2.29333e-05
2.11503e-05
1.96501e-05
1.83705e-05
1.72619e-05
1.62907e-05
1.54456e-05
1.47153e-05
1.4076e-05
1.35119e-05
1.30254e-05
1.26185e-05
0.000528907
0.000369984
0.000305097
0.000261371
0.000228528
0.000202475
0.000181113
0.000163072
0.000147537
0.00013398
0.000122043
0.000111457
0.00010212
9.38391e-05
8.64348e-05
7.96223e-05
7.34032e-05
6.78399e-05
6.35613e-05
5.52994e-05
0.000663952
0.000488459
0.000404619
0.000347248
0.000305036
0.000272128
0.00024532
0.000222892
0.000203759
0.000187184
0.000172662
0.000159827
0.000148394
0.000138153
0.000128949
0.000120748
0.000113386
0.000106713
0.000101117
9.48602e-05
0.00071288
0.000556432
0.000466397
0.000402355
0.000354426
0.000317051
0.000286676
0.000261259
0.000239586
0.000220852
0.000204453
0.000189966
0.00017707
0.00016551
0.000155097
0.000145661
0.000137097
0.000129294
0.000122164
0.000115902
0.000728543
0.000588231
0.000496002
0.000429132
0.00037851
0.000338935
0.000306818
0.000279974
0.000257073
0.000237255
0.000219908
0.000204573
0.000190909
0.000178644
0.000167573
0.000157526
0.000148359
0.000139946
0.000132159
0.000124888
0.000728543
0.000588231
0.000496002
0.000429131
0.000378509
0.000338934
0.000306816
0.000279969
0.000257067
0.000237246
0.000219893
0.000204551
0.000190872
0.000178583
0.000167469
0.000157375
0.000148131
0.000139597
0.000131628
0.000123999
0.00071288
0.000556432
0.000466396
0.000402354
0.000354425
0.000317049
0.000286672
0.00026125
0.000239574
0.000220834
0.000204425
0.00018992
0.000176996
0.000165382
0.000154894
0.000145353
0.000136614
0.000128528
0.000120963
0.000113614
0.000663952
0.000488458
0.000404619
0.000347248
0.000305035
0.000272127
0.000245317
0.000222885
0.00020375
0.000187171
0.000172641
0.000159794
0.000148341
0.000138063
0.000128798
0.00012052
0.00011302
0.000106106
0.000100106
9.31662e-05
0.000528907
0.000369984
0.000305097
0.000261371
0.000228528
0.000202475
0.000181113
0.000163072
0.000147537
0.00013398
0.000122043
0.000111458
0.000102122
9.38432e-05
8.64318e-05
7.96218e-05
7.34048e-05
6.78418e-05
6.35657e-05
5.53034e-05
0.000107685
6.77183e-05
5.06311e-05
4.14159e-05
3.54048e-05
3.10367e-05
2.77137e-05
2.50816e-05
2.29334e-05
2.11506e-05
1.96507e-05
1.83716e-05
1.72637e-05
1.62951e-05
1.54526e-05
1.47273e-05
1.40986e-05
1.35575e-05
1.31197e-05
1.27995e-05
0.000160509
0.00010736
8.07408e-05
6.55975e-05
5.54895e-05
4.83024e-05
4.31308e-05
3.90788e-05
3.57387e-05
3.29487e-05
3.05767e-05
2.85331e-05
2.67713e-05
2.52419e-05
2.39014e-05
2.27178e-05
2.1669e-05
2.07352e-05
1.99071e-05
1.9201e-05
0.000663952
0.000488458
0.000404619
0.000347248
0.000305035
0.000272127
0.000245316
0.000222885
0.00020375
0.000187171
0.000172641
0.000159793
0.000148339
0.000138066
0.000128794
0.000120517
0.000113015
0.000106098
0.000100099
9.31654e-05
0.000786828
0.000662293
0.000567974
0.000495805
0.000439463
0.000394562
0.000357974
0.000327451
0.000301489
0.000279049
0.000259395
0.000241999
0.000226468
0.000212506
0.000199884
0.000188422
0.000177975
0.000168399
0.000159598
0.000150648
0.000809324
0.000713906
0.000631505
0.000562574
0.000505378
0.000457786
0.000417842
0.000383941
0.000354807
0.000329453
0.000307162
0.000287388
0.000269715
0.000253817
0.000239441
0.000226372
0.000214445
0.00020349
0.000193277
0.000183026
0.000814958
0.000730426
0.000654634
0.000589044
0.000533067
0.000485439
0.000444764
0.000409794
0.000379472
0.000352934
0.000329495
0.000308634
0.000289947
0.000273109
0.000257863
0.00024399
0.000231305
0.000219619
0.000208643
0.000197622
0.000814958
0.000730426
0.000654634
0.000589043
0.000533067
0.000485438
0.000444762
0.000409791
0.000379468
0.000352928
0.000329486
0.000308621
0.000289927
0.000273078
0.000257812
0.000243917
0.000231198
0.000219453
0.000208328
0.000196558
0.000809324
0.000713905
0.000631504
0.000562573
0.000505377
0.000457785
0.00041784
0.000383937
0.0003548
0.000329444
0.000307147
0.000287366
0.000269681
0.000253762
0.000239356
0.00022625
0.000214262
0.000203215
0.000192841
0.000182207
0.000786827
0.000662293
0.000567974
0.000495805
0.000439463
0.000394562
0.000357974
0.000327451
0.000301489
0.000279049
0.000259396
0.000242
0.00022647
0.000212508
0.000199881
0.000188422
0.000177977
0.000168404
0.000159605
0.000150651
0.000663952
0.000488459
0.000404619
0.000347248
0.000305036
0.000272128
0.00024532
0.000222892
0.000203759
0.000187185
0.000172663
0.000159828
0.000148396
0.000138162
0.000128941
0.000120744
0.000113384
0.000106712
0.000101116
9.48605e-05
0.000160509
0.00010736
8.07409e-05
6.55976e-05
5.54896e-05
4.83026e-05
4.31311e-05
3.90793e-05
3.57395e-05
3.29503e-05
3.05791e-05
2.85368e-05
2.67771e-05
2.52512e-05
2.39167e-05
2.2743e-05
2.17104e-05
2.08029e-05
2.00146e-05
1.93762e-05
0.000198681
0.0001383
0.000105187
8.55268e-05
7.25011e-05
6.289e-05
5.60608e-05
5.07588e-05
4.63873e-05
4.27207e-05
3.96233e-05
3.69524e-05
3.46287e-05
3.25957e-05
3.08066e-05
2.92231e-05
2.78127e-05
2.65474e-05
2.54087e-05
2.44574e-05
0.00071288
0.000556432
0.000466396
0.000402354
0.000354425
0.000317049
0.000286672
0.00026125
0.000239574
0.000220834
0.000204425
0.000189919
0.000176996
0.000165392
0.000154885
0.000145349
0.00013661
0.000128523
0.000120955
0.000113601
0.000809324
0.000713905
0.000631504
0.000562573
0.000505377
0.000457785
0.00041784
0.000383937
0.0003548
0.000329444
0.000307147
0.000287365
0.00026968
0.000253765
0.000239355
0.000226248
0.00021426
0.000203211
0.000192835
0.000182196
0.000823497
0.000753987
0.000688491
0.000628748
0.000575387
0.000528266
0.000486845
0.000450441
0.000418361
0.000389972
0.000364725
0.000342159
0.000321889
0.000303599
0.00028702
0.000271928
0.000258123
0.000245395
0.000233419
0.000221422
0.000826292
0.000764347
0.000706102
0.000651937
0.00060223
0.000557103
0.000516428
0.000479912
0.000447181
0.000417832
0.000391476
0.00036775
0.000346334
0.000326942
0.000309328
0.00029327
0.000278564
0.000264977
0.000252132
0.00023923
0.000826292
0.000764347
0.000706102
0.000651936
0.00060223
0.000557103
0.000516427
0.000479911
0.000447179
0.000417831
0.000391473
0.000367746
0.000346328
0.000326934
0.000309314
0.000293251
0.000278536
0.00026493
0.000252023
0.000238795
0.000823497
0.000753987
0.000688491
0.000628748
0.000575387
0.000528266
0.000486845
0.000450441
0.000418362
0.000389972
0.000364725
0.000342159
0.00032189
0.000303599
0.000287019
0.000271928
0.000258124
0.000245396
0.00023342
0.000221416
0.000809324
0.000713906
0.000631505
0.000562574
0.000505378
0.000457786
0.000417842
0.000383941
0.000354807
0.000329454
0.000307162
0.000287388
0.000269716
0.00025382
0.000239438
0.000226372
0.000214446
0.000203492
0.000193277
0.000183025
0.00071288
0.000556432
0.000466397
0.000402355
0.000354426
0.000317051
0.000286676
0.000261259
0.000239586
0.000220852
0.000204454
0.000189966
0.00017707
0.000165518
0.00015509
0.000145658
0.000137095
0.000129293
0.000122161
0.000115891
0.000198681
0.0001383
0.000105187
8.55269e-05
7.25013e-05
6.28902e-05
5.60612e-05
5.07595e-05
4.63884e-05
4.27224e-05
3.96262e-05
3.69568e-05
3.46356e-05
3.26066e-05
3.08244e-05
2.92516e-05
2.78584e-05
2.66205e-05
2.5521e-05
2.45664e-05
0.000218609
0.000155003
0.000118661
9.65068e-05
8.18823e-05
7.08355e-05
6.30854e-05
5.71432e-05
5.22479e-05
4.80956e-05
4.45815e-05
4.15704e-05
3.89499e-05
3.66548e-05
3.46325e-05
3.2841e-05
3.12447e-05
2.98153e-05
2.85426e-05
2.75508e-05
0.000728543
0.000588231
0.000496002
0.000429131
0.000378509
0.000338934
0.000306816
0.000279969
0.000257067
0.000237246
0.000219894
0.000204551
0.000190873
0.000178586
0.000167467
0.000157374
0.00014813
0.000139597
0.000131629
0.000123997
0.000814958
0.000730426
0.000654634
0.000589043
0.000533067
0.000485438
0.000444762
0.000409791
0.000379468
0.000352928
0.000329486
0.000308621
0.000289927
0.000273078
0.00025781
0.000243916
0.000231197
0.000219453
0.000208326
0.00019655
0.000826292
0.000764347
0.000706102
0.000651936
0.00060223
0.000557103
0.000516427
0.000479911
0.000447179
0.000417831
0.000391473
0.000367746
0.000346328
0.000326934
0.000309314
0.000293251
0.000278536
0.00026493
0.000252023
0.00023879
0.000828382
0.0007726
0.000721138
0.00067296
0.000627782
0.00058562
0.000546547
0.000510578
0.000477647
0.000447614
0.000420286
0.000395445
0.000372863
0.000352316
0.00033359
0.000316481
0.000300783
0.000286239
0.000272395
0.000258193
0.000828382
0.0007726
0.000721138
0.00067296
0.000627782
0.00058562
0.000546547
0.000510578
0.000477647
0.000447614
0.000420286
0.000395445
0.000372863
0.000352316
0.00033359
0.000316481
0.000300783
0.000286239
0.000272397
0.00025819
0.000826292
0.000764347
0.000706102
0.000651937
0.00060223
0.000557103
0.000516428
0.000479912
0.000447181
0.000417833
0.000391476
0.00036775
0.000346334
0.000326942
0.000309327
0.00029327
0.000278564
0.000264976
0.000252131
0.000239212
0.000814958
0.000730426
0.000654634
0.000589044
0.000533067
0.000485439
0.000444764
0.000409794
0.000379472
0.000352934
0.000329495
0.000308634
0.000289946
0.00027311
0.000257863
0.00024399
0.000231305
0.000219617
0.000208637
0.000197605
0.000728543
0.000588231
0.000496002
0.000429132
0.00037851
0.000338935
0.000306818
0.000279974
0.000257073
0.000237255
0.000219908
0.000204573
0.000190906
0.000178645
0.000167574
0.000157527
0.000148359
0.000139945
0.000132156
0.000124868
0.000218609
0.000155003
0.000118661
9.65069e-05
8.18824e-05
7.08356e-05
6.30856e-05
5.71435e-05
5.22485e-05
4.80965e-05
4.45829e-05
4.15726e-05
3.89532e-05
3.66601e-05
3.46415e-05
3.2855e-05
3.12661e-05
2.98474e-05
2.85832e-05
2.75335e-05
0.000218609
0.000155003
0.000118661
9.65069e-05
8.18824e-05
7.08356e-05
6.30856e-05
5.71435e-05
5.22485e-05
4.80965e-05
4.45829e-05
4.15726e-05
3.89533e-05
3.66602e-05
3.46413e-05
3.28548e-05
3.1266e-05
2.98474e-05
2.85833e-05
2.7534e-05
0.000728543
0.000588231
0.000496002
0.000429132
0.00037851
0.000338935
0.000306818
0.000279973
0.000257073
0.000237255
0.000219908
0.000204574
0.00019091
0.000178646
0.000167572
0.000157526
0.000148361
0.000139951
0.000132167
0.000124899
0.000814958
0.000730426
0.000654634
0.000589044
0.000533067
0.000485439
0.000444764
0.000409794
0.000379472
0.000352934
0.000329495
0.000308635
0.000289948
0.00027311
0.000257862
0.00024399
0.000231307
0.000219622
0.000208647
0.000197624
0.000826292
0.000764347
0.000706102
0.000651937
0.00060223
0.000557103
0.000516428
0.000479912
0.000447181
0.000417833
0.000391476
0.000367751
0.000346334
0.000326942
0.000309328
0.00029327
0.000278565
0.000264978
0.000252134
0.000239232
0.000828382
0.0007726
0.000721138
0.00067296
0.000627782
0.00058562
0.000546547
0.000510578
0.000477647
0.000447614
0.000420286
0.000395445
0.000372863
0.000352316
0.00033359
0.000316481
0.000300783
0.000286239
0.000272396
0.000258188
0.000828382
0.0007726
0.000721138
0.00067296
0.000627782
0.00058562
0.000546547
0.000510578
0.000477647
0.000447614
0.000420286
0.000395445
0.000372863
0.000352316
0.00033359
0.000316481
0.000300783
0.00028624
0.000272398
0.000258189
0.000826292
0.000764347
0.000706102
0.000651936
0.00060223
0.000557103
0.000516427
0.000479911
0.00044718
0.000417831
0.000391473
0.000367746
0.000346328
0.000326933
0.000309314
0.000293251
0.000278535
0.000264929
0.000252021
0.000238778
0.000814958
0.000730426
0.000654634
0.000589043
0.000533067
0.000485438
0.000444762
0.000409791
0.000379468
0.000352928
0.000329486
0.00030862
0.000289925
0.000273076
0.000257814
0.000243917
0.000231196
0.000219449
0.000208322
0.000196543
0.000728543
0.000588231
0.000496002
0.000429131
0.000378509
0.000338934
0.000306816
0.000279969
0.000257067
0.000237246
0.000219893
0.00020455
0.000190869
0.000178578
0.000167477
0.00015738
0.000148133
0.000139598
0.000131628
0.000123995
0.000218609
0.000155003
0.000118661
9.65068e-05
8.18823e-05
7.08355e-05
6.30854e-05
5.71432e-05
5.22479e-05
4.80956e-05
4.45815e-05
4.15704e-05
3.89497e-05
3.66546e-05
3.46327e-05
3.28413e-05
3.1245e-05
2.98156e-05
2.8543e-05
2.75512e-05
0.000198681
0.0001383
0.000105187
8.55269e-05
7.25013e-05
6.28902e-05
5.60612e-05
5.07595e-05
4.63884e-05
4.27224e-05
3.96262e-05
3.69568e-05
3.46356e-05
3.26067e-05
3.08243e-05
2.92517e-05
2.78585e-05
2.66207e-05
2.55213e-05
2.45663e-05
0.00071288
0.000556432
0.000466397
0.000402355
0.000354426
0.000317051
0.000286676
0.000261259
0.000239586
0.000220852
0.000204454
0.000189966
0.000177071
0.000165512
0.000155097
0.000145662
0.000137101
0.0001293
0.000122173
0.000115913
0.000809324
0.000713906
0.000631505
0.000562574
0.000505378
0.000457786
0.000417842
0.000383942
0.000354807
0.000329454
0.000307162
0.000287389
0.000269715
0.000253818
0.000239442
0.000226374
0.000214448
0.000203495
0.000193285
0.000183036
0.000823497
0.000753987
0.000688491
0.000628748
0.000575387
0.000528266
0.000486845
0.000450441
0.000418362
0.000389972
0.000364725
0.000342159
0.00032189
0.000303599
0.000287021
0.000271929
0.000258125
0.000245397
0.000233421
0.000221429
0.000826292
0.000764347
0.000706102
0.000651936
0.00060223
0.000557103
0.000516427
0.000479911
0.00044718
0.000417831
0.000391473
0.000367747
0.000346328
0.000326934
0.000309315
0.000293252
0.000278536
0.00026493
0.000252024
0.000238788
0.000826292
0.000764347
0.000706102
0.000651937
0.00060223
0.000557103
0.000516428
0.000479912
0.000447181
0.000417833
0.000391476
0.000367751
0.000346334
0.000326942
0.000309328
0.00029327
0.000278564
0.000264977
0.000252133
0.000239228
0.000823497
0.000753987
0.000688491
0.000628748
0.000575387
0.000528266
0.000486845
0.000450441
0.000418362
0.000389972
0.000364725
0.000342159
0.00032189
0.000303599
0.000287019
0.000271928
0.000258124
0.000245395
0.000233419
0.000221422
0.000809324
0.000713905
0.000631504
0.000562573
0.000505377
0.000457785
0.00041784
0.000383937
0.0003548
0.000329444
0.000307147
0.000287366
0.000269681
0.000253763
0.000239356
0.000226249
0.00021426
0.000203211
0.000192836
0.000182205
0.00071288
0.000556432
0.000466396
0.000402354
0.000354425
0.000317049
0.000286672
0.000261251
0.000239575
0.000220834
0.000204425
0.00018992
0.000176996
0.000165383
0.000154895
0.000145354
0.000136615
0.000128529
0.000120963
0.000113615
0.000198681
0.0001383
0.000105187
8.55268e-05
7.25011e-05
6.289e-05
5.60608e-05
5.07588e-05
4.63873e-05
4.27207e-05
3.96234e-05
3.69525e-05
3.46287e-05
3.25956e-05
3.08066e-05
2.92233e-05
2.7813e-05
2.65478e-05
2.54093e-05
2.44571e-05
0.000160509
0.00010736
8.07409e-05
6.55976e-05
5.54896e-05
4.83026e-05
4.31311e-05
3.90793e-05
3.57395e-05
3.29503e-05
3.05791e-05
2.85368e-05
2.6777e-05
2.52511e-05
2.39167e-05
2.27431e-05
2.17106e-05
2.08032e-05
2.00148e-05
1.93763e-05
0.000663952
0.000488459
0.000404619
0.000347248
0.000305036
0.000272128
0.00024532
0.000222892
0.000203759
0.000187185
0.000172662
0.000159827
0.000148395
0.000138154
0.00012895
0.00012075
0.000113389
0.000106718
0.000101119
9.48696e-05
0.000786828
0.000662293
0.000567974
0.000495805
0.000439463
0.000394562
0.000357974
0.000327451
0.000301489
0.000279049
0.000259395
0.000241999
0.000226468
0.000212506
0.000199886
0.000188425
0.000177978
0.000168404
0.000159605
0.000150661
0.000809324
0.000713905
0.000631504
0.000562573
0.000505377
0.000457785
0.00041784
0.000383937
0.0003548
0.000329444
0.000307147
0.000287365
0.00026968
0.000253764
0.000239356
0.00022625
0.000214261
0.000203211
0.000192834
0.000182204
0.000814958
0.000730426
0.000654634
0.000589043
0.000533067
0.000485438
0.000444762
0.000409791
0.000379468
0.000352928
0.000329486
0.00030862
0.000289926
0.000273077
0.000257811
0.000243916
0.000231196
0.000219449
0.000208322
0.000196549
0.000814958
0.000730426
0.000654634
0.000589044
0.000533067
0.000485439
0.000444764
0.000409794
0.000379472
0.000352934
0.000329495
0.000308635
0.000289948
0.00027311
0.000257861
0.000243989
0.000231304
0.000219618
0.000208639
0.000197618
0.000809324
0.000713906
0.000631505
0.000562574
0.000505378
0.000457786
0.000417842
0.000383941
0.000354807
0.000329454
0.000307162
0.000287389
0.000269716
0.00025382
0.000239438
0.000226372
0.000214446
0.000203494
0.000193282
0.000183033
0.000786828
0.000662293
0.000567974
0.000495805
0.000439463
0.000394562
0.000357974
0.000327451
0.000301489
0.000279049
0.000259396
0.000242
0.00022647
0.000212509
0.000199882
0.000188422
0.000177977
0.000168404
0.000159605
0.000150666
0.000663952
0.000488458
0.000404619
0.000347248
0.000305035
0.000272127
0.000245316
0.000222886
0.00020375
0.000187171
0.000172641
0.000159794
0.000148341
0.000138063
0.000128798
0.000120521
0.00011302
0.000106107
0.000100101
9.32575e-05
0.000160509
0.00010736
8.07408e-05
6.55975e-05
5.54895e-05
4.83024e-05
4.31308e-05
3.90788e-05
3.57387e-05
3.29488e-05
3.05767e-05
2.85332e-05
2.67713e-05
2.5242e-05
2.39013e-05
2.27179e-05
2.16692e-05
2.07355e-05
1.99073e-05
1.92017e-05
0.000107685
6.77183e-05
5.06311e-05
4.14159e-05
3.54048e-05
3.10367e-05
2.77137e-05
2.50816e-05
2.29334e-05
2.11506e-05
1.96507e-05
1.83716e-05
1.72637e-05
1.6295e-05
1.54526e-05
1.47274e-05
1.40987e-05
1.35576e-05
1.31198e-05
1.27997e-05
0.000528907
0.000369984
0.000305097
0.000261371
0.000228528
0.000202475
0.000181113
0.000163072
0.000147537
0.00013398
0.000122043
0.000111457
0.00010212
9.38385e-05
8.64357e-05
7.96231e-05
7.34039e-05
6.78408e-05
6.3561e-05
5.53023e-05
0.000663952
0.000488458
0.000404619
0.000347248
0.000305035
0.000272127
0.000245316
0.000222885
0.00020375
0.000187171
0.000172641
0.000159792
0.000148339
0.000138066
0.000128795
0.000120517
0.000113015
0.000106098
0.000100099
9.31637e-05
0.00071288
0.000556432
0.000466396
0.000402354
0.000354425
0.000317049
0.000286672
0.00026125
0.000239574
0.000220834
0.000204424
0.000189919
0.000176996
0.000165392
0.000154885
0.000145348
0.00013661
0.000128522
0.000120955
0.000113603
0.000728543
0.000588231
0.000496002
0.000429131
0.000378509
0.000338934
0.000306816
0.000279969
0.000257067
0.000237246
0.000219894
0.000204551
0.000190873
0.000178586
0.000167466
0.000157373
0.00014813
0.000139596
0.000131627
0.000123994
0.000728543
0.000588231
0.000496002
0.000429132
0.00037851
0.000338935
0.000306819
0.000279973
0.000257073
0.000237255
0.000219908
0.000204574
0.00019091
0.000178646
0.000167571
0.000157525
0.00014836
0.000139949
0.000132164
0.000124895
0.00071288
0.000556432
0.000466397
0.000402355
0.000354426
0.000317051
0.000286677
0.000261258
0.000239586
0.000220852
0.000204454
0.000189966
0.000177071
0.000165518
0.000155091
0.00014566
0.000137099
0.000129299
0.000122171
0.00011591
0.000663952
0.000488459
0.000404619
0.000347248
0.000305036
0.000272128
0.00024532
0.000222891
0.000203759
0.000187184
0.000172662
0.000159827
0.000148396
0.000138163
0.000128942
0.000120745
0.000113386
0.000106716
0.000101115
9.48728e-05
0.000528907
0.000369984
0.000305097
0.000261371
0.000228528
0.000202475
0.000181113
0.000163072
0.000147536
0.00013398
0.000122043
0.000111457
0.000102121
9.38436e-05
8.64319e-05
7.96214e-05
7.34039e-05
6.78414e-05
6.35618e-05
5.53124e-05
0.000107685
6.77183e-05
5.06311e-05
4.14159e-05
3.54048e-05
3.10366e-05
2.77137e-05
2.50815e-05
2.29333e-05
2.11503e-05
1.96501e-05
1.83705e-05
1.72619e-05
1.62908e-05
1.54456e-05
1.47153e-05
1.40761e-05
1.3512e-05
1.30255e-05
1.26187e-05
4.5356e-05
2.3208e-05
1.65396e-05
1.36493e-05
1.18966e-05
1.06844e-05
9.76074e-06
9.05707e-06
8.49468e-06
8.03127e-06
7.64047e-06
7.31212e-06
7.02461e-06
6.76057e-06
6.52894e-06
6.32798e-06
6.15357e-06
6.00434e-06
5.89708e-06
5.78121e-06
0.000107685
6.77183e-05
5.06311e-05
4.14159e-05
3.54048e-05
3.10366e-05
2.77136e-05
2.50815e-05
2.29333e-05
2.11503e-05
1.96501e-05
1.83705e-05
1.72618e-05
1.62906e-05
1.54456e-05
1.47153e-05
1.4076e-05
1.35118e-05
1.30253e-05
1.26183e-05
0.000160509
0.00010736
8.07408e-05
6.55975e-05
5.54895e-05
4.83024e-05
4.31308e-05
3.90788e-05
3.57387e-05
3.29487e-05
3.05767e-05
2.85331e-05
2.67713e-05
2.52419e-05
2.39013e-05
2.27177e-05
2.1669e-05
2.07351e-05
1.9907e-05
1.92013e-05
0.000198681
0.0001383
0.000105187
8.55268e-05
7.25011e-05
6.289e-05
5.60608e-05
5.07588e-05
4.63873e-05
4.27207e-05
3.96233e-05
3.69524e-05
3.46287e-05
3.25957e-05
3.08066e-05
2.92231e-05
2.78126e-05
2.65474e-05
2.54089e-05
2.44577e-05
0.000218609
0.000155003
0.000118661
9.65068e-05
8.18823e-05
7.08355e-05
6.30854e-05
5.71432e-05
5.22479e-05
4.80956e-05
4.45815e-05
4.15704e-05
3.89498e-05
3.66548e-05
3.46325e-05
3.2841e-05
3.12447e-05
2.98153e-05
2.85427e-05
2.75508e-05
0.000218609
0.000155003
0.000118661
9.65069e-05
8.18824e-05
7.08356e-05
6.30856e-05
5.71435e-05
5.22485e-05
4.80965e-05
4.45829e-05
4.15726e-05
3.89533e-05
3.66603e-05
3.46413e-05
3.28548e-05
3.12661e-05
2.98475e-05
2.85834e-05
2.75342e-05
0.000198681
0.0001383
0.000105187
8.55269e-05
7.25013e-05
6.28902e-05
5.60612e-05
5.07595e-05
4.63884e-05
4.27223e-05
3.96262e-05
3.69568e-05
3.46356e-05
3.26067e-05
3.08244e-05
2.92517e-05
2.78585e-05
2.66207e-05
2.55214e-05
2.45667e-05
0.000160509
0.00010736
8.07409e-05
6.55976e-05
5.54896e-05
4.83026e-05
4.31311e-05
3.90793e-05
3.57395e-05
3.29503e-05
3.05791e-05
2.85368e-05
2.67771e-05
2.52512e-05
2.39167e-05
2.2743e-05
2.17105e-05
2.08031e-05
2.00147e-05
1.93764e-05
0.000107685
6.77183e-05
5.06311e-05
4.14159e-05
3.54048e-05
3.10367e-05
2.77137e-05
2.50816e-05
2.29334e-05
2.11506e-05
1.96507e-05
1.83716e-05
1.72637e-05
1.62951e-05
1.54526e-05
1.47273e-05
1.40986e-05
1.35575e-05
1.31198e-05
1.27996e-05
4.5356e-05
2.3208e-05
1.65396e-05
1.36493e-05
1.18966e-05
1.06844e-05
9.76074e-06
9.05708e-06
8.49467e-06
8.03128e-06
7.64046e-06
7.31216e-06
7.02457e-06
6.76064e-06
6.52893e-06
6.32798e-06
6.15357e-06
6.00436e-06
5.89706e-06
5.78126e-06
5.21578e-06
4.90173e-06
4.61982e-06
4.4516e-06
4.34493e-06
4.2647e-06
4.20209e-06
4.14703e-06
4.10138e-06
4.0611e-06
4.02133e-06
3.98539e-06
3.94487e-06
3.90756e-06
3.87402e-06
3.83981e-06
3.80843e-06
3.77705e-06
3.74789e-06
3.71919e-06
3.69115e-06
3.66481e-06
3.63998e-06
3.61435e-06
3.5929e-06
3.57129e-06
3.55006e-06
3.52926e-06
3.50956e-06
3.48929e-06
3.47075e-06
3.45223e-06
3.43428e-06
3.41714e-06
3.40011e-06
3.38357e-06
3.36827e-06
3.35312e-06
3.34065e-06
3.31801e-06
1.02019e-05
9.75487e-06
9.39961e-06
9.14494e-06
8.95681e-06
8.78558e-06
8.63527e-06
8.49722e-06
8.38122e-06
8.27528e-06
8.17081e-06
8.0803e-06
7.98603e-06
7.89283e-06
7.80758e-06
7.72475e-06
7.65002e-06
7.57681e-06
7.50838e-06
7.44333e-06
7.37771e-06
7.31679e-06
7.26138e-06
7.20513e-06
7.15594e-06
7.10912e-06
7.06377e-06
7.01931e-06
6.97618e-06
6.93299e-06
6.89183e-06
6.85178e-06
6.81329e-06
6.77571e-06
6.73958e-06
6.70464e-06
6.67117e-06
6.63878e-06
6.60847e-06
6.57394e-06
1.57234e-05
1.49296e-05
1.44022e-05
1.39315e-05
1.35507e-05
1.32386e-05
1.29612e-05
1.27131e-05
1.2487e-05
1.22833e-05
1.2098e-05
1.19234e-05
1.17674e-05
1.16277e-05
1.14742e-05
1.1336e-05
1.12117e-05
1.1094e-05
1.09841e-05
1.08784e-05
1.07728e-05
1.06658e-05
1.05665e-05
1.04762e-05
1.03955e-05
1.03158e-05
1.02382e-05
1.01631e-05
1.00906e-05
1.00204e-05
9.9518e-06
9.88472e-06
9.82139e-06
9.75995e-06
9.70152e-06
9.64545e-06
9.59199e-06
9.53925e-06
9.48907e-06
9.43677e-06
2.02591e-05
1.93059e-05
1.84717e-05
1.78651e-05
1.73527e-05
1.69079e-05
1.65117e-05
1.61537e-05
1.5827e-05
1.55264e-05
1.52484e-05
1.49899e-05
1.47442e-05
1.45225e-05
1.43178e-05
1.41262e-05
1.3946e-05
1.37782e-05
1.36205e-05
1.34559e-05
1.33002e-05
1.31604e-05
1.30235e-05
1.28943e-05
1.27725e-05
1.26578e-05
1.25479e-05
1.24437e-05
1.2342e-05
1.22456e-05
1.21532e-05
1.20574e-05
1.19754e-05
1.18854e-05
1.18137e-05
1.17313e-05
1.16657e-05
1.15937e-05
1.15279e-05
1.14578e-05
2.31904e-05
2.20778e-05
2.12337e-05
2.0522e-05
1.99047e-05
1.9358e-05
1.88712e-05
1.84309e-05
1.80258e-05
1.76511e-05
1.73029e-05
1.69776e-05
1.66697e-05
1.63914e-05
1.61316e-05
1.5889e-05
1.56648e-05
1.54546e-05
1.52557e-05
1.5069e-05
1.48922e-05
1.47325e-05
1.45616e-05
1.44011e-05
1.42535e-05
1.4113e-05
1.39811e-05
1.38552e-05
1.37351e-05
1.36228e-05
1.35153e-05
1.34081e-05
1.33095e-05
1.32072e-05
1.3125e-05
1.30282e-05
1.29481e-05
1.28662e-05
1.27897e-05
1.2718e-05
2.37216e-05
2.29155e-05
2.21636e-05
2.14715e-05
2.08372e-05
2.02555e-05
1.9724e-05
1.92395e-05
1.87919e-05
1.83737e-05
1.79842e-05
1.76212e-05
1.72795e-05
1.69698e-05
1.66816e-05
1.64132e-05
1.61632e-05
1.59309e-05
1.57169e-05
1.55179e-05
1.53314e-05
1.51592e-05
1.49947e-05
1.48491e-05
1.46877e-05
1.45278e-05
1.4382e-05
1.42483e-05
1.41233e-05
1.4009e-05
1.3899e-05
1.3793e-05
1.37041e-05
1.35629e-05
1.35171e-05
1.33895e-05
1.33275e-05
1.32392e-05
1.31614e-05
1.30876e-05
2.31128e-05
2.22358e-05
2.14413e-05
2.07227e-05
2.00722e-05
1.94763e-05
1.8932e-05
1.84329e-05
1.79712e-05
1.75479e-05
1.71602e-05
1.68045e-05
1.64755e-05
1.61783e-05
1.59044e-05
1.56509e-05
1.54163e-05
1.51985e-05
1.49964e-05
1.48112e-05
1.46392e-05
1.4478e-05
1.43219e-05
1.41745e-05
1.40166e-05
1.3872e-05
1.3742e-05
1.36211e-05
1.35064e-05
1.33981e-05
1.32933e-05
1.31942e-05
1.31077e-05
1.29946e-05
1.29245e-05
1.28398e-05
1.27651e-05
1.26884e-05
1.26139e-05
1.25425e-05
2.0716e-05
1.97273e-05
1.88615e-05
1.81372e-05
1.75391e-05
1.69871e-05
1.64917e-05
1.60502e-05
1.56507e-05
1.52948e-05
1.49747e-05
1.46856e-05
1.44186e-05
1.41755e-05
1.3951e-05
1.37437e-05
1.35517e-05
1.33736e-05
1.32072e-05
1.30512e-05
1.29124e-05
1.2764e-05
1.26281e-05
1.24967e-05
1.23797e-05
1.2267e-05
1.21639e-05
1.20664e-05
1.19644e-05
1.18696e-05
1.17792e-05
1.17017e-05
1.16259e-05
1.15511e-05
1.14782e-05
1.14077e-05
1.13402e-05
1.12724e-05
1.12068e-05
1.11432e-05
1.6499e-05
1.5567e-05
1.47764e-05
1.41156e-05
1.36015e-05
1.31924e-05
1.28442e-05
1.25333e-05
1.22646e-05
1.20241e-05
1.18093e-05
1.16123e-05
1.14281e-05
1.12634e-05
1.1109e-05
1.09541e-05
1.08099e-05
1.06834e-05
1.05596e-05
1.04459e-05
1.0337e-05
1.02356e-05
1.01346e-05
1.00348e-05
9.94885e-06
9.86806e-06
9.79296e-06
9.72087e-06
9.6519e-06
9.58636e-06
9.52222e-06
9.46232e-06
9.40563e-06
9.35136e-06
9.29813e-06
9.24686e-06
9.19634e-06
9.14476e-06
9.09554e-06
9.04689e-06
1.09523e-05
1.03601e-05
9.80369e-06
9.37364e-06
9.06602e-06
8.82444e-06
8.619e-06
8.43673e-06
8.2978e-06
8.16903e-06
8.0648e-06
7.95096e-06
7.83473e-06
7.73471e-06
7.64527e-06
7.55741e-06
7.47319e-06
7.39332e-06
7.31708e-06
7.2453e-06
7.17679e-06
7.11422e-06
7.05673e-06
6.99858e-06
6.94873e-06
6.90145e-06
6.85664e-06
6.81292e-06
6.77053e-06
6.72869e-06
6.68968e-06
6.65206e-06
6.61592e-06
6.58089e-06
6.54707e-06
6.51439e-06
6.48115e-06
6.44986e-06
6.42159e-06
6.38996e-06
5.21616e-06
4.90212e-06
4.62129e-06
4.45218e-06
4.34896e-06
4.27302e-06
4.20872e-06
4.15093e-06
4.10348e-06
4.05953e-06
4.02397e-06
3.98054e-06
3.94322e-06
3.90792e-06
3.87424e-06
3.84104e-06
3.80937e-06
3.77834e-06
3.74905e-06
3.72016e-06
3.69242e-06
3.66586e-06
3.64146e-06
3.6157e-06
3.59459e-06
3.57274e-06
3.55182e-06
3.53109e-06
3.51151e-06
3.49145e-06
3.47278e-06
3.45416e-06
3.43625e-06
3.41897e-06
3.40216e-06
3.38604e-06
3.36988e-06
3.35482e-06
3.34224e-06
3.31954e-06
1.09533e-05
1.03587e-05
9.79814e-06
9.3776e-06
9.06331e-06
8.80525e-06