/*--------------------------------*- C++ -*----------------------------------*\
| =========                 |                                                 |
| \\      /  F ield         | OpenFOAM: The Open Source CFD Toolbox           |
|  \\    /   O peration     | Version:  2212                                  |
|   \\  /    A nd           | Website:  www.openfoam.com                      |
|    \\/     M anipulation  |                                                 |
\*---------------------------------------------------------------------------*/
FoamFile
{
    version     2.0;
    format      ascii;
    arch        "LSB;label=32;scalar=64";
    class       surfaceScalarField;
    location    "2.75";
    object      phi;
}
// * * * * * * * * * * * * * * * * * * * * * * * * * * * * * * * * * * * * * //

dimensions      [0 3 -1 0 0 0 0];

oriented        oriented;

internalField   nonuniform List<scalar> 
19019
(
3.32249e-07
1.09686e-09
1.0968e-09
2.7919e-07
2.65298e-08
2.65293e-08
2.49218e-07
1.49868e-08
1.4986e-08
2.29253e-07
9.98271e-09
9.98143e-09
2.14833e-07
7.21148e-09
7.20857e-09
2.03197e-07
5.82058e-09
5.81611e-09
1.93767e-07
4.71905e-09
4.71007e-09
1.85997e-07
3.89318e-09
3.87712e-09
1.79344e-07
3.34054e-09
3.31268e-09
1.73508e-07
2.9418e-09
2.89402e-09
1.68326e-07
2.6304e-09
2.55202e-09
1.63689e-07
2.38299e-09
2.25357e-09
1.59497e-07
2.20766e-09
1.98406e-09
1.55678e-07
2.11069e-09
1.70921e-09
1.52241e-07
2.06471e-09
1.37229e-09
1.4922e-07
2.06427e-09
9.56595e-10
1.46755e-07
2.09256e-09
3.721e-10
1.45576e-07
2.04949e-09
-8.70234e-10
1.47507e-07
1.98037e-09
-3.91024e-09
-8.15115e-09
-2.44792e-08
6.3138e-07
3.58767e-09
7.40284e-09
6.14563e-07
2.26462e-08
2.07001e-08
5.86445e-07
2.43764e-08
1.87289e-08
5.61726e-07
1.88555e-08
1.58465e-08
5.39618e-07
1.55708e-08
1.37486e-08
5.20638e-07
1.35124e-08
1.12879e-08
5.04694e-07
1.19555e-08
8.70717e-09
4.90945e-07
1.08055e-08
6.83695e-09
4.78731e-07
9.95653e-09
5.59827e-09
4.67662e-07
9.25306e-09
4.75709e-09
4.57514e-07
8.63864e-09
4.13982e-09
4.48153e-07
8.08879e-09
3.65596e-09
4.39471e-07
7.59782e-09
3.2916e-09
4.31397e-07
7.16591e-09
3.01904e-09
4.2396e-07
6.7681e-09
2.73317e-09
4.17393e-07
6.33703e-09
2.2952e-09
4.12267e-07
5.67134e-09
1.54731e-09
4.10498e-07
4.0261e-09
-2.0735e-10
4.161e-07
7.7538e-10
-4.39711e-09
-9.01064e-09
-1.81837e-08
8.90375e-07
2.85266e-09
6.33231e-09
8.82487e-07
1.34087e-08
1.71255e-08
8.70361e-07
1.78673e-08
1.86351e-08
8.55115e-07
1.69552e-08
1.71458e-08
8.39988e-07
1.53393e-08
1.53584e-08
8.25546e-07
1.41674e-08
1.37874e-08
8.11788e-07
1.33745e-08
1.23387e-08
7.98812e-07
1.26665e-08
1.11151e-08
7.86769e-07
1.18713e-08
1.01278e-08
7.75678e-07
1.10148e-08
9.32918e-09
7.65413e-07
1.01879e-08
8.71582e-09
7.55845e-07
9.4045e-09
8.25258e-09
7.46891e-07
8.66343e-09
7.88797e-09
7.38551e-07
7.93664e-09
7.57014e-09
7.30923e-07
7.15544e-09
7.24062e-09
7.24338e-07
6.15099e-09
6.77072e-09
7.193e-07
4.73377e-09
5.97539e-09
7.16354e-07
2.55545e-09
4.41669e-09
7.16457e-07
-1.06134e-09
1.73423e-09
-8.21933e-09
-3.68128e-09
1.07432e-06
1.06474e-09
5.56889e-09
1.06824e-06
5.58631e-09
1.39002e-08
1.06138e-06
8.4635e-09
1.62614e-08
1.05339e-06
9.03883e-09
1.59076e-08
1.04511e-06
8.6156e-09
1.49996e-08
1.03723e-06
8.11583e-09
1.39296e-08
1.02986e-06
7.77759e-09
1.2972e-08
1.02288e-06
7.53817e-09
1.21071e-08
1.01608e-06
7.34019e-09
1.13332e-08
1.00939e-06
7.03539e-09
1.06722e-08
1.00285e-06
6.56283e-09
1.01646e-08
9.96462e-07
6.01104e-09
9.77844e-09
9.90216e-07
5.42707e-09
9.48152e-09
9.8411e-07
4.79512e-09
9.24752e-09
9.78156e-07
4.07475e-09
9.03524e-09
9.72412e-07
3.11744e-09
8.77717e-09
9.66976e-07
1.77122e-09
8.39879e-09
9.61877e-07
-1.73036e-10
7.82715e-09
9.5656e-07
-2.8539e-09
7.10996e-09
-6.90852e-09
6.66311e-09
1.16914e-06
-1.42756e-13
4.90654e-09
1.16312e-06
-6.77866e-13
1.16084e-08
1.15731e-06
-1.57704e-12
1.42755e-08
1.15202e-06
-2.85869e-12
1.43334e-08
1.14691e-06
-4.94587e-12
1.37296e-08
1.14207e-06
-8.67905e-12
1.29679e-08
1.13776e-06
-1.53434e-11
1.20987e-08
1.13402e-06
-2.63147e-11
1.1305e-08
1.13076e-06
-4.47917e-11
1.06453e-08
1.12769e-06
-7.53385e-11
1.01829e-08
1.12449e-06
-1.25761e-10
9.88497e-09
1.12104e-06
-2.08724e-10
9.67332e-09
1.11726e-06
-3.45975e-10
9.5493e-09
1.1131e-06
-5.70175e-10
9.53204e-09
1.10848e-06
-9.32366e-10
9.6206e-09
1.10331e-06
-1.52e-09
9.80547e-09
1.09749e-06
-2.51429e-09
1.01112e-08
1.09077e-06
-3.9976e-09
1.05424e-08
1.08319e-06
-6.36239e-09
1.10907e-08
-1.08636e-08
1.18213e-08
1.16914e-06
-1.06504e-09
4.90659e-09
1.16312e-06
-5.58738e-09
1.16086e-08
1.15731e-06
-8.46556e-09
1.42756e-08
1.15202e-06
-9.04239e-09
1.4334e-08
1.1469e-06
-8.62234e-09
1.37316e-08
1.14205e-06
-8.12848e-09
1.2972e-08
1.13773e-06
-7.8004e-09
1.21051e-08
1.13396e-06
-7.5776e-09
1.13157e-08
1.13066e-06
-7.40851e-09
1.06637e-08
1.12752e-06
-7.1491e-09
1.02142e-08
1.12421e-06
-6.74925e-09
9.93628e-09
1.12056e-06
-6.31574e-09
9.75976e-09
1.11644e-06
-5.93057e-09
9.69865e-09
1.11172e-06
-5.63291e-09
9.79074e-09
1.10618e-06
-5.46546e-09
1.00656e-08
1.09957e-06
-5.46343e-09
1.05582e-08
1.09148e-06
-5.79463e-09
1.13675e-08
1.08142e-06
-6.55533e-09
1.26166e-08
1.06905e-06
-8.28861e-09
1.4295e-08
-1.25428e-08
1.5878e-08
1.07432e-06
-2.85261e-09
5.56889e-09
1.06824e-06
-1.34086e-08
1.39003e-08
1.06138e-06
-1.78672e-08
1.62622e-08
1.05338e-06
-1.6955e-08
1.59102e-08
1.04509e-06
-1.53398e-08
1.50045e-08
1.03719e-06
-1.41695e-08
1.39372e-08
1.02979e-06
-1.33788e-08
1.29834e-08
1.02276e-06
-1.26732e-08
1.21255e-08
1.01587e-06
-1.18831e-08
1.13642e-08
1.00903e-06
-1.10346e-08
1.07256e-08
1.00224e-06
-1.02201e-08
1.02571e-08
9.95447e-07
-9.45913e-09
9.94039e-09
9.88516e-07
-8.76088e-09
9.76129e-09
9.81265e-07
-8.11527e-09
9.73357e-09
9.73392e-07
-7.4837e-09
9.89081e-09
9.64427e-07
-6.80807e-09
1.03094e-08
9.53574e-07
-6.08808e-09
1.11466e-08
9.39578e-07
-5.27265e-09
1.27131e-08
9.20353e-07
-4.23958e-09
1.51767e-08
-5.25547e-09
1.92826e-08
8.90374e-07
-3.5875e-09
6.33242e-09
8.82485e-07
-2.26454e-08
1.71262e-08
8.70356e-07
-2.43753e-08
1.86369e-08
8.55106e-07
-1.88537e-08
1.71489e-08
8.39971e-07
-1.55671e-08
1.53628e-08
8.25514e-07
-1.35064e-08
1.37934e-08
8.11732e-07
-1.19451e-08
1.23485e-08
7.98714e-07
-1.07882e-08
1.11323e-08
7.86603e-07
-9.92756e-09
1.01558e-08
7.75397e-07
-9.20379e-09
9.37549e-09
7.64938e-07
-8.55512e-09
8.79434e-09
7.55044e-07
-7.95449e-09
8.38905e-09
7.45549e-07
-7.38811e-09
8.12209e-09
7.36302e-07
-6.83345e-09
7.96569e-09
7.27125e-07
-6.23713e-09
7.93018e-09
7.17768e-07
-5.5016e-09
8.05043e-09
7.07814e-07
-4.54215e-09
8.4081e-09
6.96329e-07
-2.91287e-09
9.12523e-09
6.81454e-07
3.65826e-10
1.02708e-08
7.39514e-09
1.58647e-08
6.3138e-07
-1.0968e-09
7.40295e-09
6.14563e-07
-2.65293e-08
2.07007e-08
5.86444e-07
-1.4986e-08
1.87299e-08
5.61723e-07
-9.9814e-09
1.58485e-08
5.39613e-07
-7.20854e-09
1.37513e-08
5.2063e-07
-5.81606e-09
1.12932e-08
5.04679e-07
-4.71003e-09
8.71567e-09
4.90917e-07
-3.87706e-09
6.85074e-09
4.78681e-07
-3.31263e-09
5.62141e-09
4.67574e-07
-2.89395e-09
4.7968e-09
4.57355e-07
-2.55193e-09
4.21605e-09
4.47866e-07
-2.25345e-09
3.78744e-09
4.38975e-07
-1.98391e-09
3.48738e-09
4.30567e-07
-1.70902e-09
3.28344e-09
4.2256e-07
-1.37213e-09
3.14192e-09
4.14975e-07
-9.56504e-10
3.04025e-09
4.07821e-07
-3.71798e-10
2.9836e-09
4.01396e-07
8.70649e-10
2.64181e-09
3.97057e-07
3.91078e-09
7.95173e-10
2.44788e-08
-7.79551e-09
3.32249e-07
1.09687e-09
2.7919e-07
2.65298e-08
2.49218e-07
1.49868e-08
2.29253e-07
9.98273e-09
2.14833e-07
7.21151e-09
2.03197e-07
5.82062e-09
1.93768e-07
4.7191e-09
1.85997e-07
3.89324e-09
1.79344e-07
3.34059e-09
1.73508e-07
2.94185e-09
1.68326e-07
2.63046e-09
1.63689e-07
2.38309e-09
1.59498e-07
2.20783e-09
1.55678e-07
2.11083e-09
1.52241e-07
2.06471e-09
1.4922e-07
2.06437e-09
1.46756e-07
2.0928e-09
1.45577e-07
2.04971e-09
1.47507e-07
1.98062e-09
-8.14994e-09
6.3138e-07
7.40295e-09
3.58751e-09
6.14563e-07
2.07007e-08
2.26454e-08
5.86444e-07
1.87299e-08
2.43754e-08
5.61723e-07
1.58485e-08
1.88538e-08
5.39613e-07
1.37513e-08
1.55672e-08
5.2063e-07
1.12932e-08
1.35065e-08
5.04679e-07
8.71563e-09
1.19452e-08
4.90917e-07
6.8507e-09
1.07883e-08
4.7868e-07
5.62135e-09
9.92771e-09
4.67574e-07
4.79672e-09
9.20397e-09
4.57354e-07
4.21595e-09
8.55537e-09
4.47866e-07
3.78724e-09
7.95485e-09
4.38974e-07
3.48704e-09
7.38858e-09
4.30567e-07
3.28333e-09
6.83358e-09
4.2256e-07
3.14202e-09
6.237e-09
4.14975e-07
3.04016e-09
5.50169e-09
4.07821e-07
2.98373e-09
4.54254e-09
4.01395e-07
2.64242e-09
2.91335e-09
3.97054e-07
7.9657e-10
-3.65708e-10
-7.79344e-09
-7.39732e-09
9.23616e-07
7.03401e-09
7.0338e-09
9.25317e-07
1.98503e-08
1.98496e-08
9.17182e-07
2.27976e-08
2.27962e-08
9.04272e-07
2.23039e-08
2.23013e-08
8.90529e-07
2.06237e-08
2.06194e-08
8.77401e-07
1.78586e-08
1.78505e-08
8.65426e-07
1.47056e-08
1.46924e-08
8.54738e-07
1.2198e-08
1.21767e-08
8.45284e-07
1.03555e-08
1.03184e-08
8.36916e-07
8.9932e-09
8.92911e-09
8.29444e-07
7.96789e-09
7.85946e-09
8.22685e-07
7.18999e-09
7.01268e-09
8.16543e-07
6.60124e-09
6.31947e-09
8.11011e-07
6.14069e-09
5.69275e-09
8.06102e-07
5.75116e-09
5.03337e-09
8.01819e-07
5.3757e-09
4.24297e-09
7.98235e-07
4.92116e-09
3.19419e-09
7.94871e-07
4.16162e-09
1.63698e-09
7.89618e-07
2.53002e-09
-8.76991e-10
-1.2671e-09
-4.59717e-09
1.1589e-06
5.28151e-09
6.10244e-09
1.1657e-06
1.39991e-08
1.61823e-08
1.16845e-06
1.79785e-08
2.07052e-08
1.16661e-06
1.91798e-08
2.21026e-08
1.16221e-06
1.88774e-08
2.15025e-08
1.15655e-06
1.75474e-08
1.97655e-08
1.15049e-06
1.56873e-08
1.74183e-08
1.14459e-06
1.38876e-08
1.53177e-08
1.13918e-06
1.22861e-08
1.36099e-08
1.13438e-06
1.08866e-08
1.22367e-08
1.1302e-06
9.72584e-09
1.11356e-08
1.12662e-06
8.77024e-09
1.02508e-08
1.12363e-06
7.96538e-09
9.51491e-09
1.12123e-06
7.25034e-09
8.85919e-09
1.11945e-06
6.55432e-09
8.21927e-09
1.1183e-06
5.80091e-09
7.49849e-09
1.11776e-06
4.87504e-09
6.562e-09
1.11747e-06
3.62918e-09
5.23978e-09
1.11642e-06
1.86042e-09
3.45141e-09
-7.88346e-10
1.63223e-09
1.32763e-06
2.71819e-09
4.93101e-09
1.3354e-06
7.12073e-09
1.30087e-08
1.34287e-06
9.55315e-09
1.72151e-08
1.34848e-06
1.05772e-08
1.88979e-08
1.35198e-06
1.08734e-08
1.94988e-08
1.35377e-06
1.0577e-08
1.91119e-08
1.35445e-06
9.88543e-09
1.80961e-08
1.3546e-06
9.03495e-09
1.68046e-08
1.3546e-06
8.17455e-09
1.54543e-08
1.35458e-06
7.35894e-09
1.42183e-08
1.35463e-06
6.61733e-09
1.32215e-08
1.35481e-06
5.93826e-09
1.24288e-08
1.35516e-06
5.30843e-09
1.17921e-08
1.3557e-06
4.68389e-09
1.12673e-08
1.35649e-06
3.99177e-09
1.08068e-08
1.35754e-06
3.17584e-09
1.03577e-08
1.3588e-06
2.14838e-09
9.86692e-09
1.36014e-06
8.16039e-10
9.29723e-09
1.36133e-06
-9.06176e-10
8.68698e-09
-2.91244e-09
8.45178e-09
1.41518e-06
-2.70952e-13
4.19285e-09
1.42279e-06
-7.83593e-13
1.11159e-08
1.43152e-06
-1.36855e-12
1.50985e-08
1.43981e-06
-2.53563e-12
1.66292e-08
1.44714e-06
-4.72841e-12
1.7275e-08
1.45318e-06
-8.29358e-12
1.75092e-08
1.45803e-06
-1.37112e-11
1.71523e-08
1.46195e-06
-2.25252e-11
1.64362e-08
1.46526e-06
-3.79299e-11
1.55494e-08
1.4682e-06
-6.5185e-11
1.46685e-08
1.47096e-06
-1.10293e-10
1.38569e-08
1.47359e-06
-1.83264e-10
1.31588e-08
1.47609e-06
-2.94502e-10
1.26526e-08
1.47843e-06
-4.65364e-10
1.23431e-08
1.48061e-06
-7.35658e-10
1.21721e-08
1.48262e-06
-1.14779e-09
1.21168e-08
1.48444e-06
-1.76422e-09
1.22011e-08
1.48601e-06
-2.65233e-09
1.24438e-08
1.48723e-06
-3.87299e-09
1.28362e-08
-5.27804e-09
1.34257e-08
1.41518e-06
-2.71849e-09
4.193e-09
1.42279e-06
-7.12157e-09
1.11163e-08
1.43152e-06
-9.5547e-09
1.50992e-08
1.4398e-06
-1.05802e-08
1.66307e-08
1.44713e-06
-1.0879e-08
1.72784e-08
1.45316e-06
-1.05867e-08
1.75151e-08
1.45799e-06
-9.90179e-09
1.71618e-08
1.4619e-06
-9.06238e-09
1.6451e-08
1.46517e-06
-8.22107e-09
1.55723e-08
1.46806e-06
-7.44199e-09
1.47061e-08
1.47072e-06
-6.76067e-09
1.39201e-08
1.47321e-06
-6.17447e-09
1.32685e-08
1.47544e-06
-5.67095e-09
1.28421e-08
1.47736e-06
-5.2506e-09
1.26536e-08
1.47895e-06
-4.91128e-09
1.26533e-08
1.48016e-06
-4.6678e-09
1.28657e-08
1.48092e-06
-4.54049e-09
1.3382e-08
1.48119e-06
-4.55091e-09
1.42497e-08
1.48092e-06
-4.69726e-09
1.53838e-08
-4.90552e-09
1.63513e-08
1.32762e-06
-5.28134e-09
4.93131e-09
1.33539e-06
-1.39987e-08
1.30096e-08
1.34286e-06
-1.79781e-08
1.72171e-08
1.34847e-06
-1.91792e-08
1.89025e-08
1.35196e-06
-1.88764e-08
1.95072e-08
1.35373e-06
-1.75452e-08
1.91249e-08
1.35438e-06
-1.56848e-08
1.81162e-08
1.3545e-06
-1.38854e-08
1.68366e-08
1.35442e-06
-1.22812e-08
1.5504e-08
1.35428e-06
-1.08771e-08
1.42993e-08
1.35412e-06
-9.71005e-09
1.33609e-08
1.35397e-06
-8.74192e-09
1.26622e-08
1.3538e-06
-7.91143e-09
1.21746e-08
1.35355e-06
-7.16023e-09
1.18916e-08
1.35313e-06
-6.42962e-09
1.18297e-08
1.35241e-06
-5.67606e-09
1.20329e-08
1.35128e-06
-4.83887e-09
1.25771e-08
1.34972e-06
-3.84337e-09
1.35623e-08
1.34783e-06
-2.55269e-09
1.49243e-08
-1.19829e-09
1.60821e-08
1.1589e-06
-7.03379e-09
6.10281e-09
1.16569e-06
-1.98495e-08
1.61837e-08
1.16844e-06
-2.27962e-08
2.07082e-08
1.1666e-06
-2.23013e-08
2.21075e-08
1.1622e-06
-2.06194e-08
2.15099e-08
1.15652e-06
-1.78505e-08
1.9776e-08
1.15044e-06
-1.46923e-08
1.74355e-08
1.14452e-06
-1.21766e-08
1.53475e-08
1.13905e-06
-1.03184e-08
1.36606e-08
1.13416e-06
-8.92903e-09
1.23205e-08
1.12983e-06
-7.85937e-09
1.12742e-08
1.12601e-06
-7.01261e-09
1.04769e-08
1.12266e-06
-6.31939e-09
9.88262e-09
1.1197e-06
-5.6924e-09
9.45211e-09
1.11706e-06
-5.03275e-09
9.17573e-09
1.11462e-06
-4.24247e-09
9.05505e-09
1.11229e-06
-3.19357e-09
9.09509e-09
1.10992e-06
-1.63604e-09
9.28803e-09
1.10729e-06
8.78691e-10
9.46981e-09
4.5985e-09
9.58725e-09
9.23616e-07
-7.40284e-09
7.03401e-09
9.25317e-07
-2.07001e-08
1.98503e-08
9.17182e-07
-1.87289e-08
2.27976e-08
9.04272e-07
-1.58465e-08
2.23039e-08
8.90529e-07
-1.37485e-08
2.06237e-08
8.77401e-07
-1.12879e-08
1.78586e-08
8.65426e-07
-8.70715e-09
1.47056e-08
8.54739e-07
-6.83692e-09
1.21981e-08
8.45284e-07
-5.59822e-09
1.03556e-08
8.36916e-07
-4.75702e-09
8.99334e-09
8.29444e-07
-4.13971e-09
7.96808e-09
8.22684e-07
-3.65585e-09
7.19032e-09
8.16542e-07
-3.29157e-09
6.60186e-09
8.11011e-07
-3.01882e-09
6.14071e-09
8.06102e-07
-2.73248e-09
5.75086e-09
8.01818e-07
-2.2945e-09
5.37609e-09
7.98233e-07
-1.54642e-09
4.92157e-09
7.94869e-07
2.08828e-10
4.16179e-09
7.89614e-07
4.39959e-09
2.52979e-09
1.81855e-08
-1.26719e-09
6.3138e-07
3.58767e-09
6.14563e-07
2.26462e-08
5.86445e-07
2.43764e-08
5.61726e-07
1.88555e-08
5.39618e-07
1.55708e-08
5.20638e-07
1.35125e-08
5.04694e-07
1.19555e-08
4.90945e-07
1.08055e-08
4.78731e-07
9.95661e-09
4.67663e-07
9.25314e-09
4.57515e-07
8.63874e-09
4.48153e-07
8.08891e-09
4.39471e-07
7.59806e-09
4.31397e-07
7.16639e-09
4.2396e-07
6.7687e-09
4.17393e-07
6.33777e-09
4.12267e-07
5.67239e-09
4.10498e-07
4.02767e-09
4.161e-07
7.78329e-10
-9.00275e-09
8.90374e-07
6.33242e-09
2.85262e-09
8.82485e-07
1.71262e-08
1.34086e-08
8.70356e-07
1.86369e-08
1.78673e-08
8.55106e-07
1.71489e-08
1.69551e-08
8.3997e-07
1.53628e-08
1.53399e-08
8.25514e-07
1.37934e-08
1.41696e-08
8.11732e-07
1.23485e-08
1.33789e-08
7.98714e-07
1.11323e-08
1.26734e-08
7.86603e-07
1.01558e-08
1.18832e-08
7.75397e-07
9.37546e-09
1.10348e-08
7.64937e-07
8.79431e-09
1.02204e-08
7.55044e-07
8.38904e-09
9.45945e-09
7.45549e-07
8.12222e-09
8.76125e-09
7.36301e-07
7.96566e-09
8.11556e-09
7.27124e-07
7.92984e-09
7.48388e-09
7.17767e-07
8.05034e-09
6.80833e-09
7.07813e-07
8.40823e-09
6.08858e-09
6.96327e-07
9.12571e-09
5.27329e-09
6.8145e-07
1.02719e-08
4.23995e-09
1.58657e-08
5.25374e-09
1.1589e-06
6.10281e-09
5.28135e-09
1.16569e-06
1.61837e-08
1.39988e-08
1.16844e-06
2.07082e-08
1.79782e-08
1.1666e-06
2.21075e-08
1.91792e-08
1.1622e-06
2.15098e-08
1.88765e-08
1.15652e-06
1.9776e-08
1.75453e-08
1.15044e-06
1.74355e-08
1.56849e-08
1.14452e-06
1.53474e-08
1.38855e-08
1.13905e-06
1.36605e-08
1.22813e-08
1.13416e-06
1.23204e-08
1.08772e-08
1.12983e-06
1.12741e-08
9.71015e-09
1.12601e-06
1.04767e-08
8.74202e-09
1.12266e-06
9.8825e-09
7.91169e-09
1.11971e-06
9.45196e-09
7.16041e-09
1.11706e-06
9.17536e-09
6.42965e-09
1.11463e-06
9.05466e-09
5.67626e-09
1.11229e-06
9.09467e-09
4.8391e-09
1.10993e-06
9.28788e-09
3.8437e-09
1.1073e-06
9.47046e-09
2.5533e-09
9.58776e-09
1.19847e-09
1.37712e-06
4.57755e-09
4.5772e-09
1.38565e-06
1.19177e-08
1.19167e-08
1.39417e-06
1.64481e-08
1.64462e-08
1.40126e-06
1.85623e-08
1.85593e-08
1.40641e-06
1.89327e-08
1.89277e-08
1.40951e-06
1.82255e-08
1.82177e-08
1.41093e-06
1.67214e-08
1.67087e-08
1.41152e-06
1.50514e-08
1.50313e-08
1.41179e-06
1.35129e-08
1.34801e-08
1.41203e-06
1.21838e-08
1.21312e-08
1.41241e-06
1.10578e-08
1.09731e-08
1.41304e-06
1.01207e-08
9.98512e-09
1.41395e-06
9.34878e-09
9.13065e-09
1.41519e-06
8.71196e-09
8.36553e-09
1.41674e-06
8.18641e-09
7.65096e-09
1.41861e-06
7.7496e-09
6.9381e-09
1.42073e-06
7.36977e-09
6.16874e-09
1.42295e-06
7.00691e-09
5.29513e-09
1.42501e-06
6.56022e-09
4.30298e-09
5.94844e-09
3.53136e-09
1.53312e-06
2.36607e-09
3.64918e-09
1.54218e-06
6.23895e-09
9.63348e-09
1.55328e-06
8.87354e-09
1.3691e-08
1.56445e-06
1.03474e-08
1.59354e-08
1.57508e-06
1.09003e-08
1.69097e-08
1.58472e-06
1.07557e-08
1.69425e-08
1.59302e-06
1.01451e-08
1.63725e-08
1.6001e-06
9.33362e-09
1.544e-08
1.60627e-06
8.46339e-09
1.43356e-08
1.61179e-06
7.64301e-09
1.32377e-08
1.61691e-06
6.91759e-09
1.22392e-08
1.62181e-06
6.28674e-09
1.1366e-08
1.6266e-06
5.73085e-09
1.06134e-08
1.63139e-06
5.22348e-09
9.96408e-09
1.63626e-06
4.73821e-09
9.39415e-09
1.64124e-06
4.25119e-09
8.87363e-09
1.64637e-06
3.73037e-09
8.3768e-09
1.65164e-06
3.13905e-09
7.89119e-09
1.65702e-06
2.42796e-09
7.44439e-09
1.63609e-09
7.23696e-09
1.61424e-06
-1.92048e-13
3.0928e-09
1.62332e-06
-4.74818e-13
8.27389e-09
1.63534e-06
-8.54621e-13
1.19569e-08
1.6482e-06
-1.53632e-12
1.41139e-08
1.66118e-06
-2.74835e-12
1.51992e-08
1.67387e-06
-4.51709e-12
1.55814e-08
1.68574e-06
-7.45229e-12
1.54278e-08
1.69657e-06
-1.19138e-11
1.49557e-08
1.70632e-06
-1.95673e-11
1.42814e-08
1.71516e-06
-3.24573e-11
1.35068e-08
1.72326e-06
-5.29109e-11
1.27215e-08
1.7308e-06
-8.39764e-11
1.19932e-08
1.73794e-06
-1.29044e-10
1.13699e-08
1.74483e-06
-1.97015e-10
1.08744e-08
1.75153e-06
-3.0017e-10
1.05118e-08
1.75807e-06
-4.56505e-10
1.02801e-08
1.76451e-06
-6.79737e-10
1.01731e-08
1.77089e-06
-9.83018e-10
1.01865e-08
1.77722e-06
-1.36451e-09
1.03023e-08
-1.7357e-09
1.05029e-08
1.61424e-06
-2.36619e-09
3.09299e-09
1.62332e-06
-6.23923e-09
8.27445e-09
1.63533e-06
-8.87409e-09
1.19579e-08
1.64819e-06
-1.03485e-08
1.4116e-08
1.66117e-06
-1.09018e-08
1.52031e-08
1.67385e-06
-1.0758e-08
1.55875e-08
1.68572e-06
-1.0149e-08
1.54368e-08
1.69653e-06
-9.34051e-09
1.4969e-08
1.70625e-06
-8.47502e-09
1.4302e-08
1.71505e-06
-7.66419e-09
1.35396e-08
1.7231e-06
-6.955e-09
1.27746e-08
1.73055e-06
-6.34851e-09
1.20795e-08
1.73758e-06
-5.82441e-09
1.15088e-08
1.74431e-06
-5.36263e-09
1.10948e-08
1.75076e-06
-4.95396e-09
1.08529e-08
1.75697e-06
-4.59428e-09
1.07927e-08
1.76301e-06
-4.26868e-09
1.09299e-08
1.76898e-06
-3.96105e-09
1.12597e-08
1.77493e-06
-3.62984e-09
1.17023e-08
-3.2951e-09
1.20443e-08
1.53312e-06
-4.57719e-09
3.64963e-09
1.54218e-06
-1.19167e-08
9.63475e-09
1.55327e-06
-1.64462e-08
1.36934e-08
1.56445e-06
-1.85592e-08
1.59398e-08
1.57506e-06
-1.89276e-08
1.6917e-08
1.58469e-06
-1.82176e-08
1.69539e-08
1.59298e-06
-1.67086e-08
1.639e-08
1.60004e-06
-1.50312e-08
1.54681e-08
1.60617e-06
-1.34801e-08
1.43791e-08
1.61163e-06
-1.21311e-08
1.33057e-08
1.61666e-06
-1.0973e-08
1.23485e-08
1.62142e-06
-9.98505e-09
1.15415e-08
1.626e-06
-9.13052e-09
1.0897e-08
1.63048e-06
-8.3652e-09
1.0417e-08
1.6349e-06
-7.65054e-09
1.01031e-08
1.63931e-06
-6.93783e-09
9.96385e-09
1.64378e-06
-6.16858e-09
1.00111e-08
1.64843e-06
-5.29497e-09
1.02415e-08
1.65347e-06
-4.30274e-09
1.05599e-08
-3.53133e-09
1.06629e-08
1.37712e-06
-6.10244e-09
4.57755e-09
1.38565e-06
-1.61823e-08
1.19177e-08
1.39417e-06
-2.07052e-08
1.64481e-08
1.40126e-06
-2.21026e-08
1.85623e-08
1.40641e-06
-2.15024e-08
1.89327e-08
1.40951e-06
-1.97655e-08
1.82255e-08
1.41093e-06
-1.74183e-08
1.67215e-08
1.41152e-06
-1.53176e-08
1.50515e-08
1.41179e-06
-1.36098e-08
1.35131e-08
1.41203e-06
-1.22366e-08
1.2184e-08
1.41241e-06
-1.11355e-08
1.1058e-08
1.41303e-06
-1.02507e-08
1.01211e-08
1.41395e-06
-9.51483e-09
9.34922e-09
1.41519e-06
-8.85851e-09
8.71238e-09
1.41674e-06
-8.2182e-09
8.18696e-09
1.41861e-06
-7.49768e-09
7.75045e-09
1.42072e-06
-6.56101e-09
7.37079e-09
1.42295e-06
-5.2382e-09
7.00783e-09
1.425e-06
-3.44915e-09
6.56067e-09
-1.63003e-09
5.94867e-09
1.1589e-06
-6.33231e-09
5.28151e-09
1.1657e-06
-1.71255e-08
1.39991e-08
1.16845e-06
-1.86351e-08
1.79785e-08
1.16661e-06
-1.71458e-08
1.91798e-08
1.16221e-06
-1.53583e-08
1.88774e-08
1.15655e-06
-1.37873e-08
1.75474e-08
1.15049e-06
-1.23387e-08
1.56874e-08
1.14459e-06
-1.11151e-08
1.38877e-08
1.13918e-06
-1.01277e-08
1.22862e-08
1.13438e-06
-9.32908e-09
1.08868e-08
1.1302e-06
-8.71568e-09
9.7261e-09
1.12662e-06
-8.25239e-09
8.77063e-09
1.12363e-06
-7.88778e-09
7.96604e-09
1.12123e-06
-7.56974e-09
7.2507e-09
1.11945e-06
-7.23999e-09
6.55458e-09
1.1183e-06
-6.76992e-09
5.80179e-09
1.11776e-06
-5.97405e-09
4.8761e-09
1.11747e-06
-4.4143e-09
3.63007e-09
1.11642e-06
-1.73098e-09
1.86134e-09
3.68473e-09
-7.83744e-10
8.90375e-07
2.85266e-09
8.82487e-07
1.34087e-08
8.70361e-07
1.78673e-08
8.55115e-07
1.69552e-08
8.39988e-07
1.53393e-08
8.25546e-07
1.41674e-08
8.11788e-07
1.33745e-08
7.98812e-07
1.26666e-08
7.86769e-07
1.18714e-08
7.75678e-07
1.1015e-08
7.65413e-07
1.01881e-08
7.55845e-07
9.40479e-09
7.46891e-07
8.66388e-09
7.38551e-07
7.93748e-09
7.30923e-07
7.15669e-09
7.24338e-07
6.15242e-09
7.19301e-07
4.73541e-09
7.16357e-07
2.55759e-09
7.16462e-07
-1.0574e-09
-8.20938e-09
1.07432e-06
5.56889e-09
1.06505e-09
1.06824e-06
1.39003e-08
5.58743e-09
1.06138e-06
1.62622e-08
8.46565e-09
1.05338e-06
1.59102e-08
9.04251e-09
1.04509e-06
1.50045e-08
8.62248e-09
1.03719e-06
1.39372e-08
8.12863e-09
1.02979e-06
1.29834e-08
7.80057e-09
1.02276e-06
1.21255e-08
7.57779e-09
1.01587e-06
1.13642e-08
7.40872e-09
1.00903e-06
1.07256e-08
7.14933e-09
1.00224e-06
1.0257e-08
6.74949e-09
9.95447e-07
9.9404e-09
6.316e-09
9.88516e-07
9.76138e-09
5.93085e-09
9.81264e-07
9.73353e-09
5.63325e-09
9.73391e-07
9.89063e-09
5.46583e-09
9.64427e-07
1.03093e-08
5.46383e-09
9.53573e-07
1.11468e-08
5.7952e-09
9.39576e-07
1.27137e-08
6.55643e-09
9.20348e-07
1.51778e-08
8.29027e-09
1.9283e-08
1.25444e-08
1.32762e-06
4.93131e-09
2.7185e-09
1.33539e-06
1.30096e-08
7.12161e-09
1.34286e-06
1.72171e-08
9.55476e-09
1.34847e-06
1.89025e-08
1.05803e-08
1.35196e-06
1.95072e-08
1.08791e-08
1.35373e-06
1.91249e-08
1.05868e-08
1.35438e-06
1.81162e-08
9.9019e-09
1.35449e-06
1.68366e-08
9.06249e-09
1.35442e-06
1.55039e-08
8.22119e-09
1.35428e-06
1.42993e-08
7.44212e-09
1.35412e-06
1.33608e-08
6.7608e-09
1.35397e-06
1.2662e-08
6.17461e-09
1.3538e-06
1.21745e-08
5.67112e-09
1.35355e-06
1.18912e-08
5.25058e-09
1.35313e-06
1.1829e-08
4.91108e-09
1.35241e-06
1.20323e-08
4.66769e-09
1.35128e-06
1.25765e-08
4.54033e-09
1.34973e-06
1.35615e-08
4.55052e-09
1.34784e-06
1.4923e-08
4.69629e-09
1.60789e-08
4.90292e-09
1.53312e-06
3.64964e-09
2.36621e-09
1.54218e-06
9.63476e-09
6.23928e-09
1.55327e-06
1.36934e-08
8.87415e-09
1.56445e-06
1.59398e-08
1.03485e-08
1.57506e-06
1.6917e-08
1.09019e-08
1.58469e-06
1.69539e-08
1.07581e-08
1.59298e-06
1.63899e-08
1.01491e-08
1.60004e-06
1.5468e-08
9.34061e-09
1.60617e-06
1.4379e-08
8.47513e-09
1.61163e-06
1.33056e-08
7.6643e-09
1.61666e-06
1.23483e-08
6.9551e-09
1.62142e-06
1.15412e-08
6.34859e-09
1.626e-06
1.08966e-08
5.82448e-09
1.63048e-06
1.04164e-08
5.36264e-09
1.6349e-06
1.01023e-08
4.95385e-09
1.63931e-06
9.96279e-09
4.59403e-09
1.64378e-06
1.00097e-08
4.26814e-09
1.64844e-06
1.02398e-08
3.96004e-09
1.65348e-06
1.05574e-08
3.62809e-09
1.0659e-08
3.29219e-09
1.68027e-06
1.89122e-09
1.89104e-09
1.68934e-06
5.09982e-09
5.09927e-09
1.7018e-06
7.46507e-09
7.46406e-09
1.71578e-06
8.94739e-09
8.94571e-09
1.73022e-06
9.69509e-09
9.69236e-09
1.74439e-06
9.86428e-09
9.85986e-09
1.75784e-06
9.6575e-09
9.65069e-09
1.77035e-06
9.20716e-09
9.19686e-09
1.78183e-06
8.62555e-09
8.61028e-09
1.79238e-06
8.00704e-09
7.98415e-09
1.80216e-06
7.41785e-09
7.38244e-09
1.81134e-06
6.89227e-09
6.83591e-09
1.82006e-06
6.44381e-09
6.35239e-09
1.82844e-06
6.07409e-09
5.92707e-09
1.83661e-06
5.7766e-09
5.54936e-09
1.84469e-06
5.54184e-09
5.21067e-09
1.85281e-06
5.36162e-09
4.903e-09
1.86111e-06
5.21586e-09
4.61641e-09
1.86971e-06
5.05841e-09
4.34189e-09
4.80768e-09
4.15041e-09
1.7569e-06
-2.19037e-14
1.6132e-09
1.76589e-06
-1.14566e-14
4.38402e-09
1.77878e-06
-4.97065e-15
6.53156e-09
1.79389e-06
-1.48135e-15
7.95067e-09
1.81003e-06
1.80328e-14
8.75507e-09
1.82639e-06
6.66017e-14
9.08478e-09
1.84241e-06
8.20844e-14
9.07099e-09
1.85773e-06
-2.33852e-13
8.83459e-09
1.87218e-06
-1.01683e-12
8.46053e-09
1.88568e-06
-2.2657e-12
8.01483e-09
1.89828e-06
-3.75046e-12
7.54868e-09
1.91007e-06
-4.9603e-12
7.09914e-09
1.9212e-06
-5.02367e-12
6.69067e-09
1.93181e-06
-3.95925e-12
6.338e-09
1.94205e-06
-4.58005e-12
6.05053e-09
1.95206e-06
-1.37117e-11
5.83229e-09
1.96195e-06
-3.68484e-11
5.6786e-09
1.97186e-06
-8.09968e-11
5.57727e-09
1.98187e-06
-1.54311e-10
5.50457e-09
-2.56388e-10
5.46139e-09
1.7569e-06
-1.89102e-09
1.61335e-09
1.76589e-06
-5.09922e-09
4.38444e-09
1.77878e-06
-7.46399e-09
6.53237e-09
1.79389e-06
-8.94564e-09
7.95208e-09
1.81003e-06
-9.69227e-09
8.75736e-09
1.82639e-06
-9.85976e-09
9.08833e-09
1.8424e-06
-9.65057e-09
9.0762e-09
1.85772e-06
-9.19674e-09
8.84227e-09
1.87216e-06
-8.61014e-09
8.47205e-09
1.88565e-06
-7.98401e-09
8.03238e-09
1.89823e-06
-7.3823e-09
7.57575e-09
1.90999e-06
-6.83578e-09
7.14119e-09
1.92109e-06
-6.35226e-09
6.75622e-09
1.93167e-06
-5.92694e-09
6.44004e-09
1.94186e-06
-5.54927e-09
6.20768e-09
1.95179e-06
-5.2107e-09
6.06495e-09
1.96157e-06
-4.90327e-09
6.00902e-09
1.97135e-06
-4.61706e-09
6.02243e-09
1.98118e-06
-4.34315e-09
6.05902e-09
-4.15245e-09
6.03188e-09
1.68027e-06
-3.64916e-09
1.89122e-09
1.68934e-06
-9.63344e-09
5.09981e-09
1.7018e-06
-1.3691e-08
7.46507e-09
1.71578e-06
-1.59353e-08
8.9474e-09
1.73022e-06
-1.69097e-08
9.69512e-09
1.74439e-06
-1.69424e-08
9.86432e-09
1.75784e-06
-1.63724e-08
9.65758e-09
1.77035e-06
-1.54399e-08
9.20728e-09
1.78183e-06
-1.43355e-08
8.62572e-09
1.79238e-06
-1.32376e-08
8.0073e-09
1.80216e-06
-1.22391e-08
7.41821e-09
1.81134e-06
-1.13659e-08
6.89275e-09
1.82006e-06
-1.06132e-08
6.44447e-09
1.82844e-06
-9.96376e-09
6.07496e-09
1.83661e-06
-9.39374e-09
5.77779e-09
1.84469e-06
-8.8733e-09
5.54344e-09
1.85281e-06
-8.37657e-09
5.36372e-09
1.86111e-06
-7.89116e-09
5.21855e-09
1.86971e-06
-7.44515e-09
5.06188e-09
-7.23994e-09
4.81225e-09
1.53312e-06
-4.93099e-09
2.36607e-09
1.54218e-06
-1.30087e-08
6.23894e-09
1.55328e-06
-1.72151e-08
8.87354e-09
1.56445e-06
-1.88978e-08
1.03474e-08
1.57508e-06
-1.94988e-08
1.09003e-08
1.58472e-06
-1.91119e-08
1.07558e-08
1.59302e-06
-1.8096e-08
1.01451e-08
1.6001e-06
-1.68045e-08
9.33375e-09
1.60627e-06
-1.54542e-08
8.46358e-09
1.61179e-06
-1.42182e-08
7.64329e-09
1.61691e-06
-1.32214e-08
6.91798e-09
1.62181e-06
-1.24287e-08
6.28728e-09
1.6266e-06
-1.17919e-08
5.73156e-09
1.63139e-06
-1.12667e-08
5.22433e-09
1.63625e-06
-1.08058e-08
4.7393e-09
1.64123e-06
-1.03567e-08
4.25275e-09
1.64636e-06
-9.86538e-09
3.73241e-09
1.65163e-06
-9.29484e-09
3.14158e-09
1.657e-06
-8.68466e-09
2.43109e-09
-8.45864e-09
1.6404e-09
1.32763e-06
-5.56888e-09
2.71818e-09
1.3354e-06
-1.39002e-08
7.12072e-09
1.34287e-06
-1.62614e-08
9.55314e-09
1.34848e-06
-1.59076e-08
1.05772e-08
1.35198e-06
-1.49996e-08
1.08734e-08
1.35377e-06
-1.39296e-08
1.0577e-08
1.35445e-06
-1.2972e-08
9.88551e-09
1.35461e-06
-1.21071e-08
9.03507e-09
1.3546e-06
-1.13331e-08
8.17473e-09
1.35458e-06
-1.06722e-08
7.35919e-09
1.35463e-06
-1.01646e-08
6.61769e-09
1.35481e-06
-9.77832e-09
5.93876e-09
1.35516e-06
-9.48138e-09
5.30916e-09
1.3557e-06
-9.24727e-09
4.68466e-09
1.35649e-06
-9.03471e-09
3.99263e-09
1.35754e-06
-8.77611e-09
3.1771e-09
1.35879e-06
-8.39653e-09
2.14987e-09
1.36014e-06
-7.82267e-09
8.17662e-10
1.36132e-06
-7.10263e-09
-9.03698e-10
-6.65778e-09
-2.90204e-09
1.07432e-06
1.06474e-09
1.06824e-06
5.5863e-09
1.06138e-06
8.46348e-09
1.05339e-06
9.03882e-09
1.04511e-06
8.6156e-09
1.03724e-06
8.11585e-09
1.02986e-06
7.77764e-09
1.02288e-06
7.53826e-09
1.01608e-06
7.34033e-09
1.00939e-06
7.03559e-09
1.00285e-06
6.5631e-09
9.96462e-07
6.01141e-09
9.90217e-07
5.42759e-09
9.84111e-07
4.79595e-09
9.78157e-07
4.07584e-09
9.72415e-07
3.11839e-09
9.66982e-07
1.77163e-09
9.6189e-07
-1.73738e-10
9.56587e-07
-2.85701e-09
-6.91605e-09
1.16914e-06
4.90659e-09
1.4913e-13
1.16312e-06
1.16086e-08
7.24688e-13
1.15731e-06
1.42756e-08
1.68168e-12
1.15202e-06
1.4334e-08
2.98662e-12
1.1469e-06
1.37316e-08
5.09598e-12
1.14205e-06
1.2972e-08
8.8492e-12
1.13773e-06
1.21051e-08
1.55317e-11
1.13396e-06
1.13157e-08
2.65228e-11
1.13066e-06
1.06637e-08
4.50194e-11
1.12752e-06
1.02142e-08
7.55845e-11
1.12421e-06
9.93627e-09
1.26022e-10
1.12056e-06
9.75974e-09
2.08995e-10
1.11644e-06
9.69861e-09
3.46256e-10
1.11172e-06
9.79064e-09
5.70485e-10
1.10618e-06
1.00654e-08
9.32718e-10
1.09957e-06
1.05579e-08
1.52041e-09
1.09148e-06
1.13671e-08
2.51483e-09
1.08142e-06
1.26162e-08
3.99856e-09
1.06906e-06
1.42943e-08
6.36404e-09
1.58769e-08
1.08671e-08
1.41518e-06
4.19301e-09
2.89524e-13
1.42279e-06
1.11163e-08
8.39477e-13
1.43152e-06
1.50992e-08
1.44366e-12
1.4398e-06
1.66307e-08
2.62672e-12
1.44713e-06
1.72784e-08
4.83503e-12
1.45316e-06
1.75151e-08
8.41469e-12
1.45799e-06
1.71618e-08
1.38447e-11
1.4619e-06
1.6451e-08
2.267e-11
1.46517e-06
1.55723e-08
3.80831e-11
1.46806e-06
1.47061e-08
6.53423e-11
1.47072e-06
1.392e-08
1.1045e-10
1.47321e-06
1.32683e-08
1.83407e-10
1.47544e-06
1.28419e-08
2.94606e-10
1.47736e-06
1.26532e-08
4.65348e-10
1.47895e-06
1.26527e-08
7.35474e-10
1.48016e-06
1.2865e-08
1.14744e-09
1.48093e-06
1.33812e-08
1.76361e-09
1.48119e-06
1.42485e-08
2.65124e-09
1.48093e-06
1.53816e-08
3.87094e-09
1.6347e-08
5.27422e-09
1.61424e-06
3.093e-09
2.14955e-13
1.62332e-06
8.27447e-09
5.26509e-13
1.63533e-06
1.1958e-08
9.20683e-13
1.64819e-06