/*--------------------------------*- C++ -*----------------------------------*\
| =========                 |                                                 |
| \\      /  F ield         | OpenFOAM: The Open Source CFD Toolbox           |
|  \\    /   O peration     | Version:  2212                                  |
|   \\  /    A nd           | Website:  www.openfoam.com                      |
|    \\/     M anipulation  |                                                 |
\*---------------------------------------------------------------------------*/
FoamFile
{
    version     2.0;
    format      ascii;
    arch        "LSB;label=32;scalar=64";
    class       surfaceVectorField;
    location    "2.75";
    object      Uf;
}
// * * * * * * * * * * * * * * * * * * * * * * * * * * * * * * * * * * * * * //

dimensions      [0 1 -1 0 0 0 0];

internalField   nonuniform List<vector> 
19019
(
(0.0993441 -0.00341899 -0.00341904)
(0.0973536 0.00106248 -0.00148428)
(0.0973536 -0.00148427 0.00106247)
(0.0834792 0.00197595 0.00197581)
(0.0930872 0.00326905 0.00253343)
(0.0930872 0.00253352 0.00326892)
(0.0745172 0.00195888 0.00195859)
(0.0848641 0.00163596 0.00179228)
(0.084864 0.00179246 0.00163571)
(0.0685478 0.00115937 0.00115881)
(0.0786281 0.00107372 0.00122123)
(0.078628 0.00122161 0.00107328)
(0.0642361 0.000697496 0.000696532)
(0.0740532 0.00078576 0.000864899)
(0.074053 0.000865529 0.000784871)
(0.0607567 0.000495814 0.000493912)
(0.0704427 0.000651199 0.000668967)
(0.0704423 0.000670035 0.000649775)
(0.0579373 0.000376666 0.000373119)
(0.0674921 0.000548081 0.00050789)
(0.0674914 0.000510036 0.000545223)
(0.055614 0.000291062 0.000285145)
(0.0650516 0.000471181 0.000386418)
(0.0650503 0.000389996 0.000466217)
(0.0536246 0.000232071 0.000222366)
(0.0629673 0.000419098 0.000306201)
(0.062965 0.000312034 0.000410709)
(0.0518797 0.000191615 0.000175382)
(0.0611339 0.000379194 0.000252308)
(0.0611299 0.000261886 0.000365054)
(0.0503301 0.000165181 0.000138077)
(0.0594926 0.000345396 0.000214734)
(0.0594852 0.000231754 0.000321439)
(0.0489438 0.000149149 0.000105527)
(0.0580101 0.000317266 0.00018707)
(0.0579967 0.000215652 0.000277427)
(0.0476905 0.000141353 7.31692e-05)
(0.05666 0.000298298 0.000165812)
(0.0566364 0.000208464 0.000233393)
(0.0465483 0.000142449 3.69848e-05)
(0.0554202 0.000291161 0.000148306)
(0.0553804 0.000207339 0.000184864)
(0.0455207 0.00015574 6.57317e-07)
(0.0542839 0.000295432 0.000126886)
(0.0542177 0.000213824 0.000120788)
(0.0446175 0.000189213 -6.02261e-05)
(0.0532638 0.000312607 9.73206e-05)
(0.0531504 0.00023125 3.62299e-05)
(0.0438805 0.000245905 -0.00018942)
(0.0524013 0.000357781 2.85869e-05)
(0.0521953 0.000276816 -9.49567e-05)
(0.043528 0.000301497 -0.00041597)
(0.0518197 0.000438775 -0.000123409)
(0.0514161 0.000321424 -0.000343305)
(0.0441051 -0.000506685 -0.00177908)
(0.0519803 0.000562264 -0.000356206)
(0.0511274 0.000288663 -0.000868198)
(0.0505459 -0.000372599 -0.00186102)
(0.0500466 -0.00125748 -0.00364672)
(0.0984572 0.00247649 0.00172987)
(0.0996871 0.000439246 0.000345479)
(0.100049 0.0010564 0.000750958)
(0.0958348 0.00314816 0.0024326)
(0.0978161 0.00273287 0.00228224)
(0.0982936 0.00280928 0.0021614)
(0.09145 0.00223051 0.00186918)
(0.095496 0.00300182 0.00230302)
(0.096304 0.00244277 0.00199769)
(0.0875953 0.00167497 0.00150528)
(0.0926193 0.00229956 0.0018386)
(0.0936668 0.00198094 0.00172678)
(0.0841478 0.00144065 0.00127538)
(0.0897676 0.00189225 0.00153543)
(0.0909047 0.00172009 0.00149757)
(0.0811881 0.00126641 0.0010283)
(0.0872328 0.00165704 0.00129435)
(0.0884345 0.00145513 0.0012113)
(0.0787019 0.0011119 0.000793301)
(0.0850079 0.00149293 0.00107673)
(0.086305 0.00118448 0.000907966)
(0.0765578 0.000995038 0.000624206)
(0.0830632 0.00137302 0.000912669)
(0.0844808 0.000984716 0.000689693)
(0.0746531 0.000910042 0.000516645)
(0.0813286 0.00128092 0.000800704)
(0.0828806 0.000848103 0.000546958)
(0.0729271 0.000839242 0.000449824)
(0.0797532 0.00119793 0.000724944)
(0.0814488 0.000749453 0.000452528)
(0.0713446 0.000772779 0.000407453)
(0.0783096 0.00111848 0.000676577)
(0.0801536 0.000670806 0.000385896)
(0.0698848 0.00071233 0.000380121)
(0.0769773 0.00104244 0.000645876)
(0.0789691 0.000604806 0.000335516)
(0.068531 0.000664797 0.000364618)
(0.0757395 0.000971409 0.000626484)
(0.0778769 0.000554469 0.000297849)
(0.0672719 0.000631761 0.000353937)
(0.0745863 0.000906741 0.000614987)
(0.0768696 0.000520731 0.000268006)
(0.0661122 0.000610163 0.000328032)
(0.0735174 0.000847914 0.00060252)
(0.0759456 0.000500592 0.00023022)
(0.0650881 0.000589051 0.00026793)
(0.0725527 0.000792112 0.000568736)
(0.0751147 0.000493984 0.000162013)
(0.0642887 0.000537142 0.000113046)
(0.0717472 0.000712729 0.00049922)
(0.0744116 0.000488026 4.32769e-05)
(0.0640128 0.000467701 -0.000169173)
(0.0712154 0.000531128 0.000290165)
(0.0739182 0.000444792 -0.000222851)
(0.0648865 0.000234747 -0.000549085)
(0.0712673 0.000149604 -6.49078e-05)
(0.0738504 0.000283385 -0.000833559)
(0.0698115 -0.00114877 -0.000751346)
(0.0725745 -0.000694487 -0.00265305)
(0.0993753 0.00118218 0.00107253)
(0.099473 0.000349766 0.000307057)
(0.0997475 0.000610998 0.000779868)
(0.0984949 0.00229617 0.00203183)
(0.0990504 0.00157685 0.00172044)
(0.0995971 0.00201837 0.00200281)
(0.0971415 0.00247666 0.00204845)
(0.0983579 0.00213118 0.00216877)
(0.0992974 0.00246165 0.00210226)
(0.0954399 0.00224726 0.00176714)
(0.0971936 0.00203591 0.00200225)
(0.0984885 0.0023747 0.00190236)
(0.0937516 0.0020209 0.00152209)
(0.0959059 0.00185577 0.00175413)
(0.0974228 0.00218123 0.00168832)
(0.0921397 0.00186484 0.00134406)
(0.0946732 0.00173286 0.00154231)
(0.0963104 0.00198526 0.00150773)
(0.0906042 0.00175459 0.0012142)
(0.0934843 0.00165286 0.00138597)
(0.095206 0.00180242 0.00134183)
(0.0891559 0.00165703 0.00111268)
(0.0923726 0.00157696 0.00126479)
(0.0941506 0.00164588 0.00120232)
(0.0878118 0.00155273 0.00103043)
(0.0913393 0.0014815 0.00117078)
(0.0931702 0.00150677 0.00109346)
(0.0865739 0.00144416 0.000968584)
(0.0903549 0.00137097 0.00110136)
(0.0922688 0.00137821 0.00101007)
(0.0854282 0.00133974 0.000927573)
(0.0894326 0.00125935 0.00105452)
(0.0914469 0.00126243 0.000950971)
(0.0843603 0.0012424 0.000902366)
(0.0885662 0.00115009 0.00102465)
(0.0906969 0.00116111 0.000910371)
(0.083361 0.00114928 0.000886938)
(0.087745 0.00104413 0.00100716)
(0.0900095 0.00107178 0.000881199)
(0.0824301 0.00105495 0.000874494)
(0.0869648 0.000938459 0.000997206)
(0.0893813 0.00098986 0.000856945)
(0.0815787 0.000950439 0.000853619)
(0.0862279 0.000824586 0.000987725)
(0.088815 0.000909457 0.000830484)
(0.0808438 0.000819068 0.000809953)
(0.0855466 0.000680467 0.000966053)
(0.0883234 0.000819556 0.000785559)
(0.0802816 0.000625442 0.000703292)
(0.0849492 0.000480673 0.00092085)
(0.0879316 0.000701407 0.000699639)
(0.0799528 0.000251024 0.0004878)
(0.0844734 0.000182333 0.000815279)
(0.0876684 0.000519217 0.000516911)
(0.0799642 -0.000682638 5.01909e-05)
(0.0841641 -0.000315097 0.000648554)
(0.0875579 0.000154966 0.000217175)
(0.0835494 -0.00130764 0.00035194)
(0.0872597 -0.000758398 -0.000336236)
(0.0996493 0.000650288 0.000931411)
(0.0994625 0.000129362 0.000192494)
(0.0997993 0.000375125 0.00074136)
(0.0990855 0.00127887 0.00182765)
(0.0992626 0.000636818 0.0013706)
(0.099841 0.00115037 0.0018142)
(0.0984495 0.00154068 0.00210295)
(0.098913 0.00097329 0.00200351)
(0.0999049 0.00153646 0.00209007)
(0.0977082 0.00154671 0.00198875)
(0.0982953 0.00104981 0.00205055)
(0.0997677 0.00163162 0.00202282)
(0.0969406 0.00147978 0.00177584)
(0.097658 0.00100705 0.00189949)
(0.0995102 0.00160943 0.00189534)
(0.0962098 0.00142668 0.00158177)
(0.0970659 0.000959227 0.00169811)
(0.0992009 0.00154729 0.00175121)
(0.0955257 0.00139177 0.0014346)
(0.0965077 0.000931665 0.00152048)
(0.0988571 0.00147411 0.00162519)
(0.0948784 0.00135134 0.0013279)
(0.0959962 0.000914007 0.0013788)
(0.0985148 0.00139204 0.00151408)
(0.0942475 0.00128966 0.00125645)
(0.0955298 0.000897525 0.00127783)
(0.098184 0.00129802 0.00141815)
(0.0936267 0.0012041 0.00120936)
(0.0950785 0.000861332 0.00121551)
(0.0978418 0.00119185 0.00134061)
(0.0930201 0.00110301 0.00117791)
(0.0946286 0.000797869 0.00118214)
(0.0975114 0.00108283 0.00128571)
(0.0924279 0.000995104 0.00115869)
(0.0941806 0.00072093 0.00116757)
(0.0971965 0.000975876 0.00124802)
(0.0918486 0.000883394 0.00114893)
(0.093731 0.00063811 0.00116416)
(0.0968947 0.000871855 0.00122272)
(0.0912822 0.000764257 0.00114423)
(0.0932734 0.000547512 0.00116885)
(0.0966056 0.0007671 0.00120665)
(0.0907299 0.00062151 0.00113797)
(0.0928047 0.000443495 0.00118059)
(0.096331 0.000653751 0.00119517)
(0.0901971 0.000431345 0.00112271)
(0.092323 0.000305179 0.00119694)
(0.0960735 0.000514674 0.00118144)
(0.0896929 0.000160723 0.00109246)
(0.0918292 0.000111137 0.00121591)
(0.0958359 0.000332403 0.00115763)
(0.08922 -0.000236015 0.00105234)
(0.09132 -0.000168269 0.00123613)
(0.095622 7.63535e-05 0.00111839)
(0.0887267 -0.00082242 0.0010395)
(0.0907705 -0.00055402 0.0012682)
(0.0954193 -0.000284957 0.00107594)
(0.0901194 -0.00114082 0.00134579)
(0.0951999 -0.000789661 0.00109687)
(0.0996725 0.000154009 0.000629474)
(0.0993802 -2.00613e-08 5.89679e-05)
(0.0997132 0.000103901 0.000687946)
(0.0991591 0.000353181 0.00154423)
(0.0992677 -9.52593e-08 0.00120003)
(0.0998377 0.000341552 0.00162228)
(0.0986638 0.000457527 0.00194741)
(0.0989805 -2.21619e-07 0.00188846)
(0.0999631 0.000485291 0.00199137)
(0.0982127 0.000480446 0.00196043)
(0.0984748 -4.01727e-07 0.00200641)
(0.0999921 0.000539298 0.00199655)
(0.0977771 0.000470895 0.00182446)
(0.0979958 -6.95035e-07 0.00191459)
(0.10001 0.000545785 0.00191082)
(0.0973642 0.000456839 0.00164062)
(0.0975713 -1.21965e-06 0.00173462)
(0.100009 0.00053237 0.00180387)
(0.0969971 0.000443447 0.00146735)
(0.0971816 -2.15619e-06 0.00154713)
(0.0999828 0.000509508 0.00168225)
(0.0966782 0.000432118 0.00132839)
(0.096832 -3.69796e-06 0.00138838)
(0.0999418 0.000481688 0.00157158)
(0.0964003 0.000420129 0.00123331)
(0.0965319 -6.2945e-06 0.00126988)
(0.0999031 0.0004554 0.00147977)
(0.0961383 0.000399415 0.00118365)
(0.0962772 -1.05872e-05 0.00119945)
(0.0998728 0.000427488 0.00141595)
(0.0958658 0.000365511 0.00116802)
(0.0960024 -1.76729e-05 0.00117257)
(0.099823 0.000391 0.00137585)
(0.0955714 0.000319229 0.0011703)
(0.0957074 -2.93317e-05 0.00117143)
(0.0997601 0.00034568 0.00134845)
(0.0952495 0.000260604 0.00118212)
(0.0953896 -4.86193e-05 0.00118263)
(0.0996842 0.00029318 0.00133384)
(0.0948942 0.000187878 0.00120415)
(0.0950345 -8.01256e-05 0.00120488)
(0.0995865 0.000231051 0.00133486)
(0.0945009 9.21762e-05 0.00123994)
(0.0946316 -0.000131024 0.00124516)
(0.0994642 0.000154444 0.00135165)
(0.0940603 -4.59959e-05 0.00129267)
(0.0941684 -0.000213602 0.00130796)
(0.0993153 5.27751e-05 0.00138345)
(0.0935637 -0.000252726 0.00136423)
(0.0936286 -0.000353329 0.00139954)
(0.0991348 -9.10004e-05 0.00143468)
(0.092991 -0.000555092 0.00145597)
(0.0929855 -0.000561776 0.00153087)
(0.098912 -0.000297556 0.00150716)
(0.0923445 -0.00103694 0.00157047)
(0.0921837 -0.000894095 0.00170393)
(0.0986251 -0.000584721 0.00160068)
(0.0912849 -0.00152664 0.00186525)
(0.0983399 -0.00101654 0.00172804)
(0.0996725 -0.000154123 0.000629523)
(0.0994625 -0.000129402 0.000192525)
(0.0997132 -0.000103949 0.000687951)
(0.0991591 -0.000353483 0.00154426)
(0.0992625 -0.000636968 0.00137063)
(0.0998376 -0.000341743 0.0016223)
(0.0986636 -0.000458101 0.00194746)
(0.0989128 -0.000973574 0.00200359)
(0.099963 -0.000485669 0.00199136)
(0.0982123 -0.000481455 0.00196057)
(0.0982949 -0.0010503 0.0020507)
(0.0999918 -0.000539971 0.0019966)
(0.0977763 -0.000472682 0.00182475)
(0.097657 -0.00100798 0.00189976)
(0.100009 -0.000546996 0.00191104)
(0.0973626 -0.000460033 0.00164113)
(0.097064 -0.000960974 0.00169859)
(0.100007 -0.000534528 0.00180433)
(0.0969943 -0.000449028 0.00146816)
(0.0965042 -0.000934842 0.00152111)
(0.0999809 -0.000513238 0.00168294)
(0.0966734 -0.000441661 0.00132986)
(0.0959902 -0.000919499 0.00137989)
(0.0999384 -0.000488012 0.00157273)
(0.0963921 -0.00043624 0.00123602)
(0.0955193 -0.000906999 0.00128009)
(0.0998975 -0.000466177 0.00148177)
(0.0961243 -0.000426345 0.00118837)
(0.0950606 -0.000877006 0.00122007)
(0.0998636 -0.000445811 0.00141935)
(0.0958419 -0.000410162 0.00117598)
(0.0945982 -0.000823469 0.00119044)
(0.0998075 -0.000421733 0.00138139)
(0.0955305 -0.000392994 0.00118376)
(0.094129 -0.000762625 0.00118242)
(0.0997342 -0.000396465 0.00135784)
(0.0951798 -0.000382244 0.0012054)
(0.0936438 -0.000706959 0.00118913)
(0.0996402 -0.000375771 0.00135036)
(0.0947767 -0.000387622 0.0012459)
(0.0931263 -0.000661944 0.0012115)
(0.0995116 -0.00036469 0.00136399)
(0.094305 -0.000419115 0.00131319)
(0.0925586 -0.000632769 0.00125722)
(0.0993407 -0.000370828 0.00140251)
(0.0937411 -0.00049541 0.00141484)
(0.0919141 -0.000623418 0.00133522)
(0.0991182 -0.000401058 0.00147048)
(0.0930516 -0.000627387 0.00156619)
(0.0911513 -0.000655967 0.0014613)
(0.0988254 -0.000473506 0.00158087)
(0.0921941 -0.000859507 0.00177883)
(0.090202 -0.000739968 0.00167131)
(0.0984421 -0.000586863 0.00175116)
(0.0911396 -0.00136337 0.00199871)
(0.0889628 -0.000951534 0.00197625)
(0.0979361 -0.000794995 0.00197687)
(0.0875591 -0.00151501 0.00234426)
(0.0974705 -0.00122536 0.00217673)
(0.0996493 -0.000650326 0.000931414)
(0.099473 -0.000349757 0.000307061)
(0.0997993 -0.000375131 0.000741359)
(0.0990854 -0.00127897 0.00182772)
(0.0990504 -0.00157681 0.00172048)
(0.0998409 -0.0011504 0.00181421)
(0.098449 -0.00154086 0.00210312)
(0.0983576 -0.00213111 0.00216896)
(0.0999046 -0.00153654 0.00209018)
(0.0977072 -0.00154712 0.00198903)
(0.097193 -0.00203581 0.00200258)
(0.0997671 -0.00163179 0.00202315)
(0.0969385 -0.00148066 0.00177628)
(0.0959045 -0.00185574 0.00175461)
(0.0995089 -0.00160983 0.00189597)
(0.0962061 -0.00142835 0.00158237)
(0.0946706 -0.00173299 0.00154304)
(0.0991984 -0.00154808 0.00175217)
(0.0955192 -0.00139462 0.00143548)
(0.0934796 -0.00165323 0.00138706)
(0.0988527 -0.00147558 0.00162659)
(0.0948672 -0.00135623 0.00132969)
(0.0923643 -0.00157751 0.00126661)
(0.0985074 -0.00139454 0.00151633)
(0.0942281 -0.00129777 0.00126039)
(0.091325 -0.00148246 0.00117403)
(0.0981714 -0.00130226 0.00142191)
(0.0935937 -0.00121698 0.00121721)
(0.0903306 -0.00137244 0.00110737)
(0.0978205 -0.00119893 0.00134712)
(0.0929642 -0.00112342 0.00119257)
(0.0893916 -0.00126162 0.0010649)
(0.0974757 -0.00109419 0.00129715)
(0.0923337 -0.00102855 0.0011842)
(0.0884965 -0.0011537 0.00104327)
(0.097136 -0.000994027 0.00126835)
(0.0916908 -0.000939675 0.0011919)
(0.0876278 -0.00105092 0.00103892)
(0.0967931 -0.000900801 0.00125826)
(0.0910183 -0.000858367 0.00121937)
(0.0867684 -0.000951938 0.00105118)
(0.0964383 -0.000815444 0.00126871)
(0.090288 -0.000782322 0.00127508)
(0.085899 -0.000850317 0.00108292)
(0.0960577 -0.000735126 0.00130505)
(0.0894565 -0.000713076 0.00137521)
(0.0849919 -0.000735518 0.00114201)
(0.0956287 -0.000657204 0.00137875)
(0.0884498 -0.000659351 0.00155417)
(0.0840016 -0.000603049 0.00124675)
(0.0951174 -0.000584425 0.0015121)
(0.0871516 -0.000639106 0.00184386)
(0.0828398 -0.000436901 0.00143185)
(0.094467 -0.000521318 0.0017492)
(0.0853683 -0.000715242 0.00226738)
(0.0813931 -0.000213528 0.00171948)
(0.0936153 -0.0004807 0.00211217)
(0.0797938 -0.00013401 0.00267044)
(0.0927835 -0.000542707 0.00269512)
(0.0993753 -0.00118211 0.00107258)
(0.0996871 -0.000439216 0.000345489)
(0.0997475 -0.000610965 0.000779893)
(0.0984947 -0.00229601 0.002032)
(0.0978161 -0.0027327 0.00228233)
(0.099597 -0.00201825 0.00200295)
(0.097141 -0.00247637 0.00204879)
(0.0954959 -0.00300157 0.00230324)
(0.0992971 -0.00246142 0.0021026)
(0.0954389 -0.00224679 0.00176766)
(0.0926189 -0.00229911 0.00183901)
(0.0984879 -0.00237427 0.00190294)
(0.0937496 -0.00202015 0.00152284)
(0.0897667 -0.00189144 0.00153602)
(0.0974216 -0.00218054 0.00168919)
(0.0921361 -0.0018637 0.00134522)
(0.0872311 -0.0016557 0.00129529)
(0.0963083 -0.00198413 0.00150897)
(0.0905979 -0.00175282 0.00121615)
(0.0850049 -0.00149066 0.00107829)
(0.0952022 -0.00180069 0.00134382)
(0.089145 -0.00165409 0.00111587)
(0.0830577 -0.00136925 0.000915249)
(0.094144 -0.00164317 0.00120571)
(0.0877933 -0.00154784 0.00103567)
(0.081319 -0.0012746 0.00080499)
(0.0931588 -0.00150214 0.00109904)
(0.0865425 -0.00143608 0.000977053)
(0.0797369 -0.00118723 0.000732129)
(0.0922494 -0.00137033 0.00101936)
(0.0853752 -0.00132661 0.000941807)
(0.0782815 -0.00110009 0.000689381)
(0.091414 -0.00124968 0.000966546)
(0.0842709 -0.00122173 0.000927084)
(0.0769284 -0.00101222 0.000668133)
(0.0906412 -0.00114032 0.000937044)
(0.0832112 -0.001118 0.000929599)
(0.0756557 -0.000924307 0.000660991)
(0.0899173 -0.00103813 0.000926372)
(0.0821791 -0.00100933 0.000948809)
(0.0744457 -0.000833999 0.000664763)
(0.08923 -0.000935932 0.000932416)
(0.0811549 -0.000887666 0.000988747)
(0.0732824 -0.00073134 0.000683037)
(0.0885667 -0.000826788 0.000958756)
(0.0801106 -0.000742294 0.00106092)
(0.0721514 -0.000598872 0.000720492)
(0.0879113 -0.00070141 0.00101336)
(0.0789996 -0.000546174 0.00118485)
(0.0710367 -0.000419579 0.000785935)
(0.0872398 -0.000546459 0.00111246)
(0.0777178 -0.000228548 0.00138165)
(0.0699071 -0.000125638 0.000870201)
(0.0865031 -0.000332529 0.00128303)
(0.0760575 0.000140566 0.00217102)
(0.0687869 0.000435032 0.000961033)
(0.0856446 -6.04169e-07 0.00155266)
(0.0674413 0.00165863 0.00121082)
(0.0849 0.000282743 0.00248071)
(0.0984572 -0.0024764 0.00172993)
(0.0973536 -0.00106247 -0.00148427)
(0.100049 -0.00105637 0.000750987)
(0.0958348 -0.00314795 0.00243276)
(0.0930872 -0.00326891 0.00253352)
(0.0982936 -0.00280913 0.00216156)
(0.0914499 -0.00223015 0.00186949)
(0.084864 -0.00163571 0.00179246)
(0.0963039 -0.00244246 0.00199798)
(0.0875949 -0.00167427 0.00150578)
(0.078628 -0.00107327 0.00122161)
(0.0936667 -0.0019804 0.00172733)
(0.0841471 -0.00143945 0.00127621)
(0.074053 -0.000784863 0.000865533)
(0.0909044 -0.00171914 0.00149842)
(0.0811868 -0.00126435 0.00102973)
(0.0704423 -0.000649765 0.00067004)
(0.088434 -0.00145355 0.00121283)
(0.0786995 -0.00110827 0.000795632)
(0.0674914 -0.000545211 0.000510041)
(0.086304 -0.00118175 0.000910505)
(0.0765534 -0.00098881 0.000628037)
(0.0650503 -0.000466205 0.000390001)
(0.0844791 -0.000980077 0.000693903)
(0.0746453 -0.000899352 0.000523071)
(0.062965 -0.000410696 0.000312039)
(0.0828774 -0.000840146 0.000554095)
(0.0729133 -0.000820895 0.000461614)
(0.0611299 -0.00036504 0.000261888)
(0.0814432 -0.000735783 0.000464783)
(0.0713197 -0.000741944 0.000428632)
(0.0594853 -0.000321423 0.000231753)
(0.0801434 -0.000646851 0.000408449)
(0.0698401 -0.000661984 0.00041259)
(0.0579968 -0.000277409 0.000215646)
(0.0789505 -0.000565368 0.000373614)
(0.0684536 -0.000582537 0.000406662)
(0.0566364 -0.000233372 0.000208454)
(0.077844 -0.000492859 0.000355807)
(0.0671425 -0.000493313 0.000410047)
(0.0553805 -0.00018485 0.000207308)
(0.0768143 -0.000424252 0.000351924)
(0.0658939 -0.000370084 0.000424632)
(0.0542177 -0.000120778 0.000213791)
(0.0758536 -0.000340977 0.000364405)
(0.0647111 -0.000195817 0.000455447)
(0.0531504 -3.62199e-05 0.00023124)
(0.0749571 -0.000220039 0.00039937)
(0.0635955 6.81697e-05 0.000492722)
(0.0521954 9.50033e-05 0.000276803)
(0.0741254 -4.97987e-05 0.000462609)
(0.0625936 0.000566477 0.000498859)
(0.0514162 0.000343366 0.0003214)
(0.0733572 0.000236648 0.000529052)
(0.0619169 0.00197123 0.000133434)
(0.0511277 0.000868262 0.00028861)
(0.0726653 0.00083914 0.000485935)
(0.0500468 0.00364665 -0.00125749)
(0.0718806 0.0024824 -0.000207964)
(0.0993441 0.00341904 -0.00341899)
(0.0973536 0.00148428 0.00106248)
(0.0834792 -0.00197581 0.00197595)
(0.0930872 -0.00253343 0.00326906)
(0.0745172 -0.00195859 0.00195888)
(0.0848641 -0.00179228 0.00163596)
(0.0685478 -0.0011588 0.00115938)
(0.0786282 -0.00122122 0.00107373)
(0.0642361 -0.000696526 0.000697501)
(0.0740532 -0.000864896 0.000785767)
(0.0607567 -0.000493906 0.00049582)
(0.0704427 -0.000668964 0.000651207)
(0.0579374 -0.000373112 0.000376673)
(0.0674921 -0.000507887 0.000548091)
(0.055614 -0.000285138 0.000291069)
(0.0650516 -0.000386414 0.000471193)
(0.0536247 -0.000222358 0.000232075)
(0.0629674 -0.000306197 0.00041911)
(0.0518797 -0.000175374 0.000191617)
(0.061134 -0.000252303 0.000379206)
(0.0503302 -0.000138069 0.00016518)
(0.0594926 -0.000214729 0.00034541)
(0.0489438 -0.000105518 0.000149146)
(0.0580102 -0.000187066 0.000317286)
(0.0476905 -7.31566e-05 0.000141337)
(0.05666 -0.00016581 0.000298329)
(0.0465483 -3.69636e-05 0.000142414)
(0.0554203 -0.000148311 0.000291182)
(0.0455207 -6.37069e-07 0.000155717)
(0.0542839 -0.000126874 0.000295439)
(0.0446175 6.0248e-05 0.000189224)
(0.0532638 -9.72923e-05 0.000312642)
(0.0438806 0.000189457 0.000245935)
(0.0524013 -2.85313e-05 0.000357858)
(0.0435281 0.000416028 0.000301525)
(0.0518198 0.000123505 0.000438872)
(0.0441053 0.00177906 -0.000506613)
(0.0519805 0.000356352 0.000562392)
(0.0505458 0.00186105 -0.000372364)
(0.0984572 0.00172993 0.0024764)
(0.100049 0.000750987 0.00105637)
(0.0996871 0.000345489 0.000439217)
(0.0958348 0.00243276 0.00314795)
(0.0982936 0.00216156 0.00280913)
(0.0978161 0.00228233 0.00273271)
(0.0914499 0.00186949 0.00223016)
(0.0963039 0.00199798 0.00244247)
(0.0954959 0.00230324 0.00300157)
(0.0875949 0.00150578 0.00167428)
(0.0936667 0.00172732 0.00198041)
(0.0926189 0.00183901 0.00229912)
(0.0841471 0.00127621 0.00143946)
(0.0909044 0.00149841 0.00171914)
(0.0897667 0.00153601 0.00189146)
(0.0811868 0.00102972 0.00126436)
(0.0884339 0.00121282 0.00145356)
(0.0872311 0.00129529 0.00165571)
(0.0786994 0.000795629 0.00110829)
(0.086304 0.000910495 0.00118176)
(0.0850049 0.00107828 0.00149068)
(0.0765534 0.000628034 0.000988829)
(0.084479 0.000693891 0.000980087)
(0.0830577 0.000915247 0.00136927)
(0.0746453 0.000523069 0.000899372)
(0.0828774 0.000554081 0.000840158)
(0.081319 0.00080499 0.00127462)
(0.0729133 0.000461615 0.000820918)
(0.0814431 0.000464766 0.000735794)
(0.0797369 0.000732131 0.00118726)
(0.0713197 0.000428638 0.000741971)
(0.0801433 0.000408427 0.000646862)
(0.0782815 0.00068939 0.00110012)
(0.0698401 0.000412601 0.000662013)
(0.0789505 0.00037358 0.000565373)
(0.0769283 0.000668151 0.00101227)
(0.0684535 0.000406681 0.000582548)
(0.077844 0.000355755 0.000492851)
(0.0756557 0.000661024 0.000924369)
(0.0671424 0.000410067 0.000493299)
(0.0768143 0.000351908 0.00042425)
(0.0744456 0.000664789 0.000834011)
(0.0658939 0.000424651 0.000370074)
(0.0758536 0.000364407 0.000341011)
(0.0732823 0.000683043 0.000731316)
(0.064711 0.000455483 0.000195837)
(0.0749571 0.000399344 0.000220066)
(0.0721514 0.000720513 0.000598878)
(0.0635954 0.000492788 -6.81329e-05)
(0.0741254 0.000462606 4.98569e-05)
(0.0710366 0.000785983 0.000419622)
(0.0625934 0.000498957 -0.000566474)
(0.0733573 0.000529109 -0.000236552)
(0.069907 0.000870277 0.000125686)
(0.0619165 0.00013352 -0.00197137)
(0.0726653 0.000486104 -0.000839004)
(0.0687865 0.000961114 -0.000435045)
(0.0718807 -0.000207647 -0.00248235)
(0.0674409 0.00121076 -0.00165896)
(0.10008 0.00135182 0.00135173)
(0.100186 0.000798785 0.000804932)
(0.100186 0.000804973 0.000798743)
(0.100264 0.00221743 0.00221717)
(0.10019 0.00231194 0.00207139)
(0.10019 0.00207157 0.00231178)
(0.0993828 0.00243602 0.0024355)
(0.100306 0.00263388 0.00245288)
(0.100306 0.00245331 0.00263356)
(0.0979839 0.0023107 0.00230985)
(0.099805 0.00256073 0.00245563)
(0.0998048 0.00245636 0.00256014)
(0.0964947 0.00200694 0.0020055)
(0.0988627 0.00236499 0.00228046)
(0.0988623 0.00228158 0.00236404)
(0.0950722 0.00159823 0.00159581)
(0.0978408 0.00205004 0.00196732)
(0.0978401 0.00196905 0.00204836)
(0.0937746 0.00122838 0.00122436)
(0.0968613 0.00169286 0.00160343)
(0.0968601 0.0016062 0.00169013)
(0.0926166 0.000965637 0.00095878)
(0.0959594 0.00140724 0.00131947)
(0.0959572 0.00132422 0.00140276)
(0.0915922 0.000783954 0.00077215)
(0.095148 0.00119611 0.0011152)
(0.0951442 0.00112332 0.00118834)
(0.0906854 0.000656297 0.000635401)
(0.094426 0.00103944 0.000966128)
(0.0944194 0.00097995 0.00102606)
(0.0898758 0.00056515 0.000529684)
(0.0937888 0.000921521 0.000853952)
(0.0937775 0.000878179 0.000898642)
(0.0891433 0.000501987 0.000446223)
(0.0932226 0.000832329 0.000767893)
(0.0932035 0.000807879 0.00079481)
(0.0884778 0.000461445 0.000376833)
(0.092716 0.000765725 0.000699635)
(0.0926853 0.000762675 0.000706248)
(0.0878785 0.000438603 0.000305593)
(0.0922687 0.000715799 0.000638698)
(0.0922206 0.000736836 0.000621846)
(0.0873465 0.00043307 0.000212719)
(0.091882 0.000678304 0.000570756)
(0.0918065 0.000729974 0.000527183)
(0.0868824 0.000445621 7.78288e-05)
(0.0915562 0.000649812 0.000478743)
(0.0914387 0.000746022 0.000406711)
(0.086494 0.000464609 -0.00013995)
(0.0912917 0.000623401 0.000339324)
(0.0911132 0.000787988 0.000240896)
(0.0861296 0.000419065 -0.000544026)
(0.0910775 0.000579661 0.000104993)
(0.0908169 0.000851703 -5.71006e-06)
(0.0855603 6.62081e-05 -0.00130457)
(0.090821 0.000458643 -0.000304562)
(0.0904788 0.000880651 -0.000382514)
(0.09075 9.0588e-05 -0.000958037)
(0.0904177 0.000690825 -0.000873011)
(0.100171 0.00136875 0.00141635)
(0.100118 0.000577435 0.000811287)
(0.100102 0.0006998 0.00070066)
(0.100759 0.00219505 0.00214887)
(0.100478 0.00158293 0.00185869)
(0.100477 0.00182266 0.00186454)
(0.100996 0.00247722 0.00238758)
(0.101004 0.0020589 0.00224233)
(0.101024 0.00234701 0.00238272)
(0.100838 0.00247672 0.00238855)
(0.101292 0.00220374 0.00235168)
(0.101338 0.00250638 0.00254333)
(0.100458 0.00231237 0.00222398)
(0.101309 0.00216777 0.00232141)
(0.101409 0.00245122 0.00247172)
(0.0999679 0.00205787 0.00196695)
(0.101157 0.00201147 0.00217773)
(0.101301 0.00226567 0.00226959)
(0.099444 0.00179241 0.00169788)
(0.100927 0.00179465 0.00196692)
(0.101098 0.00201072 0.00199728)
(0.0989347 0.00156615 0.00148013)
(0.100666 0.0015848 0.00176328)
(0.100854 0.00177263 0.00175553)
(0.0984668 0.00138258 0.00131578)
(0.100411 0.00139727 0.00158654)
(0.100607 0.0015729 0.00156022)
(0.0980518 0.00123231 0.00119169)
(0.100177 0.00123205 0.00143954)
(0.100379 0.00140835 0.00140395)
(0.0976907 0.0011094 0.00109874)
(0.0999731 0.00109276 0.00133019)
(0.100184 0.00127358 0.00127923)
(0.0973814 0.00100911 0.0010273)
(0.0998024 0.000976294 0.00125015)
(0.100024 0.00116458 0.00117913)
(0.0971229 0.000926394 0.000967078)
(0.0996638 0.000877102 0.00118884)
(0.0999004 0.00107733 0.0010952)
(0.0969155 0.000855775 0.000909669)
(0.0995578 0.000788312 0.00113809)
(0.0998142 0.00100785 0.00101878)
(0.0967615 0.000789734 0.000844182)
(0.0994869 0.000701451 0.0010911)
(0.0997667 0.000951952 0.000941841)
(0.0966619 0.000717107 0.000750876)
(0.0994538 0.000608029 0.0010369)
(0.0997587 0.00090416 0.000852172)
(0.0966152 0.000622702 0.000600543)
(0.0994572 0.000495339 0.000958502)
(0.0997887 0.000857201 0.000732669)
(0.09659 0.000479539 0.000368102)
(0.0994902 0.000346863 0.000835398)
(0.0998489 0.000800104 0.000562117)
(0.0964995 0.000217237 5.9698e-05)
(0.0995151 0.00013572 0.000662587)
(0.0999061 0.000705705 0.000334842)
(0.0996634 -0.000195308 0.000486389)
(0.100121 0.000515459 0.00012233)
(0.100242 0.000820201 0.0012561)
(0.10009 0.00029433 0.000735342)
(0.100071 0.000415695 0.000602752)
(0.100828 0.00139063 0.00193925)
(0.100491 0.000791973 0.00168398)
(0.100493 0.00112448 0.00158691)
(0.101393 0.00166356 0.00218197)
(0.101086 0.0010777 0.0020833)
(0.101129 0.00154094 0.00209392)
(0.101816 0.00176123 0.00226057)
(0.101664 0.00120426 0.00217873)
(0.101768 0.00173286 0.0022938)
(0.102081 0.00175546 0.00226105)
(0.102121 0.00123957 0.0022214)
(0.102291 0.00179012 0.00236649)
(0.102216 0.00166824 0.00217531)
(0.102452 0.0012016 0.00220919)
(0.102712 0.00174419 0.00232075)
(0.102267 0.00153363 0.00203943)
(0.102681 0.00111784 0.00212496)
(0.103037 0.00162666 0.00220028)
(0.102279 0.00138175 0.0018823)
(0.102843 0.00101638 0.00200341)
(0.103288 0.0014801 0.00204678)
(0.102278 0.00122913 0.00172598)
(0.102969 0.000914885 0.00186713)
(0.103494 0.00132853 0.00188611)
(0.102277 0.00108938 0.001596)
(0.103074 0.000818548 0.00173939)
(0.103673 0.00118597 0.00173947)
(0.102281 0.000968264 0.00150159)
(0.10317 0.000729861 0.00163585)
(0.103837 0.00106154 0.00162232)
(0.102294 0.000861676 0.00143345)
(0.103267 0.000647505 0.00155435)
(0.103996 0.000954212 0.00153012)
(0.10232 0.000762724 0.00138331)
(0.103367 0.000569506 0.00149746)
(0.104157 0.000859586 0.00145704)
(0.102362 0.000662715 0.00134493)
(0.103467 0.00049026 0.00146309)
(0.104323 0.000771955 0.00139793)
(0.102421 0.000553038 0.00131178)
(0.10357 0.000400869 0.00144316)
(0.104499 0.00068483 0.00134724)
(0.1025 0.000423712 0.00127615)
(0.103679 0.00029446 0.00143158)
(0.104689 0.00059298 0.00129862)
(0.102595 0.000260944 0.00123075)
(0.10379 0.000159649 0.00142643)
(0.104891 0.000487646 0.00124605)
(0.102697 5.02364e-05 0.0011765)
(0.1039 -1.57448e-05 0.00142647)
(0.105106 0.000358516 0.00118583)
(0.102787 -0.000211221 0.0011514)
(0.104002 -0.0002433 0.00143621)
(0.105328 0.000193954 0.00112436)
(0.104202 -0.00051253 0.00149555)
(0.105642 -4.04686e-06 0.00111629)
(0.100243 0.000267382 0.00116239)
(0.100087 -3.52117e-08 0.000707017)
(0.100064 0.000135802 0.00053732)
(0.100782 0.000465682 0.00182621)
(0.100477 -1.01832e-07 0.00161778)
(0.100463 0.000370867 0.0014241)
(0.101401 0.000575414 0.00207611)
(0.101066 -1.77851e-07 0.00203464)
(0.101089 0.000525133 0.00193352)
(0.101988 0.000622672 0.00213381)
(0.101694 -3.29519e-07 0.00211762)
(0.101797 0.000605805 0.00212849)
(0.102507 0.000630654 0.00216481)
(0.102269 -6.14484e-07 0.00215021)
(0.102489 0.000639136 0.00221078)
(0.102935 0.000609503 0.00215672)
(0.102742 -1.0778e-06 0.00217991)
(0.10312 0.000633836 0.00224129)
(0.103278 0.00056988 0.00208899)
(0.103124 -1.78184e-06 0.00213438)
(0.103687 0.000600329 0.00219639)
(0.103557 0.000522929 0.00198965)
(0.103428 -2.92727e-06 0.00204492)
(0.104186 0.000553836 0.00210551)
(0.103791 0.000476168 0.00188263)
(0.10368 -4.9292e-06 0.00193641)