/*--------------------------------*- C++ -*----------------------------------*\
| =========                 |                                                 |
| \\      /  F ield         | OpenFOAM: The Open Source CFD Toolbox           |
|  \\    /   O peration     | Version:  2212                                  |
|   \\  /    A nd           | Website:  www.openfoam.com                      |
|    \\/     M anipulation  |                                                 |
\*---------------------------------------------------------------------------*/
FoamFile
{
    version     2.0;
    format      ascii;
    arch        "LSB;label=32;scalar=64";
    class       surfaceScalarField;
    location    "2.55";
    object      phi;
}
// * * * * * * * * * * * * * * * * * * * * * * * * * * * * * * * * * * * * * //

dimensions      [0 3 -1 0 0 0 0];

oriented        oriented;

internalField   nonuniform List<scalar> 
1755
(
5.78201e-08
-3.41579e-08
3.47277e-08
5.72687e-08
-3.41726e-08
3.4724e-08
5.6735e-08
-3.41903e-08
3.4724e-08
5.62086e-08
-3.42094e-08
3.47358e-08
-3.42259e-08
3.47537e-08
1.8813e-07
-6.43791e-08
3.19174e-08
1.8646e-07
-6.4395e-08
3.1893e-08
1.84823e-07
-6.44319e-08
3.18787e-08
1.83216e-07
-6.44796e-08
3.18768e-08
-6.45519e-08
3.19061e-08
3.6878e-07
-8.91428e-08
2.80453e-08
3.65524e-07
-8.91609e-08
2.80216e-08
3.62334e-07
-8.92359e-08
2.79938e-08
3.59229e-07
-8.9341e-08
2.79659e-08
-8.94476e-08
2.79247e-08
5.25702e-07
-1.07089e-07
2.28912e-08
5.20872e-07
-1.07124e-07
2.2794e-08
5.16254e-07
-1.07194e-07
2.25756e-08
5.11841e-07
-1.07288e-07
2.23598e-08
5.07562e-07
-1.07379e-07
2.22103e-08
-1.07444e-07
2.20536e-08
6.31826e-07
-1.16784e-07
1.56131e-08
6.26056e-07
-1.16868e-07
1.55132e-08
6.20453e-07
-1.1698e-07
1.53891e-08
6.14998e-07
-1.17096e-07
1.52636e-08
6.09663e-07
-1.17193e-07
1.51487e-08
-1.17248e-07
1.50123e-08
6.61276e-07
-1.17561e-07
6.34221e-09
6.55832e-07
-1.17648e-07
6.22464e-09
6.50483e-07
-1.17738e-07
6.10636e-09
6.45192e-07
-1.17799e-07
5.99449e-09
6.39951e-07
-1.17832e-07
5.88015e-09
6.34808e-07
-1.17846e-07
5.74164e-09
-1.17852e-07
6.09179e-07
-1.08951e-07
-3.98122e-09
6.04639e-07
-1.08981e-07
-4.12674e-09
6.00162e-07
-1.09015e-07
-4.24509e-09
5.95722e-07
-1.09026e-07
-4.33341e-09
5.91315e-07
-1.09012e-07
-4.41379e-09
5.87048e-07
-1.08966e-07
-4.61218e-09
-1.08906e-07
4.92374e-07
-9.12587e-08
-1.42397e-08
4.88965e-07
-9.12373e-08
-1.43345e-08
4.8559e-07
-9.12316e-08
-1.44086e-08
4.82234e-07
-9.12354e-08
-1.4435e-08
4.7889e-07
-9.12301e-08
-1.44377e-08
4.75595e-07
-9.11956e-08
-1.44754e-08
-9.11243e-08
-1.45238e-08
3.37089e-07
-6.61059e-08
-2.25555e-08
3.34539e-07
-6.60867e-08
-2.26007e-08
3.32029e-07
-6.60722e-08
-2.26486e-08
3.2953e-07
-6.60787e-08
-2.26582e-08
3.27036e-07
-6.60895e-08
-2.26469e-08
3.24618e-07
-6.60667e-08
-2.2711e-08
-2.27881e-08
1.76642e-07
-3.47221e-08
-2.98992e-08
1.75199e-07
-3.47161e-08
-2.99277e-08
1.73793e-07
-3.47143e-08
-2.99521e-08
1.72385e-07
-3.47289e-08
-2.99409e-08
1.70953e-07
-3.47506e-08
-2.99077e-08
-3.47554e-08
-2.99345e-08
5.78802e-08
-3.41512e-08
5.73275e-08
-3.41634e-08
5.67931e-08
-3.41799e-08
5.62616e-08
-3.41974e-08
5.57262e-08
-3.42153e-08
-3.42448e-08
1.7647e-07
-2.99021e-08
6.61097e-08
1.75029e-07
-2.99317e-08
6.6096e-08
1.73622e-07
-2.99545e-08
6.60856e-08
1.72225e-07
-2.99597e-08
6.60924e-08
1.70834e-07
-2.99279e-08
6.60733e-08
6.60346e-08
4.8172e-07
-5.56612e-08
6.05296e-08
4.78883e-07
-5.56927e-08
6.04901e-08
4.76061e-07
-5.57085e-08
6.0455e-08
4.73253e-07
-5.57147e-08
6.04394e-08
-5.56659e-08
6.04675e-08
7.98581e-07
-7.74455e-08
5.2235e-08
7.96123e-07
-7.74277e-08
5.22147e-08
7.93629e-07
-7.74171e-08
5.21965e-08
7.91056e-07
-7.73866e-08
5.22104e-08
7.88392e-07
-7.73297e-08
5.22532e-08
-7.73345e-08
5.22164e-08
1.02557e-06
-9.31855e-08
4.02864e-08
1.02383e-06
-9.31708e-08
4.0282e-08
1.02195e-06
-9.3182e-08
4.02176e-08
1.01992e-06
-9.31879e-08
4.01939e-08
1.01777e-06
-9.31708e-08
4.02014e-08
-9.31906e-08
4.00958e-08
1.1596e-06
-1.01733e-07
2.54728e-08
1.15821e-06
-1.01737e-07
2.5463e-08
1.15674e-06
-1.01752e-07
2.5426e-08
1.1552e-06
-1.01771e-07
2.53892e-08
1.15361e-06
-1.01789e-07
2.53567e-08
-1.01827e-07
2.52115e-08
1.19635e-06
-1.02802e-07
8.3767e-09
1.19532e-06
-1.0281e-07
8.32571e-09
1.19425e-06
-1.02837e-07
8.26264e-09
1.19317e-06
-1.02889e-07
8.19708e-09
1.19208e-06
-1.02951e-07
8.12771e-09
-1.02984e-07
7.96677e-09
1.13985e-06
-9.63434e-08
-9.73744e-09
1.13912e-06
-9.63701e-08
-9.83564e-09
1.13835e-06
-9.63993e-08
-9.91867e-09
1.13755e-06
-9.64665e-08
-9.95047e-09
1.13672e-06
-9.65587e-08
-9.97438e-09
-9.66349e-08
-1.01055e-08
9.98811e-07
-8.24035e-08
-2.71013e-08
9.97671e-07
-8.239e-08
-2.7175e-08
9.9647e-07
-8.23691e-08
-2.72376e-08
9.95184e-07
-8.24033e-08
-2.72118e-08
9.93812e-07
-8.24657e-08
-2.71589e-08
9.92372e-07
-8.24558e-08
-2.72146e-08
-8.24665e-08
7.75112e-07
-6.05092e-08
-4.21586e-08
7.72777e-07
-6.04643e-08
-4.21913e-08
7.70418e-07
-6.04235e-08
-4.2236e-08
7.68012e-07
-6.04296e-08
-4.2226e-08
7.65559e-07
-6.04655e-08
-4.21941e-08
7.63082e-07
-6.0411e-08
-4.22784e-08
-6.03875e-08
4.82018e-07
-3.19045e-08
-5.56434e-08
4.79179e-07
-3.18806e-08
-5.56716e-08
4.76357e-07
-3.18634e-08
-5.56901e-08
4.73535e-07
-3.18751e-08
-5.56736e-08
4.70705e-07
-3.19032e-08
-5.56402e-08
4.67927e-07
-3.18753e-08
-5.56921e-08
-5.57303e-08
1.88313e-07
-6.43594e-08
1.8664e-07
-6.43709e-08
1.85003e-07
-6.44056e-08
1.83388e-07
-6.44576e-08
1.81784e-07
-6.45146e-08
-6.45866e-08
3.36805e-07
-2.25612e-08
9.12505e-08
3.34259e-07
-2.26016e-08
9.12435e-08
3.31747e-07
-2.26493e-08
9.12473e-08
3.29257e-07
-2.26663e-08
9.12487e-08
3.26797e-07
-2.26932e-08
9.12267e-08
3.24419e-07
-2.2754e-08
9.11661e-08
9.11147e-08
7.7498e-07
-4.21628e-08
8.24206e-08
7.72652e-07
-4.22021e-08
8.2419e-08
7.70311e-07
-4.22532e-08
8.24e-08
7.6792e-07
-4.22573e-08
8.24215e-08
7.65476e-07
-4.22437e-08
8.24612e-08
-4.2283e-08
8.24861e-08
1.13114e-06
-5.98733e-08
6.95382e-08
1.13145e-06
-5.9865e-08
6.95639e-08
1.13166e-06
-5.98569e-08
6.95949e-08
1.13174e-06
-5.97958e-08
6.96626e-08
1.13174e-06
-5.97241e-08
6.97402e-08
-5.97511e-08
6.97313e-08
1.37255e-06
-7.34133e-08
5.18463e-08
1.37446e-06
-7.33806e-08
5.18866e-08
1.37628e-06
-7.33611e-08
5.19039e-08
1.37802e-06
-7.33071e-08
5.19642e-08
1.3797e-06
-7.32398e-08
5.20354e-08
-7.32412e-08
5.19906e-08
1.51301e-06
-8.14789e-08
3.07487e-08
1.51577e-06
-8.14517e-08
3.07827e-08
1.51845e-06
-8.14291e-08
3.08103e-08
1.5211e-06
-8.14072e-08
3.08405e-08
1.52374e-06
-8.13898e-08
3.08674e-08
-8.13967e-08
3.07993e-08
1.55496e-06
-8.35663e-08
7.32172e-09
1.55809e-06
-8.35718e-08
7.31545e-09
1.5612e-06
-8.35884e-08
7.31596e-09
1.5643e-06
-8.36328e-08
7.32152e-09
1.56742e-06
-8.36898e-08
7.31018e-09
-8.37131e-08
7.20055e-09
1.5029e-06
-7.96943e-08
-1.67577e-08
1.50601e-06
-7.97326e-08
-1.67889e-08
1.50909e-06
-7.97808e-08
-1.68059e-08
1.51217e-06
-7.98727e-08
-1.67921e-08
1.51528e-06
-7.99758e-08
-1.68011e-08
-8.00072e-08
1.36221e-06
-6.94899e-08
-3.96812e-08
1.36453e-06
-6.95223e-08
-3.9706e-08
1.36678e-06
-6.95633e-08
-3.97106e-08
1.36899e-06
-6.96433e-08
-3.9646e-08
1.37115e-06
-6.97245e-08
-3.95723e-08
-6.96927e-08
-3.96315e-08
1.13099e-06
-5.22006e-08
-5.98673e-08
1.13131e-06
-5.21841e-08
-5.98495e-08
1.13151e-06
-5.21696e-08
-5.98362e-08
1.13161e-06
-5.21988e-08
-5.97655e-08
1.13162e-06
-5.22334e-08
-5.96985e-08
-5.21721e-08
-5.97404e-08
7.98702e-07
-2.80275e-08
-7.7412e-08
7.96241e-07
-2.80042e-08
-7.73903e-08
7.9374e-07
-2.79773e-08
-7.73812e-08
7.91163e-07
-2.79559e-08
-7.73398e-08
7.88511e-07
-2.79241e-08
-7.72972e-08
7.85806e-07
-2.7831e-08
-7.73283e-08
3.69075e-07
-8.91054e-08
3.6582e-07
-8.91206e-08
3.62633e-07
-8.9196e-08
3.59525e-07
-8.93052e-08
3.56492e-07
-8.94062e-08
-8.9504e-08
4.92032e-07
-1.42628e-08
1.08962e-07
4.88627e-07
-1.43385e-08
1.08987e-07
4.85263e-07
-1.44091e-08
1.09021e-07
4.81927e-07
-1.44446e-08
1.09029e-07
4.78612e-07
-1.44714e-08
1.09013e-07
4.75334e-07
-1.45226e-08
1.08967e-07
-1.45627e-08
9.9894e-07
-2.71349e-08
9.63455e-08
9.9782e-07
-2.71831e-08
9.63842e-08
9.9663e-07
-2.72405e-08
9.64214e-08
9.95345e-07
-2.72291e-08
9.64903e-08
9.93975e-07
-2.72067e-08
9.65665e-08
9.92546e-07
-2.72604e-08
9.66529e-08
1.36244e-06
-3.96873e-08
7.9738e-08
1.36474e-06
-3.97012e-08
7.9782e-08
1.36698e-06
-3.97095e-08
7.98238e-08
1.36919e-06
-3.96706e-08
7.98971e-08
1.37136e-06
-3.96162e-08
7.99789e-08
-3.96761e-08
1.60741e-06
-4.99772e-08
5.7974e-08
1.61155e-06
-4.99635e-08
5.80141e-08
1.61564e-06
-4.99498e-08
5.80539e-08
1.61972e-06
-4.99077e-08
5.81153e-08
1.62382e-06
-4.98606e-08
5.81798e-08
-4.99003e-08
1.75145e-06
-5.67262e-08
3.25132e-08
1.75644e-06
-5.67092e-08
3.25399e-08
1.76142e-06
-5.66962e-08
3.25738e-08
1.76641e-06
-5.668e-08
3.26217e-08
1.77142e-06
-5.6663e-08
3.26625e-08
-5.66731e-08
1.79752e-06
-5.94356e-08
4.77014e-09
1.80281e-06
-5.94474e-08
4.7711e-09
1.80811e-06
-5.94638e-08
4.7831e-09
1.81343e-06
-5.94903e-08
4.80889e-09
1.81877e-06
-5.95e-08
4.80573e-09
1.74835e-06
-5.7933e-08
-2.334e-08
1.75343e-06
-5.79746e-08
-2.33476e-08
1.75852e-06
-5.80175e-08
-2.33428e-08
1.76365e-06
-5.80888e-08
-2.33205e-08
-5.81433e-08
-2.33411e-08
1.60725e-06
-5.18138e-08
-4.99694e-08
1.61138e-06
-5.1862e-08
-4.99538e-08
1.61546e-06
-5.18758e-08
-4.99354e-08
1.61955e-06
-5.19364e-08
-4.98852e-08
1.62367e-06
-5.19881e-08
-4.98422e-08
-5.19188e-08
1.37238e-06
-4.02654e-08
-7.34048e-08
1.3743e-06
-4.02664e-08
-7.33604e-08
1.37612e-06
-4.01982e-08
-7.33365e-08
1.37787e-06
-4.01755e-08
-7.3276e-08
1.37957e-06
-4.01619e-08
-7.32251e-08
-4.00299e-08
1.02562e-06
-2.2875e-08
-9.31467e-08
1.02388e-06
-2.2788e-08
-9.31289e-08
1.02202e-06
-2.2574e-08
-9.31395e-08
1.01999e-06
-2.23542e-08
-9.31375e-08
1.01786e-06
-2.21931e-08
-9.31303e-08
-2.20174e-08
5.26138e-07
-1.07056e-07
5.21322e-07
-1.07092e-07
5.16709e-07
-1.07158e-07
5.12293e-07
-1.07243e-07
5.0802e-07
-1.07327e-07
-1.07378e-07
6.08906e-07
-3.995e-09
1.17586e-07
6.04369e-07
-4.13802e-09
1.17661e-07
5.99904e-07
-4.255e-09
1.1774e-07
5.95489e-07
-4.35571e-09
1.17801e-07
5.91117e-07
-4.45852e-09
1.17843e-07
-4.65399e-09
1.17871e-07
1.14004e-06
-9.78064e-09
1.02815e-07
1.13932e-06
-9.85822e-09
1.02828e-07
1.13855e-06
-9.92606e-09
1.02857e-07
1.13775e-06
-9.96576e-09
1.02897e-07
1.13695e-06
-1.0038e-08
1.02951e-07
1.03003e-07
1.50307e-06
-1.67817e-08
8.36017e-08
1.50618e-06
-1.68026e-08
8.36143e-08
1.50926e-06
-1.68162e-08
8.36296e-08
1.51235e-06
-1.68122e-08
8.36598e-08
-1.68691e-08
1.74842e-06
-2.33559e-08
5.94783e-08
1.75351e-06
-2.33639e-08
5.94889e-08
1.7586e-06
-2.33583e-08
5.95033e-08
1.76372e-06
-2.33483e-08
5.95304e-08
-2.33928e-08
1.89417e-06
-2.844e-08
3.16251e-08
1.90015e-06
-2.8443e-08
3.16321e-08
1.90617e-06
-2.84417e-08
3.16454e-08
1.91221e-06
-2.84408e-08
3.16715e-08
-2.84584e-08
1.94236e-06
-3.15911e-08
1.6668e-09
1.94862e-06
-3.16005e-08
1.66635e-09
1.9549e-06
-3.1614e-08
1.67043e-09
1.96122e-06
-3.16299e-08
1.6794e-09
-3.16272e-08
1.67006e-09
1.89412e-06
-3.2487e-08
-2.842e-08
1.9001e-06
-3.25133e-08
-2.84228e-08
1.90612e-06
-3.25477e-08
-2.84224e-08
1.91218e-06
-3.25913e-08
-2.84178e-08
-3.25795e-08
-2.84293e-08
1.75129e-06
-3.07275e-08
-5.67094e-08
1.75627e-06
-3.07564e-08
-5.6692e-08
1.76124e-06
-3.07761e-08
-5.66775e-08
1.76624e-06
-3.0817e-08
-5.66585e-08
-3.07866e-08
-5.66522e-08
1.51285e-06
-2.54659e-08
-8.14554e-08
1.51559e-06
-2.54294e-08
-8.14292e-08
1.51826e-06
-2.53734e-08
-8.1409e-08
1.5209e-06
-2.53517e-08
-8.13819e-08
-2.52741e-08
-8.13671e-08
1.15962e-06
-1.55857e-08
-1.01698e-07
1.15824e-06
-1.5478e-08
-1.01701e-07
1.1568e-06
-1.53533e-08
-1.01715e-07
1.15527e-06
-1.52393e-08
-1.01727e-07
-1.51077e-08
-1.01741e-07
6.3238e-07
-1.16767e-07
6.26641e-07
-1.1683e-07
6.2105e-07
-1.1692e-07
6.15592e-07
-1.17025e-07
6.10273e-07
-1.17115e-07
6.61206e-07
6.32779e-09
1.16814e-07
6.55771e-07
6.20645e-09
1.1689e-07
6.50428e-07
6.08178e-09
1.17001e-07
6.45163e-07
5.94152e-09
1.17125e-07
6.39989e-07
5.81504e-09
1.17202e-07
5.71054e-09
1.19647e-06
8.3466e-09
1.01758e-07
1.19544e-06
8.29526e-09
1.01772e-07
1.19436e-06
8.23692e-09
1.01787e-07
1.19326e-06
8.12152e-09
1.0181e-07
1.19217e-06
1.01849e-07
1.55504e-06
7.28892e-09
8.15162e-08
1.55817e-06
7.28763e-09
8.14978e-08
1.56126e-06
7.29522e-09
8.14752e-08
7.23528e-09
8.14477e-08
1.79751e-06
4.74283e-09
5.67661e-08
1.80279e-06
4.74443e-09
5.67444e-08
1.80811e-06
4.75735e-09
5.67225e-08
4.71736e-09
5.66959e-08
1.94233e-06
1.63618e-09
2.84748e-08
1.94861e-06
1.63641e-09
2.84656e-08
1.95492e-06
1.63867e-09
2.8453e-08
1.61444e-09
2.84355e-08
1.99079e-06
-1.64133e-09
-1.60968e-09
1.99735e-06
-1.64142e-09
-1.6154e-09
2.00393e-06
-1.64695e-09
-1.6271e-09
2.01052e-06
-1.65839e-09
-1.64024e-09
-1.65138e-09
-1.62734e-09
1.9423e-06
-4.74562e-09
-3.15663e-08
1.94856e-06
-4.74667e-09
-3.15771e-08
1.95485e-06
-4.76154e-09
-3.15934e-08
1.96117e-06
-4.78125e-09
-3.16123e-08
-4.73664e-09
-3.16103e-08
1.79739e-06
-7.29215e-09
-5.94123e-08
1.80266e-06
-7.28598e-09
-5.94232e-08
1.80795e-06
-7.28801e-09
-5.94391e-08
1.81327e-06
-7.29967e-09
-5.94661e-08
-7.23096e-09
-5.94744e-08
1.55485e-06
-8.3376e-09
-8.35426e-08
1.55796e-06
-8.28469e-09
-8.35435e-08
1.56104e-06
-8.22185e-09
-8.3556e-08
1.56412e-06
-8.1659e-09
-8.35985e-08
-8.0474e-09
-8.36393e-08
1.19645e-06
-6.30096e-09
-1.02775e-07
1.19542e-06
-6.18537e-09
-1.02775e-07
1.19435e-06
-6.07129e-09
-1.02797e-07
1.19327e-06
-5.96507e-09
-1.0284e-07
-5.83003e-09
-1.02887e-07
6.61713e-07
-1.17531e-07
6.56306e-07
-1.17608e-07
6.51e-07
-1.17685e-07
6.4575e-07
-1.1774e-07
-1.17768e-07
6.37828e-07
1.57049e-08
1.07081e-07
6.31927e-07
1.56181e-08
1.07097e-07
6.26183e-07
1.54959e-08
1.07138e-07
6.20591e-07
1.5372e-08
1.07221e-07
6.1514e-07
1.52448e-08
1.0733e-07
1.50854e-08
1.07434e-07
1.16099e-06
2.54884e-08
9.32157e-08
1.15967e-06
2.54835e-08
9.32065e-08
1.1583e-06
2.54348e-08
9.32107e-08
1.15684e-06
2.54009e-08
9.32187e-08
1.1553e-06
2.53702e-08
9.32194e-08
2.5245e-08
9.32259e-08
1.51027e-06
3.07022e-08
7.35039e-08
1.51308e-06
3.07364e-08
7.34587e-08
1.51581e-06
3.07604e-08
7.3436e-08
1.51851e-06
3.07887e-08
7.33918e-08
1.52117e-06
3.08189e-08
7.33325e-08
3.07621e-08
7.33222e-08
1.74644e-06
3.24635e-08
5.00529e-08
1.75142e-06
3.24878e-08
5.00285e-08
1.7564e-06
3.25184e-08
5.00076e-08
1.76139e-06
3.25581e-08
4.99672e-08
1.7664e-06
3.25892e-08
4.99128e-08
3.25524e-08
4.99282e-08
1.88817e-06
2.33939e-08
1.89415e-06
3.15904e-08
2.33986e-08
1.90013e-06
3.1608e-08
2.33928e-08
1.90614e-06
3.16277e-08
2.33742e-08
1.91218e-06
3.16419e-08
2.33434e-08
3.16309e-08
2.33725e-08
1.94234e-06
2.8441e-08
-4.70871e-09
1.9486e-06
2.84482e-08
-4.7163e-09
1.95489e-06
2.84515e-08
-4.7357e-09
1.9612e-06
2.84495e-08
-4.75986e-09
2.84645e-08
-4.71822e-09
1.89411e-06
2.33636e-08
-3.24541e-08
1.90009e-06
2.33721e-08
-3.24794e-08
1.9061e-06
2.33687e-08
-3.25145e-08
1.91214e-06
2.33491e-08
-3.2559e-08
2.33883e-08
-3.25421e-08
1.74828e-06
1.67844e-08
-5.79e-08
1.75335e-06
1.68171e-08
-5.79393e-08
1.75842e-06
1.6839e-08
-5.79821e-08
1.76355e-06
1.68118e-08
-5.80547e-08
1.68549e-08
-5.8071e-08
1.50282e-06
9.76602e-09
-7.96583e-08
1.50591e-06
9.87051e-09
-7.96923e-08
1.50898e-06
9.95631e-09
-7.97362e-08
1.51205e-06
9.9822e-09
-7.98422e-08
1.00471e-08
-7.99119e-08
1.13995e-06
4.00995e-09
-9.63155e-08
1.13922e-06
4.15903e-09
-9.63351e-08
1.13846e-06
4.27709e-09
-9.63622e-08
1.13766e-06
4.35979e-09
-9.64176e-08
4.45232e-09
-9.64955e-08
6.0954e-07
-1.08933e-07
6.05043e-07
-1.08953e-07
6.00609e-07
-1.08974e-07
5.96208e-07
-1.08979e-07
-1.08957e-07
5.30803e-07
2.29519e-08
8.91367e-08
5.25862e-07
2.28975e-08
8.9141e-08
5.21054e-07
2.27857e-08
8.916e-08
5.16448e-07
2.2581e-08
8.92457e-08
5.12051e-07
2.23556e-08
8.93718e-08
2.21668e-08
8.9496e-08
1.0273e-06
4.02811e-08
7.74844e-08
1.02565e-06
4.02799e-08
7.74766e-08
1.02392e-06
4.02462e-08
7.74791e-08
1.02205e-06
4.02193e-08
7.745e-08
1.02002e-06
4.02009e-08
7.74081e-08
4.01388e-08
7.73853e-08
1.37061e-06
5.17682e-08
5.99497e-08
1.37261e-06
5.18267e-08
5.99138e-08
1.37452e-06
5.18513e-08
5.99232e-08
1.37635e-06
5.1902e-08
5.9879e-08
1.3781e-06
5.197e-08
5.98154e-08
5.19407e-08
5.98399e-08
1.60329e-06
5.78898e-08
3.97564e-08
1.60746e-06
5.79408e-08
3.97482e-08
1.61157e-06
5.79845e-08
3.97638e-08
1.61567e-06
5.80447e-08
3.97249e-08
1.61978e-06
5.81149e-08
3.96581e-08
5.81099e-08
3.97075e-08
1.74342e-06
1.68068e-08
1.74848e-06
5.9444e-08
1.68302e-08
1.75355e-06
5.94646e-08
1.68468e-08
1.75863e-06
5.9489e-08
1.68526e-08
1.76374e-06
5.95196e-08
1.68215e-08
5.95243e-08
1.6866e-08
1.79756e-06
5.67323e-08
-7.24291e-09
1.80283e-06
5.67229e-08
-7.23959e-09
1.80811e-06
5.6716e-08
-7.24289e-09
1.81343e-06
5.67027e-08
-7.25885e-09
5.67064e-08
-7.19393e-09
1.75139e-06
4.99943e-08
-3.06868e-08
1.75636e-06
4.9982e-08
-3.07106e-08
1.76132e-06
4.99666e-08
-3.07257e-08
1.76632e-06
4.99162e-08
-3.07693e-08
4.992e-08
-3.07381e-08
1.60725e-06
3.97124e-08
-5.17773e-08
1.61137e-06
3.97386e-08
-5.18159e-08
1.61543e-06
3.97466e-08
-5.18245e-08
1.61953e-06
3.96654e-08
-5.18974e-08
3.96597e-08
-5.19035e-08
1.36218e-06
2.71365e-08
-6.94499e-08
1.36449e-06
2.72092e-08
-6.9471e-08
1.36673e-06
2.72721e-08
-6.95062e-08
1.36891e-06
2.7246e-08
-6.95985e-08
2.72415e-08
-6.96368e-08
9.98938e-07
1.42573e-08
-8.23767e-08
9.97817e-07
1.43531e-08
-8.23577e-08
9.96637e-07
1.44274e-08
-8.23382e-08
9.9536e-07
1.44517e-08
-8.23459e-08
1.44869e-08
-8.23943e-08
4.92629e-07
-9.12475e-08
4.89251e-07
-9.12206e-08
4.8591e-07
-9.12058e-08
4.82589e-07
-9.12067e-08
-9.11755e-08
3.72265e-07
2.80701e-08
6.43752e-08
3.68981e-07
2.80518e-08
6.43736e-08
3.6573e-07
2.80234e-08
6.43871e-08
3.62541e-07
2.80044e-08
6.44306e-08
3.59445e-07
2.79793e-08
6.44881e-08
2.78958e-08
6.45839e-08
8.01098e-07
5.22194e-08
5.5663e-08
7.98708e-07
5.2227e-08
5.56916e-08
7.96293e-07
5.21898e-08
5.57269e-08
7.93819e-07
5.21988e-08
5.573e-08
7.91252e-07
5.22281e-08
5.57267e-08
5.21935e-08
5.57278e-08
1.13084e-06
6.94629e-08
4.22141e-08
1.13125e-06
6.9517e-08
4.22153e-08
1.13155e-06
6.95361e-08
4.2269e-08
1.13176e-06
6.96003e-08
4.22735e-08
1.13184e-06
6.96793e-08
4.22779e-08
6.96668e-08
4.23279e-08
1.36024e-06
7.96577e-08
2.71491e-08
1.36262e-06
7.97133e-08
2.71767e-08
1.36491e-06
7.97517e-08
2.72496e-08
1.36716e-06
7.98265e-08
2.72503e-08
1.36935e-06
7.99226e-08
2.72246e-08
7.99515e-08
2.72803e-08
1.50015e-06
9.76306e-09
1.50329e-06
8.35667e-08
9.8367e-09
1.50639e-06
8.35836e-08
9.90974e-09
1.50948e-06
8.36134e-08
9.97582e-09
1.51256e-06
8.3663e-08
1.00023e-08
8.3698e-08
1.00715e-08
1.5552e-06
8.14767e-08
-8.29885e-09
1.55831e-06
8.14537e-08
-8.22916e-09
1.5614e-06
8.14427e-08
-8.16077e-09
1.56449e-06
8.14232e-08
-8.10078e-09
8.14145e-08
-7.98357e-09
1.51305e-06
7.34274e-08
-2.54282e-08
1.51579e-06
7.33888e-08
-2.53843e-08
1.51846e-06
7.33692e-08
-2.53161e-08
1.52109e-06
7.33001e-08
-2.52839e-08
7.32696e-08
-2.52004e-08
1.37246e-06
5.9896e-08
-4.02331e-08
1.37437e-06
5.98883e-08
-4.02226e-08
1.37618e-06
5.9876e-08
-4.01417e-08
1.37791e-06
5.97972e-08
-4.01203e-08
5.97673e-08
-4.00714e-08
1.13103e-06
4.219e-08
-5.21729e-08
1.13135e-06
4.22279e-08
-5.21357e-08
1.13157e-06
4.22686e-08
-5.21174e-08
1.13165e-06
4.22772e-08
-5.21529e-08
4.22702e-08
-5.21535e-08
7.75286e-07
2.25694e-08
-6.04908e-08
7.72978e-07
2.26173e-08
-6.04387e-08
7.70647e-07
2.26605e-08
-6.03996e-08
7.68272e-07
2.26837e-08
-6.03771e-08
2.27067e-08
-6.04014e-08
3.37257e-07
-6.60977e-08
3.3473e-07
-6.60754e-08
3.32241e-07
-6.60565e-08
3.29772e-07
-6.60538e-08
-6.60385e-08
1.89978e-07
3.19169e-08
3.416e-08
1.88281e-07
3.19022e-08
3.41682e-08
1.86606e-07
3.18823e-08
3.41805e-08
1.84952e-07
3.18871e-08
3.41973e-08
1.83327e-07
3.18943e-08
3.42182e-08
3.19004e-08
3.42444e-08
4.84786e-07
6.05207e-08
2.99141e-08
4.81942e-07
6.05108e-08
2.99275e-08
4.79119e-07
6.04762e-08
2.99554e-08
4.76304e-07
6.04758e-08
2.9956e-08
4.73508e-07
6.04651e-08
2.99526e-08
6.04539e-08
2.99481e-08
7.77449e-07
8.23646e-08
2.25667e-08
7.75201e-07
8.24016e-08
2.25728e-08
7.72936e-07
8.23928e-08
2.26173e-08
7.70623e-07
8.24213e-08
2.26408e-08
7.68252e-07
8.24533e-08
8.24735e-08
1.00027e-06
9.631e-08
1.41933e-08
9.99222e-07
9.63552e-08
1.42747e-08
9.98118e-07
9.63825e-08
1.43633e-08
9.9694e-07
9.6436e-08
1.4414e-08
9.95663e-07
9.65098e-08
1.44451e-08
9.65824e-08
1.14099e-06
3.86636e-09
1.14035e-06
1.02803e-07
4.03154e-09
1.13966e-06
1.02815e-07
4.17071e-09
1.13892e-06
1.02849e-07
4.29913e-09
1.13814e-06
1.02897e-07
4.39898e-09
1.02943e-07
1.19671e-06
1.01731e-07
-6.2882e-09
1.19571e-06
1.01733e-07
-6.15436e-09
1.19468e-06
1.01749e-07
-6.02902e-09
1.19361e-06
1.01765e-07
-5.90137e-09
1.01784e-07
-5.77201e-09
1.15979e-06
9.31712e-08
-1.55626e-08
1.15843e-06
9.31552e-08
-1.54484e-08
1.15701e-06
9.3167e-08
-1.53111e-08
1.15551e-06
9.31659e-08
-1.51811e-08
9.31589e-08
-1.50389e-08
1.02572e-06
7.74251e-08
-2.28507e-08
1.024e-06
7.74145e-08
-2.27596e-08
1.02215e-06
7.74045e-08
-2.25366e-08
1.02015e-06
7.73621e-08
-2.2311e-08
7.73224e-08
-2.21298e-08
7.98808e-07
5.56509e-08
-2.80128e-08
7.96374e-07
5.5691e-08
-2.79785e-08
7.93901e-07
5.57074e-08
-2.79475e-08
7.91343e-07
5.56952e-08
-2.79274e-08
5.56673e-08
-2.78695e-08
4.82161e-07
2.99002e-08
-3.18992e-08
4.79349e-07
2.99336e-08
-3.18695e-08
4.76558e-07
2.9953e-08
-3.18544e-08
4.73778e-07
2.99536e-08
-3.18555e-08
2.99243e-08
-3.18804e-08
1.7671e-07
-3.47194e-08
1.7528e-07
-3.47116e-08
1.73885e-07
-3.47093e-08
1.72504e-07
-3.47187e-08
-3.47368e-08
5.84393e-08
3.47298e-08
5.78766e-08
3.47308e-08
5.73268e-08
3.47304e-08
5.6783e-08
3.47411e-08
5.62448e-08
3.47564e-08
3.47673e-08
1.78086e-07
6.61222e-08
1.76618e-07
6.61267e-08
1.7518e-07
6.61232e-08
1.73752e-07
6.61252e-08
1.72331e-07
3.39573e-07
9.12855e-08
3.36992e-07
9.12809e-08
3.34451e-07
9.12814e-08
9.12807e-08
4.95637e-07
1.08946e-07
4.92224e-07
1.08969e-07
4.88862e-07
1.09006e-07
4.85538e-07
1.09019e-07
1.09018e-07
6.13667e-07
6.09062e-07
1.17605e-07
6.04574e-07
1.17665e-07
6.00171e-07
1.17722e-07
1.17765e-07
6.61441e-07
1.16823e-07
6.56063e-07
1.16888e-07
6.50787e-07
1.16969e-07
6.45587e-07
1.17064e-07
1.17148e-07
6.32249e-07
1.07092e-07
6.2656e-07
1.07129e-07
6.21024e-07
1.07194e-07
6.15626e-07
1.0728e-07
1.07362e-07
5.26136e-07
8.91257e-08
5.21367e-07
8.91385e-08
5.16806e-07
8.92179e-08
5.12446e-07
8.93291e-08
8.94371e-08
3.69137e-07
6.43663e-08
3.65917e-07
6.43802e-08
3.62771e-07
6.44161e-08
3.5971e-07
6.44621e-08
6.45404e-08
1.88354e-07
3.41519e-08
1.867e-07
3.41647e-08
1.85081e-07
3.41805e-08
1.83491e-07
3.41969e-08
3.42157e-08
5.78995e-08
5.73526e-08
5.68238e-08
5.6302e-08
)
;

boundaryField
{
    inlet
    {
        type            calculated;
        value           nonuniform List<scalar> 0();
    }
    ami1
    {
        type            cyclicAMI;
        value           nonuniform List<scalar> 0();
    }
    walls
    {
        type            calculated;
        value           nonuniform List<scalar> 
250
(
2.90979e-14
2.43942e-14
1.84387e-14
1.28555e-14
6.40674e-15
1.34934e-22
-6.40674e-15
-1.28555e-14
-1.84387e-14
-2.43942e-14
-2.90979e-14
2.90979e-14
2.43942e-14
1.84387e-14
1.28555e-14
6.40674e-15
4.22379e-22
-6.40674e-15
-1.28555e-14
-1.84387e-14
-2.43942e-14
-2.90979e-14
2.90979e-14
2.43942e-14
1.84387e-14
1.28555e-14
6.40674e-15
1.34158e-22
-6.40674e-15
-1.28555e-14
-1.84387e-14
-2.43942e-14
-2.90979e-14
2.90979e-14
2.43942e-14
1.84387e-14
1.28555e-14
6.40674e-15
1.34158e-22
-6.40674e-15
-1.28555e-14
-1.84387e-14
-2.43942e-14
-2.90979e-14
2.90979e-14
2.43942e-14
1.84387e-14
1.28555e-14
6.40674e-15
1.35451e-22
-6.40674e-15
-1.28555e-14
-1.84387e-14
-2.43942e-14
-2.90979e-14
1.28555e-14
6.40674e-15
1.34934e-22
-6.40674e-15
-1.28555e-14
-1.84387e-14
-2.43942e-14
-2.90979e-14
1.35451e-22
-6.40674e-15
-1.28555e-14
-1.84387e-14
2.90979e-14
2.43942e-14
1.84387e-14
1.28555e-14
6.40674e-15
1.34934e-22
-6.40674e-15
-1.28555e-14
-1.84387e-14
-2.43942e-14
-2.90979e-14
2.90979e-14
2.43942e-14
1.84387e-14
1.28555e-14
6.40674e-15
4.22379e-22
-6.40674e-15
-1.28555e-14
-1.84387e-14
-2.43942e-14
-2.90979e-14
2.90979e-14
2.43942e-14
1.84387e-14
1.28555e-14
6.40674e-15
1.34158e-22
-6.40674e-15
-1.28555e-14
-1.84387e-14
-2.43942e-14
-2.90979e-14
2.90979e-14
2.43942e-14
1.84387e-14
1.28555e-14
6.40674e-15
1.34158e-22
-6.40674e-15
-1.28555e-14
-1.84387e-14
-2.43942e-14
-2.90979e-14
2.90979e-14
2.43942e-14
1.84387e-14
1.28555e-14
6.40674e-15
1.35451e-22
-6.40674e-15
-1.28555e-14
-1.84387e-14
-2.43942e-14
-2.90979e-14
2.90979e-14
2.43942e-14
1.84387e-14
1.28555e-14
6.40674e-15
-2.90979e-14
-2.43942e-14
-1.84387e-14
-1.28555e-14
-6.40674e-15
-2.90979e-14
-2.43942e-14
-1.84387e-14
-1.28555e-14
-6.40674e-15
-8.3332e-23
6.40674e-15
1.28555e-14
1.84387e-14
2.43942e-14
2.90979e-14
-2.90979e-14
-2.43942e-14
-1.84387e-14
-1.28555e-14
-6.40674e-15
5.03288e-22
6.40674e-15
1.28555e-14
1.84387e-14
2.43942e-14
2.90979e-14
-2.90979e-14
-2.43942e-14
-1.84387e-14
-1.28555e-14
-6.40674e-15
-8.31543e-23
6.40674e-15
1.28555e-14
1.84387e-14
2.43942e-14
2.90979e-14
-2.90979e-14
-2.43942e-14
-1.28555e-14
-6.40674e-15
-8.31543e-23
6.40674e-15
1.28555e-14
1.84387e-14
2.43942e-14
2.90979e-14
-2.90979e-14
-2.43942e-14
-8.18618e-23
6.40674e-15
1.28555e-14
1.84387e-14
2.43942e-14
2.90979e-14
6.40674e-15
1.28555e-14
1.84387e-14
2.43942e-14
2.90979e-14
-2.90979e-14
-2.43942e-14
-1.84387e-14
-1.28555e-14
-6.40674e-15
-8.3332e-23
6.40674e-15
1.28555e-14
1.84387e-14
2.43942e-14
2.90979e-14
-2.90979e-14
-2.43942e-14
-1.84387e-14
-1.28555e-14
-6.40674e-15
5.03288e-22
6.40674e-15
1.28555e-14
1.84387e-14
2.43942e-14
2.90979e-14
-2.90979e-14
-2.43942e-14
-1.84387e-14
-1.28555e-14
-6.40674e-15
-8.31543e-23
6.40674e-15
1.28555e-14
1.84387e-14
2.43942e-14
2.90979e-14
-2.90979e-14
-2.43942e-14
-1.84387e-14
-1.28555e-14
-6.40674e-15
-8.31543e-23
6.40674e-15
1.28555e-14
1.84387e-14
2.43942e-14
2.90979e-14
-2.90979e-14
-2.43942e-14
-1.84387e-14
-1.28555e-14
-6.40674e-15
-8.18618e-23
6.40674e-15
1.28555e-14
1.84387e-14
2.43942e-14
2.90979e-14
-2.43942e-14
-1.84387e-14
-1.28555e-14
-6.40674e-15
-8.18618e-23
-1.84387e-14
-1.28555e-14
)
;
    }
    ami2
    {
        type            cyclicAMI;
        value           nonuniform List<scalar> 0();
    }
    outlet
    {
        type            calculated;
        value           nonuniform List<scalar> 0();
    }
    procBoundary5to6
    {
        type            processor;
        value           nonuniform List<scalar> 
177
(
5.56808e-08
-3.47646e-08
1.81636e-07
3.562e-07
8.95566e-08
-2.78336e-08
5.03396e-07
6.04454e-07
1.1727e-07
6.29813e-07
5.57757e-09
5.82968e-07
-4.86694e-09
4.72337e-07
3.22295e-07
-6.60126e-08
1.69577e-07
2.99527e-08
5.52156e-08
1.69477e-07
-2.99135e-08
-6.60262e-08
4.7043e-07
5.56718e-08
-6.04675e-08
7.85672e-07
1.01558e-06
1.15205e-06
1.19101e-06
1.13586e-06
9.6715e-08
9.90889e-07
-2.7289e-08
7.60547e-07
-4.23318e-08
4.65177e-07
-3.18598e-08
1.8025e-07
3.22127e-07
-2.27962e-08
7.62987e-07
-8.24982e-08
1.13169e-06
1.3813e-06
1.52631e-06
1.5705e-06
1.51837e-06
-1.68931e-08
1.37325e-06
1.13156e-06
5.21068e-08
7.83048e-07
-2.7731e-08
-7.73487e-08
3.53579e-07
4.72092e-07
1.08919e-07
9.91063e-07
-2.73367e-08
9.67551e-08
1.37348e-06
8.00235e-08
1.62786e-06
5.81752e-08
1.77637e-06
3.26231e-08
1.82407e-06
-5.94923e-08
4.72351e-09
1.76884e-06
5.81178e-08
1.62772e-06
-4.98822e-08
1.38118e-06
-7.32401e-08
1.01568e-06
-9.31606e-08
5.03877e-07
5.86868e-07
1.13612e-06
-1.01753e-08
1.51546e-06
8.36975e-08
1.76887e-06
5.95509e-08
1.91825e-06
3.16831e-08
1.96753e-06
1.91822e-06
1.77126e-06
1.52353e-06
1.15372e-06
1.4957e-08
6.05101e-07
-1.17163e-07
6.34903e-07
1.17246e-07
8.01299e-09
1.19108e-06
7.92394e-09
1.01876e-07
1.56436e-06
-8.14452e-08
1.81347e-06
-5.66999e-08
1.96126e-06
-1.57936e-09
-2.84471e-08
2.01705e-06
1.96743e-06
1.81859e-06
1.56721e-06
1.1922e-06
6.40572e-07
6.09823e-07
1.15376e-06
1.52378e-06
1.77138e-06
1.91817e-06
1.96746e-06
1.91815e-06
1.76868e-06
1.51513e-06
1.13687e-06
5.91849e-07
5.07823e-07
1.01789e-06
1.37978e-06
1.62383e-06
1.76884e-06
1.81872e-06
1.7713e-06
1.62362e-06
1.37105e-06
9.94013e-07
4.79294e-07
3.56461e-07
7.88611e-07
1.13188e-06
1.3715e-06
1.51561e-06
1.56756e-06
1.5237e-06
1.37958e-06
1.13166e-06
7.65843e-07
3.27341e-07
1.81766e-07
4.70734e-07
2.2661e-08
7.65829e-07
2.27307e-08
9.94319e-07
1.45153e-08
1.13735e-06
4.5017e-09
1.19256e-06
1.15397e-06
1.01804e-06
7.88714e-07
4.71e-07
1.71126e-07
5.57219e-08
6.61303e-08
1.70951e-07
6.60952e-08
3.31936e-07
-9.12785e-08
4.82243e-07
5.95824e-07
-1.17798e-07
6.40465e-07
6.10373e-07
5.08241e-07
3.56738e-07
1.81935e-07
5.5781e-08
)
;
    }
    procBoundary5to7
    {
        type            processor;
        value           nonuniform List<scalar> 
131
(
-5.839e-08
-1.89827e-07
-3.72061e-07
-5.30648e-07
-6.37744e-07
-6.66841e-07
-6.13808e-07
-4.95827e-07
-3.39687e-07
-1.78127e-07
-5.84511e-08
-1.7795e-07
-4.84573e-07
-8.00987e-07
-1.02723e-06
-1.16091e-06
-1.19731e-06
-1.14055e-06
-9.99889e-07
-7.77403e-07
-4.84879e-07
-1.9001e-07
-3.39385e-07
-7.7727e-07
-1.13073e-06
-1.37057e-06
-1.51022e-06
-1.55182e-06
-1.49975e-06
-1.35983e-06
-1.13057e-06
-8.01106e-07
-3.72356e-07
-4.9548e-07
-9.99993e-07
-1.36009e-06
-1.60325e-06
-1.74646e-06
-1.79226e-06
-1.74327e-06
-1.60308e-06
-1.37039e-06
-1.02728e-06
-5.31063e-07
-6.13535e-07
-1.14072e-06
-1.49993e-06
-1.74335e-06
-1.8882e-06
-1.9361e-06
-1.88814e-06
-1.74631e-06
-1.51006e-06
-1.16095e-06
-6.38255e-07
-6.66762e-07
-1.16755e-07
-1.19744e-06
-1.01755e-07
-1.5519e-06
-8.15478e-08
-1.79225e-06
-5.67922e-08
-1.93608e-06
-2.84794e-08
-1.98423e-06
-1.93605e-06
-1.79214e-06
-1.55171e-06
-1.19741e-06
-6.67251e-07
-6.43859e-07
-1.16223e-06
-1.50744e-06
-1.74146e-06
-1.8822e-06
3.15778e-08
-1.93609e-06
-1.88815e-06
-1.74321e-06
-1.49968e-06
-1.14065e-06
-6.14128e-07
-5.35811e-07
-1.0289e-06
-1.36855e-06
-1.59912e-06
-1.73837e-06
5.94255e-08
-1.79232e-06
-1.74642e-06
-1.60309e-06
-1.35981e-06
-9.99998e-07
-4.96057e-07
-3.75574e-07
-8.03426e-07
-1.13035e-06
-1.35783e-06
-1.497e-06
8.35572e-08
-1.55205e-06
-1.51026e-06
-1.37048e-06
-1.1306e-06
-7.77552e-07
-3.39838e-07
-1.9168e-07
-4.87641e-07
-7.79646e-07
-1.00126e-06
-1.14159e-06
1.02805e-07
-1.19764e-06
-1.1611e-06
-1.02735e-06
-8.01194e-07
-4.85002e-07
-1.78188e-07
-5.90091e-08