/*--------------------------------*- C++ -*----------------------------------*\
| =========                 |                                                 |
| \\      /  F ield         | OpenFOAM: The Open Source CFD Toolbox           |
|  \\    /   O peration     | Version:  2212                                  |
|   \\  /    A nd           | Website:  www.openfoam.com                      |
|    \\/     M anipulation  |                                                 |
\*---------------------------------------------------------------------------*/
FoamFile
{
    version     2.0;
    format      ascii;
    arch        "LSB;label=32;scalar=64";
    class       volScalarField;
    location    "0.1";
    object      epsilon;
}
// * * * * * * * * * * * * * * * * * * * * * * * * * * * * * * * * * * * * * //

dimensions      [0 2 -3 0 0 0 0];

internalField   nonuniform List<scalar> 
690
(
1.07008
1.07043
1.07067
1.07077
1.07081
1.07082
1.07083
1.07085
1.07088
1.07093
1.07099
1.13498
1.13567
1.13618
1.13643
1.13656
1.13663
1.13668
1.13671
1.13673
1.13671
1.13646
0.901304
0.90184
0.902208
0.902435
0.902577
0.902666
0.902725
0.902765
0.902797
0.902829
0.902854
0.854615
0.855201
0.855608
0.855884
0.856065
0.856181
0.856255
0.856302
0.856331
0.856343
0.856339
0.832234
0.832937
0.833421
0.833742
0.83395
0.834081
0.834164
0.834214
0.834239
0.83423
0.83415
1.15531
1.15599
1.15644
1.15665
1.15674
1.15678
1.15681
1.15683
1.15685
1.15683
1.15659
0.624533
0.621541
0.620794
0.620707
0.620729
0.620759
0.620779
0.620802
0.620861
0.62126
0.624748
0.569304
0.569301
0.569315
0.569365
0.569417
0.569458
0.569488
0.569513
0.569554
0.569677
0.570094
0.557176
0.557423
0.55759
0.557706
0.557787
0.557842
0.55788
0.557909
0.557937
0.557984
0.558078
0.557082
0.557137
0.557243
0.557344
0.557423
0.55748
0.55752
0.557552
0.557586
0.557648
0.557828
0.929699
0.930101
0.930383
0.930494
0.930557
0.930593
0.930619
0.930641
0.930668
0.930708
0.930761
0.573296
0.573244
0.573219
0.573242
0.573272
0.573299
0.573316
0.573335
0.573374
0.573507
0.573956
0.547186
0.547399
0.547522
0.547605
0.54766
0.547698
0.547724
0.547747
0.547779
0.547846
0.547986
0.557255
0.557498
0.557657
0.557762
0.55783
0.557875
0.557907
0.557933
0.557963
0.558011
0.558094
0.568452
0.568656
0.568796
0.568891
0.568955
0.568999
0.569031
0.56906
0.569099
0.569165
0.569288
0.868796
0.86913
0.869347
0.869463
0.869518
0.869552
0.86958
0.869599
0.86962
0.869649
0.869694
0.560408
0.560687
0.560848
0.560943
0.560999
0.561032
0.561054
0.561071
0.561093
0.561136
0.561221
0.557731
0.557982
0.558145
0.558248
0.558313
0.558354
0.558381
0.558404
0.55843
0.558471
0.558543
0.579492
0.579735
0.579895
0.579999
0.580064
0.580107
0.580137
0.580165
0.580201
0.580259
0.58036
0.597165
0.597383
0.597522
0.597609
0.597664
0.5977
0.597729
0.597762
0.597814
0.597904
0.598062
0.840177
0.840413
0.840557
0.84065
0.840708
0.840746
0.840771
0.84079
0.840804
0.840816
0.840822
0.559027
0.55948
0.559726
0.559862
0.559938
0.559982
0.560009
0.560028
0.560047
0.560078
0.560146
0.568953
0.56923
0.569412
0.569528
0.569599
0.569644
0.569673
0.569697
0.569724
0.569766
0.569838
0.597248
0.597477
0.597628
0.597725
0.597787
0.597827
0.597856
0.597886
0.597927
0.597996
0.598118
0.618392
0.618598
0.618726
0.618805
0.618852
0.618884
0.618911
0.618946
0.619003
0.619106
0.619285
0.626025
0.626211
0.626317
0.626376
0.626409
0.626431
0.626454
0.626492
0.626563
0.626696
0.626929
0.829597
0.829958
0.830181
0.830317
0.830401
0.830452
0.830484
0.830506
0.830519
0.830527
0.830525
0.559707
0.560017
0.560218
0.560344
0.56042
0.560467
0.560496
0.560516
0.560536
0.560565
0.560619
0.573172
0.573401
0.57356
0.573666
0.573733
0.573776
0.573806
0.57383
0.573858
0.573902
0.573978
0.60365
0.603834
0.60396
0.604044
0.604098
0.604134
0.604162
0.604192
0.604235
0.604309
0.604438
0.625968
0.626131
0.626233
0.626297
0.626336
0.626364
0.62639
0.626425
0.626484
0.626591
0.626778
0.633969
0.634105
0.634184
0.634229
0.634254
0.634272
0.634295
0.634334
0.634408
0.634542
0.634772
0.832019
0.832442
0.832713
0.832882
0.832985
0.833049
0.833088
0.833112
0.833127
0.833132
0.833111
0.557845
0.558117
0.558297
0.558414
0.558486
0.558532
0.55856
0.558581
0.558604
0.558647
0.558773
0.568565
0.568803
0.568962
0.569066
0.569133
0.569176
0.569205
0.569229
0.569256
0.569298
0.569375
0.597188
0.597379
0.597509
0.597594
0.597651
0.597688
0.597717
0.597746
0.597787
0.597855
0.597973
0.618456
0.618619
0.618725
0.618792
0.618836
0.618866
0.618893
0.618927
0.618983
0.619079
0.619246
0.626063
0.626198
0.626281
0.626331
0.626362
0.626384
0.626409
0.626447
0.626514
0.626635
0.626839
0.854495
0.854925
0.855201
0.85537
0.855473
0.855534
0.855572
0.855599
0.855628
0.855679
0.85582
0.856226
0.557262
0.557525
0.557687
0.55779
0.557854
0.557894
0.557918
0.557935
0.557944
0.557927
0.557773
0.556902
0.557291
0.557533
0.55769
0.557791
0.557856
0.557897
0.557924
0.557945
0.557967
0.557997
0.558041
0.579514
0.57974
0.579889
0.579987
0.580051
0.580093
0.580123
0.58015
0.580184
0.580238
0.580331
0.597281
0.597491
0.597628
0.597717
0.597775
0.597814
0.597844
0.597876
0.597922
0.597996
0.598121
0.603662
0.603852
0.603973
0.604049
0.604098
0.604132
0.604161
0.604196
0.60425
0.604342
0.604495
0.901229
0.901684
0.901969
0.902128
0.902208
0.902257
0.902288
0.902314
0.902347
0.902414
0.902571
0.902874
0.569292
0.569278
0.569277
0.569313
0.569351
0.56938
0.5694
0.569414
0.569427
0.569438
0.569444
0.569556
0.547176
0.547382
0.5475
0.547578
0.54763
0.547665
0.547688
0.547708
0.547732
0.547779
0.547899
0.557735
0.557971
0.558125
0.558224
0.558289
0.558331
0.55836
0.558384
0.558413
0.55846
0.558546
0.569003
0.569239
0.569398
0.569502
0.569571
0.569616
0.569649
0.569678
0.569712
0.569763
0.569848
0.57314
0.573357
0.573502
0.573599
0.573663
0.573708
0.573741
0.573773
0.573812
0.573873
0.573972
1.13484
1.13552
1.13599
1.13622
1.13632
1.13638
1.13641
1.13643
1.13645
1.13649
1.13662
1.13745
0.624485
0.621486
0.620733
0.620641
0.620656
0.620679
0.620697
0.620709
0.620726
0.620767
0.620976
0.622385
0.573244
0.573191
0.573167
0.573195
0.573229
0.573257
0.573277
0.573293
0.573318
0.573402
0.573807
0.560393
0.560645
0.5608
0.5609
0.560965
0.561007
0.561035
0.561057
0.561082
0.561133
0.561271
0.55928
0.559521
0.559691
0.559808
0.559887
0.55994
0.559976
0.560004
0.560031
0.560071
0.560156
0.559655
0.559892
0.560061
0.560181
0.560265
0.560323
0.560364
0.560395
0.560425
0.560465
0.560534
1.06999
1.07034
1.07058
1.07067
1.0707
1.07071
1.07071
1.07072
1.07074
1.07079
1.0709
1.0715
1.15513
1.15582
1.1563
1.15652
1.15662
1.15666
1.15669
1.15671
1.15673
1.15674
1.15678
1.1574
0.929476
0.929936
0.930242
0.930409
0.930496
0.930549
0.930582
0.930603
0.930614
0.930591
0.930421
0.868422
0.868873
0.86917
0.869362
0.869479
0.869553
0.8696
0.869631
0.869649
0.869654
0.869635
0.839556
0.840035
0.840367
0.84059
0.840736
0.840831
0.840892
0.84093
0.840953
0.840962
0.840953
0.829332
0.829858
0.830234
0.830493
0.830668
0.830782
0.830856
0.830902
0.830928
0.830934
0.830914
)
;

boundaryField
{
    inlet
    {
        type            fixedValue;
        value           nonuniform List<scalar> 0();
    }
    ami1
    {
        type            cyclicAMI;
        value           nonuniform List<scalar> 0();
    }
    walls
    {
        type            epsilonWallFunction;
        blending        stepwise;
        value           nonuniform List<scalar> 
248
(
1.07008
1.13498
0.901304
0.854615
0.832234
1.07043
1.13567
0.90184
0.855201
0.832937
1.07067
1.13618
0.902208
0.855608
0.833421
1.07077
1.13643
0.902435
0.855884
0.833742
1.07081
1.13656
0.902577
0.856065
0.83395
1.07082
1.13663
0.902666
0.856181
0.834081
1.07083
1.13668
0.902725
0.856255
0.834164
1.07085
1.13671
0.902765
0.856302
0.834214
1.07088
1.13673
0.902797
0.856331
0.834239
1.07093
1.13671
0.902829
0.856343
0.83423
1.07099
1.13646
0.902854
0.856339
0.83415
1.06999
1.15513
0.929476
0.868422
0.839556
0.829332
1.07034
1.15582
0.929936
0.868873
0.840035
0.829858
1.07058
1.1563
0.930242
0.86917
0.840367
0.830234
1.07067
1.15652
0.930409
0.869362
0.84059
0.830493
1.0707
1.15662
0.930496
0.869479
0.840736
0.830668
1.07071
1.15666
0.930549
0.869553
0.840831
0.830782
1.07071
1.15669
0.930582
0.8696
0.840892
0.830856
1.07072
1.15671
0.930603
0.869631
0.84093
0.830902
1.07074
1.15673
0.930614
0.869649
0.840953
0.830928
1.07079
1.15674
0.930591
0.869654
0.840962
0.830934
1.0709
1.15678
0.930421
0.869635
0.840953
0.830914
1.0715
1.1574
1.07008
1.15531
0.929699
0.868796
0.840177
0.829597
0.832019
0.854495
0.901229
1.13484
1.06999
1.07043
1.15599
0.930101
0.86913
0.840413
0.829958
0.832442
0.854925
0.901684
1.13552
1.07034
1.07067
1.15644
0.930383
0.869347
0.840557
0.830181
0.832713
0.855201
0.901969
1.13599
1.07058
1.07077
1.15665
0.930494
0.869463
0.84065
0.830317
0.832882
0.85537
0.902128
1.13622
1.07067
1.07081
1.15674
0.930557
0.869518
0.840708
0.830401
0.832985
0.855473
0.902208
1.13632
1.0707
1.07082
1.15678
0.930593
0.869552
0.840746
0.830452
0.833049
0.855534
0.902257
1.13638
1.07071
1.07083
1.15681
0.930619
0.86958
0.840771
0.830484
0.833088
0.855572
0.902288
1.13641
1.07071
1.07085
1.15683
0.930641
0.869599
0.84079
0.830506
0.833112
0.855599
0.902314
1.13643
1.07072
1.07088
1.15685
0.930668
0.86962
0.840804
0.830519
0.833127
0.855628
0.902347
1.13645
1.07074
1.07093
1.15683
0.930708
0.869649
0.840816
0.830527
0.833132
0.855679
0.902414
1.13649
1.07079
1.07099
1.15659
0.930761
0.869694
0.840822
0.830525
0.833111
0.85582
0.902571
1.13662
1.0709
0.856226
0.902874
1.13745
1.0715
)
;
    }
    ami2
    {
        type            cyclicAMI;
        value           nonuniform List<scalar> 0();
    }
    outlet
    {
        type            zeroGradient;
    }
    procBoundary8to0
    {
        type            processor;
        value           nonuniform List<scalar> 
29
(
1.06978
1.13413
0.900531
0.853785
0.831291
1.15453
0.62341
0.568695
0.556764
0.557227
0.929045
0.572678
0.546734
0.556859
0.568094
0.868205
0.559916
0.557323
0.579081
0.596721
0.83975
0.558071
0.568495
0.596823
0.61795
0.625525
0.603246
0.625538
0.633492
)
;
    }
    procBoundary8to1
    {
        type            processor;
        value           nonuniform List<scalar> 
33
(
0.829014
0.55922
0.572767
0.831374
0.557418
0.568156
0.596787
0.618037
0.625603
0.853802
0.556809
0.556887
0.57911
0.596863
0.603217
0.900534
0.568686
0.546725
0.557337
0.568601
0.572736
1.13403
0.623362
0.572623
0.559941
0.558868
0.559279
1.0697
1.15433
0.928782
0.867729
0.838876
0.828612
)
;
    }
    procBoundary8to7
    {
        type            processor;
        value           nonuniform List<scalar> 
68
(
1.07088
1.13643
0.902841
0.85626
0.833902
1.15658
0.62538
0.570263
0.558169
0.558427
0.930804
0.574143
0.548057
0.558147
0.569389
0.86973
0.561272
0.558583
0.580407
0.598109
0.840829
0.56018
0.569878
0.598172
0.619353
0.626971
0.830516
0.560674
0.574023
0.604497
0.626851
0.634834
0.833031
0.833031
0.559132
0.559132
0.569429
0.59803
0.619317
0.626901
0.856143
0.55768
0.55802
0.55802
0.580383
0.598182
0.604552
0.902908
0.56993
0.548131
0.548131
0.558634
0.569905
0.574033
1.13681
0.624746
0.575995
0.575995
0.561573
0.560225
0.560613
1.07112
1.15673
0.929687
0.929687
0.869591
0.840937
0.830862
)
;
    }
    procBoundary8to9
    {
        type            processor;
        value           nonuniform List<scalar> 
132
(
0.8293
0.829831
0.830212
0.830478
0.830659
0.830778
0.830855
0.830904
0.830933
0.830943
0.830927
0.559652
0.559896
0.560069
0.560191
0.560276
0.560335
0.560376
0.560407
0.560437
0.560477
0.560551
0.573138
0.573375
0.57353
0.57363
0.573695
0.573738
0.57377
0.5738
0.573839
0.573902
0.574015
0.603692
0.603905
0.604035
0.604113
0.60416
0.604191
0.604218
0.604254
0.604313
0.604419
0.604605
0.603692
0.603905
0.604035
0.604113
0.60416
0.604191
0.604218
0.604254
0.604313
0.604419
0.604605
0.618482
0.618679
0.618795
0.618862
0.618901
0.618927
0.618952
0.618987
0.619049
0.619162
0.619361
0.626075
0.626227
0.626314
0.626363
0.626391
0.626411
0.626433
0.62647
0.626536
0.626658
0.626871
0.618555
0.618705
0.618794
0.618847
0.618878
0.618901
0.618925
0.61896
0.619022
0.619133
0.619326
0.59721
0.597403
0.597522
0.597595
0.597642
0.597675
0.597703
0.597736
0.597787
0.597875
0.598023
0.568489
0.568667
0.568789
0.568873
0.568932
0.568974
0.569007
0.569038
0.569077
0.569142
0.569258
0.557135
0.557148
0.557237
0.55733
0.557406
0.557463
0.557504
0.557538
0.557573
0.557635
0.557811
0.832186
0.832892
0.833386
0.833715
0.83393
0.834066
0.834152
0.834204
0.834229
0.83422
0.834138
)
;
    }
}


// ************************************************************************* //
