/*--------------------------------*- C++ -*----------------------------------*\
| =========                 |                                                 |
| \\      /  F ield         | OpenFOAM: The Open Source CFD Toolbox           |
|  \\    /   O peration     | Version:  2212                                  |
|   \\  /    A nd           | Website:  www.openfoam.com                      |
|    \\/     M anipulation  |                                                 |
\*---------------------------------------------------------------------------*/
FoamFile
{
    version     2.0;
    format      ascii;
    arch        "LSB;label=32;scalar=64";
    class       volScalarField;
    location    "1.3";
    object      epsilon;
}
// * * * * * * * * * * * * * * * * * * * * * * * * * * * * * * * * * * * * * //

dimensions      [0 2 -3 0 0 0 0];

internalField   nonuniform List<scalar> 
680
(
0.720652
0.594569
0.502474
0.432635
0.379218
0.336217
0.299706
0.740278
0.565892
0.443914
0.356008
0.290914
0.241393
0.202992
0.649786
0.497022
0.3895
0.311315
0.253012
0.20903
0.175287
0.645397
0.492609
0.384803
0.307057
0.249089
0.205039
0.171073
0.644
0.492272
0.383994
0.305838
0.247975
0.203996
0.17005
0.643989
0.492259
0.383976
0.305812
0.24794
0.203948
0.169983
0.645374
0.492579
0.384764
0.306999
0.24901
0.204929
0.649764
0.496993
0.38945
0.31125
0.252923
0.208907
0.740271
0.565884
0.443895
0.35598
0.290868
0.24132
0.720652
0.594568
0.502475
0.432633
0.379222
0.336211
0.740271
0.565884
0.443896
0.355979
0.290868
0.241321
0.202841
0.562047
0.415362
0.315941
0.246323
0.19621
0.159203
0.131226
0.618635
0.453964
0.342041
0.263659
0.207323
0.165916
0.134864
0.666467
0.489556
0.368608
0.283621
0.222407
0.177352
0.143555
0.692728
0.509645
0.384025
0.295515
0.231661
0.184608
0.149279
0.692722
0.509637
0.384016
0.295503
0.231647
0.18459
0.149256
0.666454
0.489541
0.368589
0.283597
0.222377
0.177314
0.618627
0.453954
0.342027
0.263641
0.2073
0.165888
0.562047
0.415362
0.315941
0.246323
0.19621
0.159203
0.740278
0.565893
0.443914
0.356009
0.290914
0.241393
0.649764
0.496993
0.38945
0.31125
0.252923
0.208907
0.175114
0.618627
0.453954
0.342027
0.263641
0.2073
0.165887
0.134827
0.725635
0.532155
0.399148
0.305544
0.23822
0.188823
0.151913
0.804591
0.594208
0.447522
0.343217
0.267641
0.211908
0.170131
0.843157
0.625693
0.472852
0.363488
0.283858
0.224911
0.180595
0.843153
0.625688
0.472846
0.36348
0.283849
0.2249
0.180581
0.804585
0.5942
0.447512
0.343204
0.267626
0.21189
0.725635
0.532155
0.399148
0.305545
0.238221
0.188825
0.618635
0.453964
0.342041
0.263659
0.207323
0.165916
0.649786
0.497022
0.3895
0.311315
0.253011
0.20903
0.645374
0.492579
0.384764
0.306999
0.24901
0.20493
0.170919
0.666454
0.489541
0.368589
0.283596
0.222376
0.177313
0.143507
0.804585
0.5942
0.447512
0.343204
0.267625
0.211889
0.170107
0.896487
0.669456
0.508122
0.391656
0.306285
0.242784
0.194888
0.938713
0.705584
0.538337
0.416595
0.32673
0.259501
0.208559
0.938711
0.705583
0.538335
0.416592
0.326727
0.259498
0.208556
0.896487
0.669456
0.508122
0.391656
0.306286
0.242785
0.804591
0.594208
0.447522
0.343217
0.267641
0.211908
0.666467
0.489556
0.368608
0.283621
0.222407
0.177351
0.645397
0.492609
0.384803
0.307057
0.249089
0.205038
0.643989
0.492259
0.383976
0.305812
0.24794
0.203948
0.169983
0.692722
0.509637
0.384016
0.295503
0.231646
0.18459
0.149256
0.843153
0.625688
0.472846
0.36348
0.283848
0.224899
0.18058
0.938711
0.705583
0.538335
0.416592
0.326727
0.259498
0.208556
0.981305
0.742925
0.57021
0.443351
0.348968
0.277889
0.223737
0.981305
0.742925
0.57021
0.443351
0.348968
0.277889
0.223737
0.938713
0.705584
0.538336
0.416594
0.32673
0.259501
0.843157
0.625693
0.472852
0.363488
0.283858
0.22491
0.692728
0.509645
0.384025
0.295515
0.231661
0.184607
0.643999
0.492272
0.383993
0.305838
0.247974
0.203994
0.643999
0.492272
0.383994
0.305838
0.247975
0.203996
0.17005
0.692728
0.509645
0.384025
0.295515
0.231661
0.184608
0.149279
0.843157
0.625693
0.472852
0.363488
0.283858
0.224911
0.180595
0.938713
0.705584
0.538337
0.416595
0.32673
0.259501
0.20856
0.981305
0.742925
0.57021
0.443351
0.348968
0.277889
0.223737
0.981305
0.742925
0.57021
0.443351
0.348968
0.277889
0.223737
0.938711
0.705583
0.538335
0.416592
0.326727
0.259498
0.843153
0.625688
0.472846
0.36348
0.283848
0.224899
0.692721
0.509637
0.384016
0.295503
0.231647
0.184589
0.643989
0.492259
0.383976
0.305812
0.24794
0.203946
0.645397
0.492609
0.384803
0.307057
0.249089
0.205039
0.171073
0.666467
0.489556
0.368608
0.283621
0.222408
0.177352
0.143556
0.804591
0.594208
0.447522
0.343217
0.267641
0.211909
0.170132
0.896487
0.669456
0.508122
0.391656
0.306286
0.242785
0.194888
0.938711
0.705583
0.538335
0.416592
0.326727
0.259498
0.208556
1.26863
0.938713
0.705584
0.538336
0.416594
0.32673
0.259501
0.20856
1.22111
0.896486
0.669456
0.508122
0.391656
0.306286
0.242785
1.11236
0.804584
0.5942
0.447512
0.343204
0.267625
0.21189
0.933534
0.666454
0.489541
0.368589
0.283597
0.222377
0.177314
0.869469
0.645374
0.492579
0.384764
0.306999
0.24901
0.204929
0.649786
0.497022
0.3895
0.311315
0.253011
0.209029
0.175287
0.618635
0.453964
0.342041
0.263659
0.207323
0.165917
0.134865
0.725635
0.532155
0.399148
0.305545
0.238221
0.188824
0.151914
0.804585
0.5942
0.447512
0.343204
0.267625
0.211889
0.170107
0.843153
0.625688
0.472846
0.36348
0.283848
0.224899
0.18058
1.15829
0.843158
0.625693
0.472852
0.363488
0.283858
0.224911
0.180594
1.11236
0.804591
0.594208
0.447522
0.343217
0.267641
0.211909
1.0141
0.725634
0.532155
0.399148
0.305545
0.238221
0.188825
0.869286
0.618626
0.453954
0.342027
0.263641
0.2073
0.165888
0.873564
0.649764
0.496993
0.38945
0.31125
0.252923
0.208907
0.740278
0.565892
0.443914
0.356008
0.290914
0.241393
0.202992
0.562047
0.415362
0.315941
0.246323
0.19621
0.159203
0.131226
0.618627
0.453954
0.342027
0.263641
0.207299
0.165886
0.134826
0.666454
0.489541
0.368589
0.283596
0.222376
0.177313
0.143507
0.692721
0.509637
0.384016
0.295503
0.231646
0.184589
0.149255
0.967836
0.692728
0.509645
0.384025
0.295515
0.231661
0.184608
0.149278
0.933544
0.666467
0.489556
0.368608
0.283621
0.222408
0.177352
0.869293
0.618635
0.453964
0.342041
0.263659
0.207323
0.165917
0.786929
0.562046
0.415362
0.31594
0.246323
0.19621
0.159203
0.998641
0.740271
0.565884
0.443895
0.355979
0.290868
0.24132
0.720651
0.594568
0.502474
0.432634
0.379218
0.336216
0.299706
0.740271
0.565883
0.443895
0.355979
0.290868
0.24132
0.202841
0.649763
0.496993
0.389449
0.31125
0.252923
0.208907
0.175113
0.645374
0.492579
0.384763
0.306999
0.24901
0.204929
0.170918
0.643989
0.492259
0.383976
0.305812
0.24794
0.203948
0.169983
0.866513
0.643999
0.492272
0.383993
0.305838
0.247975
0.203996
0.17005
0.869487
0.645397
0.492609
0.384803
0.307057
0.249089
0.205038
0.87358
0.649785
0.497022
0.3895
0.311315
0.253011
0.20903
0.998646
0.740278
0.565892
0.443914
0.356009
0.290914
0.241393
0.902005
0.720651
0.594568
0.502475
0.432632
0.379221
0.336211
)
;

boundaryField
{
    inlet
    {
        type            fixedValue;
        value           nonuniform List<scalar> 0();
    }
    ami1
    {
        type            cyclicAMI;
        value           nonuniform List<scalar> 0();
    }
    walls
    {
        type            epsilonWallFunction;
        blending        stepwise;
        value           nonuniform List<scalar> 
271
(
0.869469
0.873564
0.998641
0.902005
0.720652
0.740278
0.649786
0.645397
0.643999
0.643989
0.645374
0.649764
0.740271
0.720651
0.594568
0.565893
0.497022
0.492609
0.492272
0.492259
0.492579
0.496993
0.565884
0.594568
0.502475
0.443914
0.3895
0.384803
0.383993
0.383976
0.384764
0.38945
0.443895
0.502475
0.432633
0.356009
0.311315
0.307057
0.305838
0.305812
0.306999
0.31125
0.355979
0.432632
0.379222
0.290914
0.253011
0.249089
0.247974
0.24794
0.24901
0.252923
0.290868
0.379221
0.336211
0.241393
0.20903
0.205038
0.203994
0.203946
0.204929
0.208907
0.24132
0.336211
0.720652
0.740278
0.649786
0.645397
0.644
0.643989
0.645374
0.649764
0.740271
0.720652
0.594569
0.565892
0.497022
0.492609
0.492272
0.492259
0.492579
0.496993
0.565884
0.594568
0.502474
0.443914
0.3895
0.384803
0.383994
0.383976
0.384764
0.38945
0.443895
0.502475
0.432635
0.356008
0.311315
0.307057
0.305838
0.305812
0.306999
0.31125
0.35598
0.432633
0.379218
0.290914
0.253012
0.249089
0.247975
0.24794
0.24901
0.252923
0.290868
0.379222
0.336217
0.241393
0.20903
0.205039
0.203996
0.203948
0.204929
0.208907
0.24132
0.336211
0.299706
0.202992
0.175287
0.171073
0.17005
0.169983
0.720652
0.740271
0.649764
0.645374
0.643989
0.643999
0.645397
0.649786
0.740278
0.720651
0.594569
0.565884
0.496993
0.492579
0.492259
0.492272
0.492609
0.497022
0.565892
0.594568
0.502474
0.443896
0.38945
0.384764
0.383976
0.383994
0.384803
0.3895
0.443914
0.502474
0.432635
0.355979
0.31125
0.306999
0.305812
0.305838
0.307057
0.311315
0.356008
0.432634
0.379218
0.290868
0.252923
0.24901
0.24794
0.247975
0.249089
0.253011
0.290914
0.379218
0.336217
0.241321
0.208907
0.20493
0.203948
0.203996
0.205039
0.209029
0.241393
0.336216
0.299706
0.202841
0.175114
0.170919
0.169983
0.17005
0.171073
0.175287
0.202992
0.299706
0.866513
0.869487
0.87358
0.998646
0.902005
0.720651
0.740271
0.649763
0.645374
0.643989
0.643999
0.645397
0.649785
0.740278
0.720651
0.594568
0.565883
0.496993
0.492579
0.492259
0.492272
0.492609
0.497022
0.565892
0.594568
0.502474
0.443895
0.389449
0.384763
0.383976
0.383993
0.384803
0.3895
0.443914
0.502475
0.432634
0.355979
0.31125
0.306999
0.305812
0.305838
0.307057
0.311315
0.356009
0.432632
0.379218
0.290868
0.252923
0.24901
0.24794
0.247975
0.249089
0.253011
0.290914
0.379221
0.336216
0.24132
0.208907
0.204929
0.203948
0.203996
0.205038
0.20903
0.241393
0.336211
0.299706
0.202841
0.175113
0.170918
0.169983
0.17005
)
;
    }
    ami2
    {
        type            cyclicAMI;
        value           nonuniform List<scalar> 0();
    }
    outlet
    {
        type            zeroGradient;
    }
    procBoundary3to2
    {
        type            processor;
        value           nonuniform List<scalar> 
110
(
0.269933
0.173102
0.148934
0.144521
0.143476
0.14338
0.170917
0.170917
0.175113
0.202843
0.299712
0.172885
0.109747
0.111164
0.117774
0.122303
0.122275
0.143508
0.143508
0.134831
0.131233
0.202994
0.148674
0.111119
0.123875
0.138338
0.146795
0.146778
0.170108
0.170108
0.151916
0.134867
0.175288
0.1443
0.117717
0.138309
0.158282
0.169487
0.169483
0.194888
0.194888
0.170131
0.143554
0.171073
0.14338
0.122275
0.146778
0.169483
0.182021
0.182021
0.208559
0.208559
0.180594
0.149276
0.170049
0.143476
0.122303
0.146795
0.169487
0.182021
0.182021
0.208556
0.208556
0.18058
0.149253
0.169981
0.144521
0.117774
0.138338
0.158282
0.169483
0.169487
0.194888
0.194888
0.170108
0.143508
0.170917
0.148934
0.111165
0.123875
0.138309
0.146778
0.146795
0.170131
0.170131
0.151916
0.134831
0.175113
0.173102
0.109747
0.11112
0.117717
0.122275
0.122303
0.143554
0.143554
0.134867
0.131233
0.202842
0.269933
0.172884
0.148673
0.144299
0.14338
0.143476
0.171072
0.171072
0.175288
0.202994
0.299711
)
;
    }
    procBoundary3to4
    {
        type            processor;
        value           nonuniform List<scalar> 
109
(
0.902005
0.998646
0.873581
0.869488
0.866513
0.866505
0.86947
0.873564
0.998641
0.902005
0.998641
0.786929
0.869292
0.933544
0.967836
0.967831
0.933534
0.869286
0.786929
0.998646
0.873564
0.869285
1.0141
1.11236
1.15829
1.15828
1.11236
1.0141
0.869292
0.87358
0.86947
0.933534
1.11236
1.22111
1.26863
1.26863
1.22111
1.11236
0.933544
0.869487
0.866505
0.967831
1.15828
1.26863
1.31522
1.31522
1.26863
1.15829
0.967836
0.866513
0.866513
0.967836
1.15829
1.26863
1.31522
1.31522
1.31522
1.26863
1.26863
1.15828
1.15828
0.967831
0.967831
0.866505
0.866505
0.869487
0.933544
1.11236
1.22111
1.26863
1.26863
1.74299
1.6928
1.57142
1.3512
1.2275
0.87358
0.869292
1.0141
1.11236
1.15828
1.15828
1.62326
1.57142
1.45499
1.26609
1.22698
0.998646
0.786928
0.869285
0.933534
0.967831
0.967831
1.39506
1.35121
1.2661
1.14759
1.40266
0.902005
0.998641
0.873564
0.869469
0.866505
0.866505
1.2267
1.22751
1.227
1.40266
1.18306
)
;
    }
}


// ************************************************************************* //
