/*--------------------------------*- C++ -*----------------------------------*\
| =========                 |                                                 |
| \\      /  F ield         | OpenFOAM: The Open Source CFD Toolbox           |
|  \\    /   O peration     | Version:  2212                                  |
|   \\  /    A nd           | Website:  www.openfoam.com                      |
|    \\/     M anipulation  |                                                 |
\*---------------------------------------------------------------------------*/
FoamFile
{
    version     2.0;
    format      ascii;
    arch        "LSB;label=32;scalar=64";
    class       volScalarField;
    location    "2";
    object      epsilon;
}
// * * * * * * * * * * * * * * * * * * * * * * * * * * * * * * * * * * * * * //

dimensions      [0 2 -3 0 0 0 0];

internalField   nonuniform List<scalar> 
678
(
0.080092
0.0788876
0.0777067
0.0765125
0.0754859
0.0736184
0.0293779
0.0288603
0.0283806
0.0279157
0.0274769
0.0269687
0.0192866
0.0189112
0.0185441
0.018188
0.0178425
0.0174946
0.0143621
0.0140571
0.0137696
0.0134939
0.0132175
0.0124023
0.0121272
0.0118697
0.0116277
0.0113998
0.0114178
0.0111845
0.0109562
0.0107391
0.0116559
0.0114087
0.0111678
0.0109362
0.0129736
0.0126929
0.0124219
0.0121591
0.0164361
0.0161111
0.0158051
0.0154876
0.0266029
0.0261492
0.0257199
0.0253388
0.0248764
0.0788354
0.0776323
0.0764056
0.0753547
0.0733888
0.0266065
0.0261833
0.025776
0.025405
0.0249593
0.0103224
0.0100389
0.00969661
0.00940645
0.00915311
0.0088807
0.00682729
0.00662444
0.00641386
0.00612833
0.00590086
0.00563204
0.00547659
0.00533384
0.00506431
0.00492272
0.00506158
0.00491981
0.00479533
0.00455683
0.00441734
0.00481674
0.00468679
0.00450188
0.00439504
0.00414307
0.00478478
0.00464411
0.00445657
0.00434441
0.00407074
0.00492014
0.00473352
0.00457443
0.00423302
0.00582722
0.00557305
0.00537161
0.00502895
0.00983413
0.0095184
0.00915919
0.00884291
0.0288703
0.0283806
0.0279061
0.0274573
0.0269323
0.0164485
0.0161331
0.0158415
0.0155369
0.00597082
0.00573511
0.00548198
0.00523379
0.00504527
0.00434415
0.00421434
0.00410065
0.00385196
0.00371814
0.00392919
0.00381327
0.00370531
0.00355235
0.00342161
0.00382998
0.00370974
0.00359054
0.00347437
0.00336105
0.00380502
0.00368462
0.00356463
0.00344762
0.00332997
0.00381189
0.00370044
0.00356232
0.00345048
0.00324971
0.00384953
0.00374038
0.00363128
0.00348451
0.00331981
0.00437085
0.00428234
0.00405218
0.00396494
0.00370746
0.0067048
0.00647149
0.00624914
0.00589393
0.0189213
0.0185574
0.0182012
0.0178521
0.0174953
0.0129942
0.0127135
0.0124464
0.0121903
0.00493343
0.00474201
0.00447587
0.00426893
0.00386303
0.00374565
0.00362356
0.00348803
0.0033137
0.00368593
0.0036154
0.00345851
0.00332092
0.00310284
0.00371181
0.00364453
0.00348212
0.00334713
0.00313712
0.00374186
0.0036686
0.00349612
0.00335896
0.00315209
0.00378108
0.00371027
0.00357458
0.00341598
0.00329363
0.00309728
0.00366872
0.00360406
0.00343675
0.00330814
0.00309531
0.00396053
0.00386205
0.00370058
0.00361033
0.00338171
0.00564798
0.00553226
0.00525514
0.00513833
0.0048762
0.0143708
0.0140652
0.0137776
0.0135027
0.0132262
0.011931
0.0116812
0.011433
0.0111919
0.0109621
0.00479261
0.00465243
0.00445914
0.0043321
0.00405946
0.00392236
0.00379453
0.00366847
0.00355165
0.00342551
0.00324956
0.00379014
0.00371924
0.00357989
0.00341248
0.00328242
0.00308263
0.00386588
0.00379521
0.00365209
0.00348611
0.00335327
0.00315742
0.00389698
0.00383234
0.00368633
0.00352332
0.0033917
0.00319611
0.00384956
0.00378218
0.00364316
0.00347935
0.00334997
0.00315553
0.00377649
0.00371011
0.00357168
0.00341164
0.00328818
0.0030933
0.00395202
0.00382555
0.00370273
0.00358668
0.00348323
0.00328817
0.00518461
0.00504548
0.00492492
0.00467927
0.00458756
0.00435541
0.0124092
0.0121356
0.0118802
0.0116408
0.0114148
0.0117192
0.0114494
0.0112104
0.01098
0.0107641
0.00482127
0.00467607
0.00455039
0.00430076
0.00415791
0.00406061
0.00393262
0.00377164
0.00365228
0.00353897
0.00340617
0.00327299
0.00393835
0.00386008
0.00370481
0.00354985
0.00339208
0.00326952
0.0030796
0.004033
0.00394932
0.00378969
0.00363348
0.003475
0.00334666
0.00315897
0.00395775
0.00388744
0.00372787
0.0035597
0.00342348
0.00322633
0.00389192
0.0038267
0.00367845
0.00351433
0.00338188
0.00318605
0.00379778
0.00373237
0.00358627
0.00342421
0.00329685
0.00310369
0.00391935
0.00378843
0.00366192
0.00354188
0.00342143
0.0032794
0.00494366
0.00479215
0.00467246
0.00442589
0.00433519
0.00410302
0.0119338
0.0116977
0.011434
0.0111997
0.0109736
0.0107605
0.0127101
0.0124264
0.0121508
0.0118941
0.0116531
0.0114259
0.00518939
0.00504674
0.0049221
0.00467954
0.00458149
0.00435366
0.00395189
0.00381963
0.00369226
0.00357628
0.00346197
0.00327026
0.00379408
0.00372512
0.0035696
0.00340015
0.00326901
0.00306997
0.00384392
0.00377413
0.00362311
0.00345534
0.00332084
0.00312568
0.0038875
0.00382013
0.00367348
0.00350684
0.00337213
0.00317556
0.00384668
0.00378133
0.00363558
0.0034706
0.00333857
0.00314181
0.00377812
0.00371083
0.00357154
0.00340494
0.00327599
0.00307686
0.00390547
0.00377671
0.00365165
0.00353374
0.0034085
0.0032344
0.00489435
0.00474679
0.00462135
0.00436356
0.00426596
0.00402313
0.0121729
0.0119241
0.0116729
0.0114274
0.0111914
0.0109672
0.0147018
0.0143835
0.0140849
0.0137978
0.013526
0.0132497
0.00574985
0.00560079
0.00545408
0.00519592
0.00509298
0.0048569
0.00402802
0.00390695
0.00379636
0.00363653
0.00354355
0.00332931
0.00373034
0.00366559
0.00352834
0.00336281
0.00323505
0.00303475
0.00374624
0.00367871
0.00354444
0.0033787
0.00324724
0.00305302
0.00378292
0.00371371
0.00357201
0.00340671
0.00327565
0.00308425
0.00376925
0.00370177
0.00355439
0.00339033
0.0032623
0.00306622
0.00375152
0.00368101
0.00354181
0.00336923
0.00324392
0.00304174
0.00395906
0.00383764
0.00374098
0.00353088
0.00344157
0.00322311
0.00515871
0.00498515
0.00483143
0.00453924
0.00442748
0.00416778
0.0135708
0.0132792
0.0129923
0.0127183
0.0124595
0.0122108
0.0193234
0.0189466
0.0185809
0.0182299
0.0178914
0.0175472
0.00697318
0.0068002
0.00655667
0.00633478
0.0061312
0.00587417
0.00444921
0.00432119
0.00419767
0.00395889
0.00386452
0.00364524
0.00392927
0.0038071
0.00369159
0.00353777
0.00343214
0.00321242
0.00387022
0.00374521
0.00362056
0.00350085
0.00338307
0.00321853
0.00390369
0.00377168
0.0036422
0.00352176
0.00339358
0.00327093
0.00393784
0.00380719
0.00368069
0.0035608
0.00345228
0.00327233
0.004042
0.00392018
0.00381758
0.00363204
0.00354625
0.00333398
0.00445874
0.00433444
0.00421218
0.00397193
0.00388086
0.00365763
0.0061138
0.00589973
0.00568055
0.00542111
0.0052414
0.00504846
0.0171609
0.0168117
0.0164765
0.0161654
0.0158756
0.015574
0.0294315
0.0289259
0.0284498
0.0279872
0.0275511
0.0270521
0.0103454
0.0100797
0.00973812
0.00945724
0.00921128
0.00895064
0.00613534
0.00592389
0.00565256
0.00546113
0.00526424
0.00503474
0.00515566
0.00497922
0.00482284
0.00453613
0.00441913
0.00417018
0.00487481
0.00472768
0.00459749
0.00435316
0.00424648
0.00401729
0.00491875
0.00478408
0.00460098
0.00448161
0.00425174
0.00411981
0.00516961
0.00502606
0.00489891
0.00465641
0.0045569
0.00433717
0.00574326
0.00559149
0.0054435
0.00518532
0.00507759
0.00484724
0.00696362
0.00679501
0.00653405
0.00633394
0.0061066
0.00588027
0.0103247
0.0100563
0.00971598
0.00943492
0.0091937
0.00893673
0.0271219
0.0266666
0.0262453
0.0258381
0.0254656
0.0250249
0.080324
0.0791238
0.0779245
0.0767062
0.0756825
0.0738337
0.0271512
0.026698
0.0262759
0.025868
0.0254966
0.025064
0.0178888
0.0175359
0.0171967
0.0168544
0.0165214
0.0162107
0.0159217
0.0156237
0.0139013
0.0136076
0.0133194
0.0130358
0.0127647
0.0125086
0.012263
0.0125107
0.0122083
0.0119575
0.0117096
0.0114675
0.0112354
0.0110154
0.0120166
0.0117066
0.0114675
0.0112342
0.0110109
0.0108024
0.0127238
0.0124331
0.0121653
0.0119125
0.0116768
0.0114552
0.0147034
0.0143918
0.0140946
0.0138122
0.0135443
0.0132738
0.0193242
0.01895
0.0185879
0.0182409
0.0179061
0.0175665
0.0294248
0.028923
0.0284518
0.0279933
0.0275603
0.0270614
0.0802816
0.0790901
0.0778983
0.0766814
0.0756581
0.0738173
)
;

boundaryField
{
    inlet
    {
        type            fixedValue;
        value           nonuniform List<scalar> 0();
    }
    ami1
    {
        type            cyclicAMI;
        value           nonuniform List<scalar> 0();
    }
    walls
    {
        type            epsilonWallFunction;
        blending        stepwise;
        value           nonuniform List<scalar> 
244
(
0.080092
0.0293779
0.0192866
0.0788876
0.0288603
0.0189112
0.0143621
0.0124023
0.0266029
0.0788354
0.0777067
0.0283806
0.0185441
0.0140571
0.0121272
0.0114178
0.0116559
0.0129736
0.0164361
0.0261492
0.0776323
0.0765125
0.0279157
0.018188
0.0137696
0.0118697
0.0111845
0.0114087
0.0126929
0.0161111
0.0257199
0.0764056
0.0754859
0.0274769
0.0178425
0.0134939
0.0116277
0.0109562
0.0111678
0.0124219
0.0158051
0.0253388
0.0753547
0.0736184
0.0269687
0.0174946
0.0132175
0.0113998
0.0107391
0.0109362
0.0121591
0.0154876
0.0248764
0.0733888
0.0119338
0.0121729
0.0135708
0.0171609
0.0271219
0.0802816
0.0788354
0.0288703
0.0189213
0.0143708
0.0124092
0.0116977
0.0119241
0.0132792
0.0168117
0.0266666
0.0790901
0.0776323
0.0283806
0.0185574
0.0140652
0.0121356
0.011434
0.0116729
0.0129923
0.0164765
0.0262453
0.0778983
0.0764056
0.0279061
0.0182012
0.0137776
0.0118802
0.0111997
0.0114274
0.0127183
0.0161654
0.0258381
0.0766814
0.0753547
0.0274573
0.0178521
0.0135027
0.0116408
0.0109736
0.0111914
0.0124595
0.0158756
0.0254656
0.0756581
0.0733888
0.0269323
0.0174953
0.0132262
0.0114148
0.0107605
0.0109672
0.0122108
0.015574
0.0250249
0.0738173
0.0178888
0.0175359
0.0139013
0.0125107
0.080324
0.0271512
0.0171967
0.0136076
0.0122083
0.0120166
0.0127238
0.0147034
0.0193242
0.0294248
0.0802816
0.0791238
0.026698
0.0168544
0.0133194
0.0119575
0.0117066
0.0124331
0.0143918
0.01895
0.028923
0.0790901
0.0779245
0.0262759
0.0165214
0.0130358
0.0117096
0.0114675
0.0121653
0.0140946
0.0185879
0.0284518
0.0778983
0.0767062
0.025868
0.0162107
0.0127647
0.0114675
0.0112342
0.0119125
0.0138122
0.0182409
0.0279933
0.0766814
0.0756825
0.0254966
0.0159217
0.0125086
0.0112354
0.0110109
0.0116768
0.0135443
0.0179061
0.0275603
0.0756581
0.0738337
0.025064
0.0156237
0.012263
0.0110154
0.0108024
0.0114552
0.0132738
0.0175665
0.0270614
0.0738173
0.080092
0.0127101
0.0147018
0.0193234
0.0294315
0.080324
0.0788876
0.0266065
0.011931
0.0117192
0.0124264
0.0143835
0.0189466
0.0289259
0.0791238
0.0777067
0.0261833
0.0164485
0.0129942
0.0116812
0.0114494
0.0121508
0.0140849
0.0185809
0.0284498
0.0779245
0.0765125
0.025776
0.0161331
0.0127135
0.011433
0.0112104
0.0118941
0.0137978
0.0182299
0.0279872
0.0767062
0.0754859
0.025405
0.0158415
0.0124464
0.0111919
0.01098
0.0116531
0.013526
0.0178914
0.0275511
0.0756825
0.0736184
0.0249593
0.0155369
0.0121903
0.0109621
0.0107641
0.0114259
0.0132497
0.0175472
0.0270521
0.0738337
)
;
    }
    ami2
    {
        type            cyclicAMI;
        value           nonuniform List<scalar> 0();
    }
    outlet
    {
        type            zeroGradient;
    }
    procBoundary6to5
    {
        type            processor;
        value           nonuniform List<scalar> 
177
(
0.0815282
0.027089
0.0299219
0.0196844
0.0146708
0.00685952
0.0146708
0.0126864
0.0116869
0.0116869
0.0116869
0.0119163
0.0119163
0.0132701
0.0167896
0.0167896
0.0271067
0.00999936
0.0801481
0.027089
0.027089
0.0168003
0.0105333
0.00685952
0.0060351
0.00685952
0.00561726
0.00504375
0.0048046
0.00475125
0.00486355
0.00486355
0.00486355
0.00583232
0.00583232
0.00999936
0.00999936
0.0294011
0.0168003
0.0168003
0.0060351
0.00490062
0.00431381
0.00390096
0.00381135
0.00378945
0.00378421
0.00378421
0.00381036
0.00432415
0.00671427
0.00671427
0.00671427
0.00671427
0.019303
0.013291
0.013291
0.00490062
0.00490062
0.00490062
0.0038229
0.0038229
0.00361419
0.00361419
0.00364053
0.00364053
0.0037085
0.0037085
0.0037085
0.00374295
0.00362649
0.00362649
0.00362649
0.00393512
0.00393512
0.0056469
0.0056469
0.0146842
0.0122009
0.00476479
0.00476479
0.00392738
0.00392738
0.00375026
0.00375026
0.003823
0.003823
0.00385081
0.00380904
0.00373958
0.00396102
0.00522059
0.0127017
0.0127017
0.0127017
0.0119554
0.0119554
0.00493114
0.00483707
0.00483707
0.00483707
0.00406352
0.00395301
0.00391071
0.00374808
0.00399895
0.00391783
0.00380344
0.00391783
0.00384627
0.00375666
0.00392297
0.00495479
0.0122779
0.0130168
0.0051842
0.00395301
0.00374808
0.00380344
0.00384188
0.0038013
0.00373468
0.00391546
0.00493047
0.0124836
0.0150249
0.00577951
0.00401393
0.00368793
0.00370117
0.00374146
0.00372768
0.00371614
0.00396555
0.00520622
0.0138772
0.0197171
0.00702084
0.00443416
0.00391002
0.00387886
0.00391002
0.00394756
0.00405661
0.00447738
0.00622114
0.0175131
0.0299684
0.0105643
0.0064503
0.00619715
0.00619715
0.00516054
0.00516054
0.00490807
0.00490807
0.00495845
0.00520709
0.00578029
0.00701782
0.010547
0.02762
0.0816801
0.0281466
0.0276485
0.0276485
0.0182646
0.0142092
0.0142092
0.0127853
0.0122521
0.0122521
0.0130169
0.0150302
0.0197169
0.0299603
0.0816351
)
;
    }
}


// ************************************************************************* //
