/*--------------------------------*- C++ -*----------------------------------*\
| =========                 |                                                 |
| \\      /  F ield         | OpenFOAM: The Open Source CFD Toolbox           |
|  \\    /   O peration     | Version:  2212                                  |
|   \\  /    A nd           | Website:  www.openfoam.com                      |
|    \\/     M anipulation  |                                                 |
\*---------------------------------------------------------------------------*/
FoamFile
{
    version     2.0;
    format      ascii;
    arch        "LSB;label=32;scalar=64";
    class       volScalarField;
    location    "2";
    object      k;
}
// * * * * * * * * * * * * * * * * * * * * * * * * * * * * * * * * * * * * * //

dimensions      [0 2 -2 0 0 0 0];

internalField   nonuniform List<scalar> 
678
(
0.0017403
0.00172301
0.00170611
0.00168896
0.00167417
0.0016468
0.00148288
0.00146561
0.00144952
0.00143389
0.00141908
0.00140177
0.00143934
0.00142067
0.00140238
0.00138439
0.00136692
0.00134924
0.0013648
0.00134609
0.00132756
0.00130998
0.00129214
0.00133627
0.0013169
0.00129823
0.00128064
0.00126398
0.00129683
0.00127872
0.00126124
0.00124465
0.00128284
0.00126478
0.00124708
0.00123001
0.00127647
0.00125822
0.00124053
0.00122327
0.00129493
0.00127812
0.00126223
0.00124561
0.00138877
0.00137327
0.0013586
0.00134557
0.00132955
0.00172221
0.00170493
0.0016873
0.00167215
0.00164329
0.00138902
0.00137456
0.00136068
0.00134801
0.00133259
0.000873961
0.000856215
0.000841952
0.000829679
0.000820055
0.000813883
0.000983748
0.000952653
0.000923295
0.000894596
0.000868046
0.00108378
0.00104776
0.00101154
0.000980042
0.00094053
0.00113251
0.00109272
0.00105352
0.00101815
0.000974075
0.00114782
0.00110458
0.00106558
0.00102624
0.00098027
0.00111663
0.0010736
0.00103423
0.000993746
0.000946691
0.000981624
0.000941065
0.000903742
0.000863095
0.00086456
0.000837876
0.000813386
0.000795541
0.00083769
0.000822192
0.000812681
0.000807952
0.00146587
0.00144946
0.0014335
0.00141833
0.00140044
0.00129566
0.00127935
0.00126423
0.00124829
0.000896591
0.000865835
0.000842592
0.00082245
0.000804109
0.00106013
0.00101835
0.000977146
0.000940927
0.000896648
0.00120453
0.00115555
0.00110851
0.00106331
0.00100844
0.00129592
0.00124256
0.00119203
0.00114213
0.00108189
0.00133355
0.00127787
0.00122534
0.00117337
0.00111096
0.0013061
0.00125052
0.00119845
0.00114675
0.00108548
0.00120265
0.00115066
0.00110104
0.00105297
0.00099494
0.00105895
0.00101513
0.000976292
0.000937631
0.000892384
0.000952965
0.000923014
0.000890674
0.000863874
0.00142117
0.00140299
0.00138508
0.00136735
0.00134923
0.00127782
0.00125958
0.00124215
0.00122535
0.000983379
0.000941875
0.000908246
0.000868794
0.00120396
0.00115207
0.00110243
0.0010545
0.000996988
0.0013821
0.00132248
0.00126671
0.00121226
0.00114865
0.0014978
0.00143439
0.00137497
0.00131676
0.00124946
0.00154061
0.00147582
0.00141519
0.00135582
0.00128749
0.00156698
0.00150223
0.00143964
0.00138091
0.00132297
0.00125597
0.00138154
0.00132196
0.00126656
0.00121225
0.00114873
0.00120385
0.00115327
0.0011071
0.00106135
0.00100723
0.00108327
0.00104435
0.00101202
0.000979383
0.000940718
0.00136552
0.00134648
0.00132808
0.00131051
0.00129267
0.00130302
0.00128471
0.00126654
0.00124885
0.0012319
0.00111944
0.00107611
0.00103633
0.000996792
0.000950336
0.00136277
0.00130603
0.00125131
0.00119939
0.00114825
0.0010874
0.0015677
0.00150252
0.00143978
0.00138111
0.00132342
0.00125681
0.001702
0.00163236
0.00156539
0.00150244
0.0014406
0.00137021
0.00175002
0.00167885
0.00161041
0.00154597
0.00148268
0.00141099
0.00170231
0.00163274
0.00156572
0.00150276
0.00144089
0.00137047
0.00156117
0.00149643
0.00143406
0.00137565
0.00131811
0.00125154
0.00134929
0.00129437
0.00124119
0.00119117
0.00114171
0.00108307
0.00117158
0.00113086
0.00108983
0.0010547
0.00101942
0.00097694
0.00133711
0.00131746
0.00129899
0.00128158
0.00126505
0.00131614
0.00129838
0.00128044
0.00126299
0.00124653
0.00114934
0.00110726
0.00106586
0.00102922
0.000984028
0.00144742
0.0013877
0.00133132
0.00127698
0.00122523
0.00117442
0.00111373
0.00167287
0.0016039
0.00153811
0.00147514
0.00141607
0.00135779
0.00129079
0.00182226
0.00174831
0.00167764
0.00160996
0.00154618
0.00148343
0.00141242
0.00180089
0.0017279
0.00165795
0.00159215
0.00152766
0.00145503
0.00175039
0.00167919
0.00161073
0.00154635
0.00148317
0.00141168
0.00160628
0.00153993
0.00147613
0.00141636
0.0013576
0.00129002
0.00138969
0.00133249
0.00127733
0.00122531
0.00117412
0.00111306
0.00119036
0.00114672
0.00110333
0.00106621
0.00102918
0.000984866
0.00133937
0.00131585
0.00129755
0.00127969
0.0012625
0.00124623
0.00135858
0.00133795
0.00131855
0.00129997
0.00128249
0.00126588
0.00117369
0.00113308
0.00109237
0.00105695
0.00102161
0.000979049
0.00135002
0.00129496
0.001242
0.00119217
0.0011432
0.00108523
0.00156221
0.00149692
0.00143445
0.00137621
0.00131912
0.00125325
0.00170334
0.00163367
0.00156678
0.00150399
0.00144246
0.00137259
0.0017508
0.00167969
0.0016113
0.00154699
0.00148395
0.00141269
0.00170282
0.00163325
0.0015663
0.0015034
0.0014417
0.00137157
0.00156793
0.0015028
0.00144003
0.00138137
0.00132379
0.00125737
0.00136224
0.00130555
0.0012507
0.00119887
0.0011481
0.00108778
0.00115879
0.00111573
0.00107241
0.00103543
0.000998234
0.000953947
0.0013222
0.00130224
0.00128398
0.00126607
0.00124877
0.00123226
0.0013861
0.00136674
0.00134757
0.00132945
0.001312
0.00129422
0.00112169
0.00108474
0.00104731
0.00101657
0.000985072
0.000947372
0.00125553
0.0012053
0.00115587
0.00111089
0.00106646
0.00101391
0.00144371
0.00138295
0.00132436
0.00126992
0.00121665
0.00115451
0.00157036
0.00150549
0.00144292
0.00138441
0.00132705
0.00126102
0.00160767
0.00154157
0.00147794
0.00141837
0.00135991
0.00129281
0.00156223
0.00149749
0.00143526
0.00137708
0.00131997
0.00125405
0.00144123
0.00138049
0.00132186
0.00126748
0.00121426
0.00115208
0.00125405
0.00120135
0.00114859
0.00110159
0.00105508
0.000999998
0.00106113
0.00101953
0.000977004
0.000944388
0.000912236
0.000875947
0.00131492
0.00129616
0.0012776
0.00125981
0.00124294
0.00122665
0.00144114
0.00142245
0.00140418
0.00138655
0.00136938
0.00135191
0.00101771
0.000985212
0.000954765
0.000929268
0.00090164
0.0008758
0.00110449
0.0010617
0.00101884
0.000982787
0.000946949
0.000904757
0.00125852
0.00120614
0.00115457
0.00110716
0.00106072
0.00100593
0.00136569
0.00130964
0.0012554
0.00120426
0.00115393
0.00109422
0.00139161
0.0013348
0.00128027
0.0012287
0.00117816
0.00111781
0.00135094
0.00129626
0.00124351
0.001194
0.0011453
0.00108752
0.0012541
0.00120394
0.0011542
0.00110967
0.00106553
0.00101323
0.00110114
0.00105816
0.00101504
0.000978976
0.000943189
0.000900982
0.000931685
0.000896112
0.000867217
0.000846243
0.00082625
0.000808522
0.0013321
0.0013142
0.00129696
0.0012809
0.00126589
0.00125014
0.00148464
0.00146777
0.0014518
0.00143626
0.00142154
0.00140456
0.000876244
0.000858062
0.000843887
0.000832095
0.000822834
0.000816722
0.000936087
0.000900817
0.00087171
0.000850004
0.000830016
0.000813342
0.00106756
0.00102635
0.000984586
0.000951816
0.0009199
0.000883996
0.00116355
0.00112151
0.00107904
0.00104299
0.00100652
0.000963396
0.00119309
0.00114945
0.00110937
0.00107016
0.00103511
0.000991878
0.00117386
0.00113379
0.00109357
0.00105914
0.00102483
0.000983518
0.00112134
0.00108463
0.00104746
0.00101709
0.000986243
0.000949309
0.00101627
0.000983634
0.000954181
0.000928369
0.000901502
0.000875961
0.000874896
0.000857135
0.000843426
0.00083192
0.00082275
0.000816695
0.00140644
0.00139093
0.00137656
0.00136268
0.00134997
0.00133474
0.00174354
0.00172635
0.00170918
0.00169167
0.00167693
0.00164985
0.00140748
0.00139204
0.00137763
0.00136371
0.00135104
0.00133608
0.0013692
0.0013513
0.00133398
0.0013164
0.00129928
0.00128324
0.00126828
0.00125272
0.00133599
0.00131727
0.00129871
0.00128039
0.0012628
0.00124612
0.00123004
0.00134167
0.00132345
0.0013045
0.00128656
0.00126895
0.00125195
0.00123576
0.00133625
0.00131872
0.00129957
0.00128215
0.00126525
0.00124937
0.00135869
0.00133891
0.00131945
0.00130129
0.00128416
0.00126796
0.00138654
0.00136712
0.00134824
0.00133031
0.00131314
0.00129572
0.00144119
0.0014226
0.0014045
0.00138704
0.00137007
0.00135284
0.00148439
0.00146764
0.00145184
0.00143644
0.00142183
0.00140486
0.0017429
0.00172584
0.00170878
0.0016913
0.00167657
0.00164963
)
;

boundaryField
{
    inlet
    {
        type            fixedValue;
        value           nonuniform List<scalar> 0();
    }
    ami1
    {
        type            cyclicAMI;
        value           nonuniform List<scalar> 0();
    }
    walls
    {
        type            kqRWallFunction;
        value           nonuniform List<scalar> 
244
(
0.0017403
0.00148288
0.00143934
0.00172301
0.00146561
0.00142067
0.0013648
0.00133627
0.00138877
0.00172221
0.00170611
0.00144952
0.00140238
0.00134609
0.0013169
0.00129683
0.00128284
0.00127647
0.00129493
0.00137327
0.00170493
0.00168896
0.00143389
0.00138439
0.00132756
0.00129823
0.00127872
0.00126478
0.00125822
0.00127812
0.0013586
0.0016873
0.00167417
0.00141908
0.00136692
0.00130998
0.00128064
0.00126124
0.00124708
0.00124053
0.00126223
0.00134557
0.00167215
0.0016468
0.00140177
0.00134924
0.00129214
0.00126398
0.00124465
0.00123001
0.00122327
0.00124561
0.00132955
0.00164329
0.00133937
0.0013222
0.00131492
0.0013321
0.00140644
0.0017429
0.00172221
0.00146587
0.00142117
0.00136552
0.00133711
0.00131585
0.00130224
0.00129616
0.0013142
0.00139093
0.00172584
0.00170493
0.00144946
0.00140299
0.00134648
0.00131746
0.00129755
0.00128398
0.0012776
0.00129696
0.00137656
0.00170878
0.0016873
0.0014335
0.00138508
0.00132808
0.00129899
0.00127969
0.00126607
0.00125981
0.0012809
0.00136268
0.0016913
0.00167215
0.00141833
0.00136735
0.00131051
0.00128158
0.0012625
0.00124877
0.00124294
0.00126589
0.00134997
0.00167657
0.00164329
0.00140044
0.00134923
0.00129267
0.00126505
0.00124623
0.00123226
0.00122665
0.00125014
0.00133474
0.00164963
0.0013692
0.0013513
0.00133599
0.00134167
0.00174354
0.00140748
0.00133398
0.00131727
0.00132345
0.00133625
0.00135869
0.00138654
0.00144119
0.00148439
0.0017429
0.00172635
0.00139204
0.0013164
0.00129871
0.0013045
0.00131872
0.00133891
0.00136712
0.0014226
0.00146764
0.00172584
0.00170918
0.00137763
0.00129928
0.00128039
0.00128656
0.00129957
0.00131945
0.00134824
0.0014045
0.00145184
0.00170878
0.00169167
0.00136371
0.00128324
0.0012628
0.00126895
0.00128215
0.00130129
0.00133031
0.00138704
0.00143644
0.0016913
0.00167693
0.00135104
0.00126828
0.00124612
0.00125195
0.00126525
0.00128416
0.00131314
0.00137007
0.00142183
0.00167657
0.00164985
0.00133608
0.00125272
0.00123004
0.00123576
0.00124937
0.00126796
0.00129572
0.00135284
0.00140486
0.00164963
0.0017403
0.00135858
0.0013861
0.00144114
0.00148464
0.00174354
0.00172301
0.00138902
0.00130302
0.00131614
0.00133795
0.00136674
0.00142245
0.00146777
0.00172635
0.00170611
0.00137456
0.00129566
0.00127782
0.00128471
0.00129838
0.00131855
0.00134757
0.00140418
0.0014518
0.00170918
0.00168896
0.00136068
0.00127935
0.00125958
0.00126654
0.00128044
0.00129997
0.00132945
0.00138655
0.00143626
0.00169167
0.00167417
0.00134801
0.00126423
0.00124215
0.00124885
0.00126299
0.00128249
0.001312
0.00136938
0.00142154
0.00167693
0.0016468
0.00133259
0.00124829
0.00122535
0.0012319
0.00124653
0.00126588
0.00129422
0.00135191
0.00140456
0.00164985
)
;
    }
    ami2
    {
        type            cyclicAMI;
        value           nonuniform List<scalar> 0();
    }
    outlet
    {
        type            zeroGradient;
    }
    procBoundary6to5
    {
        type            processor;
        value           nonuniform List<scalar> 
177
(
0.00176067
0.00140542
0.00150093
0.00145895
0.00138497
0.00101605
0.00138497
0.00135733
0.0013151
0.0013151
0.0013151
0.00130157
0.00130157
0.00129555
0.00131305
0.00131305
0.00140585
0.000858676
0.00174091
0.00140542
0.00140542
0.00131369
0.000895078
0.00101605
0.000933837
0.00101605
0.00112092
0.00117302
0.00119131
0.00115967
0.00102379
0.00102379
0.00102379
0.000898986
0.000898986
0.000858676
0.000858676
0.00148355
0.00131369
0.00131369
0.000933837
0.00102663
0.00110331
0.00125461
0.00135049
0.00139055
0.00136292
0.00136292
0.00125524
0.00110198
0.000986729
0.000986729
0.000986729
0.000986729
0.00144013
0.00129692
0.00129692
0.00102663
0.00102663
0.00102663
0.00125703
0.00125703
0.00144218
0.00144218
0.0015619
0.0015619
0.00160637
0.00160637
0.00160637
0.00163345
0.00144162
0.00144162
0.00144162
0.00125454
0.00125454
0.00112112
0.00112112
0.00138563
0.00132158
0.00116274
0.00116274
0.00142225
0.00142225
0.00163454
0.00163454
0.00177344
0.00177344
0.00182276
0.00177335
0.00162724
0.00140648
0.00121344
0.00135763
0.00135763
0.00135763
0.00133873
0.00133873
0.00123694
0.00119381
0.00119381
0.00119381
0.00150933
0.00140744
0.00174344
0.00162885
0.00189814
0.00187544
0.00177452
0.00187544
0.001823
0.0016738
0.00144904
0.00123582
0.00135669
0.00137982
0.00121533
0.00140744
0.00162885
0.00177452
0.00182333
0.00177374
0.0016343
0.00142123
0.00120341
0.0013403
0.00140703
0.00115991
0.00130751
0.00150544
0.00163649
0.00167503
0.00162813
0.00150313
0.00130904
0.00110335
0.00133444
0.0014606
0.00105008
0.00114888
0.00131267
0.00142395
0.00145062
0.00140786
0.00130664
0.00114603
0.000963625
0.00135009
0.00150245
0.000897243
0.000995938
0.000967504
0.000967504
0.00110887
0.00110887
0.00120768
0.00120768
0.00123832
0.00121551
0.00115962
0.00104855
0.00089553
0.00142333
0.0017628
0.00144117
0.00142433
0.00142433
0.00138817
0.00135556
0.00135556
0.00136525
0.00136138
0.00136138
0.00138053
0.00140706
0.00146058
0.00150218
0.00176214
)
;
    }
}


// ************************************************************************* //
