/*--------------------------------*- C++ -*----------------------------------*\
| =========                 |                                                 |
| \\      /  F ield         | OpenFOAM: The Open Source CFD Toolbox           |
|  \\    /   O peration     | Version:  2212                                  |
|   \\  /    A nd           | Website:  www.openfoam.com                      |
|    \\/     M anipulation  |                                                 |
\*---------------------------------------------------------------------------*/
FoamFile
{
    version     2.0;
    format      ascii;
    arch        "LSB;label=32;scalar=64";
    class       volScalarField;
    location    "2";
    object      p;
}
// * * * * * * * * * * * * * * * * * * * * * * * * * * * * * * * * * * * * * //

dimensions      [0 2 -2 0 0 0 0];

internalField   nonuniform List<scalar> 
678
(
0.000616531
0.000504934
0.000392116
0.000278605
0.000167721
5.08424e-05
0.000612154
0.000500807
0.000388424
0.000275777
0.000165016
5.0117e-05
0.00061002
0.0004996
0.000387817
0.000275593
0.000165383
5.04113e-05
0.000498381
0.00038696
0.000274825
0.000164966
5.00846e-05
0.000499981
0.000387971
0.00027568
0.000165732
5.03357e-05
0.000392373
0.000279411
0.000168335
5.11517e-05
0.000397116
0.000283505
0.000170951
5.25346e-05
0.000400533
0.000285944
0.000171836
5.31957e-05
0.000398126
0.000283185
0.0001692
5.21372e-05
0.000510315
0.000398074
0.000283159
0.000169219
5.20647e-05
0.000506064
0.000394225
0.000279938
0.000168188
5.04741e-05
0.000508973
0.000395396
0.000281194
0.000168513
5.23051e-05
0.000621678
0.00051032
0.000396726
0.00028236
0.000170308
5.32023e-05
0.000506058
0.000394178
0.000281397
0.000170733
5.38928e-05
0.000502397
0.000390806
0.000279277
0.000169098
5.375e-05
0.000501431
0.000388586
0.000277066
0.000167047
5.36779e-05
0.000503203
0.000389874
0.000277508
0.000166822
5.44721e-05
0.000501703
0.000388874
0.000277425
0.000167033
5.47254e-05
0.000393923
0.000282227
0.000171554
5.60193e-05
0.000397382
0.000284581
0.000173056
5.47685e-05
0.000399106
0.000284624
0.00017142
5.2931e-05
0.000501901
0.000390272
0.000276643
0.000164927
4.95849e-05
0.000395821
0.000281198
0.000168411
5.24305e-05
0.000509464
0.000397612
0.00028406
0.00017209
5.4686e-05
0.000491056
0.00038164
0.00027305
0.00016467
5.39146e-05
0.000480488
0.000371787
0.000264919
0.00015792
5.35989e-05
0.000472962
0.000364503
0.000258299
0.000152711
5.33971e-05
0.000471491
0.000363294
0.00025706
0.000151757
5.44048e-05
0.000471476
0.000363146
0.000257326
0.000152262
5.45451e-05
0.000480402
0.000370233
0.000263231
0.000157067
5.49552e-05
0.000490582
0.000379568
0.000271237
0.00016405
5.42723e-05
0.00039355
0.000281227
0.000171193
5.37605e-05
0.000500175
0.000388602
0.000275837
0.000165179
4.99044e-05
0.000399359
0.00028448
0.000170992
5.33092e-05
0.000394276
0.000282708
0.000171484
5.56107e-05
0.000480341
0.000370725
0.00026429
0.000157711
5.45371e-05
0.000468431
0.00036143
0.000257016
0.000152636
5.65279e-05
0.000459918
0.000354445
0.000251789
0.00014963
5.72665e-05
0.000458467
0.000353489
0.000251131
0.000149293
5.77793e-05
0.000568778
0.000459307
0.000354216
0.000251724
0.000149739
5.78315e-05
0.00046783
0.000360885
0.000256666
0.000152637
5.68908e-05
0.00047909
0.000371094
0.00026463
0.000157839
5.41501e-05
0.000502015
0.000389848
0.000278693
0.000168879
5.3588e-05
0.000498307
0.000386143
0.000273995
0.000164482
4.95793e-05
0.000509112
0.000395956
0.00028228
0.000170051
5.23054e-05
0.000500273
0.000387905
0.000277206
0.000166961
5.45495e-05
0.000582663
0.000471265
0.000363406
0.000257797
0.000152619
5.45675e-05
0.00056842
0.000460003
0.000355018
0.000252252
0.00015004
5.78707e-05
0.000559137
0.000452206
0.000349379
0.000248872
0.000149437
5.98014e-05
0.000557262
0.000450935
0.000348636
0.000248542
0.000149539
6.04217e-05
0.000559118
0.000452702
0.000349883
0.000249079
0.000149419
5.97683e-05
0.000569068
0.000460786
0.000355664
0.000252611
0.000150252
5.77214e-05
0.000582767
0.000472609
0.000365002
0.000258847
0.000153188
5.39998e-05
0.000614305
0.000500405
0.000388013
0.000276826
0.000166593
5.3416e-05
0.000498315
0.000385487
0.000273842
0.000164847
4.98789e-05
0.000504544
0.000391248
0.000278057
0.000167197
5.09521e-05
0.000501402
0.000388643
0.000276928
0.000166412
5.42286e-05
0.000693917
0.000581333
0.000470944
0.000363198
0.000257567
0.000152474
5.45597e-05
0.00067709
0.000567465
0.000460714
0.000355989
0.000252855
0.000150382
5.81855e-05
0.000666551
0.000557941
0.000453011
0.000350506
0.000249568
0.000149985
6.05228e-05
0.000555047
0.000450197
0.000348508
0.000248611
0.000149202
6.08655e-05
0.000557372
0.000451921
0.000349735
0.00024922
0.000149844
6.05105e-05
0.000567129
0.000460142
0.000355545
0.000252491
0.000150073
5.80927e-05
0.000581547
0.000472295
0.000364688
0.000258315
0.000152557
5.47231e-05
0.000615728
0.000502299
0.000389444
0.000277412
0.00016654
5.42352e-05
0.000616446
0.000502806
0.000389093
0.000276749
0.000166866
5.0811e-05
0.000610666
0.000498431
0.000385703
0.000274035
0.000164959
4.99211e-05
0.000614035
0.000500498
0.000388102
0.000276671
0.000166354
5.3332e-05
0.000582858
0.000473143
0.000365466
0.000259052
0.000153256
5.39151e-05
0.000568888
0.000461784
0.000357025
0.000253655
0.000150923
5.79184e-05
0.000559017
0.000453333
0.000350782
0.000249798
0.000149886
5.99154e-05
0.000557462
0.000452067
0.000349904
0.00024937
0.000149935
6.05141e-05
0.000559199
0.000453409
0.000350813
0.000249806
0.000149848
5.98921e-05
0.000568505
0.000461369
0.00035659
0.000253199
0.000150368
5.78924e-05
0.000582291
0.000473147
0.00036592
0.000259582
0.000153323
5.47217e-05
0.000613405
0.000500389
0.000388736
0.000277701
0.00016704
5.45835e-05
0.000619617
0.000506517
0.000392919
0.000280146
0.000169261
5.22739e-05
0.000608114
0.000496514
0.000384418
0.000273217
0.000164421
4.97005e-05
0.000613227
0.000501211
0.000389573
0.000278343
0.000168383
5.33062e-05
0.000590329
0.000480616
0.000372775
0.000265327
0.000157775
5.38284e-05
0.000578462
0.00047015
0.000363918
0.000258626
0.000153601
5.71278e-05
0.000568585
0.000461433
0.000356669
0.000253259
0.000150435
5.78893e-05
0.000567299
0.000460546
0.000356038
0.000252936
0.000150361
5.80914e-05
0.000569093
0.000462033
0.000357273
0.00025382
0.000150914
5.78299e-05
0.000578253
0.000470081
0.000364113
0.000258985
0.000153723
5.71125e-05
0.000590949
0.000481251
0.000373601
0.000266308
0.000158384
5.49541e-05
0.000617257
0.000504949
0.000392944
0.000281317
0.000170411
5.51874e-05
0.000622397
0.000509096
0.000394781
0.000281222
0.000169658
5.28741e-05
0.000609704
0.00049772
0.000385359
0.000273935
0.000164696
5.00906e-05
0.000616168
0.000504043
0.00039154
0.000279668
0.000170026
5.34083e-05
0.000601115
0.000490667
0.000381448
0.000272463
0.00016397
5.36763e-05
0.000590978
0.00048143
0.000373737
0.000266361
0.000158546
5.50517e-05
0.000582547
0.000473456
0.000366126
0.000259688
0.000153498
5.475e-05
0.000581835
0.000472865
0.00036503
0.000258563
0.000152838
5.45437e-05
0.000582868
0.000473557
0.000365967
0.000259469
0.000153501
5.39495e-05
0.000590135
0.000480532
0.000372805
0.00026545
0.000157864
5.38605e-05
0.00060126
0.000490637
0.000381343
0.000272335
0.000163714
5.34429e-05
0.000619749
0.000507065
0.000393828
0.000281231
0.000170751
5.40693e-05
0.000620163
0.000506812
0.000392464
0.00027889
0.000167473
5.21578e-05
0.000611663
0.00049913
0.000386169
0.00027409
0.000164208
4.9836e-05
0.000620905
0.000507551
0.000393507
0.000280337
0.000169331
5.27341e-05
0.000619479
0.000506865
0.000393675
0.00028116
0.00017076
5.41102e-05
0.00061671
0.000504585
0.000392766
0.000281279
0.000170473
5.5312e-05
0.000612853
0.000499883
0.00038836
0.000277497
0.00016696
5.45963e-05
0.000615252
0.000501835
0.000389174
0.000277106
0.000166442
5.42058e-05
0.000613504
0.000500068
0.000387729
0.00027638
0.000166245
5.33284e-05
0.000612747
0.000500758
0.000389138
0.000277954
0.000168136
5.32421e-05
0.000615855
0.000503753
0.000391265
0.000279405
0.000169839
5.33554e-05
0.000620742
0.000507429
0.000393273
0.000279998
0.000169279
5.28631e-05
0.000620199
0.000506662
0.000392385
0.000278861
0.00016737
5.19817e-05
0.000615699
0.000502765
0.00038933
0.000276489
0.000166608
5.04122e-05
0.000619857
0.000506328
0.000392157
0.000278775
0.000167188
5.18108e-05
0.000842839
0.000731101
0.000619583
0.000506148
0.000392043
0.000278754
0.000167125
5.19058e-05
0.000732562
0.000621525
0.000508287
0.000394104
0.000280737
0.000169298
5.27936e-05
0.000729632
0.000618408
0.000505424
0.000391926
0.000279339
0.000168663
5.21574e-05
0.000615058
0.000501448
0.000387985
0.00027587
0.000166069
5.08161e-05
0.000608905
0.000496431
0.00038373
0.000272554
0.00016406
4.97877e-05
0.00060688
0.000495233
0.000383212
0.000272237
0.00016377
4.95937e-05
0.00060885
0.000496814
0.000384524
0.000273276
0.000164278
5.00546e-05
0.000610998
0.00049845
0.00038549
0.000273497
0.000163849
4.97809e-05
0.000615568
0.000502623
0.000389117
0.000276274
0.000166549
5.05073e-05
)
;

boundaryField
{
    inlet
    {
        type            zeroGradient;
    }
    ami1
    {
        type            cyclicAMI;
        value           nonuniform List<scalar> 0();
    }
    walls
    {
        type            zeroGradient;
    }
    ami2
    {
        type            cyclicAMI;
        value           nonuniform List<scalar> 0();
    }
    outlet
    {
        type            fixedValue;
        value           uniform 0;
    }
    procBoundary6to5
    {
        type            processor;
        value           nonuniform List<scalar> 
177
(
0.000727637
0.000621108
0.000722931
0.000720158
0.000608298
0.000616555
0.000608298
0.000610547
0.000505477
0.000505477
0.000505477
0.000509884
0.000509884
0.000512536
0.000510554
0.000510554
0.000620855
0.000511163
0.00061635
0.000621108
0.000621108
0.000509524
0.000732683
0.000616555
0.000619922
0.000616555
0.000613684
0.000614566
0.000616475
0.000614809
0.000506707
0.000506707
0.000506707
0.000509746
0.000509746
0.000511163
0.000511163
0.000611985
0.000509524
0.000509524
0.000619922
0.000506337
0.000601961
0.000591269
0.000583772
0.000582475
0.00058343
0.00058343
0.000592923
0.000602986
0.000506425
0.000506425
0.000506425
0.000506425
0.000609953
0.000512
0.000512
0.000506337
0.000506337
0.000506337
0.000592515
0.000592515
0.000579138
0.000579138
0.000569675
0.000569675
0.000567568
0.000567568
0.000567568
0.000680552
0.000579019
0.000579019
0.000579019
0.000590693
0.000590693
0.000614251
0.000614251
0.000608553
0.000620153
0.000614591
0.000614591
0.000695143
0.000695143
0.000679676
0.000679676
0.000669899
0.000669899
0.000667654
0.000669574
0.000680095
0.000694456
0.000727711
0.000610593
0.000610593
0.000610593
0.000616836
0.000616836
0.000730277
0.00061552
0.00061552
0.00061552
0.000806463
0.000694704
0.00078901
0.000679488
0.000778266
0.000664079
0.000669099
0.000664079
0.000667138
0.000677445
0.000692818
0.000729252
0.000728415
0.000721499
0.000727423
0.000694704
0.000679488
0.000669099
0.000667203
0.000669297
0.000678997
0.000693611
0.000727338
0.000730946
0.000718486
0.000725041
0.000702008
0.000689749
0.000679259
0.000677508
0.000679491
0.000689129
0.000702565
0.000729339
0.00073361
0.000720249
0.000727438
0.000712861
0.000702568
0.000693924
0.000692968
0.00069403
0.00070166
0.000713305
0.000731439
0.000731765
0.000722696
0.00073236
0.000842533
0.000730964
0.000730964
0.000728571
0.000728571
0.000726716
0.000726716
0.000728651
0.000726669
0.000724821
0.000727269
0.0007323
0.000732095
0.000727056
0.00084392
0.000731685
0.000731685
0.000955904
0.000843541
0.000843541
0.000840523
0.000727009
0.000727009
0.00072018
0.000717407
0.000719405
0.000722081
0.000726998
)
;
    }
}


// ************************************************************************* //
