/*--------------------------------*- C++ -*----------------------------------*\
| =========                 |                                                 |
| \\      /  F ield         | OpenFOAM: The Open Source CFD Toolbox           |
|  \\    /   O peration     | Version:  2212                                  |
|   \\  /    A nd           | Website:  www.openfoam.com                      |
|    \\/     M anipulation  |                                                 |
\*---------------------------------------------------------------------------*/
FoamFile
{
    version     2.0;
    format      ascii;
    arch        "LSB;label=32;scalar=64";
    class       surfaceScalarField;
    location    "2";
    object      phi;
}
// * * * * * * * * * * * * * * * * * * * * * * * * * * * * * * * * * * * * * //

dimensions      [0 3 -1 0 0 0 0];

oriented        oriented;

internalField   nonuniform List<scalar> 
1763
(
5.50873e-08
-3.42282e-08
5.46096e-08
-3.42671e-08
3.47447e-08
5.41455e-08
-3.42976e-08
3.47617e-08
5.3671e-08
-3.43221e-08
3.47966e-08
5.3171e-08
-3.43528e-08
3.48527e-08
-3.43735e-08
3.49074e-08
1.79644e-07
-6.4648e-08
3.20131e-08
1.78163e-07
-6.47606e-08
3.19744e-08
1.76729e-07
-6.48513e-08
3.19882e-08
1.75287e-07
-6.49104e-08
3.203e-08
1.73903e-07
-6.50157e-08
3.20473e-08
-6.49785e-08
3.21717e-08
3.50779e-07
3.47645e-07
-8.96111e-08
2.79845e-08
3.44586e-07
-8.97112e-08
2.79186e-08
3.41596e-07
-8.97975e-08
2.78779e-08
3.3871e-07
-8.99151e-08
2.77847e-08
-8.99477e-08
2.77385e-08
4.94601e-07
-1.07487e-07
2.23851e-08
4.90215e-07
-1.07576e-07
2.22507e-08
4.85984e-07
-1.07677e-07
2.21102e-08
4.81938e-07
-1.07777e-07
2.19084e-08
-1.0784e-07
2.16027e-08
5.92894e-07
1.54472e-08
5.87687e-07
-1.1747e-07
1.51015e-08
5.82797e-07
-1.17532e-07
1.47448e-08
5.78212e-07
-1.17545e-07
1.43524e-08
-1.17518e-07
1.382e-08
6.17706e-07
-1.1818e-07
5.96768e-09
6.12797e-07
-1.18148e-07
5.52569e-09
6.08216e-07
-1.18043e-07
5.07889e-09
-1.17902e-07
4.56332e-09
5.73178e-07
-1.09118e-07
-4.57478e-09
5.68789e-07
-1.09043e-07
-4.71669e-09
5.64567e-07
-1.08884e-07
-4.93728e-09
-1.08764e-07
-5.32602e-09
4.64899e-07
-9.11309e-08
-1.42481e-08
4.61248e-07
-9.10599e-08
-1.43321e-08
4.57804e-07
-9.09642e-08
-1.44759e-08
-9.10231e-08
-1.46443e-08
3.18129e-07
-6.59276e-08
-2.27129e-08
3.15732e-07
-6.59039e-08
-2.27593e-08
3.13476e-07
-6.58666e-08
-2.28411e-08
-6.5979e-08
-2.27899e-08
1.68019e-07
-3.47463e-08
1.66766e-07
-3.47436e-08
-2.99315e-08
1.65528e-07
-3.47734e-08
-2.98923e-08
1.64347e-07
-3.48321e-08
-2.98539e-08
-3.49005e-08
-2.9709e-08
5.45811e-08
-3.42606e-08
5.41168e-08
-3.42793e-08
5.36315e-08
-3.42882e-08
5.31095e-08
-3.43101e-08
-3.43315e-08
1.68179e-07
-2.99035e-08
1.66963e-07
-2.98965e-08
6.5874e-08
1.65747e-07
-2.9865e-08
6.58772e-08
1.64591e-07
-2.98613e-08
6.58702e-08
-2.97691e-08
6.59723e-08
4.65827e-07
4.62723e-07
-5.55007e-08
6.06764e-08
4.59702e-07
-5.55409e-08
6.06527e-08
4.56798e-07
-5.55899e-08
6.06598e-08
4.53934e-07
-5.56312e-08
6.06809e-08
-5.57125e-08
6.06502e-08
7.79982e-07
-7.71846e-08
5.27988e-08
7.76782e-07
-7.71621e-08
5.27393e-08
7.73558e-07
-7.71452e-08
5.26575e-08
7.70312e-07
-7.71493e-08
5.25488e-08
-7.73148e-08
5.21276e-08
1.01221e-06
-9.31638e-08
4.07578e-08
1.00976e-06
-9.31035e-08
4.0639e-08
1.00726e-06
-9.30353e-08
4.05066e-08
1.00474e-06
-9.30104e-08
4.02909e-08
-9.31451e-08
3.96695e-08
1.15043e-06
-1.0203e-07
2.59037e-08
1.14876e-06
-1.02032e-07
2.57015e-08
1.147e-06
-1.02015e-07
2.54778e-08
1.14522e-06
-1.02016e-07
2.51449e-08
-1.02083e-07
2.43723e-08
1.19013e-06
-1.03338e-07
8.56647e-09
1.18909e-06
-1.03426e-07
8.3946e-09
1.18797e-06
-1.03503e-07
8.13096e-09
1.18685e-06
-1.03562e-07
7.75181e-09
-1.03603e-07
7.08963e-09
1.13457e-06
-9.75537e-09
1.13361e-06
-9.72147e-08
-9.8295e-09
1.13266e-06
-9.72774e-08
-9.9881e-09
1.13174e-06
-9.73477e-08
-1.0239e-08
-9.73083e-08
-1.07983e-08
9.87128e-07
-8.28564e-08
-2.68984e-08
9.85389e-07
-8.28925e-08
-2.69788e-08
9.8361e-07
-8.29733e-08
-2.70712e-08
-8.29153e-08
-2.75111e-08
7.53752e-07
-6.06335e-08
-4.18914e-08
7.50667e-07
-6.06497e-08
-4.1918e-08
7.47522e-07
-6.06905e-08
-4.19781e-08
-6.0721e-08
-4.22975e-08
4.59544e-07
-3.19432e-08
-5.55153e-08
4.565e-07
-3.19904e-08
-5.55085e-08
4.53516e-07
-3.20311e-08
-5.55284e-08
-3.21999e-08
-5.55599e-08
1.7816e-07
-6.47331e-08
1.76681e-07
-6.47431e-08
1.7518e-07
-6.47773e-08
1.73744e-07
-6.49054e-08
-6.48789e-08
3.18532e-07
-2.27907e-08
9.1033e-08
3.16246e-07
-2.28024e-08
9.09657e-08
3.14055e-07
-2.286e-08
9.09215e-08
-2.28784e-08
9.10111e-08
7.57158e-07
-4.19327e-08
7.54045e-07
-4.19158e-08
8.28909e-08
7.50882e-07
-4.1933e-08
8.29531e-08
7.47727e-07
-4.20164e-08
8.29923e-08
-4.24522e-08
8.28456e-08
1.13131e-06
-5.94603e-08
7.05103e-08
1.13099e-06
-5.94237e-08
7.05665e-08
1.13051e-06
-5.93827e-08
7.0587e-08
1.12995e-06
-5.9422e-08
7.0524e-08
-5.97963e-08
7.00997e-08
1.38525e-06
-7.31377e-08
5.27422e-08
1.38687e-06
-7.30957e-08
5.26955e-08
1.38844e-06
-7.30685e-08
5.26224e-08
1.38996e-06
-7.31011e-08
5.24521e-08
-7.33242e-08
5.20174e-08
1.53252e-06
-8.1472e-08
3.14374e-08
1.53526e-06
-8.14645e-08
3.13272e-08
1.53797e-06
-8.14609e-08
3.1167e-08
1.54058e-06
-8.14781e-08
3.09099e-08
-8.16054e-08
3.04021e-08
1.57744e-06
-8.40173e-08
7.69051e-09
1.58085e-06
-8.4055e-08
7.57684e-09
1.58421e-06
-8.40905e-08
7.4056e-09
1.58747e-06
-8.41113e-08
7.12055e-09
-8.4129e-08
6.65314e-09
1.52493e-06
-8.06624e-08
-1.65913e-08
1.52839e-06
-8.06867e-08
-1.66534e-08
1.53179e-06
-8.06977e-08
-1.67784e-08
1.53509e-06
-8.06709e-08
-1.69882e-08
-8.05011e-08
-1.73589e-08
1.37772e-06
-7.04851e-08
-3.93491e-08
1.38005e-06
-7.05289e-08
-3.93815e-08
1.38232e-06
-7.0532e-08
-3.94215e-08
1.38457e-06
-7.04614e-08
-3.95263e-08
-7.01087e-08
-3.98497e-08
1.13134e-06
-5.94193e-08
1.13105e-06
-5.27315e-08
-5.93918e-08
1.13064e-06
-5.2651e-08
-5.93888e-08
1.13017e-06
-5.25437e-08
-5.94343e-08
-5.22016e-08
-5.96933e-08
7.76667e-07
-2.79548e-08
-7.71344e-08
7.73503e-07
-2.79165e-08
-7.70798e-08
7.7027e-07
-2.77941e-08
-7.70448e-08
-2.77852e-08
-7.71236e-08
3.47788e-07
-8.95755e-08
3.44638e-07
-8.95485e-08
3.41525e-07
-8.95807e-08
3.38551e-07
-8.97247e-08
-8.97979e-08
4.65398e-07
-1.43699e-08
1.09105e-07
4.6181e-07
-1.44379e-08
1.08992e-07
4.58431e-07
-1.45452e-08
1.08846e-07
-1.47354e-08
1.08763e-07
9.87358e-07
-2.69923e-08
9.72313e-08
9.85543e-07
-2.70106e-08
9.73408e-08
9.83679e-07
-2.70967e-08
9.74082e-08
-2.76082e-08
9.73064e-08
1.37754e-06
-3.94466e-08
8.06872e-08
1.37984e-06
-3.94525e-08
8.07291e-08
1.38211e-06
-3.94545e-08
8.07631e-08
1.38433e-06
-3.95337e-08
8.07387e-08
-3.98613e-08
8.05383e-08
1.63573e-06
-4.98547e-08
5.87236e-08
1.64013e-06
-4.98578e-08
5.86971e-08
1.6445e-06
-4.98626e-08
5.86633e-08
1.64876e-06
-4.99196e-08
5.85742e-08
-5.0082e-08
5.83742e-08
1.78582e-06
-5.67739e-08
3.30277e-08
1.79113e-06
-5.67849e-08
3.29409e-08
1.79639e-06
-5.67944e-08
3.2842e-08
1.80151e-06
-5.6819e-08
3.26841e-08
-5.68853e-08
3.24486e-08
1.83396e-06
-5.97871e-08
4.99449e-09
1.83966e-06
-5.98104e-08
4.90772e-09
1.84529e-06
-5.98223e-08
4.80106e-09
1.85078e-06
-5.98149e-08
4.63158e-09
-5.97959e-08
4.44707e-09
1.77797e-06
-2.32011e-08
1.78352e-06
-5.8667e-08
-2.32525e-08
1.78901e-06
-5.86557e-08
-2.33013e-08
1.79443e-06
-5.86363e-08
-2.33853e-08
1.79972e-06
-5.85579e-08
-2.35316e-08
-5.83785e-08
-2.37297e-08
1.63584e-06
-5.26628e-08
-4.98048e-08
1.64027e-06
-5.26447e-08
-4.98259e-08
1.64464e-06
-5.25745e-08
-4.98531e-08
1.6489e-06
-5.24117e-08
-4.99337e-08
-5.20541e-08
-5.00998e-08
1.38538e-06
-4.06901e-08
-7.3107e-08
1.38703e-06
-4.0617e-08
-7.30757e-08
1.38863e-06
-4.04898e-08
-7.30746e-08
1.39017e-06
-4.02636e-08
-7.31148e-08
-3.97494e-08
-7.32743e-08
1.01224e-06
-2.23406e-08
-9.31061e-08
1.00977e-06
-2.22726e-08
-9.30103e-08
1.00728e-06
-2.21361e-08
-9.29367e-08
1.00478e-06
-2.19006e-08
-9.29157e-08
-2.16348e-08
-9.29907e-08
4.94764e-07
-1.07378e-07
4.90343e-07
-1.074e-07
4.86098e-07
-1.07471e-07
4.8205e-07
-1.07577e-07
-1.07675e-07
5.78258e-07
-4.50747e-09
1.18207e-07
5.7377e-07
-4.61088e-09
1.18204e-07
5.69376e-07
-4.78548e-09
1.18171e-07
5.65168e-07
-5.00776e-09
1.18062e-07
-5.38298e-09
1.17915e-07
1.13463e-06
-9.80811e-09
1.0336e-07
1.13369e-06
-9.89206e-09
1.03452e-07
1.13275e-06
-1.0046e-08
1.03545e-07
1.13181e-06
-1.02868e-08
1.03624e-07
-1.08581e-08
1.03658e-07
1.52134e-06
-1.66067e-08
8.40261e-08
1.52479e-06
-1.66412e-08
8.40748e-08
1.5282e-06
-1.66898e-08
8.41114e-08
1.53159e-06
-1.68053e-08
8.41362e-08
1.5349e-06
-1.70083e-08
8.41498e-08
-1.73871e-08
8.4158e-08
1.77782e-06
-2.32831e-08
5.98344e-08
1.78338e-06
-2.33054e-08
5.98255e-08
1.78889e-06
-2.3327e-08
5.98207e-08
1.79433e-06
-2.33919e-08
5.98135e-08
1.79962e-06
-2.35243e-08
5.97938e-08
-2.37156e-08
5.97651e-08
1.9283e-06
-2.84947e-08
3.1893e-08
1.93467e-06
-2.85056e-08
3.18549e-08
1.94098e-06
-2.85148e-08
3.18215e-08
1.94718e-06
-2.85354e-08
3.17864e-08
1.95318e-06
-2.85729e-08
3.17387e-08
-2.86308e-08
3.16734e-08
1.97782e-06
-3.18394e-08
1.76193e-09
1.98443e-06
-3.18441e-08
1.72584e-09
1.99098e-06
-3.18443e-08
1.68994e-09
1.99742e-06
-3.1824e-08
1.64265e-09
2.00367e-06
-3.17827e-08
1.59914e-09
-3.17219e-08
1.56999e-09
1.92831e-06
-3.30174e-08
-2.84528e-08
1.93466e-06
-3.29787e-08
-2.8471e-08
1.94096e-06
-3.29437e-08
-2.84975e-08
1.94715e-06
-3.28637e-08
-2.8535e-08
1.95313e-06
-3.27145e-08
-2.85852e-08
-3.24891e-08
-2.86505e-08
1.78049e-06
-3.14512e-08
-5.67237e-08
1.78584e-06
-3.13919e-08
-5.67412e-08
1.79114e-06
-3.13092e-08
-5.67637e-08
1.79636e-06
-3.11455e-08
-5.67921e-08
1.80144e-06
-3.09035e-08
-5.68294e-08
-3.04577e-08
-5.68961e-08
1.52976e-06
-2.60404e-08
-8.14243e-08
1.53257e-06
-2.58774e-08
-8.14327e-08
1.53536e-06
-2.5721e-08
-8.14494e-08
1.53808e-06
-2.54703e-08
-8.14733e-08
1.54067e-06
-2.51049e-08
-8.14994e-08
-2.44257e-08
-8.15969e-08
1.15216e-06
-1.01936e-07
1.15055e-06
-1.54284e-08
-1.01946e-07
1.14884e-06
-1.50941e-08
-1.0193e-07
1.14707e-06
-1.47039e-08
-1.01926e-07
1.14528e-06
-1.42869e-08
-1.01942e-07
-1.37935e-08
-1.01993e-07
5.93188e-07
-1.17318e-07
5.88014e-07
-1.1732e-07
5.83179e-07
-1.17341e-07
5.7866e-07
-1.17345e-07
-1.1735e-07
6.23669e-07
6.30758e-09
1.17466e-07
6.1836e-07
5.96646e-09
1.17547e-07
6.13413e-07
5.52333e-09
1.17594e-07
6.08818e-07
5.07799e-09
1.17579e-07
4.50709e-09
1.17563e-07
1.19003e-06
8.5613e-09
1.02066e-07
1.18905e-06
8.35022e-09
1.02048e-07
1.18797e-06
8.10603e-09
1.02045e-07
1.18685e-06
7.74703e-09
1.02072e-07
7.02815e-09
1.02133e-07
1.57047e-06
7.78119e-09
1.57395e-06
7.75678e-09
8.15312e-08
1.57738e-06
7.70583e-09
8.1503e-08
1.58077e-06
7.58751e-09
8.14789e-08
1.58413e-06
7.40675e-09
8.14817e-08
1.58739e-06
7.12972e-09
8.15032e-08
6.66181e-09
8.16037e-08
1.82241e-06
5.01457e-09
1.82818e-06
5.00292e-09
5.68182e-08
1.8339e-06
4.99666e-09
5.68181e-08
1.83956e-06
4.95288e-09
5.67957e-08
1.84514e-06
4.84943e-09
5.67868e-08
1.85058e-06
4.68021e-09
5.68019e-08
4.49398e-09
5.68591e-08
1.9711e-06
1.97778e-06
1.70291e-09
2.85112e-08
1.98438e-06
1.72306e-09
2.85304e-08
1.99091e-06
1.72381e-09
2.85248e-08
1.99732e-06
1.69369e-09
2.8528e-08
2.00353e-06
1.65744e-09
2.85556e-08
1.62874e-09
2.86083e-08
2.02745e-06
-1.72736e-09
-1.70422e-09
2.0343e-06
-1.70442e-09
-1.69345e-09
2.04109e-06
-1.68631e-09
-1.69476e-09
2.04776e-06
-1.65156e-09
-1.67672e-09
2.05428e-06
-1.61469e-09
-1.64806e-09
-1.58965e-09
-1.62393e-09
1.9777e-06
-5.00228e-09
-3.18153e-08
1.9843e-06
-4.95358e-09
-3.18158e-08
1.99085e-06
-4.90987e-09
-3.18249e-08
1.9973e-06
-4.81476e-09
-3.18189e-08
2.00354e-06
-4.65069e-09
-3.17894e-08
-4.46998e-09
-3.17349e-08
1.82814e-06
-7.71645e-09
-5.97367e-08
1.83385e-06
-7.64846e-09
-5.97579e-08
1.83953e-06
-7.55905e-09
-5.97953e-08
1.84514e-06
-7.38946e-09
-5.98218e-08
1.85059e-06
-7.11217e-09
-5.98216e-08
-6.65715e-09
-5.98018e-08
1.57401e-06
-8.68795e-09
-8.39192e-08
1.57743e-06
-8.52862e-09
-8.39799e-08
1.58084e-06
-8.36769e-09
-8.40474e-08
1.58419e-06
-8.10869e-09
-8.4106e-08
1.58742e-06
-7.70852e-09
-8.41325e-08
-7.05006e-09
-8.41371e-08
1.19124e-06
-6.44871e-09
-1.03182e-07
1.19027e-06
-6.26185e-09
-1.03235e-07
1.18921e-06
-5.90193e-09
-1.03339e-07
1.18805e-06
-5.43047e-09
-1.03448e-07
1.18687e-06
-4.96636e-09
-1.035e-07
-4.46073e-09
-1.03529e-07
6.28905e-07
-1.18111e-07
6.23412e-07
-1.18087e-07
6.18219e-07
-1.18029e-07
6.13398e-07
-1.17951e-07
6.08929e-07
-1.17843e-07
-1.17734e-07
5.99039e-07
1.56743e-08
1.07481e-07
5.93535e-07
1.54285e-08
1.07542e-07
5.88336e-07
1.51004e-08
1.07645e-07
5.83456e-07
1.47279e-08
1.07747e-07
5.78877e-07
1.43308e-08
1.07828e-07
1.38413e-08
1.07877e-07
1.15214e-06
2.60017e-08
9.3313e-08
1.15051e-06
2.58583e-08
9.32579e-08
1.14879e-06
2.57084e-08
9.31606e-08
1.147e-06
2.54613e-08
9.31009e-08
1.14521e-06
2.5105e-08
9.30957e-08
2.44223e-08
9.31794e-08
1.52966e-06
3.14213e-08
7.32616e-08
1.53245e-06
3.13708e-08
7.32029e-08
1.5352e-06
3.12928e-08
7.31372e-08
1.53789e-06
3.11357e-08
7.31172e-08
1.54045e-06
3.09014e-08
7.31549e-08
3.04524e-08
7.3329e-08
1.78029e-06
3.29876e-08
4.98914e-08
1.78564e-06
3.29649e-08
4.98825e-08
1.79093e-06
3.29457e-08
4.98448e-08
1.79614e-06
3.28724e-08
4.98456e-08
1.8012e-06
3.27261e-08
4.99142e-08
3.24994e-08
5.00797e-08
1.92803e-06
3.18421e-08
2.32802e-08
1.93437e-06
3.18381e-08
2.33144e-08
1.94067e-06
3.18391e-08
2.33365e-08
1.94685e-06
3.18244e-08
2.33967e-08
1.95281e-06
3.17887e-08
2.35265e-08
3.17311e-08
2.37175e-08
1.97759e-06
2.85132e-08
-4.98931e-09
1.98416e-06
2.85199e-08
-4.9467e-09
1.9907e-06
2.85219e-08
-4.90938e-09
1.99712e-06
2.85391e-08
-4.8204e-09
2.00335e-06
2.8577e-08
-4.65975e-09
2.86363e-08
-4.47614e-09
1.92816e-06
2.3301e-08
-3.29773e-08
1.93449e-06
2.33258e-08
-3.29528e-08
1.94078e-06
2.33391e-08
-3.29323e-08
1.94697e-06
2.33951e-08
-3.28593e-08
1.95295e-06
2.3523e-08
-3.27132e-08
2.3713e-08
-3.24849e-08
1.77781e-06
1.66239e-08
-5.86168e-08
1.78335e-06
1.66587e-08
-5.86266e-08
1.78886e-06
1.66988e-08
-5.86639e-08
1.79428e-06
1.68054e-08
-5.86572e-08
1.79955e-06
1.70096e-08
-5.85715e-08
1.73868e-08
-5.83772e-08
1.52144e-06
9.72665e-09
-8.05159e-08
1.52486e-06
9.83458e-09
-8.05799e-08
1.52827e-06
9.90038e-09
-8.06584e-08
1.53163e-06
1.00362e-08
-8.06981e-08
1.53486e-06
1.03051e-08
-8.06609e-08
1.08809e-08
-8.04827e-08
1.13566e-06
4.34324e-09
-9.69842e-08
1.13477e-06
4.54672e-09
-9.70597e-08
1.13379e-06
4.71323e-09
-9.71689e-08
1.13274e-06
4.88445e-09
-9.72465e-08
1.1317e-06
5.10326e-09
-9.72583e-08
5.45086e-09
-9.71797e-08
5.82623e-07
-1.09138e-07
5.78131e-07
-1.09048e-07
5.73754e-07
-1.08938e-07
5.69511e-07
-1.08824e-07
5.65475e-07
-1.08704e-07
-1.08644e-07
4.99649e-07
2.24481e-08
8.9597e-08
4.95179e-07
2.2334e-08
8.96768e-08
4.90828e-07
2.2227e-08
8.97688e-08
4.86639e-07
2.20795e-08
8.98561e-08
4.82628e-07
2.1866e-08
8.99725e-08
2.16261e-08
8.99787e-08
1.01484e-06
4.07948e-08
7.73115e-08
1.01244e-06
4.06893e-08
7.73027e-08
1.00996e-06
4.06181e-08
7.72531e-08
1.00743e-06
4.04657e-08
7.72426e-08
1.00491e-06
4.02199e-08
7.72603e-08
3.97022e-08
7.73647e-08
1.38355e-06
5.26979e-08
5.95938e-08
1.38522e-06
5.2666e-08
5.95597e-08
1.38683e-06
5.26585e-08
5.94868e-08
1.38835e-06
5.25732e-08
5.94849e-08
1.38977e-06
5.23931e-08
5.95629e-08
5.20193e-08
5.98571e-08
1.6311e-06
5.8662e-08
3.95167e-08
1.63549e-06
5.86662e-08
3.9499e-08
1.63985e-06
5.86921e-08
3.94502e-08
1.64412e-06
5.86753e-08
3.94685e-08
1.64826e-06
5.85882e-08
3.95783e-08
5.83951e-08
3.98875e-08
1.7775e-06
5.98009e-08
1.66428e-08
1.78299e-06
5.98133e-08
1.66823e-08
1.78845e-06
5.98348e-08
1.67285e-08
1.79384e-06
5.98448e-08
1.68426e-08
1.79906e-06
5.98338e-08
1.70553e-08
5.98105e-08
1.74387e-08
1.82792e-06
5.68136e-08
-7.6739e-09
1.83358e-06
5.68124e-08
-7.60914e-09
1.83922e-06
5.6802e-08
-7.51419e-09
1.84479e-06
5.68042e-08
-7.34684e-09
1.8502e-06
5.68267e-08
-7.06834e-09
5.68895e-08
-6.59513e-09
1.78032e-06
4.98922e-08
-3.13884e-08
1.78563e-06
4.98802e-08
-3.13268e-08
1.7909e-06
4.98373e-08
-3.12423e-08
1.7961e-06
4.98329e-08
-3.10811e-08
1.80114e-06
4.99044e-08
-3.08398e-08
5.00743e-08
-3.03781e-08
1.63134e-06
3.94675e-08
-5.26523e-08
1.63575e-06
3.94595e-08
-5.26155e-08
1.64013e-06
3.93984e-08
-5.26081e-08
1.64443e-06
3.93983e-08
-5.25238e-08
1.64859e-06
3.95192e-08
-5.23415e-08
3.98374e-08
-5.19631e-08
1.37532e-06
2.69118e-08
-7.04078e-08
1.37767e-06
2.69465e-08
-7.04119e-08
1.37995e-06
2.69204e-08
-7.04595e-08
1.38213e-06
2.69567e-08
-7.04387e-08
1.38421e-06
2.71184e-08
-7.03356e-08
2.75797e-08
-6.99794e-08
9.90787e-07
1.42909e-08
-8.27892e-08
9.89117e-07
1.4336e-08
-8.27785e-08
9.8733e-07
1.43701e-08
-8.28326e-08
9.85469e-07
1.4435e-08
-8.28629e-08
9.83611e-07
1.45718e-08
-8.28546e-08
1.47235e-08
-8.27386e-08
4.72684e-07
-9.11644e-08
4.6906e-07
-9.10882e-08
4.65514e-07
-9.10217e-08
4.62092e-07
-9.09665e-08
4.58867e-07
-9.09068e-08
-9.09894e-08
3.51215e-07
2.80342e-08
6.47195e-08
3.48126e-07
2.79685e-08
6.47975e-08
3.45093e-07
2.79316e-08
6.48701e-08
3.42134e-07
2.78734e-08
6.4942e-08
3.39288e-07
2.77563e-08
6.50614e-08
2.77445e-08
6.50066e-08
7.83451e-07
5.27932e-08
5.55937e-08
7.80357e-07
5.27405e-08
5.5625e-08
7.7721e-07
5.271e-08
5.56218e-08
7.74056e-07
5.26083e-08
5.56609e-08
7.70878e-07
5.24701e-08
5.57249e-08
5.21061e-08
5.57768e-08
1.13154e-06
7.04402e-08
4.20042e-08
1.13135e-06
7.04571e-08
4.20344e-08
1.131e-06
7.05031e-08
4.20435e-08
1.1305e-06
7.04781e-08
4.21201e-08
1.12993e-06
7.03883e-08
4.22084e-08
7.00404e-08
4.25435e-08
1.37506e-06
8.05611e-08
2.69968e-08
1.37737e-06
8.06297e-08
2.70222e-08
1.37962e-06
8.06983e-08
2.70076e-08
1.38178e-06
8.07246e-08
2.70623e-08
1.38383e-06
8.06924e-08
2.72151e-08
8.05225e-08
2.76619e-08
1.52116e-06
8.39878e-08
9.79584e-09
1.52452e-06
8.40425e-08
9.90856e-09
1.52786e-06
8.41049e-08
9.97895e-09
1.53116e-06
8.41544e-08
1.0117e-08
1.53434e-06
8.4174e-08
1.0391e-08
8.41838e-08
1.09725e-08
1.57383e-06
8.15074e-08
-8.59553e-09
1.57721e-06
8.15088e-08
-8.4579e-09
1.58056e-06
8.15073e-08
-8.26202e-09
1.58385e-06
8.15193e-08
-8.0028e-09
1.58704e-06
8.15448e-08
-7.62747e-09
8.16476e-08
-6.90537e-09
1.52964e-06
7.32188e-08
-2.59439e-08
1.53242e-06
7.31744e-08
-2.57719e-08
1.53517e-06
7.31217e-08
-2.56022e-08
1.53784e-06
7.31099e-08
-2.53446e-08
1.54037e-06
7.31567e-08
-2.49819e-08
7.33398e-08
-2.42904e-08
1.3836e-06
5.95122e-08
-4.0738e-08
1.38529e-06
5.94881e-08
-4.06172e-08
1.38691e-06
5.94225e-08
-4.0534e-08
1.38844e-06
5.94263e-08
-4.03741e-08
1.38987e-06
5.95155e-08
-4.01216e-08
5.98187e-08
-3.95987e-08
1.13153e-06
4.19181e-08
-5.27389e-08
1.13132e-06
4.19675e-08
-5.26838e-08
1.13097e-06
4.19644e-08
-5.26459e-08
1.13048e-06
4.20149e-08
-5.25353e-08
1.12992e-06
4.21329e-08
-5.23942e-08
4.24998e-08
-5.20236e-08
7.60051e-07
2.2668e-08
-6.06321e-08
7.57099e-07
2.27357e-08
-6.05949e-08
7.5409e-07
2.27569e-08
-6.06166e-08
7.51075e-07
2.2785e-08
-6.06175e-08
7.48068e-07
2.28854e-08
-6.06e-08
2.2891e-08
-6.05797e-08
3.23569e-07
-6.5953e-08
3.21117e-07
-6.58999e-08
3.18734e-07
-6.58823e-08
3.16436e-07
-6.58828e-08
3.1427e-07
-6.58558e-08
-6.59573e-08
1.79906e-07
3.19774e-08
3.42683e-08
1.78429e-07
3.19783e-08
3.42969e-08
1.76963e-07
3.20191e-08
3.43163e-08
1.75513e-07
3.20482e-08
3.43445e-08
1.74145e-07
3.20478e-08
3.43813e-08
3.21782e-08
3.43929e-08
4.66317e-07
6.06884e-08
2.99313e-08
4.63317e-07
6.06694e-08
2.99335e-08
4.60366e-07
6.06932e-08
2.9899e-08
4.57509e-07
6.06831e-08
2.98824e-08
4.54706e-07
6.06783e-08
2.98973e-08
6.06704e-08
2.97958e-08
7.60459e-07
8.28498e-08
2.2707e-08
7.57535e-07
8.28654e-08
2.27623e-08
7.54568e-07
8.29147e-08
2.27894e-08
7.51607e-07
8.29247e-08
2.28393e-08
7.48624e-07
8.29414e-08
2.29281e-08
8.28459e-08
2.291e-08
9.91062e-07
9.70374e-08
1.43417e-08
9.89432e-07
9.7129e-08
1.43887e-08
9.87678e-07
9.72467e-08
1.44294e-08
9.85839e-07
9.73267e-08
1.44996e-08
9.84011e-07
9.73443e-08
1.46401e-08
9.72676e-08
1.47889e-08
1.13579e-06
1.03235e-07
4.39219e-09
1.13492e-06
1.03299e-07
4.60777e-09
1.13395e-06
1.0341e-07
4.78418e-09
1.13292e-06
1.03516e-07
4.96207e-09
1.13189e-06
1.03584e-07
5.18088e-09
1.03617e-07
5.52897e-09
1.19134e-06
1.01995e-07
-6.35629e-09
1.19035e-06
1.02011e-07
-6.174e-09
1.18931e-06
1.02007e-07
-5.82695e-09
1.18817e-06
1.02011e-07
-5.35039e-09
1.18698e-06
1.02039e-07
-4.89681e-09
1.021e-07
-4.34785e-09
1.15232e-06
9.32106e-08
-1.56066e-08
1.15073e-06
9.31671e-08
-1.53313e-08
1.14902e-06
9.30865e-08
-1.49786e-08
1.14724e-06
9.30397e-08
-1.45875e-08
1.14544e-06
9.30415e-08
-1.41821e-08
9.31327e-08
-1.36966e-08
1.01488e-06
7.72156e-08
-2.23874e-08
1.01249e-06
7.72049e-08
-2.22593e-08
1.01002e-06
7.71601e-08
-2.21382e-08
1.00751e-06
7.71558e-08
-2.19834e-08
1.00502e-06
7.71792e-08
-2.17646e-08
7.7299e-08
-2.15259e-08
7.8333e-07
5.5517e-08
-2.79851e-08
7.80223e-07
5.5541e-08
-2.79129e-08
7.77064e-07
5.55422e-08
-2.78694e-08
7.73904e-07
5.55884e-08
-2.78079e-08
7.70733e-07
5.56482e-08
-2.76918e-08
5.57103e-08
-2.7677e-08
4.66093e-07
2.98946e-08
-3.19513e-08
4.63087e-07
2.9898e-08
-3.1946e-08
4.60136e-07
2.98607e-08
-3.19849e-08
4.57283e-07
2.98411e-08
-3.20164e-08
4.54474e-07
2.9866e-08
-3.20096e-08
2.97755e-08
-3.21365e-08
1.69617e-07
-3.47242e-08
1.6835e-07
-3.4735e-08
1.67094e-07
-3.47656e-08
1.6585e-07
-3.47975e-08
1.64704e-07
-3.48439e-08
-3.48971e-08
5.51879e-08
3.47607e-08
5.47105e-08
3.47743e-08
5.42267e-08
3.48e-08
5.3742e-08
3.48292e-08
5.32465e-08
3.48768e-08
3.4926e-08
1.69743e-07
6.60195e-08
1.68474e-07
6.59759e-08
1.67219e-07
6.59549e-08
1.65985e-07
6.59454e-08
1.64839e-07
6.59201e-08
6.60177e-08
3.29082e-07
3.26446e-07
9.13246e-08
3.23929e-07
9.12436e-08
3.21497e-07
9.11702e-08
3.19129e-07
9.11124e-08
3.16851e-07
9.10624e-08
3.14711e-07
9.09879e-08
9.10559e-08
4.76994e-07
1.09306e-07
4.73363e-07
1.09217e-07
4.69784e-07
1.09137e-07
4.66287e-07
1.09039e-07
4.62917e-07
1.08933e-07
4.59733e-07
1.08812e-07
1.08738e-07
5.88007e-07
5.83453e-07
1.18163e-07
5.79039e-07
1.1816e-07
5.74747e-07
1.18115e-07
5.70592e-07
1.18049e-07
5.66632e-07
1.17953e-07
1.17833e-07
6.29758e-07
1.17363e-07
6.24367e-07
1.17377e-07
6.19246e-07
1.17408e-07
6.14498e-07
1.17448e-07
6.10104e-07
1.1745e-07
1.17455e-07
5.99448e-07
1.07401e-07
5.94048e-07
1.07446e-07
5.88953e-07
1.07525e-07
5.84194e-07
1.07618e-07
5.79754e-07
1.07707e-07
1.07777e-07
4.99876e-07
8.95252e-08
4.95464e-07
8.95988e-08
4.9117e-07
8.96802e-08
4.87046e-07
8.97593e-08
4.83113e-07
8.98759e-08
8.98968e-08
3.51276e-07
6.46669e-08
3.48219e-07
6.47428e-08
3.45217e-07
6.48133e-08
3.42286e-07
6.48822e-08
3.39471e-07
6.49993e-08
6.49549e-08
1.799e-07
3.42314e-08
1.78436e-07
3.42602e-08
1.76982e-07
3.42825e-08
1.75537e-07
3.43113e-08
1.74176e-07
3.43499e-08
3.43693e-08
5.5168e-08
5.46932e-08
5.42102e-08
5.3724e-08
5.323e-08
)
;

boundaryField
{
    inlet
    {
        type            calculated;
        value           nonuniform List<scalar> 0();
    }
    ami1
    {
        type            cyclicAMI;
        value           nonuniform List<scalar> 0();
    }
    walls
    {
        type            calculated;
        value           nonuniform List<scalar> 
244
(
2.90979e-14
2.43942e-14
1.84387e-14
2.90979e-14
2.43942e-14
1.84387e-14
1.28555e-14
6.40674e-15
-2.43942e-14
-2.90979e-14
2.90979e-14
2.43942e-14
1.84387e-14
1.28555e-14
6.40674e-15
-8.29766e-22
-6.40674e-15
-1.28555e-14
-1.84387e-14
-2.43942e-14
-2.90979e-14
2.90979e-14
2.43942e-14
1.84387e-14
1.28555e-14
6.40674e-15
-8.29766e-22
-6.40674e-15
-1.28555e-14
-1.84387e-14
-2.43942e-14
-2.90979e-14
2.90979e-14
2.43942e-14
1.84387e-14
1.28555e-14
6.40674e-15
-3.48191e-22
-6.40674e-15
-1.28555e-14
-1.84387e-14
-2.43942e-14
-2.90979e-14
2.90979e-14
2.43942e-14
1.84387e-14
1.28555e-14
6.40674e-15
-8.26664e-22
-6.40674e-15
-1.28555e-14
-1.84387e-14
-2.43942e-14
-2.90979e-14
-8.27956e-22
-6.40674e-15
-1.28555e-14
-1.84387e-14
-2.43942e-14
-2.90979e-14
2.90979e-14
2.43942e-14
1.84387e-14
1.28555e-14
6.40674e-15
-8.29766e-22
-6.40674e-15
-1.28555e-14
-1.84387e-14
-2.43942e-14
-2.90979e-14
2.90979e-14
2.43942e-14
1.84387e-14
1.28555e-14
6.40674e-15
-8.29766e-22
-6.40674e-15
-1.28555e-14
-1.84387e-14
-2.43942e-14
-2.90979e-14
2.90979e-14
2.43942e-14
1.84387e-14
1.28555e-14
6.40674e-15
-8.29766e-22
-6.40674e-15
-1.28555e-14
-1.84387e-14
-2.43942e-14
-2.90979e-14
2.90979e-14
2.43942e-14
1.84387e-14
1.28555e-14
6.40674e-15
-3.48191e-22
-6.40674e-15
-1.28555e-14
-1.84387e-14
-2.43942e-14
-2.90979e-14
2.90979e-14
2.43942e-14
1.84387e-14
1.28555e-14
6.40674e-15
-8.26664e-22
-6.40674e-15
-1.28555e-14
-1.84387e-14
-2.43942e-14
-2.90979e-14
-1.84387e-14
-1.84387e-14
-1.28555e-14
-6.40674e-15
-2.90979e-14
-2.43942e-14
-1.84387e-14
-1.28555e-14
-6.40674e-15
-8.83532e-22
6.40674e-15
1.28555e-14
1.84387e-14
2.43942e-14
2.90979e-14
-2.90979e-14
-2.43942e-14
-1.84387e-14
-1.28555e-14
-6.40674e-15
-8.83532e-22
6.40674e-15
1.28555e-14
1.84387e-14
2.43942e-14
2.90979e-14
-2.90979e-14
-2.43942e-14
-1.84387e-14
-1.28555e-14
-6.40674e-15
-8.83629e-22
6.40674e-15
1.28555e-14
1.84387e-14
2.43942e-14
2.90979e-14
-2.90979e-14
-2.43942e-14
-1.84387e-14
-1.28555e-14
-6.40674e-15
-8.83629e-22
6.40674e-15
1.28555e-14
1.84387e-14
2.43942e-14
2.90979e-14
-2.90979e-14
-2.43942e-14
-1.84387e-14
-1.28555e-14
-6.40674e-15
-5.87912e-22
6.40674e-15
1.28555e-14
1.84387e-14
2.43942e-14
2.90979e-14
-2.90979e-14
-2.43942e-14
-1.84387e-14
-1.28555e-14
-6.40674e-15
-8.83015e-22
6.40674e-15
1.28555e-14
1.84387e-14
2.43942e-14
2.90979e-14
-2.90979e-14
6.40674e-15
1.28555e-14
1.84387e-14
2.43942e-14
2.90979e-14
-2.90979e-14
-2.43942e-14
-6.40674e-15
-8.83532e-22
6.40674e-15
1.28555e-14
1.84387e-14
2.43942e-14
2.90979e-14
-2.90979e-14
-2.43942e-14
-1.84387e-14
-1.28555e-14
-6.40674e-15
-8.83629e-22
6.40674e-15
1.28555e-14
1.84387e-14
2.43942e-14
2.90979e-14
-2.90979e-14
-2.43942e-14
-1.84387e-14
-1.28555e-14
-6.40674e-15
-8.83629e-22
6.40674e-15
1.28555e-14
1.84387e-14
2.43942e-14
2.90979e-14
-2.90979e-14
-2.43942e-14
-1.84387e-14
-1.28555e-14
-6.40674e-15
-5.87912e-22
6.40674e-15
1.28555e-14
1.84387e-14
2.43942e-14
2.90979e-14
-2.90979e-14
-2.43942e-14
-1.84387e-14
-1.28555e-14
-6.40674e-15
-8.83015e-22
6.40674e-15
1.28555e-14
1.84387e-14
2.43942e-14
2.90979e-14
)
;
    }
    ami2
    {
        type            cyclicAMI;
        value           nonuniform List<scalar> 0();
    }
    outlet
    {
        type            calculated;
        value           nonuniform List<scalar> 
121
(
5.26371e-08
1.72336e-07
3.35941e-07
4.78227e-07
5.7407e-07
6.04036e-07
5.60756e-07
4.54707e-07
3.11222e-07
1.62978e-07
5.25405e-08
1.63295e-07
4.51399e-07
7.67525e-07
1.0025e-06
1.1436e-06
1.18584e-06
1.13092e-06
9.82084e-07
7.44835e-07
4.50845e-07
1.72091e-07
3.11894e-07
7.45105e-07
1.12932e-06
1.39114e-06
1.54283e-06
1.59043e-06
1.53803e-06
1.38651e-06
1.12966e-06
7.67418e-07
3.35685e-07
4.55415e-07
9.82091e-07
1.38614e-06
1.65262e-06
1.80627e-06
1.85589e-06
1.80467e-06
1.65283e-06
1.39144e-06
1.00254e-06
4.78292e-07
5.61398e-07
1.13094e-06
1.53781e-06
1.80456e-06
1.95887e-06
2.00963e-06
1.95882e-06
1.80621e-06
1.54296e-06
1.14365e-06
5.74541e-07
6.04663e-07
1.18585e-06
1.59031e-06
1.85566e-06
2.00946e-06
2.06069e-06
2.0095e-06
1.85568e-06
1.59035e-06
1.18582e-06
6.04853e-07
5.74721e-07
1.14358e-06
1.54269e-06
1.80593e-06
1.95847e-06
2.0093e-06
1.95862e-06
1.80445e-06
1.53772e-06
1.13078e-06
5.61836e-07
4.789e-07
1.00265e-06
1.39093e-06
1.65208e-06
1.80393e-06
1.85524e-06
1.80585e-06
1.65241e-06
1.38596e-06
9.82027e-07
4.55936e-07
3.36516e-07
7.68104e-07
1.12931e-06
1.38558e-06
1.53715e-06
1.58988e-06
1.54259e-06
1.39102e-06
1.12928e-06
7.45518e-07
3.12129e-07
1.7258e-07
4.52195e-07
7.46082e-07
9.82462e-07
1.13098e-06
1.18594e-06
1.14381e-06
1.00278e-06
7.67975e-07
4.51966e-07
1.63419e-07
5.27134e-08
1.63543e-07
3.12583e-07
4.5684e-07
5.63066e-07
6.06135e-07
5.75735e-07
4.79467e-07
3.36736e-07
1.72626e-07
5.27022e-08
)
;
    }
    procBoundary6to5
    {
        type            processor;
        value           nonuniform List<scalar> 
177
(
-5.56112e-08
3.47521e-08
-1.81238e-07
-3.54007e-07
-8.9526e-08
2.81054e-08
-4.9911e-07
-5.98401e-07
-1.17428e-07
-6.22964e-07
-6.28987e-09
-5.77664e-07
4.49287e-09
-4.68638e-07
-3.2062e-07
6.59612e-08
-1.69354e-07
-2.988e-08
-5.50667e-08
-1.69459e-07
2.98583e-08
6.59283e-08
-4.68978e-07
-5.5448e-08
6.07531e-08
-7.83112e-07
-1.0146e-06
-1.15202e-06
-1.19109e-06
-1.13546e-06
-9.71846e-08
-9.88836e-07
2.67667e-08
-7.56796e-07
4.18684e-08
-4.6265e-07
3.19775e-08
-1.79665e-07
-3.20901e-07
2.27221e-08
-7.60128e-07
8.28572e-08
-1.1315e-06
-1.38356e-06
-1.52972e-06
-1.57402e-06
-1.52145e-06
1.64814e-08
-1.37531e-06
-1.13148e-06
-5.28009e-08
-7.79824e-07
2.79813e-08
7.71517e-08
-3.50927e-07
-4.691e-07
-1.09141e-07
-9.89076e-07
2.68809e-08
-9.71671e-08
-1.37515e-06
-8.06462e-08
-1.6313e-06
-5.87873e-08
-1.78049e-06
-3.31411e-08
-1.82825e-06
5.97731e-08
-5.10718e-09
-1.77231e-06
-5.87198e-08
-1.63139e-06
4.9742e-08
-1.38366e-06
7.31038e-08
-1.01464e-06
9.31363e-08
-4.99303e-07
-5.82816e-07
-1.13553e-06
9.6539e-09
-1.51777e-06
-8.39541e-08
-1.77219e-06
-5.98332e-08
-1.92184e-06
-3.19168e-08
-1.97113e-06
-1.92188e-06
-1.77507e-06
-1.52685e-06
-1.15371e-06
-1.56902e-08
-5.98676e-07
1.17329e-07
-6.29236e-07
-1.17414e-07
-8.90505e-09
-1.19099e-06
-8.74283e-09
-1.0207e-07
-1.56693e-06
8.15382e-08
-1.8166e-06
5.67874e-08
-1.96433e-06
1.69484e-09
2.84662e-08
-2.02056e-06
-1.97107e-06
-1.82241e-06
-1.57054e-06
-1.19224e-06
-6.34572e-07
-6.0478e-07
-1.15371e-06
-1.52681e-06
-1.77493e-06
-1.92165e-06
-1.97098e-06
-1.92179e-06
-1.77226e-06
-1.51794e-06
-1.13648e-06
-5.87252e-07
-5.04213e-07
-1.01719e-06
-1.38179e-06
-1.62669e-06
-1.772e-06
-1.82225e-06
-1.77499e-06
-1.62688e-06
-1.37288e-06
-9.92361e-07
-4.76367e-07
-3.54372e-07
-7.86492e-07
-1.1316e-06
-1.37267e-06
-1.51774e-06
-1.57043e-06
-1.5268e-06
-1.38181e-06
-1.13161e-06
-7.62958e-07
-3.26113e-07
-1.81433e-07
-4.69365e-07
-2.25679e-08
-7.63323e-07
-2.26056e-08
-9.92595e-07
-1.42928e-08
-1.13658e-06
-4.10823e-09
-1.19234e-06
-1.15388e-06
-1.01724e-06
-7.86385e-07
-4.69151e-07
-1.70951e-07
-5.56803e-08
-6.61311e-08
-1.7107e-07
-6.60834e-08
-3.31785e-07
9.14022e-08
-4.80683e-07
-5.92767e-07
1.18175e-07
-6.35315e-07
-6.05093e-07
-5.04388e-07
-3.54403e-07
-1.81416e-07
-5.56609e-08
)
;
    }
}

