/*--------------------------------*- C++ -*----------------------------------*\
| =========                 |                                                 |
| \\      /  F ield         | OpenFOAM: The Open Source CFD Toolbox           |
|  \\    /   O peration     | Version:  2212                                  |
|   \\  /    A nd           | Website:  www.openfoam.com                      |
|    \\/     M anipulation  |                                                 |
\*---------------------------------------------------------------------------*/
FoamFile
{
    version     2.0;
    format      ascii;
    arch        "LSB;label=32;scalar=64";
    class       volVectorField;
    location    "2";
    object      U;
}
// * * * * * * * * * * * * * * * * * * * * * * * * * * * * * * * * * * * * * //

dimensions      [0 1 -1 0 0 0 0];

internalField   nonuniform List<vector> 
678
(
(0.0219043 -1.1492e-05 2.5633e-05)
(0.0217053 -1.08358e-05 2.2402e-05)
(0.0215234 -1.22168e-05 1.81508e-05)
(0.0213317 -1.65356e-05 1.34829e-05)
(0.0211743 -1.76504e-05 6.42937e-06)
(0.0208342 -2.74701e-05 1.0404e-06)
(0.0370396 -0.000163883 1.78256e-05)
(0.0367204 -0.00015088 9.43988e-06)
(0.0364264 -0.000143616 5.89782e-07)
(0.0361254 -0.000142176 -9.43765e-06)
(0.0358698 -0.000133354 -1.89914e-05)
(0.0353787 -0.000145112 -3.10155e-05)
(0.0512299 -0.000339335 -9.03863e-05)
(0.0507578 -0.0003196 -9.55742e-05)
(0.0503099 -0.000299977 -0.000101366)
(0.0498617 -0.000283851 -0.000104957)
(0.0494815 -0.000258407 -0.000107696)
(0.0488345 -0.000256144 -0.000105122)
(0.0590216 -0.00054806 -0.000235577)
(0.058495 -0.000517621 -0.000226667)
(0.0579702 -0.000480918 -0.000215103)
(0.0575345 -0.000435105 -0.000201076)
(0.0568149 -0.000396392 -0.000181355)
(0.063469 -0.00078669 -0.000384625)
(0.0628998 -0.000705392 -0.000354704)
(0.062353 -0.000622395 -0.000323998)
(0.0619019 -0.00054259 -0.000290036)
(0.0611807 -0.000466158 -0.000253415)
(0.0638564 -0.00067407 -0.000413523)
(0.063335 -0.000574235 -0.000369669)
(0.0628867 -0.000488815 -0.000323193)
(0.0621918 -0.00041111 -0.000273839)
(0.0613179 -0.000406009 -0.000295547)
(0.0608453 -0.000382689 -0.000279108)
(0.0604207 -0.000356169 -0.000246707)
(0.0597618 -0.000318524 -0.000203509)
(0.0554459 -0.00028183 -0.000173687)
(0.0550034 -0.000276206 -0.000160827)
(0.0546149 -0.000255201 -0.000133636)
(0.0540206 -0.000229789 -0.000122951)
(0.0464142 -0.000168655 -9.92531e-05)
(0.0460602 -0.000161292 -8.71521e-05)
(0.0457527 -0.000139247 -7.16262e-05)
(0.0452411 -0.000132696 -8.66384e-05)
(0.0346319 -6.53213e-05 -1.25633e-05)
(0.0343573 -6.21481e-05 -1.05747e-05)
(0.0340973 -6.01729e-05 -1.53002e-05)
(0.0338837 -5.09256e-05 -2.62777e-05)
(0.0334576 -5.6225e-05 -4.97329e-05)
(0.0216983 -2.39992e-05 -1.06162e-05)
(0.021511 -2.21314e-05 -1.0255e-05)
(0.0213177 -1.95805e-05 -1.36562e-05)
(0.0211568 -1.26116e-05 -1.52128e-05)
(0.0207959 -6.9777e-06 -2.61857e-05)
(0.0346492 -9.70357e-06 6.15324e-05)
(0.0343978 -1.12756e-05 5.87111e-05)
(0.0341441 -2.0533e-05 5.75074e-05)
(0.0339306 -3.16977e-05 4.89393e-05)
(0.0335227 -5.09722e-05 5.19334e-05)
(0.066413 -0.00031749 0.000115985)
(0.065953 -0.000317005 0.000113942)
(0.0655173 -0.000317854 0.000112011)
(0.065088 -0.000319516 0.000107039)
(0.0647353 -0.000327129 9.97979e-05)
(0.0641294 -0.000342149 8.8835e-05)
(0.0878418 -0.000732963 -2.42747e-05)
(0.0874887 -0.000726097 -2.03105e-05)
(0.0871138 -0.00071717 -1.76386e-05)
(0.086803 -0.000705202 -1.64865e-05)
(0.086266 -0.000668116 -1.53381e-05)
(0.0981814 -0.000987345 -0.000228588)
(0.0979485 -0.000975098 -0.000209354)
(0.0977044 -0.000968875 -0.000190509)
(0.0974875 -0.00095042 -0.000171244)
(0.0971247 -0.0008761 -0.000146931)
(0.102633 -0.00114964 -0.000342425)
(0.102489 -0.00112519 -0.000323292)
(0.102337 -0.00110475 -0.000303188)
(0.102192 -0.00106827 -0.000278695)
(0.101954 -0.000977534 -0.00024305)
(0.103331 -0.00109592 -0.000385201)
(0.103248 -0.00107539 -0.000382025)
(0.103152 -0.00104236 -0.000374945)
(0.103066 -0.000996344 -0.000361218)
(0.102919 -0.000928182 -0.000337071)
(0.101186 -0.000852359 -0.000447452)
(0.101107 -0.000841633 -0.00046081)
(0.10102 -0.000819059 -0.000466801)
(0.100945 -0.000785781 -0.000464803)
(0.100823 -0.000721917 -0.000444076)
(0.0957203 -0.000574636 -0.00054195)
(0.0955508 -0.000561311 -0.00054431)
(0.0954022 -0.000551578 -0.000553792)
(0.0951468 -0.000519329 -0.000539253)
(0.0848869 -0.000350646 -0.000550036)
(0.084543 -0.000348958 -0.000555778)
(0.0842284 -0.000348534 -0.000567936)
(0.0837158 -0.000332932 -0.000562949)
(0.065499 -0.000112181 -0.000305301)
(0.0650586 -0.000115145 -0.0003156)
(0.0646771 -0.000114724 -0.000330149)
(0.0640507 -0.000108112 -0.000351212)
(0.0367324 -1.28355e-05 -0.000153293)
(0.0364185 -1.1227e-05 -0.000148567)
(0.0361062 -7.12409e-06 -0.000145941)
(0.035843 -3.75724e-07 -0.000134493)
(0.0353285 1.26008e-05 -0.00014784)
(0.0464675 -8.17546e-05 0.000157602)
(0.0461273 -7.24996e-05 0.000148378)
(0.0458395 -6.66226e-05 0.000131402)
(0.0453389 -8.4081e-05 0.000127334)
(0.0852736 -0.000553075 0.000349504)
(0.0849291 -0.000560506 0.000351)
(0.084561 -0.000568866 0.000352356)
(0.0842547 -0.000569963 0.000345395)
(0.0837462 -0.00054363 0.000314156)
(0.106448 -0.00107176 0.000257836)
(0.106425 -0.00107188 0.000260458)
(0.106388 -0.00107221 0.000264334)
(0.106341 -0.00105785 0.000262887)
(0.106248 -0.000975538 0.000236604)
(0.115777 -0.00125461 -2.18607e-05)
(0.115914 -0.00124676 -9.41655e-06)
(0.116051 -0.00123217 4.57311e-06)
(0.116164 -0.00120094 1.75434e-05)
(0.116328 -0.0011212 2.47794e-05)
(0.119684 -0.0013028 -0.000236805)
(0.119899 -0.0012878 -0.000223704)
(0.120116 -0.00126257 -0.000207286)
(0.120304 -0.0012217 -0.000187746)
(0.120576 -0.00112697 -0.000165063)
(0.120487 -0.00116629 -0.000431741)
(0.120748 -0.00114806 -0.000425467)
(0.121008 -0.0011184 -0.000415392)
(0.121241 -0.00107003 -0.000397756)
(0.121577 -0.000982186 -0.00037021)
(0.119063 -0.00087696 -0.000665912)
(0.119336 -0.000863894 -0.000668359)
(0.119605 -0.000842258 -0.000664443)
(0.119847 -0.00080941 -0.00065206)
(0.12019 -0.000746877 -0.000618726)
(0.115112 -0.000561855 -0.000931049)
(0.115315 -0.000557146 -0.000933485)
(0.115509 -0.000548295 -0.000931819)
(0.115681 -0.000531413 -0.000920754)
(0.115927 -0.000487771 -0.000866532)
(0.106441 -0.0002652 -0.0010685)
(0.106432 -0.000272542 -0.00107658)
(0.106394 -0.000274556 -0.00107212)
(0.106361 -0.000269779 -0.00105229)
(0.106281 -0.00025111 -0.000988749)
(0.0874664 1.2454e-05 -0.000719357)
(0.0871146 4.80751e-06 -0.000713747)
(0.086795 -1.17875e-06 -0.000707644)
(0.086254 -7.99289e-06 -0.00068642)
(0.0507901 8.96232e-05 -0.000318421)
(0.0503205 8.23322e-05 -0.000315613)
(0.0498623 7.75915e-05 -0.00030418)
(0.0494604 7.9274e-05 -0.000269814)
(0.0487972 7.97155e-05 -0.000261032)
(0.0555038 -0.000161892 0.000274109)
(0.0550613 -0.000142926 0.000262865)
(0.054693 -0.00012115 0.000241931)
(0.0541047 -0.000118486 0.000220248)
(0.0957439 -0.000533182 0.000556985)
(0.0955723 -0.000549867 0.000553617)
(0.0954077 -0.000560084 0.000546456)
(0.0951475 -0.000527904 0.000500054)
(0.115099 -0.000925966 0.000548316)
(0.115298 -0.00093445 0.000544163)
(0.115494 -0.000936798 0.000536314)
(0.11566 -0.00092721 0.000521087)
(0.115902 -0.000871364 0.000479547)
(0.12362 -0.000994776 0.000240208)
(0.123955 -0.000991687 0.000241612)
(0.12429 -0.00098848 0.000244558)
(0.124591 -0.000974313 0.000244185)
(0.12502 -0.000928445 0.000235663)
(0.12733 -0.000958629 -3.9842e-05)
(0.127712 -0.000947195 -3.48351e-05)
(0.128091 -0.00093383 -2.90862e-05)
(0.128437 -0.000909407 -2.30091e-05)
(0.128923 -0.0008633 -1.64512e-05)
(0.128285 -0.000788867 -0.000325602)
(0.128686 -0.000775782 -0.000322507)
(0.129084 -0.00076016 -0.0003184)
(0.129449 -0.000734517 -0.000309488)
(0.129958 -0.000694161 -0.000296157)
(0.126755 -0.000541851 -0.000657125)
(0.12716 -0.000534583 -0.00065666)
(0.127554 -0.000527102 -0.000656158)
(0.127945 -0.00051442 -0.000649946)
(0.128302 -0.000494662 -0.000635215)
(0.128804 -0.000465795 -0.000609986)
(0.123627 -0.000253209 -0.000991558)
(0.123966 -0.000251276 -0.000988327)
(0.124301 -0.000249734 -0.000984608)
(0.124603 -0.000245448 -0.000968905)
(0.125032 -0.000234994 -0.000925705)
(0.115785 1.1316e-05 -0.00124682)
(0.11593 2.63111e-06 -0.00124116)
(0.116061 -7.20894e-06 -0.00122423)
(0.116184 -1.84424e-05 -0.00119563)
(0.116349 -2.827e-05 -0.00113391)
(0.0981823 0.000217419 -0.00097684)
(0.0979517 0.000197257 -0.000980039)
(0.0977059 0.000176449 -0.000976716)
(0.0974905 0.000154099 -0.000952354)
(0.0971282 0.000127711 -0.000896661)
(0.0590463 0.000222793 -0.000549402)
(0.0585043 0.000200634 -0.000527782)
(0.0579929 0.000180824 -0.000493385)
(0.057542 0.000165647 -0.000443257)
(0.0568225 0.000150124 -0.00039927)
(0.0618655 -0.000309301 0.000432244)
(0.0613817 -0.000297084 0.000404211)
(0.0609073 -0.000275476 0.000376722)
(0.0604842 -0.000241281 0.00034664)
(0.0598302 -0.000200473 0.00030897)
(0.101193 -0.000444584 0.000842453)
(0.101116 -0.000459784 0.000827529)
(0.101028 -0.000469087 0.000804108)
(0.100952 -0.000470204 0.000773176)
(0.100825 -0.000447593 0.000710443)
(0.118775 -0.000661891 0.00088028)
(0.119054 -0.000672874 0.000871803)
(0.119323 -0.000675712 0.000857651)
(0.11959 -0.00067103 0.000833984)
(0.119831 -0.000657287 0.000800504)
(0.120173 -0.000619755 0.000736719)
(0.126746 -0.000661079 0.000526002)
(0.127149 -0.000658942 0.000521529)
(0.127544 -0.000656599 0.000519286)
(0.127937 -0.000649464 0.000511351)
(0.128296 -0.00063398 0.000495011)
(0.128797 -0.000607413 0.000468093)
(0.130369 -0.000584323 0.000175936)
(0.130807 -0.00057784 0.000177175)
(0.131236 -0.000569687 0.000179099)
(0.13166 -0.00055822 0.000178576)
(0.132055 -0.000541149 0.000174831)
(0.132584 -0.000517956 0.000168355)
(0.131401 -0.000407653 -0.000187977)
(0.131846 -0.000401021 -0.000186329)
(0.132284 -0.000393358 -0.000184142)
(0.132716 -0.000382561 -0.000179903)
(0.133121 -0.000369456 -0.000174178)
(0.133663 -0.000362575 -0.00017126)
(0.130371 -0.00018897 -0.000577111)
(0.130806 -0.000185717 -0.000574518)
(0.131234 -0.000181642 -0.000570683)
(0.131658 -0.000176747 -0.000561701)
(0.132052 -0.0001703 -0.000545917)
(0.132581 -0.000162378 -0.000523515)
(0.126945 3.23042e-05 -0.000963177)
(0.127332 3.07757e-05 -0.000955904)
(0.127712 3.06611e-05 -0.000949857)
(0.12809 2.87311e-05 -0.000935518)
(0.128434 2.50986e-05 -0.000909311)
(0.128917 1.97109e-05 -0.000864393)
(0.119462 0.000236975 -0.00131022)
(0.119687 0.000228878 -0.00130156)
(0.119907 0.000219014 -0.00128474)
(0.120122 0.00020477 -0.00125627)
(0.120315 0.000187948 -0.00121886)
(0.120582 0.000166408 -0.00113879)
(0.102783 0.000345184 -0.00117055)
(0.102644 0.000328306 -0.00115023)
(0.102503 0.000311873 -0.00113853)
(0.10234 0.000290825 -0.00111307)
(0.102197 0.000263171 -0.00106674)
(0.101958 0.000230069 -0.000989853)
(0.0635009 0.00036583 -0.000792875)
(0.0629281 0.000326813 -0.000710634)
(0.0623992 0.000289284 -0.000623146)
(0.0619407 0.000253682 -0.000540587)
(0.0612309 0.000220712 -0.000461095)
(0.0644903 -0.00045612 0.000754958)
(0.0639309 -0.000425051 0.000679679)
(0.0633931 -0.000378648 0.000576191)
(0.0629544 -0.00032835 0.000487126)
(0.0622564 -0.000277816 0.000406357)
(0.103324 -0.000386901 0.00108845)
(0.103242 -0.000379786 0.00106113)
(0.103152 -0.000377262 0.00103558)
(0.103063 -0.000368576 0.00099343)
(0.10292 -0.000337803 0.000909479)
(0.119946 -0.000437737 0.00117934)
(0.120215 -0.00044214 0.00117794)
(0.120482 -0.00043968 0.00117024)
(0.120742 -0.000430176 0.00114823)
(0.121004 -0.00041828 0.00111546)
(0.121234 -0.000401227 0.00106834)
(0.121569 -0.000372511 0.000982027)
(0.12747 -0.000334322 0.000795829)
(0.127878 -0.000334472 0.000791411)
(0.128281 -0.000332553 0.000788248)
(0.128678 -0.000327473 0.000780488)
(0.129075 -0.00031942 0.000764293)
(0.129438 -0.000307777 0.00073823)
(0.129942 -0.000292657 0.000698024)
(0.13095 -0.000186393 0.000395309)
(0.131401 -0.000187356 0.000395005)
(0.131843 -0.000186894 0.0003971)
(0.132278 -0.000184121 0.000396544)
(0.13271 -0.000179207 0.000390083)
(0.133114 -0.00017324 0.000379429)
(0.133652 -0.000170071 0.000373319)
(0.132434 -1.92695e-06 -3.29711e-06)
(0.132886 -1.31146e-06 -4.87553e-07)
(0.133331 5.2535e-08 2.0311e-06)
(0.133775 1.35053e-06 3.44588e-06)
(0.134179 1.86934e-06 3.8814e-06)
(0.134753 1.98141e-06 3.70217e-06)
(0.131395 0.000181648 -0.00040053)
(0.131838 0.00018132 -0.000396497)
(0.132274 0.00018174 -0.000392396)
(0.132708 0.000180039 -0.000383908)
(0.133113 0.000176307 -0.000372016)
(0.133654 0.000174655 -0.000365711)
(0.127876 0.000322981 -0.000793237)
(0.128278 0.000321892 -0.000784039)
(0.128676 0.000322712 -0.000776411)
(0.129074 0.000319715 -0.000761047)
(0.129438 0.000310908 -0.000735043)
(0.129944 0.000297227 -0.000695087)
(0.120223 0.000425254 -0.00117604)
(0.120485 0.000425261 -0.00116382)
(0.120747 0.000423022 -0.00114354)
(0.121007 0.000415735 -0.00111125)
(0.12124 0.00040015 -0.00106426)
(0.121571 0.000372187 -0.000980461)
(0.10343 0.000377834 -0.00112235)
(0.103344 0.000370477 -0.00109717)
(0.103262 0.000369463 -0.001078)
(0.103159 0.000365374 -0.00104606)
(0.10307 0.000350135 -0.000994005)
(0.102917 0.000324879 -0.000924368)
(0.0650369 0.000450944 -0.000793584)
(0.0644617 0.000432301 -0.000760252)
(0.063905 0.000387824 -0.000676126)
(0.0633946 0.000334593 -0.000568562)
(0.0629537 0.000285183 -0.000479405)
(0.0622759 0.000239138 -0.000401262)
(0.0641415 -0.000410673 0.000847749)
(0.0635383 -0.000391622 0.000786679)
(0.0629653 -0.000364543 0.00070093)
(0.0624306 -0.000332718 0.000615231)
(0.0619681 -0.00029553 0.000537738)
(0.0612501 -0.000259025 0.000462903)
(0.102783 -0.000364344 0.00115723)
(0.102642 -0.000347956 0.00113921)
(0.102499 -0.000330798 0.00112917)
(0.102334 -0.000309759 0.00110507)
(0.102192 -0.000283566 0.00106045)
(0.101952 -0.000251214 0.000982388)
(0.119458 -0.000251686 0.00130133)
(0.119678 -0.000239665 0.00129616)
(0.119895 -0.000223974 0.00128146)
(0.120109 -0.000206486 0.00125441)
(0.1203 -0.000189317 0.0012179)
(0.120562 -0.000168431 0.00113632)
(0.126934 -4.10947e-05 0.000952479)
(0.127318 -3.8118e-05 0.000948817)
(0.127697 -3.37056e-05 0.000947549)
(0.128074 -2.8201e-05 0.000936151)
(0.128418 -2.25277e-05 0.000911542)
(0.128897 -1.61469e-05 0.000866916)
(0.130354 0.00018419 0.00057387)
(0.130787 0.00018123 0.000570739)
(0.131214 0.000179324 0.000568648)
(0.131638 0.000176607 0.000561715)
(0.132031 0.000171649 0.000547443)
(0.132558 0.000164731 0.000525951)
(0.131389 0.00039828 0.000186398)
(0.13183 0.000395251 0.000185322)
(0.132265 0.000392605 0.00018455)
(0.132697 0.00038561 0.000181807)
(0.133101 0.000374797 0.000177391)
(0.133641 0.000368797 0.00017516)
(0.130363 0.000569976 -0.000180849)
(0.130796 0.000568654 -0.000179718)
(0.131222 0.000567837 -0.000178911)
(0.131646 0.000561563 -0.000176344)
(0.13204 0.00054757 -0.00017112)
(0.132568 0.000525901 -0.000163865)
(0.12675 0.000644386 -0.000530357)
(0.127148 0.000645754 -0.000524375)
(0.127541 0.000650545 -0.000520915)
(0.127934 0.000649396 -0.000512212)
(0.128292 0.000637297 -0.000495014)
(0.12879 0.00061245 -0.000467351)
(0.118791 0.000648841 -0.000885982)
(0.11906 0.000657114 -0.000874536)
(0.119328 0.000662417 -0.00085828)
(0.119593 0.000661426 -0.000833813)
(0.119832 0.000649723 -0.000800224)
(0.120167 0.000614081 -0.00073725)
(0.101283 0.000425844 -0.000870021)
(0.101207 0.000430804 -0.000848429)
(0.101129 0.000446226 -0.000837764)
(0.10103 0.000456746 -0.000819327)
(0.100947 0.000451464 -0.000782674)
(0.100811 0.000427668 -0.000717112)
(0.062331 0.000324427 -0.000482374)
(0.061849 0.000296319 -0.000437676)
(0.0613718 0.000267182 -0.000399395)
(0.0609175 0.000237421 -0.000367717)
(0.0605071 0.000205419 -0.000339022)
(0.0598769 0.000173067 -0.000306147)
(0.0596262 -0.000252388 0.000565505)
(0.0590903 -0.000243968 0.000541053)
(0.0585614 -0.000234878 0.000508342)
(0.0580557 -0.000222504 0.000471198)
(0.0576091 -0.000207458 0.000428063)
(0.0568948 -0.000186551 0.00039385)
(0.0984338 -0.000255872 0.000986764)
(0.0982051 -0.000239634 0.000973916)
(0.0979703 -0.000222085 0.000974812)
(0.0977214 -0.00020333 0.000965231)
(0.0975031 -0.000182749 0.000937176)
(0.0971392 -0.000156766 0.000881762)
(0.115631 -4.11203e-05 0.00124774)
(0.115774 -2.87094e-05 0.0012426)
(0.115913 -1.42136e-05 0.00123784)
(0.116041 3.58877e-09 0.00121944)
(0.116157 1.24032e-05 0.00118857)
(0.116308 2.07317e-05 0.00112371)
(0.123271 0.000237134 0.000984431)
(0.123604 0.000239564 0.0009846)
(0.123935 0.000245431 0.000991304)
(0.124263 0.000248795 0.000988987)
(0.124561 0.000246502 0.00097169)
(0.124977 0.000235982 0.000925819)
(0.12673 0.000526823 0.000651042)
(0.127124 0.000521261 0.000651334)
(0.127513 0.000518163 0.000654347)
(0.127904 0.000510021 0.000651511)
(0.128259 0.000493081 0.000638341)
(0.128753 0.000465079 0.000612997)
(0.127862 0.000786161 0.000330702)
(0.128261 0.000778421 0.000328227)
(0.128655 0.000772316 0.000326584)
(0.129051 0.000758558 0.000321649)
(0.129412 0.00073366 0.000311754)
(0.129914 0.000693339 0.000297303)
(0.126937 0.000951424 4.23346e-05)
(0.127319 0.000946654 3.8508e-05)
(0.127695 0.000944452 3.36478e-05)
(0.128071 0.000932785 2.78783e-05)
(0.128415 0.000907983 2.2332e-05)
(0.128892 0.000862832 1.62678e-05)
(0.123287 0.000981668 -0.000241911)
(0.123623 0.000982145 -0.000244267)
(0.123957 0.000989392 -0.000250103)
(0.124285 0.00098767 -0.000253667)
(0.124585 0.000970223 -0.000251099)
(0.125002 0.00092399 -0.000240404)
(0.114915 0.000908211 -0.000556393)
(0.115114 0.000913658 -0.000552269)
(0.115311 0.000924528 -0.0005518)
(0.115493 0.000926353 -0.000545327)
(0.11566 0.000912391 -0.000527755)
(0.115885 0.000861782 -0.000489466)
(0.0960667 0.000520233 -0.000593607)
(0.0959116 0.000525739 -0.000583208)
(0.0957444 0.000541586 -0.000583353)
(0.0955648 0.000549968 -0.000578847)
(0.0954007 0.000543474 -0.000558585)
(0.0951413 0.000517618 -0.000516493)
(0.0563701 0.000172365 -0.00027955)
(0.0559384 0.00016031 -0.000276611)
(0.0555053 0.000145324 -0.000267989)
(0.0550982 0.000128974 -0.000255852)
(0.0547305 0.000110305 -0.00023814)
(0.0541666 0.000110102 -0.000221315)
(0.0512807 -0.000102037 0.000332606)
(0.0508242 -0.000105012 0.000315014)
(0.0503816 -0.000108423 0.00029775)
(0.0499423 -0.000111499 0.000281208)
(0.0495609 -0.000114694 0.000254212)
(0.048918 -0.00011049 0.00025516)
(0.0882261 -4.36669e-05 0.000732569)
(0.0878844 -4.02037e-05 0.000725409)
(0.0875288 -3.55217e-05 0.00072412)
(0.0871747 -3.30695e-05 0.00071293)
(0.0868573 -3.18236e-05 0.000697109)
(0.0863312 -2.75453e-05 0.000667494)
(0.106462 0.00024053 0.00106214)
(0.106453 0.000243713 0.00105942)
(0.106429 0.00025034 0.00106461)
(0.106384 0.000251554 0.0010554)
(0.106341 0.000245482 0.00103147)
(0.106248 0.00022638 0.000964723)
(0.114895 0.000543616 0.000908887)
(0.115091 0.000540538 0.00091625)
(0.115284 0.000537634 0.000924063)
(0.115465 0.000528033 0.000922038)
(0.11563 0.000512223 0.000911186)
(0.115853 0.000475557 0.00086347)
(0.118772 0.000876319 0.000653998)
(0.119036 0.000863873 0.000661093)
(0.119298 0.000847228 0.000665811)
(0.119558 0.000822053 0.000663528)
(0.119794 0.000786961 0.000650125)
(0.120123 0.000723138 0.000614603)
(0.120212 0.00116309 0.000430928)
(0.120471 0.00115124 0.000430104)
(0.120726 0.00113115 0.000426212)
(0.120985 0.00109947 0.000417848)
(0.121211 0.00105156 0.000401368)
(0.121537 0.000964875 0.000372196)
(0.119457 0.00129544 0.000243432)
(0.119676 0.00128645 0.000233611)
(0.119893 0.00126966 0.000220517)
(0.120105 0.00124147 0.000204263)
(0.120295 0.00120343 0.000187159)
(0.120555 0.00111938 0.000165861)
(0.115634 0.00124248 2.88714e-05)
(0.115779 0.00123555 1.68239e-05)
(0.11592 0.0012307 2.8889e-06)
(0.116048 0.00121223 -1.09479e-05)
(0.116165 0.0011798 -2.23689e-05)
(0.116316 0.00111344 -2.95777e-05)
(0.106461 0.00106088 -0.000259021)
(0.106452 0.00105634 -0.000262313)
(0.106425 0.00106024 -0.000268805)
(0.106382 0.00104982 -0.000269929)
(0.106338 0.00102477 -0.000263473)
(0.106245 0.000957892 -0.000243431)
(0.0855879 0.000555929 -0.000361827)
(0.0852625 0.000546251 -0.000356857)
(0.0849217 0.000550879 -0.000358298)
(0.0845851 0.0005527 -0.000356259)
(0.0842786 0.000546929 -0.000345204)
(0.0837925 0.000526303 -0.000317016)
(0.0472172 0.000108369 -0.000168906)
(0.0468517 9.39884e-05 -0.000165524)
(0.0464993 8.36769e-05 -0.000158898)
(0.0461606 7.69888e-05 -0.000151058)
(0.0458659 6.73765e-05 -0.000134377)
(0.045373 8.29672e-05 -0.00013095)
(0.0370859 6.5481e-06 0.000158046)
(0.0367752 -6.98973e-07 0.000150487)
(0.0364783 -8.60649e-06 0.000146374)
(0.0361734 -1.89677e-05 0.000142289)
(0.0359174 -2.86427e-05 0.000130697)
(0.0354289 -3.84572e-05 0.000143949)
(0.0664638 9.89526e-05 0.000307996)
(0.0660288 9.54593e-05 0.000310247)
(0.06561 9.37146e-05 0.000320683)
(0.065191 8.8264e-05 0.000326089)
(0.064836 7.99435e-05 0.00033023)
(0.0642425 7.20885e-05 0.000344405)
(0.0856317 0.000340783 0.000562077)
(0.0853102 0.000337368 0.00055866)
(0.0849719 0.000336123 0.000561157)
(0.0846424 0.000329256 0.00055652)
(0.0843411 0.000321905 0.000557681)
(0.083856 0.000299188 0.000543336)
(0.0960916 0.000575289 0.000523977)
(0.0959399 0.000564392 0.00053183)
(0.0957774 0.00056346 0.000548603)
(0.0955991 0.000557618 0.000556359)
(0.0954381 0.000536693 0.000550005)
(0.0951835 0.000495267 0.000524885)
(0.101293 0.000854839 0.000428425)
(0.101219 0.000832549 0.00043475)
(0.101143 0.000820115 0.000450372)
(0.101045 0.000800687 0.000461941)
(0.100964 0.000763992 0.000457974)
(0.100829 0.000697217 0.000433819)
(0.103438 0.00110468 0.000378673)
(0.103353 0.00108474 0.000374709)
(0.103267 0.00105611 0.000369909)
(0.103172 0.00102386 0.000366414)
(0.103078 0.000977748 0.000356291)
(0.102927 0.000893648 0.000325584)
(0.102799 0.00115432 0.00034644)
(0.10266 0.00113104 0.000330833)
(0.102518 0.00111611 0.000314697)
(0.102355 0.00108944 0.000294337)
(0.102213 0.00104374 0.000268452)
(0.101972 0.000965238 0.000236626)
(0.0984379 0.000983566 0.000235137)
(0.09821 0.000968076 0.000218311)
(0.0979743 0.000965716 0.000200402)
(0.0977289 0.000954315 0.000181692)
(0.0975117 0.000925413 0.000161422)
(0.0971516 0.000869245 0.000136767)
(0.0882132 0.000726339 2.15404e-05)
(0.0878707 0.00071951 1.65289e-05)
(0.0875123 0.000716943 1.10742e-05)
(0.0871583 0.000704254 8.68314e-06)
(0.0868396 0.00068815 7.42608e-06)
(0.0863166 0.000656198 4.67554e-06)
(0.066433 0.000301752 -0.000122582)
(0.0659971 0.000303468 -0.000120433)
(0.0655756 0.000312806 -0.000119309)
(0.0651588 0.000317249 -0.000113821)
(0.0648059 0.000320948 -0.000105009)
(0.0642099 0.000335134 -9.47866e-05)
(0.0349532 7.90281e-06 -6.75761e-05)
(0.0346841 7.40197e-06 -6.5489e-05)
(0.0344305 1.32865e-05 -6.39166e-05)
(0.0341693 2.12577e-05 -6.18119e-05)
(0.0339515 2.92972e-05 -5.15345e-05)
(0.0335483 4.82822e-05 -5.43668e-05)
(0.0219382 1.90902e-05 1.27084e-05)
(0.0217471 1.54884e-05 1.39808e-05)
(0.0215602 1.16757e-05 1.66402e-05)
(0.0213613 7.5043e-06 1.99795e-05)
(0.0212024 2.03441e-07 1.995e-05)
(0.0208644 -3.9081e-06 2.9727e-05)
(0.0349785 5.64776e-05 1.88106e-05)
(0.0347096 5.37098e-05 1.94372e-05)
(0.0344563 5.14773e-05 2.48734e-05)
(0.0341957 4.90156e-05 3.10478e-05)
(0.033979 3.94866e-05 3.91014e-05)
(0.0335736 4.4121e-05 5.72714e-05)
(0.0480292 0.000159286 0.000146912)
(0.0476506 0.000158922 0.000134793)
(0.0472675 0.000157227 0.000119885)
(0.0469036 0.000152746 0.000106472)
(0.0465593 0.000145544 9.67613e-05)
(0.0462179 0.00013723 8.94166e-05)
(0.0459258 0.000120138 7.83812e-05)
(0.0454391 0.000118034 9.26614e-05)
(0.0568979 0.000266409 0.000192368)
(0.0564479 0.000266812 0.000183114)
(0.0560208 0.00026235 0.000171805)
(0.055595 0.000251938 0.000157605)
(0.0551928 0.000238785 0.000142464)
(0.0548309 0.000220782 0.00012253)
(0.054274 0.000205234 0.000119484)
(0.062922 0.000538904 0.000372014)
(0.0624157 0.000474057 0.000332911)
(0.0619407 0.000424615 0.00030604)
(0.0614739 0.000383933 0.000278274)
(0.0610273 0.000350166 0.000249418)
(0.0606265 0.000320162 0.000217985)
(0.060008 0.000288183 0.000183629)
(0.065121 0.000780185 0.000452211)
(0.064551 0.00074253 0.000435258)
(0.0640149 0.000668542 0.00039876)
(0.0634964 0.000558097 0.000346293)
(0.0630745 0.000466123 0.000296247)
(0.0624079 0.000386715 0.000250129)
(0.0641793 0.000843647 0.000396199)
(0.0635869 0.000781316 0.000370457)
(0.0630257 0.00069408 0.000336458)
(0.0625029 0.000604416 0.000300764)
(0.0620527 0.000523907 0.000264011)
(0.0613582 0.000447336 0.000230492)
(0.0596498 0.000561023 0.000233235)
(0.0591206 0.000535742 0.000221304)
(0.0585987 0.000502118 0.00020823)
(0.0581 0.000463949 0.000193479)
(0.0576611 0.000419433 0.000178236)
(0.0569622 0.000384026 0.000160254)
(0.0512876 0.000329061 8.3948e-05)
(0.0508344 0.000310396 8.4954e-05)
(0.0503987 0.000292463 8.6495e-05)
(0.0499615 0.000275517 8.84805e-05)
(0.0495856 0.000248679 9.14013e-05)
(0.04895 0.000249214 8.93889e-05)
(0.0370834 0.000157241 -2.33577e-05)
(0.036775 0.0001489 -1.69429e-05)
(0.0364813 0.000144354 -9.51136e-06)
(0.0361779 0.000140615 3.5916e-07)
(0.035923 0.000128713 9.86018e-06)
(0.0354382 0.000140865 2.20033e-05)
(0.0219301 8.79865e-06 -2.89527e-05)
(0.0217397 9.6794e-06 -2.6159e-05)
(0.0215537 1.18667e-05 -2.21243e-05)
(0.0213545 1.55418e-05 -1.67267e-05)
(0.0211953 1.57438e-05 -9.0524e-06)
(0.02086 2.56209e-05 -4.23279e-06)
)
;

boundaryField
{
    inlet
    {
        type            fixedValue;
        value           nonuniform List<vector> 0();
    }
    ami1
    {
        type            cyclicAMI;
        value           nonuniform List<vector> 0();
    }
    walls
    {
        type            noSlip;
    }
    ami2
    {
        type            cyclicAMI;
        value           nonuniform List<vector> 0();
    }
    outlet
    {
        type            zeroGradient;
    }
    procBoundary6to5
    {
        type            processor;
        value           nonuniform List<vector> 
177
(
(0.0221217 -1.23338e-05 2.80967e-05)
(0.0349303 -1.68161e-05 6.53795e-05)
(0.0373789 -0.000173651 2.43255e-05)
(0.0516969 -0.000357026 -8.9276e-05)
(0.0595759 -0.000570789 -0.000243482)
(0.0881997 -0.000752738 -2.58968e-05)
(0.0595759 -0.000570789 -0.000243482)
(0.0640839 -0.000850166 -0.000407582)
(0.064417 -0.000752564 -0.000448883)
(0.064417 -0.000752564 -0.000448883)
(0.064417 -0.000752564 -0.000448883)
(0.0618033 -0.000433958 -0.000306674)
(0.0618033 -0.000433958 -0.000306674)
(0.055908 -0.000279094 -0.000176108)
(0.0468017 -0.000169625 -0.000109936)
(0.0468017 -0.000169625 -0.000109936)
(0.0349133 -6.82713e-05 -1.89352e-05)
(0.0659584 -0.000115985 -0.000314716)
(0.021899 -2.66119e-05 -1.22529e-05)
(0.0349303 -1.68161e-05 6.53795e-05)
(0.0349303 -1.68161e-05 6.53795e-05)
(0.0468228 -0.000103512 0.000165813)
(0.0668479 -0.000320022 0.000119423)
(0.0881997 -0.000752738 -2.58968e-05)
(0.0856032 -0.000572338 0.000360477)
(0.0881997 -0.000752738 -2.58968e-05)
(0.098415 -0.00101351 -0.000245292)
(0.102773 -0.00118594 -0.000360848)
(0.103418 -0.0011361 -0.000398999)
(0.101268 -0.000885525 -0.000450673)
(0.0958755 -0.00060158 -0.000555285)
(0.0958755 -0.00060158 -0.000555285)
(0.0958755 -0.00060158 -0.000555285)
(0.0852292 -0.00036146 -0.000563207)
(0.0852292 -0.00036146 -0.000563207)
(0.0659584 -0.000115985 -0.000314716)
(0.0659584 -0.000115985 -0.000314716)
(0.0370444 -1.82576e-05 -0.000163462)
(0.0468228 -0.000103512 0.000165813)
(0.0468228 -0.000103512 0.000165813)
(0.0856032 -0.000572338 0.000360477)
(0.0959024 -0.000542153 0.000586852)
(0.106457 -0.00108488 0.000260009)
(0.115626 -0.0012727 -3.21199e-05)
(0.119457 -0.00132296 -0.000250314)
(0.120218 -0.00119055 -0.000441302)
(0.118782 -0.000899746 -0.000668459)
(0.118782 -0.000899746 -0.000668459)
(0.114907 -0.000572446 -0.000935806)
(0.106454 -0.000268064 -0.00108952)
(0.0878218 1.8334e-05 -0.000735412)
(0.0878218 1.8334e-05 -0.000735412)
(0.0878218 1.8334e-05 -0.000735412)
(0.0878218 1.8334e-05 -0.000735412)
(0.0512457 9.10024e-05 -0.000330548)
(0.055958 -0.000175613 0.000276794)
(0.055958 -0.000175613 0.000276794)
(0.0959024 -0.000542153 0.000586852)
(0.0959024 -0.000542153 0.000586852)
(0.0959024 -0.000542153 0.000586852)
(0.114893 -0.000928787 0.000560419)
(0.114893 -0.000928787 0.000560419)
(0.123277 -0.0010107 0.000244637)
(0.123277 -0.0010107 0.000244637)
(0.126943 -0.00097882 -4.44196e-05)
(0.126943 -0.00097882 -4.44196e-05)
(0.127879 -0.000807826 -0.000332847)
(0.127879 -0.000807826 -0.000332847)
(0.127879 -0.000807826 -0.000332847)
(0.12635 -0.000550738 -0.000659374)
(0.123282 -0.000257257 -0.00100714)
(0.123282 -0.000257257 -0.00100714)
(0.123282 -0.000257257 -0.00100714)
(0.11563 2.06747e-05 -0.00126672)
(0.11563 2.06747e-05 -0.00126672)
(0.0984165 0.00023735 -0.00100611)
(0.0984165 0.00023735 -0.00100611)
(0.0595976 0.000240412 -0.000565739)
(0.0623665 -0.000329005 0.000472836)
(0.101269 -0.000445418 0.000878016)
(0.101269 -0.000445418 0.000878016)
(0.118498 -0.000652482 0.000896612)
(0.118498 -0.000652482 0.000896612)
(0.126341 -0.000663342 0.000538083)
(0.126341 -0.000663342 0.000538083)
(0.129927 -0.000587926 0.000178674)
(0.129927 -0.000587926 0.000178674)
(0.130951 -0.000412839 -0.000189737)
(0.12993 -0.000190513 -0.000581307)
(0.126555 3.87692e-05 -0.000975692)
(0.119232 0.000249943 -0.00132255)
(0.102926 0.000361758 -0.00119838)
(0.0641027 0.000397895 -0.000853286)
(0.0641027 0.000397895 -0.000853286)
(0.0641027 0.000397895 -0.000853286)
(0.0650819 -0.000459925 0.00077937)
(0.0650819 -0.000459925 0.00077937)
(0.103502 -0.000410349 0.00115796)
(0.103405 -0.000398736 0.00112135)
(0.103405 -0.000398736 0.00112135)
(0.103405 -0.000398736 0.00112135)
(0.11968 -0.000437477 0.00119231)
(0.119229 -0.000263093 0.00131356)
(0.127062 -0.000336762 0.000807445)
(0.126546 -4.47426e-05 0.000966379)
(0.130497 -0.00018704 0.000401483)
(0.131978 -1.66015e-06 -4.07305e-06)
(0.129917 0.000187541 0.000580771)
(0.131978 -1.66015e-06 -4.07305e-06)
(0.130948 0.000184281 -0.000406784)
(0.12747 0.000329968 -0.000809874)
(0.119953 0.000430261 -0.00119467)
(0.103517 0.000391623 -0.00115509)
(0.0656392 0.000459149 -0.000816168)
(0.0647726 -0.000420986 0.000870664)