/*--------------------------------*- C++ -*----------------------------------*\
| =========                 |                                                 |
| \\      /  F ield         | OpenFOAM: The Open Source CFD Toolbox           |
|  \\    /   O peration     | Version:  2212                                  |
|   \\  /    A nd           | Website:  www.openfoam.com                      |
|    \\/     M anipulation  |                                                 |
\*---------------------------------------------------------------------------*/
FoamFile
{
    version     2.0;
    format      ascii;
    arch        "LSB;label=32;scalar=64";
    class       surfaceVectorField;
    location    "2";
    object      Uf;
}
// * * * * * * * * * * * * * * * * * * * * * * * * * * * * * * * * * * * * * //

dimensions      [0 1 -1 0 0 0 0];

internalField   nonuniform List<vector> 
1763
(
(0.021804 -1.11639e-05 2.40175e-05)
(0.0279569 -8.09774e-05 2.8257e-05)
(0.0216149 -1.15263e-05 2.02764e-05)
(0.0277099 -7.61839e-05 2.35027e-05)
(0.0268816 -8.1738e-07 3.68937e-05)
(0.0214312 -1.43762e-05 1.58169e-05)
(0.0274832 -7.40313e-05 1.73609e-05)
(0.0266719 -4.16023e-06 3.34423e-05)
(0.0212434 -1.7093e-05 9.95616e-06)
(0.0272477 -7.43417e-05 9.40281e-06)
(0.0264554 -1.05682e-05 3.01735e-05)
(0.0210455 -2.25603e-05 3.73488e-06)
(0.0270511 -7.28242e-05 2.25174e-06)
(0.0262756 -2.10751e-05 2.3164e-05)
(0.0266506 -7.69192e-05 -1.01621e-05)
(0.0259084 -3.07749e-05 2.06558e-05)
(0.036879 -0.000157381 1.36327e-05)
(0.0433611 -0.000236108 -3.57661e-05)
(0.0500423 -0.000193433 6.11835e-05)
(0.036575 -0.000147248 5.01483e-06)
(0.0429737 -0.000218535 -4.41532e-05)
(0.0496608 -0.000187025 5.56084e-05)
(0.0362805 -0.000142896 -4.42393e-06)
(0.0426112 -0.000205381 -5.19903e-05)
(0.0493041 -0.000189329 4.98355e-05)
(0.0359846 -0.000137765 -1.42145e-05)
(0.0422446 -0.000198091 -5.85216e-05)
(0.0489462 -0.000196275 4.2063e-05)
(0.0357003 -0.000139233 -2.50034e-05)
(0.0419335 -0.000181103 -6.57303e-05)
(0.0486477 -0.000199159 3.3544e-05)
(0.0413729 -0.0001909 -6.73629e-05)
(0.0481057 -0.000219811 2.20079e-05)
(0.0509915 -0.000329467 -9.29803e-05)
(0.0505359 -0.000309788 -9.847e-05)
(0.0546228 -0.000428556 -0.000158586)
(0.0678125 -0.000474173 -5.88565e-05)
(0.0500912 -0.000291914 -0.000103162)
(0.0541381 -0.000403282 -0.000158196)
(0.0674082 -0.000463268 -6.04766e-05)
(0.0496565 -0.000271129 -0.000106327)
(0.0536541 -0.000377638 -0.000154575)
(0.0669937 -0.000456496 -6.18557e-05)
(0.049237 -0.000257276 -0.000106409)
(0.053248 -0.000342606 -0.000149544)
(0.0666455 -0.000441174 -6.3239e-05)
(0.052567 -0.00032279 -0.000139544)
(0.066049 -0.000433733 -6.25182e-05)
(0.0587601 -0.00053284 -0.000231122)
(0.0611675 -0.000663933 -0.0003064)
(0.0773592 -0.00072395 -0.000225679)
(0.058239 -0.000499269 -0.000220885)
(0.0606203 -0.000609427 -0.000286646)
(0.0769702 -0.000704992 -0.000212593)
(0.0577364 -0.000458012 -0.000208089)
(0.0600849 -0.000550195 -0.000266132)
(0.0765768 -0.00068531 -0.00019823)
(0.0572557 -0.000415748 -0.000191215)
(0.0596418 -0.000487531 -0.000243158)
(0.0762436 -0.00065596 -0.000182561)
(0.0589214 -0.000429875 -0.000216393)
(0.075691 -0.000610578 -0.000162913)
(0.0631869 -0.000746041 -0.000369665)
(0.0819663 -0.000931894 -0.000355873)
(0.0626319 -0.000663894 -0.000339351)
(0.0633727 -0.000688685 -0.000386119)
(0.0815979 -0.00088238 -0.000332706)
(0.0621108 -0.000582493 -0.000307017)
(0.0628385 -0.000597235 -0.000349157)
(0.0812377 -0.00083158 -0.0003079)
(0.0616221 -0.000504374 -0.000271726)
(0.0623889 -0.000514985 -0.000308373)
(0.0809309 -0.000776007 -0.000279678)
(0.0616806 -0.00043874 -0.000263897)
(0.0804381 -0.000699176 -0.000245657)
(0.0635992 -0.000624152 -0.000391596)
(0.062573 -0.000537807 -0.000355748)
(0.0825088 -0.000848456 -0.000391447)
(0.0630938 -0.000531525 -0.000346431)
(0.0620763 -0.00047644 -0.000326299)
(0.0821889 -0.000783721 -0.000366594)
(0.0626222 -0.000449962 -0.000298516)
(0.06164 -0.000420886 -0.000286719)
(0.0819123 -0.000720266 -0.000337138)
(0.0609633 -0.000363467 -0.000240393)
(0.0814766 -0.000648346 -0.0003003)
(0.0610856 -0.000394349 -0.000287327)
(0.0582792 -0.000339653 -0.000240104)
(0.0801105 -0.00060756 -0.000371121)
(0.0606179 -0.000369429 -0.000262908)
(0.0578221 -0.000325866 -0.000224149)
(0.0798198 -0.000584976 -0.000365503)
(0.060168 -0.000337346 -0.000225108)
(0.0574162 -0.000302914 -0.000191849)
(0.0795605 -0.000555343 -0.000347508)
(0.0567908 -0.000272051 -0.000163833)
(0.0791553 -0.000504073 -0.000314188)
(0.0552314 -0.000279018 -0.000167257)
(0.0506384 -0.00022338 -0.000122413)
(0.0743055 -0.000414384 -0.000342743)
(0.0547977 -0.000265703 -0.000147232)
(0.050243 -0.000216845 -0.000109863)
(0.0739908 -0.000403131 -0.000335505)
(0.0543885 -0.000242495 -0.000128294)
(0.0498976 -0.00019497 -9.09378e-05)
(0.0737146 -0.000383996 -0.000322951)
(0.0493474 -0.000178963 -9.80529e-05)
(0.0732791 -0.000358311 -0.000312639)
(0.0462452 -0.000164973 -9.32026e-05)
(0.0397284 -0.000109259 -6.3717e-05)
(0.0641075 -0.000238643 -0.000293837)
(0.0458968 -0.000150269 -7.93891e-05)
(0.0394265 -0.000104914 -5.96848e-05)
(0.0637582 -0.000232892 -0.000289016)
(0.0455688 -0.000135971 -7.91323e-05)
(0.039171 -9.01069e-05 -5.31398e-05)
(0.0634474 -0.000218984 -0.000284544)
(0.0387069 -9.01539e-05 -7.17437e-05)
(0.0629354 -0.000217193 -0.000298643)
(0.0344924 -6.37347e-05 -1.1569e-05)
(0.0268705 -3.92444e-05 -8.121e-07)
(0.0342353 -6.11605e-05 -1.29374e-05)
(0.0266482 -3.69537e-05 -6.20717e-07)
(0.0481428 -7.74408e-05 -0.000133064)
(0.0339811 -5.55492e-05 -2.0789e-05)
(0.0264283 -3.4811e-05 -6.02301e-06)
(0.0478029 -7.82463e-05 -0.000140948)
(0.0337387 -5.35753e-05 -3.80053e-05)
(0.0262463 -2.7613e-05 -1.69878e-05)
(0.047515 -7.31134e-05 -0.000153748)
(0.0258594 -2.58694e-05 -2.89662e-05)
(0.0470002 -7.77037e-05 -0.000181454)
(0.0216036 -2.30653e-05 -1.04356e-05)
(0.0277104 -2.53238e-05 -7.62804e-05)
(0.0214198 -2.08559e-05 -1.19556e-05)
(0.0274725 -2.33103e-05 -7.38033e-05)
(0.0212278 -1.6096e-05 -1.44345e-05)
(0.0272316 -1.98162e-05 -7.43145e-05)
(0.0210212 -9.79463e-06 -2.06993e-05)
(0.0270298 -1.46758e-05 -7.32581e-05)
(0.0266075 -1.21471e-06 -7.79084e-05)
(0.0345253 -1.04896e-05 6.01218e-05)
(0.0485064 -0.00013837 7.84015e-05)
(0.0342756 -1.59043e-05 5.81093e-05)
(0.0481735 -0.000140984 7.71448e-05)
(0.0397746 -5.46725e-05 0.00010247)
(0.0340261 -2.61153e-05 5.32234e-05)
(0.0478419 -0.000148866 7.59808e-05)
(0.0394823 -5.50823e-05 9.77078e-05)
(0.0337887 -4.13349e-05 5.04364e-05)
(0.0475669 -0.000157347 6.7045e-05)
(0.0392357 -5.36148e-05 8.55182e-05)
(0.0470713 -0.000177902 6.65801e-05)
(0.0387866 -7.05196e-05 8.54045e-05)
(0.0661792 -0.000317248 0.000114964)
(0.0657381 -0.00031743 0.000112977)
(0.0760872 -0.000520286 6.15855e-05)
(0.0748982 -0.000445521 0.000220784)
(0.065309 -0.000318685 0.000109525)
(0.0756898 -0.00051413 5.86508e-05)
(0.0745047 -0.000441827 0.000221316)
(0.0648964 -0.000323322 0.000103418)
(0.0752856 -0.000507862 5.39249e-05)
(0.0741037 -0.000442766 0.000219716)
(0.0644895 -0.000334639 9.43164e-05)
(0.0749523 -0.000504353 4.83335e-05)
(0.0737725 -0.00044532 0.00021284)
(0.0743783 -0.000493428 4.09968e-05)
(0.0732116 -0.000438138 0.000192843)
(0.0876661 -0.00072953 -2.22926e-05)
(0.0927671 -0.000856478 -0.000118474)
(0.0966243 -0.000922236 0.000102972)
(0.0873065 -0.000721633 -1.89745e-05)
(0.0924712 -0.000847078 -0.000107195)
(0.0964272 -0.000913915 0.00010726)
(0.0869441 -0.000711186 -1.70625e-05)
(0.0921586 -0.000838728 -9.77692e-05)
(0.0962116 -0.000902235 0.000111935)
(0.0865792 -0.000686659 -1.59123e-05)
(0.0918926 -0.000824019 -8.75235e-05)
(0.0960251 -0.000885579 0.000112578)
(0.0914385 -0.000768065 -7.68532e-05)
(0.0956979 -0.000818509 0.000102518)
(0.0980655 -0.000981221 -0.000218971)
(0.100348 -0.00106694 -0.00028301)
(0.106574 -0.00114558 -0.000138768)
(0.0978285 -0.000971986 -0.000199931)
(0.100158 -0.00104984 -0.000262068)
(0.106517 -0.00113222 -0.000121857)
(0.0975856 -0.000959647 -0.000180877)
(0.0999592 -0.00103687 -0.000242317)
(0.106455 -0.00111708 -0.00010392)
(0.0973413 -0.00091326 -0.000159088)
(0.099777 -0.00100934 -0.000221014)
(0.106395 -0.00108899 -8.66472e-05)
(0.0994751 -0.00092602 -0.000192818)
(0.106284 -0.000999509 -6.68896e-05)
(0.102562 -0.00113741 -0.000332858)
(0.102979 -0.00112089 -0.000367806)
(0.110808 -0.00125633 -0.000304083)
(0.102413 -0.00111497 -0.00031324)
(0.102865 -0.00109837 -0.000356606)
(0.110837 -0.00123177 -0.000286124)
(0.102257 -0.00108651 -0.000290941)
(0.102741 -0.0010727 -0.000340964)
(0.110862 -0.00120463 -0.000266159)
(0.102098 -0.0010229 -0.000260872)
(0.102625 -0.00103216 -0.000320498)
(0.110876 -0.00116199 -0.000242544)
(0.102432 -0.000952428 -0.000290922)
(0.110883 -0.00105553 -0.000208006)
(0.103291 -0.00108566 -0.000383613)
(0.102249 -0.000975837 -0.000409894)
(0.11157 -0.00116259 -0.000422596)
(0.103201 -0.00105888 -0.000378485)
(0.102168 -0.00095948 -0.000416939)
(0.111653 -0.0011385 -0.000415797)
(0.103104 -0.00101935 -0.000368082)
(0.102077 -0.000931308 -0.000417455)
(0.111728 -0.00110177 -0.000404848)
(0.103006 -0.000962263 -0.000349145)
(0.101996 -0.000891437 -0.00041033)
(0.111795 -0.00104989 -0.000387077)
(0.101862 -0.000824765 -0.000389562)
(0.11188 -0.000959541 -0.000355468)
(0.101148 -0.000846996 -0.000454131)
(0.109758 -0.000890545 -0.000566756)
(0.101063 -0.000830346 -0.000463806)
(0.0983421 -0.000702366 -0.000509489)
(0.109848 -0.000874949 -0.000572815)
(0.100978 -0.00080242 -0.000465802)
(0.0982125 -0.000684571 -0.00051352)
(0.109931 -0.000849162 -0.000572036)
(0.100897 -0.000753849 -0.000454439)
(0.0980999 -0.000663308 -0.000517636)
(0.110008 -0.000812599 -0.000563133)
(0.0979096 -0.000616687 -0.000496869)
(0.110109 -0.000738285 -0.000530244)
(0.0956355 -0.000567974 -0.00054313)
(0.0900474 -0.000456829 -0.000548535)
(0.105066 -0.000588994 -0.000743581)
(0.0954671 -0.000556445 -0.000549051)
(0.0897865 -0.000449625 -0.000552542)
(0.10507 -0.000575531 -0.000742531)
(0.0952947 -0.000535454 -0.000546523)
(0.0895511 -0.000444654 -0.000563933)
(0.105075 -0.000560349 -0.000740875)
(0.089161 -0.000422081 -0.000550025)
(0.105058 -0.000510223 -0.00069925)
(0.084718 -0.000349802 -0.000552907)
(0.0744753 -0.000220272 -0.000438655)
(0.0950567 -0.000337446 -0.000816923)
(0.0843713 -0.000348746 -0.000561857)
(0.0740796 -0.000221711 -0.000441399)
(0.0948568 -0.000333834 -0.000815003)
(0.0840178 -0.000340733 -0.000565442)
(0.0737291 -0.00022209 -0.000447901)
(0.0946755 -0.000327144 -0.000808797)
(0.0731554 -0.000211933 -0.000451557)
(0.0943667 -0.000298337 -0.000767055)
(0.0652865 -0.000113663 -0.00031045)
(0.0492915 -5.58281e-05 -0.000181852)
(0.0756696 -6.82385e-05 -0.000509655)
(0.0648541 -0.000114935 -0.000322874)
(0.0489225 -5.48648e-05 -0.000189675)
(0.0752702 -6.99185e-05 -0.000509415)
(0.0644301 -0.000111418 -0.000340681)
(0.048607 -5.09337e-05 -0.000196429)
(0.0749173 -6.6293e-05 -0.000508729)
(0.0480429 -4.08022e-05 -0.000224433)
(0.0743305 -6.17213e-05 -0.000506375)
(0.0365744 -1.20313e-05 -0.00015093)
(0.0429947 3.90125e-05 -0.000220016)
(0.0362707 -9.17557e-06 -0.000147254)
(0.0426115 3.69025e-05 -0.000215874)
(0.0359625 -3.7499e-06 -0.000140217)
(0.0422342 3.7532e-05 -0.000208811)
(0.0356678 6.11255e-06 -0.000141167)
(0.0419092 4.34674e-05 -0.000185563)
(0.0413285 4.63133e-05 -0.000194061)
(0.0463038 -7.71271e-05 0.00015299)
(0.0641558 -0.000285683 0.000229046)
(0.0506939 -0.000105085 0.00021427)
(0.0459715 -6.95611e-05 0.00013989)
(0.0638027 -0.000285949 0.000226218)
(0.0503058 -9.2547e-05 0.000203907)
(0.045653 -7.53518e-05 0.000129368)
(0.0635064 -0.000284347 0.000214998)
(0.0499803 -8.23857e-05 0.000184595)
(0.0630022 -0.000289143 0.000206487)
(0.0494387 -9.4958e-05 0.000171592)
(0.0851008 -0.000556791 0.000350252)
(0.0952683 -0.000816332 0.00033)
(0.0847509 -0.000564686 0.000351678)
(0.0950757 -0.000819395 0.000330846)
(0.0900807 -0.000551966 0.000448139)
(0.0843954 -0.000569414 0.000348876)
(0.0948637 -0.000819428 0.000327542)
(0.0898062 -0.000561511 0.000447855)
(0.0840408 -0.000556796 0.000329776)
(0.0946797 -0.000809932 0.000318929)
(0.0895674 -0.000566068 0.000440992)
(0.0943674 -0.000750557 0.000281497)
(0.0891772 -0.000535052 0.000402947)
(0.106436 -0.00107182 0.000259147)
(0.110939 -0.00115657 0.00011836)
(0.110613 -0.000998046 0.000398653)
(0.106406 -0.00107204 0.000262396)
(0.110993 -0.00115351 0.000126709)
(0.110697 -0.00100596 0.000396955)
(0.106361 -0.00106503 0.00026361)
(0.11104 -0.00114799 0.00013745)
(0.110771 -0.00100845 0.000394856)
(0.106307 -0.0010167 0.000249746)
(0.111069 -0.0011267 0.000144748)
(0.110826 -0.000996731 0.000386679)
(0.1111 -0.00104527 0.000134057)
(0.110895 -0.000924108 0.000353908)
(0.115845 -0.00125068 -1.56386e-05)
(0.117688 -0.00127888 -0.000125824)
(0.119575 -0.00112349 0.000106848)
(0.11598 -0.00123946 -2.42172e-06)
(0.117864 -0.00126773 -0.000112707)
(0.119808 -0.00111892 0.000113616)
(0.116111 -0.00121655 1.10583e-05)
(0.11804 -0.00124815 -9.7155e-05)
(0.120041 -0.00111098 0.000121873)
(0.116238 -0.00116107 2.11614e-05)
(0.118189 -0.00121182 -8.16235e-05)
(0.120245 -0.00108815 0.000128333)
(0.118407 -0.00112441 -6.7423e-05)
(0.120537 -0.00102418 0.000128152)
(0.119791 -0.0012953 -0.000230254)
(0.120082 -0.00123355 -0.000336579)
(0.123399 -0.00112827 -0.000138201)
(0.120006 -0.00127519 -0.000215495)
(0.120321 -0.0012168 -0.000327164)
(0.123695 -0.00111564 -0.000129286)
(0.120217 -0.00124213 -0.000197516)
(0.120559 -0.0011897 -0.000313233)
(0.123991 -0.00109653 -0.000118193)
(0.120421 -0.00117433 -0.000176404)
(0.120769 -0.00114542 -0.000293985)
(0.124255 -0.00106391 -0.000105297)
(0.121073 -0.00105433 -0.00026844)
(0.124631 -0.000994927 -9.1294e-05)
(0.120616 -0.00115717 -0.000428604)
(0.11977 -0.00102263 -0.000544859)
(0.124279 -0.000974071 -0.000376155)
(0.120877 -0.00113323 -0.00042043)
(0.120037 -0.00100669 -0.000543715)
(0.124608 -0.000959128 -0.000371787)
(0.121134 -0.00109421 -0.000406574)
(0.120302 -0.000980561 -0.000537955)
(0.124936 -0.000936786 -0.000364837)
(0.121383 -0.00102611 -0.000383983)
(0.120539 -0.00093966 -0.000523774)
(0.125233 -0.000900263 -0.00035181)
(0.120879 -0.000864076 -0.000494466)
(0.125653 -0.000839258 -0.000332889)
(0.119198 -0.000870427 -0.000667135)
(0.117045 -0.000714577 -0.00080544)
(0.122997 -0.000702084 -0.000656976)
(0.119469 -0.000853076 -0.000666401)
(0.117283 -0.000706397 -0.00080613)
(0.123329 -0.000691947 -0.000658102)
(0.119734 -0.000825834 -0.000658252)
(0.117513 -0.000691583 -0.000802532)
(0.123657 -0.0006752 -0.000653351)
(0.119993 -0.000778144 -0.000635393)
(0.117719 -0.00066719 -0.000789971)
(0.123955 -0.000649701 -0.000640342)
(0.118013 -0.000614214 -0.000746226)
(0.124375 -0.000607031 -0.00061277)
(0.115215 -0.000559501 -0.000932267)
(0.110615 -0.00040941 -0.000997298)
(0.119236 -0.000406015 -0.000956612)
(0.115409 -0.000552721 -0.000932652)
(0.110708 -0.000410534 -0.00100415)
(0.119505 -0.000401394 -0.000955565)
(0.1156 -0.000539854 -0.000926286)
(0.110781 -0.00040662 -0.00100352)
(0.119767 -0.000396394 -0.000953088)
(0.115787 -0.000509592 -0.000893643)
(0.110848 -0.000395475 -0.00098984)
(0.120002 -0.000386863 -0.000940512)
(0.110924 -0.000365377 -0.000928678)
(0.120337 -0.000362331 -0.000893412)
(0.106439 -0.000268871 -0.00107254)
(0.110939 -0.000128493 -0.00115195)
(0.106411 -0.000273549 -0.00107435)
(0.0964186 -0.000116701 -0.000914613)
(0.111004 -0.00013356 -0.00115148)
(0.106372 -0.000272167 -0.0010622)
(0.0962146 -0.000122919 -0.000903436)
(0.111047 -0.000140492 -0.00114178)
(0.106329 -0.000260444 -0.00102052)
(0.0960306 -0.000124561 -0.0008872)
(0.11109 -0.000147001 -0.0011201)
(0.0957069 -0.000121803 -0.000833813)
(0.111127 -0.000143255 -0.00105824)
(0.0872935 8.63075e-06 -0.000716552)
(0.0674037 4.68105e-05 -0.000470669)
(0.0924611 9.97332e-05 -0.000844095)
(0.086938 1.81438e-06 -0.000710695)
(0.0669944 4.10818e-05 -0.000465065)
(0.0921597 8.59696e-05 -0.000839461)
(0.0865746 -4.58582e-06 -0.000697032)
(0.0666303 3.94188e-05 -0.000445338)
(0.0918898 6.96982e-05 -0.000826524)
(0.0660233 3.7984e-05 -0.000444046)
(0.0914339 5.53645e-05 -0.000787531)
(0.0505566 8.59777e-05 -0.000317017)
(0.0546516 0.000150384 -0.000427751)
(0.0500988 7.99618e-05 -0.000309896)
(0.0541482 0.000135359 -0.000416809)
(0.0496463 7.84327e-05 -0.000286997)
(0.053665 0.000123395 -0.000394785)
(0.0492138 7.94948e-05 -0.000265423)
(0.0532402 0.000117802 -0.000352528)
(0.0525507 0.000111336 -0.000326803)
(0.0552907 -0.000152409 0.000268487)
(0.0743473 -0.000330435 0.000399419)
(0.0583399 -0.000236507 0.000334305)
(0.0548644 -0.000132038 0.000252398)
(0.0740317 -0.00032614 0.000389144)
(0.057882 -0.00021308 0.000316098)
(0.054463 -0.000119818 0.000231089)
(0.0737587 -0.000318528 0.000373562)
(0.0574873 -0.00018246 0.000291533)
(0.0733241 -0.000305807 0.000345362)
(0.0568673 -0.00016089 0.000262275)
(0.0956578 -0.000541524 0.000555301)
(0.105071 -0.00074019 0.000574692)
(0.0983587 -0.000506802 0.000685712)
(0.095482 -0.000554975 0.000550036)
(0.105074 -0.00074812 0.000566263)
(0.0982277 -0.000519538 0.000672697)
(0.0953014 -0.000543994 0.000523255)
(0.105067 -0.000746759 0.000552003)
(0.0981063 -0.000524119 0.000654347)
(0.105046 -0.000695293 0.000495722)
(0.0979106 -0.000491803 0.000601508)
(0.1152 -0.000930208 0.00054624)
(0.119226 -0.000954744 0.000391366)
(0.117034 -0.000805824 0.000705289)
(0.115392 -0.000935624 0.000540239)
(0.119491 -0.000957105 0.000389023)
(0.117267 -0.000809116 0.000697101)
(0.115582 -0.000932004 0.000528701)
(0.119754 -0.00095786 0.000388268)
(0.117498 -0.000808569 0.000681321)
(0.115767 -0.000899287 0.000500317)
(0.119985 -0.000947005 0.000381854)
(0.1177 -0.000796495 0.000657323)
(0.120317 -0.00089714 0.000358259)
(0.117992 -0.00074856 0.000605269)
(0.123786 -0.000993231 0.00024091)
(0.125441 -0.000977815 0.000104222)
(0.125352 -0.000832424 0.000377325)
(0.12412 -0.000990083 0.000243085)
(0.125799 -0.000970702 0.00010753)
(0.125717 -0.000828632 0.000377354)
(0.12445 -0.000981397 0.000244372)
(0.126156 -0.000962215 0.000111296)
(0.12608 -0.000822918 0.000375184)
(0.124773 -0.000951379 0.000239924)
(0.126478 -0.000942495 0.000113112)
(0.126409 -0.000807065 0.000367378)
(0.126935 -0.000896866 0.000112663)
(0.126874 -0.000771353 0.000349561)
(0.127519 -0.000952912 -3.73386e-05)
(0.127805 -0.000873014 -0.000184448)
(0.12904 -0.000772476 6.64071e-05)
(0.127899 -0.000940513 -3.19607e-05)
(0.128196 -0.000860848 -0.000180209)
(0.129445 -0.000761744 7.02833e-05)
(0.128274 -0.000921618 -2.60476e-05)
(0.128585 -0.000846619 -0.00017474)
(0.129846 -0.000748847 7.31453e-05)
(0.12864 -0.000886354 -1.97301e-05)
(0.12894 -0.000821963 -0.000166478)
(0.130215 -0.000727043 7.48146e-05)
(0.129437 -0.000779182 -0.000155583)
(0.130723 -0.000693334 7.44851e-05)
(0.128484 -0.000782324 -0.000324054)
(0.127719 -0.000662231 -0.000489201)
(0.130037 -0.000598318 -0.000257202)
(0.128883 -0.000767971 -0.000320453)
(0.128117 -0.000651716 -0.000487983)
(0.130456 -0.00058723 -0.000254246)
(0.129277 -0.000747338 -0.000313944)
(0.128511 -0.000637307 -0.000483428)
(0.130871 -0.000573872 -0.000250024)
(0.129662 -0.000714339 -0.000302823)
(0.128872 -0.00061429 -0.00047236)
(0.131255 -0.000553188 -0.000242127)
(0.129378 -0.000579139 -0.000454366)
(0.131781 -0.000530286 -0.00023437)
(0.126959 -0.000538217 -0.000656893)
(0.128533 -0.000369223 -0.000618216)
(0.127355 -0.000530843 -0.000656409)
(0.125361 -0.000390462 -0.000829384)
(0.128953 -0.000362732 -0.000616114)
(0.127747 -0.000520761 -0.000653052)
(0.125727 -0.000386327 -0.000826149)
(0.129363 -0.000356694 -0.000613859)
(0.128134 -0.000504541 -0.00064258)
(0.126089 -0.00037951 -0.000820708)
(0.12977 -0.000348077 -0.000606402)
(0.128512 -0.000480229 -0.0006226)
(0.126419 -0.000367854 -0.000804905)
(0.130146 -0.000334317 -0.000590883)
(0.126884 -0.000348029 -0.000771384)
(0.130661 -0.000316819 -0.000567573)
(0.123795 -0.000252242 -0.000989943)
(0.119583 -0.000119224 -0.00111603)
(0.125445 -0.000113805 -0.000974051)
(0.124131 -0.000250505 -0.000986467)
(0.119822 -0.000121848 -0.00111425)
(0.125805 -0.000113005 -0.000969505)
(0.124461 -0.000247591 -0.000976757)
(0.120052 -0.000125665 -0.00110523)
(0.126161 -0.000113519 -0.00096076)
(0.124784 -0.000240221 -0.000947305)
(0.120261 -0.000129478 -0.00108259)
(0.126483 -0.000112518 -0.000939582)
(0.120554 -0.000129424 -0.00103002)
(0.126939 -0.000110488 -0.000895883)
(0.115855 6.97355e-06 -0.00124399)
(0.106578 0.000128412 -0.00113818)
(0.117694 0.000117854 -0.00127355)
(0.115993 -2.28891e-06 -0.0012327)
(0.106527 0.000112147 -0.00113162)
(0.117876 0.000107002 -0.00126334)
(0.116127 -1.28257e-05 -0.00120993)
(0.106461 9.51957e-05 -0.001117)
(0.118048 9.41801e-05 -0.00124124)
(0.116255 -2.33562e-05 -0.00116477)
(0.106407 7.72555e-05 -0.00108749)
(0.118205 8.1426e-05 -0.00120763)
(0.106296 5.48419e-05 -0.00101517)
(0.11842 6.64029e-05 -0.00113663)
(0.0980685 0.000207338 -0.000978439)
(0.0773728 0.000213577 -0.00071941)
(0.100354 0.000270053 -0.00106205)
(0.0978293 0.000186853 -0.000978377)
(0.0769766 0.000193123 -0.000712879)
(0.100167 0.000251218 -0.0010583)
(0.0975874 0.000165274 -0.000964535)
(0.0765896 0.0001733 -0.000695074)
(0.0999612 0.000229963 -0.00104441)
(0.097346 0.000140905 -0.000924508)
(0.076249 0.00015558 -0.000660687)
(0.0997814 0.000204796 -0.0010095)
(0.0756968 0.000137252 -0.000621491)
(0.0994787 0.000176476 -0.000942667)
(0.0587795 0.000211713 -0.000538592)
(0.0611957 0.000288956 -0.00066879)
(0.0582543 0.000190729 -0.000510583)
(0.0606388 0.00025892 -0.000617748)
(0.0577499 0.000173236 -0.000468321)
(0.0601189 0.000231745 -0.00055694)
(0.057269 0.000157885 -0.000421264)
(0.0596644 0.000207399 -0.000490705)
(0.0589496 0.000184469 -0.000428909)
(0.061627 -0.000303192 0.000418227)
(0.08044 -0.000369969 0.000620529)
(0.0631633 -0.000381717 0.000591872)
(0.0611487 -0.00028628 0.000390467)
(0.0801486 -0.00037181 0.000600562)
(0.0626421 -0.000360731 0.000540262)
(0.0606805 -0.000258378 0.000361681)
(0.0798566 -0.000363853 0.000573392)
(0.0621363 -0.000329202 0.000474273)
(0.060232 -0.000220877 0.000327805)
(0.0795975 -0.000346451 0.000543102)
(0.0617055 -0.000287524 0.000414838)
(0.0791921 -0.00031426 0.000493633)
(0.0610298 -0.000239985 0.000356618)
(0.101154 -0.000452184 0.000834991)
(0.109757 -0.00056771 0.0008813)
(0.102249 -0.000409809 0.000966926)
(0.101071 -0.000464435 0.000815819)
(0.109846 -0.000575106 0.000863344)
(0.10217 -0.000415256 0.000945322)
(0.100986 -0.000469645 0.000788642)
(0.109928 -0.000576291 0.000837245)
(0.102081 -0.000419583 0.000920481)
(0.100903 -0.000458898 0.00074181)
(0.110004 -0.000568449 0.000801767)
(0.101999 -0.000416885 0.00088356)
(0.110102 -0.000532432 0.000727195)
(0.101863 -0.000391927 0.000809614)
(0.118918 -0.000667382 0.000876042)
(0.122647 -0.000657075 0.00069966)
(0.11949 -0.000549107 0.00102962)
(0.119187 -0.000674293 0.000864727)
(0.122987 -0.000661206 0.000692209)
(0.119763 -0.000552999 0.0010217)
(0.119454 -0.000673371 0.000845817)
(0.123317 -0.000661824 0.000684415)
(0.120027 -0.000550644 0.00100326)
(0.119719 -0.000664158 0.000817244)
(0.123645 -0.000656488 0.000669424)
(0.120292 -0.000542417 0.000975056)
(0.119977 -0.000638521 0.000768611)
(0.123943 -0.000642522 0.00064547)
(0.120528 -0.000527371 0.00093466)
(0.124363 -0.000612114 0.00060305)
(0.120866 -0.000496515 0.000858718)
(0.126948 -0.000660011 0.000523766)
(0.128527 -0.00062366 0.000354532)
(0.127309 -0.000494861 0.000659601)
(0.127345 -0.00065777 0.000520408)
(0.128947 -0.000619589 0.000353277)
(0.127712 -0.000492059 0.000656116)
(0.127739 -0.000653031 0.000515318)
(0.129359 -0.000614225 0.000352751)
(0.128108 -0.00048907 0.00065082)
(0.128127 -0.000641722 0.000503181)
(0.129768 -0.000604707 0.000347947)
(0.128503 -0.000482594 0.000638295)
(0.128505 -0.000620696 0.000481552)
(0.130144 -0.00058796 0.000336821)
(0.128863 -0.000470322 0.000616557)
(0.130659 -0.000563508 0.000320878)
(0.129366 -0.000451284 0.000582235)
(0.130588 -0.000581082 0.000176556)
(0.130882 -0.000495612 -6.85586e-06)
(0.130882 -0.000383528 0.000286387)
(0.13102 -0.000573764 0.000178137)
(0.131324 -0.000489085 -5.34911e-06)
(0.131322 -0.000379085 0.000288477)
(0.131447 -0.000563953 0.000178837)
(0.131757 -0.000481309 -3.01121e-06)
(0.131754 -0.000374505 0.000288767)
(0.131866 -0.000549685 0.000176704)
(0.132185 -0.000470347 -7.9966e-07)
(0.132182 -0.000367718 0.000284658)
(0.132272 -0.000529552 0.000171593)
(0.132585 -0.000455553 8.14412e-07)
(0.132581 -0.000357513 0.000276877)
(0.13312 -0.000440716 -4.68173e-07)
(0.133115 -0.000345286 0.000270133)
(0.131624 -0.000404337 -0.000187153)
(0.130883 -0.000298675 -0.000381453)
(0.131915 -0.000204185 -9.53572e-05)
(0.132063 -0.000397189 -0.000185235)
(0.131323 -0.000293524 -0.000379817)
(0.132363 -0.000200199 -9.29736e-05)
(0.132499 -0.00038796 -0.000182022)
(0.131756 -0.000287505 -0.000377159)
(0.132805 -0.000196129 -9.0832e-05)
(0.132928 -0.000376009 -0.00017704)
(0.132184 -0.000279579 -0.000370752)
(0.133243 -0.000190651 -8.82698e-05)
(0.133343 -0.000366015 -0.000172719)
(0.132584 -0.000269598 -0.00036047)
(0.133647 -0.000185577 -8.59859e-05)
(0.133119 -0.000261884 -0.00034845)
(0.134205 -0.000182098 -8.46251e-05)
(0.130588 -0.000187344 -0.000575815)
(0.128629 -7.58049e-05 -0.000774981)
(0.13088 -2.54368e-06 -0.000488303)
(0.131019 -0.000183679 -0.000572601)
(0.12904 -7.5302e-05 -0.000769252)
(0.131319 -1.42451e-06 -0.00048516)
(0.131445 -0.000179194 -0.000566192)
(0.129444 -7.36612e-05 -0.000763573)
(0.131751 5.44483e-07 -0.000481329)
(0.131864 -0.000173523 -0.000553809)
(0.129844 -7.23434e-05 -0.000751612)
(0.13218 1.85366e-06 -0.000472736)
(0.132269 -0.000166339 -0.000534716)
(0.130213 -7.12914e-05 -0.000729889)
(0.132579 2.63829e-06 -0.000459169)
(0.130718 -6.96952e-05 -0.000697082)
(0.133115 5.28143e-06 -0.000445015)
(0.127139 3.15399e-05 -0.00095954)
(0.123097 0.000133741 -0.00113207)
(0.127407 0.000179269 -0.000877515)
(0.127521 3.07184e-05 -0.00095288)
(0.123401 0.000129256 -0.00112514)
(0.127802 0.000177892 -0.000869317)
(0.127899 2.96961e-05 -0.000942687)
(0.123699 0.000124642 -0.00111485)
(0.128191 0.000177957 -0.000862622)
(0.128272 2.69148e-05 -0.000922414)
(0.123993 0.000116676 -0.00109398)
(0.128579 0.00017507 -0.000847978)
(0.128635 2.24047e-05 -0.000886852)
(0.12426 0.00010646 -0.00106252)
(0.128933 0.000168133 -0.000822225)
(0.124631 9.37918e-05 -0.0010021)
(0.129427 0.000157679 -0.000780228)
(0.119576 0.000232926 -0.00130589)
(0.11078 0.000307583 -0.00127613)
(0.11984 0.000333515 -0.00124209)
(0.119796 0.000223946 -0.00129315)
(0.110816 0.000293049 -0.00125636)
(0.120083 0.000329608 -0.00123158)
(0.120013 0.000211892 -0.00127051)
(0.110848 0.000278114 -0.00123774)
(0.120324 0.000323105 -0.00121325)
(0.120226 0.000196359 -0.00123756)
(0.110866 0.000258637 -0.00120625)
(0.120561 0.000311865 -0.00118311)
(0.120428 0.000177178 -0.00117883)
(0.110885 0.000234212 -0.0011589)
(0.120774 0.000295146 -0.00114119)
(0.110888 0.00020138 -0.00106623)
(0.121073 0.000269738 -0.00105961)
(0.102717 0.000336745 -0.00116039)
(0.103104 0.000364805 -0.00114491)
(0.102573 0.000320089 -0.00114438)
(0.0819885 0.000338963 -0.00093448)
(0.102991 0.0003544 -0.00112129)
(0.102421 0.000301349 -0.0011258)
(0.0816196 0.000311526 -0.000888273)
(0.102879 0.000344309 -0.00110656)
(0.102263 0.000276998 -0.0010899)
(0.0812633 0.000282843 -0.000833231)
(0.102746 0.000329656 -0.0010789)
(0.102103 0.00024662 -0.0010283)
(0.0809541 0.000253113 -0.000774083)
(0.10263 0.00030744 -0.0010301)
(0.0804664 0.000222373 -0.000702631)
(0.102433 0.000278369 -0.000956731)
(0.0632182 0.000346322 -0.000751755)
(0.0639759 0.000404083 -0.000773927)
(0.0626667 0.000308048 -0.00066689)
(0.0634111 0.000361193 -0.000691368)
(0.0621515 0.000271483 -0.000581866)
(0.0628913 0.000314352 -0.000594763)
(0.0616699 0.000237197 -0.000500841)
(0.0624416 0.000270584 -0.000509642)
(0.0617476 0.000230349 -0.000431236)
(0.0642132 -0.000440585 0.000717318)
(0.0828785 -0.000415592 0.000895935)
(0.064009 -0.000427465 0.000768927)
(0.0636665 -0.00040185 0.000627935)
(0.0825453 -0.000396947 0.000845728)
(0.0634427 -0.000399219 0.000687933)
(0.0631572 -0.000353499 0.000531659)
(0.0822194 -0.000372081 0.000780804)
(0.0629065 -0.000358581 0.000594279)
(0.0626841 -0.000303083 0.000446741)
(0.0819465 -0.000343064 0.000717399)
(0.0624557 -0.000312923 0.000512104)
(0.0815112 -0.000302952 0.00063745)
(0.0617476 -0.000269367 0.000434395)
(0.103282 -0.000383343 0.00107479)
(0.111564 -0.000426921 0.00115979)
(0.10298 -0.000369527 0.0011129)
(0.103197 -0.000378524 0.00104836)
(0.111646 -0.00041682 0.001131)
(0.102867 -0.000357224 0.00109436)
(0.103103 -0.000372919 0.0010145)
(0.111725 -0.000407365 0.00109668)
(0.102739 -0.000344397 0.00107003)
(0.103006 -0.000353189 0.000951454)
(0.11179 -0.00039221 0.00104678)
(0.102624 -0.000326802 0.00102667)
(0.111876 -0.00035672 0.000949235)
(0.102432 -0.00029543 0.00094559)
(0.120083 -0.000439939 0.00117864)
(0.123605 -0.000383503 0.000984223)
(0.120349 -0.00044091 0.00117409)
(0.123942 -0.000385144 0.000979833)
(0.119834 -0.00034833 0.00123904)
(0.120611 -0.000434928 0.00115923)
(0.124275 -0.000382532 0.000973435)
(0.120077 -0.000340889 0.00123269)
(0.120871 -0.000424228 0.00113184)
(0.124601 -0.000375487 0.000959025)
(0.120315 -0.000328172 0.00121441)
(0.121127 -0.000409754 0.0010919)
(0.124929 -0.000366351 0.000936265)
(0.120553 -0.000313766 0.00118437)
(0.121377 -0.000386869 0.00102518)
(0.125224 -0.000352757 0.000901196)
(0.120764 -0.000296469 0.00114269)
(0.125641 -0.000332268 0.000840835)
(0.121062 -0.000270627 0.00105928)
(0.127675 -0.000334397 0.00079362)
(0.129182 -0.000261705 0.000599136)
(0.128079 -0.000333512 0.000789829)
(0.129611 -0.000262433 0.000597132)
(0.127403 -0.000189935 0.000870969)
(0.128479 -0.000330013 0.000784368)
(0.130033 -0.000261317 0.000596744)
(0.127797 -0.00018813 0.000867245)
(0.128876 -0.000323447 0.00077239)
(0.130449 -0.000257276 0.000592317)
(0.128185 -0.000182829 0.000863018)
(0.129267 -0.000313599 0.000751262)
(0.130863 -0.000250599 0.000580543)
(0.128572 -0.000175114 0.00084969)