/*--------------------------------*- C++ -*----------------------------------*\
| =========                 |                                                 |
| \\      /  F ield         | OpenFOAM: The Open Source CFD Toolbox           |
|  \\    /   O peration     | Version:  2212                                  |
|   \\  /    A nd           | Website:  www.openfoam.com                      |
|    \\/     M anipulation  |                                                 |
\*---------------------------------------------------------------------------*/
FoamFile
{
    version     2.0;
    format      ascii;
    arch        "LSB;label=32;scalar=64";
    class       volScalarField;
    location    "2.25";
    object      epsilon;
}
// * * * * * * * * * * * * * * * * * * * * * * * * * * * * * * * * * * * * * //

dimensions      [0 2 -3 0 0 0 0];

internalField   nonuniform List<scalar> 
6840
(
90.5034
12.1248
4.38869
2.46659
1.63316
1.18307
0.902019
0.720671
0.594598
0.502519
0.432701
0.37932
0.336367
0.299981
0.270358
0.246421
0.227017
0.211674
0.202884
0.193911
58.5856
14.5696
6.08947
3.33295
2.08217
1.40267
0.998654
0.740287
0.565907
0.443927
0.356023
0.29093
0.241413
0.20298
0.173088
0.149819
0.131369
0.116657
0.105553
0.0980172
45.0226
13.4729
5.73075
3.07322
1.86023
1.22699
0.87357
0.649771
0.497003
0.389463
0.311269
0.25295
0.208945
0.175168
0.148754
0.127802
0.111017
0.0974373
0.0864221
0.0779225
38.7028
13.0541
5.74336
3.08733
1.88066
1.2275
0.869469
0.645372
0.492577
0.384762
0.306997
0.249009
0.204929
0.170918
0.144299
0.123189
0.106224
0.0924177
0.0811314
0.0728796
36.0571
12.8529
5.76645
3.10211
1.89475
1.22669
0.866496
0.643978
0.492244
0.383957
0.305786
0.247907
0.203904
0.169926
0.143303
0.122153
0.105129
0.0912453
0.0798386
0.070989
36.0571
12.8529
5.76645
3.10212
1.89476
1.22669
0.866502
0.643986
0.492255
0.383971
0.305807
0.247935
0.203944
0.169985
0.14339
0.122277
0.105308
0.091511
0.0802693
0.072031
38.7028
13.0541
5.74336
3.08733
1.88066
1.2275
0.869482
0.645391
0.492601
0.384792
0.307042
0.249069
0.205015
0.171045
0.144479
0.123444
0.106593
0.0929604
0.0818916
0.0735653
45.0226
13.4729
5.73075
3.07323
1.86023
1.227
0.873582
0.649788
0.497025
0.389501
0.311317
0.253015
0.209035
0.175298
0.148945
0.128072
0.11141
0.0980217
0.0873022
0.0791133
58.5856
14.5696
6.08947
3.33295
2.08218
1.40267
0.998657
0.740292
0.565912
0.44394
0.356043
0.290961
0.241461
0.203081
0.173228
0.15002
0.131693
0.117225
0.106556
0.0995666
90.5034
12.1248
4.38869
2.46659
1.63316
1.18307
0.902019
0.72067
0.594598
0.502517
0.432701
0.379318
0.336368
0.299975
0.270359
0.246418
0.227012
0.211667
0.202877
0.193909
58.5856
14.5696
6.08947
3.33295
2.08218
1.40267
0.998657
0.740293
0.565913
0.44394
0.356044
0.290962
0.241463
0.20308
0.173229
0.150024
0.131698
0.11723
0.106562
0.0995715
16.5373
9.49239
5.0127
2.8606
1.75746
1.14759
0.786931
0.562048
0.415366
0.315946
0.24633
0.19622
0.159216
0.131245
0.109752
0.0931736
0.0801243
0.0696343
0.0606191
0.0562527
13.6679
8.73671
5.07741
3.05388
1.92223
1.26609
0.869288
0.618629
0.453957
0.342031
0.263647
0.207307
0.165897
0.134839
0.111132
0.0926691
0.0781387
0.0666052
0.0571708
0.0497629
12.9054
8.33993
5.07879
3.15547
2.02774
1.3512
0.933536
0.666457
0.489543
0.368592
0.2836
0.222382
0.177321
0.14352
0.11774
0.0977522
0.0820563
0.0695816
0.0595496
0.0513675
12.6882
8.1544
5.07113
3.20038
2.07939
1.39506
0.967831
0.692723
0.509637
0.384016
0.295503
0.231647
0.184592
0.149262
0.122295
0.101385
0.0849635
0.0719095
0.0614253
0.0529682
12.6882
8.1544
5.07113
3.20038
2.07939
1.39506
0.967834
0.692726
0.509643
0.384023
0.295512
0.231657
0.184604
0.149273
0.122305
0.101404
0.0849888
0.0719389
0.0614548
0.0530002
12.9054
8.33993
5.07879
3.15547
2.02775
1.35121
0.933542
0.666464
0.489554
0.368606
0.283618
0.222403
0.177345
0.143543
0.117765
0.0977935
0.082109
0.0696431
0.0596139
0.0513604
13.6679
8.73671
5.07741
3.05388
1.92224
1.2661
0.869292
0.618633
0.453965
0.342042
0.26366
0.207324
0.165916
0.134855
0.111158
0.0927038
0.078179
0.0666463
0.057194
0.0501926
16.5373
9.49239
5.0127
2.8606
1.75746
1.14759
0.786931
0.562047
0.415366
0.315946
0.24633
0.19622
0.159216
0.131236
0.10976
0.0931766
0.0801259
0.0696354
0.0606199
0.0562568
58.5856
14.5696
6.08947
3.33295
2.08217
1.40267
0.998654
0.740287
0.565906
0.443926
0.356022
0.290929
0.241412
0.202976
0.173088
0.149819
0.131367
0.116654
0.10555
0.0980155
45.0226
13.4729
5.73075
3.07323
1.86023
1.227
0.873582
0.649788
0.497025
0.389502
0.311318
0.253015
0.209034
0.175295
0.148947
0.128075
0.111412
0.0980246
0.0873058
0.0791195
13.6679
8.73671
5.07741
3.05388
1.92224
1.2661
0.869292
0.618634
0.453965
0.342042
0.26366
0.207324
0.165917
0.134864
0.111149
0.0927011
0.0781785
0.0666477
0.0571909
0.050184
11.8601
7.76395
4.99734
3.24076
2.14419
1.45499
1.0141
0.725634
0.532156
0.399149
0.305546
0.238222
0.188824
0.151913
0.123869
0.102235
0.0853171
0.0719261
0.0611842
0.0526144
11.6229
7.60535
5.0103
3.34209
2.26848
1.57142
1.11236
0.804587
0.594203
0.447515
0.343208
0.26763
0.211895
0.170116
0.13832
0.113775
0.0945876
0.0794103
0.0672738
0.0574924
11.5726
7.56718
5.02065
3.38344
2.32103
1.62326
1.15828
0.843156
0.62569
0.472848
0.363482
0.283851
0.224903
0.180587
0.146789
0.120661
0.100216
0.0840342
0.0710911
0.0606085
11.5726
7.56718
5.02065
3.38344
2.32103
1.62326
1.15828
0.843156
0.625692
0.472851
0.363486
0.283855
0.224908
0.180589
0.14679
0.120667
0.100224
0.0840448
0.0711042
0.0606438
11.6229
7.60535
5.0103
3.34209
2.26848
1.57142
1.11236
0.804588
0.594206
0.44752
0.343214
0.267637
0.211901
0.17012
0.138326
0.113787
0.0946041
0.0794307
0.0672998
0.0575622
11.8601
7.76395
4.99734
3.24076
2.14419
1.45499
1.0141
0.725634
0.532155
0.399149
0.305546
0.238222
0.188824
0.151911
0.123871
0.102236
0.0853182
0.0719276
0.0611857
0.0526192
13.6679
8.73671
5.07741
3.05388
1.92223
1.26609
0.869288
0.618629
0.453957
0.342031
0.263647
0.207308
0.165898
0.134841
0.11113
0.0926689
0.0781393
0.0666062
0.0571717
0.0497655
45.0226
13.4729
5.73075
3.07322
1.86023
1.22699
0.87357
0.64977
0.497003
0.389463
0.311269
0.252949
0.208943
0.175164
0.148756
0.127805
0.111018
0.0974383
0.0864235
0.0779253
38.7028
13.0541
5.74336
3.08733
1.88066
1.2275
0.869482
0.645391
0.492601
0.384792
0.307042
0.249069
0.205013
0.171041
0.144482
0.123446
0.106595
0.0929622
0.0818933
0.0735677
12.9054
8.33993
5.07879
3.15547
2.02775
1.35121
0.933542
0.666464
0.489554
0.368606
0.283618
0.222404
0.177348
0.143549
0.117759
0.0977915
0.0821091
0.0696443
0.0596159
0.0513624
11.6229
7.60535
5.01031
3.34209
2.26848
1.57142
1.11236
0.804589
0.594206
0.44752
0.343214
0.267637
0.211903
0.170122
0.138323
0.113786
0.0946036
0.0794305
0.0672997
0.0575614
11.4933
7.5119
5.02843
3.434
2.3892
1.6928
1.22111
0.896487
0.669456
0.508122
0.391656
0.306285
0.242784
0.194886
0.158279
0.129952
0.107776
0.0902254
0.0761875
0.064808
11.4757
7.50136
5.04297
3.47002
2.43665
1.74299
1.26863
0.938712
0.705583
0.538335
0.416593
0.326728
0.259498
0.208556
0.169484
0.139167
0.115387
0.0965403
0.0814421
0.0691208
11.4757
7.50136
5.04297
3.47002
2.43665
1.74299
1.26863
0.938712
0.705584
0.538336
0.416594
0.326728
0.259499
0.208557
0.169483
0.139167
0.115388
0.0965414
0.0814421
0.0691033
11.4933
7.5119
5.02843
3.434
2.3892
1.6928
1.22111
0.896486
0.669456
0.508122
0.391656
0.306285
0.242784
0.194886
0.158279
0.129952
0.107776
0.0902263
0.0761889
0.0648095
11.6229
7.60535
5.0103
3.34209
2.26848
1.57142
1.11236
0.804587
0.594203
0.447515
0.343208
0.267631
0.211897
0.170117
0.138318
0.113775
0.0945885
0.0794119
0.0672758
0.0574949
12.9054
8.33993
5.07879
3.15547
2.02774
1.3512
0.933536
0.666457
0.489543
0.368592
0.283601
0.222383
0.177323
0.143526
0.117733
0.0977496
0.0820553
0.0695812
0.0595493
0.0513667
38.7028
13.0541
5.74336
3.08733
1.88066
1.2275
0.869469
0.645372
0.492577
0.384762
0.306997
0.249009
0.204928
0.170916
0.144301
0.123191
0.106226
0.0924193
0.0811334
0.0728828
36.0571
12.8529
5.76645
3.10212
1.89476
1.22669
0.866502
0.643986
0.492255
0.383971
0.305807
0.247935
0.203944
0.169984
0.143389
0.122277
0.105308
0.0915105
0.0802688
0.0720313
12.6882
8.1544
5.07113
3.20038
2.07939
1.39506
0.967834
0.692726
0.509643
0.384023
0.295512
0.231658
0.184605
0.149276
0.122305
0.101405
0.0849907
0.0719419
0.0614586
0.0530047
11.5726
7.56718
5.02065
3.38344
2.32103
1.62326
1.15828
0.843157
0.625692
0.472851
0.363486
0.283856
0.224909
0.180591
0.14679
0.120667
0.100226
0.0840466
0.0711063
0.0606455
11.4757
7.50136
5.04297
3.47002
2.43665
1.74299
1.26863
0.938712
0.705584
0.538336
0.416594
0.326729
0.259499
0.208557
0.169483
0.139168
0.115388
0.0965418
0.0814425
0.0691042
11.4647
7.49683
5.0577
3.50272
2.48038
1.79068
1.31522
0.981305
0.742925
0.57021
0.44335
0.348968
0.277888
0.223735
0.182018
0.149543
0.124005
0.103725
0.0874412
0.0740569
11.4647
7.49683
5.0577
3.50272
2.48038
1.79068
1.31522
0.981305
0.742924
0.57021
0.44335
0.348968
0.277888
0.223735
0.182018
0.149543
0.124005
0.103725
0.0874413
0.0740563
11.4757
7.50136
5.04297
3.47002
2.43665
1.74299
1.26863
0.938712
0.705583
0.538335
0.416593
0.326728
0.259499
0.208556
0.169483
0.139167
0.115387
0.096541
0.0814431
0.0691208
11.5726
7.56718
5.02065
3.38344
2.32103
1.62326
1.15828
0.843156
0.62569
0.472848
0.363483
0.283852
0.224905
0.180589
0.146786
0.12066
0.100216
0.0840354
0.0710927
0.0606113
12.6882
8.1544
5.07113
3.20038
2.07939
1.39506
0.967831
0.692723
0.509637
0.384016
0.295503
0.231647
0.184593
0.149268
0.122289
0.101383
0.0849622
0.0719086
0.0614244
0.0529672
36.0571
12.8529
5.76645
3.10211
1.89475
1.22669
0.866496
0.643978
0.492244
0.383957
0.305786
0.247907
0.203904
0.169926
0.143301
0.122153
0.105129
0.0912455
0.0798394
0.0709944
36.0571
12.8529
5.76645
3.10211
1.89475
1.22669
0.866496
0.643978
0.492244
0.383957
0.305786
0.247907
0.203904
0.169925
0.143303
0.122153
0.105128
0.0912442
0.0798373
0.0709914
12.6882
8.1544
5.07113
3.20038
2.07939
1.39506
0.967831
0.692723
0.509638
0.384016
0.295504
0.231648
0.184592
0.149263
0.122295
0.101386
0.0849651
0.0719118
0.0614281
0.0529715
11.5726
7.56718
5.02065
3.38344
2.32103
1.62326
1.15828
0.843156
0.62569
0.472848
0.363483
0.283852
0.224904
0.180587
0.146789
0.120662
0.100217
0.084036
0.0710934
0.0606108
11.4757
7.50136
5.04297
3.47002
2.43665
1.74299
1.26863
0.938712
0.705584
0.538335
0.416593
0.326728
0.259498
0.208556
0.169484
0.139167
0.115387
0.0965409
0.0814432
0.0691218
11.4647
7.49683
5.0577
3.50272
2.48038
1.79068
1.31522
0.981305
0.742925
0.57021
0.44335
0.348968
0.277888
0.223735
0.182018
0.149543
0.124005
0.103725
0.0874411
0.0740566
11.4647
7.49683
5.0577
3.50272
2.48038
1.79068
1.31522
0.981305
0.742924
0.57021
0.44335
0.348968
0.277888
0.223735
0.182018
0.149543
0.124005
0.103725
0.0874411
0.0740554
11.4757
7.50136
5.04297
3.47002
2.43665
1.74299
1.26863
0.938712
0.705584
0.538336
0.416594
0.326728
0.259499
0.208556
0.169484
0.139167
0.115388
0.0965414
0.0814421
0.0691026
11.5726
7.56718
5.02065
3.38344
2.32103
1.62326
1.15828
0.843156
0.625692
0.472851
0.363486
0.283855
0.224907
0.18059
0.146791
0.120667
0.100225
0.0840449
0.0711041
0.0606428
12.6882
8.1544
5.07113
3.20038
2.07939
1.39506
0.967834
0.692726
0.509643
0.384023
0.295511
0.231657
0.184603
0.149276
0.122305
0.101404
0.0849886
0.0719386
0.0614545
0.0529998
36.0571
12.8529
5.76645
3.10212
1.89476
1.22669
0.866502
0.643986
0.492255
0.383971
0.305807
0.247936
0.203946
0.169986
0.143386
0.122274
0.105306
0.0915097
0.0802688
0.0720353
38.7028
13.0541
5.74336
3.08733
1.88066
1.2275
0.869469
0.645373
0.492577
0.384762
0.306997
0.249009
0.204929
0.170918
0.144299
0.123189
0.106224
0.0924169
0.0811301
0.0728789
12.9054
8.33993
5.07879
3.15547
2.02774
1.3512
0.933535
0.666457
0.489543
0.368592
0.2836
0.222382
0.177321
0.14352
0.11774
0.0977525
0.0820564
0.0695814
0.0595495
0.0513662
11.6229
7.60535
5.0103
3.34209
2.26848
1.57142
1.11236
0.804587
0.594203
0.447515
0.343208
0.26763
0.211895
0.170115
0.138321
0.113776
0.0945877
0.0794101
0.0672734
0.0574902
11.4933
7.5119
5.02843
3.434
2.3892
1.6928
1.22111
0.896487
0.669456
0.508122
0.391656
0.306285
0.242783
0.194886
0.158279
0.129952
0.107775
0.0902248
0.0761867
0.0648065
11.4757
7.50136
5.04297
3.47002
2.43665
1.74299
1.26863
0.938712
0.705584
0.538336
0.416594
0.326728
0.259499
0.208557
0.169483
0.139167
0.115388
0.0965411
0.0814415
0.0691022
11.4757
7.50136
5.04297
3.47002
2.43665
1.74299
1.26863
0.938712
0.705583
0.538335
0.416593
0.326728
0.259499
0.208557
0.169483
0.139167
0.115387
0.0965409
0.0814431
0.0691201
11.4933
7.5119
5.02843
3.434
2.3892
1.6928
1.22111
0.896487
0.669456
0.508122
0.391656
0.306285
0.242784
0.194886
0.158279
0.129952
0.107776
0.0902256
0.076188
0.0648079
11.6229
7.60535
5.0103
3.34209
2.26848
1.57142
1.11236
0.804589
0.594206
0.44752
0.343214
0.267637
0.211901
0.17012
0.138326
0.113787
0.0946029
0.0794291
0.0672976
0.0575588
12.9054
8.33993
5.07879
3.15547
2.02775
1.35121
0.933542
0.666465
0.489554
0.368606
0.283618
0.222403
0.177345
0.143542
0.117766
0.0977936
0.0821091
0.0696431
0.0596139
0.0513597
38.7028
13.0541
5.74336
3.08733
1.88066
1.2275
0.869482
0.645391
0.492601
0.384792
0.307042
0.249069
0.205015
0.171044
0.144479
0.123443
0.106592
0.0929599
0.081891
0.0735661
45.0226
13.4729
5.73075
3.07322
1.86023
1.22699
0.87357
0.649771
0.497003
0.389463
0.311269
0.252951
0.208946
0.175168
0.148755
0.127803
0.111017
0.0974381
0.0864227
0.077924
13.6679
8.73671
5.07741
3.05388
1.92223
1.26609
0.869287
0.618629
0.453957
0.342031
0.263646
0.207307
0.165896
0.134838
0.111132
0.0926681
0.0781362
0.0666006
0.0571701
0.0497556
11.8601
7.76395
4.99734
3.24076
2.14419
1.45499
1.0141
0.725634
0.532155
0.399149
0.305545
0.238221
0.188823
0.151912
0.123869
0.102234
0.0853148
0.0719229
0.0611793
0.052605
11.6229
7.60535
5.0103
3.34209
2.26848
1.57142
1.11236
0.804588
0.594206
0.447519
0.343213
0.267637
0.211902
0.170121
0.138322
0.113785
0.0946017
0.0794279
0.0672961
0.0575571
11.5726
7.56718
5.02065
3.38344
2.32103
1.62326
1.15828
0.843156
0.625692
0.472851
0.363486
0.283856
0.224908
0.180591
0.14679
0.120666
0.100224
0.0840452
0.0711046
0.0606436
11.5726
7.56718
5.02065
3.38344
2.32103
1.62326
1.15828
0.843155
0.62569
0.472848
0.363483
0.283852
0.224904
0.180588
0.146789
0.120661
0.100217
0.0840362
0.0710938
0.0606109
11.6229
7.60535
5.0103
3.34209
2.26848
1.57142
1.11236
0.804587
0.594202
0.447515
0.343208
0.267631
0.211897
0.170118
0.138318
0.113775
0.094588
0.0794112
0.0672751
0.0574932
11.8601
7.76395
4.99734
3.24076
2.14419
1.45499
1.0141
0.725634
0.532155
0.399149
0.305545
0.238221
0.188824
0.151912
0.12387
0.102235
0.0853162
0.0719249
0.0611825
0.0526108
13.6679
8.73671
5.07741
3.05388
1.92224
1.2661
0.869291
0.618635
0.453965
0.342042
0.26366
0.207324
0.165916
0.134855
0.111157
0.0927037
0.0781789
0.0666462
0.0571936
0.0501791
45.0226
13.4729
5.73075
3.07323
1.86023
1.227
0.873582
0.649788
0.497025
0.389501
0.311317
0.253015
0.209035
0.175298
0.148945
0.128072
0.11141
0.0980222
0.0873033
0.0791179
58.5856
14.5696
6.08947
3.33295
2.08217
1.40267
0.998654
0.740288
0.565907
0.443927
0.356023
0.290931
0.241414
0.202981
0.173089
0.149821
0.131371
0.11666
0.105557
0.0980245
16.5373
9.49239
5.0127
2.8606
1.75746
1.14759
0.786931
0.562048
0.415366
0.315946
0.24633
0.196219
0.159215
0.131244
0.109752
0.0931725
0.0801226
0.0696324
0.0606152
0.0562454
13.6679
8.73671
5.07741
3.05388
1.92224
1.2661
0.869292
0.618633
0.453965
0.342042
0.26366
0.207324
0.165917
0.134863
0.111149
0.0927003
0.0781776
0.0666466
0.0571894
0.0501837
12.9054
8.33993
5.07879
3.15547
2.02775
1.35121
0.933542
0.666464
0.489554
0.368606
0.283618
0.222404
0.177348
0.143549
0.117758
0.0977912
0.0821089
0.0696442
0.0596157
0.0513625
12.6882
8.1544
5.07113
3.20038
2.07939
1.39506
0.967835
0.692726
0.509643
0.384023
0.295512
0.231658
0.184605
0.149277
0.122305
0.101405
0.0849909
0.0719421
0.061459
0.0530049
12.6882
8.1544
5.07113
3.20038
2.07939
1.39506
0.967832
0.692722
0.509637
0.384016
0.295504
0.231648
0.184593
0.149264
0.122295
0.101386
0.0849652
0.0719117
0.061428
0.0529709
12.9054
8.33993
5.07879
3.15547
2.02774
1.3512
0.933536
0.666456
0.489543
0.368592
0.2836
0.222382
0.177323
0.143527
0.117734
0.0977497
0.082055
0.0695806
0.0595488
0.0513656
13.6679
8.73671
5.07741
3.05388
1.92223
1.26609
0.869287
0.618628
0.453957
0.342031
0.263646
0.207307
0.165896
0.134841
0.111129
0.0926664
0.0781355
0.0666003
0.0571698
0.049755
16.5373
9.49239
5.0127
2.8606
1.75746
1.14759
0.78693
0.562048
0.415366
0.315946
0.24633
0.19622
0.159216
0.131236
0.109759
0.0931758
0.0801247
0.0696341
0.0606168
0.0562453
58.5856
14.5696
6.08947
3.33295
2.08218
1.40267
0.998657
0.740293
0.565913
0.44394
0.356043
0.290962
0.241463
0.203082
0.173229
0.150022
0.131696
0.117229
0.106561
0.0995726
90.5034
12.1248
4.38869
2.46659
1.63316
1.18307
0.90202
0.720671
0.594599
0.50252
0.432701
0.379321
0.336369
0.299983
0.27036
0.246423
0.22702
0.211677
0.202886
0.193919
58.5856
14.5696
6.08947
3.33295
2.08218
1.40267
0.998658
0.740293
0.565913
0.443941
0.356045
0.290963
0.241465
0.203082
0.173231
0.150026
0.131701
0.117235
0.106569
0.0995823
45.0226
13.4729
5.73075
3.07323
1.86023
1.227
0.873582
0.649788
0.497026
0.389502
0.311318
0.253016
0.209035
0.175296
0.148948
0.128077
0.111414
0.0980266
0.0873082
0.0791222
38.7028
13.0541
5.74336
3.08733
1.88066
1.2275
0.869482
0.645391
0.492601
0.384793
0.307042
0.24907
0.205013
0.171041
0.144483
0.123447
0.106595
0.0929628
0.0818937
0.073568
36.0571
12.8529
5.76645
3.10212
1.89476
1.22669
0.866502
0.643986
0.492255
0.383971
0.305807
0.247935
0.203944
0.169983
0.14339
0.122277
0.105308
0.09151
0.0802677
0.0720287
36.0571
12.8529
5.76645
3.10211
1.89475
1.22669
0.866496
0.643978
0.492244
0.383957
0.305786
0.247907
0.203904
0.169925
0.143302
0.122153
0.105128
0.0912436
0.079836
0.070987
38.7028
13.0541
5.74336
3.08733
1.88066
1.2275
0.869468
0.645373
0.492578
0.384762
0.306998
0.249009
0.204928
0.170916
0.144301
0.12319
0.106225
0.0924179
0.0811312
0.0728795
45.0226
13.4729
5.73075
3.07322
1.86023
1.22699
0.87357
0.649771
0.497004
0.389464
0.31127
0.25295
0.208944
0.175165
0.148757
0.127806
0.11102
0.0974403
0.0864253
0.0779266
58.5856
14.5696
6.08947
3.33295
2.08217
1.40267
0.998654
0.740288
0.565907
0.443927
0.356023
0.29093
0.241414
0.202978
0.17309
0.149821
0.131371
0.116659
0.105556
0.0980239
90.5034
12.1248
4.38869
2.46659
1.63316
1.18307
0.902019
0.720671
0.594599
0.502518
0.432703
0.379319
0.33637
0.299978
0.270362
0.246422
0.227017
0.211674
0.202884
0.193914
0.379259
0.29873
0.236546
0.202104
0.182393
0.170097
0.160888
0.153295
0.146818
0.14133
0.1368
0.132692
0.128867
0.125181
0.121674
0.118513
0.115463
0.112628
0.109913
0.107371
0.104931
0.102565
0.100359
0.0983134
0.0963466
0.0944659
0.0926586
0.0909195
0.0892257
0.0876265
0.0860638
0.0845753
0.0831562
0.0817676
0.0805026
0.0792406
0.0780957
0.0769833
0.0760661
0.0743632
0.140994
0.116017
0.098096
0.0857579
0.0774688
0.0715655
0.0669794
0.0630773
0.0597494
0.0569289
0.0545156
0.0523567
0.0505229
0.048734
0.047029
0.0455134
0.0440876
0.0428063
0.0416025
0.0404802
0.0394288
0.0384156
0.0374799
0.0366219
0.0358211
0.0350666
0.0343425
0.0336454
0.032973
0.0323265
0.0317032
0.031103
0.0305273
0.0299831
0.0294607
0.0289652
0.0284899
0.0280372
0.0276179
0.0271451
0.0957621
0.0817729
0.0714752
0.0636637
0.0577035
0.0532166
0.04945
0.0462587
0.0435528
0.0411998
0.039153
0.0373554
0.0358607
0.0343277
0.0329536
0.0317564
0.0306474
0.0296739
0.0287415
0.0278627
0.0270509
0.0262272
0.0254737
0.0247919
0.0241776
0.0236022
0.0230479
0.0225161
0.0220079
0.0215171
0.0210489
0.0206012
0.0201717
0.0197631
0.0193686
0.0190049
0.0186514
0.0183097
0.0179798
0.0176382
0.0736241
0.0659012
0.0594559
0.0540491
0.0494918
0.0456128
0.0422817
0.0394057
0.0369029
0.0347115
0.0327808
0.0310822
0.0296079
0.0282362
0.0269938
0.0258757
0.0248549
0.0239791
0.0230626
0.0222082
0.0214631
0.0207711
0.0201185
0.0195003
0.0189297
0.0183961
0.0179018
0.017431
0.0169949
0.0165724
0.0161672
0.0157808
0.0154099
0.0150733
0.0147469
0.0144434
0.0141464
0.01387
0.0136047
0.013338
0.0681034
0.0604214
0.0542462
0.0491994
0.0449939
0.0414563
0.0384387
0.0358237
0.0335257
0.031494
0.0296896
0.0280855
0.0266697
0.0253575
0.0241738
0.0231069
0.0221459
0.0212607
0.0204493
0.0197021
0.0190292
0.0183899
0.0177389
0.0171488
0.0166099
0.0161092
0.0156448
0.0152081
0.0148076
0.0144214
0.0140547
0.0137032
0.0133737
0.0130685
0.012764
0.0124824
0.0122139
0.0119655
0.0117332
0.011514
0.0712872
0.0603761
0.0531362
0.0477216
0.0433832
0.039814
0.0368217
0.0342766
0.0320535
0.0300836
0.0283308
0.0267689
0.0253796
0.0241112
0.0229667
0.0219297
0.0209863
0.0201253
0.0193438
0.0186313
0.0179752
0.0173705
0.016806
0.0163023
0.0157635
0.015245
0.0147774
0.0143525
0.0139734
0.0136069
0.0132708
0.0129585
0.0126304
0.0123496
0.0120134
0.0117739
0.0115067
0.0112865
0.0110693
0.0108639
0.0713979
0.0602464
0.0532431
0.0479083
0.0435983
0.0400342
0.0370407
0.0344798
0.032234
0.0302492
0.0284906
0.0269297
0.0255426
0.0242802
0.023141
0.0221083
0.021169
0.0203139
0.0195342
0.0188264
0.0181814
0.0175884
0.0170202
0.0165195
0.0159819
0.0154714
0.0150125
0.0145965
0.0142185
0.0138461
0.0135009
0.0131808
0.0128469
0.0125572
0.0122584
0.0120084
0.0117608
0.0115275
0.0113017
0.011087
0.0712101
0.0623734
0.0556532
0.0503024
0.0459102
0.0422745
0.0391936
0.0365263
0.0342013
0.0321607
0.0303582
0.0287692
0.027361
0.0260779
0.0249211
0.0238703
0.0229138
0.0220542
0.0212665
0.0205397
0.0198724
0.0192557
0.0186219
0.0180662
0.0175359
0.017047
0.0165809
0.0161501
0.0157326
0.0153131
0.0149264
0.0145786
0.0142658
0.0139611
0.0136675
0.0133835
0.0131029
0.0128407
0.012593
0.0123563
0.0819343
0.0719908
0.0639558
0.0574355
0.0522411
0.0481379
0.0447973
0.0419543
0.0395167
0.0373912
0.0355292
0.0339248
0.0324763
0.0311486
0.0299664
0.0288037
0.0277106
0.0267226
0.0258525
0.0250206
0.0242609
0.0235411
0.0228586
0.0222322
0.0216194
0.0210545
0.0205208
0.0200258
0.0195566
0.0191186
0.0187082
0.0183201
0.0179474
0.0175937
0.0172563
0.0169312
0.0166006
0.0163003
0.0160273
0.0157487
0.131848
0.109385
0.0915359
0.0793423
0.0713923
0.0660249
0.062044
0.0586337
0.0557655
0.0532849
0.0511119
0.0493692
0.0475215
0.0457282
0.0441085
0.0426261
0.0412325
0.0399412
0.038738
0.0376216
0.0365735
0.0355991
0.0347047
0.0338953
0.0331169
0.0323846
0.0316819
0.0310178
0.0303839
0.0297862
0.0292119
0.0286634
0.0281408
0.0276449
0.0271632
0.0267398
0.0263178
0.025919
0.0255622
0.0251584
0.379234
0.298718
0.236499
0.20187
0.181799
0.169307
0.160231
0.152721
0.146381
0.141098
0.136519
0.132621
0.128715
0.125024
0.121566
0.118393
0.115377
0.11254
0.109852
0.107332
0.104896
0.102565
0.100361
0.0983444
0.0963786
0.0945122
0.092701
0.0909574
0.0892539
0.0876372
0.0860676
0.084574
0.0831421
0.0817482
0.0804251
0.0792096
0.0780941
0.0769438
0.0759986
0.0742317
0.131827
0.109428
0.0915585
0.0794096
0.0716423
0.066442
0.0623922
0.0589256
0.0559828
0.0533871
0.0512575
0.0494137
0.0475331
0.0458003
0.0441698
0.0427015
0.0412801
0.0399994
0.0387799
0.0376568
0.0366056
0.0356156
0.0347131
0.0338886
0.0331082
0.0323708
0.0316692
0.0310076
0.0303776
0.0297872
0.029217
0.0286715
0.0281512
0.0276626
0.0272162
0.0267632
0.0263296
0.0259343
0.0255911
0.0252037
0.0642674
0.0533093
0.046794
0.0413438
0.0368999
0.0337503
0.0314989
0.0293856
0.0275109
0.0258831
0.0244908
0.0232102
0.0221123
0.0210052
0.0201896
0.0191986
0.0184596
0.0176468
0.0169788
0.0163328
0.0157266
0.0151651
0.0146202
0.0141466
0.0137397
0.0133581
0.0130085
0.0126391
0.0123755
0.0119722
0.0117141
0.0114756
0.0112151
0.0110404
0.0106158
0.0104935
0.0103386
0.0101655
0.0100118
0.00983565
0.054364
0.0432676
0.0374319
0.0325944
0.0293882
0.0266915
0.024422
0.0224825
0.0208242
0.0193851
0.0181478
0.0168926
0.0161059
0.0149363
0.0143285
0.0134173
0.0129244
0.0121973
0.0117729
0.0112079
0.0107632
0.0104064
0.0099047
0.00964021
0.00922134
0.00896602
0.00867894
0.00836011
0.00815083
0.00787173
0.00767819
0.00746896
0.0073129
0.00706474
0.00688449
0.00671079
0.00660362
0.00640997
0.00626019
0.00603088
0.0499064
0.0418847
0.0360659
0.0314336
0.0278179
0.024938
0.0226878
0.0207356
0.0190446
0.017571
0.0162799
0.015133
0.0141061
0.013221
0.0124316
0.0117189
0.0110919
0.0105288
0.00998838
0.00957123
0.00903409
0.00872638
0.0082379
0.00803136
0.00761863
0.00741182
0.00707705
0.00690057
0.00662244
0.00646886
0.00624473
0.00606274
0.00594199
0.00570805
0.00557819
0.00548812
0.00538234
0.00519478
0.00508023
0.00485501
0.0459722
0.0403568
0.0354839
0.0313522
0.0278729
0.0247595
0.0221365
0.020057
0.0184004
0.0169258
0.015619
0.014458
0.0134212
0.0125153
0.011709
0.0109883
0.0103426
0.00976247
0.00923861
0.00876556
0.00833635
0.00794707
0.00759788
0.00727261
0.00698546
0.00669001
0.00645136
0.00618645
0.0059775
0.00579924
0.00562519
0.00542967
0.00531752
0.00510346
0.00498619
0.00491434
0.0048028
0.00464788
0.00452687
0.00432664
0.0457488
0.0402095
0.0353823
0.0312651
0.0277755
0.0247853
0.0221316
0.0197782
0.0180302
0.0166143
0.0153268
0.0141702
0.0131412
0.0122198
0.0114025
0.0106747
0.0100242
0.00944094
0.00891665
0.00844407
0.00801743
0.00763181
0.00728856
0.00698146
0.00667862
0.00639963
0.00615184
0.0059076
0.00570066
0.00551826
0.00533738
0.00518493
0.00504472
0.00487974
0.00474715
0.00466837
0.00454586
0.00442651
0.00424745
0.00410097
0.0461755
0.0403467
0.0353571
0.0311308
0.0275832
0.0245392
0.0218289
0.0195763
0.0179352
0.0165133
0.0152314
0.0140849
0.0130657
0.0121674
0.0113668
0.0106509
0.0100093
0.00943303
0.0089134
0.00844495
0.00802122
0.00763783
0.00729573
0.00698671
0.00669893
0.00641611
0.00618756
0.00589382
0.00571211
0.00546242
0.0053223
0.00517711
0.00503536
0.00484144
0.00470907
0.00462682
0.00450471
0.00437898
0.00421991
0.00405945
0.0454597
0.0400694
0.0350329
0.0307412
0.0272221
0.0240246
0.021646
0.0198586
0.0182582
0.016842
0.0155905
0.0144756
0.0134872
0.0126303
0.0118581
0.0111599
0.0105246
0.00995484
0.00942581
0.00895686
0.0085252
0.00813611
0.00780661
0.00740443
0.00716837
0.00679646
0.00661322
0.0062949
0.0061179
0.0058413
0.00570723
0.00554595
0.00540566
0.00515379
0.00501323
0.00486204
0.00476294
0.00463941
0.00449085
0.00430393
0.0508035
0.0417226
0.0364471
0.0314569
0.0280514
0.025559
0.0234001
0.0215453
0.019921
0.0185063
0.0172619
0.0161552
0.0151991
0.014325
0.0135347
0.0128539
0.0121045
0.0116113
0.0108997
0.0105189
0.00994127
0.00961386
0.00910747
0.00881794
0.00849227
0.00812897
0.00792486
0.0075758
0.00739602
0.00706816
0.00690283
0.0067129
0.00655314
0.00629732
0.00613734
0.00599854
0.00576905
0.00565703
0.00549935
0.00533019
0.0641935
0.053362
0.0467729
0.0415562
0.0372636
0.0340672
0.0314018
0.0292911
0.0273327
0.025735
0.0243542
0.0230529
0.0220617
0.0209799
0.0201084
0.019184
0.0183889
0.0176187
0.0169471
0.0163052
0.0157258
0.0151387
0.0146442
0.0141249
0.0137515
0.0133402
0.0130212
0.0126406
0.0123745
0.0119717
0.0117095
0.0114686
0.011221
0.0109722
0.0107305
0.0106117
0.0101856
0.0100951
0.00996412
0.00979159
0.140998
0.115946
0.0981042
0.085536
0.076974
0.0710835
0.0666025
0.0627846
0.059534
0.056828
0.0543345
0.0523471
0.0504585
0.0486642
0.0469697
0.0454495
0.0440377
0.0427611
0.0415616
0.0404581
0.0394038
0.0384105
0.0374786
0.0366386
0.0358399
0.0350906
0.0343659
0.0336675
0.0329925
0.0323404
0.0317145
0.0311127
0.0305357
0.0299868
0.0294578
0.0289726
0.0284984
0.0280448
0.0276154
0.0271297
0.0819339
0.0720454
0.0639633
0.0573394
0.0522728
0.0482354
0.0448909
0.0420377
0.0395845
0.0374432
0.0355802
0.0339455
0.0325036
0.0311827
0.0299891
0.0288307
0.0277115
0.0267486
0.0258582
0.0250357
0.0242738
0.0235453
0.0228651
0.0222219
0.0216139
0.0210479
0.020515
0.020021
0.0195541
0.0191202
0.0187126
0.018327
0.0179569
0.017605
0.0172712
0.0169447
0.0166235
0.016325
0.0160546
0.0157818
0.0507893
0.0418735
0.0366667
0.0313335
0.0280422
0.0255784
0.0234433
0.021592
0.0199711
0.0185539
0.0173238
0.016194
0.0152507
0.0143105
0.0136283
0.0127798
0.0122516
0.0114611
0.0110374
0.0104234
0.00999277
0.0096488
0.00911905
0.00886408
0.0084332
0.00815479
0.00793105
0.00758189
0.007401
0.00706955
0.00690849
0.00671933
0.00656299
0.00631225
0.00616504
0.00593912
0.00581721
0.00566299
0.00550759
0.00535754
0.0457519
0.0395513
0.034445
0.0300837
0.0265606
0.0236697
0.021255
0.0192162
0.0174765
0.015977
0.014678
0.013542
0.0125223
0.011627
0.0108522
0.0101146
0.00948298
0.00882954
0.00836152
0.00793383
0.00753895
0.00718102
0.00678394
0.00650158
0.00618079
0.00587395
0.00567131
0.00539346
0.00521258
0.00500535
0.00486682
0.00470594
0.004591
0.00437906
0.00426111
0.0041973
0.00411053
0.00394406
0.00384659
0.00364477
0.0477987
0.0414094
0.0360657
0.0315865
0.0278396
0.0246975
0.0220544
0.0198058
0.0178793
0.0162179
0.0147771
0.0135207
0.0124111
0.0114401
0.0105795
0.00981414
0.00913085
0.00851191
0.00796034
0.00747232
0.00702538
0.00663868
0.00620258
0.00587048
0.00561421
0.00538048
0.00512368
0.0049203
0.00469436
0.00452085
0.00434081
0.00421813
0.00411127
0.00392891
0.0038112
0.00377584
0.00366827
0.00355818
0.00344379
0.00330586
0.0500841
0.0432591
0.0376371
0.0329589
0.0290346
0.0257079
0.0228806
0.0204742
0.0184249
0.0166595
0.0151283
0.0137926
0.01262
0.0115924
0.010684
0.00987814
0.00916066
0.00851897
0.00794381
0.00742691
0.00696068
0.00654521
0.00614586
0.00581821
0.00550531
0.00521579
0.00490476
0.00469764
0.0045326
0.00439203
0.00423233
0.00408516
0.00394858
0.00382732
0.00370733
0.00367444
0.00356079
0.00344639
0.00333292
0.00322414
0.0503283
0.0437272
0.0381488
0.0334419
0.0294637
0.0260841
0.0231958
0.0207182
0.0186066
0.0167994
0.0152368
0.0138754
0.0126809
0.0116358
0.0107122
0.0098933
0.00916437
0.00851284
0.00792963
0.00740656
0.00693567
0.00651454
0.00611829
0.0057924
0.00547566
0.00518162
0.00491742
0.00466712
0.00442807
0.00433109
0.00418108
0.00403983
0.00390558
0.00378694
0.00367067
0.00364891
0.00353294
0.00341732
0.00330164
0.00318887
0.049362
0.0429535
0.0375097
0.0328894
0.0289701
0.025636
0.0227906
0.020363
0.0182976
0.0165259
0.0149964
0.0136673
0.0124975
0.0114813
0.0105824
0.00978423
0.00907411
0.00843829
0.00786872
0.00735722
0.00689655
0.00648238
0.0060944
0.00576839
0.00545152
0.00516587