/*--------------------------------*- C++ -*----------------------------------*\
| =========                 |                                                 |
| \\      /  F ield         | OpenFOAM: The Open Source CFD Toolbox           |
|  \\    /   O peration     | Version:  2212                                  |
|   \\  /    A nd           | Website:  www.openfoam.com                      |
|    \\/     M anipulation  |                                                 |
\*---------------------------------------------------------------------------*/
FoamFile
{
    version     2.0;
    format      ascii;
    arch        "LSB;label=32;scalar=64";
    class       volScalarField;
    location    "2.25";
    object      k;
}
// * * * * * * * * * * * * * * * * * * * * * * * * * * * * * * * * * * * * * //

dimensions      [0 2 -2 0 0 0 0];

internalField   nonuniform List<scalar> 
6840
(
0.213564
0.055916
0.0283994
0.0193412
0.0146928
0.0118511
0.00989076
0.00851617
0.00749151
0.00669663
0.00606104
0.00555173
0.00512434
0.00474787
0.00443007
0.00416471
0.00394327
0.00376386
0.00365917
0.00355489
0.264759
0.104702
0.0585298
0.0391631
0.02862
0.0219935
0.0175362
0.0143634
0.0120085
0.0102141
0.00881685
0.00770649
0.00680524
0.00606245
0.00545178
0.00495178
0.00453684
0.00419231
0.00392327
0.00373845
0.283364
0.126774
0.071702
0.0473282
0.0338663
0.0256616
0.0204608
0.016797
0.0140485
0.0119409
0.0102838
0.00895544
0.00788417
0.00700986
0.00628633
0.0056815
0.00517286
0.00474255
0.00437898
0.00408861
0.292299
0.141633
0.0819301
0.0541653
0.038923
0.0292873
0.0232721
0.0190783
0.0159337
0.0135144
0.0116259
0.0101114
0.00887989
0.00786806
0.0070284
0.00632517
0.00573049
0.00522289
0.00478893
0.00445755
0.295943
0.148782
0.0871941
0.0576749
0.0415193
0.0310721
0.0246448
0.0202207
0.0169045
0.0143242
0.0123072
0.0107005
0.00939353
0.00831857
0.0074252
0.00667528
0.00603953
0.00549512
0.00502669
0.00464862
0.295943
0.148782
0.0871941
0.0576749
0.0415193
0.0310722
0.0246449
0.0202208
0.0169047
0.0143245
0.0123077
0.0107013
0.00939462
0.0083203
0.00742792
0.00667934
0.0060457
0.00550467
0.00504276
0.00468741
0.292299
0.141633
0.0819302
0.0541654
0.0389231
0.0292874
0.0232723
0.0190786
0.0159341
0.013515
0.0116268
0.0101129
0.00888208
0.00787152
0.00703364
0.00633296
0.00574232
0.00524115
0.0048157
0.00448428
0.283364
0.126774
0.071702
0.0473282
0.0338663
0.0256617
0.020461
0.0167972
0.0140489
0.0119416
0.0102847
0.00895677
0.00788615
0.00701293
0.0062911
0.00568858
0.00518363
0.00475928
0.00440498
0.00412427
0.264759
0.104702
0.0585298
0.0391631
0.02862
0.0219935
0.0175362
0.0143635
0.0120086
0.0102143
0.00881714
0.00770698
0.00680604
0.00606424
0.00545437
0.00495565
0.00454331
0.00420396
0.00394466
0.00377024
0.213564
0.055916
0.0283994
0.0193412
0.0146928
0.0118511
0.00989076
0.00851616
0.00749151
0.00669661
0.00606104
0.00555171
0.00512435
0.00474782
0.00443006
0.00416467
0.00394322
0.00376378
0.00365908
0.00355483
0.264759
0.104702
0.0585298
0.0391631
0.02862
0.0219935
0.0175362
0.0143635
0.0120086
0.0102143
0.00881716
0.007707
0.00680607
0.00606421
0.0054544
0.00495573
0.00454342
0.00420408
0.00394481
0.00377039
0.311746
0.197541
0.130357
0.0911457
0.0668023
0.0508112
0.0397945
0.0319123
0.0260945
0.0216877
0.0182772
0.0155894
0.0134423
0.0117
0.0102699
0.00908374
0.00809082
0.00725343
0.00655583
0.00588123
0.31754
0.217754
0.151085
0.108549
0.0807155
0.0618725
0.0486772
0.0391415
0.0320583
0.0266711
0.0224894
0.0191863
0.0165375
0.0143847
0.0126142
0.0111446
0.00991352
0.00887296
0.00798888
0.00722874
0.319723
0.227073
0.162232
0.118772
0.0893609
0.0689925
0.0545302
0.043984
0.0360991
0.0300738
0.0253808
0.0216633
0.0186749
0.0162412
0.014236
0.0125668
0.0111639
0.009974
0.00895579
0.00806762
0.320484
0.23086
0.167176
0.123531
0.0935157
0.0724823
0.0574403
0.0464207
0.038153
0.0318161
0.0268694
0.0229445
0.0197848
0.0172084
0.0150831
0.0133117
0.0118208
0.0105542
0.00946777
0.00852067
0.320484
0.23086
0.167176
0.123531
0.0935158
0.0724824
0.0574405
0.046421
0.0381534
0.0318167
0.0268701
0.0229456
0.0197865
0.0172109
0.0150869
0.013317
0.0118284
0.010565
0.00948319
0.00854853
0.319723
0.227073
0.162232
0.118772
0.0893611
0.0689928
0.0545306
0.0439845
0.0360999
0.0300748
0.0253823
0.0216655
0.0186782
0.0162462
0.0142433
0.0125771
0.0111787
0.00999544
0.00898652
0.00812629
0.31754
0.217754
0.151086
0.108549
0.0807157
0.0618727
0.0486775
0.0391419
0.0320589
0.0266719
0.0224905
0.019188
0.0165399
0.0143883
0.0126196
0.0111521
0.00992433
0.00888901
0.00801365
0.00726277
0.311746
0.197541
0.130357
0.0911457
0.0668023
0.0508112
0.0397945
0.0319123
0.0260945
0.0216877
0.0182772
0.0155894
0.0134422
0.0116999
0.0102699
0.00908362
0.00809064
0.0072532
0.00655552
0.00588087
0.264759
0.104702
0.0585298
0.0391631
0.02862
0.0219935
0.0175362
0.0143634
0.0120085
0.0102141
0.00881684
0.00770647
0.00680523
0.00606238
0.00545177
0.00495176
0.00453678
0.00419222
0.00392317
0.00373838
0.283364
0.126774
0.071702
0.0473282
0.0338663
0.0256617
0.020461
0.0167972
0.0140489
0.0119416
0.0102847
0.00895678
0.00788613
0.00701287
0.00629116
0.00568867
0.00518372
0.00475937
0.00440511
0.00412449
0.31754
0.217754
0.151086
0.108549
0.0807157
0.0618727
0.0486775
0.039142
0.0320589
0.0266719
0.0224906
0.019188
0.0165399
0.0143882
0.0126197
0.0111523
0.00992451
0.00888922
0.00801394
0.00726324
0.322005
0.239026
0.177588
0.133616
0.102323
0.0798669
0.0635106
0.0513822
0.0422218
0.0351796
0.029676
0.0253098
0.0217987
0.0189404
0.0165879
0.0146324
0.0129923
0.0116052
0.0104196
0.0093597
0.323293
0.245617
0.187499
0.144537
0.112864
0.0894038
0.0718632
0.0585863
0.0483994
0.040474
0.0342244
0.0292329
0.0251986
0.0219019
0.0191807
0.0169136
0.0150083
0.0133936
0.0120107
0.0107961
0.323714
0.247819
0.191099
0.14881
0.117249
0.0935706
0.0756572
0.0619603
0.0513624
0.0430608
0.0364786
0.0311986
0.0269165
0.0234078
0.0205054
0.0180831
0.0160444
0.0143141
0.0128302
0.0115286
0.323714
0.247819
0.191099
0.14881
0.117249
0.0935707
0.0756573
0.0619605
0.0513626
0.0430611
0.036479
0.0311992
0.0269173
0.0234091
0.0205072
0.0180855
0.0160476
0.0143183
0.0128349
0.0115287
0.323293
0.245617
0.187499
0.144537
0.112864
0.089404
0.0718634
0.0585866
0.0483998
0.0404745
0.0342251
0.0292339
0.0252
0.021904
0.0191837
0.0169176
0.0150139
0.0134012
0.0120219
0.0108189
0.322005
0.239026
0.177588
0.133616
0.102323
0.0798669
0.0635106
0.0513822
0.0422218
0.0351796
0.029676
0.0253097
0.0217986
0.0189403
0.0165879
0.0146323
0.0129922
0.0116051
0.0104194
0.00935948
0.31754
0.217754
0.151085
0.108549
0.0807155
0.0618725
0.0486772
0.0391415
0.0320583
0.0266711
0.0224894
0.0191863
0.0165374
0.0143845
0.0126143
0.0111447
0.0099135
0.00887286
0.00798875
0.00722849
0.283364
0.126774
0.071702
0.0473282
0.0338663
0.0256616
0.0204608
0.016797
0.0140485
0.0119409
0.0102837
0.00895542
0.00788411
0.00700977
0.00628639
0.00568156
0.0051729
0.00474259
0.00437902
0.00408867
0.292299
0.141633
0.0819302
0.0541654
0.0389231
0.0292874
0.0232723
0.0190787
0.0159341
0.013515
0.0116268
0.0101129
0.00888202
0.00787141
0.00703373
0.00633304
0.00574239
0.00524121
0.00481576
0.00448438
0.319723
0.227073
0.162232
0.118772
0.0893611
0.0689928
0.0545306
0.0439845
0.0360999
0.0300749
0.0253823
0.0216655
0.0186781
0.016246
0.0142433
0.0125773
0.0111789
0.00999557
0.00898665
0.00812646
0.323293
0.245617
0.187499
0.144537
0.112864
0.089404
0.0718634
0.0585866
0.0483998
0.0404746
0.0342251
0.0292339
0.0252
0.021904
0.0191837
0.0169177
0.015014
0.0134013
0.012022
0.010819
0.324288
0.250862
0.19613
0.154888
0.123591
0.09968
0.0812742
0.0669839
0.0557849
0.0469225
0.0398397
0.034124
0.0294678
0.0256405
0.0224677
0.0198159
0.0175824
0.0156859
0.0140577
0.0126248
0.32459
0.252403
0.19891
0.158543
0.12769
0.103871
0.08532
0.0707499
0.0592099
0.0499926
0.0425683
0.0365382
0.0316004
0.0275248
0.024135
0.0212948
0.0188977
0.0168584
0.0151027
0.0135451
0.32459
0.252403
0.19891
0.158543
0.12769
0.103871
0.0853201
0.0707499
0.05921
0.0499927
0.0425685
0.0365384
0.0316006
0.0275251
0.0241354
0.0212954
0.0188983
0.0168589
0.0151014
0.0135309
0.324288
0.250862
0.19613
0.154888
0.123591
0.09968
0.0812742
0.0669838
0.0557849
0.0469225
0.0398397
0.0341239
0.0294677
0.0256405
0.0224676
0.0198159
0.0175824
0.0156858
0.0140576
0.0126248
0.323293
0.245617
0.187499
0.144537
0.112864
0.0894038
0.0718632
0.0585863
0.0483994
0.040474
0.0342244
0.0292328
0.0251985
0.0219018
0.0191807
0.0169136
0.0150083
0.0133935
0.0120105
0.0107962
0.319723
0.227073
0.162232
0.118772
0.0893609
0.0689925
0.0545302
0.0439839
0.0360991
0.0300738
0.0253808
0.0216632
0.0186748
0.016241
0.014236
0.0125669
0.0111639
0.009974
0.00895576
0.00806767
0.292299
0.141633
0.0819301
0.0541653
0.038923
0.0292873
0.0232721
0.0190783
0.0159337
0.0135144
0.0116258
0.0101114
0.00887985
0.00786797
0.00702846
0.00632523
0.00573054
0.00522295
0.00478901
0.00445768
0.295943
0.148782
0.0871941
0.0576749
0.0415193
0.0310722
0.0246449
0.0202208
0.0169047
0.0143245
0.0123077
0.0107013
0.00939461
0.00832026
0.0074279
0.00667932
0.00604569
0.00550464
0.00504273
0.00468743
0.320484
0.23086
0.167176
0.123531
0.0935158
0.0724824
0.0574405
0.046421
0.0381534
0.0318167
0.0268701
0.0229456
0.0197865
0.0172108
0.0150869
0.013317
0.0118284
0.0105649
0.00948311
0.0085484
0.323714
0.247819
0.191099
0.14881
0.117249
0.0935707
0.0756573
0.0619605
0.0513626
0.0430611
0.0364791
0.0311992
0.0269174
0.0234091
0.0205072
0.0180855
0.0160476
0.0143183
0.0128349
0.0115286
0.32459
0.252403
0.19891
0.158543
0.12769
0.103871
0.0853201
0.0707499
0.05921
0.0499927
0.0425685
0.0365384
0.0316006
0.0275251
0.0241355
0.0212954
0.0188984
0.0168589
0.0151013
0.0135308
0.324844
0.253685
0.20131
0.161836
0.131535
0.107943
0.0893701
0.0746126
0.0627922
0.0532536
0.0455015
0.0391576
0.0339306
0.0295949
0.0259747
0.0229322
0.0203583
0.0181641
0.0162709
0.0145882
0.324844
0.253685
0.20131
0.161836
0.131535
0.107943
0.0893701
0.0746126
0.0627921
0.0532536
0.0455015
0.0391576
0.0339306
0.0295949
0.0259747
0.0229322
0.0203583
0.0181641
0.0162709
0.0145883
0.32459
0.252403
0.19891
0.158543
0.12769
0.103871
0.08532
0.0707499
0.0592099
0.0499926
0.0425683
0.0365382
0.0316004
0.0275248
0.024135
0.0212948
0.0188977
0.0168583
0.0151026
0.0135451
0.323714
0.247819
0.191099
0.14881
0.117249
0.0935706
0.0756571
0.0619603
0.0513624
0.0430608
0.0364786
0.0311986
0.0269165
0.0234078
0.0205054
0.0180831
0.0160444
0.0143141
0.0128302
0.0115287
0.320484
0.23086
0.167176
0.123531
0.0935157
0.0724823
0.0574403
0.0464207
0.038153
0.0318161
0.0268694
0.0229445
0.0197849
0.0172083
0.015083
0.0133117
0.0118208
0.0105542
0.00946781
0.00852074
0.295943
0.148782
0.0871941
0.0576749
0.0415193
0.0310721
0.0246448
0.0202207
0.0169045
0.0143242
0.0123072
0.0107005
0.00939355
0.00831856
0.00742516
0.00667527
0.00603953
0.00549513
0.00502673
0.00464884
0.295943
0.148782
0.0871941
0.0576749
0.0415193
0.0310721
0.0246448
0.0202207
0.0169045
0.0143242
0.0123072
0.0107005
0.00939353
0.00831856
0.0074252
0.00667527
0.0060395
0.00549507
0.00502664
0.00464878
0.320484
0.23086
0.167176
0.123531
0.0935157
0.0724823
0.0574403
0.0464207
0.038153
0.0318162
0.0268694
0.0229445
0.0197848
0.0172083
0.0150831
0.0133117
0.0118208
0.0105541
0.00946756
0.00852031
0.323714
0.247819
0.191099
0.14881
0.117249
0.0935706
0.0756572
0.0619603
0.0513624
0.0430608
0.0364786
0.0311986
0.0269165
0.0234078
0.0205054
0.0180831
0.0160444
0.0143141
0.0128301
0.0115284
0.32459
0.252403
0.19891
0.158543
0.12769
0.103871
0.08532
0.0707499
0.0592099
0.0499926
0.0425684
0.0365382
0.0316004
0.0275248
0.024135
0.0212948
0.0188977
0.0168583
0.0151026
0.0135451
0.324844
0.253685
0.20131
0.161836
0.131535
0.107943
0.0893701
0.0746126
0.0627922
0.0532536
0.0455015
0.0391576
0.0339306
0.0295949
0.0259747
0.0229322
0.0203583
0.0181641
0.0162709
0.0145883
0.324844
0.253685
0.20131
0.161836
0.131535
0.107943
0.0893701
0.0746126
0.0627922
0.0532536
0.0455015
0.0391576
0.0339306
0.0295949
0.0259747
0.0229322
0.0203583
0.0181641
0.0162709
0.0145883
0.32459
0.252403
0.19891
0.158543
0.12769
0.103871
0.0853201
0.0707499
0.05921
0.0499927
0.0425685
0.0365384
0.0316006
0.0275251
0.0241354
0.0212954
0.0188983
0.0168589
0.0151014
0.0135309
0.323714
0.247819
0.191099
0.14881
0.117249
0.0935707
0.0756573
0.0619605
0.0513626
0.0430611
0.036479
0.0311992
0.0269174
0.0234091
0.0205072
0.0180855
0.0160476
0.0143184
0.012835
0.0115288
0.320484
0.23086
0.167176
0.123531
0.0935158
0.0724824
0.0574405
0.046421
0.0381534
0.0318167
0.0268701
0.0229456
0.0197866
0.0172109
0.0150867
0.0133169
0.0118283
0.010565
0.00948325
0.00854844
0.295943
0.148782
0.0871941
0.0576749
0.0415193
0.0310722
0.0246449
0.0202208
0.0169047
0.0143245
0.0123077
0.0107013
0.00939467
0.00832034
0.00742778
0.00667923
0.00604563
0.00550461
0.00504274
0.00468758
0.292299
0.141633
0.0819301
0.0541653
0.038923
0.0292873
0.0232721
0.0190783
0.0159337
0.0135144
0.0116259
0.0101115
0.00887989
0.00786806
0.00702841
0.00632517
0.00573047
0.00522287
0.00478888
0.00445753
0.319723
0.227073
0.162232
0.118772
0.0893609
0.0689926
0.0545303
0.043984
0.0360991
0.0300738
0.0253808
0.0216633
0.0186749
0.0162412
0.014236
0.0125668
0.0111638
0.00997389
0.00895561
0.00806734
0.323293
0.245617
0.187499
0.144537
0.112864
0.0894038
0.0718632
0.0585863
0.0483994
0.040474
0.0342244
0.0292329
0.0251986
0.0219019
0.0191807
0.0169136
0.0150083
0.0133935
0.0120105
0.0107961
0.324288
0.250862
0.19613
0.154888
0.123591
0.09968
0.0812742
0.0669839
0.0557849
0.0469225
0.0398397
0.034124
0.0294678
0.0256405
0.0224677
0.0198159
0.0175824
0.0156859
0.0140577
0.0126249
0.32459
0.252403
0.19891
0.158543
0.12769
0.103871
0.0853201
0.0707499
0.05921
0.0499927
0.0425685
0.0365384
0.0316006
0.0275251
0.0241355
0.0212954
0.0188984
0.0168589
0.0151014
0.0135309
0.32459
0.252403
0.19891
0.158543
0.12769
0.103871
0.08532
0.0707499
0.0592099
0.0499926
0.0425684
0.0365382
0.0316004
0.0275248
0.024135
0.0212948
0.0188977
0.0168584
0.0151027
0.0135451
0.324288
0.250862
0.19613
0.154888
0.123591
0.09968
0.0812742
0.0669839
0.0557849
0.0469225
0.0398397
0.034124
0.0294678
0.0256405
0.0224677
0.0198159
0.0175824
0.0156859
0.0140577
0.0126248
0.323293
0.245617
0.187499
0.144537
0.112864
0.089404
0.0718634
0.0585866
0.0483998
0.0404746
0.0342251
0.0292339
0.0252
0.021904
0.0191837
0.0169177
0.0150139
0.0134013
0.012022
0.010819
0.319723
0.227073
0.162232
0.118772
0.0893611
0.0689928
0.0545306
0.0439845
0.0360999
0.0300748
0.0253823
0.0216655
0.0186782
0.0162462
0.0142432
0.0125771
0.0111788
0.00999551
0.00898663
0.00812628
0.292299
0.141633
0.0819302
0.0541654
0.0389231
0.0292874
0.0232723
0.0190786
0.0159341
0.013515
0.0116268
0.0101129
0.00888208
0.00787152
0.00703362
0.00633293
0.00574229
0.00524113
0.00481569
0.00448444
0.283364
0.126774
0.071702
0.0473282
0.0338663
0.0256616
0.0204608
0.016797
0.0140485
0.0119409
0.0102838
0.00895545
0.00788418
0.00700988
0.00628634
0.00568151
0.00517287
0.00474259
0.00437901
0.00408867
0.31754
0.217754
0.151085
0.108549
0.0807155
0.0618725
0.0486772
0.0391415
0.0320583
0.0266711
0.0224894
0.0191863
0.0165375
0.0143847
0.0126143
0.0111447
0.00991355
0.00887301
0.0079889
0.00722889
0.322005
0.239026
0.177588
0.133616
0.102323
0.0798669
0.0635106
0.0513822
0.0422218
0.0351796
0.029676
0.0253098
0.0217987
0.0189404
0.0165879
0.0146324
0.0129924
0.0116053
0.0104197
0.00935998
0.323293
0.245617
0.187499
0.144537
0.112864
0.089404
0.0718634
0.0585866
0.0483998
0.0404746
0.0342251
0.0292339
0.0252
0.021904
0.0191837
0.0169177
0.015014
0.0134014
0.0120222
0.0108192
0.323714
0.247819
0.191099
0.14881
0.117249
0.0935707
0.0756573
0.0619605
0.0513626
0.0430611
0.0364791
0.0311993
0.0269174
0.0234091
0.0205072
0.0180856
0.0160477
0.0143185
0.0128351
0.0115288
0.323714
0.247819
0.191099
0.14881
0.117249
0.0935706
0.0756572
0.0619603
0.0513624
0.0430608
0.0364786
0.0311986
0.0269165
0.0234078
0.0205054
0.0180831
0.0160444
0.0143142
0.0128302
0.0115285
0.323293
0.245617
0.187499
0.144537
0.112864
0.0894038
0.0718632
0.0585863
0.0483994
0.040474
0.0342244
0.0292329
0.0251985
0.0219019
0.0191807
0.0169136
0.0150083
0.0133935
0.0120105
0.010796
0.322005
0.239026
0.177588
0.133616
0.102323
0.0798669
0.0635106
0.0513822
0.0422218
0.0351796
0.029676
0.0253098
0.0217986
0.0189404
0.0165879
0.0146324
0.0129923
0.0116052
0.0104196
0.00935964
0.31754
0.217754
0.151086
0.108549
0.0807157
0.0618727
0.0486775
0.039142
0.0320589
0.0266719
0.0224906
0.019188
0.0165399
0.0143883
0.0126196
0.0111522
0.00992441
0.00888914
0.00801381
0.00726311
0.283364
0.126774
0.071702
0.0473282
0.0338663
0.0256617
0.020461
0.0167972
0.0140489
0.0119416
0.0102847
0.00895678
0.00788616
0.00701294
0.0062911
0.00568859
0.00518364
0.00475929
0.00440501
0.00412432
0.264759
0.104702
0.0585298
0.0391631
0.02862
0.0219935
0.0175362
0.0143634
0.0120085
0.0102141
0.00881686
0.00770651
0.00680527
0.00606248
0.0054518
0.00495181
0.00453688
0.00419237
0.00392336
0.00373865
0.311746
0.197541
0.130357
0.0911457
0.0668023
0.0508112
0.0397946
0.0319123
0.0260946
0.0216878
0.0182772
0.0155895
0.0134423
0.0117
0.01027
0.00908381
0.00809093
0.0072536
0.00655608
0.00588164
0.31754
0.217754
0.151086
0.108549
0.0807157
0.0618727
0.0486775
0.039142
0.0320589
0.0266719
0.0224906
0.019188
0.01654
0.0143883
0.0126197
0.0111524
0.00992462
0.00888938
0.00801418
0.0072636
0.319723
0.227073
0.162232
0.118772
0.0893611
0.0689928
0.0545306
0.0439845
0.0360999
0.0300749
0.0253823
0.0216655
0.0186781
0.016246
0.0142434
0.0125773
0.011179
0.00999569
0.00898683
0.0081267
0.320484
0.23086
0.167176
0.123531
0.0935158
0.0724824
0.0574405
0.046421
0.0381534
0.0318167
0.0268701
0.0229456
0.0197865
0.0172108
0.0150869
0.0133171
0.0118284
0.010565
0.00948323
0.00854851
0.320484
0.23086
0.167176
0.123531
0.0935157
0.0724823
0.0574403
0.0464207
0.0381531
0.0318162
0.0268694
0.0229445
0.0197848
0.0172083
0.0150831
0.0133117
0.0118208
0.0105541
0.00946762
0.00852036
0.319723
0.227073
0.162232
0.118772
0.0893609
0.0689925
0.0545302
0.043984
0.0360991
0.0300738
0.0253808
0.0216633
0.0186748
0.0162411
0.014236
0.0125669
0.0111639
0.00997395
0.00895565
0.0080674
0.31754
0.217754
0.151085
0.108549
0.0807155
0.0618725
0.0486772
0.0391416
0.0320583
0.0266711
0.0224894
0.0191863
0.0165375
0.0143845
0.0126144
0.0111448
0.00991362
0.00887305
0.00798893
0.0072288
0.311746
0.197541
0.130357
0.0911457
0.0668023
0.0508112
0.0397945
0.0319123
0.0260946
0.0216877
0.0182772
0.0155894
0.0134422
0.0117
0.01027
0.00908373
0.0080908
0.00725344
0.00655585
0.00588133
0.264759
0.104702
0.0585298
0.0391631
0.02862
0.0219935
0.0175362
0.0143635
0.0120086
0.0102143
0.00881716
0.007707
0.00680607
0.00606426
0.0054544
0.0049557
0.00454339
0.00420406
0.00394481
0.00377042
0.213564
0.055916
0.0283994
0.0193412
0.0146928
0.0118511
0.00989076
0.00851617
0.00749151
0.00669663
0.00606105
0.00555174
0.00512435
0.00474789
0.00443009
0.00416474
0.00394331
0.0037639
0.0036592
0.003555
0.264759
0.104702
0.0585298
0.0391631
0.02862
0.0219935
0.0175362
0.0143635
0.0120086
0.0102143
0.00881717
0.00770702
0.0068061
0.00606426
0.00545445
0.00495579
0.00454351
0.00420421
0.00394501
0.00377068
0.283364
0.126774
0.071702
0.0473282
0.0338663
0.0256617
0.020461
0.0167972
0.0140489
0.0119416
0.0102847
0.0089568
0.00788616
0.0070129
0.0062912
0.00568872
0.00518377
0.00475944
0.00440519
0.00412461
0.292299
0.141633
0.0819302
0.0541654
0.0389231
0.0292874
0.0232723
0.0190787
0.0159342
0.013515
0.0116269
0.0101129
0.00888204
0.00787142
0.00703376
0.00633307
0.00574241
0.00524123
0.00481578
0.00448438
0.295943
0.148782
0.0871941
0.0576749
0.0415193
0.0310722
0.0246449
0.0202208
0.0169047
0.0143245
0.0123077
0.0107013
0.00939461
0.00832025
0.00742791
0.00667932
0.00604568
0.00550462
0.00504268
0.00468731
0.295943
0.148782
0.0871941
0.0576749
0.0415193
0.0310721
0.0246448
0.0202207
0.0169045
0.0143242
0.0123072
0.0107005
0.00939352
0.00831853
0.00742518
0.00667526
0.00603949
0.00549504
0.00502658
0.00464856
0.292299
0.141633
0.0819301
0.0541653
0.038923
0.0292873
0.0232721
0.0190783
0.0159337
0.0135144
0.0116259
0.0101114
0.00887986
0.00786798
0.00702846
0.00632522
0.00573052
0.00522291
0.00478892
0.00445755
0.283364
0.126774
0.071702
0.0473282
0.0338663
0.0256616
0.0204608
0.016797
0.0140485
0.0119409
0.0102838
0.00895544
0.00788414
0.0070098
0.00628642
0.0056816
0.00517296
0.00474266
0.0043791
0.00408875
0.264759
0.104702
0.0585298
0.0391631
0.02862
0.0219935
0.0175362
0.0143634
0.0120085
0.0102141
0.00881685
0.00770649
0.00680527
0.00606242
0.00545182
0.00495182
0.00453688
0.00419236
0.00392335
0.00373863
0.213564
0.055916
0.0283994
0.0193412
0.0146928
0.0118511
0.00989076
0.00851617
0.00749151
0.00669662
0.00606106
0.00555172
0.00512437
0.00474785
0.0044301
0.00416473
0.00394328
0.00376388
0.00365918
0.00355494
0.00492933
0.00419857
0.00358501
0.00322334
0.00300713
0.00286871
0.00276403
0.00267535
0.00259994
0.00253497
0.00248023
0.00243037
0.00238328
0.00233774
0.00229395
0.00225434
0.00221556
0.00217953
0.00214464
0.00211176
0.00207998
0.00204892
0.00201984
0.00199264
0.00196605
0.00194052
0.00191574
0.00189179
0.00186822
0.00184588
0.00182381
0.00180265
0.00178232
0.00176233
0.00174404
0.00172554
0.00170863
0.00169204
0.00167827
0.00165304
0.00421501
0.00370272
0.00330181
0.00301699
0.00281878
0.00267387
0.00255932
0.00245889
0.0023732
0.00229896
0.00223345
0.00217451
0.00212351
0.00207322
0.0020247
0.00198116
0.00193982
0.00190227
0.00186677
0.00183332
0.00180169
0.00177103
0.00174244
0.00171608
0.00169113
0.00166739
0.00164444
0.00162217
0.00160054
0.00157959
0.00155927
0.00153953
0.00152044
0.00150227
0.00148468
0.00146801
0.00145182
0.00143625
0.00142173
0.00140528
0.00415735
0.00374947
0.00342916
0.00317838
0.00297772
0.00282172
0.00268759
0.0025721
0.00247126
0.00238203
0.00230289
0.00223228
0.00217296
0.00211097
0.00205448
0.00200463
0.00195787
0.00191641
0.00187627
0.00183798
0.00180227
0.00176554
0.00173179
0.00170093
0.0016729
0.0016463
0.00162049
0.00159555
0.00157153
0.00154817
0.00152569
0.00150403
0.00148317
0.0014631
0.00144362
0.00142555
0.00140792
0.00139077
0.00137424
0.00135688
0.00402665
0.00374664
0.00350202
0.00328861
0.00310254
0.00293938
0.00279545
0.00266803
0.00255459
0.00245308
0.00236181
0.00227982
0.00220771
0.00213938
0.00207646
0.00201894
0.00196565
0.00191952
0.0018705
0.00182417
0.00178325
0.00174488
0.00170828
0.00167333
0.00164064
0.00160976
0.00158087
0.00155309
0.00152715
0.00150181
0.00147739
0.00145353
0.0014312
0.00140972
0.00139
0.00137022
0.00135194
0.00133409
0.00131718
0.0012999
0.00417746
0.00384225
0.00356977
0.0033424
0.00314828
0.00298095
0.00283473
0.00270503
0.00258847
0.00248319
0.00238776
0.00230127
0.00222353
0.00215023
0.00208299
0.00202133
0.00196511
0.0019126
0.00186378
0.00181831
0.00177668
0.00173705
0.00169599
0.00165835
0.00162352
0.00159083
0.00156017
0.00153106
0.00150412
0.00147792
0.00145288
0.00142852
0.00140583
0.00138372
0.0013633
0.00134235
0.00132342
0.00130531
0.00128845
0.00127244
0.00437892
0.00392418
0.00360647
0.00335763
0.00315124
0.00297616
0.00282529
0.00269367
0.00257598
0.00246937
0.00237254
0.00228453
0.00220472
0.00213068
0.00206277
0.00200028
0.0019426
0.00188921
0.00184005
0.00179474
0.00175251
0.00171316
0.00167588
0.00164258
0.0016064
0.00157109
0.00153887
0.00150927
0.00148262
0.00145669
0.00143265
0.00140977
0.00138761
0.00136283
0.00134442
0.0013213
0.00130394
0.00128655
0.00126987
0.00125415
0.00429117
0.00382923
0.00352658
0.00328754
0.00308776
0.00291732
0.00277004
0.00264075
0.00252466
0.00241976
0.00232488
0.00223902
0.0021613
0.00208944
0.00202355
0.00196291
0.00190696
0.00185535
0.00180768
0.00176386
0.00172349
0.00168597
0.0016496
0.00161712
0.00158237
0.00154857
0.00151784
0.00148974
0.00146397
0.00143846
0.00141451
0.00139184
0.0013696
0.00134655
0.00132761
0.00130821
0.00129046
0.00127336
0.00125672
0.00124083
0.00395259
0.00363234
0.00336909
0.00314946
0.00296258
0.00280321
0.00266476
0.00254206
0.00243272
0.00233473
0.00224646
0.00216715
0.00209559
0.00202944
0.00196891
0.00191311
0.0018617
0.00181493
0.00177158
0.00173113
0.00169359
0.00165851
0.00162201
0.00158994
0.00155887
0.00152993
0.00150205
0.00147606
0.00145065
0.0014249
0.00140089
0.00137905
0.00135927
0.00133991
0.00132109
0.00130276
0.00128449
0.00126727
0.00125092
0.00123523
0.00381605
0.00348447
0.00321023
0.00298308
0.00279722
0.00264638
0.00252188
0.00241384
0.00231936
0.00223547
0.00216053
0.002095
0.00203458
0.00197848
0.00192829
0.00187728
0.00182977
0.00178614
0.00174738
0.00170983
0.00167526
0.00164225
0.00161039
0.00158132
0.00155233
0.00152538
0.00149968
0.0014756
0.00145256
0.00143086
0.00141031
0.00139075
0.00137184
0.00135377
0.00133638
0.00131962
0.00130237
0.00128642
0.00127192
0.00125719
0.00406973
0.00359264
0.00317591
0.00288074
0.00267966
0.00254048
0.00243518
0.00234449
0.00226829
0.00220134
0.00214101
0.00209212
0.00203835
0.00198711
0.00193992
0.00189604
0.00185456
0.00181578
0.00177938
0.00174528
0.00171306
0.00168289
0.00165494
0.00162955
0.00160475
0.00158117
0.00155836
0.00153657
0.00151559
0.00149564
0.00147635
0.00145774
0.00143985
0.00142273
0.00140598
0.00139104
0.00137629
0.00136224
0.00134946
0.00133499
0.00492917
0.00419823
0.00358468
0.00322113
0.0030008
0.00285961
0.00275565
0.00266839
0.00259485
0.00253271
0.00247773
0.00243035
0.0023823
0.00233654
0.00229324
0.00225326
0.00221488
0.00217868
0.00214404
0.00211142
0.00207957
0.00204903
0.00201987
0.00199316
0.00196656
0.00194132
0.00191649
0.00189251
0.00186881
0.00184621
0.00182402
0.00180278
0.00178223
0.00176213
0.00174293
0.00172508
0.00170879
0.00169182
0.00167774
0.00165166
0.0040694
0.00359343
0.00317671
0.00288163
0.00268488
0.00255084
0.00244553
0.0023525
0.00227416
0.00220379
0.00214406
0.00209246
0.0020379
0.00198814
0.00194085
0.00189767
0.00185547
0.00181715
0.00178038
0.00174618
0.0017139
0.00168334
0.00165517
0.00162935
0.00160441
0.00158063
0.00155779
0.00153606
0.00151519
0.00149551
0.00147636
0.00145788
0.00144006
0.00142321
0.00140766
0.001392
0.00137671
0.00136252
0.00135005
0.00133604
0.00421912
0.00379423
0.00344614
0.00319929
0.00301705
0.00284314
0.00267536
0.00250409
0.00235947
0.00222927
0.0021104
0.00200254
0.00189915
0.00180582
0.00171085
0.00163347
0.00155524
0.00149037
0.00142678
0.00137095
0.00131376
0.0012596
0.00121451
0.00117757
0.00114012
0.00110404
0.00106914
0.00103743
0.00100613
0.00098033
0.000954064
0.000928177
0.000903293
0.000879205
0.000863298
0.000843658
0.000823672
0.000805338
0.000789434
0.000777977
0.00546147
0.00502008
0.00460465
0.00425402
0.00394535
0.00367627
0.00343666
0.00322207
0.00302717
0.00284942
0.00268584
0.00253872
0.00240361
0.00228539
0.00216893
0.0020696
0.00197158
0.00188739
0.00180564
0.00173048
0.00166146
0.00159192
0.00153209
0.00147207
0.00141929
0.00136754
0.0013189
0.00127547
0.00123297
0.00119394
0.00115625
0.00112116
0.00108553
0.00105271
0.0010236
0.000994122
0.00096388
0.000936139
0.00090818
0.000873249
0.00679363
0.00608352
0.0055156
0.00504491
0.00464446
0.00429776
0.00399183
0.00372012
0.00347761
0.00325983
0.00306352
0.00288562
0.00272628
0.00258032
0.00244685
0.00232509
0.00221318
0.00211057
0.00201707
0.00192781
0.00184988
0.00177256
0.00170468
0.00163682
0.00157813
0.00152028
0.00146947
0.00141836
0.00137294
0.00132692
0.00128432
0.00124462
0.00120449
0.00116862
0.00113464
0.00109909
0.00106336
0.0010312
0.000998751
0.000959309
0.007289
0.00662199
0.00603167
0.0055163
0.0050666
0.00467504
0.0043329
0.00403083
0.00376029
0.00351708
0.00329828
0.00310108
0.00292255
0.00276107
0.00261411
0.00248008
0.00235758
0.00224529
0.00214227
0.00204686
0.00196049
0.00187418
0.0017928
0.00172419
0.0016618
0.00160394
0.0015484
0.00149424
0.00144434
0.00139524
0.00134908
0.00130748
0.00126564
0.00122672
0.00118924
0.00114975
0.00111098
0.00107501
0.00103911
0.000995791
0.00752734
0.0068301
0.00622219
0.00569236
0.00522923
0.00482246
0.00446575
0.00415399
0.0038761
0.00362511
0.00339846
0.00319392
0.00300859
0.00284114
0.00268895
0.00255022
0.00242338
0.00230711
0.00220031
0.00210183
0.00201113
0.00192656
0.00184891
0.00177079
0.00169475
0.00162709
0.00157179
0.00152074
0.00147241
0.00142501
0.00137956
0.00133915
0.00129487
0.0012505
0.00120948
0.00116623
0.0011258
0.00108662
0.00104954
0.0010041
0.00731777
0.00665554
0.00606745
0.0055531
0.00510425
0.00471229
0.00437102
0.00407236
0.00380441
0.00356244
0.00334396
0.00314634
0.00296865
0.00280625
0.00265823
0.00252291
0.00239894
0.00228499
0.00218009
0.00208319
0.00199351
0.00191028
0.00183227
0.00176021
0.00168789
0.0016252
0.00156388
0.00150797
0.00145497
0.00140435
0.0013558
0.00130938
0.00126344
0.00122049
0.00117997
0.00113691
0.00109659
0.0010575
0.00101955
0.000973058
0.00681508
0.00613518
0.00556722
0.00509045
0.00468471
0.00433974
0.00403889
0.00376967
0.00352734
0.00330878
0.00311058
0.00293163
0.00277121
0.00262181
0.00248496
0.0023591
0.00224368
0.0021369
0.00203887
0.00194773
0.00186314
0.00178458
0.00170841
0.00164176
0.00157407
0.00151438
0.0014541
0.00140049
0.00134755
0.00129884
0.001251
0.00120526
0.00115895
0.00111823
0.00107911
0.00104107
0.000999485
0.00096098
0.000926184
0.000885776
0.00557365
0.00507825
0.00462355
0.00426181
0.00395489
0.00368508
0.00344385
0.00322499
0.0030265
0.00284499
0.00267539
0.00252822
0.00238725
0.00225744
0.00213771
0.00202546
0.001926
0.00182918
0.0017463
0.00166413
0.0015918
0.00151997
0.00145438
0.00139769
0.00134014
0.00128989
0.00123825
0.00119383
0.00114832
0.00110954
0.00107105
0.00103456
0.000997218
0.000965089
0.000934519
0.000903779
0.000869879
0.000843491
0.000821655
0.000801518
0.00421841
0.00379078
0.00344526
0.0031947
0.00298437
0.00280497
0.00264224
0.00248455
0.00234808
0.00222841
0.00210356
0.00200894
0.00190279
0.00180553
0.00171113
0.00163024
0.00155445
0.0014878
0.00142479
0.00136916
0.00131062
0.00125854
0.00121319
0.00117859
0.00114103
0.00110603
0.00107077
0.00103882
0.00100719
0.000980673
0.000954252
0.000928293
0.000903067
0.000880003
0.000858789
0.000837615
0.00082575
0.000808298
0.000791628
0.000778929
0.00421468
0.00370103
0.00330237
0.00301252
0.0028074
0.00266195
0.00254849
0.00245078