/*--------------------------------*- C++ -*----------------------------------*\
| =========                 |                                                 |
| \\      /  F ield         | OpenFOAM: The Open Source CFD Toolbox           |
|  \\    /   O peration     | Version:  2212                                  |
|   \\  /    A nd           | Website:  www.openfoam.com                      |
|    \\/     M anipulation  |                                                 |
\*---------------------------------------------------------------------------*/
FoamFile
{
    version     2.0;
    format      ascii;
    arch        "LSB;label=32;scalar=64";
    class       volScalarField;
    location    "2.25";
    object      nut;
}
// * * * * * * * * * * * * * * * * * * * * * * * * * * * * * * * * * * * * * //

dimensions      [0 2 -1 0 0 0 0];

internalField   nonuniform List<scalar> 
6840
(
4.5356e-05
2.3208e-05
1.65396e-05
1.36494e-05
1.18966e-05
1.06844e-05
9.76082e-06
9.0572e-06
8.49488e-06
8.0316e-06
7.64099e-06
7.31296e-06
7.02593e-06
6.76312e-06
6.53316e-06
6.33482e-06
6.16451e-06
6.02342e-06
5.93962e-06
5.86533e-06
0.000107685
6.77183e-05
5.06311e-05
4.14159e-05
3.54049e-05
3.10368e-05
2.77138e-05
2.50818e-05
2.29338e-05
2.11511e-05
1.96513e-05
1.83725e-05
1.72651e-05
1.62962e-05
1.54544e-05
1.47298e-05
1.41012e-05
1.35593e-05
1.3124e-05
1.28329e-05
0.000160509
0.00010736
8.07409e-05
6.55976e-05
5.54896e-05
4.83026e-05
4.3131e-05
3.90791e-05
3.57392e-05
3.29496e-05
3.0578e-05
2.85352e-05
2.67745e-05
2.52469e-05
2.39094e-05
2.27316e-05
2.16927e-05
2.0775e-05
1.99693e-05
1.93077e-05
0.000198681
0.0001383
0.000105187
8.55269e-05
7.25012e-05
6.28901e-05
5.60609e-05
5.0759e-05
4.63876e-05
4.2721e-05
3.96239e-05
3.69533e-05
3.46301e-05
3.25979e-05
3.081e-05
2.92291e-05
2.78229e-05
2.6565e-05
2.54408e-05
2.45374e-05
0.000218609
0.000155003
0.000118661
9.65068e-05
8.18822e-05
7.08353e-05
6.30852e-05
5.71429e-05
5.22475e-05
4.80949e-05
4.45803e-05
4.15686e-05
3.89471e-05
3.66506e-05
3.46262e-05
3.28304e-05
3.12268e-05
2.97842e-05
2.84836e-05
2.73968e-05
0.000218609
0.000155003
0.000118661
9.65068e-05
8.18822e-05
7.08354e-05
6.30853e-05
5.7143e-05
5.22477e-05
4.80952e-05
4.45808e-05
4.15694e-05
3.89485e-05
3.66531e-05
3.46305e-05
3.28371e-05
3.12373e-05
2.9801e-05
2.85121e-05
2.7453e-05
0.000198681
0.0001383
0.000105187
8.55269e-05
7.25012e-05
6.28901e-05
5.6061e-05
5.07592e-05
4.63879e-05
4.27216e-05
3.96249e-05
3.69549e-05
3.46327e-05
3.26025e-05
3.08175e-05
2.92406e-05
2.78413e-05
2.65949e-05
2.54872e-05
2.46012e-05
0.000160509
0.00010736
8.07409e-05
6.55976e-05
5.54896e-05
4.83026e-05
4.31311e-05
3.90793e-05
3.57395e-05
3.29501e-05
3.05788e-05
2.85364e-05
2.67765e-05
2.52503e-05
2.3915e-05
2.27403e-05
2.17064e-05
2.07971e-05
2.00034e-05
1.93503e-05
0.000107685
6.77183e-05
5.06311e-05
4.14159e-05
3.54049e-05
3.10368e-05
2.77139e-05
2.50819e-05
2.29338e-05
2.11512e-05
1.96515e-05
1.83728e-05
1.72657e-05
1.62977e-05
1.54566e-05
1.47331e-05
1.41067e-05
1.35687e-05
1.31427e-05
1.2849e-05
4.5356e-05
2.3208e-05
1.65396e-05
1.36494e-05
1.18966e-05
1.06844e-05
9.76082e-06
9.05719e-06
8.49488e-06
8.03159e-06
7.64098e-06
7.31295e-06
7.02596e-06
6.76309e-06
6.53314e-06
6.3348e-06
6.16447e-06
6.02335e-06
5.93954e-06
5.86522e-06
0.000107685
6.77183e-05
5.06311e-05
4.14159e-05
3.54049e-05
3.10368e-05
2.77139e-05
2.50819e-05
2.29338e-05
2.11512e-05
1.96515e-05
1.83728e-05
1.72657e-05
1.62976e-05
1.54567e-05
1.47333e-05
1.41069e-05
1.3569e-05
1.3143e-05
1.28493e-05
0.000528907
0.000369984
0.000305097
0.000261371
0.000228528
0.000202476
0.000181114
0.000163075
0.000147541
0.000133986
0.000122052
0.000111471
0.000102141
9.38707e-05
8.64894e-05
7.97038e-05
7.35299e-05
6.79995e-05
6.38099e-05
5.53395e-05
0.000663952
0.000488458
0.000404619
0.000347248
0.000305036
0.000272128
0.000245318
0.000222889
0.000203756
0.000187179
0.000172654
0.000159813
0.00014837
0.00013811
0.000128862
0.000120626
0.000113196
0.000106383
0.000100471
9.45067e-05
0.00071288
0.000556432
0.000466397
0.000402355
0.000354425
0.000317049
0.000286673
0.000261251
0.000239576
0.000220837
0.00020443
0.000189928
0.00017701
0.000165411
0.000154915
0.000145401
0.000136698
0.000128673
0.000121219
0.000114037
0.000728543
0.000588231
0.000496001
0.000429131
0.000378509
0.000338933
0.000306815
0.000279967
0.000257063
0.00023724
0.000219885
0.000204537
0.000190851
0.000178555
0.000167423
0.000157302
0.000148015
0.000139414
0.000131338
0.00012336
0.000728543
0.000588231
0.000496001
0.000429131
0.000378509
0.000338933
0.000306816
0.000279969
0.000257065
0.000237244
0.000219891
0.000204548
0.000190871
0.000178595
0.000167494
0.000157399
0.00014816
0.000139641
0.000131703
0.000124093
0.00071288
0.000556432
0.000466397
0.000402355
0.000354426
0.00031705
0.000286675
0.000261256
0.000239581
0.000220845
0.000204442
0.000189949
0.000177049
0.000165487
0.00015504
0.000145578
0.000136974
0.000129113
0.000121921
0.000115718
0.000663952
0.000488459
0.000404619
0.000347248
0.000305036
0.000272128
0.00024532
0.000222892
0.00020376
0.000187185
0.000172663
0.000159827
0.000148395
0.000138164
0.000128942
0.000120743
0.000113385
0.000106702
0.000101054
9.45818e-05
0.000528907
0.000369984
0.000305097
0.000261371
0.000228528
0.000202476
0.000181114
0.000163075
0.00014754
0.000133986
0.000122052
0.00011147
0.00010214
9.38766e-05
8.64833e-05
7.96992e-05
7.3525e-05
6.79941e-05
6.38031e-05
5.53286e-05
0.000107685
6.77183e-05
5.06311e-05
4.14159e-05
3.54049e-05
3.10368e-05
2.77138e-05
2.50818e-05
2.29338e-05
2.11511e-05
1.96513e-05
1.83725e-05
1.72651e-05
1.62961e-05
1.54544e-05
1.47298e-05
1.41011e-05
1.35591e-05
1.31238e-05
1.28326e-05
0.000160509
0.00010736
8.07409e-05
6.55976e-05
5.54896e-05
4.83026e-05
4.31311e-05
3.90793e-05
3.57395e-05
3.29501e-05
3.05788e-05
2.85364e-05
2.67764e-05
2.52501e-05
2.39151e-05
2.27404e-05
2.17066e-05
2.07973e-05
2.00038e-05
1.93509e-05
0.000663952
0.000488459
0.000404619
0.000347248
0.000305036
0.000272128
0.00024532
0.000222892
0.00020376
0.000187185
0.000172663
0.000159827
0.000148394
0.000138153
0.000128953
0.000120749
0.00011339
0.000106705
0.000101066
9.46103e-05
0.000786828
0.000662293
0.000567975
0.000495806
0.000439464
0.000394563
0.000357975
0.000327453
0.000301493
0.000279055
0.000259404
0.000242013
0.000226488
0.000212533
0.000199923
0.000188483
0.000178066
0.000168525
0.000159701
0.000149852
0.000809324
0.000713906
0.000631505
0.000562574
0.000505377
0.000457785
0.000417841
0.000383939
0.000354803
0.000329449
0.000307154
0.000287376
0.000269695
0.000253783
0.000239379
0.00022629
0.000214325
0.00020331
0.000192988
0.000182461
0.000814958
0.000730426
0.000654634
0.000589043
0.000533067
0.000485438
0.000444762
0.000409791
0.000379467
0.000352927
0.000329485
0.000308619
0.000289923
0.000273073
0.000257803
0.000243905
0.000231182
0.000219441
0.000208398
0.00019736
0.000814958
0.000730426
0.000654634
0.000589043
0.000533067
0.000485438
0.000444763
0.000409793
0.000379469
0.00035293
0.00032949
0.000308627
0.000289937
0.000273099
0.000257845
0.000243959
0.000231255
0.000219541
0.000208514
0.00019725
0.000809324
0.000713906
0.000631505
0.000562574
0.000505377
0.000457786
0.000417842
0.000383942
0.000354807
0.000329454
0.000307162
0.000287389
0.000269718
0.000253825
0.000239443
0.000226374
0.000214446
0.00020349
0.000193275
0.000183009
0.000786828
0.000662293
0.000567975
0.000495806
0.000439464
0.000394563
0.000357975
0.000327453
0.000301493
0.000279054
0.000259404
0.000242012
0.000226486
0.000212534
0.00019992
0.00018848
0.000178061
0.000168516
0.00015969
0.000149831
0.000663952
0.000488458
0.000404619
0.000347248
0.000305036
0.000272128
0.000245318
0.000222889
0.000203755
0.000187179
0.000172653
0.000159812
0.000148367
0.000138105
0.000128865
0.000120627
0.000113195
0.000106379
0.000100466
9.44952e-05
0.000160509
0.00010736
8.07409e-05
6.55976e-05
5.54896e-05
4.83026e-05
4.3131e-05
3.90791e-05
3.57392e-05
3.29496e-05
3.0578e-05
2.85352e-05
2.67744e-05
2.52467e-05
2.39095e-05
2.27317e-05
2.16928e-05
2.07751e-05
1.99693e-05
1.93076e-05
0.000198681
0.0001383
0.000105187
8.55269e-05
7.25012e-05
6.28901e-05
5.60611e-05
5.07592e-05
4.63879e-05
4.27216e-05
3.96249e-05
3.69549e-05
3.46326e-05
3.26022e-05
3.08177e-05
2.92408e-05
2.78414e-05
2.6595e-05
2.54873e-05
2.46014e-05
0.00071288
0.000556432
0.000466397
0.000402355
0.000354426
0.00031705
0.000286675
0.000261256
0.000239581
0.000220845
0.000204442
0.000189949
0.000177045
0.000165477
0.00015505
0.000145584
0.000136977
0.000129114
0.00012192
0.000115718
0.000809324
0.000713906
0.000631505
0.000562574
0.000505377
0.000457786
0.000417842
0.000383942
0.000354807
0.000329454
0.000307162
0.000287389
0.000269716
0.000253821
0.000239449
0.000226379
0.00021445
0.000203494
0.000193279
0.000183013
0.000823497
0.000753987
0.000688491
0.000628748
0.000575387
0.000528266
0.000486846
0.000450442
0.000418363
0.000389975
0.000364729
0.000342165
0.000321898
0.00030361
0.000287036
0.00027195
0.000258154
0.000245432
0.000233446
0.000221342
0.000826292
0.000764347
0.000706102
0.000651936
0.00060223
0.000557103
0.000516428
0.000479912
0.00044718
0.000417832
0.000391475
0.000367749
0.000346332
0.000326939
0.000309322
0.000293261
0.00027855
0.000264951
0.000252058
0.00023889
0.000826292
0.000764347
0.000706102
0.000651936
0.00060223
0.000557103
0.000516428
0.000479912
0.000447181
0.000417833
0.000391477
0.000367752
0.000346335
0.000326946
0.000309333
0.000293275
0.000278567
0.000264964
0.000252015
0.000238451
0.000823497
0.000753987
0.000688491
0.000628748
0.000575387
0.000528266
0.000486846
0.000450442
0.000418363
0.000389975
0.000364729
0.000342164
0.000321897
0.00030361
0.000287035
0.000271949
0.000258151
0.000245428
0.000233441
0.000221338
0.000809324
0.000713906
0.000631505
0.000562574
0.000505377
0.000457785
0.00041784
0.000383939
0.000354803
0.000329448
0.000307154
0.000287375
0.000269691
0.000253778
0.000239383
0.00022629
0.000214322
0.000203303
0.000192979
0.000182454
0.00071288
0.000556432
0.000466397
0.000402355
0.000354425
0.000317049
0.000286673
0.000261251
0.000239576
0.000220837
0.00020443
0.000189928
0.000177007
0.000165401
0.000154925
0.000145406
0.0001367
0.000128674
0.000121219
0.00011404
0.000198681
0.0001383
0.000105187
8.55269e-05
7.25012e-05
6.28901e-05
5.60609e-05
5.0759e-05
4.63875e-05
4.2721e-05
3.96239e-05
3.69533e-05
3.463e-05
3.25976e-05
3.08102e-05
2.92292e-05
2.7823e-05
2.65652e-05
2.5441e-05
2.45378e-05
0.000218609
0.000155003
0.000118661
9.65068e-05
8.18822e-05
7.08354e-05
6.30853e-05
5.7143e-05
5.22477e-05
4.80952e-05
4.45808e-05
4.15694e-05
3.89484e-05
3.6653e-05
3.46304e-05
3.2837e-05
3.12372e-05
2.98009e-05
2.8512e-05
2.7453e-05
0.000728543
0.000588231
0.000496002
0.000429131
0.000378509
0.000338933
0.000306816
0.000279969
0.000257066
0.000237244
0.000219891
0.000204547
0.000190869
0.000178589
0.000167494
0.000157397
0.000148156
0.000139634
0.000131693
0.000124079
0.000814958
0.000730426
0.000654634
0.000589043
0.000533067
0.000485438
0.000444763
0.000409793
0.000379469
0.00035293
0.000329489
0.000308626
0.000289935
0.000273096
0.000257845
0.000243958
0.000231252
0.000219537
0.000208507
0.00019724
0.000826292
0.000764347
0.000706102
0.000651936
0.00060223
0.000557103
0.000516428
0.000479912
0.000447181
0.000417833
0.000391477
0.000367752
0.000346336
0.000326946
0.000309334
0.000293275
0.000278567
0.000264963
0.000252013
0.000238443
0.000828382
0.0007726
0.000721138
0.00067296
0.000627782
0.00058562
0.000546547
0.000510579
0.000477649
0.000447616
0.000420288
0.000395448
0.000372868
0.000352323
0.000333602
0.000316497
0.000300807
0.000286278
0.000272489
0.000258631
0.000828382
0.0007726
0.000721138
0.00067296
0.000627782
0.00058562
0.000546547
0.000510579
0.000477649
0.000447615
0.000420288
0.000395448
0.000372868
0.000352323
0.000333601
0.000316497
0.000300806
0.000286278
0.000272489
0.000258636
0.000826292
0.000764347
0.000706102
0.000651936
0.00060223
0.000557103
0.000516428
0.000479912
0.00044718
0.000417832
0.000391475
0.000367749
0.000346331
0.000326939
0.000309322
0.000293261
0.000278548
0.000264947
0.000252054
0.000238892
0.000814958
0.000730426
0.000654634
0.000589043
0.000533067
0.000485437
0.000444762
0.000409791
0.000379467
0.000352927
0.000329484
0.000308618
0.000289921
0.00027307
0.000257805
0.000243905
0.00023118
0.000219437
0.000208394
0.000197357
0.000728543
0.000588231
0.000496001
0.000429131
0.000378509
0.000338933
0.000306815
0.000279967
0.000257063
0.00023724
0.000219885
0.000204537
0.000190851
0.000178547
0.00016743
0.000157306
0.000148017
0.000139416
0.000131341
0.000123364
0.000218609
0.000155003
0.000118661
9.65068e-05
8.18822e-05
7.08353e-05
6.30852e-05
5.71429e-05
5.22475e-05
4.80949e-05
4.45803e-05
4.15686e-05
3.89471e-05
3.66506e-05
3.46261e-05
3.28304e-05
3.12269e-05
2.97843e-05
2.84838e-05
2.73973e-05
0.000218609
0.000155003
0.000118661
9.65068e-05
8.18822e-05
7.08353e-05
6.30852e-05
5.71429e-05
5.22475e-05
4.80949e-05
4.45803e-05
4.15686e-05
3.89471e-05
3.66506e-05
3.46262e-05
3.28304e-05
3.12268e-05
2.9784e-05
2.84834e-05
2.73977e-05
0.000728543
0.000588231
0.000496001
0.000429131
0.000378509
0.000338933
0.000306815
0.000279967
0.000257063
0.00023724
0.000219884
0.000204537
0.00019085
0.000178554
0.000167423
0.0001573
0.00014801
0.000139406
0.000131326
0.000123342
0.000814958
0.000730426
0.000654634
0.000589043
0.000533067
0.000485438
0.000444762
0.000409791
0.000379467
0.000352927
0.000329484
0.000308618
0.000289923
0.000273072
0.000257802
0.000243903
0.000231178
0.000219434
0.000208388
0.000197346
0.000826292
0.000764347
0.000706102
0.000651936
0.00060223
0.000557103
0.000516428
0.000479912
0.00044718
0.000417832
0.000391475
0.000367749
0.000346332
0.000326939
0.000309321
0.000293261
0.000278549
0.000264948
0.000252054
0.000238885
0.000828382
0.0007726
0.000721138
0.00067296
0.000627782
0.00058562
0.000546547
0.000510579
0.000477649
0.000447616
0.000420288
0.000395448
0.000372868
0.000352323
0.000333602
0.000316497
0.000300807
0.000286278
0.000272489
0.000258634
0.000828382
0.0007726
0.000721138
0.00067296
0.000627782
0.00058562
0.000546547
0.000510579
0.000477649
0.000447616
0.000420288
0.000395448
0.000372868
0.000352323
0.000333602
0.000316497
0.000300807
0.000286278
0.000272489
0.000258638
0.000826292
0.000764347
0.000706102
0.000651936
0.00060223
0.000557103
0.000516428
0.000479912
0.000447181
0.000417833
0.000391477
0.000367752
0.000346336
0.000326947
0.000309332
0.000293275
0.000278567
0.000264964
0.000252015
0.000238453
0.000814958
0.000730426
0.000654634
0.000589043
0.000533067
0.000485438
0.000444763
0.000409793
0.000379469
0.00035293
0.00032949
0.000308627
0.000289938
0.000273099
0.000257842
0.000243957
0.000231254
0.000219542
0.000208517
0.000197256
0.000728543
0.000588231
0.000496001
0.000429131
0.000378509
0.000338933
0.000306816
0.000279969
0.000257066
0.000237244
0.000219891
0.000204548
0.000190873
0.000178592
0.00016749
0.000157396
0.000148159
0.000139642
0.000131705
0.000124092
0.000218609
0.000155003
0.000118661
9.65068e-05
8.18822e-05
7.08354e-05
6.30853e-05
5.7143e-05
5.22477e-05
4.80952e-05
4.45808e-05
4.15694e-05
3.89486e-05
3.66532e-05
3.46301e-05
3.28368e-05
3.12371e-05
2.98009e-05
2.85121e-05
2.74533e-05
0.000198681
0.0001383
0.000105187
8.55269e-05
7.25012e-05
6.28901e-05
5.60609e-05
5.0759e-05
4.63876e-05
4.2721e-05
3.96239e-05
3.69534e-05
3.46301e-05
3.25979e-05
3.081e-05
2.92291e-05
2.78229e-05
2.6565e-05
2.54407e-05
2.45374e-05
0.00071288
0.000556432
0.000466397
0.000402355
0.000354425
0.00031705
0.000286673
0.000261252
0.000239576
0.000220837
0.00020443
0.000189928
0.00017701
0.000165411
0.000154915
0.0001454
0.000136696
0.00012867
0.000121214
0.000114032
0.000809324
0.000713906
0.000631505
0.000562574
0.000505377
0.000457785
0.000417841
0.000383939
0.000354803
0.000329449
0.000307155
0.000287376
0.000269696
0.000253783
0.000239378
0.000226289
0.000214324
0.000203308
0.000192985
0.000182465
0.000823497
0.000753987
0.000688491
0.000628748
0.000575387
0.000528266
0.000486846
0.000450442
0.000418363
0.000389975
0.000364729
0.000342165
0.000321898
0.00030361
0.000287036
0.000271951
0.000258155
0.000245434
0.000233449
0.000221349
0.000826292
0.000764347
0.000706102
0.000651936
0.00060223
0.000557103
0.000516428
0.000479912
0.000447181
0.000417833
0.000391477
0.000367752
0.000346336
0.000326946
0.000309334
0.000293277
0.000278569
0.000264966
0.000252017
0.000238454
0.000826292
0.000764347
0.000706102
0.000651936
0.00060223
0.000557103
0.000516428
0.000479912
0.00044718
0.000417832
0.000391475
0.000367749
0.000346332
0.000326938
0.000309322
0.000293262
0.00027855
0.000264949
0.000252055
0.000238893
0.000823497
0.000753987
0.000688491
0.000628748
0.000575387
0.000528266
0.000486846
0.000450442
0.000418363
0.000389975
0.000364729
0.000342165
0.000321897
0.00030361
0.000287035
0.00027195
0.000258154
0.000245432
0.000233445
0.000221342
0.000809324
0.000713906
0.000631505
0.000562574
0.000505377
0.000457786
0.000417842
0.000383941
0.000354807
0.000329454
0.000307162
0.000287389
0.000269719
0.000253825
0.000239443
0.000226377
0.000214451
0.000203497
0.000193286
0.000183023
0.00071288
0.000556432
0.000466397
0.000402355
0.000354426
0.00031705
0.000286675
0.000261255
0.000239581
0.000220845
0.000204442
0.000189949
0.000177049
0.000165487
0.000155039
0.000145578
0.000136974
0.000129114
0.000121924
0.000115719
0.000198681
0.0001383
0.000105187
8.55269e-05
7.25012e-05
6.28901e-05
5.60611e-05
5.07592e-05
4.63879e-05
4.27216e-05
3.96249e-05
3.69549e-05
3.46327e-05
3.26024e-05
3.08174e-05
2.92406e-05
2.78412e-05
2.65948e-05
2.54873e-05
2.46026e-05
0.000160509
0.00010736
8.07409e-05
6.55976e-05
5.54896e-05
4.83026e-05
4.3131e-05
3.90791e-05
3.57393e-05
3.29496e-05
3.05781e-05
2.85352e-05
2.67745e-05
2.52469e-05
2.39094e-05
2.27316e-05
2.16928e-05
2.07751e-05
1.99695e-05
1.93079e-05
0.000663952
0.000488458
0.000404619
0.000347248
0.000305036
0.000272128
0.000245319
0.000222889
0.000203756
0.00018718
0.000172654
0.000159814
0.000148371
0.000138112
0.000128862
0.000120627
0.0001132
0.000106391
0.000100473
9.45244e-05
0.000786828
0.000662293
0.000567975
0.000495806
0.000439464
0.000394563
0.000357976
0.000327454
0.000301493
0.000279055
0.000259405
0.000242014
0.000226489
0.000212536
0.000199923
0.000188486
0.000178072
0.000168534
0.000159716
0.000149887
0.000809324
0.000713906
0.000631505
0.000562574
0.000505377
0.000457786
0.000417842
0.000383942
0.000354807
0.000329454
0.000307163
0.00028739
0.000269717
0.000253823
0.00023945
0.000226382
0.000214456
0.000203503
0.000193294
0.000183036
0.000814958
0.000730426
0.000654634
0.000589043
0.000533067
0.000485438
0.000444763
0.000409793
0.000379469
0.00035293
0.00032949
0.000308627
0.000289936
0.000273097
0.000257847
0.000243961
0.000231257
0.000219544
0.000208518
0.000197254
0.000814958
0.000730426
0.000654634
0.000589043
0.000533067
0.000485437
0.000444762
0.000409791
0.000379467
0.000352927
0.000329484
0.000308618
0.000289922
0.00027307
0.000257803
0.000243905
0.00023118
0.000219436
0.000208391
0.000197349
0.000809324
0.000713906
0.000631505
0.000562574
0.000505377
0.000457785
0.000417841
0.000383939
0.000354803
0.000329449
0.000307154
0.000287376
0.000269692
0.000253778
0.000239383
0.000226292
0.000214325
0.000203306
0.00019298
0.000182452
0.000786828
0.000662293
0.000567975
0.000495806
0.000439464
0.000394563
0.000357976
0.000327453
0.000301493
0.000279055
0.000259405
0.000242013
0.000226487
0.000212534
0.000199922
0.000188484
0.000178068
0.000168527
0.000159703
0.00014986
0.000663952
0.000488459
0.000404619
0.000347248
0.000305036
0.000272129
0.00024532
0.000222891
0.000203759
0.000187185
0.000172663
0.000159828
0.000148396
0.000138164
0.000128943
0.000120744
0.000113387
0.000106705
0.000101059
9.4616e-05
0.000160509
0.00010736
8.07409e-05
6.55976e-05
5.54896e-05
4.83026e-05
4.31311e-05
3.90793e-05
3.57395e-05
3.29501e-05
3.05788e-05
2.85364e-05
2.67765e-05
2.52503e-05
2.3915e-05
2.27403e-05
2.17064e-05
2.07971e-05
2.00035e-05
1.93496e-05
0.000107685
6.77183e-05
5.06311e-05
4.14159e-05
3.54049e-05
3.10368e-05
2.77138e-05
2.50818e-05
2.29338e-05
2.11511e-05
1.96513e-05
1.83725e-05
1.72651e-05
1.62962e-05
1.54544e-05
1.47299e-05
1.41013e-05
1.35594e-05
1.31242e-05
1.28333e-05
0.000528907
0.000369984
0.000305097
0.000261371
0.000228528
0.000202476
0.000181115
0.000163075
0.000147541
0.000133986
0.000122052
0.000111471
0.000102142
9.38721e-05
8.64905e-05
7.97059e-05
7.35334e-05
6.80047e-05
6.38188e-05
5.53544e-05
0.000663952
0.000488459
0.000404619
0.000347248
0.000305036
0.000272128
0.00024532
0.000222892
0.00020376
0.000187185
0.000172663
0.000159828
0.000148395
0.000138155
0.000128955
0.000120752
0.000113394
0.000106711
0.000101076
9.46203e-05
0.00071288
0.000556432
0.000466397
0.000402355
0.000354426
0.00031705
0.000286675
0.000261256
0.000239582
0.000220845
0.000204443
0.000189949
0.000177045
0.000165477
0.000155052
0.000145586
0.000136979
0.000129117
0.000121926
0.000115724
0.000728543
0.000588231
0.000496002
0.000429131
0.000378509
0.000338933
0.000306816
0.000279969
0.000257066
0.000237244
0.000219891
0.000204547
0.000190869
0.000178589
0.000167494
0.000157398
0.000148157
0.000139636
0.000131695
0.000124082
0.000728543
0.000588231
0.000496001
0.000429131
0.000378509
0.000338933
0.000306815
0.000279968
0.000257063
0.000237241
0.000219885
0.000204537
0.00019085
0.000178551
0.000167423
0.0001573
0.000148011
0.000139407
0.000131328
0.000123345
0.00071288
0.000556432
0.000466397
0.000402355
0.000354425
0.000317049
0.000286673
0.000261252
0.000239577
0.000220838
0.000204431
0.000189928
0.000177008
0.0001654
0.000154924
0.000145405
0.0001367
0.000128674
0.000121217
0.000114035
0.000663952
0.000488458
0.000404619
0.000347248
0.000305036
0.000272128
0.000245318
0.000222889
0.000203756
0.00018718
0.000172654
0.000159813
0.000148369
0.000138106
0.000128868
0.000120632
0.000113203
0.000106393
0.000100474
9.4523e-05
0.000528907
0.000369984
0.000305097
0.000261371
0.000228528
0.000202476
0.000181115
0.000163074
0.000147541
0.000133986
0.000122052
0.000111471
0.000102141
9.38775e-05
8.6485e-05
7.97018e-05
7.35291e-05
6.80001e-05
6.38127e-05
5.53486e-05
0.000107685
6.77183e-05
5.06311e-05
4.14159e-05
3.54049e-05
3.10368e-05
2.77139e-05
2.50819e-05
2.29338e-05
2.11512e-05
1.96515e-05
1.83728e-05
1.72657e-05
1.62977e-05
1.54566e-05
1.47332e-05
1.41069e-05
1.35689e-05
1.3143e-05
1.28494e-05
4.5356e-05
2.3208e-05
1.65396e-05
1.36494e-05
1.18966e-05
1.06844e-05
9.76082e-06
9.0572e-06
8.49488e-06
8.0316e-06
7.641e-06
7.31297e-06
7.02594e-06
6.76313e-06
6.53318e-06
6.33485e-06
6.16454e-06
6.02347e-06
5.93967e-06
5.86545e-06
0.000107685
6.77183e-05
5.06311e-05
4.14159e-05
3.54049e-05
3.10368e-05
2.77139e-05
2.50819e-05
2.29338e-05
2.11512e-05
1.96516e-05
1.83729e-05
1.72658e-05
1.62977e-05
1.54567e-05
1.47334e-05
1.4107e-05
1.35692e-05
1.31434e-05
1.28499e-05
0.000160509
0.00010736
8.07409e-05
6.55976e-05
5.54896e-05
4.83026e-05
4.31311e-05
3.90793e-05
3.57395e-05
3.29502e-05
3.05789e-05
2.85365e-05
2.67765e-05
2.52502e-05
2.39152e-05
2.27405e-05
2.17067e-05
2.07974e-05
2.0004e-05
1.93513e-05
0.000198681
0.0001383
0.000105187
8.55269e-05
7.25012e-05
6.28901e-05
5.60611e-05
5.07592e-05
4.63879e-05
4.27216e-05
3.96249e-05
3.69549e-05
3.46326e-05
3.26022e-05
3.08177e-05
2.92409e-05
2.78415e-05
2.6595e-05
2.54873e-05
2.46013e-05
0.000218609
0.000155003
0.000118661
9.65068e-05
8.18822e-05
7.08354e-05
6.30853e-05
5.7143e-05
5.22477e-05
4.80952e-05
4.45808e-05
4.15694e-05
3.89484e-05
3.6653e-05
3.46304e-05
3.2837e-05
3.12372e-05
2.98008e-05
2.85118e-05
2.74527e-05
0.000218609
0.000155003
0.000118661
9.65068e-05
8.18822e-05
7.08353e-05
6.30852e-05
5.71429e-05
5.22475e-05
4.80949e-05
4.45803e-05
4.15686e-05
3.8947e-05
3.66505e-05
3.46261e-05
3.28303e-05
3.12267e-05
2.97839e-05
2.84832e-05
2.73968e-05
0.000198681
0.0001383
0.000105187
8.55269e-05
7.25012e-05
6.28901e-05
5.60609e-05
5.0759e-05
4.63876e-05
4.2721e-05
3.9624e-05
3.69534e-05
3.46301e-05
3.25977e-05
3.08102e-05
2.92292e-05
2.7823e-05
2.65651e-05
2.54407e-05
2.45375e-05
0.000160509
0.00010736
8.07409e-05
6.55976e-05
5.54896e-05
4.83026e-05
4.3131e-05
3.90791e-05
3.57393e-05
3.29496e-05
3.05781e-05
2.85352e-05
2.67744e-05
2.52467e-05
2.39096e-05
2.27318e-05
2.1693e-05
2.07753e-05
1.99697e-05
1.93081e-05
0.000107685
6.77183e-05
5.06311e-05
4.14159e-05
3.54049e-05
3.10368e-05
2.77138e-05
2.50818e-05
2.29338e-05
2.11511e-05
1.96513e-05
1.83725e-05
1.72651e-05
1.62962e-05
1.54544e-05
1.47299e-05
1.41013e-05
1.35594e-05
1.31242e-05
1.28332e-05
4.5356e-05
2.3208e-05
1.65396e-05
1.36494e-05
1.18966e-05
1.06844e-05
9.76081e-06
9.0572e-06
8.49488e-06
8.0316e-06
7.64099e-06
7.31296e-06
7.02598e-06
6.76311e-06
6.53317e-06
6.33485e-06
6.16453e-06
6.02344e-06
5.93965e-06
5.86538e-06
5.76609e-06
5.31087e-06
4.88999e-06
4.6268e-06
4.46209e-06
4.3543e-06
4.27371e-06
4.20219e-06
4.14371e-06
4.09217e-06
4.04707e-06
4.00628e-06
3.96688e-06
3.92914e-06
3.89236e-06
3.85936e-06
3.82619e-06
3.79597e-06
3.76619e-06
3.73804e-06
3.71071e-06
3.68378e-06
3.65864e-06
3.63485e-06
3.61072e-06
3.5876e-06
3.56474e-06
3.54267e-06
3.52052e-06
3.49958e-06
3.4784e-06
3.45797e-06
3.43811e-06
3.41849e-06
3.40051e-06
3.38176e-06
3.36444e-06
3.34707e-06
3.33253e-06
3.30713e-06
1.13406e-05
1.06356e-05
1.00022e-05
9.55246e-06
9.23077e-06
8.99127e-06
8.80141e-06
8.62677e-06
8.48354e-06
8.35553e-06
8.23519e-06
8.12821e-06
8.03272e-06
7.93777e-06
7.8451e-06
7.76141e-06
7.68154e-06
7.60818e-06
7.53884e-06
7.47269e-06
7.40949e-06
7.34832e-06
7.29051e-06
7.23726e-06
7.1855e-06
7.13549e-06
7.08671e-06
7.03896e-06
6.99228e-06
6.94659e-06
6.90207e-06
6.85832e-06
6.81546e-06
6.77429e-06
6.73389e-06
6.69616e-06
6.65852e-06
6.62163e-06
6.58701e-06
6.54752e-06
1.62436e-05
1.5473e-05
1.48069e-05
1.42811e-05
1.38296e-05
1.34655e-05
1.31462e-05
1.28713e-05
1.26201e-05
1.23948e-05
1.21905e-05
1.20056e-05
1.18502e-05
1.16832e-05
1.15277e-05
1.13889e-05
1.12568e-05
1.11389e-05
1.10236e-05
1.09119e-05
1.08069e-05
1.06966e-05
1.05959e-05
1.05028e-05
1.04176e-05
1.0335e-05
1.02542e-05
1.01758e-05
1.00998e-05
1.00253e-05
9.95276e-06
9.88244e-06
9.81478e-06
9.74847e-06
9.6839e-06
9.62369e-06
9.56508e-06
9.5076e-06
9.45326e-06
9.39449e-06
1.98203e-05
1.91705e-05
1.85645e-05
1.80086e-05
1.75043e-05
1.70478e-05
1.66339e-05
1.62579e-05
1.59156e-05
1.56025e-05
1.53148e-05
1.50499e-05
1.48156e-05
1.45886e-05
1.43756e-05
1.41775e-05
1.39908e-05
1.38291e-05
1.36537e-05
1.34853e-05
1.33343e-05
1.3192e-05
1.30546e-05
1.2923e-05
1.27975e-05
1.26776e-05
1.25644e-05
1.24541e-05
1.23505e-05
1.22486e-05
1.21507e-05
1.20494e-05
1.19631e-05
1.18659e-05
1.17915e-05
1.16991e-05
1.16282e-05
1.15488e-05
1.14775e-05
1.14018e-05
2.30621e-05
2.19898e-05
2.11423e-05
2.04362e-05
1.98261e-05
1.92913e-05
1.88147e-05
1.8383e-05
1.79867e-05
1.76212e-05
1.7283e-05
1.69705e-05
1.66844e-05
1.64099e-05
1.61537e-05
1.59139e-05
1.56936e-05
1.5485e-05
1.52881e-05
1.51031e-05
1.49293e-05
1.47669e-05
1.45937e-05
1.44333e-05
1.42821e-05
1.41389e-05
1.40028e-05
1.38723e-05
1.37506e-05
1.36314e-05
1.3517e-05
1.34026e-05
1.33002e-05
1.31859e-05
1.3105e-05
1.29919e-05
1.29059e-05
1.28156e-05
1.27338e-05
1.26558e-05
2.42083e-05
2.2955e-05
2.20301e-05
2.12614e-05
2.06008e-05
2.00225e-05
1.95103e-05
1.90516e-05
1.86316e-05
1.82426e-05
1.78817e-05
1.75471e-05
1.72371e-05
1.69457e-05
1.66742e-05
1.64207e-05
1.61835e-05
1.5961e-05
1.5753e-05
1.55598e-05
1.53776e-05
1.52064e-05
1.50406e-05
1.48951e-05
1.47333e-05
1.45719e-05
1.44227e-05
1.42839e-05
1.41579e-05
1.40351e-05
1.39196e-05
1.38034e-05
1.37202e-05
1.35354e-05
1.35409e-05
1.33451e-05
1.32986e-05
1.31989e-05
1.31112e-05
1.30303e-05
2.32118e-05
2.19046e-05
2.10226e-05
2.03036e-05
1.96815e-05
1.91328e-05
1.86438e-05
1.82026e-05
1.77964e-05
1.7421e-05
1.70743e-05
1.67543e-05
1.64591e-05
1.61827e-05
1.59253e-05
1.56851e-05
1.54607e-05
1.52512e-05
1.50554e-05
1.48731e-05
1.47039e-05
1.45451e-05
1.43891e-05
1.42473e-05
1.41004e-05
1.395e-05
1.38116e-05
1.36841e-05
1.35661e-05
1.34496e-05
1.3338e-05
1.32276e-05
1.3141e-05
1.29957e-05
1.29405e-05
1.28266e-05
1.27437e-05
1.26592e-05
1.25771e-05
1.24985e-05
1.97453e-05
1.90377e-05
1.8356e-05
1.77471e-05
1.72058e-05
1.67293e-05
1.63058e-05
1.59224e-05
1.55734e-05
1.52543e-05
1.49611e-05
1.46924e-05
1.44452e-05
1.42142e-05
1.4e-05
1.37995e-05
1.36134e-05
1.34422e-05
1.32822e-05
1.31313e-05
1.299e-05
1.28564e-05
1.27152e-05
1.25932e-05
1.24719e-05
1.23578e-05
1.22463e-05
1.21416e-05
1.20384e-05
1.1933e-05
1.1833e-05
1.17405e-05
1.16563e-05
1.15737e-05
1.14926e-05
1.1413e-05
1.13327e-05
1.12562e-05
1.11834e-05
1.11135e-05
1.59957e-05
1.51788e-05
1.45023e-05
1.39441e-05
1.34798e-05
1.30936e-05
1.27773e-05
1.24992e-05
1.22517e-05
1.20285e-05
1.18244e-05
1.16437e-05
1.14716e-05
1.13102e-05
1.11674e-05
1.10116e-05
1.0874e-05
1.07448e-05
1.06296e-05
1.0516e-05
1.04112e-05
1.03109e-05
1.02107e-05
1.01228e-05
1.00315e-05
9.9461e-06
9.86389e-06
9.78563e-06
9.70999e-06
9.63785e-06
9.56845e-06
9.50191e-06
9.4373e-06
9.37508e-06
9.31441e-06
9.25663e-06
9.19568e-06
9.13712e-06
9.08446e-06
9.03235e-06
1.13057e-05
1.06197e-05
9.91715e-06
9.41337e-06
9.05214e-06
8.79764e-06
8.60208e-06
8.43709e-06
8.30375e-06
8.18489e-06
8.07161e-06
7.97921e-06
7.86885e-06
7.77145e-06
7.67867e-06
7.59033e-06
7.50728e-06
7.42929e-06
7.35602e-06
7.2868e-06
7.22139e-06
7.16003e-06
7.10262e-06
7.0508e-06
6.99858e-06
6.94804e-06
6.89868e-06
6.85073e-06
6.80393e-06
6.75903e-06
6.71521e-06
6.67232e-06
6.6304e-06
6.58976e-06
6.54971e-06
6.51277e-06
6.47762e-06
6.44364e-06
6.41159e-06
6.37551e-06
5.76611e-06
5.31023e-06
4.89004e-06
4.62581e-06
4.45785e-06
4.3469e-06
4.26527e-06
4.19604e-06
4.13983e-06
4.0916e-06
4.04723e-06
4.00836e-06
3.96833e-06
3.93003e-06
3.8934e-06
3.85959e-06
3.82671e-06
3.79598e-06
3.76615e-06
3.73823e-06
3.71048e-06
3.68416e-06
3.65869e-06
3.63559e-06
3.6114e-06
3.58878e-06
3.56593e-06
3.5439e-06
3.52164e-06
3.50037e-06
3.47905e-06
3.45851e-06
3.43834e-06
3.41854e-06
3.39947e-06
3.3813e-06
3.36514e-06
3.34793e-06
3.33337e-06
3.30747e-06
1.13058e-05
1.06202e-05
9.9197e-06
9.41123e-06
9.05569e-06
8.81389e-06
8.62694e-06