/*--------------------------------*- C++ -*----------------------------------*\
| =========                 |                                                 |
| \\      /  F ield         | OpenFOAM: The Open Source CFD Toolbox           |
|  \\    /   O peration     | Version:  2212                                  |
|   \\  /    A nd           | Website:  www.openfoam.com                      |
|    \\/     M anipulation  |                                                 |
\*---------------------------------------------------------------------------*/
FoamFile
{
    version     2.0;
    format      ascii;
    arch        "LSB;label=32;scalar=64";
    class       surfaceScalarField;
    location    "2.25";
    object      phi;
}
// * * * * * * * * * * * * * * * * * * * * * * * * * * * * * * * * * * * * * //

dimensions      [0 3 -1 0 0 0 0];

oriented        oriented;

internalField   nonuniform List<scalar> 
19019
(
3.3225e-07
1.09684e-09
1.0968e-09
2.79191e-07
2.65294e-08
2.65295e-08
2.49218e-07
1.49862e-08
1.49863e-08
2.29255e-07
9.98159e-09
9.98191e-09
2.14835e-07
7.20909e-09
7.21014e-09
2.032e-07
5.81681e-09
5.81841e-09
1.93773e-07
4.71187e-09
4.71536e-09
1.86006e-07
3.88032e-09
3.88665e-09
1.79358e-07
3.31825e-09
3.32935e-09
1.73531e-07
2.90386e-09
2.92312e-09
1.68362e-07
2.56891e-09
2.60027e-09
1.63747e-07
2.28203e-09
2.33345e-09
1.59595e-07
2.02999e-09
2.12104e-09
1.55843e-07
1.79072e-09
1.96184e-09
1.52511e-07
1.52081e-09
1.81086e-09
1.49654e-07
1.2027e-09
1.65438e-09
1.47457e-07
7.58796e-10
1.43761e-09
1.47138e-07
-3.35153e-10
6.54016e-10
1.50989e-07
-2.7359e-09
-1.11453e-09
-2.58159e-08
-1.66167e-08
6.3138e-07
3.58745e-09
7.4029e-09
6.14564e-07
2.26451e-08
2.07005e-08
5.86446e-07
2.43749e-08
1.87296e-08
5.61727e-07
1.88529e-08
1.58476e-08
5.3962e-07
1.55657e-08
1.37503e-08
5.2064e-07
1.35039e-08
1.12922e-08
5.04697e-07
1.19411e-08
8.71427e-09
4.90948e-07
1.07816e-08
6.84804e-09
4.78732e-07
9.91673e-09
5.61668e-09
4.67661e-07
9.18662e-09
4.78912e-09
4.57499e-07
8.52826e-09
4.2022e-09
4.48109e-07
7.91061e-09
3.76161e-09
4.3939e-07
7.31118e-09
3.43728e-09
4.31283e-07
6.69994e-09
3.19802e-09
4.23779e-07
6.02087e-09
3.00345e-09
4.17038e-07
5.15528e-09
2.78832e-09
4.11481e-07
3.90501e-09
2.41099e-09
4.08686e-07
1.29808e-09
1.16123e-09
4.1313e-07
-4.17743e-09
-3.00233e-09
-2.1987e-08
-2.19475e-08
8.90375e-07
2.85246e-09
6.33238e-09
8.82486e-07
1.34078e-08
1.71261e-08
8.70358e-07
1.78658e-08
1.86366e-08
8.5511e-07
1.69525e-08
1.71483e-08
8.39978e-07
1.53356e-08
1.53621e-08
8.25527e-07
1.41624e-08
1.37928e-08
8.11754e-07
1.33666e-08
1.23476e-08
7.98752e-07
1.2653e-08
1.11305e-08
7.86667e-07
1.18496e-08
1.01526e-08
7.75504e-07
1.09796e-08
9.37013e-09
7.65117e-07
1.01299e-08
8.78476e-09
7.55349e-07
9.30931e-09
8.36966e-09
7.46066e-07
8.50957e-09
8.0839e-09
7.37188e-07
7.6924e-09
7.88617e-09
7.28679e-07
6.76821e-09
7.76095e-09
7.20575e-07
5.58572e-09
7.67352e-09
7.12936e-07
3.97516e-09
7.56893e-09
7.05616e-07
1.35217e-09
7.26555e-09
6.9786e-07
-3.13379e-09
6.7124e-09
-8.21262e-09
5.59511e-09
1.07432e-06
1.06477e-09
5.56889e-09
1.06824e-06
5.58637e-09
1.39003e-08
1.06138e-06
8.46372e-09
1.62622e-08
1.05338e-06
9.03936e-09
1.59102e-08
1.04509e-06
8.61725e-09
1.50048e-08
1.0372e-06
8.11977e-09
1.39379e-08
1.02979e-06
7.7856e-09
1.29845e-08
1.02277e-06
7.55287e-09
1.21271e-08
1.01588e-06
7.36733e-09
1.1366e-08
1.00905e-06
7.08044e-09
1.07287e-08
1.00229e-06
6.63601e-09
1.02598e-08
9.95527e-07
6.12841e-09
9.94183e-09
9.88658e-07
5.6187e-09
9.75951e-09
9.81516e-07
5.11547e-09
9.71952e-09
9.7385e-07
4.59477e-09
9.83931e-09
9.65296e-07
3.97205e-09
1.01673e-08
9.55216e-07
3.24044e-09
1.08141e-08
9.42601e-07
2.07942e-09
1.18879e-08
9.26142e-07
2.01702e-10
1.31232e-08
-6.46572e-10
1.87129e-08
1.16914e-06
4.18893e-14
4.90659e-09
1.16312e-06
2.21944e-13
1.16086e-08
1.15731e-06
5.92112e-13
1.42759e-08
1.15201e-06
1.13635e-12
1.43348e-08
1.14689e-06
2.0549e-12
1.37334e-08
1.14203e-06
3.79165e-12
1.29751e-08
1.1377e-06
7.06255e-12
1.21099e-08
1.13392e-06
1.25445e-11
1.13233e-08
1.13059e-06
2.19761e-11
1.06761e-08
1.1274e-06
3.7739e-11
1.02344e-08
1.124e-06
6.40896e-11
9.96866e-09
1.12021e-06
1.07873e-10
9.81313e-09
1.11585e-06
1.80947e-10
9.79254e-09
1.1107e-06
3.05973e-10
9.96002e-09
1.10442e-06
5.19233e-10
1.03567e-08
1.09644e-06
8.61205e-10
1.10875e-08
1.08586e-06
1.46592e-09
1.23637e-08
1.07101e-06
2.43779e-09
1.44875e-08
1.04936e-06
4.12304e-09
1.77299e-08
8.1357e-09
2.62021e-08
1.16914e-06
-1.06466e-09
4.90657e-09
1.16312e-06
-5.586e-09
1.16086e-08
1.15731e-06
-8.46303e-09
1.42759e-08
1.15201e-06
-9.03814e-09
1.43345e-08
1.1469e-06
-8.61466e-09
1.37324e-08
1.14204e-06
-8.11442e-09
1.29729e-08
1.13772e-06
-7.77535e-09
1.21063e-08
1.13395e-06
-7.53454e-09
1.13173e-08
1.13064e-06
-7.33447e-09
1.06655e-08
1.12749e-06
-7.02503e-09
1.02161e-08
1.12416e-06
-6.54459e-09
9.93838e-09
1.12048e-06
-5.97935e-09
9.76214e-09
1.11633e-06
-5.37275e-09
9.70163e-09
1.11155e-06
-4.70264e-09
9.79174e-09
1.10593e-06
-3.91782e-09
1.00583e-08
1.09907e-06
-2.83844e-09
1.0562e-08
1.09033e-06
-1.26112e-09
1.146e-08
1.0787e-06
1.15148e-09
1.2923e-08
1.06283e-06
4.93541e-09
1.50561e-08
1.16017e-08
1.85567e-08
1.07432e-06
-2.8525e-09
5.56891e-09
1.06824e-06
-1.3408e-08
1.39003e-08
1.06138e-06
-1.7866e-08
1.62619e-08
1.05338e-06
-1.69529e-08
1.59089e-08
1.0451e-06
-1.53357e-08
1.50022e-08
1.03722e-06
-1.41618e-08
1.39337e-08
1.02983e-06
-1.33651e-08
1.29782e-08
1.02283e-06
-1.26507e-08
1.2117e-08
1.01599e-06
-1.18452e-08
1.13489e-08
1.00924e-06
-1.09719e-08
1.06985e-08
1.0026e-06
-1.0118e-08
1.02078e-08
9.96065e-07
-9.29132e-09
9.85044e-09
9.89571e-07
-8.4812e-09
9.60176e-09
9.83067e-07
-7.64701e-09
9.44854e-09
9.76479e-07
-6.70178e-09
9.3723e-09
9.69736e-07
-5.43564e-09
9.33999e-09
9.62762e-07
-3.62048e-09
9.33286e-09
9.5526e-07
-7.09624e-10
9.3639e-09
9.46581e-07
4.1312e-09
9.48248e-09
1.34696e-08
9.51188e-09
8.90375e-07
-3.5875e-09
6.33233e-09
8.82486e-07
-2.26455e-08
1.71257e-08
8.7036e-07
-2.43753e-08
1.86355e-08
8.55114e-07
-1.88536e-08
1.71465e-08
8.39986e-07
-1.55674e-08
1.53596e-08
8.25542e-07
-1.35068e-08
1.37895e-08
8.11781e-07
-1.1946e-08
1.23421e-08
7.98799e-07
-1.07897e-08
1.11209e-08
7.86747e-07
-9.93032e-09
1.0137e-08
7.7564e-07
-9.20996e-09
9.34441e-09
7.65349e-07
-8.56837e-09
8.74159e-09
7.55737e-07
-7.97525e-09
8.29591e-09
7.46707e-07
-7.41199e-09
7.96075e-09
7.38238e-07
-6.86486e-09
7.6865e-09
7.30399e-07
-6.28473e-09
7.42279e-09
7.23484e-07
-5.57573e-09
7.05467e-09
7.1795e-07
-4.49803e-09
6.41164e-09
7.14162e-07
-1.94647e-09
5.02518e-09
7.12509e-07
3.18455e-09
2.59898e-09
1.78116e-08
-3.38174e-09
6.3138e-07
-1.0968e-09
7.40286e-09
6.14564e-07
-2.65295e-08
2.07002e-08
5.86446e-07
-1.49863e-08
1.87291e-08
5.61728e-07
-9.9819e-09
1.58466e-08
5.39621e-07
-7.21013e-09
1.37488e-08
5.20644e-07
-5.81839e-09
1.12895e-08
5.04703e-07
-4.71534e-09
8.70988e-09
4.90959e-07
-3.88663e-09
6.84082e-09
4.78754e-07
-3.32932e-09
5.60448e-09
4.67699e-07
-2.9231e-09
4.76804e-09
4.5757e-07
-2.60025e-09
4.161e-09
4.48237e-07
-2.33342e-09
3.69048e-09
4.39608e-07
-2.12115e-09
3.33799e-09
4.31623e-07
-1.96183e-09
3.08271e-09
4.24316e-07
-1.8105e-09
2.83216e-09
4.17901e-07
-1.6541e-09
2.49338e-09
4.13004e-07
-1.4374e-09
1.83712e-09
4.11706e-07
-6.53585e-10
4.69784e-12
4.18724e-07
1.11524e-09
-4.94901e-09
1.662e-08
-2.18898e-08
3.3225e-07
1.09684e-09
2.79191e-07
2.65294e-08
2.49218e-07
1.49862e-08
2.29255e-07
9.98161e-09
2.14835e-07
7.20912e-09
2.032e-07
5.81685e-09
1.93773e-07
4.71193e-09
1.86006e-07
3.88039e-09
1.79358e-07
3.31833e-09
1.73531e-07
2.90395e-09
1.68362e-07
2.569e-09
1.63746e-07
2.28211e-09
1.59595e-07
2.03021e-09
1.55842e-07
1.79105e-09
1.5251e-07
1.52126e-09
1.49653e-07
1.2034e-09
1.47456e-07
7.59689e-10
1.47136e-07
-3.34277e-10
1.50987e-07
-2.73514e-09
-2.58124e-08
6.3138e-07
7.40286e-09
3.5875e-09
6.14564e-07
2.07002e-08
2.26455e-08
5.86446e-07
1.87291e-08
2.43753e-08
5.61728e-07
1.58466e-08
1.88536e-08
5.39622e-07
1.37488e-08
1.55674e-08
5.20644e-07
1.12895e-08
1.35067e-08
5.04703e-07
8.70983e-09
1.1946e-08
4.9096e-07
6.84075e-09
1.07897e-08
4.78754e-07
5.60439e-09
9.9303e-09
4.67699e-07
4.76794e-09
9.20993e-09
4.5757e-07
4.1609e-09
8.56832e-09
4.48238e-07
3.69035e-09
7.97514e-09
4.3961e-07
3.33753e-09
7.41196e-09
4.31625e-07
3.08229e-09
6.86462e-09
4.24319e-07
2.8322e-09
6.28428e-09
4.17905e-07
2.49302e-09
5.57522e-09
4.13009e-07
1.83658e-09
4.49747e-09
4.11712e-07
4.23956e-12
1.94596e-09
4.18732e-07
-4.94908e-09
-3.18493e-09
-2.1889e-08
-1.78092e-08
9.23617e-07
7.03373e-09
7.03382e-09
9.25318e-07
1.98493e-08
1.98497e-08
9.17185e-07
2.27958e-08
2.27965e-08
9.04276e-07
2.23006e-08
2.2302e-08
8.90536e-07
2.06186e-08
2.06208e-08
8.77413e-07
1.78501e-08
1.78544e-08
8.65447e-07
1.46917e-08
1.46987e-08
8.54775e-07
1.2175e-08
1.21861e-08
8.45344e-07
1.03159e-08
1.03353e-08
8.37016e-07
8.92591e-09
8.95962e-09
8.2961e-07
7.8558e-09
7.91314e-09
8.22954e-07
7.00716e-09
7.10132e-09
8.16967e-07
6.30653e-09
6.45512e-09
8.1168e-07
5.66719e-09
5.90016e-09
8.07183e-07
4.98327e-09
5.34859e-09
8.03606e-07
4.15343e-09
4.70547e-09
8.01112e-07
2.96074e-09
3.78088e-09
7.99039e-07
1.02445e-09
2.21398e-09
7.94031e-07
-2.14825e-09
-7.95931e-10
-7.43795e-09
-6.02233e-09
1.1589e-06
5.28114e-09
6.1026e-09
1.1657e-06
1.39981e-08
1.6183e-08
1.16844e-06
1.79768e-08
2.07069e-08
1.16661e-06
1.91771e-08
2.21055e-08
1.16221e-06
1.88733e-08
2.15072e-08
1.15654e-06
1.75404e-08
1.97726e-08
1.15047e-06
1.56764e-08
1.74299e-08
1.14457e-06
1.38709e-08
1.53378e-08
1.13914e-06
1.22572e-08
1.36443e-08
1.1343e-06
1.08386e-08
1.22935e-08
1.13006e-06
9.64804e-09
1.12296e-08
1.12639e-06
8.64427e-09
1.0403e-08
1.12327e-06
7.75346e-09
9.75862e-09
1.12069e-06
6.89395e-09
9.23788e-09
1.11866e-06
5.98186e-09
8.79977e-09
1.11718e-06
4.9167e-09
8.38266e-09
1.11627e-06
3.54182e-09
7.90067e-09
1.11573e-06
1.62674e-09
7.202e-09
1.11534e-06
-1.11023e-09
6.06659e-09
-4.89771e-09
4.68413e-09
1.32762e-06
2.71815e-09
4.93118e-09
1.33539e-06
7.12061e-09
1.30092e-08
1.34286e-06
9.55299e-09
1.72166e-08
1.34847e-06
1.05774e-08
1.89017e-08
1.35197e-06
1.08745e-08
1.95062e-08
1.35374e-06
1.05792e-08
1.91236e-08
1.3544e-06
9.88967e-09
1.81144e-08
1.35452e-06
9.04241e-09
1.68336e-08
1.35446e-06
8.18807e-09
1.54993e-08
1.35435e-06
7.38669e-09
1.42913e-08
1.35424e-06
6.66549e-09
1.33457e-08
1.35417e-06
6.02088e-09
1.26355e-08
1.35413e-06
5.43064e-09
1.21283e-08
1.35407e-06
4.86341e-09
1.18075e-08
1.35394e-06
4.28203e-09
1.16739e-08
1.35361e-06
3.65628e-09
1.17534e-08
1.35292e-06
2.93984e-09
1.21061e-08
1.35154e-06
2.0929e-09
1.28007e-08
1.34854e-06
1.14465e-09
1.38701e-08
7.20061e-10
1.5789e-08
1.41518e-06
9.96792e-14
4.19297e-09
1.42279e-06
2.92793e-13
1.11163e-08
1.43152e-06
5.08352e-13
1.50993e-08
1.4398e-06
1.01804e-12
1.66312e-08
1.44712e-06
2.05394e-12
1.72799e-08
1.45316e-06
3.81007e-12
1.75181e-08
1.45798e-06
6.52795e-12
1.71665e-08
1.46188e-06
1.0974e-11
1.64586e-08
1.46514e-06
1.89478e-11
1.5585e-08
1.468e-06
3.35692e-11
1.47273e-08
1.47062e-06
5.81878e-11
1.39536e-08
1.47303e-06
9.93456e-11
1.33246e-08
1.47516e-06
1.60828e-10
1.29378e-08
1.47692e-06
2.53438e-10
1.28024e-08
1.47828e-06
4.02793e-10
1.28784e-08
1.47913e-06
6.3098e-10
1.32599e-08
1.47939e-06
9.78495e-10
1.40686e-08
1.47904e-06
1.49342e-09
1.54388e-08
1.4783e-06
2.23433e-09
1.73797e-08
3.33188e-09
1.9603e-08
1.41518e-06
-2.71805e-09
4.19291e-09
1.42279e-06
-7.12034e-09
1.11161e-08
1.43152e-06
-9.5525e-09
1.5099e-08
1.4398e-06
-1.05764e-08
1.66305e-08
1.44713e-06
-1.08722e-08
1.72781e-08
1.45317e-06
-1.05751e-08
1.75149e-08
1.458e-06
-9.88238e-09
1.71611e-08
1.46191e-06
-9.02987e-09
1.64501e-08
1.46519e-06
-8.16624e-09
1.55719e-08
1.46808e-06
-7.34615e-09
1.47055e-08
1.47075e-06
-6.59436e-09
1.39165e-08
1.47326e-06
-5.90102e-09
1.32586e-08
1.47554e-06
-5.2483e-09
1.28233e-08
1.47755e-06
-4.58252e-09
1.26197e-08
1.47924e-06
-3.82731e-09
1.25992e-08
1.48056e-06
-2.91424e-09
1.27826e-08
1.48145e-06
-1.73196e-09
1.32826e-08
1.48186e-06
-1.68639e-10
1.41779e-08
1.4818e-06
1.94058e-09
1.54119e-08
4.54776e-09
1.66354e-08
1.32763e-06
-5.28124e-09
4.93105e-09
1.33539e-06
-1.39983e-08
1.30088e-08
1.34287e-06
-1.79772e-08
1.72156e-08
1.34848e-06
-1.91776e-08
1.88992e-08
1.35198e-06
-1.88742e-08
1.95016e-08
1.35376e-06
-1.7542e-08
1.91164e-08
1.35443e-06
-1.56784e-08
1.81032e-08
1.35458e-06
-1.38729e-08
1.68159e-08
1.35455e-06
-1.22613e-08
1.5472e-08
1.3545e-06
-1.0846e-08
1.42469e-08
1.35451e-06
-9.66121e-09
1.32693e-08
1.35462e-06
-8.66945e-09
1.25072e-08
1.35486e-06
-7.8062e-09
1.19193e-08
1.35525e-06
-6.9936e-09
1.14688e-08
1.35581e-06
-6.13859e-09
1.11193e-08
1.35654e-06
-5.14034e-09
1.08392e-08
1.35738e-06
-3.84283e-09
1.06047e-08
1.35823e-06
-2.05409e-09
1.04027e-08
1.35899e-06
4.26538e-10
1.02365e-08
3.95773e-09
1.00979e-08
1.1589e-06
-7.03382e-09
6.10243e-09
1.1657e-06
-1.98497e-08
1.61823e-08
1.16845e-06
-2.27965e-08
2.07052e-08
1.16661e-06
-2.2302e-08
2.21027e-08
1.16222e-06
-2.06208e-08
2.15032e-08
1.15655e-06
-1.78544e-08
1.9767e-08
1.15049e-06
-1.46986e-08
1.74206e-08
1.14461e-06
-1.21861e-08
1.53217e-08
1.1392e-06
-1.03352e-08
1.36168e-08
1.13441e-06
-8.95961e-09
1.22481e-08
1.13025e-06
-7.91315e-09
1.11548e-08
1.12669e-06
-7.10139e-09
1.02828e-08
1.12374e-06
-6.45567e-09
9.56768e-09
1.12139e-06
-5.89998e-09
8.93863e-09
1.11969e-06
-5.34766e-09
8.32987e-09
1.11867e-06
-4.70538e-09
7.63981e-09
1.11831e-06
-3.78108e-09
6.71595e-09
1.11813e-06
-2.21391e-09
5.35779e-09
1.11699e-06
7.96808e-10
3.37082e-09
6.02251e-09
9.11436e-10
9.23617e-07
-7.4029e-09
7.03373e-09
9.25318e-07
-2.07005e-08
1.98494e-08
9.17184e-07
-1.87296e-08
2.27959e-08
9.04276e-07
-1.58476e-08
2.23007e-08
8.90536e-07
-1.37502e-08
2.06186e-08
8.77413e-07
-1.12922e-08
1.78502e-08
8.65447e-07
-8.71426e-09
1.46919e-08
8.54774e-07
-6.84803e-09
1.21752e-08
8.45344e-07
-5.61666e-09
1.03161e-08
8.37015e-07
-4.78909e-09
8.92619e-09
8.29609e-07
-4.20213e-09
7.85613e-09
8.22952e-07
-3.76154e-09
7.00751e-09
8.16964e-07
-3.43745e-09
6.30728e-09
8.11677e-07
-3.19812e-09
5.66797e-09
8.07181e-07
-3.00319e-09
4.98378e-09
8.03603e-07
-2.78832e-09
4.15433e-09
8.01109e-07
-2.41085e-09
2.96161e-09
7.99035e-07
-1.16048e-09
1.02507e-09
7.94027e-07
3.00432e-09
-2.14844e-09
2.19508e-08
-7.43877e-09
6.3138e-07
3.58746e-09
6.14564e-07
2.26451e-08
5.86446e-07
2.43749e-08
5.61727e-07
1.88529e-08
5.3962e-07
1.55658e-08
5.2064e-07
1.3504e-08
5.04697e-07
1.19412e-08
4.90947e-07
1.07818e-08
4.78732e-07
9.91695e-09
4.6766e-07
9.18689e-09
4.57498e-07
8.52857e-09
4.48108e-07
7.91093e-09
4.39389e-07
7.31137e-09
4.31281e-07
6.7008e-09
4.23777e-07
6.02249e-09
4.17035e-07
5.15697e-09
4.11477e-07
3.90672e-09
4.08682e-07
1.29998e-09
4.13127e-07
-4.17546e-09
-2.19842e-08
8.90375e-07
6.33233e-09
2.8525e-09
8.82486e-07
1.71257e-08
1.3408e-08
8.7036e-07
1.86355e-08
1.7866e-08
8.55114e-07
1.71465e-08
1.69529e-08
8.39987e-07
1.53596e-08
1.53357e-08
8.25542e-07
1.37894e-08
1.41618e-08
8.11781e-07
1.23421e-08
1.33651e-08
7.98799e-07
1.11208e-08
1.26506e-08
7.86747e-07
1.01369e-08
1.18452e-08
7.75641e-07
9.34424e-09
1.09719e-08
7.6535e-07
8.74137e-09
1.01179e-08
7.55739e-07
8.29557e-09
9.29121e-09
7.46709e-07
7.96022e-09
8.48109e-09
7.38241e-07
7.68594e-09
7.64663e-09
7.30403e-07
7.42199e-09
6.70111e-09
7.23489e-07
7.05345e-09
5.43497e-09
7.17957e-07
6.41008e-09
3.61993e-09
7.1417e-07
5.02324e-09
7.09153e-10
7.1252e-07
2.59665e-09
-4.13161e-09
-3.38507e-09
-1.3468e-08
1.1589e-06
6.10242e-09
5.28123e-09
1.1657e-06
1.61822e-08
1.39983e-08
1.16845e-06
2.07052e-08
1.79771e-08
1.16661e-06
2.21027e-08
1.91776e-08
1.16222e-06
2.15031e-08
1.88741e-08
1.15655e-06
1.97668e-08
1.7542e-08
1.15049e-06
1.74204e-08
1.56784e-08
1.14461e-06
1.53215e-08
1.38728e-08
1.1392e-06
1.36165e-08
1.22612e-08
1.13441e-06
1.22477e-08
1.0846e-08
1.13025e-06
1.11544e-08
9.66112e-09
1.1267e-06
1.02821e-08
8.66922e-09
1.12374e-06
9.56665e-09
7.8057e-09
1.12139e-06
8.93802e-09
6.99373e-09
1.1197e-06
8.32948e-09
6.13913e-09
1.11868e-06
7.63878e-09
5.14024e-09
1.11831e-06
6.71457e-09
3.84232e-09
1.11814e-06
5.35657e-09
2.05357e-09
1.11699e-06
3.37003e-09
-4.27031e-10
9.08664e-10
-3.95958e-09
1.37712e-06
4.57703e-09
4.57722e-09
1.38565e-06
1.19162e-08
1.19168e-08
1.39417e-06
1.64453e-08
1.64464e-08
1.40126e-06
1.85578e-08
1.85596e-08
1.40642e-06
1.89257e-08
1.89288e-08
1.40952e-06
1.82152e-08
1.82199e-08
1.41096e-06
1.67047e-08
1.67125e-08
1.41155e-06
1.50249e-08
1.5037e-08
1.41186e-06
1.347e-08
1.34898e-08
1.41213e-06
1.21154e-08
1.21469e-08
1.41257e-06
1.09482e-08
1.09989e-08
1.41328e-06
9.9463e-09
1.00272e-08
1.41434e-06
9.0693e-09
9.19953e-09
1.41578e-06
8.26541e-09
8.47264e-09
1.41761e-06
7.48843e-09
7.80706e-09
1.41981e-06
6.67225e-09
7.15035e-09
1.42223e-06
5.74434e-09
6.44817e-09
1.42449e-06
4.64834e-09
5.65723e-09
1.42571e-06
3.40748e-09
4.80489e-09
2.39715e-09
4.27008e-09
1.53312e-06
2.36589e-09
3.6494e-09
1.54218e-06
6.23845e-09
9.63415e-09
1.55327e-06
8.87274e-09
1.36924e-08
1.56445e-06
1.03462e-08
1.59381e-08
1.57507e-06
1.08983e-08
1.69145e-08
1.5847e-06
1.07527e-08
1.69501e-08
1.593e-06
1.01407e-08
1.63845e-08
1.60007e-06
9.32729e-09
1.54596e-08
1.60622e-06
8.45399e-09
1.4366e-08
1.61171e-06
7.63076e-09
1.3285e-08
1.61679e-06
6.90179e-09
1.23161e-08
1.62161e-06
6.26576e-09
1.14901e-08
1.6263e-06
5.69755e-09
1.0814e-08
1.63092e-06
5.16476e-09
1.02838e-08
1.63554e-06
4.65189e-09
9.89198e-09
1.64019e-06
4.13915e-09
9.63796e-09
1.6449e-06
3.60672e-09
9.53063e-09
1.64974e-06
3.03685e-09
9.57823e-09
1.65483e-06
2.44411e-09
9.74386e-09
1.95293e-09
1.00148e-08
1.61424e-06
7.27757e-14
3.09294e-09
1.62332e-06
1.68877e-13
8.27435e-09
1.63533e-06
3.09734e-13
1.19578e-08
1.64819e-06
6.02794e-13
1.41159e-08
1.66117e-06
1.17287e-12
1.5203e-08
1.67385e-06
1.99188e-12
1.55877e-08
1.68571e-06
3.45526e-12
1.54373e-08
1.69652e-06
5.65878e-12
1.49703e-08
1.70625e-06
9.61322e-12
1.43044e-08
1.71505e-06
1.64479e-11
1.35438e-08
1.72309e-06
2.74203e-11
1.2782e-08
1.73055e-06
4.41164e-11
1.20926e-08
1.73758e-06
6.74856e-11
1.15318e-08
1.74431e-06
1.00658e-10
1.11348e-08
1.75077e-06
1.52164e-10
1.09254e-08
1.757e-06
2.40797e-10
1.09208e-08
1.76317e-06
3.6594e-10
1.11435e-08
1.76951e-06
5.32755e-10
1.16023e-08
1.77638e-06
7.35013e-10
1.22241e-08
9.72525e-10
1.28475e-08
1.61424e-06
-2.36586e-09
3.09285e-09
1.62332e-06
-6.23842e-09
8.27406e-09
1.63533e-06
-8.87268e-09
1.19572e-08
1.6482e-06
-1.03461e-08
1.41147e-08
1.66117e-06
-1.08981e-08
1.52007e-08
1.67386e-06
-1.07523e-08
1.5584e-08
1.68573e-06
-1.01397e-08
1.54321e-08
1.69655e-06
-9.32533e-09
1.49625e-08
1.70629e-06
-8.45023e-09
1.42922e-08
1.71511e-06
-7.62266e-09
1.35244e-08
1.72319e-06
-6.88596e-09
1.27503e-08
1.73069e-06
-6.23795e-09
1.20406e-08
1.73779e-06
-5.65537e-09
1.14478e-08
1.74461e-06
-5.10433e-09
1.10026e-08
1.75119e-06
-4.55549e-09
1.07214e-08
1.75758e-06
-3.96876e-09
1.06037e-08
1.76388e-06
-3.31408e-09
1.06623e-08
1.77025e-06
-2.55022e-09
1.08938e-08
1.77682e-06
-1.66003e-09
1.12361e-08
-7.09211e-10
1.15469e-08
1.53312e-06
-4.57722e-09
3.64917e-09
1.54218e-06
-1.19168e-08
9.63346e-09
1.55328e-06
-1.64464e-08
1.36911e-08
1.56445e-06
-1.85596e-08
1.59356e-08
1.57508e-06
-1.89288e-08
1.69103e-08
1.58472e-06
-1.822e-08
1.69435e-08
1.59302e-06
-1.67125e-08
1.63744e-08
1.6001e-06
-1.50371e-08
1.54433e-08
1.60627e-06
-1.34898e-08
1.43408e-08
1.6118e-06
-1.21469e-08
1.32457e-08
1.61693e-06
-1.09989e-08
1.22528e-08
1.62184e-06
-1.00273e-08
1.13883e-08
1.62665e-06
-9.19965e-09
1.06489e-08
1.63147e-06
-8.47266e-09
1.00181e-08
1.63637e-06
-7.80701e-09
9.47268e-09
1.6414e-06
-7.15036e-09
8.98559e-09
1.64661e-06
-6.44818e-09
8.53304e-09
1.65202e-06
-5.65719e-09
8.09806e-09
1.65772e-06
-4.80498e-09
7.67806e-09
-4.27198e-09
7.3731e-09
1.37712e-06
-6.1026e-09
4.57704e-09
1.38565e-06
-1.6183e-08
1.19163e-08
1.39417e-06
-2.07069e-08
1.64454e-08
1.40126e-06
-2.21055e-08
1.85579e-08
1.40642e-06
-2.15072e-08
1.89259e-08
1.40952e-06
-1.97726e-08
1.82154e-08
1.41096e-06
-1.74299e-08
1.67049e-08
1.41155e-06
-1.53378e-08
1.50252e-08
1.41185e-06
-1.36443e-08
1.34705e-08
1.41213e-06
-1.22935e-08
1.21159e-08
1.41257e-06
-1.12295e-08
1.09489e-08
1.41328e-06
-1.04029e-08
9.94712e-09
1.41434e-06
-9.75848e-09
9.0703e-09
1.41577e-06
-9.23787e-09
8.26644e-09
1.41761e-06
-8.79987e-09
7.48941e-09
1.41981e-06
-8.38246e-09
6.67325e-09
1.42223e-06
-7.9e-09
5.74523e-09
1.42448e-06
-7.20075e-09
4.64876e-09
1.4257e-06
-6.06429e-09
3.40715e-09
-4.68095e-09
2.39705e-09
1.1589e-06
-6.33238e-09
5.28115e-09
1.1657e-06
-1.71261e-08
1.39981e-08
1.16844e-06
-1.86366e-08
1.79769e-08
1.16661e-06
-1.71483e-08
1.91772e-08
1.16221e-06
-1.53621e-08
1.88735e-08
1.15654e-06
-1.37928e-08
1.75406e-08
1.15047e-06
-1.23475e-08
1.56767e-08
1.14457e-06
-1.11305e-08
1.38712e-08
1.13914e-06
-1.01526e-08
1.22577e-08
1.1343e-06
-9.3701e-09
1.08391e-08
1.13006e-06
-8.7847e-09
9.64863e-09
1.12639e-06
-8.3695e-09
8.6449e-09
1.12327e-06
-8.08355e-09
7.75417e-09
1.12069e-06
-7.88612e-09
6.89506e-09
1.11865e-06
-7.76137e-09
5.98331e-09
1.11718e-06
-7.67347e-09
4.91798e-09
1.11627e-06
-7.56805e-09
3.54276e-09
1.11573e-06
-7.26347e-09
1.627e-09
1.11534e-06
-6.70798e-09
-1.11175e-09
-5.58641e-09
-4.9026e-09
8.90375e-07
2.85247e-09
8.82486e-07
1.34079e-08
8.70358e-07
1.78659e-08
8.5511e-07
1.69526e-08
8.39978e-07
1.53358e-08
8.25527e-07
1.41626e-08
8.11754e-07
1.33668e-08
7.98752e-07
1.26533e-08
7.86666e-07
1.18501e-08
7.75503e-07
1.09801e-08
7.65116e-07
1.01305e-08
7.55347e-07
9.31004e-09
7.46065e-07
8.51037e-09
7.37186e-07
7.6935e-09
7.28677e-07
6.76979e-09
7.20573e-07
5.58759e-09
7.12935e-07
3.97721e-09
7.05617e-07
1.35426e-09
6.97865e-07
-3.13207e-09
-8.21078e-09
1.07432e-06
5.56891e-09
1.06466e-09
1.06824e-06
1.39003e-08
5.58599e-09
1.06138e-06
1.62618e-08
8.46299e-09
1.05338e-06
1.59088e-08
9.0381e-09
1.0451e-06
1.50021e-08
8.6146e-09
1.03722e-06
1.39336e-08
8.11436e-09
1.02983e-06
1.29782e-08
7.77527e-09
1.02283e-06
1.21169e-08
7.53445e-09
1.01599e-06
1.13487e-08
7.33437e-09
1.00924e-06
1.06983e-08
7.02492e-09
1.0026e-06
1.02075e-08
6.54449e-09
9.96066e-07
9.85004e-09
5.97925e-09
9.89574e-07
9.60114e-09
5.37263e-09
9.8307e-07
9.44774e-09
4.7023e-09
9.76483e-07
9.3712e-09
3.91724e-09
9.69742e-07
9.33842e-09
2.83792e-09
9.6277e-07
9.3307e-09
1.26082e-09
9.5527e-07
9.36075e-09
-1.15149e-09
9.46596e-07
9.47782e-09
-4.93517e-09
9.50555e-09
-1.15998e-08
1.32763e-06
4.93104e-09
2.71804e-09
1.33539e-06
1.30088e-08
7.12033e-09
1.34287e-06
1.72155e-08
9.55248e-09
1.34848e-06
1.88991e-08
1.05764e-08
1.35198e-06
1.95015e-08
1.08722e-08
1.35376e-06
1.91162e-08
1.05751e-08
1.35443e-06
1.8103e-08
9.88233e-09
1.35458e-06
1.68156e-08
9.02981e-09
1.35455e-06
1.54717e-08
8.16615e-09
1.3545e-06
1.42465e-08
7.34603e-09
1.35451e-06
1.32687e-08
6.5942e-09
1.35462e-06
1.25065e-08
5.90077e-09
1.35486e-06
1.19182e-08
5.24793e-09
1.35525e-06
1.14679e-08
4.58242e-09
1.35582e-06
1.11184e-08
3.82737e-09
1.35654e-06
1.08376e-08
2.91393e-09
1.35738e-06
1.06026e-08
1.73126e-09
1.35823e-06
1.04001e-08
1.67577e-10
1.35899e-06
1.02333e-08
-1.94257e-09
1.00935e-08
-4.55144e-09
1.53312e-06
3.64915e-09
2.36586e-09
1.54218e-06
9.63342e-09
6.23841e-09
1.55328e-06
1.3691e-08
8.87267e-09
1.56445e-06
1.59355e-08
1.03461e-08
1.57508e-06
1.69101e-08
1.08981e-08
1.58472e-06
1.69432e-08
1.07523e-08
1.59302e-06
1.6374e-08
1.01397e-08
1.6001e-06
1.54429e-08
9.32528e-09
1.60627e-06
1.43403e-08
8.45016e-09
1.6118e-06
1.3245e-08
7.62257e-09
1.61693e-06
1.2252e-08
6.88583e-09
1.62184e-06
1.13874e-08
6.23775e-09
1.62665e-06
1.06478e-08
5.65512e-09
1.63147e-06
1.0017e-08
5.10415e-09
1.63637e-06
9.4715e-09
4.55532e-09
1.64141e-06
8.98415e-09
3.96833e-09
1.64661e-06
8.5314e-09
3.3133e-09
1.65202e-06
8.09643e-09
2.54889e-09
1.65773e-06
7.67657e-09
1.65765e-09
7.3716e-09
7.04525e-10
1.68027e-06
1.89089e-09
1.89102e-09
1.68934e-06
5.09891e-09
5.09932e-09
1.7018e-06
7.46349e-09
7.46427e-09
1.71578e-06
8.94484e-09
8.94613e-09
1.73022e-06
9.69101e-09
9.6931e-09
1.74439e-06
9.85798e-09
9.86129e-09
1.75785e-06
9.648e-09
9.65301e-09
1.77036e-06
9.1929e-09
9.20034e-09
1.78185e-06
8.60432e-09
8.61517e-09
1.79241e-06
7.97526e-09
7.99127e-09
1.80221e-06
7.36946e-09
7.39386e-09
1.81142e-06
6.81709e-09
6.85546e-09
1.82017e-06
6.32509e-09
6.38691e-09
1.8286e-06
5.88696e-09
5.98586e-09
1.83683e-06
5.48925e-09
5.64017e-09
1.84499e-06
5.12262e-09
5.34074e-09
1.85319e-06
4.77926e-09
5.08088e-09
1.86156e-06
4.44986e-09
4.85275e-09
1.87022e-06
4.13576e-09
4.62718e-09
3.91825e-09
4.40364e-09
1.7569e-06
-3.80483e-15
1.61324e-09
1.76589e-06
-4.96032e-14
4.38419e-09
1.77878e-06
-1.08168e-13
6.532e-09
1.79389e-06
-1.85423e-13
7.95154e-09
1.81003e-06
-3.04589e-13
8.7566e-09
1.82639e-06
-4.90028e-13
9.08731e-09
1.8424e-06
-7.23128e-13
9.07484e-09
1.85772e-06
-8.14891e-13
8.84048e-09
1.87216e-06
-7.55425e-13
8.46961e-09
1.88565e-06
-6.3205e-13
8.02896e-09
1.89823e-06
-7.4623e-13
7.57098e-09
1.91001e-06
-1.72059e-12
7.13478e-09
1.92112e-06
-4.46495e-12
6.74835e-09
1.93172e-06
-9.4999e-12
6.43235e-09
1.94194e-06
-1.46e-11
6.20542e-09
1.95193e-06
-1.63878e-11
6.07501e-09
1.96182e-06
-1.42869e-11
6.04156e-09
1.97179e-06
-1.23829e-11
6.09623e-09
1.98195e-06
-6.05111e-12
6.21357e-09
3.04099e-11
6.32711e-09
1.7569e-06
-1.89102e-09
1.61315e-09
1.76589e-06
-5.09933e-09
4.38395e-09
1.77878e-06
-7.46428e-09
6.5315e-09
1.79389e-06
-8.94615e-09
7.95065e-09
1.81003e-06
-9.69312e-09
8.75516e-09
1.82639e-06
-9.86132e-09
9.08508e-09
1.8424e-06
-9.65306e-09
9.07161e-09
1.85773e-06
-9.2004e-09
8.83573e-09
1.87217e-06
-8.61525e-09
8.4625e-09
1.88567e-06
-7.99137e-09
8.0182e-09
1.89826e-06
-7.394e-09
7.55452e-09
1.91004e-06
-6.85566e-09
7.10944e-09
1.92116e-06
-6.38718e-09
6.70925e-09
1.93177e-06
-5.98624e-09
6.37218e-09
1.942e-06
-5.64069e-09
6.11364e-09
1.95199e-06
-5.34147e-09
5.9402e-09
1.96187e-06
-5.08196e-09
5.85312e-09
1.97176e-06
-4.85441e-09
5.84652e-09
1.98171e-06
-4.62974e-09
5.90578e-09
-4.40738e-09
5.97464e-09
1.68027e-06
-3.6494e-09
1.89091e-09
1.68934e-06
-9.63415e-09
5.09898e-09
1.7018e-06
-1.36924e-08
7.46361e-09
1.71578e-06
-1.59381e-08
8.94501e-09
1.73022e-06
-1.69145e-08
9.69126e-09
1.74439e-06
-1.69502e-08
9.8583e-09
1.75785e-06
-1.63845e-08
9.64841e-09
1.77036e-06
-1.54596e-08
9.19342e-09
1.78185e-06
-1.4366e-08
8.60496e-09
1.79241e-06
-1.3285e-08
7.97604e-09
1.80221e-06
-1.23162e-08
7.3704e-09
1.81142e-06
-1.14901e-08
6.81821e-09
1.82017e-06
-1.0814e-08
6.32641e-09
1.82859e-06
-1.0284e-08
5.88848e-09
1.83683e-06
-9.89219e-09
5.49097e-09
1.84499e-06
-9.63805e-09
5.12456e-09
1.85319e-06
-9.53059e-09
4.78141e-09
1.86156e-06
-9.57816e-09
4.45215e-09
1.87021e-06
-9.74399e-09
4.13804e-09
-1.00158e-08
3.92003e-09
1.53312e-06
-4.93118e-09
2.36591e-09
1.54218e-06
-1.30092e-08
6.23851e-09
1.55327e-06
-1.72166e-08
8.87285e-09
1.56445e-06
-1.89017e-08
1.03464e-08
1.57507e-06
-1.95063e-08
1.08986e-08
1.5847e-06
-1.91236e-08
1.0753e-08
1.593e-06
-1.81144e-08
1.0141e-08
1.60007e-06
-1.68336e-08
9.32777e-09
1.60622e-06
-1.54993e-08
8.45458e-09
1.61171e-06
-1.42913e-08
7.63149e-09
1.61678e-06
-1.33457e-08
6.90268e-09
1.62161e-06
-1.26353e-08
6.26681e-09
1.6263e-06
-1.21281e-08
5.69879e-09
1.63092e-06
-1.18074e-08
5.16624e-09
1.63554e-06
-1.16739e-08
4.65352e-09
1.64018e-06
-1.17527e-08
4.14076e-09
1.6449e-06
-1.21046e-08
3.60824e-09
1.64973e-06
-1.2798e-08
3.03802e-09
1.65481e-06
-1.38659e-08
2.44458e-09
-1.57822e-08
1.95227e-09
1.32762e-06
-5.56889e-09
2.71817e-09
1.33539e-06
-1.39003e-08
7.12066e-09
1.34286e-06
-1.62622e-08
9.55309e-09
1.34847e-06
-1.59102e-08
1.05776e-08
1.35197e-06
-1.50048e-08
1.08747e-08
1.35374e-06
-1.39379e-08
1.05795e-08
1.3544e-06
-1.29845e-08
9.89002e-09
1.35452e-06
-1.21271e-08
9.04285e-09
1.35446e-06
-1.13661e-08
8.18862e-09
1.35435e-06
-1.07287e-08
7.38739e-09
1.35424e-06
-1.02598e-08
6.66635e-09
1.35417e-06
-9.94174e-09
6.02189e-09
1.35413e-06
-9.75924e-09
5.43177e-09
1.35407e-06
-9.71923e-09
4.86495e-09
1.35393e-06
-9.83887e-09
4.28394e-09
1.35361e-06
-1.01661e-08
3.65811e-09
1.35291e-06
-1.08116e-08
2.94143e-09
1.35153e-06
-1.18833e-08
2.09377e-09
1.34853e-06
-1.31154e-08
1.1437e-09
-1.87014e-08
7.14999e-10
1.07432e-06
1.06478e-09
1.06824e-06
5.58641e-09
1.06138e-06
8.46381e-09
1.05338e-06
9.0395e-09
1.04509e-06
8.61744e-09
1.0372e-06
8.12002e-09
1.02979e-06
7.78593e-09
1.02277e-06
7.5533e-09
1.01588e-06
7.36787e-09
1.00905e-06
7.08111e-09
1.00229e-06
6.63685e-09
9.95526e-07
6.12944e-09
9.88657e-07
5.61992e-09
9.81515e-07
5.11686e-09
9.73849e-07
4.59645e-09
9.65296e-07
3.97409e-09
9.55219e-07
3.24292e-09
9.42607e-07
2.08238e-09
9.26155e-07
2.04447e-10
-6.40134e-10
1.16914e-06
4.90657e-09
-4.48238e-14
1.16312e-06
1.16086e-08
-2.42519e-13
1.15731e-06
1.42759e-08
-6.39549e-13
1.15201e-06
1.43345e-08
-1.19584e-12
1.1469e-06
1.37323e-08
-2.12943e-12
1.14204e-06
1.29728e-08
-3.88245e-12
1.13772e-06
1.21062e-08
-7.17013e-12
1.13395e-06
1.13171e-08
-1.26698e-11
1.13064e-06
1.06653e-08
-2.2119e-11
1.12749e-06
1.02159e-08
-3.78979e-11
1.12416e-06
9.93809e-09
-6.42618e-11
1.12048e-06
9.76176e-09
-1.08051e-10
1.11634e-06
9.70105e-09
-1.81131e-10
1.11155e-06
9.79084e-09
-3.06195e-10
1.10593e-06
1.0057e-08
-5.19539e-10
1.09907e-06
1.05601e-08
-8.61452e-10
1.09034e-06
1.14571e-08
-1.46589e-09
1.07871e-06
1.29184e-08
-2.43728e-09
1.06285e-06
1.50489e-08
-4.12163e-09
1.85482e-08
-8.13308e-09
1.41518e-06
4.1929e-09
-1.06008e-13
1.42279e-06
1.11161e-08
-3.12012e-13
1.43152e-06
1.5099e-08
-5.32864e-13
1.4398e-06
1.66304e-08
-1.04956e-12
1.44713e-06
1.7278e-08
-2.09629e-12
1.45317e-06
1.75147e-08
-3.86651e-12
1.458e-06
1.71609e-08
-6.60006e-12
1.46191e-06
1.64498e-08
-1.10639e-11
1.46519e-06
1.55715e-08
-1.90598e-11
1.46808e-06
1.4705e-08
-3.37123e-11
1.47075e-06
1.39158e-08
-5.8372e-11
1.47326e-06
1.32578e-08
-9.95819e-11
1.47555e-06
1.28221e-08
-1.61118e-10
1.47755e-06
1.26185e-08
-2.53694e-10
1.47924e-06
1.25977e-08
-4.03009e-10
1.48057e-06
1.27805e-08
-6.3128e-10
1.48146e-06
1.32797e-08
-9.78958e-10
1.48186e-06
1.4174e-08
-1.49413e-09
1.4818e-06
1.5407e-08
-2.23571e-09
1.6631e-08
-3.33554e-09
1.61424e-06
3.09283e-09
-7.95357e-14
1.62332e-06
8.27401e-09
-1.82453e-13
1.63533e-06
1.19572e-08
-3.25693e-13
1.6482e-06
1.41146e-08
-6.23369e-13
1.66117e-06
1.52005e-08