/*--------------------------------*- C++ -*----------------------------------*\
| =========                 |                                                 |
| \\      /  F ield         | OpenFOAM: The Open Source CFD Toolbox           |
|  \\    /   O peration     | Version:  2212                                  |
|   \\  /    A nd           | Website:  www.openfoam.com                      |
|    \\/     M anipulation  |                                                 |
\*---------------------------------------------------------------------------*/
FoamFile
{
    version     2.0;
    format      ascii;
    arch        "LSB;label=32;scalar=64";
    class       volVectorField;
    location    "2.25";
    object      U;
}
// * * * * * * * * * * * * * * * * * * * * * * * * * * * * * * * * * * * * * //

dimensions      [0 1 -1 0 0 0 0];

internalField   nonuniform List<vector> 
6840
(
(0.0956456 -0.00836005 -0.00836005)
(0.090494 0.00152199 0.00152204)
(0.0790684 0.00242964 0.00242972)
(0.0713015 0.00148761 0.0014878)
(0.06618 0.000830223 0.000830619)
(0.0623235 0.000563137 0.000563787)
(0.0592223 0.000425241 0.000426764)
(0.0566873 0.000322071 0.000324757)
(0.0545538 0.000249986 0.000254375)
(0.052704 0.000197662 0.000204811)
(0.0510699 0.000158082 0.000170218)
(0.0496154 0.000126592 0.000146706)
(0.0483104 9.85391e-05 0.000129788)
(0.0471301 7.0909e-05 0.000117624)
(0.0460693 3.69036e-05 0.000109896)
(0.0451378 1.28038e-05 0.000106506)
(0.0443767 -3.37227e-05 0.000112249)
(0.0439427 -0.000171876 8.34172e-05)
(0.0444771 -0.000360909 -1.56214e-05)
(0.0429375 -0.00274489 -0.0019364)
(0.0999088 0.00129699 0.000712564)
(0.0969669 0.0036558 0.00274728)
(0.0935347 0.0026401 0.00211821)
(0.0895894 0.00182019 0.00162068)
(0.0858325 0.0015283 0.00139073)
(0.0825906 0.0013505 0.00116153)
(0.079866 0.00117818 0.000897654)
(0.0775681 0.00103855 0.000693159)
(0.0755594 0.000939459 0.000562193)
(0.0737536 0.00086011 0.000482715)
(0.0721047 0.000783593 0.000438125)
(0.0705844 0.000703951 0.000414377)
(0.0691745 0.000625135 0.000402206)
(0.0678638 0.00054727 0.000397382)
(0.0666481 0.000457829 0.000403706)
(0.0655344 0.000329868 0.000414902)
(0.0645656 0.000144876 0.000421235)
(0.0638753 -0.000195581 0.000342052)
(0.0638894 -0.000881429 7.86584e-05)
(0.0627699 -0.00357398 -0.00182721)
(0.099413 0.000345206 0.000270233)
(0.0988664 0.00201891 0.00187492)
(0.0979215 0.00257289 0.00218907)
(0.096366 0.00237944 0.00190849)
(0.0946336 0.00211344 0.00162683)
(0.0929724 0.0019257 0.00141896)
(0.0913643 0.00179969 0.00127175)
(0.089854 0.0017025 0.00116092)
(0.0884546 0.00159998 0.00107135)
(0.087158 0.00148636 0.00100074)
(0.0859565 0.00137053 0.000954419)
(0.0848351 0.00125762 0.000930175)
(0.0837754 0.0011446 0.000923956)
(0.0827643 0.00102279 0.000932028)
(0.0817947 0.000880367 0.00095302)
(0.0808672 0.00070049 0.000986753)
(0.079983 0.000454394 0.00103121)
(0.0791421 1.52561e-05 0.00107653)
(0.0783231 -0.000772522 0.00113633)
(0.0769717 -0.00222882 0.00119074)
(0.0995405 0.000245012 0.0003219)
(0.0992576 0.00105547 0.00154094)
(0.0988489 0.00150205 0.00211454)
(0.0981247 0.00157894 0.00209181)
(0.0973365 0.00151404 0.00188649)
(0.0965842 0.0014451 0.00166649)
(0.095864 0.00140786 0.00149898)
(0.0951951 0.00137514 0.00137321)
(0.0945642 0.00132706 0.00128796)
(0.093915 0.00125164 0.00123541)
(0.0932797 0.00115495 0.00120221)
(0.092654 0.00104736 0.00118652)
(0.092025 0.000935971 0.00118689)
(0.0913786 0.000819924 0.00120399)
(0.0906965 0.000689048 0.00124146)
(0.089953 0.000524494 0.00130701)
(0.0891069 0.000310856 0.00141537)
(0.0880595 -3.14051e-05 0.00159224)
(0.0867508 -0.000586419 0.0017719)
(0.0854083 -0.00116159 0.00299928)
(0.0993801 3.3767e-05 5.89469e-05)
(0.0992677 0.000274343 0.00120003)
(0.0989803 0.000432287 0.00188852)
(0.0984744 0.000483316 0.00200658)
(0.097995 0.000478592 0.00191491)
(0.0975698 0.000465096 0.00173515)
(0.0971789 0.000452141 0.00154795)
(0.0968273 0.000441167 0.00138972)
(0.0965239 0.000434241 0.00127218)
(0.0962637 0.000425037 0.00120338)
(0.0959796 0.000405677 0.00117918)
(0.0956692 0.000378212 0.00118249)
(0.095325 0.000347479 0.00120165)
(0.0949238 0.000318539 0.00123958)
(0.0944442 0.000297208 0.00130802)
(0.0938475 0.000277314 0.00141728)
(0.0930782 0.000267132 0.0015958)
(0.0920124 0.000252441 0.00188173)
(0.0905078 0.000254902 0.00229784)
(0.0887975 0.000502583 0.00353674)
(0.0993801 -3.37537e-05 5.89259e-05)
(0.0992677 -0.000274276 0.00120002)
(0.0989803 -0.00043213 0.00188852)
(0.0984745 -0.000483028 0.00200655)
(0.0979953 -0.000478066 0.00191481)
(0.0975703 -0.0004641 0.00173492)
(0.0971799 -0.000450253 0.0015476)
(0.0968291 -0.000437793 0.00138913)
(0.0965271 -0.000428352 0.00127103)
(0.0962693 -0.000414962 0.00120124)
(0.0959894 -0.000388636 0.00117548)
(0.0956864 -0.000349721 0.00117627)
(0.0953552 -0.000299943 0.00119074)
(0.0949778 -0.000238264 0.00121851)
(0.0945385 -0.00016226 0.00126762)
(0.0940139 -5.70636e-05 0.00134964)
(0.0933633 0.000105107 0.00148435)
(0.0925052 0.000364788 0.00169247)
(0.0913566 0.000782664 0.00198351)
(0.0903997 0.00161609 0.00256458)
(0.0995405 -0.00024501 0.000321901)
(0.0992576 -0.00105546 0.00154095)
(0.098849 -0.00150203 0.00211448)
(0.098125 -0.00157889 0.00209169)
(0.0973372 -0.00151385 0.00188629)
(0.0965855 -0.00144462 0.00166619)
(0.0958663 -0.00140693 0.00149863)
(0.0951992 -0.00137355 0.00137262)
(0.0945714 -0.00132414 0.00128657)
(0.0939277 -0.00124693 0.00123218)
(0.0933016 -0.00114762 0.00119608)
(0.0926915 -0.00103617 0.00117491)
(0.0920888 -0.000918 0.0011672)
(0.0914876 -0.00079062 0.00117145)
(0.0908816 -0.000644939 0.00118488)
(0.0902634 -0.000446272 0.00120441)
(0.0896275 -0.000163907 0.00122935)
(0.0889558 0.000262184 0.0012705)
(0.0882141 0.000926274 0.00134524)
(0.0874086 0.0020621 0.00140352)
(0.099413 -0.000345217 0.000270229)
(0.0988664 -0.00201897 0.00187488)
(0.0979216 -0.002573 0.00218892)
(0.0963663 -0.00237966 0.00190824)
(0.0946342 -0.00211377 0.00162647)
(0.0929736 -0.00192623 0.00141844)
(0.0913664 -0.00180047 0.0012709)
(0.0898579 -0.00170376 0.0011595)
(0.0884614 -0.00160211 0.00106906)
(0.0871694 -0.00148989 0.000996945)
(0.0859759 -0.00137644 0.000948473)
(0.0848681 -0.00126735 0.000919882)
(0.0838303 -0.00116007 0.000906175)
(0.0828547 -0.00104671 0.000902055)
(0.0819419 -0.000916696 0.000902033)
(0.0811099 -0.000751523 0.000892429)
(0.0804013 -0.000524822 0.000861215)
(0.0798637 -0.000118779 0.000747043)
(0.0795791 0.000605 0.000539198)
(0.0788005 0.00234357 -0.000176729)
(0.0999088 -0.001297 0.000712552)
(0.0969669 -0.00365587 0.00274722)
(0.0935347 -0.0026402 0.00211808)
(0.0895895 -0.00182037 0.00162044)
(0.0858327 -0.00152873 0.00139039)
(0.082591 -0.00135116 0.00116091)
(0.0798667 -0.00117935 0.000896651)
(0.0775694 -0.00104053 0.000691522)
(0.0755618 -0.000942897 0.000559448)
(0.0737579 -0.000866107 0.000478067)
(0.0721127 -0.000794001 0.000429094)
(0.0705993 -0.000721266 0.000398659)
(0.0692007 -0.000652874 0.000380918)
(0.0679057 -0.000593293 0.00037512)
(0.0667137 -0.000534769 0.00037264)
(0.0656379 -0.000469319 0.000354229)
(0.0647433 -0.000367406 0.000301522)
(0.0642048 -0.00012696 8.949e-05)
(0.0646065 0.000317101 -0.000295589)
(0.0627259 0.00115214 -0.00121921)
(0.0956456 0.00836005 -0.00836005)
(0.090494 -0.00152204 0.00152199)
(0.0790684 -0.00242972 0.00242965)
(0.0713015 -0.0014878 0.00148762)
(0.06618 -0.000830612 0.00083023)
(0.0623235 -0.000563779 0.000563148)
(0.0592223 -0.000426751 0.000425257)
(0.0566873 -0.00032474 0.000322091)
(0.0545537 -0.000254355 0.00025001)
(0.0527039 -0.000204787 0.00019769)
(0.0510698 -0.000170191 0.000158117)
(0.0496153 -0.00014667 0.000126632)
(0.0483103 -0.00012976 9.86083e-05)
(0.0471299 -0.000117557 7.09841e-05)
(0.046069 -0.000109786 3.69895e-05)
(0.0451376 -0.000106405 1.28822e-05)
(0.0443762 -0.000112126 -3.35622e-05)
(0.0439421 -8.32347e-05 -0.000171675)
(0.0444764 1.58293e-05 -0.000360692)
(0.0429369 0.00193651 -0.0027445)
(0.0999088 0.000712552 0.001297)
(0.0969669 0.00274722 0.00365587)
(0.0935347 0.00211808 0.0026402)
(0.0895895 0.00162044 0.00182037)
(0.0858327 0.00139038 0.00152873)
(0.082591 0.0011609 0.00135117)
(0.0798667 0.000896641 0.00117935)
(0.0775695 0.000691509 0.00104054)
(0.0755619 0.00055943 0.000942905)
(0.073758 0.000478045 0.000866116)
(0.0721128 0.000429068 0.000794011)
(0.0705994 0.00039862 0.000721273)
(0.069201 0.000380876 0.000652874)
(0.0679058 0.000375038 0.00059329)
(0.0667142 0.000372535 0.000534826)
(0.0656384 0.000354098 0.000469388)
(0.064744 0.000301383 0.000367474)
(0.0642057 8.93527e-05 0.000127067)
(0.0646075 -0.000295697 -0.000316855)
(0.0627269 -0.00121861 -0.00115123)
(0.100226 0.000720796 0.000720812)
(0.0999601 0.00198266 0.00198274)
(0.0997824 0.00245171 0.00245191)
(0.0987885 0.00241938 0.00241973)
(0.0972761 0.00220047 0.00220101)
(0.0957756 0.00181102 0.00181198)
(0.0943944 0.00138164 0.00138321)
(0.0931665 0.00106869 0.00107134)
(0.0920813 0.000851446 0.000856)
(0.0911223 0.000697335 0.000705221)
(0.090275 0.000581599 0.000595889)
(0.0895172 0.000491662 0.000514955)
(0.088831 0.000422239 0.000456483)
(0.0882189 0.000364046 0.000413063)
(0.0876873 0.000298228 0.000376213)
(0.0872474 0.000215844 0.000339823)
(0.0869137 8.41553e-05 0.000288847)
(0.0866666 -0.000159595 0.000171716)
(0.0863324 -0.000695981 -0.000212038)
(0.0863512 -0.00212085 -0.00133933)
(0.10014 0.000774981 0.000869264)
(0.100454 0.00196228 0.00196363)
(0.100911 0.0024273 0.00233468)
(0.100978 0.00252618 0.00244157)
(0.100694 0.00242562 0.00233727)
(0.100225 0.00219639 0.00211323)
(0.0997093 0.00191486 0.00182448)
(0.0991842 0.00166285 0.00157767)
(0.0986898 0.00145776 0.00139354)
(0.0982428 0.00128757 0.00125637)
(0.0978505 0.00114463 0.00115759)
(0.0975092 0.00102154 0.00109044)
(0.097216 0.000909574 0.0010467)
(0.09697 0.00079774 0.00101913)
(0.0967702 0.000675963 0.00100693)
(0.0966187 0.000526905 0.00100648)
(0.0965161 0.00032612 0.00101316)
(0.0964563 3.66492e-05 0.00101722)
(0.0964088 -0.000380995 0.00100417)
(0.0964989 -0.000925256 0.000950141)
(0.100093 0.000445889 0.000763211)
(0.100504 0.00119437 0.00174905)
(0.101105 0.00158658 0.00212966)
(0.101634 0.00174009 0.00223504)
(0.101979 0.00178175 0.00228787)
(0.102171 0.00172818 0.00223722)
(0.102252 0.00160677 0.00211795)
(0.102275 0.00145816 0.00196785)
(0.102276 0.00130152 0.00180733)
(0.102266 0.00115096 0.00166124)
(0.102256 0.00101894 0.00155846)
(0.102249 0.000903779 0.00149154)
(0.102244 0.000795987 0.00145342)
(0.102241 0.00068726 0.00144235)
(0.102235 0.000568484 0.00146013)
(0.10222 0.000431517 0.00151286)
(0.102184 0.000259789 0.00161474)
(0.102106 3.10635e-05 0.00178112)
(0.101962 -0.000272143 0.00201673)
(0.102108 -0.000551853 0.0023913)
(0.100087 0.000144383 0.000707022)
(0.100477 0.000390485 0.0016178)
(0.101065 0.000541094 0.00203468)
(0.101694 0.000610145 0.00211777)
(0.102268 0.000636045 0.00215071)
(0.102741 0.000626917 0.00218087)
(0.103122 0.000594989 0.00213584)
(0.103425 0.000549642 0.0020472)
(0.103676 0.000504616 0.00194004)
(0.10389 0.000462533 0.00183801)
(0.104082 0.000419901 0.00174557)
(0.104261 0.000378161 0.00166981)
(0.104423 0.00034034 0.00162972)
(0.10456 0.00030529 0.00162876)
(0.104671 0.000272298 0.00165825)
(0.104753 0.000241228 0.00173583)
(0.104794 0.000211999 0.00188286)
(0.104785 0.000185268 0.00212861)
(0.104746 0.000168363 0.00248954)
(0.105008 0.000197247 0.0029207)
(0.100087 -0.000144359 0.00070702)
(0.100477 -0.000390412 0.0016178)
(0.101066 -0.000540967 0.00203469)
(0.101694 -0.000609907 0.00211774)
(0.102269 -0.000635558 0.00215053)
(0.102742 -0.000625996 0.0021805)
(0.103123 -0.000593412 0.00213523)
(0.103427 -0.000546972 0.00204624)
(0.103678 -0.00049993 0.00193859)
(0.103895 -0.00045419 0.00183561)
(0.104089 -0.000405457 0.00174163)
(0.104272 -0.000353729 0.00166278)
(0.104444 -0.000301061 0.00161697)
(0.104595 -0.000242944 0.00160748)
(0.104725 -0.000172764 0.0016256)
(0.104834 -8.5599e-05 0.00167537)
(0.104914 3.05154e-05 0.00177784)
(0.104957 0.000190459 0.00195051)
(0.104978 0.00040751 0.00219347)
(0.105288 0.000691271 0.0024505)
(0.100093 -0.000445892 0.000763206)
(0.100504 -0.00119438 0.00174904)
(0.101105 -0.0015866 0.00212958)
(0.101635 -0.00174008 0.00223473)
(0.101979 -0.0017817 0.00228724)
(0.102172 -0.00172809 0.00223628)
(0.102253 -0.00160653 0.00211653)
(0.102278 -0.00145769 0.0019657)
(0.102281 -0.00130078 0.00180409)
(0.102275 -0.00114933 0.00165607)
(0.10227 -0.00101614 0.00154942)
(0.102274 -0.00089912 0.00147614)
(0.102287 -0.000790723 0.00142752)
(0.10231 -0.000681439 0.00139891)
(0.102346 -0.000558893 0.0013872)
(0.102395 -0.000411989 0.0013904)
(0.102454 -0.000223813 0.0014074)
(0.102518 2.63189e-05 0.00143922)
(0.10259 0.000352845 0.00149041)
(0.1028 0.000721829 0.0015561)
(0.10014 -0.000775001 0.000869241)
(0.100454 -0.00196235 0.00196352)
(0.100911 -0.00242742 0.00233439)
(0.100979 -0.00252644 0.0024411)
(0.100694 -0.00242607 0.00233658)
(0.100225 -0.00219716 0.00211234)
(0.0997105 -0.00191606 0.00182308)
(0.0991865 -0.00166463 0.00157517)
(0.0986938 -0.00146084 0.00138924)
(0.0982498 -0.001293 0.0012492)
(0.0978625 -0.00115346 0.00114555)
(0.0975295 -0.00103661 0.00107074)
(0.0972481 -0.000935654 0.00101503)
(0.0970184 -0.000842219 0.000969259)
(0.0968428 -0.000746026 0.000927661)
(0.0967247 -0.000633079 0.000877975)
(0.0966651 -0.000481062 0.000797786)
(0.09665 -0.000261876 0.000657181)
(0.0966171 6.39475e-05 0.000424409)
(0.0967053 0.000555939 3.99666e-05)
(0.100226 -0.000720811 0.000720797)
(0.0999601 -0.00198275 0.00198267)
(0.0997824 -0.00245191 0.00245172)
(0.0987885 -0.00241972 0.00241939)
(0.0972761 -0.002201 0.00220048)
(0.0957756 -0.00181197 0.00181103)
(0.0943943 -0.0013832 0.00138166)
(0.0931665 -0.00107133 0.00106872)
(0.0920813 -0.000855984 0.000851478)
(0.0911222 -0.000705199 0.000697374)
(0.0902749 -0.000595859 0.000581647)
(0.089517 -0.000514916 0.000491722)
(0.0888308 -0.000456516 0.000422393)
(0.0882186 -0.000413 0.000364151)
(0.0876871 -0.000376003 0.000298215)
(0.0872471 -0.000339689 0.000215961)
(0.0869134 -0.000288711 8.43271e-05)
(0.0866662 -0.000171499 -0.000159427)
(0.086332 0.000212396 -0.000695846)
(0.0863504 0.00133975 -0.00212062)
(0.0999088 -0.000712564 0.00129699)
(0.0969669 -0.00274727 0.00365581)
(0.0935347 -0.0021182 0.0026401)
(0.0895894 -0.00162068 0.0018202)
(0.0858325 -0.00139073 0.00152832)
(0.0825906 -0.00116152 0.00135052)
(0.079866 -0.000897644 0.0011782)
(0.0775681 -0.000693146 0.00103857)
(0.0755594 -0.000562178 0.000939495)
(0.0737536 -0.000482696 0.000860153)
(0.0721046 -0.000438095 0.000783642)
(0.0705843 -0.000414344 0.000704011)
(0.0691743 -0.00040215 0.000625206)
(0.0678637 -0.000397359 0.000547431)
(0.0666478 -0.00040371 0.000458065)
(0.065534 -0.000414874 0.000330181)
(0.064565 -0.000421142 0.000145222)
(0.0638747 -0.000341857 -0.000195183)
(0.0638888 -7.82424e-05 -0.000880946)
(0.0627696 0.00182813 -0.00357306)
(0.099413 0.000270229 0.000345217)
(0.0988664 0.00187488 0.00201897)
(0.0979216 0.00218892 0.002573)
(0.0963663 0.00190824 0.00237966)
(0.0946342 0.00162647 0.00211377)
(0.0929736 0.00141843 0.00192623)
(0.0913665 0.00127089 0.00180047)
(0.0898579 0.00115949 0.00170376)
(0.0884615 0.00106904 0.00160211)
(0.0871695 0.000996921 0.00148989)
(0.085976 0.000948444 0.00137643)
(0.0848683 0.00091984 0.00126734)
(0.0838305 0.000906126 0.00116007)
(0.0828549 0.000901956 0.0010467)
(0.0819424 0.000901864 0.000916654)
(0.0811105 0.000892233 0.000751475)
(0.080402 0.000860995 0.000524784)
(0.0798646 0.000746747 0.000118765)
(0.0795802 0.000538759 -0.000604985)
(0.0788021 -0.00017721 -0.00234332)
(0.10014 0.00086924 0.000775001)
(0.100454 0.00196351 0.00196235)
(0.100911 0.00233439 0.00242742)
(0.100979 0.00244109 0.00252644)
(0.100694 0.00233657 0.00242607)
(0.100225 0.00211232 0.00219716)
(0.0997106 0.00182306 0.00191607)
(0.0991865 0.00157515 0.00166464)
(0.0986938 0.00138921 0.00146085)
(0.0982499 0.00124916 0.00129301)
(0.0978626 0.00114549 0.00115346)
(0.0975296 0.00107065 0.0010366)
(0.0972483 0.00101488 0.000935615)
(0.0970186 0.000969193 0.000842277)
(0.096843 0.000927623 0.000746142)
(0.0967249 0.00087781 0.000633113)
(0.0966653 0.000797542 0.000481057)
(0.0966503 0.000656942 0.000261906)
(0.0966173 0.000424237 -6.38256e-05)
(0.0967055 3.94924e-05 -0.000556034)
(0.10006 0.000641365 0.0006414)
(0.100502 0.00164495 0.00164507)
(0.101149 0.00221222 0.00221246)
(0.101738 0.00243968 0.00244009)
(0.102205 0.00244155 0.00244222)
(0.102502 0.00231297 0.002314)
(0.102647 0.0020916 0.00209331)
(0.102716 0.00186756 0.00187026)
(0.102744 0.00166869 0.0016731)
(0.10276 0.00150091 0.00150811)
(0.102783 0.00136017 0.00137187)
(0.102823 0.00124132 0.00126015)
(0.102886 0.0011387 0.00116875)
(0.102977 0.00104527 0.0010928)
(0.103095 0.000952782 0.00102682)
(0.103243 0.000850926 0.000964368)
(0.103412 0.000727141 0.000897334)
(0.103588 0.000567584 0.000815366)
(0.103749 0.00036472 0.000709537)
(0.104052 0.000188516 0.000651952)
(0.100046 0.000395678 0.000540261)
(0.10048 0.00104475 0.00138416)
(0.101154 0.00147517 0.00192309)
(0.101913 0.00170494 0.00219281)
(0.102632 0.0017796 0.00229455)
(0.103301 0.00174409 0.00227908)
(0.103894 0.00163304 0.00218696)
(0.10439 0.00148972 0.00205485)
(0.104817 0.00134211 0.00190868)
(0.105195 0.00120519 0.00177166)
(0.105538 0.00108305 0.00165352)
(0.105859 0.000975356 0.00155649)
(0.106168 0.000877733 0.00148159)
(0.106472 0.000784944 0.00142855)
(0.106773 0.000694212 0.0013968)
(0.107075 0.00059935 0.00138818)
(0.10738 0.000494541 0.00140681)
(0.10769 0.000375577 0.00145734)
(0.10802 0.000246409 0.00153754)
(0.108487 0.000125887 0.00165287)
(0.100039 0.000131326 0.000478782)
(0.100448 0.000350475 0.00123483)
(0.101114 0.000505044 0.00174658)
(0.101909 0.000597138 0.00202703)
(0.102728 0.000638538 0.0021525)
(0.103529 0.000638198 0.00218716)
(0.104297 0.000604487 0.00215447)
(0.105006 0.000559221 0.00208138)
(0.105641 0.000510182 0.00198416)
(0.106213 0.000462284 0.00187953)
(0.106733 0.000418281 0.00178013)
(0.107212 0.000378861 0.00169502)
(0.107659 0.00034333 0.00163157)
(0.108086 0.000309747 0.00159306)
(0.108496 0.000277866 0.00158069)
(0.108889 0.000248795 0.00159833)
(0.10927 0.000221213 0.00165428)
(0.109653 0.000193357 0.00175615)
(0.110068 0.000167421 0.00189581)
(0.110609 0.000155129 0.00205223)
(0.100039 -0.00013131 0.000478772)
(0.100448 -0.000350434 0.00123479)
(0.101114 -0.00050497 0.00174651)
(0.101909 -0.000597009 0.0020269)
(0.102728 -0.0006383 0.00215224)
(0.103529 -0.000637787 0.00218672)
(0.104298 -0.000603731 0.0021538)
(0.105007 -0.000557958 0.00208033)
(0.105643 -0.000508014 0.00198254)
(0.106216 -0.000458539 0.00187689)
(0.106738 -0.000411962 0.00177567)
(0.107219 -0.000368598 0.00168738)
(0.10767 -0.000327492 0.00161877)
(0.108101 -0.000286066 0.00157281)
(0.108518 -0.000242011 0.00154951)
(0.10892 -0.000191771 0.00154894)
(0.10931 -0.000133305 0.00157694)
(0.109699 -6.23595e-05 0.00163775)
(0.110112 2.04671e-05 0.00172247)
(0.110641 0.000107021 0.00180783)
(0.100046 -0.000395693 0.000540232)
(0.10048 -0.0010448 0.00138406)
(0.101154 -0.00147525 0.0019229)
(0.101913 -0.00170506 0.00219246)
(0.102632 -0.00177982 0.00229394)
(0.103302 -0.00174446 0.00227807)
(0.103895 -0.00163365 0.0021854)
(0.104392 -0.00149066 0.00205228)
(0.10482 -0.00134361 0.00190472)
(0.1052 -0.00120739 0.00176546)
(0.105545 -0.00108634 0.0016434)
(0.105871 -0.000980384 0.0015401)
(0.106186 -0.000886081 0.00145477)
(0.1065 -0.000798618 0.00138503)
(0.106817 -0.000714334 0.0013274)
(0.10714 -0.000627469 0.00127813)
(0.107474 -0.00053246 0.00123462)
(0.107819 -0.00042413 0.00119539)
(0.10819 -0.000303599 0.00115984)
(0.108659 -0.000180632 0.00113906)
(0.10006 -0.0006414 0.000641366)
(0.100502 -0.00164506 0.00164495)
(0.101149 -0.00221246 0.00221223)
(0.101738 -0.00244009 0.00243969)
(0.102205 -0.00244222 0.00244157)
(0.102502 -0.002314 0.002313)
(0.102646 -0.0020933 0.00209164)
(0.102716 -0.00187026 0.0018676)
(0.102744 -0.00167309 0.00166874)
(0.10276 -0.0015081 0.00150097)
(0.102783 -0.00137186 0.00136025)
(0.102823 -0.00126014 0.00124142)
(0.102886 -0.00116874 0.00113882)
(0.102976 -0.00109277 0.00104539)
(0.103095 -0.00102677 0.000952903)
(0.103243 -0.000964317 0.000851062)
(0.103412 -0.000897264 0.000727279)
(0.103587 -0.00081527 0.000567693)
(0.103749 -0.000709425 0.000364784)
(0.104051 -0.000652031 0.000188714)
(0.10014 -0.000869264 0.000774982)
(0.100454 -0.00196363 0.00196229)
(0.100911 -0.00233468 0.00242731)
(0.100978 -0.00244157 0.00252619)
(0.100694 -0.00233726 0.00242564)
(0.100225 -0.00211323 0.00219641)
(0.0997092 -0.00182447 0.0019149)
(0.0991842 -0.00157766 0.00166289)
(0.0986898 -0.00139352 0.00145781)
(0.0982428 -0.00125635 0.00128764)
(0.0978504 -0.00115755 0.0011447)
(0.0975091 -0.00109038 0.00102162)
(0.0972159 -0.00104661 0.000909664)
(0.0969698 -0.00101909 0.0007979)
(0.09677 -0.00100692 0.000676188)
(0.0966185 -0.00100638 0.000527112)
(0.0965158 -0.00101294 0.000326298)
(0.096456 -0.00101686 3.67955e-05)
(0.0964084 -0.00100353 -0.000380952)
(0.0964985 -0.000949073 -0.000925377)
(0.099413 -0.000270233 0.000345207)
(0.0988664 -0.00187492 0.00201892)
(0.0979215 -0.00218907 0.0025729)
(0.096366 -0.00190849 0.00237946)
(0.0946336 -0.00162683 0.00211346)
(0.0929724 -0.00141895 0.00192573)
(0.0913642 -0.00127174 0.00179972)
(0.089854 -0.00116091 0.00170254)
(0.0884546 -0.00107133 0.00160004)
(0.0871579 -0.00100071 0.00148642)
(0.0859563 -0.000954389 0.00137061)
(0.084835 -0.00093013 0.00125772)
(0.0837752 -0.000923881 0.00114469)
(0.0827641 -0.000931966 0.00102295)
(0.0817945 -0.000952995 0.000880634)
(0.080867 -0.000986679 0.000700803)
(0.0799829 -0.00103102 0.000454754)
(0.079142 -0.00107617 1.5688e-05)
(0.0783234 -0.00113565 -0.000772007)
(0.0769729 -0.00118942 -0.00222809)
(0.0995405 0.000321901 0.000245009)
(0.0992576 0.00154095 0.00105546)
(0.098849 0.00211448 0.00150202)
(0.098125 0.00209169 0.00157888)
(0.0973372 0.00188628 0.00151384)
(0.0965855 0.00166618 0.00144461)
(0.0958664 0.00149862 0.00140692)
(0.0951992 0.00137261 0.00137355)
(0.0945715 0.00128656 0.00132413)
(0.0939278 0.00123216 0.00124692)
(0.0933017 0.00119605 0.00114762)
(0.0926916 0.00117487 0.00103617)
(0.092089 0.00116714 0.000917994)
(0.0914879 0.00117134 0.000790587)
(0.090882 0.00118471 0.000644875)
(0.0902639 0.0012042 0.000446222)
(0.0896281 0.00122909 0.000163896)
(0.0889566 0.00127012 -0.00026215)
(0.0882153 0.00134468 -0.000926165)
(0.0874102 0.00140279 -0.00206174)
(0.100093 0.000763206 0.000445892)
(0.100504 0.00174903 0.00119437)
(0.101105 0.00212957 0.0015866)
(0.101635 0.00223472 0.00174008)
(0.101979 0.00228723 0.0017817)
(0.102172 0.00223626 0.00172809)
(0.102254 0.00211651 0.00160653)
(0.102278 0.00196567 0.00145768)
(0.102281 0.00180406 0.00130077)
(0.102275 0.00165603 0.00114932)
(0.10227 0.00154936 0.00101613)
(0.102274 0.00147604 0.000899097)
(0.102287 0.00142738 0.000790685)
(0.10231 0.00139881 0.000681453)
(0.102346 0.00138709 0.000558942)
(0.102395 0.00139017 0.000411991)
(0.102454 0.00140707 0.000223773)
(0.102518 0.00143878 -2.63955e-05)
(0.102591 0.00148983 -0.000352982)
(0.1028 0.00155532 -0.000722105)
(0.100046 0.00054023 0.000395693)
(0.10048 0.00138406 0.0010448)
(0.101154 0.00192289 0.00147525)
(0.101913 0.00219244 0.00170506)
(0.102632 0.00229392 0.00177982)
(0.103302 0.00227805 0.00174446)
(0.103895 0.00218536 0.00163365)
(0.104392 0.00205224 0.00149066)
(0.10482 0.00190466 0.00134361)
(0.1052 0.00176539 0.00120739)
(0.105545 0.00164331 0.00108634)
(0.105871 0.00153999 0.000980375)
(0.106187 0.00145464 0.000886069)
(0.1065 0.0013849 0.000798621)
(0.106817 0.00132726 0.000714342)
(0.107141 0.00127795 0.000627454)
(0.107474 0.00123441 0.000532417)
(0.10782 0.00119517 0.000424046)
(0.108191 0.0011596 0.00030342)
(0.10866 0.00113874 0.000180173)
(0.100036 0.000323117 0.000323144)
(0.100429 0.000868598 0.000868682)
(0.10108 0.00126226 0.00126242)
(0.101891 0.00150414 0.00150441)
(0.102756 0.00162119 0.00162163)
(0.103616 0.00164218 0.00164286)
(0.104446 0.00160386 0.00160488)
(0.105224 0.00152516 0.00152674)
(0.105939 0.00142504 0.00142747)
(0.106595 0.00131925 0.00132302)
(0.1072 0.00121804 0.00122397)
(0.107765 0.00112608 0.00113543)
(0.108298 0.00104434 0.0010591)
(0.108809 0.00097188 0.000994979)
(0.109304 0.000906905 0.00094241)
(0.109791 0.000847241 0.000900545)
(0.110276 0.000790797 0.000868559)
(0.110768 0.000735814 0.000844939)
(0.111285 0.000683017 0.000826133)
(0.111883 0.000645638 0.000812991)
(0.100031 0.000107067 0.000281387)
(0.100395 0.000293018 0.000768652)
(0.101024 0.000434032 0.00113312)
(0.101843 0.000526154 0.00136931)
(0.102751 0.000576236 0.00150164)
(0.103688 0.000591572 0.00155457)
(0.104617 0.000582083 0.00154979)
(0.105515 0.000557357 0.00150923)
(0.106366 0.000523597 0.00144619)
(0.107163 0.000486295 0.00137104)
(0.107905 0.000449629 0.00129267)
(0.108598 0.000415795 0.00121807)
(0.109249 0.000385401 0.00115239)
(0.109866 0.000357888 0.0010997)
(0.110458 0.000331825 0.00106401)
(0.111032 0.00030713 0.00104686)
(0.111596 0.0002838 0.00104803)
(0.11216 0.000261688 0.00106484)
(0.112744 0.0002411 0.00109178)
(0.113402 0.000229108 0.00111861)
(0.100031 -0.000107072 0.000281376)
(0.100395 -0.000293035 0.000768614)
(0.101024 -0.000434066 0.00113304)
(0.101843 -0.000526209 0.00136916)
(0.102751 -0.000576325 0.00150139)
(0.103688 -0.000591716 0.0015542)
(0.104617 -0.0005823 0.00154927)
(0.105516 -0.000557617 0.00150846)
(0.106367 -0.000523866 0.00144499)
(0.107164 -0.000486562 0.00136918)
(0.107907 -0.000449956 0.00128977)
(0.1086 -0.000416392 0.00121352)
(0.109251 -0.000386727 0.00114534)
(0.109869 -0.000360536 0.00108879)
(0.110461 -0.000335833 0.00104709)
(0.111036 -0.000311623 0.0010213)
(0.1116 -0.000287506 0.00101107)
(0.112161 -0.000264015 0.00101402)
(0.112739 -0.000239632 0.00102639)
(0.113391 -0.000214727 0.00104089)
(0.100036 -0.000323145 0.000323119)
(0.100429 -0.000868682 0.000868606)
(0.10108 -0.00126242 0.00126227)
(0.101891 -0.00150441 0.00150416)
(0.102756 -0.00162163 0.00162121)
(0.103616 -0.00164286 0.00164222)
(0.104446 -0.00160488 0.0016039)
(0.105224 -0.00152674 0.00152522)
(0.105939 -0.00142748 0.00142511)
(0.106595 -0.00132303 0.00131933)
(0.1072 -0.00122398 0.00121814)
(0.107765 -0.00113544 0.0011262)
(0.108298 -0.00105911 0.00104449)
(0.108808 -0.000995005 0.000972037)
(0.109304 -0.000942448 0.000907073)
(0.109791 -0.000900598 0.000847426)
(0.110276 -0.000868637 0.000790991)
(0.110768 -0.000845066 0.000735997)
(0.111285 -0.000826345 0.000683155)
(0.111882 -0.000813329 0.000645672)
(0.100046 -0.000540261 0.00039568)
(0.10048 -0.00138416 0.00104476)
(0.101154 -0.00192309 0.00147518)
(0.101913 -0.00219281 0.00170496)
(0.102632 -0.00229455 0.00177962)
(0.103301 -0.00227908 0.00174412)
(0.103894 -0.00218696 0.00163308)
(0.10439 -0.00205485 0.00148978)
(0.104817 -0.00190868 0.00134218)
(0.105195 -0.00177166 0.00120527)
(0.105538 -0.00165351 0.00108315)
(0.105859 -0.00155647 0.000975476)
(0.106168 -0.00148157 0.000877873)
(0.106471 -0.00142853 0.000785104)
(0.106773 -0.00139678 0.000694374)
(0.107075 -0.00138813 0.000599499)
(0.10738 -0.00140672 0.000494663)
(0.10769 -0.0014572 0.000375629)
(0.108019 -0.00153739 0.000246336)
(0.108486 -0.00165286 0.000125671)
(0.100093 -0.000763211 0.000445891)
(0.100504 -0.00174905 0.00119437)
(0.101105 -0.00212966 0.00158659)
(0.101634 -0.00223504 0.00174011)
(0.101979 -0.00228787 0.00178177)
(0.102171 -0.00223721 0.00172821)
(0.102252 -0.00211795 0.00160681)
(0.102275 -0.00196784 0.00145822)
(0.102276 -0.00180732 0.00130159)
(0.102266 -0.00166123 0.00115105)
(0.102255 -0.00155843 0.00101905)
(0.102249 -0.00149149 0.000903899)
(0.102244 -0.00145334 0.00079612)
(0.102241 -0.00144231 0.000687447)
(0.102235 -0.00146008 0.000568713)
(0.10222 -0.00151268 0.00043173)
(0.102184 -0.00161438 0.000259969)
(0.102106 -0.00178052 3.11537e-05)
(0.101962 -0.00201575 -0.000272288)
(0.102107 -0.0023895 -0.000552601)
(0.0995405 -0.0003219 0.000245014)
(0.0992576 -0.00154094 0.00105548)
(0.0988489 -0.00211454 0.00150206)
(0.0981247 -0.00209181 0.00157895)
(0.0973365 -0.00188648 0.00151407)
(0.0965842 -0.00166649 0.00144514)
(0.095864 -0.00149898 0.00140791)
(0.0951951 -0.00137321 0.0013752)
(0.0945641 -0.00128795 0.00132714)
(0.093915 -0.0012354 0.00125174)
(0.0932797 -0.00120219 0.00115506)
(0.092654 -0.0011865 0.0010475)
(0.0920249 -0.00118684 0.000936141)
(0.0913785 -0.00120392 0.000820132)
(0.0906964 -0.00124135 0.000689309)
(0.089953 -0.00130681 0.000524804)
(0.089107 -0.00141499 0.000311232)
(0.0880598 -0.00159158 -3.09247e-05)
(0.0867517 -0.00177084 -0.000585947)
(0.0854099 -0.00299834 -0.00116088)
(0.0993801 5.89258e-05 3.37531e-05)
(0.0992677 0.00120002 0.000274273)
(0.0989803 0.00188852 0.000432125)
(0.0984745 0.00200654 0.000483021)
(0.0979953 0.0019148 0.000478057)
(0.0975703 0.00173491 0.000464089)
(0.09718 0.00154759 0.00045024)
(0.0968291 0.00138911 0.000437778)
(0.0965272 0.00127101 0.000428335)
(0.0962694 0.00120122 0.000414944)
(0.0959896 0.00117546 0.000388618)
(0.0956865 0.00117624 0.000349706)
(0.0953554 0.00119069 0.000299928)
(0.0949781 0.00121842 0.000238231)
(0.0945388 0.00126747 0.000162203)
(0.0940143 0.00134942 5.70141e-05)
(0.0933639 0.00148401 -0.000105121)
(0.0925061 0.00169193 -0.000364734)
(0.091358 0.00198263 -0.000782551)
(0.0904016 0.00256372 -0.00161566)
(0.100087 0.000707019 0.000144359)
(0.100477 0.0016178 0.00039041)
(0.101066 0.00203469 0.000540964)
(0.101694 0.00211773 0.000609904)
(0.102269 0.00215052 0.000635554)
(0.102742 0.00218048 0.00062599)
(0.103123 0.00213521 0.000593404)
(0.103427 0.00204621 0.000546963)
(0.103678 0.00193855 0.000499917)
(0.103895 0.00183556 0.000454173)
(0.104089 0.00174156 0.000405436)
(0.104272 0.00166269 0.000353702)
(0.104444 0.00161684 0.000301025)
(0.104595 0.00160732 0.000242919)
(0.104725 0.0016254 0.000172747)
(0.104835 0.00167508 8.55598e-05)
(0.104914 0.0017774 -3.05922e-05)
(0.104957 0.00194987 -0.000190595)
(0.104978 0.00219258 -0.000407774)
(0.105288 0.00244958 -0.00069179)
(0.100039 0.000478771 0.000131309)
(0.100448 0.00123479 0.000350433)
(0.101114 0.00174651 0.000504969)