/*--------------------------------*- C++ -*----------------------------------*\
| =========                 |                                                 |
| \\      /  F ield         | OpenFOAM: The Open Source CFD Toolbox           |
|  \\    /   O peration     | Version:  2212                                  |
|   \\  /    A nd           | Website:  www.openfoam.com                      |
|    \\/     M anipulation  |                                                 |
\*---------------------------------------------------------------------------*/
FoamFile
{
    version     2.0;
    format      ascii;
    arch        "LSB;label=32;scalar=64";
    class       surfaceVectorField;
    location    "2.25";
    object      Uf;
}
// * * * * * * * * * * * * * * * * * * * * * * * * * * * * * * * * * * * * * //

dimensions      [0 1 -1 0 0 0 0];

internalField   nonuniform List<vector> 
19019
(
(0.0993441 -0.00341903 -0.003419)
(0.0973536 0.00106247 -0.00148427)
(0.0973536 -0.00148428 0.00106247)
(0.0834792 0.00197582 0.00197588)
(0.0930873 0.00326894 0.00253351)
(0.0930873 0.00253345 0.003269)
(0.0745173 0.00195863 0.00195876)
(0.0848642 0.00163576 0.00179242)
(0.0848642 0.00179232 0.00163585)
(0.0685481 0.00115892 0.00115921)
(0.0786283 0.00107335 0.00122152)
(0.0786284 0.00122131 0.00107353)
(0.0642367 0.00069668 0.000697203)
(0.0740535 0.000785022 0.00086543)
(0.0740536 0.000865051 0.000785431)
(0.0607577 0.000494189 0.000495276)
(0.0704433 0.000649998 0.000669868)
(0.0704435 0.000669228 0.000650658)
(0.057939 0.000373656 0.000375761)
(0.067493 0.000545739 0.000509702)
(0.0674933 0.000508387 0.00054713)
(0.0556166 0.000286028 0.000289566)
(0.065053 0.000467097 0.000389472)
(0.0650535 0.000387223 0.000469543)
(0.0536289 0.000223824 0.000229593)
(0.0629695 0.00041221 0.000311168)
(0.0629705 0.000307498 0.000416338)
(0.0518866 0.000177872 0.000187514)
(0.0611373 0.000367645 0.000260465)
(0.061139 0.000254461 0.000374596)
(0.050341 0.000142337 0.000158462)
(0.0594973 0.000325921 0.000229252)
(0.0595005 0.000218579 0.000337762)
(0.048961 0.000112566 0.000138247)
(0.0580164 0.000285 0.0002114)
(0.0580224 0.000193435 0.000304686)
(0.0477198 8.4724e-05 0.000123706)
(0.0566694 0.0002456 0.000201631)
(0.05668 0.000175386 0.000277209)
(0.0465977 5.39063e-05 0.00011376)
(0.0554368 0.000205542 0.0001969)
(0.0554537 0.000162452 0.000256268)
(0.0456015 2.48537e-05 0.000108201)
(0.054314 0.000156145 0.00019878)
(0.0543404 0.000146951 0.000238295)
(0.0447472 -1.04595e-05 0.000109378)
(0.0533095 9.59198e-05 0.000204435)
(0.0533512 0.000130774 0.000219734)
(0.0440904 -0.000102799 9.7833e-05)
(0.0524651 8.14746e-06 0.000218718)
(0.0525366 9.36071e-05 0.000202633)
(0.043995 -0.000266392 3.38979e-05)
(0.0519284 -0.000172238 0.000192368)
(0.0520608 -4.31188e-05 0.0001422)
(0.0451463 -0.0015529 -0.000976013)
(0.0522544 -0.000519522 5.12877e-05)
(0.0525421 -0.000277218 -3.76675e-05)
(0.0508831 -0.00340393 -0.00208341)
(0.0508659 -0.00217986 -0.00170144)
(0.0984572 0.0024764 0.00172992)
(0.0996871 0.000439209 0.000345486)
(0.100049 0.00105637 0.000750978)
(0.0958349 0.00314795 0.00243274)
(0.0978162 0.00273266 0.00228232)
(0.0982937 0.00280913 0.00216152)
(0.0914501 0.00223014 0.00186944)
(0.095496 0.0030015 0.00230323)
(0.0963041 0.00244249 0.00199792)
(0.0875955 0.00167425 0.00150571)
(0.0926192 0.00229899 0.00183897)
(0.0936671 0.00198042 0.00172719)
(0.0841481 0.0014394 0.00127613)
(0.0897675 0.00189123 0.00153598)
(0.0909051 0.00171918 0.00149823)
(0.0811885 0.00126434 0.00102959)
(0.0872323 0.0016553 0.00129528)
(0.0884351 0.0014537 0.00121261)
(0.0787023 0.00110836 0.000795407)
(0.0850069 0.00149004 0.00107823)
(0.086306 0.0011821 0.000910128)
(0.0765582 0.000989003 0.000627676)
(0.0830612 0.00136822 0.000915154)
(0.0844824 0.000980624 0.000693233)
(0.0746534 0.000899785 0.000522454)
(0.0813249 0.00127294 0.000804788)
(0.082883 0.000841097 0.000552924)
(0.0729268 0.000821851 0.00046042)
(0.0797467 0.00118462 0.00073176)
(0.0814526 0.000737523 0.000462797)
(0.0713422 0.000743772 0.000426251)
(0.0782978 0.0010961 0.000688579)
(0.080159 0.00065013 0.000404807)
(0.0698779 0.000664543 0.000408292)
(0.0769559 0.00100591 0.000666302)
(0.0789767 0.00057078 0.000367122)
(0.0685184 0.000586203 0.000399794)
(0.0757026 0.000913387 0.000657416)
(0.0778876 0.000500402 0.000344474)
(0.0672541 0.000502549 0.000400544)
(0.0745258 0.000815227 0.000658103)
(0.0768865 0.000435778 0.00033317)
(0.066084 0.000393848 0.000409304)
(0.0734202 0.000701515 0.000670758)
(0.0759741 0.000362161 0.000332939)
(0.0650328 0.000237372 0.000418068)
(0.0723897 0.000553996 0.000693461)
(0.075159 0.000261917 0.000340703)
(0.0641662 -2.53521e-05 0.000381643)
(0.0714587 0.000344217 0.000717829)
(0.0744717 0.000110111 0.000344101)
(0.0637304 -0.000538505 0.000210355)
(0.0707011 -6.09229e-05 0.00068626)
(0.0739779 -0.00018029 0.000264996)
(0.0644233 -0.0022277 -0.000874274)
(0.0703427 -0.000878107 0.000533773)
(0.0738376 -0.000834031 -0.000132009)
(0.0691195 -0.00328599 -0.000600657)
(0.0732227 -0.00318253 -0.00220487)
(0.0993753 0.00118206 0.00107258)
(0.099473 0.000349735 0.00030706)
(0.0997475 0.000610952 0.000779891)
(0.0984948 0.0022959 0.002032)
(0.0990504 0.0015767 0.00172049)
(0.0995971 0.00201819 0.00200294)
(0.0971412 0.00247616 0.00204878)
(0.0983577 0.0021309 0.00216898)
(0.0992973 0.0024613 0.00210258)
(0.0954394 0.00224644 0.00176766)
(0.0971932 0.00203543 0.0020026)
(0.0984883 0.00237408 0.0019029)
(0.0937505 0.00201957 0.00152289)
(0.0959049 0.00185509 0.00175468)
(0.0974223 0.00218023 0.00168917)
(0.0921376 0.0018627 0.00134535)
(0.0946712 0.0017319 0.00154321)
(0.0963094 0.00198362 0.00150904)
(0.0906004 0.00175109 0.00121634)
(0.0934807 0.00165135 0.00138735)
(0.0952041 0.00179977 0.00134394)
(0.0891492 0.00165124 0.00111614)
(0.0923663 0.0015744 0.00126705)
(0.0941472 0.0016416 0.00120588)
(0.0878004 0.00154317 0.00103604)
(0.0913283 0.00147735 0.00117463)
(0.0931643 0.00149959 0.00109929)
(0.0865544 0.00142844 0.000977577)
(0.0903362 0.00136406 0.00110823)
(0.0922586 0.00136623 0.00101974)
(0.0853952 0.00131408 0.000942297)
(0.089401 0.00124798 0.00106584)
(0.0914294 0.00124308 0.000967015)
(0.0843049 0.00120111 0.000927065)
(0.0885128 0.00113122 0.00104408)
(0.090667 0.00112962 0.000937222)
(0.0832689 0.0010837 0.000927992)
(0.0876556 0.00101338 0.0010396)
(0.08996 0.00102055 0.000925704)
(0.082278 0.000951581 0.000942524)
(0.0868161 0.000889171 0.00105069)
(0.0893009 0.000906681 0.00092889)
(0.0813283 0.000790429 0.000969886)
(0.0859817 0.000745175 0.00107773)
(0.0886855 0.000777499 0.000947491)
(0.0804238 0.000577442 0.00100898)
(0.0851408 0.000558351 0.00112299)
(0.0881151 0.000616335 0.000981094)
(0.0795712 0.000234825 0.00105387)
(0.0842745 0.00030226 0.00119138)
(0.0875906 0.000397131 0.00102896)
(0.0787543 -0.000378633 0.00110643)
(0.0833365 -0.000112552 0.00129343)
(0.0871091 3.63362e-05 0.00108792)
(0.0778886 -0.00150067 0.00116353)
(0.0822871 -0.00080689 0.00140572)
(0.086645 -0.000562513 0.00117827)
(0.0809399 -0.00171689 0.00204381)
(0.0859569 -0.00156492 0.00130057)
(0.0996493 0.000650242 0.00093142)
(0.0994625 0.000129366 0.000192499)
(0.0997993 0.000375099 0.000741365)
(0.0990854 0.00127876 0.00182774)
(0.0992625 0.000636824 0.00137062)
(0.0998409 0.00115028 0.00181423)
(0.0984491 0.00154049 0.00210318)
(0.0989128 0.000973307 0.00200363)
(0.0999047 0.00153629 0.00209022)
(0.0977073 0.00154649 0.00198915)
(0.0982948 0.00104986 0.0020508)
(0.0997672 0.00163138 0.00202322)
(0.0969387 0.00147957 0.00177649)
(0.0976568 0.00100723 0.00189995)
(0.0995091 0.00160913 0.00189613)
(0.0962064 0.00142648 0.00158274)
(0.0970636 0.0009597 0.00169888)
(0.0991988 0.00154689 0.00175246)
(0.0955197 0.0013915 0.0014361)
(0.0965036 0.000932675 0.0015216)
(0.0988534 0.00147357 0.00162708)
(0.0948679 0.0013511 0.00133059)
(0.095989 0.000915885 0.00138067)
(0.0985084 0.00139122 0.00151711)
(0.0942294 0.00128935 0.00126169)
(0.0955174 0.000900997 0.00128124)
(0.0981731 0.00129682 0.00142311)
(0.0935959 0.00120329 0.00121881)
(0.0950574 0.000867014 0.00122186)
(0.0978233 0.00119002 0.00134908)
(0.0929683 0.00110115 0.00119436)
(0.094593 0.000807043 0.00119293)
(0.0974803 0.00107962 0.00130002)
(0.0923412 0.000991664 0.0011867)
(0.0941206 0.000735498 0.00118614)
(0.0971445 0.000970551 0.00127253)
(0.0917041 0.000877948 0.00119544)
(0.0936302 0.000661781 0.00119547)
(0.0968076 0.000862475 0.00126449)
(0.0910415 0.000754486 0.00122273)
(0.093103 0.000586922 0.00122257)
(0.0964621 0.000751398 0.00127753)
(0.0903305 0.000606771 0.00127424)
(0.0925194 0.000506655 0.00127479)
(0.0960965 0.000627877 0.00131578)
(0.0895371 0.000417675 0.00136119)
(0.0918473 0.000407893 0.00136107)
(0.095694 0.000478465 0.0013885)
(0.0886021 0.000139725 0.00150381)
(0.0910386 0.000287166 0.00150285)
(0.095227 0.000287904 0.00151426)
(0.087432 -0.000308912 0.00168207)
(0.0899822 9.51311e-05 0.00173171)
(0.0946334 4.08677e-06 0.00171756)
(0.0859053 -0.000874004 0.00238559)
(0.0885782 -0.00020644 0.00202432)
(0.0938697 -0.000425378 0.00196888)
(0.0870568 -0.000469378 0.00324709)
(0.0932238 -0.000853433 0.00284933)
(0.0996725 0.000154055 0.000629491)
(0.0993801 5.88663e-09 5.89364e-05)
(0.0997132 0.00010392 0.000687951)
(0.099159 0.000353315 0.00154428)
(0.0992677 3.11894e-08 0.00120003)
(0.0998376 0.00034163 0.00162231)
(0.0986635 0.000457802 0.00194755)
(0.0989803 8.32085e-08 0.00188852)
(0.0999629 0.000485456 0.00199142)
(0.0982119 0.000480954 0.00196075)
(0.0984745 1.5969e-07 0.00200657)
(0.0999916 0.000539616 0.00199673)
(0.0977756 0.000471844 0.00182503)
(0.0979952 2.88771e-07 0.00191486)
(0.100009 0.000546401 0.00191133)
(0.0973613 0.000458619 0.00164155)
(0.0975701 5.32834e-07 0.00173504)
(0.100007 0.000533534 0.00180483)
(0.0969921 0.000446654 0.00146884)
(0.0971794 9.92488e-07 0.00154778)
(0.0999797 0.000511587 0.00168372)
(0.0966696 0.000437704 0.00133095)
(0.0968282 1.76286e-06 0.00138942)
(0.0999364 0.000485289 0.00157396)
(0.0963856 0.000429639 0.00123778)
(0.0965255 3.08827e-06 0.0012716)
(0.099894 0.00046166 0.00148377)
(0.0961135 0.000415357 0.00119128)
(0.0962665 5.3034e-06 0.00120231)
(0.0998577 0.000438261 0.00142263)
(0.0958239 0.000391944 0.00118084)
(0.0959845 9.00641e-06 0.00117733)
(0.0997976 0.000409071 0.00138668)
(0.0955006 0.000362846 0.00119207)
(0.0956778 1.51593e-05 0.00117938)
(0.0997179 0.000375648 0.00136655)
(0.0951293 0.000333009 0.00122062)
(0.0953401 2.54282e-05 0.0011962)
(0.0996125 0.000342006 0.00136551)
(0.0946902 0.000307874 0.0012738)
(0.0949508 4.29979e-05 0.00122905)
(0.0994646 0.000310512 0.00139095)
(0.0941547 0.000287261 0.00136265)
(0.0944913 7.2967e-05 0.00128782)
(0.0992635 0.000284102 0.0014485)
(0.0934747 0.000272223 0.00150654)
(0.0939307 0.000121024 0.00138346)
(0.0989867 0.000259518 0.0015532)
(0.092572 0.000259787 0.00173877)
(0.0932208 0.000206003 0.00154007)
(0.0985989 0.000241351 0.00173465)
(0.0913063 0.000253671 0.00208979)
(0.0922588 0.000342579 0.0017871)
(0.0980315 0.000222897 0.00203597)
(0.0894605 0.000378742 0.00291729)
(0.0909322 0.000579404 0.00214068)
(0.0972174 0.000220047 0.00249456)
(0.0895986 0.0011433 0.00305066)
(0.0964367 0.000383034 0.00368336)
(0.0996725 -0.000154015 0.000629474)
(0.0994625 -0.000129352 0.000192489)
(0.0997132 -0.000103902 0.00068795)
(0.099159 -0.000353203 0.00154427)
(0.0992625 -0.000636773 0.00137062)
(0.0998376 -0.00034156 0.0016223)
(0.0986635 -0.000457579 0.00194754)
(0.0989129 -0.000973212 0.0020036)
(0.099963 -0.000485314 0.00199143)
(0.0982121 -0.000480547 0.00196068)
(0.098295 -0.00104969 0.00205072)
(0.0999917 -0.000539352 0.00199671)
(0.097776 -0.000471083 0.00182486)
(0.0976573 -0.00100688 0.00189979)
(0.100009 -0.000545894 0.00191121)
(0.0973621 -0.000457177 0.00164126)
(0.0970645 -0.00095897 0.0016986)
(0.100007 -0.000532575 0.00180456)
(0.0969935 -0.000444023 0.00146836)
(0.0965053 -0.000931256 0.00152125)
(0.0999807 -0.000509849 0.0016833)
(0.0966721 -0.000433073 0.00133008)
(0.095992 -0.000913343 0.00138006)
(0.0999381 -0.000482252 0.00157328)
(0.09639 -0.000421657 0.00123614)
(0.0955227 -0.000896465 0.00127995)
(0.099897 -0.000456343 0.00148257)
(0.0961211 -0.000401799 0.00118836)
(0.0950667 -0.000859435 0.00121913)
(0.0998627 -0.000429012 0.00142055)
(0.0958373 -0.000369179 0.00117588)
(0.094609 -0.000794596 0.00118794)
(0.0998061 -0.000393276 0.00138328)
(0.095524 -0.000324832 0.0011835)
(0.0941482 -0.00071531 0.00117708)
(0.0997323 -0.000349119 0.00136082)
(0.0951703 -0.000269103 0.00120463)
(0.0936776 -0.000628536 0.00117995)
(0.099638 -0.000298436 0.00135508)
(0.0947626 -0.000200262 0.00124307)
(0.0931853 -0.000531247 0.00119542)
(0.0995099 -0.000238761 0.00137115)
(0.0942833 -0.000109662 0.00130863)
(0.0926603 -0.000415881 0.00122579)
(0.0993389 -0.000165905 0.00141289)
(0.0936983 2.40215e-05 0.00141699)
(0.0920876 -0.000256354 0.00127498)
(0.0991129 -6.97496e-05 0.00148948)
(0.0929538 0.000234947 0.00158841)
(0.0914446 -2.26182e-05 0.00135217)
(0.0988064 6.9869e-05 0.00162422)
(0.0919617 0.000573726 0.00183799)
(0.0906823 0.000335223 0.00147306)
(0.0983729 0.000281035 0.00184283)
(0.0906089 0.00119938 0.00227405)
(0.0897427 0.000895133 0.0016512)
(0.0977756 0.000601429 0.00216228)
(0.0888635 0.00188144 0.00196406)
(0.0974159 0.00117036 0.00268892)
(0.0996493 -0.000650234 0.000931424)
(0.099473 -0.000349741 0.000307059)
(0.0997993 -0.0003751 0.000741367)
(0.0990855 -0.00127874 0.00182772)
(0.0990504 -0.00157673 0.00172047)
(0.0998409 -0.00115027 0.00181424)
(0.0984493 -0.00154046 0.00210309)
(0.0983578 -0.00213096 0.00216887)
(0.0999048 -0.00153629 0.00209017)
(0.0977078 -0.00154637 0.00198899)
(0.0971935 -0.00203553 0.00200241)
(0.0997675 -0.00163135 0.00202304)
(0.0969397 -0.00147923 0.00177624)
(0.0959056 -0.00185518 0.0017544)
(0.0995097 -0.00160902 0.00189577)
(0.0962082 -0.00142577 0.00158241)
(0.0946725 -0.00173192 0.00154278)
(0.0992 -0.0015466 0.00175191)
(0.0955228 -0.00139024 0.00143562)
(0.093483 -0.00165128 0.00138672)
(0.0988555 -0.00147298 0.00162629)
(0.0948734 -0.00134885 0.00132959)
(0.0923702 -0.00157431 0.00126601)
(0.0985121 -0.00139017 0.00151583)
(0.0942392 -0.00128553 0.00125937)
(0.0913353 -0.00147713 0.00117277)
(0.0981795 -0.00129494 0.00142095)
(0.0936129 -0.00119728 0.00121413)
(0.0903482 -0.00136377 0.00110472)
(0.0978341 -0.0011868 0.00134526)
(0.0929975 -0.0010919 0.00118549)
(0.0894215 -0.00124767 0.00105981)
(0.0974988 -0.00107456 0.00129335)
(0.092391 -0.000977088 0.00117105)
(0.0885479 -0.00113119 0.00103319)
(0.097176 -0.000962678 0.00126066)
(0.0917887 -0.00085431 0.00116932)
(0.0877148 -0.00101366 0.00102106)
(0.0968616 -0.000850752 0.00124368)
(0.0911854 -0.000717779 0.00117817)
(0.0869153 -0.000889874 0.00101995)
(0.0965526 -0.000733344 0.00124143)
(0.0905743 -0.000545606 0.00119464)
(0.0861468 -0.000748042 0.00102517)
(0.0962468 -0.000600164 0.00125297)
(0.0899489 -0.00030509 0.00121688)
(0.0854153 -0.000559222 0.00102736)
(0.0959408 -0.000427863 0.00127749)
(0.0893021 4.91382e-05 0.00124992)
(0.0847409 -0.000291335 0.00101892)
(0.0956303 -0.000192561 0.00131633)
(0.0886061 0.000594229 0.00130787)
(0.0841402 0.000131158 0.000976097)
(0.0953028 0.000146908 0.00137833)
(0.0878012 0.00149419 0.00137438)
(0.0836406 0.000832539 0.000899794)
(0.0949421 0.00064657 0.00148013)
(0.0828494 0.00214438 0.000582751)
(0.0946116 0.00141131 0.00161395)
(0.0993753 -0.00118209 0.00107255)
(0.0996871 -0.000439219 0.000345478)
(0.0997475 -0.000610967 0.000779879)
(0.0984949 -0.00229598 0.0020319)
(0.0978162 -0.00273274 0.00228227)
(0.0995971 -0.00201825 0.00200287)
(0.0971415 -0.00247633 0.00204858)
(0.0954961 -0.00300162 0.0023031)
(0.0992974 -0.00246143 0.00210239)
(0.0954398 -0.00224671 0.00176736)
(0.0926194 -0.0022992 0.00183873)
(0.0984885 -0.00237432 0.00190258)
(0.0937514 -0.00202 0.00152245)
(0.0897678 -0.00189164 0.00153563)
(0.0974228 -0.00218061 0.00168868)
(0.0921392 -0.00186335 0.00134467)
(0.0872331 -0.00165598 0.00129474)
(0.0963104 -0.00198425 0.00150835)
(0.0906033 -0.00175212 0.0012152)
(0.0850082 -0.00149117 0.00107735)
(0.0952059 -0.00180074 0.00134284)
(0.0891544 -0.00165294 0.00111428)
(0.0830636 -0.00137009 0.000913692)
(0.0941504 -0.00164311 0.00120399)
(0.0878093 -0.001546 0.001033)
(0.0813292 -0.00127607 0.000802355)
(0.0931697 -0.00150219 0.00109618)
(0.0865697 -0.00143316 0.000972709)
(0.0797542 -0.00118996 0.00072767)
(0.092268 -0.00137068 0.00101456)
(0.0854211 -0.00132189 0.000934178)
(0.0783109 -0.00110538 0.000681276)
(0.0914454 -0.00125037 0.000958372)
(0.0843483 -0.00121371 0.000913029)
(0.0769789 -0.00102125 0.000653567)
(0.0906941 -0.00114178 0.000922538)
(0.0833405 -0.00110339 0.000904115)
(0.0757416 -0.000937042 0.000638245)
(0.0900044 -0.00104081 0.0009012)
(0.0823953 -0.000981701 0.000902044)
(0.0745894 -0.000851664 0.000632511)
(0.089372 -0.000939856 0.000889065)
(0.0815202 -0.000834109 0.000897231)
(0.0735223 -0.000759545 0.00063049)
(0.0887984 -0.000828763 0.00088147)
(0.0807485 -0.000638172 0.000876822)
(0.0725554 -0.00065138 0.00061675)
(0.0882949 -0.000691211 0.000865777)
(0.0801308 -0.0003218 0.000804129)
(0.071744 -0.000495401 0.000574329)
(0.0878849 -0.000502199 0.00082347)
(0.079708 0.000243111 0.000643121)
(0.0712059 -0.000156435 0.000396461)
(0.0875878 -0.000184737 0.000706083)
(0.0795236 0.00147429 0.000181234)
(0.0713007 0.000527842 4.55161e-05)
(0.087419 0.000353361 0.000495599)
(0.0699128 0.00244147 -0.0010495)
(0.0870392 0.00151896 -6.99847e-05)
(0.0984572 -0.00247644 0.00172988)
(0.0973536 -0.00106247 -0.00148428)
(0.100049 -0.00105638 0.000750966)
(0.0958349 -0.00314804 0.00243265)
(0.0930873 -0.00326899 0.00253345)
(0.0982937 -0.00280921 0.00216145)
(0.0914502 -0.00223029 0.00186926)
(0.0848642 -0.00163585 0.00179232)
(0.0963041 -0.00244264 0.00199777)
(0.0875956 -0.00167455 0.00150541)
(0.0786284 -0.00107353 0.00122132)
(0.0936671 -0.00198068 0.00172691)
(0.0841484 -0.00143995 0.00127565)
(0.0740536 -0.000785425 0.000865057)
(0.0909052 -0.00171966 0.0014978)
(0.081189 -0.00126526 0.00102878)
(0.0704435 -0.00065065 0.000669237)
(0.0884353 -0.00145448 0.00121183)
(0.0787032 -0.00110994 0.000794087)
(0.0674933 -0.000547119 0.000508399)
(0.0863063 -0.00118344 0.00090885)
(0.07656 -0.000991715 0.000625485)
(0.0650535 -0.000469529 0.00038724)
(0.0844831 -0.000982874 0.000691103)
(0.0746567 -0.000904502 0.000518758)
(0.0629704 -0.000416322 0.000307519)
(0.0828843 -0.00084498 0.000549293)
(0.0729328 -0.000830054 0.000453581)
(0.0611389 -0.000374577 0.000254486)
(0.0814549 -0.000744256 0.000456514)
(0.0713533 -0.000757633 0.000413876)
(0.0595004 -0.000337739 0.000218609)
(0.0801634 -0.000662068 0.000393048)
(0.069898 -0.00068707 0.000389788)
(0.0580223 -0.00030466 0.000193473)
(0.0789849 -0.000590378 0.000347251)
(0.0685524 -0.000623084 0.000378019)
(0.0566798 -0.000277194 0.000175446)
(0.0779021 -0.000530256 0.000315672)
(0.0673071 -0.000564031 0.00037388)
(0.0554535 -0.000256223 0.000162526)
(0.0769097 -0.000481387 0.000295069)
(0.0661677 -0.000502044 0.000363435)
(0.0543401 -0.000238185 0.000147032)
(0.0760105 -0.000436303 0.000273621)
(0.0651674 -0.000418362 0.000327876)
(0.0533508 -0.000219632 0.000130865)
(0.0752165 -0.000388857 0.000238873)
(0.0644036 -0.000247183 0.000195506)
(0.0525361 -0.000202513 9.37482e-05)
(0.0745706 -0.000314936 0.000163908)
(0.0642013 9.50706e-05 -0.00010305)
(0.0520602 -0.000142027 -4.29552e-05)
(0.0741612 -0.000132004 -5.53969e-05)
(0.0652957 0.000734623 -0.000757399)
(0.0525413 3.78938e-05 -0.000277047)
(0.0742367 0.000347894 -0.000654485)
(0.0508651 0.00170199 -0.00217993)
(0.0731978 0.00174149 -0.00280859)
(0.0993441 0.00341901 -0.00341903)
(0.0973536 0.00148427 0.00106247)
(0.0834792 -0.00197588 0.00197582)
(0.0930873 -0.0025335 0.00326895)
(0.0745173 -0.00195876 0.00195863)
(0.0848642 -0.00179242 0.00163576)
(0.0685481 -0.0011592 0.00115892)
(0.0786283 -0.00122152 0.00107336)
(0.0642367 -0.000697196 0.000696689)
(0.0740535 -0.000865423 0.000785032)
(0.0607577 -0.000495265 0.000494203)
(0.0704433 -0.000669859 0.000650011)
(0.0579389 -0.000375746 0.000373674)
(0.067493 -0.000509689 0.000545756)
(0.0556165 -0.000289547 0.000286051)
(0.0650529 -0.000389455 0.000467118)
(0.0536289 -0.000229571 0.00022385)
(0.0629694 -0.000311148 0.000412236)
(0.0518866 -0.000187489 0.000177904)
(0.0611372 -0.000260441 0.000367675)
(0.0503409 -0.000158431 0.000142375)
(0.0594972 -0.00022922 0.000325955)
(0.0489609 -0.000138215 0.00011262)
(0.0580163 -0.00021136 0.000285039)
(0.0477196 -0.000123658 8.47962e-05)
(0.0566692 -0.000201588 0.000245664)
(0.0465974 -0.000113671 5.39868e-05)
(0.0554367 -0.000196841 0.000205637)
(0.0456012 -0.000108096 2.49358e-05)
(0.0543137 -0.000198703 0.00015627)
(0.0447468 -0.000109266 -1.034e-05)
(0.0533092 -0.000204361 9.60876e-05)
(0.0440899 -9.76805e-05 -0.000102619)
(0.0524647 -0.000218603 8.37441e-06)
(0.0439944 -3.37027e-05 -0.000266183)
(0.0519279 -0.000192174 -0.000171968)
(0.0451457 0.000976171 -0.00155259)
(0.0522538 -5.09892e-05 -0.000519211)
(0.0508827 0.00208373 -0.00340312)
(0.0984572 0.00172988 0.00247644)
(0.100049 0.000750966 0.00105638)
(0.0996871 0.000345478 0.000439219)
(0.0958349 0.00243265 0.00314804)
(0.0982937 0.00216145 0.00280921)
(0.0978162 0.00228227 0.00273274)
(0.0914502 0.00186926 0.00223029)
(0.0963041 0.00199777 0.00244264)
(0.0954961 0.00230309 0.00300162)
(0.0875956 0.00150541 0.00167455)
(0.0936671 0.00172691 0.00198068)
(0.0926194 0.00183872 0.0022992)
(0.0841484 0.00127564 0.00143995)
(0.0909052 0.00149779 0.00171966)
(0.0897679 0.00153563 0.00189164)
(0.081189 0.00102877 0.00126526)
(0.0884353 0.00121182 0.00145449)
(0.0872331 0.00129473 0.00165598)
(0.0787033 0.000794075 0.00110995)
(0.0863063 0.000908838 0.00118344)
(0.0850083 0.00107734 0.00149118)
(0.0765601 0.00062547 0.000991723)
(0.0844831 0.000691088 0.000982885)
(0.0830636 0.000913679 0.00137009)
(0.0746568 0.000518738 0.00090451)
(0.0828844 0.000549274 0.000844994)
(0.0813293 0.000802337 0.00127608)
(0.0729329 0.000453557 0.000830064)
(0.081455 0.000456492 0.000744273)
(0.0797543 0.000727647 0.00118997)
(0.0713534 0.000413844 0.000757642)
(0.0801635 0.000393022 0.000662091)
(0.078311 0.000681247 0.00110539)
(0.0698981 0.000389748 0.000687073)
(0.078985 0.000347219 0.000590405)
(0.076979 0.000653525 0.00102125)
(0.0685526 0.000377957 0.000623082)
(0.0779023 0.000315601 0.00053025)
(0.0757419 0.000638203 0.000937052)
(0.0673074 0.000373786 0.000564058)
(0.0769099 0.000294987 0.000481418)
(0.0745896 0.000632421 0.00085166)
(0.0661682 0.000363316 0.000502107)
(0.0760109 0.000273574 0.00043643)
(0.0735227 0.000630346 0.00075953)
(0.065168 0.00032774 0.000418431)
(0.0752169 0.000238769 0.000388963)
(0.072556 0.000616578 0.000651367)
(0.0644044 0.000195368 0.000247271)
(0.0745711 0.000163775 0.000315043)
(0.0717447 0.000574139 0.000495385)
(0.0642023 -0.000103172 -9.48939e-05)
(0.0741619 -5.5539e-05 0.000132163)
(0.0712068 0.000396234 0.000156442)
(0.0652969 -0.000757152 -0.000734043)
(0.0742374 -0.000654619 -0.000347605)
(0.0713018 4.52252e-05 -0.000527789)
(0.0731988 -0.00280869 -0.00174094)
(0.0699141 -0.00104948 -0.0024411)
(0.10008 0.00135173 0.00135178)
(0.100186 0.000798737 0.000804957)
(0.100186 0.000804938 0.000798756)
(0.100264 0.00221719 0.00221733)
(0.10019 0.00231176 0.00207151)
(0.10019 0.00207141 0.00231184)
(0.099383 0.00243555 0.00243582)
(0.100307 0.00263354 0.00245319)
(0.100307 0.00245295 0.00263371)
(0.0979843 0.00230992 0.00231037)
(0.0998051 0.0025601 0.00245615)
(0.0998052 0.00245575 0.00256042)
(0.0964955 0.00200574 0.00200649)
(0.098863 0.002364 0.00228129)
(0.0988632 0.00228068 0.00236451)
(0.0950735 0.00159633 0.00159759)
(0.0978411 0.0020484 0.0019687)
(0.0978415 0.00196777 0.00204929)
(0.0937769 0.00122517 0.00122728)
(0.0968619 0.00169019 0.00160567)
(0.0968625 0.00160418 0.00169164)
(0.0926205 0.00096007 0.000963672)
(0.0959604 0.0014028 0.00132322)
(0.0959614 0.00132066 0.00140516)
(0.0915987 0.000774391 0.000780611)
(0.0951494 0.00118847 0.00112158)
(0.0951513 0.00111719 0.00119257)
(0.0906962 0.000639467 0.000650555)
(0.0944281 0.00102645 0.000976989)
(0.0944314 0.000969518 0.00103354)
(0.0898938 0.00053663 0.000555422)
(0.0937921 0.000899602 0.000872993)
(0.0937977 0.00085985 0.000911796)
(0.0891725 0.00045695 0.000485719)
(0.0932277 0.00079653 0.000799109)
(0.0932371 0.000777599 0.000816533)
(0.0885238 0.000393142 0.000434773)
(0.0927239 0.000708629 0.000747844)
(0.0927389 0.000714965 0.000739888)
(0.0879509 0.000331137 0.000394638)
(0.0922818 0.000625339 0.000711731)
(0.0923044 0.000662676 0.000673631)
(0.0874637 0.000257036 0.000358018)
(0.0919042 0.000532513 0.000686029)
(0.091938 0.000607921 0.000608583)
(0.087076 0.00015 0.000314335)
(0.0915982 0.000416773 0.00066563)
(0.0916475 0.00053989 0.000533945)
(0.0868058 -3.77201e-05 0.000230281)
(0.0913718 0.000249261 0.000640343)
(0.091441 0.00043034 0.000430028)
(0.0865811 -0.000427788 -2.01611e-05)
(0.0912116 -1.68775e-05 0.000579144)
(0.0913017 0.000232171 0.00025753)
(0.0860386 -0.00140842 -0.000775686)
(0.0910106 -0.000426774 0.000388074)
(0.0911074 -0.000155315 -7.18614e-05)
(0.0910625 -0.00105306 -0.000128533)
(0.0911584 -0.00100727 -0.000592158)
(0.100171 0.00136863 0.00141645)
(0.100118 0.000577381 0.000811312)
(0.100102 0.000699735 0.000700694)
(0.100759 0.00219479 0.00214915)
(0.100478 0.00158278 0.00185879)
(0.100477 0.00182246 0.00186468)
(0.100996 0.00247674 0.00238812)
(0.101004 0.00205862 0.00224261)
(0.101024 0.00234663 0.00238303)
(0.100838 0.0024759 0.00238942)
(0.101292 0.00220326 0.00235231)
(0.101338 0.00250569 0.00254387)
(0.100457 0.00231101 0.00222525)
(0.101309 0.00216702 0.00232252)
(0.101409 0.00245015 0.00247259)
(0.0999673 0.00205563 0.00196886)
(0.101156 0.00201022 0.00217935)
(0.101302 0.00226396 0.00227091)
(0.0994429 0.00178886 0.00170108)
(0.100926 0.00179271 0.00196943)
(0.101098 0.00200793 0.00199942)
(0.0989326 0.00156031 0.00148561)
(0.100663 0.00158178 0.00176739)
(0.100855 0.00176821 0.00175918)
(0.098463 0.00137267 0.00132496)
(0.100406 0.00139213 0.00159316)
(0.100607 0.00156558 0.00156641)
(0.098045 0.0012161 0.00120698)
(0.100168 0.00122354 0.00145033)
(0.100379 0.00139615 0.00141419)
(0.0976788 0.00108309 0.00112401)
(0.0999581 0.00107884 0.00134837)
(0.100183 0.00125392 0.00129605)
(0.0973615 0.000965558 0.00106857)
(0.0997771 0.000953635 0.00128027)
(0.100022 0.00113256 0.00120641)
(0.0970917 0.000853657 0.00103291)
(0.0996219 0.000839182 0.00123841)
(0.0998978 0.00102482 0.00113913)
(0.0968688 0.000736851 0.00101303)
(0.0994919 0.000725146 0.00121808)
(0.0998107 0.000921544 0.00108798)
(0.0966927 0.000601434 0.00100671)
(0.0993849 0.000600031 0.00121937)
(0.0997616 0.000813387 0.00104916)
(0.0965654 0.000426512 0.00100982)
(0.0992988 0.000449917 0.00124313)
(0.0997515 0.000686179 0.001017)
(0.0964865 0.000181385 0.00101519)
(0.099228 0.000252619 0.00129349)
(0.0997774 0.000520755 0.000983496)
(0.0964399 -0.000172173 0.0010107)
(0.0991596 -2.37622e-05 0.00137235)
(0.0998289 0.000290002 0.000933139)
(0.096406 -0.000653126 0.000977154)
(0.0990659 -0.000416577 0.00147289)
(0.0998803 -3.30439e-05 0.000841003)
(0.0991828 -0.000958297 0.00160165)
(0.100071 -0.000414884 0.000726542)
(0.100242 0.000820127 0.00125613)
(0.10009 0.000294325 0.000735354)
(0.100071 0.00041565 0.000602779)
(0.100828 0.00139047 0.00193936)
(0.100491 0.000791954 0.00168402)
(0.100492 0.00112434 0.001587)
(0.101392 0.00166334 0.00218235)
(0.101086 0.00107767 0.00208341)
(0.101128 0.00154071 0.00209414)
(0.101816 0.00176092 0.00226146)
(0.101664 0.00120426 0.00217912)
(0.101767 0.00173253 0.00229434)
(0.10208 0.00175496 0.00226254)
(0.102121 0.00123963 0.00222233)
(0.102291 0.0017896 0.00236753)
(0.102214 0.00166747 0.00217758)
(0.10245 0.00120177 0.00221074)
(0.102711 0.00174334 0.00232239)
(0.102263 0.00153247 0.0020429)
(0.102678 0.0011182 0.00212732)
(0.103036 0.00162534 0.00220284)
(0.102273 0.00137984 0.00188759)
(0.102838 0.00101705 0.00200705)
(0.103285 0.00147804 0.00205085)
(0.102268 0.00122624 0.00173429)
(0.102961 0.000916178 0.00187276)
(0.103489 0.00132516 0.00189244)
(0.102259 0.00108495 0.00160985)
(0.103062 0.000821415 0.00174848)
(0.103665 0.001181 0.00174969)
(0.102252 0.000961362 0.001525)
(0.10315 0.000734901 0.00165091)
(0.103823 0.0010537 0.00163963)
(0.102246 0.000849883 0.00147248)
(0.103234 0.000656193 0.00157971)
(0.103973 0.000942161 0.0015588)
(0.102243 0.000741624 0.00144789)
(0.103312 0.000581873 0.00154055)
(0.104118 0.000839301 0.00150379)
(0.102238 0.000627872 0.00145124)
(0.103377 0.000507742 0.00153431)
(0.104261 0.000738239 0.00147316)
(0.102228 0.000500001 0.0014865)
(0.103428 0.000429192 0.00155767)
(0.104402 0.000632906 0.00146775)
(0.102204 0.000345653 0.0015638)
(0.103461 0.000341235 0.00162232)
(0.104538 0.000516113 0.0014918)
(0.102152 0.000145426 0.00169793)
(0.103462 0.000236239 0.00174605)
(0.104665 0.000376409 0.00155458)
(0.102047 -0.00012054 0.00189892)
(0.103419 0.000107021 0.00195135)
(0.104772 0.000200216 0.00166673)
(0.101821 -0.000411998 0.00220401)
(0.103326 -4.35445e-05 0.00224942)
(0.104855 -1.92876e-05 0.0018334)
(0.103529 -0.000134453 0.00265495)
(0.105154 -0.000219995 0.00211003)
(0.100243 0.000267434 0.00116241)
(0.100087 1.29539e-08 0.000707021)
(0.100064 0.000135819 0.000537335)
(0.100782 0.000465789 0.00182624)
(0.100477 3.80502e-08 0.0016178)
(0.100463 0.00037092 0.00142415)
(0.101401 0.00057562 0.00207623)
(0.101066 6.60631e-08 0.00203469)
(0.101089 0.000525228 0.00193362)
(0.101987 0.000623095 0.00213424)
(0.101694 1.323e-07 0.00211775)
(0.101797 0.000605992 0.00212874)
(0.102506 0.000631481 0.00216579)
(0.102269 2.66922e-07 0.00215062)
(0.102489 0.000639527 0.0022114)
(0.102933 0.000610953 0.00215836)
(0.102741 4.95139e-07 0.00218068)
(0.103119 0.000634563 0.00224241)
(0.103275 0.000572315 0.00209152)
(0.103123 8.48343e-07 0.00213554)
(0.103685 0.000601584 0.00219818)
(0.103551 0.000527129 0.00199362)
(0.103426 1.42613e-06 0.00204672)
(0.104183 0.000555945 0.00210832)
(0.103782 0.000483575 0.00188902)
(0.103677 2.46238e-06 0.00193931)
(0.104618 0.000508657 0.00199709)