/*--------------------------------*- C++ -*----------------------------------*\
| =========                 |                                                 |
| \\      /  F ield         | OpenFOAM: The Open Source CFD Toolbox           |
|  \\    /   O peration     | Version:  2212                                  |
|   \\  /    A nd           | Website:  www.openfoam.com                      |
|    \\/     M anipulation  |                                                 |
\*---------------------------------------------------------------------------*/
FoamFile
{
    version     2.0;
    format      ascii;
    arch        "LSB;label=32;scalar=64";
    class       volScalarField;
    location    "1";
    object      k;
}
// * * * * * * * * * * * * * * * * * * * * * * * * * * * * * * * * * * * * * //

dimensions      [0 2 -2 0 0 0 0];

internalField   nonuniform List<scalar> 
689
(
0.00293183
0.00280509
0.0027114
0.00263204
0.00256594
0.00250942
0.00245979
0.00241399
0.00268185
0.00256873
0.00247682
0.00239528
0.00232449
0.00226195
0.00220476
0.00215361
0.0030348
0.00287415
0.00273282
0.00261312
0.00251158
0.00242248
0.00234307
0.00227217
0.00220836
0.00405577
0.0036695
0.00340686
0.00319511
0.00301839
0.00286781
0.00273597
0.00261938
0.00251534
0.00242181
0.00233728
0.00226056
0.00430149
0.00385036
0.00355007
0.00331503
0.00312039
0.0029546
0.00281155
0.00268597
0.00257309
0.00247091
0.0023781
0.00229374
0.00436492
0.00391984
0.00360983
0.00336608
0.0031629
0.00298878
0.00283707
0.00270401
0.00258505
0.00247712
0.00237908
0.0022898
0.0041156
0.00382032
0.00355885
0.00332999
0.00312939
0.00295305
0.00279819
0.00266171
0.00253976
0.00243023
0.00233172
0.00224301
0.00412124
0.00377931
0.00349075
0.00324377
0.00303071
0.0028499
0.00269369
0.00255913
0.00244267
0.00233987
0.0022483
0.00216635
0.00422953
0.00374811
0.00337331
0.00307763
0.00283732
0.00266574
0.00253156
0.00241854
0.00232091
0.00223508
0.00215838
0.00422212
0.00372307
0.00326457
0.00293289
0.00270241
0.00255001
0.0024376
0.0023433
0.00226566
0.0021977
0.00213698
0.00477378
0.00408956
0.00348521
0.0031402
0.00293215
0.00280537
0.00271166
0.00263223
0.00256605
0.00250941
0.00245977
0.00270189
0.00254956
0.00243731
0.00234313
0.00226558
0.00219771
0.00213698
0.00208626
0.00294692
0.00278916
0.00263698
0.00248454
0.00235124
0.0022293
0.00211108
0.00200776
0.00433548
0.0040105
0.00372687
0.00347605
0.00325292
0.00305158
0.00286878
0.00270393
0.00255203
0.00677269
0.00614845
0.00559691
0.00511949
0.00470961
0.00435559
0.0040425
0.00376435
0.00351561
0.00329228
0.00309169
0.00291065
0.00739622
0.0066813
0.00607517
0.00555379
0.00510119
0.00470487
0.00435912
0.00405618
0.00378454
0.00353971
0.00331897
0.00311971
0.00744774
0.00678617
0.00619748
0.00567792
0.00522016
0.00481644
0.00446069
0.00414969
0.00387408
0.0036251
0.00340011
0.00319647
0.00730027
0.0066195
0.00602499
0.0055091
0.00506133
0.00467123
0.00433259
0.00403738
0.00377361
0.00353594
0.00332164
0.00312759
0.00673273
0.00603417
0.00546732
0.0049967
0.00459971
0.00426351
0.00397123
0.00371108
0.00347765
0.00326704
0.00307618
0.00290205
0.00541878
0.00491477
0.00448395
0.00413684
0.00384946
0.0036007
0.00337646
0.00317355
0.00298682
0.00281394
0.00265338
0.00416052
0.00374197
0.00337232
0.00313042
0.00294925
0.00279102
0.00263811
0.00248516
0.00235155
0.00222932
0.00211153
0.00382057
0.0034126
0.00307296
0.00284001
0.00268237
0.00256929
0.00247727
0.0023956
0.00232471
0.00226206
0.00220483
0.00307806
0.00283742
0.00266579
0.00253167
0.0024187
0.0023211
0.00223528
0.00215859
0.00209106
0.00413681
0.00384935
0.00360078
0.00337676
0.00317402
0.00298737
0.00281452
0.00265407
0.00250472
0.00565267
0.00520083
0.00481108
0.00446929
0.0041656
0.00389314
0.00364705
0.00342352
0.00321996
0.00889681
0.00806743
0.00734979
0.00672497
0.00617867
0.00569923
0.00527646
0.00490122
0.00456625
0.00426563
0.00399433
0.00374885
0.00963288
0.00878058
0.00802038
0.00734703
0.00675156
0.00622435
0.00575639
0.00534027
0.00496916
0.00463653
0.00433713
0.0040667
0.00993588
0.00903544
0.00824515
0.00754985
0.00693646
0.00639375
0.00591204
0.00548343
0.0051014
0.00475953
0.0044521
0.00417474
0.00972698
0.00880317
0.00801301
0.00732778
0.00672862
0.00620171
0.00573616
0.00532344
0.00495619
0.00462764
0.00433225
0.00406569
0.0086755
0.00793444
0.00725744
0.0066536
0.00612031
0.00565049
0.00523593
0.00486833
0.00454026
0.00424579
0.00398018
0.00373975
0.00753777
0.00680919
0.00618407
0.00565308
0.00520107
0.00481116
0.00446922
0.00416543
0.00389291
0.0036467
0.00342336
0.00581572
0.00520006
0.00471869
0.00433655
0.00401206
0.0037283
0.00347711
0.00325364
0.00305203
0.00286875
0.00270459
0.00369005
0.00344631
0.00322251
0.00303544
0.00287493
0.00273348
0.00261362
0.00251194
0.00242271
0.00234319
0.00227232
0.00324385
0.00303114
0.00285037
0.0026941
0.00255946
0.00244294
0.00234012
0.00224852
0.00216653
0.00499793
0.00460146
0.00426516
0.00397253
0.00371212
0.00347851
0.00326776
0.00307682
0.00290264
0.00665436
0.00612118
0.00565142
0.00523683
0.00486916
0.004541
0.00424645
0.00398075
0.00374026
0.0104371
0.009482
0.00864833
0.00791747
0.00727443
0.00670671
0.00620377
0.00575644
0.00535691
0.00499863
0.00467607
0.0043848
0.0114658
0.0104051
0.0094865
0.00868342
0.00797684
0.00735207
0.00679731
0.00630291
0.00586085
0.00546423
0.00510719
0.00478497
0.0117758
0.0106991
0.00975984
0.00893595
0.00820975
0.00756692
0.00699565
0.00648618
0.00603042
0.00562144
0.00525331
0.00492117
0.0113929
0.0103687
0.00946665
0.00867134
0.00796862
0.00734601
0.00679271
0.00629951
0.00585851
0.00546289
0.00510684
0.00478558
0.010437
0.00948191
0.00864814
0.00791719
0.00727406
0.00670629
0.00620333
0.005756
0.0053565
0.00499824
0.00467573
0.00438454
0.00889695
0.00806771
0.00735
0.00672501
0.00617863
0.00569916
0.00527638
0.00490111
0.00456611
0.00426545
0.00399423
0.00677296
0.0061491
0.00559764
0.00512011
0.00471021
0.00435614
0.00404293
0.00376465
0.0035158
0.00329235
0.00309161
0.00405589
0.00366996
0.00340744
0.00319566
0.00301887
0.0028682
0.00273625
0.00261957
0.00251546
0.00242186
0.0023373
0.00332933
0.0031293
0.00295324
0.00279846
0.00266195
0.00253996
0.00243038
0.00233181
0.00224307
0.0055107
0.00506287
0.00467263
0.00433377
0.0040383
0.00377433
0.00353648
0.00332204
0.00312787
0.00732867
0.00672956
0.00620263
0.00573702
0.00532422
0.00495688
0.00462825
0.00433278
0.00406615
0.011393
0.0103688
0.00946692
0.00867169
0.00796902
0.00734644
0.00679315
0.00629995
0.00585893
0.00546329
0.0051072
0.00478589
0.0124872
0.0113708
0.0103846
0.00951382
0.00874356
0.00806033
0.00745238
0.00690967
0.00642368
0.00598714
0.00559389
0.00523883
0.0129461
0.0117492
0.0107131
0.00980743
0.00901014
0.00830454
0.00767731
0.00711756
0.00661631
0.00616599
0.00576025
0.00539393
0.0124873
0.0113708
0.0103846
0.00951373
0.00874344
0.00806019
0.00745223
0.00690952
0.00642353
0.005987
0.00559376
0.00523877
0.0114658
0.0104052
0.00948648
0.00868337
0.00797675
0.00735197
0.0067972
0.00630281
0.00586075
0.00546414
0.00510715
0.00478503
0.00963292
0.00878058
0.00802045
0.00734714
0.00675167
0.00622445
0.00575648
0.00534034
0.00496921
0.00463655
0.00433722
0.00739628
0.00668143
0.00607541
0.00555408
0.0051015
0.00470516
0.00435936
0.00405634
0.00378463
0.00353975
0.00331871
0.00430157
0.00385054
0.00355022
0.00331515
0.00312048
0.00295465
0.00281157
0.00268595
0.00257303
0.00247082
0.00237794
0.0117756
0.010699
0.00975976
0.00893597
0.00820988
0.00756712
0.00699591
0.00648649
0.00603076
0.00562182
0.00525371
0.00492153
0.0129461
0.0117492
0.0107132
0.00980747
0.0090102
0.00830463
0.00767742
0.0071177
0.00661647
0.00616618
0.00576046
0.00539411
0.0132609
0.012076
0.0110277
0.0101021
0.0092835
0.00855753
0.00791153
0.00733472
0.00681798
0.00635359
0.00593507
0.00555709
0.0129461
0.0117492
0.0107132
0.00980746
0.00901018
0.00830459
0.00767736
0.00711763
0.00661639
0.00616609
0.00576038
0.00539409
0.0117757
0.010699
0.0097598
0.00893598
0.00820983
0.00756703
0.00699579
0.00648634
0.00603059
0.00562164
0.00525356
0.00492158
0.00993586
0.00903553
0.00824531
0.00755006
0.00693671
0.00639401
0.00591231
0.00548369
0.00510164
0.00475976
0.00445241
0.00744794
0.0067866
0.00619798
0.00567839
0.00522056
0.00481677
0.00446092
0.00414983
0.00387414
0.00362511
0.00339968
0.00436502
0.00391989
0.00360988
0.00336611
0.00316289
0.00298873
0.00283698
0.00270389
0.00258491
0.00247694
0.00237885
)
;

boundaryField
{
    inlet
    {
        type            fixedValue;
        value           nonuniform List<scalar> 0();
    }
    ami1
    {
        type            cyclicAMI;
        value           nonuniform List<scalar> 0();
    }
    walls
    {
        type            kqRWallFunction;
        value           nonuniform List<scalar> 
227
(
0.00405577
0.00430149
0.00436492
0.0041156
0.00412124
0.00422953
0.00422212
0.00477378
0.0036695
0.00385036
0.00391984
0.00382032
0.00377931
0.00374811
0.00372307
0.00408956
0.00340686
0.00355007
0.00360983
0.00355885
0.00349075
0.00337331
0.00326457
0.00348521
0.0030348
0.00319511
0.00331503
0.00336608
0.00332999
0.00324377
0.00307763
0.00293289
0.0031402
0.00293183
0.00268185
0.00287415
0.00301839
0.00312039
0.0031629
0.00312939
0.00303071
0.00283732
0.00270241
0.00293215
0.00280509
0.00256873
0.00273282
0.00286781
0.0029546
0.00298878
0.00295305
0.0028499
0.00266574
0.00255001
0.00280537
0.0027114
0.00247682
0.00261312
0.00273597
0.00281155
0.00283707
0.00279819
0.00269369
0.00253156
0.0024376
0.00271166
0.00263204
0.00239528
0.00251158
0.00261938
0.00268597
0.00270401
0.00266171
0.00255913
0.00241854
0.0023433
0.00263223
0.00256594
0.00232449
0.00242248
0.00251534
0.00257309
0.00258505
0.00253976
0.00244267
0.00232091
0.00226566
0.00256605
0.00250942
0.00226195
0.00234307
0.00242181
0.00247091
0.00247712
0.00243023
0.00233987
0.00223508
0.0021977
0.00250941
0.00245979
0.00220476
0.00227217
0.00233728
0.0023781
0.00237908
0.00233172
0.0022483
0.00215838
0.00213698
0.00245977
0.00241399
0.00215361
0.00220836
0.00226056
0.00229374
0.0022898
0.00224301
0.00216635
0.00477378
0.00382057
0.00369005
0.00405589
0.00430157
0.00436502
0.00408956
0.0034126
0.00344631
0.00366996
0.00385054
0.00391989
0.00348521
0.00307296
0.00322251
0.00340744
0.00355022
0.00360988
0.0031402
0.00284001
0.00303544
0.00319566
0.00331515
0.00336611
0.00293215
0.00268237
0.00287493
0.00301887
0.00312048
0.00316289
0.00280537
0.00256929
0.00273348
0.0028682
0.00295465
0.00298873
0.00271166
0.00247727
0.00261362
0.00273625
0.00281157
0.00283698
0.00263223
0.0023956
0.00251194
0.00261957
0.00268595
0.00270389
0.00256605
0.00232471
0.00242271
0.00251546
0.00257303
0.00258491
0.00250941
0.00226206
0.00234319
0.00242186
0.00247082
0.00247694
0.00245977
0.00220483
0.00227232
0.0023373
0.00237794
0.00237885
0.00307806
0.00324385
0.00332933
0.00293183
0.00270189
0.00283742
0.00303114
0.0031293
0.00280509
0.00254956
0.00266579
0.00285037
0.00295324
0.0027114
0.00243731
0.00253167
0.0026941
0.00279846
0.00263204
0.00234313
0.0024187
0.00255946
0.00266195
0.00256594
0.00226558
0.0023211
0.00244294
0.00253996
0.00250942
0.00219771
0.00223528
0.00234012
0.00243038
0.00245979
0.00213698
0.00215859
0.00224852
0.00233181
0.00241399
0.00208626
0.00209106
0.00216653
0.00224307
)
;
    }
    ami2
    {
        type            cyclicAMI;
        value           nonuniform List<scalar> 
48
(
0.00430604
0.00461378
0.00463599
0.00427275
0.00430768
0.00445012
0.00443612
0.00462587
0.00709698
0.00782043
0.00780653
0.00768117
0.00711966
0.0056503
0.00434259
0.00402111
0.00938197
0.0101022
0.0104495
0.0102803
0.00906064
0.00795266
0.0061262
0.00381773
0.0109874
0.0120872
0.0123964
0.0119739
0.0109874
0.00938202
0.00709711
0.0043061
0.011974
0.0131152
0.0136484
0.0131152
0.0120872
0.0101023
0.00782047
0.00461383
0.0123963
0.0136483
0.0139239
0.0136484
0.0123963
0.0104495
0.00780664
0.00463605
)
;
    }
    outlet
    {
        type            zeroGradient;
    }
    procBoundary0to1
    {
        type            processor;
        value           nonuniform List<scalar> 
138
(
0.00355891
0.00336605
0.0031629
0.00298882
0.00283715
0.00270409
0.0025851
0.00247713
0.00237904
0.00228972
0.00602571
0.00567837
0.00522071
0.00481701
0.00446119
0.00415008
0.00387434
0.00362522
0.00340007
0.00319625
0.00972694
0.00880316
0.00801318
0.00801318
0.00755004
0.00693677
0.00639412
0.00591245
0.00548384
0.00510178
0.00475988
0.0044524
0.00417497
0.00993593
0.00903555
0.00824522
0.00755004
0.00693677
0.00639412
0.00591245
0.00548384
0.00510178
0.00475988
0.0044524
0.00417497
0.0114658
0.0104051
0.00948651
0.00868344
0.00797687
0.00735213
0.0067974
0.00630303
0.005861
0.00546441
0.0051074
0.00478515
0.0124872
0.0113708
0.0103845
0.00951376
0.00874352
0.00806031
0.00745239
0.00690971
0.00642375
0.00598724
0.00559401
0.00523899
0.0129462
0.0117492
0.0107132
0.00980746
0.00901018
0.0083046
0.00767738
0.00711765
0.00661641
0.00616611
0.00576039
0.00539408
0.0124872
0.0113708
0.0103845
0.00951375
0.00874349
0.00806026
0.00745232
0.00690963
0.00642366
0.00598714
0.00559392
0.00523895
0.0113929
0.0103687
0.00946673
0.00867149
0.00796881
0.00734623
0.00679296
0.00629977
0.00585878
0.00546317
0.00510715
0.00478608
0.00972694
0.00880322
0.0080132
0.00732808
0.00672899
0.0062021
0.00573655
0.00532382
0.00495654
0.00462796
0.00433264
0.0073002
0.00661953
0.00602504
0.00550917
0.00506142
0.00467136
0.0043327
0.00403748
0.00377368
0.00353601
0.00332127
0.0041156
0.00382035
0.00355885
0.00332996
0.00312933
0.00295297
0.0027981
0.0026616
0.00253964
0.00243009
0.00233149
)
;
    }
    procBoundary0to2
    {
        type            processor;
        value           nonuniform List<scalar> 
28
(
0.00314002
0.0028401
0.0028401
0.00369015
0.00344622
0.00322267
0.00322267
0.00293251
0.00293251
0.00312919
0.00312919
0.00312919
0.00581522
0.00519816
0.0047182
0.0047182
0.00337384
0.00448503
0.00753792
0.00680926
0.00618444
0.00618444
0.00349054
0.00546778
0.00867567
0.00793472
0.00725812
0.00725812
)
;
    }
    procBoundary0to8
    {
        type            processor;
        value           nonuniform List<scalar> 
29
(
0.00236912
0.00210511
0.00215165
0.00219065
0.00221686
0.00203129
0.0019015
0.00241867
0.00274676
0.00293987
0.00202948
0.00236748
0.00303377
0.00352587
0.0038219
0.00209268
0.0027432
0.00352163
0.00412094
0.00449345
0.00216296
0.00295175
0.00382461
0.00449507
0.00491739
0.00506243
0.0046209
0.00506236
0.00521485
)
;
    }
    procBoundary0to9
    {
        type            processor;
        value           nonuniform List<scalar> 
40
(
0.00220847
0.00216291
0.0020925
0.00209081
0.00209081
0.00208598
0.00241387
0.0030124
0.0029516
0.00274263
0.00250367
0.00250367
0.00200609
0.00215345
0.00392379
0.00382428
0.0035211
0.00321912
0.00321912
0.00255006
0.00220827
0.00462082
0.00449485
0.0041206
0.00374851
0.00374851
0.00291008
0.00226048
0.00491744
0.00449327
0.00406677
0.00406677
0.00311933
0.0022935
0.00506249
0.00462093
0.00417524
0.00417524
0.00319618
0.00228947
)
;
    }
}


// ************************************************************************* //
