/*--------------------------------*- C++ -*----------------------------------*\
| =========                 |                                                 |
| \\      /  F ield         | OpenFOAM: The Open Source CFD Toolbox           |
|  \\    /   O peration     | Version:  2212                                  |
|   \\  /    A nd           | Website:  www.openfoam.com                      |
|    \\/     M anipulation  |                                                 |
\*---------------------------------------------------------------------------*/
FoamFile
{
    version     2.0;
    format      ascii;
    arch        "LSB;label=32;scalar=64";
    class       volScalarField;
    location    "1";
    object      nut;
}
// * * * * * * * * * * * * * * * * * * * * * * * * * * * * * * * * * * * * * //

dimensions      [0 2 -1 0 0 0 0];

internalField   nonuniform List<scalar> 
689
(
4.39098e-06
4.29888e-06
4.22982e-06
4.17011e-06
4.11906e-06
4.0746e-06
4.03432e-06
3.99682e-06
9.00486e-06
8.82024e-06
8.6686e-06
8.53094e-06
8.40788e-06
8.29665e-06
8.19232e-06
8.0991e-06
1.39817e-05
1.36122e-05
1.32774e-05
1.29882e-05
1.27374e-05
1.25125e-05
1.23073e-05
1.21212e-05
1.19478e-05
2.03061e-05
1.91426e-05
1.84264e-05
1.78359e-05
1.73325e-05
1.68945e-05
1.65028e-05
1.61486e-05
1.58254e-05
1.55282e-05
1.52535e-05
1.49983e-05
2.32167e-05
2.20204e-05
2.11388e-05
2.0419e-05
1.98048e-05
1.92674e-05
1.87918e-05
1.83645e-05
1.79718e-05
1.76079e-05
1.72697e-05
1.69549e-05
2.41783e-05
2.30009e-05
2.20924e-05
2.13451e-05
2.06941e-05
2.01169e-05
1.95972e-05
1.91271e-05
1.86959e-05
1.82951e-05
1.79226e-05
1.75757e-05
2.27132e-05
2.19358e-05
2.11926e-05
2.05051e-05
1.98778e-05
1.93037e-05
1.87819e-05
1.8308e-05
1.78746e-05
1.74765e-05
1.71105e-05
1.67735e-05
2.04739e-05
1.95554e-05
1.87559e-05
1.80603e-05
1.74517e-05
1.69086e-05
1.64239e-05
1.59956e-05
1.56204e-05
1.52833e-05
1.49757e-05
1.46939e-05
1.66536e-05
1.56601e-05
1.48409e-05
1.41811e-05
1.35947e-05
1.31635e-05
1.28223e-05
1.25297e-05
1.22714e-05
1.20398e-05
1.18286e-05
1.13097e-05
1.06335e-05
9.97292e-06
9.46904e-06
9.08846e-06
8.82194e-06
8.62451e-06
8.45695e-06
8.31516e-06
8.19009e-06
8.07457e-06
5.5523e-06
5.15531e-06
4.77098e-06
4.53846e-06
4.39148e-06
4.29931e-06
4.23017e-06
4.17035e-06
4.11916e-06
4.07457e-06
4.03438e-06
9.08677e-06
8.8205e-06
8.62357e-06
8.45646e-06
8.31505e-06
8.19029e-06
8.07407e-06
7.97719e-06
2.20282e-05
2.15154e-05
2.06843e-05
1.96494e-05
1.87049e-05
1.77806e-05
1.68108e-05
1.59764e-05
5.31088e-05
5.06387e-05
4.80045e-05
4.55515e-05
4.32204e-05
4.09542e-05
3.87926e-05
3.6894e-05
3.4769e-05
8.93229e-05
8.44259e-05
7.99327e-05
7.59561e-05
7.28151e-05
6.99841e-05
6.61505e-05
6.2524e-05
5.91979e-05
5.61236e-05
5.32917e-05
5.06277e-05
0.000105724
9.95011e-05
9.41042e-05
8.92484e-05
8.48287e-05
8.06974e-05
7.77741e-05
7.488e-05
7.0916e-05
6.72482e-05
6.38898e-05
6.07626e-05
0.000107763
0.000102788
9.78872e-05
9.32128e-05
8.88159e-05
8.46578e-05
8.11237e-05
7.86301e-05
7.55179e-05
7.16411e-05
6.81638e-05
6.49542e-05
0.000105095
9.86064e-05
9.3104e-05
8.83462e-05
8.41868e-05
8.04797e-05
7.78505e-05
7.5365e-05
7.18929e-05
6.84803e-05
6.53905e-05
6.24855e-05
8.20188e-05
7.85712e-05
7.54292e-05
7.26427e-05
7.02907e-05
6.85294e-05
6.60169e-05
6.29115e-05
6.00594e-05
5.73871e-05
5.48526e-05
5.23846e-05
4.86119e-05
4.94656e-05
4.90622e-05
4.90138e-05
4.81775e-05
4.63905e-05
4.45604e-05
4.27353e-05
4.08633e-05
3.89596e-05
3.70244e-05
2.48101e-05
2.32163e-05
2.2149e-05
2.2168e-05
2.20889e-05
2.15491e-05
2.07011e-05
1.96571e-05
1.87078e-05
1.77775e-05
1.68286e-05
1.05899e-05
1.00519e-05
9.57918e-06
9.24856e-06
9.00669e-06
8.82195e-06
8.66991e-06
8.53182e-06
8.40838e-06
8.29675e-06
8.19315e-06
1.41818e-05
1.35942e-05
1.3163e-05
1.28223e-05
1.25301e-05
1.22721e-05
1.20406e-05
1.18293e-05
1.16384e-05
4.8974e-05
4.81581e-05
4.63931e-05
4.45762e-05
4.27577e-05
4.08875e-05
3.89852e-05
3.70595e-05
3.50847e-05
9.52147e-05
9.182e-05
8.8465e-05
8.51591e-05
8.18735e-05
7.86138e-05
7.54048e-05
7.22708e-05
6.92358e-05
0.000149117
0.000141474
0.000134753
0.000128791
0.000123431
0.000118524
0.000113817
0.000109357
0.00010512
0.000101082
9.72035e-05
9.3533e-05
0.00016909
0.000161609
0.000154448
0.000147738
0.000141503
0.0001357
0.000130373
0.000125433
0.000120674
0.000116122
0.000111801
0.000107726
0.000176676
0.00016838
0.000160751
0.000153721
0.000147231
0.000141221
0.000135685
0.000130644
0.000125902
0.00012133
0.000116956
0.000112829
0.000170136
0.000161364
0.000153738
0.000146945
0.000140805
0.000135206
0.000130108
0.000125399
0.000120923
0.000116657
0.000112578
0.000108696
0.000141608
0.000136701
0.000131531
0.000126576
0.00012191
0.00011754
0.000113355
0.000109278
0.000105319
0.000101475
9.77716e-05
9.42277e-05
0.000110587
0.000104128
9.90982e-05
9.52845e-05
9.18518e-05
8.84727e-05
8.51519e-05
8.18584e-05
7.85946e-05
7.53732e-05
7.22888e-05
5.85003e-05
5.64998e-05
5.42492e-05
5.32546e-05
5.07486e-05
4.80737e-05
4.55933e-05
4.32463e-05
4.09684e-05
3.87717e-05
3.69591e-05
1.52935e-05
1.48173e-05
1.43716e-05
1.39839e-05
1.36148e-05
1.32798e-05
1.29901e-05
1.27388e-05
1.25135e-05
1.23076e-05
1.21223e-05
1.80608e-05
1.74537e-05
1.69108e-05
1.64256e-05
1.59972e-05
1.56218e-05
1.52847e-05
1.4977e-05
1.46952e-05
7.2833e-05
7.04532e-05
6.86164e-05
6.60506e-05
6.29417e-05
6.00882e-05
5.74148e-05
5.48828e-05
5.24253e-05
0.000126664
0.00012199
0.000117608
0.00011341
0.000109326
0.000105361
0.000101515
9.78014e-05
9.4288e-05
0.000187709
0.000179137
0.000171367
0.000164279
0.000157772
0.000151772
0.000146207
0.00014097
0.000136027
0.000131344
0.000126891
0.000122674
0.00021136
0.000201861
0.000193217
0.00018527
0.000177925
0.000171118
0.000164784
0.000158879
0.000153365
0.00014818
0.00014327
0.000138627
0.00021856
0.000208984
0.000200164
0.000192007
0.000184442
0.00017741
0.000170864
0.000164764
0.000159065
0.000153716
0.000148675
0.000143915
0.000209374
0.000200772
0.000192574
0.000184867
0.000177666
0.000170955
0.000164704
0.000158868
0.000153398
0.000148252
0.000143395
0.000138804
0.000187699
0.000179125
0.000171345
0.00016425
0.000157738
0.000151738
0.000146174
0.000140938
0.000135995
0.000131312
0.000126864
0.000122603
0.000149155
0.000141491
0.000134757
0.000128787
0.000123424
0.000118517
0.000113806
0.000109342
0.000105102
0.000101061
9.72062e-05
8.94179e-05
8.45354e-05
8.00128e-05
7.60109e-05
7.28655e-05
7.00171e-05
6.61669e-05
6.25354e-05
5.92047e-05
5.61225e-05
5.32646e-05
2.03067e-05
1.91445e-05
1.84286e-05
1.7838e-05
1.73344e-05
1.68961e-05
1.65041e-05
1.61495e-05
1.58261e-05
1.55287e-05
1.52538e-05
2.05038e-05
1.9878e-05
1.93049e-05
1.87836e-05
1.83097e-05
1.78761e-05
1.74779e-05
1.71117e-05
1.67745e-05
8.84704e-05
8.4272e-05
8.0542e-05
7.78911e-05
7.53862e-05
7.19116e-05
6.84918e-05
6.53954e-05
6.24862e-05
0.00014705
0.00014088
0.000135261
0.000130147
0.000125427
0.000120942
0.000116668
0.000112581
0.000108696
0.000209408
0.000200825
0.000192627
0.000184912
0.000177704
0.000170986
0.000164729
0.000158888
0.000153414
0.000148264
0.000143402
0.00013881
0.0002331
0.000223729
0.000214814
0.000206424
0.000198563
0.000191208
0.000184326
0.000177882
0.00017184
0.000166164
0.000160818
0.000155772
0.000242056
0.000231693
0.000222248
0.000213522
0.000205406
0.000197831
0.000190748
0.000184113
0.000177891
0.000172044
0.00016654
0.000161345
0.000233092
0.000223716
0.000214799
0.000206408
0.000198547
0.000191193
0.000184312
0.000177868
0.000171827
0.00016615
0.000160803
0.000155751
0.000211357
0.000201844
0.000193197
0.00018525
0.000177906
0.000171099
0.000164764
0.000158858
0.000153341
0.000148152
0.000143239
0.000138548
0.000169096
0.000161617
0.000154457
0.000147744
0.000141505
0.000135698
0.000130369
0.000125426
0.000120663
0.000116103
0.000111795
0.000105725
9.95205e-05
9.41287e-05
8.92711e-05
8.48483e-05
8.07134e-05
7.77851e-05
7.4885e-05
7.09183e-05
6.72434e-05
6.38427e-05
2.3217e-05
2.2021e-05
2.11395e-05
2.04197e-05
1.98054e-05
1.92679e-05
1.87922e-05
1.83648e-05
1.7972e-05
1.7608e-05
1.72691e-05
0.000218537
0.000208972
0.000200158
0.000192004
0.000184439
0.000177404
0.000170853
0.000164746
0.000159036
0.000153672
0.000148612
0.000143828
0.000242061
0.000231695
0.000222249
0.000213521
0.000205404
0.000197828
0.000190743
0.000184105
0.000177878
0.000172025
0.000166513
0.000161306
0.000248481
0.000238698
0.000229346
0.000220532
0.000212265
0.00020452
0.00019726
0.000190451
0.000184055
0.00017804
0.000172375
0.000167022
0.000242059
0.000231704
0.000222257
0.000213526
0.000205405
0.000197827
0.00019074
0.000184101
0.000177874
0.00017202
0.000166509
0.000161299
0.000218531
0.000208964
0.000200151
0.000191998
0.000184434
0.000177401
0.000170852
0.000164747
0.000159041
0.000153683
0.000148632
0.000143818
0.000176711
0.000168389
0.000160752
0.00015372
0.000147229
0.000141219
0.000135682
0.000130635
0.00012589
0.000121306
0.000116937
0.000107805
0.000102826
9.79174e-05
9.32366e-05
8.88325e-05
8.46711e-05
8.11231e-05
7.86284e-05
7.55104e-05
7.16213e-05
6.80885e-05
2.41792e-05
2.30016e-05
2.2093e-05
2.13457e-05
2.06945e-05
2.01171e-05
1.95973e-05
1.91271e-05
1.86958e-05
1.82949e-05
1.79224e-05
)
;

boundaryField
{
    inlet
    {
        type            calculated;
        value           nonuniform List<scalar> 0();
    }
    ami1
    {
        type            cyclicAMI;
        value           nonuniform List<scalar> 0();
    }
    walls
    {
        type            nutkWallFunction;
        blending        stepwise;
        value           uniform 0;
    }
    ami2
    {
        type            cyclicAMI;
        value           nonuniform List<scalar> 
48
(
2.49005e-05
2.93891e-05
3.14424e-05
2.42701e-05
2.26565e-05
2.19793e-05
1.92952e-05
1.52022e-05
9.41751e-05
0.000112922
0.000112589
0.0001095
9.02098e-05
5.3168e-05
2.5167e-05
1.58735e-05
0.000153992
0.000172984
0.000181316
0.000175559
0.000143899
0.00011543
6.64494e-05
1.60005e-05
0.00019259
0.0002168
0.000223578
0.0002139
0.000192584
0.00015401
9.42232e-05
2.4901e-05
0.000213918
0.000237818
0.000247971
0.000237814
0.000216798
0.000172986
0.000112923
2.93894e-05
0.000223565
0.000247973
0.000253399
0.000247972
0.000223563
0.000181333
0.00011261
3.14428e-05
)
;
    }
    outlet
    {
        type            calculated;
        value           nonuniform List<scalar> 0();
    }
    procBoundary0to1
    {
        type            processor;
        value           nonuniform List<scalar> 
138
(
2.11927e-05
2.13447e-05
2.06939e-05
2.01171e-05
1.95978e-05
1.91279e-05
1.86967e-05
1.82958e-05
1.79232e-05
1.75762e-05
9.31633e-05
9.32324e-05
8.88357e-05
8.46748e-05
8.11293e-05
7.86282e-05
7.55085e-05
7.162e-05
6.81307e-05
6.49084e-05
0.000170124
0.000161363
0.00015375
0.00015375
0.000153714
0.000147229
0.000141218
0.000135677
0.000130628
0.000125875
0.000121287
0.000116895
0.000112746
0.000176705
0.00016837
0.000160731
0.000153714
0.000147229
0.000141218
0.000135677
0.000130628
0.000125875
0.000121287
0.000116895
0.000112746
0.000211394
0.000201879
0.000193226
0.000185273
0.000177923
0.000171111
0.000164772
0.000158861
0.000153338
0.000148142
0.000143217
0.000138555
0.000233088
0.000223712
0.000214799
0.000206411
0.000198552
0.000191197
0.000184314
0.000177868
0.000171821
0.000166138
0.000160784
0.000155725
0.000242055
0.000231702
0.000222256
0.000213527
0.000205407
0.00019783
0.000190743
0.000184104
0.000177877
0.000172024
0.000166512
0.000161305
0.00023309
0.000223709
0.000214793
0.000206405
0.000198545
0.00019119
0.000184308
0.000177861
0.000171816
0.000166133
0.00016078
0.00015572
0.0002094
0.000200811
0.00019261
0.000184895
0.000177687
0.000170968
0.00016471
0.000158866
0.000153388
0.000148232
0.000143365
0.000138729
0.000170115
0.000161377
0.000153764
0.000146973
0.000140831
0.000135227
0.000130123
0.000125407
0.000120925
0.000116648
0.000112579
0.000105087
9.85904e-05
9.30895e-05
8.83363e-05
8.4183e-05
8.04806e-05
7.78473e-05
7.53653e-05
7.18939e-05
6.84722e-05
6.53262e-05
2.2713e-05
2.19356e-05
2.11925e-05
2.05051e-05
1.98779e-05
1.93038e-05
1.87821e-05
1.83081e-05
1.78747e-05
1.74766e-05
1.71101e-05
)
;
    }
    procBoundary0to2
    {
        type            processor;
        value           nonuniform List<scalar> 
28
(
4.53818e-06
9.24819e-06
9.24819e-06
1.52932e-05
1.48167e-05
1.43716e-05
1.43716e-05
9.46819e-06
9.46819e-06
2.2157e-05
2.2157e-05
2.2157e-05
5.84507e-05
5.64246e-05
5.42667e-05
5.42667e-05
1.48422e-05
4.91391e-05
0.000110603
0.000104194
9.91979e-05
9.91979e-05
1.87558e-05
7.54473e-05
0.000141639
0.000136767
0.000131616
0.000131616
)
;
    }
    procBoundary0to8
    {
        type            processor;
        value           nonuniform List<scalar> 
29
(
3.95825e-06
8.00616e-06
1.17957e-05
1.47603e-05
1.66613e-05
7.87015e-06
1.50355e-05
3.3631e-05
4.81306e-05
5.78225e-05
1.14641e-05
3.34444e-05
6.62431e-05
8.98461e-05
0.00010365
1.4436e-05
5.0043e-05
9.07292e-05
0.00011849
0.000134049
1.64634e-05
5.97223e-05
0.000104782
0.000134299
0.000150868
0.000156273
0.00013916
0.000156263
0.000161828
)
;
    }
    procBoundary0to9
    {
        type            processor;
        value           nonuniform List<scalar> 
40
(
1.72523e-05
1.64625e-05
1.44346e-05
1.16378e-05
1.16378e-05
7.97611e-06
3.99655e-06
6.1961e-05
5.97217e-05
4.99941e-05
3.50633e-05
3.50633e-05
1.59149e-05
8.09813e-06
0.000108704
0.000104785
9.06577e-05
6.90548e-05
6.90548e-05
3.44887e-05
1.19469e-05
0.000139222
0.000134292
0.000118408
9.33895e-05
9.33895e-05
5.055e-05
1.49981e-05
0.000150824
0.000133972
0.000107563
0.000107563
6.06852e-05
1.69542e-05
0.000156233
0.000139139
0.000112654
0.000112654
6.48651e-05
1.75748e-05
)
;
    }
}


// ************************************************************************* //
