/*--------------------------------*- C++ -*----------------------------------*\
| =========                 |                                                 |
| \\      /  F ield         | OpenFOAM: The Open Source CFD Toolbox           |
|  \\    /   O peration     | Version:  2212                                  |
|   \\  /    A nd           | Website:  www.openfoam.com                      |
|    \\/     M anipulation  |                                                 |
\*---------------------------------------------------------------------------*/
FoamFile
{
    version     2.0;
    format      ascii;
    arch        "LSB;label=32;scalar=64";
    class       volScalarField;
    location    "1";
    object      p;
}
// * * * * * * * * * * * * * * * * * * * * * * * * * * * * * * * * * * * * * //

dimensions      [0 2 -2 0 0 0 0];

internalField   nonuniform List<scalar> 
689
(
0.0041615
0.0040323
0.00390163
0.00377322
0.00364396
0.00351446
0.00338475
0.00325544
0.00418251
0.00405152
0.00391957
0.00378872
0.00365661
0.00352393
0.00339125
0.00325907
0.0043813
0.00423132
0.00408919
0.00394725
0.0038071
0.00366863
0.00353129
0.00339526
0.00326007
0.00490317
0.00480439
0.00463077
0.00444671
0.00428293
0.00413041
0.00398169
0.00383558
0.0036923
0.00355136
0.00341257
0.00327586
0.00479931
0.00473772
0.00461617
0.00445376
0.00429139
0.00413666
0.00398519
0.00383798
0.00369471
0.00355373
0.0034149
0.00327837
0.00481017
0.00473834
0.00460274
0.00444298
0.00428265
0.00412753
0.00397609
0.00382916
0.00368733
0.00354882
0.00341214
0.0032772
0.00491819
0.00478678
0.00461102
0.0044351
0.00426954
0.00411224
0.00396095
0.00381629
0.00367661
0.00354002
0.00340533
0.00327233
0.00511094
0.0048824
0.00462998
0.00442201
0.00424648
0.00408764
0.00393901
0.00379734
0.00366029
0.00352619
0.00339397
0.003263
0.005355
0.00495314
0.00458945
0.00435951
0.00418821
0.00403773
0.0038976
0.00376427
0.00363466
0.00350615
0.00337796
0.00557769
0.00491461
0.00443824
0.00426045
0.00414227
0.00401018
0.00388025
0.00375501
0.00363017
0.00350469
0.00337871
0.00554899
0.00484304
0.00437948
0.00425621
0.00416145
0.00403249
0.00390186
0.00377341
0.00364413
0.00351464
0.00338515
0.00414232
0.00400999
0.00388004
0.00375484
0.00363
0.0035045
0.00337831
0.00325203
0.00418859
0.00404404
0.00390792
0.00377724
0.00364801
0.00351882
0.00338978
0.00326058
0.00438142
0.00421348
0.00406294
0.00391993
0.00378225
0.00364804
0.00351545
0.00338374
0.00325299
0.00481174
0.00466649
0.00452737
0.00436702
0.00421376
0.00407033
0.00393073
0.00379355
0.00365841
0.00352467
0.00339204
0.00326073
0.00473088
0.00458349
0.0044837
0.00435314
0.0042107
0.00407124
0.00393475
0.00379803
0.00366228
0.00352807
0.00339522
0.00326358
0.00476685
0.00462062
0.0045082
0.00437374
0.00423025
0.00408837
0.00394865
0.00380938
0.00367127
0.00353504
0.00340073
0.00326815
0.00491092
0.00475073
0.00459497
0.00443258
0.00427313
0.00411913
0.00396947
0.00382324
0.00368043
0.00354089
0.00340415
0.00326983
0.00502531
0.00485113
0.00466396
0.00447324
0.00429626
0.0041301
0.00397106
0.00381959
0.00367453
0.00353398
0.00339692
0.00326282
0.00512878
0.00488421
0.00465398
0.00444543
0.00426082
0.00409325
0.00393833
0.00379295
0.00365357
0.00351786
0.00338485
0.0053015
0.00488728
0.00455304
0.00434661
0.00418866
0.00404422
0.00390813
0.00377744
0.00364822
0.00351905
0.00339026
0.0055473
0.00490605
0.00445709
0.00429804
0.00418248
0.00405176
0.00391983
0.00378893
0.00365681
0.00352412
0.00339169
0.00435959
0.00418815
0.00403761
0.00389749
0.00376417
0.00363455
0.00350602
0.00337775
0.00324959
0.0044453
0.00426074
0.00409326
0.00393832
0.00379288
0.00365346
0.00351774
0.0033847
0.00325341
0.00444241
0.00425711
0.00408767
0.00392979
0.0037804
0.00363726
0.00349873
0.0033632
0.00323042
0.00486548
0.00469064
0.00454795
0.00438811
0.00422634
0.00407116
0.00392128
0.00377589
0.00363462
0.00349664
0.00336127
0.00322811
0.00476872
0.00461212
0.00449532
0.00435495
0.00420486
0.00405805
0.00391451
0.00377193
0.00363112
0.00349327
0.00335815
0.00322517
0.00480027
0.00463691
0.00450427
0.0043604
0.0042107
0.00406386
0.00392034
0.00377799
0.00363651
0.00349748
0.00336145
0.00322796
0.00487029
0.00469793
0.00454966
0.00439429
0.00423717
0.00408444
0.0039354
0.0037883
0.00364408
0.00350311
0.00336552
0.00323094
0.00489794
0.00473001
0.00458935
0.00442511
0.00425782
0.00409653
0.00394056
0.00378969
0.00364403
0.00350281
0.00336521
0.00323065
0.00503221
0.00483277
0.00464159
0.0044427
0.00425716
0.00408757
0.00392969
0.00378034
0.00363721
0.00349866
0.00336291
0.00505131
0.00481666
0.00458521
0.00438156
0.0042136
0.004063
0.00392
0.00378233
0.00364813
0.00351556
0.00338377
0.00519446
0.00489135
0.00458387
0.00438117
0.00423143
0.00408944
0.0039475
0.0038073
0.00366881
0.00353146
0.00339572
0.0044219
0.00424647
0.0040877
0.00393905
0.00379731
0.0036602
0.00352605
0.00339378
0.00326278
0.00447323
0.00429625
0.00413006
0.003971
0.00381951
0.00367443
0.00353385
0.00339678
0.00326264
0.00442509
0.00425775
0.00409643
0.00394046
0.00378962
0.00364397
0.00350277
0.00336527
0.00323065
0.00484022
0.00467093
0.00452977
0.00437603
0.00421853
0.00406552
0.00391671
0.00377132
0.00362943
0.00349071
0.00335457
0.00322067
0.0047959
0.00462696
0.00448931
0.00434362
0.00419357
0.00404621
0.00390189
0.00375964
0.00361954
0.00348187
0.00334658
0.00321335
0.00479204
0.0046237
0.00448493
0.0043399
0.00419103
0.00404455
0.00390103
0.0037595
0.00361973
0.00348208
0.00334668
0.00321338
0.00480141
0.00463588
0.00450055
0.00435435
0.00420315
0.00405456
0.003909
0.00376567
0.00362464
0.00348613
0.00335
0.00321619
0.00484021
0.0046709
0.00452975
0.00437603
0.00421854
0.00406553
0.00391672
0.00377133
0.00362944
0.0034907
0.00335451
0.00322065
0.00486561
0.00469072
0.00454804
0.0043882
0.00422633
0.00407108
0.0039212
0.00377583
0.00363455
0.00349655
0.00336107
0.00481178
0.00466652
0.00452745
0.00436712
0.00421379
0.00407033
0.00393074
0.00379357
0.00365842
0.00352466
0.00339186
0.00490293
0.00480428
0.00463077
0.00444675
0.00428304
0.00413058
0.00398186
0.00383573
0.00369242
0.00355147
0.00341266
0.00443508
0.00426957
0.00411229
0.00396098
0.00381629
0.00367655
0.00353992
0.00340517
0.00327212
0.00443258
0.00427309
0.00411905
0.00396938
0.00382315
0.00368033
0.00354075
0.00340398
0.00326961
0.0043943
0.00423711
0.00408431
0.00393526
0.00378816
0.00364396
0.00350299
0.00336542
0.00323082
0.00480146
0.00463593
0.0045006
0.00435438
0.00420313
0.00405451
0.00390894
0.0037656
0.00362458
0.00348607
0.00334995
0.00321614
0.00476913
0.00460518
0.0044724
0.00433077
0.00418395
0.00403857
0.00389546
0.00375407
0.00361437
0.00347665
0.00334098
0.00320739
0.00477733
0.00460941
0.00447015
0.00432619
0.00417938
0.00403444
0.0038918
0.00375093
0.00361174
0.00347439
0.00333893
0.00320541
0.00476911
0.00460516
0.0044724
0.00433077
0.00418396
0.0040386
0.00389548
0.00375409
0.0036144
0.00347667
0.00334099
0.00320741
0.00479593
0.00462698
0.00448932
0.00434363
0.00419358
0.00404622
0.00390189
0.00375964
0.00361953
0.00348184
0.00334652
0.00321334
0.00476882
0.00461219
0.00449537
0.00435498
0.00420487
0.00405803
0.00391448
0.00377189
0.00363107
0.00349319
0.00335804
0.00473094
0.00458353
0.00448372
0.00435317
0.00421073
0.00407127
0.00393479
0.00379807
0.0036623
0.00352806
0.00339516
0.00479921
0.00473766
0.00461616
0.0044538
0.00429146
0.00413677
0.00398531
0.00383809
0.0036948
0.0035538
0.00341488
0.00479208
0.00462373
0.00448496
0.00433992
0.00419103
0.00404452
0.00390099
0.00375944
0.00361965
0.003482
0.00334659
0.0032133
0.00477734
0.00460942
0.00447015
0.00432619
0.00417937
0.00403443
0.00389178
0.00375091
0.00361171
0.00347435
0.00333889
0.00320539
0.00475104
0.00458962
0.00445831
0.00431797
0.00417284
0.00402897
0.00388697
0.00374653
0.00360771
0.00347071
0.00333561
0.00320241
0.00477733
0.00460941
0.00447015
0.0043262
0.00417938
0.00403445
0.00389181
0.00375093
0.00361174
0.00347438
0.00333891
0.0032054
0.00479208
0.00462373
0.00448495
0.00433992
0.00419104
0.00404455
0.00390103
0.00375949
0.0036197
0.00348204
0.00334661
0.00321335
0.00480036
0.00463697
0.0045043
0.00436041
0.0042107
0.00406385
0.00392031
0.00377795
0.00363645
0.00349738
0.00336134
0.00476689
0.00462067
0.00450825
0.00437377
0.00423029
0.0040884
0.00394868
0.00380941
0.00367127
0.003535
0.00340068
0.00481013
0.00473833
0.00460277
0.00444303
0.00428272
0.00412762
0.00397618
0.00382924
0.0036874
0.00354888
0.00341211
)
;

boundaryField
{
    inlet
    {
        type            zeroGradient;
    }
    ami1
    {
        type            cyclicAMI;
        value           nonuniform List<scalar> 0();
    }
    walls
    {
        type            zeroGradient;
    }
    ami2
    {
        type            cyclicAMI;
        value           nonuniform List<scalar> 
48
(
0.00493469
0.00485755
0.00482427
0.00495332
0.00514325
0.00534151
0.00553456
0.00552648
0.00496747
0.00490531
0.00491703
0.00501622
0.00513376
0.0052701
0.00540715
0.0054614
0.0050188
0.00492559
0.00492627
0.00498783
0.00506103
0.00517361
0.00518839
0.00517468
0.00497031
0.00492253
0.00491732
0.00493437
0.00497031
0.0050189
0.00496748
0.0049345
0.00493442
0.00490058
0.00489652
0.00490057
0.00492256
0.00492568
0.00490534
0.00485746
0.00491736
0.00489653
0.00487968
0.00489653
0.00491736
0.00492635
0.00491707
0.00482423
)
;
    }
    outlet
    {
        type            fixedValue;
        value           nonuniform List<scalar> 0();
    }
    procBoundary0to1
    {
        type            processor;
        value           nonuniform List<scalar> 
138
(
0.00461099
0.00444298
0.00428268
0.00412758
0.00397613
0.00382917
0.00368731
0.00354876
0.00341202
0.00327698
0.00459497
0.00437374
0.00423025
0.00408836
0.00394863
0.00380935
0.00367121
0.00353494
0.00340059
0.00326795
0.00487043
0.00469798
0.0045497
0.0045497
0.00436043
0.00421069
0.00406381
0.00392026
0.00377789
0.00363639
0.00349735
0.00336131
0.00322782
0.00480036
0.00463696
0.00450431
0.00436043
0.00421069
0.00406381
0.00392026
0.00377789
0.00363639
0.00349735
0.00336131
0.00322782
0.00479593
0.00462699
0.00448933
0.00434363
0.00419356
0.00404619
0.00390185
0.00375959
0.00361948
0.0034818
0.00334651
0.00321329
0.00476912
0.00460518
0.0044724
0.00433077
0.00418395
0.00403858
0.00389545
0.00375406
0.00361436
0.00347663
0.00334096
0.00320737
0.00477733
0.00460941
0.00447015
0.00432619
0.00417938
0.00403444
0.0038918
0.00375093
0.00361173
0.00347437
0.00333891
0.00320539
0.00476913
0.00460518
0.00447241
0.00433078
0.00418397
0.0040386
0.00389548
0.00375409
0.00361439
0.00347666
0.00334098
0.00320738
0.00480146
0.00463593
0.00450059
0.00435438
0.00420317
0.00405456
0.00390899
0.00376565
0.00362461
0.00348609
0.00334993
0.00321615
0.00487035
0.00469798
0.00454971
0.00439432
0.00423719
0.00408444
0.0039354
0.00378828
0.00364403
0.00350302
0.00336542
0.00491095
0.00475075
0.00459499
0.00443261
0.00427316
0.00411916
0.0039695
0.00382327
0.00368043
0.00354084
0.0034041
0.0049182
0.00478679
0.00461103
0.00443512
0.00426956
0.00411227
0.003961
0.00381635
0.00367667
0.00354009
0.00340533
)
;
    }
    procBoundary0to2
    {
        type            processor;
        value           nonuniform List<scalar> 
28
(
0.00425646
0.00429829
0.00429829
0.00519465
0.00489142
0.00458398
0.00458398
0.00426068
0.00426068
0.00434673
0.00434673
0.00434673
0.00505131
0.0048166
0.00458513
0.00458513
0.00458949
0.00465392
0.00503214
0.00483274
0.00464139
0.00464139
0.00462987
0.00466397
0.004898
0.00473008
0.00458938
0.00458938
)
;
    }
    procBoundary0to8
    {
        type            processor;
        value           nonuniform List<scalar> 
29
(
0.00312728
0.00312824
0.003127
0.00314137
0.00314437
0.00312666
0.00313251
0.00312298
0.00312997
0.00313279
0.00312227
0.00312299
0.00309903
0.00309679
0.00309408
0.00313221
0.00313039
0.00309836
0.00308886
0.00308203
0.00314016
0.00313702
0.00309868
0.00308441
0.00307585
0.0030739
0.00308198
0.0030739
0.00307112
)
;
    }
    procBoundary0to9
    {
        type            processor;
        value           nonuniform List<scalar> 
40
(
0.00314414
0.00314043
0.00313241
0.00324984
0.00324984
0.00325233
0.00325568
0.00313676
0.0031373
0.00313072
0.00325357
0.00325357
0.00326093
0.0032593
0.00309654
0.00309881
0.00309852
0.00323028
0.00323028
0.00325298
0.0032603
0.00308202
0.00308447
0.00308894
0.00322807
0.00322807
0.00326057
0.00327571
0.00307589
0.00308211
0.0032252
0.0032252
0.00326353
0.00327811
0.00307392
0.00308207
0.00322799
0.00322799
0.00326811
0.00327693
)
;
    }
}


// ************************************************************************* //
