/*--------------------------------*- C++ -*----------------------------------*\
| =========                 |                                                 |
| \\      /  F ield         | OpenFOAM: The Open Source CFD Toolbox           |
|  \\    /   O peration     | Version:  2212                                  |
|   \\  /    A nd           | Website:  www.openfoam.com                      |
|    \\/     M anipulation  |                                                 |
\*---------------------------------------------------------------------------*/
FoamFile
{
    version     2.0;
    format      ascii;
    arch        "LSB;label=32;scalar=64";
    class       surfaceScalarField;
    location    "1";
    object      phi;
}
// * * * * * * * * * * * * * * * * * * * * * * * * * * * * * * * * * * * * * //

dimensions      [0 3 -1 0 0 0 0];

oriented        oriented;

internalField   nonuniform List<scalar> 
1812
(
8.23588e-08
-3.34121e-08
3.70377e-08
7.9894e-08
-3.38686e-08
3.63338e-08
7.801e-08
-3.41743e-08
3.60587e-08
7.64441e-08
-3.43184e-08
3.58846e-08
7.50842e-08
-3.43515e-08
3.57116e-08
7.38692e-08
-3.43252e-08
3.55403e-08
7.27534e-08
-3.42729e-08
3.5389e-08
-3.42065e-08
3.52545e-08
2.48095e-07
-6.21618e-08
3.49033e-08
2.43771e-07
-6.33444e-08
3.38001e-08
2.40356e-07
-6.39061e-08
3.31462e-08
2.37332e-07
-6.41134e-08
3.28198e-08
2.34484e-07
-6.41779e-08
3.26737e-08
2.31754e-07
-6.41716e-08
3.25767e-08
2.2912e-07
-6.41356e-08
3.24965e-08
-6.40704e-08
3.24179e-08
4.6885e-07
-8.40242e-08
3.14833e-08
4.63203e-07
-8.66026e-08
3.0088e-08
4.58568e-07
-8.80306e-08
2.93207e-08
4.54592e-07
-8.88605e-08
2.89301e-08
4.50963e-07
-8.92616e-08
2.87776e-08
4.47468e-07
-8.94345e-08
2.87518e-08
4.44001e-07
-8.94959e-08
2.87914e-08
4.40521e-07
-8.94948e-08
2.88386e-08
-8.94587e-08
2.88933e-08
6.08162e-07
-1.07666e-07
1.03772e-08
6.22949e-07
-1.04436e-07
1.47932e-08
6.31713e-07
-1.0451e-07
1.6426e-08
6.363e-07
-1.0595e-07
1.73383e-08
6.38523e-07
-1.07142e-07
1.83156e-08
6.3912e-07
-1.07837e-07
1.92097e-08
6.38471e-07
-1.08143e-07
1.99313e-08
6.36862e-07
-1.08209e-07
2.05562e-08
6.34505e-07
-1.08162e-07
2.10848e-08
6.31536e-07
-1.08055e-07
2.15274e-08
6.28056e-07
-1.07917e-07
2.19026e-08
-1.07741e-07
2.22043e-08
7.03333e-07
-1.21864e-07
-1.04008e-09
7.19248e-07
-1.22299e-07
1.94812e-09
7.32281e-07
-1.21975e-07
4.43078e-09
7.4188e-07
-1.21878e-07
6.32888e-09
7.48602e-07
-1.21796e-07
7.93264e-09
7.52931e-07
-1.21505e-07
9.33855e-09
7.5505e-07
-1.20966e-07
1.07045e-08
7.5537e-07
-1.20292e-07
1.17624e-08
7.54236e-07
-1.19657e-07
1.26288e-08
7.51934e-07
-1.19112e-07
1.33588e-08
7.48705e-07
-1.18648e-07
1.39587e-08
-1.18184e-07
1.44468e-08
7.64101e-07
-1.29426e-07
-2.95061e-09
7.74686e-07
-1.31272e-07
-1.61189e-09
7.84303e-07
-1.31086e-07
-5.05973e-10
7.9149e-07
-1.2976e-07
6.94984e-10
7.95805e-07
-1.28125e-07
2.01377e-09
7.9754e-07
-1.26394e-07
3.15291e-09
7.97105e-07
-1.24678e-07
4.14754e-09
7.94998e-07
-1.23171e-07
4.9863e-09
7.91618e-07
-1.21883e-07
5.60648e-09
7.8727e-07
-1.20836e-07
6.07178e-09
7.82225e-07
-1.20021e-07
6.41892e-09
-1.19339e-07
6.6916e-09
7.77591e-07
-1.28538e-07
-5.46332e-09
7.80609e-07
-1.31466e-07
-2.82421e-09
7.80716e-07
-1.29823e-07
-1.37062e-09
7.77909e-07
-1.26331e-07
-6.21719e-10
7.72727e-07
-1.22697e-07
-2.45953e-10
7.6593e-07
-1.1949e-07
-1.06233e-10
7.58177e-07
-1.16855e-07
-6.99163e-11
7.49993e-07
-1.14783e-07
-2.04254e-10
7.4165e-07
-1.13148e-07
-3.91674e-10
7.33426e-07
-1.11962e-07
-6.48985e-10
7.2545e-07
-1.11124e-07
-9.20724e-10
-1.10513e-07
-1.16572e-09
7.23467e-07
-1.17706e-07
-3.9041e-09
7.11751e-07
-1.2005e-07
2.9999e-10
6.96378e-07
-1.14754e-07
3.056e-10
6.79264e-07
-1.08293e-07
-9.23591e-10
6.62024e-07
-1.03156e-07
-2.30017e-09
6.45859e-07
-9.95162e-08
-3.80822e-09
6.31304e-07
-9.69736e-08
-5.32677e-09
6.1845e-07
-9.52112e-08
-6.71728e-09
6.07179e-07
-9.40013e-08
-7.87615e-09
5.97267e-07
-9.32365e-08
-8.81352e-09
5.88464e-07
-9.27634e-08
-9.55739e-09
-1.01397e-08
5.76517e-07
-9.6513e-08
9.33215e-10
5.45375e-07
-9.25227e-08
3.61508e-09
5.14674e-07
-8.3269e-08
-7.82646e-10
4.88322e-07
-7.63631e-08
-5.57853e-09
4.66899e-07
-7.21171e-08
-9.61446e-09
4.50068e-07
-6.98493e-08
-1.28356e-08
4.36995e-07
-6.86979e-08
-1.5203e-08
4.26751e-07
-6.80635e-08
-1.69031e-08
4.18472e-07
-6.76247e-08
-1.80973e-08
4.1147e-07
-6.73299e-08
-1.89034e-08
-6.71449e-08
-1.94744e-08
3.52996e-07
-5.83932e-08
4.39901e-09
3.09616e-07
-4.82248e-08
-9.18083e-10
2.78863e-07
-4.17414e-08
-1.07735e-08
2.59624e-07
-3.88391e-08
-1.82853e-08
2.47417e-07
-3.70371e-08
-2.28716e-08
2.39128e-07
-3.6334e-08
-2.52261e-08
2.33009e-07
-3.60603e-08
-2.65178e-08
2.28118e-07
-3.58864e-08
-2.72863e-08
2.24018e-07
-3.57129e-08
-2.78114e-08
2.20449e-07
-3.55412e-08
-2.82188e-08
-3.5387e-08
-2.85552e-08
1.31621e-07
-1.05487e-08
1.04957e-07
-2.15607e-08
9.23828e-08
-2.91673e-08
8.59861e-08
-3.24422e-08
8.23621e-08
-3.3413e-08
7.98987e-08
-3.38704e-08
7.80139e-08
-3.41754e-08
7.64462e-08
-3.43185e-08
7.50844e-08
-3.43509e-08
7.38672e-08
-3.43239e-08
-3.42724e-08
2.47402e-07
-2.28718e-08
7.21224e-08
2.39115e-07
-2.5225e-08
6.98458e-08
2.33002e-07
-2.65174e-08
6.86899e-08
2.28118e-07
-2.72861e-08
6.80551e-08
2.24023e-07
-2.78107e-08
6.76168e-08
2.2046e-07
-2.82197e-08
6.73233e-08
2.17261e-07
-2.85492e-08
6.7138e-08
-2.88199e-08
6.70294e-08
5.78005e-07
-4.38117e-08
6.77472e-08
5.68335e-07
-4.68985e-08
6.51444e-08
5.60664e-07
-4.91142e-08
6.34135e-08
5.54465e-07
-5.06695e-08
6.24021e-08
5.49232e-07
-5.17562e-08
6.18526e-08
5.44666e-07
-5.25651e-08
6.1488e-08
5.40567e-07
-5.31879e-08
6.12347e-08
-5.36868e-08
6.10285e-08
8.46193e-07
-6.29154e-08
5.83884e-08
8.42191e-07
-6.60026e-08
5.62804e-08
8.38469e-07
-6.86204e-08
5.47647e-08
8.3532e-07
-7.07586e-08
5.37231e-08
8.32807e-07
-7.24223e-08
5.30435e-08
8.30839e-07
-7.36726e-08
5.26364e-08
8.29276e-07
-7.46073e-08
5.23964e-08
8.27985e-07
-7.53232e-08
5.22644e-08
-7.58648e-08
5.21927e-08
1.01131e-06
-8.73914e-08
3.75837e-08
1.01531e-06
-8.56639e-08
3.82958e-08
1.01922e-06
-8.58003e-08
3.85819e-08
1.02229e-06
-8.70213e-08
3.8373e-08
1.02486e-06
-8.84271e-08
3.81742e-08
1.02714e-06
-8.97456e-08
3.80504e-08
1.02923e-06
-9.09069e-08
3.79874e-08
1.03116e-06
-9.18338e-08
3.80401e-08
1.03292e-06
-9.25249e-08
3.81828e-08
1.03448e-06
-9.30089e-08
3.8364e-08
1.03585e-06
-9.33398e-08
3.85516e-08
-9.35591e-08
3.87219e-08
1.11706e-06
-1.04682e-07
1.89262e-08
1.12023e-06
-1.05372e-07
1.84908e-08
1.12577e-06
-1.05733e-07
1.88181e-08
1.13184e-06
-1.06059e-07
1.93019e-08
1.13781e-06
-1.06321e-07
1.98519e-08
1.14332e-06
-1.06413e-07
2.04954e-08
1.14826e-06
-1.06322e-07
2.11811e-08
1.15253e-06
-1.06102e-07
2.17608e-08
1.15621e-06
-1.05825e-07
2.22485e-08
1.15934e-06
-1.05477e-07
2.26963e-08
1.16197e-06
-1.05101e-07
2.30935e-08
-1.04726e-07
2.34258e-08
1.1643e-06
-1.13264e-07
4.00792e-09
1.16877e-06
-1.15304e-07
3.85837e-09
1.17416e-06
-1.15973e-07
4.33527e-09
1.17964e-06
-1.15749e-07
4.90544e-09
1.18485e-06
-1.15012e-07
5.50203e-09
1.18943e-06
-1.13956e-07
6.11301e-09
1.19325e-06
-1.12713e-07
6.71948e-09
1.19629e-06
-1.11386e-07
7.23536e-09
1.19868e-06
-1.10164e-07
7.55287e-09
1.20054e-06
-1.09031e-07
7.76775e-09
1.20195e-06
-1.08031e-07
7.93558e-09
-1.0716e-07
8.05219e-09
1.15165e-06
-1.115e-07
-7.35699e-09
1.15382e-06
-1.13848e-07
-6.44929e-09
1.15634e-06
-1.1416e-07
-5.70344e-09
1.15825e-06
-1.12998e-07
-5.28593e-09
1.15933e-06
-1.11228e-07
-5.10356e-09
1.1595e-06
-1.09142e-07
-5.09212e-09
1.15895e-06
-1.06991e-07
-5.23874e-09
1.15793e-06
-1.04995e-07
-5.5738e-09
1.15665e-06
-1.03307e-07
-5.9715e-09
1.15527e-06
-1.01896e-07
-6.40161e-09
1.15388e-06
-1.00747e-07
-6.82168e-09
-9.9815e-08
-7.21097e-09
1.04983e-06
-1.00796e-07
-1.72356e-08
1.05384e-06
-1.03271e-07
-1.42884e-08
1.05498e-06
-1.01585e-07
-1.34074e-08
1.05308e-06
-9.81762e-08
-1.3851e-08
1.04917e-06
-9.48418e-08
-1.47775e-08
1.04416e-06
-9.18516e-08
-1.60861e-08
1.03881e-06
-8.93881e-08
-1.75789e-08
1.03364e-06
-8.75122e-08
-1.90276e-08
1.02889e-06
-8.61318e-08
-2.03049e-08
1.02469e-06
-8.51147e-08
-2.13953e-08
1.02108e-06
-8.43591e-08
-2.23309e-08
-2.31249e-08
8.63264e-07
-8.48579e-08
-2.58888e-08
8.70698e-07
-8.51766e-08
-2.19124e-08
8.69268e-07
-7.85731e-08
-2.23634e-08
8.62323e-07
-7.19073e-08
-2.49031e-08
8.53366e-07
-6.77519e-08
-2.77469e-08
8.44325e-07
-6.51465e-08
-3.04993e-08
8.36043e-07
-6.34172e-08
-3.28916e-08
8.28847e-07
-6.24068e-08
-3.4812e-08
8.22771e-07
-6.18575e-08
-3.6296e-08
8.17704e-07
-6.14949e-08
-3.74562e-08
-6.12342e-08
-3.83792e-08
6.20113e-07
-5.88647e-08
-2.84438e-08
6.15812e-07
-5.43854e-08
-2.74079e-08
6.034e-07
-4.39694e-08
-3.29644e-08
5.89906e-07
-3.74052e-08
-3.9294e-08
5.77996e-07
-3.49036e-08
-4.38094e-08
5.68324e-07
-3.37991e-08
-4.69011e-08
5.60652e-07
-3.31468e-08
-4.9116e-08
5.5445e-07
-3.28212e-08
-5.06698e-08
5.49212e-07
-3.26752e-08
-5.17556e-08
5.44637e-07
-3.25785e-08
-5.25597e-08
-3.24912e-08
-5.31941e-08
3.17828e-07
-3.71387e-08
2.84677e-07
-4.27952e-08
2.64607e-07
-5.30668e-08
2.54263e-07
-5.95036e-08
2.48116e-07
-6.2169e-08
2.43792e-07
-6.33455e-08
2.40373e-07
-6.39031e-08
2.37342e-07
-6.41088e-08
2.34488e-07
-6.41723e-08
2.31751e-07
-6.41651e-08
-6.41298e-08
4.88326e-07
-5.57505e-09
1.08298e-07
4.66903e-07
-9.61055e-09
1.03156e-07
4.50078e-07
-1.28374e-08
9.95087e-08
4.37013e-07
-1.5208e-08
9.6963e-08
4.26776e-07
-1.69088e-08
9.52015e-08
4.18504e-07
-1.81033e-08
9.39925e-08
4.11508e-07
-1.89097e-08
9.32285e-08
4.05371e-07
-1.94789e-08
9.27543e-08
-1.99008e-08
9.24686e-08
8.62342e-07
-2.49068e-08
9.81716e-08
8.53387e-07
-2.77466e-08
9.4839e-08
8.44344e-07
-3.04986e-08
9.18483e-08
8.36059e-07
-3.2893e-08
8.93836e-08
8.28861e-07
-3.48159e-08
8.7507e-08
8.22786e-07
-3.6302e-08
8.61263e-08
8.1772e-07
-3.7465e-08
8.51099e-08
8.135e-07
-3.83831e-08
8.43588e-08
-3.91314e-08
8.37907e-08
1.11917e-06
-4.60113e-08
7.87125e-08
1.11846e-06
-4.77142e-08
7.69541e-08
1.117e-06
-4.95561e-08
7.52882e-08
1.11532e-06
-5.13477e-08
7.38527e-08
1.11384e-06
-5.29571e-08
7.26687e-08
1.11275e-06
-5.43138e-08
7.17384e-08
1.11211e-06
-5.54472e-08
7.10154e-08
1.11189e-06
-5.63824e-08
7.04871e-08
-5.71633e-08
7.00703e-08
1.28167e-06
-6.68047e-08
5.42702e-08
1.28679e-06
-6.59833e-08
5.42457e-08
1.29223e-06
-6.58561e-08
5.41785e-08
1.29709e-06
-6.63205e-08
5.38149e-08
1.30137e-06
-6.71257e-08
5.33079e-08
1.30517e-06
-6.80984e-08
5.279e-08
1.30862e-06
-6.91045e-08
5.22968e-08
1.31185e-06
-7.00375e-08
5.18902e-08
1.31498e-06
-7.08316e-08
5.15779e-08
1.31805e-06
-7.1498e-08
5.13432e-08
1.32109e-06
-7.20493e-08
5.11725e-08
-7.2507e-08
5.10391e-08
1.38775e-06
-8.22011e-08
2.92839e-08
1.39379e-06
-8.23964e-08
2.8868e-08
1.40034e-06
-8.24411e-08
2.88451e-08
1.40702e-06
-8.25715e-08
2.8881e-08
1.41358e-06
-8.27604e-08
2.89277e-08
1.41991e-06
-8.29444e-08
2.90082e-08
1.42596e-06
-8.30924e-08
2.9113e-08
1.43168e-06
-8.31979e-08
2.92079e-08
1.43704e-06
-8.32363e-08
2.92866e-08
1.4421e-06
-8.32143e-08
2.9359e-08
1.44687e-06
-8.31538e-08
2.94244e-08
-8.3073e-08
2.9473e-08
1.43262e-06
-8.98454e-08
7.21643e-09
1.43777e-06
-9.05589e-08
6.87184e-09
1.44375e-06
-9.09332e-08
6.8471e-09
1.4501e-06
-9.09678e-08
6.95536e-09
1.45648e-06
-9.07317e-08
7.09756e-09
1.46269e-06
-9.02914e-08
7.24982e-09
1.46862e-06
-8.97057e-08
7.39471e-09
1.4742e-06
-8.9039e-08
7.49984e-09
1.47936e-06
-8.83784e-08
7.53538e-09
1.48414e-06
-8.77459e-08
7.51969e-09
1.4886e-06
-8.71524e-08
7.47364e-09
-8.66217e-08
7.4025e-09
1.40419e-06
-8.82517e-08
-1.29142e-08
1.409e-06
-8.94436e-08
-1.23736e-08
1.4144e-06
-9.00294e-08
-1.2012e-08
1.41972e-06
-8.97153e-08
-1.18545e-08
1.42464e-06
-8.8888e-08
-1.18697e-08
1.42907e-06
-8.7793e-08
-1.20203e-08
1.43301e-06
-8.65977e-08
-1.22871e-08
1.43648e-06
-8.54341e-08
-1.26529e-08
1.43961e-06
-8.43893e-08
-1.30891e-08
1.44249e-06
-8.3477e-08
-1.35485e-08
1.44524e-06
-8.2707e-08
-1.40124e-08
-8.20533e-08
-1.44464e-08
1.29131e-06
-7.96216e-08
-3.14192e-08
1.29846e-06
-8.08072e-08
-3.00788e-08
1.3045e-06
-8.02505e-08
-2.92214e-08
1.30884e-06
-7.8723e-08
-2.9182e-08
1.3118e-06
-7.69585e-08
-2.96744e-08
1.3137e-06
-7.52875e-08
-3.04903e-08
1.31487e-06
-7.38502e-08
-3.14995e-08
1.31565e-06
-7.26665e-08
-3.25761e-08
1.31632e-06
-7.17366e-08
-3.36233e-08
1.31705e-06
-7.10138e-08
-3.45898e-08
1.31795e-06
-7.04783e-08
-3.54583e-08
-3.6225e-08
1.11106e-06
-6.0275e-08
-4.69381e-08
1.11537e-06
-6.21057e-08
-4.49191e-08
1.11837e-06
-6.07966e-08
-4.48197e-08
1.11915e-06
-5.83985e-08
-4.60044e-08
1.11844e-06
-5.62834e-08
-4.77111e-08
1.11697e-06
-5.47637e-08
-4.95559e-08
1.1153e-06
-5.37218e-08
-5.13479e-08
1.11382e-06
-5.30434e-08
-5.29562e-08
1.11274e-06
-5.26374e-08
-5.43115e-08
1.11211e-06
-5.24004e-08
-5.54419e-08
-5.22502e-08
-5.63842e-08
8.43548e-07
-3.43083e-08
-6.08276e-08
8.49328e-07
-3.71281e-08
-5.8166e-08
8.49454e-07
-3.41552e-08
-5.97316e-08
8.46152e-07
-3.14793e-08
-6.29113e-08
8.42145e-07
-3.00834e-08
-6.60025e-08
8.38424e-07
-2.9321e-08
-6.86229e-08
8.35281e-07
-2.89341e-08
-7.07605e-08
8.32773e-07
-2.87835e-08
-7.24224e-08
8.3081e-07
-2.87587e-08
-7.3671e-08
8.29254e-07
-2.87998e-08
-7.46035e-08
-2.88376e-08
-7.53315e-08
4.88796e-07
-7.75538e-08
4.8373e-07
-7.4857e-08
4.75832e-07
-7.93246e-08
4.68883e-07
-8.40343e-08
4.63239e-07
-8.66079e-08
4.58601e-07
-8.8029e-08
4.54618e-07
-8.88543e-08
4.50979e-07
-8.92534e-08
4.47474e-07
-8.94254e-08
4.43994e-07
-8.94853e-08
-8.94788e-08
6.79292e-07
-9.2169e-10
1.26325e-07
6.62057e-07
-2.30057e-09
1.22692e-07
6.45892e-07
-3.8117e-09
1.19486e-07
6.31336e-07
-5.33089e-09
1.1685e-07
6.18482e-07
-6.72098e-09
1.14777e-07
6.07214e-07
-7.88014e-09
1.13141e-07
5.97308e-07
-8.81907e-09
1.11954e-07
5.88513e-07
-9.56483e-09
1.11114e-07
-1.01471e-08
1.10504e-07
1.05306e-06
-1.38447e-08
1.12997e-07
1.04915e-06
-1.47768e-08
1.11225e-07
1.04415e-06
-1.60913e-08
1.09136e-07
1.0388e-06
-1.7586e-08
1.06985e-07
1.03363e-06
-1.90344e-08
1.04989e-07
1.02889e-06
-2.03121e-08
1.03302e-07
1.02469e-06
-2.14036e-08
1.01892e-07
1.02108e-06
-2.23388e-08
1.00745e-07
-2.31344e-08
9.98129e-08
1.30882e-06
-2.91811e-08
8.97126e-08
1.31179e-06
-2.96749e-08
8.88853e-08
1.31369e-06
-3.04926e-08
8.77911e-08
1.31486e-06
-3.15033e-08
8.65968e-08
1.31564e-06
-3.2581e-08
8.54343e-08
1.31631e-06
-3.36293e-08
8.43904e-08
1.31704e-06
-3.4597e-08
8.34795e-08
1.31794e-06
-3.54643e-08
8.27122e-08
-3.62318e-08
8.20591e-08
1.47192e-06
-4.46814e-08
6.21214e-08
1.47808e-06
-4.42122e-08
6.22212e-08
1.48469e-06
-4.38928e-08
6.22345e-08
1.49113e-06
-4.38669e-08
6.2066e-08
1.49714e-06
-4.41129e-08
6.17334e-08
1.50269e-06
-4.45492e-08
6.13002e-08
1.50779e-06
-4.51176e-08
6.08088e-08
1.51253e-06
-4.57464e-08
6.03129e-08
1.51701e-06
-4.63734e-08
5.9842e-08
1.52131e-06
-4.69716e-08
5.94168e-08
1.5255e-06
-4.75197e-08
5.90425e-08
-4.80161e-08
5.87156e-08
1.58112e-06
-5.59411e-08
3.38828e-08
1.58804e-06
-5.58528e-08
3.3588e-08
1.59537e-06
-5.58113e-08
3.34323e-08
1.60287e-06
-5.58357e-08
3.33548e-08
1.61032e-06
-5.59176e-08
3.32761e-08
1.61764e-06
-5.60364e-08
3.31821e-08
1.62474e-06
-5.61782e-08
3.3075e-08
1.63157e-06
-5.633e-08
3.2955e-08
1.63813e-06
-5.6472e-08
3.28268e-08
1.64442e-06
-5.65976e-08
3.26959e-08
1.65047e-06
-5.67052e-08
3.25652e-08
-5.67978e-08
3.24372e-08
1.62e-06
-6.20103e-08
5.9855e-09
1.62738e-06
-6.22479e-08
5.89022e-09
1.63496e-06
-6.24353e-08
5.89357e-09
1.64266e-06
-6.24796e-08
5.89464e-09
1.65036e-06
-6.24033e-08
5.8826e-09
1.65796e-06
-6.22404e-08
5.85415e-09
1.66539e-06
-6.20158e-08
5.80589e-09
1.67258e-06
-6.17571e-08
5.73467e-09
1.67949e-06
-6.14831e-08
5.63666e-09
1.68611e-06
-6.12121e-08
5.51714e-09
1.69244e-06
-6.09519e-08
5.38488e-09
-6.07139e-08
5.244e-09
1.58353e-06
-6.21232e-08
-2.0233e-08
1.59113e-06
-6.22227e-08
-2.00013e-08
1.59875e-06
-6.22361e-08
-1.98225e-08
1.60623e-06
-6.20676e-08
-1.97524e-08
1.61349e-06
-6.17344e-08
-1.97922e-08
1.62045e-06
-6.13002e-08
-1.99238e-08
1.62709e-06
-6.08077e-08
-2.01319e-08
1.63338e-06
-6.03109e-08
-2.03979e-08
1.63936e-06
-5.98389e-08
-2.07115e-08
1.64506e-06
-5.94121e-08
-2.10463e-08
1.65052e-06
-5.90349e-08
-2.13883e-08
-5.87063e-08
-2.17226e-08
1.47192e-06
-5.4274e-08
-4.46819e-08
1.47808e-06
-5.42483e-08
-4.42133e-08
1.48469e-06
-5.41812e-08
-4.3894e-08
1.49113e-06
-5.3818e-08
-4.38675e-08
1.49714e-06
-5.33096e-08
-4.41127e-08
1.50269e-06
-5.27896e-08
-4.45481e-08
1.50779e-06
-5.22953e-08
-4.51153e-08
1.51254e-06
-5.18882e-08
-4.5743e-08
1.51702e-06
-5.15754e-08
-4.6369e-08
1.52132e-06
-5.13398e-08
-4.69663e-08
1.52551e-06
-5.11634e-08
-4.75148e-08
-4.80112e-08
1.28166e-06
-3.75888e-08
-6.68029e-08
1.28678e-06
-3.82969e-08
-6.59822e-08
1.29221e-06
-3.85805e-08
-6.58547e-08
1.29708e-06
-3.83723e-08
-6.63179e-08
1.30135e-06
-3.81739e-08
-6.71236e-08
1.30516e-06
-3.80498e-08
-6.80974e-08
1.3086e-06
-3.79876e-08
-6.91039e-08
1.31184e-06
-3.80415e-08
-7.00364e-08
1.31497e-06
-3.8185e-08
-7.08295e-08
1.31804e-06
-3.83646e-08
-7.14948e-08
-3.85428e-08
-7.20491e-08
1.01129e-06
-1.03755e-08
-8.73881e-08
1.01528e-06
-1.47909e-08
-8.56619e-08
1.01919e-06
-1.64218e-08
-8.57991e-08
1.02226e-06
-1.73337e-08
-8.70194e-08
1.02482e-06
-1.83141e-08
-8.84258e-08
1.02711e-06
-1.92122e-08
-8.97451e-08
1.0292e-06
-1.99365e-08
-9.09063e-08
1.03113e-06
-2.05632e-08
-9.18322e-08
1.03289e-06
-2.10929e-08
-9.25222e-08
1.03447e-06
-2.15353e-08
-9.30069e-08
-2.19072e-08
-9.3342e-08
6.08178e-07
-1.0767e-07
6.22969e-07
-1.04439e-07
6.31735e-07
-1.04513e-07
6.36319e-07
-1.05952e-07
6.38539e-07
-1.07143e-07
6.39133e-07
-1.07835e-07
6.3848e-07
-1.08138e-07
6.36865e-07
-1.08202e-07
6.34502e-07
-1.08155e-07
6.31528e-07
-1.08047e-07
-1.07907e-07
7.77932e-07
-6.23214e-10
7.72749e-07
-2.4632e-10
7.65949e-07
-1.04755e-10
7.58192e-07
-6.80495e-11
7.50005e-07
-2.02863e-10
7.4166e-07
-3.91252e-10
7.33437e-07
-6.50948e-10
7.25465e-07
-9.26186e-10
-1.17471e-09
1.15823e-06
-5.28295e-09
1.1593e-06
-5.10371e-09
1.15947e-06
-5.09482e-09
1.15892e-06
-5.24322e-09
1.15791e-06
-5.57892e-09
1.15663e-06
-5.97701e-09
1.15526e-06
-6.40908e-09
1.15388e-06
-6.83177e-09
-7.22424e-09
1.4197e-06
-1.18517e-08
1.42462e-06
-1.18693e-08
1.42905e-06
-1.20226e-08
1.43299e-06
-1.22917e-08
1.43646e-06
-1.2659e-08
1.43959e-06
-1.30965e-08
1.44248e-06
-1.35575e-08
1.44522e-06
-1.40228e-08
-1.44587e-08
1.58353e-06
-2.02314e-08
6.20104e-08
1.59113e-06
-1.99993e-08
6.22484e-08
1.59874e-06
-1.98204e-08
6.2436e-08
1.60622e-06
-1.97508e-08
6.24803e-08
1.61348e-06
-1.97919e-08
6.24037e-08
1.62044e-06
-1.99254e-08
6.22407e-08
1.62707e-06
-2.01353e-08
6.20163e-08
1.63337e-06
-2.04029e-08
6.17582e-08
1.63935e-06
-2.0718e-08
6.1485e-08
1.64505e-06
-2.10539e-08
6.12152e-08
1.65051e-06
-2.13968e-08
6.09567e-08
-2.17318e-08
6.07201e-08
1.6945e-06
-2.74956e-08
3.24439e-08
1.70318e-06
-2.74782e-08
3.23824e-08
1.7118e-06
-2.74017e-08
3.24e-08
1.72034e-06
-2.73501e-08
3.24095e-08
1.72878e-06
-2.73435e-08
3.23919e-08
1.73706e-06
-2.73745e-08
3.2352e-08
1.74514e-06
-2.74354e-08
3.22947e-08
1.75298e-06
-2.752e-08
3.22231e-08
1.76057e-06
-2.76212e-08
3.21417e-08
1.76789e-06
-2.7732e-08
3.20552e-08
1.77494e-06
-2.7849e-08
3.19647e-08
-2.79652e-08
3.18761e-08
1.73381e-06
-3.24437e-08
2.41585e-09
1.74224e-06
-3.23818e-08
2.36588e-09
1.7508e-06
-3.23994e-08
2.32697e-09
1.75946e-06
-3.24088e-08
2.2962e-09
1.76812e-06
-3.23912e-08
2.2749e-09
1.7767e-06
-3.23512e-08
2.24884e-09
1.78515e-06
-3.22936e-08
2.21216e-09
1.79342e-06
-3.22216e-08
2.16654e-09
1.80146e-06
-3.21394e-08
2.11234e-09
1.80925e-06
-3.20516e-08
2.05103e-09
1.81676e-06
-3.19594e-08
1.98464e-09
-3.18695e-08
1.91577e-09
1.6945e-06
-3.38841e-08
-2.7496e-08
1.70318e-06
-3.35893e-08
-2.74789e-08
1.7118e-06
-3.34334e-08
-2.74024e-08
1.72034e-06
-3.33558e-08
-2.73503e-08
1.72878e-06
-3.32766e-08
-2.7343e-08
1.73706e-06
-3.31819e-08
-2.7373e-08
1.74514e-06
-3.3074e-08
-2.74328e-08
1.75299e-06
-3.29531e-08
-2.75163e-08
1.76058e-06
-3.28236e-08
-2.76166e-08
1.7679e-06
-3.26909e-08
-2.77268e-08
1.77495e-06
-3.25572e-08
-2.78436e-08
-3.24273e-08
-2.79596e-08
1.58112e-06
-2.92863e-08
-5.59408e-08
1.58804e-06
-2.88704e-08
-5.58527e-08
1.59537e-06
-2.88472e-08
-5.58113e-08
1.60287e-06
-2.88828e-08
-5.58355e-08
1.61032e-06
-2.8929e-08
-5.59169e-08
1.61764e-06
-2.90087e-08
-5.60352e-08
1.62474e-06
-2.91128e-08
-5.61763e-08
1.63158e-06
-2.92071e-08
-5.63274e-08
1.63814e-06
-2.92848e-08
-5.64688e-08
1.64443e-06
-2.93552e-08
-5.65939e-08
1.65047e-06
-2.9415e-08
-5.67015e-08
-5.6794e-08
1.38774e-06
-1.89276e-08
-8.21995e-08
1.39378e-06
-1.84922e-08
-8.23946e-08
1.40034e-06
-1.88189e-08
-8.24392e-08
1.40701e-06
-1.93025e-08
-8.25694e-08
1.41356e-06
-1.98527e-08
-8.27584e-08
1.4199e-06
-2.04965e-08
-8.29426e-08
1.42595e-06
-2.11827e-08
-8.30907e-08
1.43167e-06
-2.17631e-08
-8.3196e-08
1.43704e-06
-2.22507e-08
-8.32339e-08
1.4421e-06
-2.26953e-08
-8.32114e-08
-2.30843e-08
-8.31516e-08
1.11705e-06
1.04255e-09
-1.0468e-07
1.12022e-06
-1.9466e-09
-1.05369e-07
1.12576e-06
-4.42988e-09
-1.05731e-07
1.13182e-06
-6.32866e-09
-1.06056e-07
1.13779e-06
-7.93355e-09
-1.06318e-07
1.1433e-06
-9.34111e-09
-1.0641e-07
1.14824e-06
-1.07086e-08
-1.06319e-07
1.15251e-06
-1.17679e-08
-1.06099e-07
1.1562e-06
-1.26351e-08
-1.05822e-07
1.15933e-06
-1.33641e-08
-1.05474e-07
-1.39601e-08
-1.05098e-07
7.03334e-07
-1.21865e-07
7.19248e-07
-1.22301e-07
7.32281e-07
-1.21976e-07
7.41879e-07
-1.21878e-07
7.48598e-07
-1.21795e-07
7.52925e-07
-1.21503e-07
7.5504e-07
-1.20962e-07
7.55357e-07
-1.20287e-07
7.54218e-07
-1.19651e-07
7.51914e-07
-1.19107e-07
-1.18641e-07
1.62e-06
5.98662e-09
1.62738e-06
5.89158e-09
1.63495e-06
5.89501e-09
1.64266e-06
5.89583e-09
1.65036e-06
5.8829e-09
1.65796e-06
5.85301e-09
1.66538e-06
5.80302e-09
1.67258e-06
5.72995e-09
1.67949e-06
5.63003e-09
1.68611e-06
5.50851e-09
1.69244e-06
5.37429e-09
5.23224e-09
1.73381e-06
2.41599e-09
1.74224e-06
2.3661e-09
1.7508e-06
2.32714e-09
1.75946e-06
2.29615e-09
1.76811e-06
2.27431e-09
1.7767e-06
2.24737e-09
1.78515e-06
2.20965e-09
1.79342e-06
2.1629e-09
1.80146e-06
2.10757e-09
1.80925e-06
2.0452e-09
1.81676e-06
1.97795e-09
1.90873e-09
1.77046e-06
-2.41575e-09
1.77992e-06
-2.3657e-09
1.78923e-06
-2.32668e-09
1.79841e-06
-2.29572e-09
1.80751e-06
-2.27417e-09
1.8165e-06
-2.24782e-09
1.82534e-06
-2.21077e-09
1.834e-06
-2.16462e-09
1.84243e-06
-2.10968e-09
1.85062e-06
-2.04738e-09
1.85854e-06
-1.97968e-09
-1.90962e-09
1.73381e-06
-5.98659e-09
1.74224e-06
-5.89146e-09
1.7508e-06
-5.89476e-09
1.75946e-06
-5.89559e-09
1.76812e-06
-5.88311e-09
1.7767e-06
-5.85404e-09
1.78515e-06
-5.80497e-09
1.79342e-06
-5.73275e-09
1.80146e-06
-5.6334e-09
1.80925e-06
-5.51201e-09
1.81676e-06
-5.37692e-09
-5.23444e-09
1.62e-06
-7.218e-09
1.62738e-06
-6.87329e-09
1.63496e-06
-6.84854e-09
1.64266e-06
-6.95674e-09
1.65036e-06
-7.09876e-09
1.65796e-06
-7.2506e-09
1.66539e-06
-7.39495e-09
1.67258e-06
-7.49938e-09
1.6795e-06
-7.53366e-09
1.68611e-06
-7.51553e-09
1.69245e-06
-7.46402e-09
1.43262e-06
-4.00889e-09
1.43777e-06
-3.85856e-09
1.44375e-06
-4.33537e-09
1.45009e-06
-4.90584e-09
1.45647e-06
-5.50296e-09
1.46268e-06
-6.11423e-09
1.46862e-06
-6.72118e-09
1.4742e-06
-7.23758e-09
1.47936e-06
-7.5547e-09
1.48414e-06
-7.76528e-09
-7.92553e-09
1.1643e-06
2.9514e-09
1.16876e-06
1.61308e-09
1.17416e-06
5.06701e-10
1.17963e-06
-6.94846e-10
1.18484e-06
-2.01444e-09
1.18942e-06
-3.15455e-09
1.19324e-06
-4.15062e-09
1.19628e-06
-4.99069e-09
1.19867e-06
-5.61188e-09
1.20053e-06
-6.07583e-09
-6.41869e-09
7.64103e-07
7.74686e-07
7.84302e-07
7.91486e-07
7.95798e-07
7.9753e-07
7.9709e-07
7.94978e-07
7.91592e-07
7.87241e-07
)
;

boundaryField
{
    inlet
    {
        type            calculated;
        value           nonuniform List<scalar> 0();
    }
    ami1
    {
        type            cyclicAMI;
        value           nonuniform List<scalar> 0();
    }
    walls
    {
        type            calculated;
        value           nonuniform List<scalar> 
227
(
1.28555e-14
6.40674e-15
1.54062e-22
-6.40674e-15
-1.28555e-14
-1.84387e-14
-2.43942e-14
-2.90979e-14
1.28555e-14
6.40674e-15
-2.88996e-22
-6.40674e-15
-1.28555e-14
-1.84387e-14
-2.43942e-14
-2.90979e-14
1.28555e-14
6.40674e-15
1.54838e-22
-6.40674e-15
-1.28555e-14
-1.84387e-14
-2.43942e-14
-2.90979e-14
1.84387e-14
1.28555e-14
6.40674e-15
1.54838e-22
-6.40674e-15
-1.28555e-14
-1.84387e-14
-2.43942e-14
-2.90979e-14
2.90979e-14
2.43942e-14
1.84387e-14
1.28555e-14
6.40674e-15
1.54838e-22
-6.40674e-15
-1.28555e-14
-1.84387e-14
-2.43942e-14
-2.90979e-14
2.90979e-14
2.43942e-14
1.84387e-14
1.28555e-14
6.40674e-15
-2.89255e-22
-6.40674e-15
-1.28555e-14
-1.84387e-14
-2.43942e-14
-2.90979e-14
2.90979e-14
2.43942e-14
1.84387e-14
1.28555e-14
6.40674e-15
1.54579e-22
-6.40674e-15
-1.28555e-14
-1.84387e-14
-2.43942e-14
-2.90979e-14
2.90979e-14
2.43942e-14
1.84387e-14
1.28555e-14
6.40674e-15
1.54579e-22
-6.40674e-15
-1.28555e-14
-1.84387e-14
-2.43942e-14
-2.90979e-14
2.90979e-14
2.43942e-14
1.84387e-14
1.28555e-14
6.40674e-15
1.54579e-22
-6.40674e-15
-1.28555e-14
-1.84387e-14
-2.43942e-14
-2.90979e-14
2.90979e-14
2.43942e-14
1.84387e-14
1.28555e-14
6.40674e-15
-2.88479e-22
-6.40674e-15
-1.28555e-14
-1.84387e-14
-2.43942e-14
-2.90979e-14
2.90979e-14
2.43942e-14
1.84387e-14
1.28555e-14
6.40674e-15
1.55355e-22
-6.40674e-15
-1.28555e-14
-1.84387e-14
-2.43942e-14
-2.90979e-14
2.90979e-14
2.43942e-14
1.84387e-14
1.28555e-14
6.40674e-15
1.55355e-22
-6.40674e-15
-1.28555e-14
2.90979e-14
2.43942e-14
1.84387e-14
1.28555e-14
6.40674e-15
1.54062e-22
2.90979e-14
2.43942e-14
1.84387e-14
1.28555e-14
6.40674e-15
-2.88996e-22
2.90979e-14
2.43942e-14
1.84387e-14
1.28555e-14
6.40674e-15
1.54838e-22
2.90979e-14
2.43942e-14
1.84387e-14
1.28555e-14
6.40674e-15
1.54838e-22
2.90979e-14
2.43942e-14
1.84387e-14
1.28555e-14
6.40674e-15
1.54838e-22
2.90979e-14
2.43942e-14
1.84387e-14
1.28555e-14
6.40674e-15
-2.89255e-22
2.90979e-14
2.43942e-14
1.84387e-14
1.28555e-14
6.40674e-15
1.54579e-22
2.90979e-14
2.43942e-14
1.84387e-14
1.28555e-14
6.40674e-15
1.54579e-22
2.90979e-14
2.43942e-14
1.84387e-14
1.28555e-14
6.40674e-15
1.54579e-22
2.90979e-14
2.43942e-14
1.84387e-14
1.28555e-14
6.40674e-15
-2.88479e-22
2.90979e-14
2.43942e-14
1.84387e-14
1.28555e-14
6.40674e-15
1.55355e-22
-1.84387e-14
-1.28555e-14
-6.40674e-15
-2.90979e-14
-2.43942e-14
-1.84387e-14
-1.28555e-14
-6.40674e-15
-2.90979e-14
-2.43942e-14
-1.84387e-14
-1.28555e-14
-6.40674e-15
-2.90979e-14
-2.43942e-14
-1.84387e-14
-1.28555e-14
-6.40674e-15
-2.90979e-14
-2.43942e-14
-1.84387e-14
-1.28555e-14
-6.40674e-15
-2.90979e-14
-2.43942e-14
-1.84387e-14
-1.28555e-14
-6.40674e-15
-2.90979e-14
-2.43942e-14
-1.84387e-14
-1.28555e-14
-6.40674e-15
-2.90979e-14
-2.43942e-14
-1.84387e-14
-1.28555e-14
-6.40674e-15
-2.90979e-14
-2.43942e-14
-1.84387e-14
-1.28555e-14
-6.40674e-15
)
;
    }
    ami2
    {
        type            cyclicAMI;
        value           nonuniform List<scalar> 
48
(
-5.88425e-07
-6.88095e-07
-7.53588e-07
-7.73016e-07
-7.30395e-07
-5.98643e-07
-3.95514e-07
-1.79465e-07
-1.01196e-06
-1.11974e-06
-1.16268e-06
-1.15152e-06
-1.0472e-06
-8.5238e-07
-6.13264e-07
-3.50102e-07
-1.27849e-06
-1.38271e-06
-1.42819e-06
-1.40022e-06
-1.28575e-06
-1.10936e-06
-8.37131e-07
-4.82689e-07
-1.4665e-06
-1.57446e-06
-1.6127e-06
-1.5761e-06
-1.4665e-06
-1.27848e-06
-1.01195e-06
-5.88437e-07
-1.5761e-06
-1.6858e-06
-1.72529e-06
-1.6858e-06
-1.57446e-06
-1.38271e-06
-1.11973e-06
-6.88095e-07
-1.6127e-06
-1.72529e-06
-1.7608e-06
-1.72529e-06
-1.6127e-06
-1.42818e-06
-1.16268e-06
-7.5359e-07
)
;
    }
    outlet
    {
        type            calculated;
        value           nonuniform List<scalar> 0();
    }
    procBoundary0to1
    {
        type            processor;
        value           nonuniform List<scalar> 
138
(
-7.80739e-07
1.29755e-07
1.28121e-07
1.26391e-07
1.24674e-07
1.23167e-07
1.21877e-07
1.20828e-07
1.20012e-07
1.1933e-07
-1.15632e-06
1.15748e-07
1.1501e-07
1.13952e-07
1.12708e-07
1.11381e-07
1.10159e-07
1.09027e-07
1.08027e-07
1.07156e-07
1.2912e-08
1.23714e-08
-1.41438e-06
1.20089e-08
9.09684e-08
9.07312e-08
9.029e-08
8.97041e-08
8.90378e-08
8.8378e-08
8.77466e-08
8.71546e-08
8.66249e-08
-7.21761e-09
-6.87276e-09
-6.84846e-09
-6.95702e-09
-7.09834e-09
-7.249e-09
-7.39206e-09
-7.49524e-09
-7.52871e-09
-7.5105e-09
-7.46159e-09
-7.38836e-09
5.59417e-08
5.58537e-08
5.58125e-08
5.5837e-08
5.59188e-08
5.60373e-08
5.61789e-08
5.63305e-08
5.64726e-08
5.65986e-08
5.67069e-08
5.68005e-08
2.7497e-08
2.748e-08
2.74037e-08
2.7352e-08
2.73451e-08
2.73757e-08
2.74362e-08
2.75205e-08
2.76217e-08
2.77327e-08
2.78505e-08
2.79675e-08
-2.41479e-09
-2.36454e-09
-2.32533e-09
-2.29419e-09
-2.27242e-09
-2.24577e-09
-2.20839e-09
-2.16195e-09
-2.10684e-09
-2.04455e-09
-1.97714e-09
-1.90733e-09
-3.24429e-08
-3.2381e-08
-3.23984e-08
-3.24075e-08
-3.23896e-08
-3.23492e-08
-3.22911e-08
-3.22187e-08
-3.21364e-08
-3.20489e-08
-3.19574e-08
-3.18676e-08
-6.20095e-08
-6.22474e-08
-6.24347e-08
-6.24787e-08
-6.2402e-08
-6.22386e-08
-6.20137e-08
-6.17548e-08
-6.14806e-08
-6.12098e-08
-6.09497e-08
-6.07117e-08
-8.98435e-08
-9.05573e-08
-9.09317e-08
-9.09662e-08
-9.073e-08
-9.02895e-08
-8.97037e-08
-8.9037e-08
-8.83763e-08
-8.77438e-08
-8.71492e-08
-1.13262e-07
-1.15301e-07
-1.15969e-07
-1.15746e-07
-1.15009e-07
-1.13953e-07
-1.12709e-07
-1.11383e-07
-1.1016e-07
-1.09027e-07
-1.08026e-07
-1.29426e-07
-1.31271e-07
-1.31085e-07
-1.29757e-07
-1.28122e-07
-1.2639e-07
-1.24673e-07
-1.23166e-07
-1.21878e-07
-1.20831e-07
-1.20016e-07
)
;
    }
    procBoundary0to2
    {
        type            processor;
        value           nonuniform List<scalar> 
28
(
-8.59836e-08
-2.54248e-07
5.94971e-08
7.75523e-08
7.48557e-08
-4.75806e-07
7.93192e-08
-2.59614e-07
-7.63697e-08
-5.89909e-07
3.92983e-08
-7.19032e-08
6.08309e-08
5.81639e-08
-8.49481e-07
5.97312e-08
-5.14678e-07
-8.69279e-07
4.69373e-08
4.49169e-08
-1.11839e-06
4.48226e-08
-6.96396e-07
-1.05497e-06
3.14173e-08
3.00761e-08
-1.30449e-06
2.92193e-08
)
;
    }
    procBoundary0to8
    {
        type            processor;
        value           nonuniform List<scalar> 
29
(
7.17057e-08
2.26567e-07
4.37016e-07
6.24134e-07
7.44701e-07
2.14306e-07
5.36823e-07
8.26864e-07
1.03702e-06
1.16415e-06
3.99833e-07
8.09969e-07
1.11204e-06
1.32412e-06
1.45139e-06
5.80625e-07
1.01804e-06