/*--------------------------------*- C++ -*----------------------------------*\
| =========                 |                                                 |
| \\      /  F ield         | OpenFOAM: The Open Source CFD Toolbox           |
|  \\    /   O peration     | Version:  2212                                  |
|   \\  /    A nd           | Website:  www.openfoam.com                      |
|    \\/     M anipulation  |                                                 |
\*---------------------------------------------------------------------------*/
FoamFile
{
    version     2.0;
    format      ascii;
    arch        "LSB;label=32;scalar=64";
    class       volVectorField;
    location    "1";
    object      U;
}
// * * * * * * * * * * * * * * * * * * * * * * * * * * * * * * * * * * * * * //

dimensions      [0 1 -1 0 0 0 0];

internalField   nonuniform List<vector> 
689
(
(0.0331096 0.000266496 0.000109957)
(0.0320202 0.000184061 9.30361e-05)
(0.0312175 0.000121802 7.03823e-05)
(0.0305429 7.78203e-05 5.79798e-05)
(0.0299702 4.87138e-05 5.22214e-05)
(0.0294676 3.31451e-05 5.0366e-05)
(0.0290071 2.33457e-05 5.10842e-05)
(0.0285846 1.83416e-05 5.31397e-05)
(0.0514079 0.000451457 0.000328288)
(0.0504069 0.00029791 0.000188507)
(0.049673 0.00016619 0.000127911)
(0.0490205 6.58322e-05 0.000110798)
(0.0484201 -6.38793e-06 0.000115376)
(0.0478522 -5.84705e-05 0.000128485)
(0.0472989 -9.27672e-05 0.000144389)
(0.0467715 -0.000113929 0.000161749)
(0.0687314 0.00105904 0.00119732)
(0.0677321 0.000662174 0.000760104)
(0.0669631 0.000358443 0.000521714)
(0.0663529 0.00012701 0.00040181)
(0.0658129 -4.49165e-05 0.000355771)
(0.0652987 -0.000173824 0.00034669)
(0.0647945 -0.00027069 0.000354856)
(0.064291 -0.000341201 0.000367344)
(0.0637813 -0.00039272 0.000383109)
(0.0713893 0.00341283 -0.000631704)
(0.0732095 0.00282912 0.000232923)
(0.0745828 0.00216492 0.000346447)
(0.0754185 0.00152455 0.000215385)
(0.0758016 0.000970724 0.000133473)
(0.0759409 0.000528974 0.000119513)
(0.0759219 0.000191392 0.000143935)
(0.0757824 -6.11809e-05 0.000189446)
(0.0755418 -0.000250142 0.000235247)
(0.0752211 -0.000392619 0.000277719)
(0.0748359 -0.000501236 0.000319382)
(0.074394 -0.000580579 0.000357907)
(0.0743901 0.00273688 -0.00171923)
(0.0758965 0.00222727 -0.00130368)
(0.0773449 0.00157924 -0.000931789)
(0.0786041 0.00101184 -0.000704885)
(0.0795011 0.000550886 -0.000539666)
(0.0800756 0.000189039 -0.000386825)
(0.0804061 -8.50218e-05 -0.000235667)
(0.0805323 -0.000294573 -8.80888e-05)
(0.0804783 -0.000457796 4.66794e-05)
(0.0802855 -0.000585683 0.00016434)
(0.0799865 -0.000683218 0.000263251)
(0.0795973 -0.000751872 0.00035259)
(0.0782769 0.000450875 -0.00170124)
(0.0791528 0.000159858 -0.00181768)
(0.0802493 -0.000123774 -0.00163552)
(0.0811759 -0.000361396 -0.00136435)
(0.081788 -0.000561627 -0.00109987)
(0.0820888 -0.000719841 -0.000840202)
(0.0821383 -0.000824904 -0.00057319)
(0.0820004 -0.00089041 -0.000322312)
(0.0817121 -0.000934597 -0.000108564)
(0.0813032 -0.00096212 6.55957e-05)
(0.0808123 -0.000975348 0.000202458)
(0.0802635 -0.000978497 0.000323453)
(0.0826967 -0.00114516 -0.00239099)
(0.0830002 -0.00173315 -0.00235367)
(0.0832445 -0.00198259 -0.00205771)
(0.0831264 -0.00199208 -0.00165753)
(0.0826878 -0.00189305 -0.00123605)
(0.0820237 -0.00174593 -0.000835929)
(0.0812304 -0.00160797 -0.000479416)
(0.0803778 -0.00147996 -0.000198008)
(0.0794876 -0.00136347 2.78627e-05)
(0.0785971 -0.0012582 0.000194385)
(0.0777313 -0.00116786 0.000310823)
(0.0768986 -0.00109532 0.00040119)
(0.0863059 -0.00295233 -0.00241446)
(0.0851817 -0.00383453 -0.00221249)
(0.083722 -0.00365941 -0.00174222)
(0.0817761 -0.00318028 -0.00117637)
(0.0796702 -0.00270431 -0.000650823)
(0.0776515 -0.00227855 -0.00025021)
(0.075819 -0.00190808 3.17977e-05)
(0.0741905 -0.00160254 0.000217459)
(0.0727626 -0.00136095 0.000344892)
(0.0715107 -0.00117897 0.000413299)
(0.0704059 -0.0010471 0.000448548)
(0.0694198 -0.000955633 0.000467668)
(0.0850489 -0.00456165 -0.00196337)
(0.0812079 -0.00509846 -0.00156427)
(0.0770445 -0.00423975 -0.000773771)
(0.0728205 -0.00326084 -0.00018494)
(0.0692771 -0.0024326 0.000119501)
(0.0665009 -0.00180322 0.000278516)
(0.0643598 -0.0013756 0.000347836)
(0.0627003 -0.00108279 0.000371196)
(0.0613799 -0.000882711 0.000371624)
(0.0602863 -0.00076084 0.000362244)
(0.0593419 -0.00068924 0.000347552)
(0.0741846 -0.00442998 -0.000699074)
(0.0665661 -0.00452757 -0.000518728)
(0.0601732 -0.00321719 3.91155e-05)
(0.0550921 -0.00188359 0.000325241)
(0.0517515 -0.000967725 0.00035023)
(0.049776 -0.000619462 0.00030015)
(0.0483961 -0.000496348 0.000246517)
(0.0472881 -0.000434343 0.000201613)
(0.0463762 -0.000378032 0.000167981)
(0.0456004 -0.000324602 0.000150066)
(0.0449101 -0.000278026 0.000140834)
(0.0572606 -0.00445391 -0.000359464)
(0.0442016 -0.0015734 0.000232816)
(0.0384759 -0.000359696 0.000389786)
(0.035083 -0.000125402 0.000354816)
(0.0331111 -0.000109817 0.000266537)
(0.0320218 -9.28428e-05 0.000183919)
(0.0312193 -7.02577e-05 0.000121477)
(0.0305441 -5.79411e-05 7.75292e-05)
(0.0299707 -5.22159e-05 4.85303e-05)
(0.0294669 -5.0446e-05 3.30611e-05)
(0.0290071 -5.10633e-05 2.35331e-05)
(0.0517477 0.000350091 0.000968093)
(0.049773 0.000300494 0.000619237)
(0.0483942 0.000247215 0.00049585)
(0.0472874 0.000202357 0.000433893)
(0.0463766 0.000168596 0.000377694)
(0.0456026 0.000150495 0.000324383)
(0.0449112 0.000141041 0.000278259)
(0.0442889 0.000134844 0.000239081)
(0.0828954 0.000579748 0.00194224)
(0.0813515 0.000537647 0.00143778)
(0.0801411 0.00046722 0.00109276)
(0.0791752 0.000376878 0.000873177)
(0.0783726 0.000286886 0.000739456)
(0.077684 0.000216226 0.00064336)
(0.0770752 0.00015876 0.000569641)
(0.0765179 0.000115631 0.000506692)
(0.0953554 0.000790394 0.00295456)
(0.0948989 0.000708069 0.00236235)
(0.0944384 0.000580683 0.0019051)
(0.0940458 0.000437741 0.00156466)
(0.0937302 0.000298353 0.00131759)
(0.0934809 0.000171881 0.00113954)
(0.0932851 6.10381e-05 0.00101086)
(0.0931278 -3.20498e-05 0.000914028)
(0.0929954 -0.000109714 0.000843321)
(0.0979887 0.000955485 0.00169946)
(0.0982383 0.00101551 0.00202529)
(0.0985408 0.000942371 0.00201529)
(0.0988961 0.000793708 0.00180703)
(0.0991835 0.000601524 0.001569)
(0.0994096 0.000405828 0.00133993)
(0.0996175 0.000221265 0.00113779)
(0.099813 5.12828e-05 0.000981121)
(0.0999914 -9.79335e-05 0.000868424)
(0.100152 -0.000223897 0.000789229)
(0.100294 -0.000328237 0.000732853)
(0.100418 -0.000412575 0.000692113)
(0.0996443 0.000285016 0.000310977)
(0.099787 0.000313288 0.000384484)
(0.100088 0.000234877 0.000413085)
(0.100607 0.000105036 0.000382701)
(0.101176 -4.98752e-05 0.000344226)
(0.101699 -0.000214137 0.000326165)
(0.102164 -0.000369823 0.000326254)
(0.102572 -0.000492643 0.000329498)
(0.102926 -0.000586294 0.000339475)
(0.103229 -0.000662937 0.000363962)
(0.103485 -0.000724326 0.000396913)
(0.103698 -0.000771271 0.000432735)
(0.100985 -0.000720219 -0.000518306)
(0.10131 -0.000919271 -0.000705474)
(0.10166 -0.00105408 -0.000759211)
(0.102128 -0.0011426 -0.000724434)
(0.102615 -0.00120905 -0.000640485)
(0.10305 -0.0012593 -0.000522294)
(0.103414 -0.00129498 -0.000377939)
(0.103708 -0.00130706 -0.000224864)
(0.103941 -0.00128636 -9.7341e-05)
(0.104124 -0.00125217 2.05012e-05)
(0.104264 -0.00121841 0.00013051)
(0.10437 -0.00118447 0.000228773)
(0.102646 -0.0019549 -0.000968074)
(0.102773 -0.00224703 -0.0011653)
(0.102977 -0.00240137 -0.00119146)
(0.103186 -0.00243101 -0.00109093)
(0.10333 -0.00238038 -0.000920016)
(0.103384 -0.00228195 -0.000712151)
(0.10336 -0.00215 -0.000495794)
(0.103284 -0.00198444 -0.000297612)
(0.103178 -0.00182565 -0.000126996)
(0.103057 -0.0016741 1.89176e-05)
(0.102931 -0.00154278 0.000140956)
(0.102811 -0.00142846 0.000241719)
(0.101549 -0.00300166 -0.00108254)
(0.10197 -0.00352504 -0.00100646)
(0.102209 -0.00360789 -0.000862833)
(0.102176 -0.00342026 -0.000671606)
(0.10188 -0.00314809 -0.000458687)
(0.10142 -0.00281198 -0.000254872)
(0.100901 -0.00245972 -7.94647e-05)
(0.100386 -0.00213846 6.00558e-05)
(0.0999009 -0.00187207 0.000167928)
(0.0994647 -0.00165799 0.000248881)
(0.0990861 -0.00148468 0.000307386)
(0.0987653 -0.00134363 0.000348393)
(0.0963816 -0.00417134 -0.00085054)
(0.0977251 -0.00479918 -0.000647964)
(0.0979827 -0.0043613 -0.000302079)
(0.0974136 -0.00363707 -2.72251e-06)
(0.0964435 -0.00298145 0.000197871)
(0.0953944 -0.00241203 0.000315593)
(0.094408 -0.00196093 0.000373525)
(0.0935341 -0.00163107 0.000384583)
(0.0927879 -0.00139708 0.000372669)
(0.0921654 -0.00122723 0.000352738)
(0.0916488 -0.00109777 0.000326097)
(0.0874594 -0.0059189 -0.000318246)
(0.0879937 -0.00565926 -0.000138681)
(0.0868449 -0.00411782 0.000272886)
(0.0848163 -0.00274702 0.000517752)
(0.0828944 -0.00194324 0.000579156)
(0.0813499 -0.0014373 0.00053738)
(0.0801394 -0.00109231 0.000466814)
(0.0791733 -0.000872956 0.000376479)
(0.0783701 -0.000739219 0.000286578)
(0.0776805 -0.00064388 0.000216068)
(0.0770717 -0.000568412 0.000159403)
(0.0658156 -0.00368011 0.000912687)
(0.0602624 -0.00390123 0.000584658)
(0.0562714 -0.00214294 0.000576261)
(0.0531897 -0.000803753 0.000572144)
(0.0514129 -0.000327778 0.000451556)
(0.0504113 -0.000188226 0.000297766)
(0.0496768 -0.000127919 0.000165806)
(0.0490232 -0.000110978 6.54099e-05)
(0.0484216 -0.000115752 -6.93023e-06)
(0.0478517 -0.000128909 -5.87142e-05)
(0.0472997 -0.000144656 -9.25376e-05)
(0.0728207 -0.000185575 0.00326206)
(0.0692774 0.000119147 0.00243343)
(0.066502 0.000278999 0.00180261)
(0.064362 0.000348866 0.00137423)
(0.0627034 0.000372216 0.00108134)
(0.061384 0.000372492 0.000881316)
(0.0602914 0.000362893 0.000759548)
(0.0593475 0.00034811 0.00068772)
(0.0585059 0.000328834 0.000644024)
(0.0974154 -2.23191e-06 0.0036366)
(0.0964461 0.000198324 0.00298189)
(0.0953967 0.000316003 0.00241216)
(0.0944098 0.000373891 0.00196048)
(0.0935358 0.000384904 0.0016302)
(0.0927896 0.000372956 0.00139597)
(0.0921672 0.000352839 0.00122605)
(0.0916503 0.000325897 0.00109748)
(0.0912186 0.000297076 0.000997614)
(0.105294 0.000328389 0.00319999)
(0.105289 0.00039983 0.00286108)
(0.105172 0.00041891 0.0025198)
(0.105012 0.000395718 0.00220692)
(0.104855 0.000351493 0.00194071)
(0.104731 0.00029567 0.00172676)
(0.10465 0.000235679 0.00155405)
(0.10461 0.000173536 0.00141856)
(0.104609 0.000116002 0.00130757)
(0.107049 0.000237809 0.00208391)
(0.107449 0.000366814 0.0022739)
(0.107839 0.00041041 0.00230296)
(0.108269 0.000406351 0.0021974)
(0.108663 0.000364668 0.00203173)
(0.108999 0.000293811 0.00184699)
(0.109298 0.000209696 0.00166348)
(0.109575 0.000117253 0.00149889)
(0.109839 2.61364e-05 0.00136274)
(0.110097 -5.92123e-05 0.0012507)
(0.110352 -0.000136647 0.00115911)
(0.110606 -0.00020438 0.00108291)
(0.108314 -0.000171087 0.000995783)
(0.10878 -8.98018e-05 0.000960776)
(0.109196 -7.9827e-05 0.000950732)
(0.109706 -0.000112163 0.000929073)
(0.110239 -0.000169588 0.00089371)
(0.110749 -0.000243682 0.00085304)
(0.111232 -0.000325365 0.000814248)
(0.111691 -0.000404134 0.000779376)
(0.112125 -0.000473552 0.000752232)
(0.112532 -0.000532605 0.000733507)
(0.112916 -0.000581791 0.000721303)
(0.113278 -0.000621095 0.000712677)
(0.109386 -0.00105054 0.000135272)
(0.10977 -0.00103678 3.37294e-05)
(0.110157 -0.00105887 4.15564e-06)
(0.110624 -0.00109034 1.07681e-05)
(0.111123 -0.00112124 3.66601e-05)
(0.11161 -0.00114715 7.73967e-05)
(0.112076 -0.00116542 0.000129364)
(0.112516 -0.00117366 0.000186278)
(0.112926 -0.00116891 0.000242114)
(0.113306 -0.00115402 0.000294957)
(0.113659 -0.0011328 0.000343693)
(0.113988 -0.00110735 0.000387141)
(0.1096 -0.0018867 -0.000240016)
(0.109967 -0.00203336 -0.000294601)
(0.110345 -0.00213191 -0.000324226)
(0.110765 -0.00216226 -0.000307983)
(0.111175 -0.00213957 -0.000253856)
(0.111544 -0.00207827 -0.000175501)
(0.111869 -0.00198946 -8.53687e-05)
(0.112156 -0.00188337 5.81674e-06)
(0.112413 -0.00177198 8.58588e-05)
(0.112645 -0.00166254 0.000154914)
(0.112864 -0.00155577 0.000212883)
(0.113075 -0.00146016 0.000260476)
(0.107771 -0.00263745 -0.000376555)
(0.10838 -0.00294035 -0.000346238)
(0.108863 -0.003053 -0.000277765)
(0.109291 -0.00299306 -0.000177557)
(0.109604 -0.00283993 -7.2518e-05)
(0.109801 -0.00263585 2.41298e-05)
(0.109921 -0.00241096 0.000102875)
(0.109997 -0.00218894 0.000160603)
(0.110053 -0.00198475 0.000199486)
(0.110108 -0.00180455 0.000224745)
(0.110175 -0.00164931 0.000233917)
(0.110259 -0.00151567 0.000237748)
(0.104387 -0.00318559 1.58825e-05)
(0.104785 -0.00351874 7.61781e-05)
(0.105111 -0.00346924 0.000204943)
(0.105292 -0.00320144 0.000327574)
(0.105287 -0.00286173 0.000399386)
(0.105169 -0.00251986 0.00041883)
(0.105009 -0.00220685 0.000395899)
(0.104853 -0.00194082 0.000351781)
(0.10473 -0.00172713 0.000296026)
(0.104649 -0.00155507 0.000236254)
(0.104609 -0.0014181 0.000174676)
(0.0944071 -0.00364413 0.000746432)
(0.0952905 -0.00406234 0.000780282)
(0.0955801 -0.00361295 0.000812085)
(0.0953515 -0.00295581 0.000789515)
(0.0948936 -0.00236209 0.000707937)
(0.0944332 -0.00190431 0.000580818)
(0.0940411 -0.00156404 0.000437839)
(0.0937262 -0.00131732 0.000298368)
(0.0934775 -0.00113952 0.000171922)
(0.0932823 -0.00101151 6.11078e-05)
(0.0931255 -0.000911089 -3.01412e-05)
(0.0704799 -0.0027181 0.00273561)
(0.0704844 -0.00306761 0.00218469)
(0.0697819 -0.00205787 0.00156852)
(0.0687364 -0.00119546 0.00105957)
(0.0677377 -0.000758623 0.000662318)
(0.0669682 -0.000521688 0.00035811)
(0.0663571 -0.000402856 0.000126381)
(0.065816 -0.000357276 -4.57018e-05)
(0.0653003 -0.000348448 -0.000174659)
(0.0647942 -0.000356846 -0.000271542)
(0.0642911 -0.000369553 -0.000341768)
(0.0817791 -0.00117655 0.00317982)
(0.0796742 -0.000650501 0.00270389)
(0.0776555 -0.000249338 0.00227796)
(0.0758227 3.29702e-05 0.00190742)
(0.0741942 0.000218612 0.00160186)
(0.0727666 0.000345996 0.00136017)
(0.0715151 0.000414086 0.00117789)
(0.070411 0.000449168 0.00104534)
(0.0694266 0.000467725 0.000954023)
(0.102174 -0.00067046 0.00342146)
(0.101878 -0.000457924 0.00314792)
(0.101418 -0.000254623 0.00281048)
(0.1009 -7.9427e-05 0.00245801)
(0.100385 6.00795e-05 0.00213712)
(0.0999004 0.000167916 0.00187087)
(0.0994645 0.000248699 0.00165683)
(0.0990861 0.000306962 0.00148376)
(0.0987654 0.00034766 0.00134264)
(0.10929 -0.000176663 0.00299278)
(0.109603 -7.1961e-05 0.00283965)
(0.1098 2.41756e-05 0.00263554)
(0.10992 0.000102506 0.00241057)
(0.109996 0.000159972 0.00218843)
(0.110052 0.000198643 0.0019841)
(0.110107 0.000223548 0.00180378)
(0.110174 0.000232415 0.00164885)
(0.110257 0.000236152 0.00151506)
(0.111195 -0.000114086 0.00200162)
(0.111656 -6.66235e-05 0.00206176)
(0.112105 -2.21923e-05 0.00210813)
(0.112598 1.51908e-05 0.00209543)
(0.113079 4.24345e-05 0.00202982)
(0.113519 5.80002e-05 0.00192888)
(0.113919 6.27824e-05 0.00180447)
(0.11429 5.77897e-05 0.00167262)
(0.114638 4.60435e-05 0.00154437)
(0.114968 2.89948e-05 0.00142505)
(0.115288 9.38736e-06 0.0013188)
(0.115601 -1.07993e-05 0.00122421)
(0.11268 -0.000356989 0.00108436)
(0.113182 -0.000295407 0.00110698)
(0.113656 -0.000270597 0.00112476)
(0.114181 -0.000263228 0.00112283)
(0.114722 -0.000265258 0.00110134)
(0.115253 -0.000274757 0.00106664)
(0.115768 -0.000289558 0.00102337)
(0.116266 -0.00030619 0.000975015)
(0.116744 -0.00032195 0.000926459)
(0.117203 -0.000336483 0.000880264)
(0.117643 -0.000349686 0.000837726)
(0.118066 -0.000361059 0.000798866)
(0.113259 -0.000875188 0.000441115)
(0.113786 -0.000873136 0.000405864)
(0.114276 -0.000882733 0.000385987)
(0.114805 -0.000891517 0.000377563)
(0.115351 -0.00089493 0.000375266)
(0.115891 -0.000893135 0.00037694)
(0.116418 -0.000886685 0.000381261)
(0.11693 -0.000874934 0.000386207)
(0.117425 -0.000857321 0.000390299)
(0.117899 -0.00083541 0.000393493)
(0.118352 -0.000811211 0.000396178)
(0.118786 -0.00078583 0.000397964)
(0.112835 -0.00149548 -9.96622e-06)
(0.11339 -0.00156148 -1.66283e-06)
(0.113891 -0.00160149 1.82826e-06)
(0.114424 -0.00160962 1.10415e-05)
(0.114958 -0.00159029 2.73907e-05)
(0.115469 -0.0015497 4.85286e-05)
(0.115954 -0.00149268 7.16134e-05)
(0.116415 -0.00142472 9.34325e-05)
(0.116853 -0.00134867 0.000111758)
(0.11727 -0.00127113 0.000126463)
(0.117667 -0.00119563 0.000138274)
(0.118049 -0.00112478 0.000146534)
(0.111195 -0.00200171 -0.000114529)
(0.111656 -0.00206177 -6.70998e-05)
(0.112105 -0.00210814 -2.26747e-05)
(0.112598 -0.00209554 1.47643e-05)
(0.113079 -0.00202996 4.22319e-05)
(0.113519 -0.00192905 5.8116e-05)
(0.113919 -0.00180471 6.31828e-05)
(0.11429 -0.00167292 5.84232e-05)
(0.114638 -0.00154472 4.68856e-05)
(0.114969 -0.00142541 3.00953e-05)
(0.115289 -0.00131886 1.08483e-05)
(0.115602 -0.0012242 -9.14759e-06)
(0.107049 -0.00208424 0.000237531)
(0.107448 -0.002274 0.000366643)
(0.107838 -0.0023032 0.000410321)
(0.108268 -0.00219799 0.000406306)
(0.108661 -0.00203219 0.000364652)
(0.108997 -0.00184715 0.000293854)
(0.109297 -0.00166351 0.00020979)
(0.109574 -0.00149896 0.000117434)
(0.109838 -0.00136295 2.64251e-05)
(0.110097 -0.00125106 -5.87378e-05)
(0.110352 -0.00115853 -0.000135513)
(0.0979873 -0.00170034 0.000955008)
(0.098236 -0.00202547 0.00101556)
(0.0985384 -0.00201487 0.000942884)
(0.0988931 -0.00180675 0.000794335)
(0.0991803 -0.00156889 0.000601969)
(0.0994064 -0.00133983 0.00040606)
(0.0996145 -0.00113784 0.00022126)
(0.0998102 -0.000981482 5.10693e-05)
(0.0999891 -0.000869054 -9.81937e-05)
(0.10015 -0.000789628 -0.000223793)
(0.100293 -0.000732117 -0.000327097)
(0.0713912 0.000632371 0.00341305)
(0.073212 -0.000232388 0.00282922)
(0.0745853 -0.000345751 0.00216495)
(0.0754209 -0.000214326 0.0015245)
(0.0758037 -0.000132976 0.000970508)
(0.0759427 -0.000119992 0.00052857)
(0.0759232 -0.0001451 0.000190868)
(0.0757831 -0.000190961 -6.17886e-05)
(0.0755419 -0.000236856 -0.00025084)
(0.0752206 -0.000279651 -0.000393477)
(0.0748351 -0.000321852 -0.000501925)
(0.083129 -0.00165709 0.00199104)
(0.0826903 -0.00123536 0.00189251)
(0.0820259 -0.000834826 0.00174601)
(0.0812323 -0.000478127 0.00160835)
(0.0803792 -0.000196676 0.00148031)
(0.0794887 2.92139e-05 0.00136348)
(0.0785981 0.000195658 0.00125769)
(0.0777325 0.000311937 0.00116663)
(0.0769005 0.000401831 0.00109357)
(0.103183 -0.00109043 0.00243112)
(0.103327 -0.000919646 0.00238)
(0.103381 -0.000711823 0.0022812)
(0.103357 -0.000495509 0.002149)
(0.103282 -0.000297321 0.00198343)
(0.103177 -0.000126738 0.00182474)
(0.103056 1.89632e-05 0.00167304)
(0.102931 0.000140652 0.00154145)
(0.102811 0.000241066 0.00142679)
(0.110763 -0.00030764 0.0021627)
(0.111173 -0.000253644 0.0021396)
(0.111542 -0.000175451 0.00207795)
(0.111867 -8.55134e-05 0.00198889)
(0.112154 5.4679e-06 0.00188268)
(0.112411 8.52587e-05 0.0017712)
(0.112644 0.000153982 0.00166163)
(0.112863 0.000211523 0.00155478)
(0.113074 0.000258782 0.00145894)
(0.112834 -9.73149e-06 0.00149567)
(0.11339 -1.4407e-06 0.00156171)
(0.113891 2.03827e-06 0.00160172)
(0.114424 1.12014e-05 0.0016098)
(0.114957 2.74193e-05 0.00159031)
(0.115468 4.83565e-05 0.0015495)
(0.115953 7.12182e-05 0.00149229)
(0.116415 9.28103e-05 0.00142419)
(0.116853 0.000110889 0.00134806)
(0.117269 0.000125301 0.00127047)
(0.117666 0.000136754 0.001195)
(0.118049 0.00014475 0.00112412)
(0.114487 -0.000147969 0.000910062)
(0.11509 -0.000126611 0.000896159)
(0.115637 -0.000113346 0.000898792)
(0.116211 -0.000105548 0.000902809)
(0.116791 -0.000100462 0.000898762)
(0.11736 -9.69091e-05 0.000885426)
(0.117914 -9.43531e-05 0.000863976)
(0.118453 -9.23995e-05 0.00083593)
(0.118977 -9.09051e-05 0.000803393)
(0.119481 -8.97848e-05 0.00076819)
(0.119968 -8.87803e-05 0.000730951)
(0.120437 -8.79463e-05 0.000693961)
(0.115115 -0.000492586 0.000310776)
(0.115695 -0.000490171 0.000307425)
(0.11623 -0.000492906 0.000307716)
(0.116799 -0.000490916 0.000305741)
(0.117379 -0.00048765 0.000303583)
(0.117955 -0.000482535 0.000300737)
(0.118523 -0.000474724 0.000296529)
(0.11908 -0.000464677 0.000291156)
(0.119623 -0.000452674 0.000284735)
(0.12015 -0.000439223 0.000277538)
(0.120659 -0.000424838 0.000269848)
(0.12115 -0.000409944 0.000261831)
(0.114487 -0.000909985 -0.000148105)
(0.11509 -0.000896011 -0.000126749)
(0.115637 -0.000898632 -0.000113474)
(0.116211 -0.000902692 -0.000105629)
(0.116791 -0.000898745 -0.000100442)
(0.11736 -0.000885532 -9.67449e-05)
(0.117914 -0.000864205 -9.40197e-05)
(0.118454 -0.000836265 -9.1877e-05)
(0.118977 -0.000803787 -9.0164e-05)
(0.119482 -0.000768564 -8.87833e-05)
(0.119968 -0.00073122 -8.74804e-05)
(0.120437 -0.000694163 -8.6438e-05)
(0.11268 -0.00108449 -0.000357224)
(0.113182 -0.00110708 -0.000295692)
(0.113656 -0.00112486 -0.000270881)
(0.114181 -0.00112295 -0.000263458)
(0.114722 -0.00110147 -0.000265375)
(0.115253 -0.00106678 -0.000274713)
(0.115768 -0.00102353 -0.00028933)
(0.116266 -0.000975202 -0.000305767)
(0.116745 -0.000926647 -0.000321302)
(0.117203 -0.000880394 -0.000335548)
(0.117643 -0.000837607 -0.000348367)
(0.118067 -0.000798641 -0.000359531)
(0.108313 -0.000996111 -0.0001712)
(0.108779 -0.000961116 -8.99008e-05)
(0.109195 -0.00095108 -7.98729e-05)
(0.109705 -0.000929449 -0.000112167)
(0.110238 -0.000894025 -0.000169598)
(0.110748 -0.000853266 -0.000243702)
(0.111232 -0.000814436 -0.000325367)
(0.11169 -0.000779593 -0.000404077)
(0.112125 -0.000752482 -0.000473361)
(0.112532 -0.000733713 -0.000532143)
(0.112915 -0.000720785 -0.000580521)
(0.0996437 -0.000311261 0.000285121)
(0.099786 -0.00038487 0.0003134)
(0.100086 -0.00041343 0.000235113)
(0.100606 -0.000383051 0.00010533)
(0.101174 -0.000344562 -4.96797e-05)
(0.101698 -0.000326484 -0.000214104)
(0.102163 -0.000326615 -0.000369907)
(0.10257 -0.000329998 -0.00049286)
(0.102925 -0.000340081 -0.000586518)
(0.103228 -0.000364159 -0.000662599)
(0.103484 -0.000396208 -0.000722967)
(0.0743902 0.00171989 0.00273702)
(0.0758966 0.00130419 0.00222736)
(0.0773449 0.000932126 0.00157926)
(0.0786041 0.000705009 0.00101179)
(0.0795008 0.000539487 0.00055078)
(0.080075 0.000386263 0.000188838)
(0.0804053 0.00023476 -8.53491e-05)
(0.0805311 8.69487e-05 -0.000295037)
(0.0804766 -4.79544e-05 -0.000458406)
(0.0802836 -0.000165761 -0.000586544)
(0.0799844 -0.000265137 -0.000684086)
(0.113258 0.000441169 0.000875402)
(0.113785 0.000405894 0.000873414)
(0.114276 0.000385982 0.000883042)
(0.114805 0.000377528 0.000891795)
(0.115351 0.000375187 0.00089507)
(0.11589 0.000376783 0.000893064)
(0.116417 0.000380982 0.00088638)
(0.11693 0.000385767 0.000874406)
(0.117424 0.000389654 0.000856581)
(0.117899 0.000392591 0.000834461)
(0.118352 0.000394973 0.000810073)
(0.118786 0.000396515 0.000784599)
(0.115115 0.000310733 0.000492718)
(0.115695 0.00030735 0.000490349)
(0.11623 0.000307619 0.000493102)
(0.116798 0.000305626 0.000491092)
(0.117379 0.000303435 0.00048774)
(0.117955 0.000300525 0.000482482)
(0.118523 0.000296229 0.000474509)
(0.11908 0.000290738 0.000464301)
(0.119623 0.000284166 0.000452152)
(0.12015 0.000276781 0.00043858)
(0.120659 0.000268875 0.000424115)
(0.12115 0.00026069 0.000409214)
(0.115557 -4.8422e-08 5.23502e-08)
(0.116195 -5.78751e-08 7.05697e-08)
(0.116771 -7.14448e-08 8.32505e-08)
(0.117368 -9.36447e-08 9.03447e-08)
(0.117971 -1.26567e-07 9.18933e-08)
(0.118564 -1.73197e-07 8.45948e-08)
(0.119148 -2.29793e-07 7.67212e-08)
(0.119721 -2.91158e-07 7.58383e-08)
(0.120281 -3.51587e-07 8.8734e-08)
(0.120825 -4.05553e-07 1.21835e-07)
(0.121352 -4.46621e-07 1.82872e-07)
(0.121861 -4.72805e-07 2.63688e-07)
(0.115115 -0.000310835 -0.000492629)
(0.115695 -0.000307472 -0.000490224)
(0.11623 -0.000307766 -0.000492942)
(0.116799 -0.000305804 -0.000490906)
(0.117379 -0.000303673 -0.000487562)
(0.117955 -0.00030086 -0.000482345)
(0.118523 -0.000296682 -0.000474411)
(0.11908 -0.000291321 -0.000464221)
(0.119623 -0.000284876 -0.000452056)
(0.12015 -0.000277605 -0.000438424)
(0.12066 -0.000269781 -0.000423834)
(0.12115 -0.000261676 -0.000408786)
(0.113258 -0.000441289 -0.000875319)
(0.113785 -0.000406031 -0.000873325)
(0.114276 -0.000386146 -0.000882922)
(0.114805 -0.000377729 -0.000891661)
(0.115351 -0.000375441 -0.000894996)
(0.11589 -0.000377119 -0.000893089)
(0.116418 -0.000381433 -0.000886505)
(0.11693 -0.000386354 -0.000874601)
(0.117425 -0.00039038 -0.000856794)
(0.117899 -0.000393438 -0.000834615)
(0.118353 -0.000395879 -0.000810037)
(0.118787 -0.000397563 -0.000784469)
(0.109386 -0.000135565 -0.00105054)
(0.109769 -3.39909e-05 -0.00103675)
(0.110156 -4.42626e-06 -0.00105887)
(0.110624 -1.10649e-05 -0.00109038)
(0.111122 -3.69725e-05 -0.0011213)
(0.11161 -7.77053e-05 -0.0011472)
(0.112076 -0.000129666 -0.00116545)
(0.112515 -0.000186577 -0.00117364)
(0.112926 -0.000242373 -0.00116875)
(0.113306 -0.000295069 -0.00115356)
(0.113659 -0.000343258 -0.00113143)
(0.100984 0.000518 -0.000720161)
(0.10131 0.000705195 -0.000918984)
(0.101659 0.000758932 -0.00105372)
(0.102127 0.000724113 -0.00114227)
(0.102614 0.000640097 -0.00120883)
(0.103049 0.000521868 -0.00125914)
(0.103413 0.000377416 -0.00129493)
(0.103707 0.00022427 -0.00130717)
(0.103941 9.66825e-05 -0.00128644)
(0.104124 -2.07285e-05 -0.0012515)
(0.104265 -0.000130096 -0.00121672)
(0.0782771 0.0017014 0.000450977)
(0.079153 0.00181781 0.000159958)
(0.0802493 0.00163546 -0.000123685)
(0.0811756 0.00136413 -0.000361315)
(0.0817874 0.00109956 -0.000561576)
(0.0820879 0.000839668 -0.00071986)
(0.082137 0.000572242 -0.000825003)
(0.0819986 0.000321174 -0.00089066)
(0.0817099 0.000107285 -0.00093506)
(0.0813005 -6.69345e-05 -0.000962887)
(0.0808093 -0.000203966 -0.000976096)
)
;

boundaryField
{
    inlet
    {
        type            fixedValue;
        value           nonuniform List<vector> 0();
    }
    ami1
    {
        type            cyclicAMI;
        value           nonuniform List<vector> 0();
    }
    walls
    {
        type            noSlip;
    }
    ami2
    {
        type            cyclicAMI;
        value           nonuniform List<vector> 
48
(
(0.0700548 0.00316196 -0.000896466)
(0.0732645 0.00228764 -0.0014007)
(0.0777446 0.000388471 -0.00135186)
(0.0825586 -0.000759935 -0.00218826)
(0.0870284 -0.00222532 -0.00211709)
(0.0876667 -0.00339267 -0.00177501)
(0.0815797 -0.00364784 -0.000719886)
(0.071297 -0.00386744 -0.00014806)
(0.0977916 0.00086053 0.00150152)
(0.0995211 0.000265355 0.000305235)
(0.100689 -0.00060424 -0.000394558)
(0.102593 -0.00176956 -0.000829446)
(0.101338 -0.00261002 -0.00101954)
(0.0953833 -0.00344801 -0.000805366)
(0.0868841 -0.00459038 -0.000225911)
(0.0726678 -0.00297832 0.00111607)
(0.106742 0.000138397 0.00200669)
(0.107901 -0.000229447 0.00105367)
(0.109108 -0.00106458 0.000200521)
(0.109379 -0.00180993 -0.000195978)
(0.107289 -0.00250444 -0.000380325)
(0.104226 -0.00293203 -6.6757e-06)
(0.0937898 -0.00302265 0.000700906)
(0.0707594 -0.00152644 0.00273683)
(0.110883 -0.000140141 0.00198688)
(0.112344 -0.000389936 0.0010733)
(0.112902 -0.000874813 0.000470116)
(0.112437 -0.00146718 -6.61308e-06)
(0.110883 -0.00198697 -0.000140519)
(0.106741 -0.00200697 0.000138156)
(0.0977907 -0.00150215 0.000860212)
(0.0700559 0.000896889 0.00316212)
(0.112437 -6.4132e-06 0.0014673)
(0.114069 -0.000162916 0.000928702)
(0.114754 -0.000489945 0.000315377)
(0.114069 -0.000928668 -0.000163044)
(0.112344 -0.00107344 -0.000390129)
(0.107901 -0.00105393 -0.000229544)
(0.0995206 -0.000305421 0.000265457)
(0.0732646 0.00140111 0.00228779)
(0.112902 0.000470171 0.000874989)
(0.114754 0.000315345 0.000490055)
(0.115121 -4.54162e-08 4.21023e-08)
(0.114754 -0.00031544 -0.000489977)
(0.112902 -0.000470291 -0.000874916)
(0.109107 -0.000200783 -0.00106459)
(0.100689 0.000394365 -0.000604153)
(0.0777447 0.00135194 0.000388575)
)
;
    }
    outlet
    {
        type            zeroGradient;
    }
    procBoundary0to1
    {
        type            processor;
        value           nonuniform List<vector> 
138
(
(0.0832466 -0.00205754 0.00198161)
(0.0811766 -0.00136413 0.0003609)
(0.0817885 -0.00109962 0.000561464)
(0.0820889 -0.000839725 0.000720173)
(0.0821379 -0.000572265 0.000825597)
(0.0819994 -0.000321156 0.000891226)
(0.0817106 -0.000107263 0.000935209)
(0.0813011 6.69049e-05 0.000962353)
(0.0808098 0.000203775 0.00097511)
(0.0802608 0.000324286 0.000977624)
(0.102975 -0.00119132 0.00240111)
(0.102127 -0.000724513 0.00114272)
(0.102613 -0.000640463 0.00120909)
(0.103048 -0.00052215 0.00125916)
(0.103413 -0.000377638 0.00129465)
(0.103706 -0.000224608 0.00130663)
(0.10394 -9.70459e-05 0.00128578)
(0.104123 2.05629e-05 0.00125128)
(0.104264 0.000130292 0.00121707)
(0.104371 0.000228312 0.00118283)
(0.1096 -0.000239871 0.00188683)
(0.109966 -0.000294485 0.0020336)
(0.110344 -0.000323954 0.00213238)
(0.110344 -0.000323954 0.00213238)
(0.110623 1.07297e-05 0.00109062)
(0.111122 3.66719e-05 0.00112142)
(0.111609 7.74261e-05 0.00114711)
(0.112075 0.000129348 0.00116515)
(0.112515 0.000186143 0.00117317)
(0.112925 0.000241787 0.00116821)
(0.113306 0.000294354 0.00115305)
(0.113658 0.000342732 0.00113151)
(0.113989 0.000385854 0.0011058)
(0.109386 0.000135201 0.00105062)
(0.109769 3.35852e-05 0.00103683)
(0.110156 4.05499e-06 0.00105904)
(0.110623 1.07297e-05 0.00109062)
(0.111122 3.66719e-05 0.00112142)
(0.111609 7.74261e-05 0.00114711)
(0.112075 0.000129348 0.00116515)
(0.112515 0.000186143 0.00117317)
(0.112925 0.000241787 0.00116821)
(0.113306 0.000294354 0.00115305)
(0.113658 0.000342732 0.00113151)
(0.113989 0.000385854 0.0011058)
(0.11268 0.00108439 0.000357229)
(0.113181 0.00110698 0.000295655)
(0.113656 0.00112473 0.000270856)
(0.11418 0.00112277 0.000263473)
(0.114722 0.00110123 0.000265419)
(0.115253 0.00106646 0.000274757)
(0.115768 0.0010231 0.00028935)
(0.116266 0.000974653 0.000305751)
(0.116744 0.000925983 0.000321266)
(0.117203 0.000879638 0.000335543)
(0.117643 0.000836896 0.00034849)
(0.118066 0.000797829 0.000359663)
(0.114487 0.000909904 0.00014819)
(0.11509 0.000895958 0.000126863)
(0.115637 0.000898571 0.000113607)
(0.116211 0.000902583 0.000105775)
(0.116791 0.000898549 0.000100592)
(0.11736 0.000885224 9.68858e-05)
(0.117914 0.000863766 9.41459e-05)
(0.118453 0.000835689 9.19946e-05)
(0.118977 0.000803085 9.0297e-05)
(0.119481 0.000767766 8.89741e-05)
(0.119968 0.000730368 8.7787e-05)