/*--------------------------------*- C++ -*----------------------------------*\
| =========                 |                                                 |
| \\      /  F ield         | OpenFOAM: The Open Source CFD Toolbox           |
|  \\    /   O peration     | Version:  2212                                  |
|   \\  /    A nd           | Website:  www.openfoam.com                      |
|    \\/     M anipulation  |                                                 |
\*---------------------------------------------------------------------------*/
FoamFile
{
    version     2.0;
    format      ascii;
    arch        "LSB;label=32;scalar=64";
    class       surfaceVectorField;
    location    "1";
    object      Uf;
}
// * * * * * * * * * * * * * * * * * * * * * * * * * * * * * * * * * * * * * //

dimensions      [0 1 -1 0 0 0 0];

internalField   nonuniform List<vector> 
1812
(
(0.0325983 0.000225279 0.000101497)
(0.0404271 0.000340842 0.000215162)
(0.040563 0.000247869 0.000560765)
(0.0316227 0.000152932 8.17092e-05)
(0.039373 0.000229767 0.000139547)
(0.0391196 0.000185394 0.000396986)
(0.030877 9.98111e-05 6.4181e-05)
(0.0385979 0.000139464 8.92315e-05)
(0.0380865 0.000133634 0.000319765)
(0.0302572 6.32671e-05 5.51006e-05)
(0.0379321 7.27485e-05 6.6038e-05)
(0.037239 9.80245e-05 0.000269509)
(0.0297189 4.09295e-05 5.12937e-05)
(0.0373484 2.63358e-05 6.13605e-05)
(0.0365311 7.56283e-05 0.000225855)
(0.029238 2.82454e-05 5.07251e-05)
(0.0368196 -3.81321e-06 6.65071e-05)
(0.03592 6.61337e-05 0.000188769)
(0.0287964 2.08437e-05 5.2112e-05)
(0.036322 -2.33549e-05 7.58491e-05)
(0.0353672 6.25004e-05 0.000158292)
(0.0358576 -3.47482e-05 8.74328e-05)
(0.0348648 6.24032e-05 0.000132725)
(0.0509312 0.000374683 0.000258398)
(0.0586799 0.000538482 0.000479845)
(0.0653464 0.000472024 0.00109945)
(0.0500435 0.00023205 0.000158209)
(0.0577823 0.000321656 0.000317742)
(0.0641051 0.000359766 0.000810839)
(0.0493426 0.000116011 0.000119355)
(0.0571035 0.000149152 0.000252408)
(0.0631603 0.000259206 0.000618031)
(0.0487216 2.97221e-05 0.000113087)
(0.0565011 1.97482e-05 0.000239316)
(0.0623691 0.000171763 0.000498009)
(0.0481371 -3.24292e-05 0.000121931)
(0.0559391 -7.65791e-05 0.00024464)
(0.0616791 0.000102221 0.000424854)
(0.0475767 -7.56188e-05 0.000136437)
(0.0553996 -0.000148245 0.000257732)
(0.0610578 5.20506e-05 0.000373751)
(0.047036 -0.000103348 0.000153069)
(0.0548685 -0.000198656 0.000272224)
(0.0604799 1.67776e-05 0.000335451)
(0.054349 -0.000233323 0.000288986)
(0.0599393 -6.39901e-06 0.000305189)
(0.068155 0.000860606 0.000978714)
(0.071859 0.00127059 0.000717691)
(0.0809756 0.000888764 0.00206315)
(0.067334 0.000510308 0.000640909)
(0.0715062 0.000794893 0.000428768)
(0.0802259 0.000629822 0.00156296)
(0.0666603 0.000242726 0.000461762)
(0.0711621 0.000428045 0.000300083)
(0.0795989 0.0004077 0.00122328)
(0.0660824 4.10467e-05 0.000378791)
(0.0708284 0.000146461 0.000246016)
(0.0790887 0.00022405 0.00099321)
(0.0655548 -0.00010937 0.000351231)
(0.0704757 -6.33585e-05 0.000242222)
(0.0786519 7.70704e-05 0.000842395)
(0.0650467 -0.000222257 0.000350773)
(0.0700895 -0.000219815 0.000260588)
(0.0782595 -3.99061e-05 0.000742262)
(0.0645427 -0.000305946 0.0003611)
(0.0696711 -0.000337652 0.000285993)
(0.0778972 -0.000133085 0.000675006)
(0.0640369 -0.000366961 0.000375226)
(0.0692229 -0.000425759 0.00031287)
(0.0775529 -0.000205217 0.000626404)
(0.0687449 -0.00049051 0.000338559)
(0.0772167 -0.000260887 0.000592683)
(0.0722515 0.00312098 -0.000199391)
(0.0728372 0.00305385 -0.00123201)
(0.0838452 0.00216974 0.000551554)
(0.0740082 0.00249702 0.000289685)
(0.074506 0.00255848 -0.000463024)
(0.0849299 0.00183781 0.00121314)
(0.0750495 0.00184474 0.000280916)
(0.0759155 0.00191458 -0.000196068)
(0.0858018 0.00148934 0.00123018)
(0.0755944 0.00124764 0.000174429)
(0.0769556 0.00130009 -0.000175864)
(0.0864125 0.00109944 0.00104291)
(0.0758586 0.000749849 0.000126493)
(0.0775866 0.000783554 -0.000155859)
(0.0867508 0.00072103 0.000881882)
(0.0759294 0.000360183 0.000131724)
(0.0779359 0.000376499 -9.82204e-05)
(0.0869308 0.000400897 0.000760848)
(0.0758523 6.51057e-05 0.000166691)
(0.0780856 6.78226e-05 -1.66623e-05)
(0.087018 0.000146782 0.00066746)
(0.0756612 -0.000155661 0.000212347)
(0.0780742 -0.00016594 7.36117e-05)
(0.0870354 -5.43619e-05 0.000605644)
(0.0753812 -0.000321381 0.000256483)
(0.0779237 -0.000343934 0.000159)
(0.086991 -0.000212685 0.000565295)
(0.0750285 -0.000446927 0.000298551)
(0.0776647 -0.00047991 0.00023651)
(0.0868958 -0.000336676 0.000540127)
(0.074615 -0.000540907 0.000338645)
(0.0773211 -0.000583482 0.0003051)
(0.0867574 -0.000434002 0.000526667)
(0.0769046 -0.000657904 0.0003676)
(0.0865805 -0.000507835 0.000520289)
(0.0749567 0.00248207 -0.00151145)
(0.0763119 0.00159904 -0.00172362)
(0.0863178 0.00149038 -0.000689479)
(0.0766528 0.00190325 -0.00111773)
(0.0775065 0.00119682 -0.00157231)
(0.0871801 0.00114793 -0.000365869)
(0.0780418 0.00129554 -0.000818337)
(0.0787809 0.000749003 -0.00125906)
(0.0880864 0.000797635 -0.000179111)
(0.0790649 0.000781363 -0.000622275)
(0.0798757 0.000344216 -0.00101104)
(0.0889961 0.000475248 -0.000104449)
(0.0797812 0.000369962 -0.000463246)
(0.0806318 7.67162e-06 -0.000804637)
(0.0897381 0.000188542 -5.92314e-05)
(0.0802426 5.20085e-05 -0.000311246)
(0.0810709 -0.000255578 -0.000602635)
(0.0902886 -5.3664e-05 -8.19388e-06)
(0.0804684 -0.000189797 -0.000161878)
(0.0812626 -0.000447561 -0.000396792)
(0.0906826 -0.000267526 6.8177e-05)
(0.0805025 -0.000376184 -2.07047e-05)
(0.0812582 -0.00058554 -0.000197522)
(0.0909415 -0.000424436 0.000138231)
(0.0803816 -0.00052174 0.00010551)
(0.0810883 -0.000690199 -2.42145e-05)
(0.0910806 -0.00054465 0.000205928)
(0.0801363 -0.00063445 0.000213796)
(0.0807887 -0.000769962 0.000118752)
(0.091122 -0.000638778 0.000271927)
(0.0797923 -0.000717545 0.000307921)
(0.0803948 -0.000827036 0.000234281)
(0.0910847 -0.000710741 0.000332876)
(0.0799267 -0.000863885 0.000338249)
(0.0909802 -0.000762171 0.000391353)
(0.0786722 0.000305366 -0.00175946)
(0.0805114 -0.000361437 -0.00205747)
(0.0890294 -0.000160305 -0.00110473)
(0.0797619 1.80419e-05 -0.0017266)
(0.081098 -0.000801304 -0.00209438)
(0.0896448 -0.000477096 -0.00121015)
(0.0807521 -0.000242585 -0.00149994)
(0.0817636 -0.00107361 -0.00186297)
(0.0903876 -0.000652999 -0.00116361)
(0.0814921 -0.000461511 -0.00123211)
(0.082162 -0.00119325 -0.0015229)
(0.091097 -0.000787594 -0.0010252)
(0.0819364 -0.000640734 -0.000970038)
(0.0822429 -0.00124012 -0.00117618)
(0.0916498 -0.000919929 -0.000849126)
(0.0821151 -0.000772373 -0.000706696)
(0.0820559 -0.0012423 -0.000843177)
(0.092014 -0.00101368 -0.000665014)
(0.0820702 -0.000857657 -0.000447751)
(0.0816793 -0.00122285 -0.00052864)
(0.0922129 -0.00107081 -0.00046576)
(0.0818533 -0.000912503 -0.000215438)
(0.0811801 -0.00119102 -0.000263014)
(0.0922791 -0.00110006 -0.000268234)
(0.0815053 -0.000948358 -2.14842e-05)
(0.0805875 -0.00115392 -4.3067e-05)
(0.092238 -0.00110708 -9.94498e-05)
(0.0810576 -0.000968734 0.000134027)
(0.0799351 -0.00111346 0.000128418)
(0.0921093 -0.00110083 4.51227e-05)
(0.0805381 -0.000976922 0.000262955)
(0.0792546 -0.00107375 0.000255752)
(0.0919172 -0.00108749 0.000166496)
(0.0785623 -0.00103869 0.000361184)
(0.0916785 -0.00106909 0.000274169)
(0.0828707 -0.00143916 -0.00237233)
(0.0845644 -0.00209191 -0.002416)
(0.0921189 -0.00150996 -0.00172782)
(0.0831923 -0.00185787 -0.00220569)
(0.0841291 -0.00287022 -0.00233585)
(0.0923391 -0.00200049 -0.00178)
(0.0832038 -0.00198734 -0.00185762)
(0.0834916 -0.00290599 -0.00195641)
(0.0925641 -0.00218812 -0.00164468)
(0.0829046 -0.00194257 -0.00144679)
(0.0824276 -0.00264593 -0.00145191)
(0.0926005 -0.00219324 -0.00139301)
(0.0823523 -0.00181949 -0.00103599)
(0.0811262 -0.00233764 -0.000960773)
(0.092437 -0.00210889 -0.001094)
(0.0816279 -0.00167695 -0.000657672)
(0.0797611 -0.00203851 -0.000551692)
(0.0921122 -0.00197923 -0.000787462)
(0.0808017 -0.00154396 -0.000338712)
(0.0784301 -0.0017767 -0.000229815)
(0.0916823 -0.00184047 -0.000498976)
(0.0799295 -0.00142171 -8.50729e-05)
(0.0771759 -0.00155259 6.75473e-06)
(0.0911964 -0.00169496 -0.00025676)
(0.0790404 -0.00131084 0.000111124)
(0.0760075 -0.00136742 0.000186077)
(0.0906767 -0.00156087 -5.57876e-05)
(0.0781639 -0.00121303 0.000252604)
(0.0749299 -0.00122011 0.000304432)
(0.0901495 -0.00143611 0.000102191)
(0.0773138 -0.00113159 0.000356007)
(0.0739404 -0.00110718 0.000380084)
(0.0896334 -0.00132799 0.000222068)
(0.0730284 -0.00102399 0.000434523)
(0.089137 -0.0012367 0.000317838)
(0.0859502 -0.00339343 -0.00231348)
(0.0856368 -0.00385719 -0.00221695)
(0.0934439 -0.00300088 -0.00178117)
(0.0845583 -0.00374697 -0.00197736)
(0.0830665 -0.0045979 -0.00194745)
(0.0930434 -0.00366747 -0.00165607)
(0.0827318 -0.00341984 -0.0014593)
(0.0801677 -0.00404159 -0.00129143)
(0.0923792 -0.00355689 -0.00135996)
(0.0806987 -0.00294229 -0.000913599)
(0.0770091 -0.0032235 -0.000648942)
(0.0913289 -0.00320277 -0.000973859)
(0.0786505 -0.00249143 -0.000450516)
(0.074138 -0.00251618 -0.000202369)
(0.0900707 -0.00282576 -0.000593383)
(0.07673 -0.00209331 -0.000109206)
(0.0717161 -0.00197856 7.27117e-05)
(0.0887817 -0.00245211 -0.000281108)
(0.0750009 -0.00175531 0.000124628)
(0.0697194 -0.0015803 0.000239181)
(0.0875645 -0.00210481 -4.35015e-05)
(0.0734737 -0.00148175 0.000281176)
(0.0680744 -0.00128631 0.000334242)
(0.0864574 -0.00180509 0.000125514)
(0.0721348 -0.00126996 0.000379096)
(0.0667037 -0.00107404 0.00038769)
(0.0854709 -0.00156232 0.000247717)
(0.0709572 -0.00111304 0.000430923)
(0.065536 -0.000929578 0.000409811)
(0.0846009 -0.00137397 0.000325266)
(0.0699113 -0.00100137 0.000458108)
(0.0645166 -0.000833148 0.000415513)
(0.0838362 -0.00122936 0.000373914)
(0.0831616 -0.00111885 0.000404857)
(0.0838061 -0.00483005 -0.00176382)
(0.0790244 -0.00506763 -0.00165449)
(0.0902608 -0.00468874 -0.00137275)
(0.0792792 -0.00466911 -0.00116902)
(0.0730887 -0.00474202 -0.000957489)
(0.0888041 -0.00507024 -0.00111473)
(0.0748162 -0.00375029 -0.000479356)
(0.067689 -0.00343218 -0.000160066)
(0.0866739 -0.0041988 -0.000581746)
(0.0709856 -0.00284672 -3.27192e-05)
(0.0629897 -0.00231149 0.000223709)
(0.0841307 -0.00328423 -0.000139614)
(0.0678713 -0.00211791 0.000199009)
(0.0595588 -0.00152324 0.000313185)
(0.0817708 -0.00254371 0.000119209)
(0.0654246 -0.00158941 0.000313176)
(0.0572265 -0.00108353 0.000333372)
(0.0797889 -0.00196807 0.000265962)
(0.0635244 -0.0012292 0.000359516)
(0.0555076 -0.00084489 0.000320877)
(0.0781788 -0.0015546 0.000336459)
(0.0620352 -0.000982752 0.00037141)
(0.0541539 -0.000699378 0.000293303)
(0.0768806 -0.00126481 0.000359319)
(0.0608318 -0.000821775 0.000366934)
(0.05306 -0.000592808 0.000265504)
(0.0758243 -0.00106565 0.000358317)
(0.0598138 -0.00072504 0.000354898)
(0.0521426 -0.000519467 0.000244226)
(0.0749473 -0.000933889 0.000347216)
(0.0513391 -0.00047054 0.000226603)
(0.0741997 -0.000843222 0.000328968)
(0.0724662 -0.00447878 -0.000608901)
(0.0640285 -0.00428937 -0.000420326)
(0.0800609 -0.00595509 -0.000409209)
(0.0635609 -0.00387238 -0.000239806)
(0.0531452 -0.00257314 2.01178e-05)
(0.0760514 -0.00505654 -0.00034657)
(0.0572475 -0.00255039 0.000182178)
(0.0471527 -0.00146318 0.000268528)
(0.0719799 -0.00334415 0.000104543)
(0.0532981 -0.00142566 0.000337735)
(0.0430847 -0.000925791 0.000295939)
(0.06825 -0.00204854 0.000380031)
(0.050792 -0.000793593 0.00032519)
(0.0405654 -0.000560657 0.00024789)
(0.0655375 -0.00127352 0.000433917)
(0.0490904 -0.000557905 0.000273334)
(0.0391217 -0.000396928 0.000185186)
(0.0637528 -0.000885425 0.000391711)
(0.0478342 -0.000465346 0.000224065)
(0.0380883 -0.000319848 0.000133179)
(0.0624478 -0.000677564 0.000332467)
(0.0468302 -0.000406188 0.000184797)
(0.0372401 -0.000269633 9.7568e-05)
(0.0614027 -0.000557825 0.000269122)
(0.0459885 -0.000351317 0.000159023)
(0.0365313 -0.000225934 7.5298e-05)
(0.0605389 -0.000477949 0.000212081)
(0.0452558 -0.000301314 0.00014545)
(0.0359187 -0.000188846 6.594e-05)
(0.0598012 -0.000415356 0.000172199)
(0.0353667 -0.000157982 6.26285e-05)
(0.059147 -0.000363159 0.000142974)
(0.0520966 -0.00301366 -6.33237e-05)
(0.0606817 -0.00412527 0.000148863)
(0.0415427 -0.00096655 0.000311301)
(0.0506243 -0.00223931 0.000367884)
(0.0365659 -0.000242549 0.000372301)
(0.0455924 -0.000937786 0.000461487)
(0.034034 -0.000117609 0.000310676)
(0.0423239 -0.000378727 0.000441344)
(0.0325996 -0.00010133 0.000225228)
(0.04043 -0.000215008 0.00034091)
(0.0316245 -8.15503e-05 0.000152698)
(0.0393758 -0.000139235 0.000229622)
(0.0308785 -6.40994e-05 9.95033e-05)
(0.0386005 -8.90496e-05 0.000139114)
(0.030258 -5.50785e-05 6.30298e-05)
(0.0379339 -6.60155e-05 7.24034e-05)
(0.029719 -5.13309e-05 4.07957e-05)
(0.0373493 -6.14757e-05 2.60082e-05)
(0.0292372 -5.07547e-05 2.82971e-05)
(0.036819 -6.67305e-05 -3.96098e-06)
(0.0363224 -7.59369e-05 -2.31507e-05)
(0.0507889 0.000325293 0.000793665)
(0.0655358 0.000434125 0.00127345)
(0.0595568 0.000312802 0.00152403)
(0.0490878 0.000273855 0.000557544)
(0.0637518 0.000392028 0.000885568)
(0.0572254 0.000333784 0.00108312)
(0.0478327 0.000224786 0.000464872)
(0.0624475 0.000333046 0.000677555)
(0.0555074 0.000321788 0.000843907)
(0.0468301 0.000185476 0.000405794)
(0.0614031 0.000269728 0.000557775)
(0.0541549 0.000294265 0.00069834)
(0.0459896 0.000159545 0.000351039)
(0.0605402 0.000212578 0.000477994)
(0.053062 0.000266361 0.000591809)
(0.0452581 0.000145768 0.000301321)
(0.059804 0.000172531 0.000415171)
(0.0521461 0.000244873 0.000518593)
(0.0446013 0.000137942 0.00025867)
(0.0591492 0.000142854 0.000364179)
(0.0513422 0.000227234 0.000469598)
(0.0585557 0.000121345 0.000321891)
(0.0506222 0.000209946 0.000436179)
(0.0821161 0.000558697 0.00169001)
(0.0884529 0.000641308 0.00214494)
(0.0891692 0.000460203 0.00235386)
(0.0807422 0.000502434 0.00126527)
(0.0874105 0.000560128 0.00166389)
(0.0878542 0.000476709 0.00183797)
(0.0796525 0.000422049 0.00098297)
(0.0865788 0.000458488 0.00132998)
(0.0867473 0.000449354 0.00146353)
(0.0787718 0.000331882 0.000806316)
(0.085914 0.00034761 0.00110595)
(0.085824 0.000391432 0.00121042)
(0.0780283 0.000251556 0.000691408)
(0.0853675 0.000242064 0.000956796)
(0.0850474 0.000325611 0.00104479)
(0.0773797 0.000187493 0.0006065)
(0.0849071 0.000153528 0.000848388)
(0.0843895 0.000269793 0.00092497)
(0.0767973 0.000137195 0.000538166)
(0.0845073 8.01755e-05 0.000766279)
(0.0838232 0.000220519 0.000833115)
(0.0841468 2.12663e-05 0.000700538)
(0.0833241 0.00017998 0.000758005)
(0.0951079 0.000749232 0.00265846)
(0.097042 0.000805996 0.00244548)
(0.100047 0.00062595 0.00301506)
(0.0946581 0.000644376 0.00213373)
(0.0969399 0.000663541 0.0020011)
(0.0998033 0.000606751 0.00255216)
(0.0942397 0.000509212 0.00173488)
(0.0968064 0.000499143 0.00164057)
(0.0995047 0.000535198 0.00216338)
(0.0938859 0.000368047 0.00144112)
(0.0966999 0.000333336 0.00135787)
(0.0992219 0.000436692 0.00184843)
(0.0936034 0.000235117 0.00122856)
(0.0966278 0.000177193 0.00114803)
(0.0989814 0.000331561 0.00160332)
(0.0933822 0.00011646 0.0010752)
(0.0965822 3.88e-05 0.000998197)
(0.0987914 0.000228959 0.00141811)
(0.0932065 1.44941e-05 0.000962442)
(0.0965562 -7.97247e-05 0.000891804)
(0.0986495 0.000134753 0.00127625)
(0.0930615 -7.08821e-05 0.000878675)
(0.0965414 -0.000178521 0.000813313)
(0.0985475 5.06599e-05 0.00116697)
(0.0965312 -0.000259584 0.000756293)
(0.098477 -2.1783e-05 0.00108166)
(0.0979784 0.000985497 0.00186238)
(0.0987945 0.00061671 0.0009977)
(0.10231 0.000696959 0.00180906)
(0.0983656 0.000978939 0.00202029)
(0.098992 0.000683357 0.00124677)
(0.102632 0.000788357 0.00207144)
(0.0987447 0.000868039 0.00191116)
(0.0992937 0.000609724 0.00125988)
(0.102976 0.000753398 0.00209548)
(0.0990422 0.000697616 0.00168801)
(0.0997288 0.0004663 0.00113001)
(0.103367 0.000662681 0.00194591)
(0.0992908 0.000503676 0.00145446)
(0.100153 0.000290568 0.000985581)
(0.103705 0.000531106 0.00175223)
(0.0995121 0.000313547 0.00123886)
(0.100524 0.000109536 0.000857889)
(0.103983 0.000382194 0.00155554)
(0.0997148 0.000136274 0.00105945)
(0.100857 -6.23211e-05 0.000751359)
(0.104235 0.000233615 0.00137279)
(0.0999015 -2.33254e-05 0.000924772)
(0.101156 -0.000209918 0.000671334)
(0.104469 9.0129e-05 0.00122157)
(0.100071 -0.000160915 0.000828826)
(0.10142 -0.000332427 0.000617642)
(0.104688 -4.01435e-05 0.00110541)
(0.100223 -0.000276067 0.000761041)
(0.10165 -0.000434821 0.000588001)
(0.104895 -0.000153758 0.00101674)
(0.100356 -0.000370406 0.000712483)
(0.101847 -0.00051862 0.000574343)
(0.105091 -0.000250745 0.000948391)
(0.102014 -0.000584948 0.000570471)
(0.105277 -0.000331527 0.000894577)
(0.0995877 0.000299152 0.00034773)
(0.100309 -0.000218187 -0.000108472)
(0.103801 0.000112541 0.000604507)
(0.0998699 0.000274083 0.000398784)
(0.100542 -0.000307101 -0.000171861)
(0.104099 0.000192646 0.000606083)
(0.100364 0.000169957 0.000397893)
(0.100867 -0.00040736 -0.000173659)
(0.104455 0.000146596 0.000623703)
(0.100905 2.75803e-05 0.000363464)
(0.101361 -0.000513379 -0.000166039)
(0.10497 4.7989e-05 0.000609192)
(0.101438 -0.000132006 0.000335196)
(0.101889 -0.000624875 -0.000144575)
(0.105521 -7.25273e-05 0.000581513)
(0.101929 -0.00029198 0.00032621)
(0.102369 -0.000733372 -9.6378e-05)
(0.106038 -0.000204631 0.000560955)
(0.102369 -0.000431233 0.000327876)
(0.102784 -0.000829558 -2.47552e-05)
(0.106512 -0.000336349 0.000551077)
(0.10275 -0.000539468 0.000334486)
(0.103135 -0.000897824 5.21785e-05)
(0.106944 -0.000447413 0.000543102)
(0.103078 -0.000624616 0.000351718)
(0.103429 -0.000934923 0.000120203)
(0.107337 -0.000537247 0.000541157)
(0.103357 -0.000693631 0.000380438)
(0.103673 -0.000956485 0.000191204)
(0.10769 -0.000611909 0.000549787)
(0.103591 -0.000747798 0.000414824)
(0.103871 -0.000970608 0.000262529)
(0.108007 -0.000672496 0.000564891)
(0.104031 -0.000977471 0.00032928)
(0.108291 -0.000719618 0.000582295)
(0.10105 -0.000819745 -0.00061189)
(0.101823 -0.0013793 -0.000797092)
(0.10502 -0.000834924 -0.00023263)
(0.101437 -0.000986674 -0.000732342)
(0.102048 -0.00162312 -0.00098623)
(0.105373 -0.000911483 -0.000391704)
(0.101905 -0.00109834 -0.000741822)
(0.102324 -0.00175686 -0.00101049)
(0.105741 -0.00101195 -0.000421127)
(0.102381 -0.00117583 -0.00068246)
(0.102661 -0.00180967 -0.000933965)
(0.106208 -0.00108919 -0.000389531)
(0.102833 -0.00123417 -0.00058139)
(0.102975 -0.0018136 -0.000801211)
(0.106701 -0.00115037 -0.000325885)
(0.10323 -0.00127714 -0.000450117)
(0.103218 -0.00178619 -0.000633971)
(0.107161 -0.0011988 -0.000238552)
(0.103562 -0.00130102 -0.000301401)
(0.103387 -0.00173518 -0.000450239)
(0.107574 -0.00123477 -0.000133011)
(0.103825 -0.00129671 -0.000161102)
(0.103494 -0.00165578 -0.000271708)
(0.107938 -0.00125164 -2.18583e-05)
(0.104033 -0.00126926 -3.84199e-05)
(0.103556 -0.00156395 -0.000120317)
(0.108256 -0.00124396 7.46814e-05)
(0.104194 -0.00123529 7.55055e-05)
(0.103586 -0.00146941 1.33365e-05)
(0.108534 -0.00122333 0.00016406)
(0.104317 -0.00120144 0.000179641)
(0.103592 -0.00138539 0.000130921)
(0.108776 -0.00119892 0.00024678)
(0.103584 -0.00130995 0.000231828)
(0.10899 -0.00117162 0.000320362)
(0.102672 -0.00210096 -0.00106669)
(0.102083 -0.00248335 -0.0010162)
(0.10598 -0.00192621 -0.000616815)
(0.102865 -0.0023242 -0.00117838)
(0.102361 -0.00291824 -0.00110202)
(0.106222 -0.00214604 -0.00074703)
(0.10309 -0.00241619 -0.00114119)
(0.102583 -0.00304701 -0.00105438)
(0.10651 -0.00228152 -0.000770581)
(0.10326 -0.0024057 -0.00100547)
(0.102667 -0.00296192 -0.00090345)
(0.10682 -0.0023163 -0.000707869)
(0.103356 -0.00233116 -0.000816084)
(0.102586 -0.0027934 -0.000705964)
(0.107091 -0.00228299 -0.000590828)
(0.103371 -0.00221597 -0.000603973)
(0.102376 -0.00256858 -0.000494913)
(0.107296 -0.00220519 -0.000443535)
(0.103322 -0.00206722 -0.000396703)
(0.102098 -0.00231809 -0.000293029)
(0.10744 -0.00209611 -0.000286514)
(0.103231 -0.00190504 -0.000212304)
(0.101796 -0.00206834 -0.000119838)
(0.107538 -0.00196095 -0.000138615)
(0.103117 -0.00174987 -5.4039e-05)
(0.101496 -0.00185166 2.17682e-05)
(0.107606 -0.00182628 -1.06703e-05)
(0.102994 -0.00160844 7.99371e-05)
(0.101213 -0.00166614 0.000136588)
(0.107654 -0.00169614 9.90503e-05)
(0.10287 -0.00148562 0.000191338)
(0.100958 -0.00151195 0.000227587)
(0.107694 -0.00157738 0.000190794)
(0.100734 -0.00138332 0.000298387)
(0.107732 -0.00147247 0.000266298)
(0.10171 -0.00326335 -0.0010445)
(0.0988431 -0.00355328 -0.000900019)
(0.104517 -0.00286793 -0.000727977)
(0.102099 -0.00356646 -0.000934644)
(0.0997473 -0.00417809 -0.000804538)
(0.105028 -0.00331333 -0.000661595)
(0.102209 -0.00351407 -0.00076722)
(0.0999961 -0.00402791 -0.000594749)
(0.105383 -0.00340777 -0.000554989)
(0.102025 -0.00328418 -0.000565147)
(0.0996821 -0.0035535 -0.000341106)
(0.105569 -0.00327211 -0.000411159)
(0.101647 -0.00298004 -0.00035678)
(0.0990334 -0.0030641 -0.00011816)
(0.105564 -0.00305173 -0.000251919)
(0.101161 -0.00263585 -0.000167168)
(0.0982647 -0.0025949 5.15153e-05)
(0.105417 -0.00277369 -0.000101407)
(0.100643 -0.00229909 -9.70444e-06)
(0.0975011 -0.00218665 0.000169647)
(0.105203 -0.00247653 2.53756e-05)
(0.100142 -0.00200526 0.000113992)
(0.0967981 -0.00185946 0.000243333)
(0.10497 -0.00219892 0.000124245)
(0.0996818 -0.00176503 0.000208405)
(0.0961762 -0.00160982 0.000288696)
(0.104743 -0.00196005 0.000198254)
(0.0992749 -0.00157133 0.000278134)
(0.0956424 -0.00141973 0.000315995)
(0.104541 -0.00176039 0.000251869)
(0.0989247 -0.00141415 0.00032789)
(0.0951916 -0.00127075 0.000328535)
(0.104375 -0.00159428 0.00028621)
(0.104247 -0.00145606 0.000309171)
(0.0970267 -0.00448526 -0.000749252)
(0.0915902 -0.00504131 -0.000508642)
(0.10016 -0.00355858 -0.000493807)
(0.0978622 -0.00458024 -0.000475022)
(0.0924992 -0.00523402 -0.000352345)
(0.101057 -0.00413779 -0.000326348)
(0.0977014 -0.00399919 -0.000152401)
(0.0920016 -0.00420308 2.91668e-05)
(0.101347 -0.00396847 -5.27564e-05)
(0.0969209 -0.00330926 9.75742e-05)
(0.0906486 -0.00309369 0.0003303)
(0.101132 -0.00348143 0.000170887)
(0.0959142 -0.00269674 0.000256732)
(0.0891674 -0.00235431 0.000459586)
(0.100618 -0.00297522 0.000310797)
(0.094898 -0.00218648 0.000344559)
(0.0878523 -0.00183793 0.000476144)
(0.100008 -0.00250856 0.000380484)
(0.0939671 -0.001796 0.000379054)
(0.0867455 -0.00146378 0.000448738)
(0.099412 -0.00211799 0.000398603)
(0.0931583 -0.00151408 0.000378626)
(0.0858222 -0.00121092 0.000390892)
(0.0988768 -0.00181529 0.000382564)
(0.0924754 -0.00131216 0.000362703)
(0.0850454 -0.00104539 0.000325132)
(0.0984247 -0.00158879 0.000349215)
(0.091906 -0.0011625 0.000339417)
(0.0843868 -0.000926078 0.000269431)
(0.0980579 -0.0014164 0.000309948)
(0.0838206 -0.000833068 0.000220567)
(0.0977661 -0.00128345 0.000266837)
(0.0880983 -0.00578908 -0.000228464)
(0.0753966 -0.00543361 -0.000119147)
(0.0906761 -0.0047746 0.000150781)
(0.0874872 -0.00488854 6.71024e-05)
(0.0725382 -0.00476351 0.000210774)
(0.091372 -0.00490831 0.00028374)
(0.0857238 -0.00343242 0.000395319)
(0.0698053 -0.00290765 0.000511904)
(0.0908892 -0.00393771 0.000536598)
(0.0838069 -0.00234513 0.000548454)
(0.0671898 -0.00164693 0.000558952)
(0.0896939 -0.00287724 0.000652378)
(0.0821148 -0.00169027 0.000558268)
(0.0653487 -0.00109945 0.00047192)
(0.0884499 -0.00214541 0.000640942)
(0.0807407 -0.00126481 0.000502097)
(0.0641069 -0.000810494 0.00035955)
(0.0874073 -0.00166347 0.000560104)
(0.0796507 -0.000982635 0.000421646)
(0.0631616 -0.000617879 0.000258785)
(0.0865757 -0.00132971 0.000458381)
(0.0787696 -0.000806087 0.000331528)
(0.0623697 -0.000498019 0.000171346)
(0.0859111 -0.00110595 0.000347466)
(0.0780255 -0.000691549 0.000251323)
(0.0616789 -0.000424896 0.000101822)
(0.0853646 -0.000956924 0.000241986)
(0.0773755 -0.000606146 0.000187735)
(0.061056 -0.000374037 5.196e-05)
(0.0849039 -0.000849264 0.000153552)
(0.0604788 -0.000334785 1.73629e-05)
(0.0845044 -0.000764904 8.15734e-05)
(0.0652466 -0.00379067 0.000748672)
(0.0678934 -0.00444697 0.00192526)
(0.0584411 -0.00302208 0.00058046)
(0.0648161 -0.00360093 0.00130935)
(0.054321 -0.00147335 0.000574203)
(0.06229 -0.00193072 0.000989051)
(0.0521975 -0.000565766 0.00051185)
(0.0601154 -0.000886496 0.000773889)
(0.0509355 -0.000258002 0.000374661)
(0.0586852 -0.000478636 0.000538556)
(0.0500478 -0.000158072 0.000231786)
(0.057787 -0.000317589 0.00032143)
(0.049346 -0.000119449 0.000115608)
(0.0571075 -0.000252981 0.000148677)
(0.0487237 -0.000113365 2.92398e-05)
(0.056504 -0.000240182 1.91802e-05)
(0.0481379 -0.000122331 -3.28222e-05)
(0.0559407 -0.000245703 -7.72397e-05)
(0.047576 -0.000136782 -7.56259e-05)
(0.0553992 -0.000258896 -0.000148753)
(0.054869 -0.000273224 -0.000198803)
(0.0709861 -3.32143e-05 0.00284774)
(0.0841316 -0.000139692 0.00328484)
(0.0770106 -0.000649506 0.0032241)
(0.067872 0.000199073 0.00211802)
(0.0817721 0.000119226 0.00254436)
(0.0741401 -0.00020226 0.00251626)
(0.0654262 0.000313932 0.00158842)
(0.0797905 0.000266376 0.00196766)
(0.0717186 7.35879e-05 0.00197772)
(0.063527 0.000360541 0.00122778)
(0.0781808 0.000337167 0.00155359)
(0.0697222 0.000240406 0.00157912)
(0.0620388 0.000372354 0.000981327)
(0.0768831 0.00036003 0.00126368)
(0.0680778 0.00033534 0.0012852)
(0.0608363 0.000367692 0.000820432)
(0.0758272 0.000358944 0.00106449)
(0.0667077 0.000388625 0.00107298)
(0.0598194 0.000355501 0.000723634)
(0.0749509 0.000347636 0.000932738)
(0.0655408 0.000410472 0.000928444)
(0.0589273 0.000338472 0.000665872)
(0.0742034 0.000329217 0.00084242)
(0.0645219 0.000415996 0.000831632)
(0.0735503 0.000306796 0.000777732)
(0.0636136 0.00041278 0.000767515)
(0.096923 9.8046e-05 0.00330924)
(0.101134 0.000171562 0.00348059)
(0.0996823 -0.000340046 0.00355358)
(0.0959165 0.000257163 0.00269702)
(0.10062 0.000311236 0.00297511)
(0.0990338 -0.000117488 0.00306418)
(0.0949001 0.000344947 0.00218632)
(0.100011 0.000380734 0.00250859)
(0.098265 5.17034e-05 0.0025944)
(0.0939689 0.000379397 0.00179534)
(0.0994141 0.000398692 0.00211774)
(0.0975015 0.000169706 0.00218575)
(0.0931599 0.00037893 0.00151309)
(0.0988788 0.000382555 0.00181466)
(0.0967986 0.000243427 0.00185845)
(0.0924771 0.000362897 0.00131101)
(0.0984263 0.000349139 0.00158786)
(0.0961768 0.00028878 0.00160873)
(0.0919077 0.000339368 0.00116176)
(0.0980593 0.00030966 0.0014151)
(0.0956433 0.000315906 0.00141861)
(0.0914334 0.000311487 0.00104755)
(0.0977674 0.000266048 0.00128311)
(0.0951923 0.000328119 0.00127027)
(0.0975389 0.000223665 0.00117796)
(0.0948135 0.000331227 0.00115194)
(0.105293 0.00036411 0.00303054)
(0.106726 0.000381642 0.00275307)
(0.107217 5.66963e-05 0.00312565)
(0.105227 0.00040937 0.00269044)
(0.106913 0.00039131 0.00248094)
(0.107366 0.000160601 0.00286154)
(0.105089 0.000407314 0.00236336)
(0.107014 0.00036225 0.00220401)
(0.1074 0.000227957 0.00257635)
(0.104932 0.000373606 0.00207381)
(0.107075 0.000306755 0.00194665)
(0.107374 0.000259399 0.00230066)
(0.104792 0.000323581 0.00183373)
(0.107127 0.000237055 0.00172421)
(0.10733 0.000267223 0.00205291)
(0.104689 0.000265675 0.00164041)
(0.10719 0.000162459 0.00154366)
(0.107293 0.000258822 0.00184187)
(0.104629 0.000204608 0.00148631)
(0.107272 8.9169e-05 0.00139768)
(0.107277 0.0002406 0.0016647)
(0.104608 0.000144769 0.00136306)
(0.107374 1.88803e-05 0.00128154)
(0.107288 0.000213172 0.00151937)
(0.107496 -4.39628e-05 0.00118638)
(0.107328 0.000185084 0.00139745)
(0.107183 0.000302311 0.00217891)
(0.107668 4.4123e-05 0.00156375)
(0.109057 5.07827e-05 0.00205729)
(0.107611 0.000388612 0.00228843)
(0.1081 0.0001473 0.00163889)
(0.109486 0.000150157 0.00217654)
(0.108065 0.00040838 0.00225018)
(0.108503 0.000172755 0.00164558)
(0.109905 0.000192793 0.00221507)
(0.108472 0.000385509 0.00211457)
(0.108972 0.000155246 0.00158181)
(0.110366 0.000209069 0.00215427)
(0.10883 0.000329239 0.00193936)
(0.109434 0.000106384 0.0014809)
(0.110801 0.000203908 0.00203455)
(0.109148 0.000251753 0.00175524)
(0.109855 3.36717e-05 0.00136613)
(0.111188 0.000178777 0.00188731)
(0.109436 0.000163474 0.00158118)
(0.110245 -5.00706e-05 0.00125186)
(0.111536 0.000141035 0.00172978)
(0.109706 7.16946e-05 0.00143081)
(0.11061 -0.000136076 0.00115025)
(0.111858 9.33626e-05 0.00157912)
(0.109968 -1.6538e-05 0.00130672)
(0.110958 -0.000216522 0.00106754)
(0.112163 4.24284e-05 0.0014454)
(0.110224 -9.79297e-05 0.00120491)
(0.111289 -0.000289179 0.00100082)
(0.112456 -8.64013e-06 0.00132888)
(0.110479 -0.000170514 0.00112101)
(0.111607 -0.000353051 0.000947577)
(0.112743 -5.73479e-05 0.00122961)
(0.111913 -0.000407135 0.000903939)
(0.113025 -0.000101657 0.00114419)
(0.108475 -0.000130444 0.000978279)
(0.108846 -0.000622938 0.000543246)
(0.110435 -0.000252003 0.00103209)
(0.108947 -8.48144e-05 0.000955754)
(0.109271 -0.00057158 0.000481193)
(0.110918 -0.00018489 0.00102837)
(0.10946 -9.59951e-05 0.000939903)
(0.109673 -0.000570381 0.000473335)
(0.111363 -0.000174879 0.00103698)
(0.109981 -0.000140875 0.000911392)
(0.110162 -0.00059965 0.000470104)
(0.11188 -0.000188994 0.00102567)
(0.110494 -0.000206635 0.000873375)
(0.110678 -0.000643296 0.000466169)
(0.112417 -0.000218059 0.000996011)
(0.110989 -0.000284523 0.000833644)
(0.111177 -0.000693011 0.000466673)
(0.112937 -0.000259329 0.000957208)
(0.111462 -0.000364749 0.000796812)
(0.111651 -0.000743087 0.000473144)
(0.113436 -0.000307014 0.000915162)
(0.111909 -0.000438843 0.000765804)
(0.112101 -0.000787392 0.000482925)
(0.113914 -0.000353601 0.000872313)
(0.112328 -0.000503079 0.00074287)
(0.112523 -0.000820245 0.000496545)
(0.114369 -0.000394787 0.000833218)
(0.112724 -0.000557198 0.000727405)
(0.112917 -0.000842524 0.000513458)
(0.114801 -0.000430672 0.000800046)
(0.113097 -0.000601443 0.00071699)
(0.113284 -0.00085668 0.00053163)
(0.115212 -0.000461411 0.000772413)
(0.113631 -0.000863846 0.000548843)
(0.115604 -0.000486558 0.000748679)
(0.109543 -0.00104366 8.45008e-05)
(0.109494 -0.00148628 -7.52106e-05)
(0.111269 -0.000975625 0.000290662)
(0.109937 -0.00104782 1.89425e-05)
(0.109869 -0.00155077 -0.00014942)
(0.111723 -0.000965483 0.000220023)