/*--------------------------------*- C++ -*----------------------------------*\
| =========                 |                                                 |
| \\      /  F ield         | OpenFOAM: The Open Source CFD Toolbox           |
|  \\    /   O peration     | Version:  2212                                  |
|   \\  /    A nd           | Website:  www.openfoam.com                      |
|    \\/     M anipulation  |                                                 |
\*---------------------------------------------------------------------------*/
FoamFile
{
    version     2.0;
    format      ascii;
    arch        "LSB;label=32;scalar=64";
    class       volScalarField;
    location    "0.6";
    object      epsilon;
}
// * * * * * * * * * * * * * * * * * * * * * * * * * * * * * * * * * * * * * //

dimensions      [0 2 -3 0 0 0 0];

internalField   nonuniform List<scalar> 
6840
(
90.5034
12.1248
4.38869
2.46658
1.63316
1.18306
0.902023
0.720661
0.594596
0.502572
0.432663
0.379445
0.336465
0.300336
0.27088
0.247165
0.228085
0.213031
0.204609
0.196089
58.5856
14.5696
6.08947
3.33295
2.08217
1.40267
0.998657
0.740304
0.565938
0.443981
0.35613
0.29107
0.241661
0.203342
0.17357
0.150463
0.132229
0.117876
0.106767
0.0990967
45.0226
13.4729
5.73075
3.07322
1.86022
1.22699
0.873571
0.649778
0.497019
0.389502
0.311331
0.253049
0.209084
0.175387
0.149092
0.128275
0.111643
0.098249
0.0874697
0.0790695
38.7028
13.0541
5.74336
3.08733
1.88066
1.22749
0.86947
0.645381
0.492596
0.384795
0.307071
0.249116
0.205087
0.171147
0.144623
0.123629
0.10681
0.093176
0.0820593
0.0738143
36.0571
12.8529
5.76644
3.10211
1.89475
1.22669
0.866499
0.643987
0.492264
0.383993
0.305863
0.248017
0.204063
0.170152
0.143621
0.122595
0.105728
0.0920424
0.0808823
0.0723899
36.0571
12.8529
5.76645
3.10211
1.89475
1.22669
0.866506
0.643996
0.492276
0.384009
0.305887
0.248049
0.204109
0.170217
0.143715
0.122733
0.105932
0.0923468
0.0813738
0.0735166
38.7028
13.0541
5.74336
3.08733
1.88066
1.22751
0.869486
0.645402
0.492623
0.384831
0.307124
0.249187
0.205185
0.171286
0.144824
0.123923
0.107245
0.0938326
0.0830257
0.0750281
45.0226
13.4729
5.73075
3.07323
1.86023
1.227
0.873585
0.649797
0.497045
0.389546
0.311388
0.253126
0.209189
0.175534
0.149309
0.128596
0.112121
0.0989764
0.0886136
0.0809222
58.5856
14.5696
6.08947
3.33295
2.08217
1.40267
0.998661
0.74031
0.565946
0.443997
0.356155
0.29111
0.241722
0.203465
0.173742
0.150724
0.132667
0.118677
0.108268
0.101492
90.5034
12.1248
4.38869
2.46658
1.63316
1.18306
0.902023
0.720662
0.594596
0.502573
0.432664
0.379445
0.336466
0.300336
0.270881
0.247167
0.228089
0.213036
0.204616
0.1961
58.5856
14.5696
6.08947
3.33295
2.08217
1.40267
0.998661
0.740309
0.565945
0.443996
0.356154
0.291109
0.241722
0.203465
0.173741
0.150723
0.132665
0.118674
0.108265
0.101488
16.5373
9.49239
5.0127
2.8606
1.75746
1.14759
0.786935
0.562057
0.415382
0.315973
0.246372
0.196286
0.159318
0.131401
0.109994
0.0935128
0.0805713
0.0699657
0.0615766
0.0575422
13.6679
8.73671
5.07741
3.05388
1.92223
1.26609
0.86929
0.618635
0.453968
0.342051
0.263678
0.207355
0.165969
0.134946
0.111281
0.092868
0.0784229
0.0669148
0.0576091
0.0503649
12.9054
8.33993
5.07879
3.15547
2.02774
1.3512
0.933535
0.666459
0.48955
0.368605
0.283623
0.222418
0.177375
0.143601
0.11785
0.0979138
0.0822803
0.0698789
0.0599438
0.0518329
12.6882
8.1544
5.07113
3.20038
2.07939
1.39506
0.967829
0.692722
0.50964
0.384024
0.29552
0.231676
0.184638
0.149332
0.122392
0.101528
0.0851634
0.0721825
0.0617926
0.053432
12.6882
8.1544
5.07113
3.20038
2.07939
1.39506
0.967834
0.692727
0.509647
0.384033
0.295531
0.23169
0.184656
0.149357
0.122422
0.101564
0.0852063
0.072232
0.0618458
0.0535304
12.9054
8.33993
5.07879
3.15547
2.02775
1.35121
0.933545
0.66647
0.489564
0.368622
0.283645
0.222447
0.177414
0.143648
0.117906
0.097984
0.0823668
0.0699825
0.0600575
0.0519753
13.6679
8.73671
5.07741
3.05388
1.92224
1.2661
0.869296
0.618643
0.453978
0.342063
0.263694
0.207376
0.165996
0.134982
0.111323
0.0929193
0.0784836
0.0669803
0.0576615
0.0510589
16.5373
9.49239
5.0127
2.8606
1.75746
1.14759
0.786935
0.562058
0.415382
0.315973
0.246372
0.196287
0.159319
0.131403
0.109994
0.0935117
0.0805707
0.0699651
0.0615772
0.0575426
58.5856
14.5696
6.08947
3.33295
2.08217
1.40267
0.998657
0.740304
0.565938
0.443981
0.35613
0.291071
0.241662
0.203341
0.173569
0.150463
0.132231
0.117878
0.106771
0.0991011
45.0226
13.4729
5.73075
3.07323
1.86023
1.227
0.873585
0.649797
0.497044
0.389545
0.311387
0.253125
0.209188
0.175534
0.149309
0.128595
0.11212
0.0989749
0.0886117
0.0809198
13.6679
8.73671
5.07741
3.05388
1.92224
1.2661
0.869296
0.618642
0.453978
0.342063
0.263694
0.207375
0.165995
0.13498
0.111324
0.0929208
0.0784846
0.0669809
0.0576619
0.0510592
11.8601
7.76395
4.99734
3.24076
2.14419
1.45499
1.01411
0.725641
0.532166
0.399165
0.30557
0.238258
0.188879
0.151997
0.123991
0.102397
0.0855327
0.0721984
0.0615577
0.0531071
11.6229
7.60535
5.0103
3.34209
2.26848
1.57142
1.11236
0.804589
0.594208
0.447524
0.343222
0.267652
0.21193
0.170169
0.138398
0.113885
0.0947389
0.0796148
0.0675533
0.0578678
11.5726
7.56718
5.02065
3.38344
2.32103
1.62326
1.15828
0.843156
0.625692
0.472853
0.363492
0.283867
0.22493
0.180631
0.146853
0.120753
0.100344
0.0842118
0.0713364
0.0609611
11.5726
7.56718
5.02065
3.38344
2.32103
1.62326
1.15829
0.84316
0.625697
0.472859
0.363499
0.283877
0.224943
0.180647
0.146873
0.120776
0.100371
0.0842434
0.071374
0.0610262
11.6229
7.60535
5.01031
3.34209
2.26848
1.57143
1.11236
0.804596
0.594215
0.447533
0.343234
0.267669
0.211952
0.170196
0.138426
0.113921
0.0947832
0.079668
0.0676155
0.0579674
11.8601
7.76395
4.99734
3.24076
2.1442
1.45499
1.01411
0.725641
0.532166
0.399166
0.30557
0.238259
0.188882
0.151999
0.123988
0.102394
0.085531
0.0721974
0.061557
0.0531053
13.6679
8.73671
5.07741
3.05388
1.92223
1.26609
0.86929
0.618635
0.453968
0.342051
0.263678
0.207356
0.16597
0.134948
0.111279
0.0928658
0.0784212
0.0669135
0.0576084
0.0503636
45.0226
13.4729
5.73075
3.07322
1.86022
1.22699
0.873571
0.649778
0.497019
0.389502
0.311331
0.253049
0.209084
0.175387
0.149092
0.128276
0.111644
0.0982504
0.0874716
0.079072
38.7028
13.0541
5.74336
3.08733
1.88066
1.22751
0.869486
0.645402
0.492623
0.38483
0.307124
0.249187
0.205185
0.171286
0.144823
0.123922
0.107245
0.0938318
0.0830248
0.0750275
12.9054
8.33993
5.07879
3.15547
2.02775
1.35121
0.933545
0.66647
0.489563
0.368622
0.283645
0.222446
0.177411
0.143646
0.117908
0.0979852
0.0823675
0.0699829
0.0600575
0.0519755
11.6229
7.60535
5.01031
3.34209
2.26848
1.57143
1.11236
0.804595
0.594215
0.447533
0.343234
0.267667
0.211949
0.170194
0.138428
0.113923
0.0947843
0.0796686
0.067616
0.0579697
11.4933
7.5119
5.02843
3.434
2.3892
1.6928
1.22112
0.89649
0.669461
0.508129
0.391666
0.306302
0.24281
0.194929
0.158343
0.130039
0.107895
0.09039
0.0764158
0.0651288
11.4757
7.50136
5.04297
3.47002
2.43665
1.74299
1.26863
0.938713
0.705585
0.538338
0.416598
0.326736
0.259514
0.208585
0.169529
0.139231
0.115478
0.0966705
0.0816276
0.069394
11.4757
7.50136
5.04297
3.47002
2.43665
1.74299
1.26863
0.938715
0.705587
0.53834
0.4166
0.326739
0.259518
0.20859
0.169534
0.139237
0.115485
0.0966777
0.0816338
0.0693788
11.4933
7.5119
5.02843
3.434
2.3892
1.6928
1.22112
0.89649
0.669461
0.508129
0.391667
0.306303
0.242813
0.19493
0.15834
0.130037
0.107894
0.0903893
0.0764148
0.0651244
11.6229
7.60535
5.0103
3.34209
2.26848
1.57142
1.11236
0.80459
0.594208
0.447524
0.343222
0.267653
0.211933
0.170171
0.138395
0.113883
0.0947371
0.0796137
0.0675522
0.0578637
12.9054
8.33993
5.07879
3.15547
2.02774
1.3512
0.933536
0.666459
0.48955
0.368605
0.283623
0.222418
0.177377
0.143603
0.117848
0.0979113
0.0822783
0.0698774
0.0599427
0.0518316
38.7028
13.0541
5.74336
3.08733
1.88066
1.22749
0.86947
0.645381
0.492596
0.384795
0.307072
0.249117
0.205087
0.171146
0.144622
0.12363
0.106811
0.0931769
0.0820605
0.0738153
36.0571
12.8529
5.76645
3.10211
1.89475
1.22669
0.866506
0.643996
0.492276
0.384009
0.305887
0.248049
0.204109
0.170217
0.143715
0.122733
0.105932
0.0923469
0.0813739
0.0735165
12.6882
8.1544
5.07113
3.20038
2.07939
1.39506
0.967834
0.692727
0.509647
0.384033
0.295531
0.23169
0.184655
0.149354
0.122421
0.101564
0.0852061
0.072232
0.0618458
0.0535306
11.5726
7.56718
5.02065
3.38344
2.32103
1.62326
1.15829
0.84316
0.625697
0.472859
0.363499
0.283877
0.224942
0.180645
0.146871
0.120775
0.100371
0.0842434
0.0713742
0.0610276
11.4757
7.50136
5.04297
3.47002
2.43665
1.74299
1.26863
0.938715
0.705587
0.53834
0.4166
0.326739
0.259517
0.208589
0.169533
0.139236
0.115485
0.0966778
0.0816345
0.0693825
11.4647
7.49683
5.0577
3.50272
2.48038
1.79068
1.31522
0.981306
0.742925
0.57021
0.443351
0.348971
0.277897
0.223754
0.182051
0.149591
0.124076
0.103831
0.087603
0.0743431
11.4647
7.49683
5.0577
3.50272
2.48038
1.79068
1.31522
0.981306
0.742925
0.570211
0.443352
0.348971
0.277898
0.223755
0.182052
0.149591
0.124076
0.103831
0.0876027
0.0743412
11.4757
7.50136
5.04297
3.47002
2.43665
1.74299
1.26863
0.938714
0.705585
0.538338
0.416598
0.326737
0.259517
0.208586
0.169526
0.139229
0.115477
0.0966699
0.0816273
0.0693923
11.5726
7.56718
5.02065
3.38344
2.32103
1.62326
1.15828
0.843156
0.625692
0.472853
0.363492
0.283869
0.224933
0.180632
0.14685
0.12075
0.100342
0.0842107
0.0713356
0.0609583
12.6882
8.1544
5.07113
3.20038
2.07939
1.39506
0.967829
0.692722
0.50964
0.384024
0.295521
0.231677
0.18464
0.149334
0.122389
0.101526
0.0851612
0.0721809
0.0617913
0.0534304
36.0571
12.8529
5.76644
3.10211
1.89475
1.22669
0.866499
0.643987
0.492264
0.383993
0.305863
0.248017
0.204063
0.170152
0.143621
0.122595
0.105728
0.0920431
0.0808831
0.0723905
36.0571
12.8529
5.76644
3.10211
1.89475
1.22669
0.866499
0.643987
0.492264
0.383992
0.305863
0.248017
0.204063
0.170152
0.143621
0.122595
0.105728
0.0920427
0.0808825
0.0723899
12.6882
8.1544
5.07113
3.20038
2.07939
1.39506
0.967829
0.692722
0.50964
0.384024
0.29552
0.231676
0.184638
0.149332
0.122392
0.101528
0.0851633
0.0721825
0.0617927
0.0534322
11.5726
7.56718
5.02065
3.38344
2.32103
1.62326
1.15828
0.843156
0.625692
0.472853
0.363492
0.283867
0.22493
0.18063
0.146853
0.120753
0.100344
0.0842119
0.0713364
0.0609598
11.4757
7.50136
5.04297
3.47002
2.43665
1.74299
1.26863
0.938713
0.705585
0.538338
0.416598
0.326736
0.259514
0.208585
0.169528
0.139231
0.115478
0.0966708
0.081628
0.0693943
11.4647
7.49683
5.0577
3.50272
2.48038
1.79068
1.31522
0.981306
0.742925
0.57021
0.443352
0.348971
0.277897
0.223754
0.182051
0.149591
0.124077
0.103832
0.0876034
0.0743431
11.4647
7.49683
5.0577
3.50272
2.48038
1.79068
1.31522
0.981306
0.742925
0.570211
0.443352
0.348972
0.277898
0.223755
0.182052
0.149591
0.124077
0.103832
0.0876036
0.0743435
11.4757
7.50136
5.04297
3.47002
2.43665
1.74299
1.26863
0.938715
0.705587
0.53834
0.4166
0.32674
0.25952
0.20859
0.169531
0.139235
0.115484
0.0966777
0.0816345
0.0693808
11.5726
7.56718
5.02065
3.38344
2.32103
1.62326
1.15829
0.84316
0.625697
0.472859
0.3635
0.283878
0.224945
0.180647
0.146868
0.120773
0.10037
0.0842427
0.0713739
0.0610262
12.6882
8.1544
5.07113
3.20038
2.07939
1.39506
0.967834
0.692727
0.509647
0.384033
0.295531
0.23169
0.184657
0.149357
0.122418
0.101561
0.0852042
0.0722305
0.0618445
0.0535288
36.0571
12.8529
5.76645
3.10211
1.89475
1.22669
0.866506
0.643997
0.492276
0.384009
0.305887
0.24805
0.204109
0.170217
0.143715
0.122733
0.105932
0.0923474
0.0813745
0.0735172
38.7028
13.0541
5.74336
3.08733
1.88066
1.22749
0.86947
0.645381
0.492596
0.384795
0.307071
0.249116
0.205087
0.171147
0.144623
0.12363
0.10681
0.0931764
0.0820597
0.0738144
12.9054
8.33993
5.07879
3.15547
2.02774
1.3512
0.933536
0.666459
0.48955
0.368605
0.283623
0.222418
0.177376
0.143601
0.117851
0.097914
0.0822805
0.0698791
0.0599441
0.0518332
11.6229
7.60535
5.0103
3.34209
2.26848
1.57142
1.11236
0.80459
0.594208
0.447524
0.343222
0.267652
0.21193
0.17017
0.138399
0.113886
0.0947395
0.0796154
0.0675535
0.0578653
11.4933
7.5119
5.02843
3.434
2.38921
1.6928
1.22112
0.89649
0.669461
0.508129
0.391667
0.306302
0.24281
0.194929
0.158343
0.130039
0.107896
0.0903909
0.0764162
0.065126
11.4757
7.50136
5.04297
3.47002
2.43665
1.74299
1.26863
0.938715
0.705587
0.53834
0.4166
0.326739
0.259518
0.208589
0.169534
0.139237
0.115486
0.0966789
0.0816351
0.0693806
11.4757
7.50136
5.04297
3.47002
2.43665
1.74299
1.26863
0.938713
0.705585
0.538338
0.416598
0.326737
0.259515
0.208587
0.16953
0.139232
0.115479
0.0966717
0.081629
0.0693955
11.4933
7.5119
5.02843
3.434
2.38921
1.6928
1.22112
0.89649
0.669461
0.508129
0.391667
0.306303
0.242813
0.194931
0.158341
0.130038
0.107895
0.0903904
0.0764165
0.0651283
11.6229
7.60535
5.01031
3.34209
2.26848
1.57143
1.11236
0.804595
0.594215
0.447533
0.343235
0.267669
0.211952
0.170196
0.138426
0.113921
0.0947832
0.0796682
0.0676161
0.0579691
12.9054
8.33993
5.07879
3.15547
2.02775
1.35121
0.933545
0.66647
0.489564
0.368622
0.283645
0.222447
0.177414
0.143649
0.117906
0.097983
0.0823658
0.0699815
0.0600563
0.051974
38.7028
13.0541
5.74336
3.08733
1.88066
1.22751
0.869486
0.645402
0.492623
0.384831
0.307124
0.249187
0.205185
0.171286
0.144823
0.123923
0.107245
0.0938325
0.0830258
0.0750286
45.0226
13.4729
5.73075
3.07322
1.86022
1.22699
0.873571
0.649778
0.497019
0.389502
0.311331
0.253049
0.209084
0.175387
0.149092
0.128276
0.111643
0.0982497
0.0874706
0.0790708
13.6679
8.73671
5.07741
3.05388
1.92223
1.26609
0.86929
0.618635
0.453968
0.342051
0.263678
0.207355
0.165969
0.134946
0.111281
0.0928685
0.0784233
0.066915
0.0576091
0.0503644
11.8601
7.76395
4.99734
3.24076
2.1442
1.45499
1.01411
0.725641
0.532166
0.399165
0.30557
0.238259
0.18888
0.151997
0.123992
0.102398
0.0855335
0.072199
0.0615581
0.0531062
11.6229
7.60535
5.01031
3.34209
2.26848
1.57143
1.11236
0.804596
0.594215
0.447533
0.343234
0.267668
0.211949
0.170194
0.138429
0.113924
0.0947854
0.0796695
0.0676167
0.0579681
11.5726
7.56718
5.02065
3.38344
2.32103
1.62326
1.15829
0.84316
0.625697
0.472859
0.3635
0.283877
0.224942
0.180646
0.146873
0.120777
0.100372
0.0842446
0.0713751
0.0610267
11.5726
7.56718
5.02065
3.38344
2.32103
1.62326
1.15828
0.843156
0.625692
0.472853
0.363492
0.283868
0.224931
0.180633
0.146855
0.120754
0.100345
0.0842128
0.0713373
0.0609601
11.6229
7.60535
5.0103
3.34209
2.26848
1.57142
1.11236
0.804589
0.594208
0.447524
0.343223
0.267654
0.211933
0.170173
0.138397
0.113884
0.0947386
0.079615
0.0675535
0.0578658
11.8601
7.76395
4.99734
3.24076
2.1442
1.45499
1.01411
0.725641
0.532166
0.399166
0.305571
0.23826
0.188883
0.152
0.123989
0.102395
0.0855315
0.0721977
0.0615573
0.0531058
13.6679
8.73671
5.07741
3.05388
1.92224
1.2661
0.869296
0.618642
0.453978
0.342063
0.263694
0.207376
0.165996
0.134983
0.111323
0.0929187
0.0784828
0.0669794
0.0576603
0.0510594
45.0226
13.4729
5.73075
3.07323
1.86023
1.227
0.873585
0.649797
0.497045
0.389546
0.311388
0.253125
0.209189
0.175534
0.149309
0.128595
0.112121
0.0989761
0.0886134
0.0809218
58.5856
14.5696
6.08947
3.33295
2.08217
1.40267
0.998657
0.740304
0.565938
0.443981
0.35613
0.291071
0.241662
0.203342
0.17357
0.150464
0.13223
0.117877
0.106769
0.0991
16.5373
9.49239
5.0127
2.8606
1.75746
1.14759
0.786935
0.562058
0.415382
0.315973
0.246372
0.196287
0.159318
0.131401
0.109994
0.0935129
0.0805715
0.0699658
0.0615769
0.0575423
13.6679
8.73671
5.07741
3.05388
1.92224
1.2661
0.869297
0.618643
0.453978
0.342063
0.263694
0.207376
0.165995
0.13498
0.111325
0.0929208
0.0784845
0.0669807
0.0576616
0.0510585
12.9054
8.33993
5.07879
3.15547
2.02775
1.35121
0.933545
0.66647
0.489564
0.368622
0.283645
0.222446
0.177412
0.143646
0.117908
0.0979853
0.0823674
0.0699826
0.060057
0.0519742
12.6882
8.1544
5.07113
3.20038
2.07939
1.39506
0.967834
0.692727
0.509647
0.384033
0.295531
0.23169
0.184655
0.149355
0.122421
0.101564
0.085206
0.0722316
0.0618452
0.0535292
12.6882
8.1544
5.07113
3.20038
2.07939
1.39506
0.967829
0.692722
0.50964
0.384024
0.295521
0.231677
0.184638
0.149334
0.122394
0.101529
0.0851631
0.072182
0.0617919
0.0534306
12.9054
8.33993
5.07879
3.15547
2.02774
1.3512
0.933536
0.666459
0.48955
0.368605
0.283623
0.222418
0.177377
0.143603
0.117849
0.0979123
0.0822791
0.0698779
0.059943
0.0518316
13.6679
8.73671
5.07741
3.05388
1.92223
1.26609
0.86929
0.618635
0.453968
0.342051
0.263678
0.207356
0.16597
0.134948
0.11128
0.092866
0.0784212
0.0669133
0.0576076
0.0503629
16.5373
9.49239
5.0127
2.8606
1.75746
1.14759
0.786935
0.562057
0.415382
0.315973
0.246372
0.196287
0.159319
0.131403
0.109993
0.0935111
0.08057
0.0699643
0.0615764
0.0575417
58.5856
14.5696
6.08947
3.33295
2.08217
1.40267
0.998661
0.74031
0.565946
0.443997
0.356155
0.29111
0.241722
0.203465
0.173741
0.150724
0.132667
0.118677
0.108268
0.101492
90.5034
12.1248
4.38869
2.46658
1.63316
1.18306
0.902023
0.720662
0.594596
0.502573
0.432664
0.379446
0.336466
0.300337
0.270882
0.247167
0.228089
0.213035
0.204615
0.1961
58.5856
14.5696
6.08947
3.33295
2.08217
1.40267
0.998661
0.74031
0.565946
0.443997
0.356155
0.29111
0.241722
0.203466
0.173742
0.150724
0.132667
0.118676
0.108267
0.101491
45.0226
13.4729
5.73075
3.07323
1.86023
1.227
0.873585
0.649797
0.497045
0.389546
0.311388
0.253125
0.209189
0.175534
0.149309
0.128595
0.112121
0.0989758
0.0886129
0.0809216
38.7028
13.0541
5.74336
3.08733
1.88066
1.22751
0.869487
0.645402
0.492623
0.384831
0.307124
0.249187
0.205185
0.171286
0.144824
0.123923
0.107245
0.0938322
0.0830253
0.075028
36.0571
12.8529
5.76645
3.10211
1.89475
1.22669
0.866506
0.643997
0.492276
0.384009
0.305887
0.24805
0.204109
0.170217
0.143715
0.122733
0.105932
0.0923468
0.0813738
0.0735164
36.0571
12.8529
5.76644
3.10211
1.89475
1.22669
0.866499
0.643988
0.492264
0.383993
0.305863
0.248017
0.204064
0.170152
0.143621
0.122595
0.105727
0.0920422
0.0808821
0.0723896
38.7028
13.0541
5.74336
3.08733
1.88066
1.22749
0.869471
0.645381
0.492596
0.384795
0.307072
0.249117
0.205087
0.171147
0.144623
0.12363
0.10681
0.0931764
0.0820599
0.0738147
45.0226
13.4729
5.73075
3.07322
1.86022
1.22699
0.873571
0.649778
0.497019
0.389502
0.311331
0.25305
0.209084
0.175387
0.149092
0.128276
0.111643
0.0982501
0.0874713
0.0790717
58.5856
14.5696
6.08947
3.33295
2.08217
1.40267
0.998657
0.740304
0.565938
0.443981
0.35613
0.291071
0.241662
0.203341
0.173569
0.150463
0.132231
0.117878
0.10677
0.0991009
90.5034
12.1248
4.38869
2.46658
1.63316
1.18306
0.902023
0.720662
0.594596
0.502573
0.432664
0.379445
0.336466
0.300336
0.270881
0.247167
0.228088
0.213036
0.204615
0.196099
0.370956
0.295315
0.23658
0.205674
0.188636
0.179003
0.172964
0.168923
0.165982
0.163709
0.161814
0.160288
0.159081
0.158101
0.157308
0.156668
0.156162
0.155768
0.155466
0.155237
0.155068
0.15495
0.154882
0.154843
0.154799
0.154742
0.154683
0.154642
0.154627
0.154635
0.154638
0.154618
0.154585
0.154573
0.154558
0.15457
0.154587
0.154585
0.154569
0.154537
0.142376
0.117711
0.100112
0.088863
0.0817198
0.076849
0.073358
0.0709967
0.0691319
0.0676667
0.0664829
0.0655261
0.0647574
0.0641333
0.0636307
0.0632306
0.062915
0.06267
0.0624828
0.0623423
0.0622386
0.0621609
0.0621003
0.0620474
0.0619998
0.061964
0.0619419
0.0619294
0.0619216
0.0619143
0.0619058
0.0619001
0.0618979
0.0618968
0.0618896
0.0618875
0.0618856
0.0618879
0.061895
0.061906
0.0997218
0.0845912
0.0735159
0.0664817
0.0615972
0.0576788
0.0545512
0.052201
0.050405
0.0489778
0.0478441
0.0469269
0.0461822
0.0455781
0.0450921
0.0447046
0.0443975
0.0441576
0.043972
0.0438308
0.0437245
0.043643
0.0435733
0.0435098
0.0434583
0.043422
0.043401
0.0433892
0.0433814
0.0433714
0.0433635
0.0433593
0.0433618
0.043368
0.0433732
0.0433674
0.043364
0.0433655
0.043372
0.0433823
0.0773445
0.0691274
0.0626477
0.0575089
0.0533418
0.0499398
0.0471737
0.0449294
0.0431137
0.0416489
0.0404685
0.0395154
0.0387438
0.038121
0.0376221
0.0372239
0.0369075
0.0366596
0.0364653
0.0363161
0.0362022
0.0361142
0.0360384
0.0359698
0.0359157
0.0358778
0.0358557
0.0358434
0.0358341
0.0358235
0.0358159
0.035814
0.0358166
0.0358221
0.0358242
0.0358233
0.0358215
0.0358234
0.0358293
0.0358383
0.0692473
0.0626416
0.0571379
0.0526307
0.0489768
0.0459365
0.0434075
0.0413153
0.0395921
0.0381784
0.0370227
0.036077
0.0353021
0.0346754
0.0341724
0.0337707
0.0334507
0.0331971
0.0329978
0.0328429
0.0327243
0.0326322
0.0325523
0.032481
0.0324253
0.0323869
0.0323639
0.0323515
0.0323418
0.0323316
0.0323247
0.032323
0.0323256
0.0323305
0.0323329
0.0323333
0.0323315
0.0323335
0.0323389
0.0323466
0.0726873
0.0627639
0.0561588
0.0512177
0.0474349
0.0444086
0.0419274
0.0398921
0.0382228
0.0368545
0.0357343
0.0348145
0.0340576
0.0334437
0.0329496
0.0325544
0.0322397
0.0319898
0.0317929
0.0316396
0.0315212
0.0314296
0.0313497
0.031278
0.0312228
0.0311855
0.0311626
0.0311488
0.0311384
0.0311275
0.0311205
0.0311188
0.0311212
0.0311257
0.0311263
0.0311268
0.0311296
0.0311293
0.0311335
0.0311402
0.0735895
0.0631793
0.056495
0.0515546
0.0477864
0.044762
0.0422984
0.0402893
0.0386533
0.0373207
0.0362355
0.0353485
0.0346212
0.0340328
0.0335596
0.0331808
0.0328791
0.0326399
0.0324527
0.0323078
0.0321974
0.0321113
0.0320352
0.0319651
0.0319105
0.0318728
0.0318497
0.0318372
0.0318259
0.0318135
0.0318049
0.0318022
0.0318043
0.0318089
0.0318089
0.0318085
0.03181
0.0318096
0.0318131
0.0318196
0.0748139
0.0649151
0.0584944
0.0537773
0.0500576
0.0470486
0.0446335
0.0426901
0.041119
0.039848
0.0388179
0.037979
0.0372919
0.0367347
0.0362856
0.035925
0.0356404
0.0354156
0.0352421
0.0351088
0.0350081
0.0349293
0.0348585
0.0347914
0.0347387
0.034702
0.0346809
0.034669
0.0346576
0.0346441
0.0346348
0.0346302
0.0346332
0.0346391
0.0346418
0.0346414
0.0346392
0.0346357
0.034637
0.034643
0.0806304
0.0726312
0.0658983
0.0605839
0.056514
0.0532803
0.0508757
0.0490166
0.0475339
0.0463398
0.0453709
0.0445797
0.0439272
0.0433937
0.0429605
0.0426123
0.0423362
0.0421201
0.041954
0.0418281
0.041734
0.0416615
0.0415978
0.0415364
0.0414866
0.0414511
0.0414309
0.0414195
0.0414094
0.0413966
0.0413856
0.0413811
0.041382
0.0413863
0.0413865
0.041379
0.0413696
0.0413629
0.0413651
0.0413744
0.127221
0.106969
0.0914159
0.0815328
0.0753463
0.0716845
0.0693502
0.0674678
0.0659493
0.0647231
0.063721
0.0629007
0.0622222
0.0616668
0.0612163
0.0608546
0.0605688
0.0603468
0.0601774
0.0600503
0.0599569
0.0598869
0.0598329
0.0597854
0.0597415
0.0597068
0.0596841
0.05967
0.0596614
0.0596529
0.0596426
0.0596349
0.0596306
0.0596298
0.0596298
0.0596264
0.0596112
0.0596006
0.059598
0.0596012
0.370962
0.295322
0.236598
0.205685
0.18865
0.179028
0.173009
0.168975
0.166034
0.163759
0.161853
0.160341
0.15912
0.158129
0.157329
0.156687
0.156184
0.155796
0.155499
0.155275
0.155109
0.154992
0.154925
0.154885
0.154841
0.154782
0.15472
0.154676
0.154659
0.154664
0.154663
0.154638
0.154604
0.154584
0.154582
0.154613
0.154608
0.154575
0.154536
0.15449
0.127218
0.106966
0.091409
0.0815237
0.0753308
0.0716543
0.0693131
0.0674296
0.0659125
0.0646894
0.0636918
0.0628719
0.0622048
0.0616557
0.0612075
0.0608456
0.0605578
0.0603333
0.0601615
0.0600326
0.059938
0.059868
0.0598143
0.0597677
0.0597245
0.0596913
0.0596705
0.0596586
0.059651
0.0596443
0.0596357
0.0596291
0.0596245
0.0596198
0.059611
0.059608
0.0596021
0.0596021
0.0596068
0.059615
0.0637549
0.0556673
0.0480434
0.0422109
0.0385615
0.0360452
0.0342048
0.0328171
0.0316956
0.0308104
0.0300636
0.029407
0.0289121
0.0285798
0.0282579
0.0279831
0.0277643
0.0275906
0.0274562
0.027354
0.0272774
0.027214
0.0272105
0.0272174
0.0271904
0.02715
0.0271175
0.027079
0.0270681
0.0271225
0.0271352
0.0270997
0.0270776
0.0270905
0.0271991
0.0271127
0.0271008
0.0270974
0.0270716
0.027061
0.056126
0.046101
0.0387392
0.0340951
0.0310403
0.0286405
0.0267478
0.0252826
0.0238895
0.0230262
0.0220248
0.0214227
0.0208256
0.0205076
0.0200982
0.0197817
0.0195551
0.0193443
0.0192004
0.0190765
0.0189859
0.0189049
0.0188574
0.0189228
0.0189292
0.0188921
0.0188196
0.0187792
0.0188034
0.0188961
0.0188911
0.0188473
0.0188016
0.0187743
0.0188446
0.0189178
0.0188991
0.018846
0.0188145
0.0187701
0.0506523
0.0431379
0.0374486
0.0327262
0.0291747
0.0268451
0.0248863
0.0232521
0.021891
0.020767
0.019843
0.0191328
0.0185489
0.0180557
0.0175573
0.0171916
0.01694
0.0166431
0.0165155
0.0163303
0.016256
0.0161498
0.0162002
0.0162698
0.0162058
0.0161161
0.0160584
0.0159978
0.0160903
0.0161947
0.0161454
0.0160731
0.0160297
0.015984
0.0160813
0.0161901
0.0161473
0.0160833
0.0160317
0.0159736
0.0465046
0.0411468
0.0364924
0.032547
0.0289984
0.0261122
0.0242099
0.0225666
0.021168
0.0199912
0.0190197
0.0182893
0.0177426
0.0171438
0.016643
0.016237
0.0159138
0.0156537
0.0154504
0.0153067
0.0151713
0.015101
0.0151532
0.0152382
0.015123
0.0150207
0.0149282
0.0148897
0.0149722
0.0150893
0.0150228
0.014956
0.0148884
0.0148661
0.014961
0.0150836
0.0150235
0.0149579
0.0148978
0.0148568
0.0471771
0.0413155
0.0364709
0.0324719
0.0291027
0.0259425
0.0239078
0.0223021
0.0209068
0.0197193
0.0187363
0.0179983
0.0174325
0.016834
0.0163284
0.0159148
0.0155813
0.0153149
0.0151092
0.0149532
0.0148337
0.0147466
0.0148044
0.0148947
0.0147756
0.0146708
0.0145941
0.0145292
0.0146281
0.0147441
0.0146757
0.014605
0.0145487
0.01452
0.0146196
0.0147507
0.0146836
0.014613
0.0145549
0.0145101
0.0472606
0.0413025
0.0363673
0.0322933
0.0288091
0.0258118
0.0239323
0.0223316
0.0209662
0.0198186
0.0188743
0.0181663
0.0176086
0.0170266
0.0165362
0.0161382
0.0158177
0.0155715
0.0153652
0.015234
0.0150877
0.0150276
0.0150877
0.0151774
0.0150893
0.0150046
0.0149241
0.0148892
0.0149772
0.0150989
0.0150325
0.0149649
0.0149119
0.0148609
0.0149779
0.0151127
0.0150378
0.0149619
0.0149181
0.0148699
0.0466075
0.0410404
0.0360227
0.0318067
0.0282659
0.026086
0.0242662
0.0227392
0.0214656
0.0204111
0.0195526
0.0189163
0.0184081
0.0178839
0.0174106
0.0170822
0.0167284
0.0165709
0.0163485
0.0162565
0.0161148
0.0160554
0.0160958
0.0161937
0.0161435
0.0160606
0.0160067
0.0159347
0.0160035
0.0161264
0.0160964
0.016028
0.0159876
0.0159248
0.0159517
0.0160848
0.0161625
0.0160908
0.0160266
0.0159563
0.0527019
0.0437408
0.0374417
0.0327494
0.0300115
0.0277944
0.0260461
0.0246559
0.0234649
0.0225118
0.0217119
0.0210243
0.0206283
0.0201594
0.0198283
0.0195209
0.019282
0.019098
0.0189531
0.0188406
0.0187529
0.0186854
0.0186913
0.0187729
0.0187515
0.0187054
0.0186248
0.0185818
0.018615
0.0187199
0.0187097
0.0186742
0.0186018
0.0185726
0.0186008
0.0186605
0.018711
0.0187095
0.0186279
0.0185812
0.0637552
0.0556675
0.048039
0.0422362
0.0385765
0.0360526
0.0342152
0.0328265
0.0317089
0.0308265
0.0300146
0.0294268
0.0289893
0.028595
0.0282553
0.0279835
0.0277648
0.0275938
0.0274619
0.0273602
0.0272849
0.0272232
0.0272219
0.0272307
0.0271976
0.0271546
0.0271201
0.0270813
0.0271161
0.0271378
0.0271375
0.0270978
0.0270774
0.0270652
0.0270697
0.027056
0.0271147
0.0271137
0.0270763
0.0270546
0.142377
0.117711
0.100113
0.0888637
0.0817281
0.0768582
0.0733821
0.0710232
0.0691573
0.0676888
0.0665017
0.0655435
0.0647662
0.0641383
0.0636363
0.0632392
0.0629282
0.0626878
0.0625048
0.0623674
0.0622659
0.0621892
0.0621289
0.0620755
0.0620274
0.0619906
0.0619666
0.0619513
0.0619417
0.0619317
0.0619201
0.0619124
0.0619088
0.0619085
0.0619093
0.0619042
0.061889
0.0618789
0.0618779
0.0618847
0.0806263
0.0726257
0.0658918
0.060563
0.0564844
0.0532438
0.0508368
0.0489768
0.0474962
0.0463048
0.0453399
0.0445535
0.0439097
0.0433828
0.0429531
0.0426065
0.0423304
0.0421138
0.0419467
0.0418201
0.0417259
0.0416539
0.041591
0.0415313
0.0414829
0.0414491
0.0414304
0.0414202
0.0414111
0.0413993
0.0413887
0.0413836
0.0413835
0.0413842
0.0413792
0.0413728
0.0413651
0.0413615
0.0413676
0.0413799
0.0527043
0.0437459
0.0374369
0.0327545
0.0300234
0.0278005
0.0260447
0.0246567
0.0234483
0.0225337
0.021682
0.0210453
0.0205186
0.0201342
0.0198296
0.0195203
0.0192911
0.0191034
0.0189595
0.018845
0.0187589
0.0186843
0.0186519
0.0187188
0.0187215
0.0186871
0.0186176
0.0185726
0.0185525
0.0186557
0.0186763
0.0186449
0.0185944
0.0185699
0.0185829
0.0187075
0.0186999
0.0186402
0.0185963
0.0185634
0.046878
0.0408409
0.03557
0.0313022
0.0279374
0.0252728
0.0231454
0.0214334
0.0200314
0.0188957
0.0178412
0.0172172
0.0167013
0.0162577
0.0157625
0.0154004
0.0151234
0.0148993
0.0147225
0.0145774
0.0144602
0.0143786
0.0144542
0.0145498
0.0145015
0.0144398
0.0143322
0.0142804
0.0143251
0.0144695
0.0144631
0.014391
0.0143216
0.014275
0.0142791
0.0144497
0.0144663
0.0143792
0.0143457
0.0142637
0.0486054
0.0423951
0.0371355
0.0327285
0.0290995
0.0261482
0.0237307
0.0217416
0.0200999
0.0187373
0.0175971
0.0166658
0.0160135
0.0154026
0.0148167
0.0144735
0.0141646
0.0139104
0.0137077
0.0135214
0.0133866
0.0132745
0.013367
0.0134782
0.0134019
0.0133101
0.0132026
0.0131507
0.0132771
0.0134249
0.0133602
0.0132811
0.0132023
0.0131517
0.0133004
0.013452
0.0133815
0.0132932
0.0132112
0.0131243
0.0506405
0.0439564
0.0384739
0.0339381
0.0301516
0.0270118
0.0244413
0.0223124
0.0205408
0.0190647
0.0178367
0.0168216
0.0161401
0.0154482
0.0148558
0.0143627
0.0139241
0.0136496
0.0134598
0.0132948
0.0131626
0.0130896
0.0131747
0.0132792
0.0131422
0.0130134
0.0129111
0.0128482
0.0129795
0.0131318
0.013045
0.0129526
0.0128802
0.0128234
0.0129864
0.0131462
0.0130617
0.0129667
0.0128784
0.0128113
0.0508113
0.0442869
0.0388503
0.0343134
0.0305121
0.0273162
0.0246856
0.0225108
0.0207008
0.0191912
0.0179344
0.0169003
0.0161854
0.015494
0.0148905
0.0143803
0.013954
0.0135945
0.0133924
0.0132401
0.0131114
0.0130404
0.0131317
0.0132443
0.0130984
0.0129634
0.0128552
0.0128092
0.0129333
0.013088
0.0129945
0.0128985
0.0128218
0.0127907
0.0129578
0.0131215
0.0130251
0.0129205
0.0128257
0.0127537
0.0498406
0.0435046
0.0381903
0.0337369
0.0300051
0.0268923
0.0243346
0.0222167
0.0204621
0.0190045
0.0177946
0.0168082
0.0160979
0.0154181
0.0148268
0.0143384
0.0139081
0.0136282
0.0134315
0.0132589
0.0131202
0.0130414
0.0131314
0.0132578
0.0131495
0.0130388
0.0129434
0.0128946
0.0130206
0.0131808
0.0130955
0.0130065
0.0129352
0.0129332
0.0131238
0.0132646
0.0131492
0.013037
0.0129393
0.0128554
0.0482362
0.0419768
0.0367433
0.0323909
0.0288054
0.0259004
0.0235329
0.0215961
0.0199979
0.018664
0.0175522
0.0167082
0.0160697
0.0154362
0.0148452
0.014482
0.0141843
0.0139424
0.0136975
0.0135341
0.013359
0.0132681
0.0133726