/*--------------------------------*- C++ -*----------------------------------*\
| =========                 |                                                 |
| \\      /  F ield         | OpenFOAM: The Open Source CFD Toolbox           |
|  \\    /   O peration     | Version:  2212                                  |
|   \\  /    A nd           | Website:  www.openfoam.com                      |
|    \\/     M anipulation  |                                                 |
\*---------------------------------------------------------------------------*/
FoamFile
{
    version     2.0;
    format      ascii;
    arch        "LSB;label=32;scalar=64";
    class       volScalarField;
    location    "0.6";
    object      nut;
}
// * * * * * * * * * * * * * * * * * * * * * * * * * * * * * * * * * * * * * //

dimensions      [0 2 -1 0 0 0 0];

internalField   nonuniform List<scalar> 
6840
(
4.5356e-05
2.3208e-05
1.65396e-05
1.36493e-05
1.18966e-05
1.06844e-05
9.76076e-06
9.05725e-06
8.49454e-06
8.03172e-06
7.64083e-06
7.31197e-06
7.02533e-06
6.76126e-06
6.53047e-06
6.33119e-06
6.15981e-06
6.01629e-06
5.93526e-06
5.8343e-06
0.000107685
6.77183e-05
5.06311e-05
4.14159e-05
3.54049e-05
3.10367e-05
2.77137e-05
2.50815e-05
2.29334e-05
2.11501e-05
1.96498e-05
1.83703e-05
1.7261e-05
1.62897e-05
1.54455e-05
1.47175e-05
1.40838e-05
1.35362e-05
1.30919e-05
1.27705e-05
0.000160509
0.00010736
8.07408e-05
6.55975e-05
5.54896e-05
4.83025e-05
4.31308e-05
3.90788e-05
3.57387e-05
3.29485e-05
3.05762e-05
2.85324e-05
2.67705e-05
2.52406e-05
2.38992e-05
2.27163e-05
2.16707e-05
2.0743e-05
1.99238e-05
1.92859e-05
0.000198681
0.0001383
0.000105187
8.55269e-05
7.25012e-05
6.289e-05
5.60607e-05
5.07586e-05
4.63869e-05
4.272e-05
3.96218e-05
3.69501e-05
3.46251e-05
3.25903e-05
3.07991e-05
2.92131e-05
2.78001e-05
2.65338e-05
2.54038e-05
2.45515e-05
0.000218609
0.000155003
0.000118661
9.65068e-05
8.18822e-05
7.08353e-05
6.30851e-05
5.71426e-05
5.2247e-05
4.8094e-05
4.45785e-05
4.15658e-05
3.89429e-05
3.66444e-05
3.46172e-05
3.28178e-05
3.12097e-05
2.97622e-05
2.84587e-05
2.74063e-05
0.000218609
0.000155003
0.000118661
9.65068e-05
8.18823e-05
7.08354e-05
6.30852e-05
5.71428e-05
5.22473e-05
4.80945e-05
4.45794e-05
4.15673e-05
3.89452e-05
3.66482e-05
3.46234e-05
3.2828e-05
3.12267e-05
2.97904e-05
2.85076e-05
2.74896e-05
0.000198681
0.0001383
0.000105187
8.55269e-05
7.25012e-05
6.28901e-05
5.6061e-05
5.0759e-05
4.63876e-05
4.27209e-05
3.96235e-05
3.69527e-05
3.46293e-05
3.25971e-05
3.08102e-05
2.92311e-05
2.78295e-05
2.6582e-05
2.54787e-05
2.46416e-05
0.000160509
0.00010736
8.07409e-05
6.55976e-05
5.54896e-05
4.83026e-05
4.3131e-05
3.90791e-05
3.57391e-05
3.29495e-05
3.05776e-05
2.85345e-05
2.67738e-05
2.52459e-05
2.39079e-05
2.27304e-05
2.16938e-05
2.07819e-05
1.99915e-05
1.93389e-05
0.000107685
6.77183e-05
5.06311e-05
4.14159e-05
3.54049e-05
3.10367e-05
2.77137e-05
2.50816e-05
2.29334e-05
2.11503e-05
1.96502e-05
1.8371e-05
1.72622e-05
1.62922e-05
1.54492e-05
1.47235e-05
1.40946e-05
1.35567e-05
1.31299e-05
1.28326e-05
4.5356e-05
2.3208e-05
1.65396e-05
1.36493e-05
1.18966e-05
1.06844e-05
9.76076e-06
9.05725e-06
8.49454e-06
8.03172e-06
7.64084e-06
7.31197e-06
7.02534e-06
6.76127e-06
6.53049e-06
6.33121e-06
6.15983e-06
6.01632e-06
5.93531e-06
5.83435e-06
0.000107685
6.77183e-05
5.06311e-05
4.14159e-05
3.54049e-05
3.10367e-05
2.77137e-05
2.50816e-05
2.29334e-05
2.11503e-05
1.96502e-05
1.8371e-05
1.72621e-05
1.62922e-05
1.54492e-05
1.47234e-05
1.40946e-05
1.35566e-05
1.31298e-05
1.28325e-05
0.000528907
0.000369984
0.000305097
0.000261371
0.000228528
0.000202475
0.000181114
0.000163075
0.000147542
0.00013399
0.000122061
0.000111487
0.000102167
9.39123e-05
8.65411e-05
7.97837e-05
7.3648e-05
6.85413e-05
6.39435e-05
5.53359e-05
0.000663952
0.000488458
0.000404619
0.000347248
0.000305035
0.000272127
0.000245318
0.000222889
0.000203758
0.000187185
0.000172665
0.000159835
0.00014841
0.000138177
0.000128975
0.000120807
0.000113433
0.000106836
0.000101062
9.5215e-05
0.00071288
0.000556432
0.000466396
0.000402354
0.000354425
0.000317049
0.000286674
0.000261254
0.000239582
0.000220848
0.000204451
0.000189965
0.000177072
0.000165513
0.000155083
0.00014564
0.000137038
0.00012915
0.000121854
0.000115031
0.000728543
0.000588231
0.000496001
0.000429131
0.000378509
0.000338933
0.000306817
0.000279971
0.000257071
0.000237256
0.000219913
0.000204585
0.000190932
0.000178684
0.000167629
0.000157604
0.000148454
0.000140033
0.000132176
0.000124411
0.000728543
0.000588231
0.000496001
0.000429131
0.000378509
0.000338934
0.000306818
0.000279973
0.000257074
0.000237261
0.00021992
0.000204598
0.000190953
0.000178717
0.000167684
0.000157697
0.000148608
0.000140291
0.000132616
0.000125342
0.00071288
0.000556432
0.000466397
0.000402355
0.000354426
0.000317051
0.000286676
0.000261258
0.000239587
0.000220857
0.000204466
0.00018999
0.000177111
0.000165577
0.000155194
0.000145822
0.00013734
0.000129649
0.000122687
0.000116608
0.000663952
0.000488458
0.000404619
0.000347248
0.000305036
0.000272128
0.00024532
0.000222892
0.000203763
0.000187192
0.000172677
0.000159854
0.000148439
0.000138223
0.000129053
0.000120939
0.000113656
0.000107227
0.000101793
9.5029e-05
0.000528907
0.000369984
0.000305097
0.000261371
0.000228528
0.000202476
0.000181114
0.000163075
0.000147542
0.00013399
0.000122061
0.000111487
0.000102167
9.39106e-05
8.6541e-05
7.97853e-05
7.36498e-05
6.85437e-05
6.39447e-05
5.53377e-05
0.000107685
6.77183e-05
5.06311e-05
4.14159e-05
3.54049e-05
3.10367e-05
2.77137e-05
2.50815e-05
2.29334e-05
2.11501e-05
1.96498e-05
1.83703e-05
1.7261e-05
1.62897e-05
1.54455e-05
1.47175e-05
1.40839e-05
1.35363e-05
1.3092e-05
1.27706e-05
0.000160509
0.00010736
8.07409e-05
6.55976e-05
5.54896e-05
4.83026e-05
4.3131e-05
3.90791e-05
3.57391e-05
3.29495e-05
3.05776e-05
2.85345e-05
2.67738e-05
2.52459e-05
2.39079e-05
2.27303e-05
2.16937e-05
2.07819e-05
1.99914e-05
1.93388e-05
0.000663952
0.000488458
0.000404619
0.000347248
0.000305036
0.000272128
0.00024532
0.000222892
0.000203763
0.000187192
0.000172677
0.000159854
0.00014844
0.000138225
0.000129052
0.000120936
0.000113654
0.000107225
0.00010179
9.5027e-05
0.000786828
0.000662293
0.000567974
0.000495805
0.000439463
0.000394562
0.000357975
0.000327454
0.000301495
0.000279061
0.000259418
0.00024204
0.000226536
0.000212613
0.000200046
0.000188689
0.000178387
0.000169043
0.000160431
0.00015107
0.000809324
0.000713906
0.000631504
0.000562574
0.000505377
0.000457786
0.000417842
0.000383942
0.000354809
0.00032946
0.000307175
0.000287414
0.000269761
0.000253892
0.000239556
0.000226564
0.00021474
0.00020392
0.000193825
0.000183449
0.000814958
0.000730426
0.000654634
0.000589043
0.000533067
0.000485438
0.000444764
0.000409795
0.000379475
0.000352941
0.000329511
0.000308664
0.000290001
0.000273197
0.000258001
0.000244213
0.000231648
0.000220123
0.000209347
0.000198494
0.000814958
0.000730426
0.000654634
0.000589044
0.000533067
0.000485439
0.000444765
0.000409796
0.000379476
0.000352944
0.000329514
0.00030867
0.000290009
0.000273209
0.000258021
0.000244246
0.0002317
0.000220206
0.00020947
0.000198566
0.000809324
0.000713906
0.000631505
0.000562574
0.000505378
0.000457786
0.000417843
0.000383943
0.000354811
0.000329463
0.000307181
0.000287422
0.000269772
0.000253911
0.000239593
0.000226622
0.000214832
0.000204073
0.000194112
0.000184194
0.000786828
0.000662293
0.000567974
0.000495805
0.000439463
0.000394562
0.000357976
0.000327454
0.000301496
0.000279061
0.000259419
0.000242039
0.000226534
0.00021261
0.00020005
0.000188693
0.000178391
0.000169046
0.000160432
0.000151072
0.000663952
0.000488458
0.000404619
0.000347248
0.000305035
0.000272127
0.000245318
0.000222889
0.000203758
0.000187185
0.000172665
0.000159835
0.000148409
0.000138174
0.000128977
0.000120811
0.000113437
0.00010684
0.000101066
9.52189e-05
0.000160509
0.00010736
8.07408e-05
6.55975e-05
5.54896e-05
4.83025e-05
4.31309e-05
3.90788e-05
3.57387e-05
3.29485e-05
3.05762e-05
2.85324e-05
2.67704e-05
2.52406e-05
2.38993e-05
2.27164e-05
2.16708e-05
2.0743e-05
1.99239e-05
1.9286e-05
0.000198681
0.0001383
0.000105187
8.55269e-05
7.25012e-05
6.28901e-05
5.6061e-05
5.0759e-05
4.63876e-05
4.27209e-05
3.96235e-05
3.69527e-05
3.46293e-05
3.25971e-05
3.08101e-05
2.9231e-05
2.78295e-05
2.6582e-05
2.54787e-05
2.46415e-05
0.00071288
0.000556432
0.000466397
0.000402355
0.000354426
0.000317051
0.000286676
0.000261258
0.000239587
0.000220857
0.000204466
0.00018999
0.000177113
0.000165579
0.000155192
0.00014582
0.000137338
0.000129648
0.000122686
0.000116607
0.000809324
0.000713906
0.000631505
0.000562574
0.000505377
0.000457786
0.000417843
0.000383943
0.000354811
0.000329463
0.000307181
0.000287423
0.000269775
0.000253914
0.00023959
0.000226619
0.00021483
0.000204072
0.000194112
0.000184193
0.000823497
0.000753987
0.000688491
0.000628748
0.000575387
0.000528267
0.000486847
0.000450444
0.000418368
0.000389985
0.000364748
0.0003422
0.00032196
0.000303712
0.0002872
0.000272217
0.00025857
0.000246057
0.000234335
0.000222496
0.000826292
0.000764347
0.000706102
0.000651937
0.000602231
0.000557104
0.000516429
0.000479915
0.000447186
0.000417843
0.000391496
0.000367787
0.000346397
0.000327047
0.000309496
0.000293541
0.000278984
0.000265602
0.000253
0.000240194
0.000826292
0.000764347
0.000706102
0.000651937
0.000602231
0.000557104
0.000516429
0.000479915
0.000447186
0.000417844
0.000391497
0.000367788
0.000346399
0.000327049
0.0003095
0.000293548
0.000278994
0.00026561
0.000252967
0.000239882
0.000823497
0.000753987
0.000688491
0.000628748
0.000575387
0.000528267
0.000486847
0.000450444
0.000418368
0.000389985
0.000364748
0.0003422
0.000321958
0.00030371
0.000287203
0.00027222
0.000258572
0.000246057
0.000234334
0.000222499
0.000809324
0.000713906
0.000631504
0.000562574
0.000505377
0.000457786
0.000417842
0.000383942
0.000354809
0.00032946
0.000307175
0.000287414
0.000269759
0.00025389
0.00023956
0.000226567
0.000214743
0.000203922
0.000193826
0.000183453
0.00071288
0.000556432
0.000466396
0.000402354
0.000354425
0.000317049
0.000286674
0.000261254
0.000239582
0.000220848
0.000204451
0.000189965
0.000177071
0.000165511
0.000155086
0.000145644
0.000137041
0.000129154
0.000121857
0.000115033
0.000198681
0.0001383
0.000105187
8.55269e-05
7.25012e-05
6.289e-05
5.60607e-05
5.07586e-05
4.63869e-05
4.272e-05
3.96218e-05
3.69501e-05
3.46251e-05
3.25903e-05
3.07991e-05
2.92132e-05
2.78002e-05
2.65338e-05
2.54038e-05
2.45515e-05
0.000218609
0.000155003
0.000118661
9.65068e-05
8.18823e-05
7.08354e-05
6.30852e-05
5.71428e-05
5.22473e-05
4.80945e-05
4.45794e-05
4.15673e-05
3.89452e-05
3.66482e-05
3.46234e-05
3.2828e-05
3.12267e-05
2.97904e-05
2.85076e-05
2.74896e-05
0.000728543
0.000588231
0.000496001
0.000429131
0.000378509
0.000338934
0.000306818
0.000279973
0.000257074
0.000237261
0.00021992
0.000204598
0.000190953
0.000178719
0.000167686
0.000157698
0.000148609
0.000140292
0.000132616
0.000125342
0.000814958
0.000730426
0.000654634
0.000589044
0.000533067
0.000485439
0.000444764
0.000409796
0.000379476
0.000352944
0.000329514
0.00030867
0.000290009
0.000273211
0.000258022
0.000244246
0.000231701
0.000220207
0.00020947
0.000198565
0.000826292
0.000764347
0.000706102
0.000651937
0.000602231
0.000557104
0.000516429
0.000479915
0.000447186
0.000417844
0.000391497
0.000367788
0.000346399
0.00032705
0.000309501
0.000293549
0.000278995
0.000265611
0.000252968
0.000239878
0.000828382
0.0007726
0.000721138
0.00067296
0.000627782
0.000585621
0.000546548
0.000510581
0.000477653
0.000447625
0.000420306
0.000395482
0.000372927
0.000352423
0.000333764
0.000316761
0.00030122
0.000286902
0.000273377
0.000259669
0.000828382
0.0007726
0.000721138
0.00067296
0.000627782
0.000585621
0.000546548
0.000510581
0.000477653
0.000447625
0.000420306
0.000395482
0.000372927
0.000352423
0.000333763
0.00031676
0.000301219
0.000286901
0.000273376
0.000259669
0.000826292
0.000764347
0.000706102
0.000651937
0.000602231
0.000557104
0.000516429
0.000479915
0.000447186
0.000417843
0.000391496
0.000367787
0.000346396
0.000327046
0.000309498
0.000293542
0.000278985
0.000265601
0.000252998
0.000240193
0.000814958
0.000730426
0.000654634
0.000589043
0.000533067
0.000485438
0.000444764
0.000409795
0.000379475
0.000352942
0.000329511
0.000308664
0.000289998
0.000273195
0.000258005
0.000244216
0.00023165
0.000220124
0.000209347
0.000198496
0.000728543
0.000588231
0.000496001
0.000429131
0.000378509
0.000338933
0.000306817
0.000279971
0.000257071
0.000237256
0.000219913
0.000204585
0.00019093
0.000178681
0.000167632
0.000157608
0.000148458
0.000140036
0.000132179
0.000124414
0.000218609
0.000155003
0.000118661
9.65068e-05
8.18822e-05
7.08353e-05
6.30851e-05
5.71426e-05
5.2247e-05
4.8094e-05
4.45785e-05
4.15658e-05
3.89429e-05
3.66444e-05
3.46172e-05
3.28178e-05
3.12097e-05
2.97623e-05
2.84588e-05
2.74063e-05
0.000218609
0.000155003
0.000118661
9.65068e-05
8.18822e-05
7.08353e-05
6.30851e-05
5.71426e-05
5.2247e-05
4.8094e-05
4.45785e-05
4.15658e-05
3.89429e-05
3.66444e-05
3.46172e-05
3.28178e-05
3.12097e-05
2.97622e-05
2.84587e-05
2.74062e-05
0.000728543
0.000588231
0.000496001
0.000429131
0.000378509
0.000338933
0.000306817
0.000279971
0.000257071
0.000237256
0.000219913
0.000204585
0.000190932
0.000178684
0.000167629
0.000157604
0.000148454
0.000140033
0.000132176
0.00012441
0.000814958
0.000730426
0.000654634
0.000589043
0.000533067
0.000485438
0.000444764
0.000409795
0.000379475
0.000352941
0.000329511
0.000308664
0.00029
0.000273197
0.000258001
0.000244213
0.000231648
0.000220123
0.000209347
0.000198495
0.000826292
0.000764347
0.000706102
0.000651937
0.000602231
0.000557104
0.000516429
0.000479915
0.000447186
0.000417843
0.000391496
0.000367787
0.000346397
0.000327047
0.000309496
0.000293541
0.000278984
0.000265601
0.000252999
0.000240193
0.000828382
0.0007726
0.000721138
0.00067296
0.000627782
0.000585621
0.000546548
0.000510581
0.000477653
0.000447625
0.000420306
0.000395482
0.000372927
0.000352423
0.000333764
0.00031676
0.000301219
0.0002869
0.000273376
0.000259668
0.000828382
0.0007726
0.000721138
0.00067296
0.000627782
0.000585621
0.000546548
0.000510581
0.000477653
0.000447625
0.000420306
0.000395482
0.000372927
0.000352422
0.000333763
0.00031676
0.000301218
0.0002869
0.000273374
0.000259665
0.000826292
0.000764347
0.000706102
0.000651937
0.000602231
0.000557104
0.000516429
0.000479915
0.000447187
0.000417844
0.000391497
0.000367788
0.000346398
0.000327049
0.000309503
0.00029355
0.000278995
0.000265609
0.000252965
0.000239876
0.000814958
0.000730426
0.000654634
0.000589044
0.000533067
0.000485439
0.000444765
0.000409796
0.000379476
0.000352944
0.000329514
0.00030867
0.000290007
0.000273208
0.000258025
0.000244249
0.000231702
0.000220206
0.000209468
0.000198565
0.000728543
0.000588231
0.000496001
0.000429131
0.000378509
0.000338934
0.000306818
0.000279973
0.000257074
0.000237261
0.00021992
0.000204598
0.000190951
0.000178716
0.000167689
0.000157701
0.000148612
0.000140295
0.000132619
0.000125346
0.000218609
0.000155003
0.000118661
9.65068e-05
8.18823e-05
7.08354e-05
6.30852e-05
5.71428e-05
5.22473e-05
4.80945e-05
4.45794e-05
4.15673e-05
3.89452e-05
3.66482e-05
3.46234e-05
3.28281e-05
3.12267e-05
2.97904e-05
2.85076e-05
2.74896e-05
0.000198681
0.0001383
0.000105187
8.55269e-05
7.25012e-05
6.289e-05
5.60607e-05
5.07586e-05
4.63869e-05
4.272e-05
3.96218e-05
3.69501e-05
3.46251e-05
3.25903e-05
3.07991e-05
2.92131e-05
2.78001e-05
2.65338e-05
2.54038e-05
2.45515e-05
0.00071288
0.000556432
0.000466396
0.000402354
0.000354425
0.000317049
0.000286674
0.000261254
0.000239582
0.000220848
0.000204451
0.000189965
0.000177072
0.000165513
0.000155083
0.00014564
0.000137037
0.00012915
0.000121853
0.000115028
0.000809324
0.000713906
0.000631504
0.000562574
0.000505377
0.000457786
0.000417842
0.000383942
0.000354809
0.00032946
0.000307175
0.000287414
0.000269761
0.000253892
0.000239555
0.000226563
0.000214739
0.000203919
0.000193823
0.000183449
0.000823497
0.000753987
0.000688491
0.000628748
0.000575387
0.000528267
0.000486847
0.000450444
0.000418368
0.000389985
0.000364748
0.0003422
0.00032196
0.000303712
0.0002872
0.000272216
0.000258568
0.000246054
0.000234331
0.000222496
0.000826292
0.000764347
0.000706102
0.000651937
0.000602231
0.000557104
0.000516429
0.000479915
0.000447187
0.000417844
0.000391497
0.000367788
0.000346399
0.00032705
0.0003095
0.000293547
0.000278992
0.000265607
0.000252963
0.000239877
0.000826292
0.000764347
0.000706102
0.000651937
0.000602231
0.000557104
0.000516429
0.000479915
0.000447186
0.000417843
0.000391496
0.000367787
0.000346397
0.000327045
0.000309494
0.000293539
0.000278981
0.000265598
0.000252995
0.000240187
0.000823497
0.000753987
0.000688491
0.000628748
0.000575387
0.000528267
0.000486847
0.000450444
0.000418368
0.000389985
0.000364748
0.0003422
0.000321958
0.00030371
0.000287202
0.000272218
0.000258569
0.000246054
0.00023433
0.00022249
0.000809324
0.000713906
0.000631505
0.000562574
0.000505378
0.000457786
0.000417843
0.000383943
0.000354811
0.000329463
0.000307181
0.000287422
0.000269772
0.00025391
0.000239593
0.000226621
0.000214831
0.000204071
0.000194109
0.00018419
0.00071288
0.000556432
0.000466397
0.000402355
0.000354426
0.000317051
0.000286676
0.000261258
0.000239588
0.000220858
0.000204466
0.00018999
0.000177111
0.000165577
0.000155194
0.000145823
0.000137341
0.00012965
0.000122689
0.000116611
0.000198681
0.0001383
0.000105187
8.55269e-05
7.25012e-05
6.28901e-05
5.6061e-05
5.0759e-05
4.63876e-05
4.27209e-05
3.96235e-05
3.69527e-05
3.46293e-05
3.25971e-05
3.08102e-05
2.92311e-05
2.78295e-05
2.6582e-05
2.54787e-05
2.46416e-05
0.000160509
0.00010736
8.07408e-05
6.55975e-05
5.54896e-05
4.83025e-05
4.31309e-05
3.90788e-05
3.57387e-05
3.29485e-05
3.05762e-05
2.85324e-05
2.67705e-05
2.52406e-05
2.38992e-05
2.27163e-05
2.16707e-05
2.0743e-05
1.99238e-05
1.9286e-05
0.000663952
0.000488458
0.000404619
0.000347248
0.000305035
0.000272127
0.000245318
0.000222889
0.000203758
0.000187185
0.000172665
0.000159835
0.00014841
0.000138177
0.000128975
0.000120807
0.000113433
0.000106836
0.000101063
9.52157e-05
0.000786828
0.000662293
0.000567974
0.000495805
0.000439463
0.000394562
0.000357976
0.000327454
0.000301496
0.000279061
0.000259418
0.00024204
0.000226536
0.000212612
0.000200046
0.000188687
0.000178386
0.000169041
0.000160429
0.000151069
0.000809324
0.000713906
0.000631505
0.000562574
0.000505378
0.000457786
0.000417843
0.000383943
0.000354811
0.000329463
0.000307181
0.000287423
0.000269775
0.000253913
0.000239589
0.000226617
0.000214827
0.000204069
0.000194108
0.000184191
0.000814958
0.000730426
0.000654634
0.000589044
0.000533067
0.000485439
0.000444765
0.000409796
0.000379476
0.000352944
0.000329514
0.00030867
0.000290009
0.00027321
0.000258021
0.000244244
0.000231697
0.000220203
0.000209465
0.000198563
0.000814958
0.000730426
0.000654634
0.000589043
0.000533067
0.000485438
0.000444764
0.000409795
0.000379475
0.000352942
0.000329511
0.000308664
0.00029
0.000273195
0.000257998
0.00024421
0.000231644
0.000220119
0.000209342
0.000198491
0.000809324
0.000713906
0.000631504
0.000562574
0.000505377
0.000457786
0.000417842
0.000383942
0.000354809
0.00032946
0.000307175
0.000287414
0.000269759
0.000253889
0.000239557
0.000226564
0.000214739
0.000203918
0.000193821
0.000183447
0.000786828
0.000662293
0.000567974
0.000495805
0.000439463
0.000394562
0.000357976
0.000327454
0.000301496
0.000279061
0.000259418
0.000242039
0.000226534
0.000212609
0.000200049
0.000188691
0.000178389
0.000169043
0.00016043
0.000151071
0.000663952
0.000488458
0.000404619
0.000347248
0.000305036
0.000272128
0.00024532
0.000222892
0.000203763
0.000187192
0.000172677
0.000159854
0.000148439
0.000138222
0.000129053
0.000120939
0.000113657
0.000107228
0.000101794
9.50281e-05
0.000160509
0.00010736
8.07409e-05
6.55976e-05
5.54896e-05
4.83026e-05
4.3131e-05
3.90791e-05
3.57391e-05
3.29495e-05
3.05776e-05
2.85345e-05
2.67738e-05
2.52459e-05
2.39079e-05
2.27304e-05
2.16938e-05
2.07819e-05
1.99915e-05
1.93389e-05
0.000107685
6.77183e-05
5.06311e-05
4.14159e-05
3.54049e-05
3.10367e-05
2.77137e-05
2.50815e-05
2.29334e-05
2.11501e-05
1.96498e-05
1.83703e-05
1.7261e-05
1.62897e-05
1.54455e-05
1.47175e-05
1.40839e-05
1.35363e-05
1.3092e-05
1.27706e-05
0.000528907
0.000369984
0.000305097
0.000261371
0.000228528
0.000202476
0.000181114
0.000163075
0.000147542
0.00013399
0.000122061
0.000111487
0.000102167
9.39125e-05
8.6541e-05
7.97842e-05
7.36485e-05
6.85419e-05
6.3944e-05
5.53369e-05
0.000663952
0.000488458
0.000404619
0.000347248
0.000305036
0.000272128
0.00024532
0.000222892
0.000203763
0.000187192
0.000172677
0.000159854
0.00014844
0.000138225
0.000129052
0.000120936
0.000113654
0.000107226
0.000101791
9.50286e-05
0.00071288
0.000556432
0.000466397
0.000402355
0.000354426
0.000317051
0.000286676
0.000261258
0.000239587
0.000220857
0.000204466
0.00018999
0.000177113
0.00016558
0.000155192
0.00014582
0.000137338
0.000129648
0.000122688
0.00011661
0.000728543
0.000588231
0.000496001
0.000429131
0.000378509
0.000338934
0.000306818
0.000279973
0.000257074
0.000237261
0.00021992
0.000204598
0.000190953
0.000178719
0.000167686
0.000157698
0.000148609
0.000140292
0.000132617
0.000125344
0.000728543
0.000588231
0.000496001
0.000429131
0.000378509
0.000338933
0.000306817
0.000279971
0.000257071
0.000237256
0.000219913
0.000204585
0.000190932
0.000178682
0.000167626
0.000157603
0.000148454
0.000140033
0.000132176
0.000124412
0.00071288
0.000556432
0.000466396
0.000402354
0.000354425
0.000317049
0.000286674
0.000261254
0.000239582
0.000220848
0.000204451
0.000189965
0.000177071
0.000165511
0.000155085
0.000145642
0.000137039
0.000129152
0.000121855
0.000115032
0.000663952
0.000488458
0.000404619
0.000347248
0.000305035
0.000272127
0.000245318
0.000222889
0.000203758
0.000187185
0.000172665
0.000159835
0.000148409
0.000138174
0.000128976
0.00012081
0.000113436
0.000106839
0.000101066
9.52197e-05
0.000528907
0.000369984
0.000305097
0.000261371
0.000228528
0.000202476
0.000181114
0.000163075
0.000147542
0.00013399
0.000122061
0.000111487
0.000102167
9.39105e-05
8.65413e-05
7.97856e-05
7.36501e-05
6.85442e-05
6.39456e-05
5.53385e-05
0.000107685
6.77183e-05
5.06311e-05
4.14159e-05
3.54049e-05
3.10367e-05
2.77137e-05
2.50816e-05
2.29334e-05
2.11503e-05
1.96502e-05
1.8371e-05
1.72622e-05
1.62922e-05
1.54492e-05
1.47235e-05
1.40946e-05
1.35567e-05
1.31298e-05
1.28325e-05
4.5356e-05
2.3208e-05
1.65396e-05
1.36493e-05
1.18966e-05
1.06844e-05
9.76076e-06
9.05725e-06
8.49454e-06
8.03172e-06
7.64084e-06
7.31197e-06
7.02534e-06
6.76128e-06
6.53049e-06
6.33121e-06
6.15983e-06
6.01632e-06
5.93532e-06
5.83435e-06
0.000107685
6.77183e-05
5.06311e-05
4.14159e-05
3.54049e-05
3.10367e-05
2.77137e-05
2.50816e-05
2.29334e-05
2.11503e-05
1.96502e-05
1.8371e-05
1.72621e-05
1.62923e-05
1.54492e-05
1.47235e-05
1.40946e-05
1.35567e-05
1.31298e-05
1.28326e-05
0.000160509
0.00010736
8.07409e-05
6.55976e-05
5.54896e-05
4.83026e-05
4.3131e-05
3.90791e-05
3.57391e-05
3.29495e-05
3.05776e-05
2.85346e-05
2.67739e-05
2.52459e-05
2.39079e-05
2.27303e-05
2.16938e-05
2.07819e-05
1.99915e-05
1.93389e-05
0.000198681
0.0001383
0.000105187
8.55269e-05
7.25012e-05
6.28901e-05
5.6061e-05
5.0759e-05
4.63876e-05
4.27209e-05
3.96235e-05
3.69527e-05
3.46293e-05
3.25972e-05
3.08102e-05
2.92311e-05
2.78295e-05
2.6582e-05
2.54787e-05
2.46416e-05
0.000218609
0.000155003
0.000118661
9.65068e-05
8.18823e-05
7.08354e-05
6.30852e-05
5.71428e-05
5.22473e-05
4.80945e-05
4.45794e-05
4.15673e-05
3.89453e-05
3.66482e-05
3.46234e-05
3.2828e-05
3.12267e-05
2.97904e-05
2.85076e-05
2.74896e-05
0.000218609
0.000155003
0.000118661
9.65068e-05
8.18822e-05
7.08353e-05
6.30851e-05
5.71426e-05
5.2247e-05
4.8094e-05
4.45785e-05
4.15658e-05
3.89429e-05
3.66444e-05
3.46172e-05
3.28178e-05
3.12097e-05
2.97622e-05
2.84587e-05
2.74062e-05
0.000198681
0.0001383
0.000105187
8.55269e-05
7.25012e-05
6.289e-05
5.60607e-05
5.07586e-05
4.63869e-05
4.272e-05
3.96218e-05
3.69501e-05
3.46251e-05
3.25903e-05
3.07991e-05
2.92131e-05
2.78002e-05
2.65338e-05
2.54038e-05
2.45515e-05
0.000160509
0.00010736
8.07408e-05
6.55975e-05
5.54896e-05
4.83025e-05
4.31309e-05
3.90788e-05
3.57387e-05
3.29485e-05
3.05762e-05
2.85324e-05
2.67704e-05
2.52406e-05
2.38992e-05
2.27164e-05
2.16708e-05
2.0743e-05
1.99238e-05
1.9286e-05
0.000107685
6.77183e-05
5.06311e-05
4.14159e-05
3.54049e-05
3.10367e-05
2.77137e-05
2.50815e-05
2.29334e-05
2.11501e-05
1.96498e-05
1.83703e-05
1.7261e-05
1.62897e-05
1.54455e-05
1.47175e-05
1.40839e-05
1.35363e-05
1.3092e-05
1.27706e-05
4.5356e-05
2.3208e-05
1.65396e-05
1.36493e-05
1.18966e-05
1.06844e-05
9.76076e-06
9.05725e-06
8.49454e-06
8.03172e-06
7.64084e-06
7.31197e-06
7.02534e-06
6.76127e-06
6.53048e-06
6.3312e-06
6.15982e-06
6.0163e-06
5.93529e-06
5.83432e-06
5.73194e-06
5.28774e-06
4.87856e-06
4.61935e-06
4.46693e-06
4.36654e-06
4.29396e-06
4.24206e-06
4.20319e-06
4.17169e-06
4.14354e-06
4.11993e-06
4.10087e-06
4.08481e-06
4.07145e-06
4.06046e-06
4.05144e-06
4.04402e-06
4.03798e-06
4.03306e-06
4.02907e-06
4.02596e-06
4.02382e-06
4.02224e-06
4.02058e-06
4.01872e-06
4.01702e-06
4.01578e-06
4.01526e-06
4.01499e-06
4.01466e-06
4.014e-06
4.01328e-06
4.01289e-06
4.01305e-06
4.01319e-06
4.01331e-06
4.01312e-06
4.01268e-06
4.01202e-06
1.13592e-05
1.06293e-05
1.00366e-05
9.57214e-06
9.25894e-06
9.03939e-06
8.86779e-06
8.68943e-06
8.57188e-06
8.47607e-06
8.39605e-06
8.33192e-06
8.28155e-06
8.23577e-06
8.19674e-06
8.16408e-06
8.13672e-06
8.11358e-06
8.09463e-06
8.07932e-06
8.0671e-06
8.05749e-06
8.04957e-06
8.04259e-06
8.03606e-06
8.03047e-06
8.02636e-06
8.02363e-06
8.02158e-06
8.01959e-06
8.01795e-06
8.0169e-06
8.01636e-06
8.01607e-06
8.01574e-06
8.01545e-06
8.01522e-06
8.01516e-06
8.01538e-06
8.01579e-06
1.64615e-05
1.55938e-05
1.49208e-05
1.42883e-05
1.38801e-05
1.3517e-05
1.3218e-05
1.29445e-05
1.2723e-05
1.25458e-05
1.23957e-05
1.22735e-05
1.2167e-05
1.2077e-05
1.20016e-05
1.19386e-05
1.18864e-05
1.1843e-05
1.18075e-05
1.17785e-05
1.17551e-05
1.17365e-05
1.17206e-05
1.17063e-05
1.16937e-05
1.1684e-05
1.16768e-05
1.16719e-05
1.16675e-05
1.16635e-05
1.16601e-05
1.16587e-05
1.16583e-05
1.16588e-05
1.16599e-05
1.16578e-05
1.16573e-05
1.16572e-05
1.16577e-05
1.16585e-05
2.00825e-05
1.93467e-05
1.86873e-05
1.81063e-05
1.75992e-05
1.71492e-05
1.67517e-05
1.64037e-05
1.61009e-05
1.58394e-05
1.5615e-05
1.54235e-05
1.526e-05
1.51237e-05
1.50098e-05
1.49151e-05
1.48369e-05
1.47711e-05
1.47179e-05
1.46733e-05
1.46376e-05
1.46086e-05
1.45835e-05
1.45616e-05
1.4543e-05
1.45286e-05
1.4518e-05
1.45102e-05
1.4503e-05
1.44969e-05
1.44922e-05
1.44901e-05
1.44898e-05
1.449e-05
1.44899e-05
1.44896e-05
1.44883e-05
1.44884e-05
1.44894e-05
1.44904e-05
2.27795e-05
2.1898e-05
2.11349e-05
2.04677e-05
1.98916e-05
1.93955e-05
1.89511e-05
1.85557e-05
1.82066e-05
1.79008e-05
1.76346e-05
1.74034e-05
1.72039e-05
1.70348e-05
1.68942e-05
1.67767e-05
1.6679e-05
1.65979e-05
1.65305e-05
1.6475e-05
1.64291e-05
1.6392e-05
1.63601e-05
1.63324e-05
1.63092e-05
1.62916e-05
1.62784e-05
1.62688e-05
1.62597e-05
1.6252e-05
1.62463e-05
1.62438e-05
1.62432e-05
1.62438e-05
1.62434e-05
1.62437e-05
1.62422e-05
1.62425e-05
1.62434e-05
1.62445e-05
2.44268e-05
2.30114e-05
2.2057e-05
2.12821e-05
2.06357e-05
2.01048e-05
1.96359e-05
1.92214e-05
1.88556e-05
1.85349e-05
1.82556e-05
1.80126e-05
1.78026e-05
1.76241e-05
1.74732e-05
1.73476e-05
1.72433e-05
1.71569e-05
1.70851e-05
1.70257e-05
1.69769e-05
1.69367e-05
1.6902e-05
1.68715e-05
1.68469e-05
1.68279e-05
1.68137e-05
1.68033e-05
1.67933e-05
1.67843e-05
1.67781e-05
1.67753e-05
1.67747e-05
1.67751e-05
1.67734e-05
1.67739e-05
1.67765e-05
1.67754e-05
1.67755e-05
1.67762e-05
2.31467e-05
2.18503e-05
2.10044e-05
2.02958e-05
1.97003e-05
1.91985e-05
1.87508e-05
1.8354e-05
1.80049e-05
1.77017e-05
1.74398e-05
1.72134e-05
1.70192e-05
1.68557e-05
1.67193e-05
1.66057e-05
1.65112e-05
1.64329e-05
1.63675e-05
1.63141e-05
1.62699e-05
1.62345e-05
1.62029e-05
1.61747e-05
1.61515e-05
1.61336e-05
1.61203e-05
1.61106e-05
1.61012e-05
1.60925e-05
1.60863e-05
1.60835e-05
1.6083e-05
1.60837e-05
1.60811e-05
1.60819e-05
1.60845e-05
1.60831e-05
1.60832e-05
1.60839e-05
1.97757e-05
1.89928e-05
1.82985e-05
1.76971e-05
1.71926e-05
1.67526e-05
1.63689e-05
1.60365e-05
1.57499e-05
1.5503e-05
1.52921e-05
1.51104e-05
1.49562e-05
1.4827e-05
1.47201e-05
1.46317e-05
1.45564e-05
1.44954e-05
1.44437e-05
1.44025e-05
1.43686e-05
1.43417e-05
1.43171e-05
1.42943e-05
1.42753e-05
1.42608e-05
1.42505e-05
1.42432e-05
1.42359e-05
1.42282e-05
1.42226e-05
1.42203e-05
1.42202e-05
1.42208e-05
1.42209e-05
1.42211e-05
1.42216e-05
1.42202e-05
1.42197e-05
1.42202e-05
1.55812e-05
1.49202e-05
1.43511e-05
1.38568e-05
1.34467e-05
1.31077e-05
1.28174e-05
1.25826e-05
1.23849e-05
1.22197e-05
1.20816e-05
1.19625e-05
1.18611e-05
1.17751e-05
1.17035e-05
1.16436e-05
1.15935e-05
1.1552e-05
1.15177e-05
1.14898e-05
1.14675e-05
1.14498e-05
1.14338e-05
1.14187e-05
1.14055e-05
1.13957e-05
1.13886e-05
1.13837e-05
1.1379e-05
1.13738e-05
1.13697e-05
1.13682e-05
1.1368e-05
1.13684e-05
1.13683e-05
1.13678e-05
1.13666e-05
1.1365e-05
1.13647e-05
1.13657e-05
1.11601e-05
1.04591e-05
9.81878e-06
9.34146e-06
9.04201e-06
8.78965e-06
8.63244e-06
8.51441e-06
8.41253e-06
8.32743e-06
8.2563e-06
8.19513e-06
8.14245e-06
8.09788e-06
8.06053e-06
8.02942e-06
8.00337e-06
7.9813e-06
7.96323e-06
7.94862e-06
7.93696e-06
7.92776e-06
7.92018e-06
7.9134e-06
7.90703e-06
7.90146e-06
7.89723e-06
7.89436e-06
7.89204e-06
7.88991e-06
7.88816e-06
7.88698e-06
7.88629e-06
7.88602e-06
7.88597e-06
7.88602e-06
7.88476e-06
7.88384e-06
7.88351e-06
7.88345e-06
5.73195e-06
5.28771e-06
4.87854e-06
4.61936e-06
4.46697e-06
4.36674e-06
4.29424e-06
4.2424e-06
4.20363e-06
4.17209e-06
4.14413e-06
4.12059e-06
4.10123e-06
4.08505e-06
4.07161e-06
4.06062e-06
4.05166e-06
4.04433e-06
4.03839e-06
4.03354e-06
4.02962e-06
4.02655e-06
4.02446e-06
4.0229e-06
4.02124e-06
4.01937e-06
4.01761e-06
4.01628e-06
4.01571e-06
4.01543e-06
4.01503e-06
4.01431e-06
4.01357e-06
4.0131e-06
4.01305e-06
4.01346e-06
4.0136e-06
4.01309e-06
4.01239e-06
4.0114e-06
1.116e-05
1.0459e-05
9.81879e-06
9.34157e-06
9.04171e-06
8.7896e-06
8.63147e-06
8.51307e-06