/*--------------------------------*- C++ -*----------------------------------*\
| =========                 |                                                 |
| \\      /  F ield         | OpenFOAM: The Open Source CFD Toolbox           |
|  \\    /   O peration     | Version:  2212                                  |
|   \\  /    A nd           | Website:  www.openfoam.com                      |
|    \\/     M anipulation  |                                                 |
\*---------------------------------------------------------------------------*/
FoamFile
{
    version     2.0;
    format      ascii;
    arch        "LSB;label=32;scalar=64";
    class       volScalarField;
    location    "0.6";
    object      p;
}
// * * * * * * * * * * * * * * * * * * * * * * * * * * * * * * * * * * * * * //

dimensions      [0 2 -2 0 0 0 0];

internalField   nonuniform List<scalar> 
6840
(
0.0179915
0.010877
0.00858559
0.00804776
0.00777338
0.00755116
0.00736448
0.00719796
0.00703667
0.00687699
0.00671888
0.00656208
0.00640538
0.00624731
0.00608732
0.0059242
0.00575678
0.00557618
0.00533211
0.00484678
0.0108127
0.0100788
0.00898592
0.00831995
0.00791736
0.00764362
0.00743244
0.00724619
0.00707175
0.00690434
0.00674139
0.00658118
0.00642216
0.00626353
0.00610506
0.00594583
0.00578122
0.00560406
0.00538731
0.0050494
0.0104644
0.00961293
0.00884866
0.00828953
0.0079134
0.00764542
0.00742983
0.007237
0.00705873
0.00689046
0.00672739
0.00656738
0.00641003
0.00625525
0.00610267
0.00595171
0.00580191
0.00565474
0.00551896
0.00541426
0.0100552
0.00929246
0.0086737
0.0082224
0.00787847
0.00760952
0.00739003
0.00720144
0.00703393
0.00687699
0.00672214
0.00656817
0.00641622
0.00626759
0.00612401
0.00598854
0.00586563
0.00576154
0.00569001
0.00566745
0.00992098
0.0091798
0.00859164
0.00818354
0.00786164
0.00759499
0.00737357
0.00718311
0.00701263
0.00685637
0.00670724
0.00655863
0.00641022
0.00626464
0.00612499
0.00599549
0.00588234
0.0057942
0.00574747
0.00577236
0.00992097
0.00917979
0.00859161
0.0081835
0.00786157
0.00759489
0.00737342
0.00718284
0.00701216
0.00685558
0.00670591
0.00655637
0.00640638
0.00625817
0.00611401
0.00597635
0.00584907
0.00573635
0.00564669
0.00559473
0.0100551
0.00929241
0.00867365
0.00822232
0.00787835
0.00760932
0.00738968
0.0072008
0.00703284
0.00687519
0.00671915
0.00656325
0.00640815
0.00625435
0.00610187
0.00595088
0.00580198
0.00565684
0.00552089
0.00540547
0.0104644
0.00961289
0.00884862
0.00828946
0.00791328
0.00764521
0.00742946
0.00723639
0.00705771
0.00688876
0.00672454
0.00656273
0.00640253
0.00624318
0.00608314
0.00592022
0.00575048
0.00556968
0.00537502
0.00515125
0.0108127
0.0100788
0.0089859
0.00831992
0.00791731
0.00764353
0.00743228
0.00724591
0.00707126
0.00690351
0.00674003
0.00657895
0.00641834
0.00625682
0.00609376
0.00592789
0.00575361
0.00555701
0.0052945
0.00484562
0.0179914
0.010877
0.00858558
0.00804775
0.00777337
0.00755115
0.00736446
0.00719795
0.00703666
0.00687698
0.00671887
0.00656207
0.00640537
0.0062473
0.00608729
0.00592416
0.00575673
0.00557611
0.00533198
0.0048466
0.0108127
0.0100788
0.00898591
0.00831993
0.00791732
0.00764354
0.00743228
0.00724592
0.00707127
0.00690352
0.00674004
0.00657895
0.00641835
0.00625684
0.0060938
0.00592793
0.00575366
0.00555709
0.00529462
0.0048458
0.0100961
0.0100644
0.00933614
0.00862563
0.00817927
0.00786328
0.00760431
0.00737651
0.00717169
0.00698291
0.00680451
0.00663257
0.00646384
0.0062962
0.00612821
0.00595745
0.00578044
0.00559363
0.00541307
0.00531173
0.00917065
0.00929684
0.00899396
0.00857774
0.0082106
0.00789197
0.00761343
0.00737299
0.00716041
0.0069658
0.00678234
0.00660671
0.00643687
0.00627102
0.00610739
0.00594433
0.00578011
0.00561162
0.00543903
0.00527106
0.00875231
0.00879583
0.00863029
0.00836739
0.00808705
0.00781576
0.00756484
0.00733862
0.00713586
0.00694977
0.00677353
0.00660411
0.00644004
0.00628055
0.00612604
0.00597737
0.00583567
0.00570287
0.00558799
0.00550664
0.00853635
0.00855819
0.00843101
0.00821356
0.00798121
0.00775214
0.00752946
0.00731652
0.0071161
0.00692937
0.00675393
0.00658672
0.00642655
0.00627224
0.00612327
0.00598162
0.00584944
0.00572797
0.00561918
0.00551989
0.00853632
0.00855815
0.00843097
0.00821347
0.00798109
0.00775197
0.00752919
0.00731611
0.00711548
0.00692834
0.00675216
0.0065837
0.00642162
0.00626456
0.00611158
0.00596368
0.00582197
0.00568692
0.00556112
0.0054424
0.00875224
0.00879575
0.00863019
0.00836725
0.00808685
0.00781548
0.00756442
0.00733795
0.00713472
0.00694772
0.00676992
0.0065982
0.00643118
0.00626741
0.00610555
0.00594462
0.00578415
0.00562453
0.00546814
0.00531198
0.00917061
0.00929679
0.00899389
0.00857766
0.00821049
0.00789181
0.00761314
0.00737248
0.00715952
0.00696436
0.00678012
0.00660331
0.00643161
0.00626274
0.00609458
0.00592511
0.00575269
0.00557569
0.00540161
0.00524857
0.0100961
0.0100644
0.00933613
0.00862562
0.00817926
0.00786327
0.00760429
0.00737649
0.00717168
0.0069829
0.00680449
0.00663255
0.00646381
0.00629616
0.00612816
0.00595739
0.00578036
0.00559351
0.00541288
0.00531144
0.0108127
0.0100788
0.00898591
0.00831994
0.00791735
0.00764361
0.00743243
0.00724618
0.00707173
0.00690433
0.00674138
0.00658116
0.00642214
0.00626351
0.00610502
0.00594578
0.00578115
0.00560396
0.00538717
0.0050492
0.0104644
0.0096129
0.00884862
0.00828947
0.00791329
0.00764522
0.00742947
0.0072364
0.00705772
0.00688877
0.00672456
0.00656274
0.00640255
0.00624321
0.00608317
0.00592026
0.00575053
0.00556974
0.00537511
0.00515138
0.00917062
0.0092968
0.0089939
0.00857767
0.0082105
0.00789182
0.00761315
0.00737249
0.00715953
0.00696438
0.00678014
0.00660333
0.00643165
0.00626279
0.00609463
0.00592518
0.00575277
0.0055758
0.00540176
0.00524879
0.00860114
0.00870212
0.00859056
0.00836507
0.0081093
0.00785086
0.0075924
0.00735066
0.00713256
0.00693197
0.00674386
0.00656498
0.00639263
0.00622457
0.00605928
0.00589543
0.00573221
0.00557093
0.00541902
0.00527636
0.00823319
0.00830125
0.00824889
0.00810195
0.0079171
0.00771198
0.00750133
0.00729448
0.00709344
0.00690116
0.00671884
0.00654463
0.00637658
0.00621349
0.00605473
0.00589965
0.00574766
0.00559888
0.00545549
0.00531081
0.00805014
0.00811457
0.00808512
0.00796031
0.00780136
0.00762773
0.00744149
0.00725356
0.00706758
0.00688441
0.00670564
0.00653234
0.00636494
0.00620335
0.00604767
0.00589748
0.00575104
0.00560622
0.0054619
0.00530767
0.00805011
0.00811455
0.00808509
0.00796023
0.0078012
0.00762752
0.00744124
0.00725323
0.00706708
0.00688364
0.00670448
0.00653063
0.00636251
0.0061997
0.00604207
0.00588942
0.00574004
0.00559247
0.0054481
0.00529987
0.00823313
0.0083012
0.00824882
0.00810183
0.00791692
0.00771175
0.00750104
0.00729405
0.00709278
0.0069001
0.0067171
0.0065419
0.00637248
0.0062073
0.00604527
0.0058853
0.00572635
0.00556814
0.00541229
0.00525314
0.00860113
0.00870211
0.00859055
0.00836506
0.00810929
0.00785085
0.00759238
0.00735064
0.00713255
0.00693195
0.00674383
0.00656496
0.00639259
0.00622454
0.00605924
0.00589538
0.00573214
0.00557084
0.0054189
0.0052762
0.00917064
0.00929683
0.00899395
0.00857773
0.00821059
0.00789196
0.00761342
0.00737297
0.00716039
0.00696578
0.00678233
0.00660669
0.00643684
0.00627098
0.00610734
0.00594428
0.00578003
0.00561151
0.00543886
0.00527082
0.0104644
0.00961292
0.00884865
0.00828951
0.00791338
0.00764541
0.00742981
0.00723699
0.00705871
0.00689044
0.00672738
0.00656737
0.00641002
0.00625523
0.00610263
0.00595167
0.00580185
0.00565466
0.00551885
0.00541411
0.0100551
0.00929242
0.00867365
0.00822233
0.00787835
0.00760933
0.00738969
0.00720081
0.00703285
0.0068752
0.00671916
0.00656327
0.00640818
0.00625438
0.00610191
0.00595092
0.00580202
0.00565688
0.00552094
0.00540551
0.00875225
0.00879576
0.00863019
0.00836726
0.00808686
0.00781549
0.00756443
0.00733796
0.00713473
0.00694773
0.00676994
0.00659822
0.00643121
0.00626745
0.0061056
0.00594467
0.00578422
0.0056246
0.00546822
0.00531208
0.00823314
0.00830121
0.00824883
0.00810183
0.00791692
0.00771175
0.00750105
0.00729406
0.00709279
0.00690011
0.00671712
0.00654193
0.0063725
0.00620733
0.0060453
0.00588534
0.0057264
0.0055682
0.00541236
0.0052532
0.00793526
0.0079944
0.00798247
0.00788707
0.00774744
0.00758192
0.00740169
0.00721716
0.00703312
0.00685267
0.00667743
0.00650724
0.00634146
0.00617951
0.00602084
0.00586471
0.0057102
0.00555698
0.00540586
0.00524804
0.00778416
0.00784705
0.00785082
0.00777717
0.00765705
0.00751067
0.00734777
0.00717635
0.0070022
0.00682866
0.00665758
0.00648986
0.00632581
0.00616544
0.00600858
0.00585461
0.00570244
0.00555173
0.00540341
0.00524742
0.00778414
0.00784704
0.00785079
0.00777714
0.00765701
0.00751061
0.00734768
0.00717621
0.00700202
0.00682841
0.00665725
0.00648942
0.00632522
0.00616457
0.00600731
0.00585306
0.00570092
0.00555075
0.00540432
0.00525234
0.00793525
0.0079944
0.00798246
0.00788707
0.00774744
0.00758192
0.00740168
0.00721716
0.00703311
0.00685266
0.00667742
0.00650722
0.00634144
0.00617949
0.00602082
0.00586468
0.00571018
0.00555696
0.00540585
0.00524806
0.00823318
0.00830124
0.00824888
0.00810194
0.00791709
0.00771196
0.00750132
0.00729447
0.00709343
0.00690115
0.00671882
0.00654461
0.00637656
0.00621347
0.0060547
0.00589962
0.00574762
0.00559883
0.00545545
0.00531079
0.0087523
0.00879582
0.00863028
0.00836738
0.00808704
0.00781574
0.00756483
0.00733861
0.00713585
0.00694976
0.00677351
0.00660409
0.00644001
0.00628053
0.00612601
0.00597733
0.00583562
0.0057028
0.0055879
0.00550652
0.0100552
0.00929245
0.00867369
0.00822239
0.00787845
0.00760951
0.00739002
0.00720143
0.00703391
0.00687698
0.00672213
0.00656816
0.0064162
0.00626757
0.00612399
0.00598851
0.00586559
0.00576149
0.00568995
0.00566736
0.00992097
0.00917979
0.00859162
0.0081835
0.00786158
0.0075949
0.00737342
0.00718285
0.00701217
0.00685559
0.00670592
0.00655638
0.00640639
0.00625819
0.00611403
0.00597637
0.00584908
0.00573635
0.00564668
0.00559471
0.00853632
0.00855816
0.00843097
0.00821347
0.00798109
0.00775197
0.00752919
0.00731612
0.00711549
0.00692835
0.00675218
0.00658372
0.00642164
0.00626458
0.0061116
0.0059637
0.00582199
0.00568694
0.00556114
0.00544242
0.00805011
0.00811456
0.00808509
0.00796023
0.00780121
0.00762753
0.00744125
0.00725323
0.00706708
0.00688365
0.00670449
0.00653065
0.00636253
0.00619972
0.00604209
0.00588944
0.00574006
0.0055925
0.00544813
0.00529991
0.00778415
0.00784704
0.00785079
0.00777714
0.00765701
0.00751061
0.00734768
0.00717621
0.00700202
0.00682842
0.00665725
0.00648943
0.00632522
0.00616458
0.00600733
0.00585307
0.00570093
0.00555076
0.00540432
0.00525233
0.00764135
0.00771086
0.00773299
0.00768044
0.00757918
0.00744824
0.00729831
0.00713731
0.00697081
0.00680249
0.00663473
0.00646895
0.00630589
0.00614585
0.00598877
0.00583413
0.0056809
0.00552853
0.00537741
0.00521811
0.00764135
0.00771086
0.00773298
0.00768043
0.00757918
0.00744823
0.00729831
0.00713731
0.00697081
0.00680249
0.00663472
0.00646894
0.00630589
0.00614585
0.00598877
0.00583412
0.0056809
0.00552853
0.00537742
0.00521813
0.00778415
0.00784705
0.00785081
0.00777716
0.00765705
0.00751066
0.00734777
0.00717634
0.00700219
0.00682865
0.00665757
0.00648985
0.0063258
0.00616543
0.00600857
0.0058546
0.00570243
0.00555173
0.00540343
0.00524746
0.00805013
0.00811457
0.00808511
0.0079603
0.00780135
0.00762772
0.00744148
0.00725355
0.00706757
0.00688439
0.00670562
0.00653233
0.00636493
0.00620334
0.00604766
0.00589747
0.00575103
0.00560622
0.00546191
0.00530771
0.00853634
0.00855818
0.008431
0.00821355
0.0079812
0.00775213
0.00752945
0.00731651
0.00711609
0.00692936
0.00675392
0.00658671
0.00642653
0.00627222
0.00612326
0.0059816
0.00584942
0.00572794
0.00561915
0.00551987
0.00992097
0.00917979
0.00859163
0.00818353
0.00786163
0.00759498
0.00737356
0.0071831
0.00701262
0.00685637
0.00670723
0.00655862
0.00641021
0.00626462
0.00612498
0.00599548
0.00588233
0.00579418
0.00574745
0.00577234
0.00992098
0.0091798
0.00859164
0.00818354
0.00786164
0.00759499
0.00737358
0.00718312
0.00701263
0.00685638
0.00670724
0.00655863
0.00641022
0.00626463
0.00612498
0.00599548
0.00588232
0.00579416
0.00574742
0.00577229
0.00853635
0.00855819
0.00843101
0.00821356
0.00798121
0.00775214
0.00752946
0.00731652
0.0071161
0.00692937
0.00675393
0.00658672
0.00642655
0.00627223
0.00612326
0.0059816
0.00584942
0.00572793
0.00561913
0.00551984
0.00805014
0.00811457
0.00808512
0.00796031
0.00780135
0.00762773
0.00744149
0.00725356
0.00706758
0.0068844
0.00670563
0.00653234
0.00636494
0.00620334
0.00604766
0.00589747
0.00575104
0.00560622
0.00546191
0.00530771
0.00778415
0.00784705
0.00785081
0.00777716
0.00765705
0.00751066
0.00734777
0.00717634
0.0070022
0.00682865
0.00665757
0.00648985
0.00632581
0.00616543
0.00600857
0.00585461
0.00570244
0.00555174
0.00540343
0.00524746
0.00764134
0.00771086
0.00773298
0.00768043
0.00757917
0.00744823
0.0072983
0.00713731
0.0069708
0.00680248
0.00663472
0.00646894
0.00630589
0.00614584
0.00598877
0.00583412
0.0056809
0.00552853
0.00537742
0.00521813
0.00764134
0.00771086
0.00773298
0.00768043
0.00757917
0.00744823
0.0072983
0.00713731
0.0069708
0.00680248
0.00663472
0.00646894
0.00630588
0.00614584
0.00598876
0.00583412
0.0056809
0.00552853
0.00537741
0.00521812
0.00778414
0.00784703
0.00785079
0.00777713
0.007657
0.0075106
0.00734767
0.0071762
0.00700201
0.0068284
0.00665724
0.00648941
0.00632521
0.00616456
0.00600731
0.00585306
0.00570091
0.00555074
0.00540432
0.00525234
0.0080501
0.00811454
0.00808508
0.00796022
0.00780119
0.00762751
0.00744123
0.00725322
0.00706707
0.00688363
0.00670447
0.00653062
0.0063625
0.00619969
0.00604207
0.00588941
0.00574004
0.00559248
0.00544811
0.00529989
0.00853631
0.00855814
0.00843096
0.00821346
0.00798108
0.00775196
0.00752918
0.0073161
0.00711548
0.00692833
0.00675215
0.00658369
0.00642161
0.00626455
0.00611157
0.00596368
0.00582197
0.00568693
0.00556113
0.00544242
0.00992096
0.00917978
0.0085916
0.00818349
0.00786156
0.00759488
0.00737341
0.00718283
0.00701215
0.00685558
0.0067059
0.00655636
0.00640637
0.00625816
0.006114
0.00597635
0.00584907
0.00573635
0.0056467
0.00559475
0.0100552
0.00929246
0.0086737
0.0082224
0.00787846
0.00760952
0.00739003
0.00720143
0.00703392
0.00687698
0.00672213
0.00656816
0.0064162
0.00626756
0.00612398
0.00598849
0.00586557
0.00576145
0.0056899
0.0056673
0.00875231
0.00879582
0.00863028
0.00836739
0.00808705
0.00781575
0.00756483
0.00733861
0.00713585
0.00694976
0.00677351
0.00660409
0.00644001
0.00628052
0.006126
0.00597731
0.0058356
0.00570277
0.00558786
0.00550647
0.00823318
0.00830124
0.00824888
0.00810194
0.00791709
0.00771196
0.00750131
0.00729447
0.00709342
0.00690115
0.00671882
0.00654461
0.00637656
0.00621345
0.00605468
0.0058996
0.00574761
0.00559882
0.00545543
0.00531078
0.00793524
0.00799439
0.00798245
0.00788706
0.00774743
0.00758191
0.00740167
0.00721715
0.00703311
0.00685265
0.00667741
0.00650722
0.00634144
0.00617948
0.00602081
0.00586467
0.00571017
0.00555696
0.00540585
0.00524807
0.00778413
0.00784703
0.00785078
0.00777713
0.007657
0.00751059
0.00734767
0.0071762
0.007002
0.0068284
0.00665724
0.00648941
0.0063252
0.00616456
0.0060073
0.00585305
0.00570091
0.00555074
0.00540432
0.00525235
0.00778414
0.00784704
0.0078508
0.00777715
0.00765704
0.00751065
0.00734776
0.00717633
0.00700219
0.00682864
0.00665756
0.00648984
0.00632579
0.00616542
0.00600856
0.00585459
0.00570243
0.00555173
0.00540342
0.00524745
0.00793524
0.00799439
0.00798245
0.00788706
0.00774743
0.00758191
0.00740167
0.00721715
0.0070331
0.00685265
0.00667741
0.00650721
0.00634143
0.00617948
0.00602081
0.00586468
0.00571017
0.00555696
0.00540585
0.00524805
0.00823312
0.00830119
0.00824881
0.00810182
0.00791691
0.00771174
0.00750103
0.00729404
0.00709277
0.00690009
0.00671709
0.00654189
0.00637247
0.0062073
0.00604527
0.0058853
0.00572635
0.00556815
0.00541231
0.00525315
0.00875223
0.00879574
0.00863018
0.00836724
0.00808684
0.00781547
0.00756441
0.00733794
0.00713471
0.00694771
0.00676991
0.00659819
0.00643117
0.00626741
0.00610555
0.00594462
0.00578417
0.00562455
0.00546817
0.00531203
0.0100551
0.0092924
0.00867364
0.00822231
0.00787834
0.00760931
0.00738967
0.00720079
0.00703283
0.00687518
0.00671914
0.00656324
0.00640814
0.00625434
0.00610186
0.00595088
0.00580198
0.00565685
0.00552092
0.00540551
0.0104644
0.00961293
0.00884865
0.00828952
0.00791339
0.00764541
0.00742982
0.00723699
0.00705871
0.00689044
0.00672737
0.00656736
0.00641
0.00625521
0.00610261
0.00595164
0.00580181
0.00565461
0.0055188
0.00541405
0.00917063
0.00929683
0.00899395
0.00857773
0.00821058
0.00789196
0.00761341
0.00737297
0.00716039
0.00696578
0.00678232
0.00660668
0.00643683
0.00627096
0.00610732
0.00594425
0.00577999
0.00561147
0.00543882
0.00527077
0.00860112
0.0087021
0.00859054
0.00836505
0.00810928
0.00785084
0.00759237
0.00735063
0.00713254
0.00693194
0.00674382
0.00656494
0.00639258
0.00622452
0.00605921
0.00589535
0.00573211
0.00557081
0.00541887
0.00527617
0.00823312
0.00830118
0.0082488
0.00810181
0.0079169
0.00771173
0.00750102
0.00729403
0.00709276
0.00690008
0.00671708
0.00654189
0.00637246
0.00620728
0.00604525
0.00588528
0.00572633
0.00556813
0.00541229
0.00525314
0.00805009
0.00811453
0.00808507
0.00796021
0.00780118
0.0076275
0.00744122
0.0072532
0.00706705
0.00688362
0.00670446
0.00653061
0.00636249
0.00619968
0.00604206
0.0058894
0.00574002
0.00559246
0.0054481
0.00529989
0.00805012
0.00811455
0.0080851
0.00796029
0.00780133
0.00762771
0.00744146
0.00725354
0.00706755
0.00688438
0.00670561
0.00653231
0.00636491
0.00620332
0.00604764
0.00589746
0.00575102
0.0056062
0.0054619
0.0053077
0.00823316
0.00830123
0.00824887
0.00810193
0.00791708
0.00771195
0.0075013
0.00729446
0.00709341
0.00690114
0.00671881
0.0065446
0.00637655
0.00621345
0.00605469
0.00589961
0.00574762
0.00559883
0.00545545
0.00531079
0.00860112
0.0087021
0.00859054
0.00836505
0.00810928
0.00785084
0.00759237
0.00735063
0.00713254
0.00693194
0.00674382
0.00656495
0.00639258
0.00622453
0.00605924
0.00589538
0.00573215
0.00557086
0.00541892
0.00527624
0.0091706
0.00929678
0.00899388
0.00857765
0.00821048
0.0078918
0.00761313
0.00737247
0.00715951
0.00696435
0.00678011
0.0066033
0.0064316
0.00626273
0.00609458
0.00592512
0.00575271
0.00557572
0.00540166
0.00524866
0.0104644
0.00961288
0.00884861
0.00828945
0.00791327
0.0076452
0.00742945
0.00723638
0.0070577
0.00688875
0.00672453
0.00656271
0.00640252
0.00624316
0.00608312
0.00592021
0.00575048
0.00556969
0.00537506
0.00515132
0.0108127
0.0100788
0.00898591
0.00831994
0.00791735
0.00764361
0.00743242
0.00724617
0.00707173
0.00690432
0.00674137
0.00658114
0.00642212
0.00626349
0.00610499
0.00594575
0.00578112
0.00560392
0.00538712
0.00504915
0.0100961
0.0100644
0.00933612
0.00862561
0.00817924
0.00786326
0.00760428
0.00737648
0.00717166
0.00698288
0.00680447
0.00663253
0.00646379
0.00629614
0.00612813
0.00595735
0.00578032
0.00559346
0.00541283
0.00531137
0.00917059
0.00929677
0.00899387
0.00857764
0.00821047
0.00789179
0.00761312
0.00737246
0.0071595
0.00696434
0.0067801
0.00660329
0.00643159
0.00626272
0.00609455
0.00592508
0.00575266
0.00557565
0.00540157
0.00524852
0.00875222
0.00879573
0.00863016
0.00836723
0.00808683
0.00781545
0.00756439
0.00733792
0.00713469
0.00694769
0.00676989
0.00659818
0.00643116
0.00626739
0.00610553
0.0059446
0.00578413
0.0056245
0.0054681
0.00531194
0.00853629
0.00855813
0.00843094
0.00821344
0.00798106
0.00775194
0.00752916
0.00731608
0.00711546
0.00692832
0.00675214
0.00658368
0.00642159
0.00626453
0.00611156
0.00596366
0.00582194
0.00568689
0.00556108
0.00544236
0.00853632
0.00855816
0.00843099
0.00821353
0.00798119
0.00775211
0.00752943
0.00731649
0.00711607
0.00692934
0.0067539
0.00658669
0.00642652
0.00627221
0.00612324
0.00598159
0.0058494
0.00572791
0.00561912
0.00551983
0.00875229
0.0087958
0.00863026
0.00836737
0.00808703
0.00781573
0.00756481
0.00733859
0.00713583
0.00694974
0.0067735
0.00660408
0.00644
0.00628051
0.006126
0.00597732
0.00583561
0.00570278
0.00558789
0.00550651
0.00917062
0.00929682
0.00899394
0.00857772
0.00821057
0.00789195
0.0076134
0.00737296
0.00716038
0.00696577
0.00678231
0.00660668
0.00643683
0.00627097
0.00610734
0.00594427
0.00578003
0.00561152
0.00543888
0.00527086
0.0100961
0.0100644
0.00933612
0.00862561
0.00817925
0.00786326
0.00760428
0.00737648
0.00717167
0.00698288
0.00680448
0.00663254
0.0064638
0.00629615
0.00612815
0.00595738
0.00578036
0.00559353
0.00541293
0.00531152
0.0108127
0.0100788
0.00898589
0.00831991
0.0079173
0.00764352
0.00743227
0.0072459
0.00707125
0.00690349
0.00674002
0.00657893
0.00641833
0.00625681
0.00609375
0.00592788
0.0057536
0.00555702
0.00529454
0.00484571
0.0179914
0.010877
0.00858557
0.00804773
0.00777336
0.00755114
0.00736445
0.00719794
0.00703664
0.00687696
0.00671885
0.00656205
0.00640534
0.00624726
0.00608726
0.00592412
0.00575668
0.00557605
0.00533192
0.00484654
0.0108126
0.0100788
0.00898588
0.0083199
0.00791729
0.00764351
0.00743225
0.00724588
0.00707123
0.00690348
0.00674
0.00657891
0.0064183
0.00625679
0.00609373
0.00592785
0.00575356
0.00555695
0.00529444
0.00484555
0.0104644
0.00961287
0.00884859
0.00828944
0.00791326
0.00764518
0.00742943
0.00723636
0.00705768
0.00688873
0.00672451
0.0065627
0.0064025
0.00624315
0.00608311
0.00592018
0.00575043
0.00556963
0.00537496
0.00515118
0.0100551
0.00929239
0.00867362
0.00822229
0.00787832
0.00760929
0.00738965
0.00720077
0.00703281
0.00687516
0.00671912
0.00656322
0.00640813
0.00625433
0.00610185
0.00595085
0.00580195
0.0056568
0.00552084
0.0054054
0.00992094
0.00917976
0.00859158
0.00818347
0.00786154
0.00759486
0.00737339
0.00718281
0.00701214
0.00685556
0.00670589
0.00655635
0.00640635
0.00625815
0.00611399
0.00597633
0.00584903
0.00573631
0.00564663
0.00559466
0.00992095
0.00917978
0.00859161
0.00818352
0.00786161
0.00759496
0.00737355
0.00718309
0.00701261
0.00685635
0.00670722
0.00655861
0.0064102
0.00626461
0.00612496
0.00599545
0.0058823
0.00579414
0.0057474
0.00577227
0.0100552
0.00929244
0.00867368
0.00822238
0.00787844
0.00760949
0.00739001
0.00720141
0.0070339
0.00687696
0.00672211
0.00656815
0.00641619
0.00626755
0.00612397
0.00598849
0.00586557
0.00576146
0.00568992
0.00566733
0.0104644
0.00961291
0.00884864
0.0082895
0.00791337
0.0076454
0.0074298
0.00723698
0.0070587
0.00689043
0.00672736
0.00656735
0.00641
0.00625521
0.00610262
0.00595165
0.00580184
0.00565465
0.00551884
0.00541411
0.0108126
0.0100788
0.0089859
0.00831993
0.00791734
0.0076436
0.00743242
0.00724617
0.00707172
0.00690432
0.00674137
0.00658115
0.00642213
0.0062635
0.006105
0.00594577
0.00578115
0.00560396
0.00538719
0.00504924
0.0179914
0.010877
0.00858557
0.00804774
0.00777336
0.00755114
0.00736445
0.00719794
0.00703665
0.00687697
0.00671886
0.00656206
0.00640535
0.00624728
0.00608728
0.00592415
0.00575672
0.00557611
0.00533201
0.00484666
0.00573948
0.00505287
0.0045927
0.00446064
0.00435403
0.00422939
0.00410322
0.00397773
0.00385158
0.0037251
0.00359863
0.00347225
0.0033462
0.00322025
0.00309483
0.00297021
0.00284635
0.00272316
0.00260055
0.00247854
0.00235716
0.00223638
0.00211576
0.00199432
0.00187182
0.00174937
0.00162794
0.00150751
0.00138734
0.00126622
0.00114445
0.00102307
0.000902633
0.000783045
0.000662982
0.00054179
0.000420282
0.000299068
0.000178725
5.92793e-05
0.00583958
0.00514291
0.00463932
0.00444942
0.00432972
0.00420669
0.00408349
0.00396136
0.00383862
0.00371495
0.00359067
0.00346606
0.00334142
0.00321654
0.00309199
0.00296801
0.00284465
0.00272185
0.00259953
0.00247772
0.00235646
0.00223576
0.00211518
0.00199382
0.00187139
0.00174898
0.00162757
0.00150718
0.00138702
0.00126596
0.00114422
0.00102289
0.0009025
0.000782934
0.000662823
0.000541682
0.00042029
0.0002992
0.000178858
5.93939e-05
0.00557967
0.0051678
0.00479673
0.00457465
0.00441108
0.00425883
0.00411658
0.00398365
0.00385383
0.00372515
0.00359768
0.00347102
0.00334472
0.00321863
0.00309349
0.00296905
0.00284539
0.00272239
0.00259992
0.00247801
0.00235666
0.002236
0.00211529
0.00199342
0.00187075
0.00174856
0.00162742
0.00150716
0.00138697
0.00126579
0.00114397
0.00102269
0.000902355
0.00078272
0.000662815
0.000541797
0.000420305
0.000299278
0.00017904
5.95512e-05
0.00532539
0.0050942
0.00484222
0.0046355
0.00446251
0.0043047
0.00415536
0.0040134
0.00387634
0.00374233
0.00361074
0.00348099
0.00335213
0.00322425
0.00309777
0.00297235
0.00284804
0.00272446
0.00260155
0.0024793
0.00235763
0.00223671
0.00211568
0.00199349
0.00187072
0.00174861
0.00162755
0.00150731
0.00138703
0.0012657
0.00114385
0.00102268
0.000902431
0.000782841
0.000662982
0.000541901
0.000420289
0.000299318
0.000179151
5.9608e-05
0.00511811
0.00499558
0.00482843
0.00465244
0.00448687
0.00433165
0.00418212
0.00403643
0.00389508
0.00375752
0.00362314
0.00349096
0.00335993
0.0032301
0.00310206
0.00297566
0.00285058
0.00272652
0.00260322
0.00248064
0.00235874
0.0022375
0.00211621
0.00199374
0.00187079
0.00174871
0.00162765
0.00150739
0.00138709
0.0012657
0.00114385
0.00102275
0.000902454
0.000782811
0.00066297
0.00054191
0.000420338
0.000299407
0.000179224
5.96247e-05
0.00498992
0.00493097
0.00481055
0.00465221
0.00449165
0.00433945
0.004192
0.00404633
0.00390362
0.00376482
0.0036293
0.00349602
0.00336399
0.00323333
0.00310462
0.00297769
0.00285216
0.00272777
0.00260428
0.00248153
0.00235953
0.00223821
0.00211683
0.00199422
0.00187112
0.00174897
0.00162791
0.00150766
0.00138731
0.00126583
0.00114388
0.00102275
0.000902506
0.00078293
0.000663112
0.000541982
0.000420314
0.00029935
0.000179172
5.95966e-05
0.00500041
0.00493447
0.00481324
0.00465136
0.00449001
0.00433897
0.00419233
0.00404719
0.00390495
0.0037664
0.00363086
0.00349747
0.00336528
0.0032345
0.00310567
0.00297865
0.002853
0.0027285
0.00260486
0.00248204
0.00236003
0.0022388
0.00211754
0.00199491
0.00187171
0.0017494
0.00162821
0.00150797
0.0013877
0.00126612
0.00114402
0.00102277
0.000902541
0.000783053
0.000663299
0.000542131
0.000420355
0.000299287
0.000179055
5.95205e-05
0.00510298
0.00499705
0.00481439
0.00463157
0.00447185
0.00432397
0.00417932
0.0040371
0.00389775
0.00376113
0.00362704
0.0034947
0.00336327
0.00323309
0.00310464
0.00297796
0.00285243
0.00272796
0.00260442
0.00248166
0.00235986
0.0022389
0.00211787
0.00199534
0.00187206
0.00174955
0.00162827
0.00150814
0.00138796
0.00126637
0.00114412
0.00102263
0.000902278
0.000782708
0.000663038
0.00054247
0.000420902
0.000299467
0.000178961
5.94209e-05
0.00538937
0.00508813
0.00478151
0.00457964
0.00443016
0.00428999
0.00415178
0.00401575
0.00388142
0.0037484
0.00361727
0.00348719
0.00335747
0.00322866
0.0031012
0.00297522
0.00285029
0.00272627
0.00260304
0.00248058
0.00235898
0.00223823
0.0021175
0.00199538
0.00187219
0.00174959
0.00162826
0.00150801
0.00138789
0.0012665
0.00114423
0.00102265
0.000902254
0.000782717
0.000663407
0.000542949
0.000420924
0.000299113
0.000178525
5.91726e-05
0.00569894
0.00509943
0.00467597
0.00451758
0.00439527
0.00426152
0.00412855
0.00399822
0.00386782
0.00373759
0.0036085
0.00348026
0.00335215
0.00322453
0.00309806
0.00297275
0.00284836
0.00272473
0.00260181
0.00247958
0.00235812
0.00223732
0.00211667
0.00199513
0.00187244
0.00174982
0.00162824
0.00150777
0.0013876
0.00126647
0.00114447
0.0010229
0.000902319
0.000782642
0.00066326
0.000542946
0.000421124
0.000299245
0.000178548
5.91351e-05
0.00573945
0.00505282
0.00459262
0.00446047
0.00435394
0.0042294
0.00410335
0.00397794
0.00385187
0.00372539
0.00359906
0.00347273
0.00334615
0.00321978
0.0030943
0.00296977
0.00284603
0.00272292
0.00260042
0.00247851
0.00235725
0.00223657
0.002116
0.00199455
0.001872
0.0017495
0.00162802
0.00150755
0.00138741
0.00126634
0.00114447
0.00102295
0.000902391
0.000782679
0.000663212
0.000542752
0.000420857
0.000299038
0.000178477
5.91197e-05
0.00569903
0.00509954
0.00467612
0.00451782
0.0043955
0.00426162
0.00412848
0.00399803
0.00386749
0.00373722
0.00360786
0.00347944
0.00335187
0.00322467
0.00309826
0.00297286
0.00284838
0.00272471
0.00260174
0.00247947
0.00235794
0.00223708
0.0021164
0.00199492
0.00187236
0.00174985
0.00162839
0.00150799
0.00138778
0.00126656
0.00114467
0.00102326
0.000902858
0.000783348
0.000663239
0.000541825
0.000420119
0.000298839
0.000178488
5.91622e-05
0.0055299
0.00511352
0.00476367
0.00455341
0.00439835
0.0042523
0.00411351
0.00398184
0.00385253
0.00372419
0.0035971
0.00347081
0.00334485
0.00321894
0.00309392
0.00296961
0.00284594
0.00272288
0.00260032
0.00247835
0.00235706
0.00223665
0.00211623
0.00199438
0.00187148
0.00174913
0.00162796
0.0015078
0.00138773
0.00126641
0.00114434
0.00102289
0.000902514
0.000783083
0.000663447
0.000542153
0.000420123
0.000298797
0.000178533
5.92376e-05
0.00532635
0.00507442
0.00483678
0.00462865
0.00445137
0.00429039
0.0041399
0.00399849
0.00386266
0.00372993
0.00360011
0.00347223
0.0033445
0.00321778
0.00309262
0.00296835
0.00284481
0.00272182
0.00259939
0.00247752
0.00235621
0.00223561
0.00211484
0.00199279
0.00187021
0.0017485
0.00162766
0.00150737
0.00138704
0.00126577
0.00114404
0.00102292
0.000902579
0.000782835
0.00066299
0.000541838
0.000420174
0.00029931
0.000179152
5.95716e-05
0.00519631
0.00501489
0.00483
0.00464151
0.00446913
0.00430988
0.00415863
0.00401309
0.00387297
0.00373737
0.00360504
0.00347525
0.00334698
0.00322013
0.00309448
0.00296978
0.00284583
0.00272259
0.00259993
0.00247776
0.00235612
0.00223482
0.00211346
0.00199161
0.00186977
0.00174848
0.00162759
0.001507
0.00138634
0.0012652
0.00114403
0.0010233
0.000902951
0.000782818
0.000662527
0.000541591
0.00042051
0.000299911
0.000179718
5.97989e-05
0.00507777
0.00491713
0.00476796
0.0046076
0.00444944
0.00429813
0.00415227
0.00401088
0.00387342
0.0037391
0.00360718
0.00347734
0.00334918
0.00322218
0.00309615
0.00297113
0.00284707
0.00272377
0.00260092
0.00247851
0.00235656
0.00223478
0.002113
0.00199125
0.00186971
0.00174853
0.00162764
0.00150686
0.001386
0.00126504
0.00114417
0.00102354
0.000903131
0.000782749
0.000662208
0.000541472
0.000420745
0.000300244
0.000179996
5.99305e-05
0.00494043
0.00479925
0.00469668
0.00456477
0.00442143
0.00428019
0.00414181
0.00400566
0.00387162
0.0037391
0.00360808
0.00347862
0.00335063
0.00322366
0.00309756
0.00297235
0.00284806
0.00272464
0.00260177
0.00247926
0.00235718
0.00223531
0.00211343
0.0019916