/*--------------------------------*- C++ -*----------------------------------*\
| =========                 |                                                 |
| \\      /  F ield         | OpenFOAM: The Open Source CFD Toolbox           |
|  \\    /   O peration     | Version:  2212                                  |
|   \\  /    A nd           | Website:  www.openfoam.com                      |
|    \\/     M anipulation  |                                                 |
\*---------------------------------------------------------------------------*/
FoamFile
{
    version     2.0;
    format      ascii;
    arch        "LSB;label=32;scalar=64";
    class       surfaceScalarField;
    location    "0.6";
    object      phi;
}
// * * * * * * * * * * * * * * * * * * * * * * * * * * * * * * * * * * * * * //

dimensions      [0 3 -1 0 0 0 0];

oriented        oriented;

internalField   nonuniform List<scalar> 
19019
(
3.32249e-07
1.09685e-09
1.09682e-09
2.79191e-07
2.65294e-08
2.65296e-08
2.49218e-07
1.49862e-08
1.49865e-08
2.29254e-07
9.98161e-09
9.98226e-09
2.14834e-07
7.20906e-09
7.21085e-09
2.03198e-07
5.81641e-09
5.81916e-09
1.93771e-07
4.71085e-09
4.71668e-09
1.86004e-07
3.87828e-09
3.88889e-09
1.79356e-07
3.31439e-09
3.33297e-09
1.73531e-07
2.89659e-09
2.92864e-09
1.68364e-07
2.55753e-09
2.61e-09
1.6375e-07
2.26374e-09
2.35008e-09
1.596e-07
2.0009e-09
2.149e-09
1.55851e-07
1.74029e-09
2.00824e-09
1.52527e-07
1.4314e-09
1.89231e-09
1.49683e-07
1.06322e-09
1.78059e-09
1.47531e-07
5.45708e-10
1.60632e-09
1.47158e-07
-6.7215e-10
1.04454e-09
1.50917e-07
-3.44234e-09
-3.16289e-10
-2.72906e-08
-1.34977e-08
6.3138e-07
3.58744e-09
7.40292e-09
6.14564e-07
2.2645e-08
2.07007e-08
5.86445e-07
2.4375e-08
1.87302e-08
5.61725e-07
1.88531e-08
1.58485e-08
5.39616e-07
1.5566e-08
1.37514e-08
5.20636e-07
1.35039e-08
1.12934e-08
5.0469e-07
1.19407e-08
8.71529e-09
4.90939e-07
1.07804e-08
6.84932e-09
4.78722e-07
9.91368e-09
5.61802e-09
4.67647e-07
9.1795e-09
4.7912e-09
4.57481e-07
8.515e-09
4.20933e-09
4.48081e-07
7.88791e-09
3.77534e-09
4.39344e-07
7.27587e-09
3.46206e-09
4.312e-07
6.64761e-09
3.23598e-09
4.23639e-07
5.93682e-09
3.05585e-09
4.16819e-07
5.01755e-09
2.86487e-09
4.11047e-07
3.71295e-09
2.60476e-09
4.07641e-07
1.15471e-09
1.57902e-09
4.10672e-07
-4.25884e-09
-2.2149e-09
-2.09038e-08
-1.96938e-08
8.90375e-07
2.85249e-09
6.33241e-09
8.82485e-07
1.3408e-08
1.71264e-08
8.70357e-07
1.78662e-08
1.86374e-08
8.55107e-07
1.6953e-08
1.71495e-08
8.39973e-07
1.53364e-08
1.53637e-08
8.25519e-07
1.41636e-08
1.37945e-08
8.11742e-07
1.33684e-08
1.2349e-08
7.98735e-07
1.26559e-08
1.11313e-08
7.86644e-07
1.1853e-08
1.01515e-08
7.75475e-07
1.09838e-08
9.36521e-09
7.65082e-07
1.01359e-08
8.77144e-09
7.55307e-07
9.31914e-09
8.34391e-09
7.46015e-07
8.52625e-09
8.0419e-09
7.37114e-07
7.72011e-09
7.82769e-09
7.28547e-07
6.81583e-09
7.68795e-09
7.20252e-07
5.69275e-09
7.6201e-09
7.12136e-07
4.22072e-09
7.60809e-09
7.038e-07
1.89653e-09
7.59362e-09
6.93885e-07
-1.90486e-09
7.56069e-09
-4.27188e-09
8.48373e-09
1.07432e-06
1.06483e-09
5.56892e-09
1.06824e-06
5.58662e-09
1.39005e-08
1.06138e-06
8.46429e-09
1.6263e-08
1.05338e-06
9.04028e-09
1.59116e-08
1.04509e-06
8.6188e-09
1.50069e-08
1.03719e-06
8.12231e-09
1.39401e-08
1.02978e-06
7.78969e-09
1.29866e-08
1.02275e-06
7.55935e-09
1.21276e-08
1.01586e-06
7.37689e-09
1.13617e-08
1.00904e-06
7.09641e-09
1.07156e-08
1.00228e-06
6.6635e-09
1.02326e-08
9.95525e-07
6.17659e-09
9.893e-09
9.88671e-07
5.70189e-09
9.67794e-09
9.8155e-07
5.24853e-09
9.59287e-09
9.73891e-07
4.81051e-09
9.66334e-09
9.65264e-07
4.36479e-09
9.95511e-09
9.54903e-07
3.9656e-09
1.06164e-08
9.41627e-07
3.33414e-09
1.18383e-08
9.23766e-07
2.45065e-09
1.35049e-08
3.51589e-09
2.129e-08
1.16914e-06
9.34959e-14
4.90666e-09
1.16312e-06
4.6664e-13
1.1609e-08
1.15731e-06
1.13311e-12
1.42766e-08
1.15201e-06
2.06814e-12
1.43358e-08
1.14689e-06
3.60091e-12
1.37353e-08
1.14203e-06
6.38834e-12
1.29772e-08
1.1377e-06
1.14724e-11
1.2111e-08
1.13391e-06
1.99062e-11
1.13218e-08
1.13059e-06
3.42378e-11
1.06686e-08
1.12741e-06
5.80345e-11
1.02154e-08
1.12404e-06
9.76272e-11
9.93101e-09
1.12031e-06
1.63377e-10
9.74722e-09
1.11606e-06
2.73469e-10
9.67769e-09
1.11109e-06
4.57751e-10
9.76143e-09
1.1051e-06
7.57624e-10
1.00486e-08
1.09758e-06
1.26701e-09
1.06088e-08
1.08772e-06
2.17967e-09
1.16488e-08
1.07392e-06
3.63224e-09
1.35002e-08
1.05369e-06
6.248e-09
1.6439e-08
1.16599e-08
2.22685e-08
1.16914e-06
-1.06461e-09
4.90663e-09
1.16312e-06
-5.58584e-09
1.16089e-08
1.15731e-06
-8.46282e-09
1.42766e-08
1.15201e-06
-9.03777e-09
1.43354e-08
1.1469e-06
-8.61396e-09
1.37338e-08
1.14204e-06
-8.11303e-09
1.2974e-08
1.13772e-06
-7.77272e-09
1.21058e-08
1.13396e-06
-7.52984e-09
1.13132e-08
1.13066e-06
-7.32536e-09
1.06537e-08
1.12754e-06
-7.01074e-09
1.01899e-08
1.12427e-06
-6.52331e-09
9.8888e-09
1.12071e-06
-5.94907e-09
9.67538e-09
1.11676e-06
-5.33019e-09
9.55143e-09
1.11232e-06
-4.63664e-09
9.5377e-09
1.10723e-06
-3.81484e-09
9.66009e-09
1.10124e-06
-2.68149e-09
9.93728e-09
1.094e-06
-1.04279e-09
1.04674e-08
1.08489e-06
1.38349e-09
1.13534e-08
1.07348e-06
5.0077e-09
1.26574e-08
1.10117e-08
1.44768e-08
1.07432e-06
-2.85251e-09
5.56893e-09
1.06824e-06
-1.3408e-08
1.39005e-08
1.06138e-06
-1.78663e-08
1.62624e-08
1.05338e-06
-1.69532e-08
1.59097e-08
1.0451e-06
-1.53361e-08
1.5003e-08
1.03722e-06
-1.41621e-08
1.39341e-08
1.02983e-06
-1.33653e-08
1.29776e-08
1.02284e-06
-1.26514e-08
1.21132e-08
1.01602e-06
-1.18454e-08
1.13375e-08
1.00931e-06
-1.09715e-08
1.06735e-08
1.00275e-06
-1.01174e-08
1.01597e-08
9.96322e-07
-9.29048e-09
9.76458e-09
9.90016e-07
-8.47984e-09
9.45632e-09
9.83813e-07
-7.64408e-09
9.21039e-09
9.77698e-07
-6.6956e-09
8.99596e-09
9.71683e-07
-5.43142e-09
8.76413e-09
9.65791e-07
-3.63063e-09
8.48009e-09
9.59861e-07
-8.18563e-10
8.13191e-09
9.53243e-07
3.85264e-09
7.77324e-09
1.26178e-08
7.26868e-09
8.90375e-07
-3.58751e-09
6.33234e-09
8.82486e-07
-2.26455e-08
1.71258e-08
8.7036e-07
-2.43756e-08
1.86359e-08
8.55114e-07
-1.88541e-08
1.7147e-08
8.39986e-07
-1.55684e-08
1.53601e-08
8.25542e-07
-1.35081e-08
1.37896e-08
8.11784e-07
-1.1948e-08
1.23412e-08
7.98807e-07
-1.07927e-08
1.11176e-08
7.86767e-07
-9.93451e-09
1.01294e-08
7.75682e-07
-9.21531e-09
9.3288e-09
7.65431e-07
-8.57659e-09
8.71005e-09
7.55891e-07
-7.98803e-09
8.23767e-09
7.46983e-07
-7.43275e-09
7.86053e-09
7.3871e-07
-6.89847e-09
7.52687e-09
7.31182e-07
-6.34313e-09
7.17575e-09
7.24734e-07
-5.66786e-09
6.68391e-09
7.19842e-07
-4.60167e-09
5.86309e-09
7.17049e-07
-2.25202e-09
4.22624e-09
7.17001e-07
2.48725e-09
1.41421e-09
1.54518e-08
-5.24927e-09
6.3138e-07
-1.09681e-09
7.40285e-09
6.14564e-07
-2.65296e-08
2.07003e-08
5.86445e-07
-1.49865e-08
1.87294e-08
5.61726e-07
-9.98223e-09
1.5847e-08
5.3962e-07
-7.2108e-09
1.37493e-08
5.20641e-07
-5.81911e-09
1.12893e-08
5.04701e-07
-4.71661e-09
8.70879e-09
4.90959e-07
-3.88881e-09
6.83871e-09
4.78757e-07
-3.33286e-09
5.60016e-09
4.67709e-07
-2.92851e-09
4.76054e-09
4.57592e-07
-2.60986e-09
4.1504e-09
4.4828e-07
-2.34991e-09
3.67411e-09
4.39685e-07
-2.14883e-09
3.31048e-09
4.31753e-07
-2.00808e-09
3.04159e-09
4.24526e-07
-1.89211e-09
2.77616e-09
4.18264e-07
-1.78017e-09
2.37444e-09
4.13604e-07
-1.60564e-09
1.66324e-09
4.12612e-07
-1.04344e-09
-2.16538e-10
4.19913e-07
3.17583e-10
-5.13161e-09
1.3502e-08
-2.15041e-08
3.32249e-07
1.09685e-09
2.79191e-07
2.65294e-08
2.49218e-07
1.49862e-08
2.29254e-07
9.98163e-09
2.14834e-07
7.20909e-09
2.03199e-07
5.81643e-09
1.93771e-07
4.71089e-09
1.86004e-07
3.87833e-09
1.79357e-07
3.31446e-09
1.73531e-07
2.89666e-09
1.68364e-07
2.5576e-09
1.6375e-07
2.26377e-09
1.596e-07
2.00089e-09
1.55852e-07
1.74032e-09
1.52528e-07
1.43152e-09
1.49685e-07
1.06338e-09
1.47533e-07
5.45806e-10
1.47162e-07
-6.72139e-10
1.50922e-07
-3.44242e-09
-2.72927e-08
6.3138e-07
7.40285e-09
3.58752e-09
6.14564e-07
2.07003e-08
2.26455e-08
5.86445e-07
1.87294e-08
2.43756e-08
5.61726e-07
1.5847e-08
1.88541e-08
5.3962e-07
1.37493e-08
1.55684e-08
5.20641e-07
1.12893e-08
1.35082e-08
5.04701e-07
8.70881e-09
1.19481e-08
4.90958e-07
6.83873e-09
1.07928e-08
4.78756e-07
5.6002e-09
9.93471e-09
4.67709e-07
4.76059e-09
9.21557e-09
4.57591e-07
4.15049e-09
8.57691e-09
4.48279e-07
3.67428e-09
7.98843e-09
4.39684e-07
3.31075e-09
7.4332e-09
4.31751e-07
3.04184e-09
6.89913e-09
4.24523e-07
2.77622e-09
6.34424e-09
4.18259e-07
2.37452e-09
5.66956e-09
4.13598e-07
1.6634e-09
4.60396e-09
4.12603e-07
-2.16218e-10
2.25541e-09
4.19901e-07
-5.13146e-09
-2.48241e-09
-2.15011e-08
-1.54444e-08
9.23616e-07
7.03374e-09
7.03387e-09
9.25318e-07
1.98496e-08
1.98501e-08
9.17184e-07
2.27964e-08
2.27974e-08
9.04274e-07
2.23014e-08
2.23033e-08
8.90533e-07
2.06194e-08
2.06226e-08
8.77409e-07
1.78503e-08
1.78564e-08
8.65442e-07
1.46907e-08
1.47008e-08
8.54768e-07
1.21727e-08
1.2189e-08
8.45335e-07
1.03115e-08
1.03399e-08
8.37002e-07
8.91775e-09
8.96695e-09
8.29594e-07
7.84215e-09
7.92511e-09
8.22944e-07
6.9825e-09
7.11791e-09
8.1697e-07
6.26625e-09
6.48041e-09
8.11698e-07
5.60666e-09
5.94258e-09
8.07203e-07
4.89782e-09
5.42907e-09
8.03573e-07
4.02075e-09
4.84891e-09
8.00934e-07
2.83742e-09
4.07012e-09
7.98722e-07
9.02603e-10
2.67163e-09
7.93701e-07
-2.19208e-09
-1.33584e-10
-7.07701e-09
-5.14104e-09
1.1589e-06
5.28121e-09
6.10278e-09
1.1657e-06
1.39984e-08
1.61837e-08
1.16844e-06
1.79775e-08
2.07083e-08
1.16661e-06
1.91782e-08
2.21076e-08
1.16221e-06
1.88747e-08
2.15099e-08
1.15653e-06
1.75414e-08
1.97755e-08
1.15046e-06
1.56767e-08
1.74332e-08
1.14456e-06
1.38704e-08
1.53413e-08
1.13912e-06
1.22561e-08
1.36471e-08
1.13427e-06
1.08364e-08
1.22942e-08
1.13001e-06
9.64388e-09
1.12253e-08
1.12631e-06
8.63591e-09
1.03901e-08
1.12315e-06
7.74056e-09
9.73553e-09
1.12049e-06
6.88374e-09
9.20897e-09
1.11832e-06
5.98167e-09
8.77505e-09
1.11662e-06
4.94282e-09
8.39608e-09
1.11541e-06
3.63661e-09
8.01278e-09
1.11458e-06
1.8374e-09
7.48841e-09
1.11403e-06
-6.74445e-10
6.59794e-09
-4.08698e-09
5.47758e-09
1.32762e-06
2.71826e-09
4.93139e-09
1.33539e-06
7.12094e-09
1.30099e-08
1.34286e-06
9.55363e-09
1.72179e-08
1.34847e-06
1.05786e-08
1.89041e-08
1.35196e-06
1.08763e-08
1.95095e-08
1.35374e-06
1.05816e-08
1.91266e-08
1.35439e-06
9.89205e-09
1.81162e-08
1.35451e-06
9.04524e-09
1.68327e-08
1.35444e-06
8.19253e-09
1.54931e-08
1.35433e-06
7.395e-09
1.42759e-08
1.35421e-06
6.68232e-09
1.3314e-08
1.35411e-06
6.05164e-09
1.25781e-08
1.35401e-06
5.47942e-09
1.20346e-08
1.35387e-06
4.94679e-09
1.16695e-08
1.35359e-06
4.4298e-09
1.14911e-08
1.35305e-06
3.91234e-09
1.15327e-08
1.35206e-06
3.37138e-09
1.18686e-08
1.35038e-06
2.77625e-09
1.25819e-08
1.34728e-06
2.21037e-09
1.37167e-08
2.33114e-09
1.56168e-08
1.41518e-06
1.97353e-13
4.19322e-09
1.42279e-06
5.76284e-13
1.1117e-08
1.43152e-06
9.97109e-13
1.51006e-08
1.4398e-06
1.87541e-12
1.66331e-08
1.44712e-06
3.56048e-12
1.72831e-08
1.45315e-06
6.34019e-12
1.75215e-08
1.45798e-06
1.05902e-11
1.71677e-08
1.46187e-06
1.74577e-11
1.64553e-08
1.46513e-06
2.9512e-11
1.55727e-08
1.46799e-06
5.10511e-11
1.46976e-08
1.47062e-06
8.66308e-11
1.3894e-08
1.47306e-06
1.45194e-10
1.32159e-08
1.47523e-06
2.35016e-10
1.27552e-08
1.47703e-06
3.74082e-10
1.25351e-08
1.47838e-06
5.95815e-10
1.2527e-08
1.47921e-06
9.40113e-10
1.27594e-08
1.47938e-06
1.4679e-09
1.33762e-08
1.47888e-06
2.26567e-09
1.45158e-08
1.47796e-06
3.40628e-09
1.61614e-08
4.90081e-09
1.78954e-08
1.41518e-06
-2.71803e-09
4.19311e-09
1.42279e-06
-7.12032e-09
1.11168e-08
1.43152e-06
-9.55251e-09
1.51002e-08
1.4398e-06
-1.05765e-08
1.6632e-08
1.44713e-06
-1.08721e-08
1.72804e-08
1.45317e-06
-1.05742e-08
1.75169e-08
1.458e-06
-9.87959e-09
1.716e-08
1.46192e-06
-9.02444e-09
1.64433e-08
1.4652e-06
-8.15732e-09
1.55542e-08
1.46811e-06
-7.33189e-09
1.46671e-08
1.47081e-06
-6.57394e-09
1.38427e-08
1.47338e-06
-5.8716e-09
1.31258e-08
1.47578e-06
-5.20523e-09
1.25962e-08
1.47795e-06
-4.52498e-09
1.22668e-08
1.47985e-06
-3.74853e-09
1.21001e-08
1.48145e-06
-2.80492e-09
1.20829e-08
1.48271e-06
-1.58935e-09
1.2269e-08
1.48359e-06
1.43294e-11
1.27163e-08
1.48412e-06
2.16086e-09
1.33815e-08
4.79415e-09
1.39965e-08
1.32763e-06
-5.28132e-09
4.93119e-09
1.33539e-06
-1.39986e-08
1.30093e-08
1.34287e-06
-1.79778e-08
1.72164e-08
1.34848e-06
-1.91786e-08
1.89004e-08
1.35198e-06
-1.88754e-08
1.95027e-08
1.35377e-06
-1.75431e-08
1.91161e-08
1.35444e-06
-1.56787e-08
1.81e-08
1.3546e-06
-1.38724e-08
1.6807e-08
1.35459e-06
-1.2261e-08
1.54536e-08
1.35456e-06
-1.08461e-08
1.42117e-08
1.3546e-06
-9.66045e-09
1.32035e-08
1.35477e-06
-8.66601e-09
1.23926e-08
1.35509e-06
-7.80019e-09
1.17305e-08
1.3556e-06
-6.99405e-09
1.11744e-08
1.35632e-06
-6.1595e-09
1.06818e-08
1.35727e-06
-5.19885e-09
1.02073e-08
1.35842e-06
-3.96761e-09
9.7091e-09
1.35968e-06
-2.2639e-09
9.15167e-09
1.361e-06
8.83615e-11
8.53091e-09
3.5233e-09
7.89684e-09
1.1589e-06
-7.03387e-09
6.10252e-09
1.1657e-06
-1.98501e-08
1.61826e-08
1.16845e-06
-2.27974e-08
2.07059e-08
1.16661e-06
-2.23033e-08
2.21036e-08
1.16222e-06
-2.06226e-08
2.1504e-08
1.15655e-06
-1.78563e-08
1.97672e-08
1.1505e-06
-1.47007e-08
1.74196e-08
1.14461e-06
-1.21888e-08
1.53179e-08
1.13921e-06
-1.03397e-08
1.36074e-08
1.13443e-06
-8.96667e-09
1.22287e-08
1.13029e-06
-7.92473e-09
1.11174e-08
1.12676e-06
-7.11735e-09
1.02153e-08
1.12385e-06
-6.47955e-09
9.45363e-09
1.12156e-06
-5.94163e-09
8.76091e-09
1.11994e-06
-5.42816e-09
8.06654e-09
1.11901e-06
-4.84757e-09
7.2658e-09
1.11877e-06
-4.06811e-09
6.20558e-09
1.11874e-06
-2.66867e-09
4.65421e-09
1.11766e-06
1.379e-10
2.44581e-09
5.14906e-09
-2.76499e-10
9.23617e-07
-7.40292e-09
7.03374e-09
9.25318e-07
-2.07007e-08
1.98496e-08
9.17184e-07
-1.87302e-08
2.27964e-08
9.04274e-07
-1.58485e-08
2.23014e-08
8.90533e-07
-1.37514e-08
2.06194e-08
8.77409e-07
-1.12934e-08
1.78503e-08
8.65442e-07
-8.71527e-09
1.46907e-08
8.54768e-07
-6.8493e-09
1.21727e-08
8.45335e-07
-5.61799e-09
1.03114e-08
8.37003e-07
-4.79117e-09
8.91768e-09
8.29596e-07
-4.20926e-09
7.84202e-09
8.22945e-07
-3.7752e-09
6.98221e-09
8.16972e-07
-3.46178e-09
6.26569e-09
8.11702e-07
-3.23573e-09
5.60607e-09
8.07208e-07
-3.0558e-09
4.89739e-09
8.0358e-07
-2.86473e-09
4.02009e-09
8.00943e-07
-2.60451e-09
2.83628e-09
7.98736e-07
-1.57865e-09
9.00669e-10
7.93722e-07
2.21526e-09
-2.19487e-09
1.96967e-08
-7.08284e-09
6.3138e-07
3.58745e-09
6.14564e-07
2.2645e-08
5.86445e-07
2.4375e-08
5.61725e-07
1.88531e-08
5.39617e-07
1.5566e-08
5.20636e-07
1.35039e-08
5.04691e-07
1.19407e-08
4.90939e-07
1.07804e-08
4.78722e-07
9.91366e-09
4.67648e-07
9.17947e-09
4.57481e-07
8.51493e-09
4.48082e-07
7.88779e-09
4.39346e-07
7.27571e-09
4.31203e-07
6.6473e-09
4.23642e-07
5.93628e-09
4.16824e-07
5.0167e-09
4.11054e-07
3.71158e-09
4.0765e-07
1.15274e-09
4.10685e-07
-4.26185e-09
-2.0909e-08
8.90375e-07
6.33234e-09
2.85252e-09
8.82486e-07
1.71258e-08
1.34081e-08
8.7036e-07
1.86359e-08
1.78663e-08
8.55114e-07
1.7147e-08
1.69533e-08
8.39986e-07
1.53601e-08
1.53362e-08
8.25542e-07
1.37896e-08
1.41622e-08
8.11783e-07
1.23412e-08
1.33656e-08
7.98807e-07
1.11176e-08
1.26517e-08
7.86766e-07
1.01294e-08
1.18457e-08
7.75681e-07
9.32884e-09
1.0972e-08
7.6543e-07
8.71011e-09
1.0118e-08
7.55889e-07
8.23778e-09
9.29128e-09
7.46981e-07
7.86069e-09
8.48088e-09
7.38708e-07
7.52703e-09
7.64555e-09
7.31178e-07
7.1761e-09
6.69775e-09
7.24729e-07
6.68458e-09
5.43434e-09
7.19834e-07
5.86403e-09
3.63436e-09
7.17039e-07
4.22768e-09
8.23408e-10
7.16986e-07
1.41599e-09
-3.84559e-09
-5.24729e-09
-1.26096e-08
1.1589e-06
6.10252e-09
5.28133e-09
1.1657e-06
1.61826e-08
1.39986e-08
1.16845e-06
2.07059e-08
1.79778e-08
1.16661e-06
2.21037e-08
1.91787e-08
1.16222e-06
2.1504e-08
1.88756e-08
1.15655e-06
1.97673e-08
1.75432e-08
1.1505e-06
1.74196e-08
1.56789e-08
1.14461e-06
1.53179e-08
1.38727e-08
1.13921e-06
1.36074e-08
1.22614e-08
1.13443e-06
1.22288e-08
1.08465e-08
1.13029e-06
1.11176e-08
9.66111e-09
1.12676e-06
1.02156e-08
8.66694e-09
1.12385e-06
9.45418e-09
7.80148e-09
1.12156e-06
8.76145e-09
6.9956e-09
1.11994e-06
8.06715e-09
6.16139e-09
1.119e-06
7.26685e-09
5.20148e-09
1.11876e-06
6.20727e-09
3.97123e-09
1.11873e-06
4.65679e-09
2.2689e-09
1.11765e-06
2.44946e-09
-8.15611e-11
-2.72313e-10
-3.51447e-09
1.37712e-06
4.57718e-09
4.57745e-09
1.38565e-06
1.19167e-08
1.19175e-08
1.39417e-06
1.64461e-08
1.64476e-08
1.40126e-06
1.85589e-08
1.85614e-08
1.40642e-06
1.89269e-08
1.8931e-08
1.40952e-06
1.8216e-08
1.82223e-08
1.41096e-06
1.67047e-08
1.67153e-08
1.41155e-06
1.50231e-08
1.50398e-08
1.41185e-06
1.34649e-08
1.34921e-08
1.41212e-06
1.2104e-08
1.21476e-08
1.41254e-06
1.0926e-08
1.09961e-08
1.41322e-06
9.90647e-09
1.00186e-08
1.41423e-06
9.00367e-09
9.1842e-09
1.41558e-06
8.16549e-09
8.45312e-09
1.41729e-06
7.34103e-09
7.78662e-09
1.41934e-06
6.46654e-09
7.14526e-09
1.42162e-06
5.46776e-09
6.47759e-09
1.42377e-06
4.26478e-09
5.72513e-09
1.42508e-06
2.86071e-09
4.87768e-09
1.61876e-09
4.21614e-09
1.53312e-06
2.36606e-09
3.64967e-09
1.54218e-06
6.23892e-09
9.63492e-09
1.55327e-06
8.87354e-09
1.36937e-08
1.56445e-06
1.03474e-08
1.59399e-08
1.57507e-06
1.08999e-08
1.69167e-08
1.58471e-06
1.07544e-08
1.69522e-08
1.593e-06
1.01428e-08
1.63856e-08
1.60007e-06
9.32994e-09
1.54583e-08
1.60621e-06
8.45745e-09
1.43604e-08
1.61168e-06
7.63498e-09
1.32718e-08
1.61672e-06
6.90647e-09
1.229e-08
1.62149e-06
6.27018e-09
1.14445e-08
1.62609e-06
5.70171e-09
1.07427e-08
1.63056e-06
5.17527e-09
1.01823e-08
1.63496e-06
4.67187e-09
9.75909e-09
1.63931e-06
4.17936e-09
9.47592e-09
1.64362e-06
3.68437e-09
9.34416e-09
1.64792e-06
3.1739e-09
9.37062e-09
1.6523e-06
2.67865e-09
9.51571e-09
2.30189e-09
9.68722e-09
1.61424e-06
1.54508e-13
3.09319e-09
1.62332e-06
3.74623e-13
8.27505e-09
1.63533e-06
6.66096e-13
1.19589e-08
1.6482e-06
1.20561e-12
1.41173e-08
1.66117e-06
2.18557e-12
1.52044e-08
1.67386e-06
3.58128e-12
1.55883e-08
1.68572e-06
5.94443e-12
1.54359e-08
1.69654e-06
9.45397e-12
1.4965e-08
1.70626e-06
1.5617e-11
1.4292e-08
1.71505e-06
2.61062e-11
1.35188e-08
1.72307e-06
4.29114e-11
1.27359e-08
1.73047e-06
6.877e-11
1.20133e-08
1.73742e-06
1.06495e-10
1.14043e-08
1.74402e-06
1.63512e-10
1.09436e-08
1.75032e-06
2.5112e-10
1.0653e-08
1.75633e-06
3.83084e-10
1.05449e-08
1.76218e-06
5.73031e-10
1.06377e-08
1.7681e-06
8.32188e-10
1.09292e-08
1.77447e-06
1.14664e-09
1.13272e-08
1.48146e-09
1.16434e-08
1.61424e-06
-2.36595e-09
3.09305e-09
1.62332e-06
-6.23867e-09
8.27462e-09
1.63534e-06
-8.87309e-09
1.19581e-08
1.6482e-06
-1.03466e-08
1.41156e-08
1.66118e-06
-1.08987e-08
1.52012e-08
1.67387e-06
-1.07527e-08
1.55832e-08
1.68575e-06
-1.01399e-08
1.54286e-08
1.69657e-06
-9.32491e-09
1.4954e-08
1.70631e-06
-8.44898e-09
1.42748e-08
1.71514e-06
-7.61919e-09
1.34915e-08
1.72321e-06
-6.87809e-09
1.26914e-08
1.73068e-06
-6.22219e-09
1.19404e-08
1.73773e-06
-5.62777e-09
1.12855e-08
1.74447e-06
-5.06497e-09
1.07515e-08
1.75097e-06
-4.49836e-09
1.03483e-08
1.75726e-06
-3.89867e-09
1.00806e-08
1.76339e-06
-3.22974e-09
9.93734e-09
1.76949e-06
-2.44658e-09
9.8981e-09
1.77563e-06
-1.52442e-09
9.91156e-09
-5.08081e-10
9.88591e-09
1.53312e-06
-4.57744e-09
3.64933e-09
1.54218e-06
-1.19175e-08
9.63391e-09
1.55328e-06
-1.64476e-08
1.36918e-08
1.56446e-06
-1.85613e-08
1.59364e-08
1.57508e-06
-1.89309e-08
1.69106e-08
1.58472e-06
-1.82222e-08
1.69426e-08
1.59303e-06
-1.67151e-08
1.63711e-08
1.60011e-06
-1.50395e-08
1.54351e-08
1.60629e-06
-1.34918e-08
1.43246e-08
1.61181e-06
-1.21471e-08
1.32157e-08
1.61693e-06
-1.09954e-08
1.21995e-08
1.62182e-06
-1.00177e-08
1.12989e-08
1.6266e-06
-9.18299e-09
1.05069e-08
1.63136e-06
-8.45173e-09
9.80352e-09
1.63616e-06
-7.78494e-09
9.16193e-09
1.64107e-06
-7.14297e-09
8.54832e-09
1.64609e-06
-6.47447e-09
7.93075e-09
1.65123e-06
-5.72095e-09
7.2826e-09
1.65651e-06
-4.87245e-09
6.60531e-09
-4.21064e-09
6.03661e-09
1.37712e-06
-6.10278e-09
4.57718e-09
1.38565e-06
-1.61837e-08
1.19167e-08
1.39417e-06
-2.07083e-08
1.64461e-08
1.40126e-06
-2.21076e-08
1.85589e-08
1.40642e-06
-2.15098e-08
1.89269e-08
1.40952e-06
-1.97754e-08
1.8216e-08
1.41096e-06
-1.7433e-08
1.67047e-08
1.41155e-06
-1.53412e-08
1.5023e-08
1.41185e-06
-1.36469e-08
1.34648e-08
1.41212e-06
-1.22939e-08
1.21038e-08
1.41254e-06
-1.12249e-08
1.09257e-08
1.41323e-06
-1.03896e-08
9.90598e-09
1.41423e-06
-9.73468e-09
9.00296e-09
1.41558e-06
-9.20807e-09
8.16468e-09
1.4173e-06
-8.77404e-09
7.34e-09
1.41935e-06
-8.39456e-09
6.46495e-09
1.42162e-06
-8.01056e-09
5.46535e-09
1.42378e-06
-7.48526e-09
4.26126e-09
1.42509e-06
-6.59385e-09
2.856e-09
-5.47335e-09
1.61356e-09
1.1589e-06
-6.33241e-09
5.28121e-09
1.1657e-06
-1.71264e-08
1.39984e-08
1.16844e-06
-1.86374e-08
1.79775e-08
1.16661e-06
-1.71495e-08
1.91782e-08
1.16221e-06
-1.53636e-08
1.88747e-08
1.15653e-06
-1.37945e-08
1.75414e-08
1.15046e-06
-1.2349e-08
1.56766e-08
1.14456e-06
-1.11313e-08
1.38703e-08
1.13912e-06
-1.01514e-08
1.2256e-08
1.13427e-06
-9.36512e-09
1.08363e-08
1.13001e-06
-8.77132e-09
9.64364e-09
1.12632e-06
-8.34371e-09
8.63548e-09
1.12315e-06
-8.04162e-09
7.73985e-09
1.12049e-06
-7.82738e-09
6.88292e-09
1.11832e-06
-7.68751e-09
5.98072e-09
1.11662e-06
-7.61934e-09
4.94133e-09
1.11542e-06
-7.60699e-09
3.6343e-09
1.1146e-06
-7.59222e-09
1.83391e-09
1.11405e-06
-7.55914e-09
-6.7951e-10
-8.48234e-09
-4.09357e-09
8.90375e-07
2.85249e-09
8.82485e-07
1.3408e-08
8.70357e-07
1.78662e-08
8.55107e-07
1.6953e-08
8.39973e-07
1.53364e-08
8.25519e-07
1.41636e-08
8.11742e-07
1.33684e-08
7.98736e-07
1.26559e-08
7.86645e-07
1.18529e-08
7.75476e-07
1.09837e-08
7.65083e-07
1.01357e-08
7.55309e-07
9.31887e-09
7.46017e-07
8.52585e-09
7.37117e-07
7.71941e-09
7.28552e-07
6.81472e-09
7.20258e-07
5.69114e-09
7.12144e-07
4.21839e-09
7.03811e-07
1.89333e-09
6.939e-07
-1.91006e-09
-4.27898e-09
1.07432e-06
5.56893e-09
1.06462e-09
1.06824e-06
1.39005e-08
5.58587e-09
1.06138e-06
1.62624e-08
8.46287e-09
1.05338e-06
1.59097e-08
9.03785e-09
1.0451e-06
1.5003e-08
8.61408e-09
1.03722e-06
1.39341e-08
8.11321e-09
1.02983e-06
1.29776e-08
7.77296e-09
1.02284e-06
1.21132e-08
7.53017e-09
1.01602e-06
1.13376e-08
7.3258e-09
1.00931e-06
1.06736e-08
7.01133e-09
1.00275e-06
1.01598e-08
6.52409e-09
9.96322e-07
9.76477e-09
5.9501e-09
9.90014e-07
9.45661e-09
5.33158e-09
9.83811e-07
9.2108e-09
4.63853e-09
9.77695e-07
8.99657e-09
3.81743e-09
9.7168e-07
8.76501e-09
2.68485e-09
9.65786e-07
8.48122e-09
1.04711e-09
9.59854e-07
8.13327e-09
-1.378e-09
9.53234e-07
7.7749e-09
-5.00074e-09
7.27049e-09
-1.10028e-08
1.32763e-06
4.93118e-09
2.71804e-09
1.33539e-06
1.30093e-08
7.12035e-09
1.34287e-06
1.72164e-08
9.55257e-09
1.34848e-06
1.89004e-08
1.05766e-08
1.35198e-06
1.95028e-08
1.08723e-08
1.35377e-06
1.91161e-08
1.05744e-08
1.35444e-06
1.81e-08
9.87987e-09
1.3546e-06
1.68071e-08
9.02482e-09
1.35459e-06
1.54537e-08
8.15782e-09
1.35456e-06
1.42119e-08
7.33254e-09
1.3546e-06
1.32037e-08
6.57481e-09
1.35477e-06
1.2393e-08
5.87277e-09
1.35509e-06
1.1731e-08
5.20681e-09
1.35559e-06
1.1175e-08
4.52701e-09
1.35632e-06
1.06826e-08
3.75116e-09
1.35727e-06
1.02084e-08
2.80837e-09
1.35842e-06
9.71071e-09
1.59386e-09
1.35967e-06
9.1539e-09
-8.50062e-12
1.36099e-06
8.53385e-09
-2.15349e-09
7.90043e-09
-4.78513e-09
1.53312e-06
3.64933e-09
2.36596e-09
1.54218e-06
9.63391e-09
6.23871e-09
1.55328e-06
1.36918e-08
8.87316e-09
1.56446e-06
1.59364e-08
1.03467e-08
1.57508e-06
1.69106e-08
1.08989e-08
1.58472e-06
1.69426e-08
1.07529e-08
1.59303e-06
1.63711e-08
1.01401e-08
1.60011e-06
1.54352e-08
9.32527e-09
1.60629e-06
1.43247e-08
8.44945e-09
1.61181e-06
1.32159e-08
7.61981e-09
1.61693e-06
1.21998e-08
6.87892e-09
1.62182e-06
1.12994e-08
6.2233e-09
1.6266e-06
1.05075e-08
5.62922e-09
1.63136e-06
9.80422e-09
5.06674e-09
1.63616e-06
9.16283e-09
4.50057e-09
1.64106e-06
8.54964e-09
3.9015e-09
1.64609e-06
7.93263e-09
3.23329e-09
1.65123e-06
7.28517e-09
2.45094e-09
1.6565e-06
6.60855e-09
1.52941e-09
6.04017e-09
5.12947e-10
1.68027e-06
1.89104e-09
1.89119e-09
1.68934e-06
5.0993e-09
5.09976e-09
1.7018e-06
7.46406e-09
7.46495e-09
1.71578e-06
8.9455e-09
8.947e-09
1.73022e-06
9.69154e-09
9.694e-09
1.7444e-06
9.85801e-09
9.86198e-09
1.75785e-06
9.64701e-09
9.65313e-09
1.77036e-06
9.18995e-09
9.19914e-09
1.78183e-06
8.59786e-09
8.61138e-09
1.79238e-06
7.96261e-09
7.9827e-09
1.80214e-06
7.3465e-09
7.3773e-09
1.81128e-06
6.77844e-09
6.827e-09
1.81992e-06
6.26457e-09
6.34283e-09
1.82819e-06
5.79825e-09
5.92423e-09
1.83618e-06
5.36619e-09
5.56252e-09
1.844e-06
4.95709e-09
5.24511e-09
1.85176e-06
4.56109e-09
4.96446e-09
1.85953e-06
4.16734e-09
4.7106e-09
1.86743e-06
3.77751e-09
4.44613e-09
3.47131e-09
4.13646e-09
1.7569e-06
3.50957e-14
1.61339e-09
1.76589e-06
3.592e-14
4.38459e-09
1.77878e-06
2.3707e-14
6.53255e-09
1.79389e-06
9.9245e-15
7.95213e-09
1.81003e-06
-2.65696e-14
8.75699e-09
1.82639e-06
-1.10059e-13
9.087e-09
1.8424e-06
-1.99961e-13
9.07306e-09
1.85772e-06
-9.07808e-17
8.83603e-09
1.87215e-06
5.83933e-13
8.46071e-09
1.88561e-06
1.56973e-12
8.01307e-09
1.89815e-06
2.73215e-12
7.5445e-09
1.90984e-06
3.60427e-12
7.09286e-09
1.92083e-06
3.28735e-12
6.6846e-09
1.93123e-06
1.20501e-12
6.33822e-09
1.94118e-06
-1.0302e-12
6.06914e-09
1.95079e-06
1.76338e-12
5.88507e-09
1.9602e-06
1.13713e-11
5.7848e-09
1.96952e-06
2.32943e-11
5.75246e-09
1.97883e-06
3.84569e-11
5.75089e-09
7.76138e-11
5.69424e-09
1.7569e-06
-1.89117e-09
1.61327e-09
1.76589e-06
-5.09972e-09
4.38424e-09
1.77878e-06
-7.46489e-09
6.53186e-09
1.79389e-06
-8.9469e-09
7.95091e-09
1.81003e-06
-9.69387e-09
8.75499e-09
1.82639e-06
-9.8618e-09
9.08393e-09
1.84241e-06
-9.65289e-09
9.0686e-09
1.85773e-06
-9.19882e-09
8.82944e-09
1.87217e-06
-8.61096e-09
8.45082e-09
1.88564e-06
-7.98216e-09
7.99802e-09
1.89819e-06
-7.37658e-09
7.52134e-09
1.90991e-06
-6.82605e-09
7.057e-09
1.92091e-06
-6.34164e-09
6.6289e-09
1.93133e-06
-5.92283e-09
6.25156e-09
1.9413e-06
-5.56086e-09
5.93516e-09
1.95094e-06
-5.24314e-09
5.6871e-09
1.96035e-06
-4.96214e-09
5.5051e-09
1.9696e-06
-4.70804e-09
5.37751e-09
1.97871e-06
-4.44368e-09
5.28553e-09
-4.13487e-09
5.16732e-09
1.68027e-06
-3.64965e-09
1.89104e-09
1.68934e-06
-9.63489e-09
5.0993e-09
1.7018e-06
-1.36937e-08
7.46406e-09
1.71578e-06
-1.59399e-08
8.94549e-09
1.73022e-06
-1.69165e-08
9.69153e-09
1.7444e-06
-1.6952e-08
9.85799e-09
1.75785e-06
-1.63854e-08
9.64697e-09
1.77036e-06
-1.54581e-08
9.18989e-09
1.78183e-06
-1.43601e-08
8.59775e-09
1.79238e-06
-1.32714e-08
7.96244e-09
1.80214e-06
-1.22894e-08
7.34623e-09
1.81128e-06
-1.14437e-08
6.77805e-09
1.81993e-06
-1.07417e-08
6.26404e-09
1.82819e-06
-1.01811e-08
5.79758e-09
1.83618e-06
-9.75773e-09
5.36534e-09
1.84401e-06
-9.47416e-09
4.95594e-09
1.85176e-06
-9.34188e-09
4.55956e-09
1.85953e-06
-9.36776e-09
4.16541e-09
1.86743e-06
-9.51249e-09
3.77536e-09
-9.68452e-09
3.46945e-09
1.53312e-06
-4.93139e-09
2.36606e-09
1.54218e-06
-1.30099e-08
6.23892e-09
1.55327e-06
-1.72179e-08
8.87353e-09
1.56445e-06
-1.8904e-08
1.03474e-08
1.57507e-06
-1.95095e-08
1.08998e-08
1.58471e-06
-1.91265e-08
1.07544e-08
1.593e-06
-1.81161e-08
1.01428e-08
1.60007e-06
-1.68325e-08
9.32985e-09
1.60621e-06
-1.54929e-08
8.45731e-09
1.61168e-06
-1.42757e-08
7.63476e-09
1.61672e-06
-1.33137e-08
6.90613e-09
1.62149e-06
-1.25776e-08
6.26967e-09
1.62609e-06
-1.20339e-08
5.701e-09
1.63057e-06
-1.16687e-08
5.17438e-09
1.63497e-06
-1.14901e-08
4.6707e-09
1.63931e-06
-1.15313e-08
4.17771e-09
1.64362e-06
-1.18666e-08
3.68206e-09
1.64792e-06
-1.25792e-08
3.17078e-09
1.6523e-06
-1.37132e-08
2.67478e-09
-1.56132e-08
2.29786e-09
1.32762e-06
-5.56892e-09
2.71826e-09
1.33539e-06
-1.39005e-08
7.12094e-09
1.34286e-06
-1.6263e-08
9.55363e-09
1.34847e-06
-1.59116e-08
1.05786e-08
1.35196e-06
-1.50069e-08
1.08763e-08
1.35374e-06
-1.39401e-08
1.05816e-08
1.35439e-06
-1.29865e-08
9.89199e-09
1.35451e-06
-1.21276e-08
9.04515e-09
1.35445e-06
-1.13616e-08
8.19238e-09
1.35433e-06
-1.07155e-08
7.39478e-09
1.35421e-06
-1.02325e-08
6.68199e-09
1.35411e-06
-9.89278e-09
6.05113e-09
1.35401e-06
-9.67762e-09
5.47866e-09
1.35387e-06
-9.59244e-09
4.94582e-09
1.3536e-06
-9.66273e-09
4.42851e-09
1.35305e-06
-9.95422e-09
3.91046e-09
1.35207e-06
-1.06153e-08
3.3687e-09
1.35038e-06
-1.18368e-08
2.77245e-09
1.34729e-06
-1.35029e-08
2.20515e-09
-2.12879e-08
2.3248e-09
1.07432e-06
1.06483e-09
1.06824e-06
5.58662e-09
1.06138e-06
8.46429e-09
1.05338e-06
9.04028e-09
1.04509e-06
8.61879e-09
1.03719e-06
8.12228e-09
1.02978e-06
7.78964e-09
1.02275e-06
7.55927e-09
1.01586e-06
7.37676e-09
1.00904e-06
7.09623e-09
1.00228e-06
6.66323e-09
9.95526e-07
6.17622e-09
9.88673e-07
5.70135e-09
9.81553e-07
5.24767e-09
9.73895e-07
4.80921e-09
9.65269e-07
4.3629e-09
9.5491e-07
3.96297e-09
9.41636e-07
3.33048e-09
9.23777e-07
2.44578e-09
3.50913e-09
1.16914e-06
4.90663e-09
-8.39953e-14
1.16312e-06
1.16089e-08
-4.33556e-13
1.15731e-06
1.42766e-08
-1.08347e-12
1.15201e-06
1.43354e-08
-1.99097e-12
1.1469e-06
1.37338e-08
-3.48297e-12
1.14204e-06
1.2974e-08
-6.21801e-12
1.13772e-06
1.21058e-08
-1.1235e-11
1.13396e-06
1.13133e-08
-1.9583e-11
1.13066e-06
1.06538e-08
-3.38043e-11
1.12754e-06
1.019e-08
-5.74551e-11
1.12427e-06
9.88892e-09
-9.68553e-11
1.12071e-06
9.67555e-09
-1.62347e-10
1.11676e-06
9.55168e-09
-2.72097e-10
1.11232e-06
9.53804e-09
-4.55908e-10
1.10723e-06
9.66047e-09
-7.55155e-10
1.10124e-06
9.93771e-09
-1.26377e-09
1.094e-06
1.04678e-08
-2.17535e-09
1.08489e-06
1.13538e-08
-3.62667e-09
1.07348e-06
1.26579e-08
-6.2412e-09
1.44775e-08
-1.16509e-08
1.41518e-06
4.19311e-09
-1.80403e-13
1.42279e-06
1.11167e-08
-5.3512e-13
1.43152e-06
1.51002e-08
-9.29648e-13
1.4398e-06
1.6632e-08
-1.76893e-12
1.44713e-06
1.72804e-08
-3.40194e-12
1.45317e-06
1.75169e-08
-6.11487e-12
1.458e-06
1.716e-08
-1.02843e-11
1.46192e-06
1.64433e-08
-1.70508e-11
1.4652e-06
1.55543e-08
-2.89749e-11
1.46811e-06
1.46672e-08
-5.03429e-11
1.47081e-06
1.38429e-08
-8.56924e-11
1.47338e-06
1.3126e-08
-1.43943e-10
1.47578e-06
1.25966e-08
-2.3335e-10
1.47795e-06
1.22673e-08
-3.71883e-10
1.47985e-06
1.21006e-08
-5.92951e-10
1.48145e-06
1.20835e-08
-9.36409e-10
1.4827e-06
1.22697e-08
-1.46313e-09
1.48359e-06
1.27171e-08
-2.2596e-09
1.48411e-06
1.33824e-08
-3.39869e-09
1.39978e-08
-4.8918e-09
1.61424e-06
3.09305e-09
-1.31878e-13
1.62332e-06
8.27462e-09
-3.25508e-13
1.63534e-06
1.19581e-08
-5.89743e-13
1.6482e-06
1.41156e-08
-1.09017e-12
1.66118e-06
1.52012e-08
-2.01814e-12