/*--------------------------------*- C++ -*----------------------------------*\
| =========                 |                                                 |
| \\      /  F ield         | OpenFOAM: The Open Source CFD Toolbox           |
|  \\    /   O peration     | Version:  2212                                  |
|   \\  /    A nd           | Website:  www.openfoam.com                      |
|    \\/     M anipulation  |                                                 |
\*---------------------------------------------------------------------------*/
FoamFile
{
    version     2.0;
    format      ascii;
    arch        "LSB;label=32;scalar=64";
    class       volVectorField;
    location    "0.6";
    object      U;
}
// * * * * * * * * * * * * * * * * * * * * * * * * * * * * * * * * * * * * * //

dimensions      [0 1 -1 0 0 0 0];

internalField   nonuniform List<vector> 
6840
(
(0.0956456 -0.00836005 -0.00836004)
(0.0904939 0.00152198 0.00152205)
(0.0790684 0.00242963 0.00242976)
(0.0713013 0.00148758 0.00148786)
(0.0661797 0.000830196 0.000830762)
(0.0623231 0.000563038 0.000563965)
(0.0592218 0.00042503 0.000427146)
(0.0566867 0.000321673 0.000325374)
(0.0545531 0.000249318 0.000255389)
(0.0527037 0.000196355 0.000206279)
(0.05107 0.00015571 0.000172402)
(0.0496157 0.000122819 0.000150326)
(0.0483116 9.21646e-05 0.000135921)
(0.0471318 6.03228e-05 0.000127699)
(0.0460711 2.41554e-05 0.000125563)
(0.0451444 2.85244e-08 0.000131646)
(0.04439 -7.01402e-05 0.000152764)
(0.043962 -0.000227877 0.000159067)
(0.0444912 -0.000454974 7.7803e-05)
(0.0429329 -0.00279241 -0.00178322)
(0.0999088 0.00129699 0.000712572)
(0.0969669 0.00365578 0.00274731)
(0.0935346 0.00264009 0.00211828)
(0.0895892 0.00182016 0.00162081)
(0.0858321 0.00152825 0.00139092)
(0.08259 0.00135036 0.00116177)
(0.0798651 0.00117788 0.000897903)
(0.0775669 0.00103804 0.0006934)
(0.0755579 0.000938582 0.000562317)
(0.0737518 0.000858591 0.000482776)
(0.0721022 0.000781746 0.000438226)
(0.0705807 0.00070128 0.000414456)
(0.0691687 0.00062102 0.000402739)
(0.0678541 0.00054 0.000398112)
(0.0666311 0.000441595 0.000401959)
(0.0655079 0.000294904 0.000410917)
(0.0645125 9.39773e-05 0.000424031)
(0.0637757 -0.000267564 0.000376107)
(0.0636379 -0.00101465 0.000156154)
(0.0624776 -0.00378306 -0.00155665)
(0.099413 0.000345206 0.000270235)
(0.0988664 0.00201891 0.00187496)
(0.0979214 0.00257291 0.00218917)
(0.0963657 0.00237945 0.00190864)
(0.0946331 0.00211344 0.00162703)
(0.0929717 0.00192569 0.0014192)
(0.0913631 0.00179967 0.00127199)
(0.0898524 0.00170246 0.00116104)
(0.0884524 0.00159992 0.0010711)
(0.0871551 0.00148618 0.000999745)
(0.0859529 0.00136995 0.000951738)
(0.0848307 0.00125638 0.00092502)
(0.08377 0.00114258 0.000915139)
(0.0827572 0.00102018 0.000918361)
(0.0817838 0.000877841 0.000933799)
(0.0808442 0.000700718 0.000964585)
(0.0799258 0.000458569 0.00101381)
(0.0790082 3.59566e-05 0.0010879)
(0.078027 -0.000716966 0.00119352)
(0.0766119 -0.00196992 0.00158827)
(0.0995405 0.000245018 0.000321901)
(0.0992576 0.0010555 0.00154095)
(0.0988488 0.0015021 0.00211465)
(0.0981245 0.00157902 0.00209196)
(0.0973361 0.0015142 0.00188668)
(0.0965836 0.00144538 0.00166674)
(0.095863 0.00140835 0.00149928)
(0.0951936 0.00137598 0.00137338)
(0.0945624 0.00132819 0.00128741)
(0.0939131 0.00125345 0.0012334)
(0.0932781 0.00115799 0.00119803)
(0.092653 0.00105276 0.00117895)
(0.092025 0.000945524 0.00117368)
(0.0913803 0.000836019 0.00118252)
(0.0906999 0.000715716 0.00120981)
(0.0899547 0.000571981 0.00126546)
(0.089093 0.000396465 0.00136978)
(0.0880072 0.000125062 0.00155876)
(0.0866193 -0.000314148 0.00179505)
(0.0852678 -0.000433618 0.0034708)
(0.0993802 3.37746e-05 5.89624e-05)
(0.0992677 0.000274384 0.00120007)
(0.0989803 0.000432369 0.00188862)
(0.0984743 0.000483451 0.00200672)
(0.0979948 0.000478822 0.0019151)
(0.0975694 0.000465481 0.00173531)
(0.0971783 0.000452767 0.00154807)
(0.0968266 0.0004422 0.00138968)
(0.0965234 0.000436019 0.00127161)
(0.0962639 0.000428228 0.00120163)
(0.0959816 0.000411342 0.00117531)
(0.0956746 0.000388079 0.00117528)
(0.0953371 0.000364439 0.0011887)
(0.0949485 0.000345211 0.00121488)
(0.0944862 0.000337572 0.00126406)
(0.0939199 0.000345204 0.00134668)
(0.0931978 0.000387387 0.00148583)
(0.0922155 0.000445351 0.00173137)
(0.0908011 0.000598807 0.00211168)
(0.0892165 0.000792236 0.00273503)
(0.0993801 -3.37477e-05 5.89213e-05)
(0.0992677 -0.000274248 0.00120004)
(0.0989803 -0.000432069 0.00188861)
(0.0984745 -0.00048292 0.00200667)
(0.0979952 -0.00047789 0.00191495)
(0.0975702 -0.000463795 0.00173498)
(0.0971799 -0.000449697 0.00154759)
(0.0968294 -0.000436849 0.00138886)
(0.0965282 -0.000426842 0.00127003)
(0.0962722 -0.000412728 0.00119873)
(0.0959961 -0.000385391 0.00117029)
(0.0956998 -0.000345006 0.00116674)
(0.0953811 -0.00029303 0.00117399)
(0.0950265 -0.000226443 0.00118882)
(0.0946229 -0.000142227 0.00121732)
(0.0941549 -2.15692e-05 0.00126607)
(0.0936008 0.000165012 0.0013483)
(0.0929079 0.00045931 0.00147557)
(0.0920283 0.000929896 0.00165905)
(0.0912656 0.00186022 0.00194835)
(0.0995405 -0.000245008 0.000321902)
(0.0992576 -0.00105545 0.00154096)
(0.098849 -0.00150201 0.00211456)
(0.098125 -0.00157886 0.00209179)
(0.0973372 -0.00151379 0.00188641)
(0.0965856 -0.0014445 0.00166632)
(0.0958666 -0.00140675 0.00149878)
(0.0951999 -0.00137335 0.00137255)
(0.0945735 -0.00132357 0.00128552)
(0.0939323 -0.00124612 0.00122906)
(0.0933109 -0.00114662 0.00118985)
(0.0927089 -0.00103524 0.00116354)
(0.0921197 -0.000917444 0.00114759)
(0.0915402 -0.00079072 0.0011387)
(0.0909686 -0.000645717 0.00113238)
(0.0904045 -0.000449627 0.00112346)
(0.0898498 -0.000173437 0.00111003)
(0.0893 0.000235567 0.00109899)
(0.0887319 0.000852547 0.00110787)
(0.0881001 0.00180409 0.0010755)
(0.099413 -0.000345219 0.00027023)
(0.0988664 -0.00201898 0.0018749)
(0.0979216 -0.00257305 0.00218896)
(0.0963662 -0.00237972 0.00190829)
(0.0946341 -0.00211386 0.00162653)
(0.0929735 -0.00192639 0.00141848)
(0.0913666 -0.00180071 0.00127081)
(0.0898584 -0.00170421 0.00115907)
(0.0884628 -0.00160291 0.00106794)
(0.0871725 -0.0014912 0.000994506)
(0.0859822 -0.00137837 0.000943519)
(0.0848803 -0.00127023 0.000910749)
(0.0838528 -0.00116469 0.000890409)
(0.0828942 -0.00105448 0.0008762)
(0.0820085 -0.000929721 0.000860737)
(0.0812195 -0.000774017 0.0008299)
(0.0805707 -0.000561187 0.00076994)
(0.0801246 -0.000191369 0.000610791)
(0.0799904 0.000493617 0.000343184)
(0.0793226 0.00212859 -0.000459094)
(0.0999088 -0.001297 0.000712556)
(0.0969669 -0.00365589 0.00274723)
(0.0935346 -0.00264024 0.00211811)
(0.0895894 -0.00182045 0.00162048)
(0.0858325 -0.00152888 0.00139044)
(0.0825907 -0.00135137 0.00116091)
(0.0798663 -0.00117971 0.000896477)
(0.0775692 -0.0010412 0.000691091)
(0.075562 -0.000944051 0.000558456)
(0.0737588 -0.000868077 0.000476266)
(0.072115 -0.000798193 0.000425731)
(0.0706039 -0.000728736 0.000392883)
(0.0692095 -0.000665154 0.000371422)
(0.0679213 -0.000611815 0.000361397)
(0.0667377 -0.000563862 0.000352346)
(0.0656818 -0.000511949 0.000317335)
(0.0648131 -0.000421516 0.000245687)
(0.0643336 -0.000239424 1.51927e-05)
(0.0647669 7.89074e-05 -0.000353906)
(0.0625935 0.000515015 -0.000901261)
(0.0956456 0.00836004 -0.00836005)
(0.0904939 -0.00152205 0.00152198)
(0.0790684 -0.00242976 0.00242963)
(0.0713013 -0.00148786 0.00148759)
(0.0661797 -0.000830751 0.000830208)
(0.0623231 -0.00056395 0.000563052)
(0.0592218 -0.000427119 0.000425058)
(0.0566867 -0.000325339 0.00032171)
(0.0545531 -0.000255348 0.000249361)
(0.0527038 -0.000206234 0.000196406)
(0.05107 -0.000172351 0.00015577)
(0.0496158 -0.000150268 0.000122886)
(0.0483118 -0.000135853 9.22421e-05)
(0.0471321 -0.000127631 6.04156e-05)
(0.0460715 -0.000125501 2.42294e-05)
(0.0451448 -0.000131569 1.18252e-07)
(0.0443906 -0.000152654 -7.00514e-05)
(0.043963 -0.000158934 -0.0002278)
(0.0444924 -7.77026e-05 -0.000454889)
(0.0429347 0.00178366 -0.00279276)
(0.0999088 0.000712555 0.001297)
(0.0969669 0.00274722 0.00365589)
(0.0935346 0.00211811 0.00264025)
(0.0895894 0.00162048 0.00182046)
(0.0858325 0.00139044 0.0015289)
(0.0825907 0.0011609 0.00135139)
(0.0798663 0.000896468 0.00117973)
(0.0775691 0.00069108 0.00104123)
(0.0755619 0.000558443 0.000944093)
(0.0737588 0.000476248 0.000868131)
(0.0721149 0.000425703 0.000798261)
(0.0706038 0.000392848 0.000728822)
(0.0692093 0.00037137 0.000665254)
(0.067921 0.00036134 0.000611939)
(0.0667373 0.000352274 0.000564022)
(0.0656812 0.000317267 0.000512173)
(0.0648122 0.000245606 0.000421836)
(0.0643325 1.51118e-05 0.000239849)
(0.0647653 -0.000354049 -7.83253e-05)
(0.0625917 -0.00090093 -0.000514066)
(0.100226 0.000720793 0.000720817)
(0.0999601 0.00198269 0.00198281)
(0.0997823 0.00245175 0.00245204)
(0.0987883 0.00241941 0.00241992)
(0.0972758 0.00220049 0.00220128)
(0.0957753 0.0018109 0.0018123)
(0.0943939 0.00138133 0.00138363)
(0.0931659 0.00106814 0.00107202)
(0.0920806 0.000850454 0.000857115)
(0.091121 0.000695625 0.000707118)
(0.0902732 0.000578921 0.000599599)
(0.0895154 0.000487183 0.000521082)
(0.0888305 0.000414825 0.000466396)
(0.08822 0.000352718 0.000427911)
(0.08769 0.000282271 0.000399877)
(0.0872483 0.000185796 0.000380131)
(0.0869037 4.61183e-05 0.000362538)
(0.0866376 -0.0002224 0.000285037)
(0.0863032 -0.000794638 -3.74742e-05)
(0.0862488 -0.0021582 -0.00102162)
(0.10014 0.000774985 0.000869282)
(0.100454 0.00196231 0.00196372)
(0.100911 0.00242736 0.00233486)
(0.100978 0.00252625 0.00244184)
(0.100694 0.00242568 0.00233762)
(0.100224 0.00219634 0.00211361)
(0.0997086 0.00191468 0.00182487)
(0.0991833 0.00166251 0.00157811)
(0.0986884 0.00145723 0.00139386)
(0.0982406 0.00128667 0.00125639)
(0.0978471 0.00114306 0.00115688)
(0.0975038 0.00101873 0.00108857)
(0.0972074 0.000905126 0.00104362)
(0.0969563 0.000790927 0.00101599)
(0.0967479 0.000665322 0.00100535)
(0.0965813 0.000513338 0.00101249)
(0.0964568 0.000311711 0.00103712)
(0.0963678 2.3963e-05 0.001077)
(0.0962982 -0.00038593 0.0011225)
(0.0964085 -0.000899012 0.00115569)
(0.100093 0.000445899 0.000763227)
(0.100504 0.0011944 0.00174911)
(0.101105 0.00158664 0.0021298)
(0.101634 0.00174022 0.00223536)
(0.101979 0.00178193 0.00228833)
(0.102171 0.00172835 0.00223763)
(0.102251 0.00160688 0.0021182)
(0.102274 0.00145824 0.00196772)
(0.102275 0.00130176 0.00180642)
(0.102265 0.00115157 0.00165909)
(0.102254 0.00102031 0.001554)
(0.102245 0.000906251 0.00148347)
(0.102238 0.000799961 0.00144011)
(0.102229 0.000695298 0.00142205)
(0.102216 0.00058397 0.0014323)
(0.102187 0.000457609 0.00147841)
(0.102132 0.000303858 0.00157716)
(0.102028 0.00010213 0.00174953)
(0.101868 -0.000158281 0.00200519)
(0.102042 -0.000366403 0.00239166)
(0.100087 0.000144398 0.000707044)
(0.100477 0.000390528 0.00161788)
(0.101065 0.00054117 0.00203482)
(0.101694 0.00061028 0.00211799)
(0.102268 0.000636283 0.00215117)
(0.102741 0.000627302 0.00218141)
(0.103122 0.000595502 0.00213606)
(0.103425 0.000550406 0.00204677)
(0.103675 0.000505803 0.00193831)
(0.10389 0.000464603 0.00183382)
(0.104081 0.000423731 0.00173744)
(0.104261 0.000384927 0.00165547)
(0.104427 0.000351522 0.00160542)
(0.104567 0.00032383 0.001592)
(0.104679 0.000301762 0.00161002)
(0.104759 0.00028874 0.00166397)
(0.104796 0.000287556 0.00178103)
(0.104783 0.000302307 0.00198923)
(0.104732 0.000344453 0.00229955)
(0.104976 0.000436196 0.00265061)
(0.100087 -0.00014435 0.00070704)
(0.100477 -0.000390385 0.00161788)
(0.101066 -0.000540921 0.00203483)
(0.101694 -0.000609833 0.00211793)
(0.102269 -0.000635429 0.0021509)
(0.102742 -0.00062576 0.00218089)
(0.103123 -0.00059293 0.0021352)
(0.103427 -0.00054614 0.00204544)
(0.103679 -0.00049849 0.00193631)
(0.103896 -0.000451896 0.00183054)
(0.104092 -0.000402181 0.00173209)
(0.104278 -0.000349082 0.00164597)
(0.104455 -0.000294198 0.00158803)
(0.104617 -0.000233187 0.00156153)
(0.10476 -0.000157054 0.00156073)
(0.104886 -5.95382e-05 0.0015825)
(0.104988 7.10468e-05 0.00163886)
(0.105061 0.00025218 0.00174383)
(0.105121 0.000497526 0.00189548)
(0.105407 0.000805538 0.00204889)
(0.100093 -0.000445895 0.000763219)
(0.100504 -0.00119439 0.00174909)
(0.101105 -0.00158662 0.00212967)
(0.101635 -0.00174014 0.0022349)
(0.10198 -0.00178176 0.00228742)
(0.102172 -0.00172808 0.00223629)
(0.102254 -0.00160634 0.00211618)
(0.102279 -0.0014573 0.00196466)
(0.102283 -0.00130034 0.00180185)
(0.102278 -0.0011488 0.00165176)
(0.102276 -0.00101567 0.00154114)
(0.102283 -0.000898624 0.00146147)
(0.102301 -0.000790413 0.00140293)
(0.102331 -0.000682322 0.00135961)
(0.102377 -0.000562461 0.00132726)
(0.10244 -0.000420735 0.0013014)
(0.10252 -0.000241377 0.00127796)
(0.102611 -4.87618e-06 0.00125418)
(0.102718 0.000300832 0.00123328)
(0.10293 0.000646484 0.00121924)
(0.10014 -0.000775012 0.000869246)
(0.100454 -0.00196239 0.00196355)
(0.100911 -0.00242753 0.00233446)
(0.100978 -0.00252661 0.00244117)
(0.100694 -0.00242629 0.00233664)
(0.100225 -0.00219741 0.00211231)
(0.0997106 -0.00191636 0.00182284)
(0.0991868 -0.00166505 0.00157451)
(0.0986945 -0.00146166 0.0013877)
(0.0982513 -0.00129445 0.00124614)
(0.0978651 -0.00115558 0.00113964)
(0.0975341 -0.00103966 0.00106012)
(0.0972558 -0.000940405 0.0009971)
(0.0970304 -0.000851256 0.000941337)
(0.0968606 -0.000763254 0.000885803)
(0.0967497 -0.000662839 0.000816896)
(0.0966995 -0.000530141 0.000709981)
(0.0966927 -0.000337667 0.000529553)
(0.0966771 -4.4369e-05 0.000242642)
(0.0967971 0.000434309 -0.00021751)
(0.100226 -0.000720816 0.000720793)
(0.0999601 -0.0019828 0.00198269)
(0.0997823 -0.00245204 0.00245176)
(0.0987883 -0.00241991 0.00241942)
(0.0972758 -0.00220126 0.0022005)
(0.0957753 -0.00181229 0.00181091)
(0.0943939 -0.00138361 0.00138134)
(0.0931659 -0.00107199 0.00106816)
(0.0920806 -0.000857084 0.000850472)
(0.0911211 -0.000707079 0.000695646)
(0.0902733 -0.000599544 0.000578946)
(0.0895156 -0.000521003 0.000487201)
(0.0888308 -0.000466275 0.000414823)
(0.0882203 -0.000427786 0.000352727)
(0.0876905 -0.000399791 0.000282336)
(0.087249 -0.000380017 0.000185868)
(0.0869046 -0.000362375 4.61673e-05)
(0.0866388 -0.000284802 -0.000222396)
(0.086305 3.78087e-05 -0.000794699)
(0.0862521 0.00102281 -0.00215941)
(0.0999088 -0.000712573 0.00129699)
(0.0969669 -0.00274731 0.00365579)
(0.0935346 -0.00211827 0.00264009)
(0.0895892 -0.00162081 0.00182017)
(0.0858321 -0.00139091 0.00152825)
(0.08259 -0.00116176 0.00135037)
(0.0798652 -0.000897894 0.00117789)
(0.077567 -0.000693392 0.00103805)
(0.075558 -0.000562308 0.000938601)
(0.0737519 -0.000482767 0.000858616)
(0.0721023 -0.000438212 0.000781775)
(0.0705809 -0.000414436 0.000701307)
(0.069169 -0.00040271 0.00062105)
(0.0678544 -0.00039808 0.000540025)
(0.0666315 -0.000401938 0.000441636)
(0.0655086 -0.000410892 0.000294931)
(0.0645133 -0.000424007 9.39668e-05)
(0.0637769 -0.000376099 -0.000267632)
(0.0636394 -0.000156158 -0.00101483)
(0.0624799 0.00155673 -0.00378358)
(0.099413 0.000270229 0.00034522)
(0.0988664 0.00187489 0.00201898)
(0.0979216 0.00218896 0.00257306)
(0.0963662 0.00190829 0.00237973)
(0.0946341 0.00162653 0.00211388)
(0.0929735 0.00141847 0.00192641)
(0.0913665 0.0012708 0.00180074)
(0.0898584 0.00115905 0.00170425)
(0.0884628 0.00106792 0.00160296)
(0.0871725 0.000994485 0.00149127)
(0.0859821 0.000943493 0.00137845)
(0.0848802 0.000910716 0.00127033)
(0.0838526 0.000890366 0.00116482)
(0.082894 0.000876156 0.00105466)
(0.0820081 0.000860722 0.000929986)
(0.081219 0.000829916 0.000774387)
(0.0805699 0.000769967 0.000561652)
(0.0801236 0.000610838 0.000192115)
(0.079989 0.000343232 -0.000492606)
(0.0793209 -0.000459029 -0.0021276)
(0.10014 0.000869246 0.000775013)
(0.100454 0.00196355 0.0019624)
(0.100911 0.00233446 0.00242753)
(0.100978 0.00244117 0.00252662)
(0.100694 0.00233663 0.00242631)
(0.100225 0.0021123 0.00219743)
(0.0997106 0.00182283 0.00191638)
(0.0991868 0.0015745 0.00166509)
(0.0986945 0.00138769 0.00146171)
(0.0982513 0.00124612 0.00129451)
(0.097865 0.00113963 0.00115566)
(0.0975339 0.00106012 0.00103977)
(0.0972556 0.000997108 0.000940554)
(0.0970302 0.000941322 0.000851429)
(0.0968602 0.000885772 0.000763464)
(0.0967493 0.000816897 0.00066314)
(0.0966989 0.000710032 0.000530561)
(0.0966919 0.000529664 0.000338255)
(0.0966759 0.000242817 4.51868e-05)
(0.0967956 -0.000217222 -0.000433254)
(0.10006 0.000641378 0.000641428)
(0.100502 0.00164499 0.00164516)
(0.101149 0.0022123 0.00221263)
(0.101738 0.00243979 0.00244037)
(0.102205 0.00244163 0.00244256)
(0.102502 0.00231296 0.00231441)
(0.102647 0.00209144 0.00209384)
(0.102716 0.00186703 0.00187085)
(0.102743 0.00166749 0.00167373)
(0.102759 0.00149849 0.0015087)
(0.102782 0.00135569 0.00137227)
(0.10282 0.0012335 0.00126021)
(0.102881 0.00112581 0.00116859)
(0.102966 0.00102514 0.00109319)
(0.103077 0.000922704 0.00102959)
(0.103215 0.000807699 0.000972869)
(0.103373 0.000667247 0.000916833)
(0.103538 0.000484773 0.000850267)
(0.103696 0.00025321 0.0007596)
(0.103993 4.30608e-05 0.000697094)
(0.100046 0.000395697 0.000540295)
(0.10048 0.00104481 0.00138426)
(0.101154 0.00147526 0.00192327)
(0.101913 0.00170508 0.00219308)
(0.102632 0.00177975 0.00229488)
(0.103301 0.00174424 0.00227939)
(0.103894 0.00163316 0.00218715)
(0.10439 0.00148978 0.00205468)
(0.104817 0.00134213 0.00190788)
(0.105194 0.00120506 0.0017697)
(0.105535 0.00108261 0.00164953)
(0.105854 0.000974306 0.00154943)
(0.106158 0.000875698 0.00147049)
(0.106454 0.000781808 0.00141277)
(0.106744 0.000689207 0.00137637)
(0.107029 0.000592912 0.00136348)
(0.107311 0.000487342 0.00137874)
(0.10759 0.000367125 0.00142657)
(0.107884 0.000237072 0.00150399)
(0.108321 0.000119569 0.00160435)
(0.100039 0.000131343 0.000478818)
(0.100448 0.000350521 0.00123493)
(0.101114 0.000505122 0.00174675)
(0.101909 0.000597257 0.00202726)
(0.102728 0.000638712 0.00215277)
(0.103529 0.000638442 0.00218736)
(0.104297 0.000604867 0.0021544)
(0.105007 0.000559808 0.00208077)
(0.105641 0.000511077 0.00198252)
(0.106213 0.000463651 0.00187594)
(0.106733 0.000420373 0.00177306)
(0.10721 0.000382042 0.00168223)
(0.107653 0.000348232 0.00161044)
(0.108072 0.000318045 0.00156196)
(0.108473 0.000290612 0.00153811)
(0.108855 0.000267693 0.0015407)
(0.10922 0.000249671 0.00157675)
(0.10958 0.000235825 0.00165318)
(0.109967 0.000227656 0.00175956)
(0.110463 0.000228295 0.00186814)
(0.100039 -0.000131308 0.000478802)
(0.100448 -0.000350432 0.00123488)
(0.101114 -0.000504963 0.00174665)
(0.101909 -0.000596989 0.00202707)
(0.102729 -0.000638249 0.00215239)
(0.10353 -0.000637678 0.00218673)
(0.104298 -0.000603546 0.00215345)
(0.105008 -0.000557678 0.0020793)
(0.105644 -0.000507541 0.00198024)
(0.106218 -0.000457705 0.00187226)
(0.10674 -0.00041052 0.00176689)
(0.10722 -0.000366143 0.00167172)
(0.107669 -0.000323444 0.00159256)
(0.108095 -0.000280029 0.00153235)
(0.108506 -0.000232384 0.00149092)
(0.108904 -0.000178419 0.00146836)
(0.109286 -0.000114819 0.00146509)
(0.109662 -3.67321e-05 0.00148202)
(0.110053 5.56217e-05 0.00151277)
(0.110534 0.000156674 0.00154221)
(0.100046 -0.000395712 0.000540252)
(0.10048 -0.00104485 0.00138412)
(0.101154 -0.00147535 0.00192299)
(0.101913 -0.00170519 0.00219256)
(0.102632 -0.00177998 0.00229399)
(0.103302 -0.00174463 0.00227794)
(0.103895 -0.00163387 0.0021849)
(0.104392 -0.00149091 0.00205102)
(0.104821 -0.00134396 0.00190221)
(0.1052 -0.00120777 0.00176079)
(0.105546 -0.00108671 0.00163497)
(0.10587 -0.000980623 0.00152579)
(0.106185 -0.000886244 0.00143174)
(0.106495 -0.000799151 0.00134994)
(0.106807 -0.000715071 0.00127633)
(0.107124 -0.000630191 0.00120572)
(0.107447 -0.000538842 0.00113374)
(0.107778 -0.000434972 0.00105694)
(0.108128 -0.000317255 0.000974957)
(0.108561 -0.000192489 0.000906442)
(0.10006 -0.000641427 0.000641378)
(0.100502 -0.00164516 0.00164499)
(0.101149 -0.00221262 0.0022123)
(0.101738 -0.00244036 0.00243979)
(0.102205 -0.00244255 0.00244163)
(0.102502 -0.00231439 0.00231297)
(0.102647 -0.00209382 0.00209144)
(0.102716 -0.00187083 0.00186703)
(0.102744 -0.00167369 0.00166748)
(0.102759 -0.00150864 0.00149848)
(0.102782 -0.0013722 0.00135567)
(0.10282 -0.00126011 0.00123346)
(0.102881 -0.00116846 0.00112575)
(0.102966 -0.00109305 0.00102508)
(0.103078 -0.00102941 0.000922619)
(0.103215 -0.000972621 0.000807553)
(0.103374 -0.000916491 0.000667013)
(0.103539 -0.0008498 0.000484413)
(0.103697 -0.000759009 0.000252713)
(0.103994 -0.000696501 4.25187e-05)
(0.10014 -0.000869281 0.000774985)
(0.100454 -0.00196371 0.00196231)
(0.100911 -0.00233486 0.00242737)
(0.100978 -0.00244183 0.00252626)
(0.100694 -0.00233761 0.00242569)
(0.100224 -0.0021136 0.00219634)
(0.0997086 -0.00182486 0.00191468)
(0.0991833 -0.00157809 0.00166251)
(0.0986884 -0.00139383 0.00145723)
(0.0982407 -0.00125636 0.00128667)
(0.0978472 -0.00115684 0.00114304)
(0.0975039 -0.00108851 0.0010187)
(0.0972076 -0.00104354 0.000905064)
(0.0969565 -0.00101591 0.000790862)
(0.0967483 -0.00100528 0.000665251)
(0.0965817 -0.00101237 0.000513208)
(0.0964574 -0.00103695 0.000311491)
(0.0963687 -0.00107676 2.36058e-05)
(0.0962994 -0.00112223 -0.000386468)
(0.0964101 -0.0011555 -0.000899706)
(0.099413 -0.000270235 0.000345207)
(0.0988664 -0.00187496 0.00201891)
(0.0979214 -0.00218917 0.00257292)
(0.0963657 -0.00190864 0.00237945)
(0.0946331 -0.00162703 0.00211344)
(0.0929717 -0.0014192 0.0019257)
(0.0913632 -0.00127198 0.00179967)
(0.0898525 -0.00116103 0.00170247)
(0.0884524 -0.00107109 0.00159993)
(0.0871551 -0.000999732 0.00148618)
(0.085953 -0.000951725 0.00136995)
(0.0848308 -0.000925005 0.00125638)
(0.0837702 -0.000915123 0.00114257)
(0.0827575 -0.000918334 0.00102014)
(0.0817842 -0.000933747 0.000877751)
(0.0808448 -0.000964505 0.000700565)
(0.0799266 -0.00101371 0.000458294)
(0.0790093 -0.00108778 3.55361e-05)
(0.0780284 -0.00119342 -0.000717586)
(0.0766137 -0.00158814 -0.00197085)
(0.0995405 0.000321901 0.000245009)
(0.0992576 0.00154096 0.00105545)
(0.098849 0.00211456 0.00150202)
(0.098125 0.00209179 0.00157888)
(0.0973372 0.00188641 0.00151381)
(0.0965856 0.00166632 0.00144452)
(0.0958666 0.00149878 0.00140679)
(0.0951999 0.00137255 0.0013734)
(0.0945735 0.00128551 0.00132363)
(0.0939323 0.00122905 0.00124621)
(0.0933108 0.00118984 0.00114674)
(0.0927088 0.00116353 0.00103539)
(0.0921196 0.00114759 0.000917643)
(0.09154 0.00113872 0.000790989)
(0.0909684 0.00113242 0.000646099)
(0.0904042 0.00112353 0.000450125)
(0.0898493 0.00111011 0.000174075)
(0.0892995 0.00109908 -0.00023476)
(0.0887312 0.00110795 -0.000851527)
(0.0880992 0.00107556 -0.00180278)
(0.100093 0.000763218 0.000445897)
(0.100504 0.00174908 0.00119439)
(0.101105 0.00212967 0.00158663)
(0.101635 0.0022349 0.00174015)
(0.10198 0.00228742 0.00178178)
(0.102172 0.00223629 0.00172811)
(0.102254 0.00211618 0.00160638)
(0.102279 0.00196466 0.00145734)
(0.102283 0.00180184 0.0013004)
(0.102278 0.00165176 0.00114888)
(0.102276 0.00154114 0.00101578)
(0.102283 0.00146148 0.00089877)
(0.102301 0.00140297 0.000790611)
(0.102331 0.00135963 0.000682571)
(0.102377 0.00132729 0.00056278)
(0.10244 0.00130146 0.000421159)
(0.102519 0.00127806 0.000241935)
(0.10261 0.00125432 5.61262e-06)
(0.102717 0.00123348 -0.000299874)
(0.102929 0.00121948 -0.000645267)
(0.100046 0.000540251 0.000395714)
(0.10048 0.00138412 0.00104486)
(0.101154 0.00192299 0.00147536)
(0.101913 0.00219256 0.0017052)
(0.102632 0.00229399 0.00177999)
(0.103302 0.00227794 0.00174466)
(0.103895 0.0021849 0.0016339)
(0.104392 0.00205102 0.00149095)
(0.104821 0.00190222 0.00134401)
(0.1052 0.00176081 0.00120784)
(0.105546 0.001635 0.00108681)
(0.10587 0.00152583 0.00098075)
(0.106185 0.0014318 0.000886409)
(0.106495 0.00135 0.000799348)
(0.106807 0.00127642 0.000715315)
(0.107123 0.00120585 0.00063051)
(0.107447 0.00113393 0.000539255)
(0.107778 0.00105722 0.000435498)
(0.108128 0.000975327 0.000317885)
(0.108561 0.000906878 0.000193145)
(0.100036 0.000323136 0.000323172)
(0.100429 0.00086865 0.000868758)
(0.10108 0.00126233 0.00126254)
(0.101891 0.00150422 0.00150457)
(0.102756 0.00162123 0.00162181)
(0.103616 0.00164213 0.00164303)
(0.104446 0.0016036 0.00160496)
(0.105224 0.00152451 0.00152663)
(0.105939 0.00142371 0.001427)
(0.106594 0.00131676 0.00132189)
(0.107197 0.00121367 0.00122177)
(0.107759 0.00111883 0.00113166)
(0.108287 0.00103296 0.00105325)
(0.10879 0.000954838 0.000986694)
(0.109273 0.000882363 0.000931574)
(0.109744 0.000813033 0.000887288)
(0.110206 0.000744326 0.000853131)
(0.110667 0.000674081 0.000827301)
(0.111144 0.000603337 0.000804944)
(0.11169 0.000546533 0.000780018)
(0.100031 0.00010708 0.000281412)
(0.100395 0.000293051 0.000768718)
(0.101024 0.000434081 0.00113322)
(0.101844 0.000526214 0.00136941)
(0.102751 0.000576299 0.00150171)
(0.103689 0.00059162 0.00155454)
(0.104618 0.000582097 0.00154954)
(0.105515 0.0005573 0.00150856)
(0.106366 0.000523392 0.00144481)
(0.107162 0.000485802 0.00136852)
(0.107902 0.000448645 0.00128838)
(0.108592 0.000414076 0.00121116)
(0.109237 0.000382737 0.00114176)
(0.109844 0.000354249 0.0010837)
(0.110423 0.000327548 0.00104022)
(0.11098 0.000302264 0.00101318)
(0.11152 0.000278316 0.00100239)
(0.112051 0.00025542 0.00100419)
(0.112594 0.000233417 0.00101138)
(0.113195 0.000217522 0.0010119)
(0.100031 -0.000107077 0.000281395)
(0.100395 -0.00029305 0.000768664)
(0.101024 -0.000434087 0.00113311)
(0.101844 -0.000526228 0.00136921)
(0.102751 -0.00057633 0.00150137)
(0.103689 -0.000591688 0.00155402)
(0.104618 -0.000582213 0.00154881)
(0.105516 -0.000557404 0.00150748)
(0.106367 -0.000523406 0.00144314)
(0.107163 -0.000485654 0.00136592)
(0.107904 -0.000448315 0.00128429)
(0.108595 -0.000413664 0.00120472)
(0.109241 -0.000382575 0.0011317)
(0.10985 -0.000354851 0.00106794)
(0.11043 -0.000329131 0.00101554)
(0.110988 -0.000303532 0.000975885)
(0.111528 -0.000277446 0.000948006)
(0.112059 -0.000251178 0.000928737)
(0.112595 -0.000223019 0.000914143)
(0.113187 -0.000192063 0.000898277)
(0.100036 -0.00032317 0.000323136)
(0.100429 -0.000868753 0.00086865)
(0.10108 -0.00126253 0.00126233)
(0.101891 -0.00150456 0.00150422)
(0.102756 -0.00162179 0.00162123)
(0.103616 -0.00164301 0.00164213)
(0.104446 -0.00160493 0.0016036)
(0.105224 -0.00152659 0.00152451)
(0.105939 -0.00142695 0.0014237)
(0.106594 -0.00132183 0.00131674)
(0.107197 -0.00122169 0.00121364)
(0.107759 -0.00113155 0.00111878)
(0.108287 -0.00105312 0.0010329)
(0.10879 -0.000986539 0.000954759)
(0.109273 -0.000931393 0.000882259)
(0.109744 -0.000887066 0.000812885)
(0.110206 -0.000852862 0.00074412)
(0.110667 -0.000826987 0.000673806)
(0.111144 -0.000804621 0.000603006)
(0.11169 -0.000779779 0.000546205)
(0.100046 -0.000540294 0.000395697)
(0.10048 -0.00138426 0.00104481)
(0.101154 -0.00192327 0.00147526)
(0.101913 -0.00219307 0.00170508)
(0.102632 -0.00229487 0.00177975)
(0.103301 -0.00227937 0.00174424)
(0.103894 -0.00218713 0.00163316)
(0.10439 -0.00205465 0.00148978)
(0.104817 -0.00190785 0.00134211)
(0.105194 -0.00176966 0.00120504)
(0.105535 -0.00164947 0.00108258)
(0.105854 -0.00154934 0.000974249)
(0.106158 -0.00147038 0.000875617)
(0.106454 -0.00141265 0.000781708)
(0.106744 -0.00137622 0.000689073)
(0.107029 -0.00136328 0.000592713)
(0.107311 -0.00137847 0.000487049)
(0.10759 -0.00142622 0.000366708)
(0.107884 -0.00150358 0.00023653)
(0.108321 -0.00160398 0.00011898)
(0.100093 -0.000763227 0.000445899)
(0.100504 -0.00174911 0.0011944)
(0.101105 -0.00212979 0.00158664)
(0.101634 -0.00223535 0.00174022)
(0.101979 -0.00228833 0.00178193)
(0.102171 -0.00223762 0.00172835)
(0.102251 -0.00211819 0.00160688)
(0.102274 -0.0019677 0.00145823)
(0.102275 -0.0018064 0.00130175)
(0.102265 -0.00165906 0.00115155)
(0.102254 -0.00155396 0.00102028)
(0.102245 -0.00148342 0.000906195)
(0.102238 -0.00144004 0.000799874)
(0.10223 -0.00142199 0.000695188)
(0.102216 -0.00143223 0.000583826)
(0.102188 -0.0014783 0.000457389)
(0.102132 -0.001577 0.000303529)
(0.102028 -0.0017493 0.000101643)
(0.101868 -0.00200488 -0.000158977)
(0.102043 -0.0023914 -0.000367274)
(0.0995405 -0.000321901 0.000245018)
(0.0992576 -0.00154095 0.0010555)
(0.0988488 -0.00211465 0.0015021)
(0.0981245 -0.00209196 0.00157902)
(0.0973362 -0.00188668 0.0015142)
(0.0965836 -0.00166674 0.00144537)
(0.095863 -0.00149927 0.00140834)
(0.0951936 -0.00137337 0.00137597)
(0.0945624 -0.0012874 0.00132818)
(0.0939132 -0.00123339 0.00125343)
(0.0932782 -0.00119802 0.00115796)
(0.0926532 -0.00117893 0.00105272)
(0.0920252 -0.00117366 0.000945458)
(0.0913805 -0.00118247 0.000835909)
(0.0907002 -0.00120974 0.000715544)
(0.0899552 -0.00126536 0.000571729)
(0.0890935 -0.00136966 0.000396123)
(0.0880079 -0.00155863 0.000124567)
(0.0866202 -0.00179487 -0.000314841)
(0.0852689 -0.00347059 -0.000434664)
(0.0993801 5.89229e-05 3.37485e-05)
(0.0992677 0.00120004 0.000274252)
(0.0989803 0.00188861 0.000432076)
(0.0984745 0.00200666 0.000482931)
(0.0979952 0.00191495 0.000477906)
(0.0975702 0.00173498 0.000463819)
(0.0971799 0.00154759 0.000449731)
(0.0968294 0.00138886 0.000436894)
(0.0965282 0.00127003 0.000426903)
(0.0962722 0.00119874 0.000412809)
(0.0959961 0.0011703 0.000385497)
(0.0956998 0.00116676 0.000345148)
(0.0953811 0.00117401 0.000293219)
(0.0950265 0.00118885 0.000226698)
(0.0946229 0.00121735 0.000142564)
(0.0941549 0.0012661 2.2009e-05)
(0.0936008 0.00134834 -0.000164431)
(0.0929078 0.00147559 -0.000458562)
(0.0920282 0.00165907 -0.000928938)
(0.0912655 0.00194839 -0.00185893)
(0.100087 0.00070704 0.000144352)
(0.100477 0.00161788 0.000390391)
(0.101066 0.00203483 0.00054093)
(0.101694 0.00211793 0.000609848)
(0.102269 0.0021509 0.00063545)
(0.102742 0.00218089 0.00062579)
(0.103123 0.0021352 0.00059297)
(0.103427 0.00204544 0.000546194)
(0.103679 0.00193631 0.00049856)
(0.103896 0.00183055 0.000451988)
(0.104092 0.0017321 0.000402302)
(0.104278 0.00164599 0.000349242)
(0.104455 0.00158807 0.000294413)
(0.104617 0.00156158 0.00023347)
(0.10476 0.00156078 0.000157422)
(0.104886 0.00158255 6.00111e-05)
(0.104988 0.00163891 -7.04399e-05)
(0.105061 0.00174387 -0.000251408)
(0.10512 0.00189553 -0.000496561)
(0.105407 0.002049 -0.000804381)
(0.100039 0.000478802 0.000131311)