/*--------------------------------*- C++ -*----------------------------------*\
| =========                 |                                                 |
| \\      /  F ield         | OpenFOAM: The Open Source CFD Toolbox           |
|  \\    /   O peration     | Version:  2212                                  |
|   \\  /    A nd           | Website:  www.openfoam.com                      |
|    \\/     M anipulation  |                                                 |
\*---------------------------------------------------------------------------*/
FoamFile
{
    version     2.0;
    format      ascii;
    arch        "LSB;label=32;scalar=64";
    class       surfaceVectorField;
    location    "0.6";
    object      Uf;
}
// * * * * * * * * * * * * * * * * * * * * * * * * * * * * * * * * * * * * * //

dimensions      [0 1 -1 0 0 0 0];

internalField   nonuniform List<vector> 
19019
(
(0.0993441 -0.00341903 -0.003419)
(0.0973536 0.00106247 -0.00148427)
(0.0973536 -0.00148428 0.00106247)
(0.0834792 0.00197581 0.0019759)
(0.0930873 0.00326893 0.00253352)
(0.0930873 0.00253345 0.00326901)
(0.0745172 0.0019586 0.00195881)
(0.0848641 0.00163574 0.00179246)
(0.0848641 0.00179232 0.00163589)
(0.068548 0.00115889 0.00115931)
(0.0786282 0.00107331 0.00122161)
(0.0786283 0.00122131 0.0010736)
(0.0642363 0.000696617 0.000697364)
(0.0740532 0.000784938 0.000865563)
(0.0740534 0.000865044 0.000785561)
(0.0607573 0.000494034 0.000495555)
(0.0704428 0.000649828 0.000670037)
(0.0704431 0.000669156 0.000650834)
(0.0579384 0.000373351 0.00037626)
(0.0674923 0.000545397 0.000509974)
(0.0674928 0.000508177 0.000547489)
(0.055616 0.000285495 0.000290381)
(0.0650521 0.000466509 0.000389853)
(0.065053 0.00038681 0.000470184)
(0.0536284 0.000222837 0.000230834)
(0.0629685 0.000411219 0.000311685)
(0.0629701 0.000306715 0.000417444)
(0.0518866 0.000176033 0.00018934)
(0.0611364 0.000365926 0.000261179)
(0.0611392 0.000253035 0.000376415)
(0.0503415 0.000139265 0.000161364)
(0.0594963 0.000323265 0.000230312)
(0.0595014 0.00021596 0.000341031)
(0.0489619 0.000107492 0.000143123)
(0.0580151 0.000280755 0.000213068)
(0.0580244 0.000189057 0.000310217)
(0.047721 7.62437e-05 0.00013181)
(0.0566678 0.000238634 0.000204646)
(0.056684 0.000168114 0.000286456)
(0.0466001 4.22391e-05 0.000126631)
(0.055434 0.000193704 0.000201724)
(0.0554608 0.000151358 0.000271046)
(0.0456062 1.20919e-05 0.000128604)
(0.0543082 0.000136834 0.000204455)
(0.0543508 0.000132363 0.000261386)
(0.0447558 -3.50559e-05 0.000142205)
(0.0533028 6.59317e-05 0.000213049)
(0.0533722 0.000109865 0.000254522)
(0.0441123 -0.000149009 0.000155916)
(0.0524519 -4.20819e-05 0.000239447)
(0.052572 5.37461e-05 0.000256086)
(0.0440009 -0.000341425 0.000118435)
(0.0519002 -0.000258754 0.000237282)
(0.0521232 -9.93304e-05 0.000244888)
(0.0451247 -0.00162369 -0.000852709)
(0.0521621 -0.000679596 0.000108962)
(0.0526138 -0.000340506 0.000142112)
(0.0507633 -0.00371645 -0.00200008)
(0.050809 -0.00201429 -0.00123992)
(0.0984572 0.00247639 0.00172994)
(0.0996871 0.000439206 0.00034549)
(0.100049 0.00105637 0.000750982)
(0.0958349 0.00314793 0.00243279)
(0.0978162 0.00273264 0.00228235)
(0.0982937 0.00280913 0.00216156)
(0.09145 0.00223012 0.00186955)
(0.0954959 0.00300149 0.0023033)
(0.096304 0.0024425 0.00199801)
(0.0875952 0.0016742 0.00150587)
(0.092619 0.00229897 0.0018391)
(0.0936669 0.00198041 0.00172733)
(0.0841476 0.0014393 0.00127634)
(0.089767 0.00189119 0.00153617)
(0.0909047 0.00171915 0.00149843)
(0.0811877 0.00126412 0.00102984)
(0.0872317 0.00165522 0.00129552)
(0.0884346 0.00145356 0.00121285)
(0.0787013 0.00110796 0.000795651)
(0.0850059 0.00148988 0.00107848)
(0.0863052 0.00118179 0.000910426)
(0.0765569 0.00098831 0.000627859)
(0.0830598 0.00136796 0.00091535)
(0.0844814 0.000980095 0.000693665)
(0.0746517 0.000898586 0.000522547)
(0.081323 0.00127247 0.00080476)
(0.0828819 0.000840186 0.000553529)
(0.0729248 0.000820169 0.000460501)
(0.0797444 0.00118365 0.00073133)
(0.081451 0.000735972 0.000463795)
(0.0713394 0.000741513 0.000426341)
(0.0782948 0.00109447 0.000687302)
(0.0801568 0.000648059 0.000406845)
(0.0698736 0.00066115 0.000408598)
(0.0769519 0.00100325 0.000663797)
(0.0789738 0.000567647 0.000370682)
(0.0685111 0.00058051 0.000400426)
(0.0756969 0.0009093 0.000653412)
(0.0778841 0.000495436 0.000350604)
(0.0672412 0.000490797 0.000400036)
(0.0745173 0.000809208 0.000652071)
(0.0768816 0.000427799 0.00034272)
(0.0660621 0.000368249 0.000406438)
(0.0734058 0.000691747 0.00066133)
(0.0759658 0.000348152 0.000347396)
(0.0649987 0.000194441 0.000417474)
(0.0723648 0.000536428 0.000681998)
(0.0751447 0.000232991 0.000365422)
(0.0640986 -8.67932e-05 0.000400069)
(0.0714038 0.00031617 0.000710905)
(0.0744378 7.08312e-05 0.000392232)
(0.0635674 -0.000641104 0.000266131)
(0.0705862 -9.30122e-05 0.000709565)
(0.0739096 -0.000238317 0.000357427)
(0.0640401 -0.00239885 -0.000700248)
(0.0700713 -0.000919139 0.00060524)
(0.0736846 -0.000931281 3.70474e-05)
(0.0687971 -0.00324672 -0.000258007)
(0.0730146 -0.00326846 -0.00180287)
(0.0993753 0.00118206 0.0010726)
(0.099473 0.000349739 0.000307062)
(0.0997475 0.000610953 0.000779896)
(0.0984947 0.00229591 0.00203207)
(0.0990504 0.00157671 0.00172051)
(0.0995971 0.0020182 0.00200299)
(0.0971411 0.00247618 0.00204891)
(0.0983576 0.00213094 0.00216908)
(0.0992971 0.00246134 0.0021027)
(0.095439 0.00224644 0.00176784)
(0.097193 0.00203547 0.00200275)
(0.0984881 0.00237411 0.00190308)
(0.0937499 0.00201956 0.00152312)
(0.0959045 0.00185517 0.00175488)
(0.0974219 0.00218024 0.00168941)
(0.0921367 0.00186268 0.0013456)
(0.0946705 0.00173202 0.00154345)
(0.0963088 0.00198358 0.0015093)
(0.090599 0.00175106 0.00121651)
(0.0934797 0.00165156 0.00138761)
(0.0952032 0.00179965 0.0013442)
(0.0891473 0.00165119 0.00111607)
(0.0923647 0.0015748 0.00126719)
(0.0941459 0.00164141 0.00120607)
(0.0877979 0.00154305 0.00103542)
(0.0913262 0.00147793 0.00117426)
(0.0931624 0.00149928 0.00109922)
(0.0865512 0.00142806 0.000975742)
(0.0903338 0.00136503 0.00110681)
(0.092256 0.00136571 0.00101915)
(0.0853913 0.00131317 0.000938379)
(0.0893983 0.00124966 0.00106259)
(0.0914259 0.00124206 0.000965298)
(0.0843003 0.00119948 0.000920079)
(0.08851 0.00113415 0.00103804)
(0.0906621 0.00112774 0.000933873)
(0.0832632 0.00108138 0.00091675)
(0.0876528 0.00101841 0.00102911)
(0.0899531 0.00101761 0.000920206)
(0.0822698 0.000949011 0.00092608)
(0.0868131 0.000897377 0.00103383)
(0.0892908 0.000902485 0.000921269)
(0.0813136 0.00078928 0.000949192)
(0.0859775 0.000758227 0.00105311)
(0.0886694 0.000771744 0.000938126)
(0.0803877 0.000579643 0.000989198)
(0.0851294 0.000581795 0.00109195)
(0.0880855 0.000610993 0.000974568)
(0.0794819 0.000247263 0.00105085)
(0.0842376 0.00034613 0.00116106)
(0.0875324 0.000394244 0.00103572)
(0.0785516 -0.000340505 0.00114071)
(0.0832409 -2.91716e-05 0.00128342)
(0.0869961 4.5535e-05 0.00113485)
(0.077445 -0.00134345 0.0013909)
(0.0820685 -0.000634969 0.0014504)
(0.0864344 -0.000525449 0.00129575)
(0.0806833 -0.00123579 0.00247653)
(0.0857212 -0.00139073 0.00168669)
(0.0996493 0.000650257 0.000931427)
(0.0994625 0.000129373 0.000192507)
(0.0997993 0.000375106 0.000741368)
(0.0990854 0.0012788 0.0018278)
(0.0992625 0.000636857 0.00137065)
(0.0998409 0.0011503 0.00181426)
(0.098449 0.00154056 0.00210331)
(0.0989128 0.000973377 0.00200373)
(0.0999046 0.00153634 0.00209032)
(0.097707 0.00154661 0.00198932)
(0.0982946 0.00104997 0.00205095)
(0.0997671 0.00163148 0.00202342)
(0.0969382 0.00147979 0.00177671)
(0.0976565 0.00100743 0.00190014)
(0.0995088 0.0016093 0.00189641)
(0.0962055 0.00142686 0.00158301)
(0.0970631 0.000960037 0.00169908)
(0.0991983 0.00154711 0.00175276)
(0.0955184 0.00139216 0.00143633)
(0.0965028 0.000933234 0.00152181)
(0.0988526 0.00147388 0.00162733)
(0.0948662 0.00135209 0.0013304)
(0.0959879 0.000916802 0.00138073)
(0.0985073 0.0013917 0.00151711)
(0.0942275 0.00129082 0.00126041)
(0.0955162 0.000902424 0.00128068)
(0.0981718 0.00129753 0.00142236)
(0.0935942 0.00120572 0.00121571)
(0.0950566 0.000869509 0.00121997)
(0.0978217 0.00119126 0.00134698)
(0.0929671 0.00110538 0.00118849)
(0.0945931 0.000811427 0.00118891)
(0.0974786 0.00108188 0.0012957)
(0.092341 0.000999142 0.00117631)
(0.0941228 0.000743222 0.00117876)
(0.0971421 0.000974593 0.00126479)
(0.0917052 0.000890771 0.0011781)
(0.093636 0.000675152 0.00118241)
(0.0968044 0.000869464 0.00125152)
(0.0910447 0.000775868 0.00119617)
(0.0931159 0.000608555 0.00119957)
(0.0964576 0.000763809 0.00125712)
(0.0903343 0.000643849 0.00123764)
(0.0925416 0.000541747 0.00123736)
(0.0960892 0.000649443 0.00128669)
(0.0895341 0.000484223 0.00131762)
(0.0918834 0.000470261 0.00130596)
(0.0956795 0.000516139 0.00135144)
(0.088573 0.000260763 0.00146427)
(0.0910896 0.000399307 0.00142707)
(0.0951951 0.000354413 0.00147443)
(0.0873416 -9.45433e-05 0.00167691)
(0.0900541 0.000284224 0.00164311)
(0.0945686 0.000121524 0.0016905)
(0.0856849 -0.000373883 0.00263293)
(0.0886534 0.000122876 0.00194825)
(0.0937554 -0.000224824 0.00199007)
(0.0871885 0.000139673 0.00311025)
(0.0931182 -0.000372583 0.00314035)
(0.0996725 0.000154079 0.000629518)
(0.0993801 1.31388e-08 5.89419e-05)
(0.0997132 0.00010393 0.000687961)
(0.099159 0.000353376 0.00154435)
(0.0992677 6.55761e-08 0.00120006)
(0.0998376 0.000341671 0.00162235)
(0.0986634 0.00045791 0.00194767)
(0.0989803 1.59234e-07 0.00188861)
(0.0999629 0.000485534 0.00199152)
(0.0982118 0.000481137 0.00196091)
(0.0984744 2.90632e-07 0.00200669)
(0.0999915 0.000539748 0.00199687)
(0.0977753 0.000472152 0.0018252)
(0.097995 5.0603e-07 0.00191502)
(0.100009 0.000546632 0.00191158)
(0.0973608 0.000459124 0.00164169)
(0.0975698 8.97743e-07 0.00173514)
(0.100006 0.000533915 0.00180511)
(0.0969914 0.000447483 0.00146888)
(0.0971791 1.6122e-06 0.00154783)
(0.0999793 0.000512157 0.00168384)
(0.096669 0.000439109 0.00133065)
(0.096828 2.79739e-06 0.00138927)
(0.0999359 0.000486193 0.0015737)
(0.0963854 0.000432123 0.00123662)
(0.0965258 4.81138e-06 0.00127082)
(0.0998935 0.000463158 0.00148263)
(0.0961146 0.000419785 0.00118847)
(0.096268 8.15549e-06 0.00120018)
(0.0998576 0.000440926 0.00141979)
(0.0958277 0.00039971 0.0011753)
(0.0959889 1.37194e-05 0.0011728)
(0.0997985 0.000413886 0.00138109)
(0.0955094 0.000376259 0.00118199)
(0.0956872 2.29591e-05 0.00117101)
(0.0997209 0.000384098 0.00135676)
(0.0951471 0.000354825 0.00120179)
(0.0953591 3.84301e-05 0.00118135)
(0.0996205 0.000356313 0.00134848)
(0.0947233 0.000341392 0.00123947)
(0.0949875 6.43269e-05 0.00120185)
(0.0994813 0.000333408 0.00136159)
(0.0942122 0.000341388 0.00130537)
(0.0945546 0.000106468 0.00124069)
(0.0992893 0.000319354 0.00140298)
(0.0935718 0.000366295 0.00141625)
(0.0940374 0.000178051 0.00130638)
(0.0990277 0.00031782 0.00148227)
(0.092731 0.000416369 0.0016086)
(0.0933993 0.000306306 0.00141706)
(0.0986633 0.000340516 0.00162805)
(0.0915547 0.000522079 0.00192153)
(0.0925617 0.000510432 0.00160347)
(0.0981376 0.000379878 0.00188763)
(0.0898295 0.000695521 0.00242336)
(0.0914147 0.000878021 0.00188537)
(0.0973659 0.000484355 0.00229733)
(0.0902411 0.00163854 0.00234169)
(0.096643 0.000647695 0.00311246)
(0.0996725 -0.000153998 0.000629483)
(0.0994625 -0.000129345 0.000192487)
(0.0997132 -0.000103895 0.000687958)
(0.099159 -0.000353159 0.00154433)
(0.0992625 -0.000636748 0.00137064)
(0.0998376 -0.000341532 0.00162235)
(0.0986635 -0.000457495 0.00194764)
(0.0989129 -0.000973174 0.00200368)
(0.0999629 -0.000485259 0.00199153)
(0.098212 -0.000480405 0.00196081)
(0.098295 -0.00104963 0.00205083)
(0.0999917 -0.000539259 0.00199684)
(0.0977759 -0.000470842 0.00182496)
(0.0976572 -0.00100676 0.00189992)
(0.100009 -0.000545738 0.00191141)
(0.097362 -0.000456746 0.00164128)
(0.0970645 -0.00095876 0.0016987)
(0.100007 -0.0005323 0.00180473)
(0.0969936 -0.000443273 0.00146822)
(0.0965054 -0.000930873 0.00152132)
(0.0999807 -0.000509327 0.00168326)
(0.0966727 -0.000431846 0.00132944)
(0.0959925 -0.000912695 0.00137989)
(0.0999385 -0.00048136 0.00157276)
(0.0963919 -0.000419785 0.00123438)
(0.0955243 -0.000895288 0.0012789)
(0.0998979 -0.000454867 0.00148099)
(0.0961258 -0.000399059 0.00118451)
(0.0950705 -0.00085773 0.00121628)
(0.0998649 -0.000426758 0.00141698)
(0.0958472 -0.000365198 0.00116852)
(0.094617 -0.000792232 0.00118218)
(0.0998111 -0.000390039 0.00137645)
(0.0955435 -0.000319018 0.00117036)
(0.0941637 -0.000712216 0.00116657)
(0.0997421 -0.000344489 0.00134881)
(0.0952069 -0.000259736 0.0011814)
(0.0937061 -0.000624592 0.00116169)
(0.0996573 -0.000291638 0.00133423)
(0.0948281 -0.000184335 0.00120307)
(0.093236 -0.000525475 0.00116415)
(0.0995458 -0.000228026 0.00133583)
(0.0943944 -8.18983e-05 0.00124169)
(0.0927461 -0.000407173 0.00117443)
(0.0994001 -0.000148014 0.00135759)
(0.0938838 7.17212e-05 0.00130719)
(0.0922287 -0.000243505 0.00119307)
(0.099212 -3.87758e-05 0.00140287)
(0.0932662 0.000312161 0.00141194)
(0.0916743 -6.20713e-06 0.00122562)
(0.0989668 0.00012065 0.0014867)
(0.09249 0.000694603 0.00156731)
(0.0910549 0.000346084 0.00128197)
(0.098635 0.000360402 0.00162532)
(0.0915166 0.00139506 0.0018037)
(0.0903353 0.00087368 0.00137788)
(0.0981979 0.000722836 0.00182989)
(0.0896399 0.00174462 0.00151014)
(0.0979296 0.00135615 0.00212241)
(0.0996493 -0.000650228 0.000931429)
(0.099473 -0.000349743 0.00030706)
(0.0997993 -0.0003751 0.000741371)
(0.0990855 -0.00127873 0.00182776)
(0.0990504 -0.00157673 0.00172048)
(0.0998409 -0.00115027 0.00181426)
(0.0984493 -0.00154044 0.00210318)
(0.0983578 -0.00213098 0.00216893)
(0.0999048 -0.00153629 0.00209024)
(0.0977078 -0.00154633 0.0019891)
(0.0971934 -0.00203555 0.00200249)
(0.0997675 -0.00163136 0.00202315)
(0.0969397 -0.00147914 0.00177636)
(0.0959055 -0.00185521 0.00175449)
(0.0995098 -0.00160901 0.0018959)
(0.0962083 -0.00142562 0.00158255)
(0.0946725 -0.00173194 0.00154286)
(0.0992002 -0.00154653 0.00175197)
(0.0955233 -0.00139005 0.00143567)
(0.0934832 -0.00165131 0.00138674)
(0.0988559 -0.00147279 0.00162622)
(0.0948748 -0.00134846 0.00132904)
(0.0923708 -0.00157448 0.00126576)
(0.098513 -0.00138988 0.00151533)
(0.0942424 -0.00128484 0.00125729)
(0.091337 -0.00147741 0.00117171)
(0.0981815 -0.00129444 0.00141939)
(0.0936198 -0.00119637 0.00120945)
(0.090352 -0.00136437 0.00110203)
(0.0978382 -0.00118615 0.00134176)
(0.0930108 -0.00109093 0.00117669)
(0.0894293 -0.00124889 0.00105442)
(0.0975064 -0.00107386 0.00128652)
(0.092415 -0.000976343 0.00115556)
(0.0885625 -0.00113347 0.00102329)
(0.0971895 -0.000962053 0.00124835)
(0.09183 -0.000854082 0.00114315)
(0.0877412 -0.00101761 0.00100391)
(0.0968846 -0.000850474 0.0012227)
(0.0912546 -0.000718218 0.00113554)
(0.0869609 -0.000896359 0.00099141)
(0.0965905 -0.000734027 0.00120689)
(0.0906874 -0.000547672 0.00112792)
(0.0862229 -0.000758242 0.000979316)
(0.0963078 -0.000602451 0.00119819)
(0.0901295 -0.000311532 0.00111674)
(0.0855397 -0.000575684 0.000956884)
(0.0960372 -0.000433821 0.00119325)
(0.089583 3.10648e-05 0.00110451)
(0.0849351 -0.000318004 0.000915158)
(0.0957792 -0.000205612 0.00119086)
(0.0890329 0.000544057 0.00110343)
(0.0844403 7.80253e-05 0.000823789)
(0.0955294 0.000118989 0.00119553)
(0.0884191 0.00132832 0.00109169)
(0.084102 0.000738867 0.000684325)
(0.0952773 0.000584849 0.00122262)
(0.0834512 0.0019421 0.000270924)
(0.0950403 0.00124229 0.00126108)
(0.0993753 -0.0011821 0.00107256)
(0.0996871 -0.000439221 0.00034548)
(0.0997475 -0.000610973 0.000779879)
(0.0984949 -0.00229601 0.00203193)
(0.0978162 -0.00273274 0.00228228)
(0.0995971 -0.00201827 0.00200289)
(0.0971414 -0.00247639 0.00204863)
(0.095496 -0.00300165 0.00230312)
(0.0992973 -0.0024615 0.00210243)
(0.0954398 -0.00224679 0.00176741)
(0.0926193 -0.00229926 0.00183877)
(0.0984885 -0.00237442 0.00190262)
(0.0937513 -0.00202012 0.00152251)
(0.0897677 -0.00189177 0.00153569)
(0.0974227 -0.00218076 0.00168871)
(0.0921393 -0.00186355 0.00134465)
(0.0872329 -0.00165618 0.00129476)
(0.0963104 -0.00198444 0.00150832)
(0.0906037 -0.00175246 0.00121494)
(0.0850081 -0.00149154 0.00107723)
(0.095206 -0.00180099 0.00134262)
(0.0891554 -0.00165356 0.0011135)
(0.0830637 -0.00137073 0.000913287)
(0.0941508 -0.00164352 0.00120338)
(0.0878115 -0.00154706 0.00103122)
(0.0813299 -0.00127715 0.000801334)
(0.0931708 -0.00150298 0.00109481)
(0.0865743 -0.00143479 0.000969012)
(0.0797561 -0.00119164 0.000725582)
(0.0922703 -0.00137205 0.0010118)
(0.0854302 -0.0013243 0.000927134)
(0.078315 -0.00110833 0.000677109)
(0.09145 -0.0012524 0.000953014)
(0.0843654 -0.00121746 0.000900579)
(0.0769869 -0.00102621 0.000646113)
(0.0907028 -0.00114478 0.000912861)
(0.0833712 -0.00110958 0.000883305)
(0.0757565 -0.000945278 0.000625703)
(0.0900201 -0.00104555 0.000884668)
(0.0824479 -0.000992099 0.000868468)
(0.0746157 -0.000864657 0.000613081)
(0.0893989 -0.000948274 0.000862484)
(0.0816077 -0.000851869 0.000845318)
(0.0735652 -0.00078065 0.000600491)
(0.0888425 -0.000843685 0.000839786)
(0.0808881 -0.000667602 0.00079992)
(0.0726287 -0.000685067 0.000568418)
(0.0883656 -0.000716593 0.000802348)
(0.0803421 -0.000376278 0.000690366)
(0.0718583 -0.000540276 0.000502139)
(0.0879922 -0.000542936 0.000728701)
(0.0800303 0.000151124 0.000476987)
(0.0713938 -0.000246088 0.000292511)
(0.0877483 -0.000256114 0.000564555)
(0.0800249 0.0013111 -5.79549e-05)
(0.0715733 0.000366168 -8.21301e-05)
(0.0876686 0.00024918 0.000286207)
(0.0700731 0.002071 -0.00103047)
(0.0873633 0.00136339 -0.000397533)
(0.0984572 -0.00247644 0.00172989)
(0.0973536 -0.00106247 -0.00148428)
(0.100049 -0.00105639 0.000750963)
(0.0958349 -0.00314806 0.00243267)
(0.0930873 -0.00326901 0.00253345)
(0.0982937 -0.00280924 0.00216146)
(0.0914501 -0.00223034 0.00186929)
(0.0848641 -0.00163588 0.00179232)
(0.096304 -0.00244271 0.00199779)
(0.0875954 -0.00167466 0.00150546)
(0.0786283 -0.00107359 0.00122131)
(0.093667 -0.00198079 0.00172693)
(0.0841481 -0.00144012 0.00127567)
(0.0740534 -0.000785548 0.000865053)
(0.0909049 -0.00171984 0.0014978)
(0.0811886 -0.00126554 0.00102869)
(0.0704431 -0.000650818 0.000669169)
(0.088435 -0.00145471 0.0012117)
(0.0787029 -0.00111045 0.000793784)
(0.0674928 -0.000547465 0.000508199)
(0.0863059 -0.00118378 0.000908526)
(0.0765599 -0.000992624 0.000624774)
(0.065053 -0.000470153 0.000386838)
(0.0844827 -0.00098349 0.0006905)
(0.0746572 -0.000906064 0.000517361)
(0.0629701 -0.000417405 0.000306748)
(0.0828841 -0.000846045 0.000548141)
(0.0729344 -0.000833135 0.000450999)
(0.0611393 -0.000376369 0.000253074)
(0.081455 -0.000746089 0.000454518)
(0.0713568 -0.000763465 0.000409307)
(0.0595015 -0.000340977 0.000216008)
(0.0801639 -0.000665914 0.000389694)
(0.0699046 -0.000696945 0.000382153)
(0.0580245 -0.000310154 0.000189115)
(0.0789868 -0.000597109 0.000341734)
(0.0685644 -0.000638485 0.00036641)
(0.0566842 -0.000286384 0.000168186)
(0.0779069 -0.000541215 0.00030655)
(0.0673274 -0.000587839 0.000356872)
(0.0554611 -0.000270966 0.000151444)
(0.0769192 -0.000497843 0.0002814)
(0.0662004 -0.000537906 0.000334841)
(0.0543512 -0.000261301 0.000132445)
(0.0760253 -0.000462281 0.00025349)
(0.0652239 -0.000466732 0.000281511)
(0.0533728 -0.000254397 0.000109953)
(0.0752418 -0.000429346 0.000202361)
(0.0644973 -0.00033047 0.00013044)
(0.0525727 -0.000255908 5.38419e-05)
(0.0746055 -0.000375228 0.000110064)
(0.0643426 -8.02586e-05 -0.000169356)
(0.0521243 -0.000244643 -9.92486e-05)
(0.0742208 -0.00023958 -0.000137037)
(0.0654811 0.000296961 -0.000627583)
(0.0526152 -0.000141818 -0.000340398)
(0.074314 0.000153264 -0.000766895)
(0.0508108 0.00124052 -0.0020146)
(0.0730806 0.00135722 -0.00290952)
(0.0993441 0.003419 -0.00341903)
(0.0973536 0.00148427 0.00106247)
(0.0834792 -0.0019759 0.00197581)
(0.0930873 -0.00253352 0.00326893)
(0.0745172 -0.00195881 0.00195861)
(0.0848641 -0.00179246 0.00163574)
(0.068548 -0.0011593 0.0011589)
(0.0786282 -0.0012216 0.00107331)
(0.0642364 -0.00069735 0.00069663)
(0.0740532 -0.000865555 0.000784948)
(0.0607573 -0.000495534 0.000494055)
(0.0704428 -0.000670025 0.00064984)
(0.0579384 -0.000376229 0.000373384)
(0.0674923 -0.000509953 0.000545417)
(0.055616 -0.000290343 0.000285536)
(0.0650522 -0.000389827 0.000466534)
(0.0536284 -0.000230791 0.000222884)
(0.0629685 -0.000311655 0.000411248)
(0.0518866 -0.000189292 0.000176088)
(0.0611365 -0.000261144 0.00036596)
(0.0503415 -0.000161309 0.000139328)
(0.0594964 -0.000230271 0.000323301)
(0.048962 -0.000143061 0.000107564)
(0.0580153 -0.000213016 0.000280791)
(0.0477212 -0.000131742 7.63288e-05)
(0.056668 -0.000204581 0.00023867)
(0.0466004 -0.000126566 4.23225e-05)
(0.0554343 -0.000201657 0.000193747)
(0.0456066 -0.000128535 1.21738e-05)
(0.0543086 -0.000204404 0.000136885)
(0.0447564 -0.000142111 -3.49666e-05)
(0.0533034 -0.000212992 6.59947e-05)
(0.0441131 -0.000155794 -0.000148926)
(0.0524526 -0.000239377 -4.20233e-05)
(0.044002 -0.000118318 -0.000341345)
(0.0519012 -0.000237212 -0.000258712)
(0.0451263 0.000852981 -0.00162382)
(0.0521635 -0.000108922 -0.000679587)
(0.0507653 0.00200028 -0.00371671)
(0.0984572 0.00172989 0.00247645)
(0.100049 0.000750963 0.00105639)
(0.0996871 0.00034548 0.000439222)
(0.0958349 0.00243266 0.00314807)
(0.0982937 0.00216145 0.00280924)
(0.0978162 0.00228228 0.00273275)
(0.0914501 0.00186929 0.00223035)
(0.096304 0.00199779 0.00244272)
(0.095496 0.00230312 0.00300166)
(0.0875954 0.00150546 0.00167468)
(0.093667 0.00172693 0.0019808)
(0.0926193 0.00183877 0.00229927)
(0.0841481 0.00127567 0.00144014)
(0.0909049 0.00149779 0.00171985)
(0.0897677 0.00153569 0.00189178)
(0.0811886 0.00102868 0.00126556)
(0.088435 0.00121169 0.00145473)
(0.0872329 0.00129475 0.0016562)
(0.0787029 0.000793774 0.00111048)
(0.0863059 0.000908519 0.0011838)
(0.0850081 0.00107722 0.00149156)
(0.0765599 0.000624761 0.000992662)
(0.0844826 0.000690491 0.00098352)
(0.0830637 0.000913273 0.00137076)
(0.0746571 0.000517346 0.000906112)
(0.0828841 0.00054813 0.000846084)
(0.0813299 0.000801316 0.00127719)
(0.0729344 0.000450976 0.000833196)
(0.0814549 0.000454505 0.000746139)
(0.079756 0.00072556 0.00119169)
(0.0713567 0.000409276 0.000763542)
(0.0801638 0.000389678 0.000665981)
(0.0783149 0.000677079 0.00110839)
(0.0699044 0.000382109 0.000697038)
(0.0789867 0.000341724 0.000597198)
(0.0769867 0.000646073 0.00102629)
(0.0685641 0.000366355 0.000638597)
(0.0779067 0.000306543 0.000541333)
(0.0757563 0.000625648 0.000945373)
(0.0673271 0.000356807 0.000587981)
(0.0769189 0.000281385 0.000497976)
(0.0746154 0.000613022 0.000864786)
(0.0661999 0.00033477 0.000538098)
(0.0760249 0.000253441 0.000462417)
(0.0735649 0.000600441 0.000780848)
(0.0652232 0.000281436 0.000467005)
(0.0752412 0.000202298 0.000429525)
(0.0726282 0.000568386 0.000685352)
(0.0644963 0.000130359 0.000330843)
(0.0746047 0.000109985 0.000375473)
(0.0718575 0.000502104 0.000540656)
(0.0643412 -0.000169468 8.07617e-05)
(0.0742196 -0.000137123 0.000239904)
(0.0713927 0.000292482 0.000246642)
(0.0654792 -0.000627489 -0.000296196)
(0.0743123 -0.000767053 -0.000152837)
(0.0715718 -8.21792e-05 -0.000365374)
(0.0730781 -0.00290938 -0.00135641)
(0.0700713 -0.00103021 -0.00206992)
(0.10008 0.00135174 0.00135181)
(0.100186 0.000798736 0.000804968)
(0.100186 0.000804938 0.000798764)
(0.100264 0.00221722 0.00221742)
(0.10019 0.00231178 0.00207158)
(0.10019 0.00207144 0.0023119)
(0.0993829 0.00243558 0.00243598)
(0.100306 0.00263358 0.00245334)
(0.100307 0.002453 0.00263382)
(0.0979841 0.00230995 0.0023106)
(0.099805 0.00256015 0.00245638)
(0.0998052 0.0024558 0.0025606)
(0.0964952 0.0020057 0.00200679)
(0.0988627 0.00236404 0.00228159)
(0.098863 0.00228072 0.00236477)
(0.0950731 0.00159612 0.00159796)
(0.0978407 0.00204832 0.00196905)
(0.0978413 0.0019677 0.0020496)
(0.0937764 0.00122474 0.00122782)
(0.0968613 0.00168993 0.00160607)
(0.0968623 0.00160391 0.00169203)
(0.0926198 0.000959298 0.000964566)
(0.0959596 0.0014023 0.00132377)
(0.0959612 0.00132007 0.00140575)
(0.0915977 0.000773039 0.000782117)
(0.0951484 0.00118761 0.0011223)
(0.0951512 0.00111597 0.0011936)
(0.0906947 0.000637273 0.000653359)
(0.0944265 0.00102497 0.000977972)
(0.0944314 0.0009672 0.00103529)
(0.0898921 0.000533052 0.00056034)
(0.0937895 0.000897147 0.000874567)
(0.0937978 0.000855677 0.000914753)
(0.0891714 0.000451004 0.000493739)
(0.0932242 0.000792266 0.000801364)
(0.0932382 0.000770251 0.000821084)
(0.0885241 0.000383772 0.000447153)
(0.0927197 0.000701679 0.000751466)
(0.092742 0.000702643 0.000747148)
(0.0879529 0.000317495 0.000413894)
(0.092276 0.00061471 0.000717823)
(0.0923103 0.000643534 0.00068537)
(0.0874658 0.000234033 0.000390004)
(0.0918953 0.000516735 0.000697313)
(0.0919475 0.000579714 0.000628513)
(0.0870725 0.000115957 0.000371334)
(0.0915813 0.000390609 0.000688926)
(0.0916593 0.000495056 0.000567899)
(0.0867865 -8.81408e-05 0.000323787)
(0.0913389 0.000217023 0.000689454)
(0.0914513 0.000368675 0.000490204)
(0.0865469 -0.000508519 0.000123781)
(0.091155 -5.9954e-05 0.000666583)
(0.0913055 0.000138812 0.00035153)
(0.0860028 -0.00147642 -0.000529546)
(0.0909436 -0.000476468 0.000538105)
(0.0911189 -0.000294399 6.5326e-05)
(0.0909657 -0.00107555 0.000132876)
(0.0911453 -0.00116187 -0.000418404)
(0.100171 0.00136865 0.0014165)
(0.100118 0.000577388 0.000811329)
(0.100102 0.000699744 0.000700717)
(0.100759 0.00219484 0.00214929)
(0.100478 0.00158281 0.00185887)
(0.100477 0.00182249 0.00186477)
(0.100996 0.00247681 0.00238835)
(0.101004 0.00205868 0.00224278)
(0.101024 0.0023467 0.00238321)
(0.100837 0.00247597 0.00238973)
(0.101292 0.00220336 0.0023526)
(0.101338 0.00250578 0.00254415)
(0.100457 0.00231101 0.00222561)
(0.101309 0.00216714 0.00232292)
(0.101409 0.00245021 0.00247295)
(0.0999668 0.00205551 0.00196924)
(0.101155 0.00201029 0.00217975)
(0.101301 0.00226393 0.00227131)
(0.0994421 0.00178859 0.00170149)
(0.100925 0.00179269 0.00196976)
(0.101098 0.00200776 0.00199991)
(0.0989314 0.00155987 0.00148598)
(0.100662 0.00158168 0.00176756)
(0.100854 0.0017678 0.00175974)
(0.0984612 0.00137195 0.00132512)
(0.100404 0.00139203 0.0015929)
(0.100606 0.00156474 0.00156696)
(0.0980422 0.00121487 0.00120663)
(0.100166 0.00122343 0.00144932)
(0.100378 0.00139456 0.0014146)
(0.0976743 0.00108089 0.00112272)
(0.0999554 0.00107872 0.00134588)
(0.100181 0.00125101 0.00129603)
(0.0973546 0.000961929 0.0010661)
(0.0997724 0.000953359 0.00127544)
(0.100018 0.00112742 0.00120566)
(0.0970807 0.000848027 0.00102981)
(0.0996141 0.000838844 0.00123046)
(0.0998905 0.00101641 0.00113762)
(0.096851 0.000728125 0.00101067)
(0.0994793 0.000725776 0.00120679)
(0.0997983 0.000908455 0.0010866)
(0.0966633 0.00058933 0.00100892)
(0.0993641 0.000602523 0.00120534)
(0.0997413 0.000793563 0.00104969)
(0.0965165 0.000412525 0.0010248)
(0.0992635 0.000455874 0.00122988)
(0.0997185 0.00065861 0.00102431)
(0.0964125 0.000167837 0.00105706)
(0.0991721 0.00026657 0.00128808)
(0.0997279 0.000484966 0.00100601)
(0.0963408 -0.000180983 0.00109975)
(0.0990758 2.24128e-06 0.00138816)
(0.0997588 0.000244242 0.000981605)
(0.0962928 -0.000642471 0.0011391)
(0.0989629 -0.000366929 0.00152868)
(0.0997971 -8.87612e-05 0.000925135)
(0.0991041 -0.000866242 0.00170717)
(0.0999956 -0.000471684 0.000846939)
(0.100242 0.000820148 0.00125617)
(0.10009 0.000294337 0.000735374)
(0.100071 0.000415665 0.000602806)
(0.100828 0.00139052 0.00193946)
(0.100491 0.000791991 0.00168409)
(0.100492 0.00112439 0.00158709)
(0.101392 0.00166343 0.00218258)
(0.101086 0.00107774 0.00208355)
(0.101128 0.00154079 0.0020943)
(0.101815 0.00176108 0.00226185)
(0.101664 0.0012044 0.00217939)
(0.101767 0.00173267 0.00229464)
(0.102079 0.00175514 0.00226298)
(0.10212 0.00123984 0.00222279)
(0.10229 0.00178977 0.00236795)
(0.102213 0.00166762 0.00217792)
(0.10245 0.00120204 0.00221122)
(0.10271 0.00174351 0.00232277)
(0.102263 0.00153256 0.00204296)
(0.102678 0.00111849 0.00212755)
(0.103035 0.00162546 0.00220307)
(0.102272 0.00138 0.00188707)
(0.102838 0.00101745 0.00200677)
(0.103284 0.00147812 0.00205072)
(0.102267 0.00122666 0.00173275)
(0.102961 0.000916878 0.00187145)
(0.103489 0.0013253 0.0018916)
(0.102258 0.00108594 0.00160654)
(0.103061 0.000822781 0.00174533)
(0.103663 0.00118126 0.00174763)
(0.102249 0.000963281 0.00151873)
(0.103149 0.000737655 0.00164467)
(0.10382 0.00105421 0.00163538)
(0.102241 0.000853106 0.00146179)
(0.103233 0.0006612 0.0015686)
(0.103968 0.000942942 0.00155114)
(0.102234 0.000747629 0.00143108)
(0.10331 0.000589905 0.0015219)
(0.104109 0.000840379 0.0014913)
(0.102223 0.000639634 0.00142718)
(0.103375 0.000521165 0.00150597)
(0.104246 0.000740898 0.00145464)
(0.102202 0.00052079 0.00145536)
(0.103422 0.000451907 0.00151988)
(0.104378 0.000638551 0.00144296)
(0.102161 0.000380733 0.00152779)
(0.103447 0.000379488 0.00156969)
(0.104499 0.000526609 0.00146145)
(0.102087 0.000202994 0.00166335)
(0.103437 0.000298985 0.00167729)
(0.104605 0.000395933 0.00152096)
(0.10196 -2.80754e-05 0.00187736)
(0.103377 0.000204236 0.00186728)
(0.104683 0.000233141 0.00163403)
(0.101726 -0.000262342 0.00219843)
(0.10327 0.000105258 0.00215086)
(0.10474 3.52271e-05 0.00180681)
(0.103479 8.89482e-05 0.00252387)
(0.10504 -0.000127325 0.00207654)
(0.100243 0.000267463 0.00116246)
(0.100087 2.56471e-08 0.000707042)
(0.100064 0.000135835 0.000537367)
(0.100782 0.000465849 0.00182635)
(0.100477 7.48913e-08 0.00161788)
(0.100463 0.000370964 0.00142425)
(0.101401 0.000575725 0.00207641)
(0.101065 1.2958e-07 0.00203483)
(0.101089 0.000525305 0.00193378)
(0.101987 0.000623281 0.00213458)
(0.101694 2.43721e-07 0.00211796)
(0.101797 0.00060612 0.00212898)
(0.102506 0.000631792 0.00216629)
(0.102268 4.62705e-07 0.00215103)
(0.102489 0.000639736 0.0022118)
(0.102933 0.000611402 0.00215874)
(0.102741 8.23944e-07 0.00218115)
(0.103119 0.000634882 0.00224284)
(0.103275 0.000572954 0.00209142)
(0.103123 1.37626e-06 0.00213563)
(0.103686 0.000602036 0.00219831)
(0.103551 0.000528104 0.00199254)
(0.103426 2.26872e-06 0.0020461)
(0.104183 0.000556626 0.00210788)
(0.103782 0.000485203 0.00188606)
(0.103677 3.83524e-06 0.00193731)
(0.104618 0.000509706 0.00199546)