/*--------------------------------*- C++ -*----------------------------------*\
| =========                 |                                                 |
| \\      /  F ield         | OpenFOAM: The Open Source CFD Toolbox           |
|  \\    /   O peration     | Version:  2212                                  |
|   \\  /    A nd           | Website:  www.openfoam.com                      |
|    \\/     M anipulation  |                                                 |
\*---------------------------------------------------------------------------*/
FoamFile
{
    version     2.0;
    format      ascii;
    arch        "LSB;label=32;scalar=64";
    class       surfaceScalarField;
    location    "2.7";
    object      phi;
}
// * * * * * * * * * * * * * * * * * * * * * * * * * * * * * * * * * * * * * //

dimensions      [0 3 -1 0 0 0 0];

oriented        oriented;

internalField   nonuniform List<scalar> 
1812
(
8.03704e-08
-3.44491e-08
3.75183e-08
7.82159e-08
-3.45124e-08
3.6667e-08
7.65328e-08
-3.46121e-08
3.62953e-08
7.51179e-08
-3.46478e-08
3.60629e-08
7.38787e-08
-3.46166e-08
3.58561e-08
7.27517e-08
-3.45449e-08
3.56721e-08
7.16893e-08
-3.4442e-08
3.55047e-08
-3.43285e-08
3.5337e-08
2.4135e-07
-6.37544e-08
3.33811e-08
2.38305e-07
-6.42396e-08
3.27716e-08
2.3575e-07
-6.4451e-08
3.2394e-08
2.33337e-07
-6.4472e-08
3.22381e-08
2.30944e-07
-6.44165e-08
3.21926e-08
2.28536e-07
-6.43219e-08
3.21853e-08
2.26115e-07
-6.42191e-08
3.21982e-08
-6.40594e-08
3.21682e-08
4.55129e-07
-8.78466e-08
2.74895e-08
4.52842e-07
-8.90244e-08
2.75571e-08
4.50514e-07
-8.95774e-08
2.76658e-08
4.48121e-07
-8.98751e-08
2.78173e-08
4.45589e-07
-8.9981e-08
2.80405e-08
4.42853e-07
-8.99498e-08
2.827e-08
4.39905e-07
-8.9864e-08
2.84903e-08
4.3675e-07
-8.97427e-08
2.86791e-08
-8.95775e-08
2.88604e-08
6.04644e-07
-1.08921e-07
1.02172e-08
6.1603e-07
-1.08133e-07
1.38786e-08
6.23912e-07
-1.0852e-07
1.54305e-08
6.28976e-07
-1.09349e-07
1.6438e-08
6.32221e-07
-1.09757e-07
1.74879e-08
6.33798e-07
-1.09757e-07
1.86022e-08
6.33953e-07
-1.09574e-07
1.95439e-08
6.32975e-07
-1.09315e-07
2.03116e-08
6.31038e-07
-1.08989e-07
2.09763e-08
6.28305e-07
-1.08664e-07
2.15337e-08
6.24899e-07
-1.08351e-07
2.20147e-08
-1.07985e-07
2.2426e-08
7.21936e-07
-1.24931e-07
4.70038e-09
7.33528e-07
-1.2553e-07
5.80544e-09
7.43288e-07
-1.25235e-07
6.95498e-09
7.50492e-07
-1.24755e-07
8.20241e-09
7.55384e-07
-1.24128e-07
9.47858e-09
7.5813e-07
-1.23341e-07
1.08389e-08
7.59049e-07
-1.22449e-07
1.19566e-08
7.58378e-07
-1.21525e-07
1.28813e-08
7.5636e-07
-1.20648e-07
1.36774e-08
7.53224e-07
-1.19885e-07
1.43562e-08
7.4917e-07
-1.19223e-07
1.49274e-08
-1.18602e-07
1.5401e-08
8.05184e-07
-1.30646e-07
8.01865e-10
8.09486e-07
-1.32322e-07
2.48919e-09
8.12794e-07
-1.32183e-07
3.6406e-09
8.1446e-07
-1.30986e-07
4.56494e-09
8.14289e-07
-1.29372e-07
5.41534e-09
8.12411e-07
-1.27634e-07
6.17065e-09
8.09052e-07
-1.25906e-07
6.81561e-09
8.04498e-07
-1.24297e-07
7.32593e-09
7.98997e-07
-1.22845e-07
7.69804e-09
7.92774e-07
-1.21621e-07
7.95881e-09
7.86066e-07
-1.20648e-07
8.13322e-09
-1.19829e-07
8.23921e-09
8.18223e-07
-1.27474e-07
-1.19967e-09
8.1511e-07
-1.30255e-07
1.04563e-09
8.09652e-07
-1.28968e-07
2.24219e-09
8.02053e-07
-1.26168e-07
2.78152e-09
7.92799e-07
-1.23049e-07
2.93026e-09
7.8249e-07
-1.20165e-07
2.84034e-09
7.71625e-07
-1.17662e-07
2.62217e-09
7.60645e-07
-1.15607e-07
2.28932e-09
7.49861e-07
-1.13924e-07
1.86361e-09
7.39505e-07
-1.1265e-07
1.38622e-09
7.29678e-07
-1.11721e-07
8.99692e-10
-1.10996e-07
4.47549e-10
7.45913e-07
-1.15267e-07
-1.98395e-09
7.31048e-07
-1.17433e-07
2.04289e-09
7.13069e-07
-1.13063e-07
2.07429e-09
6.93704e-07
-1.07763e-07
9.60873e-10
6.74325e-07
-1.03318e-07
-3.51593e-10
6.56019e-07
-9.9952e-08
-1.90724e-09
6.3933e-07
-9.74585e-08
-3.51419e-09
6.24454e-07
-9.57076e-08
-5.0229e-09
6.11346e-07
-9.4476e-08
-6.34006e-09
5.99846e-07
-9.36912e-08
-7.4585e-09
5.89711e-07
-9.32075e-08
-8.37807e-09
-9.11441e-09
5.78326e-07
-9.29145e-08
8.05295e-11
5.47818e-07
-8.97192e-08
2.79499e-09
5.1749e-07
-8.16389e-08
-1.09624e-09
4.9108e-07
-7.60778e-08
-5.27489e-09
4.69048e-07
-7.23973e-08
-8.88887e-09
4.51375e-07
-7.02785e-08
-1.20002e-08
4.3747e-07
-6.90412e-08
-1.45124e-08
4.26492e-07
-6.83368e-08
-1.63926e-08
4.17627e-07
-6.787e-08
-1.774e-08
4.10174e-07
-6.7592e-08
-1.86461e-08
-6.74372e-08
-1.92712e-08
3.43258e-07
-5.51722e-08
2.99266e-09
3.02764e-07
-4.68164e-08
-2.40904e-09
2.74365e-07
-4.17524e-08
-1.14865e-08
2.56133e-07
-3.94374e-08
-1.84082e-08
2.44292e-07
-3.75205e-08
-2.30359e-08
2.36153e-07
-3.66589e-08
-2.54804e-08
2.30197e-07
-3.62893e-08
-2.67959e-08
2.25492e-07
-3.60566e-08
-2.75745e-08
2.21574e-07
-3.585e-08
-2.81017e-08
2.18148e-07
-3.56708e-08
-2.84943e-08
-3.54971e-08
-2.8831e-08
1.22601e-07
-1.23615e-08
9.9187e-08
-2.34028e-08
8.87426e-08
-3.13081e-08
8.3412e-08
-3.41068e-08
8.03193e-08
-3.44277e-08
7.81653e-08
-3.45049e-08
7.64882e-08
-3.46121e-08
7.50904e-08
-3.46587e-08
7.38761e-08
-3.46356e-08
7.27695e-08
-3.4564e-08
-3.44696e-08
2.44283e-07
-2.30232e-08
7.23806e-08
2.36187e-07
-2.545e-08
7.02134e-08
2.30242e-07
-2.67924e-08
6.90321e-08
2.25507e-07
-2.75789e-08
6.83771e-08
2.21537e-07
-2.81092e-08
6.79359e-08
2.18063e-07
-2.85121e-08
6.76577e-08
2.1491e-07
-2.88109e-08
6.74694e-08
-2.90673e-08
6.73893e-08
5.68476e-07
-4.57573e-08
6.53444e-08
5.6084e-07
-4.83737e-08
6.33322e-08
5.54678e-07
-5.02467e-08
6.20096e-08
5.49582e-07
-5.15539e-08
6.13096e-08
5.45193e-07
-5.24898e-08
6.09624e-08
5.41282e-07
-5.32012e-08
6.07853e-08
5.37663e-07
-5.37161e-08
6.07227e-08
-5.41842e-08
6.06273e-08
8.31497e-07
-6.71073e-08
5.46695e-08
8.2954e-07
-6.95228e-08
5.32791e-08
8.27945e-07
-7.15052e-08
5.23928e-08
8.26746e-07
-7.31173e-08
5.1887e-08
8.25917e-07
-7.43417e-08
5.16568e-08
8.25352e-07
-7.52539e-08
5.15991e-08
8.24941e-07
-7.59305e-08
5.16311e-08
8.24602e-07
-7.64256e-08
5.17274e-08
-7.68087e-08
5.18222e-08
9.96221e-07
-9.13893e-08
3.51678e-08
1.00253e-06
-9.07285e-08
3.56643e-08
1.00807e-06
-9.06755e-08
3.62771e-08
1.01245e-06
-9.14564e-08
3.64029e-08
1.01632e-06
-9.23903e-08
3.64856e-08
1.01993e-06
-9.31826e-08
3.6671e-08
1.02325e-06
-9.38185e-08
3.69265e-08
1.02625e-06
-9.42922e-08
3.72621e-08
1.02893e-06
-9.4596e-08
3.76426e-08
1.03126e-06
-9.47545e-08
3.80275e-08
1.03325e-06
-9.4802e-08
3.83979e-08
-9.47734e-08
3.87374e-08
1.12068e-06
-1.06557e-07
2.00994e-08
1.12412e-06
-1.07931e-07
1.95704e-08
1.12924e-06
-1.08575e-07
1.97368e-08
1.13475e-06
-1.08879e-07
2.01114e-08
1.14017e-06
-1.08953e-07
2.06258e-08
1.14532e-06
-1.08779e-07
2.12766e-08
1.14997e-06
-1.08433e-07
2.1928e-08
1.15406e-06
-1.08001e-07
2.24929e-08
1.15762e-06
-1.07476e-07
2.30048e-08
1.16062e-06
-1.06895e-07
2.34893e-08
1.16312e-06
-1.06299e-07
2.39326e-08
-1.05716e-07
2.43253e-08
1.18148e-06
-1.13032e-07
6.77216e-09
1.18411e-06
-1.14877e-07
6.80112e-09
1.18782e-06
-1.15789e-07
7.15195e-09
1.19175e-06
-1.15818e-07
7.57141e-09
1.19546e-06
-1.15259e-07
8.01055e-09
1.19871e-06
-1.14326e-07
8.46979e-09
1.20133e-06
-1.13161e-07
8.92017e-09
1.20333e-06
-1.11924e-07
9.24814e-09
1.20482e-06
-1.10698e-07
9.43147e-09
1.20588e-06
-1.09544e-07
9.54565e-09
1.20657e-06
-1.08486e-07
9.63346e-09
-1.07543e-07
9.69084e-09
1.16342e-06
-1.09874e-07
-5.65247e-09
1.16587e-06
-1.12043e-07
-4.23397e-09
1.16801e-06
-1.12375e-07
-3.31016e-09
1.16919e-06
-1.11359e-07
-2.86149e-09
1.16938e-06
-1.09806e-07
-2.71107e-09
1.16864e-06
-1.07979e-07
-2.76345e-09
1.16718e-06
-1.06073e-07
-3.01024e-09
1.16529e-06
-1.04303e-07
-3.43643e-09
1.16319e-06
-1.02774e-07
-3.9635e-09
1.16103e-06
-1.0149e-07
-4.51197e-09
1.15891e-06
-1.00428e-07
-5.03416e-09
-9.95639e-08
-5.5285e-09
1.05225e-06
-9.89164e-08
-1.70542e-08
1.05683e-06
-1.00846e-07
-1.37379e-08
1.05805e-06
-9.89097e-08
-1.26116e-08
1.05618e-06
-9.55823e-08
-1.29422e-08
1.05233e-06
-9.25397e-08
-1.37682e-08
1.04738e-06
-8.99482e-08
-1.49914e-08
1.04204e-06
-8.78166e-08
-1.64306e-08
1.03681e-06
-8.62277e-08
-1.78673e-08
1.03195e-06
-8.50594e-08
-1.91939e-08
1.0276e-06
-8.42464e-08
-2.03523e-08
1.02381e-06
-8.36627e-08
-2.13567e-08
-2.22065e-08
8.58149e-07
-8.07313e-08
-2.68347e-08
8.64022e-07
-8.10526e-08
-2.28715e-08
8.62452e-07
-7.51509e-08
-2.32854e-08
8.5636e-07
-6.90562e-08
-2.5709e-08
8.48617e-07
-6.53422e-08
-2.83426e-08
8.40785e-07
-6.32561e-08
-3.08608e-08
8.33554e-07
-6.19841e-08
-3.31133e-08
8.27201e-07
-6.13066e-08
-3.49605e-08
8.21773e-07
-6.09696e-08
-3.64023e-08
8.17222e-07
-6.08088e-08
-3.75318e-08
-6.06885e-08
-3.84381e-08
5.98585e-07
-5.40137e-08
-3.38137e-08
5.97972e-07
-5.04834e-08
-3.23648e-08
5.88345e-07
-4.06777e-08
-3.63334e-08
5.77696e-07
-3.50346e-08
-4.17802e-08
5.68464e-07
-3.33858e-08
-4.57605e-08
5.60909e-07
-3.27528e-08
-4.8428e-08
5.54768e-07
-3.23918e-08
-5.02473e-08
5.49653e-07
-3.22275e-08
-5.15384e-08
5.45236e-07
-3.21809e-08
-5.24736e-08
5.41291e-07
-3.21848e-08
-5.31731e-08
-3.21691e-08
-5.37643e-08
2.90266e-07
-4.41177e-08
2.65543e-07
-4.91629e-08
2.51861e-07
-5.83039e-08
2.45386e-07
-6.26663e-08
2.41294e-07
-6.37215e-08
2.38209e-07
-6.41727e-08
2.35648e-07
-6.4443e-08
2.33277e-07
-6.45155e-08
2.3094e-07
-6.44795e-08
2.28579e-07
-6.43869e-08
-6.42561e-08
4.91e-07
-5.26248e-09
1.0776e-07
4.68996e-07
-8.89192e-09
1.03276e-07
4.51344e-07
-1.20348e-08
9.99e-08
4.37435e-07
-1.45113e-08
9.7452e-08
4.26428e-07
-1.6357e-08
9.57414e-08
4.17514e-07
-1.76871e-08
9.4537e-08
4.10014e-07
-1.85974e-08
9.37553e-08
4.03452e-07
-1.92331e-08
9.32647e-08
-1.96811e-08
9.29785e-08
8.56432e-07
-2.5718e-08
9.55651e-08
8.48636e-07
-2.83114e-08
9.25597e-08
8.40759e-07
-3.08165e-08
8.99905e-08
8.3348e-07
-3.30768e-08
8.78547e-08
8.27112e-07
-3.49353e-08
8.62556e-08
8.21699e-07
-3.639e-08
8.50782e-08
8.17161e-07
-3.7531e-08
8.42568e-08
8.13384e-07
-3.84225e-08
8.36892e-08
-3.9174e-08
8.32476e-08
1.10903e-06
-4.83116e-08
7.57787e-08
1.1094e-06
-4.97015e-08
7.43048e-08
1.10923e-06
-5.12271e-08
7.29714e-08
1.10891e-06
-5.27404e-08
7.18703e-08
1.10871e-06
-5.40974e-08
7.10122e-08
1.1088e-06
-5.52537e-08
7.03722e-08
1.10922e-06
-5.62288e-08
6.99108e-08
1.10996e-06
-5.70335e-08
6.95987e-08
-5.77129e-08
6.93682e-08
1.27617e-06
-6.90368e-08
5.2944e-08
1.28005e-06
-6.84898e-08
5.2652e-08
1.285e-06
-6.84096e-08
5.23665e-08
1.28989e-06
-6.8799e-08
5.19983e-08
1.29453e-06
-6.94617e-08
5.16083e-08
1.29894e-06
-7.02145e-08
5.1244e-08
1.30315e-06
-7.09831e-08
5.09621e-08
1.3072e-06
-7.16658e-08
5.0775e-08
1.31116e-06
-7.22396e-08
5.06733e-08
1.31503e-06
-7.27112e-08
5.06377e-08
1.31883e-06
-7.30896e-08
5.06525e-08
-7.33897e-08
5.0697e-08
1.38728e-06
-8.3214e-08
2.93822e-08
1.39307e-06
-8.3648e-08
2.89343e-08
1.39942e-06
-8.38853e-08
2.88601e-08
1.40594e-06
-8.4072e-08
2.88666e-08
1.41243e-06
-8.42358e-08
2.89137e-08
1.4188e-06
-8.43374e-08
2.90217e-08
1.42497e-06
-8.43849e-08
2.9162e-08
1.43086e-06
-8.437e-08
2.93054e-08
1.43646e-06
-8.42823e-08
2.94502e-08
1.44178e-06
-8.41386e-08
2.96001e-08
1.44683e-06
-8.3961e-08
2.97506e-08
-8.37663e-08
2.98952e-08
1.43632e-06
-8.94509e-08
7.88133e-09
1.44181e-06
-9.02123e-08
7.87981e-09
1.44773e-06
-9.06601e-08
8.007e-09
1.45384e-06
-9.07508e-08
8.14086e-09
1.4599e-06
-9.05619e-08
8.2689e-09
1.46581e-06
-9.01729e-08
8.3965e-09
1.47148e-06
-8.96394e-08
8.50795e-09
1.47682e-06
-8.90294e-08
8.56803e-09
1.4818e-06
-8.84024e-08
8.56933e-09
1.48647e-06
-8.77929e-08
8.53506e-09
1.49087e-06
-8.72239e-08
8.4884e-09
-8.66997e-08
8.43452e-09
1.40646e-06
-8.71599e-08
-1.23747e-08
1.41161e-06
-8.79925e-08
-1.16e-08
1.41709e-06
-8.83568e-08
-1.11e-08
1.42234e-06
-8.79891e-08
-1.08732e-08
1.42715e-06
-8.72254e-08
-1.08494e-08
1.43146e-06
-8.62716e-08
-1.09764e-08
1.4353e-06
-8.52552e-08
-1.12351e-08
1.43874e-06
-8.42901e-08
-1.16148e-08
1.44187e-06
-8.34247e-08
-1.20727e-08
1.44479e-06
-8.26766e-08
-1.25504e-08
1.44758e-06
-8.205e-08
-1.30016e-08
-8.15242e-08
-1.34326e-08
1.28994e-06
-7.65965e-08
-3.15957e-08
1.29607e-06
-7.76101e-08
-3.02456e-08
1.30172e-06
-7.71659e-08
-2.94599e-08
1.306e-06
-7.57779e-08
-2.94344e-08
1.30916e-06
-7.42773e-08
-2.98718e-08
1.31145e-06
-7.29414e-08
-3.06077e-08
1.31313e-06
-7.18475e-08
-3.15254e-08
1.31447e-06
-7.09985e-08
-3.24981e-08
1.31569e-06
-7.03664e-08
-3.34701e-08
1.31694e-06
-6.99085e-08
-3.43746e-08
1.31832e-06
-6.95873e-08
-3.51936e-08
-3.59136e-08
1.09906e-06
-5.68874e-08
-4.93909e-08
1.10404e-06
-5.78312e-08
-4.7625e-08
1.10755e-06
-5.66079e-08
-4.7352e-08
1.10906e-06
-5.46832e-08
-4.83143e-08
1.10944e-06
-5.32665e-08
-4.97304e-08
1.10928e-06
-5.23853e-08
-5.12627e-08
1.10898e-06
-5.1891e-08
-5.27682e-08
1.10879e-06
-5.16589e-08
-5.41147e-08
1.10888e-06
-5.15954e-08
-5.52612e-08
1.1093e-06
-5.16251e-08
-5.62309e-08
-5.16707e-08
-5.70413e-08
8.32587e-07
-2.52111e-08
-6.49588e-08
8.33895e-07
-2.88515e-08
-6.26521e-08
8.33379e-07
-2.81415e-08
-6.42837e-08
8.31529e-07
-2.75101e-08
-6.7104e-08
8.29614e-07
-2.75753e-08
-6.95369e-08
8.28024e-07
-2.77039e-08
-7.15192e-08
8.26829e-07
-2.78199e-08
-7.31232e-08
8.25987e-07
-2.80086e-08
-7.43473e-08
8.25402e-07
-2.82234e-08
-7.52607e-08
8.24984e-07
-2.84439e-08
-7.59359e-08
-2.86297e-08
-7.64707e-08
4.53746e-07
-8.67343e-08
4.58588e-07
-8.28566e-08
4.57342e-07
-8.51987e-08
4.5499e-07
-8.78245e-08
4.52683e-07
-8.89907e-08
4.5037e-07
-8.95631e-08
4.48004e-07
-8.98972e-08
4.45506e-07
-9.00255e-08
4.42801e-07
-8.99982e-08
4.39872e-07
-8.99017e-08
-8.97612e-08
6.93619e-07
9.66758e-10
1.26167e-07
6.7422e-07
-3.69006e-10
1.23044e-07
6.55885e-07
-1.92148e-09
1.20156e-07
6.39178e-07
-3.51365e-09
1.17672e-07
6.24287e-07
-5.00468e-09
1.15637e-07
6.11165e-07
-6.30964e-09
1.13968e-07
5.99643e-07
-7.42097e-09
1.12698e-07
5.89478e-07
-8.33871e-09
1.11768e-07
-9.07256e-09
1.11044e-07
1.05618e-06
-1.29418e-08
1.11357e-07
1.05233e-06
-1.37696e-08
1.09813e-07
1.04737e-06
-1.4974e-08
1.08004e-07
1.04201e-06
-1.64068e-08
1.06105e-07
1.03677e-06
-1.7841e-08
1.04334e-07
1.0319e-06
-1.91678e-08
1.02802e-07
1.02755e-06
-2.03281e-08
1.01514e-07
1.02379e-06
-2.13326e-08
1.0045e-07
-2.21966e-08
9.95721e-08
1.306e-06
-2.94335e-08
8.79948e-08
1.30915e-06
-2.986e-08
8.72407e-08
1.31144e-06
-3.05865e-08
8.62951e-08
1.31312e-06
-3.15012e-08
8.52806e-08
1.31446e-06
-3.24754e-08
8.43128e-08
1.31567e-06
-3.34517e-08
8.34421e-08
1.31693e-06
-3.4361e-08
8.26876e-08
1.31832e-06
-3.51847e-08
8.20554e-08
-3.59174e-08
8.15167e-08
1.4668e-06
-4.567e-08
6.09016e-08
1.47356e-06
-4.52996e-08
6.09377e-08
1.48046e-06
-4.494e-08
6.09442e-08
1.48709e-06
-4.48555e-08
6.07874e-08
1.49335e-06
-4.50151e-08
6.05058e-08
1.49922e-06
-4.53576e-08
6.01476e-08
1.50473e-06
-4.5813e-08
5.97674e-08
1.50995e-06
-4.63184e-08
5.93962e-08
1.51495e-06
-4.68338e-08
5.90573e-08
1.51979e-06
-4.73307e-08
5.87612e-08
1.52453e-06
-4.77896e-08
5.85156e-08
-4.8203e-08
5.83134e-08
1.57976e-06
-5.64494e-08
3.35819e-08
1.58655e-06
-5.64338e-08
3.32755e-08
1.59378e-06
-5.64152e-08
3.31037e-08
1.60122e-06
-5.64371e-08
3.30119e-08
1.60868e-06
-5.64983e-08
3.2938e-08
1.61606e-06
-5.65823e-08
3.28656e-08
1.62329e-06
-5.66787e-08
3.27947e-08
1.63033e-06
-5.67735e-08
3.27245e-08
1.63715e-06
-5.68574e-08
3.26562e-08
1.64375e-06
-5.69271e-08
3.25946e-08
1.65015e-06
-5.69834e-08
3.25427e-08
-5.70266e-08
3.24985e-08
1.6211e-06
-6.16606e-08
6.24309e-09
1.6281e-06
-6.17704e-08
6.22225e-09
1.63545e-06
-6.19703e-08
6.21212e-09
1.64301e-06
-6.20515e-08
6.19706e-09
1.65061e-06
-6.20133e-08
6.1804e-09
1.65816e-06
-6.18914e-08
6.15722e-09
1.66558e-06
-6.17131e-08
6.11682e-09
1.67282e-06
-6.14946e-08
6.05409e-09
1.67982e-06
-6.12601e-08
5.96885e-09
1.68659e-06
-6.10266e-08
5.86935e-09
1.69314e-06
-6.08114e-08
5.76656e-09
-6.06149e-08
5.66627e-09
1.58246e-06
-6.09042e-08
-2.03289e-08
1.59012e-06
-6.09411e-08
-2.0086e-08
1.59783e-06
-6.09471e-08
-1.98345e-08
1.6054e-06
-6.07857e-08
-1.97083e-08
1.61274e-06
-6.04979e-08
-1.97032e-08
1.6198e-06
-6.01353e-08
-1.97944e-08
1.62656e-06
-5.97534e-08
-1.99599e-08
1.63303e-06
-5.93827e-08
-2.01934e-08
1.63922e-06
-5.90459e-08
-2.0472e-08
1.64516e-06
-5.87529e-08
-2.07711e-08
1.65093e-06
-5.85113e-08
-2.10679e-08
-5.83153e-08
-2.13538e-08
1.4668e-06
-5.29448e-08
-4.56719e-08
1.47357e-06
-5.2654e-08
-4.52985e-08
1.48047e-06
-5.2374e-08
-4.49371e-08
1.48711e-06
-5.20001e-08
-4.48567e-08
1.49337e-06
-5.16026e-08
-4.50233e-08
1.49923e-06
-5.12355e-08
-4.53715e-08
1.50473e-06
-5.09535e-08
-4.58294e-08
1.50996e-06
-5.07672e-08
-4.63343e-08
1.51495e-06
-5.06663e-08
-4.68471e-08
1.5198e-06
-5.06306e-08
-4.73404e-08
1.52453e-06
-5.06449e-08
-4.77946e-08
-4.82008e-08
1.27618e-06
-3.51763e-08
-6.9041e-08
1.28005e-06
-3.56612e-08
-6.84936e-08
1.28503e-06
-3.62891e-08
-6.84094e-08
1.28993e-06
-3.64132e-08
-6.88047e-08
1.29457e-06
-3.6494e-08
-6.94771e-08
1.29898e-06
-3.66766e-08
-7.0236e-08
1.30319e-06
-3.69267e-08
-7.10025e-08
1.30724e-06
-3.72559e-08
-7.1681e-08
1.3112e-06
-3.76306e-08
-7.225e-08
1.31506e-06
-3.80104e-08
-7.2718e-08
-3.83671e-08
-7.30931e-08
9.96196e-07
-1.02404e-08
-9.13868e-08
1.00252e-06
-1.38961e-08
-9.07369e-08
1.00807e-06
-1.54508e-08
-9.06795e-08
1.01248e-06
-1.64562e-08
-9.14632e-08
1.01636e-06
-1.75107e-08
-9.24012e-08
1.01997e-06
-1.86118e-08
-9.31961e-08
1.02329e-06
-1.95356e-08
-9.38339e-08
1.02628e-06
-2.02924e-08
-9.43078e-08
1.02896e-06
-2.09528e-08
-9.46106e-08
1.03129e-06
-2.15118e-08
-9.47689e-08
-2.19916e-08
-9.48229e-08
6.04602e-07
-1.08913e-07
6.15963e-07
-1.08114e-07
6.23818e-07
-1.08504e-07
6.2887e-07
-1.09333e-07
6.32116e-07
-1.09747e-07
6.33701e-07
-1.0976e-07
6.33864e-07
-1.09596e-07
6.32897e-07
-1.0935e-07
6.30974e-07
-1.09028e-07
6.28255e-07
-1.08695e-07
-1.08383e-07
8.0197e-07
2.78343e-09
7.92687e-07
2.93368e-09
7.82349e-07
2.84472e-09
7.71467e-07
2.63052e-09
7.60479e-07
2.29898e-09
7.4969e-07
1.87698e-09
7.39325e-07
1.40366e-09
7.29487e-07
9.20206e-10
4.70527e-10
1.16918e-06
-2.87535e-09
1.16937e-06
-2.71089e-09
1.16862e-06
-2.75e-09
1.16716e-06
-2.99111e-09
1.16526e-06
-3.42116e-09
1.16316e-06
-3.94893e-09
1.161e-06
-4.49605e-09
1.15888e-06
-5.01745e-09
-5.51439e-09
1.42232e-06
-1.08773e-08
1.42713e-06
-1.08468e-08
1.43145e-06
-1.0966e-08
1.43529e-06
-1.12209e-08
1.43873e-06
-1.1601e-08
1.44186e-06
-1.20601e-08
1.44478e-06
-1.25398e-08
1.44758e-06
-1.29934e-08
-1.3429e-08
1.58246e-06
-2.03258e-08
6.16599e-08
1.59012e-06
-2.00861e-08
6.17683e-08
1.59782e-06
-1.98364e-08
6.19687e-08
1.60539e-06
-1.97093e-08
6.20534e-08
1.61273e-06
-1.97008e-08
6.20209e-08
1.61979e-06
-1.97881e-08
6.19044e-08
1.62656e-06
-1.99511e-08
6.17293e-08
1.63303e-06
-2.01842e-08
6.15114e-08
1.63921e-06
-2.04636e-08
6.12755e-08
1.64516e-06
-2.07645e-08
6.10388e-08
1.65093e-06
-2.10637e-08
6.08193e-08
-2.13532e-08
6.06178e-08
1.69401e-06
-2.74572e-08
3.23412e-08
1.70242e-06
-2.74962e-08
3.22757e-08
1.71089e-06
-2.74604e-08
3.22616e-08
1.71936e-06
-2.74204e-08
3.22488e-08
1.72778e-06
-2.74087e-08
3.22229e-08
1.7361e-06
-2.74274e-08
3.21843e-08
1.74428e-06
-2.74702e-08
3.21374e-08
1.75227e-06
-2.75347e-08
3.20822e-08
1.76006e-06
-2.76148e-08
3.2022e-08
1.76763e-06
-2.77032e-08
3.19611e-08
1.775e-06
-2.77937e-08
3.1903e-08
-2.78844e-08
3.18471e-08
1.73269e-06
-3.23409e-08
2.37418e-09
1.74132e-06
-3.22753e-08
2.37339e-09
1.74999e-06
-3.22608e-08
2.34421e-09
1.7587e-06
-3.22464e-08
2.31093e-09
1.7674e-06
-3.22181e-08
2.28924e-09
1.77604e-06
-3.2177e-08
2.26912e-09
1.78458e-06
-3.21284e-08
2.23907e-09
1.79297e-06
-3.20723e-08
2.20151e-09
1.80117e-06
-3.20124e-08
2.15744e-09
1.80918e-06
-3.19528e-08
2.10921e-09
1.81699e-06
-3.18969e-08
2.05979e-09
-3.18437e-08
2.01072e-09
1.69401e-06
-3.3583e-08
-2.74587e-08
1.70242e-06
-3.32758e-08
-2.74965e-08
1.71089e-06
-3.31035e-08
-2.74598e-08
1.71936e-06
-3.30102e-08
-2.742e-08
1.72779e-06
-3.29342e-08
-2.74095e-08
1.73611e-06
-3.286e-08
-2.74299e-08
1.74428e-06
-3.27878e-08
-2.7474e-08
1.75227e-06
-3.2717e-08
-2.75391e-08
1.76005e-06
-3.26489e-08
-2.76191e-08
1.76762e-06
-3.25884e-08
-2.77067e-08
1.77499e-06
-3.25385e-08
-2.77959e-08
-3.24967e-08
-2.78844e-08
1.57976e-06
-2.9385e-08
-5.64499e-08
1.58656e-06
-2.89355e-08
-5.6433e-08
1.59379e-06
-2.88613e-08
-5.64139e-08
1.60123e-06
-2.88668e-08
-5.64374e-08
1.60868e-06
-2.89123e-08
-5.65019e-08
1.61606e-06
-2.90188e-08
-5.65893e-08
1.62329e-06
-2.91576e-08
-5.66879e-08
1.63032e-06
-2.92992e-08
-5.67835e-08
1.63713e-06
-2.94429e-08
-5.68668e-08
1.64373e-06
-2.95925e-08
-5.69349e-08
1.65013e-06
-2.97442e-08
-5.69886e-08
-5.70283e-08
1.38728e-06
-2.01067e-08
-8.32148e-08
1.39308e-06
-1.95746e-08
-8.36497e-08
1.39943e-06
-1.97407e-08
-8.38871e-08
1.40595e-06
-2.01155e-08
-8.40762e-08
1.41244e-06
-2.06296e-08
-8.42441e-08
1.41881e-06
-2.12788e-08
-8.43491e-08
1.42497e-06
-2.19255e-08
-8.43975e-08
1.43086e-06
-2.2485e-08
-8.4382e-08
1.43645e-06
-2.29928e-08
-8.42928e-08
1.44176e-06
-2.34741e-08
-8.41473e-08
-2.39139e-08
-8.39672e-08
1.12067e-06
-4.71156e-09
-1.06555e-07
1.12411e-06
-5.8184e-09
-1.07934e-07
1.12924e-06
-6.96627e-09
-1.08581e-07
1.13476e-06
-8.21194e-09
-1.08886e-07
1.14017e-06
-9.48662e-09
-1.08962e-07
1.14533e-06
-1.08421e-08
-1.0879e-07
1.14997e-06
-1.19531e-08
-1.08444e-07
1.15406e-06
-1.28714e-08
-1.08014e-07
1.15761e-06
-1.36632e-08
-1.07489e-07
1.16062e-06
-1.43408e-08
-1.06908e-07
-1.49071e-08
-1.06312e-07
7.21907e-07
-1.24928e-07
7.335e-07
-1.25525e-07
7.4326e-07
-1.2523e-07
7.50466e-07
-1.24751e-07
7.5536e-07
-1.24128e-07
7.58104e-07
-1.23347e-07
7.59017e-07
-1.22462e-07
7.58342e-07
-1.21547e-07
7.56325e-07
-1.20674e-07
7.53197e-07
-1.19909e-07
-1.19247e-07
1.62111e-06
6.24742e-09
1.6281e-06
6.22537e-09
1.63545e-06
6.21427e-09
1.64301e-06
6.19848e-09
1.65061e-06
6.1818e-09
1.65816e-06
6.15921e-09
1.66558e-06
6.11921e-09
1.67282e-06
6.05633e-09
1.67982e-06
5.97072e-09
1.68659e-06
5.87077e-09
1.69314e-06
5.76723e-09
5.66568e-09
1.7327e-06
2.37641e-09
1.74132e-06
2.37479e-09
1.74999e-06
2.34466e-09
1.7587e-06
2.31041e-09
1.76741e-06
2.28805e-09
1.77604e-06
2.26772e-09
1.78458e-06
2.23754e-09
1.79297e-06
2.1998e-09
1.80118e-06
2.15553e-09
1.80919e-06
2.10708e-09
1.817e-06
2.05732e-09
2.00782e-09
1.76945e-06
-2.37316e-09
1.77895e-06
-2.37205e-09
1.78832e-06
-2.34255e-09
1.79756e-06
-2.30885e-09
1.80671e-06
-2.2866e-09
1.81577e-06
-2.26596e-09
1.82472e-06
-2.23543e-09
1.83351e-06
-2.19761e-09
1.84212e-06
-2.15368e-09
1.85055e-06
-2.10606e-09
1.85877e-06
-2.05759e-09
-2.00929e-09
1.73269e-06
-6.24266e-09
1.74132e-06
-6.22075e-09
1.74999e-06
-6.21035e-09
1.7587e-06
-6.19539e-09
1.7674e-06
-6.17875e-09
1.77604e-06
-6.15546e-09
1.78457e-06
-6.11467e-09
1.79296e-06
-6.05136e-09
1.80117e-06
-5.96589e-09
1.80918e-06
-5.86689e-09
1.81699e-06
-5.76526e-09
-5.66551e-09
1.62111e-06
-7.88165e-09
1.6281e-06
-7.87705e-09
1.63545e-06
-8.00477e-09
1.64301e-06
-8.13968e-09
1.65061e-06
-8.26828e-09
1.65815e-06
-8.39569e-09
1.66557e-06
-8.50596e-09
1.6728e-06
-8.56378e-09
1.6798e-06
-8.56343e-09
1.68656e-06
-8.52885e-09
1.69311e-06
-8.48397e-09
1.43632e-06
-6.77352e-09
1.4418e-06
-6.79934e-09
1.44772e-06
-7.15162e-09
1.45383e-06
-7.57223e-09
1.4599e-06
-8.01211e-09
1.4658e-06
-8.47097e-09
1.47146e-06
-8.91806e-09
1.4768e-06
-9.23999e-09
1.48177e-06
-9.41974e-09
1.48643e-06
-9.5319e-09
-9.62024e-09
1.18147e-06
-8.05408e-10
1.18411e-06
-2.49295e-09
1.18781e-06
-3.64429e-09
1.19175e-06
-4.56792e-09
1.19545e-06
-5.41726e-09
1.1987e-06
-6.1712e-09
1.20132e-06
-6.8134e-09
1.20332e-06
-7.31868e-09
1.2048e-06
-7.68729e-09
1.20586e-06
-7.94518e-09
-8.11647e-09
8.05166e-07
8.09468e-07
8.12776e-07
8.14442e-07
8.14271e-07
8.12392e-07
8.09031e-07
8.04475e-07
7.98972e-07
7.92751e-07
)
;

boundaryField
{
    inlet
    {
        type            calculated;
        value           nonuniform List<scalar> 0();
    }
    ami1
    {
        type            cyclicAMI;
        value           nonuniform List<scalar> 0();
    }
    walls
    {
        type            calculated;
        value           nonuniform List<scalar> 
227
(
1.28555e-14
6.40674e-15
4.42025e-22
-6.40674e-15
-1.28555e-14
-1.84387e-14
-2.43942e-14
-2.90979e-14
1.28555e-14
6.40674e-15
2.02142e-22
-6.40674e-15
-1.28555e-14
-1.84387e-14
-2.43942e-14
-2.90979e-14
1.28555e-14
6.40674e-15
4.42025e-22
-6.40674e-15
-1.28555e-14
-1.84387e-14
-2.43942e-14
-2.90979e-14
1.84387e-14
1.28555e-14
6.40674e-15
4.42025e-22
-6.40674e-15
-1.28555e-14
-1.84387e-14
-2.43942e-14
-2.90979e-14
2.90979e-14
2.43942e-14
1.84387e-14
1.28555e-14
6.40674e-15
4.42025e-22
-6.40674e-15
-1.28555e-14
-1.84387e-14
-2.43942e-14
-2.90979e-14
2.90979e-14
2.43942e-14
1.84387e-14
1.28555e-14
6.40674e-15
2.04727e-22
-6.40674e-15
-1.28555e-14
-1.84387e-14
-2.43942e-14
-2.90979e-14
2.90979e-14
2.43942e-14
1.84387e-14
1.28555e-14
6.40674e-15
4.42025e-22
-6.40674e-15
-1.28555e-14
-1.84387e-14
-2.43942e-14
-2.90979e-14
2.90979e-14
2.43942e-14
1.84387e-14
1.28555e-14
6.40674e-15
4.40732e-22
-6.40674e-15
-1.28555e-14
-1.84387e-14
-2.43942e-14
-2.90979e-14
2.90979e-14
2.43942e-14
1.84387e-14
1.28555e-14
6.40674e-15
4.428e-22
-6.40674e-15
-1.28555e-14
-1.84387e-14
-2.43942e-14
-2.90979e-14
2.90979e-14
2.43942e-14
1.84387e-14
1.28555e-14
6.40674e-15
2.02918e-22
-6.40674e-15
-1.28555e-14
-1.84387e-14
-2.43942e-14
-2.90979e-14
2.90979e-14
2.43942e-14
1.84387e-14
1.28555e-14
6.40674e-15
4.40991e-22
-6.40674e-15
-1.28555e-14
-1.84387e-14
-2.43942e-14
-2.90979e-14
2.90979e-14
2.43942e-14
1.84387e-14
1.28555e-14
6.40674e-15
4.40991e-22
-6.40674e-15
-1.28555e-14
2.90979e-14
2.43942e-14
1.84387e-14
1.28555e-14
6.40674e-15
4.42025e-22
2.90979e-14
2.43942e-14
1.84387e-14
1.28555e-14
6.40674e-15
2.02142e-22
2.90979e-14
2.43942e-14
1.84387e-14
1.28555e-14
6.40674e-15
4.42025e-22
2.90979e-14
2.43942e-14
1.84387e-14
1.28555e-14
6.40674e-15
4.42025e-22
2.90979e-14
2.43942e-14
1.84387e-14
1.28555e-14
6.40674e-15
4.42025e-22
2.90979e-14
2.43942e-14
1.84387e-14
1.28555e-14
6.40674e-15
2.04727e-22
2.90979e-14
2.43942e-14
1.84387e-14
1.28555e-14
6.40674e-15
4.42025e-22
2.90979e-14
2.43942e-14
1.84387e-14
1.28555e-14
6.40674e-15
4.40732e-22
2.90979e-14
2.43942e-14
1.84387e-14
1.28555e-14
6.40674e-15
4.428e-22
2.90979e-14
2.43942e-14
1.84387e-14
1.28555e-14
6.40674e-15
2.02918e-22
2.90979e-14
2.43942e-14
1.84387e-14
1.28555e-14
6.40674e-15
4.40991e-22
-1.84387e-14
-1.28555e-14
-6.40674e-15
-2.90979e-14
-2.43942e-14
-1.84387e-14
-1.28555e-14
-6.40674e-15
-2.90979e-14
-2.43942e-14
-1.84387e-14
-1.28555e-14
-6.40674e-15
-2.90979e-14
-2.43942e-14
-1.84387e-14
-1.28555e-14
-6.40674e-15
-2.90979e-14
-2.43942e-14
-1.84387e-14
-1.28555e-14
-6.40674e-15
-2.90979e-14
-2.43942e-14
-1.84387e-14
-1.28555e-14
-6.40674e-15
-2.90979e-14
-2.43942e-14
-1.84387e-14
-1.28555e-14
-6.40674e-15
-2.90979e-14
-2.43942e-14
-1.84387e-14
-1.28555e-14
-6.40674e-15
-2.90979e-14
-2.43942e-14
-1.84387e-14
-1.28555e-14
-6.40674e-15
)
;
    }
    ami2
    {
        type            cyclicAMI;
        value           nonuniform List<scalar> 
48
(
-5.92684e-07
-7.10626e-07
-8.00271e-07
-8.20195e-07
-7.56137e-07
-6.00759e-07
-3.83993e-07
-1.65411e-07
-9.94736e-07
-1.12091e-06
-1.18098e-06
-1.16213e-06
-1.04813e-06
-8.49419e-07
-5.88497e-07
-3.12524e-07
-1.2743e-06
-1.38238e-06
-1.43119e-06
-1.40203e-06
-1.28596e-06
-1.09622e-06
-8.33118e-07
-4.36341e-07
-1.46068e-06
-1.57318e-06
-1.61426e-06
-1.57526e-06
-1.46069e-06
-1.2743e-06
-9.94704e-07
-5.92664e-07
-1.57526e-06
-1.68564e-06
-1.72394e-06
-1.68564e-06
-1.57318e-06
-1.38238e-06
-1.1209e-06
-7.10603e-07
-1.61426e-06
-1.72394e-06
-1.75996e-06
-1.72394e-06
-1.61426e-06
-1.43119e-06
-1.18097e-06
-8.00255e-07
)
;
    }
    outlet
    {
        type            calculated;
        value           nonuniform List<scalar> 0();
    }
    procBoundary0to1
    {
        type            processor;
        value           nonuniform List<scalar> 
138
(
-8.09601e-07
1.31014e-07
1.29394e-07
1.2765e-07
1.25923e-07
1.24325e-07
1.22881e-07
1.21659e-07
1.20685e-07
1.19865e-07
-1.16798e-06
1.15818e-07
1.15268e-07
1.14347e-07
1.13188e-07
1.11954e-07
1.10728e-07
1.09571e-07
1.0851e-07
1.07561e-07
1.23685e-08
1.1602e-08
-1.41708e-06
1.11056e-08
9.07497e-08
9.05716e-08
9.01924e-08
8.96644e-08
8.90544e-08
8.84243e-08
8.78099e-08
8.7235e-08
8.67032e-08
-7.88929e-09
-7.88624e-09
-8.0126e-09
-8.14537e-09
-8.27382e-09
-8.40258e-09
-8.51435e-09
-8.57318e-09
-8.5736e-09
-8.53886e-09
-8.49144e-09
-8.43595e-09
5.64505e-08
5.64346e-08
5.6418e-08
5.64445e-08
5.65114e-08
5.66001e-08
5.6699e-08
5.67935e-08
5.6875e-08
5.69408e-08
5.69923e-08
5.70306e-08
2.74588e-08
2.74977e-08
2.74627e-08
2.74248e-08
2.7416e-08
2.74378e-08
2.74829e-08
2.75483e-08
2.76278e-08
2.77144e-08
2.78023e-08
2.78896e-08
-2.37461e-09
-2.37311e-09
-2.3427e-09
-2.30757e-09
-2.2839e-09
-2.26234e-09
-2.23114e-09
-2.19288e-09
-2.14869e-09
-2.10088e-09
-2.05221e-09
-2.00391e-09
-3.23419e-08
-3.22762e-08
-3.22609e-08
-3.22459e-08
-3.22174e-08
-3.21767e-08
-3.21286e-08
-3.20732e-08
-3.20136e-08
-3.19541e-08
-3.18976e-08
-3.18427e-08
-6.16607e-08
-6.17706e-08
-6.19698e-08
-6.20507e-08
-6.20137e-08
-6.18938e-08
-6.17176e-08
-6.15004e-08
-6.12667e-08
-6.10334e-08
-6.08173e-08
-6.0619e-08
-8.94497e-08
-9.02124e-08
-9.06603e-08
-9.0752e-08
-9.05652e-08
-9.01787e-08
-8.96472e-08
-8.90384e-08
-8.8412e-08
-8.78026e-08
-8.72333e-08
-1.13029e-07
-1.14876e-07
-1.15791e-07
-1.15823e-07
-1.15266e-07
-1.14334e-07
-1.13169e-07
-1.11934e-07
-1.10708e-07
-1.09553e-07
-1.08497e-07
-1.30644e-07
-1.3232e-07
-1.32182e-07
-1.30986e-07
-1.29375e-07
-1.27639e-07
-1.25915e-07
-1.2431e-07
-1.22859e-07
-1.21633e-07
-1.20658e-07
)
;
    }
    procBoundary0to2
    {
        type            processor;
        value           nonuniform List<scalar> 
28
(
-8.34396e-08
-2.45425e-07
6.26681e-08
8.67445e-08
8.28687e-08
-4.5744e-07
8.52079e-08
-2.56122e-07
-7.60887e-08
-5.77706e-07
4.18069e-08
-6.90165e-08
6.49534e-08
6.26364e-08
-8.33377e-07
6.42862e-08
-5.17409e-07
-8.62525e-07
4.93849e-08
4.76291e-08
-1.10755e-06
4.73675e-08
-7.12993e-07
-1.05807e-06
3.15941e-08
3.02504e-08
-1.30172e-06
2.94654e-08
)
;
    }
    procBoundary0to8
    {
        type            processor;
        value           nonuniform List<scalar> 
29
(
7.06813e-08
2.23678e-07
4.33408e-07
6.2088e-07
7.44386e-07
2.11925e-07
5.34321e-07
8.24265e-07
1.0349e-06
1.16513e-06
3.97544e-07
8.10257e-07
1.11096e-06
1.32255e-06
1.45164e-06
5.80485e-07
1.02058e-06
1.31989e-06
1.5292e-06