/*--------------------------------*- C++ -*----------------------------------*\
| =========                 |                                                 |
| \\      /  F ield         | OpenFOAM: The Open Source CFD Toolbox           |
|  \\    /   O peration     | Version:  2212                                  |
|   \\  /    A nd           | Website:  www.openfoam.com                      |
|    \\/     M anipulation  |                                                 |
\*---------------------------------------------------------------------------*/
FoamFile
{
    version     2.0;
    format      ascii;
    arch        "LSB;label=32;scalar=64";
    class       volScalarField;
    location    "1.2";
    object      p;
}
// * * * * * * * * * * * * * * * * * * * * * * * * * * * * * * * * * * * * * //

dimensions      [0 2 -2 0 0 0 0];

internalField   nonuniform List<scalar> 
680
(
0.0178279
0.0107135
0.00842201
0.00788419
0.00760984
0.00738765
0.00720103
0.0106491
0.00991522
0.00882232
0.00815635
0.00775374
0.00747999
0.00726878
0.0103008
0.00944927
0.008685
0.00812585
0.00774966
0.00748156
0.00726579
0.00989149
0.00912876
0.00850999
0.00805865
0.00771464
0.00744554
0.0072258
0.0097573
0.00901611
0.00842793
0.00801979
0.00769782
0.00743105
0.00720943
0.00975731
0.00901613
0.00842797
0.00801985
0.00769791
0.00743119
0.00720966
0.00989156
0.00912883
0.00851008
0.00805877
0.00771483
0.00744586
0.00722635
0.0103008
0.00944934
0.00868508
0.00812596
0.00774984
0.0074819
0.00726637
0.0106491
0.00991525
0.00882236
0.0081564
0.00775384
0.00748016
0.00726906
0.0178279
0.0107135
0.00842202
0.0078842
0.00760985
0.00738765
0.00720104
0.0106491
0.00991525
0.00882236
0.0081564
0.00775384
0.00748016
0.00726906
0.0099325
0.00990079
0.00917258
0.00846208
0.00801575
0.00769983
0.00744096
0.00900701
0.00913319
0.0088303
0.00841408
0.00804693
0.00772827
0.00744966
0.0085886
0.00863211
0.00846653
0.00820358
0.00792317
0.00765179
0.00740071
0.00837265
0.00839447
0.00826727
0.00804973
0.00781729
0.00758811
0.00736525
0.00837269
0.00839452
0.00826733
0.00804985
0.00781746
0.00758835
0.00736562
0.00858871
0.00863222
0.00846667
0.00820378
0.00792346
0.0076522
0.00740133
0.00900706
0.00913326
0.0088304
0.0084142
0.0080471
0.00772853
0.0074501
0.0099325
0.0099008
0.00917258
0.00846209
0.00801575
0.00769983
0.00744097
0.0106491
0.00991523
0.00882233
0.00815635
0.00775375
0.00748
0.00726879
0.0103008
0.00944934
0.00868508
0.00812596
0.00774984
0.0074819
0.00726637
0.00900706
0.00913325
0.00883039
0.0084142
0.00804709
0.00772852
0.0074501
0.00843755
0.00853852
0.00842697
0.00820151
0.00794578
0.00768741
0.00742907
0.00806952
0.00813759
0.0080852
0.00793821
0.00775333
0.0075482
0.00733755
0.00788647
0.0079509
0.00792144
0.00779657
0.00763754
0.00746385
0.00727758
0.0078865
0.00795094
0.00792148
0.00779668
0.00763773
0.00746412
0.0072779
0.00806959
0.00813765
0.0080853
0.00793837
0.00775357
0.00754851
0.00733795
0.00843755
0.00853853
0.00842697
0.00820152
0.00794579
0.00768742
0.00742908
0.00900701
0.0091332
0.00883031
0.00841409
0.00804694
0.00772828
0.00744967
0.0103008
0.00944928
0.00868501
0.00812586
0.00774967
0.00748157
0.0072658
0.00989156
0.00912884
0.00851008
0.00805877
0.00771483
0.00744586
0.00722635
0.00858871
0.00863222
0.00846667
0.00820378
0.00792346
0.0076522
0.00740133
0.00806959
0.00813765
0.0080853
0.00793837
0.00775357
0.00754851
0.00733795
0.00777166
0.0078308
0.00781887
0.00772349
0.00758388
0.00741841
0.00723825
0.00762053
0.00768343
0.00768719
0.00761354
0.00749341
0.00734702
0.00718412
0.00762055
0.00768345
0.00768721
0.00761357
0.00749346
0.0073471
0.00718424
0.00777166
0.00783081
0.00781888
0.00772349
0.00758388
0.00741842
0.00723826
0.00806953
0.00813759
0.00808521
0.00793822
0.00775333
0.00754821
0.00733755
0.00858861
0.00863212
0.00846653
0.00820358
0.00792318
0.0076518
0.00740072
0.0098915
0.00912877
0.00851
0.00805866
0.00771465
0.00744555
0.00722581
0.00975732
0.00901614
0.00842797
0.00801986
0.00769791
0.00743119
0.00720967
0.0083727
0.00839453
0.00826734
0.00804986
0.00781747
0.00758835
0.00736563
0.0078865
0.00795094
0.00792148
0.00779668
0.00763773
0.00746412
0.00727791
0.00762055
0.00768345
0.00768721
0.00761357
0.00749346
0.0073471
0.00718424
0.00747774
0.00754725
0.00756938
0.00751684
0.00741559
0.00728465
0.00713473
0.00747774
0.00754726
0.00756938
0.00751684
0.00741559
0.00728465
0.00713473
0.00762054
0.00768343
0.00768719
0.00761354
0.00749342
0.00734703
0.00718413
0.00788647
0.00795091
0.00792144
0.00779658
0.00763755
0.00746386
0.00727758
0.00837265
0.00839448
0.00826727
0.00804974
0.0078173
0.00758812
0.00736526
0.00975731
0.00901612
0.00842793
0.0080198
0.00769783
0.00743106
0.00720944
0.0097573
0.00901612
0.00842793
0.0080198
0.00769782
0.00743105
0.00720943
0.00837265
0.00839448
0.00826727
0.00804974
0.00781729
0.00758811
0.00736526
0.00788647
0.00795091
0.00792144
0.00779658
0.00763754
0.00746386
0.00727758
0.00762054
0.00768343
0.00768719
0.00761354
0.00749342
0.00734703
0.00718413
0.00747774
0.00754726
0.00756938
0.00751684
0.00741559
0.00728466
0.00713474
0.00747774
0.00754726
0.00756938
0.00751684
0.00741559
0.00728466
0.00713474
0.00762056
0.00768345
0.00768722
0.00761358
0.00749347
0.0073471
0.00718425
0.00788651
0.00795094
0.00792149
0.00779668
0.00763773
0.00746412
0.00727791
0.0083727
0.00839453
0.00826734
0.00804986
0.00781747
0.00758836
0.00736564
0.00975732
0.00901614
0.00842797
0.00801986
0.00769792
0.0074312
0.00720967
0.0098915
0.00912877
0.00851
0.00805866
0.00771465
0.00744555
0.00722581
0.00858861
0.00863212
0.00846654
0.00820359
0.00792318
0.0076518
0.00740072
0.00806953
0.0081376
0.00808521
0.00793822
0.00775334
0.00754821
0.00733756
0.00777167
0.00783081
0.00781888
0.0077235
0.00758389
0.00741842
0.00723826
0.00762056
0.00768345
0.00768722
0.00761358
0.00749347
0.00734711
0.00718425
0.00762054
0.00768343
0.00768719
0.00761354
0.00749342
0.00734703
0.00777166
0.00783081
0.00781888
0.0077235
0.00758389
0.00741842
0.00806959
0.00813766
0.0080853
0.00793838
0.00775358
0.00754852
0.00858871
0.00863223
0.00846668
0.00820379
0.00792347
0.00765221
0.00989157
0.00912884
0.00851008
0.00805878
0.00771484
0.00744587
0.0103008
0.00944928
0.00868501
0.00812586
0.00774967
0.00748157
0.0072658
0.00900702
0.0091332
0.00883031
0.0084141
0.00804694
0.00772828
0.00744967
0.00843756
0.00853853
0.00842698
0.00820153
0.0079458
0.00768743
0.00742908
0.0080696
0.00813766
0.00808531
0.00793838
0.00775358
0.00754852
0.00733796
0.00788651
0.00795095
0.00792149
0.00779669
0.00763774
0.00746413
0.00727792
0.00788648
0.00795091
0.00792145
0.00779658
0.00763755
0.00746386
0.00806953
0.00813759
0.00808521
0.00793822
0.00775334
0.00754821
0.00843755
0.00853853
0.00842698
0.00820152
0.00794579
0.00768742
0.00900706
0.00913326
0.0088304
0.00841421
0.0080471
0.00772853
0.0103008
0.00944934
0.00868508
0.00812597
0.00774985
0.00748191
0.0106491
0.00991523
0.00882233
0.00815636
0.00775376
0.00748001
0.00726879
0.00993251
0.00990081
0.00917259
0.0084621
0.00801576
0.00769984
0.00744098
0.00900707
0.00913327
0.00883041
0.00841421
0.00804711
0.00772854
0.00745012
0.00858872
0.00863223
0.00846669
0.00820379
0.00792347
0.00765221
0.00740135
0.0083727
0.00839454
0.00826735
0.00804986
0.00781748
0.00758837
0.00736564
0.00837266
0.00839449
0.00826728
0.00804974
0.0078173
0.00758812
0.00858861
0.00863212
0.00846654
0.00820359
0.00792318
0.0076518
0.00900701
0.0091332
0.00883031
0.00841409
0.00804694
0.00772828
0.0099325
0.0099008
0.00917258
0.00846209
0.00801576
0.00769983
0.0106491
0.00991525
0.00882236
0.00815641
0.00775385
0.00748016
0.0178279
0.0107135
0.00842203
0.00788421
0.00760985
0.00738766
0.00720105
0.0106491
0.00991526
0.00882237
0.00815641
0.00775385
0.00748017
0.00726908
0.0103009
0.00944935
0.00868509
0.00812597
0.00774986
0.00748192
0.00726638
0.00989158
0.00912885
0.00851009
0.00805879
0.00771484
0.00744588
0.00722637
0.00975733
0.00901615
0.00842798
0.00801987
0.00769793
0.00743121
0.00720968
0.00975731
0.00901612
0.00842794
0.0080198
0.00769783
0.00743106
0.0098915
0.00912877
0.00851
0.00805866
0.00771465
0.00744556
0.0103008
0.00944928
0.008685
0.00812586
0.00774967
0.00748157
0.0106491
0.00991523
0.00882233
0.00815635
0.00775375
0.00748
0.0178279
0.0107135
0.00842202
0.0078842
0.00760985
0.00738766
)
;

boundaryField
{
    inlet
    {
        type            zeroGradient;
    }
    ami1
    {
        type            cyclicAMI;
        value           nonuniform List<scalar> 0();
    }
    walls
    {
        type            zeroGradient;
    }
    ami2
    {
        type            cyclicAMI;
        value           nonuniform List<scalar> 0();
    }
    outlet
    {
        type            fixedValue;
        value           nonuniform List<scalar> 0();
    }
    procBoundary4to3
    {
        type            processor;
        value           nonuniform List<scalar> 
109
(
0.00703463
0.00708248
0.00707268
0.00703678
0.00701863
0.00701903
0.00703774
0.00707365
0.00708297
0.00703463
0.00708297
0.00721335
0.0072091
0.00717421
0.00715204
0.0071526
0.0071752
0.00720988
0.00721336
0.00708249
0.00707365
0.00720988
0.00718754
0.00713064
0.00708956
0.00709
0.00713124
0.00718754
0.00720911
0.00707269
0.00703774
0.0071752
0.00713124
0.00705382
0.00701269
0.00701286
0.00705382
0.00713065
0.00717422
0.00703679
0.00701903
0.00715261
0.00709
0.00701286
0.00697374
0.00697374
0.00701269
0.00708957
0.00715205
0.00701864
0.00701864
0.00715205
0.00708956
0.00701269
0.00697374
0.00697375
0.00718413
0.00701287
0.00723826
0.00709001
0.00733796
0.00715261
0.00740134
0.00701904
0.00722636
0.00703679
0.00717422
0.00713066
0.00705383
0.00701287
0.00718413
0.00718413
0.00723826
0.00733796
0.00740134
0.00722636
0.0070727
0.00720912
0.00718755
0.00713125
0.00709002
0.00727759
0.00727759
0.00733756
0.00742908
0.00745011
0.00726637
0.00708249
0.00721337
0.0072099
0.00717521
0.00715262
0.00736527
0.00736527
0.00740072
0.00744967
0.00744097
0.00726907
0.00703464
0.00708298
0.00707366
0.00703776
0.00701905
0.00720944
0.00720944
0.00722582
0.0072658
0.00726879
0.00720104
)
;
    }
}


// ************************************************************************* //
