/*--------------------------------*- C++ -*----------------------------------*\
| =========                 |                                                 |
| \\      /  F ield         | OpenFOAM: The Open Source CFD Toolbox           |
|  \\    /   O peration     | Version:  2212                                  |
|   \\  /    A nd           | Website:  www.openfoam.com                      |
|    \\/     M anipulation  |                                                 |
\*---------------------------------------------------------------------------*/
FoamFile
{
    version     2.0;
    format      ascii;
    arch        "LSB;label=32;scalar=64";
    class       volScalarField;
    location    "1.8";
    object      epsilon;
}
// * * * * * * * * * * * * * * * * * * * * * * * * * * * * * * * * * * * * * //

dimensions      [0 2 -3 0 0 0 0];

internalField   nonuniform List<scalar> 
6840
(
90.5034
12.1248
4.38869
2.46658
1.63315
1.18306
0.902001
0.720647
0.594562
0.502466
0.432621
0.379194
0.336165
0.299628
0.269811
0.245537
0.225546
0.208952
0.196512
0.182374
58.5856
14.5696
6.08946
3.33294
2.08216
1.40266
0.998641
0.740273
0.565886
0.443901
0.355987
0.290878
0.241336
0.202891
0.17295
0.149585
0.130967
0.115894
0.103839
0.0949962
45.0226
13.4729
5.73075
3.07322
1.86022
1.22699
0.873568
0.64977
0.497001
0.389466
0.311271
0.252952
0.208946
0.175167
0.148754
0.127784
0.110965
0.097334
0.0862782
0.0779021
38.7028
13.0541
5.74336
3.08733
1.88066
1.2275
0.869475
0.645383
0.49259
0.384779
0.307024
0.249044
0.204977
0.17099
0.144406
0.123336
0.106435
0.0927288
0.0815881
0.0735297
36.0571
12.8529
5.76645
3.10212
1.89476
1.2267
0.86651
0.643997
0.492269
0.383991
0.305835
0.247972
0.203993
0.17005
0.14348
0.122406
0.105491
0.0917739
0.0806266
0.0723272
36.0571
12.8529
5.76645
3.10212
1.89476
1.2267
0.866514
0.644003
0.492276
0.383999
0.305847
0.247987
0.204013
0.170076
0.143515
0.122455
0.105559
0.0918614
0.0807048
0.0720757
38.7028
13.0541
5.74336
3.08733
1.88067
1.22751
0.869485
0.645395
0.492606
0.3848
0.307052
0.249081
0.205026
0.171054
0.144495
0.123464
0.106615
0.0929728
0.0818418
0.072886
45.0226
13.4729
5.73075
3.07323
1.86023
1.22699
0.873576
0.649781
0.497017
0.38949
0.311302
0.252993
0.209001
0.175243
0.148865
0.12795
0.111212
0.0977033
0.0868043
0.0783068
58.5856
14.5696
6.08946
3.33295
2.08216
1.40266
0.998643
0.740275
0.56589
0.443909
0.356
0.290898
0.241369
0.20295
0.173037
0.149732
0.131226
0.116371
0.10474
0.0959613
90.5034
12.1248
4.38869
2.46658
1.63315
1.18306
0.902002
0.720647
0.594562
0.502465
0.432621
0.379194
0.336166
0.299626
0.269812
0.245538
0.225548
0.208954
0.196513
0.182388
58.5856
14.5696
6.08946
3.33295
2.08216
1.40266
0.998643
0.740276
0.56589
0.44391
0.356
0.290898
0.241369
0.202954
0.173037
0.149731
0.131226
0.116372
0.10474
0.0959592
16.5373
9.49238
5.0127
2.8606
1.75746
1.14759
0.786927
0.562044
0.41536
0.315937
0.246319
0.196203
0.159193
0.131212
0.109725
0.0931167
0.0800351
0.0695543
0.0603109
0.0549371
13.6679
8.73671
5.07741
3.05388
1.92223
1.26609
0.869289
0.618631
0.453959
0.342034
0.26365
0.207311
0.165901
0.134846
0.111145
0.092683
0.0781567
0.0666216
0.0571491
0.0497571
12.9054
8.33993
5.07879
3.15547
2.02775
1.35121
0.933541
0.666464
0.489552
0.368603
0.283614
0.222399
0.177342
0.143544
0.117765
0.0977869
0.0820983
0.069628
0.0595916
0.051388
12.6882
8.1544
5.07113
3.20039
2.0794
1.39506
0.967837
0.692729
0.509646
0.384027
0.295517
0.231664
0.184612
0.149284
0.122313
0.101415
0.0849998
0.0719481
0.0614568
0.0529569
12.6882
8.1544
5.07113
3.20039
2.0794
1.39506
0.967835
0.692726
0.509644
0.384024
0.295513
0.231659
0.184606
0.149274
0.122297
0.101399
0.0849819
0.0719269
0.0614319
0.0529215
12.9054
8.33993
5.07879
3.15547
2.02775
1.3512
0.933538
0.666459
0.489548
0.368598
0.283607
0.22239
0.177328
0.14352
0.117735
0.0977553
0.0820614
0.0695838
0.0595351
0.0512274
13.6679
8.73671
5.0774
3.05388
1.92223
1.26609
0.869287
0.618628
0.453956
0.34203
0.263645
0.207305
0.165892
0.134831
0.11112
0.0926576
0.078128
0.0665896
0.0570959
0.049761
16.5373
9.49238
5.0127
2.8606
1.75746
1.14759
0.786927
0.562044
0.41536
0.315937
0.246319
0.196203
0.159193
0.131216
0.109721
0.093116
0.0800359
0.0695556
0.0603134
0.0549435
58.5856
14.5696
6.08946
3.33294
2.08216
1.40266
0.998641
0.740273
0.565886
0.443901
0.355987
0.290878
0.241335
0.202891
0.172949
0.149585
0.130969
0.115896
0.103844
0.0950049
45.0226
13.4729
5.73075
3.07323
1.86023
1.22699
0.873576
0.649781
0.497017
0.389491
0.311303
0.252994
0.209003
0.175244
0.148864
0.127949
0.111212
0.0977047
0.0868053
0.0783021
13.6679
8.73671
5.0774
3.05388
1.92223
1.26609
0.869287
0.618628
0.453956
0.34203
0.263645
0.207304
0.165892
0.134832
0.111118
0.0926563
0.0781259
0.0665859
0.0570972
0.0497584
11.8601
7.76395
4.99734
3.24076
2.14419
1.45499
1.0141
0.725633
0.532153
0.399146
0.305541
0.238216
0.188818
0.151907
0.123866
0.102227
0.0853069
0.0719136
0.0611639
0.0525595
11.6229
7.60535
5.0103
3.34209
2.26848
1.57142
1.11236
0.804589
0.594205
0.447519
0.343212
0.267636
0.211902
0.170124
0.13833
0.113789
0.0946039
0.079429
0.0672916
0.0574975
11.5726
7.56718
5.02065
3.38345
2.32103
1.62326
1.15829
0.843158
0.625693
0.472852
0.363488
0.283858
0.224911
0.180595
0.146797
0.120673
0.100232
0.0840527
0.0711094
0.0606322
11.5726
7.56718
5.02065
3.38344
2.32103
1.62326
1.15828
0.843155
0.625691
0.47285
0.363485
0.283854
0.224906
0.180587
0.146785
0.120662
0.100219
0.084038
0.0710954
0.0606409
11.6229
7.60535
5.0103
3.34209
2.26848
1.57142
1.11236
0.804586
0.594202
0.447514
0.343207
0.267629
0.211893
0.17011
0.138312
0.11377
0.0945824
0.0794047
0.0672673
0.0575065
11.8601
7.76395
4.99734
3.24076
2.14419
1.45499
1.0141
0.725633
0.532153
0.399146
0.305542
0.238217
0.18882
0.151908
0.123864
0.102227
0.085308
0.0719154
0.0611668
0.052566
13.6679
8.73671
5.07741
3.05388
1.92223
1.26609
0.869289
0.618631
0.453959
0.342034
0.26365
0.207311
0.165902
0.134851
0.11114
0.0926809
0.0781559
0.0666214
0.0571491
0.0497606
45.0226
13.4729
5.73075
3.07322
1.86022
1.22699
0.873567
0.64977
0.497001
0.389466
0.311271
0.252952
0.208947
0.175168
0.148752
0.127782
0.110964
0.0973339
0.086279
0.0779028
38.7028
13.0541
5.74336
3.08733
1.88067
1.22751
0.869485
0.645395
0.492606
0.3848
0.307052
0.249081
0.205027
0.171055
0.144493
0.123464
0.106616
0.0929742
0.0818447
0.0728937
12.9054
8.33993
5.07879
3.15547
2.02775
1.3512
0.933539
0.666459
0.489548
0.368598
0.283607
0.22239
0.177329
0.143525
0.117731
0.0977531
0.0820598
0.069582
0.0595336
0.0512251
11.6229
7.60535
5.0103
3.34209
2.26848
1.57142
1.11236
0.804586
0.594202
0.447514
0.343207
0.267629
0.211893
0.170111
0.138311
0.113769
0.0945812
0.0794031
0.0672652
0.0575039
11.4933
7.5119
5.02843
3.434
2.3892
1.6928
1.22111
0.896486
0.669455
0.50812
0.391654
0.306283
0.242781
0.194884
0.158277
0.129949
0.107772
0.0902203
0.0761807
0.0647747
11.4757
7.50136
5.04297
3.47002
2.43665
1.74299
1.26863
0.938712
0.705583
0.538335
0.416593
0.326727
0.259498
0.208556
0.169484
0.139166
0.115386
0.0965394
0.0814431
0.0691292
11.4757
7.50136
5.04297
3.47002
2.43665
1.74299
1.26863
0.938711
0.705582
0.538334
0.416592
0.326726
0.259496
0.208554
0.169481
0.139163
0.115382
0.0965354
0.0814382
0.0691235
11.4933
7.5119
5.02843
3.434
2.3892
1.6928
1.22111
0.896486
0.669455
0.508121
0.391654
0.306283
0.242782
0.194885
0.158276
0.129948
0.107772
0.090221
0.0761817
0.0647762
11.6229
7.60535
5.0103
3.34209
2.26848
1.57142
1.11236
0.804589
0.594205
0.447519
0.343213
0.267636
0.211903
0.170125
0.138328
0.113788
0.0946041
0.0794296
0.0672927
0.0574993
12.9054
8.33993
5.07879
3.15547
2.02775
1.35121
0.933541
0.666464
0.489552
0.368603
0.283614
0.222399
0.177342
0.143547
0.117762
0.0977853
0.0820974
0.0696273
0.0595909
0.0513865
38.7028
13.0541
5.74336
3.08733
1.88066
1.2275
0.869475
0.645383
0.49259
0.384779
0.307023
0.249044
0.204978
0.170991
0.144403
0.123334
0.106434
0.0927274
0.0815867
0.0735241
36.0571
12.8529
5.76645
3.10212
1.89476
1.2267
0.866514
0.644002
0.492276
0.383999
0.305847
0.247987
0.204013
0.170076
0.143515
0.122456
0.10556
0.0918625
0.0807069
0.0720801
12.6882
8.1544
5.07113
3.20039
2.0794
1.39506
0.967836
0.692726
0.509644
0.384024
0.295514
0.231659
0.184606
0.149276
0.122297
0.101399
0.084982
0.0719271
0.0614322
0.0529214
11.5726
7.56718
5.02065
3.38344
2.32103
1.62326
1.15828
0.843155
0.625691
0.47285
0.363485
0.283854
0.224906
0.180588
0.146785
0.120661
0.100219
0.0840378
0.0710951
0.0606414
11.4757
7.50136
5.04297
3.47002
2.43665
1.74299
1.26863
0.938711
0.705582
0.538334
0.416591
0.326726
0.259496
0.208554
0.16948
0.139163
0.115382
0.0965352
0.0814382
0.0691249
11.4647
7.49683
5.0577
3.50272
2.48038
1.79068
1.31522
0.981304
0.742923
0.570208
0.443348
0.348965
0.277885
0.223733
0.182016
0.149538
0.123999
0.103719
0.0874401
0.0740666
11.4647
7.49683
5.0577
3.50272
2.48038
1.79068
1.31522
0.981304
0.742923
0.570208
0.443348
0.348965
0.277885
0.223733
0.182016
0.149538
0.123999
0.10372
0.0874402
0.0740658
11.4757
7.50136
5.04297
3.47002
2.43665
1.74299
1.26863
0.938712
0.705583
0.538335
0.416593
0.326727
0.259498
0.208557
0.169483
0.139166
0.115386
0.0965392
0.0814431
0.0691298
11.5726
7.56718
5.02065
3.38345
2.32103
1.62326
1.15829
0.843158
0.625693
0.472852
0.363488
0.283858
0.224911
0.180595
0.146797
0.120673
0.100232
0.0840522
0.0711088
0.0606318
12.6882
8.1544
5.07113
3.20039
2.0794
1.39506
0.967837
0.692729
0.509646
0.384027
0.295516
0.231663
0.184611
0.149283
0.122315
0.101416
0.085
0.0719479
0.0614565
0.0529564
36.0571
12.8529
5.76645
3.10212
1.89476
1.2267
0.86651
0.643997
0.492269
0.38399
0.305835
0.247972
0.203993
0.170051
0.143478
0.122404
0.105489
0.0917721
0.0806247
0.072323
36.0571
12.8529
5.76645
3.10212
1.89476
1.2267
0.86651
0.643997
0.492269
0.38399
0.305835
0.247972
0.203992
0.17005
0.14348
0.122406
0.105491
0.0917739
0.0806269
0.0723279
12.6882
8.1544
5.07113
3.20039
2.0794
1.39506
0.967837
0.692729
0.509646
0.384027
0.295517
0.231664
0.184612
0.149285
0.122313
0.101416
0.0850011
0.07195
0.0614593
0.0529598
11.5726
7.56718
5.02065
3.38345
2.32103
1.62326
1.15829
0.843158
0.625693
0.472853
0.363488
0.283858
0.224912
0.180596
0.146796
0.120674
0.100233
0.084054
0.0711111
0.0606349
11.4757
7.50136
5.04297
3.47002
2.43665
1.74299
1.26863
0.938712
0.705583
0.538335
0.416593
0.326727
0.259498
0.208556
0.169484
0.139166
0.115386
0.0965398
0.0814437
0.0691314
11.4647
7.49683
5.0577
3.50272
2.48038
1.79068
1.31522
0.981304
0.742923
0.570208
0.443348
0.348965
0.277885
0.223732
0.182016
0.149538
0.123999
0.103719
0.0874403
0.0740666
11.4647
7.49683
5.0577
3.50272
2.48038
1.79068
1.31522
0.981304
0.742923
0.570208
0.443348
0.348965
0.277885
0.223733
0.182016
0.149538
0.123999
0.103719
0.0874401
0.0740656
11.4757
7.50136
5.04297
3.47002
2.43665
1.74299
1.26863
0.938711
0.705582
0.538334
0.416591
0.326726
0.259496
0.208554
0.16948
0.139162
0.115382
0.0965346
0.0814375
0.0691236
11.5726
7.56718
5.02065
3.38344
2.32103
1.62326
1.15828
0.843155
0.625691
0.472849
0.363484
0.283853
0.224904
0.180586
0.146787
0.120662
0.100218
0.0840366
0.0710936
0.0606397
12.6882
8.1544
5.07113
3.20039
2.07939
1.39506
0.967835
0.692726
0.509644
0.384024
0.295513
0.231659
0.184604
0.149271
0.122303
0.101402
0.084983
0.0719274
0.0614321
0.0529214
36.0571
12.8529
5.76645
3.10212
1.89476
1.2267
0.866514
0.644002
0.492276
0.383999
0.305847
0.247987
0.204013
0.170077
0.143515
0.122455
0.105559
0.0918604
0.0807039
0.072076
38.7028
13.0541
5.74336
3.08733
1.88066
1.2275
0.869475
0.645383
0.49259
0.384779
0.307023
0.249044
0.204977
0.170989
0.144406
0.123336
0.106435
0.0927279
0.0815867
0.0735277
12.9054
8.33993
5.07879
3.15547
2.02775
1.35121
0.933541
0.666464
0.489552
0.368603
0.283614
0.2224
0.177342
0.143545
0.117765
0.0977877
0.0820997
0.0696299
0.0595938
0.0513904
11.6229
7.60535
5.0103
3.34209
2.26848
1.57142
1.11236
0.804589
0.594205
0.447519
0.343213
0.267636
0.211902
0.170124
0.13833
0.113789
0.0946051
0.0794306
0.0672936
0.0575011
11.4933
7.5119
5.02843
3.434
2.3892
1.6928
1.22111
0.896486
0.669455
0.508121
0.391654
0.306283
0.242781
0.194884
0.158278
0.129949
0.107772
0.0902206
0.0761812
0.0647755
11.4757
7.50136
5.04297
3.47002
2.43665
1.74299
1.26863
0.938711
0.705582
0.538334
0.416591
0.326726
0.259496
0.208554
0.169481
0.139163
0.115382
0.0965346
0.0814374
0.0691227
11.4757
7.50136
5.04297
3.47002
2.43665
1.74299
1.26863
0.938712
0.705583
0.538335
0.416592
0.326727
0.259498
0.208556
0.169484
0.139166
0.115386
0.096539
0.0814427
0.0691294
11.4933
7.5119
5.02843
3.434
2.3892
1.6928
1.22111
0.896485
0.669454
0.50812
0.391654
0.306283
0.242782
0.194885
0.158276
0.129948
0.107771
0.0902203
0.076181
0.0647755
11.6229
7.60535
5.0103
3.34209
2.26848
1.57142
1.11236
0.804586
0.594202
0.447514
0.343207
0.267628
0.211892
0.17011
0.138312
0.113769
0.0945813
0.0794033
0.0672656
0.0575047
12.9054
8.33993
5.07879
3.15547
2.02775
1.3512
0.933537
0.66646
0.489548
0.368598
0.283607
0.22239
0.177328
0.14352
0.117736
0.0977558
0.0820617
0.069584
0.0595352
0.0512275
38.7028
13.0541
5.74336
3.08733
1.88067
1.22751
0.869485
0.645395
0.492606
0.384799
0.307052
0.249081
0.205026
0.171054
0.144495
0.123464
0.106615
0.0929727
0.0818421
0.0728897
45.0226
13.4729
5.73075
3.07322
1.86022
1.22699
0.873568
0.64977
0.497001
0.389466
0.311271
0.252952
0.208945
0.175166
0.148754
0.127783
0.110964
0.0973323
0.0862761
0.0778969
13.6679
8.73671
5.07741
3.05388
1.92223
1.26609
0.869289
0.618631
0.453959
0.342034
0.26365
0.207311
0.165901
0.134846
0.111145
0.0926836
0.0781576
0.0666235
0.0571453
0.0497607
11.8601
7.76395
4.99734
3.24076
2.14419
1.45499
1.0141
0.725633
0.532153
0.399146
0.305541
0.238216
0.188818
0.151907
0.123866
0.102228
0.0853074
0.071914
0.0611645
0.0525635
11.6229
7.60535
5.0103
3.34209
2.26848
1.57142
1.11236
0.804586
0.594202
0.447514
0.343207
0.267628
0.211892
0.17011
0.138311
0.113769
0.0945808
0.0794023
0.0672644
0.0575017
11.5726
7.56718
5.02065
3.38344
2.32103
1.62326
1.15828
0.843155
0.625691
0.472849
0.363484
0.283853
0.224905
0.180587
0.146785
0.120661
0.100217
0.0840361
0.071093
0.060638
11.5726
7.56718
5.02065
3.38345
2.32103
1.62326
1.15829
0.843158
0.625693
0.472852
0.363488
0.283858
0.224911
0.180596
0.146796
0.120673
0.100232
0.0840525
0.0711094
0.060633
11.6229
7.60535
5.0103
3.34209
2.26848
1.57142
1.11236
0.804589
0.594205
0.447519
0.343213
0.267636
0.211903
0.170125
0.138328
0.113788
0.0946043
0.07943
0.0672931
0.0574993
11.8601
7.76395
4.99734
3.24076
2.14419
1.45499
1.0141
0.725632
0.532153
0.399146
0.305541
0.238217
0.188819
0.151908
0.123864
0.102227
0.0853073
0.0719146
0.0611646
0.0525605
13.6679
8.73671
5.0774
3.05388
1.92223
1.26609
0.869287
0.618628
0.453956
0.34203
0.263645
0.207305
0.165892
0.134831
0.11112
0.0926575
0.0781277
0.066589
0.057095
0.0497612
45.0226
13.4729
5.73075
3.07323
1.86023
1.22699
0.873576
0.649781
0.497017
0.38949
0.311302
0.252993
0.209001
0.175243
0.148865
0.12795
0.111212
0.0977036
0.0868045
0.0782995
58.5856
14.5696
6.08946
3.33294
2.08216
1.40266
0.998641
0.740273
0.565886
0.443901
0.355987
0.290878
0.241336
0.20289
0.172949
0.149584
0.130965
0.11589
0.103834
0.0949857
16.5373
9.49238
5.0127
2.8606
1.75746
1.14759
0.786927
0.562044
0.41536
0.315937
0.246318
0.196203
0.159192
0.131211
0.109724
0.0931158
0.0800339
0.0695525
0.0603089
0.0549388
13.6679
8.73671
5.0774
3.05388
1.92223
1.26609
0.869287
0.618628
0.453956
0.34203
0.263645
0.207304
0.165891
0.134831
0.111118
0.0926555
0.0781248
0.0665846
0.0570958
0.049756
12.9054
8.33993
5.07879
3.15547
2.02775
1.3512
0.933538
0.666458
0.489547
0.368598
0.283607
0.222389
0.177329
0.143525
0.117731
0.0977525
0.0820591
0.0695813
0.0595328
0.0512241
12.6882
8.1544
5.07113
3.20039
2.07939
1.39506
0.967835
0.692726
0.509644
0.384024
0.295513
0.231659
0.184606
0.149276
0.122296
0.101399
0.0849817
0.071927
0.061432
0.0529211
12.6882
8.1544
5.07113
3.20039
2.0794
1.39506
0.967837
0.692729
0.509646
0.384027
0.295517
0.231664
0.184612
0.149286
0.122313
0.101415
0.085001
0.0719499
0.0614593
0.0529595
12.9054
8.33993
5.07879
3.15547
2.02775
1.35121
0.933542
0.666463
0.489552
0.368603
0.283614
0.222399
0.177343
0.143547
0.117762
0.0977863
0.082099
0.0696294
0.0595933
0.0513893
13.6679
8.73671
5.07741
3.05388
1.92223
1.26609
0.869289
0.61863
0.453959
0.342034
0.26365
0.207311
0.165902
0.134851
0.11114
0.0926812
0.0781564
0.0666227
0.0571446
0.04976
16.5373
9.49238
5.0127
2.8606
1.75746
1.14759
0.786927
0.562044
0.415359
0.315937
0.246318
0.196203
0.159193
0.131215
0.10972
0.0931152
0.0800348
0.0695541
0.0603116
0.0549441
58.5856
14.5696
6.08946
3.33295
2.08216
1.40266
0.998643
0.740275
0.56589
0.443909
0.356
0.290898
0.241369
0.20295
0.173037
0.149731
0.131225
0.116369
0.104737
0.0959542
90.5034
12.1248
4.38869
2.46658
1.63315
1.18306
0.902001
0.720647
0.594562
0.502466
0.43262
0.379194
0.336165
0.299627
0.26981
0.245535
0.225542
0.208946
0.196502
0.182357
58.5856
14.5696
6.08946
3.33295
2.08216
1.40266
0.998643
0.740275
0.56589
0.443909
0.356
0.290898
0.241368
0.202953
0.173035
0.149729
0.131223
0.116367
0.104734
0.0959497
45.0226
13.4729
5.73075
3.07323
1.86023
1.22699
0.873576
0.649781
0.497017
0.38949
0.311302
0.252994
0.209003
0.175244
0.148863
0.127948
0.111212
0.0977039
0.0868041
0.0782975
38.7028
13.0541
5.74336
3.08733
1.88067
1.22751
0.869485
0.645395
0.492606
0.3848
0.307052
0.249081
0.205027
0.171055
0.144493
0.123463
0.106616
0.0929743
0.0818451
0.072896
36.0571
12.8529
5.76645
3.10212
1.89476
1.2267
0.866515
0.644003
0.492276
0.383999
0.305847
0.247987
0.204013
0.170077
0.143515
0.122456
0.10556
0.0918628
0.0807074
0.0720812
36.0571
12.8529
5.76645
3.10212
1.89476
1.2267
0.866511
0.643997
0.492269
0.38399
0.305835
0.247972
0.203993
0.17005
0.14348
0.122406
0.105491
0.0917739
0.0806269
0.0723276
38.7028
13.0541
5.74336
3.08733
1.88066
1.2275
0.869475
0.645382
0.49259
0.384779
0.307023
0.249044
0.204978
0.170991
0.144403
0.123334
0.106434
0.0927273
0.0815866
0.0735275
45.0226
13.4729
5.73075
3.07322
1.86022
1.22699
0.873568
0.649769
0.497001
0.389465
0.311271
0.252952
0.208946
0.175167
0.148751
0.127781
0.110963
0.097332
0.0862767
0.077898
58.5856
14.5696
6.08946
3.33294
2.08216
1.40266
0.998641
0.740272
0.565886
0.443901
0.355987
0.290878
0.241334
0.202891
0.172948
0.149583
0.130965
0.11589
0.103835
0.0949873
90.5034
12.1248
4.38869
2.46658
1.63315
1.18306
0.902002
0.720647
0.594562
0.502465
0.432621
0.379193
0.336165
0.299625
0.26981
0.245536
0.225544
0.208949
0.196504
0.182367
0.258977
0.228365
0.202989
0.186449
0.175129
0.166806
0.159497
0.152793
0.14677
0.14124
0.136605
0.132489
0.12859
0.124861
0.121452
0.118161
0.115145
0.112219
0.109511
0.106965
0.104476
0.102151
0.0999343
0.0978831
0.0959322
0.0940377
0.0922075
0.0903956
0.0886332
0.0868974
0.0852741
0.0836601
0.0820651
0.0804612
0.0788247
0.0774854
0.0761362
0.074765
0.0735849
0.0716057
0.119281
0.103006
0.091483
0.0829057
0.0764443
0.071392
0.067113
0.0634167
0.0601667
0.057175
0.0546885
0.0525199
0.0505279
0.0487359
0.0470707
0.0454952
0.0440744
0.0427521
0.041534
0.0404042
0.0393222
0.0383116
0.0373712
0.0365037
0.0357044
0.0349465
0.034215
0.0335046
0.0328172
0.0321372
0.031486
0.0308533
0.0302427
0.0296467
0.029049
0.0284865
0.0279584
0.0274404
0.026951
0.0263911
0.0915067
0.0788242
0.0702021
0.0633289
0.0579474
0.0534569
0.0496923
0.0465003
0.0437751
0.0414248
0.0393341
0.0375228
0.0359009
0.0344804
0.0330897
0.0318486
0.0307348
0.0297277
0.028773
0.0278813
0.0270481
0.0262167
0.0254401
0.0247437
0.0241154
0.023533
0.02297
0.0224265
0.0219076
0.0214046
0.0209227
0.020453
0.0200055
0.0195747
0.0191534
0.0187638
0.0183792
0.0180038
0.0176484
0.0172807
0.0790723
0.0691675
0.0617258
0.0558353
0.0509201
0.0467749
0.043225
0.0401728
0.0375312
0.0352287
0.0332107
0.0314405
0.0298495
0.0284435
0.0271782
0.0260374
0.0249904
0.0240684
0.0231199
0.0222495
0.021479
0.020761
0.0200831
0.0194488
0.0188639
0.0183236
0.0178191
0.0173428
0.0168983
0.0164703
0.0160577
0.0156571
0.0152742
0.0149204
0.0145763
0.0142476
0.0139314
0.0136293
0.013342
0.0130549
0.0718019
0.0638053
0.057247
0.0517732
0.0471535
0.0432387
0.0398922
0.0370082
0.0344928
0.0322848
0.0303354
0.0286046
0.0270633
0.0256787
0.0244423
0.0233231
0.0223024
0.0213672
0.0205157
0.0197243
0.0190405
0.018325
0.0176631
0.0170612
0.0165164
0.0160084
0.0155413
0.0151019
0.0146967
0.0143093
0.0139385
0.0135813
0.013237
0.01292
0.012599
0.0122974
0.0120112
0.0117441
0.0114912
0.0112514
0.0670826
0.0602307
0.0543594
0.0493418
0.0450465
0.0413679
0.0382053
0.0354654
0.033056
0.0309203
0.0290201
0.0273254
0.0258176
0.0244437
0.0232061
0.0220899
0.0210838
0.0201783
0.0193535
0.0185997
0.0179136
0.0172816
0.016716
0.0161726
0.0156199
0.0151038
0.0146403
0.0142187
0.0138405
0.0134755
0.0131381
0.0128168
0.0124725
0.0121788
0.0118334
0.011564
0.0112841
0.0110392
0.0107981
0.0105673
0.0668388
0.0596519
0.0537153
0.0487744
0.0446092
0.0410688
0.0380233
0.0353625
0.0330008
0.0308991
0.0290243
0.0273473
0.0258463
0.0244891
0.0232681
0.0221665
0.0211712
0.0202722
0.0194634
0.01873
0.0180641
0.0174508
0.0168774
0.0163509
0.0157996
0.0153008
0.0148547
0.0144424
0.0140658
0.0136923
0.0133444
0.0130115
0.0126593
0.0123589
0.012044
0.0117671
0.0114842
0.0112199
0.0109593
0.010707
0.0723253
0.0627199
0.0560591
0.0508975
0.0466951
0.0431667
0.0400935
0.037375
0.0349586
0.0328037
0.0308788
0.0291519
0.0276065
0.0262307
0.0249931
0.0238762
0.022874
0.0219674
0.0211441
0.0203941
0.019721
0.0190761
0.0184519
0.0178736
0.0173587
0.0168669
0.0164129
0.0159795
0.0155547
0.0151321
0.0147402
0.0143771
0.0140454
0.0137155
0.013391
0.0130657
0.0127304
0.0124209
0.0121195
0.0118256
0.0831361
0.0698046
0.0625875
0.0573369
0.0529877
0.0492429
0.0459602
0.0430594
0.0404829
0.0381843
0.0361619
0.0343414
0.0327644
0.0313295
0.0300556
0.0288263
0.0276389
0.0266305
0.0257047
0.0248677
0.0240817
0.0233579
0.0226763
0.0220233
0.0214336
0.0208637
0.0203366
0.0198349
0.0193674
0.0189133
0.0184824
0.0180634
0.0176627
0.0172702
0.0168839
0.0164779
0.0160681
0.0156935
0.0153416
0.014987
0.103189
0.0923423
0.0831719
0.076632
0.0715275
0.0673358
0.0635342
0.0600638
0.0570099
0.0542216
0.051771
0.0496697
0.047874
0.0459344
0.0442155
0.042632
0.0411634
0.0398193
0.0385761
0.0374374
0.036368
0.0353862
0.0344957
0.0336721
0.0329083
0.0321729
0.0314723
0.0307976
0.0301555
0.0295174
0.0289105
0.0283223
0.0277525
0.0271898
0.0266359
0.0260376
0.0255145
0.0250024
0.0245363
0.0239911
0.258973
0.228282
0.202883
0.186342
0.174994
0.166553
0.159299
0.152683
0.146749
0.141306
0.136665
0.132524
0.128721
0.124973
0.121486
0.118209
0.115158
0.112253
0.109544
0.106981
0.104511
0.102155
0.099961
0.0978923
0.0959616
0.0940534
0.0922268
0.0904119
0.0886467
0.0869139
0.0852954
0.0836861
0.0821014
0.0805219
0.0789771
0.0774767
0.0761087
0.0747091
0.0734938
0.0714125
0.103171
0.0923324
0.0832321
0.0767816
0.0718562
0.0675979
0.0636805
0.0601399
0.0570341
0.0541935
0.0517333
0.0496484
0.0478053
0.0458568
0.0441891
0.042594
0.0411579
0.0398021
0.038566
0.0374285
0.0363553
0.0353788
0.0344875
0.0336684
0.0329032
0.0321706
0.0314719
0.0307986
0.0301574
0.0295182
0.0289116
0.0283227
0.0277507
0.0271761
0.0265787
0.0260195
0.0255245
0.0250352
0.0245808
0.0240562
0.055855
0.0498469
0.0437505
0.0394298
0.0354843
0.0330086
0.0307319
0.0287976
0.0270403
0.0254284
0.0240245
0.0229004
0.0216076
0.020745
0.0197103
0.0189289
0.0180711
0.017385
0.0166981
0.0161065
0.0155286
0.0149493
0.014501
0.0139959
0.0136168
0.0132536
0.0128717
0.0125186
0.012139
0.01177
0.0115187
0.0111972
0.0108669
0.0105333
0.0103224
0.0100389
0.00969661
0.00940645
0.00915311
0.0088807
0.0483356
0.041635
0.0363526
0.0317692
0.0287807
0.0262375
0.0240612
0.0221926
0.0205896
0.0192035
0.01793
0.0169327
0.0156455
0.0150116
0.014029
0.0134968
0.0126948
0.0122495
0.0116127
0.0112053
0.010766
0.0102666
0.00994785
0.00951125
0.00926905
0.00893767
0.00863376
0.00840998
0.0080789
0.00790579
0.00773269
0.00754498
0.00723997
0.00707429
0.00685952
0.00682729
0.00662444
0.00641386
0.00612833
0.00590086
0.0465311
0.0404272
0.0353781
0.03117
0.0275185
0.0246088
0.0224598
0.0205678
0.0189169
0.0174735
0.0162031
0.0150798
0.0140533
0.0131872
0.0124008
0.0116983
0.0110733
0.0105049
0.0100226
0.00948341
0.00913903
0.00861038
0.00832031
0.00791552
0.00770903
0.00735521
0.00717471
0.00686389
0.00666232
0.00645799
0.00632611
0.00619556
0.00593336
0.00581795
0.00561726
0.00563204
0.00547659
0.00533384
0.00506431
0.00492272
0.0467448
0.0405367
0.0355137
0.0313635
0.0278476
0.0247374
0.0221831
0.0200605
0.0183852
0.0169053
0.0156007
0.0144442
0.013398
0.0125054
0.011705
0.0109875
0.0103442
0.00976594
0.00924529
0.00877324
0.00834924
0.00796306
0.00761878
0.00731678
0.00700358
0.00674446
0.00645683
0.00623431
0.00602098
0.00582898
0.00566431
0.00555045
0.00533834
0.00522953
0.00504375
0.00506158
0.00491981
0.00479533
0.00455683
0.00441734
0.0468213
0.0406945
0.0356615
0.0314647
0.0279378
0.0248401
0.0221649
0.0198986
0.0181428
0.0166678
0.0153551
0.0141856
0.013129
0.0122192
0.0114052
0.0106781
0.010028
0.00944565
0.00892276
0.00845227
0.00802841
0.00764682
0.00731197
0.00702139
0.00671786
0.0064446
0.00617924
0.0059546
0.00574246
0.00556056
0.00541497
0.00527224
0.00511493
0.00499139
0.0048046
0.00481674
0.00468679
0.00450188
0.00439504
0.00414307
0.0465099
0.0407017
0.0356164
0.0313201
0.0277161
0.0245457
0.0218286
0.019651
0.0180013
0.0165321
0.0152277
0.0140727
0.0130394
0.0121424
0.0113416
0.0106261
0.00998698
0.0094136
0.00889868
0.00843466
0.00801623
0.00763838
0.00730504
0.00702523
0.00672316
0.0064778
0.00616381
0.00597594
0.00570343
0.0055649
0.00542146
0.00528211
0.00506874
0.00494592
0.00475125
0.00478478
0.00464411
0.00445657
0.00434441
0.00407074
0.0457556
0.0409824
0.0355441
0.0310483
0.0272839
0.0240496
0.0217197
0.01986
0.0182263
0.0167945
0.0155386
0.0144285
0.0134395
0.012579
0.011804
0.0111038
0.0104773
0.00990053
0.00938902
0.00891908
0.00850036
0.00812021
0.00774611
0.00751847
0.0070925
0.00689172
0.00654773
0.00638832
0.00606564
0.00595188
0.00579856
0.00565048
0.00536076
0.00523206
0.00501376
0.00486355
0.00492014
0.00473352
0.00457443
0.00423302
0.046472
0.0419901
0.0362861
0.0314167
0.0280827
0.0255443
0.0233659
0.0214883
0.0198545
0.0184266
0.0171797
0.0160573
0.0150893
0.0142279
0.013445
0.012669
0.01212
0.0113437
0.0109285
0.0103053
0.00996606
0.00943201
0.00913019
0.00869849
0.00839211
0.00817817
0.00780275
0.00761772
0.00727942
0.0071018
0.00691603
0.00673175
0.00640659
0.00625386
0.00600636
0.00583232
0.00582722
0.00557305
0.00537161
0.00502895
0.0558803
0.0497814
0.0437312
0.039346
0.0360042
0.0331804
0.0309056
0.0289137
0.0271412
0.0254885
0.0241185
0.022809
0.0216844
0.0207627
0.0197645
0.0189276
0.0181071
0.0173959
0.0167128
0.0161227
0.0155229
0.0149728
0.014496
0.0140174
0.0135958
0.0132763
0.0128772
0.0125306
0.0121491
0.0117738
0.0115226
0.0112
0.0108673
0.0105678
0.0102978
0.00999936
0.00983413
0.0095184
0.00915919
0.00884291
0.119271
0.102937
0.0913987
0.0829011
0.0763964
0.0712655
0.0670059
0.063357
0.060141
0.0571963
0.0547244
0.0525135
0.0505853
0.0487894
0.0470991
0.0455177
0.0440887
0.0427616
0.0415523
0.0404112
0.0393417
0.0383233
0.0373857
0.0365126
0.0357147
0.0349567
0.0342252
0.0335161
0.0328301
0.0321527
0.0315041
0.0308742
0.0302662
0.0296742
0.0291006
0.0285075
0.0279734
0.0274467
0.0269456
0.0263647
0.0831588
0.0698001
0.0626166
0.0575188
0.0531237
0.0493347
0.0460119
0.0430815
0.0404803
0.0381658
0.0361322
0.034325
0.032722
0.031279
0.0300276
0.0287831
0.0276386
0.0266106
0.0257051
0.0248658
0.024077
0.0233582
0.0226659
0.0220256
0.0214323
0.0208674
0.0203424
0.0198427
0.0193764
0.0189228
0.0184937
0.0180764
0.0176772
0.0172854
0.0168946
0.0164736
0.0160685
0.0157099
0.0153742
0.015032
0.0464551
0.0419604
0.0363015
0.0312943
0.0280373
0.0255191
0.0233455
0.0214746
0.0198459
0.0184246
0.0171827
0.0161165
0.0150493
0.0142717
0.0133748
0.0127982
0.0119334
0.0114802
0.0107876
0.0103735
0.0099566
0.00945376
0.00914664
0.0086751
0.00842956
0.00814839
0.00781132
0.00761982
0.00727922
0.00709895
0.00690999
0.00672746
0.00640365
0.0062519
0.0060351
0.00597082
0.00573511
0.00548198
0.00523379
0.00504527
0.0452535
0.0394686
0.0344189
0.0300792
0.02655
0.0236421
0.0212142
0.0191692
0.0174283
0.015933
0.0146322
0.0135087
0.0124683
0.0116033
0.0108077
0.0101179
0.00942291
0.00881429
0.00833098
0.00793955
0.00754278
0.00714563
0.0068193
0.00648114
0.00616522
0.00594
0.00565343
0.00549024
0.00520387
0.00510757
0.00499039
0.00485478
0.0046087
0.00449568
0.00431381
0.00434415
0.00421434
0.00410065
0.00385196
0.00371814
0.0476439
0.0413071
0.0360076
0.0315685
0.0278257
0.0246744
0.0220338
0.0197877
0.0178642
0.016206
0.0147681
0.0135133
0.0124072
0.0114393
0.0105805
0.00981732
0.00913422
0.00851546
0.00796928
0.0074795
0.00704329
0.00664674
0.00620955
0.00592452
0.00567433
0.00542357
0.00522578
0.00493258
0.00474476
0.00457372
0.00446096
0.00434374
0.00418465
0.00407684
0.00390096
0.00392919
0.00381327
0.00370531
0.00355235
0.00342161
0.0498793
0.0431252
0.037551
0.0329048
0.0289979
0.0256839
0.0228654
0.0204595
0.0184112
0.0166492
0.0151211
0.0137878
0.0126228
0.0115971
0.0106908
0.00988689
0.00917127
0.00853125
0.00795809
0.00744332
0.00698025
0.00656743
0.00616589
0.00585511
0.0055412
0.00522043
0.00497014
0.0047835
0.00461312
0.00448656
0.00433687
0.00419679
0.0040632
0.0039529
0.00381135
0.00382998
0.00370974
0.00359054
0.00347437
0.00336105
0.0507644
0.0438968
0.0382024
0.0334496
0.0294544
0.0260683
0.0231789
0.020705
0.0185954
0.0167887
0.0152274
0.0138673
0.0126811
0.0116372
0.0107155
0.00989883
0.00917234
0.00852317
0.00794219
0.0074219
0.00695374
0.00653671
0.00613808
0.00582907
0.00551285
0.00521518
0.00496316
0.00470984
0.00450897
0.00443873
0.00429627
0.00415904
0.00402544
0.00391094
0.00378945
0.00380502
0.00368462
0.00356463
0.00344762
0.00332997
0.0499336
0.0432651
0.0376641
0.0329572
0.0289913
0.02563
0.022773
0.0203442
0.0182801
0.0165084
0.0149789
0.0136502
0.0124915
0.0114752
0.0105772
0.00978141
0.00907301
0.00843995
0.00787335
0.00736609
0.0069078
0.00649969
0.00610719
0.00579808
0.00548411
0.00520553
0.00492282
0.00471426
0.00454016
0.00444955
0.0043033