/*--------------------------------*- C++ -*----------------------------------*\
| =========                 |                                                 |
| \\      /  F ield         | OpenFOAM: The Open Source CFD Toolbox           |
|  \\    /   O peration     | Version:  2212                                  |
|   \\  /    A nd           | Website:  www.openfoam.com                      |
|    \\/     M anipulation  |                                                 |
\*---------------------------------------------------------------------------*/
FoamFile
{
    version     2.0;
    format      ascii;
    arch        "LSB;label=32;scalar=64";
    class       volScalarField;
    location    "1.8";
    object      k;
}
// * * * * * * * * * * * * * * * * * * * * * * * * * * * * * * * * * * * * * //

dimensions      [0 2 -2 0 0 0 0];

internalField   nonuniform List<scalar> 
6840
(
0.213564
0.055916
0.0283994
0.0193411
0.0146927
0.011851
0.00989062
0.00851596
0.00749118
0.00669612
0.00606026
0.00555046
0.00512223
0.00474406
0.00442394
0.00415464
0.00392633
0.00373228
0.00358634
0.00341544
0.264759
0.104702
0.0585298
0.039163
0.0286198
0.0219934
0.017536
0.0143632
0.0120082
0.0102136
0.00881614
0.0077054
0.00680353
0.00606018
0.00544817
0.00494556
0.00452591
0.00417112
0.00387575
0.00364913
0.283364
0.126774
0.0717019
0.0473281
0.0338662
0.0256615
0.0204607
0.0167969
0.0140484
0.0119408
0.0102836
0.0089552
0.0078838
0.0070093
0.00628554
0.00567975
0.00516941
0.00473635
0.00436977
0.004079
0.292299
0.141633
0.0819301
0.0541653
0.038923
0.0292873
0.0232722
0.0190785
0.0159339
0.0135147
0.0116263
0.0101122
0.00888096
0.0078698
0.00703124
0.00632926
0.00573664
0.00523244
0.00480405
0.00448457
0.295943
0.148782
0.0871941
0.0576749
0.0415194
0.0310722
0.0246451
0.020221
0.016905
0.014325
0.0123085
0.0107023
0.00939618
0.00832255
0.00743125
0.00668435
0.00605327
0.00551624
0.00506006
0.00471006
0.295943
0.148782
0.0871941
0.0576749
0.0415194
0.0310723
0.0246452
0.0202212
0.0169052
0.0143252
0.0123089
0.0107029
0.00939695
0.0083236
0.00743273
0.00668658
0.00605647
0.00552056
0.0050644
0.00470058
0.292299
0.141633
0.0819302
0.0541654
0.0389231
0.0292875
0.0232724
0.0190788
0.0159343
0.0135152
0.0116272
0.0101134
0.0088827
0.00787226
0.0070348
0.00633464
0.00574459
0.00524378
0.0048168
0.00445869
0.283364
0.126774
0.071702
0.0473282
0.0338663
0.0256617
0.0204609
0.0167971
0.0140488
0.0119414
0.0102845
0.00895642
0.00788553
0.00701183
0.00628943
0.00568585
0.00517894
0.00475131
0.00439168
0.00409801
0.264759
0.104702
0.0585298
0.039163
0.0286199
0.0219934
0.017536
0.0143633
0.0120082
0.0102138
0.0088164
0.00770584
0.0068043
0.00606169
0.00545051
0.00494963
0.00453342
0.00418569
0.00390497
0.00368997
0.213564
0.055916
0.0283994
0.0193411
0.0146927
0.011851
0.00989062
0.00851596
0.00749118
0.00669612
0.00606026
0.00555046
0.00512224
0.00474403
0.00442396
0.00415465
0.00392635
0.0037323
0.00358638
0.00341562
0.264759
0.104702
0.0585298
0.039163
0.0286199
0.0219934
0.017536
0.0143633
0.0120082
0.0102138
0.00881641
0.00770584
0.00680429
0.00606177
0.00545049
0.00494961
0.00453342
0.00418571
0.00390498
0.00368993
0.311746
0.197541
0.130357
0.0911456
0.0668021
0.050811
0.0397943
0.031912
0.0260941
0.0216871
0.0182764
0.0155883
0.0134407
0.0116978
0.0102664
0.00907805
0.00808195
0.00723759
0.00653269
0.00590583
0.31754
0.217754
0.151085
0.108549
0.0807154
0.0618724
0.0486771
0.0391414
0.0320581
0.0266708
0.022489
0.0191858
0.0165368
0.0143838
0.0126131
0.0111425
0.00990969
0.00886627
0.00797763
0.00719911
0.319723
0.227073
0.162232
0.118772
0.089361
0.0689926
0.0545304
0.0439842
0.0360995
0.0300743
0.0253816
0.0216645
0.0186767
0.016244
0.0142404
0.0125728
0.0111722
0.00998567
0.00897189
0.00810106
0.320484
0.23086
0.167176
0.123531
0.0935159
0.0724825
0.0574407
0.0464214
0.038154
0.0318175
0.0268713
0.0229472
0.0197889
0.0172144
0.015092
0.0133243
0.0118388
0.0105798
0.0095046
0.00858252
0.320484
0.23086
0.167176
0.123531
0.093516
0.0724826
0.0574409
0.0464216
0.0381543
0.0318179
0.0268718
0.0229481
0.01979
0.0172159
0.0150941
0.0133275
0.0118432
0.0105859
0.00951268
0.00859418
0.319723
0.227073
0.162232
0.118772
0.0893611
0.0689928
0.0545307
0.0439847
0.0361001
0.0300752
0.0253829
0.0216663
0.0186792
0.0162474
0.0142452
0.0125798
0.0111823
0.0100001
0.00899193
0.00813327
0.31754
0.217754
0.151085
0.108549
0.0807155
0.0618725
0.0486773
0.0391417
0.0320586
0.0266715
0.02249
0.0191872
0.0165388
0.0143866
0.0126172
0.0111485
0.00991871
0.00887976
0.00799797
0.00725039
0.311746
0.197541
0.130357
0.0911456
0.0668021
0.050811
0.0397943
0.031912
0.0260941
0.0216871
0.0182764
0.0155883
0.0134407
0.0116977
0.0102664
0.00907808
0.00808199
0.00723763
0.00653279
0.00590608
0.264759
0.104702
0.0585298
0.039163
0.0286198
0.0219934
0.017536
0.0143632
0.0120082
0.0102136
0.00881614
0.0077054
0.00680351
0.0060602
0.00544815
0.00494556
0.00452594
0.0041712
0.0038759
0.00364942
0.283364
0.126774
0.071702
0.0473282
0.0338663
0.0256617
0.0204609
0.0167971
0.0140488
0.0119414
0.0102845
0.00895643
0.00788557
0.00701186
0.00628938
0.00568583
0.00517895
0.00475135
0.00439169
0.00409767
0.31754
0.217754
0.151085
0.108549
0.0807155
0.0618725
0.0486773
0.0391417
0.0320586
0.0266715
0.02249
0.0191873
0.0165389
0.0143866
0.0126171
0.0111485
0.00991872
0.00887982
0.00799803
0.00725023
0.322005
0.239026
0.177588
0.133616
0.102323
0.0798668
0.0635104
0.0513819
0.0422213
0.035179
0.0296752
0.0253087
0.0217972
0.0189384
0.0165851
0.0146283
0.0129867
0.0115974
0.0104103
0.00936888
0.323293
0.245617
0.187499
0.144537
0.112864
0.0894038
0.0718631
0.0585863
0.0483993
0.0404739
0.0342243
0.0292327
0.0251984
0.0219018
0.0191807
0.0169135
0.0150081
0.0133931
0.0120095
0.0107895
0.323714
0.247819
0.191099
0.14881
0.117249
0.0935708
0.0756573
0.0619606
0.0513628
0.0430613
0.0364793
0.0311996
0.0269178
0.0234097
0.0205081
0.0180867
0.0160493
0.0143208
0.0128392
0.01154
0.323714
0.247819
0.191099
0.14881
0.117249
0.0935708
0.0756574
0.0619607
0.0513629
0.0430615
0.0364796
0.0312
0.0269184
0.0234104
0.0205091
0.0180882
0.0160514
0.0143238
0.0128446
0.0115568
0.323293
0.245617
0.187499
0.144537
0.112864
0.0894039
0.0718633
0.0585865
0.0483996
0.0404743
0.0342248
0.0292335
0.0251994
0.0219031
0.0191825
0.0169162
0.015012
0.0133988
0.0120194
0.0108214
0.322005
0.239026
0.177587
0.133616
0.102323
0.0798668
0.0635104
0.0513819
0.0422213
0.035179
0.0296752
0.0253087
0.0217972
0.0189383
0.016585
0.0146283
0.0129867
0.0115974
0.0104104
0.00936949
0.31754
0.217754
0.151085
0.108549
0.0807154
0.0618724
0.0486771
0.0391414
0.0320581
0.0266708
0.022489
0.0191858
0.0165369
0.0143838
0.012613
0.0111424
0.00990972
0.00886636
0.00797783
0.00719973
0.283364
0.126774
0.0717019
0.0473281
0.0338662
0.0256615
0.0204607
0.0167969
0.0140484
0.0119408
0.0102836
0.0089552
0.00788382
0.00700933
0.00628546
0.0056797
0.00516938
0.00473635
0.00436981
0.00407909
0.292299
0.141633
0.0819302
0.0541654
0.0389231
0.0292875
0.0232724
0.0190788
0.0159343
0.0135152
0.0116272
0.0101134
0.00888273
0.00787227
0.00703474
0.00633463
0.00574461
0.00524384
0.00481692
0.00445897
0.319723
0.227073
0.162232
0.118772
0.0893611
0.0689929
0.0545307
0.0439847
0.0361001
0.0300752
0.0253829
0.0216663
0.0186792
0.0162474
0.0142451
0.0125798
0.0111824
0.0100002
0.00899211
0.00813307
0.323293
0.245617
0.187499
0.144537
0.112864
0.0894039
0.0718633
0.0585865
0.0483996
0.0404743
0.0342248
0.0292335
0.0251995
0.0219032
0.0191825
0.0169162
0.015012
0.0133988
0.0120195
0.0108212
0.324288
0.250862
0.19613
0.154888
0.123591
0.09968
0.0812741
0.0669838
0.0557847
0.0469223
0.0398394
0.0341236
0.0294672
0.0256397
0.0224666
0.0198145
0.0175804
0.0156831
0.0140536
0.0126171
0.32459
0.252403
0.19891
0.158543
0.12769
0.103871
0.0853201
0.0707499
0.0592099
0.0499927
0.0425683
0.0365382
0.0316003
0.0275246
0.0241347
0.0212944
0.018897
0.0168571
0.0151003
0.0135409
0.32459
0.252403
0.19891
0.158543
0.12769
0.103871
0.0853201
0.0707499
0.05921
0.0499927
0.0425684
0.0365383
0.0316004
0.0275248
0.024135
0.0212947
0.0188975
0.0168578
0.0151016
0.0135447
0.324288
0.250862
0.19613
0.154888
0.123591
0.09968
0.0812741
0.0669837
0.0557847
0.0469223
0.0398394
0.0341235
0.0294672
0.0256397
0.0224666
0.0198145
0.0175804
0.0156831
0.0140536
0.0126172
0.323293
0.245617
0.187499
0.144537
0.112864
0.0894038
0.0718631
0.0585863
0.0483993
0.0404739
0.0342243
0.0292328
0.0251985
0.0219018
0.0191806
0.0169135
0.0150082
0.0133932
0.0120097
0.0107904
0.319723
0.227073
0.162232
0.118772
0.089361
0.0689926
0.0545304
0.0439842
0.0360995
0.0300743
0.0253816
0.0216645
0.0186768
0.0162441
0.0142402
0.0125727
0.0111722
0.0099857
0.00897208
0.00810143
0.292299
0.141633
0.0819301
0.0541653
0.038923
0.0292873
0.0232722
0.0190785
0.0159339
0.0135147
0.0116263
0.0101122
0.008881
0.00786986
0.00703113
0.00632918
0.00573657
0.00523239
0.004804
0.00448436
0.295943
0.148782
0.0871941
0.057675
0.0415194
0.0310723
0.0246452
0.0202212
0.0169052
0.0143252
0.0123089
0.0107029
0.00939696
0.00832362
0.00743274
0.0066866
0.0060565
0.00552061
0.00506449
0.00470077
0.320484
0.23086
0.167176
0.123531
0.093516
0.0724826
0.0574409
0.0464216
0.0381543
0.0318179
0.0268718
0.0229481
0.0197901
0.0172159
0.0150941
0.0133275
0.0118433
0.010586
0.00951283
0.00859436
0.323714
0.247819
0.191099
0.14881
0.117249
0.0935708
0.0756574
0.0619607
0.0513629
0.0430615
0.0364796
0.0312
0.0269184
0.0234105
0.0205091
0.0180882
0.0160514
0.0143239
0.0128446
0.0115571
0.32459
0.252403
0.19891
0.158543
0.12769
0.103871
0.0853201
0.0707499
0.05921
0.0499927
0.0425684
0.0365383
0.0316005
0.0275248
0.024135
0.0212948
0.0188975
0.0168579
0.0151017
0.013545
0.324844
0.253685
0.20131
0.161836
0.131535
0.107943
0.0893701
0.0746126
0.0627921
0.0532534
0.0455013
0.0391573
0.0339301
0.0295941
0.0259735
0.0229305
0.0203556
0.0181591
0.016259
0.0145498
0.324844
0.253685
0.20131
0.161836
0.131535
0.107943
0.0893701
0.0746126
0.0627921
0.0532534
0.0455013
0.0391573
0.0339301
0.0295941
0.0259735
0.0229305
0.0203556
0.0181591
0.016259
0.0145499
0.32459
0.252403
0.19891
0.158543
0.12769
0.103871
0.0853201
0.0707499
0.0592099
0.0499926
0.0425683
0.0365382
0.0316003
0.0275246
0.0241347
0.0212944
0.018897
0.0168571
0.0151003
0.0135412
0.323714
0.247819
0.191099
0.14881
0.117249
0.0935708
0.0756573
0.0619606
0.0513628
0.0430613
0.0364793
0.0311996
0.0269178
0.0234097
0.020508
0.0180867
0.0160493
0.0143208
0.0128392
0.0115404
0.320484
0.23086
0.167176
0.123531
0.0935159
0.0724825
0.0574407
0.0464214
0.0381539
0.0318175
0.0268713
0.0229472
0.019789
0.0172145
0.0150919
0.0133242
0.0118387
0.0105798
0.00950465
0.00858255
0.295943
0.148782
0.0871941
0.0576749
0.0415194
0.0310722
0.0246451
0.020221
0.016905
0.014325
0.0123085
0.0107023
0.00939621
0.0083226
0.00743117
0.00668427
0.00605319
0.00551617
0.00505998
0.00470986
0.295943
0.148782
0.0871941
0.0576749
0.0415194
0.0310722
0.0246451
0.020221
0.016905
0.014325
0.0123085
0.0107023
0.00939618
0.00832254
0.00743124
0.00668435
0.00605327
0.00551624
0.00506007
0.0047101
0.320484
0.23086
0.167176
0.123531
0.0935159
0.0724825
0.0574407
0.0464214
0.0381539
0.0318175
0.0268713
0.0229472
0.0197889
0.0172144
0.015092
0.0133243
0.0118388
0.0105799
0.00950464
0.00858258
0.323714
0.247819
0.191099
0.14881
0.117249
0.0935708
0.0756573
0.0619606
0.0513628
0.0430613
0.0364793
0.0311996
0.0269178
0.0234097
0.0205081
0.0180867
0.0160493
0.0143208
0.0128391
0.0115401
0.32459
0.252403
0.19891
0.158543
0.12769
0.103871
0.0853201
0.0707499
0.0592099
0.0499926
0.0425683
0.0365382
0.0316003
0.0275246
0.0241347
0.0212944
0.018897
0.0168571
0.0151003
0.013541
0.324844
0.253685
0.20131
0.161836
0.131535
0.107943
0.0893701
0.0746126
0.0627921
0.0532534
0.0455013
0.0391573
0.0339301
0.0295941
0.0259735
0.0229305
0.0203556
0.0181591
0.016259
0.0145498
0.324844
0.253685
0.20131
0.161836
0.131535
0.107943
0.0893701
0.0746126
0.0627921
0.0532534
0.0455013
0.0391573
0.0339301
0.0295941
0.0259735
0.0229305
0.0203555
0.0181591
0.016259
0.0145499
0.32459
0.252403
0.19891
0.158543
0.12769
0.103871
0.0853201
0.0707499
0.05921
0.0499927
0.0425684
0.0365383
0.0316004
0.0275248
0.024135
0.0212948
0.0188975
0.0168578
0.0151016
0.013545
0.323714
0.247819
0.191099
0.14881
0.117249
0.0935708
0.0756574
0.0619607
0.0513629
0.0430615
0.0364796
0.0312
0.0269184
0.0234105
0.0205091
0.0180882
0.0160514
0.0143238
0.0128446
0.0115571
0.320484
0.23086
0.167176
0.123531
0.093516
0.0724826
0.0574409
0.0464216
0.0381543
0.0318179
0.0268718
0.0229481
0.01979
0.017216
0.0150941
0.0133274
0.0118432
0.0105859
0.00951264
0.00859409
0.295943
0.148782
0.0871941
0.0576749
0.0415194
0.0310723
0.0246452
0.0202212
0.0169052
0.0143252
0.0123088
0.0107029
0.00939696
0.00832363
0.00743273
0.00668656
0.00605643
0.00552052
0.00506436
0.00470058
0.292299
0.141633
0.0819301
0.0541653
0.038923
0.0292873
0.0232722
0.0190785
0.0159339
0.0135147
0.0116263
0.0101122
0.00888095
0.00786979
0.00703123
0.00632924
0.00573661
0.00523241
0.004804
0.0044845
0.319723
0.227073
0.162232
0.118772
0.089361
0.0689926
0.0545304
0.0439842
0.0360995
0.0300743
0.0253816
0.0216644
0.0186767
0.016244
0.0142403
0.0125728
0.0111722
0.00998562
0.00897181
0.00810099
0.323293
0.245617
0.187499
0.144537
0.112864
0.0894038
0.0718631
0.0585863
0.0483993
0.0404739
0.0342243
0.0292327
0.0251984
0.0219018
0.0191807
0.0169135
0.0150081
0.0133931
0.0120094
0.0107893
0.324288
0.250862
0.19613
0.154888
0.123591
0.09968
0.0812741
0.0669837
0.0557847
0.0469223
0.0398394
0.0341235
0.0294672
0.0256397
0.0224666
0.0198144
0.0175804
0.015683
0.0140535
0.0126168
0.32459
0.252403
0.19891
0.158543
0.12769
0.103871
0.0853201
0.0707499
0.05921
0.0499927
0.0425684
0.0365383
0.0316004
0.0275248
0.024135
0.0212947
0.0188975
0.0168578
0.0151015
0.0135447
0.32459
0.252403
0.19891
0.158543
0.12769
0.103871
0.0853201
0.0707499
0.0592099
0.0499926
0.0425683
0.0365382
0.0316003
0.0275246
0.0241347
0.0212944
0.018897
0.0168571
0.0151002
0.0135411
0.324288
0.250862
0.19613
0.154888
0.123591
0.09968
0.0812741
0.0669837
0.0557847
0.0469223
0.0398394
0.0341235
0.0294672
0.0256397
0.0224666
0.0198145
0.0175804
0.0156831
0.0140535
0.0126171
0.323293
0.245617
0.187499
0.144537
0.112864
0.0894039
0.0718633
0.0585865
0.0483996
0.0404743
0.0342248
0.0292335
0.0251994
0.0219031
0.0191826
0.0169162
0.015012
0.0133987
0.0120194
0.0108211
0.319723
0.227073
0.162232
0.118772
0.0893611
0.0689928
0.0545307
0.0439847
0.0361001
0.0300752
0.0253829
0.0216662
0.0186792
0.0162474
0.0142452
0.0125798
0.0111823
0.01
0.00899185
0.00813272
0.292299
0.141633
0.0819302
0.0541654
0.0389231
0.0292875
0.0232724
0.0190788
0.0159343
0.0135152
0.0116272
0.0101134
0.0088827
0.00787225
0.00703479
0.00633463
0.00574458
0.00524378
0.00481681
0.00445882
0.283364
0.126774
0.0717019
0.0473281
0.0338662
0.0256615
0.0204607
0.0167969
0.0140484
0.0119408
0.0102836
0.0089552
0.00788379
0.00700929
0.00628553
0.00567973
0.00516937
0.0047363
0.00436969
0.00407881
0.31754
0.217754
0.151085
0.108549
0.0807154
0.0618724
0.0486771
0.0391414
0.0320581
0.0266708
0.022489
0.0191858
0.0165368
0.0143838
0.0126131
0.0111424
0.0099096
0.00886611
0.00797747
0.00719881
0.322005
0.239026
0.177587
0.133616
0.102323
0.0798668
0.0635104
0.0513819
0.0422213
0.035179
0.0296752
0.0253087
0.0217971
0.0189383
0.016585
0.0146283
0.0129866
0.0115972
0.0104102
0.00936853
0.323293
0.245617
0.187499
0.144537
0.112864
0.0894039
0.0718633
0.0585865
0.0483996
0.0404743
0.0342248
0.0292335
0.0251994
0.0219032
0.0191825
0.0169161
0.0150119
0.0133987
0.0120193
0.0108207
0.323714
0.247819
0.191099
0.14881
0.117249
0.0935708
0.0756574
0.0619607
0.0513629
0.0430615
0.0364796
0.0312
0.0269184
0.0234105
0.0205091
0.0180882
0.0160514
0.0143238
0.0128445
0.0115569
0.323714
0.247819
0.191099
0.14881
0.117249
0.0935708
0.0756573
0.0619606
0.0513627
0.0430613
0.0364793
0.0311996
0.0269178
0.0234097
0.0205081
0.0180867
0.0160493
0.0143208
0.0128391
0.0115402
0.323293
0.245617
0.187499
0.144537
0.112864
0.0894038
0.0718631
0.0585863
0.0483993
0.0404739
0.0342243
0.0292328
0.0251985
0.0219019
0.0191806
0.0169135
0.0150081
0.0133932
0.0120095
0.0107895
0.322005
0.239026
0.177587
0.133616
0.102323
0.0798668
0.0635104
0.0513819
0.0422213
0.035179
0.0296752
0.0253087
0.0217971
0.0189383
0.016585
0.0146283
0.0129866
0.0115973
0.0104103
0.00936876
0.31754
0.217754
0.151085
0.108549
0.0807155
0.0618725
0.0486773
0.0391417
0.0320586
0.0266715
0.02249
0.0191872
0.0165388
0.0143866
0.0126172
0.0111485
0.00991867
0.0088797
0.00799791
0.00724999
0.283364
0.126774
0.071702
0.0473282
0.0338663
0.0256617
0.0204609
0.0167971
0.0140488
0.0119414
0.0102844
0.00895641
0.00788553
0.00701182
0.00628943
0.00568585
0.00517894
0.00475132
0.00439167
0.00409757
0.264759
0.104702
0.0585298
0.039163
0.0286198
0.0219934
0.017536
0.0143632
0.0120082
0.0102136
0.00881614
0.0077054
0.00680352
0.00606017
0.00544816
0.00494553
0.00452585
0.00417103
0.00387561
0.00364884
0.311746
0.197541
0.130357
0.0911456
0.0668021
0.050811
0.0397943
0.031912
0.0260941
0.0216871
0.0182764
0.0155882
0.0134406
0.0116977
0.0102664
0.00907798
0.00808183
0.00723738
0.00653247
0.00590532
0.31754
0.217754
0.151085
0.108549
0.0807155
0.0618725
0.0486773
0.0391417
0.0320586
0.0266715
0.02249
0.0191872
0.0165389
0.0143866
0.0126171
0.0111484
0.00991861
0.00887965
0.00799778
0.00724968
0.319723
0.227073
0.162232
0.118772
0.0893611
0.0689928
0.0545307
0.0439847
0.0361001
0.0300752
0.0253829
0.0216663
0.0186792
0.0162474
0.0142451
0.0125798
0.0111823
0.0100001
0.00899195
0.00813281
0.320484
0.23086
0.167176
0.123531
0.093516
0.0724826
0.0574409
0.0464216
0.0381543
0.0318179
0.0268718
0.0229481
0.0197901
0.0172159
0.0150941
0.0133275
0.0118433
0.010586
0.00951281
0.0085944
0.320484
0.23086
0.167176
0.123531
0.0935159
0.0724825
0.0574407
0.0464213
0.0381539
0.0318175
0.0268713
0.0229472
0.0197889
0.0172144
0.015092
0.0133243
0.0118388
0.0105799
0.00950475
0.00858268
0.319723
0.227073
0.162232
0.118772
0.089361
0.0689926
0.0545304
0.0439842
0.0360995
0.0300743
0.0253816
0.0216645
0.0186767
0.0162441
0.0142402
0.0125727
0.0111722
0.00998567
0.00897199
0.0081011
0.31754
0.217754
0.151085
0.108549
0.0807154
0.0618724
0.048677
0.0391414
0.0320581
0.0266708
0.022489
0.0191858
0.0165368
0.0143838
0.012613
0.0111424
0.00990963
0.00886619
0.00797762
0.00719899
0.311746
0.197541
0.130357
0.0911456
0.0668021
0.050811
0.0397943
0.031912
0.0260941
0.0216871
0.0182764
0.0155882
0.0134406
0.0116977
0.0102664
0.00907802
0.0080819
0.00723748
0.00653267
0.00590558
0.264759
0.104702
0.0585298
0.039163
0.0286199
0.0219934
0.017536
0.0143633
0.0120082
0.0102138
0.0088164
0.00770583
0.00680429
0.00606169
0.0054505
0.00494961
0.0045334
0.00418565
0.00390492
0.00368978
0.213564
0.055916
0.0283994
0.0193411
0.0146927
0.011851
0.00989062
0.00851596
0.00749118
0.00669612
0.00606026
0.00555046
0.00512222
0.00474405
0.00442392
0.00415461
0.00392629
0.0037322
0.00358624
0.0034152
0.264759
0.104702
0.0585298
0.039163
0.0286199
0.0219934
0.017536
0.0143633
0.0120082
0.0102138
0.0088164
0.00770584
0.00680428
0.00606175
0.00545046
0.00494956
0.00453335
0.0041856
0.00390483
0.00368966
0.283364
0.126774
0.071702
0.0473282
0.0338663
0.0256617
0.0204609
0.0167971
0.0140488
0.0119414
0.0102845
0.00895643
0.00788557
0.00701185
0.00628936
0.00568581
0.00517893
0.00475133
0.00439165
0.00409748
0.292299
0.141633
0.0819302
0.0541654
0.0389231
0.0292875
0.0232724
0.0190788
0.0159343
0.0135152
0.0116272
0.0101134
0.00888273
0.00787228
0.00703473
0.00633462
0.00574461
0.00524385
0.00481693
0.004459
0.295943
0.148782
0.0871941
0.057675
0.0415194
0.0310723
0.0246452
0.0202212
0.0169052
0.0143252
0.0123089
0.0107029
0.00939696
0.00832362
0.00743275
0.00668661
0.0060565
0.00552062
0.0050645
0.00470074
0.295943
0.148782
0.0871941
0.0576749
0.0415194
0.0310723
0.0246451
0.020221
0.016905
0.014325
0.0123085
0.0107023
0.00939619
0.00832256
0.00743126
0.00668436
0.00605327
0.00551624
0.00506007
0.00471007
0.292299
0.141633
0.0819301
0.0541653
0.038923
0.0292873
0.0232722
0.0190785
0.0159339
0.0135146
0.0116263
0.0101122
0.00888099
0.00786986
0.00703114
0.00632919
0.00573658
0.00523238
0.00480399
0.00448448
0.283364
0.126774
0.0717019
0.0473281
0.0338662
0.0256615
0.0204607
0.0167969
0.0140484
0.0119408
0.0102836
0.0089552
0.00788381
0.00700932
0.00628545
0.00567967
0.00516934
0.00473628
0.00436971
0.00407885
0.264759
0.104702
0.0585298
0.039163
0.0286198
0.0219934
0.017536
0.0143632
0.0120081
0.0102136
0.00881613
0.00770539
0.00680349
0.00606019
0.00544812
0.00494551
0.00452585
0.00417104
0.00387565
0.00364889
0.213564
0.055916
0.0283994
0.0193411
0.0146927
0.011851
0.00989062
0.00851596
0.00749118
0.00669611
0.00606026
0.00555045
0.00512223
0.00474402
0.00442393
0.00415462
0.00392631
0.00373223
0.00358626
0.00341534
0.00385223
0.00352573
0.00324658
0.00306059
0.00293392
0.00283962
0.0027572
0.00267946
0.00260891
0.00254226
0.00248558
0.00243485
0.00238628
0.00233944
0.00229644
0.00225461
0.002216
0.00217817
0.00214289
0.00210945
0.00207651
0.00204555
0.00201579
0.00198812
0.00196168
0.00193585
0.00191077
0.0018858
0.0018614
0.00183728
0.0018146
0.0017919
0.00176936
0.00174652
0.00172309
0.00170387
0.00168436
0.00166443
0.00164715
0.00161767
0.0038108
0.00344583
0.0031761
0.00297001
0.00281211
0.00268564
0.00257693
0.00248097
0.00239567
0.00231487
0.00224648
0.0021861
0.00212983
0.00207847
0.00203047
0.00198476
0.00194314
0.00190403
0.0018676
0.0018335
0.00180056
0.0017695
0.00174038
0.00171332
0.00168822
0.00166429
0.00164106
0.00161834
0.00159623
0.00157426
0.00155309
0.00153241
0.00151233
0.0014926
0.00147269
0.00145381
0.00143603
0.00141847
0.00140178
0.00138256
0.00410572
0.0037045
0.00341888
0.00319132
0.00300518
0.0028463
0.00271002
0.00259202
0.00248896
0.00239861
0.00231679
0.00224487
0.00217924
0.00212044
0.00206283
0.00201082
0.00196362
0.00192044
0.00187908
0.00184005
0.0018032
0.00176604
0.001731
0.00169926
0.00167038
0.00164338
0.00161709
0.00159152
0.00156693
0.00154295
0.00151981
0.00149706
0.0014753
0.00145412
0.00143334
0.00141394
0.0013947
0.00137575
0.00135771
0.00133889
0.00427658
0.0039058
0.0036155
0.00337973
0.00317828
0.00300314
0.00284887
0.00271267
0.0025919
0.00248425
0.00238808
0.00230203
0.00222341
0.00215272
0.00208823
0.00202929
0.00197453
0.0019256
0.00187467
0.00182737
0.00178497
0.00174499
0.0017068
0.00167071
0.00163705
0.00160565
0.00157604
0.00154786
0.00152132
0.00149559
0.00147075
0.00144594
0.00142295
0.0014004
0.00137941
0.00135831
0.00133851
0.00131913
0.00130064
0.00128197
0.00430454
0.00397827
0.003701
0.00346184
0.00325346
0.00307131
0.00291098
0.002769
0.002642
0.00252793
0.00242506
0.00233191
0.00224743
0.00217012
0.00209994
0.00203539
0.00197563
0.00192009
0.00186881
0.00182051
0.00177823
0.00173343
0.00169143
0.00165282
0.00161746
0.00158414
0.00155319
0.0015238
0.00149644
0.00147007
0.00144488
0.00141963
0.00139657
0.00137311
0.00135159
0.00132927
0.00130901
0.00128952
0.00127107
0.00125345
0.0041953
0.00390906
0.00365373
0.00342737
0.00322693
0.00304983
0.00289313
0.00275372
0.00262807
0.0025141
0.00241044
0.00231608
0.00223047
0.00215092
0.00207797
0.00201104
0.00194966
0.0018936
0.00184175
0.00179369
0.00174934
0.00170798
0.00167048
0.0016341
0.00159668
0.00156133
0.00152924
0.00149977
0.00147308
0.00144715
0.00142303
0.00139932
0.00137642
0.00135031
0.00133056
0.00130665
0.00128716
0.0012682
0.0012497
0.00123196
0.00411817
0.00380945
0.00354789
0.00332458
0.0031316
0.00296354
0.00281552
0.00268316
0.00256296
0.00245357
0.00235383
0.00226273
0.00217957
0.00210289
0.00203263
0.00196813
0.00190887
0.00185451
0.00180485
0.00175924
0.00171727
0.00167818
0.00164118
0.0016069
0.00157059
0.00153733
0.00150732
0.00147933
0.00145355
0.0014278
0.0014037
0.00137974
0.00135698
0.00133268
0.00131258
0.00129154
0.00127115
0.00125174
0.00123246
0.00121369
0.00404083
0.00365686
0.00338495
0.00316969
0.00299108
0.00283835
0.00270266
0.00257999
0.00246844
0.00236664
0.00227368
0.00218852
0.00211079
0.00204019
0.00197558
0.00191631
0.00186226
0.00181269
0.00176705
0.00172495
0.00168667
0.00164973
0.00161347
0.00157954
0.00154905
0.00151966
0.0014923
0.00146596
0.00143995
0.0014139
0.00138957
0.00136688
0.00134601
0.00132508
0.0013044
0.00128347
0.00126176
0.00124149
0.00122158
0.00120202
0.00387111
0.00339739
0.0031463
0.00296795
0.00281658
0.00268372
0.00256481
0.00245718
0.00235933
0.00226986
0.00218932
0.00211561
0.00205034
0.00198998
0.00193551
0.00188249
0.00183027
0.00178536
0.0017436
0.00170545
0.00166922
0.00163553
0.00160352
0.00157256
0.00154435
0.00151688
0.00149129
0.00146676
0.00144374
0.00142129
0.00139984
0.00137884
0.00135867
0.00133878
0.00131909
0.00129821
0.00127702
0.0012574
0.00123882
0.00121992
0.0033971
0.00317529
0.00296148
0.00280121
0.00267659
0.00257315
0.00247835
0.00238833
0.00230806
0.00223234
0.00216495
0.00210561
0.00205419
0.00199816
0.0019479
0.00190104
0.00185699
0.0018162
0.00177805
0.00174277
0.00170932
0.00167834
0.00165001
0.00162362
0.001599
0.00157516
0.0015523
0.00153016
0.00150899
0.00148788
0.00146768
0.00144803
0.00142888
0.00140983
0.00139095
0.00137041
0.00135233
0.00133459
0.00131837
0.00129922
0.00385213
0.00352481
0.00324544
0.00305932
0.00293084
0.00283526
0.00275321
0.00267668
0.00260723
0.00254208
0.00248584
0.00243481
0.00238766
0.00234085
0.00229692
0.00225523
0.00221614
0.00217856
0.00214327
0.00210961
0.00207695
0.00204558
0.00201614
0.00198822
0.00196205
0.00193601
0.00191097
0.00188595
0.00186152
0.00183744
0.00181484
0.00179222
0.00176983
0.00174735
0.0017252
0.00170359
0.00168387
0.00166353
0.00164577
0.00161474
0.00339694
0.00317514
0.00296246
0.0028049
0.00268631
0.00258189
0.00248452
0.00239217
0.00231048
0.00223302
0.00216464
0.00210559
0.00205264
0.00199598
0.00194703
0.0018998
0.00185678
0.0018157
0.00177779
0.00174256
0.00170898
0.00167813
0.00164976
0.00162349
0.00159884
0.0015751
0.00155232
0.00153025
0.00150912
0.00148797
0.00146778
0.00144809
0.00142886
0.0014094
0.00138906
0.00136985
0.00135281
0.00133588
0.00132004
0.00130161
0.00454708
0.00416035
0.00380809
0.0035375
0.00331567
0.00309036
0.0028831
0.00269081
0.00251694
0.00234413
0.00220605
0.00207542
0.00195858
0.00184447
0.00175124
0.0016577
0.00158025
0.00150455
0.0014383
0.00137772
0.00131471
0.00125944
0.00121165
0.00117376
0.00113632
0.00109979
0.00106594
0.00103325
0.00100416
0.00097627
0.000948265
0.000921123
0.00089659
0.000872918
0.000844799
0.000822139
0.000801912
0.000782619
0.000764555
0.000750765
0.00583364
0.0052898
0.00483166
0.00446673
0.00413228
0.00383682
0.00357144
0.00333278
0.00311775
0.00292339
0.00274838
0.00258513
0.00244581
0.00231213
0.00219734
0.00208544
0.00198935
0.00189667
0.00181455
0.0017369
0.0016613
0.00159542
0.00152924
0.00147208
0.0014151
0.00136292
0.00131551
0.00126795
0.00122797
0.00118775
0.00114806
0.00110744
0.00107343
0.00103904
0.00100727
0.000970892
0.000937099
0.000903499
0.000875009
0.000838107
0.00675193
0.00611267
0.00556932
0.00510259
0.00470135
0.0043517
0.00403959
0.00376076
0.00351131
0.00328737
0.00308584
0.00290336
0.00273929
0.00258999
0.00245412
0.00233
0.00221617
0.00211247
0.00201539
0.00192827
0.00184472
0.00177057
0.00169747
0.00163289
0.00156972
0.00151423
0.00145979
0.00141086
0.00136399
0.00131919
0.00127524
0.00123051
0.0011916
0.001152
0.00111627
0.00107685
0.00103865
0.00100009
0.000966121
0.000922345
0.00728439
0.00659972
0.00601031
0.00549876
0.00505228
0.00466324
0.00432181
0.00402024
0.00375006
0.00350747
0.00328916
0.00309205
0.00291408
0.00275261
0.00260558
0.00247139
0.00234859
0.00223602
0.00213251
0.00203694
0.00194983
0.00186159
0.00177995
0.00171114
0.00165
0.00159137
0.00153752
0.00148378
0.00143221
0.00138332
0.00133764
0.00129209
0.00125031
0.00120781
0.00116866
0.0011263
0.00108466
0.00104334
0.00100517
0.000956807
0.0074694
0.00677728
0.00617515
0.00565013
0.00519071
0.00478897
0.0044372
0.00412806
0.00385188
0.00360296
0.00337835
0.00317566
0.00299153
0.00282515
0.00267357
0.00253516
0.00240847
0.00229227
0.00218545
0.00208691
0.00199617
0.00191145
0.00183344
0.00175246
0.00167674
0.00161137
0.00155673
0.0015055
0.00145694
0.00140983
0.00136442
0.00132135
0.00127541
0.00122836
0.00118593
0.00114051
0.0010952
0.00105366
0.00101141
0.000960439
0.00729835
0.0066299
0.00604499
0.00553673
0.00509395
0.00470839
0.00437167
0.00407406
0.00380562
0.00356296
0.00334345
0.00314532
0.00296292
0.00279914
0.00264969
0.00251307
0.00238776
0.00227266
0.00216665
0.00206879
0.00197841
0.00189397
0.00181695
0.00173975
0.00166765
0.00160582
0.00154633
0.00148784
0.00143609
0.00138401
0.00133425
0.00128438
0.00123894
0.00119297
0.00115106
0.00110474
0.00105883
0.00101555
0.000970564
0.000916078
0.00686923
0.0061875
0.00562518
0.00515544
0.00475603
0.00441295
0.00410844
0.00383348
0.00358427
0.00335789
0.00315239
0.0029657
0.00279291
0.00263787
0.00249583
0.00236591
0.00224592
0.00213614
0.00203448
0.00194086
0.00185396
0.00177228
0.00169819
0.00162292
0.00155842
0.00149377
0.00143705
0.00137919
0.00132942
0.00127842
0.00122854
0.00117763
0.00113387
0.00108939
0.00104888
0.00100733
0.000958236
0.000911464
0.000867015
0.000816293
0.00592459
0.0053597
0.00489058
0.00450957
0.00418119
0.00388857
0.00362328
0.00338079
0.00315865
0.00295356
0.00276891
0.00259641
0.00244286
0.0023016
0.00217143
0.00205485
0.00194194
0.00184645
0.00175156
0.00167028
0.00158927
0.00151765
0.00144923
0.00138659
0.00133165
0.00127551
0.00122802
0.0011788
0.00113791
0.00109628
0.00105569
0.0010139
0.00097983
0.000944755
0.000912932
0.000874556
0.000829895
0.000793361
0.000761123
0.000735064
0.00454629
0.00415782
0.00380487
0.00352591
0.00328285
0.00306539
0.00286386
0.00267757
0.00250718
0.00234005
0.00220437
0.00207501
0.00196105
0.00184863
0.00175185
0.00166047
0.00157982
0.00150522
0.00143861
0.00137773
0.00131614
0.00125959
0.00121275
0.0011737
0.0011372
0.00109977
0.00106584
0.00103292
0.00100376
0.00097614
0.000948275
0.000921315
0.000897042
0.000873663
0.000851061
0.000828045
0.000798901
0.000776983
0.000759223
0.000746737
0.00381053
0.00344407
0.00317387
0.00296923
0.00280905
0.00268056
0.00257233
0.00247782
0.00239339
0.00231413