/*--------------------------------*- C++ -*----------------------------------*\
| =========                 |                                                 |
| \\      /  F ield         | OpenFOAM: The Open Source CFD Toolbox           |
|  \\    /   O peration     | Version:  2212                                  |
|   \\  /    A nd           | Website:  www.openfoam.com                      |
|    \\/     M anipulation  |                                                 |
\*---------------------------------------------------------------------------*/
FoamFile
{
    version     2.0;
    format      ascii;
    arch        "LSB;label=32;scalar=64";
    class       volScalarField;
    location    "1.8";
    object      nut;
}
// * * * * * * * * * * * * * * * * * * * * * * * * * * * * * * * * * * * * * //

dimensions      [0 2 -1 0 0 0 0];

internalField   nonuniform List<scalar> 
6840
(
4.5356e-05
2.3208e-05
1.65396e-05
1.36493e-05
1.18966e-05
1.06844e-05
9.76073e-06
9.05706e-06
8.49466e-06
8.03124e-06
7.64042e-06
7.31204e-06
7.02436e-06
6.76021e-06
6.52831e-06
6.3269e-06
6.1515e-06
5.99989e-06
5.89057e-06
5.75669e-06
0.000107685
6.77183e-05
5.06311e-05
4.14159e-05
3.54048e-05
3.10366e-05
2.77136e-05
2.50815e-05
2.29333e-05
2.11503e-05
1.96501e-05
1.83705e-05
1.72619e-05
1.62912e-05
1.54463e-05
1.47158e-05
1.40764e-05
1.35111e-05
1.30194e-05
1.26158e-05
0.000160509
0.00010736
8.07408e-05
6.55975e-05
5.54895e-05
4.83024e-05
4.31308e-05
3.90788e-05
3.57387e-05
3.29489e-05
3.05769e-05
2.85335e-05
2.67719e-05
2.5243e-05
2.39033e-05
2.27209e-05
2.16739e-05
2.07427e-05
1.99186e-05
1.92221e-05
0.000198681
0.0001383
0.000105187
8.55268e-05
7.25011e-05
6.289e-05
5.60608e-05
5.07589e-05
4.63875e-05
4.27209e-05
3.96239e-05
3.69534e-05
3.46303e-05
3.25987e-05
3.0812e-05
2.92319e-05
2.78273e-05
2.65727e-05
2.54584e-05
2.46162e-05
0.000218609
0.000155003
0.000118661
9.65068e-05
8.18823e-05
7.08355e-05
6.30855e-05
5.71433e-05
5.22482e-05
4.8096e-05
4.45823e-05
4.15717e-05
3.89521e-05
3.66588e-05
3.46397e-05
3.28518e-05
3.12612e-05
2.98407e-05
2.85809e-05
2.76054e-05
0.000218609
0.000155003
0.000118661
9.65069e-05
8.18824e-05
7.08356e-05
6.30856e-05
5.71436e-05
5.22486e-05
4.80967e-05
4.45834e-05
4.15734e-05
3.89546e-05
3.66625e-05
3.46452e-05
3.28604e-05
3.12741e-05
2.98591e-05
2.86021e-05
2.75903e-05
0.000198681
0.0001383
0.000105187
8.55269e-05
7.25013e-05
6.28902e-05
5.60612e-05
5.07595e-05
4.63884e-05
4.27224e-05
3.96262e-05
3.69569e-05
3.46356e-05
3.26067e-05
3.08243e-05
2.92514e-05
2.78575e-05
2.66181e-05
2.55143e-05
2.45478e-05
0.000160509
0.00010736
8.07409e-05
6.55976e-05
5.54896e-05
4.83026e-05
4.31311e-05
3.90792e-05
3.57394e-05
3.29502e-05
3.05789e-05
2.85366e-05
2.67766e-05
2.52502e-05
2.39151e-05
2.27402e-05
2.17056e-05
2.0795e-05
1.99969e-05
1.93014e-05
0.000107685
6.77183e-05
5.06311e-05
4.14159e-05
3.54048e-05
3.10366e-05
2.77137e-05
2.50816e-05
2.29334e-05
2.11506e-05
1.96506e-05
1.83714e-05
1.72634e-05
1.62945e-05
1.54517e-05
1.47256e-05
1.40953e-05
1.35498e-05
1.31029e-05
1.27701e-05
4.5356e-05
2.3208e-05
1.65396e-05
1.36493e-05
1.18966e-05
1.06844e-05
9.76073e-06
9.05706e-06
8.49466e-06
8.03124e-06
7.64042e-06
7.31204e-06
7.02438e-06
6.76017e-06
6.52834e-06
6.32692e-06
6.15152e-06
5.99992e-06
5.89064e-06
5.75686e-06
0.000107685
6.77183e-05
5.06311e-05
4.14159e-05
3.54048e-05
3.10366e-05
2.77137e-05
2.50816e-05
2.29334e-05
2.11506e-05
1.96506e-05
1.83714e-05
1.72634e-05
1.62946e-05
1.54517e-05
1.47256e-05
1.40953e-05
1.35498e-05
1.31029e-05
1.277e-05
0.000528907
0.000369984
0.000305097
0.000261371
0.000228527
0.000202475
0.000181113
0.000163072
0.000147538
0.000133982
0.000122047
0.000111463
0.000102132
9.38583e-05
8.64524e-05
7.96527e-05
7.34504e-05
6.77807e-05
6.36842e-05
5.71398e-05
0.000663952
0.000488458
0.000404618
0.000347247
0.000305035
0.000272126
0.000245317
0.000222886
0.000203752
0.000187173
0.000172645
0.000159801
0.000148353
0.000138086
0.000128824
0.00012056
0.000113083
0.000106196
0.000100226
9.37443e-05
0.00071288
0.000556432
0.000466396
0.000402354
0.000354425
0.000317049
0.000286673
0.000261252
0.000239577
0.000220839
0.000204433
0.000189935
0.000177023
0.000165441
0.000154977
0.000145487
0.000136832
0.000128888
0.00012157
0.000114938
0.000728543
0.000588231
0.000496002
0.000429131
0.000378509
0.000338934
0.000306818
0.000279972
0.000257071
0.000237253
0.000219906
0.000204572
0.000190909
0.000178653
0.000167595
0.000157554
0.000148401
0.000140017
0.000132294
0.000125184
0.000728543
0.000588231
0.000496002
0.000429132
0.00037851
0.000338935
0.00030682
0.000279976
0.000257076
0.000237261
0.000219918
0.00020459
0.000190937
0.000178697
0.000167664
0.000157653
0.000148544
0.000140219
0.000132573
0.000125609
0.00071288
0.000556432
0.000466397
0.000402355
0.000354426
0.000317051
0.000286677
0.000261259
0.000239588
0.000220855
0.000204459
0.000189974
0.000177084
0.000165539
0.000155121
0.000145697
0.000137142
0.000129342
0.000122229
0.000116217
0.000663952
0.000488458
0.000404619
0.000347248
0.000305036
0.000272128
0.000245319
0.000222891
0.000203759
0.000187185
0.000172664
0.00015983
0.000148397
0.000138156
0.000128936
0.000120725
0.00011333
0.000106571
0.000100832
9.50773e-05
0.000528907
0.000369984
0.000305097
0.000261371
0.000228527
0.000202475
0.000181113
0.000163072
0.000147538
0.000133982
0.000122047
0.000111463
0.000102131
9.38553e-05
8.64551e-05
7.96537e-05
7.34505e-05
6.77804e-05
6.36834e-05
5.71381e-05
0.000107685
6.77183e-05
5.06311e-05
4.14159e-05
3.54048e-05
3.10366e-05
2.77136e-05
2.50815e-05
2.29333e-05
2.11503e-05
1.96501e-05
1.83705e-05
1.72619e-05
1.62912e-05
1.54462e-05
1.47158e-05
1.40765e-05
1.35113e-05
1.30198e-05
1.26167e-05
0.000160509
0.00010736
8.07409e-05
6.55976e-05
5.54896e-05
4.83026e-05
4.31311e-05
3.90792e-05
3.57394e-05
3.29502e-05
3.05789e-05
2.85366e-05
2.67767e-05
2.52502e-05
2.3915e-05
2.27401e-05
2.17057e-05
2.07951e-05
1.99968e-05
1.92994e-05
0.000663952
0.000488458
0.000404619
0.000347248
0.000305036
0.000272128
0.000245319
0.000222891
0.000203759
0.000187186
0.000172664
0.000159831
0.000148399
0.000138156
0.000128937
0.000120726
0.000113334
0.000106578
0.000100831
9.5078e-05
0.000786827
0.000662293
0.000567974
0.000495805
0.000439463
0.000394561
0.000357973
0.00032745
0.000301488
0.000279048
0.000259394
0.000241997
0.000226464
0.000212496
0.00019986
0.000188394
0.000177932
0.000168326
0.000159469
0.000150303
0.000809324
0.000713905
0.000631504
0.000562573
0.000505377
0.000457785
0.00041784
0.000383937
0.000354801
0.000329445
0.000307149
0.000287368
0.000269684
0.000253769
0.000239362
0.000226262
0.000214283
0.000203249
0.000192899
0.000182219
0.000814958
0.000730426
0.000654634
0.000589044
0.000533067
0.000485438
0.000444763
0.000409793
0.00037947
0.000352932
0.000329492
0.00030863
0.000289941
0.000273104
0.000257855
0.000243977
0.000231285
0.000219596
0.000208636
0.000197675
0.000814958
0.000730426
0.000654634
0.000589044
0.000533068
0.000485439
0.000444765
0.000409796
0.000379474
0.000352938
0.000329501
0.000308643
0.000289961
0.000273132
0.0002579
0.00024404
0.000231376
0.000219727
0.000208853
0.000198223
0.000809324
0.000713906
0.000631505
0.000562574
0.000505378
0.000457786
0.000417842
0.000383941
0.000354807
0.000329454
0.000307163
0.000287389
0.000269716
0.00025382
0.000239439
0.000226371
0.000214441
0.000203482
0.000193289
0.000183269
0.000786827
0.000662293
0.000567974
0.000495805
0.000439463
0.000394561
0.000357973
0.00032745
0.000301488
0.000279047
0.000259394
0.000241996
0.000226462
0.000212493
0.000199862
0.000188394
0.00017793
0.000168323
0.000159464
0.000150303
0.000663952
0.000488458
0.000404618
0.000347247
0.000305035
0.000272126
0.000245317
0.000222886
0.000203752
0.000187173
0.000172645
0.000159801
0.000148353
0.000138082
0.000128828
0.000120562
0.000113085
0.000106199
0.000100231
9.37541e-05
0.000160509
0.00010736
8.07408e-05
6.55975e-05
5.54895e-05
4.83024e-05
4.31308e-05
3.90788e-05
3.57387e-05
3.29489e-05
3.0577e-05
2.85335e-05
2.6772e-05
2.5243e-05
2.39032e-05
2.27208e-05
2.16739e-05
2.07428e-05
1.99187e-05
1.92227e-05
0.000198681
0.0001383
0.000105187
8.55269e-05
7.25013e-05
6.28902e-05
5.60612e-05
5.07595e-05
4.63884e-05
4.27224e-05
3.96262e-05
3.69569e-05
3.46357e-05
3.26067e-05
3.08242e-05
2.92513e-05
2.78575e-05
2.66182e-05
2.55147e-05
2.45483e-05
0.00071288
0.000556432
0.000466397
0.000402355
0.000354426
0.000317051
0.000286677
0.000261259
0.000239588
0.000220855
0.000204459
0.000189975
0.000177085
0.000165533
0.000155125
0.0001457
0.000137145
0.000129348
0.000122237
0.000116217
0.000809324
0.000713906
0.000631505
0.000562574
0.000505378
0.000457786
0.000417842
0.000383942
0.000354807
0.000329454
0.000307163
0.00028739
0.000269717
0.000253819
0.00023944
0.000226373
0.000214444
0.000203488
0.000193297
0.000183273
0.000823497
0.000753987
0.000688491
0.000628748
0.000575387
0.000528266
0.000486845
0.000450441
0.000418362
0.000389973
0.000364726
0.000342159
0.000321889
0.000303594
0.000287011
0.000271917
0.000258105
0.000245359
0.000233333
0.000221184
0.000826292
0.000764347
0.000706102
0.000651937
0.000602231
0.000557104
0.000516428
0.000479912
0.000447181
0.000417832
0.000391476
0.000367749
0.000346331
0.000326935
0.000309314
0.000293251
0.000278532
0.000264914
0.000251976
0.000238713
0.000826292
0.000764347
0.000706102
0.000651937
0.000602231
0.000557104
0.000516428
0.000479913
0.000447182
0.000417834
0.000391478
0.000367753
0.000346336
0.000326942
0.000309326
0.000293267
0.000278555
0.000264947
0.000252033
0.000238867
0.000823497
0.000753987
0.000688491
0.000628748
0.000575387
0.000528266
0.000486845
0.000450441
0.000418362
0.000389973
0.000364725
0.000342159
0.000321887
0.000303593
0.000287012
0.000271916
0.000258104
0.000245356
0.000233327
0.000221185
0.000809324
0.000713905
0.000631504
0.000562573
0.000505377
0.000457785
0.00041784
0.000383937
0.000354801
0.000329445
0.000307148
0.000287367
0.000269683
0.000253767
0.000239364
0.000226262
0.000214283
0.000203249
0.000192901
0.000182243
0.00071288
0.000556432
0.000466396
0.000402354
0.000354425
0.000317049
0.000286673
0.000261252
0.000239577
0.000220839
0.000204433
0.000189935
0.000177025
0.000165439
0.000154978
0.000145487
0.000136833
0.00012889
0.000121576
0.000114952
0.000198681
0.0001383
0.000105187
8.55268e-05
7.25011e-05
6.289e-05
5.60608e-05
5.07589e-05
4.63875e-05
4.27209e-05
3.96239e-05
3.69534e-05
3.46304e-05
3.25988e-05
3.08117e-05
2.92317e-05
2.78271e-05
2.65726e-05
2.54583e-05
2.46157e-05
0.000218609
0.000155003
0.000118661
9.65069e-05
8.18824e-05
7.08356e-05
6.30856e-05
5.71436e-05
5.22486e-05
4.80967e-05
4.45834e-05
4.15734e-05
3.89546e-05
3.66625e-05
3.46452e-05
3.28604e-05
3.12742e-05
2.98592e-05
2.86024e-05
2.75908e-05
0.000728543
0.000588231
0.000496002
0.000429132
0.00037851
0.000338935
0.00030682
0.000279976
0.000257076
0.000237261
0.000219918
0.00020459
0.000190937
0.000178696
0.000167665
0.000157654
0.000148545
0.000140222
0.000132576
0.000125614
0.000814958
0.000730426
0.000654634
0.000589044
0.000533068
0.000485439
0.000444765
0.000409796
0.000379474
0.000352938
0.000329501
0.000308643
0.000289961
0.000273133
0.000257901
0.000244042
0.000231378
0.00021973
0.000208856
0.000198231
0.000826292
0.000764347
0.000706102
0.000651937
0.000602231
0.000557104
0.000516428
0.000479913
0.000447182
0.000417834
0.000391478
0.000367753
0.000346336
0.000326943
0.000309327
0.000293268
0.000278556
0.000264949
0.000252037
0.000238871
0.000828382
0.0007726
0.000721138
0.00067296
0.000627782
0.00058562
0.000546547
0.000510579
0.000477648
0.000447615
0.000420287
0.000395445
0.000372861
0.000352308
0.000333574
0.000316458
0.000300739
0.000286135
0.000272095
0.000257239
0.000828382
0.0007726
0.000721138
0.00067296
0.000627782
0.00058562
0.000546547
0.000510579
0.000477648
0.000447615
0.000420287
0.000395445
0.000372861
0.000352308
0.000333574
0.000316458
0.000300739
0.000286135
0.000272094
0.000257242
0.000826292
0.000764347
0.000706102
0.000651937
0.00060223
0.000557104
0.000516428
0.000479912
0.000447181
0.000417832
0.000391475
0.000367749
0.00034633
0.000326934
0.000309316
0.000293252
0.000278533
0.000264915
0.000251976
0.000238721
0.000814958
0.000730426
0.000654634
0.000589044
0.000533067
0.000485438
0.000444763
0.000409793
0.00037947
0.000352932
0.000329492
0.00030863
0.000289943
0.000273104
0.000257854
0.000243976
0.000231286
0.000219598
0.00020864
0.00019769
0.000728543
0.000588231
0.000496002
0.000429131
0.000378509
0.000338934
0.000306818
0.000279972
0.000257071
0.000237253
0.000219906
0.000204572
0.000190911
0.000178657
0.00016759
0.000157551
0.0001484
0.000140017
0.000132296
0.000125186
0.000218609
0.000155003
0.000118661
9.65068e-05
8.18823e-05
7.08355e-05
6.30855e-05
5.71433e-05
5.22482e-05
4.8096e-05
4.45823e-05
4.15717e-05
3.89522e-05
3.6659e-05
3.46394e-05
3.28516e-05
3.1261e-05
2.98405e-05
2.85806e-05
2.76046e-05
0.000218609
0.000155003
0.000118661
9.65068e-05
8.18823e-05
7.08355e-05
6.30855e-05
5.71433e-05
5.22482e-05
4.8096e-05
4.45823e-05
4.15717e-05
3.89521e-05
3.66588e-05
3.46397e-05
3.28518e-05
3.12612e-05
2.98407e-05
2.85809e-05
2.76056e-05
0.000728543
0.000588231
0.000496002
0.000429131
0.000378509
0.000338934
0.000306817
0.000279972
0.000257071
0.000237253
0.000219905
0.000204571
0.000190908
0.000178652
0.000167595
0.000157553
0.0001484
0.000140015
0.00013229
0.000125179
0.000814958
0.000730426
0.000654634
0.000589044
0.000533067
0.000485438
0.000444763
0.000409793
0.00037947
0.000352932
0.000329492
0.000308629
0.000289941
0.000273103
0.000257855
0.000243976
0.000231284
0.000219593
0.00020863
0.000197671
0.000826292
0.000764347
0.000706102
0.000651937
0.00060223
0.000557104
0.000516428
0.000479912
0.000447181
0.000417832
0.000391475
0.000367749
0.00034633
0.000326935
0.000309314
0.000293251
0.000278532
0.000264913
0.000251974
0.00023871
0.000828382
0.0007726
0.000721138
0.00067296
0.000627782
0.00058562
0.000546547
0.000510579
0.000477648
0.000447615
0.000420287
0.000395445
0.000372861
0.000352308
0.000333574
0.000316458
0.000300739
0.000286135
0.000272094
0.000257237
0.000828382
0.0007726
0.000721138
0.00067296
0.000627782
0.00058562
0.000546547
0.000510579
0.000477648
0.000447615
0.000420287
0.000395445
0.000372861
0.000352308
0.000333574
0.000316458
0.000300739
0.000286135
0.000272095
0.000257246
0.000826292
0.000764347
0.000706102
0.000651937
0.000602231
0.000557104
0.000516428
0.000479913
0.000447182
0.000417834
0.000391478
0.000367753
0.000346336
0.000326942
0.000309327
0.000293269
0.000278557
0.00026495
0.000252036
0.000238877
0.000814958
0.000730426
0.000654634
0.000589044
0.000533068
0.000485439
0.000444765
0.000409796
0.000379474
0.000352938
0.000329501
0.000308644
0.000289963
0.000273136
0.000257898
0.00024404
0.000231378
0.000219731
0.000208858
0.000198236
0.000728543
0.000588231
0.000496002
0.000429132
0.00037851
0.000338935
0.00030682
0.000279976
0.000257076
0.000237261
0.000219918
0.00020459
0.000190939
0.000178703
0.000167657
0.000157648
0.000148541
0.000140217
0.000132571
0.000125606
0.000218609
0.000155003
0.000118661
9.65069e-05
8.18824e-05
7.08356e-05
6.30856e-05
5.71436e-05
5.22486e-05
4.80967e-05
4.45834e-05
4.15734e-05
3.89546e-05
3.66626e-05
3.46451e-05
3.28603e-05
3.1274e-05
2.98589e-05
2.8602e-05
2.75902e-05
0.000198681
0.0001383
0.000105187
8.55268e-05
7.25011e-05
6.289e-05
5.60608e-05
5.07589e-05
4.63875e-05
4.27209e-05
3.96239e-05
3.69534e-05
3.46303e-05
3.25986e-05
3.0812e-05
2.92319e-05
2.78273e-05
2.65727e-05
2.54582e-05
2.46161e-05
0.00071288
0.000556432
0.000466396
0.000402354
0.000354425
0.000317049
0.000286673
0.000261252
0.000239577
0.000220839
0.000204433
0.000189934
0.000177023
0.00016544
0.000154977
0.000145485
0.000136829
0.000128883
0.000121563
0.000114931
0.000809324
0.000713905
0.000631504
0.000562573
0.000505377
0.000457785
0.00041784
0.000383937
0.000354801
0.000329445
0.000307148
0.000287367
0.000269683
0.000253768
0.000239361
0.000226259
0.000214279
0.000203244
0.000192892
0.000182204
0.000823497
0.000753987
0.000688491
0.000628748
0.000575387
0.000528266
0.000486845
0.000450441
0.000418362
0.000389973
0.000364725
0.000342159
0.000321889
0.000303594
0.000287009
0.000271915
0.000258103
0.000245356
0.000233327
0.00022117
0.000826292
0.000764347
0.000706102
0.000651937
0.000602231
0.000557104
0.000516428
0.000479913
0.000447182
0.000417834
0.000391478
0.000367753
0.000346336
0.000326943
0.000309326
0.000293267
0.000278556
0.000264949
0.000252035
0.00023887
0.000826292
0.000764347
0.000706102
0.000651937
0.00060223
0.000557104
0.000516428
0.000479912
0.000447181
0.000417832
0.000391475
0.000367749
0.000346331
0.000326935
0.000309314
0.000293251
0.000278533
0.000264914
0.000251975
0.000238719
0.000823497
0.000753987
0.000688491
0.000628748
0.000575387
0.000528266
0.000486845
0.000450441
0.000418362
0.000389973
0.000364726
0.000342159
0.000321888
0.000303593
0.000287012
0.000271917
0.000258105
0.000245358
0.000233327
0.000221182
0.000809324
0.000713906
0.000631505
0.000562574
0.000505378
0.000457786
0.000417842
0.000383941
0.000354807
0.000329454
0.000307163
0.00028739
0.000269717
0.00025382
0.000239439
0.000226372
0.000214443
0.000203485
0.000193292
0.000183265
0.00071288
0.000556432
0.000466397
0.000402355
0.000354426
0.000317051
0.000286677
0.000261259
0.000239587
0.000220855
0.000204459
0.000189974
0.000177084
0.000165538
0.00015512
0.000145696
0.00013714
0.00012934
0.000122227
0.000116201
0.000198681
0.0001383
0.000105187
8.55269e-05
7.25013e-05
6.28902e-05
5.60612e-05
5.07595e-05
4.63884e-05
4.27223e-05
3.96262e-05
3.69569e-05
3.46356e-05
3.26067e-05
3.08243e-05
2.92513e-05
2.78575e-05
2.6618e-05
2.55143e-05
2.4548e-05
0.000160509
0.00010736
8.07408e-05
6.55975e-05
5.54895e-05
4.83024e-05
4.31308e-05
3.90788e-05
3.57387e-05
3.29489e-05
3.05769e-05
2.85335e-05
2.67719e-05
2.52429e-05
2.39033e-05
2.27209e-05
2.16739e-05
2.07426e-05
1.99184e-05
1.92216e-05
0.000663952
0.000488458
0.000404618
0.000347247
0.000305035
0.000272126
0.000245317
0.000222886
0.000203752
0.000187173
0.000172645
0.000159801
0.000148353
0.000138086
0.000128824
0.000120558
0.000113079
0.000106189
0.000100229
9.37298e-05
0.000786827
0.000662293
0.000567974
0.000495805
0.000439463
0.000394561
0.000357973
0.00032745
0.000301488
0.000279047
0.000259394
0.000241997
0.000226464
0.000212495
0.000199858
0.000188391
0.000177928
0.000168321
0.000159463
0.00015028
0.000809324
0.000713906
0.000631505
0.000562574
0.000505378
0.000457786
0.000417842
0.000383941
0.000354807
0.000329454
0.000307163
0.00028739
0.000269718
0.000253819
0.000239439
0.000226372
0.000214443
0.000203486
0.000193292
0.000183262
0.000814958
0.000730426
0.000654634
0.000589044
0.000533068
0.000485439
0.000444765
0.000409796
0.000379474
0.000352938
0.000329501
0.000308644
0.000289962
0.000273134
0.000257901
0.000244042
0.000231379
0.000219732
0.000208857
0.000198235
0.000814958
0.000730426
0.000654634
0.000589044
0.000533067
0.000485438
0.000444763
0.000409793
0.00037947
0.000352932
0.000329492
0.00030863
0.000289941
0.000273104
0.000257856
0.000243978
0.000231287
0.000219597
0.000208635
0.00019768
0.000809324
0.000713905
0.000631504
0.000562573
0.000505377
0.000457785
0.00041784
0.000383937
0.000354801
0.000329445
0.000307148
0.000287367
0.000269683
0.000253767
0.000239364
0.000226262
0.000214282
0.000203247
0.000192896
0.000182215
0.000786827
0.000662293
0.000567974
0.000495805
0.000439463
0.000394561
0.000357973
0.00032745
0.000301488
0.000279047
0.000259394
0.000241996
0.000226462
0.000212493
0.000199862
0.000188394
0.00017793
0.000168322
0.000159466
0.000150296
0.000663952
0.000488458
0.000404619
0.000347248
0.000305036
0.000272128
0.00024532
0.000222891
0.000203759
0.000187185
0.000172664
0.00015983
0.000148397
0.000138156
0.000128936
0.000120724
0.00011333
0.00010657
0.000100832
9.50664e-05
0.000160509
0.00010736
8.07409e-05
6.55976e-05
5.54896e-05
4.83026e-05
4.31311e-05
3.90792e-05
3.57394e-05
3.29502e-05
3.05789e-05
2.85366e-05
2.67766e-05
2.52502e-05
2.39151e-05
2.27402e-05
2.17057e-05
2.07951e-05
1.99967e-05
1.92991e-05
0.000107685
6.77183e-05
5.06311e-05
4.14159e-05
3.54048e-05
3.10366e-05
2.77136e-05
2.50815e-05
2.29333e-05
2.11503e-05
1.96501e-05
1.83705e-05
1.72619e-05
1.62912e-05
1.54462e-05
1.47158e-05
1.40763e-05
1.35109e-05
1.30192e-05
1.26152e-05
0.000528907
0.000369984
0.000305097
0.000261371
0.000228527
0.000202475
0.000181113
0.000163072
0.000147538
0.000133982
0.000122047
0.000111463
0.000102132
9.38584e-05
8.6452e-05
7.96521e-05
7.34493e-05
6.77787e-05
6.3682e-05
5.71282e-05
0.000663952
0.000488458
0.000404619
0.000347248
0.000305036
0.000272128
0.000245319
0.000222891
0.00020376
0.000187186
0.000172665
0.000159831
0.000148399
0.000138156
0.000128936
0.000120725
0.000113333
0.000106576
0.000100827
9.50682e-05
0.00071288
0.000556432
0.000466397
0.000402355
0.000354426
0.000317051
0.000286677
0.000261259
0.000239588
0.000220855
0.000204459
0.000189975
0.000177085
0.000165533
0.000155125
0.0001457
0.000137145
0.000129347
0.000122235
0.000116212
0.000728543
0.000588231
0.000496002
0.000429132
0.00037851
0.000338935
0.00030682
0.000279976
0.000257076
0.000237261
0.000219918
0.00020459
0.000190937
0.000178696
0.000167666
0.000157655
0.000148546
0.000140222
0.000132576
0.000125616
0.000728543
0.000588231
0.000496002
0.000429131
0.000378509
0.000338934
0.000306818
0.000279972
0.000257071
0.000237253
0.000219905
0.000204571
0.000190909
0.000178653
0.000167596
0.000157554
0.0001484
0.000140016
0.000132293
0.000125183
0.00071288
0.000556432
0.000466396
0.000402354
0.000354425
0.000317049
0.000286672
0.000261252
0.000239577
0.000220839
0.000204433
0.000189935
0.000177024
0.00016544
0.000154978
0.000145486
0.00013683
0.000128886
0.000121569
0.000114936
0.000663952
0.000488458
0.000404618
0.000347247
0.000305035
0.000272126
0.000245316
0.000222886
0.000203752
0.000187173
0.000172645
0.000159801
0.000148353
0.000138082
0.000128827
0.000120561
0.000113082
0.000106193
0.000100234
9.37358e-05
0.000528907
0.000369984
0.000305097
0.000261371
0.000228527
0.000202475
0.000181113
0.000163072
0.000147538
0.000133982
0.000122047
0.000111463
0.000102131
9.38552e-05
8.64549e-05
7.96534e-05
7.34498e-05
6.77789e-05
6.3683e-05
5.71278e-05
0.000107685
6.77183e-05
5.06311e-05
4.14159e-05
3.54048e-05
3.10366e-05
2.77137e-05
2.50816e-05
2.29334e-05
2.11506e-05
1.96506e-05
1.83714e-05
1.72634e-05
1.62945e-05
1.54517e-05
1.47256e-05
1.40953e-05
1.35497e-05
1.31028e-05
1.27697e-05
4.5356e-05
2.3208e-05
1.65396e-05
1.36493e-05
1.18966e-05
1.06844e-05
9.76073e-06
9.05706e-06
8.49466e-06
8.03124e-06
7.64042e-06
7.31204e-06
7.02436e-06
6.7602e-06
6.52831e-06
6.32688e-06
6.15147e-06
5.99983e-06
5.89051e-06
5.75642e-06
0.000107685
6.77183e-05
5.06311e-05
4.14159e-05
3.54048e-05
3.10366e-05
2.77137e-05
2.50816e-05
2.29334e-05
2.11506e-05
1.96506e-05
1.83714e-05
1.72634e-05
1.62946e-05
1.54516e-05
1.47255e-05
1.40952e-05
1.35496e-05
1.31027e-05
1.27694e-05
0.000160509
0.00010736
8.07409e-05
6.55976e-05
5.54896e-05
4.83026e-05
4.31311e-05
3.90792e-05
3.57394e-05
3.29502e-05
3.05789e-05
2.85366e-05
2.67767e-05
2.52502e-05
2.39149e-05
2.27401e-05
2.17056e-05
2.07951e-05
1.99967e-05
1.92987e-05
0.000198681
0.0001383
0.000105187
8.55269e-05
7.25013e-05
6.28902e-05
5.60612e-05
5.07595e-05
4.63884e-05
4.27224e-05
3.96262e-05
3.69569e-05
3.46357e-05
3.26067e-05
3.08242e-05
2.92513e-05
2.78576e-05
2.66182e-05
2.55147e-05
2.45479e-05
0.000218609
0.000155003
0.000118661
9.65069e-05
8.18824e-05
7.08356e-05
6.30857e-05
5.71436e-05
5.22486e-05
4.80967e-05
4.45834e-05
4.15734e-05
3.89546e-05
3.66625e-05
3.46452e-05
3.28605e-05
3.12742e-05
2.98592e-05
2.86024e-05
2.75901e-05
0.000218609
0.000155003
0.000118661
9.65069e-05
8.18823e-05
7.08355e-05
6.30855e-05
5.71433e-05
5.22482e-05
4.8096e-05
4.45823e-05
4.15717e-05
3.89521e-05
3.66589e-05
3.46397e-05
3.28519e-05
3.12612e-05
2.98407e-05
2.85809e-05
2.76054e-05
0.000198681
0.0001383
0.000105187
8.55268e-05
7.25011e-05
6.289e-05
5.60608e-05
5.07589e-05
4.63875e-05
4.27209e-05
3.96239e-05
3.69534e-05
3.46304e-05
3.25988e-05
3.08118e-05
2.92317e-05
2.78271e-05
2.65726e-05
2.54582e-05
2.4616e-05
0.000160509
0.00010736
8.07408e-05
6.55975e-05
5.54895e-05
4.83024e-05
4.31308e-05
3.90788e-05
3.57387e-05
3.29489e-05
3.05769e-05
2.85335e-05
2.6772e-05
2.5243e-05
2.39031e-05
2.27207e-05
2.16738e-05
2.07425e-05
1.99184e-05
1.92217e-05
0.000107685
6.77183e-05
5.06311e-05
4.14159e-05
3.54048e-05
3.10366e-05
2.77136e-05
2.50815e-05
2.29333e-05
2.11503e-05
1.96501e-05
1.83705e-05
1.72619e-05
1.62912e-05
1.54462e-05
1.47157e-05
1.40763e-05
1.35109e-05
1.30193e-05
1.26153e-05
4.5356e-05
2.3208e-05
1.65396e-05
1.36493e-05
1.18966e-05
1.06844e-05
9.76073e-06
9.05706e-06
8.49466e-06
8.03124e-06
7.64042e-06
7.31203e-06
7.02437e-06
6.76016e-06
6.52832e-06
6.32689e-06
6.15148e-06
5.99984e-06
5.89053e-06
5.75657e-06
5.15712e-06
4.89905e-06
4.67331e-06
4.5216e-06
4.42363e-06
4.35062e-06
4.28971e-06
4.22895e-06
4.17373e-06
4.11834e-06
4.07036e-06
4.02724e-06
3.98546e-06
3.94492e-06
3.90792e-06
3.87179e-06
3.83828e-06
3.80505e-06
3.77385e-06
3.74404e-06
3.71446e-06
3.68652e-06
3.65946e-06
3.63429e-06
3.61021e-06
3.58662e-06
3.56365e-06
3.54069e-06
3.51826e-06
3.49611e-06
3.47525e-06
3.45425e-06
3.43332e-06
3.41195e-06
3.38997e-06
3.37206e-06
3.35369e-06
3.33483e-06
3.31832e-06
3.28908e-06
1.09573e-05
1.03745e-05
9.92408e-06
9.57578e-06
9.31025e-06
9.09259e-06
8.90516e-06
8.73542e-06
8.58502e-06
8.43509e-06
8.30525e-06
8.18952e-06
8.07979e-06
7.97774e-06
7.8829e-06
7.79279e-06
7.71013e-06
7.63188e-06
7.55798e-06
7.48818e-06
7.4203e-06
7.35551e-06
7.2945e-06
7.23742e-06
7.18421e-06
7.13344e-06
7.08391e-06
7.03522e-06
6.98763e-06
6.94046e-06
6.89473e-06
6.85003e-06
6.80637e-06
6.76319e-06
6.7195e-06
6.67752e-06
6.63826e-06
6.59923e-06
6.5619e-06
6.51855e-06
1.65794e-05
1.5669e-05
1.49852e-05
1.44737e-05
1.40265e-05
1.36395e-05
1.33015e-05
1.30036e-05
1.27365e-05
1.24998e-05
1.22814e-05
1.20873e-05
1.19055e-05
1.17361e-05
1.15738e-05
1.14261e-05
1.12909e-05
1.11657e-05
1.10446e-05
1.09292e-05
1.08191e-05
1.0707e-05
1.06002e-05
1.05026e-05
1.0413e-05
1.03286e-05
1.02459e-05
1.01649e-05
1.00866e-05
1.00101e-05
9.93585e-06
9.86195e-06
9.79157e-06
9.72178e-06
9.65372e-06
9.5892e-06
9.52525e-06
9.46149e-06
9.40048e-06
9.33621e-06
2.08167e-05
1.985e-05
1.90596e-05
1.84119e-05
1.7854e-05
1.73533e-05
1.68987e-05
1.64857e-05
1.61097e-05
1.57666e-05
1.54548e-05
1.51696e-05
1.49054e-05
1.46635e-05
1.44404e-05
1.42342e-05
1.4041e-05
1.38652e-05
1.36806e-05
1.35075e-05
1.33503e-05
1.32002e-05
1.30551e-05
1.29167e-05
1.2786e-05
1.26629e-05
1.25456e-05
1.24334e-05
1.23265e-05
1.22226e-05
1.21237e-05
1.2018e-05
1.19306e-05
1.18295e-05
1.17485e-05
1.16547e-05
1.15742e-05
1.14906e-05
1.14114e-05
1.13299e-05
2.32253e-05
2.23241e-05
2.15342e-05
2.08329e-05
2.02031e-05
1.96343e-05
1.91176e-05
1.86462e-05
1.8213e-05
1.78145e-05
1.74477e-05
1.71092e-05
1.67971e-05
1.65058e-05
1.62373e-05
1.59864e-05
1.57508e-05
1.55288e-05
1.5321e-05
1.51227e-05
1.49465e-05
1.47574e-05
1.45775e-05
1.44107e-05
1.42559e-05
1.41085e-05
1.39703e-05
1.38378e-05
1.37133e-05
1.35925e-05
1.348e-05
1.33552e-05
1.32611e-05
1.31338e-05
1.30496e-05
1.29317e-05
1.28392e-05
1.27431e-05
1.26536e-05
1.25676e-05
2.36134e-05
2.28333e-05
2.21024e-05
2.14264e-05
2.08047e-05
2.02363e-05
1.97176e-05
1.92432e-05
1.88047e-05
1.83976e-05
1.80193e-05
1.76678e-05
1.73428e-05
1.70344e-05
1.67463e-05
1.64775e-05
1.6226e-05
1.59931e-05
1.57742e-05
1.5568e-05
1.53748e-05
1.51922e-05
1.50242e-05
1.48601e-05
1.46891e-05
1.4526e-05
1.43762e-05
1.42374e-05
1.41106e-05
1.3987e-05
1.3872e-05
1.37498e-05
1.36707e-05
1.34744e-05
1.34648e-05
1.32877e-05
1.32142e-05
1.31124e-05
1.30169e-05
1.29261e-05
2.28361e-05
2.18949e-05
2.10904e-05
2.03951e-05
1.97856e-05
1.92465e-05
1.87634e-05
1.83228e-05
1.79144e-05
1.75345e-05
1.71803e-05
1.68498e-05
1.65419e-05
1.62519e-05
1.59808e-05
1.57272e-05
1.549e-05
1.52686e-05
1.50628e-05
1.48715e-05
1.46928e-05
1.45245e-05
1.43631e-05
1.42129e-05
1.40515e-05
1.39016e-05
1.37654e-05
1.36374e-05
1.35188e-05
1.33998e-05
1.32891e-05
1.31677e-05
1.30913e-05
1.29334e-05
1.28743e-05
1.27583e-05
1.26628e-05
1.25683e-05
1.24739e-05
1.2382e-05
2.03186e-05
1.91891e-05
1.8395e-05
1.77656e-05
1.72436e-05
1.67968e-05
1.63965e-05
1.60287e-05
1.56867e-05
1.53668e-05
1.50675e-05
1.47869e-05
1.45252e-05
1.42816e-05
1.40543e-05
1.38423e-05
1.36453e-05
1.34621e-05
1.32908e-05
1.31308e-05
1.2983e-05
1.28403e-05
1.26976e-05
1.2563e-05
1.2441e-05
1.23225e-05
1.22115e-05
1.21039e-05
1.1997e-05
1.189e-05
1.17896e-05
1.16959e-05
1.16093e-05
1.15217e-05
1.14353e-05
1.13471e-05
1.12552e-05
1.11679e-05
1.10816e-05
1.09963e-05
1.62227e-05
1.48816e-05
1.42349e-05
1.38268e-05
1.34745e-05
1.31636e-05
1.28816e-05
1.26197e-05
1.23751e-05
1.21439e-05
1.19292e-05
1.173e-05
1.15476e-05
1.1376e-05
1.12178e-05
1.10642e-05
1.09082e-05
1.07724e-05
1.06445e-05
1.05265e-05
1.04131e-05
1.03069e-05
1.02051e-05
1.01058e-05
1.00147e-05
9.92558e-06
9.84212e-06
9.76174e-06
9.68617e-06
9.61259e-06
9.54201e-06
9.47267e-06
9.40614e-06
9.34038e-06
9.27512e-06
9.20505e-06
9.13424e-06
9.06711e-06
9.00301e-06
8.93695e-06
1.00653e-05
9.82675e-06
9.49036e-06
9.21562e-06
9.0143e-06
8.84969e-06
8.70084e-06
8.54711e-06
8.40979e-06
8.27166e-06
8.14798e-06
8.03354e-06
7.93275e-06
7.82282e-06
7.72331e-06
7.62937e-06
7.5396e-06
7.45549e-06
7.3758e-06
7.30158e-06
7.23057e-06
7.16423e-06
7.10317e-06
7.04597e-06
6.99249e-06
6.94067e-06
6.89075e-06
6.84228e-06
6.79594e-06
6.74989e-06
6.70583e-06
6.66301e-06
6.6211e-06
6.57914e-06
6.53725e-06
6.49149e-06
6.45095e-06
6.41147e-06
6.37544e-06
6.33222e-06
5.15691e-06
4.89827e-06
4.67243e-06
4.52043e-06
4.41777e-06
4.34386e-06
4.28261e-06
4.22322e-06
4.16895e-06
4.11586e-06
4.06942e-06
4.02605e-06
3.98602e-06
3.94616e-06
3.90846e-06
3.87234e-06
3.83834e-06
3.80526e-06
3.77404e-06
3.74404e-06
3.71479e-06
3.68648e-06
3.65977e-06
3.6343e-06
3.61047e-06
3.5866e-06
3.56364e-06
3.54059e-06
3.51814e-06
3.49607e-06
3.47529e-06
3.45441e-06
3.43366e-06
3.41261e-06
3.39171e-06
3.37134e-06
3.35293e-06
3.33372e-06
3.31689e-06
3.28606e-06
1.00661e-05
9.82687e-06
9.48978e-06