/*--------------------------------*- C++ -*----------------------------------*\
| =========                 |                                                 |
| \\      /  F ield         | OpenFOAM: The Open Source CFD Toolbox           |
|  \\    /   O peration     | Version:  2212                                  |
|   \\  /    A nd           | Website:  www.openfoam.com                      |
|    \\/     M anipulation  |                                                 |
\*---------------------------------------------------------------------------*/
FoamFile
{
    version     2.0;
    format      ascii;
    arch        "LSB;label=32;scalar=64";
    class       volScalarField;
    location    "1.8";
    object      p;
}
// * * * * * * * * * * * * * * * * * * * * * * * * * * * * * * * * * * * * * //

dimensions      [0 2 -2 0 0 0 0];

internalField   nonuniform List<scalar> 
6840
(
0.0178794
0.010765
0.00847357
0.00793574
0.00766139
0.0074392
0.0072526
0.00708623
0.00692515
0.00676583
0.00660837
0.00645266
0.00629788
0.00614296
0.00598795
0.00583285
0.00567639
0.00551703
0.0053415
0.00504006
0.0107006
0.0099668
0.00887391
0.00820795
0.00780539
0.00753171
0.00732062
0.00713453
0.00696035
0.00679339
0.00663123
0.0064723
0.00631548
0.00616052
0.00600807
0.00585911
0.00571495
0.00557441
0.0054392
0.0053247
0.0103524
0.00950088
0.00873662
0.0081775
0.00780138
0.00753342
0.00731785
0.00712507
0.00694689
0.00677879
0.00661603
0.00645653
0.00630005
0.00614692
0.00599763
0.00585313
0.00571537
0.00558759
0.00547948
0.00541707
0.0099431
0.00918037
0.00856161
0.0081103
0.00776634
0.00749734
0.00727777
0.00708904
0.00692132
0.00676406
0.00660869
0.00645386
0.00630046
0.00614937
0.0060014
0.00585761
0.00571977
0.00559031
0.00547123
0.00537389
0.00980884
0.00906766
0.00847949
0.00807137
0.0077494
0.00748265
0.00726106
0.00707032
0.00689938
0.00674238
0.006592
0.00644131
0.00628945
0.00613815
0.00598878
0.0058422
0.0056993
0.00556085
0.00542517
0.0052979
0.00980883
0.00906764
0.00847946
0.00807132
0.00774933
0.00748254
0.00726089
0.00707003
0.00689891
0.00674161
0.00659077
0.00643935
0.00628631
0.00613317
0.00598097
0.00583015
0.00568103
0.0055341
0.0053894
0.00524843
0.00994304
0.00918031
0.00856154
0.0081102
0.00776619
0.00749709
0.00727735
0.00708833
0.00692014
0.00676213
0.00660554
0.00644878
0.00629231
0.00613637
0.00598071
0.00582474
0.00566791
0.00551031
0.00535451
0.00519993
0.0103523
0.00950083
0.00873656
0.00817741
0.00780123
0.00753315
0.0073174
0.00712433
0.00694566
0.00677674
0.0066126
0.0064509
0.00629085
0.00613183
0.00597268
0.00581143
0.0056449
0.00546841
0.00527777
0.00505682
0.0107006
0.00996678
0.00887388
0.00820791
0.00780531
0.00753157
0.00732038
0.00713412
0.00695965
0.00679221
0.00662927
0.00646907
0.00631003
0.00615101
0.00599157
0.00583064
0.00566531
0.00548511
0.00526316
0.00493142
0.0178794
0.010765
0.00847357
0.00793575
0.0076614
0.00743921
0.00725261
0.00708624
0.00692516
0.00676584
0.00660838
0.00645267
0.0062979
0.00614296
0.00598794
0.00583282
0.00567635
0.00551695
0.00534136
0.00503972
0.0107006
0.00996677
0.00887387
0.0082079
0.0078053
0.00753156
0.00732037
0.00713411
0.00695963
0.00679219
0.00662926
0.00646905
0.00631001
0.00615101
0.00599157
0.00583064
0.00566532
0.00548514
0.00526322
0.00493151
0.00998405
0.00995235
0.00922414
0.00851365
0.00806732
0.00775142
0.00749258
0.00726501
0.00706057
0.00687242
0.00669506
0.00652488
0.00635909
0.00619606
0.00603527
0.00587622
0.00571775
0.00555973
0.00541024
0.00528628
0.0090586
0.0091848
0.00888194
0.00846575
0.00809865
0.00778008
0.00750164
0.0072614
0.00704915
0.00685514
0.00667266
0.00649865
0.0063314
0.00616973
0.00601297
0.00586129
0.00571566
0.00557943
0.00545974
0.00537481
0.00864024
0.00868375
0.00851821
0.0082553
0.00797497
0.00770368
0.00745276
0.00722653
0.00702372
0.00683764
0.00666158
0.00649242
0.00632865
0.00616958
0.00601544
0.00586677
0.00572435
0.00559034
0.00546913
0.00536352
0.00842422
0.00844605
0.00831886
0.00810136
0.00786894
0.00763979
0.00741699
0.00720386
0.00700311
0.00681586
0.00663963
0.00647099
0.00630835
0.00615071
0.0059973
0.00584775
0.00570237
0.00556255
0.00543129
0.00530871
0.00842419
0.00844602
0.00831881
0.00810128
0.00786883
0.00763962
0.00741674
0.00720349
0.00700256
0.00681496
0.00663813
0.00646857
0.00630452
0.00614488
0.00598839
0.00583431
0.00568282
0.00553467
0.00539209
0.00525354
0.00864017
0.00868368
0.00851811
0.00825516
0.00797476
0.00770339
0.00745231
0.00722582
0.00702256
0.00683559
0.00665802
0.00648659
0.00631965
0.00615616
0.00599513
0.00583538
0.00567611
0.0055174
0.00536135
0.00520475
0.00905857
0.00918476
0.00888188
0.00846567
0.00809853
0.00777988
0.00750131
0.00726082
0.00704815
0.00685347
0.00666998
0.00649434
0.00632449
0.00615847
0.00599456
0.00583129
0.00566719
0.00550174
0.00533624
0.00516945
0.00998406
0.00995236
0.00922415
0.00851366
0.00806733
0.00775142
0.00749259
0.00726502
0.00706058
0.00687244
0.00669507
0.00652489
0.00635909
0.00619605
0.00603525
0.00587619
0.0057177
0.00555962
0.00541005
0.00528596
0.0107006
0.0099668
0.00887392
0.00820796
0.0078054
0.00753172
0.00732063
0.00713454
0.00696036
0.0067934
0.00663124
0.00647231
0.00631549
0.00616051
0.00600805
0.00585907
0.00571487
0.00557426
0.00543893
0.00532422
0.0103523
0.00950082
0.00873655
0.00817741
0.00780122
0.00753314
0.00731739
0.00712432
0.00694565
0.00677673
0.0066126
0.00645089
0.00629085
0.00613183
0.00597268
0.00581141
0.00564487
0.00546836
0.00527766
0.00505652
0.00905856
0.00918475
0.00888188
0.00846566
0.00809852
0.00777987
0.0075013
0.00726081
0.00704814
0.00685346
0.00666997
0.00649434
0.00632449
0.00615847
0.00599456
0.0058313
0.00566721
0.00550174
0.00533624
0.00516941
0.00848909
0.00859007
0.00847852
0.00825307
0.00799735
0.00773898
0.00748066
0.00723916
0.00702147
0.0068215
0.00663434
0.00645692
0.00628682
0.00612205
0.0059614
0.00580397
0.00564913
0.00549739
0.00535038
0.00520462
0.00812111
0.00818918
0.00813681
0.00798988
0.00780506
0.0076
0.0073894
0.00718265
0.00698179
0.0067898
0.00660792
0.00643436
0.00626721
0.00610526
0.00594789
0.00579467
0.0056448
0.00549864
0.00535994
0.00522337
0.00793801
0.00800245
0.00797298
0.00784816
0.00768917
0.00751549
0.0073292
0.00714121
0.00695514
0.00677185
0.00659296
0.0064195
0.0062519
0.00608952
0.00593191
0.00577886
0.00562928
0.00548279
0.00534187
0.00520165
0.00793799
0.00800242
0.00797295
0.00784809
0.00768906
0.00751534
0.00732901
0.00714094
0.00695473
0.00677121
0.00659197
0.00641799
0.00624966
0.00608626
0.00592705
0.00577158
0.00561873
0.00546741
0.00531783
0.00516564
0.00812107
0.00818913
0.00813675
0.00798978
0.00780491
0.0075998
0.00738913
0.00718224
0.00698115
0.00678876
0.00660623
0.00643171
0.00626318
0.00609922
0.00593876
0.00578084
0.00562441
0.00546854
0.00531206
0.00514949
0.0084891
0.00859008
0.00847853
0.00825308
0.00799736
0.00773899
0.00748067
0.00723917
0.00702148
0.00682151
0.00663435
0.00645693
0.00628683
0.00612207
0.00596141
0.00580398
0.00564915
0.00549743
0.00535045
0.00520478
0.00905861
0.00918481
0.00888195
0.00846576
0.00809866
0.00778009
0.00750166
0.00726141
0.00704917
0.00685516
0.00667268
0.00649867
0.00633141
0.00616975
0.00601298
0.00586128
0.00571562
0.00557935
0.00545962
0.00537464
0.0103524
0.00950089
0.00873663
0.00817751
0.00780139
0.00753343
0.00731786
0.00712509
0.00694691
0.00677881
0.00661604
0.00645654
0.00630006
0.00614693
0.00599762
0.00585311
0.00571531
0.00558747
0.00547926
0.00541671
0.00994304
0.00918031
0.00856154
0.0081102
0.00776619
0.00749709
0.00727735
0.00708832
0.00692014
0.00676213
0.00660555
0.00644878
0.00629232
0.00613637
0.00598071
0.00582473
0.00566787
0.00551022
0.00535436
0.00519965
0.00864017
0.00868368
0.0085181
0.00825516
0.00797476
0.00770339
0.00745231
0.00722582
0.00702256
0.00683559
0.00665802
0.0064866
0.00631965
0.00615617
0.00599515
0.00583539
0.00567612
0.00551742
0.00536141
0.00520494
0.00812107
0.00818913
0.00813675
0.00798977
0.00780491
0.00759979
0.00738913
0.00718223
0.00698114
0.00678876
0.00660622
0.00643171
0.00626318
0.00609922
0.00593877
0.00578085
0.00562442
0.00546856
0.00531212
0.00514967
0.00782319
0.00788234
0.00787041
0.00777502
0.0076354
0.00746993
0.00728977
0.00710533
0.00692142
0.00674116
0.00656617
0.00639633
0.00623104
0.00606969
0.00591172
0.00575653
0.00560332
0.00545184
0.00530294
0.00515032
0.00767207
0.00773496
0.00773873
0.00766507
0.00754495
0.00739855
0.00723563
0.00706419
0.00689003
0.00671647
0.00654537
0.00637762
0.00621352
0.00605298
0.00589571
0.00574132
0.00558904
0.00543869
0.00529121
0.00513963
0.00767206
0.00773496
0.00773871
0.00766506
0.00754492
0.00739851
0.00723557
0.0070641
0.0068899
0.00671629
0.00654511
0.00637725
0.00621299
0.00605219
0.00589453
0.00573958
0.00558665
0.00543549
0.0052868
0.00513435
0.0078232
0.00788234
0.00787041
0.00777503
0.00763541
0.00746994
0.00728978
0.00710534
0.00692143
0.00674117
0.00656618
0.00639634
0.00623105
0.00606971
0.00591175
0.00575657
0.00560337
0.00545192
0.00530306
0.00515052
0.00812112
0.00818918
0.00813682
0.00798989
0.00780507
0.00760001
0.00738942
0.00718266
0.0069818
0.00678981
0.00660794
0.00643438
0.00626724
0.0061053
0.00594794
0.00579473
0.0056449
0.00549879
0.00536016
0.00522376
0.00864025
0.00868377
0.00851822
0.00825531
0.00797498
0.0077037
0.00745278
0.00722654
0.00702374
0.00683766
0.00666161
0.00649244
0.00632868
0.00616961
0.00601547
0.00586679
0.00572437
0.00559036
0.00546916
0.00536359
0.00994311
0.00918038
0.00856162
0.00811031
0.00776635
0.00749735
0.00727778
0.00708906
0.00692134
0.00676409
0.00660871
0.00645389
0.00630048
0.00614939
0.00600141
0.00585762
0.00571975
0.00559025
0.00547112
0.00537371
0.00980883
0.00906764
0.00847946
0.00807132
0.00774933
0.00748254
0.00726089
0.00707003
0.00689892
0.00674162
0.00659079
0.00643936
0.00628632
0.00613318
0.00598098
0.00583015
0.00568102
0.00553407
0.00538935
0.00524835
0.00842419
0.00844602
0.00831881
0.00810128
0.00786883
0.00763962
0.00741675
0.00720349
0.00700256
0.00681497
0.00663814
0.00646858
0.00630453
0.00614489
0.00598841
0.00583433
0.00568284
0.00553469
0.00539215
0.00525367
0.00793799
0.00800242
0.00797295
0.00784809
0.00768906
0.00751534
0.00732901
0.00714094
0.00695473
0.00677121
0.00659197
0.006418
0.00624966
0.00608627
0.00592706
0.00577159
0.00561874
0.00546742
0.00531785
0.00516571
0.00767206
0.00773495
0.00773871
0.00766506
0.00754492
0.0073985
0.00723557
0.0070641
0.0068899
0.00671629
0.00654511
0.00637725
0.00621298
0.00605218
0.00589452
0.00573957
0.00558664
0.00543547
0.00528677
0.00513433
0.00752925
0.00759877
0.00762089
0.00756833
0.00746707
0.00733611
0.00718616
0.00702513
0.0068586
0.00669023
0.00652241
0.00635656
0.00619341
0.00603325
0.00587607
0.0057216
0.00556933
0.00541936
0.00527288
0.00512618
0.00752925
0.00759877
0.00762089
0.00756833
0.00746707
0.00733611
0.00718616
0.00702514
0.0068586
0.00669023
0.00652241
0.00635656
0.00619342
0.00603326
0.00587608
0.00572161
0.00556935
0.00541938
0.0052729
0.00512622
0.00767208
0.00773497
0.00773873
0.00766508
0.00754495
0.00739855
0.00723564
0.0070642
0.00689004
0.00671649
0.00654539
0.00637764
0.00621354
0.006053
0.00589574
0.00574135
0.00558909
0.00543876
0.00529131
0.00513978
0.00793802
0.00800246
0.00797299
0.00784817
0.00768918
0.0075155
0.00732922
0.00714123
0.00695516
0.00677187
0.00659298
0.00641953
0.00625193
0.00608956
0.00593196
0.00577893
0.00562938
0.00548292
0.00534206
0.00520195
0.00842423
0.00844606
0.00831887
0.00810137
0.00786896
0.0076398
0.00741701
0.00720388
0.00700313
0.00681588
0.00663965
0.00647102
0.00630838
0.00615075
0.00599734
0.00584779
0.00570243
0.00556263
0.00543138
0.00530888
0.00980886
0.00906768
0.00847951
0.00807138
0.00774942
0.00748266
0.00726108
0.00707034
0.0068994
0.0067424
0.00659202
0.00644134
0.00628948
0.00613819
0.00598881
0.00584223
0.0056993
0.00556083
0.00542511
0.00529777
0.00980885
0.00906767
0.0084795
0.00807137
0.00774941
0.00748265
0.00726107
0.00707033
0.00689939
0.00674239
0.00659201
0.00644133
0.00628947
0.00613818
0.00598881
0.00584223
0.00569932
0.00556086
0.00542517
0.00529789
0.00842422
0.00844605
0.00831886
0.00810136
0.00786894
0.00763979
0.007417
0.00720387
0.00700312
0.00681587
0.00663964
0.00647101
0.00630837
0.00615074
0.00599733
0.00584777
0.00570239
0.00556256
0.00543128
0.00530868
0.00793801
0.00800245
0.00797298
0.00784816
0.00768917
0.0075155
0.00732921
0.00714122
0.00695515
0.00677186
0.00659297
0.00641951
0.00625191
0.00608954
0.00593193
0.00577887
0.00562928
0.00548278
0.00534186
0.00520163
0.00767207
0.00773497
0.00773873
0.00766508
0.00754495
0.00739855
0.00723564
0.00706419
0.00689004
0.00671648
0.00654538
0.00637763
0.00621353
0.00605298
0.00589572
0.00574132
0.00558904
0.00543868
0.0052912
0.00513963
0.00752925
0.00759877
0.00762089
0.00756833
0.00746707
0.00733611
0.00718616
0.00702514
0.0068586
0.00669023
0.00652241
0.00635656
0.00619342
0.00603326
0.00587607
0.0057216
0.00556933
0.00541935
0.00527287
0.00512618
0.00752925
0.00759877
0.00762089
0.00756834
0.00746707
0.00733611
0.00718616
0.00702514
0.0068586
0.00669024
0.00652242
0.00635656
0.00619342
0.00603326
0.00587608
0.00572161
0.00556934
0.00541937
0.00527289
0.00512621
0.00767207
0.00773496
0.00773872
0.00766506
0.00754493
0.00739851
0.00723558
0.00706411
0.00688991
0.0067163
0.00654512
0.00637726
0.006213
0.0060522
0.00589454
0.0057396
0.00558668
0.00543552
0.00528684
0.00513441
0.007938
0.00800243
0.00797296
0.00784811
0.00768907
0.00751535
0.00732902
0.00714095
0.00695474
0.00677123
0.00659199
0.00641802
0.00624969
0.0060863
0.0059271
0.00577164
0.00561881
0.0054675
0.00531797
0.00516585
0.0084242
0.00844603
0.00831882
0.00810129
0.00786884
0.00763964
0.00741676
0.00720351
0.00700258
0.00681498
0.00663816
0.0064686
0.00630456
0.00614492
0.00598844
0.00583437
0.00568289
0.00553477
0.00539225
0.00525381
0.00980884
0.00906766
0.00847947
0.00807133
0.00774935
0.00748256
0.0072609
0.00707005
0.00689893
0.00674164
0.0065908
0.00643938
0.00628634
0.0061332
0.005981
0.00583018
0.00568105
0.0055341
0.00538938
0.00524838
0.0099431
0.00918037
0.00856161
0.0081103
0.00776635
0.00749735
0.00727778
0.00708905
0.00692133
0.00676408
0.00660871
0.00645388
0.00630048
0.0061494
0.00600143
0.00585765
0.0057198
0.00559034
0.00547125
0.0053739
0.00864024
0.00868376
0.00851821
0.00825531
0.00797497
0.00770369
0.00745277
0.00722654
0.00702373
0.00683766
0.0066616
0.00649244
0.00632868
0.0061696
0.00601547
0.0058668
0.00572437
0.00559035
0.00546912
0.00536346
0.00812111
0.00818918
0.00813681
0.00798988
0.00780507
0.0076
0.00738941
0.00718266
0.0069818
0.00678981
0.00660793
0.00643438
0.00626723
0.00610528
0.00594791
0.00579468
0.00564481
0.00549863
0.00535991
0.00522331
0.0078232
0.00788234
0.00787041
0.00777503
0.00763541
0.00746994
0.00728978
0.00710534
0.00692143
0.00674117
0.00656618
0.00639634
0.00623105
0.0060697
0.00591173
0.00575654
0.00560333
0.00545184
0.00530294
0.00515032
0.00767206
0.00773496
0.00773872
0.00766506
0.00754492
0.00739851
0.00723557
0.0070641
0.00688991
0.0067163
0.00654512
0.00637725
0.00621299
0.00605219
0.00589453
0.00573957
0.00558664
0.00543547
0.00528677
0.00513431
0.00767208
0.00773497
0.00773873
0.00766508
0.00754495
0.00739855
0.00723564
0.0070642
0.00689004
0.00671648
0.00654538
0.00637763
0.00621353
0.00605299
0.00589572
0.00574132
0.00558905
0.0054387
0.00529123
0.00513967
0.0078232
0.00788235
0.00787042
0.00777503
0.00763542
0.00746994
0.00728978
0.00710535
0.00692144
0.00674117
0.00656619
0.00639634
0.00623105
0.00606971
0.00591175
0.00575656
0.00560335
0.00545188
0.005303
0.00515042
0.00812108
0.00818914
0.00813676
0.00798979
0.00780493
0.00759981
0.00738915
0.00718225
0.00698116
0.00678878
0.00660624
0.00643173
0.0062632
0.00609924
0.0059388
0.00578088
0.00562446
0.00546861
0.00531218
0.00514974
0.00864018
0.00868369
0.00851812
0.00825518
0.00797478
0.0077034
0.00745232
0.00722583
0.00702258
0.00683561
0.00665804
0.00648662
0.00631968
0.0061562
0.00599518
0.00583543
0.00567617
0.00551748
0.00536149
0.00520503
0.00994306
0.00918033
0.00856155
0.00811021
0.0077662
0.00749711
0.00727736
0.00708834
0.00692015
0.00676215
0.00660556
0.0064488
0.00629234
0.0061364
0.00598074
0.00582477
0.00566792
0.00551029
0.00535445
0.00519979
0.0103524
0.00950088
0.00873662
0.00817751
0.00780139
0.00753342
0.00731785
0.00712508
0.0069469
0.00677881
0.00661604
0.00645655
0.00630007
0.00614695
0.00599766
0.00585317
0.00571541
0.00558763
0.00547953
0.00541713
0.00905861
0.00918481
0.00888195
0.00846576
0.00809865
0.00778008
0.00750165
0.00726141
0.00704917
0.00685516
0.00667268
0.00649867
0.00633142
0.00616976
0.006013
0.00586133
0.00571569
0.00557946
0.00545975
0.0053748
0.00848909
0.00859007
0.00847853
0.00825308
0.00799735
0.00773899
0.00748067
0.00723917
0.00702148
0.00682151
0.00663435
0.00645694
0.00628684
0.00612207
0.00596142
0.00580399
0.00564914
0.00549739
0.00535035
0.00520454
0.00812107
0.00818914
0.00813675
0.00798978
0.00780492
0.0075998
0.00738914
0.00718224
0.00698115
0.00678877
0.00660623
0.00643172
0.00626319
0.00609923
0.00593878
0.00578085
0.00562442
0.00546855
0.00531212
0.00514966
0.00793799
0.00800243
0.00797296
0.0078481
0.00768906
0.00751535
0.00732902
0.00714094
0.00695473
0.00677122
0.00659197
0.006418
0.00624967
0.00608627
0.00592706
0.00577159
0.00561874
0.00546741
0.00531784
0.00516567
0.00793802
0.00800245
0.00797299
0.00784816
0.00768918
0.0075155
0.00732921
0.00714122
0.00695515
0.00677186
0.00659297
0.00641951
0.00625191
0.00608953
0.00593192
0.00577887
0.00562929
0.0054828
0.00534189
0.0052017
0.00812112
0.00818919
0.00813682
0.00798989
0.00780508
0.00760001
0.00738942
0.00718267
0.0069818
0.00678981
0.00660793
0.00643438
0.00626723
0.00610528
0.00594791
0.00579468
0.00564483
0.00549868
0.00535999
0.00522347
0.00848911
0.00859008
0.00847854
0.00825309
0.00799737
0.007739
0.00748068
0.00723918
0.00702148
0.00682152
0.00663436
0.00645694
0.00628684
0.00612208
0.00596142
0.00580399
0.00564914
0.00549742
0.0053504
0.00520468
0.00905858
0.00918477
0.0088819
0.00846568
0.00809854
0.00777989
0.00750132
0.00726083
0.00704817
0.00685348
0.00667
0.00649436
0.00632451
0.00615849
0.00599459
0.00583133
0.00566723
0.00550177
0.00533626
0.00516944
0.0103524
0.00950084
0.00873657
0.00817743
0.00780124
0.00753316
0.00731741
0.00712434
0.00694567
0.00677675
0.00661262
0.00645091
0.00629087
0.00613185
0.0059727
0.00581145
0.00564491
0.00546841
0.00527772
0.00505664
0.0107006
0.0099668
0.00887392
0.00820796
0.0078054
0.00753172
0.00732063
0.00713454
0.00696036
0.0067934
0.00663124
0.00647232
0.0063155
0.00616055
0.00600811
0.00585914
0.00571499
0.00557445
0.00543926
0.00532479
0.00998406
0.00995236
0.00922414
0.00851366
0.00806733
0.00775142
0.00749259
0.00726502
0.00706058
0.00687244
0.00669507
0.0065249
0.00635911
0.00619608
0.0060353
0.00587625
0.00571779
0.00555977
0.00541029
0.00528633
0.00905857
0.00918476
0.00888188
0.00846567
0.00809853
0.00777988
0.00750131
0.00726082
0.00704815
0.00685347
0.00666999
0.00649436
0.00632451
0.00615849
0.00599458
0.00583133
0.00566723
0.00550177
0.00533627
0.00516942
0.00864017
0.00868368
0.00851811
0.00825517
0.00797477
0.00770339
0.00745231
0.00722582
0.00702257
0.0068356
0.00665803
0.0064866
0.00631966
0.00615618
0.00599515
0.0058354
0.00567613
0.00551744
0.00536143
0.00520495
0.00842419
0.00844602
0.00831881
0.00810128
0.00786883
0.00763963
0.00741675
0.0072035
0.00700256
0.00681497
0.00663814
0.00646857
0.00630453
0.00614489
0.0059884
0.00583432
0.00568283
0.00553469
0.00539215
0.00525367
0.00842423
0.00844606
0.00831887
0.00810137
0.00786895
0.0076398
0.007417
0.00720387
0.00700312
0.00681587
0.00663964
0.006471
0.00630836
0.00615072
0.0059973
0.00584775
0.00570237
0.00556255
0.00543127
0.00530871
0.00864025
0.00868377
0.00851822
0.00825532
0.00797498
0.0077037
0.00745278
0.00722654
0.00702374
0.00683766
0.0066616
0.00649243
0.00632867
0.00616959
0.00601545
0.00586677
0.00572434
0.00559032
0.00546909
0.00536348
0.00905862
0.00918482
0.00888196
0.00846577
0.00809867
0.0077801
0.00750166
0.00726142
0.00704917
0.00685516
0.00667268
0.00649867
0.00633141
0.00616975
0.00601298
0.00586129
0.00571564
0.00557938
0.00545965
0.0053747
0.00998407
0.00995237
0.00922416
0.00851367
0.00806734
0.00775144
0.0074926
0.00726503
0.00706059
0.00687245
0.00669508
0.0065249
0.00635911
0.00619607
0.00603528
0.00587622
0.00571774
0.00555968
0.00541015
0.00528613
0.0107006
0.00996679
0.00887389
0.00820792
0.00780532
0.00753158
0.00732039
0.00713413
0.00695966
0.00679222
0.00662928
0.00646908
0.00631004
0.00615103
0.00599159
0.00583066
0.00566534
0.00548514
0.0052632
0.00493146
0.0178794
0.010765
0.00847357
0.00793575
0.0076614
0.00743921
0.00725261
0.00708624
0.00692516
0.00676585
0.00660838
0.00645268
0.00629791
0.00614299
0.00598799
0.00583289
0.00567643
0.00551708
0.00534156
0.00504013
0.0107006
0.00996678
0.00887388
0.00820791
0.00780531
0.00753157
0.00732038
0.00713412
0.00695965
0.00679221
0.00662928
0.00646907
0.00631004
0.00615104
0.00599161
0.00583068
0.00566537
0.00548519
0.00526329
0.00493158
0.0103523
0.00950083
0.00873656
0.00817741
0.00780123
0.00753315
0.0073174
0.00712433
0.00694566
0.00677674
0.00661261
0.00645091
0.00629086
0.00613185
0.0059727
0.00581144
0.00564491
0.00546841
0.00527773
0.00505661
0.00994305
0.00918032
0.00856154
0.0081102
0.00776619
0.00749709
0.00727735
0.00708833
0.00692014
0.00676213
0.00660555
0.00644879
0.00629232
0.00613638
0.00598071
0.00582474
0.00566789
0.00551026
0.00535443
0.00519977
0.00980884
0.00906765
0.00847947
0.00807133
0.00774934
0.00748255
0.00726089
0.00707004
0.00689892
0.00674162
0.00659078
0.00643936
0.00628632
0.00613317
0.00598097
0.00583014
0.00568102
0.00553407
0.00538936
0.00524838
0.00980886
0.00906767
0.0084795
0.00807138
0.00774941
0.00748266
0.00726107
0.00707033
0.0068994
0.00674239
0.00659201
0.00644132
0.00628946
0.00613816
0.00598878
0.0058422
0.00569928
0.00556082
0.00542512
0.00529783
0.00994311
0.00918038
0.00856162
0.00811031
0.00776636
0.00749736
0.00727779
0.00708906
0.00692134
0.00676408
0.0066087
0.00645388
0.00630047
0.00614937
0.0060014
0.0058576
0.00571975
0.00559026
0.00547115
0.00537378
0.0103524
0.00950089
0.00873664
0.00817752
0.0078014
0.00753343
0.00731787
0.00712509
0.00694691
0.00677881
0.00661605
0.00645654
0.00630006
0.00614693
0.00599762
0.00585312
0.00571534
0.00558752
0.00547936
0.00541688
0.0107007
0.00996682
0.00887393
0.00820797
0.00780541
0.00753173
0.00732064
0.00713456
0.00696037
0.00679341
0.00663125
0.00647232
0.0063155
0.00616053
0.00600807
0.0058591
0.00571492
0.00557434
0.00543908
0.00532447
0.0178794
0.010765
0.00847359
0.00793576
0.00766141
0.00743922
0.00725263
0.00708625
0.00692517
0.00676585
0.00660839
0.00645268
0.00629791
0.00614298
0.00598796
0.00583286
0.00567639
0.005517
0.00534144
0.00503989
0.00540342
0.00491511
0.00462074
0.00447927
0.0043549
0.00422558
0.00409472
0.00396268
0.00382722
0.00369015
0.00355334
0.0034177
0.00328412
0.00315187
0.00302053
0.00289006
0.0027602
0.00263213
0.0025052
0.0023803
0.00225605
0.00213281
0.00201104
0.00189061
0.00177174
0.00165328
0.00153572
0.001419
0.00130336
0.00118945
0.00107597
0.000961731
0.000847926
0.000735696
0.000624214
0.000512026
0.000398467
0.000283844
0.000171662
5.2231e-05
0.00548306
0.00499813
0.00462251
0.0044489
0.00432473
0.00419774
0.00406842
0.0039387
0.00380621
0.00367165
0.00353689
0.00340267
0.00326994
0.00313807
0.00300652
0.00287584
0.00274613
0.0026183
0.00249184
0.00236724
0.00224344
0.00212107
0.00200072
0.00188182
0.00176371
0.00164553
0.00152809
0.0014115
0.00129611
0.00118255
0.00106957
0.000955845
0.000842413
0.000730467
0.000619262
0.000507267
0.000394067
0.000280297
0.000168266
5.11997e-05
0.00538557
0.00505182
0.00472838
0.00452267
0.00436748
0.00421947
0.00407315
0.00393111
0.00379337
0.00365758
0.00352307
0.00338893
0.00325642
0.00312524
0.00299466
0.00286503
0.00273642
0.00260936
0.00248344
0.00235905
0.00223513
0.00211277
0.00199242
0.00187355
0.00175544
0.00163738
0.00152037
0.00140417
0.00128939
0.0011765
0.00106425
0.000951183
0.00083833
0.000726738
0.000616115
0.000505008
0.000392263
0.000278802
0.000167466
5.10129e-05
0.005268
0.00502797
0.00477015
0.00456797
0.00440108
0.00424696
0.00409885
0.00395544
0.00381542
0.00367748
0.00354105
0.00340583
0.00327218
0.00313997
0.00300879
0.00287874
0.00274984
0.00262223
0.00249557
0.0023702
0.00224555
0.00212156
0.00199835
0.00187652
0.00175651
0.00163786
0.00152043
0.00140406
0.00128931
0.0011758
0.0010629
0.000949402
0.000836511
0.000725089
0.00061501
0.000504568
0.000392176
0.000278877
0.000167757
5.08826e-05
0.00515368
0.00496382
0.00476155
0.00458089
0.00441649
0.00426087
0.00411127
0.00396646
0.00382509
0.00368593
0.00354839
0.00341236
0.00327805
0.00314539
0.00301403
0.0028839
0.002755
0.00262729
0.00250073
0.0023754
0.00225135
0.00212835
0.00200598
0.00188425
0.00176374
0.0016446
0.00152702
0.00141102
0.001296
0.00118142
0.00106702
0.000952716
0.000839474
0.00072745
0.000616644
0.000505547
0.000392713
0.000279337
0.000168214
5.08684e-05
0.0050505
0.00489838
0.00473997
0.00457742
0.00441913
0.00426675
0.00411894
0.00397484
0.00383365
0.00369417
0.00355614
0.00341971
0.00328496
0.00315175
0.00301987
0.00288928
0.00275999
0.00263199
0.00250524
0.00237976
0.00225558
0.00213266
0.00201107
0.00189028
0.00176976
0.00164987
0.00153153
0.001415
0.0012999
0.00118591
0.00107235
0.000959041
0.000846299
0.000734023
0.000622527
0.000510738
0.000397132
0.000283244
0.00017101
5.17963e-05
0.00498529
0.00486677
0.00472518
0.00456968
0.00441638
0.00426775
0.00412233
0.00397979
0.00383927
0.0036998
0.0035616
0.00342486
0.00328957
0.00315555
0.0030228
0.00289157
0.00276192
0.00263375
0.00250696
0.00238154
0.00225747
0.00213466
0.00201325
0.00189254
0.00177207
0.00165222
0.00153422
0.00141792
0.00130309
0.00118967
0.00107629
0.000962543
0.000849541
0.000737886
0.000627495
0.000516724
0.000403346
0.000288639
0.000174597
5.35757e-05
0.00497807
0.00487608
0.00472173
0.00456243
0.00441204
0.00426628
0.00412318
0.0039815
0.00384082
0.00370108
0.00356263
0.00342572
0.00329019
0.00315555
0.00302171
0.00288961
0.00275958
0.00263142
0.0025049
0.00237976
0.00225596
0.00213327
0.00201215
0.00189156
0.00177217
0.00165445
0.00153796
0.00142216
0.00130744
0.00119427
0.00108074
0.000966299
0.000852966
0.000741429
0.000630382
0.000519979
0.000407374
0.000291627
0.000175927
5.44544e-05
0.00511798
0.00493926
0.00472275
0.00455124
0.00440191
0.00425675
0.00411367
0.0039724
0.00383222
0.00369299
0.00355516
0.00341901
0.00328448
0.00315172
0.00302071
0.00289135
0.00276212
0.00263406
0.00250762
0.00238229
0.00225819
0.00213507
0.00201346
0.00189285
0.00177434
0.00165694
0.00154025
0.00142407
0.00130869
0.00119497
0.00108117
0.000966363
0.000852437
0.000740273
0.000628964
0.000518604
0.000405686
0.000289458
0.000173615
5.35341e-05
0.00520858
0.00490562
0.00468
0.00453823
0.00440303
0.00426291
0.00412297
0.00398323
0.00384381
0.0037048
0.00356668
0.0034303
0.00329634
0.00316425
0.00303377
0.00290446
0.00277493
0.00264629
0.00251915
0.00239344
0.00226894
0.00214518
0.00202237
0.00190072
0.00178103
0.0016624
0.00154445
0.00142742
0.0013114
0.00119716
0.00108323
0.000968346
0.000854023
0.00074131
0.000629594
0.000518869
0.000406059
0.000289875
0.000174159
5.38637e-05
0.00540382
0.00491592
0.00462216
0.00448142
0.00435553
0.00422415
0.00409305
0.00396108
0.00382587
0.00368921
0.00355271
0.00341748
0.00328426
0.00315218
0.00302072
0.00289037
0.0027606
0.00263221
0.00250544
0.00238016
0.0022561
0.00213308
0.00201147
0.00189109
0.00177206
0.00165375
0.001536
0.00141922
0.0013035
0.00118956
0.00107608
0.000961811
0.00084799
0.000735606
0.00062408
0.000513378
0.000400842
0.000285358
0.000172192
5.19276e-05
0.00520814
0.00490478
0.00467825
0.00453531
0.00440184
0.00426453
0.00412504
0.00398499
0.00384525
0.00370584
0.00356746
0.00343063
0.00329625
0.00316397
0.0030336
0.00290401
0.00277436
0.00264606
0.00251879
0.00239351
0.00226881
0.00214484
0.00202179
0.00190006
0.00178048
0.00166174
0.00154399
0.00142701
0.0013111
0.0011969
0.00108295
0.000968156
0.000853915
0.000741485
0.000629901
0.000517404
0.000403117
0.000287697
0.000173294
5.40214e-05
0.00515815
0.00489898
0.00468223
0.00452629
0.00438844
0.00424931
0.00410966
0.00397182
0.00383538
0.00369924
0.00356385
0.00342865
0.00329511
0.00316286
0.00303168
0.0029011
0.00277144
0.00264352
0.00251679
0.00239206
0.00226743
0.00214407
0.00202192
0.00190087
0.00178145
0.00166223
0.00154422
0.00142701
0.00131105
0.00119699
0.00108305
0.000967906
0.000853395
0.000740714
0.000629483
0.000517709
0.000403346
0.000287767
0.000174397
5.48086e-05
0.00515579
0.00494826
0.0047449
0.00456626
0.00440444
0.00424949
0.00410039
0.00395611
0.00381555
0.00367772
0.00354178
0.00340741
0.00327422
0.00314251
0.00301224
0.00288286
0.00275461
0.00262767
0.00250205
0.00237714
0.00225297
0.00212985
0.00200796
0.00188728
0.00176796
0.0016498
0.00153261
0.0014163
0.00130143
0.00118752
0.00107358
0.00095915
0.000845491
0.00073279
0.000621352
0.000510077
0.000397156
0.000283248
0.000171573
5.39686e-05
0.00511926
0.00494695
0.0047704
0.00459666
0.00443178
0.00427383
0.00412148
0.00397422
0.00383115
0.00369123
0.00355362
0.00341838
0.00328449
0.00315182
0.00302057
0.00289049
0.00276166
0.00263392
0.00250753
0.00238204
0.00225795
0.00213446
0.00201193
0.0018909
0.00177099
0.00165244
0.00153462
0.00141799
0.00130241
0.00118691
0.00107156
0.000957084
0.000843656
0.000730644
0.000618285
0.000506096
0.000393602
0.000281222
0.00017016
5.39916e-05
0.00506291
0.00490183
0.00474921
0.00459031
0.00443269
0.00427928
0.00412946
0.00398296
0.00383969
0.00369947
0.00356164
0.00342572
0.00329124
0.00315805
0.00302629
0.00289588
0.00276675
0.00263883
0.00251221
0.00238661
0.00226203
0.00213826
0.00201575
0.00189461
0.00177447
0.00165566
0.00153818
0.0014217
0.00130587
0.00119015
0.00107449
0.000959906
0.000846204
0.000732485
0.000618407
0.000504115
0.000390659
0.000278627
0.000167954
5.3884e-05
0.00501951
0.00486301
0.00472267
0.00457426
0.00442415
0.00427684
0.00413162
0.00398787
0.00384599
0.00370634
0.00356867
0.00343258
0.00329781
0.00316429
0.0030321
0.0029012
0.00277154
0.0026431
0.00251587