/*--------------------------------*- C++ -*----------------------------------*\
| =========                 |                                                 |
| \\      /  F ield         | OpenFOAM: The Open Source CFD Toolbox           |
|  \\    /   O peration     | Version:  2212                                  |
|   \\  /    A nd           | Website:  www.openfoam.com                      |
|    \\/     M anipulation  |                                                 |
\*---------------------------------------------------------------------------*/
FoamFile
{
    version     2.0;
    format      ascii;
    arch        "LSB;label=32;scalar=64";
    class       surfaceScalarField;
    location    "1.8";
    object      phi;
}
// * * * * * * * * * * * * * * * * * * * * * * * * * * * * * * * * * * * * * //

dimensions      [0 3 -1 0 0 0 0];

oriented        oriented;

internalField   nonuniform List<scalar> 
19019
(
3.32249e-07
1.0968e-09
1.09689e-09
2.7919e-07
2.65294e-08
2.65298e-08
2.49217e-07
1.49862e-08
1.49869e-08
2.29252e-07
9.98179e-09
9.98288e-09
2.14832e-07
7.2093e-09
7.21147e-09
2.03194e-07
5.81727e-09
5.82062e-09
1.93763e-07
4.71222e-09
4.71865e-09
1.8599e-07
3.88086e-09
3.89224e-09
1.79332e-07
3.31925e-09
3.33884e-09
1.73488e-07
2.90517e-09
2.93865e-09
1.6829e-07
2.57116e-09
2.62653e-09
1.63624e-07
2.28694e-09
2.37894e-09
1.59393e-07
2.03819e-09
2.19292e-09
1.5552e-07
1.79863e-09
2.07387e-09
1.51975e-07
1.53077e-09
2.01411e-09
1.48776e-07
1.18945e-09
2.00966e-09
1.45972e-07
7.39747e-10
2.06403e-09
1.4391e-07
-1.06726e-10
2.16826e-09
1.43596e-07
-2.26637e-09
2.58056e-09
-1.36293e-08
-4.74836e-09
6.3138e-07
3.58757e-09
7.40294e-09
6.14563e-07
2.26458e-08
2.07008e-08
5.86443e-07
2.4376e-08
1.87299e-08
5.61722e-07
1.88549e-08
1.58485e-08
5.3961e-07
1.55693e-08
1.37512e-08
5.20625e-07
1.35098e-08
1.12924e-08
5.04673e-07
1.19507e-08
8.71433e-09
4.90907e-07
1.07978e-08
6.84837e-09
4.78665e-07
9.94399e-09
5.61731e-09
4.67549e-07
9.23148e-09
4.78988e-09
4.57313e-07
8.60244e-09
4.20435e-09
4.47798e-07
8.03579e-09
3.7666e-09
4.38867e-07
7.52041e-09
3.44807e-09
4.30399e-07
7.04854e-09
3.21786e-09
4.22276e-07
6.60025e-09
3.05417e-09
4.14385e-07
6.13507e-09
2.94515e-09
4.06725e-07
5.55389e-09
2.84556e-09
3.99312e-07
4.67391e-09
2.63222e-09
3.92133e-07
3.24124e-09
1.67128e-09
4.40158e-09
1.26345e-09
8.90374e-07
2.85268e-09
6.33242e-09
8.82485e-07
1.3409e-08
1.71263e-08
8.70356e-07
1.78681e-08
1.86369e-08
8.55106e-07
1.69566e-08
1.71486e-08
8.39971e-07
1.53422e-08
1.53621e-08
8.25516e-07
1.4173e-08
1.37918e-08
8.11736e-07
1.33848e-08
1.23454e-08
7.98724e-07
1.2684e-08
1.11266e-08
7.8662e-07
1.19014e-08
1.0146e-08
7.75427e-07
1.10659e-08
9.35834e-09
7.64993e-07
1.02737e-08
8.76315e-09
7.55145e-07
9.54928e-09
8.33433e-09
7.45719e-07
8.91065e-09
8.0362e-09
7.36568e-07
8.36536e-09
7.83334e-09
7.27546e-07
7.90803e-09
7.7139e-09
7.18467e-07
7.53587e-09
7.67882e-09
7.09007e-07
7.26371e-09
7.74977e-09
6.98577e-07
7.15837e-09
7.94545e-09
6.85821e-07
7.60431e-09
8.39292e-09
1.09112e-08
1.08814e-08
1.07432e-06
1.06508e-09
5.56891e-09
1.06824e-06
5.58758e-09
1.39004e-08
1.06138e-06
8.46599e-09
1.62622e-08
1.05338e-06
9.04305e-09
1.59097e-08
1.0451e-06
8.62318e-09
1.50028e-08
1.03721e-06
8.12959e-09
1.39339e-08
1.02981e-06
7.80193e-09
1.29777e-08
1.0228e-06
7.5797e-09
1.21157e-08
1.01594e-06
7.4111e-09
1.13466e-08
1.00916e-06
7.1541e-09
1.06946e-08
1.00247e-06
6.75896e-09
1.02038e-08
9.95838e-07
6.33417e-09
9.84861e-09
9.89182e-07
5.96079e-09
9.60532e-09
9.82415e-07
5.6692e-09
9.46299e-09
9.7543e-07
5.47726e-09
9.41553e-09
9.68085e-07
5.41587e-09
9.46575e-09
9.60167e-07
5.54187e-09
9.63893e-09
9.51392e-07
5.94872e-09
9.98541e-09
9.41727e-07
6.73608e-09
1.05332e-08
8.97756e-09
1.17418e-08
1.16914e-06
1.11795e-13
4.90662e-09
1.16312e-06
5.20784e-13
1.16087e-08
1.15731e-06
1.14549e-12
1.42757e-08
1.15202e-06
1.97388e-12
1.43337e-08
1.14691e-06
3.29204e-12
1.37299e-08
1.14206e-06
5.56698e-12
1.29683e-08
1.13776e-06
9.4871e-12
1.20986e-08
1.13402e-06
1.58592e-11
1.13042e-08
1.13076e-06
2.64119e-11
1.06429e-08
1.12769e-06
4.36448e-11
1.01774e-08
1.12451e-06
7.16341e-11
9.87479e-09
1.12106e-06
1.17046e-10
9.65755e-09
1.11731e-06
1.90617e-10
9.52365e-09
1.11319e-06
3.09261e-10
9.47925e-09
1.10866e-06
4.97982e-10
9.51407e-09
1.10366e-06
7.87293e-10
9.62164e-09
1.09817e-06
1.23621e-09
9.80483e-09
1.09214e-06
1.90926e-09
1.00657e-08
1.08574e-06
2.81149e-09
1.03229e-08
4.2151e-09
1.06989e-08
1.16914e-06
-1.06485e-09
4.90658e-09
1.16312e-06
-5.58675e-09
1.16086e-08
1.15731e-06
-8.46441e-09
1.42756e-08
1.15202e-06
-9.0404e-09
1.43333e-08
1.14691e-06
-8.61848e-09
1.37288e-08
1.14208e-06
-8.12126e-09
1.29661e-08
1.13778e-06
-7.7875e-09
1.20952e-08
1.13405e-06
-7.55533e-09
1.12986e-08
1.13081e-06
-7.3696e-09
1.06335e-08
1.12778e-06
-7.08545e-09
1.01618e-08
1.12465e-06
-6.64714e-09
9.84984e-09
1.1213e-06
-6.15146e-09
9.61676e-09
1.1177e-06
-5.6615e-09
9.45548e-09
1.11382e-06
-5.1752e-09
9.36618e-09
1.10964e-06
-4.66112e-09
9.33065e-09
1.10518e-06
-4.0786e-09
9.33273e-09
1.1004e-06
-3.33863e-09
9.35225e-09
1.09528e-06
-2.34044e-09
9.37227e-09
1.08975e-06
-1.01726e-09
9.35598e-09
7.92982e-10
9.37995e-09
1.07432e-06
-2.8527e-09
5.56889e-09
1.06824e-06
-1.3409e-08
1.39003e-08
1.06138e-06
-1.7868e-08
1.62617e-08
1.05339e-06
-1.69564e-08
1.59083e-08
1.04511e-06
-1.53415e-08
1.50002e-08
1.03723e-06
-1.41713e-08
1.39298e-08
1.02985e-06
-1.33817e-08
1.29716e-08
1.02287e-06
-1.2679e-08
1.21056e-08
1.01606e-06
-1.18925e-08
1.13298e-08
1.00936e-06
-1.10511e-08
1.06664e-08
1.00281e-06
-1.02489e-08
1.0155e-08
9.96397e-07
-9.50632e-09
9.76761e-09
9.901e-07
-8.83243e-09
9.46827e-09
9.83909e-07
-8.21677e-09
9.23245e-09
9.77838e-07
-7.61837e-09
9.02793e-09
9.71907e-07
-6.96068e-09
8.81303e-09
9.66117e-07
-6.08008e-09
8.53125e-09
9.6037e-07
-4.70288e-09
8.10913e-09
9.54485e-07
-2.63241e-09
7.4999e-09
1.32719e-09
6.54617e-09
8.90375e-07
-3.58769e-09
6.33236e-09
8.82486e-07
-2.26463e-08
1.71259e-08
8.70359e-07
-2.43767e-08
1.86359e-08
8.55112e-07
-1.88561e-08
1.7147e-08
8.39982e-07
-1.55716e-08
1.53597e-08
8.25536e-07
-1.35136e-08
1.37885e-08
8.11771e-07
-1.19572e-08
1.234e-08
7.98784e-07
-1.08087e-08
1.11171e-08
7.86723e-07
-9.96228e-09
1.01306e-08
7.75601e-07
-9.26258e-09
9.33342e-09
7.65286e-07
-8.65523e-09
8.72145e-09
7.55638e-07
-8.12165e-09
8.2628e-09
7.46548e-07
-7.65459e-09
7.9128e-09
7.37965e-07
-7.25753e-09
7.62335e-09
7.29919e-07
-6.92276e-09
7.34995e-09
7.22554e-07
-6.61598e-09
7.02028e-09
7.16189e-07
-6.20249e-09
6.48756e-09
7.11219e-07
-5.21838e-09
5.48488e-09
7.0804e-07
-3.30568e-09
3.85109e-09
2.59647e-09
-1.30595e-10
6.3138e-07
-1.09689e-09
7.40287e-09
6.14563e-07
-2.65298e-08
2.07004e-08
5.86444e-07
-1.49869e-08
1.87293e-08
5.61723e-07
-9.98286e-09
1.58474e-08
5.39614e-07
-7.21146e-09
1.37496e-08
5.20631e-07
-5.82061e-09
1.12894e-08
5.04683e-07
-4.71863e-09
8.70937e-09
4.90926e-07
-3.89221e-09
6.84038e-09
4.78699e-07
-3.33881e-09
5.60395e-09
4.67608e-07
-2.93861e-09
4.76704e-09
4.57418e-07
-2.6265e-09
4.16106e-09
4.47984e-07
-2.37892e-09
3.69168e-09
4.39198e-07
-2.19286e-09
3.32367e-09
4.30969e-07
-2.07381e-09
3.04517e-09
4.23267e-07
-2.014e-09
2.79278e-09
4.16179e-07
-2.00912e-09
2.48167e-09
4.10124e-07
-2.06293e-09
1.91433e-09
4.063e-07
-2.16625e-09
7.71722e-10
4.07124e-07
-2.57608e-09
-1.55448e-09
4.7623e-09
-1.2324e-08
3.32249e-07
1.0968e-09
2.7919e-07
2.65294e-08
2.49217e-07
1.49862e-08
2.29252e-07
9.98181e-09
2.14832e-07
7.20933e-09
2.03194e-07
5.81729e-09
1.93763e-07
4.71224e-09
1.8599e-07
3.88089e-09
1.79332e-07
3.31929e-09
1.73488e-07
2.90522e-09
1.6829e-07
2.57121e-09
1.63624e-07
2.28697e-09
1.59393e-07
2.03819e-09
1.55521e-07
1.79869e-09
1.51976e-07
1.5309e-09
1.48777e-07
1.18965e-09
1.45974e-07
7.40075e-10
1.43913e-07
-1.06042e-10
1.43603e-07
-2.2657e-09
-1.36315e-08
6.3138e-07
7.40287e-09
3.58769e-09
6.14563e-07
2.07004e-08
2.26463e-08
5.86444e-07
1.87293e-08
2.43767e-08
5.61723e-07
1.58474e-08
1.88561e-08
5.39614e-07
1.37496e-08
1.55716e-08
5.20631e-07
1.12894e-08
1.35136e-08
5.04683e-07
8.70936e-09
1.19573e-08
4.90927e-07
6.84038e-09
1.08087e-08
4.78699e-07
5.60396e-09
9.96228e-09
4.67608e-07
4.76706e-09
9.26258e-09
4.57418e-07
4.1611e-09
8.65521e-09
4.47984e-07
3.69179e-09
8.12159e-09
4.39198e-07
3.32393e-09
7.65449e-09
4.30969e-07
3.04534e-09
7.25769e-09
4.23267e-07
2.79271e-09
6.92329e-09
4.16178e-07
2.48186e-09
6.61688e-09
4.10123e-07
1.91478e-09
6.20417e-09
4.06296e-07
7.72628e-10
5.22186e-09
4.07115e-07
-1.55184e-09
3.31389e-09
-1.23199e-08
-2.56409e-09
9.23616e-07
7.03391e-09
7.03405e-09
9.25317e-07
1.98501e-08
1.98506e-08
9.17181e-07
2.27972e-08
2.2798e-08
9.04269e-07
2.23029e-08
2.23045e-08
8.90524e-07
2.06217e-08
2.06243e-08
8.77393e-07
1.78542e-08
1.7859e-08
8.65412e-07
1.46984e-08
1.47062e-08
8.54715e-07
1.21866e-08
1.21992e-08
8.45243e-07
1.03355e-08
1.03573e-08
8.36847e-07
8.95762e-09
8.99553e-09
8.29335e-07
7.90601e-09
7.9709e-09
8.22513e-07
7.08665e-09
7.1943e-09
8.16242e-07
6.4334e-09
6.60928e-09
8.10466e-07
5.87808e-09
6.16129e-09
8.05161e-07
5.34517e-09
5.80681e-09
8.00295e-07
4.77284e-09
5.51953e-09
7.9576e-07
4.05033e-09
5.24512e-09
7.91168e-07
3.06992e-09
4.92724e-09
7.85575e-07
1.45833e-09
4.254e-09
-1.84258e-09
1.93833e-09
1.1589e-06
5.2815e-09
6.10286e-09
1.16569e-06
1.39993e-08
1.61839e-08
1.16844e-06
1.79792e-08
2.07084e-08
1.1666e-06
1.91809e-08
2.21076e-08
1.1622e-06
1.88789e-08
2.15095e-08
1.15652e-06
1.75494e-08
1.97751e-08
1.15044e-06
1.56916e-08
1.74335e-08
1.14451e-06
1.38964e-08
1.53432e-08
1.13904e-06
1.23008e-08
1.36522e-08
1.13414e-06
1.09107e-08
1.23056e-08
1.1298e-06
9.76535e-09
1.12478e-08
1.12595e-06
8.83166e-09
1.04331e-08
1.12254e-06
8.06364e-09
9.81796e-09
1.11947e-06
7.41706e-09
9.36199e-09
1.11663e-06
6.85884e-09
9.04844e-09
1.11383e-06
6.36357e-09
8.88056e-09
1.11083e-06
5.9218e-09
8.88199e-09
1.1072e-06
5.54483e-09
9.09783e-09
1.10239e-06
5.20855e-09
9.45153e-09
5.08791e-09
9.971e-09
1.32762e-06
2.71858e-09
4.93136e-09
1.33539e-06
7.12189e-09
1.30097e-08
1.34286e-06
9.55531e-09
1.72172e-08
1.34847e-06
1.0581e-08
1.8902e-08
1.35197e-06
1.08801e-08
1.95053e-08
1.35374e-06
1.05882e-08
1.91209e-08
1.3544e-06
9.90393e-09
1.81093e-08
1.35452e-06
9.06537e-09
1.68243e-08
1.35446e-06
8.22531e-09
1.54832e-08
1.35435e-06
7.44845e-09
1.42636e-08
1.35425e-06
6.77376e-09
1.32979e-08
1.35417e-06
6.19966e-09
1.25551e-08
1.35412e-06
5.72068e-09
1.1998e-08
1.35407e-06
5.33234e-09
1.16057e-08
1.35393e-06
5.04037e-09
1.13707e-08
1.35361e-06
4.85467e-09
1.12972e-08
1.35296e-06
4.79922e-09
1.1409e-08
1.35183e-06
4.91118e-09
1.17456e-08
1.35006e-06
5.23033e-09
1.22791e-08
5.72155e-09
1.28775e-08
1.41518e-06
1.94275e-13
4.19306e-09
1.42279e-06
5.53945e-13
1.11164e-08
1.43152e-06
9.44871e-13
1.50993e-08
1.4398e-06
1.66451e-12
1.66303e-08
1.44713e-06
2.96135e-12
1.72766e-08
1.45317e-06
5.01678e-12
1.7511e-08
1.45801e-06
8.13877e-12
1.71542e-08
1.46193e-06
1.31693e-11
1.64376e-08
1.46523e-06
2.17757e-11
1.5548e-08
1.46816e-06
3.71904e-11
1.46619e-08
1.4709e-06
6.31884e-11
1.38425e-08
1.47352e-06
1.04283e-10
1.31309e-08
1.476e-06
1.6803e-10
1.25999e-08
1.47828e-06
2.63699e-10
1.22649e-08
1.48034e-06
4.12712e-10
1.20895e-08
1.48213e-06
6.43221e-10
1.2037e-08
1.48365e-06
9.93642e-10
1.20949e-08
1.48483e-06
1.51024e-09
1.22797e-08
1.48559e-06
2.22218e-09
1.25781e-08
3.09375e-09
1.29441e-08
1.41518e-06
-2.71835e-09
4.19295e-09
1.42279e-06
-7.12126e-09
1.11161e-08
1.43152e-06
-9.55417e-09
1.50989e-08
1.43981e-06
-1.0579e-08
1.66295e-08
1.44714e-06
-1.08764e-08
1.72748e-08
1.45319e-06
-1.05821e-08
1.75078e-08
1.45803e-06
-9.89381e-09
1.71492e-08
1.46196e-06
-9.04877e-09
1.64299e-08
1.46528e-06
-8.19756e-09
1.55364e-08
1.46824e-06
-7.39836e-09
1.4643e-08
1.47102e-06
-6.68604e-09
1.38112e-08
1.47372e-06
-6.05557e-09
1.30779e-08
1.47633e-06
-5.49131e-09
1.25104e-08
1.47882e-06
-4.97869e-09
1.21188e-08
1.48118e-06
-4.48127e-09
1.18564e-08
1.48344e-06
-3.95188e-09
1.16756e-08
1.48557e-06
-3.34028e-09
1.15501e-08
1.48756e-06
-2.58621e-09
1.14784e-08
1.48932e-06
-1.62813e-09
1.14512e-08
-3.54812e-10
1.14011e-08
1.32763e-06
-5.28159e-09
4.93115e-09
1.33539e-06
-1.39995e-08
1.30091e-08
1.34287e-06
-1.79794e-08
1.7216e-08
1.34848e-06
-1.91811e-08
1.88994e-08
1.35198e-06
-1.88793e-08
1.95007e-08
1.35376e-06
-1.75504e-08
1.9114e-08
1.35443e-06
-1.56927e-08
1.80985e-08
1.35458e-06
-1.38972e-08
1.68072e-08
1.35456e-06
-1.23021e-08
1.54568e-08
1.35452e-06
-1.09132e-08
1.42202e-08
1.35453e-06
-9.7695e-09
1.32238e-08
1.35466e-06
-8.84077e-09
1.24313e-08
1.35492e-06
-8.07891e-09
1.17951e-08
1.35534e-06
-7.44473e-09
1.1277e-08
1.35593e-06
-6.88767e-09
1.0839e-08
1.35671e-06
-6.35589e-09
1.04392e-08
1.35765e-06
-5.78666e-09
1.00345e-08
1.3587e-06
-5.1056e-09
9.58233e-09
1.35967e-06
-4.14619e-09
9.05306e-09
-2.40979e-09
8.27138e-09
1.1589e-06
-7.03405e-09
6.10263e-09
1.1657e-06
-1.98506e-08
1.61831e-08
1.16844e-06
-2.27981e-08
2.07068e-08
1.16661e-06
-2.23045e-08
2.21049e-08
1.16221e-06
-2.06243e-08
2.15054e-08
1.15654e-06
-1.7859e-08
1.97692e-08
1.15047e-06
-1.47062e-08
1.74239e-08
1.14456e-06
-1.21993e-08
1.53264e-08
1.13912e-06
-1.03574e-08
1.36236e-08
1.13428e-06
-8.9956e-09
1.22579e-08
1.13003e-06
-7.97097e-09
1.11689e-08
1.12635e-06
-7.19433e-09
1.03029e-08
1.12319e-06
-6.60923e-09
9.60323e-09
1.12052e-06
-6.1614e-09
9.00802e-09
1.11832e-06
-5.80679e-09
8.46361e-09
1.1166e-06
-5.5187e-09
7.90928e-09
1.11529e-06
-5.24321e-09
7.2549e-09
1.1142e-06
-4.92353e-09
6.38688e-09
1.11298e-06
-4.24628e-09
5.17046e-09
-1.92181e-09
3.32073e-09
9.23616e-07
-7.40295e-09
7.03391e-09
9.25317e-07
-2.07008e-08
1.98501e-08
9.17181e-07
-1.87299e-08
2.27972e-08
9.04269e-07
-1.58485e-08
2.23029e-08
8.90524e-07
-1.37512e-08
2.06217e-08
8.77393e-07
-1.12925e-08
1.78542e-08
8.65412e-07
-8.71437e-09
1.46984e-08
8.54715e-07
-6.84843e-09
1.21866e-08
8.45243e-07
-5.61739e-09
1.03355e-08
8.36847e-07
-4.78998e-09
8.95761e-09
8.29335e-07
-4.20448e-09
7.90596e-09
8.22513e-07
-3.7667e-09
7.08648e-09
8.16242e-07
-3.4481e-09
6.43294e-09
8.10466e-07
-3.21806e-09
5.87781e-09
8.05162e-07
-3.05438e-09
5.34497e-09
8.00298e-07
-2.94492e-09
4.77181e-09
7.95765e-07
-2.84471e-09
4.04836e-09
7.91177e-07
-2.63041e-09
3.06633e-09
7.85591e-07
-1.66713e-09
1.45193e-09
-1.25636e-09
-1.84921e-09
6.3138e-07
3.58756e-09
6.14563e-07
2.26458e-08
5.86443e-07
2.4376e-08
5.61722e-07
1.8855e-08
5.3961e-07
1.55693e-08
5.20625e-07
1.35098e-08
5.04673e-07
1.19507e-08
4.90907e-07
1.07978e-08
4.78665e-07
9.94396e-09
4.67549e-07
9.23144e-09
4.57313e-07
8.60238e-09
4.47798e-07
8.03569e-09
4.38868e-07
7.52025e-09
4.304e-07
7.04805e-09
4.22277e-07
6.59944e-09
4.14388e-07
6.13407e-09
4.06731e-07
5.55246e-09
3.99323e-07
4.67134e-09
3.92154e-07
3.2358e-09
4.39057e-09
8.90375e-07
6.33236e-09
2.85269e-09
8.82486e-07
1.71259e-08
1.3409e-08
8.70359e-07
1.86359e-08
1.78681e-08
8.55112e-07
1.7147e-08
1.69564e-08
8.39982e-07
1.53597e-08
1.53415e-08
8.25536e-07
1.37885e-08
1.41713e-08
8.11771e-07
1.234e-08
1.33817e-08
7.98784e-07
1.11171e-08
1.2679e-08
7.86723e-07
1.01306e-08
1.18925e-08
7.75601e-07
9.33341e-09
1.10511e-08
7.65286e-07
8.72145e-09
1.02488e-08
7.55639e-07
8.26279e-09
9.50624e-09
7.46548e-07
7.9127e-09
8.83232e-09
7.37966e-07
7.62328e-09
8.21676e-09
7.29921e-07
7.34999e-09
7.61846e-09
7.22557e-07
7.02021e-09
6.96086e-09
7.16193e-07
6.48721e-09
6.08024e-09
7.11228e-07
5.48413e-09
4.70329e-09
7.08057e-07
3.85118e-09
2.63281e-09
-1.19494e-10
-1.31699e-09
1.1589e-06
6.10263e-09
5.28159e-09
1.1657e-06
1.61831e-08
1.39995e-08
1.16844e-06
2.07068e-08
1.79794e-08
1.16661e-06
2.21048e-08
1.91811e-08
1.16221e-06
2.15053e-08
1.88793e-08
1.15654e-06
1.97692e-08
1.75503e-08
1.15047e-06
1.74238e-08
1.56927e-08
1.14456e-06
1.53264e-08
1.38971e-08
1.13912e-06
1.36236e-08
1.2302e-08
1.13428e-06
1.2258e-08
1.09131e-08
1.13003e-06
1.1169e-08
9.76939e-09
1.12635e-06
1.03031e-08
8.84065e-09
1.12319e-06
9.6034e-09
8.0787e-09
1.12052e-06
9.0082e-09
7.44451e-09
1.11832e-06
8.46406e-09
6.88759e-09
1.1166e-06
7.91024e-09
6.35599e-09
1.11529e-06
7.25655e-09
5.78701e-09
1.1142e-06
6.38931e-09
5.10605e-09
1.11298e-06
5.17547e-09
4.14854e-09
3.33319e-09
2.42774e-09
1.37712e-06
4.57744e-09
4.57765e-09
1.38565e-06
1.19175e-08
1.19181e-08
1.39417e-06
1.64478e-08
1.64488e-08
1.40126e-06
1.85618e-08
1.85634e-08
1.40641e-06
1.89313e-08
1.8934e-08
1.4095e-06
1.8223e-08
1.82272e-08
1.41092e-06
1.6717e-08
1.67238e-08
1.41149e-06
1.50441e-08
1.50549e-08
1.41174e-06
1.35005e-08
1.3518e-08
1.41195e-06
1.21632e-08
1.21914e-08
1.41228e-06
1.10237e-08
1.10691e-08
1.41281e-06
1.00654e-08
1.01389e-08
1.41359e-06
9.26054e-09
9.37989e-09
1.41462e-06
8.57385e-09
8.76817e-09
1.41587e-06
7.97299e-09
8.28547e-09
1.41731e-06
7.43148e-09
7.92345e-09
1.41885e-06
6.91582e-09
7.67685e-09
1.42041e-06
6.38736e-09
7.54318e-09
1.42182e-06
5.76974e-09
7.45209e-09
5.09327e-09
7.19144e-09
1.53312e-06
2.36636e-09
3.64963e-09
1.54218e-06
6.23972e-09
9.63477e-09
1.55327e-06
8.87496e-09
1.36934e-08
1.56445e-06
1.03499e-08
1.59395e-08
1.57506e-06
1.09041e-08
1.69164e-08
1.58469e-06
1.07616e-08
1.69523e-08
1.59298e-06
1.01543e-08
1.63867e-08
1.60004e-06
9.34861e-09
1.54614e-08
1.60617e-06
8.48763e-09
1.4368e-08
1.61162e-06
7.68339e-09
1.32868e-08
1.61664e-06
6.98411e-09
1.23155e-08
1.62139e-06
6.39264e-09
1.14858e-08
1.62595e-06
5.89274e-09
1.08055e-08
1.63038e-06
5.47142e-09
1.02725e-08
1.63472e-06
5.12182e-09
9.88234e-09
1.63897e-06
4.84609e-09
9.6334e-09
1.64313e-06
4.63887e-09
9.52581e-09
1.64721e-06
4.50322e-09
9.55615e-09
1.65115e-06
4.42533e-09
9.68262e-09
4.36821e-09
9.77471e-09
1.61424e-06
1.3518e-13
3.09296e-09
1.62332e-06
3.29432e-13
8.27439e-09
1.63534e-06
5.67916e-13
1.19578e-08
1.6482e-06
9.7751e-13
1.41154e-08
1.66118e-06
1.68338e-12
1.52017e-08
1.67386e-06
2.70879e-12
1.55845e-08
1.68574e-06
4.4148e-12
1.54312e-08
1.69655e-06
7.02675e-12
1.49595e-08
1.70629e-06
1.15088e-11
1.42857e-08
1.71511e-06
1.91205e-11
1.35114e-08
1.72318e-06
3.14406e-11
1.27262e-08
1.73065e-06
5.04348e-11
1.19972e-08
1.7377e-06
7.87223e-11
1.13719e-08
1.74444e-06
1.20216e-10
1.08737e-08
1.75096e-06
1.83714e-10
1.05084e-08
1.75728e-06
2.82187e-10
1.0276e-08
1.76343e-06
4.29353e-10
1.01564e-08
1.76943e-06
6.50783e-10
1.0132e-08
1.7753e-06
9.65635e-10
1.01715e-08
1.31853e-09
1.02059e-08
1.61424e-06
-2.36626e-09
3.09284e-09
1.62332e-06
-6.23948e-09
8.27406e-09
1.63534e-06
-8.87452e-09
1.19572e-08
1.6482e-06
-1.03491e-08
1.41143e-08
1.66118e-06
-1.09029e-08
1.51997e-08
1.67387e-06
-1.07598e-08
1.55814e-08
1.68575e-06
-1.01514e-08
1.54267e-08
1.69658e-06
-9.34373e-09
1.49527e-08
1.70633e-06
-8.47948e-09
1.42751e-08
1.71517e-06
-7.66864e-09
1.34945e-08
1.72327e-06
-6.95805e-09
1.26987e-08
1.73079e-06
-6.3498e-09
1.19527e-08
1.73791e-06
-5.82598e-09
1.13003e-08
1.74476e-06
-5.37143e-09
1.07601e-08
1.75144e-06
-4.9705e-09
1.03302e-08
1.75801e-06
-4.60888e-09
1.00007e-08
1.76451e-06
-4.26719e-09
9.74506e-09
1.77102e-06
-3.91907e-09
9.5318e-09
1.77763e-06
-3.51034e-09
9.3223e-09
-2.98185e-09
9.09245e-09
1.53312e-06
-4.57765e-09
3.64936e-09
1.54218e-06
-1.19181e-08
9.63406e-09
1.55328e-06
-1.64488e-08
1.36921e-08
1.56445e-06
-1.85634e-08
1.59372e-08
1.57507e-06
-1.8934e-08
1.69125e-08
1.58471e-06
-1.82272e-08
1.69463e-08
1.593e-06
-1.67239e-08
1.63775e-08
1.60007e-06
-1.5055e-08
1.54467e-08
1.60622e-06
-1.35182e-08
1.4345e-08
1.61172e-06
-1.21916e-08
1.32506e-08
1.61679e-06
-1.10693e-08
1.22576e-08
1.62162e-06
-1.01391e-08
1.13923e-08
1.62632e-06
-9.38014e-09
1.06544e-08
1.63096e-06
-8.76859e-09
1.00279e-08
1.63563e-06
-8.28596e-09
9.49148e-09
1.64036e-06
-7.92382e-09
9.02064e-09
1.64522e-06
-7.67712e-09
8.58614e-09
1.65027e-06
-7.54369e-09
8.15312e-09
1.65561e-06
-7.45406e-09
7.66118e-09
-7.19939e-09
7.09209e-09
1.37712e-06
-6.10286e-09
4.57745e-09
1.38565e-06
-1.61839e-08
1.19176e-08
1.39417e-06
-2.07084e-08
1.64478e-08
1.40126e-06
-2.21076e-08
1.85618e-08
1.40641e-06
-2.15095e-08
1.89313e-08
1.4095e-06
-1.97751e-08
1.8223e-08
1.41092e-06
-1.74336e-08
1.6717e-08
1.41149e-06
-1.53432e-08
1.50441e-08
1.41174e-06
-1.36523e-08
1.35005e-08
1.41195e-06
-1.23057e-08
1.21632e-08
1.41228e-06
-1.12479e-08
1.10236e-08
1.41281e-06
-1.04332e-08
1.00652e-08
1.41359e-06
-9.81791e-09
9.26015e-09
1.41462e-06
-9.36207e-09
8.57336e-09
1.41587e-06
-9.04841e-09
7.97218e-09
1.41731e-06
-8.87975e-09
7.42993e-09
1.41885e-06
-8.88001e-09
6.91324e-09
1.42041e-06
-9.09415e-09
6.38354e-09
1.4218e-06
-9.44622e-09
5.76467e-09
-9.96745e-09
5.08981e-09
1.1589e-06
-6.33242e-09
5.2815e-09
1.16569e-06
-1.71263e-08
1.39993e-08
1.16844e-06
-1.86369e-08
1.79792e-08
1.1666e-06
-1.71486e-08
1.91809e-08
1.1622e-06
-1.53621e-08
1.88789e-08
1.15652e-06
-1.37918e-08
1.75494e-08
1.15044e-06
-1.23454e-08
1.56916e-08
1.14451e-06
-1.11266e-08
1.38964e-08
1.13904e-06
-1.0146e-08
1.23008e-08
1.13414e-06
-9.35842e-09
1.09106e-08
1.1298e-06
-8.76325e-09
9.76523e-09
1.12595e-06
-8.33444e-09
8.83142e-09
1.12254e-06
-8.03625e-09
8.06312e-09
1.11947e-06
-7.83322e-09
7.41643e-09
1.11663e-06
-7.71348e-09
6.85792e-09
1.11383e-06
-7.67792e-09
6.36176e-09
1.11083e-06
-7.74796e-09
5.91868e-09
1.10721e-06
-7.9419e-09
5.53961e-09
1.1024e-06
-8.38631e-09
5.20026e-09
-1.08707e-08
5.07811e-09
8.90374e-07
2.85268e-09
8.82485e-07
1.3409e-08
8.70356e-07
1.78681e-08
8.55106e-07
1.69566e-08
8.39971e-07
1.53422e-08
8.25516e-07
1.41729e-08
8.11736e-07
1.33847e-08
7.98724e-07
1.2684e-08
7.8662e-07
1.19013e-08
7.75427e-07
1.10658e-08
7.64993e-07
1.02735e-08
7.55145e-07
9.54905e-09
7.45719e-07
8.91028e-09
7.36569e-07
8.36454e-09
7.27549e-07
7.90663e-09
7.18471e-07
7.53385e-09
7.09015e-07
7.26059e-09
6.98591e-07
7.15326e-09
6.85845e-07
7.59566e-09
1.08955e-08
1.07432e-06
5.56889e-09
1.06485e-09
1.06824e-06
1.39003e-08
5.58676e-09
1.06138e-06
1.62617e-08
8.46443e-09
1.05339e-06
1.59082e-08
9.04042e-09
1.04511e-06
1.50002e-08
8.6185e-09
1.03723e-06
1.39298e-08
8.12127e-09
1.02985e-06
1.29715e-08
7.7875e-09
1.02287e-06
1.21056e-08
7.55532e-09
1.01606e-06
1.13298e-08
7.36957e-09
1.00936e-06
1.06664e-08
7.0854e-09
1.00281e-06
1.0155e-08
6.64706e-09
9.96398e-07
9.76755e-09
6.15135e-09
9.90101e-07
9.46808e-09
5.66138e-09
9.8391e-07
9.23212e-09
5.175e-09
9.77841e-07
9.02734e-09
4.66075e-09
9.71912e-07
8.81183e-09
4.07797e-09
9.66126e-07
8.52893e-09
3.33728e-09
9.60387e-07
8.10482e-09
2.33777e-09
9.54513e-07
7.49375e-09
1.01225e-09
6.54927e-09
-8.01152e-10
1.32763e-06
4.93115e-09
2.71835e-09
1.33539e-06
1.30091e-08
7.12126e-09
1.34287e-06
1.7216e-08
9.55417e-09
1.34848e-06
1.88994e-08
1.0579e-08
1.35198e-06
1.95007e-08
1.08764e-08
1.35376e-06
1.9114e-08
1.0582e-08
1.35443e-06
1.80985e-08
9.89375e-09
1.35458e-06
1.68072e-08
9.04867e-09
1.35456e-06
1.54568e-08
8.19744e-09
1.35452e-06
1.42202e-08
7.3982e-09
1.35454e-06
1.32238e-08
6.68585e-09
1.35466e-06
1.24313e-08
6.05534e-09
1.35492e-06
1.1795e-08
5.49101e-09
1.35534e-06
1.1277e-08
4.9784e-09
1.35593e-06
1.08391e-08
4.48104e-09
1.35671e-06
1.04392e-08
3.95157e-09
1.35765e-06
1.00345e-08
3.3399e-09
1.35869e-06
9.5825e-09
2.58592e-09
1.35965e-06
9.05576e-09
1.62976e-09
8.2925e-09
3.69863e-10
1.53312e-06
3.64935e-09
2.36626e-09
1.54218e-06
9.63405e-09
6.23948e-09
1.55328e-06
1.36921e-08
8.8745e-09
1.56445e-06
1.59372e-08
1.03491e-08
1.57507e-06
1.69125e-08
1.09029e-08
1.58471e-06
1.69463e-08
1.07597e-08
1.593e-06
1.63774e-08
1.01513e-08
1.60007e-06
1.54467e-08
9.34357e-09
1.60622e-06
1.4345e-08
8.47926e-09
1.61172e-06
1.32506e-08
7.66838e-09
1.61679e-06
1.22577e-08
6.95775e-09
1.62162e-06
1.13924e-08
6.34945e-09
1.62632e-06
1.06546e-08
5.82557e-09
1.63096e-06
1.00282e-08
5.37094e-09
1.63563e-06
9.49201e-09
4.96996e-09
1.64036e-06
9.02156e-09
4.60826e-09
1.64522e-06
8.5877e-09
4.2665e-09
1.65027e-06
8.15571e-09
3.91833e-09
1.6556e-06
7.6657e-09
3.50976e-09
7.10086e-09
2.98186e-09
1.68027e-06
1.89118e-09
1.89128e-09
1.68934e-06
5.0997e-09
5.09996e-09
1.7018e-06
7.46484e-09
7.46532e-09
1.71578e-06
8.94701e-09
8.94779e-09
1.73022e-06
9.69443e-09
9.69568e-09
1.74439e-06
9.86289e-09
9.8649e-09
1.75784e-06
9.65499e-09
9.65808e-09
1.77034e-06
9.20297e-09
9.20764e-09
1.7818e-06
8.61888e-09
8.62584e-09
1.79234e-06
7.99619e-09
8.00663e-09
1.8021e-06
7.39937e-09
7.41549e-09
1.81123e-06
6.8602e-09
6.88595e-09
1.81987e-06
6.38881e-09
6.43077e-09
1.82813e-06
5.98318e-09
6.05185e-09
1.83613e-06
5.63554e-09
5.74563e-09
1.84394e-06
5.33507e-09
5.50432e-09
1.85167e-06
5.0716e-09
5.31964e-09
1.85937e-06
4.83286e-09
5.17727e-09
1.86707e-06
4.59209e-09
5.04903e-09
4.35427e-09
4.89924e-09
1.7569e-06
2.31423e-14
1.61336e-09
1.76589e-06
3.43789e-14
4.38445e-09
1.77878e-06
4.16177e-14
6.53234e-09
1.79389e-06
5.81597e-14
7.95191e-09
1.81003e-06
8.38061e-14
8.75685e-09
1.82639e-06
1.17328e-13
9.08714e-09
1.8424e-06
1.96559e-13
9.07383e-09
1.85773e-06
4.90986e-13
8.83806e-09
1.87217e-06
1.08323e-12
8.46491e-09
1.88565e-06
2.05029e-12
8.02059e-09
1.89822e-06
3.41244e-12
7.55659e-09
1.90996e-06
5.07684e-12
7.1104e-09
1.921e-06
6.7956e-12
6.7069e-09
1.93149e-06
8.35918e-12
6.36044e-09
1.94155e-06
1.03279e-11
6.07782e-09
1.95128e-06
1.47931e-11
5.86129e-09
1.96079e-06
2.41461e-11
5.70065e-09
1.97014e-06
4.02463e-11
5.57245e-09
1.97941e-06
6.32758e-11
5.43015e-09
7.27049e-11
5.31341e-09
1.7569e-06
-1.89128e-09
1.61328e-09
1.76589e-06
-5.09998e-09
4.38424e-09
1.77878e-06
-7.46535e-09
6.53195e-09
1.79389e-06
-8.94785e-09
7.95124e-09
1.81003e-06
-9.69578e-09
8.75578e-09
1.82639e-06
-9.86503e-09
9.0855e-09
1.84241e-06
-9.65825e-09
9.07142e-09
1.85773e-06
-9.20786e-09
8.83445e-09
1.87218e-06
-8.62612e-09
8.45944e-09
1.88567e-06
-8.00697e-09
8.01216e-09
1.89824e-06
-7.41591e-09
7.54348e-09
1.91e-06
-6.88645e-09
7.08995e-09
1.92106e-06
-6.43139e-09
6.67495e-09
1.93157e-06
-6.05266e-09
6.31075e-09
1.94166e-06
-5.74669e-09
6.0011e-09
1.95143e-06
-5.50572e-09
5.74456e-09
1.96099e-06
-5.32158e-09
5.52918e-09
1.97042e-06
-5.18013e-09
5.32992e-09
1.97975e-06
-5.0535e-09
5.10475e-09
-4.90668e-09
4.92861e-09
1.68027e-06
-3.64963e-09
1.89119e-09
1.68934e-06
-9.63478e-09
5.09971e-09
1.7018e-06
-1.36934e-08
7.46486e-09
1.71578e-06
-1.59396e-08
8.94703e-09
1.73022e-06
-1.69164e-08
9.69446e-09
1.74439e-06
-1.69524e-08
9.86292e-09
1.75784e-06
-1.63868e-08
9.65502e-09
1.77033e-06
-1.54616e-08
9.203e-09
1.7818e-06
-1.43682e-08
8.61891e-09
1.79234e-06
-1.32871e-08
7.9962e-09
1.8021e-06
-1.23158e-08
7.39935e-09
1.81123e-06
-1.14861e-08
6.86016e-09
1.81987e-06
-1.08059e-08
6.38873e-09
1.82813e-06
-1.02731e-08
5.98306e-09
1.83613e-06
-9.88314e-09
5.63534e-09
1.84394e-06
-9.63436e-09
5.33473e-09
1.85166e-06
-9.5271e-09
5.07108e-09
1.85936e-06
-9.55814e-09
4.83224e-09
1.86706e-06
-9.6864e-09
4.5917e-09
-9.78279e-09
4.35473e-09
1.53312e-06
-4.93135e-09
2.36636e-09
1.54218e-06
-1.30097e-08
6.23973e-09
1.55327e-06
-1.72172e-08
8.87497e-09
1.56445e-06
-1.8902e-08
1.03499e-08
1.57506e-06
-1.95053e-08
1.09041e-08
1.58469e-06
-1.9121e-08
1.07616e-08
1.59298e-06
-1.81093e-08
1.01543e-08
1.60004e-06
-1.68244e-08
9.34861e-09
1.60617e-06
-1.54834e-08
8.48761e-09
1.61162e-06
-1.42638e-08
7.68334e-09
1.61664e-06
-1.32981e-08
6.98401e-09
1.62139e-06
-1.25553e-08
6.39246e-09
1.62595e-06
-1.19981e-08
5.89246e-09
1.63038e-06
-1.16058e-08
5.47105e-09
1.63472e-06
-1.13706e-08
5.12129e-09
1.63897e-06
-1.12965e-08
4.84522e-09
1.64312e-06
-1.14073e-08
4.63766e-09
1.64719e-06
-1.17426e-08
4.50175e-09
1.65112e-06
-1.22749e-08
4.42426e-09
-1.28731e-08
4.36975e-09
1.32762e-06
-5.56891e-09
2.71858e-09
1.33539e-06
-1.39004e-08
7.1219e-09
1.34286e-06
-1.62622e-08
9.55532e-09
1.34847e-06
-1.59097e-08
1.05811e-08
1.35197e-06
-1.50028e-08
1.08801e-08
1.35374e-06
-1.39339e-08
1.05882e-08
1.3544e-06
-1.29777e-08
9.90392e-09
1.35452e-06
-1.21158e-08
9.06535e-09
1.35446e-06
-1.13466e-08
8.22526e-09
1.35435e-06
-1.06947e-08
7.44837e-09
1.35425e-06
-1.02039e-08
6.7736e-09
1.35417e-06
-9.84869e-09
6.1994e-09
1.35412e-06
-9.60531e-09
5.72025e-09
1.35406e-06
-9.46271e-09
5.3317e-09
1.35393e-06
-9.41484e-09
5.03944e-09
1.3536e-06
-9.46443e-09
4.85314e-09
1.35296e-06
-9.63641e-09
4.79677e-09
1.35183e-06
-9.98073e-09
4.90735e-09
1.35005e-06
-1.05253e-08
5.22441e-09
-1.17286e-08
5.71448e-09
1.07432e-06
1.06508e-09
1.06824e-06
5.58758e-09
1.06138e-06
8.46599e-09
1.05338e-06
9.04305e-09
1.0451e-06
8.62317e-09
1.03721e-06
8.12956e-09
1.02981e-06
7.80188e-09
1.0228e-06
7.57963e-09
1.01594e-06
7.411e-09
1.00916e-06
7.15395e-09
1.00247e-06
6.75874e-09
9.95838e-07
6.33387e-09
9.89182e-07
5.96035e-09
9.82416e-07
5.66842e-09
9.75432e-07
5.47601e-09
9.68087e-07
5.414e-09
9.60173e-07
5.53902e-09
9.51401e-07
5.94441e-09
9.41742e-07
6.72979e-09
8.96775e-09
1.16914e-06
4.90658e-09
-1.1664e-13
1.16312e-06
1.16086e-08
-5.20659e-13
1.15731e-06
1.42755e-08
-1.12287e-12
1.15202e-06
1.43333e-08
-1.95492e-12
1.14691e-06
1.37288e-08
-3.27821e-12
1.14208e-06
1.2966e-08
-5.55921e-12
1.13778e-06
1.20952e-08
-9.48909e-12
1.13405e-06
1.12986e-08
-1.5877e-11
1.13081e-06
1.06335e-08
-2.64526e-11
1.12778e-06
1.01618e-08
-4.37176e-11
1.12465e-06
9.84982e-09
-7.17497e-11
1.1213e-06
9.61672e-09
-1.17217e-10
1.1177e-06
9.45539e-09
-1.90862e-10
1.11382e-06
9.36593e-09
-3.09628e-10
1.10965e-06
9.33014e-09
-4.98567e-10
1.10518e-06
9.3318e-09
-7.88206e-10
1.1004e-06
9.35065e-09
-1.23767e-09
1.09528e-06
9.36953e-09
-1.91156e-09
1.08976e-06
9.35178e-09
-2.81493e-09
9.37634e-09
-4.22084e-09
1.41518e-06
4.19295e-09
-1.95695e-13
1.42279e-06
1.11161e-08
-5.51097e-13
1.43152e-06
1.50989e-08
-9.50821e-13
1.43981e-06
1.66295e-08
-1.68509e-12
1.44714e-06
1.72748e-08
-2.99913e-12
1.45319e-06
1.75078e-08
-5.07578e-12
1.45803e-06
1.71492e-08
-8.22393e-12
1.46196e-06
1.64299e-08
-1.32879e-11
1.46528e-06
1.55363e-08
-2.19353e-11
1.46824e-06
1.4643e-08
-3.73992e-11
1.47102e-06
1.38112e-08
-6.34521e-11
1.47372e-06
1.30779e-08
-1.04609e-10
1.47633e-06
1.25104e-08
-1.68429e-10
1.47882e-06
1.21187e-08
-2.64154e-10
1.48118e-06
1.18563e-08
-4.13212e-10
1.48344e-06
1.16754e-08
-6.43777e-10
1.48557e-06
1.15498e-08
-9.94182e-10
1.48756e-06
1.14784e-08
-1.51046e-09
1.48931e-06
1.14524e-08
-2.22111e-09
1.14075e-08
-3.08921e-09
1.61424e-06
3.09284e-09
-1.39293e-13
1.62332e-06
8.27405e-09
-3.39828e-13
1.63534e-06
1.19571e-08
-5.94502e-13
1.6482e-06
1.41143e-08
-1.02673e-12
1.66118e-06
1.51996e-08