/*--------------------------------*- C++ -*----------------------------------*\
| =========                 |                                                 |
| \\      /  F ield         | OpenFOAM: The Open Source CFD Toolbox           |
|  \\    /   O peration     | Version:  2212                                  |
|   \\  /    A nd           | Website:  www.openfoam.com                      |
|    \\/     M anipulation  |                                                 |
\*---------------------------------------------------------------------------*/
FoamFile
{
    version     2.0;
    format      ascii;
    arch        "LSB;label=32;scalar=64";
    class       volVectorField;
    location    "1.8";
    object      U;
}
// * * * * * * * * * * * * * * * * * * * * * * * * * * * * * * * * * * * * * //

dimensions      [0 1 -1 0 0 0 0];

internalField   nonuniform List<vector> 
6840
(
(0.0956456 -0.00836005 -0.00836005)
(0.0904939 0.001522 0.00152207)
(0.0790682 0.00242969 0.00242982)
(0.071301 0.00148763 0.00148788)
(0.0661791 0.000830241 0.000830673)
(0.0623221 0.00056331 0.000564001)
(0.05922 0.000425539 0.000426939)
(0.0566836 0.000322586 0.000324917)
(0.0545477 0.000250842 0.000254662)
(0.052694 0.000198992 0.000205299)
(0.0510535 0.000160241 0.00017089)
(0.0495875 0.000130279 0.000147948)
(0.0482639 0.000103989 0.000132954)
(0.0470544 7.83242e-05 0.000124018)
(0.0459478 4.80396e-05 0.000122267)
(0.0449378 9.09527e-06 0.000130343)
(0.0440364 -2.94437e-05 0.000154926)
(0.0432882 -0.000135439 0.000201793)
(0.0430366 -0.000391041 0.000242841)
(0.0414516 -0.00206587 -0.00081555)
(0.0999088 0.00129699 0.000712563)
(0.0969668 0.00365586 0.00274727)
(0.0935344 0.00264017 0.00211818)
(0.0895889 0.00182039 0.00162069)
(0.0858314 0.00152869 0.00139068)
(0.0825888 0.00135115 0.00116128)
(0.0798631 0.00117903 0.000897348)
(0.0775633 0.00104003 0.000692484)
(0.0755514 0.000942016 0.000561027)
(0.0737403 0.000864347 0.00048074)
(0.0720825 0.000790959 0.000434692)
(0.0705472 0.00071652 0.000408972)
(0.0691124 0.000644384 0.000395495)
(0.0677594 0.000577094 0.00038757)
(0.0664701 0.000507652 0.000386874)
(0.0652244 0.000422461 0.000394008)
(0.064017 0.000289864 0.000403406)
(0.0628271 8.49742e-05 0.000404929)
(0.0616647 -0.000285396 0.000375902)
(0.0604648 -0.000772084 0.000885526)
(0.099413 0.000345235 0.000270235)
(0.0988664 0.00201907 0.00187492)
(0.0979213 0.0025732 0.00218904)
(0.0963656 0.00237999 0.00190842)
(0.0946329 0.00211434 0.00162666)
(0.0929714 0.00192715 0.00141847)
(0.0913627 0.00180223 0.00127083)
(0.0898516 0.00170683 0.00115938)
(0.0884506 0.00160728 0.0010688)
(0.0871514 0.00149853 0.000996447)
(0.0859457 0.00139073 0.000947139)
(0.0848175 0.00129131 0.000918438)
(0.0837459 0.00120123 0.000905667)
(0.0827128 0.00111795 0.000904572)
(0.0817019 0.00103889 0.00091294)
(0.0806961 0.00096162 0.000931023)
(0.0796706 0.000883495 0.000962424)
(0.0785648 0.000798523 0.00101137)
(0.0772872 0.000738376 0.00111238)
(0.0759938 0.000946683 0.0016747)
(0.0995405 0.000245051 0.000321902)
(0.0992576 0.00105566 0.00154094)
(0.0988489 0.00150244 0.0021145)
(0.0981247 0.0015796 0.00209167)
(0.0973367 0.00151512 0.00188615)
(0.0965847 0.00144696 0.00166583)
(0.0958651 0.00141106 0.00149781)
(0.0951972 0.00138051 0.00137121)
(0.0945681 0.00133583 0.00128437)
(0.0939223 0.0012663 0.00122901)
(0.0932925 0.001179 0.00119244)
(0.0926758 0.00108709 0.00117088)
(0.0920617 0.00100168 0.00116117)
(0.0914413 0.000928528 0.00116106)
(0.0908056 0.000869803 0.00117007)
(0.0901436 0.000827882 0.00118838)
(0.0894407 0.000808152 0.00121849)
(0.0886767 0.000822566 0.00126785)
(0.0877845 0.000891904 0.00135073)
(0.0868636 0.00124856 0.00155932)
(0.0993802 3.37902e-05 5.90062e-05)
(0.0992677 0.000274459 0.00120007)
(0.0989805 0.000432507 0.00188848)
(0.0984748 0.000483672 0.00200638)
(0.0979959 0.000479163 0.00191448)
(0.0975716 0.000466002 0.00173441)
(0.0971824 0.000453592 0.00154674)
(0.0968334 0.000443493 0.00138765)
(0.0965347 0.000438034 0.00126856)
(0.0962825 0.000431402 0.00119711)
(0.096012 0.000416349 0.00116852)
(0.0957242 0.000396092 0.0011647)
(0.0954185 0.00037723 0.00117135)
(0.0950851 0.000365098 0.00118345)
(0.0947174 0.000364268 0.0012007)
(0.0943118 0.00038087 0.00122461)
(0.0938661 0.000423559 0.00125704)
(0.0933807 0.000502735 0.00129933)
(0.0928189 0.000625934 0.00134347)
(0.0921761 0.000866476 0.00141434)
(0.0993802 -3.37618e-05 5.89646e-05)
(0.0992678 -0.000274315 0.00120003)
(0.0989805 -0.000432206 0.00188845)
(0.098475 -0.000483159 0.00200634)
(0.0979962 -0.000478299 0.00191438)
(0.0975723 -0.000464524 0.00173421)
(0.0971836 -0.000451051 0.00154643)
(0.0968355 -0.000439226 0.00138713)
(0.0965382 -0.000430912 0.00126761)
(0.0962882 -0.000419587 0.00119545)
(0.0960214 -0.000396904 0.00116579)
(0.0957396 -0.000364282 0.00116029)
(0.0954438 -0.000325413 0.00116416)
(0.0951263 -0.000280911 0.0011716)
(0.0947836 -0.000228119 0.0011814)
(0.0944153 -0.000164007 0.00119411)
(0.0940215 -7.9248e-05 0.00120952)
(0.0936011 3.648e-05 0.0012265)
(0.0931447 0.000185079 0.00124472)
(0.0926404 0.000369947 0.00129021)
(0.0995405 -0.000245038 0.0003219)
(0.0992576 -0.0010556 0.00154093)
(0.098849 -0.00150232 0.00211442)
(0.0981251 -0.00157938 0.00209155)
(0.0973376 -0.00151469 0.00188597)
(0.0965864 -0.00144616 0.00166555)
(0.095868 -0.00140967 0.00149746)
(0.0952022 -0.00137823 0.0013706)
(0.0945767 -0.0013319 0.00128312)
(0.0939367 -0.00125996 0.00122635)
(0.0933165 -0.001169 0.00118714)
(0.0927156 -0.00107082 0.00116178)
(0.0921274 -0.000974538 0.00114591)
(0.0915487 -0.00088168 0.00113702)
(0.0909799 -0.000788475 0.00113143)
(0.0904226 -0.000687221 0.00112345)
(0.0898779 -0.000560401 0.00110617)
(0.0893415 -0.000383193 0.00107049)
(0.0888203 -0.000123212 0.00101533)
(0.0882923 0.000257099 0.000931255)
(0.099413 -0.000345248 0.00027023)
(0.0988664 -0.00201913 0.00187488)
(0.0979215 -0.00257332 0.00218891)
(0.0963661 -0.00238018 0.0019082)
(0.0946338 -0.00211465 0.00162635)
(0.092973 -0.00192765 0.00141802)
(0.0913656 -0.00180296 0.00127008)
(0.0898566 -0.00170799 0.0011581)
(0.0884593 -0.00160919 0.00106674)
(0.0871661 -0.00150167 0.000993071)
(0.0859706 -0.00139587 0.000941792)
(0.0848595 -0.00129949 0.000909322)
(0.0838167 -0.00121364 0.000889982)
(0.0828319 -0.00113544 0.000877683)
(0.0819034 -0.00106131 0.00086662)
(0.0810398 -0.000985119 0.000848666)
(0.0802644 -0.000890909 0.000807249)
(0.0796194 -0.000737583 0.000709329)
(0.0791943 -0.00047499 0.000553571)
(0.0782632 0.000217266 6.01055e-06)
(0.0999088 -0.00129701 0.000712554)
(0.0969668 -0.00365597 0.00274722)
(0.0935345 -0.00264035 0.00211807)
(0.0895891 -0.0018207 0.00162047)
(0.0858318 -0.00152929 0.00139038)
(0.0825895 -0.00135209 0.00116072)
(0.0798643 -0.00118079 0.000896373)
(0.0775655 -0.00104307 0.000690941)
(0.0755554 -0.000947191 0.000558476)
(0.0737472 -0.000873187 0.000476461)
(0.0720947 -0.00080611 0.00042651)
(0.0705688 -0.000741767 0.000394848)
(0.0691513 -0.000685628 0.000372631)
(0.0678268 -0.000643918 0.000359728)
(0.0665867 -0.000617915 0.000350616)
(0.0654307 -0.000607284 0.000331943)
(0.0644001 -0.000603444 0.000269674)
(0.063596 -0.000582328 0.000114355)
(0.0633467 -0.000596767 -5.51156e-05)
(0.0610574 -0.000224919 -0.000660781)
(0.0956456 0.00836005 -0.00836005)
(0.0904939 -0.00152206 0.001522)
(0.0790682 -0.00242981 0.0024297)
(0.071301 -0.00148787 0.00148763)
(0.0661791 -0.000830667 0.000830248)
(0.0623221 -0.000563995 0.000563317)
(0.05922 -0.000426932 0.000425548)
(0.0566836 -0.000324909 0.000322595)
(0.0545477 -0.000254654 0.000250852)
(0.052694 -0.000205289 0.000199003)
(0.0510535 -0.00017088 0.000160255)
(0.0495875 -0.000147936 0.000130294)
(0.0482639 -0.000132932 0.000103996)
(0.0470545 -0.000124003 7.8347e-05)
(0.0459479 -0.000122235 4.80859e-05)
(0.0449379 -0.000130245 9.13972e-06)
(0.0440368 -0.000154748 -2.93611e-05)
(0.0432888 -0.000201501 -0.000135303)
(0.043038 -0.000242273 -0.000390908)
(0.041455 0.000816781 -0.00206611)
(0.0999088 0.000712554 0.00129701)
(0.0969668 0.00274722 0.00365597)
(0.0935345 0.00211807 0.00264036)
(0.0895891 0.00162047 0.00182071)
(0.0858318 0.00139037 0.0015293)
(0.0825895 0.00116071 0.0013521)
(0.0798643 0.000896366 0.0011808)
(0.0775656 0.000690933 0.00104308)
(0.0755554 0.000558468 0.000947212)
(0.0737472 0.000476452 0.000873211)
(0.0720947 0.000426498 0.00080614)
(0.0705689 0.000394835 0.000741803)
(0.0691513 0.000372615 0.000685675)
(0.0678268 0.000359729 0.000643999)
(0.0665867 0.000350599 0.00061804)
(0.0654306 0.000331903 0.000607507)
(0.0643999 0.000269608 0.000603854)
(0.0635957 0.000114275 0.000583038)
(0.0633459 -5.51094e-05 0.000598199)
(0.0610554 -0.000659928 0.000226851)
(0.100226 0.000720807 0.000720832)
(0.09996 0.00198272 0.00198281)
(0.0997822 0.00245181 0.00245203)
(0.0987879 0.00241956 0.00241995)
(0.0972751 0.00220069 0.00220131)
(0.095774 0.00181114 0.00181223)
(0.0943915 0.0013818 0.00138357)
(0.0931616 0.00106911 0.00107208)
(0.0920731 0.000852183 0.000857246)
(0.0911084 0.000698485 0.000707224)
(0.0902517 0.00058356 0.000599218)
(0.08948 0.000494432 0.000520589)
(0.0887717 0.000424133 0.000466428)
(0.0881194 0.000365711 0.000429797)
(0.0875199 0.000304148 0.00040696)
(0.086971 0.000227063 0.000399598)
(0.0864637 0.000110609 0.000411225)
(0.0859707 -7.52144e-05 0.000441372)
(0.085448 -0.000449908 0.000426571)
(0.0850957 -0.0013062 0.00013901)
(0.10014 0.000775019 0.000869276)
(0.100454 0.00196242 0.00196367)
(0.100911 0.00242757 0.00233473)
(0.100978 0.00252663 0.00244158)
(0.100693 0.00242627 0.00233718)
(0.100223 0.00219748 0.00211297)
(0.099707 0.00191673 0.00182398)
(0.0991804 0.001666 0.00157677)
(0.0986835 0.00146314 0.00139191)
(0.0982324 0.00129648 0.00125358)
(0.0978329 0.00115873 0.00115277)
(0.0974801 0.00104419 0.0010826)
(0.0971679 0.000947532 0.00103573)
(0.0968898 0.000861014 0.00100585)
(0.0966364 0.000778983 0.000992119)
(0.0963962 0.0006959 0.000996326)
(0.0961498 0.00060507 0.00102345)
(0.0958702 0.000498303 0.00108076)
(0.0955042 0.000361113 0.00115697)
(0.0954404 0.00022312 0.00121766)
(0.100093 0.000445948 0.000763215)
(0.100504 0.00119456 0.00174906)
(0.101105 0.00158694 0.00212965)
(0.101634 0.00174068 0.00223492)
(0.101979 0.00178269 0.00228741)
(0.102171 0.00172972 0.00223632)
(0.102251 0.00160929 0.00211645)
(0.102274 0.00146233 0.00196539)
(0.102275 0.00130848 0.00180329)
(0.102266 0.00116245 0.00165453)
(0.102256 0.00103843 0.00154708)
(0.102249 0.000935083 0.00147264)
(0.102244 0.000846857 0.00142248)
(0.10224 0.000771423 0.00139231)
(0.102235 0.000708059 0.00138021)
(0.102219 0.000655548 0.00138638)
(0.102184 0.000614558 0.00141397)
(0.102118 0.000588725 0.00146881)
(0.102016 0.000586166 0.00154902)
(0.102192 0.000616549 0.00163395)
(0.100087 0.000144424 0.000707028)
(0.100477 0.000390605 0.00161781)
(0.101066 0.000541307 0.00203468)
(0.101694 0.00061048 0.00211764)
(0.102269 0.000636578 0.00215011)
(0.102742 0.000627751 0.00217959)
(0.103124 0.000596299 0.00213375)
(0.103428 0.000551698 0.00204371)
(0.10368 0.000507822 0.00193403)
(0.103899 0.000467804 0.00182763)
(0.104096 0.000429229 0.00172875)
(0.104286 0.000393793 0.00164145)
(0.104467 0.000365625 0.00158017)
(0.104636 0.000345818 0.0015473)
(0.10479 0.000335727 0.00153548)
(0.104926 0.000338497 0.00153792)
(0.105043 0.000359117 0.00155252)
(0.105138 0.000403218 0.0015807)
(0.105215 0.000474131 0.0016195)
(0.105465 0.000565872 0.00166595)
(0.100087 -0.000144378 0.000707022)
(0.100477 -0.00039047 0.0016178)
(0.101066 -0.000541074 0.00203467)
(0.101695 -0.000610079 0.00211759)
(0.102269 -0.000635862 0.00214992)
(0.102743 -0.000626525 0.00217924)
(0.103125 -0.000594309 0.00213322)
(0.10343 -0.000548466 0.0020429)
(0.103683 -0.000502414 0.00193282)
(0.103903 -0.000458471 0.00182571)
(0.104103 -0.000413306 0.00172564)
(0.104296 -0.000367516 0.00163618)
(0.104485 -0.000323423 0.00157101)
(0.104666 -0.000279826 0.00153214)
(0.104837 -0.000232622 0.00151113)
(0.105 -0.000177315 0.00150014)
(0.105155 -0.000108007 0.00149478)
(0.1053 -1.80846e-05 0.00149436)
(0.105443 9.66318e-05 0.00149566)
(0.105688 0.000233668 0.00148753)
(0.100093 -0.000445942 0.000763203)
(0.100504 -0.00119454 0.00174903)
(0.101105 -0.0015869 0.00212955)
(0.101635 -0.00174057 0.0022346)
(0.101979 -0.00178251 0.00228681)
(0.102172 -0.00172944 0.00223546)
(0.102253 -0.00160878 0.00211515)
(0.102278 -0.00146143 0.00196339)
(0.102281 -0.00130702 0.00180029)
(0.102276 -0.00115959 0.00164971)
(0.102272 -0.00103333 0.00153876)
(0.102276 -0.00092706 0.00145869)
(0.10229 -0.000834304 0.0013993)
(0.102316 -0.000752242 0.001354)
(0.102354 -0.000675526 0.00131727)
(0.102405 -0.000597561 0.00128356)
(0.10247 -0.000512757 0.00124676)
(0.102545 -0.000412853 0.00120005)
(0.102636 -0.000286293 0.00113732)
(0.102771 -0.000109345 0.00102099)
(0.10014 -0.000775044 0.000869245)
(0.100454 -0.00196249 0.00196355)
(0.100911 -0.00242771 0.00233446)
(0.100978 -0.00252689 0.00244113)
(0.100694 -0.00242673 0.00233651)
(0.100224 -0.00219826 0.00211205)
(0.0997087 -0.00191796 0.00182253)
(0.0991833 -0.00166785 0.00157422)
(0.0986885 -0.00146626 0.00138759)
(0.0982412 -0.00130191 0.00124635)
(0.0978482 -0.00116767 0.00114068)
(0.097506 -0.00105902 0.0010625)
(0.097211 -0.000972101 0.00100236)
(0.0969596 -0.00090324 0.000950611)
(0.0967496 -0.000848332 0.000900565)
(0.0965805 -0.000803325 0.000842982)
(0.0964497 -0.000761368 0.00076169)
(0.0963511 -0.000715959 0.000633488)
(0.0962662 -0.000647214 0.000432851)
(0.096183 -0.000480446 7.65261e-05)
(0.100226 -0.000720832 0.000720808)
(0.09996 -0.00198281 0.00198272)
(0.0997822 -0.00245203 0.00245181)
(0.0987879 -0.00241995 0.00241956)
(0.0972751 -0.00220131 0.0022007)
(0.095774 -0.00181223 0.00181115)
(0.0943915 -0.00138357 0.00138181)
(0.0931616 -0.00107208 0.00106912)
(0.0920731 -0.000857245 0.000852195)
(0.0911084 -0.000707222 0.000698498)
(0.0902517 -0.000599214 0.000583572)
(0.08948 -0.000520574 0.000494433)
(0.0887718 -0.00046638 0.000424102)
(0.0881195 -0.000429798 0.000365729)
(0.08752 -0.000406965 0.000304222)
(0.0869712 -0.000399459 0.000227061)
(0.0864641 -0.000410919 0.00011056)
(0.0859714 -0.000440787 -7.53215e-05)
(0.0854494 -0.000425564 -0.000450195)
(0.0850982 -0.000137772 -0.00130636)
(0.0999088 -0.000712563 0.00129699)
(0.0969668 -0.00274727 0.00365586)
(0.0935344 -0.00211818 0.00264018)
(0.0895889 -0.00162069 0.0018204)
(0.0858314 -0.00139068 0.0015287)
(0.0825888 -0.00116129 0.00135115)
(0.0798631 -0.000897349 0.00117904)
(0.0775633 -0.000692487 0.00104005)
(0.0755514 -0.000561033 0.000942032)
(0.0737403 -0.000480749 0.000864367)
(0.0720825 -0.000434703 0.000790981)
(0.0705472 -0.00040898 0.00071654)
(0.0691124 -0.000395511 0.000644403)
(0.0677594 -0.000387578 0.0005771)
(0.0664704 -0.000386848 0.000507666)
(0.0652248 -0.000393971 0.000422502)
(0.0640177 -0.000403329 0.000289933)
(0.0628283 -0.000404775 8.50611e-05)
(0.061667 -0.000375497 -0.000285324)
(0.0604696 -0.00088467 -0.000772276)
(0.099413 0.000270229 0.000345248)
(0.0988664 0.00187487 0.00201913)
(0.0979215 0.00218891 0.00257333)
(0.0963661 0.00190819 0.00238019)
(0.0946338 0.00162634 0.00211465)
(0.092973 0.00141801 0.00192766)
(0.0913656 0.00127007 0.00180296)
(0.0898567 0.0011581 0.00170799)
(0.0884593 0.00106673 0.0016092)
(0.0871661 0.000993061 0.00150168)
(0.0859706 0.00094178 0.00139588)
(0.0848595 0.000909305 0.00129949)
(0.0838167 0.000889951 0.00121364)
(0.0828319 0.000877646 0.00113547)
(0.0819035 0.000866578 0.0010614)
(0.08104 0.000848593 0.000985268)
(0.0802647 0.00080709 0.000891151)
(0.0796201 0.000709087 0.000738044)
(0.0791958 0.00055329 0.000475809)
(0.0782639 6.30527e-06 -0.000213121)
(0.10014 0.000869245 0.000775045)
(0.100454 0.00196355 0.0019625)
(0.100911 0.00233446 0.00242771)
(0.100978 0.00244113 0.0025269)
(0.100694 0.0023365 0.00242673)
(0.100224 0.00211204 0.00219826)
(0.0997087 0.00182252 0.00191796)
(0.0991834 0.00157422 0.00166785)
(0.0986885 0.00138758 0.00146625)
(0.0982412 0.00124635 0.00130191)
(0.0978482 0.00114068 0.00116767)
(0.097506 0.0010625 0.00105902)
(0.097211 0.00100234 0.000972088)
(0.0969596 0.000950596 0.000903234)
(0.0967496 0.000900581 0.000848363)
(0.0965804 0.000843019 0.000803417)
(0.0964497 0.000761755 0.000761558)
(0.096351 0.000633541 0.000716254)
(0.0962662 0.00043326 0.000647868)
(0.0961828 7.8759e-05 0.000482529)
(0.10006 0.000641402 0.000641443)
(0.100501 0.00164508 0.0016452)
(0.101149 0.00221248 0.00221271)
(0.101738 0.00244009 0.00244048)
(0.102204 0.00244206 0.00244268)
(0.102501 0.00231361 0.00231459)
(0.102644 0.00209263 0.00209425)
(0.102713 0.00186911 0.00187172)
(0.102738 0.00167108 0.00167537)
(0.10275 0.0015046 0.00151167)
(0.102767 0.00136588 0.00137747)
(0.102797 0.00125027 0.00126921)
(0.102844 0.00115322 0.00118408)
(0.10291 0.00106936 0.00111964)
(0.102993 0.000992788 0.00107435)
(0.103092 0.000917317 0.0010484)
(0.103201 0.000835638 0.00104395)
(0.103315 0.000738554 0.0010645)
(0.103434 0.000615281 0.00110024)
(0.10368 0.000477211 0.001124)
(0.100046 0.00039574 0.000540283)
(0.10048 0.00104493 0.00138421)
(0.101154 0.0014755 0.00192317)
(0.101913 0.00170549 0.00219288)
(0.102631 0.00178048 0.00229454)
(0.103301 0.00174543 0.00227897)
(0.103893 0.00163511 0.00218665)
(0.104388 0.00149297 0.00205411)
(0.104815 0.00134731 0.00190736)
(0.105191 0.00121343 0.00176931)
(0.105531 0.0010962 0.0016491)
(0.105848 0.000996016 0.00154895)
(0.10615 0.000910103 0.00146962)
(0.106443 0.000835523 0.00141084)
(0.10673 0.000770375 0.0013721)
(0.107011 0.000714105 0.00135364)
(0.107285 0.000664406 0.00135722)
(0.107551 0.000619412 0.00138457)
(0.107828 0.000575607 0.00142722)
(0.108234 0.000535349 0.00146586)
(0.100039 0.000131365 0.000478787)
(0.100448 0.000350584 0.00123483)
(0.101114 0.000505235 0.00174655)
(0.101909 0.000597451 0.00202691)
(0.102729 0.000639011 0.00215221)
(0.103529 0.000638941 0.00218653)
(0.104298 0.000605655 0.0021533)
(0.105007 0.000561085 0.00207935)
(0.105643 0.000513089 0.00198063)
(0.106216 0.000466795 0.00187331)
(0.106738 0.000425288 0.00176913)
(0.107218 0.000389654 0.00167571)
(0.107667 0.000359982 0.00159872)
(0.108093 0.000336113 0.00154111)
(0.108504 0.000318352 0.00150262)
(0.108903 0.000308073 0.0014818)
(0.109289 0.000306184 0.00147588)
(0.109663 0.000315077 0.00148439)
(0.110042 0.000334289 0.00150243)
(0.11051 0.000355155 0.0015192)
(0.100039 -0.000131336 0.000478773)
(0.100448 -0.000350508 0.00123479)
(0.101114 -0.000505102 0.00174648)
(0.101909 -0.000597231 0.00202678)
(0.102729 -0.000638644 0.00215196)
(0.10353 -0.000638349 0.00218613)
(0.104299 -0.000604664 0.0021527)
(0.105009 -0.000559492 0.00207843)
(0.105645 -0.000510469 0.0019792)
(0.106219 -0.00046242 0.00187102)
(0.106742 -0.000418057 0.00176537)
(0.107225 -0.000378016 0.00166947)
(0.107678 -0.000341772 0.0015884)
(0.108109 -0.000308214 0.00152435)
(0.108528 -0.000275696 0.00147596)
(0.108939 -0.00024253 0.00144045)
(0.109343 -0.000206216 0.00141418)
(0.109745 -0.000163349 0.00139475)
(0.110157 -0.000109961 0.00137828)
(0.110619 -5.02002e-05 0.00135726)
(0.100046 -0.000395752 0.000540246)
(0.10048 -0.00104497 0.00138411)
(0.101154 -0.00147555 0.00192298)
(0.101913 -0.00170556 0.00219254)
(0.102632 -0.00178061 0.00229397)
(0.103301 -0.00174566 0.00227804)
(0.103894 -0.0016355 0.00218519)
(0.10439 -0.00149358 0.00205173)
(0.104818 -0.00134827 0.00190366)
(0.105195 -0.00121478 0.00176349)
(0.105538 -0.00109809 0.00163974)
(0.10586 -0.000998956 0.00153365)
(0.106169 -0.000914983 0.00144465)
(0.106473 -0.000844007 0.00136996)
(0.106777 -0.000784233 0.00130613)
(0.107083 -0.000734766 0.00124912)
(0.107396 -0.000694016 0.00119437)
(0.107719 -0.000659665 0.00113716)
(0.108062 -0.000624992 0.0010729)
(0.108447 -0.000575529 0.000997941)
(0.10006 -0.000641442 0.000641402)
(0.100501 -0.0016452 0.00164508)
(0.101149 -0.00221271 0.00221248)
(0.101738 -0.00244049 0.0024401)
(0.102204 -0.00244269 0.00244206)
(0.102501 -0.0023146 0.00231361)
(0.102644 -0.00209426 0.00209263)
(0.102713 -0.00187173 0.00186911)
(0.102738 -0.00167538 0.00167108)
(0.10275 -0.00151169 0.00150459)
(0.102767 -0.00137749 0.00136587)
(0.102797 -0.00126923 0.00125024)
(0.102844 -0.0011841 0.00115318)
(0.10291 -0.00111968 0.0010693)
(0.102993 -0.00107439 0.0009927)
(0.103092 -0.00104839 0.000917139)
(0.103201 -0.00104386 0.000835339)
(0.103315 -0.00106437 0.000738086)
(0.103434 -0.00110023 0.000614579)
(0.103679 -0.00112485 0.000476674)
(0.10014 -0.000869275 0.000775019)
(0.100454 -0.00196367 0.00196243)
(0.100911 -0.00233473 0.00242758)
(0.100978 -0.00244158 0.00252663)
(0.100693 -0.00233718 0.00242628)
(0.100223 -0.00211297 0.00219748)
(0.099707 -0.00182398 0.00191674)
(0.0991804 -0.00157677 0.00166601)
(0.0986835 -0.00139192 0.00146314)
(0.0982324 -0.00125359 0.00129648)
(0.0978329 -0.00115278 0.00115872)
(0.0974801 -0.00108261 0.00104417)
(0.0971679 -0.00103572 0.000947474)
(0.0968898 -0.00100586 0.000860956)
(0.0966365 -0.000992113 0.000778902)
(0.0963963 -0.000996221 0.000695718)
(0.09615 -0.0010232 0.000604748)
(0.0958706 -0.00108028 0.000497757)
(0.0955048 -0.0011562 0.000360257)
(0.095441 -0.00121702 0.000222262)
(0.099413 -0.000270235 0.000345234)
(0.0988664 -0.00187492 0.00201907)
(0.0979213 -0.00218903 0.00257321)
(0.0963656 -0.00190842 0.00237999)
(0.0946329 -0.00162666 0.00211435)
(0.0929714 -0.00141847 0.00192715)
(0.0913627 -0.00127083 0.00180223)
(0.0898516 -0.00115938 0.00170682)
(0.0884506 -0.0010688 0.00160727)
(0.0871514 -0.000996455 0.00149852)
(0.0859457 -0.000947151 0.00139072)
(0.0848175 -0.000918454 0.00129129)
(0.083746 -0.000905688 0.0012012)
(0.0827129 -0.000904555 0.00111787)
(0.0817022 -0.000912872 0.00103874)
(0.0806965 -0.000930922 0.00096141)
(0.0796712 -0.000962242 0.000883188)
(0.078566 -0.00101099 0.000798006)
(0.0772893 -0.00111166 0.000737391)
(0.0759976 -0.00167323 0.000944962)
(0.0995405 0.0003219 0.000245038)
(0.0992576 0.00154093 0.0010556)
(0.098849 0.00211442 0.00150232)
(0.0981251 0.00209154 0.00157939)
(0.0973376 0.00188596 0.00151469)
(0.0965864 0.00166555 0.00144616)
(0.095868 0.00149745 0.00140968)
(0.0952022 0.00137059 0.00137823)
(0.0945767 0.00128312 0.0013319)
(0.0939367 0.00122634 0.00125996)
(0.0933165 0.00118714 0.00116899)
(0.0927157 0.00116177 0.00107081)
(0.0921275 0.00114589 0.00097453)
(0.0915488 0.00113697 0.000881676)
(0.0909801 0.00113132 0.000788467)
(0.090423 0.00112327 0.000687198)
(0.0898785 0.00110582 0.000560315)
(0.0893426 0.00106982 0.000383033)
(0.0888223 0.00101421 0.000122886)
(0.0882951 0.000929713 -0.000257599)
(0.100093 0.000763203 0.000445942)
(0.100504 0.00174903 0.00119454)
(0.101105 0.00212954 0.0015869)
(0.101635 0.00223459 0.00174057)
(0.101979 0.0022868 0.0017825)
(0.102172 0.00223546 0.00172944)
(0.102253 0.00211515 0.00160877)
(0.102278 0.00196339 0.00146142)
(0.102281 0.00180028 0.00130701)
(0.102276 0.00164971 0.00115957)
(0.102272 0.00153876 0.00103331)
(0.102276 0.00145868 0.000927039)
(0.10229 0.00139927 0.000834272)
(0.102316 0.00135397 0.000752217)
(0.102354 0.00131724 0.000675513)
(0.102405 0.00128347 0.000597542)
(0.10247 0.0012466 0.000512733)
(0.102545 0.00119981 0.000412841)
(0.102636 0.00113736 0.000286546)
(0.10277 0.00102469 0.000112018)
(0.100046 0.000540246 0.000395752)
(0.10048 0.00138411 0.00104497)
(0.101154 0.00192297 0.00147555)
(0.101913 0.00219254 0.00170556)
(0.102632 0.00229396 0.0017806)
(0.103301 0.00227803 0.00174565)
(0.103894 0.00218519 0.00163549)
(0.10439 0.00205173 0.00149356)
(0.104818 0.00190366 0.00134825)
(0.105195 0.00176349 0.00121475)
(0.105538 0.00163975 0.00109806)
(0.10586 0.00153366 0.000998919)
(0.106169 0.00144466 0.000914937)
(0.106473 0.00136999 0.000843946)
(0.106777 0.00130619 0.000784158)
(0.107083 0.00124922 0.000734674)
(0.107395 0.00119454 0.000693894)
(0.107718 0.00113746 0.000659479)
(0.108061 0.0010735 0.000624677)
(0.108447 0.000999255 0.000574967)
(0.100036 0.000323151 0.000323176)
(0.100429 0.000868698 0.000868769)
(0.10108 0.00126243 0.00126256)
(0.101891 0.00150443 0.00150464)
(0.102756 0.00162166 0.001622)
(0.103616 0.00164283 0.00164336)
(0.104446 0.00160473 0.00160553)
(0.105223 0.00152639 0.00152764)
(0.105937 0.00142681 0.00142877)
(0.106592 0.00132183 0.00132491)
(0.107195 0.00122181 0.00122671)
(0.107756 0.00113161 0.00113942)
(0.108284 0.00105257 0.00106498)
(0.108787 0.000984166 0.00100381)
(0.10927 0.000925031 0.000955769)
(0.10974 0.000873366 0.000920553)
(0.110202 0.000827035 0.00089741)
(0.11066 0.000783695 0.000884506)
(0.111128 0.000737951 0.000878069)
(0.111651 0.000692437 0.000868808)
(0.100031 0.000107091 0.000281397)
(0.100395 0.000293086 0.000768674)
(0.101024 0.000434149 0.00113315)
(0.101844 0.000526343 0.00136933)
(0.102751 0.000576527 0.00150162)
(0.103689 0.000592005 0.00155447)
(0.104618 0.00058272 0.00154952)
(0.105516 0.000558287 0.00150867)
(0.106367 0.000524936 0.00144516)
(0.107163 0.000488201 0.00136925)
(0.107905 0.000452343 0.00128964)
(0.108597 0.000419716 0.001213)
(0.109245 0.000391241 0.00114394)
(0.109857 0.000366924 0.00108508)
(0.110441 0.000346291 0.00103788)
(0.111004 0.000328551 0.00100331)
(0.111551 0.000313416 0.000980025)
(0.112087 0.000300247 0.000965104)
(0.112626 0.000287554 0.000954595)
(0.11321 0.000273714 0.000941842)
(0.100031 -0.00010709 0.000281384)
(0.100395 -0.000293084 0.000768639)
(0.101024 -0.000434148 0.00113308)
(0.101844 -0.000526341 0.00136921)
(0.102751 -0.000576526 0.00150143)
(0.103689 -0.000592007 0.00155417)
(0.104618 -0.000582722 0.0015491)
(0.105516 -0.000558247 0.00150804)
(0.106367 -0.000524795 0.00144418)
(0.107164 -0.000487887 0.0013677)
(0.107906 -0.000451791 0.00128719)
(0.108599 -0.000418895 0.00120914)
(0.109247 -0.000390205 0.00113788)
(0.109861 -0.000365816 0.00107567)
(0.110446 -0.000345189 0.00102335)
(0.111011 -0.000327081 0.000981035)
(0.111561 -0.000310601 0.000946889)
(0.112101 -0.000294737 0.000917378)
(0.112643 -0.000278246 0.000888841)
(0.113223 -0.000263295 0.000861534)
(0.100036 -0.000323177 0.000323151)
(0.100429 -0.00086877 0.000868699)
(0.10108 -0.00126256 0.00126244)
(0.101891 -0.00150465 0.00150443)
(0.102756 -0.00162201 0.00162166)
(0.103616 -0.00164338 0.00164284)
(0.104446 -0.00160555 0.00160474)
(0.105223 -0.00152766 0.00152639)
(0.105937 -0.0014288 0.00142681)
(0.106592 -0.00132495 0.00132182)
(0.107195 -0.00122675 0.0012218)
(0.107756 -0.00113947 0.00113159)
(0.108284 -0.00106505 0.00105254)
(0.108787 -0.00100391 0.000984127)
(0.10927 -0.000955903 0.000924965)
(0.10974 -0.000920734 0.000873257)
(0.110202 -0.000897672 0.000826856)
(0.11066 -0.000884907 0.000783429)
(0.111127 -0.00087872 0.000737592)
(0.11165 -0.000869937 0.000691951)
(0.100046 -0.000540282 0.000395741)
(0.10048 -0.00138421 0.00104494)
(0.101154 -0.00192317 0.0014755)
(0.101913 -0.00219289 0.00170549)
(0.102631 -0.00229455 0.00178048)
(0.103301 -0.00227897 0.00174544)
(0.103893 -0.00218666 0.00163511)
(0.104388 -0.00205412 0.00149297)
(0.104815 -0.00190738 0.0013473)
(0.105191 -0.00176933 0.00121342)
(0.105531 -0.00164913 0.00109618)
(0.105848 -0.00154898 0.000995983)
(0.10615 -0.00146965 0.000910052)
(0.106443 -0.0014109 0.000835455)
(0.10673 -0.00137216 0.000770272)
(0.107011 -0.00135368 0.000713928)
(0.107284 -0.00135724 0.000664134)
(0.10755 -0.00138459 0.000619031)
(0.107826 -0.00142738 0.000575159)
(0.108232 -0.00146644 0.000535086)
(0.100093 -0.000763214 0.000445948)
(0.100504 -0.00174906 0.00119456)
(0.101105 -0.00212965 0.00158695)
(0.101634 -0.00223492 0.00174068)
(0.101979 -0.00228741 0.00178269)
(0.102171 -0.00223632 0.00172972)
(0.102251 -0.00211645 0.00160929)
(0.102274 -0.0019654 0.00146233)
(0.102275 -0.0018033 0.00130847)
(0.102266 -0.00165454 0.00116244)
(0.102256 -0.0015471 0.00103841)
(0.102249 -0.00147266 0.00093505)
(0.102244 -0.00142249 0.000846795)
(0.10224 -0.00139229 0.000771332)
(0.102235 -0.00138016 0.000707927)
(0.102219 -0.00138625 0.00065533)
(0.102184 -0.00141367 0.000614211)
(0.102118 -0.00146826 0.000588162)
(0.102015 -0.00154815 0.00058523)
(0.10219 -0.00163282 0.000615316)
(0.0995405 -0.000321902 0.00024505)
(0.0992576 -0.00154094 0.00105566)
(0.0988489 -0.00211449 0.00150244)
(0.0981247 -0.00209167 0.0015796)
(0.0973367 -0.00188615 0.00151512)
(0.0965847 -0.00166583 0.00144696)
(0.0958651 -0.00149781 0.00141105)
(0.0951972 -0.00137122 0.0013805)
(0.0945682 -0.00128437 0.00133582)
(0.0939223 -0.00122902 0.00126628)
(0.0932925 -0.00119245 0.00117897)
(0.0926758 -0.00117089 0.00108705)
(0.0920618 -0.00116118 0.00100162)
(0.0914413 -0.00116103 0.00092841)
(0.0908057 -0.00116998 0.00086961)
(0.0901438 -0.00118823 0.000827601)
(0.0894411 -0.00121821 0.000807728)
(0.0886774 -0.00126732 0.000821921)
(0.0877856 -0.00134979 0.000890964)
(0.0868656 -0.00155749 0.00124681)
(0.0993802 5.89621e-05 3.3762e-05)
(0.0992678 0.00120004 0.000274316)
(0.0989805 0.00188845 0.00043221)
(0.098475 0.00200634 0.000483162)
(0.0979962 0.00191437 0.000478302)
(0.0975723 0.00173421 0.000464526)
(0.0971836 0.00154643 0.000451053)
(0.0968355 0.00138713 0.000439226)
(0.0965382 0.00126761 0.000430908)
(0.0962882 0.00119544 0.00041958)
(0.0960214 0.00116579 0.000396892)
(0.0957397 0.00116029 0.000364266)
(0.0954439 0.00116415 0.000325393)
(0.0951264 0.00117156 0.000280879)
(0.0947837 0.00118131 0.000228064)
(0.0944155 0.00119396 0.000163917)
(0.0940218 0.00120927 7.90889e-05)
(0.0936016 0.00122606 -3.67769e-05)
(0.0931455 0.00124398 -0.000185619)
(0.0926413 0.00128924 -0.000371103)
(0.100087 0.000707022 0.000144378)
(0.100477 0.0016178 0.000390471)
(0.101066 0.00203466 0.000541073)
(0.101695 0.00211758 0.000610076)
(0.102269 0.00214992 0.000635857)
(0.102743 0.00217924 0.000626518)
(0.103125 0.00213322 0.000594299)
(0.10343 0.0020429 0.000548452)
(0.103683 0.00193282 0.000502395)
(0.103903 0.00182571 0.000458446)
(0.104103 0.00172564 0.000413277)
(0.104296 0.00163617 0.00036748)
(0.104485 0.001571 0.000323382)
(0.104666 0.00153212 0.000279782)
(0.104837 0.00151109 0.000232577)
(0.105 0.00150007 0.000177264)
(0.105155 0.00149466 0.000107954)
(0.1053 0.00149419 1.80612e-05)
(0.105443 0.00149556 -9.6491e-05)
(0.105688 0.00148814 -0.000232971)
(0.100039 0.000478772 0.000131336)
(0.100448 0.00123479 0.000350507)