/*--------------------------------*- C++ -*----------------------------------*\
| =========                 |                                                 |
| \\      /  F ield         | OpenFOAM: The Open Source CFD Toolbox           |
|  \\    /   O peration     | Version:  2212                                  |
|   \\  /    A nd           | Website:  www.openfoam.com                      |
|    \\/     M anipulation  |                                                 |
\*---------------------------------------------------------------------------*/
FoamFile
{
    version     2.0;
    format      ascii;
    arch        "LSB;label=32;scalar=64";
    class       surfaceVectorField;
    location    "1.8";
    object      Uf;
}
// * * * * * * * * * * * * * * * * * * * * * * * * * * * * * * * * * * * * * //

dimensions      [0 1 -1 0 0 0 0];

internalField   nonuniform List<vector> 
19019
(
(0.0993441 -0.00341903 -0.00341899)
(0.0973536 0.00106247 -0.00148428)
(0.0973536 -0.00148428 0.00106248)
(0.0834791 0.00197585 0.00197594)
(0.0930872 0.00326895 0.00253351)
(0.0930872 0.00253346 0.00326905)
(0.074517 0.00195866 0.00195885)
(0.0848639 0.00163576 0.00179243)
(0.084864 0.00179233 0.00163594)
(0.0685475 0.00115893 0.00115927)
(0.0786279 0.00107338 0.00122154)
(0.0786279 0.00122132 0.0010737)
(0.0642356 0.000696776 0.000697337)
(0.0740526 0.000785088 0.000865382)
(0.0740528 0.000865047 0.000785672)
(0.0607559 0.000494425 0.00049547)
(0.0704417 0.000650139 0.000669768)
(0.070442 0.000669203 0.000651069)
(0.057936 0.000374062 0.000375928)
(0.0674904 0.000545926 0.000509489)
(0.0674909 0.000508396 0.000547715)
(0.0556118 0.000286714 0.000289789)
(0.0650488 0.000467475 0.00038899)
(0.0650497 0.00038723 0.000470537)
(0.053621 0.000224917 0.00022998)
(0.0629626 0.000412863 0.000310356)
(0.0629642 0.000307507 0.000418032)
(0.0518737 0.000179617 0.000188095)
(0.061126 0.00036867 0.000259109)
(0.0611287 0.000254424 0.000377395)
(0.0503195 0.00014526 0.000159419)
(0.0594785 0.000327723 0.000226854)
(0.0594834 0.000218531 0.000342489)
(0.0489244 0.000117134 0.000140451)
(0.0579847 0.000288116 0.000207569)
(0.0579934 0.000193591 0.000312736)
(0.0476592 9.11564e-05 0.000128486)
(0.0566166 0.000249827 0.000196899)
(0.0566322 0.000174407 0.000290644)
(0.0465013 6.31819e-05 0.000123143)
(0.0553496 0.000210806 0.000190307)
(0.0553767 0.000159407 0.000278093)
(0.0454413 2.85674e-05 0.000126305)
(0.0541699 0.000163949 0.000188462)
(0.0542165 0.000143467 0.000276702)
(0.0444847 -1.01742e-05 0.000142634)
(0.0530654 0.000100436 0.000192634)
(0.053148 0.000119851 0.000289686)
(0.0436463 -8.24412e-05 0.00017836)
(0.0520414 1.29875e-05 0.000204583)
(0.0521949 8.24618e-05 0.000321236)
(0.0430299 -0.00026324 0.000222317)
(0.0511163 -0.000149494 0.000223441)
(0.0514242 -1.18291e-05 0.000394914)
(0.0429359 -0.00122846 -0.000286354)
(0.0504998 -0.000520045 0.000196166)
(0.0511733 -0.000157965 0.000553978)
(0.0490691 -0.00215415 -0.000488047)
(0.0493057 -0.00131754 -8.08277e-05)
(0.0984572 0.00247643 0.00172992)
(0.0996871 0.000439227 0.000345488)
(0.100049 0.00105638 0.000750983)
(0.0958347 0.00314802 0.00243273)
(0.0978161 0.00273277 0.00228232)
(0.0982936 0.00280919 0.00216154)
(0.0914497 0.00223028 0.00186943)
(0.0954958 0.00300169 0.0023032)
(0.0963038 0.00244256 0.00199794)
(0.0875947 0.00167454 0.00150568)
(0.0926188 0.00229934 0.00183894)
(0.0936665 0.00198059 0.00172725)
(0.0841466 0.00143992 0.00127598)
(0.0897665 0.00189185 0.00153587)
(0.090904 0.00171947 0.00149827)
(0.0811861 0.00126509 0.00102932)
(0.0872309 0.00165638 0.00129496)
(0.0884334 0.00145407 0.00121248)
(0.0786985 0.00110953 0.000794916)
(0.0850046 0.00149179 0.0010777)
(0.086303 0.00118258 0.000909936)
(0.0765519 0.000991024 0.000626755)
(0.0830574 0.0013712 0.000914177)
(0.0844775 0.000981518 0.000692904)
(0.0746429 0.000903181 0.000520884)
(0.0813186 0.00127796 0.000803135)
(0.0828749 0.00084265 0.000552365)
(0.0729094 0.000827653 0.000457716)
(0.0797364 0.00119291 0.000728947)
(0.081439 0.000740073 0.000461836)
(0.0713133 0.000753739 0.000421832)
(0.0782807 0.00110989 0.000683696)
(0.0801363 0.000654621 0.000403245)
(0.0698294 0.000680452 0.000402233)
(0.0769274 0.00102901 0.000658495)
(0.0789394 0.000578221 0.000364766)
(0.0684368 0.000610739 0.000391532)
(0.075655 0.000951259 0.000646276)
(0.0778267 0.000510575 0.000341896)
(0.0671163 0.000542373 0.000387222)
(0.0744451 0.000877492 0.000641669)
(0.0767843 0.000450917 0.000329947)
(0.0658495 0.000465057 0.000390441)
(0.0732803 0.0008043 0.00064524)
(0.0758008 0.000389299 0.000329618)
(0.064619 0.000356163 0.000398707)
(0.0721418 0.000724763 0.000658097)
(0.0748639 0.000313584 0.000344153)
(0.0634245 0.000187419 0.000404167)
(0.0710157 0.000623136 0.000679924)
(0.0739669 0.000197808 0.000377258)
(0.0622686 -0.000100211 0.000390415)
(0.0698634 0.000473113 0.000703138)
(0.0730858 1.38934e-05 0.000420907)
(0.0611491 -0.00052874 0.000630714)
(0.0686495 0.000233485 0.000729134)
(0.072207 -0.000349285 0.000419597)
(0.0674078 0.000190118 0.00131426)
(0.0713829 -0.000980221 0.000621887)
(0.0993753 0.00118215 0.00107258)
(0.099473 0.000349768 0.000307063)
(0.0997475 0.000610982 0.000779889)
(0.0984947 0.00229614 0.00203198)
(0.0990504 0.00157687 0.00172049)
(0.099597 0.00201833 0.00200293)
(0.097141 0.0024766 0.00204873)
(0.0983576 0.00213126 0.00216894)
(0.0992971 0.00246159 0.00210254)
(0.0954389 0.00224717 0.00176754)
(0.097193 0.00203606 0.0020025)
(0.0984879 0.00237456 0.00190282)
(0.0937497 0.00202075 0.00152257)
(0.0959046 0.00185613 0.00175444)
(0.0974215 0.00218099 0.00168896)
(0.0921363 0.00186469 0.00134465)
(0.0946709 0.00173361 0.00154266)
(0.0963083 0.00198486 0.00150852)
(0.0905984 0.00175453 0.00121511)
(0.0934804 0.0016543 0.00138634)
(0.0952023 0.00180193 0.00134298)
(0.089146 0.00165705 0.00111409)
(0.0923659 0.00157943 0.00126534)
(0.0941442 0.00164527 0.00120422)
(0.0877952 0.0015529 0.00103262)
(0.091328 0.00148575 0.00117168)
(0.0931592 0.0015058 0.00109649)
(0.0865459 0.00144463 0.000971793)
(0.0903361 0.00137814 0.00110313)
(0.0922502 0.00137656 0.00101496)
(0.0853813 0.00134102 0.000932788)
(0.0894013 0.00127133 0.00105771)
(0.0914155 0.0012599 0.000958863)
(0.0842822 0.00124627 0.000912052)
(0.0885137 0.00117007 0.00103107)
(0.0906441 0.00115723 0.000923857)
(0.0832301 0.00115959 0.00090512)
(0.0876573 0.00107808 0.00101874)
(0.0899219 0.00106692 0.00090502)
(0.0822088 0.00107842 0.000908756)
(0.0868183 0.00099728 0.00101756)
(0.0892362 0.000984371 0.000898332)
(0.0812019 0.00100026 0.000921982)
(0.0859839 0.000927202 0.00102608)
(0.0885739 0.00090585 0.000903087)
(0.0801885 0.000922557 0.000946724)
(0.0851398 0.000867399 0.00104448)
(0.0879204 0.000827571 0.000920525)
(0.0791327 0.000841009 0.000986895)
(0.084266 0.000819308 0.00107589)
(0.0872533 0.000745125 0.000955205)
(0.0779686 0.00076845 0.00106187)
(0.083321 0.000791135 0.00112747)
(0.0865278 0.000651301 0.00101205)
(0.0765449 0.00084253 0.00139354)
(0.0822247 0.00083263 0.00122983)
(0.0856696 0.000557264 0.00110702)
(0.0811064 0.00122186 0.00165273)
(0.084942 0.000614399 0.00146666)
(0.0996493 0.000650354 0.000931422)
(0.0994625 0.000129407 0.00019253)
(0.0997993 0.000375145 0.00074136)
(0.0990854 0.00127905 0.00182772)
(0.0992625 0.000636995 0.00137065)
(0.0998409 0.00115046 0.00181422)
(0.0984491 0.00154102 0.00210308)
(0.0989129 0.000973636 0.00200358)
(0.0999047 0.00153666 0.00209016)
(0.0977074 0.00154736 0.00198891)
(0.098295 0.0010504 0.00205063)
(0.0997672 0.001632 0.00202305)
(0.096939 0.00148104 0.00177599)
(0.0976573 0.00100812 0.00189957)
(0.0995091 0.00161014 0.00189568)
(0.0962071 0.00142901 0.00158182)
(0.0970647 0.000961179 0.00169819)
(0.0991989 0.00154859 0.0017516)
(0.0955212 0.00139578 0.00143451)
(0.0965058 0.000935139 0.00152043)
(0.0988538 0.00147643 0.00162562)
(0.0948709 0.00135817 0.00132779)
(0.0959931 0.000919943 0.00137865)
(0.0985093 0.00139599 0.00151467)
(0.0942349 0.00130107 0.00125669)
(0.0955247 0.00090765 0.00127767)
(0.0981751 0.00130469 0.00141896)
(0.0936057 0.00122265 0.00121072)
(0.0950703 0.000878239 0.00121559)
(0.0978272 0.00120309 0.00134194)
(0.0929853 0.00113304 0.00118166)
(0.0946153 0.000825733 0.00118286)
(0.0974873 0.00110132 0.00128824)
(0.09237 0.00104439 0.00116602)
(0.0941585 0.000766729 0.0011697)
(0.097156 0.00100595 0.00125306)
(0.0917526 0.000965105 0.00116111)
(0.0936945 0.000713726 0.00116795)
(0.0968269 0.000920568 0.00123236)
(0.091125 0.000899165 0.00116556)
(0.0932137 0.000671479 0.00117393)
(0.0964952 0.000847365 0.0012242)
(0.0904771 0.000848842 0.00117922)
(0.0927083 0.000642593 0.00118714)
(0.0961544 0.000787181 0.00122753)
(0.0897957 0.000818017 0.00120343)
(0.0921711 0.000631371 0.00120843)
(0.095795 0.000740728 0.00124266)
(0.0890614 0.000815359 0.00124317)
(0.0915932 0.000645648 0.00124009)
(0.0954045 0.000711235 0.00127269)
(0.0882473 0.000857235 0.00130929)
(0.0909648 0.0006982 0.00128679)
(0.0949671 0.000706633 0.00132355)
(0.0873509 0.00107023 0.00145502)
(0.0902333 0.000802836 0.00135188)
(0.0944448 0.000740924 0.00139692)
(0.0894476 0.00110576 0.0014938)
(0.0940371 0.000943141 0.00153735)
(0.0996725 0.000154124 0.000629538)
(0.0993802 1.57104e-08 5.89854e-05)
(0.0997132 0.000103949 0.000687954)
(0.0991591 0.000353483 0.00154427)
(0.0992677 7.31849e-08 0.00120005)
(0.0998377 0.000341747 0.00162232)
(0.0986637 0.000458089 0.00194743)
(0.0989805 1.60974e-07 0.00188846)
(0.0999631 0.000485672 0.00199138)
(0.0982125 0.000481417 0.00196043)
(0.0984749 2.77387e-07 0.00200636)
(0.099992 0.000539961 0.00199655)
(0.0977769 0.000472582 0.00182445)
(0.0979961 4.62625e-07 0.00191443)
(0.100009 0.000546953 0.0019108)
(0.0973639 0.000459797 0.00164058)
(0.0975719 7.82318e-07 0.00173431)
(0.100008 0.000534405 0.00180381)
(0.0969968 0.000448542 0.00146719)
(0.097183 1.33321e-06 0.00154658)
(0.0999824 0.000512969 0.00168204)
(0.0966779 0.000440764 0.00132811)
(0.0968345 2.22867e-06 0.00138739)
(0.0999411 0.000487483 0.00157114)
(0.0964001 0.000434718 0.00123284)
(0.0965364 3.71162e-06 0.00126809)
(0.0999021 0.000465169 0.00147888)
(0.0961387 0.000423876 0.00118282)
(0.0962853 6.13332e-06 0.00119628)
(0.0998716 0.0004441 0.00141424)
(0.0958669 0.000406221 0.00116661)
(0.0960167 1.00666e-05 0.00116716)
(0.0998217 0.000419095 0.00137285)
(0.0955736 0.000386661 0.00116802)
(0.0957319 1.64483e-05 0.0011625)
(0.0997588 0.00039246 0.00134362)
(0.0952536 0.000371164 0.0011774)
(0.0954312 2.6787e-05 0.00116776)
(0.0996827 0.000369642 0.00132595)
(0.0949025 0.000364683 0.00119208)
(0.0951057 4.34599e-05 0.00117752)
(0.0995861 0.000354098 0.00132054)
(0.0945159 0.000372569 0.00121266)
(0.0947505 6.99806e-05 0.00119105)
(0.0994641 0.000348996 0.00132575)
(0.0940902 0.000402214 0.00124082)
(0.0943636 0.000110637 0.00120936)
(0.0993138 0.000359128 0.00134039)
(0.0936214 0.000463147 0.00127818)
(0.0939438 0.000173722 0.00123328)
(0.0991332 0.000391421 0.0013645)
(0.0931076 0.000564334 0.0013214)
(0.0934909 0.000268304 0.00126291)
(0.0989214 0.000453943 0.0013979)
(0.0925622 0.000746205 0.0013789)
(0.0929818 0.000395094 0.00129409)
(0.0986607 0.000551906 0.0014288)
(0.0924082 0.00059234 0.00135227)
(0.0984384 0.000721456 0.00147253)
(0.0996725 -0.000154039 0.000629499)
(0.0994625 -0.000129376 0.000192508)
(0.0997132 -0.000103914 0.000687951)
(0.0991592 -0.000353261 0.00154424)
(0.0992626 -0.000636879 0.00137062)
(0.0998377 -0.000341608 0.0016223)
(0.0986638 -0.000457683 0.0019474)
(0.098913 -0.000973417 0.00200353)
(0.0999632 -0.000485404 0.00199138)
(0.0982128 -0.000480729 0.00196036)
(0.0982953 -0.00105003 0.00205055)
(0.0999921 -0.000539502 0.00199652)
(0.0977774 -0.000471411 0.00182429)
(0.097658 -0.00100747 0.00189942)
(0.10001 -0.00054616 0.00191069)
(0.0973648 -0.000457788 0.00164032)
(0.0970659 -0.000960021 0.00169794)
(0.100009 -0.000533047 0.00180357)
(0.0969984 -0.000445139 0.00146678)
(0.0965079 -0.000933122 0.00152009)
(0.0999835 -0.000510692 0.00168169)
(0.0966806 -0.000435069 0.00132737)
(0.0959967 -0.000916538 0.00137806)
(0.099943 -0.000483708 0.00157056)
(0.0964046 -0.000425249 0.00123153)
(0.0955308 -0.000901867 0.00127653)
(0.0999052 -0.000458859 0.00147791)
(0.0961461 -0.000408245 0.00118062)
(0.0950805 -0.000868716 0.00121335)
(0.0998766 -0.000433464 0.00141263)
(0.0958792 -0.000380593 0.00116304)
(0.0946322 -0.00081028 0.00117871)
(0.0998298 -0.00040133 0.00137031)
(0.0955937 -0.000344847 0.00116223)
(0.0941865 -0.000741503 0.00116272)
(0.099772 -0.000363295 0.00133947)
(0.0952865 -0.000303162 0.00116788)
(0.0937406 -0.000672422 0.00115637)
(0.0997043 -0.000322417 0.00131895)
(0.0949556 -0.000254515 0.0011765)
(0.0932889 -0.000603233 0.00115544)
(0.0996217 -0.000278576 0.00130876)
(0.0945999 -0.000196063 0.00118775)
(0.09283 -0.000529755 0.00115734)
(0.0995212 -0.000228556 0.00130653)
(0.0942191 -0.000121627 0.00120182)
(0.0923647 -0.000446503 0.00115942)
(0.0994032 -0.000168709 0.00131015)
(0.0938119 -2.1384e-05 0.00121801)
(0.0918934 -0.000341203 0.00115817)
(0.0992682 -9.13116e-05 0.00131722)
(0.0933751 0.00011078 0.00123561)
(0.0914134 -0.000200047 0.00114881)
(0.0991143 1.22655e-05 0.00132582)
(0.0929039 0.000277513 0.00126746)
(0.0909237 -1.34956e-05 0.00113158)
(0.0989401 0.000145184 0.00133092)
(0.0904073 0.000242416 0.00111394)
(0.098789 0.000307945 0.00134338)
(0.0996493 -0.000650318 0.000931416)
(0.099473 -0.000349771 0.000307059)
(0.0997993 -0.000375137 0.000741359)
(0.0990855 -0.00127896 0.00182768)
(0.0990504 -0.00157688 0.00172046)
(0.0998409 -0.00115042 0.00181421)
(0.0984494 -0.00154085 0.00210298)
(0.0983578 -0.00213127 0.00216883)
(0.0999048 -0.00153658 0.0020901)
(0.097708 -0.00154704 0.00198876)
(0.0971934 -0.00203607 0.00200233)
(0.0997676 -0.00163184 0.00202287)
(0.0969403 -0.00148043 0.00177576)
(0.0959055 -0.00185608 0.00175419)
(0.09951 -0.00160983 0.00189535)
(0.0962094 -0.00142792 0.00158151)
(0.0946726 -0.00173345 0.00154228)
(0.0992005 -0.00154804 0.00175111)
(0.0955251 -0.00139395 0.00143403)
(0.0934834 -0.00165398 0.00138576)
(0.0988564 -0.00147547 0.0016249)
(0.0948775 -0.00135506 0.00132686)
(0.092371 -0.00157892 0.00126436)
(0.0985138 -0.00139437 0.00151348)
(0.0942461 -0.00129593 0.00125474)
(0.0913367 -0.00148485 0.00116999)
(0.0981824 -0.00130193 0.00141701)
(0.0936246 -0.00121448 0.00120675)
(0.0903507 -0.00137667 0.00110005)
(0.0978393 -0.00119844 0.00133865)
(0.0930167 -0.00111991 0.00117446)
(0.0894258 -0.00126895 0.00105229)
(0.0975077 -0.00109378 0.00128247)
(0.0924219 -0.00102268 0.00115385)
(0.0885547 -0.00116593 0.00102176)
(0.09719 -0.000993828 0.00124341)
(0.0918378 -0.000928109 0.00114147)
(0.0877257 -0.0010703 0.00100287)
(0.0968834 -0.00090068 0.00121592)
(0.0912635 -0.000835078 0.00113423)
(0.0869319 -0.000981552 0.000991292)
(0.0965877 -0.000813981 0.00119653)
(0.0907004 -0.000737848 0.00112744)
(0.0861726 -0.000894835 0.000981924)
(0.0963029 -0.000729331 0.00118131)
(0.0901503 -0.000623811 0.00111481)
(0.0854531 -0.000800612 0.00096715)
(0.0960305 -0.000639679 0.00116544)
(0.0896132 -0.000471797 0.00108833)
(0.0847862 -0.00067773 0.000933853)
(0.0957711 -0.000533155 0.00114276)
(0.0890802 -0.000253202 0.00104291)
(0.0841922 -0.000490882 0.000859803)
(0.0955206 -0.000392738 0.00110554)
(0.0885343 6.69439e-05 0.000973294)
(0.083722 -0.000210399 0.000746727)
(0.0952861 -0.000195875 0.00105084)
(0.0829805 0.000300557 0.000425551)
(0.0950681 8.76761e-05 0.000961027)
(0.0993753 -0.00118219 0.00107255)
(0.0996871 -0.000439247 0.000345484)
(0.0997475 -0.000611001 0.000779873)
(0.0984948 -0.00229622 0.00203189)
(0.0978161 -0.00273287 0.00228227)
(0.0995971 -0.0020184 0.00200286)
(0.0971413 -0.00247675 0.00204855)
(0.0954959 -0.00300185 0.00230308)
(0.0992973 -0.00246172 0.00210236)
(0.0954395 -0.00224742 0.00176727)
(0.0926191 -0.00229961 0.00183872)
(0.0984883 -0.00237479 0.0019025)
(0.0937509 -0.00202115 0.00152218)
(0.0897671 -0.00189233 0.00153557)
(0.0974223 -0.00218137 0.00168849)
(0.0921386 -0.0018653 0.00134405)
(0.087232 -0.00165718 0.00129447)
(0.0963096 -0.00198549 0.00150784)
(0.0906023 -0.00175547 0.00121409)
(0.0850066 -0.00149317 0.00107686)
(0.0952046 -0.00180289 0.00134189)
(0.0891528 -0.00165859 0.00111242)
(0.0830609 -0.00137349 0.000912789)
(0.0941482 -0.00164675 0.00120237)
(0.0878066 -0.00155543 0.0010299)
(0.0813247 -0.00128178 0.000800844)
(0.0931662 -0.00150829 0.00109345)
(0.0865653 -0.00144877 0.000967431)
(0.0797468 -0.00119938 0.000725141)
(0.0922622 -0.0013808 0.00100996)
(0.085414 -0.00134768 0.000925557)
(0.0782986 -0.00112099 0.000676946)
(0.091436 -0.00126682 0.000950546)
(0.0843373 -0.00125656 0.000899652)
(0.0769582 -0.00104731 0.000646879)
(0.0906787 -0.0011685 0.00090977)
(0.0833227 -0.00117454 0.000883833)
(0.0757082 -0.000980336 0.000626906)
(0.0899799 -0.0010849 0.000881139)
(0.0823647 -0.00109837 0.000872151)
(0.0745355 -0.000921776 0.000614064)
(0.0893326 -0.00101319 0.000858212)
(0.0814667 -0.00102322 0.000857643)
(0.0734348 -0.000872364 0.000603338)
(0.0887347 -0.000949681 0.000835328)
(0.0806447 -0.000938014 0.000827957)
(0.0724095 -0.000830687 0.000584307)
(0.0881907 -0.000888995 0.000803117)
(0.0799343 -0.000814246 0.000758289)
(0.071493 -0.000785368 0.000530941)
(0.0877119 -0.000818723 0.00074299)
(0.0793796 -0.000606287 0.00063145)
(0.0707601 -0.000682086 0.000392254)
(0.0873184 -0.000712477 0.000622263)
(0.0790248 -0.000128862 0.000279791)
(0.0704322 -0.000457426 0.000183775)
(0.0870498 -0.000533662 0.000427202)
(0.0687501 0.000233735 -0.000464876)
(0.0865089 -8.01098e-05 -4.30184e-05)
(0.0984572 -0.00247649 0.00172989)
(0.0973536 -0.00106248 -0.00148428)
(0.100049 -0.00105639 0.000750965)
(0.0958348 -0.00314816 0.00243265)
(0.0930872 -0.00326904 0.00253346)
(0.0982936 -0.00280927 0.00216144)
(0.0914499 -0.00223053 0.00186927)
(0.084864 -0.00163594 0.00179233)
(0.0963039 -0.00244276 0.00199776)
(0.087595 -0.001675 0.00150542)
(0.0786279 -0.00107369 0.00122133)
(0.0936666 -0.00198092 0.00172693)
(0.0841472 -0.00144069 0.00127555)
(0.0740528 -0.000785665 0.000865053)
(0.0909042 -0.00172005 0.00149776)
(0.0811871 -0.00126644 0.00102855)
(0.070442 -0.000651062 0.00066921)
(0.0884338 -0.00145503 0.00121157)
(0.0787001 -0.00111193 0.000793657)
(0.0674909 -0.000547706 0.000508404)
(0.0863037 -0.00118425 0.000908418)
(0.0765549 -0.000995129 0.000624708)
(0.0650497 -0.000470527 0.00038724)
(0.0844788 -0.000984375 0.000690393)
(0.0746482 -0.000910189 0.000517468)
(0.0629642 -0.00041802 0.000307517)
(0.0828771 -0.000847528 0.000548124)
(0.0729186 -0.000839648 0.000451485)
(0.0611287 -0.000377382 0.000254435)
(0.0814428 -0.000748437 0.000454574)
(0.0713296 -0.000773939 0.000410679)
(0.0594834 -0.000342474 0.000218546)
(0.0801431 -0.00066925 0.000390003)
(0.0698584 -0.000713697 0.00038374)
(0.0579934 -0.000312721 0.000193609)
(0.0789515 -0.000602568 0.000342261)
(0.0684884 -0.000664773 0.000366179)
(0.0566322 -0.000290623 0.000174423)
(0.0778484 -0.000549952 0.000304972)
(0.0672052 -0.000630917 0.000355172)
(0.0553767 -0.000278069 0.00015943)
(0.0768219 -0.0005122 0.000275873)
(0.0660042 -0.0006126 0.000341279)
(0.0542166 -0.000276654 0.000143514)
(0.0758657 -0.000488278 0.000245125)
(0.0648988 -0.000605364 0.000300808)
(0.0531481 -0.000289558 0.000119905)
(0.0749789 -0.000478343 0.000198905)
(0.0639547 -0.000592886 0.000192014)
(0.0521951 -0.000320987 8.25505e-05)
(0.0741803 -0.000478785 0.000106721)
(0.0633583 -0.000589547 2.96195e-05)
(0.0514247 -0.00039448 -1.17009e-05)
(0.0735143 -0.00047413 -7.65737e-05)
(0.0634868 -0.000410843 -0.000357948)
(0.0511744 -0.000553114 -0.000157858)
(0.0731441 -0.000433191 -0.000436355)
(0.0493085 8.28611e-05 -0.00131834)
(0.0717139 0.000221012 -0.00190433)
(0.0993441 0.00341899 -0.00341902)
(0.0973536 0.00148428 0.00106247)
(0.0834791 -0.00197594 0.00197585)
(0.0930872 -0.0025335 0.00326895)
(0.074517 -0.00195884 0.00195866)
(0.0848639 -0.00179243 0.00163576)
(0.0685475 -0.00115927 0.00115894)
(0.0786279 -0.00122153 0.00107339)
(0.0642356 -0.000697331 0.000696783)
(0.0740526 -0.000865378 0.000785094)
(0.0607559 -0.000495463 0.000494432)
(0.0704417 -0.000669763 0.000650145)
(0.057936 -0.000375921 0.000374071)
(0.0674904 -0.000509483 0.000545933)
(0.0556118 -0.000289782 0.000286724)
(0.0650488 -0.000388985 0.000467483)
(0.053621 -0.000229971 0.000224927)
(0.0629626 -0.000310352 0.000412873)
(0.0518737 -0.000188084 0.000179629)
(0.061126 -0.000259104 0.000368681)
(0.0503195 -0.000159408 0.000145275)
(0.0594785 -0.000226849 0.000327735)
(0.0489244 -0.000140434 0.000117145)
(0.0579847 -0.000207561 0.000288126)
(0.0476593 -0.000128467 9.11713e-05)
(0.0566166 -0.00019689 0.000249834)
(0.0465014 -0.000123119 6.32164e-05)
(0.0553497 -0.000190299 0.000210821)
(0.0454414 -0.00012624 2.86128e-05)
(0.05417 -0.000188435 0.000163987)
(0.0444849 -0.000142496 -1.01107e-05)
(0.0530656 -0.000192576 0.000100504)
(0.0436468 -0.000178125 -8.23322e-05)
(0.0520419 -0.000204473 1.31106e-05)
(0.0430307 -0.000221887 -0.000263106)
(0.0511171 -0.000223267 -0.000149271)
(0.0429378 0.000287254 -0.00122851)
(0.0505015 -0.000195795 -0.00051971)
(0.049073 0.00048893 -0.00215404)
(0.0984572 0.00172989 0.00247649)
(0.100049 0.000750965 0.00105639)
(0.0996871 0.000345484 0.000439247)
(0.0958348 0.00243264 0.00314817)
(0.0982936 0.00216144 0.00280928)
(0.0978161 0.00228227 0.00273287)
(0.0914499 0.00186927 0.00223054)
(0.0963039 0.00199776 0.00244276)
(0.0954959 0.00230308 0.00300186)
(0.087595 0.00150542 0.00167501)
(0.0936666 0.00172692 0.00198093)
(0.0926191 0.00183872 0.00229961)
(0.0841472 0.00127554 0.0014407)
(0.0909042 0.00149776 0.00172006)
(0.0897672 0.00153556 0.00189234)
(0.0811871 0.00102854 0.00126645)
(0.0884338 0.00121157 0.00145504)
(0.087232 0.00129446 0.00165718)
(0.0787002 0.00079365 0.00111194)
(0.0863037 0.000908413 0.00118426)
(0.0850066 0.00107685 0.00149317)
(0.0765549 0.000624701 0.000995148)
(0.0844788 0.000690389 0.000984387)
(0.0830609 0.000912779 0.00137349)
(0.0746482 0.00051746 0.000910211)
(0.0828771 0.00054812 0.000847542)
(0.0813247 0.000800833 0.00128179)
(0.0729187 0.000451475 0.000839675)
(0.0814428 0.00045457 0.000748455)
(0.0797468 0.000725128 0.00119938)
(0.0713297 0.000410667 0.000773971)
(0.0801431 0.00039 0.000669272)
(0.0782986 0.000676928 0.00112099)
(0.0698584 0.000383725 0.000713739)
(0.0789515 0.000342264 0.000602599)
(0.0769582 0.000646855 0.00104731)
(0.0684884 0.000366172 0.000664837)
(0.0778484 0.000304991 0.000550005)
(0.0757082 0.000626873 0.000980333)
(0.0672052 0.000355164 0.000631019)
(0.0768219 0.000275879 0.00051225)
(0.0745356 0.000614039 0.000921811)
(0.0660041 0.000341251 0.000612773)
(0.0758657 0.000245085 0.000488346)
(0.0734348 0.000603305 0.000872461)
(0.0648986 0.000300755 0.000605681)
(0.0749787 0.00019886 0.000478518)
(0.0724096 0.000584244 0.000830855)
(0.0639544 0.000191942 0.000593446)
(0.07418 0.00010665 0.000479124)
(0.0714931 0.000530825 0.000785683)
(0.0633577 2.95828e-05 0.000590618)
(0.0735137 -7.66847e-05 0.000474736)
(0.0707602 0.000392108 0.000682701)
(0.0634853 -0.000357519 0.000412525)
(0.073143 -0.00043642 0.000434351)
(0.0704324 0.000183722 0.000458762)
(0.0717116 -0.00190427 -0.000219594)
(0.0687493 -0.000463584 -0.000229056)
(0.10008 0.00135176 0.00135182)
(0.100186 0.00079876 0.000804973)
(0.100186 0.000804946 0.000798788)
(0.100264 0.00221726 0.00221742)
(0.100189 0.00231186 0.00207157)
(0.10019 0.00207146 0.00231196)
(0.0993826 0.00243568 0.00243599)
(0.100306 0.00263371 0.00245328)
(0.100306 0.00245303 0.0026339)
(0.0979836 0.00231012 0.00231063)
(0.0998046 0.0025604 0.00245627)
(0.0998047 0.00245586 0.00256075)
(0.0964942 0.00200592 0.00200677)
(0.0988621 0.00236443 0.00228141)
(0.0988623 0.00228077 0.00236499)
(0.0950713 0.00159647 0.0015979)
(0.0978397 0.00204899 0.00196872)
(0.0978401 0.00196772 0.00204998)
(0.0937731 0.00122546 0.00122782)
(0.0968593 0.00169118 0.00160564)
(0.0968601 0.00160404 0.00169278)
(0.092614 0.000960647 0.000964661)
(0.095956 0.0014045 0.00132319)
(0.0959573 0.00132048 0.00140714)
(0.0915877 0.000775334 0.000782235)
(0.0951421 0.00119137 0.00112149)
(0.0951444 0.00111687 0.0011959)
(0.0906779 0.000641023 0.000653221)
(0.0944159 0.00103116 0.000976755)
(0.0944199 0.000968896 0.00103899)
(0.089864 0.000538996 0.000559904)
(0.0937714 0.000907099 0.000872513)
(0.0937785 0.00085878 0.00092057)
(0.0891247 0.000459283 0.000493508)
(0.0931942 0.000808372 0.000798444)
(0.0932062 0.000775526 0.000830758)
(0.0884452 0.000394922 0.000448112)
(0.0926698 0.000727163 0.000748049)
(0.0926898 0.000710616 0.000763737)
(0.0878193 0.000334929 0.000418378)
(0.0921912 0.000655454 0.000714485)
(0.0922237 0.000655796 0.000713888)
(0.0872445 0.000265606 0.000403279)
(0.0917524 0.000582845 0.000695429)
(0.0918049 0.000600118 0.000677992)
(0.0867173 0.000168836 0.000405411)
(0.0913468 0.0004998 0.000692523)
(0.0914323 0.000532716 0.000655326)
(0.0862259 1.76972e-05 0.000426299)
(0.0909606 0.000388998 0.000709543)
(0.0910999 0.000433094 0.000643838)
(0.0857283 -0.000262561 0.000433972)
(0.0905667 0.000233504 0.000750464)
(0.0907899 0.000275128 0.000642806)
(0.0851222 -0.000878052 0.000282791)
(0.0901168 -1.21726e-05 0.000783325)
(0.0904706 -1.17448e-05 0.000626868)
(0.0898984 -0.000465445 0.000677499)
(0.0902431 -0.000616113 0.000461775)
(0.100171 0.00136872 0.00141648)
(0.100118 0.000577429 0.00081132)
(0.100102 0.000699773 0.000700723)
(0.100758 0.002195 0.0021492)
(0.100478 0.00158295 0.00185882)
(0.100477 0.00182259 0.00186477)
(0.100996 0.0024771 0.00238816)
(0.101004 0.00205894 0.00224264)
(0.101024 0.00234689 0.00238319)
(0.100837 0.00247645 0.00238938)
(0.101292 0.00220379 0.00235226)
(0.101337 0.00250612 0.00254407)
(0.100456 0.00231188 0.00222507)
(0.101308 0.00216783 0.00232225)
(0.101408 0.00245073 0.00247278)
(0.0999656 0.00205711 0.00196847)
(0.101155 0.00201156 0.00217879)
(0.1013 0.00226484 0.00227107)
(0.0994399 0.00179137 0.00170037)
(0.100924 0.00179496 0.00196846)
(0.101096 0.0020094 0.00199963)
(0.0989276 0.00156457 0.00148434)
(0.100661 0.00158557 0.00176576)
(0.100851 0.00177062 0.00175944)
(0.0984547 0.00137981 0.00132275)
(0.100402 0.00139858 0.00159044)
(0.100601 0.00156956 0.0015667)
(0.0980311 0.0012276 0.00120317)
(0.100162 0.00123423 0.00144576)
(0.100369 0.00140262 0.00141457)
(0.0976557 0.00110146 0.00111769)
(0.0999492 0.00109631 0.00134056)
(0.100166 0.00126413 0.00129652)
(0.0973234 0.000995863 0.00105916)
(0.0997619 0.000981612 0.00126736)
(0.0999945 0.00114888 0.00120731)
(0.0970285 0.000904273 0.00102079)
(0.0995966 0.000885274 0.00121824)
(0.0998523 0.00105195 0.00114192)
(0.0967633 0.000819999 0.000998985)
(0.0994498 0.000802195 0.00118789)
(0.0997368 0.000966765 0.00109608)
(0.0965172 0.000737442 0.000994222)
(0.099315 0.00072812 0.00117476)
(0.0996428 0.000887562 0.00106866)
(0.0962758 0.000650485 0.00100989)
(0.0991823 0.000659391 0.00117986)
(0.0995628 0.000808597 0.00106122)
(0.0960161 0.000551686 0.0010521)
(0.0990369 0.000593941 0.00120748)
(0.0994845 0.000723079 0.00107837)
(0.0957026 0.000429708 0.00111887)
(0.0988595 0.000532045 0.00126472)
(0.0993913 0.000622802 0.00112794)
(0.095287 0.000292116 0.00118732)
(0.0986199 0.000471571 0.00134505)
(0.0992546 0.000495526 0.00120182)
(0.0986707 0.000441196 0.0014222)
(0.0993373 0.000368101 0.00129853)
(0.100242 0.000820252 0.00125614)
(0.10009 0.000294381 0.00073536)
(0.100071 0.000415711 0.000602796)
(0.100828 0.00139075 0.00193936)
(0.100491 0.000792122 0.00168403)
(0.100492 0.00112453 0.00158704)
(0.101392 0.00166381 0.00218228)
(0.101086 0.00107797 0.00208341)
(0.101128 0.00154106 0.00209418)
(0.101816 0.00176168 0.00226116)
(0.101664 0.00120475 0.002179)
(0.101767 0.0017331 0.00229432)
(0.10208 0.00175621 0.00226186)
(0.102121 0.00124042 0.00222181)
(0.10229 0.00179051 0.0023673)
(0.102213 0.00166951 0.00217639)
(0.102451 0.00120305 0.00220966)
(0.10271 0.00174479 0.00232187)
(0.102263 0.00153581 0.00204092)
(0.102679 0.00112023 0.00212554)
(0.103035 0.00162765 0.0022019)
(0.102272 0.00138541 0.00188434)
(0.102839 0.00102033 0.0020041)
(0.103284 0.00148177 0.00204919)
(0.102268 0.00123546 0.00172891)
(0.102964 0.000921511 0.00186777)
(0.103488 0.00133127 0.00188961)
(0.10226 0.00110044 0.0016008)
(0.103066 0.000830277 0.00174001)
(0.103662 0.00119091 0.00174488)
(0.102252 0.000986757 0.00150986)
(0.103157 0.000750359 0.00163695)
(0.103819 0.00107014 0.00163141)
(0.102246 0.00089097 0.00144756)
(0.103247 0.000681744 0.00155634)
(0.103967 0.000968364 0.00154516)
(0.102242 0.00080914 0.0014074)
(0.103333 0.000623489 0.00150078)
(0.104109 0.000881316 0.00148171)
(0.102238 0.000739741 0.00138626)
(0.103414 0.000575088 0.00146927)
(0.104247 0.000806375 0.00143862)
(0.102228 0.000681803 0.0013833)
(0.103486 0.000537687 0.00145729)
(0.104381 0.000742301 0.00141503)
(0.102203 0.000635053 0.00140018)
(0.103545 0.000512861 0.00146169)
(0.104507 0.000688246 0.00141159)
(0.102154 0.000601642 0.00144139)
(0.103584 0.000503717 0.00148306)
(0.104619 0.000643543 0.00143154)
(0.102069 0.000587446 0.00150891)
(0.103597 0.000514827 0.00152508)
(0.104712 0.000609338 0.00147995)
(0.101936 0.000601358 0.00159148)
(0.103583 0.00055164 0.0015853)
(0.104791 0.000588317 0.00155283)
(0.103795 0.00061061 0.00165125)
(0.105077 0.000586868 0.00163199)
(0.100243 0.000267514 0.00116242)
(0.100087 2.52471e-08 0.000707025)
(0.100064 0.000135859 0.000537345)
(0.100782 0.000465956 0.00182624)
(0.100477 7.19883e-08 0.00161781)
(0.100463 0.000371035 0.00142417)
(0.101401 0.000575894 0.00207616)
(0.101066 1.22791e-07 0.00203467)
(0.101089 0.000525431 0.00193361)
(0.101988 0.000623529 0.00213388)
(0.101694 2.16313e-07 0.00211761)
(0.101797 0.000606317 0.00212862)
(0.102507 0.000632165 0.00216485)
(0.102269 3.84844e-07 0.00215002)
(0.102489 0.000640032 0.00221095)
(0.102935 0.000612025 0.00215667)
(0.102742 6.51958e-07 0.00217941)
(0.103119 0.000635353 0.00224145)
(0.103278 0.000573999 0.00208873)
(0.103125 1.05768e-06 0.00213349)
(0.103687 0.000602827 0.00219654)
(0.103555 0.00052976 0.00198887)
(0.103429 1.71143e-06 0.00204331)
(0.104185 0.000557909 0.00210553)
(0.103789 0.000487813 0.00188083)
(0.103682 2.82988e-06 0.00193343)