/*--------------------------------*- C++ -*----------------------------------*\
| =========                 |                                                 |
| \\      /  F ield         | OpenFOAM: The Open Source CFD Toolbox           |
|  \\    /   O peration     | Version:  2212                                  |
|   \\  /    A nd           | Website:  www.openfoam.com                      |
|    \\/     M anipulation  |                                                 |
\*---------------------------------------------------------------------------*/
FoamFile
{
    version     2.0;
    format      ascii;
    arch        "LSB;label=32;scalar=64";
    class       volScalarField;
    location    "2.6";
    object      k;
}
// * * * * * * * * * * * * * * * * * * * * * * * * * * * * * * * * * * * * * //

dimensions      [0 2 -2 0 0 0 0];

internalField   nonuniform List<scalar> 
6840
(
0.213564
0.055916
0.0283994
0.0193412
0.0146928
0.0118511
0.00989075
0.00851617
0.00749151
0.0066966
0.00606102
0.00555165
0.00512424
0.0047476
0.00442978
0.00416413
0.003942
0.00376153
0.00365039
0.00356079
0.264759
0.104702
0.0585298
0.0391631
0.02862
0.0219936
0.0175362
0.0143636
0.0120087
0.0102144
0.00881728
0.00770716
0.00680625
0.00606437
0.00545457
0.00495599
0.00454388
0.00420507
0.00394605
0.00377069
0.283364
0.126774
0.071702
0.0473283
0.0338664
0.0256618
0.0204611
0.0167973
0.014049
0.0119418
0.0102849
0.00895709
0.00788651
0.00701326
0.00629142
0.00568907
0.00518431
0.00476022
0.00440693
0.00413425
0.292299
0.141633
0.0819302
0.0541654
0.0389231
0.0292875
0.0232724
0.0190788
0.0159343
0.0135152
0.0116271
0.0101132
0.00888238
0.00787167
0.00703371
0.0063332
0.00574275
0.00524172
0.00481558
0.00447243
0.295943
0.148782
0.0871941
0.0576749
0.0415194
0.0310722
0.024645
0.0202209
0.0169048
0.0143246
0.0123078
0.0107014
0.0093947
0.00832019
0.0074275
0.00667906
0.00604563
0.00550496
0.0050441
0.00469535
0.295943
0.148782
0.0871941
0.0576749
0.0415193
0.0310721
0.0246448
0.0202207
0.0169045
0.0143241
0.0123071
0.0107004
0.00939332
0.00831826
0.00742471
0.00667466
0.00603874
0.00549426
0.00502668
0.00465764
0.292299
0.141633
0.0819301
0.0541653
0.038923
0.0292873
0.0232721
0.0190783
0.0159336
0.0135142
0.0116257
0.0101112
0.00887954
0.0078677
0.0070279
0.00632422
0.00572882
0.00522007
0.00478368
0.00443845
0.283364
0.126774
0.071702
0.0473282
0.0338662
0.0256616
0.0204608
0.016797
0.0140485
0.0119408
0.0102836
0.0089552
0.00788387
0.00700955
0.00628585
0.00568049
0.00517091
0.00473897
0.00437222
0.00407862
0.264759
0.104702
0.0585298
0.0391631
0.02862
0.0219935
0.0175362
0.0143635
0.0120085
0.0102142
0.00881688
0.00770649
0.00680514
0.00606247
0.00545164
0.00495112
0.00453519
0.00418823
0.00391252
0.00371248
0.213564
0.055916
0.0283994
0.0193412
0.0146928
0.0118511
0.00989075
0.00851616
0.0074915
0.0066966
0.006061
0.00555167
0.00512416
0.00474766
0.00442972
0.00416405
0.0039419
0.00376142
0.00365029
0.00356053
0.264759
0.104702
0.0585298
0.0391631
0.02862
0.0219935
0.0175362
0.0143635
0.0120086
0.0102142
0.00881689
0.00770651
0.0068052
0.00606232
0.00545171
0.00495125
0.00453532
0.00418837
0.0039127
0.00371279
0.311746
0.197541
0.130357
0.0911457
0.0668024
0.0508113
0.0397946
0.0319125
0.0260947
0.0216879
0.0182774
0.0155897
0.0134425
0.0117003
0.0102706
0.00908432
0.00809134
0.0072535
0.00655752
0.00588782
0.31754
0.217754
0.151086
0.108549
0.0807157
0.0618728
0.0486776
0.0391421
0.0320591
0.0266721
0.0224909
0.0191884
0.0165404
0.0143887
0.01262
0.0111527
0.00992516
0.00889002
0.00801424
0.00726858
0.319723
0.227073
0.162232
0.118772
0.0893612
0.0689929
0.0545307
0.0439846
0.0361
0.0300751
0.0253826
0.0216658
0.0186785
0.0162462
0.0142431
0.0125771
0.0111789
0.0099957
0.0089867
0.0081212
0.320484
0.23086
0.167176
0.123531
0.0935159
0.0724825
0.0574406
0.0464211
0.0381535
0.0318168
0.0268702
0.0229457
0.0197865
0.0172106
0.0150861
0.0133164
0.0118278
0.0105644
0.00948277
0.00854665
0.320484
0.23086
0.167176
0.123531
0.0935158
0.0724823
0.0574403
0.0464207
0.038153
0.0318161
0.0268693
0.0229443
0.0197845
0.0172079
0.0150824
0.0133108
0.0118195
0.0105524
0.00946504
0.00850679
0.319723
0.227073
0.162232
0.118772
0.0893609
0.0689925
0.0545302
0.0439839
0.036099
0.0300736
0.0253805
0.0216629
0.0186744
0.0162407
0.0142354
0.0125657
0.011162
0.00997094
0.0089511
0.00806843
0.31754
0.217754
0.151085
0.108549
0.0807155
0.0618725
0.0486772
0.0391415
0.0320583
0.026671
0.0224893
0.0191861
0.0165372
0.0143845
0.012614
0.0111439
0.00991212
0.00887054
0.00798594
0.00723111
0.311746
0.197541
0.130357
0.0911457
0.0668024
0.0508113
0.0397946
0.0319124
0.0260947
0.0216879
0.0182774
0.0155897
0.0134425
0.0117004
0.0102704
0.00908411
0.0080911
0.00725322
0.00655715
0.00588723
0.264759
0.104702
0.0585298
0.0391631
0.02862
0.0219936
0.0175362
0.0143636
0.0120087
0.0102144
0.00881727
0.00770713
0.0068062
0.00606441
0.00545452
0.00495588
0.00454373
0.00420487
0.00394576
0.00377027
0.283364
0.126774
0.071702
0.0473282
0.0338662
0.0256616
0.0204608
0.016797
0.0140485
0.0119408
0.0102836
0.00895519
0.00788382
0.00700946
0.00628596
0.0056806
0.00517101
0.00473905
0.0043723
0.00407878
0.31754
0.217754
0.151085
0.108549
0.0807155
0.0618725
0.0486772
0.0391415
0.0320583
0.026671
0.0224893
0.0191861
0.0165372
0.0143843
0.0126142
0.0111441
0.00991229
0.00887068
0.00798609
0.00723139
0.322005
0.239026
0.177588
0.133616
0.102323
0.0798669
0.0635106
0.0513822
0.0422218
0.0351796
0.029676
0.0253098
0.0217987
0.0189405
0.0165881
0.0146325
0.0129923
0.0116053
0.0104208
0.00937631
0.323293
0.245617
0.187499
0.144537
0.112864
0.089404
0.0718634
0.0585866
0.0483997
0.0404745
0.0342251
0.0292339
0.0252
0.0219039
0.0191834
0.0169174
0.0150136
0.0134008
0.0120213
0.010818
0.323714
0.247819
0.191099
0.14881
0.117249
0.0935707
0.0756573
0.0619605
0.0513626
0.0430611
0.036479
0.0311991
0.0269172
0.0234088
0.0205067
0.018085
0.0160471
0.0143177
0.0128345
0.011531
0.323714
0.247819
0.191099
0.14881
0.117249
0.0935706
0.0756571
0.0619603
0.0513623
0.0430607
0.0364785
0.0311985
0.0269163
0.0234076
0.0205052
0.0180828
0.016044
0.0143135
0.0128287
0.0115212
0.323293
0.245617
0.187499
0.144537
0.112864
0.0894038
0.0718631
0.0585863
0.0483993
0.040474
0.0342243
0.0292327
0.0251984
0.0219019
0.0191806
0.0169134
0.0150081
0.0133931
0.0120093
0.0107873
0.322005
0.239026
0.177588
0.133616
0.102323
0.0798669
0.0635106
0.0513822
0.0422218
0.0351796
0.029676
0.0253098
0.0217987
0.0189405
0.016588
0.0146324
0.0129922
0.0116051
0.0104206
0.00937597
0.31754
0.217754
0.151086
0.108549
0.0807157
0.0618728
0.0486776
0.0391421
0.0320591
0.0266721
0.0224908
0.0191883
0.0165403
0.0143886
0.01262
0.0111527
0.00992506
0.00888984
0.00801392
0.0072681
0.283364
0.126774
0.071702
0.0473283
0.0338664
0.0256618
0.020461
0.0167973
0.014049
0.0119418
0.0102849
0.00895706
0.00788644
0.00701315
0.00629143
0.00568908
0.00518429
0.00476015
0.0044068
0.0041339
0.292299
0.141633
0.0819301
0.0541653
0.038923
0.0292873
0.0232721
0.0190783
0.0159336
0.0135142
0.0116257
0.0101112
0.00887949
0.00786761
0.00702799
0.00632429
0.00572888
0.00522009
0.00478367
0.00443844
0.319723
0.227073
0.162232
0.118772
0.0893609
0.0689925
0.0545302
0.0439839
0.036099
0.0300736
0.0253805
0.0216629
0.0186743
0.0162405
0.0142355
0.0125658
0.011162
0.00997093
0.00895096
0.00806814
0.323293
0.245617
0.187499
0.144537
0.112864
0.0894038
0.0718631
0.0585863
0.0483993
0.040474
0.0342243
0.0292328
0.0251984
0.0219018
0.0191807
0.0169135
0.0150081
0.0133931
0.0120092
0.0107874
0.324288
0.250862
0.19613
0.154888
0.123591
0.09968
0.0812741
0.0669838
0.0557848
0.0469224
0.0398396
0.0341238
0.0294676
0.0256404
0.0224675
0.0198157
0.0175822
0.0156856
0.0140572
0.0126225
0.32459
0.252403
0.19891
0.158543
0.12769
0.103871
0.08532
0.0707498
0.0592099
0.0499926
0.0425683
0.0365382
0.0316004
0.0275248
0.0241351
0.021295
0.018898
0.0168587
0.0151024
0.0135393
0.32459
0.252403
0.19891
0.158543
0.12769
0.103871
0.08532
0.0707498
0.0592098
0.0499925
0.0425682
0.0365381
0.0316002
0.0275245
0.0241348
0.0212946
0.0188974
0.0168581
0.0151025
0.0135459
0.324288
0.250862
0.19613
0.154888
0.123591
0.09968
0.0812741
0.0669838
0.0557848
0.0469224
0.0398396
0.0341238
0.0294676
0.0256404
0.0224675
0.0198157
0.0175822
0.0156855
0.0140571
0.0126223
0.323293
0.245617
0.187499
0.144537
0.112864
0.089404
0.0718634
0.0585866
0.0483997
0.0404745
0.0342251
0.0292339
0.0251999
0.0219038
0.0191834
0.0169173
0.0150135
0.0134007
0.012021
0.0108176
0.319723
0.227073
0.162232
0.118772
0.0893612
0.0689929
0.0545307
0.0439846
0.0361
0.030075
0.0253825
0.0216658
0.0186783
0.016246
0.0142431
0.0125771
0.0111789
0.00999564
0.00898654
0.00812092
0.292299
0.141633
0.0819302
0.0541654
0.0389231
0.0292875
0.0232724
0.0190788
0.0159343
0.0135152
0.0116271
0.0101131
0.0088823
0.00787153
0.00703379
0.00633327
0.0057428
0.00524175
0.00481559
0.00447233
0.295943
0.148782
0.0871941
0.0576749
0.0415193
0.0310721
0.0246448
0.0202207
0.0169045
0.0143241
0.0123071
0.0107004
0.0093933
0.0083182
0.00742468
0.00667463
0.0060387
0.0054942
0.0050266
0.00465752
0.320484
0.23086
0.167176
0.123531
0.0935158
0.0724823
0.0574403
0.0464207
0.038153
0.0318161
0.0268693
0.0229443
0.0197845
0.0172078
0.0150823
0.0133107
0.0118195
0.0105522
0.00946479
0.00850633
0.323714
0.247819
0.191099
0.14881
0.117249
0.0935706
0.0756571
0.0619603
0.0513623
0.0430607
0.0364785
0.0311985
0.0269163
0.0234076
0.0205051
0.0180827
0.0160439
0.0143134
0.0128286
0.011521
0.32459
0.252403
0.19891
0.158543
0.12769
0.103871
0.08532
0.0707498
0.0592098
0.0499925
0.0425682
0.0365381
0.0316002
0.0275245
0.0241348
0.0212946
0.0188974
0.0168581
0.0151025
0.0135459
0.324844
0.253685
0.20131
0.161836
0.131535
0.107943
0.08937
0.0746125
0.062792
0.0532534
0.0455013
0.0391574
0.0339303
0.0295946
0.0259743
0.0229319
0.0203579
0.0181637
0.0162703
0.0145864
0.324844
0.253685
0.20131
0.161836
0.131535
0.107943
0.08937
0.0746125
0.062792
0.0532534
0.0455013
0.0391574
0.0339303
0.0295945
0.0259743
0.0229319
0.0203579
0.0181638
0.0162704
0.0145864
0.32459
0.252403
0.19891
0.158543
0.12769
0.103871
0.08532
0.0707498
0.0592099
0.0499926
0.0425683
0.0365382
0.0316004
0.0275248
0.0241351
0.021295
0.018898
0.0168587
0.0151023
0.0135393
0.323714
0.247819
0.191099
0.14881
0.117249
0.0935707
0.0756573
0.0619605
0.0513626
0.043061
0.036479
0.0311991
0.0269171
0.0234087
0.0205067
0.018085
0.016047
0.0143176
0.0128343
0.0115308
0.320484
0.23086
0.167176
0.123531
0.0935159
0.0724825
0.0574406
0.0464211
0.0381535
0.0318168
0.0268702
0.0229457
0.0197864
0.0172104
0.0150862
0.0133164
0.0118278
0.0105644
0.00948272
0.00854664
0.295943
0.148782
0.0871941
0.0576749
0.0415194
0.0310722
0.024645
0.0202209
0.0169048
0.0143246
0.0123078
0.0107014
0.00939464
0.00832008
0.0074276
0.00667916
0.00604571
0.00550504
0.0050442
0.00469548
0.295943
0.148782
0.0871941
0.0576749
0.0415194
0.0310722
0.024645
0.0202209
0.0169048
0.0143246
0.0123078
0.0107014
0.00939469
0.00832017
0.00742749
0.00667905
0.00604559
0.00550491
0.00504403
0.00469529
0.320484
0.23086
0.167176
0.123531
0.0935159
0.0724825
0.0574406
0.0464211
0.0381535
0.0318168
0.0268702
0.0229457
0.0197865
0.0172106
0.0150861
0.0133163
0.0118277
0.0105643
0.00948263
0.00854642
0.323714
0.247819
0.191099
0.14881
0.117249
0.0935707
0.0756573
0.0619605
0.0513626
0.0430611
0.036479
0.0311992
0.0269172
0.0234088
0.0205067
0.018085
0.016047
0.0143177
0.0128344
0.0115309
0.32459
0.252403
0.19891
0.158543
0.12769
0.103871
0.08532
0.0707498
0.0592099
0.0499926
0.0425683
0.0365382
0.0316004
0.0275248
0.0241351
0.021295
0.018898
0.0168587
0.0151024
0.0135393
0.324844
0.253685
0.20131
0.161836
0.131535
0.107943
0.08937
0.0746125
0.062792
0.0532534
0.0455013
0.0391574
0.0339303
0.0295946
0.0259743
0.0229319
0.0203579
0.0181638
0.0162704
0.0145864
0.324844
0.253685
0.20131
0.161836
0.131535
0.107943
0.08937
0.0746125
0.062792
0.0532534
0.0455013
0.0391574
0.0339303
0.0295946
0.0259743
0.0229319
0.0203579
0.0181638
0.0162704
0.0145864
0.32459
0.252403
0.19891
0.158543
0.12769
0.103871
0.08532
0.0707498
0.0592098
0.0499925
0.0425682
0.0365381
0.0316002
0.0275245
0.0241348
0.0212945
0.0188974
0.0168581
0.0151025
0.013546
0.323714
0.247819
0.191099
0.14881
0.117249
0.0935706
0.0756571
0.0619603
0.0513623
0.0430607
0.0364785
0.0311985
0.0269163
0.0234076
0.0205051
0.0180827
0.0160439
0.0143134
0.0128286
0.0115212
0.320484
0.23086
0.167176
0.123531
0.0935158
0.0724823
0.0574403
0.0464207
0.038153
0.0318161
0.0268693
0.0229443
0.0197845
0.0172078
0.0150824
0.0133108
0.0118195
0.0105524
0.00946506
0.00850651
0.295943
0.148782
0.0871941
0.0576749
0.0415193
0.0310721
0.0246448
0.0202207
0.0169045
0.0143241
0.0123071
0.0107004
0.00939332
0.00831822
0.00742471
0.00667467
0.00603876
0.0054943
0.00502676
0.00465771
0.292299
0.141633
0.0819302
0.0541654
0.0389231
0.0292875
0.0232724
0.0190788
0.0159343
0.0135152
0.0116271
0.0101132
0.00888238
0.00787168
0.00703371
0.0063332
0.00574275
0.00524173
0.0048156
0.0044725
0.319723
0.227073
0.162232
0.118772
0.0893612
0.0689929
0.0545307
0.0439846
0.0361
0.0300751
0.0253826
0.0216658
0.0186785
0.0162462
0.0142431
0.0125771
0.0111789
0.00999572
0.00898675
0.00812147
0.323293
0.245617
0.187499
0.144537
0.112864
0.089404
0.0718634
0.0585866
0.0483998
0.0404746
0.0342251
0.0292339
0.0252
0.0219039
0.0191834
0.0169174
0.0150136
0.0134009
0.0120214
0.0108182
0.324288
0.250862
0.19613
0.154888
0.123591
0.09968
0.0812741
0.0669838
0.0557848
0.0469224
0.0398396
0.0341238
0.0294676
0.0256404
0.0224675
0.0198158
0.0175822
0.0156856
0.0140572
0.0126226
0.32459
0.252403
0.19891
0.158543
0.12769
0.103871
0.08532
0.0707498
0.0592098
0.0499925
0.0425682
0.0365381
0.0316002
0.0275245
0.0241348
0.0212946
0.0188974
0.0168581
0.0151026
0.0135461
0.32459
0.252403
0.19891
0.158543
0.12769
0.103871
0.08532
0.0707498
0.0592099
0.0499926
0.0425683
0.0365382
0.0316004
0.0275248
0.0241351
0.021295
0.018898
0.0168587
0.0151023
0.0135393
0.324288
0.250862
0.19613
0.154888
0.123591
0.09968
0.0812741
0.0669838
0.0557848
0.0469224
0.0398396
0.0341238
0.0294676
0.0256404
0.0224675
0.0198157
0.0175822
0.0156856
0.0140571
0.0126225
0.323293
0.245617
0.187499
0.144537
0.112864
0.0894038
0.0718632
0.0585863
0.0483993
0.040474
0.0342243
0.0292328
0.0251985
0.0219019
0.0191807
0.0169135
0.0150081
0.0133931
0.0120094
0.0107876
0.319723
0.227073
0.162232
0.118772
0.0893609
0.0689925
0.0545302
0.0439839
0.036099
0.0300736
0.0253805
0.0216629
0.0186744
0.0162407
0.0142354
0.0125657
0.011162
0.00997101
0.00895118
0.00806835
0.292299
0.141633
0.0819301
0.0541653
0.038923
0.0292873
0.0232721
0.0190783
0.0159336
0.0135142
0.0116257
0.0101112
0.00887955
0.00786772
0.00702791
0.00632423
0.00572885
0.0052201
0.00478374
0.00443862
0.283364
0.126774
0.071702
0.0473283
0.0338664
0.0256618
0.0204611
0.0167973
0.014049
0.0119418
0.0102849
0.0089571
0.00788653
0.00701328
0.00629144
0.00568909
0.00518436
0.00476029
0.00440704
0.00413446
0.31754
0.217754
0.151086
0.108549
0.0807157
0.0618728
0.0486776
0.0391421
0.0320591
0.0266721
0.0224909
0.0191884
0.0165404
0.0143888
0.01262
0.0111528
0.00992528
0.00889024
0.00801451
0.0072691
0.322005
0.239026
0.177588
0.133616
0.102323
0.079867
0.0635106
0.0513822
0.0422218
0.0351796
0.029676
0.0253098
0.0217987
0.0189406
0.0165881
0.0146325
0.0129925
0.0116054
0.0104211
0.00937671
0.323293
0.245617
0.187499
0.144537
0.112864
0.0894038
0.0718632
0.0585863
0.0483994
0.040474
0.0342243
0.0292328
0.0251984
0.0219018
0.0191807
0.0169136
0.0150082
0.0133932
0.0120094
0.0107876
0.323714
0.247819
0.191099
0.14881
0.117249
0.0935706
0.0756571
0.0619603
0.0513623
0.0430607
0.0364785
0.0311985
0.0269163
0.0234076
0.0205051
0.0180828
0.016044
0.0143135
0.0128287
0.0115211
0.323714
0.247819
0.191099
0.14881
0.117249
0.0935707
0.0756573
0.0619605
0.0513626
0.0430611
0.036479
0.0311992
0.0269172
0.0234088
0.0205067
0.018085
0.016047
0.0143176
0.0128343
0.0115308
0.323293
0.245617
0.187499
0.144537
0.112864
0.089404
0.0718634
0.0585866
0.0483998
0.0404746
0.0342251
0.0292339
0.0251999
0.0219038
0.0191834
0.0169173
0.0150136
0.0134008
0.0120212
0.0108179
0.322005
0.239026
0.177588
0.133616
0.102323
0.079867
0.0635106
0.0513822
0.0422218
0.0351796
0.029676
0.0253098
0.0217987
0.0189405
0.016588
0.0146324
0.0129923
0.0116053
0.0104209
0.00937639
0.31754
0.217754
0.151085
0.108549
0.0807155
0.0618725
0.0486772
0.0391415
0.0320583
0.026671
0.0224893
0.0191861
0.0165372
0.0143846
0.0126141
0.011144
0.00991222
0.0088707
0.00798611
0.00723121
0.283364
0.126774
0.071702
0.0473282
0.0338663
0.0256616
0.0204608
0.016797
0.0140485
0.0119408
0.0102836
0.0089552
0.00788388
0.00700957
0.00628588
0.00568051
0.00517094
0.00473901
0.00437228
0.00407875
0.264759
0.104702
0.0585298
0.0391631
0.02862
0.0219936
0.0175362
0.0143636
0.0120087
0.0102144
0.00881729
0.00770718
0.00680628
0.00606441
0.00545461
0.00495604
0.00454396
0.0042052
0.00394621
0.00377094
0.311746
0.197541
0.130357
0.0911457
0.0668024
0.0508113
0.0397946
0.0319125
0.0260947
0.0216879
0.0182775
0.0155897
0.0134426
0.0117004
0.0102707
0.00908445
0.00809154
0.00725381
0.00655792
0.00588847
0.31754
0.217754
0.151085
0.108549
0.0807155
0.0618725
0.0486772
0.0391416
0.0320583
0.026671
0.0224893
0.0191861
0.0165372
0.0143844
0.0126142
0.0111442
0.00991243
0.00887089
0.00798636
0.00723184
0.319723
0.227073
0.162232
0.118772
0.0893609
0.0689925
0.0545302
0.0439839
0.036099
0.0300736
0.0253805
0.0216629
0.0186744
0.0162406
0.0142355
0.0125658
0.0111621
0.00997103
0.00895109
0.00806838
0.320484
0.23086
0.167176
0.123531
0.0935158
0.0724823
0.0574403
0.0464207
0.038153
0.0318161
0.0268693
0.0229443
0.0197845
0.0172078
0.0150823
0.0133107
0.0118195
0.0105523
0.00946485
0.00850645
0.320484
0.23086
0.167176
0.123531
0.0935159
0.0724824
0.0574406
0.0464211
0.0381535
0.0318168
0.0268702
0.0229457
0.0197865
0.0172105
0.0150861
0.0133163
0.0118277
0.0105643
0.00948257
0.00854627
0.319723
0.227073
0.162232
0.118772
0.0893612
0.0689929
0.0545307
0.0439846
0.0361
0.0300751
0.0253826
0.0216658
0.0186784
0.016246
0.0142431
0.0125772
0.0111789
0.00999574
0.0089867
0.00812119
0.31754
0.217754
0.151086
0.108549
0.0807157
0.0618728
0.0486776
0.0391421
0.0320591
0.0266721
0.0224909
0.0191884
0.0165404
0.0143887
0.0126201
0.0111528
0.00992529
0.00889021
0.00801439
0.00726886
0.311746
0.197541
0.130357
0.0911457
0.0668024
0.0508113
0.0397947
0.0319125
0.0260947
0.0216879
0.0182774
0.0155897
0.0134426
0.0117005
0.0102705
0.00908428
0.00809134
0.00725359
0.00655759
0.00588809
0.264759
0.104702
0.0585298
0.0391631
0.02862
0.0219935
0.0175362
0.0143635
0.0120086
0.0102142
0.00881689
0.00770652
0.00680517
0.00606252
0.00545169
0.00495119
0.00453528
0.00418838
0.00391275
0.00371292
0.213564
0.055916
0.0283994
0.0193412
0.0146928
0.0118511
0.00989075
0.00851617
0.00749151
0.0066966
0.00606103
0.00555165
0.00512425
0.00474762
0.0044298
0.00416416
0.00394204
0.00376159
0.00365048
0.0035609
0.264759
0.104702
0.0585298
0.0391631
0.02862
0.0219935
0.0175362
0.0143635
0.0120086
0.0102142
0.0088169
0.00770653
0.00680523
0.00606237
0.00545176
0.00495132
0.00453541
0.00418849
0.00391286
0.00371302
0.283364
0.126774
0.071702
0.0473282
0.0338663
0.0256616
0.0204608
0.016797
0.0140485
0.0119408
0.0102836
0.0089552
0.00788383
0.00700947
0.00628599
0.00568063
0.00517104
0.00473908
0.00437233
0.00407882
0.292299
0.141633
0.0819301
0.0541653
0.038923
0.0292873
0.0232721
0.0190783
0.0159336
0.0135142
0.0116257
0.0101112
0.00887949
0.0078676
0.007028
0.0063243
0.00572888
0.00522008
0.00478365
0.00443844
0.295943
0.148782
0.0871941
0.0576749
0.0415193
0.0310721
0.0246448
0.0202207
0.0169045
0.0143241
0.0123071
0.0107004
0.0093933
0.0083182
0.00742467
0.00667462
0.00603868
0.00549418
0.0050266
0.0046575
0.295943
0.148782
0.0871941
0.0576749
0.0415194
0.0310722
0.024645
0.0202209
0.0169048
0.0143246
0.0123078
0.0107014
0.00939469
0.00832014
0.00742746
0.00667903
0.00604559
0.00550493
0.00504406
0.00469533
0.292299
0.141633
0.0819302
0.0541654
0.0389231
0.0292875
0.0232724
0.0190788
0.0159343
0.0135152
0.0116271
0.0101132
0.00888233
0.00787155
0.0070338
0.00633329
0.00574283
0.00524181
0.00481569
0.00447259
0.283364
0.126774
0.071702
0.0473283
0.0338664
0.0256618
0.0204611
0.0167974
0.0140491
0.0119418
0.010285
0.00895711
0.0078865
0.0070132
0.0062915
0.00568918
0.00518444
0.00476037
0.0044071
0.00413446
0.264759
0.104702
0.0585298
0.0391631
0.02862
0.0219936
0.0175363
0.0143636
0.0120087
0.0102144
0.00881729
0.00770717
0.00680626
0.00606447
0.0054546
0.004956
0.00454391
0.00420514
0.00394615
0.00377089
0.213564
0.055916
0.0283994
0.0193412
0.0146928
0.0118511
0.00989076
0.00851617
0.0074915
0.0066966
0.00606101
0.00555168
0.00512418
0.0047477
0.00442977
0.00416412
0.003942
0.00376157
0.00365053
0.00356093
0.00471502
0.00404899
0.0034624
0.0031201
0.00291328
0.00278007
0.00268186
0.00260199
0.00253484
0.00247734
0.00242612
0.00237954
0.00233464
0.0022914
0.00224915
0.00221105
0.00217368
0.00213963
0.00210728
0.00207618
0.00204717
0.00202015
0.00199525
0.00197197
0.00194815
0.00192559
0.00190336
0.001882
0.00186062
0.00184072
0.00182019
0.00180066
0.00178155
0.0017625
0.00174462
0.00172689
0.00171004
0.00169308
0.00167851
0.00165314
0.00375697
0.00336583
0.00304438
0.00281581
0.00265957
0.00253881
0.00244321
0.00236402
0.00229527
0.00223343
0.00217563
0.00212386
0.00207552
0.00202938
0.00198421
0.00194343
0.00190489
0.00186953
0.00183666
0.00180538
0.00177587
0.00174823
0.00172312
0.00170029
0.00167827
0.00165672
0.00163587
0.00161568
0.00159596
0.00157703
0.00155829
0.00153994
0.00152207
0.00150492
0.00148824
0.00147227
0.00145671
0.0014415
0.00142701
0.00141061
0.00365509
0.0034103
0.00319092
0.00301428
0.00285311
0.00271319
0.00259409
0.00249216
0.00240336
0.00232492
0.00225478
0.00219104
0.00213416
0.00207946
0.00202731
0.00198097
0.00193753
0.00189796
0.00186056
0.0018249
0.00178932
0.00175442
0.00172269
0.00169404
0.00166788
0.00164231
0.0016177
0.00159407
0.0015713
0.00154952
0.00152818
0.00150772
0.00148799
0.00146911
0.00145102
0.00143383
0.00141725
0.00140119
0.00138588
0.00137
0.00409016
0.00365328
0.00338569
0.00317631
0.00300111
0.00285086
0.00271947
0.00260342
0.00249982
0.00240656
0.00232205
0.00224526
0.00217556
0.00211135
0.0020529
0.00199886
0.00194868
0.00190293
0.00185941
0.00181468
0.00177402
0.00173695
0.00170151
0.00166833
0.00163705
0.00160749
0.00157985
0.00155339
0.00152806
0.00150442
0.00148091
0.00145819
0.00143682
0.00141639
0.00139759
0.00137904
0.00136171
0.00134475
0.00132865
0.00131193
0.00430371
0.00385925
0.00355424
0.00331532
0.00311785
0.00295083
0.00280647
0.00267915
0.00256495
0.00246175
0.00236803
0.00228265
0.00220473
0.0021335
0.00206803
0.0020077
0.00195233
0.00190141
0.0018538
0.00180962
0.00176818
0.0017312
0.00169145
0.00165518
0.00162131
0.00158967
0.00155986
0.00153187
0.00150525
0.00148086
0.00145674
0.00143353
0.00141189
0.0013909
0.00137146
0.0013521
0.00133406
0.00131672
0.00130051
0.00128523
0.0043443
0.00392114
0.00361447
0.00337022
0.00316558
0.00299003
0.00283724
0.00270277
0.00258193
0.00247228
0.00237269
0.00228196
0.00219876
0.00212359
0.0020547
0.00199143
0.00193327
0.00187982
0.00183067
0.00178579
0.00174418
0.00170568
0.0016692
0.00163766
0.00160271
0.00156836
0.00153702
0.00150854
0.00148195
0.00145808
0.00143504
0.00141329
0.00139223
0.00136906
0.00135133
0.00133065
0.0013143
0.00129751
0.00128155
0.00126654
0.00411894
0.00382705
0.00356749
0.00333903
0.00313747
0.00295973
0.00280261
0.00266347
0.00253869
0.00242658
0.00232589
0.00223513
0.00215299
0.00207927
0.00201204
0.00195051
0.00189419
0.00184252
0.00179501
0.00175156
0.00171196
0.00167477
0.00163957
0.00160614
0.00157357
0.00154126
0.00151165
0.00148512
0.00145955
0.00143654
0.00141417
0.00139311
0.00137219
0.00135127
0.00133341
0.001316
0.00129952
0.00128314
0.00126728
0.00125218
0.00416604
0.00382021
0.00352423
0.00327029
0.00305021
0.00286484
0.00270249
0.00256184
0.00243992
0.00233326
0.00223934
0.00215552
0.00208024
0.00201241
0.00195078
0.00189417
0.00184297
0.00179596
0.00175261
0.0017124
0.00167605
0.00163969
0.00160373
0.00157359
0.00154436
0.00151727
0.00149129
0.00146741
0.00144269
0.00141995
0.0013989
0.00137964
0.00136111
0.00134301
0.00132547
0.00130843
0.00129189
0.00127556
0.00125975
0.00124442
0.0042474
0.00377669
0.00340351
0.00310286
0.00285645
0.002675
0.00253248
0.00241306
0.002311
0.00222195
0.00214312
0.00207301
0.00201006
0.00195367
0.00190065
0.0018481
0.00180211
0.0017593
0.00172064
0.00168376
0.00165035
0.00161721
0.00158699
0.00156011
0.00153418
0.00150993
0.00148677
0.00146502
0.00144411
0.00142517
0.00140676
0.00138897
0.00137162
0.00135491
0.00133871
0.00132288
0.0013075
0.00129217
0.00127733
0.00126241
0.00420378
0.0037147
0.00327076
0.00293558
0.00269252
0.00252583
0.00240689
0.00231363
0.00223594
0.00216855
0.00210463
0.00205045
0.00199707
0.00194758
0.0019003
0.00185629
0.00181545
0.00177735
0.00174261
0.00170986
0.00167987
0.00165306
0.00162862
0.00160693
0.00158526
0.00156453
0.00154458
0.00152549
0.00150697
0.00148982
0.00147254
0.0014556
0.00143912
0.00142304
0.00140712
0.00139164
0.00137712
0.0013629
0.0013494
0.0013342
0.00471531
0.00404891
0.00346248
0.00312002
0.00290748
0.00277396
0.00267693
0.00259839
0.00253305
0.00247765
0.00242723
0.00238255
0.00233722
0.00229437
0.0022529
0.00221443
0.00217746
0.00214306
0.00211058
0.00207959
0.00204991
0.00202283
0.00199726
0.0019741
0.00195001
0.00192777
0.00190553
0.00188432
0.00186299
0.00184304
0.00182246
0.00180295
0.00178371
0.00176466
0.00174613
0.00172803
0.00171206
0.00169513
0.00168076
0.00165517
0.00420452
0.00371418
0.00326902
0.00293307
0.00269496
0.00253155
0.00241144
0.00231691
0.00223781
0.00216839
0.00210427
0.00204747
0.00199389
0.0019445
0.00189613
0.00185259
0.00181095
0.00177332
0.00173846
0.00170599
0.00167646
0.00165008
0.00162602
0.00160465
0.00158317
0.00156243
0.00154247
0.00152336
0.0015048
0.00148774
0.00147047
0.00145352
0.00143697
0.00142104
0.00140571
0.00139062
0.00137574
0.00136115
0.00134743
0.00133211
0.00412352
0.00374566
0.00339489
0.00311225
0.00289567
0.00271348
0.00254706
0.00239973
0.00226366
0.00213816
0.00201793
0.00191302
0.00180398
0.00171048
0.00161543
0.00153966
0.00146346
0.00140028
0.00134256
0.00128251
0.00123099
0.00118976
0.00115643
0.00112725
0.00109611
0.00106634
0.0010374
0.00101132
0.000984969
0.000965023
0.000942344
0.000919649
0.000897384
0.000874985
0.000859215
0.000839999
0.000819852
0.000800281
0.000781033
0.000763024
0.00584828
0.00520146
0.00470688
0.00430499
0.00397702
0.00369139
0.0034389
0.00321356
0.00301073
0.00282765
0.00266022
0.002513
0.00237195
0.00225343
0.00213691
0.00203801
0.0019408
0.00185736
0.00177706
0.00170227
0.00163383
0.00156527
0.0015072
0.00145017
0.00140046
0.00135191
0.0013061
0.00126582
0.00122489
0.00119026
0.00115523
0.00112254
0.00108918
0.00105934
0.00103159
0.00100516
0.000977293
0.000952086
0.000926944
0.000896616
0.00672476
0.0061012
0.00555863
0.00509153
0.0046866
0.00433252
0.00401889
0.00374022
0.00349113
0.00326797
0.00306734
0.00288673
0.00272331
0.00257552
0.00244088
0.00231837
0.00220621
0.00210313
0.00200999
0.0019212
0.00184344
0.00176691
0.0016994
0.00163316
0.00157564
0.00151896
0.00146929
0.00141943
0.0013743
0.00133041
0.00128923
0.00125103
0.00121231
0.00117828
0.0011457
0.00111281
0.00107957
0.00104979
0.00102006
0.000984936
0.00741066
0.00668841
0.00607491
0.00554836
0.00509194
0.00469551
0.00434912
0.00404323
0.00376922
0.003523
0.00330153
0.00310194
0.00292259
0.00275995
0.00261225
0.00247777
0.00235503
0.00224267
0.00213975
0.00204468
0.00195822
0.00187375
0.00179331
0.00172575
0.00166381
0.00160632
0.00155104
0.00149695
0.00144679
0.00140022
0.00135538
0.00131499
0.00127446
0.00123737
0.00120126
0.00116479
0.00112835
0.0010946
0.00106141
0.00102204
0.00744446
0.00678419
0.00619418
0.00567267
0.00521312
0.00480834
0.00445256
0.00414122
0.00386351
0.00361268
0.00338634
0.0031817
0.00299825
0.00283117
0.00267949
0.00254134
0.00241512
0.00229946
0.00219324
0.00209542
0.00200527
0.00192155
0.00184426
0.00176809
0.0016936
0.00162678
0.00157134
0.00152125
0.00147366
0.00142865
0.00138501
0.00134506
0.00130373
0.00126144
0.00122157
0.00118185
0.00114368
0.00110681
0.00107248
0.001031
0.00730217
0.00662004
0.00602571
0.00550959
0.00506045
0.00466889
0.00432845
0.00403132
0.00376516
0.00352524
0.00330903
0.0031132
0.00293832
0.00277788
0.00263175
0.00249816
0.00237572
0.00226317
0.00215955
0.00206389
0.00197527
0.00189337
0.00181573
0.00174484
0.00167697
0.00161381
0.00155296
0.00149956
0.00144628
0.00140033
0.00135429
0.00131035
0.00126696
0.00122711
0.00118891
0.00115139
0.00111412
0.00107818
0.00104366
0.00100179
0.00674677
0.00607209
0.00550663
0.00503007
0.00462261
0.00427667
0.00397618
0.00370862
0.00346889
0.0032533
0.00305857
0.00288162
0.00272299
0.00257607
0.0024414
0.00231731
0.00220349
0.00209803
0.0020013
0.00191149
0.00182791
0.00175094
0.00167444
0.00160991
0.00154455
0.00148758
0.00143008
0.0013798
0.00132827
0.00128603
0.00124281
0.00120094
0.00115847
0.00112183
0.00108639
0.00105211
0.00101789
0.000983174
0.000949199
0.000909157
0.0054731
0.00499534
0.00456004
0.00419437
0.00388023
0.00360816
0.00336808
0.0031517
0.00295531
0.00277578
0.00261006
0.00245997
0.00231999
0.00219118
0.00207241
0.00196052
0.00186211
0.00176562
0.00168477
0.00160375
0.00153214
0.00146321
0.00140062
0.00134903
0.00129651
0.00125154
0.00120517
0.00116603
0.00112426
0.00109317
0.00106044
0.00102805
0.000994725
0.000966217
0.00093871
0.000910227
0.000884936
0.000856928
0.000830563
0.000807086
0.00412348
0.0037466
0.00340127
0.00311329
0.00288295
0.00269147
0.00253318
0.00239153
0.00226067
0.00214095
0.00202115
0.00192285
0.00181463
0.0017193
0.00162655
0.00154778
0.00147437
0.00140953
0.00135183
0.00129283
0.00123841
0.00119657
0.00116128
0.00113273
0.00110058
0.00107134
0.00104187
0.00101565
0.000989219
0.000969014
0.000946375
0.000923785
0.000901383
0.000880439
0.000860336
0.000838518
0.000823687
0.000805406
0.00078673
0.000769076
0.00375702
0.00336516
0.00304533
0.00281329
0.00264993
0.00253033
0.00243727
0.00235992
0.00229236
0.00223242
0.00217475
0.0021258