/*--------------------------------*- C++ -*----------------------------------*\
| =========                 |                                                 |
| \\      /  F ield         | OpenFOAM: The Open Source CFD Toolbox           |
|  \\    /   O peration     | Version:  2212                                  |
|   \\  /    A nd           | Website:  www.openfoam.com                      |
|    \\/     M anipulation  |                                                 |
\*---------------------------------------------------------------------------*/
FoamFile
{
    version     2.0;
    format      ascii;
    arch        "LSB;label=32;scalar=64";
    class       volScalarField;
    location    "2.6";
    object      nut;
}
// * * * * * * * * * * * * * * * * * * * * * * * * * * * * * * * * * * * * * //

dimensions      [0 2 -1 0 0 0 0];

internalField   nonuniform List<scalar> 
6840
(
4.5356e-05
2.3208e-05
1.65396e-05
1.36493e-05
1.18966e-05
1.06844e-05
9.76077e-06
9.05714e-06
8.49479e-06
8.03145e-06
7.64077e-06
7.31261e-06
7.02537e-06
6.76201e-06
6.53143e-06
6.33204e-06
6.16023e-06
6.01645e-06
5.92166e-06
5.84851e-06
0.000107685
6.77183e-05
5.06311e-05
4.14159e-05
3.54049e-05
3.10367e-05
2.77138e-05
2.50818e-05
2.29337e-05
2.11511e-05
1.96514e-05
1.83726e-05
1.72653e-05
1.62972e-05
1.5456e-05
1.47325e-05
1.41067e-05
1.35711e-05
1.31462e-05
1.28452e-05
0.000160509
0.00010736
8.07409e-05
6.55976e-05
5.54897e-05
4.83027e-05
4.31312e-05
3.90794e-05
3.57398e-05
3.29507e-05
3.05796e-05
2.85375e-05
2.6778e-05
2.52523e-05
2.39181e-05
2.27451e-05
2.17138e-05
2.08087e-05
2.00261e-05
1.94137e-05
0.000198681
0.0001383
0.000105187
8.55269e-05
7.25013e-05
6.28903e-05
5.60613e-05
5.07596e-05
4.63884e-05
4.27224e-05
3.96262e-05
3.69567e-05
3.46353e-05
3.26059e-05
3.08227e-05
2.92491e-05
2.78546e-05
2.66152e-05
2.55133e-05
2.45614e-05
0.000218609
0.000155003
0.000118661
9.65069e-05
8.18823e-05
7.08355e-05
6.30855e-05
5.71433e-05
5.22481e-05
4.80959e-05
4.4582e-05
4.15712e-05
3.8951e-05
3.66566e-05
3.46355e-05
3.28459e-05
3.12526e-05
2.98273e-05
2.85592e-05
2.75682e-05
0.000218609
0.000155003
0.000118661
9.65068e-05
8.18822e-05
7.08354e-05
6.30852e-05
5.71429e-05
5.22475e-05
4.80949e-05
4.45803e-05
4.15687e-05
3.89472e-05
3.66509e-05
3.46266e-05
3.28314e-05
3.1229e-05
2.97895e-05
2.84975e-05
2.74555e-05
0.000198681
0.0001383
0.000105187
8.55268e-05
7.25011e-05
6.28899e-05
5.60607e-05
5.07587e-05
4.63872e-05
4.27204e-05
3.96229e-05
3.69518e-05
3.46279e-05
3.25947e-05
3.08052e-05
2.9221e-05
2.78092e-05
2.65416e-05
2.53986e-05
2.4406e-05
0.000160509
0.00010736
8.07408e-05
6.55975e-05
5.54895e-05
4.83024e-05
4.31308e-05
3.90788e-05
3.57388e-05
3.29488e-05
3.05769e-05
2.85335e-05
2.6772e-05
2.52432e-05
2.39035e-05
2.27215e-05
2.16753e-05
2.07447e-05
1.99148e-05
1.92425e-05
0.000107685
6.77183e-05
5.06311e-05
4.14159e-05
3.54049e-05
3.10367e-05
2.77138e-05
2.50817e-05
2.29336e-05
2.11508e-05
1.96508e-05
1.83716e-05
1.72634e-05
1.62936e-05
1.54502e-05
1.47225e-05
1.40881e-05
1.35334e-05
1.30691e-05
1.27043e-05
4.5356e-05
2.3208e-05
1.65396e-05
1.36493e-05
1.18966e-05
1.06844e-05
9.76077e-06
9.05714e-06
8.49479e-06
8.03145e-06
7.64075e-06
7.31263e-06
7.02529e-06
6.76207e-06
6.53138e-06
6.33198e-06
6.16015e-06
6.01636e-06
5.92157e-06
5.84828e-06
0.000107685
6.77183e-05
5.06311e-05
4.14159e-05
3.54049e-05
3.10367e-05
2.77138e-05
2.50817e-05
2.29336e-05
2.11508e-05
1.96508e-05
1.83716e-05
1.72635e-05
1.62934e-05
1.54503e-05
1.47227e-05
1.40883e-05
1.35335e-05
1.30693e-05
1.27049e-05
0.000528907
0.000369984
0.000305097
0.000261371
0.000228529
0.000202476
0.000181115
0.000163076
0.000147542
0.000133988
0.000122055
0.000111474
0.000102145
9.38762e-05
8.65003e-05
7.9714e-05
7.35393e-05
6.80009e-05
6.38428e-05
5.54636e-05
0.000663952
0.000488459
0.000404619
0.000347249
0.000305037
0.00027213
0.000245322
0.000222895
0.000203765
0.000187194
0.000172676
0.000159847
0.000148422
0.000138188
0.00012898
0.000120801
0.000113462
0.000106792
0.00010111
9.55512e-05
0.00071288
0.000556432
0.000466397
0.000402356
0.000354427
0.000317053
0.000286678
0.000261259
0.000239589
0.000220856
0.000204459
0.000189973
0.000177078
0.000165514
0.000155069
0.000145638
0.000137065
0.000129233
0.000122057
0.000115556
0.000728543
0.000588231
0.000496002
0.000429132
0.00037851
0.000338935
0.000306818
0.000279971
0.000257069
0.00023725
0.000219899
0.000204558
0.000190884
0.000178602
0.00016749
0.000157412
0.000148189
0.000139685
0.000131755
0.000124114
0.000728543
0.000588231
0.000496001
0.000429131
0.000378508
0.000338932
0.000306814
0.000279965
0.00025706
0.000237235
0.000219877
0.000204525
0.000190833
0.000178532
0.000167394
0.000157251
0.000147939
0.000139309
0.000131199
0.000122884
0.00071288
0.000556432
0.000466396
0.000402354
0.000354424
0.000317047
0.00028667
0.000261249
0.00023957
0.000220827
0.000204414
0.000189904
0.000176977
0.000165376
0.000154868
0.000145313
0.000136564
0.00012848
0.000120962
0.000114075
0.000663952
0.000488458
0.000404619
0.000347248
0.000305035
0.000272127
0.000245317
0.000222887
0.000203752
0.000187172
0.000172643
0.000159796
0.000148347
0.000138091
0.000128828
0.000120565
0.000113106
0.000106259
0.000100356
9.37589e-05
0.000528907
0.000369984
0.000305097
0.000261371
0.000228529
0.000202476
0.000181115
0.000163076
0.000147542
0.000133988
0.000122055
0.000111474
0.000102144
9.38848e-05
8.64919e-05
7.97078e-05
7.35333e-05
6.79946e-05
6.38347e-05
5.54484e-05
0.000107685
6.77183e-05
5.06311e-05
4.14159e-05
3.54049e-05
3.10367e-05
2.77138e-05
2.50818e-05
2.29337e-05
2.11511e-05
1.96514e-05
1.83726e-05
1.72653e-05
1.62973e-05
1.54559e-05
1.47323e-05
1.41064e-05
1.35707e-05
1.31457e-05
1.28445e-05
0.000160509
0.00010736
8.07408e-05
6.55975e-05
5.54895e-05
4.83024e-05
4.31308e-05
3.90789e-05
3.57388e-05
3.29488e-05
3.05769e-05
2.85335e-05
2.67719e-05
2.5243e-05
2.39037e-05
2.27217e-05
2.16755e-05
2.07448e-05
1.99149e-05
1.92428e-05
0.000663952
0.000488458
0.000404619
0.000347248
0.000305035
0.000272127
0.000245317
0.000222887
0.000203752
0.000187172
0.000172643
0.000159796
0.000148345
0.000138078
0.000128841
0.000120573
0.000113111
0.00010626
0.000100365
9.37823e-05
0.000786828
0.000662293
0.000567975
0.000495806
0.000439464
0.000394563
0.000357976
0.000327454
0.000301493
0.000279055
0.000259405
0.000242013
0.000226488
0.000212535
0.000199927
0.000188485
0.000178066
0.000168526
0.000159738
0.000150384
0.000809324
0.000713906
0.000631505
0.000562574
0.000505378
0.000457787
0.000417843
0.000383942
0.000354809
0.000329457
0.000307167
0.000287396
0.000269725
0.000253828
0.000239447
0.000226391
0.000214475
0.00020353
0.000193329
0.0001832
0.000814958
0.000730426
0.000654634
0.000589044
0.000533067
0.000485438
0.000444763
0.000409793
0.00037947
0.000352931
0.000329492
0.000308629
0.000289939
0.000273096
0.000257835
0.000243956
0.000231258
0.000219549
0.000208537
0.000197443
0.000814958
0.000730426
0.000654634
0.000589043
0.000533066
0.000485437
0.000444761
0.00040979
0.000379465
0.000352924
0.00032948
0.000308611
0.000289914
0.000273064
0.000257793
0.000243884
0.000231149
0.000219393
0.000208312
0.000196992
0.000809324
0.000713905
0.000631504
0.000562573
0.000505377
0.000457785
0.00041784
0.000383938
0.000354801
0.000329444
0.000307148
0.000287366
0.000269685
0.000253776
0.000239367
0.000226262
0.00021428
0.000203242
0.000192869
0.000181942
0.000786828
0.000662293
0.000567975
0.000495806
0.000439464
0.000394563
0.000357976
0.000327454
0.000301493
0.000279055
0.000259404
0.000242012
0.000226487
0.000212537
0.000199922
0.00018848
0.000178061
0.000168518
0.000159728
0.000150359
0.000663952
0.000488459
0.000404619
0.000347249
0.000305037
0.00027213
0.000245322
0.000222895
0.000203765
0.000187194
0.000172676
0.000159846
0.000148419
0.000138184
0.000128981
0.0001208
0.000113459
0.000106786
0.0001011
9.55336e-05
0.000160509
0.00010736
8.07409e-05
6.55976e-05
5.54897e-05
4.83027e-05
4.31312e-05
3.90794e-05
3.57398e-05
3.29506e-05
3.05795e-05
2.85375e-05
2.67779e-05
2.52521e-05
2.39181e-05
2.27451e-05
2.17138e-05
2.08085e-05
2.00257e-05
1.94129e-05
0.000198681
0.0001383
0.000105187
8.55268e-05
7.25011e-05
6.28899e-05
5.60607e-05
5.07587e-05
4.63872e-05
4.27204e-05
3.96229e-05
3.69518e-05
3.46278e-05
3.25946e-05
3.08054e-05
2.92211e-05
2.78093e-05
2.65416e-05
2.53985e-05
2.44059e-05
0.00071288
0.000556432
0.000466396
0.000402354
0.000354424
0.000317047
0.00028667
0.000261249
0.00023957
0.000220827
0.000204414
0.000189903
0.000176973
0.000165365
0.000154879
0.000145318
0.000136565
0.000128478
0.000120954
0.000114063
0.000809324
0.000713905
0.000631504
0.000562573
0.000505377
0.000457785
0.00041784
0.000383938
0.000354801
0.000329444
0.000307148
0.000287366
0.000269681
0.000253771
0.000239374
0.000226266
0.000214282
0.000203243
0.000192868
0.000181947
0.000823497
0.000753987
0.000688491
0.000628748
0.000575387
0.000528266
0.000486845
0.000450441
0.000418362
0.000389973
0.000364727
0.000342162
0.000321894
0.000303606
0.000287032
0.000271945
0.000258147
0.000245423
0.000233429
0.000221261
0.000826292
0.000764347
0.000706102
0.000651936
0.00060223
0.000557103
0.000516427
0.000479911
0.00044718
0.000417831
0.000391475
0.000367749
0.000346332
0.00032694
0.000309324
0.000293267
0.00027856
0.000264962
0.000252048
0.000238687
0.000826292
0.000764347
0.000706102
0.000651936
0.00060223
0.000557103
0.000516427
0.00047991
0.000447178
0.000417829
0.000391472
0.000367745
0.000346326
0.000326933
0.000309316
0.000293253
0.00027854
0.00026494
0.000252054
0.00023898
0.000823497
0.000753987
0.000688491
0.000628748
0.000575387
0.000528266
0.000486845
0.000450441
0.000418362
0.000389973
0.000364727
0.000342162
0.000321894
0.000303606
0.00028703
0.000271943
0.000258145
0.000245419
0.000233422
0.000221249
0.000809324
0.000713906
0.000631505
0.000562574
0.000505378
0.000457787
0.000417843
0.000383942
0.000354808
0.000329457
0.000307167
0.000287395
0.000269721
0.000253824
0.00023945
0.00022639
0.000214471
0.000203522
0.000193316
0.000183178
0.00071288
0.000556432
0.000466397
0.000402356
0.000354427
0.000317053
0.000286678
0.000261259
0.000239588
0.000220856
0.000204459
0.000189972
0.000177074
0.000165502
0.000155079
0.000145643
0.000137067
0.000129233
0.000122054
0.00011555
0.000198681
0.0001383
0.000105187
8.55269e-05
7.25013e-05
6.28903e-05
5.60613e-05
5.07595e-05
4.63884e-05
4.27223e-05
3.96261e-05
3.69567e-05
3.46352e-05
3.26057e-05
3.08228e-05
2.92492e-05
2.78547e-05
2.66153e-05
2.55132e-05
2.45609e-05
0.000218609
0.000155003
0.000118661
9.65068e-05
8.18822e-05
7.08354e-05
6.30852e-05
5.71429e-05
5.22475e-05
4.80949e-05
4.45803e-05
4.15687e-05
3.89472e-05
3.66507e-05
3.46265e-05
3.28314e-05
3.12289e-05
2.97894e-05
2.84973e-05
2.74553e-05
0.000728543
0.000588231
0.000496001
0.000429131
0.000378508
0.000338932
0.000306814
0.000279966
0.00025706
0.000237235
0.000219876
0.000204524
0.000190831
0.000178526
0.000167393
0.000157248
0.000147933
0.000139299
0.000131184
0.000122861
0.000814958
0.000730426
0.000654634
0.000589043
0.000533066
0.000485437
0.000444761
0.00040979
0.000379465
0.000352923
0.000329479
0.000308611
0.000289912
0.00027306
0.000257793
0.000243883
0.000231145
0.000219386
0.000208302
0.000196981
0.000826292
0.000764347
0.000706102
0.000651936
0.00060223
0.000557103
0.000516427
0.00047991
0.000447178
0.000417829
0.000391472
0.000367745
0.000346326
0.000326932
0.000309316
0.000293253
0.000278539
0.000264938
0.000252052
0.000238977
0.000828382
0.0007726
0.000721137
0.00067296
0.000627781
0.000585619
0.000546546
0.000510577
0.000477646
0.000447613
0.000420285
0.000395444
0.000372862
0.000352316
0.000333593
0.000316487
0.000300796
0.000286266
0.00027247
0.000258566
0.000828382
0.0007726
0.000721137
0.00067296
0.000627781
0.000585619
0.000546546
0.000510577
0.000477646
0.000447613
0.000420285
0.000395444
0.000372862
0.000352316
0.000333593
0.000316487
0.000300796
0.000286266
0.000272471
0.000258568
0.000826292
0.000764347
0.000706102
0.000651936
0.00060223
0.000557103
0.000516427
0.000479911
0.00044718
0.000417831
0.000391475
0.000367749
0.000346331
0.000326939
0.000309325
0.000293267
0.000278558
0.000264959
0.000252043
0.000238687
0.000814958
0.000730426
0.000654634
0.000589044
0.000533067
0.000485438
0.000444763
0.000409793
0.00037947
0.000352931
0.000329491
0.000308628
0.000289936
0.000273091
0.000257839
0.000243957
0.000231255
0.000219543
0.000208526
0.000197429
0.000728543
0.000588231
0.000496002
0.000429132
0.00037851
0.000338935
0.000306818
0.000279971
0.000257069
0.00023725
0.000219899
0.000204558
0.00019088
0.000178591
0.000167501
0.000157418
0.000148193
0.000139687
0.000131755
0.000124115
0.000218609
0.000155003
0.000118661
9.65069e-05
8.18823e-05
7.08355e-05
6.30855e-05
5.71433e-05
5.22481e-05
4.80959e-05
4.4582e-05
4.15711e-05
3.89509e-05
3.66564e-05
3.46357e-05
3.28462e-05
3.12528e-05
2.98275e-05
2.85595e-05
2.75686e-05
0.000218609
0.000155003
0.000118661
9.65069e-05
8.18823e-05
7.08355e-05
6.30855e-05
5.71433e-05
5.22481e-05
4.80959e-05
4.4582e-05
4.15711e-05
3.8951e-05
3.66566e-05
3.46355e-05
3.28459e-05
3.12525e-05
2.98271e-05
2.8559e-05
2.75681e-05
0.000728543
0.000588231
0.000496002
0.000429132
0.00037851
0.000338935
0.000306818
0.000279971
0.000257069
0.00023725
0.000219899
0.000204558
0.000190883
0.0001786
0.000167489
0.00015741
0.000148185
0.000139678
0.000131745
0.000124099
0.000814958
0.000730426
0.000654634
0.000589044
0.000533067
0.000485438
0.000444763
0.000409793
0.00037947
0.000352931
0.000329491
0.000308629
0.000289939
0.000273095
0.000257834
0.000243954
0.000231254
0.000219544
0.000208529
0.000197432
0.000826292
0.000764347
0.000706102
0.000651936
0.00060223
0.000557103
0.000516427
0.000479911
0.00044718
0.000417831
0.000391475
0.000367749
0.000346332
0.00032694
0.000309324
0.000293267
0.000278559
0.00026496
0.000252044
0.000238683
0.000828382
0.0007726
0.000721137
0.00067296
0.000627781
0.000585619
0.000546546
0.000510577
0.000477647
0.000447613
0.000420285
0.000395444
0.000372862
0.000352316
0.000333593
0.000316487
0.000300796
0.000286266
0.000272471
0.000258568
0.000828382
0.0007726
0.000721137
0.00067296
0.000627781
0.000585619
0.000546546
0.000510577
0.000477646
0.000447613
0.000420285
0.000395444
0.000372862
0.000352316
0.000333593
0.000316487
0.000300796
0.000286266
0.000272472
0.000258571
0.000826292
0.000764347
0.000706102
0.000651936
0.00060223
0.000557103
0.000516427
0.00047991
0.000447178
0.000417829
0.000391472
0.000367745
0.000346326
0.000326933
0.000309315
0.000293252
0.000278539
0.000264939
0.000252053
0.000238986
0.000814958
0.000730426
0.000654634
0.000589043
0.000533066
0.000485437
0.000444761
0.00040979
0.000379465
0.000352923
0.000329479
0.000308611
0.000289914
0.000273062
0.00025779
0.000243882
0.000231147
0.000219391
0.000208309
0.000196996
0.000728543
0.000588231
0.000496001
0.000429131
0.000378508
0.000338932
0.000306814
0.000279966
0.00025706
0.000237235
0.000219877
0.000204525
0.000190833
0.000178527
0.000167393
0.00015725
0.000147939
0.00013931
0.000131201
0.000122877
0.000218609
0.000155003
0.000118661
9.65068e-05
8.18822e-05
7.08354e-05
6.30852e-05
5.71429e-05
5.22475e-05
4.80949e-05
4.45803e-05
4.15687e-05
3.89472e-05
3.66507e-05
3.46267e-05
3.28315e-05
3.12292e-05
2.97897e-05
2.84977e-05
2.74556e-05
0.000198681
0.0001383
0.000105187
8.55269e-05
7.25013e-05
6.28903e-05
5.60613e-05
5.07596e-05
4.63884e-05
4.27224e-05
3.96262e-05
3.69567e-05
3.46353e-05
3.2606e-05
3.08227e-05
2.92491e-05
2.78547e-05
2.66153e-05
2.55134e-05
2.45618e-05
0.00071288
0.000556432
0.000466397
0.000402356
0.000354427
0.000317053
0.000286678
0.000261259
0.000239589
0.000220856
0.000204459
0.000189973
0.000177078
0.000165514
0.000155069
0.000145638
0.000137065
0.000129234
0.000122059
0.000115567
0.000809324
0.000713906
0.000631505
0.000562574
0.000505378
0.000457787
0.000417843
0.000383942
0.000354809
0.000329457
0.000307168
0.000287396
0.000269726
0.000253829
0.000239446
0.00022639
0.000214475
0.000203532
0.000193333
0.000183215
0.000823497
0.000753987
0.000688491
0.000628748
0.000575387
0.000528266
0.000486845
0.000450442
0.000418362
0.000389974
0.000364727
0.000342163
0.000321895
0.000303607
0.000287032
0.000271946
0.000258149
0.000245426
0.000233433
0.000221271
0.000826292
0.000764347
0.000706102
0.000651936
0.00060223
0.000557103
0.000516427
0.000479911
0.000447179
0.00041783
0.000391472
0.000367745
0.000346326
0.000326933
0.000309317
0.000293254
0.000278541
0.000264941
0.000252057
0.000238989
0.000826292
0.000764347
0.000706102
0.000651936
0.00060223
0.000557103
0.000516427
0.000479911
0.00044718
0.000417832
0.000391475
0.000367749
0.000346332
0.00032694
0.000309325
0.000293267
0.000278559
0.00026496
0.000252044
0.000238688
0.000823497
0.000753987
0.000688491
0.000628748
0.000575387
0.000528266
0.000486845
0.000450441
0.000418362
0.000389974
0.000364727
0.000342162
0.000321895
0.000303607
0.000287031
0.000271945
0.000258147
0.000245422
0.000233426
0.000221262
0.000809324
0.000713905
0.000631504
0.000562573
0.000505377
0.000457785
0.00041784
0.000383938
0.000354801
0.000329444
0.000307148
0.000287367
0.000269685
0.000253776
0.000239368
0.000226264
0.000214284
0.000203248
0.000192879
0.000181963
0.00071288
0.000556432
0.000466396
0.000402354
0.000354424
0.000317048
0.000286671
0.000261248
0.00023957
0.000220827
0.000204414
0.000189904
0.000176978
0.000165376
0.000154868
0.000145314
0.000136565
0.000128482
0.000120964
0.000114075
0.000198681
0.0001383
0.000105187
8.55268e-05
7.25011e-05
6.28899e-05
5.60607e-05
5.07587e-05
4.63871e-05
4.27204e-05
3.96229e-05
3.69518e-05
3.46279e-05
3.25948e-05
3.08053e-05
2.92211e-05
2.78093e-05
2.65417e-05
2.53988e-05
2.44061e-05
0.000160509
0.00010736
8.07409e-05
6.55976e-05
5.54897e-05
4.83027e-05
4.31312e-05
3.90794e-05
3.57398e-05
3.29507e-05
3.05796e-05
2.85375e-05
2.6778e-05
2.52524e-05
2.39181e-05
2.27451e-05
2.17139e-05
2.08089e-05
2.00264e-05
1.94142e-05
0.000663952
0.000488459
0.000404619
0.000347249
0.000305037
0.00027213
0.000245323
0.000222895
0.000203765
0.000187194
0.000172677
0.000159848
0.000148423
0.000138191
0.00012898
0.000120804
0.000113469
0.000106805
0.000101118
9.5579e-05
0.000786828
0.000662293
0.000567975
0.000495806
0.000439464
0.000394563
0.000357976
0.000327454
0.000301493
0.000279055
0.000259406
0.000242014
0.00022649
0.000212538
0.000199928
0.000188489
0.000178074
0.000168539
0.000159759
0.000150424
0.000809324
0.000713905
0.000631504
0.000562573
0.000505377
0.000457785
0.00041784
0.000383938
0.000354801
0.000329445
0.000307148
0.000287367
0.000269683
0.000253773
0.000239376
0.00022627
0.000214289
0.000203254
0.000192884
0.000181967
0.000814958
0.000730426
0.000654634
0.000589043
0.000533066
0.000485437
0.000444761
0.00040979
0.000379465
0.000352924
0.00032948
0.000308611
0.000289913
0.000273061
0.000257794
0.000243885
0.000231149
0.000219392
0.000208309
0.00019699
0.000814958
0.000730426
0.000654634
0.000589044
0.000533067
0.000485438
0.000444763
0.000409793
0.00037947
0.000352931
0.000329491
0.000308629
0.000289938
0.000273092
0.000257835
0.000243955
0.000231254
0.000219542
0.000208524
0.000197427
0.000809324
0.000713906
0.000631505
0.000562574
0.000505378
0.000457787
0.000417843
0.000383943
0.000354809
0.000329457
0.000307167
0.000287396
0.000269723
0.000253824
0.00023945
0.000226392
0.000214474
0.000203527
0.000193324
0.000183194
0.000786828
0.000662293
0.000567975
0.000495806
0.000439464
0.000394563
0.000357976
0.000327454
0.000301493
0.000279055
0.000259405
0.000242013
0.000226489
0.000212538
0.000199924
0.000188485
0.000178068
0.000168529
0.000159744
0.000150397
0.000663952
0.000488458
0.000404619
0.000347248
0.000305035
0.000272127
0.000245317
0.000222887
0.000203752
0.000187172
0.000172643
0.000159796
0.000148348
0.000138092
0.000128829
0.000120567
0.000113108
0.000106263
0.000100361
9.37869e-05
0.000160509
0.00010736
8.07408e-05
6.55975e-05
5.54895e-05
4.83024e-05
4.31309e-05
3.90788e-05
3.57388e-05
3.29488e-05
3.05769e-05
2.85335e-05
2.6772e-05
2.52432e-05
2.39035e-05
2.27216e-05
2.16754e-05
2.07448e-05
1.99149e-05
1.92426e-05
0.000107685
6.77183e-05
5.06311e-05
4.14159e-05
3.54049e-05
3.10367e-05
2.77138e-05
2.50818e-05
2.29337e-05
2.11511e-05
1.96514e-05
1.83726e-05
1.72654e-05
1.62973e-05
1.5456e-05
1.47326e-05
1.41068e-05
1.35713e-05
1.31466e-05
1.28455e-05
0.000528907
0.000369984
0.000305097
0.000261371
0.000228529
0.000202476
0.000181115
0.000163076
0.000147542
0.000133988
0.000122055
0.000111475
0.000102147
9.3878e-05
8.65021e-05
7.97172e-05
7.35444e-05
6.80085e-05
6.38547e-05
5.54831e-05
0.000663952
0.000488458
0.000404619
0.000347248
0.000305035
0.000272127
0.000245317
0.000222887
0.000203752
0.000187173
0.000172643
0.000159797
0.000148346
0.00013808
0.000128843
0.000120576
0.000113115
0.000106267
0.000100375
9.37945e-05
0.00071288
0.000556432
0.000466396
0.000402354
0.000354424
0.000317047
0.00028667
0.000261249
0.00023957
0.000220827
0.000204414
0.000189903
0.000176973
0.000165366
0.00015488
0.00014532
0.000136567
0.000128481
0.000120958
0.00011407
0.000728543
0.000588231
0.000496001
0.000429131
0.000378508
0.000338932
0.000306814
0.000279966
0.00025706
0.000237235
0.000219876
0.000204524
0.000190831
0.000178525
0.000167393
0.000157248
0.000147933
0.000139299
0.000131185
0.000122864
0.000728543
0.000588231
0.000496002
0.000429132
0.00037851
0.000338934
0.000306817
0.000279972
0.00025707
0.00023725
0.000219899
0.000204558
0.000190882
0.000178597
0.000167488
0.000157409
0.000148184
0.000139677
0.000131743
0.000124096
0.00071288
0.000556432
0.000466397
0.000402356
0.000354427
0.000317052
0.000286678
0.00026126
0.000239589
0.000220857
0.00020446
0.000189973
0.000177075
0.000165501
0.000155079
0.000145644
0.000137069
0.000129236
0.000122059
0.00011556
0.000663952
0.000488459
0.000404619
0.000347249
0.000305037
0.00027213
0.000245322
0.000222895
0.000203766
0.000187195
0.000172677
0.000159848
0.000148422
0.000138185
0.000128984
0.000120807
0.00011347
0.000106805
0.000101115
9.55737e-05
0.000528907
0.000369984
0.000305097
0.000261371
0.000228529
0.000202477
0.000181116
0.000163076
0.000147542
0.000133988
0.000122055
0.000111475
0.000102145
9.38862e-05
8.64943e-05
7.97114e-05
7.35389e-05
6.80028e-05
6.38466e-05
5.54761e-05
0.000107685
6.77183e-05
5.06311e-05
4.14159e-05
3.54049e-05
3.10367e-05
2.77138e-05
2.50817e-05
2.29336e-05
2.11508e-05
1.96508e-05
1.83716e-05
1.72635e-05
1.62937e-05
1.54502e-05
1.47226e-05
1.40882e-05
1.35336e-05
1.30695e-05
1.27049e-05
4.5356e-05
2.3208e-05
1.65396e-05
1.36493e-05
1.18966e-05
1.06844e-05
9.76077e-06
9.05714e-06
8.49479e-06
8.03145e-06
7.64077e-06
7.31261e-06
7.02537e-06
6.76202e-06
6.53145e-06
6.33207e-06
6.16026e-06
6.0165e-06
5.92175e-06
5.84854e-06
0.000107685
6.77183e-05
5.06311e-05
4.14159e-05
3.54049e-05
3.10367e-05
2.77138e-05
2.50817e-05
2.29336e-05
2.11508e-05
1.96508e-05
1.83716e-05
1.72635e-05
1.62934e-05
1.54503e-05
1.47228e-05
1.40884e-05
1.35337e-05
1.30696e-05
1.27052e-05
0.000160509
0.00010736
8.07408e-05
6.55975e-05
5.54895e-05
4.83024e-05
4.31308e-05
3.90789e-05
3.57388e-05
3.29488e-05
3.05769e-05
2.85335e-05
2.67719e-05
2.5243e-05
2.39037e-05
2.27218e-05
2.16755e-05
2.07448e-05
1.99149e-05
1.92428e-05
0.000198681
0.0001383
0.000105187
8.55268e-05
7.25011e-05
6.28899e-05
5.60607e-05
5.07587e-05
4.63872e-05
4.27204e-05
3.96229e-05
3.69518e-05
3.46278e-05
3.25945e-05
3.08054e-05
2.92211e-05
2.78093e-05
2.65416e-05
2.53985e-05
2.44059e-05
0.000218609
0.000155003
0.000118661
9.65068e-05
8.18822e-05
7.08354e-05
6.30852e-05
5.71429e-05
5.22475e-05
4.80949e-05
4.45803e-05
4.15687e-05
3.89472e-05
3.66507e-05
3.46265e-05
3.28313e-05
3.12289e-05
2.97894e-05
2.84973e-05
2.74553e-05
0.000218609
0.000155003
0.000118661
9.65069e-05
8.18823e-05
7.08355e-05
6.30855e-05
5.71433e-05
5.22482e-05
4.80959e-05
4.4582e-05
4.15712e-05
3.8951e-05
3.66565e-05
3.46354e-05
3.28459e-05
3.12525e-05
2.98272e-05
2.85592e-05
2.75683e-05
0.000198681
0.0001383
0.000105187
8.55269e-05
7.25013e-05
6.28903e-05
5.60613e-05
5.07596e-05
4.63885e-05
4.27224e-05
3.96262e-05
3.69567e-05
3.46352e-05
3.26057e-05
3.08228e-05
2.92493e-05
2.78548e-05
2.66155e-05
2.55136e-05
2.45619e-05
0.000160509
0.00010736
8.07409e-05
6.55976e-05
5.54897e-05
4.83027e-05
4.31312e-05
3.90795e-05
3.57398e-05
3.29507e-05
3.05796e-05
2.85375e-05
2.6778e-05
2.52523e-05
2.39182e-05
2.27453e-05
2.17141e-05
2.0809e-05
2.00265e-05
1.94142e-05
0.000107685
6.77183e-05
5.06311e-05
4.14159e-05
3.54049e-05
3.10367e-05
2.77138e-05
2.50818e-05
2.29337e-05
2.11511e-05
1.96514e-05
1.83726e-05
1.72653e-05
1.62974e-05
1.5456e-05
1.47325e-05
1.41068e-05
1.35712e-05
1.31465e-05
1.28456e-05
4.5356e-05
2.3208e-05
1.65396e-05
1.36493e-05
1.18966e-05
1.06844e-05
9.76078e-06
9.05714e-06
8.49479e-06
8.03145e-06
7.64075e-06
7.31264e-06
7.02531e-06
6.7621e-06
6.53141e-06
6.33204e-06
6.16023e-06
6.01648e-06
5.92179e-06
5.84881e-06
5.50487e-06
5.1131e-06
4.74639e-06
4.51442e-06
4.37136e-06
4.27344e-06
4.20127e-06
4.14176e-06
4.09081e-06
4.04604e-06
4.00516e-06
3.96708e-06
3.92955e-06
3.89326e-06
3.85733e-06
3.82459e-06
3.79219e-06
3.76243e-06
3.73397e-06
3.70633e-06
3.68051e-06
3.65638e-06
3.63401e-06
3.61301e-06
3.59146e-06
3.57095e-06
3.55063e-06
3.53106e-06
3.51143e-06
3.49317e-06
3.47407e-06
3.45589e-06
3.43798e-06
3.42004e-06
3.4032e-06
3.38618e-06
3.36999e-06
3.35359e-06
3.33941e-06
3.31451e-06
1.04861e-05
9.96285e-06
9.52181e-06
9.18953e-06
8.95237e-06
8.75467e-06
8.59786e-06
8.46573e-06
8.34754e-06
8.23976e-06
8.13603e-06
8.04087e-06
7.94916e-06
7.8602e-06
7.77286e-06
7.69309e-06
7.61688e-06
7.54621e-06
7.47987e-06
7.41616e-06
7.3557e-06
7.29845e-06
7.24658e-06
7.1989e-06
7.15278e-06
7.1073e-06
7.06304e-06
7.02e-06
6.9779e-06
6.93731e-06
6.8969e-06
6.85699e-06
6.81795e-06
6.78025e-06
6.74355e-06
6.70804e-06
6.67322e-06
6.63894e-06
6.60614e-06
6.56874e-06
1.52668e-05
1.47455e-05
1.4293e-05
1.39235e-05
1.35486e-05
1.32206e-05
1.29336e-05
1.2683e-05
1.24603e-05
1.22594e-05
1.2077e-05
1.19083e-05
1.17541e-05
1.16008e-05
1.14567e-05
1.13262e-05
1.12023e-05
1.10877e-05
1.09785e-05
1.08735e-05
1.07668e-05
1.0662e-05
1.05656e-05
1.04782e-05
1.03971e-05
1.03174e-05
1.02402e-05
1.01657e-05
1.00933e-05
1.00238e-05
9.95527e-06
9.88902e-06
9.82513e-06
9.76315e-06
9.70401e-06
9.64705e-06
9.59238e-06
9.53851e-06
9.4872e-06
9.43353e-06
2.04917e-05
1.91133e-05
1.8357e-05
1.77772e-05
1.72797e-05
1.68431e-05
1.64528e-05
1.61007e-05
1.57797e-05
1.54848e-05
1.52121e-05
1.49592e-05
1.47243e-05
1.45056e-05
1.43043e-05
1.41153e-05
1.39378e-05
1.37728e-05
1.36157e-05
1.34517e-05
1.32998e-05
1.31602e-05
1.30255e-05
1.28981e-05
1.27771e-05
1.26617e-05
1.25527e-05
1.24479e-05
1.2346e-05
1.2251e-05
1.21563e-05
1.20608e-05
1.19777e-05
1.1887e-05
1.18155e-05
1.17307e-05
1.1664e-05
1.15893e-05
1.15222e-05
1.14499e-05
2.32222e-05
2.20536e-05
2.11618e-05
2.0429e-05
1.9805e-05
1.92631e-05
1.87833e-05
1.83505e-05
1.79539e-05
1.75877e-05
1.72481e-05
1.69319e-05
1.66367e-05
1.63648e-05
1.61107e-05
1.58731e-05
1.56521e-05
1.54462e-05
1.52512e-05
1.50681e-05
1.48941e-05
1.47376e-05
1.45678e-05
1.44109e-05
1.42628e-05
1.41232e-05
1.39903e-05
1.38646e-05
1.37435e-05
1.36327e-05
1.35222e-05
1.3414e-05
1.33164e-05
1.32099e-05
1.31303e-05
1.30301e-05
1.29482e-05
1.28634e-05
1.27855e-05
1.27112e-05
2.40343e-05
2.29846e-05
2.21143e-05
2.13682e-05
2.07132e-05
2.0131e-05
1.96091e-05
1.91357e-05
1.86989e-05
1.82929e-05
1.79161e-05
1.7566e-05
1.72372e-05
1.69369e-05
1.6657e-05
1.6396e-05
1.61526e-05
1.59261e-05
1.57156e-05
1.55208e-05
1.53383e-05
1.51675e-05
1.50056e-05
1.48625e-05
1.47025e-05
1.45441e-05
1.4398e-05
1.42646e-05
1.4138e-05
1.40246e-05
1.39144e-05
1.3805e-05
1.37214e-05
1.35569e-05
1.35451e-05
1.33863e-05
1.33394e-05
1.32439e-05
1.31611e-05
1.30843e-05
2.27715e-05
2.19815e-05
2.12368e-05
2.0551e-05
1.99215e-05
1.93453e-05
1.88157e-05
1.83325e-05
1.78884e-05
1.74799e-05
1.71062e-05
1.67628e-05
1.64452e-05
1.61571e-05
1.58905e-05
1.5643e-05
1.54137e-05
1.52006e-05
1.50023e-05
1.48192e-05
1.46506e-05
1.44896e-05
1.43382e-05
1.41876e-05
1.40415e-05
1.38976e-05
1.37644e-05
1.3644e-05
1.35258e-05
1.34196e-05
1.33162e-05
1.3213e-05
1.31288e-05
1.3008e-05
1.29449e-05
1.28518e-05
1.27763e-05
1.26961e-05
1.26185e-05
1.25444e-05
2.0572e-05
1.96695e-05
1.88626e-05
1.81483e-05
1.75111e-05
1.69648e-05
1.64628e-05
1.60155e-05
1.56216e-05
1.52689e-05
1.49554e-05
1.46686e-05
1.44057e-05
1.41659e-05
1.39443e-05
1.37379e-05
1.35498e-05
1.33745e-05
1.3211e-05
1.30578e-05
1.29193e-05
1.27749e-05
1.26341e-05
1.25151e-05
1.23989e-05
1.22899e-05
1.21848e-05
1.20873e-05
1.19848e-05
1.18914e-05
1.18045e-05
1.17256e-05
1.16477e-05
1.15713e-05
1.14971e-05
1.14249e-05
1.13548e-05
1.12844e-05
1.12159e-05
1.11489e-05
1.66506e-05
1.57062e-05
1.48981e-05
1.42268e-05
1.36353e-05
1.31873e-05
1.2824e-05
1.25125e-05
1.22457e-05
1.20063e-05
1.17895e-05
1.15924e-05
1.14119e-05
1.12488e-05
1.10901e-05
1.0934e-05
1.0797e-05
1.06677e-05
1.05492e-05
1.04351e-05
1.03315e-05
1.02248e-05
1.01299e-05
1.00443e-05
9.96182e-06
9.88281e-06
9.80752e-06
9.73588e-06
9.66683e-06
9.60428e-06
9.54341e-06
9.48433e-06
9.42642e-06
9.37043e-06
9.31588e-06
9.26236e-06
9.21013e-06
9.15755e-06
9.10625e-06
9.05406e-06
1.1269e-05
1.0601e-05
9.96965e-06
9.45322e-06
9.05687e-06
8.76538e-06
8.5572e-06
8.39231e-06
8.25282e-06
8.12838e-06
8.00897e-06
7.90462e-06
7.79954e-06
7.70109e-06
7.60526e-06
7.51577e-06
7.4323e-06
7.35374e-06
7.28156e-06
7.21302e-06
7.14991e-06
7.09336e-06
7.04122e-06
6.99459e-06
6.94785e-06
6.90287e-06
6.85938e-06
6.81759e-06
6.77696e-06
6.73945e-06
6.70149e-06
6.66398e-06
6.62738e-06
6.59149e-06
6.55566e-06
6.52107e-06
6.48789e-06
6.45519e-06
6.42387e-06
6.38832e-06
5.50517e-06
5.11335e-06
4.74606e-06
4.51504e-06
4.36701e-06
4.26905e-06
4.1977e-06
4.13916e-06
4.08966e-06
4.04651e-06
4.00652e-06
3.96983e-06
3.93203e-06
3.89597e-06
3.86071e-06
3.8277e-06
3.79572e-06
3.76573e-06
3.7373e-06
3.70982e-06
3.68347e-06
3.65934e-06
3.63637e-06
3.61546e-06
3.59365e-06
3.57338e-06
3.55301e-06
3.53355e-06
3.51392e-06
3.4956e-06
3.47646e-06
3.45833e-06
3.44034e-06
3.42243e-06
3.40491e-06
3.38775e-06
3.37243e-06
3.3561e-06
3.34214e-06
3.31707e-06
1.12699e-05
1.05995e-05
9.96557e-06
9.44744e-06