/*--------------------------------*- C++ -*----------------------------------*\
| =========                 |                                                 |
| \\      /  F ield         | OpenFOAM: The Open Source CFD Toolbox           |
|  \\    /   O peration     | Version:  2212                                  |
|   \\  /    A nd           | Website:  www.openfoam.com                      |
|    \\/     M anipulation  |                                                 |
\*---------------------------------------------------------------------------*/
FoamFile
{
    version     2.0;
    format      ascii;
    arch        "LSB;label=32;scalar=64";
    class       volScalarField;
    location    "2.6";
    object      p;
}
// * * * * * * * * * * * * * * * * * * * * * * * * * * * * * * * * * * * * * //

dimensions      [0 2 -2 0 0 0 0];

internalField   nonuniform List<scalar> 
6840
(
0.0178821
0.0107676
0.00847619
0.00793836
0.00766398
0.00744175
0.00725507
0.00708857
0.00692731
0.0067677
0.00660981
0.00645338
0.00629707
0.00613958
0.00598072
0.00581932
0.00565426
0.0054798
0.00524841
0.00480764
0.0107033
0.0099694
0.00887649
0.0082105
0.00780788
0.00753408
0.0073228
0.00713641
0.00696174
0.00679397
0.00663054
0.00646948
0.00630878
0.00614713
0.005984
0.00581755
0.00564253
0.00544355
0.0051762
0.0047269
0.010355
0.00950346
0.00873918
0.00818001
0.00780381
0.0075357
0.00731992
0.0071268
0.00694805
0.00677897
0.00661454
0.00645242
0.00629178
0.00613167
0.00597039
0.00580539
0.00563207
0.0054449
0.00523834
0.00500281
0.0099457
0.00918297
0.00856419
0.00811285
0.00776885
0.00749977
0.00728007
0.00709113
0.00692308
0.00676529
0.00660904
0.0064528
0.00629713
0.00614228
0.00598799
0.00583381
0.00567947
0.00552536
0.00537479
0.00523727
0.00981152
0.00907033
0.00848215
0.00807403
0.00775208
0.00748535
0.0072638
0.00707315
0.00690237
0.00674566
0.00659579
0.00644593
0.00629533
0.00614591
0.00599968
0.0058584
0.0057246
0.00560012
0.00548664
0.00538935
0.00981154
0.00907036
0.00848219
0.00807409
0.00775217
0.00748549
0.00726404
0.00707354
0.00690303
0.00674675
0.00659758
0.0064489
0.00630023
0.00615399
0.00601343
0.00588227
0.00576532
0.00566807
0.00560152
0.00558132
0.00994577
0.00918304
0.00856428
0.00811297
0.00776904
0.00750009
0.00728061
0.00709205
0.00692461
0.0067678
0.00661316
0.00645953
0.00630808
0.00616021
0.0060179
0.0058846
0.00576559
0.00566866
0.00561143
0.00561959
0.010355
0.00950352
0.00873926
0.00818013
0.007804
0.00753604
0.00732048
0.00712772
0.00694955
0.00678145
0.00661863
0.00645907
0.00630251
0.00614908
0.0059989
0.00585233
0.00571008
0.00557694
0.00546954
0.00542157
0.0107033
0.00996943
0.00887653
0.00821056
0.00780798
0.00753425
0.00732309
0.00713691
0.00696257
0.00679535
0.00663278
0.00647315
0.006315
0.00615777
0.00600151
0.00584607
0.00568926
0.00552561
0.00533678
0.00506719
0.0178821
0.0107676
0.00847619
0.00793836
0.00766398
0.00744175
0.00725507
0.00708857
0.00692731
0.0067677
0.00660982
0.00645339
0.00629707
0.0061396
0.00598077
0.00581936
0.00565431
0.00547988
0.00524854
0.00480782
0.0107033
0.00996943
0.00887653
0.00821056
0.00780798
0.00753425
0.00732309
0.00713691
0.00696257
0.00679536
0.00663278
0.00647315
0.006315
0.00615774
0.00600146
0.00584602
0.00568921
0.00552552
0.00533662
0.00506694
0.00998667
0.00995496
0.00922673
0.00851622
0.00806984
0.00775386
0.00749491
0.00726717
0.00706245
0.00687385
0.00669583
0.00652446
0.00635649
0.00619001
0.00602389
0.00585619
0.00568361
0.00550311
0.00532855
0.00523596
0.00906118
0.00918736
0.00888445
0.00846822
0.00810104
0.00778235
0.00750368
0.00726304
0.00705013
0.00685506
0.00667096
0.00649438
0.00632302
0.00615462
0.00598704
0.00581824
0.00564649
0.00547136
0.00529903
0.00515382
0.0086428
0.0086863
0.00852071
0.00825776
0.00797735
0.00770597
0.0074549
0.00722841
0.00702518
0.00683825
0.00666054
0.00648896
0.00632212
0.00615846
0.0059965
0.00583524
0.00567424
0.00551418
0.00535742
0.00520586
0.00842686
0.00844869
0.00832148
0.00810396
0.00787154
0.0076424
0.0074196
0.00720649
0.00700583
0.00681872
0.00664266
0.00647443
0.0063125
0.00615529
0.00600189
0.00585337
0.00571083
0.00557467
0.0054465
0.00532538
0.00842691
0.00844874
0.00832155
0.00810407
0.0078717
0.00764262
0.00741994
0.00720701
0.00700663
0.00682004
0.00664487
0.00647815
0.00631836
0.00616392
0.00601512
0.00587441
0.00574324
0.00562236
0.0055157
0.00542038
0.00864289
0.0086864
0.00852085
0.00825794
0.00797761
0.00770634
0.00745548
0.00722934
0.00702672
0.00684089
0.00666504
0.00649626
0.00633313
0.0061749
0.00602205
0.00587546
0.00573598
0.00560476
0.00548592
0.00538108
0.00906123
0.00918742
0.00888454
0.00846833
0.00810119
0.00778259
0.00750409
0.00726374
0.00705132
0.00685699
0.00667398
0.00649907
0.00633036
0.00616616
0.00600488
0.00584538
0.00568624
0.00552595
0.00536609
0.00520913
0.00998667
0.00995496
0.00922673
0.00851622
0.00806985
0.00775386
0.00749491
0.00726717
0.00706246
0.00687386
0.00669584
0.00652447
0.00635651
0.00619005
0.00602394
0.00585625
0.00568368
0.00550321
0.0053287
0.00523615
0.0107033
0.0099694
0.0088765
0.00821051
0.00780788
0.00753408
0.00732281
0.00713642
0.00696174
0.00679398
0.00663055
0.00646949
0.0063088
0.00614716
0.00598405
0.00581761
0.00564259
0.00544364
0.00517632
0.00472705
0.010355
0.00950353
0.00873926
0.00818013
0.00780401
0.00753604
0.00732048
0.00712772
0.00694955
0.00678145
0.00661863
0.00645906
0.0063025
0.00614905
0.00599886
0.00585229
0.00571003
0.00557684
0.00546937
0.00542128
0.00906123
0.00918742
0.00888454
0.00846833
0.00810119
0.00778259
0.00750409
0.00726374
0.00705132
0.00685699
0.00667397
0.00649905
0.00633033
0.00616613
0.00600485
0.00584533
0.00568618
0.00552587
0.00536598
0.00520898
0.00849172
0.00859269
0.00848112
0.00825564
0.00799988
0.00774147
0.00748306
0.0072414
0.00702345
0.00682308
0.00663531
0.00645692
0.00628515
0.00611782
0.00595333
0.00579049
0.00562854
0.00546896
0.0053169
0.0051705
0.00812371
0.00819178
0.00813939
0.00799239
0.00780749
0.00760234
0.00739166
0.00718472
0.0069835
0.0067909
0.00660802
0.00643297
0.0062637
0.00609874
0.00593693
0.00577719
0.00561841
0.0054605
0.00530494
0.00514791
0.00794068
0.00800512
0.00797565
0.0078508
0.00769178
0.00751812
0.00733187
0.0071439
0.00695779
0.00677438
0.00659518
0.00642115
0.0062527
0.00608983
0.00593254
0.00577993
0.00563014
0.005482
0.00533689
0.00518902
0.00794072
0.00800515
0.00797569
0.00785089
0.00769194
0.00751834
0.00733215
0.00714429
0.00695837
0.00677527
0.00659653
0.00642317
0.00625564
0.00609418
0.00593902
0.00578941
0.00564316
0.00549854
0.00535556
0.00520358
0.00812377
0.00819184
0.00813947
0.00799253
0.00780769
0.00760261
0.00739202
0.00718526
0.00698434
0.00679223
0.00661015
0.00643629
0.00626871
0.00610623
0.00594813
0.00579367
0.00564214
0.0054935
0.00534888
0.00519899
0.00849172
0.00859269
0.00848113
0.00825564
0.00799988
0.00774148
0.00748306
0.00724141
0.00702346
0.00682309
0.00663532
0.00645693
0.00628517
0.00611783
0.00595335
0.00579053
0.00562858
0.005469
0.00531695
0.00517056
0.00906118
0.00918736
0.00888446
0.00846822
0.00810104
0.00778235
0.00750369
0.00726305
0.00705014
0.00685507
0.00667097
0.0064944
0.00632304
0.00615464
0.00598706
0.00581829
0.00564656
0.00547144
0.00529912
0.00515392
0.010355
0.00950346
0.00873918
0.00818002
0.00780382
0.00753571
0.00731993
0.00712681
0.00694806
0.00677898
0.00661456
0.00645244
0.0062918
0.0061317
0.00597042
0.00580543
0.00563213
0.00544497
0.00523844
0.00500293
0.00994578
0.00918304
0.00856428
0.00811298
0.00776904
0.00750009
0.00728061
0.00709205
0.00692462
0.00676781
0.00661315
0.00645952
0.00630807
0.00616018
0.00601787
0.00588456
0.00576553
0.00566857
0.00561125
0.00561928
0.0086429
0.0086864
0.00852085
0.00825794
0.00797761
0.00770634
0.00745548
0.00722934
0.00702672
0.00684088
0.00666503
0.00649624
0.00633311
0.00617488
0.00602203
0.00587542
0.00573593
0.00560472
0.0054859
0.00538112
0.00812377
0.00819184
0.00813947
0.00799253
0.00780769
0.00760261
0.00739202
0.00718526
0.00698433
0.00679222
0.00661014
0.00643628
0.00626869
0.00610622
0.00594812
0.00579365
0.00564212
0.00549349
0.00534889
0.00519906
0.00782585
0.00788499
0.00787306
0.00777766
0.00763804
0.00747256
0.00729236
0.00710789
0.0069239
0.00674351
0.00656835
0.00639825
0.00623258
0.00607074
0.00591214
0.00575594
0.00560116
0.00544746
0.0052956
0.00513732
0.00767474
0.00773763
0.00774139
0.00766774
0.00754762
0.00740124
0.00723835
0.00706694
0.00689279
0.0067192
0.00654801
0.00638008
0.00621575
0.006055
0.00589764
0.00574299
0.00559002
0.00543865
0.00529036
0.00513638
0.00767476
0.00773765
0.00774141
0.00766777
0.00754766
0.0074013
0.00723845
0.00706707
0.00689298
0.00671946
0.00654836
0.00638057
0.00621643
0.00605599
0.00589904
0.0057448
0.00559205
0.00544049
0.00529095
0.00513322
0.00782585
0.00788499
0.00787306
0.00777766
0.00763804
0.00747256
0.00729237
0.00710789
0.00692391
0.00674352
0.00656836
0.00639826
0.00623259
0.00607076
0.00591216
0.00575595
0.00560118
0.00544748
0.0052956
0.00513731
0.00812372
0.00819178
0.00813939
0.00799239
0.00780749
0.00760235
0.00739167
0.00718472
0.00698351
0.00679091
0.00660803
0.00643298
0.00626371
0.00609877
0.00593696
0.00577722
0.00561845
0.00546054
0.00530498
0.00514797
0.0086428
0.00868631
0.00852072
0.00825776
0.00797735
0.00770597
0.0074549
0.00722842
0.00702519
0.00683826
0.00666055
0.00648898
0.00632214
0.00615849
0.00599654
0.00583529
0.00567429
0.00551425
0.0053575
0.00520594
0.00994571
0.00918297
0.00856419
0.00811285
0.00776885
0.00749978
0.00728008
0.00709114
0.00692309
0.0067653
0.00660905
0.00645282
0.00629715
0.00614229
0.00598801
0.00583384
0.00567951
0.00552541
0.00537486
0.00523734
0.00981155
0.00907036
0.0084822
0.00807409
0.00775217
0.0074855
0.00726404
0.00707354
0.00690303
0.00674674
0.00659758
0.00644889
0.00630021
0.00615397
0.0060134
0.00588222
0.00576526
0.00566798
0.00560136
0.00558104
0.00842691
0.00844874
0.00832155
0.00810408
0.0078717
0.00764262
0.00741994
0.00720701
0.00700663
0.00682003
0.00664486
0.00647813
0.00631834
0.00616391
0.0060151
0.00587438
0.0057432
0.00562233
0.00551569
0.00542047
0.00794072
0.00800516
0.0079757
0.00785089
0.00769194
0.00751834
0.00733215
0.00714429
0.00695837
0.00677527
0.00659652
0.00642317
0.00625563
0.00609417
0.00593901
0.0057894
0.00564315
0.00549855
0.00535561
0.00520371
0.00767476
0.00773765
0.00774141
0.00766777
0.00754766
0.0074013
0.00723845
0.00706707
0.00689298
0.00671946
0.00654836
0.00638056
0.00621643
0.00605598
0.00589903
0.0057448
0.00559205
0.00544049
0.00529097
0.00513326
0.00753196
0.00760147
0.00762359
0.00757105
0.0074698
0.00733887
0.00718896
0.00702797
0.00686145
0.00669308
0.00652523
0.00635931
0.00619609
0.00603587
0.0058786
0.0057236
0.0055698
0.00541671
0.00526503
0.0051057
0.00753196
0.00760147
0.00762359
0.00757105
0.0074698
0.00733887
0.00718896
0.00702797
0.00686145
0.00669308
0.00652523
0.00635931
0.00619609
0.00603587
0.0058786
0.0057236
0.0055698
0.0054167
0.00526503
0.00510569
0.00767474
0.00773764
0.00774139
0.00766774
0.00754762
0.00740124
0.00723836
0.00706694
0.00689279
0.00671921
0.00654801
0.00638009
0.00621575
0.006055
0.00589765
0.00574299
0.00559003
0.00543867
0.00529038
0.00513639
0.00794069
0.00800512
0.00797566
0.0078508
0.00769179
0.00751812
0.00733188
0.0071439
0.0069578
0.00677439
0.00659519
0.00642116
0.00625271
0.00608985
0.00593257
0.00577995
0.00563016
0.00548203
0.00533693
0.00518905
0.00842687
0.00844869
0.00832149
0.00810397
0.00787155
0.0076424
0.00741961
0.0072065
0.00700584
0.00681873
0.00664267
0.00647444
0.00631251
0.00615531
0.00600192
0.00585339
0.00571086
0.0055747
0.00544654
0.00532543
0.00981153
0.00907034
0.00848215
0.00807403
0.00775208
0.00748535
0.00726381
0.00707315
0.00690238
0.00674567
0.0065958
0.00644594
0.00629533
0.00614592
0.00599968
0.00585841
0.00572461
0.00560014
0.00548666
0.00538938
0.00981153
0.00907034
0.00848216
0.00807403
0.00775208
0.00748535
0.00726381
0.00707315
0.00690237
0.00674566
0.00659579
0.00644592
0.00629531
0.0061459
0.00599966
0.00585837
0.00572454
0.00560004
0.00548651
0.00538913
0.00842687
0.00844869
0.00832149
0.00810397
0.00787155
0.0076424
0.0074196
0.00720649
0.00700583
0.00681872
0.00664265
0.00647443
0.00631249
0.00615528
0.00600188
0.00585335
0.00571081
0.00557464
0.00544649
0.00532543
0.00794069
0.00800513
0.00797566
0.0078508
0.00769178
0.00751812
0.00733188
0.0071439
0.00695779
0.00677438
0.00659518
0.00642115
0.00625269
0.00608983
0.00593254
0.00577992
0.00563013
0.005482
0.00533689
0.00518903
0.00767474
0.00773764
0.00774139
0.00766774
0.00754762
0.00740124
0.00723836
0.00706694
0.00689279
0.0067192
0.00654801
0.00638008
0.00621574
0.00605499
0.00589764
0.00574298
0.00559002
0.00543865
0.00529037
0.00513639
0.00753196
0.00760147
0.00762359
0.00757105
0.0074698
0.00733887
0.00718896
0.00702797
0.00686145
0.00669308
0.00652523
0.00635931
0.00619609
0.00603587
0.0058786
0.00572361
0.00556981
0.00541671
0.00526504
0.00510572
0.00753196
0.00760147
0.00762359
0.00757105
0.0074698
0.00733887
0.00718896
0.00702797
0.00686145
0.00669308
0.00652523
0.00635931
0.00619609
0.00603587
0.0058786
0.00572361
0.00556981
0.00541671
0.00526504
0.00510571
0.00767476
0.00773765
0.00774141
0.00766777
0.00754766
0.0074013
0.00723845
0.00706708
0.00689298
0.00671946
0.00654836
0.00638057
0.00621643
0.00605599
0.00589904
0.00574481
0.00559207
0.00544051
0.00529098
0.00513326
0.00794072
0.00800515
0.0079757
0.00785089
0.00769194
0.00751834
0.00733215
0.00714429
0.00695838
0.00677528
0.00659653
0.00642318
0.00625564
0.00609419
0.00593902
0.00578942
0.00564318
0.00549858
0.00535562
0.00520368
0.00842691
0.00844874
0.00832155
0.00810407
0.0078717
0.00764262
0.00741994
0.00720701
0.00700663
0.00682004
0.00664487
0.00647814
0.00631836
0.00616392
0.00601512
0.00587441
0.00574324
0.00562238
0.00551577
0.00542056
0.00981155
0.00907036
0.00848219
0.00807409
0.00775217
0.00748549
0.00726404
0.00707354
0.00690303
0.00674675
0.00659759
0.0064489
0.00630022
0.00615398
0.00601342
0.00588225
0.0057653
0.00566805
0.00560149
0.00558129
0.00994571
0.00918297
0.0085642
0.00811286
0.00776885
0.00749978
0.00728008
0.00709114
0.00692309
0.00676529
0.00660903
0.0064528
0.00629713
0.00614227
0.00598798
0.00583379
0.00567943
0.00552532
0.00537474
0.0052372
0.00864281
0.00868631
0.00852072
0.00825776
0.00797735
0.00770597
0.0074549
0.00722842
0.00702519
0.00683825
0.00666054
0.00648896
0.00632212
0.00615846
0.0059965
0.00583525
0.00567425
0.0055142
0.00535744
0.00520587
0.00812372
0.00819178
0.00813939
0.00799239
0.00780749
0.00760235
0.00739167
0.00718472
0.00698351
0.00679091
0.00660802
0.00643297
0.0062637
0.00609875
0.00593694
0.0057772
0.00561843
0.00546051
0.00530493
0.00514784
0.00782585
0.007885
0.00787306
0.00777767
0.00763805
0.00747256
0.00729237
0.00710789
0.00692391
0.00674352
0.00656836
0.00639826
0.00623259
0.00607075
0.00591215
0.00575595
0.00560117
0.00544747
0.0052956
0.0051373
0.00767476
0.00773765
0.00774142
0.00766777
0.00754767
0.00740131
0.00723845
0.00706708
0.00689298
0.00671946
0.00654836
0.00638057
0.00621643
0.00605599
0.00589904
0.00574481
0.00559206
0.00544051
0.00529099
0.00513329
0.00767475
0.00773764
0.00774139
0.00766774
0.00754763
0.00740124
0.00723836
0.00706694
0.00689279
0.0067192
0.00654801
0.00638008
0.00621575
0.006055
0.00589764
0.00574299
0.00559003
0.00543867
0.00529039
0.00513642
0.00782585
0.00788499
0.00787306
0.00777766
0.00763805
0.00747256
0.00729237
0.00710789
0.0069239
0.00674351
0.00656836
0.00639826
0.00623259
0.00607075
0.00591215
0.00575595
0.00560118
0.00544749
0.00529563
0.00513736
0.00812377
0.00819184
0.00813947
0.00799253
0.0078077
0.00760261
0.00739202
0.00718526
0.00698434
0.00679223
0.00661015
0.00643628
0.0062687
0.00610622
0.00594813
0.00579367
0.00564215
0.00549354
0.00534899
0.00519923
0.0086429
0.0086864
0.00852085
0.00825794
0.00797761
0.00770634
0.00745548
0.00722934
0.00702672
0.00684088
0.00666503
0.00649625
0.00633312
0.00617488
0.00602202
0.00587543
0.00573595
0.00560475
0.00548601
0.0053814
0.00994577
0.00918304
0.00856428
0.00811298
0.00776904
0.00750009
0.00728061
0.00709205
0.00692462
0.00676781
0.00661316
0.00645953
0.00630807
0.0061602
0.00601788
0.00588457
0.00576553
0.00566857
0.00561127
0.00561932
0.010355
0.00950347
0.00873918
0.00818002
0.00780382
0.00753571
0.00731993
0.00712681
0.00694806
0.00677898
0.00661455
0.00645242
0.00629178
0.00613167
0.00597038
0.00580537
0.00563206
0.0054449
0.00523837
0.00500291
0.00906119
0.00918736
0.00888446
0.00846822
0.00810105
0.00778235
0.00750369
0.00726305
0.00705014
0.00685507
0.00667096
0.00649438
0.00632302
0.00615462
0.00598705
0.00581826
0.00564653
0.00547142
0.00529913
0.00515394
0.00849172
0.0085927
0.00848113
0.00825565
0.00799989
0.00774148
0.00748307
0.00724141
0.00702346
0.00682309
0.00663532
0.00645692
0.00628516
0.00611783
0.00595335
0.00579052
0.00562858
0.00546901
0.00531695
0.00517051
0.00812378
0.00819184
0.00813948
0.00799253
0.0078077
0.00760261
0.00739202
0.00718526
0.00698434
0.00679223
0.00661015
0.00643629
0.0062687
0.00610624
0.00594814
0.00579367
0.00564214
0.0054935
0.0053489
0.00519902
0.00794073
0.00800516
0.0079757
0.00785089
0.00769194
0.00751834
0.00733215
0.00714429
0.00695838
0.00677528
0.00659653
0.00642317
0.00625564
0.00609419
0.00593902
0.00578941
0.00564317
0.00549858
0.00535564
0.00520375
0.00794069
0.00800513
0.00797566
0.0078508
0.00769179
0.00751812
0.00733188
0.0071439
0.00695779
0.00677438
0.00659518
0.00642116
0.0062527
0.00608984
0.00593255
0.00577993
0.00563014
0.00548201
0.00533692
0.0051891
0.00812372
0.00819178
0.00813939
0.00799239
0.00780749
0.00760235
0.00739167
0.00718472
0.00698351
0.00679091
0.00660802
0.00643297
0.0062637
0.00609875
0.00593694
0.0057772
0.00561842
0.00546051
0.00530496
0.00514795
0.00849172
0.00859269
0.00848113
0.00825565
0.00799988
0.00774148
0.00748306
0.0072414
0.00702346
0.00682308
0.00663531
0.00645692
0.00628515
0.00611781
0.00595333
0.0057905
0.00562856
0.005469
0.00531702
0.00517075
0.00906123
0.00918742
0.00888454
0.00846833
0.00810119
0.00778259
0.00750409
0.00726374
0.00705132
0.00685699
0.00667397
0.00649906
0.00633034
0.00616613
0.00600484
0.00584532
0.00568617
0.00552586
0.00536601
0.00520914
0.010355
0.00950353
0.00873926
0.00818013
0.007804
0.00753604
0.00732048
0.00712772
0.00694955
0.00678145
0.00661863
0.00645906
0.0063025
0.00614906
0.00599887
0.00585228
0.00571
0.00557679
0.00546929
0.00542105
0.0107033
0.00996941
0.0088765
0.00821051
0.00780788
0.00753409
0.00732281
0.00713642
0.00696174
0.00679398
0.00663054
0.00646948
0.00630878
0.00614713
0.005984
0.00581755
0.00564253
0.00544356
0.00517625
0.00472703
0.00998668
0.00995497
0.00922674
0.00851622
0.00806985
0.00775387
0.00749492
0.00726718
0.00706246
0.00687386
0.00669583
0.00652446
0.00635649
0.00619002
0.00602389
0.0058562
0.00568362
0.00550315
0.00532864
0.00523615
0.00906124
0.00918743
0.00888455
0.00846833
0.0081012
0.00778259
0.0075041
0.00726375
0.00705133
0.00685699
0.00667398
0.00649906
0.00633034
0.00616614
0.00600486
0.00584535
0.0056862
0.0055259
0.00536603
0.00520902
0.0086429
0.00868641
0.00852086
0.00825795
0.00797762
0.00770635
0.00745548
0.00722934
0.00702673
0.00684089
0.00666503
0.00649625
0.00633312
0.00617489
0.00602204
0.00587543
0.00573594
0.00560473
0.0054859
0.00538109
0.00842692
0.00844875
0.00832156
0.00810408
0.00787171
0.00764262
0.00741995
0.00720702
0.00700664
0.00682004
0.00664487
0.00647814
0.00631835
0.00616392
0.00601512
0.00587439
0.00574321
0.00562233
0.00551569
0.00542044
0.00842687
0.0084487
0.00832149
0.00810397
0.00787155
0.0076424
0.00741961
0.0072065
0.00700584
0.00681873
0.00664266
0.00647443
0.0063125
0.00615529
0.00600189
0.00585335
0.00571081
0.00557464
0.00544648
0.00532543
0.00864281
0.00868631
0.00852072
0.00825777
0.00797735
0.00770597
0.00745491
0.00722842
0.00702519
0.00683825
0.00666054
0.00648897
0.00632212
0.00615846
0.00599651
0.00583524
0.00567423
0.00551417
0.00535741
0.00520586
0.00906118
0.00918736
0.00888446
0.00846822
0.00810104
0.00778235
0.00750369
0.00726304
0.00705014
0.00685506
0.00667096
0.00649438
0.00632302
0.00615461
0.00598702
0.00581824
0.00564649
0.00547136
0.00529905
0.00515385
0.00998668
0.00995496
0.00922673
0.00851622
0.00806985
0.00775386
0.00749491
0.00726717
0.00706245
0.00687385
0.00669583
0.00652445
0.00635648
0.00619001
0.00602388
0.00585617
0.00568357
0.00550305
0.00532843
0.00523569
0.0107033
0.00996943
0.00887653
0.00821056
0.00780798
0.00753425
0.00732309
0.00713691
0.00696257
0.00679535
0.00663278
0.00647314
0.00631499
0.00615774
0.00600147
0.00584601
0.00568917
0.00552546
0.00533648
0.00506657
0.0178821
0.0107676
0.0084762
0.00793836
0.00766399
0.00744176
0.00725507
0.00708857
0.00692731
0.0067677
0.00660981
0.00645338
0.00629707
0.00613958
0.00598071
0.0058193
0.00565425
0.0054798
0.00524844
0.00480772
0.0107033
0.00996944
0.00887654
0.00821057
0.00780799
0.00753426
0.0073231
0.00713691
0.00696257
0.00679536
0.00663278
0.00647315
0.006315
0.00615773
0.00600145
0.00584601
0.00568919
0.00552552
0.00533665
0.00506704
0.010355
0.00950353
0.00873927
0.00818014
0.00780401
0.00753605
0.00732049
0.00712773
0.00694956
0.00678145
0.00661863
0.00645907
0.0063025
0.00614904
0.00599885
0.00585228
0.00571001
0.00557683
0.00546939
0.00542136
0.00994578
0.00918305
0.00856429
0.00811299
0.00776905
0.0075001
0.00728062
0.00709206
0.00692462
0.00676781
0.00661316
0.00645953
0.00630807
0.00616019
0.00601787
0.00588456
0.00576552
0.00566857
0.00561127
0.00561933
0.00981155
0.00907037
0.0084822
0.0080741
0.00775218
0.0074855
0.00726405
0.00707355
0.00690304
0.00674675
0.00659759
0.0064489
0.00630022
0.00615397
0.0060134
0.00588223
0.00576527
0.00566798
0.00560136
0.00558106
0.00981153
0.00907034
0.00848216
0.00807404
0.00775209
0.00748536
0.00726381
0.00707315
0.00690238
0.00674567
0.0065958
0.00644593
0.00629532
0.00614591
0.00599967
0.00585838
0.00572455
0.00560004
0.00548651
0.00538912
0.00994571
0.00918297
0.0085642
0.00811286
0.00776885
0.00749978
0.00728008
0.00709114
0.00692309
0.0067653
0.00660904
0.00645281
0.00629713
0.00614227
0.00598798
0.00583379
0.00567944
0.00552531
0.00537472
0.00523715
0.010355
0.00950346
0.00873918
0.00818002
0.00780382
0.00753571
0.00731993
0.0071268
0.00694805
0.00677898
0.00661455
0.00645242
0.00629178
0.00613167
0.00597037
0.00580537
0.00563205
0.00544488
0.00523833
0.00500281
0.0107033
0.0099694
0.00887649
0.00821051
0.00780788
0.00753408
0.0073228
0.00713642
0.00696174
0.00679397
0.00663054
0.00646948
0.00630877
0.00614713
0.005984
0.00581754
0.0056425
0.00544352
0.00517615
0.00472683
0.0178821
0.0107676
0.00847619
0.00793836
0.00766398
0.00744175
0.00725507
0.00708857
0.00692731
0.0067677
0.00660981
0.00645338
0.00629705
0.00613957
0.00598073
0.0058193
0.00565423
0.00547976
0.00524834
0.00480748
0.00562947
0.0049355
0.00449193
0.00436969
0.00427096
0.00413883
0.0040048
0.00387354
0.00374281
0.00361249
0.00348208
0.00335231
0.00322323
0.00309483
0.00296624
0.00283808
0.00271126
0.00258546
0.00246163
0.00233861
0.00221658
0.00209538
0.00197532
0.0018566
0.00173886
0.00162234
0.00150624
0.00139101
0.00127651
0.00116298
0.00105103
0.000939534
0.000828016
0.000716415
0.000605995
0.000496781
0.000387182
0.000276603
0.000167641
5.15672e-05
0.00561561
0.00499262
0.00456538
0.00441237
0.00429356
0.00415893
0.00402311
0.00388925
0.00375563
0.00362205
0.00348833
0.00335545
0.00322318
0.00309174
0.00296107
0.00283156
0.00270384
0.00257746
0.00245326
0.00233014
0.00220807
0.0020875
0.00196857
0.00185058
0.00173317
0.00161664
0.00150049
0.00138528
0.0012709
0.00115759
0.00104585
0.000934722
0.000823638
0.000712365
0.000602289
0.000493502
0.000384199
0.000274124
0.000165179
5.09103e-05
0.0052722
0.00498017
0.0046837
0.00448584
0.00433595
0.00419173
0.00404771
0.00390595
0.00376636
0.00362826
0.00349111
0.0033558
0.00322149
0.00308874
0.00295778
0.00282829
0.00270046
0.00257404
0.00244945
0.00232579
0.00220361
0.0020827
0.00196338
0.00184508
0.00172739
0.00161081
0.00149467
0.00137963
0.00126562
0.00115264
0.00104095
0.000930294
0.000819658
0.000709043
0.000599613
0.000490886
0.000381592
0.000271768
0.000163422
4.99808e-05
0.00501199
0.00490258
0.0047266
0.00454606
0.00438459
0.00423163
0.00408166
0.00393422
0.00378987
0.00364808
0.00350851
0.00337129
0.00323637
0.00310338
0.00297202
0.0028422
0.00271388
0.00258684
0.00246125
0.00233651
0.00221282
0.00208954
0.0019674
0.00184725
0.00172857
0.00161126
0.00149506
0.00138006
0.00126602
0.00115292
0.0010404
0.000929026
0.000817959
0.000707429
0.000598376
0.000489651
0.000380352
0.000270988
0.000163025
4.95835e-05
0.00489563
0.00483498
0.00471176
0.00455048
0.00438889
0.00423389
0.00408275
0.00393528
0.00379095
0.00364917
0.00350984
0.00337302
0.00323893
0.00310678
0.00297604
0.00284669
0.00271872
0.00259201
0.00246651
0.00234215
0.00221907
0.00209716
0.00197613
0.00185607
0.00173711
0.00161941
0.00150296
0.00138772
0.0012736
0.00116009
0.00104668
0.000933881
0.000821791
0.000710842
0.000601461
0.000492171
0.000382184
0.00027206
0.000163476
4.96624e-05
0.00492696
0.00484692
0.00470395
0.00454111
0.0043804
0.00422474
0.00407297
0.0039259
0.00378354
0.00364431
0.00350708
0.0033716
0.0032383
0.0031067
0.00297652
0.0028477
0.00272018
0.00259382
0.00246864
0.00234467
0.00222188
0.00210026
0.00197982
0.00186043
0.00174172
0.00162359
0.00150632
0.00139048
0.00127611
0.00116269
0.00105001
0.00093818
0.000826995
0.000716527
0.000606756
0.000496772
0.000385998
0.000274646
0.00016496
5.06065e-05
0.00502912
0.00489011
0.00471114
0.00453441
0.00436877
0.00421101
0.00405908
0.00391374
0.00377326
0.00363575
0.00350015
0.00336636
0.00323399
0.00310301
0.00297355
0.00284533
0.0027183
0.00259244
0.00246773
0.00234417
0.00222169
0.00210035
0.00198
0.00186059
0.00174182
0.00162383
0.00150668
0.001391
0.00127678
0.00116373
0.00105187
0.000940275
0.000828524
0.000717518
0.000607977
0.000498532
0.000388319
0.00027744
0.000167396
5.22231e-05
0.00520922
0.0049833
0.00473328
0.00452588
0.00434954
0.00418924
0.00403909
0.00389594
0.0037574
0.00362191
0.0034885
0.00335653
0.00322516
0.00309483
0.00296609
0.00283857
0.00271221
0.00258691
0.00246272
0.00233968
0.00221765
0.00209681
0.00197661
0.00185773
0.00174017
0.0016239
0.00150843
0.00139359
0.00127955
0.0011665
0.00105479
0.000943168
0.000830993
0.000719587
0.000610039
0.000500836
0.000391007
0.000280151
0.000169353
5.34296e-05
0.00544973
0.00505529
0.00469647
0.00446728
0.00429304
0.00413926
0.00399716
0.00386238
0.00373134
0.00360181
0.00347293
0.00334476
0.00321784
0.00309149
0.00296484
0.00283782
0.00271173
0.00258644
0.00246234
0.00233952
0.0022174
0.00209633
0.00197606
0.00185755
0.00174039
0.00162473
0.00150951
0.00139455
0.00128013
0.00116659
0.00105467
0.000943045
0.000830976
0.000719375
0.000609359
0.00049941
0.00038933
0.000278859
0.000168059
5.28851e-05
0.00566212
0.00501217
0.00454612
0.00437102
0.00425046
0.00411391
0.00398009
0.00385264
0.00372673
0.00360106
0.00347459
0.00334852
0.00322387
0.00309904
0.00297288
0.00284586
0.00271967
0.0025944
0.00247047
0.00234775
0.00222528
0.00210338
0.00198234
0.00186312
0.00174546
0.00162886
0.00151291
0.00139755
0.0012828
0.00116903
0.00105697
0.000945301
0.000833286
0.000721538
0.000611174
0.000500717
0.000390384
0.000280159
0.00016949
5.35756e-05
0.00562928
0.00493536
0.00449247
0.00437107
0.00427153
0.00413748
0.00400278
0.00387224
0.00374198
0.00361214
0.00348177
0.0033521
0.00322364
0.00309513
0.0029665
0.0028382
0.00271127
0.00258559
0.0024614
0.00233858
0.00221624
0.00209497
0.00197493
0.00185636
0.00173902
0.00162243
0.00150651
0.00139122
0.00127665
0.00116306
0.0010511
0.000939663
0.000828052
0.000716661
0.000606615
0.000496521
0.00038661
0.000276613
0.000167575
5.14665e-05
0.00566248
0.00501245
0.00454559
0.00436948
0.00424943
0.00411493
0.00398214
0.00385421
0.00372779
0.0036016
0.00347505
0.00334896
0.00322373
0.00309897
0.00297277
0.00284586
0.00271969
0.00259427
0.00247065
0.0023477
0.00222553
0.00210359
0.00198247
0.00186306
0.00174513
0.00162867
0.00151261
0.00139732
0.00128264
0.00116889
0.0010568
0.000945077
0.000833178
0.000721185
0.000610376
0.000500805
0.000390906
0.000280054
0.000169382
5.35876e-05
0.00537816
0.00497479
0.00465099
0.00444957
0.00429257
0.00414678
0.00400928
0.00387751
0.00374738
0.00361748
0.00348744
0.00335826
0.00322919
0.00310081
0.00297284
0.0028455
0.0027191
0.0025938
0.00247023
0.00234728
0.00222603
0.0021049
0.00198444
0.00186511
0.00174661
0.00162985
0.00151335
0.0013978
0.00128314
0.00116938
0.00105713
0.00094543
0.000833384
0.000721538
0.000610862
0.000501005
0.000391079
0.000280351
0.000170454
5.41343e-05
0.00513828
0.00490569
0.00467375
0.00447295
0.00430845
0.00415982
0.00401765
0.00388031
0.00374587
0.00361289
0.00348101
0.00334986
0.00321983
0.00309084
0.00296274
0.00283567
0.00270944
0.00258465
0.00246102
0.0023382
0.00221646
0.00209536
0.00197518
0.00185625
0.00173817
0.00162135
0.0015056
0.00139068
0.00127682
0.00116387
0.00105124
0.000939266
0.000827397
0.000716471
0.00060701
0.000497317
0.000386834
0.000276306
0.000167277
5.26187e-05
0.0048885
0.00474766
0.00461772
0.00446152
0.00431041
0.00416897
0.00403032
0.00389329
0.00375787
0.00362371
0.003491
0.0033591
0.00322841
0.00309873
0.00296996
0.0028423
0.00271568
0.00259034
0.00246592
0.00234274
0.00222028
0.00209862
0.00197791
0.00185877
0.00174092
0.00162362
0.0015075
0.00139229
0.00127801
0.00116447
0.00105117
0.000938276
0.000826165
0.000715283
0.000605573
0.000495737
0.00038552
0.000275537
0.000166655
5.3194e-05
0.00484369
0.00469194
0.00458696
0.00445429
0.00431108
0.00417145
0.00403466
0.00389788
0.003762
0.00362761
0.00349466
0.0033628
0.00323181
0.00310182
0.00297298
0.00284534
0.00271887
0.00259359
0.00246932
0.00234616
0.00222381
0.00210225
0.00198178
0.00186251
0.0017442
0.00162666
0.00151043
0.00139555
0.00128151
0.00116779
0.00105436
0.000941369
0.000829464
0.000718412
0.000607705
0.000496949
0.000385892
0.000275126
0.000165735
5.35239e-05
0.00488243
0.0047333
0.00461508
0.00447864
0.00433357
0.00419065
0.00405004
0.00391026
0.00377172
0.00363511
0.00350048
0.00336756
0.00323582
0.00310528
0.00297601
0.00284801
0.00272129
0.00259575
0.00247129
0.00234786
0.00222535