/*--------------------------------*- C++ -*----------------------------------*\
| =========                 |                                                 |
| \\      /  F ield         | OpenFOAM: The Open Source CFD Toolbox           |
|  \\    /   O peration     | Version:  2212                                  |
|   \\  /    A nd           | Website:  www.openfoam.com                      |
|    \\/     M anipulation  |                                                 |
\*---------------------------------------------------------------------------*/
FoamFile
{
    version     2.0;
    format      ascii;
    arch        "LSB;label=32;scalar=64";
    class       surfaceScalarField;
    location    "2.6";
    object      phi;
}
// * * * * * * * * * * * * * * * * * * * * * * * * * * * * * * * * * * * * * //

dimensions      [0 3 -1 0 0 0 0];

oriented        oriented;

internalField   nonuniform List<scalar> 
19019
(
3.3225e-07
1.09688e-09
1.09677e-09
2.79191e-07
2.65297e-08
2.65293e-08
2.49218e-07
1.49867e-08
1.49859e-08
2.29254e-07
9.98246e-09
9.98118e-09
2.14835e-07
7.21099e-09
7.20831e-09
2.032e-07
5.8198e-09
5.81567e-09
1.93772e-07
4.7178e-09
4.70977e-09
1.86004e-07
3.89091e-09
3.87667e-09
1.79356e-07
3.33656e-09
3.31206e-09
1.73527e-07
2.93518e-09
2.89359e-09
1.68355e-07
2.61973e-09
2.55191e-09
1.63736e-07
2.36547e-09
2.25403e-09
1.59575e-07
2.17721e-09
1.98399e-09
1.55808e-07
2.05517e-09
1.7113e-09
1.52456e-07
1.96349e-09
1.38912e-09
1.49564e-07
1.9078e-09
9.84423e-10
1.47283e-07
1.85568e-09
4.25029e-10
1.46726e-07
1.52242e-09
-9.65205e-10
1.50127e-07
5.79041e-10
-3.97998e-09
-1.26171e-08
-2.73713e-08
6.3138e-07
3.58761e-09
7.40285e-09
6.14564e-07
2.26459e-08
2.07001e-08
5.86446e-07
2.43758e-08
1.87288e-08
5.61728e-07
1.88544e-08
1.58463e-08
5.39622e-07
1.55688e-08
1.37483e-08
5.20644e-07
1.3509e-08
1.12884e-08
5.04704e-07
1.19498e-08
8.70813e-09
4.90961e-07
1.0796e-08
6.83819e-09
4.78756e-07
9.94082e-09
5.60032e-09
4.67703e-07
9.22735e-09
4.76114e-09
4.57577e-07
8.59666e-09
4.14863e-09
4.4825e-07
8.02091e-09
3.67163e-09
4.39624e-07
7.4881e-09
3.31476e-09
4.31648e-07
6.98787e-09
3.04374e-09
4.24374e-07
6.48085e-09
2.75674e-09
4.18012e-07
5.89348e-09
2.3764e-09
4.13228e-07
4.98466e-09
1.65484e-09
4.12146e-07
2.77478e-09
-1.70406e-10
4.19562e-07
-1.83869e-09
-4.99775e-09
-1.39541e-08
-2.04604e-08
8.90375e-07
2.85257e-09
6.33232e-09
8.82487e-07
1.34082e-08
1.71256e-08
8.70361e-07
1.78663e-08
1.86353e-08
8.55116e-07
1.69534e-08
1.7146e-08
8.3999e-07
1.53365e-08
1.53588e-08
8.25547e-07
1.4163e-08
1.37882e-08
8.1179e-07
1.33671e-08
1.23402e-08
7.98814e-07
1.26541e-08
1.11178e-08
7.86772e-07
1.1851e-08
1.01322e-08
7.75681e-07
1.09816e-08
9.33684e-09
7.65413e-07
1.01341e-08
8.72972e-09
7.55839e-07
9.31806e-09
8.27689e-09
7.46873e-07
8.52567e-09
7.92888e-09
7.38508e-07
7.71909e-09
7.6338e-09
7.3084e-07
6.81768e-09
7.33162e-09
7.24205e-07
5.62862e-09
6.89918e-09
7.1911e-07
3.93678e-09
6.14289e-09
7.16095e-07
1.22608e-09
4.5643e-09
7.15813e-07
-3.35522e-09
1.7985e-09
-1.19658e-08
-3.90904e-09
1.07432e-06
1.06464e-09
5.56889e-09
1.06824e-06
5.58592e-09
1.39002e-08
1.06138e-06
8.46275e-09
1.62615e-08
1.05339e-06
9.03762e-09
1.59081e-08
1.04511e-06
8.61374e-09
1.50009e-08
1.03723e-06
8.11296e-09
1.39318e-08
1.02985e-06
7.77305e-09
1.29755e-08
1.02286e-06
7.531e-09
1.21128e-08
1.01604e-06
7.32909e-09
1.13425e-08
1.00931e-06
7.01694e-09
1.06887e-08
1.00272e-06
6.53237e-09
1.01922e-08
9.96254e-07
5.9608e-09
9.82511e-09
9.89875e-07
5.34492e-09
9.55967e-09
9.83556e-07
4.66142e-09
9.37657e-09
9.77264e-07
3.86182e-09
9.24742e-09
9.70998e-07
2.77497e-09
9.11964e-09
9.6479e-07
1.20483e-09
8.9404e-09
9.58442e-07
-1.11518e-09
8.68889e-09
9.51196e-07
-4.5397e-09
8.43018e-09
-9.86905e-09
8.5902e-09
1.16914e-06
-1.466e-13
4.90655e-09
1.16312e-06
-6.83733e-13
1.16084e-08
1.15731e-06
-1.5223e-12
1.42756e-08
1.15202e-06
-2.67007e-12
1.43339e-08
1.1469e-06
-4.50913e-12
1.37311e-08
1.14205e-06
-7.718e-12
1.29709e-08
1.13774e-06
-1.33237e-11
1.21035e-08
1.13398e-06
-2.25273e-11
1.13131e-08
1.13068e-06
-3.79399e-11
1.06593e-08
1.12756e-06
-6.34216e-11
1.02067e-08
1.12427e-06
-1.05616e-10
9.92436e-09
1.12067e-06
-1.75298e-10
9.73951e-09
1.11664e-06
-2.90932e-10
9.66285e-09
1.11207e-06
-4.88363e-10
9.72354e-09
1.10681e-06
-8.22555e-10
9.93725e-09
1.10062e-06
-1.36835e-09
1.03387e-08
1.09312e-06
-2.32101e-09
1.10263e-08
1.08377e-06
-3.84706e-09
1.20845e-08
1.07239e-06
-6.63935e-09
1.34728e-08
-1.13218e-08
1.52768e-08
1.16914e-06
-1.06495e-09
4.9066e-09
1.16312e-06
-5.587e-09
1.16086e-08
1.15731e-06
-8.46482e-09
1.42757e-08
1.15201e-06
-9.04112e-09
1.43345e-08
1.1469e-06
-8.62005e-09
1.37328e-08
1.14204e-06
-8.12426e-09
1.29742e-08
1.13771e-06
-7.79277e-09
1.21086e-08
1.13393e-06
-7.56436e-09
1.13215e-08
1.1306e-06
-7.38572e-09
1.06735e-08
1.12742e-06
-7.11009e-09
1.02308e-08
1.12403e-06
-6.68417e-09
9.96319e-09
1.12026e-06
-6.20756e-09
9.80442e-09
1.11594e-06
-5.75054e-09
9.77877e-09
1.11086e-06
-5.34007e-09
9.93853e-09
1.1047e-06
-4.98359e-09
1.03199e-08
1.09697e-06
-4.65771e-09
1.10172e-08
1.08691e-06
-4.48189e-09
1.22176e-08
1.07319e-06
-4.31121e-09
1.41881e-08
1.05402e-06
-4.4664e-09
1.69967e-08
-6.55369e-09
2.15548e-08
1.07432e-06
-2.85255e-09
5.56891e-09
1.06824e-06
-1.34082e-08
1.39003e-08
1.06138e-06
-1.78664e-08
1.62622e-08
1.05338e-06
-1.69536e-08
1.59101e-08
1.04509e-06
-1.53374e-08
1.50047e-08
1.03719e-06
-1.41651e-08
1.39377e-08
1.02979e-06
-1.33709e-08
1.29844e-08
1.02276e-06
-1.26598e-08
1.21273e-08
1.01586e-06
-1.18603e-08
1.13666e-08
1.00902e-06
-1.09965e-08
1.07301e-08
1.00223e-06
-1.0157e-08
1.02632e-08
9.95427e-07
-9.3541e-09
9.94913e-09
9.88486e-07
-8.5854e-09
9.7764e-09
9.81211e-07
-7.82256e-09
9.75744e-09
9.73298e-07
-6.99504e-09
9.92391e-09
9.64278e-07
-5.99057e-09
1.03532e-08
9.53307e-07
-4.73527e-09
1.12249e-08
9.3894e-07
-2.73814e-09
1.27932e-08
9.19292e-07
1.44704e-10
1.5038e-08
2.62239e-09
2.34543e-08
8.90375e-07
-3.58748e-09
6.33241e-09
8.82485e-07
-2.26452e-08
1.71261e-08
8.70357e-07
-2.4375e-08
1.86366e-08
8.55108e-07
-1.8853e-08
1.71483e-08
8.39975e-07
-1.55658e-08
1.53622e-08
8.25521e-07
-1.35041e-08
1.37929e-08
8.11743e-07
-1.19413e-08
1.23478e-08
7.98734e-07
-1.07817e-08
1.11311e-08
7.86637e-07
-9.91664e-09
1.01537e-08
7.75454e-07
-9.18638e-09
9.37245e-09
7.65035e-07
-8.52762e-09
8.78997e-09
7.55209e-07
-7.90966e-09
8.38084e-09
7.45829e-07
-7.3115e-09
8.1062e-09
7.36773e-07
-6.70076e-09
7.93456e-09
7.27932e-07
-6.02103e-09
7.86702e-09
7.19211e-07
-5.17325e-09
7.90441e-09
7.10368e-07
-3.97348e-09
8.08149e-09
7.00715e-07
-1.46528e-09
8.38048e-09
6.88074e-07
3.72206e-09
9.06319e-09
2.00286e-08
1.04618e-08
6.3138e-07
-1.09679e-09
7.40294e-09
6.14563e-07
-2.65293e-08
2.07006e-08
5.86445e-07
-1.49859e-08
1.87296e-08
5.61725e-07
-9.98121e-09
1.58478e-08
5.39617e-07
-7.20836e-09
1.37505e-08
5.20636e-07
-5.81572e-09
1.12926e-08
5.0469e-07
-4.70983e-09
8.71487e-09
4.90936e-07
-3.87673e-09
6.84903e-09
4.78713e-07
-3.31215e-09
5.61833e-09
4.67629e-07
-2.89369e-09
4.79173e-09
4.57447e-07
-2.55203e-09
4.20637e-09
4.48022e-07
-2.25416e-09
3.76973e-09
4.39241e-07
-1.98425e-09
3.45378e-09
4.31025e-07
-1.71144e-09
3.22616e-09
4.23334e-07
-1.38902e-09
3.05912e-09
4.16233e-07
-9.8457e-10
2.91327e-09
4.09994e-07
-4.25363e-10
2.69079e-09
4.0578e-07
9.64766e-10
1.78463e-09
4.06996e-07
3.97998e-09
-1.47385e-09
2.73713e-08
-1.74502e-08
3.3225e-07
1.09686e-09
2.79191e-07
2.65297e-08
2.49218e-07
1.49867e-08
2.29254e-07
9.98244e-09
2.14835e-07
7.21097e-09
2.03199e-07
5.81978e-09
1.93772e-07
4.71778e-09
1.86004e-07
3.8909e-09
1.79356e-07
3.33655e-09
1.73527e-07
2.93517e-09
1.68355e-07
2.61971e-09
1.63735e-07
2.36546e-09
1.59574e-07
2.1773e-09
1.55807e-07
2.05544e-09
1.52454e-07
1.96384e-09
1.49561e-07
1.9084e-09
1.4728e-07
1.85637e-09
1.46721e-07
1.52321e-09
1.50121e-07
5.80487e-10
-1.26143e-08
6.3138e-07
7.40294e-09
3.58746e-09
6.14563e-07
2.07006e-08
2.26452e-08
5.86445e-07
1.87296e-08
2.43749e-08
5.61725e-07
1.58478e-08
1.88529e-08
5.39617e-07
1.37504e-08
1.55658e-08
5.20636e-07
1.12925e-08
1.3504e-08
5.0469e-07
8.71481e-09
1.19412e-08
4.90936e-07
6.84894e-09
1.07816e-08
4.78714e-07
5.61822e-09
9.91649e-09
4.6763e-07
4.7916e-09
9.18618e-09
4.57448e-07
4.20622e-09
8.52737e-09
4.48023e-07
3.7695e-09
7.90935e-09
4.39243e-07
3.45303e-09
7.31121e-09
4.31029e-07
3.22548e-09
6.70007e-09
4.23339e-07
3.0589e-09
6.01992e-09
4.16239e-07
2.91247e-09
5.17187e-09
4.10003e-07
2.68956e-09
3.97158e-09
4.05792e-07
1.78283e-09
1.46267e-09
4.07015e-07
-1.47659e-09
-3.72553e-09
-1.74561e-08
-2.00312e-08
9.23616e-07
7.03392e-09
7.03374e-09
9.25318e-07
1.98499e-08
1.98493e-08
9.17184e-07
2.27968e-08
2.27957e-08
9.04275e-07
2.23025e-08
2.23004e-08
8.90534e-07
2.06216e-08
2.06182e-08
8.7741e-07
1.78557e-08
1.78494e-08
8.65441e-07
1.4701e-08
1.46905e-08
8.54765e-07
1.219e-08
1.21731e-08
8.45329e-07
1.03418e-08
1.03126e-08
8.36991e-07
8.97051e-09
8.92052e-09
8.29568e-07
7.93107e-09
7.84726e-09
8.22883e-07
7.13082e-09
6.99459e-09
8.16856e-07
6.50519e-09
6.28986e-09
8.11501e-07
5.98262e-09
5.64221e-09
8.0688e-07
5.48734e-09
4.94861e-09
8.03108e-07
4.94202e-09
4.1193e-09
8.00314e-07
4.18173e-09
2.95692e-09
7.97881e-07
2.89504e-09
1.15053e-09
7.92806e-07
3.28859e-10
-1.72852e-09
-4.14356e-09
-6.18559e-09
1.1589e-06
5.28134e-09
6.1024e-09
1.1657e-06
1.39985e-08
1.61821e-08
1.16845e-06
1.79774e-08
2.07049e-08
1.16661e-06
1.9178e-08
2.21021e-08
1.16222e-06
1.88747e-08
2.15022e-08
1.15655e-06
1.75431e-08
1.97655e-08
1.1505e-06
1.56803e-08
1.74184e-08
1.14461e-06
1.38761e-08
1.53181e-08
1.13921e-06
1.22669e-08
1.36111e-08
1.13442e-06
1.08554e-08
1.22394e-08
1.13026e-06
9.67624e-09
1.11416e-08
1.12671e-06
8.69354e-09
1.02626e-08
1.12377e-06
7.84555e-09
9.53582e-09
1.12143e-06
7.0581e-09
8.89127e-09
1.11975e-06
6.24204e-09
8.26021e-09
1.11874e-06
5.30484e-09
7.54335e-09
1.11838e-06
4.09866e-09
6.5909e-09
1.11817e-06
2.44028e-09
5.22674e-09
1.11674e-06
1.70331e-10
3.38519e-09
-3.06745e-09
1.60891e-09
1.32763e-06
2.71804e-09
4.93099e-09
1.3354e-06
7.12027e-09
1.30086e-08
1.34287e-06
9.55232e-09
1.72151e-08
1.34848e-06
1.05759e-08
1.88982e-08
1.35198e-06
1.08715e-08
1.94999e-08
1.35377e-06
1.05741e-08
1.91139e-08
1.35444e-06
9.88093e-09
1.80996e-08
1.3546e-06
9.0278e-09
1.68105e-08
1.35458e-06
8.16335e-09
1.5464e-08
1.35454e-06
7.34201e-09
1.42349e-08
1.35457e-06
6.58861e-09
1.32506e-08
1.35472e-06
5.89247e-09
1.24783e-08
1.35502e-06
5.23556e-09
1.18741e-08
1.35549e-06
4.56344e-09
1.13976e-08
1.35617e-06
3.80132e-09
1.10071e-08
1.35705e-06
2.88059e-09
1.06625e-08
1.35807e-06
1.69011e-09
1.03296e-08
1.35908e-06
1.23746e-10
1.00007e-08
1.35989e-06
-1.9478e-09
9.74033e-09
-4.26152e-09
9.97288e-09
1.41518e-06
-2.63664e-13
4.19284e-09
1.42279e-06
-7.56856e-13
1.11159e-08
1.43152e-06
-1.30551e-12
1.50986e-08
1.4398e-06
-2.32586e-12
1.66297e-08
1.44713e-06
-4.17656e-12
1.72765e-08
1.45317e-06
-7.13795e-12
1.75123e-08
1.45801e-06
-1.16568e-11
1.71575e-08
1.46193e-06
-1.89757e-11
1.64449e-08
1.46522e-06
-3.15967e-11
1.55642e-08
1.46812e-06
-5.36179e-11
1.46944e-08
1.47083e-06
-8.98981e-11
1.39007e-08
1.47337e-06
-1.49693e-10
1.32352e-08
1.47573e-06
-2.41025e-10
1.27863e-08
1.47783e-06
-3.8107e-10
1.25595e-08
1.47968e-06
-6.05275e-10
1.24979e-08
1.48124e-06
-9.49361e-10
1.26102e-08
1.48244e-06
-1.47231e-09
1.2992e-08
1.48317e-06
-2.23709e-09
1.37143e-08
1.48324e-06
-3.30125e-09
1.47535e-08
-4.47879e-09
1.6088e-08
1.41518e-06
-2.71835e-09
4.19298e-09
1.42279e-06
-7.12113e-09
1.11162e-08
1.43152e-06
-9.55388e-09
1.50991e-08
1.4398e-06
-1.05788e-08
1.66308e-08
1.44712e-06
-1.08766e-08
1.72792e-08
1.45316e-06
-1.05826e-08
1.75169e-08
1.45798e-06
-9.89499e-09
1.71649e-08
1.46188e-06
-9.05088e-09
1.64565e-08
1.46514e-06
-8.20178e-09
1.55823e-08
1.468e-06
-7.40882e-09
1.47242e-08
1.47063e-06
-6.70149e-09
1.39504e-08
1.47304e-06
-6.07842e-09
1.33217e-08
1.47516e-06
-5.52279e-09
1.29354e-08
1.47693e-06
-5.01091e-09
1.27996e-08
1.4783e-06
-4.52177e-09
1.2873e-08
1.47916e-06
-4.03965e-09
1.32491e-08
1.47939e-06
-3.53751e-09
1.40481e-08
1.47891e-06
-2.97027e-09
1.53982e-08
1.47764e-06
-2.29644e-09
1.72654e-08
-1.68191e-09
1.92354e-08
1.32762e-06
-5.28123e-09
4.93125e-09
1.33539e-06
-1.39983e-08
1.30094e-08
1.34286e-06
-1.79772e-08
1.72167e-08
1.34847e-06
-1.91777e-08
1.89018e-08
1.35196e-06
-1.88742e-08
1.95064e-08
1.35374e-06
-1.75418e-08
1.91239e-08
1.35439e-06
-1.56786e-08
1.8115e-08
1.35451e-06
-1.38744e-08
1.6835e-08
1.35443e-06
-1.22628e-08
1.5502e-08
1.3543e-06
-1.08474e-08
1.42968e-08
1.35417e-06
-9.66262e-09
1.33565e-08
1.35406e-06
-8.66834e-09
1.26555e-08
1.35394e-06
-7.79392e-09
1.21648e-08
1.35378e-06
-6.96332e-09
1.18726e-08
1.3535e-06
-6.10599e-09
1.17883e-08
1.353e-06
-5.1396e-09
1.19506e-08
1.35219e-06
-3.94285e-09
1.24357e-08
1.35104e-06
-2.34072e-09
1.33167e-08
1.3494e-06
-1.46287e-10
1.45265e-08
3.2489e-09
1.57556e-08
1.1589e-06
-7.03374e-09
6.1027e-09
1.1657e-06
-1.98493e-08
1.61832e-08
1.16844e-06
-2.27957e-08
2.07072e-08
1.16661e-06
-2.23005e-08
2.21059e-08
1.16221e-06
-2.06182e-08
2.15079e-08
1.15653e-06
-1.78494e-08
1.97737e-08
1.15046e-06
-1.46906e-08
1.74317e-08
1.14455e-06
-1.21732e-08
1.5341e-08
1.1391e-06
-1.03127e-08
1.36498e-08
1.13425e-06
-8.9207e-09
1.2303e-08
1.12998e-06
-7.84752e-09
1.12464e-08
1.12625e-06
-6.99502e-09
1.04326e-08
1.12304e-06
-6.29097e-09
9.80999e-09
1.12033e-06
-5.64252e-09
9.32938e-09
1.11807e-06
-4.94808e-09
8.96253e-09
1.11629e-06
-4.12024e-09
8.67246e-09
1.11497e-06
-2.95887e-09
8.41266e-09
1.11409e-06
-1.15335e-09
8.08021e-09
1.11387e-06
1.72527e-09
7.40968e-09
6.17947e-09
5.85678e-09
9.23616e-07
-7.40285e-09
7.03392e-09
9.25318e-07
-2.07001e-08
1.98499e-08
9.17184e-07
-1.87288e-08
2.27968e-08
9.04275e-07
-1.58463e-08
2.23025e-08
8.90534e-07
-1.37483e-08
2.06217e-08
8.7741e-07
-1.12884e-08
1.78558e-08
8.65441e-07
-8.70813e-09
1.47011e-08
8.54765e-07
-6.83821e-09
1.21902e-08
8.45329e-07
-5.60033e-09
1.0342e-08
8.3699e-07
-4.76115e-09
8.97081e-09
8.29566e-07
-4.14862e-09
7.93145e-09
8.22881e-07
-3.67163e-09
7.13132e-09
8.16853e-07
-3.31506e-09
6.50629e-09
8.11497e-07
-3.04399e-09
5.98369e-09
8.06876e-07
-2.75643e-09
5.48819e-09
8.03102e-07
-2.3766e-09
4.94366e-09
8.00306e-07
-1.65526e-09
4.18371e-09
7.9787e-07
1.69897e-10
2.89754e-09
7.92792e-07
4.99693e-09
3.31881e-10
2.04587e-08
-4.13742e-09
6.3138e-07
3.5876e-09
6.14564e-07
2.26458e-08
5.86446e-07
2.43758e-08
5.61728e-07
1.88544e-08
5.39621e-07
1.55688e-08
5.20644e-07
1.35091e-08
5.04704e-07
1.19499e-08
4.9096e-07
1.07961e-08
4.78755e-07
9.94098e-09
4.67702e-07
9.22757e-09
4.57576e-07
8.59694e-09
4.48249e-07
8.02122e-09
4.39622e-07
7.48837e-09
4.31645e-07
6.98908e-09
4.24369e-07
6.48305e-09
4.18005e-07
5.89577e-09
4.13219e-07
4.98702e-09
4.12135e-07
2.77756e-09
4.19547e-07
-1.83433e-09
-1.39498e-08
8.90375e-07
6.33241e-09
2.85254e-09
8.82485e-07
1.71261e-08
1.34082e-08
8.70357e-07
1.86366e-08
1.78664e-08
8.55108e-07
1.71483e-08
1.69536e-08
8.39975e-07
1.53621e-08
1.53373e-08
8.25521e-07
1.37929e-08
1.4165e-08
8.11743e-07
1.23478e-08
1.33708e-08
7.98734e-07
1.1131e-08
1.26596e-08
7.86637e-07
1.01536e-08
1.18601e-08
7.75455e-07
9.37228e-09
1.09962e-08
7.65036e-07
8.78974e-09
1.01566e-08
7.55211e-07
8.38045e-09
9.35358e-09
7.45832e-07
8.10559e-09
8.58473e-09
7.36777e-07
7.9339e-09
7.82133e-09
7.27938e-07
7.8659e-09
6.99318e-09
7.19219e-07
7.9025e-09
5.98827e-09
7.1038e-07
8.07843e-09
4.73219e-09
7.00733e-07
8.37572e-09
2.73386e-09
6.88104e-07
9.05595e-09
-1.52423e-10
1.04517e-08
-2.62624e-09
1.1589e-06
6.1027e-09
5.28122e-09
1.1657e-06
1.61832e-08
1.39983e-08
1.16844e-06
2.07072e-08
1.79772e-08
1.16661e-06
2.21058e-08
1.91777e-08
1.16221e-06
2.15078e-08
1.88742e-08
1.15653e-06
1.97735e-08
1.75417e-08
1.15046e-06
1.74315e-08
1.56785e-08
1.14455e-06
1.53408e-08
1.38743e-08
1.13911e-06
1.36495e-08
1.22626e-08
1.13425e-06
1.23026e-08
1.08471e-08
1.12998e-06
1.12459e-08
9.66214e-09
1.12625e-06
1.04318e-08
8.66756e-09
1.12305e-06
9.80874e-09
7.79267e-09
1.12033e-06
9.32856e-09
6.96258e-09
1.11808e-06
8.96173e-09
6.10535e-09
1.11629e-06
8.67045e-09
5.13763e-09
1.11498e-06
8.40946e-09
3.93944e-09
1.11409e-06
8.07604e-09
2.33579e-09
1.11388e-06
7.40467e-09
1.39302e-10
5.84931e-09
-3.25954e-09
1.37712e-06
4.57734e-09
4.57706e-09
1.38565e-06
1.1917e-08
1.19163e-08
1.39417e-06
1.64467e-08
1.64454e-08
1.40126e-06
1.85601e-08
1.85579e-08
1.40642e-06
1.89295e-08
1.89259e-08
1.40952e-06
1.82211e-08
1.82153e-08
1.41095e-06
1.67144e-08
1.67049e-08
1.41154e-06
1.50403e-08
1.50252e-08
1.41184e-06
1.34953e-08
1.34706e-08
1.41211e-06
1.21562e-08
1.21165e-08
1.41253e-06
1.10146e-08
1.09506e-08
1.41322e-06
1.00535e-08
9.95083e-09
1.41424e-06
9.24311e-09
9.07779e-09
1.41564e-06
8.54433e-09
8.28151e-09
1.41742e-06
7.92263e-09
7.5183e-09
1.41957e-06
7.33187e-09
6.72539e-09
1.42202e-06
6.72196e-09
5.8331e-09
1.4245e-06
6.03526e-09
4.78393e-09
1.4265e-06
5.21999e-09
3.57726e-09
4.38695e-09
2.59097e-09
1.53312e-06
2.36588e-09
3.64913e-09
1.54218e-06
6.23841e-09
9.63333e-09
1.55328e-06
8.8726e-09
1.36908e-08
1.56445e-06
1.03459e-08
1.59351e-08
1.57508e-06
1.08979e-08
1.69094e-08
1.58472e-06
1.0752e-08
1.69422e-08
1.59302e-06
1.01394e-08
1.63725e-08
1.6001e-06
9.32501e-09
1.54406e-08
1.60628e-06
8.45006e-09
1.43369e-08
1.6118e-06
7.62283e-09
1.324e-08
1.61694e-06
6.88696e-09
1.22445e-08
1.62185e-06
6.24064e-09
1.13764e-08
1.62668e-06
5.6613e-09
1.06316e-08
1.63151e-06
5.1158e-09
9.99315e-09
1.63643e-06
4.57621e-09
9.43684e-09
1.64148e-06
4.003e-09
8.93485e-09
1.6467e-06
3.36737e-09
8.46436e-09
1.65209e-06
2.62781e-09
8.01921e-09
1.65766e-06
1.76511e-09
7.62855e-09
8.62422e-10
7.52562e-09
1.61424e-06
-1.96085e-13
3.0928e-09
1.62332e-06
-4.86876e-13
8.27389e-09
1.63533e-06
-8.52251e-13
1.19569e-08
1.6482e-06
-1.47067e-12
1.41141e-08
1.66117e-06
-2.52564e-12
1.51998e-08
1.67386e-06
-4.038e-12
1.55826e-08
1.68573e-06
-6.53789e-12
1.543e-08
1.69655e-06
-1.03105e-11
1.49595e-08
1.7063e-06
-1.66941e-11
1.42879e-08
1.71512e-06
-2.72397e-11
1.35181e-08
1.72321e-06
-4.38708e-11
1.27413e-08
1.73073e-06
-6.92921e-11
1.20274e-08
1.73786e-06
-1.06027e-10
1.14281e-08
1.74472e-06
-1.59309e-10
1.09724e-08
1.75136e-06
-2.4071e-10
1.06737e-08
1.75782e-06
-3.72317e-10
1.05286e-08
1.76418e-06
-5.54435e-10
1.05482e-08
1.77058e-06
-7.86634e-10
1.07343e-08
1.77709e-06
-1.04283e-09
1.10484e-08
-1.21233e-09
1.14574e-08
1.61424e-06
-2.36603e-09
3.09297e-09
1.62332e-06
-6.2388e-09
8.27435e-09
1.63533e-06
-8.8733e-09
1.19578e-08
1.64819e-06
-1.03471e-08
1.41157e-08
1.66117e-06
-1.08997e-08
1.52027e-08
1.67385e-06
-1.07547e-08
1.55872e-08
1.68571e-06
-1.01437e-08
1.54367e-08
1.69652e-06
-9.33201e-09
1.49697e-08
1.70624e-06
-8.46138e-09
1.4304e-08
1.71504e-06
-7.64238e-09
1.35439e-08
1.72308e-06
-6.92016e-09
1.2783e-08
1.73053e-06
-6.29475e-09
1.20952e-08
1.73757e-06
-5.7432e-09
1.1537e-08
1.7443e-06
-5.23587e-09
1.11435e-08
1.75076e-06
-4.76188e-09
1.09385e-08
1.757e-06
-4.30513e-09
1.09393e-08
1.76318e-06
-3.84814e-09
1.11675e-08
1.76953e-06
-3.36689e-09
1.16258e-08
1.77638e-06
-2.85177e-09
1.22173e-08
-2.33886e-09
1.27088e-08
1.53312e-06
-4.57707e-09
3.6495e-09
1.54218e-06
-1.19163e-08
9.63433e-09
1.55327e-06
-1.64454e-08
1.36927e-08
1.56445e-06
-1.85579e-08
1.59384e-08
1.57506e-06
-1.89259e-08
1.6915e-08
1.5847e-06
-1.82154e-08
1.69509e-08
1.59299e-06
-1.6705e-08
1.63858e-08
1.60006e-06
-1.50254e-08
1.5462e-08
1.6062e-06
-1.34709e-08
1.43701e-08
1.61168e-06
-1.21168e-08
1.32922e-08
1.61673e-06
-1.0951e-08
1.23285e-08
1.62154e-06
-9.95143e-09
1.1511e-08
1.62619e-06
-9.07861e-09
1.08489e-08
1.63077e-06
-8.2824e-09
1.03409e-08
1.63533e-06
-7.51945e-09
9.98177e-09
1.63993e-06
-6.72723e-09
9.77447e-09
1.64462e-06
-5.83579e-09
9.72775e-09
1.64953e-06
-4.7877e-09
9.83559e-09
1.65477e-06
-3.5825e-09
1.0011e-08
-2.59915e-09
1.0061e-08
1.37712e-06
-6.1024e-09
4.57734e-09
1.38565e-06
-1.61821e-08
1.19171e-08
1.39417e-06
-2.07049e-08
1.64468e-08
1.40126e-06
-2.21021e-08
1.85602e-08
1.40642e-06
-2.15022e-08
1.89297e-08
1.40952e-06
-1.97656e-08
1.82213e-08
1.41095e-06
-1.74184e-08
1.67147e-08
1.41154e-06
-1.53182e-08
1.50406e-08
1.41184e-06
-1.36113e-08
1.34957e-08
1.41211e-06
-1.22396e-08
1.21568e-08
1.41253e-06
-1.11419e-08
1.10154e-08
1.41322e-06
-1.02629e-08
1.00546e-08
1.41424e-06
-9.53621e-09
9.24444e-09
1.41563e-06
-8.89188e-09
8.54582e-09
1.41741e-06
-8.2612e-09
7.92437e-09
1.41957e-06
-7.54469e-09
7.33417e-09
1.42201e-06
-6.59266e-09
6.72482e-09
1.4245e-06
-5.22917e-09
6.03862e-09
1.42649e-06
-3.38853e-09
5.22371e-09
-1.6147e-09
4.39168e-09
1.1589e-06
-6.33232e-09
5.28134e-09
1.1657e-06
-1.71256e-08
1.39985e-08
1.16845e-06
-1.86353e-08
1.79775e-08
1.16661e-06
-1.7146e-08
1.91781e-08
1.16222e-06
-1.53588e-08
1.88749e-08
1.15655e-06
-1.37883e-08
1.75433e-08
1.1505e-06
-1.23402e-08
1.56806e-08
1.14461e-06
-1.11178e-08
1.38764e-08
1.1392e-06
-1.01323e-08
1.22673e-08
1.13442e-06
-9.33691e-09
1.0856e-08
1.13026e-06
-8.7298e-09
9.67694e-09
1.12671e-06
-8.2769e-09
8.69441e-09
1.12376e-06
-7.92875e-09
7.84668e-09
1.12143e-06
-7.63414e-09
7.05987e-09
1.11974e-06
-7.33275e-09
6.24441e-09
1.11874e-06
-6.90033e-09
5.30754e-09
1.11837e-06
-6.14402e-09
4.10168e-09
1.11816e-06
-4.56571e-09
2.44372e-09
1.11673e-06
-1.80066e-09
1.74632e-10
3.90683e-09
-3.06025e-09
8.90375e-07
2.85256e-09
8.82487e-07
1.34082e-08
8.70361e-07
1.78664e-08
8.55116e-07
1.69535e-08
8.39989e-07
1.53366e-08
8.25547e-07
1.41632e-08
8.11789e-07
1.33673e-08
7.98813e-07
1.26544e-08
7.86771e-07
1.18514e-08
7.75679e-07
1.09822e-08
7.65412e-07
1.01348e-08
7.55837e-07
9.31896e-09
7.4687e-07
8.52682e-09
7.38504e-07
7.72083e-09
7.30834e-07
6.82032e-09
7.24197e-07
5.63192e-09
7.191e-07
3.94064e-09
7.16081e-07
1.2307e-09
7.15794e-07
-3.34868e-09
-1.19574e-08
1.07432e-06
5.56891e-09
1.06494e-09
1.06824e-06
1.39003e-08
5.58697e-09
1.06138e-06
1.62622e-08
8.46477e-09
1.05338e-06
1.59101e-08
9.04106e-09
1.04509e-06
1.50047e-08
8.61997e-09
1.03719e-06
1.39377e-08
8.12415e-09
1.02979e-06
1.29843e-08
7.79262e-09
1.02276e-06
1.21272e-08
7.56415e-09
1.01586e-06
1.13665e-08
7.38543e-09
1.00902e-06
1.07299e-08
7.10972e-09
1.00223e-06
1.02629e-08
6.68368e-09
9.95429e-07
9.9487e-09
6.20691e-09
9.88488e-07
9.77572e-09
5.74964e-09
9.81214e-07
9.75645e-09
5.33861e-09
9.73304e-07
9.92239e-09
4.98148e-09
9.64286e-07
1.03508e-08
4.65505e-09
9.53319e-07
1.12211e-08
4.47844e-09
9.38959e-07
1.27868e-08
4.30669e-09
9.19319e-07
1.50276e-08
4.45974e-09
2.3444e-08
6.54926e-09
1.32762e-06
4.93125e-09
2.71834e-09
1.33539e-06
1.30093e-08
7.12111e-09
1.34286e-06
1.72167e-08
9.55384e-09
1.34847e-06
1.89018e-08
1.05787e-08
1.35196e-06
1.95063e-08
1.08765e-08
1.35374e-06
1.91237e-08
1.05825e-08
1.35439e-06
1.81148e-08
9.89482e-09
1.35451e-06
1.68348e-08
9.05065e-09
1.35443e-06
1.55017e-08
8.20145e-09
1.35431e-06
1.42964e-08
7.40838e-09
1.35417e-06
1.33559e-08
6.70086e-09
1.35406e-06
1.26546e-08
6.07753e-09
1.35394e-06
1.21636e-08
5.52155e-09
1.35378e-06
1.18715e-08
5.00963e-09
1.3535e-06
1.17869e-08
4.52025e-09
1.353e-06
1.1948e-08
4.0372e-09
1.3522e-06
1.24318e-08
3.53391e-09
1.35104e-06
1.33113e-08
2.96527e-09
1.3494e-06
1.45195e-08
2.2898e-09
1.57487e-08
1.67399e-09
1.53312e-06
3.64949e-09
2.36602e-09
1.54218e-06
9.6343e-09
6.23877e-09
1.55327e-06
1.36926e-08
8.87327e-09
1.56445e-06
1.59383e-08
1.03471e-08
1.57506e-06
1.69148e-08
1.08996e-08
1.5847e-06
1.69507e-08
1.07546e-08
1.59299e-06
1.63855e-08
1.01436e-08
1.60006e-06
1.54616e-08
9.3318e-09
1.6062e-06
1.43696e-08
8.4611e-09
1.61168e-06
1.32916e-08
7.64199e-09
1.61674e-06
1.23277e-08
6.91962e-09
1.62154e-06
1.151e-08
6.294e-09
1.62619e-06
1.08476e-08
5.74222e-09
1.63077e-06
1.03394e-08
5.23474e-09
1.63533e-06
9.98003e-09
4.76044e-09
1.63993e-06
9.77212e-09
4.30305e-09
1.64463e-06
9.72479e-09
3.84525e-09
1.64953e-06
9.83215e-09
3.36306e-09
1.65477e-06
1.00075e-08
2.84682e-09
1.00581e-08
2.33243e-09
1.68027e-06
1.89106e-09
1.89094e-09
1.68934e-06
5.09936e-09
5.09902e-09
1.7018e-06
7.46427e-09
7.46365e-09
1.71578e-06
8.94609e-09
8.94506e-09
1.73022e-06
9.69305e-09
9.69134e-09
1.74439e-06
9.86128e-09
9.85846e-09
1.75785e-06
9.65315e-09
9.64871e-09
1.77035e-06
9.20081e-09
9.19398e-09
1.78184e-06
8.6163e-09
8.60599e-09
1.7924e-06
7.9936e-09
7.97786e-09
1.8022e-06
7.39829e-09
7.37358e-09
1.8114e-06
6.86339e-09
6.82369e-09
1.82014e-06
6.40039e-09
6.33565e-09
1.82856e-06
6.0077e-09
5.90365e-09
1.83679e-06
5.6739e-09
5.515e-09
1.84495e-06
5.39051e-09
5.16134e-09
1.85315e-06
5.15008e-09
4.83629e-09
1.86153e-06
4.94053e-09
4.53312e-09
1.87018e-06
4.72138e-09
4.25662e-09
4.45535e-09
4.0922e-09
1.7569e-06
-5.03871e-14
1.61315e-09
1.76589e-06
-9.62075e-14
4.38391e-09
1.77878e-06
-1.44651e-13
6.5314e-09
1.79389e-06
-2.10067e-13
7.95048e-09
1.81003e-06
-2.87567e-13
8.75488e-09
1.82639e-06
-3.70741e-13
9.08468e-09
1.8424e-06
-5.06682e-13
9.07108e-09
1.85773e-06
-9.34883e-13
8.83504e-09
1.87217e-06
-1.73399e-12
8.4616e-09
1.88567e-06
-2.90853e-12
8.01701e-09
1.89826e-06
-4.31463e-12
7.55286e-09
1.91005e-06
-5.61742e-12
7.10699e-09
1.92118e-06
-6.22069e-12
6.70549e-09
1.9318e-06
-6.22338e-12
6.36627e-09
1.94205e-06
-8.51524e-12
6.10417e-09
1.95206e-06
-1.69731e-11
5.92474e-09
1.96196e-06
-3.22001e-11
5.82833e-09
1.97188e-06
-4.88587e-11
5.80891e-09
1.98186e-06
-6.62296e-11
5.85288e-09
-8.54188e-11
5.9301e-09
1.7569e-06
-1.89095e-09
1.61327e-09
1.76589e-06
-5.09904e-09
4.38422e-09
1.77878e-06
-7.46368e-09
6.532e-09
1.79389e-06
-8.9451e-09
7.9515e-09
1.81003e-06
-9.6914e-09
8.75653e-09
1.82638e-06
-9.85855e-09
9.08722e-09
1.84239e-06
-9.64884e-09
9.0748e-09
1.85772e-06
-9.19416e-09
8.8406e-09
1.87215e-06
-8.60622e-09
8.47002e-09
1.88564e-06
-7.97818e-09
8.02988e-09
1.89822e-06
-7.374e-09
7.57269e-09
1.91e-06
-6.82425e-09
7.13767e-09
1.92111e-06
-6.3364e-09
6.75289e-09
1.93172e-06
-5.90463e-09
6.43904e-09
1.94195e-06
-5.51628e-09
6.21461e-09
1.95195e-06
-5.16301e-09
6.08608e-09
1.96187e-06
-4.83848e-09
6.05148e-09
1.97189e-06
-4.53595e-09
6.09666e-09
1.98211e-06
-4.26017e-09
6.18425e-09
-4.09638e-09
6.22653e-09
1.68027e-06
-3.64914e-09
1.89107e-09
1.68934e-06
-9.63335e-09
5.09941e-09
1.7018e-06
-1.36908e-08
7.46437e-09
1.71578e-06
-1.59351e-08
8.94625e-09
1.73022e-06
-1.69095e-08
9.69328e-09
1.74439e-06
-1.69423e-08
9.86158e-09
1.75785e-06
-1.63726e-08
9.65354e-09
1.77035e-06
-1.54407e-08
9.20131e-09
1.78184e-06
-1.43371e-08
8.61693e-09
1.7924e-06
-1.32403e-08
7.99439e-09
1.8022e-06
-1.22449e-08
7.39928e-09
1.8114e-06
-1.13768e-08
6.86463e-09
1.82014e-06
-1.06322e-08
6.40193e-09
1.82856e-06
-9.99406e-09
6.00956e-09
1.83679e-06
-9.43808e-09
5.67613e-09
1.84494e-06
-8.93639e-09
5.39315e-09
1.85314e-06
-8.46634e-09
5.15311e-09
1.86152e-06
-8.02184e-09
4.94377e-09
1.87018e-06
-7.63212e-09
4.72452e-09
-7.53057e-09
4.45776e-09
1.53312e-06
-4.93099e-09
2.36589e-09
1.54218e-06
-1.30086e-08
6.23846e-09
1.55328e-06
-1.72151e-08
8.8727e-09
1.56445e-06
-1.88982e-08
1.0346e-08
1.57508e-06
-1.94999e-08
1.08981e-08
1.58472e-06
-1.9114e-08
1.07523e-08
1.59302e-06
-1.80997e-08
1.01398e-08
1.6001e-06
-1.68106e-08
9.32551e-09
1.60628e-06
-1.54642e-08
8.4507e-09
1.6118e-06
-1.42351e-08
7.62366e-09
1.61694e-06
-1.32508e-08
6.888e-09
1.62185e-06
-1.24786e-08
6.24195e-09
1.62667e-06
-1.18743e-08
5.66298e-09
1.63151e-06
-1.13984e-08
5.11797e-09
1.63642e-06
-1.10083e-08
4.57888e-09
1.64148e-06
-1.06636e-08
4.00611e-09
1.6467e-06
-1.03308e-08
3.37094e-09
1.65208e-06
-1.00022e-08
2.6318e-09
1.65765e-06
-9.74254e-09
1.76941e-09
-9.97814e-09
8.66876e-10
1.32763e-06
-5.56889e-09
2.71805e-09
1.3354e-06
-1.39002e-08
7.12031e-09
1.34287e-06
-1.62615e-08
9.5524e-09
1.34848e-06
-1.59081e-08
1.05761e-08
1.35198e-06
-1.50009e-08
1.08717e-08
1.35377e-06
-1.39318e-08
1.05743e-08
1.35444e-06
-1.29755e-08
9.8813e-09
1.35459e-06
-1.21129e-08
9.0283e-09
1.35458e-06
-1.13426e-08
8.16399e-09
1.35454e-06
-1.06888e-08
7.34284e-09
1.35457e-06
-1.01924e-08
6.58967e-09
1.35472e-06
-9.82525e-09
5.8938e-09
1.35501e-06
-9.55975e-09
5.23725e-09
1.35549e-06
-9.37692e-09
4.56597e-09
1.35617e-06
-9.24804e-09
3.80468e-09
1.35705e-06
-9.12018e-09
2.8845e-09
1.35806e-06
-8.94086e-09
1.69473e-09
1.35906e-06
-8.68921e-09
1.28702e-10
1.35987e-06
-8.43081e-09
-1.94138e-09
-8.59276e-09
-4.25308e-09
1.07432e-06
1.06464e-09
1.06824e-06
5.58593e-09
1.06138e-06
8.46279e-09
1.05339e-06
9.03771e-09
1.04511e-06
8.61389e-09
1.03723e-06
8.11318e-09
1.02985e-06
7.77336e-09
1.02286e-06
7.53143e-09
1.01603e-06
7.32967e-09
1.00931e-06
7.01772e-09
1.00272e-06
6.53341e-09
9.96251e-07
5.96217e-09
9.89871e-07
5.3467e-09
9.83552e-07
4.6637e-09
9.77259e-07
3.86482e-09
9.70992e-07
2.77894e-09
9.64781e-07
1.21009e-09
9.58431e-07
-1.10832e-09
9.51182e-07
-4.53104e-09
-9.85683e-09
1.16914e-06
4.9066e-09
1.43226e-13
1.16312e-06
1.16086e-08
6.65109e-13
1.15731e-06
1.42757e-08
1.48405e-12
1.15201e-06
1.43344e-08
2.61797e-12
1.1469e-06
1.37328e-08
4.433e-12
1.14204e-06
1.29741e-08
7.60862e-12
1.13771e-06
1.21085e-08
1.31699e-11
1.13393e-06
1.13214e-08
2.23176e-11
1.1306e-06
1.06734e-08
3.76578e-11
1.12742e-06
1.02306e-08
6.3044e-11
1.12404e-06
9.96293e-09
1.0511e-10
1.12026e-06
9.80405e-09
1.74617e-10
1.11595e-06
9.77815e-09
2.90006e-10
1.11086e-06
9.93749e-09
4.87032e-10
1.1047e-06
1.03183e-08
8.20757e-10
1.09698e-06
1.10147e-08
1.36605e-09
1.08692e-06
1.22138e-08
2.318e-09
1.0732e-06
1.41818e-08
3.84302e-09
1.05404e-06
1.69848e-08
6.63417e-09
2.15437e-08
1.13163e-08
1.41518e-06
4.19298e-09
2.55601e-13
1.42279e-06
1.11162e-08
7.3359e-13
1.43152e-06
1.50991e-08
1.27134e-12
1.4398e-06
1.66308e-08
2.27248e-12
1.44712e-06
1.72791e-08
4.09297e-12
1.45316e-06
1.75168e-08
7.014e-12
1.45798e-06
1.71647e-08
1.14824e-11
1.46188e-06
1.64563e-08
1.87371e-11
1.46514e-06
1.5582e-08
3.1271e-11
1.468e-06
1.47238e-08
5.31734e-11
1.47063e-06
1.39499e-08
8.92892e-11
1.47304e-06
1.33209e-08
1.48857e-10
1.47517e-06
1.29343e-08
2.39903e-10
1.47694e-06
1.27982e-08
3.79645e-10
1.4783e-06
1.28713e-08
6.03485e-10
1.47916e-06
1.32465e-08
9.46969e-10
1.47939e-06
1.40444e-08
1.46918e-09
1.47891e-06
1.53928e-08
2.23317e-09
1.47763e-06
1.72584e-08
3.29675e-09
1.92301e-08
4.47529e-09
1.61424e-06
3.09296e-09
1.86367e-13
1.62332e-06
8.27432e-09
4.64526e-13
1.63533e-06
1.19577e-08
8.18704e-13
1.64819e-06
1.41156e-08
1.41952e-12