/*--------------------------------*- C++ -*----------------------------------*\
| =========                 |                                                 |
| \\      /  F ield         | OpenFOAM: The Open Source CFD Toolbox           |
|  \\    /   O peration     | Version:  2212                                  |
|   \\  /    A nd           | Website:  www.openfoam.com                      |
|    \\/     M anipulation  |                                                 |
\*---------------------------------------------------------------------------*/
FoamFile
{
    version     2.0;
    format      ascii;
    arch        "LSB;label=32;scalar=64";
    class       volVectorField;
    location    "2.6";
    object      U;
}
// * * * * * * * * * * * * * * * * * * * * * * * * * * * * * * * * * * * * * //

dimensions      [0 1 -1 0 0 0 0];

internalField   nonuniform List<vector> 
6840
(
(0.0956456 -0.00836005 -0.00836005)
(0.0904939 0.00152206 0.00152198)
(0.0790684 0.00242979 0.00242963)
(0.0713014 0.00148788 0.00148755)
(0.0661799 0.000830714 0.00083013)
(0.0623234 0.000563964 0.000563024)
(0.0592221 0.000427033 0.000425069)
(0.0566869 0.000325151 0.000321845)
(0.0545532 0.000255021 0.000249625)
(0.0527029 0.000205906 0.00019708)
(0.0510683 0.00017199 0.0001572)
(0.0496129 0.000149449 0.000125205)
(0.0483059 0.000134108 9.62615e-05)
(0.0471217 0.000125319 6.62141e-05)
(0.0460562 0.00012404 2.86557e-05)
(0.045117 0.000132985 -8.46783e-06)
(0.0443378 0.000156165 -7.01642e-05)
(0.0438629 0.000174406 -0.000227465)
(0.0442749 0.000141118 -0.000466482)
(0.0434921 -0.00190263 -0.00320572)
(0.0999088 0.00129701 0.000712553)
(0.0969669 0.00365593 0.0027472)
(0.0935347 0.0026403 0.00211805)
(0.0895895 0.00182054 0.00162037)
(0.0858327 0.001529 0.00139029)
(0.082591 0.00135158 0.00116074)
(0.0798668 0.0011801 0.00089638)
(0.0775696 0.00104181 0.000691126)
(0.0755621 0.000945013 0.000558853)
(0.0737583 0.000869587 0.000477132)
(0.0721136 0.000799576 0.000427521)
(0.0706009 0.000730316 0.000396305)
(0.069203 0.000668318 0.000378369)
(0.0679086 0.000618373 0.000371164)
(0.0667196 0.000575553 0.000363336)
(0.0656514 0.000535723 0.000341939)
(0.0647696 0.000470189 0.000282761)
(0.0642615 0.000322595 6.75488e-05)
(0.0646767 4.69274e-05 -0.000297571)
(0.0625721 -0.000442074 -0.000644615)
(0.099413 0.000345232 0.000270228)
(0.0988664 0.00201903 0.00187486)
(0.0979217 0.00257309 0.00218888)
(0.0963664 0.0023798 0.00190815)
(0.0946345 0.002114 0.00162635)
(0.0929741 0.0019266 0.00141825)
(0.0913672 0.00180107 0.00127062)
(0.0898592 0.00170473 0.00115906)
(0.0884636 0.0016037 0.00106839)
(0.0871729 0.00149249 0.000995917)
(0.0859815 0.00138072 0.000946965)
(0.0848772 0.00127431 0.000917575)
(0.0838449 0.00117128 0.000902536)
(0.0828781 0.00106487 0.000896117)
(0.0819803 0.000946314 0.000891713)
(0.0811731 0.000799728 0.00087478)
(0.0805031 0.000602209 0.000831336)
(0.0800354 0.000245625 0.00069418)
(0.0798434 -0.000426465 0.000438262)
(0.0791337 -0.00208698 -0.000155142)
(0.0995405 0.000245015 0.000321899)
(0.0992576 0.00105548 0.00154093)
(0.0988491 0.00150204 0.00211442)
(0.0981252 0.0015789 0.0020916)
(0.0973376 0.00151385 0.00188616)
(0.0965863 0.00144463 0.001666)
(0.0958676 0.00140696 0.00149834)
(0.0952013 0.00137362 0.00137218)
(0.0945748 0.0013243 0.0012859)
(0.0939332 0.00124727 0.00123117)
(0.0933102 0.00114826 0.00119459)
(0.0927053 0.00103735 0.00117257)
(0.092111 0.000920194 0.00116342)
(0.0915233 0.000794757 0.00116493)
(0.0909392 0.000652515 0.00117346)
(0.0903557 0.000461659 0.00118398)
(0.0897748 0.000194458 0.0011922)
(0.0891948 -0.000200311 0.00120403)
(0.088577 -0.000793861 0.00123491)
(0.0877989 -0.00174267 0.00134094)
(0.0993801 3.37467e-05 5.8922e-05)
(0.0992677 0.000274235 0.0012)
(0.0989804 0.000432043 0.00188847)
(0.0984747 0.000482879 0.00200647)
(0.0979957 0.000477821 0.00191467)
(0.097571 0.000463704 0.00173474)
(0.0971811 0.000449628 0.00154735)
(0.096831 0.000436805 0.00138874)
(0.0965301 0.000426789 0.00127044)
(0.0962741 0.000412472 0.00120037)
(0.0959972 0.000384657 0.00117415)
(0.0956989 0.000343336 0.00117416)
(0.0953756 0.000289643 0.00118723)
(0.0950118 0.000221445 0.00121245)
(0.094596 0.000135824 0.00125747)
(0.0941137 1.64833e-05 0.00133133)
(0.0935411 -0.000168209 0.00144668)
(0.0928348 -0.000458008 0.00161514)
(0.0919337 -0.000925376 0.00183157)
(0.0909206 -0.0017236 0.00211986)
(0.0993802 -3.37837e-05 5.8978e-05)
(0.0992677 -0.000274424 0.00120004)
(0.0989804 -0.000432442 0.0018885)
(0.0984745 -0.000483569 0.00200653)
(0.0979952 -0.000478996 0.00191483)
(0.09757 -0.00046574 0.00173505)
(0.0971793 -0.00045317 0.00154781)
(0.0968279 -0.000442812 0.00138953)
(0.0965249 -0.000436889 0.0012719)
(0.0962652 -0.000429311 0.00120294)
(0.0959819 -0.0004126 0.00117848)
(0.0956729 -0.00038948 0.00118136)
(0.095331 -0.000365901 0.00119991)
(0.0949338 -0.000349286 0.00123722)
(0.094462 -0.00034966 0.00130471)
(0.0938798 -0.000368533 0.00141164)
(0.0931418 -0.000426351 0.00158385)
(0.0921466 -0.000523827 0.00186041)
(0.0907828 -0.000758015 0.00223612)
(0.089252 -0.000955769 0.00286014)
(0.0995405 -0.00024503 0.000321901)
(0.0992576 -0.00105555 0.00154094)
(0.0988488 -0.0015022 0.00211453)
(0.0981246 -0.00157918 0.00209177)
(0.0973364 -0.00151442 0.00188643)
(0.0965839 -0.0014457 0.00166641)
(0.0958635 -0.0014088 0.00149888)
(0.0951943 -0.00137662 0.00137309)
(0.0945628 -0.00132935 0.00128786)
(0.0939126 -0.00125526 0.00123533)
(0.0932756 -0.00116074 0.00120226)
(0.092647 -0.00105684 0.00118681)
(0.0920129 -0.000951837 0.00118788)
(0.0913575 -0.000846967 0.00120669)
(0.0906589 -0.0007355 0.0012488)
(0.0898839 -0.000605729 0.00132533)
(0.0889775 -0.000459926 0.00145925)
(0.0878178 -0.000239862 0.00169593)
(0.0862859 5.90509e-05 0.00200005)
(0.0845276 -0.000189474 0.00340886)
(0.099413 -0.000345215 0.000270235)
(0.0988664 -0.00201895 0.00187492)
(0.0979214 -0.00257294 0.00218907)
(0.0963658 -0.00237954 0.00190848)
(0.0946333 -0.00211358 0.0016268)
(0.0929719 -0.00192591 0.00141891)
(0.0913633 -0.00180003 0.00127171)
(0.0898525 -0.00170303 0.0011609)
(0.088452 -0.00160081 0.00107138)
(0.0871536 -0.00148766 0.00100087)
(0.0859493 -0.00137264 0.000954848)
(0.0848232 -0.00126108 0.000931221)
(0.0837551 -0.0011503 0.000926191)
(0.0827295 -0.00103249 0.000936874)
(0.081733 -0.000896989 0.000963801)
(0.080755 -0.00072915 0.00101034)
(0.0797737 -0.000508347 0.00108595)
(0.0787412 -0.000114898 0.00119844)
(0.077561 0.000570117 0.00141207)
(0.0761443 0.00178517 0.00188088)
(0.0999088 -0.00129699 0.000712566)
(0.0969668 -0.00365579 0.00274728)
(0.0935346 -0.00264007 0.00211821)
(0.0895893 -0.00182014 0.00162068)
(0.0858322 -0.00152822 0.00139073)
(0.0825901 -0.00135036 0.00116154)
(0.0798652 -0.00117783 0.000897741)
(0.0775667 -0.00103789 0.000693287)
(0.0755571 -0.000938315 0.000562417)
(0.0737498 -0.000858182 0.000483076)
(0.0720984 -0.000780215 0.000438816)
(0.0705739 -0.000698364 0.000415534)
(0.0691566 -0.000616664 0.000403616)
(0.0678333 -0.000532706 0.000399857)
(0.0665954 -0.000431816 0.000409347)
(0.0654412 -0.000289827 0.000428381)
(0.0643932 -7.71609e-05 0.000450148)
(0.0635445 0.000313094 0.000405294)
(0.0632156 0.001107 0.000215405)
(0.0621323 0.00388462 -0.00148389)
(0.0956456 0.00836005 -0.00836005)
(0.0904939 -0.00152198 0.00152206)
(0.0790684 -0.00242962 0.00242979)
(0.0713014 -0.00148756 0.00148788)
(0.0661799 -0.000830133 0.000830712)
(0.0623234 -0.000563028 0.000563963)
(0.0592221 -0.000425075 0.00042703)
(0.0566869 -0.000321853 0.000325146)
(0.0545531 -0.000249636 0.000255015)
(0.0527029 -0.000197091 0.000205896)
(0.0510682 -0.000157216 0.000171978)
(0.0496127 -0.00012522 0.000149426)
(0.0483056 -9.6291e-05 0.000134102)
(0.0471214 -6.62087e-05 0.000125302)
(0.0460557 -2.86068e-05 0.000124012)
(0.0451164 8.4784e-06 0.000132999)
(0.044337 7.01628e-05 0.0001562)
(0.0438618 0.000227462 0.000174461)
(0.0442733 0.000466548 0.000141212)
(0.0434901 0.00320581 -0.00190235)
(0.0999088 0.000712566 0.00129699)
(0.0969668 0.00274728 0.00365579)
(0.0935346 0.00211821 0.00264006)
(0.0895893 0.00162068 0.00182014)
(0.0858322 0.00139072 0.0015282)
(0.0825902 0.00116154 0.00135035)
(0.0798652 0.000897736 0.00117782)
(0.0775668 0.000693283 0.00103787)
(0.0755572 0.000562413 0.000938289)
(0.0737499 0.000483072 0.000858148)
(0.0720985 0.000438818 0.00078017)
(0.0705741 0.000415537 0.000698305)
(0.0691569 0.00040361 0.000616584)
(0.0678335 0.000399818 0.000532593)
(0.0665961 0.000409294 0.00043174)
(0.065442 0.000428324 0.000289734)
(0.0643944 0.000450064 7.70236e-05)
(0.0635462 0.000405139 -0.000313269)
(0.0632179 0.000215104 -0.00110715)
(0.0621359 -0.00148451 -0.00388452)
(0.100226 0.000720823 0.000720792)
(0.0999601 0.00198277 0.00198264)
(0.0997824 0.00245195 0.00245165)
(0.0987884 0.00241982 0.0024193)
(0.0972759 0.00220115 0.00220033)
(0.0957754 0.0018122 0.00181074)
(0.0943939 0.00138357 0.00138121)
(0.0931657 0.00107198 0.00106801)
(0.09208 0.000857063 0.000850297)
(0.0911202 0.000706987 0.000695418)
(0.0902716 0.000598838 0.000578313)
(0.0895111 0.000519863 0.000486513)
(0.0888215 0.000464808 0.000414809)
(0.088204 0.000426819 0.000351523)
(0.0876624 0.00040036 0.000276693)
(0.0872058 0.000381748 0.000180962)
(0.0868448 0.000363536 3.07105e-05)
(0.086566 0.000308155 -0.000235125)
(0.0861839 4.19362e-05 -0.000773199)
(0.0860724 -0.000793402 -0.00189497)
(0.10014 0.000775019 0.000869232)
(0.100454 0.00196239 0.00196348)
(0.100911 0.00242748 0.00233432)
(0.100979 0.00252655 0.00244097)
(0.100695 0.00242625 0.00233638)
(0.100225 0.00219746 0.00211203)
(0.0997107 0.00191655 0.00182261)
(0.0991867 0.00166542 0.00157443)
(0.0986941 0.00146214 0.00138806)
(0.0982504 0.00129512 0.00124733)
(0.0978633 0.00115683 0.00114261)
(0.0975307 0.00104205 0.00106603)
(0.0972501 0.000944645 0.00100714)
(0.0970214 0.00085718 0.000956773)
(0.0968469 0.000770189 0.000907752)
(0.0967302 0.000672118 0.000846855)
(0.096671 0.000542718 0.00074927)
(0.096656 0.000355611 0.000584984)
(0.0966036 7.1452e-05 0.000339743)
(0.0967196 -0.000411578 3.04852e-05)
(0.100093 0.000445901 0.0007632)
(0.100504 0.0011944 0.00174901)
(0.101105 0.00158662 0.00212952)
(0.101635 0.0017401 0.00223458)
(0.10198 0.00178173 0.00228697)
(0.102172 0.00172816 0.00223591)
(0.102254 0.00160666 0.00211601)
(0.102279 0.00145793 0.00196492)
(0.102283 0.00130123 0.00180295)
(0.102277 0.00115009 0.00165433)
(0.102274 0.00101741 0.00154664)
(0.10228 0.00090116 0.00147171)
(0.102297 0.00079406 0.00142033)
(0.102325 0.000686846 0.00138713)
(0.102368 0.000567882 0.00136779)
(0.102427 0.000426678 0.00135802)
(0.102499 0.00024741 0.00135328)
(0.102578 1.07201e-05 0.00135294)
(0.102651 -0.0002955 0.00137025)
(0.102826 -0.000632856 0.00147302)
(0.100087 0.000144347 0.000707014)
(0.100477 0.000390374 0.00161778)
(0.101066 0.000540898 0.00203464)
(0.101694 0.000609789 0.00211764)
(0.102269 0.000635362 0.0021503)
(0.102742 0.000625688 0.00218013)
(0.103124 0.000592949 0.00213473)
(0.103428 0.000546263 0.00204554)
(0.10368 0.00049883 0.00193758)
(0.103897 0.000452487 0.00183418)
(0.104093 0.000402847 0.00173967)
(0.104279 0.000349624 0.0016598)
(0.104454 0.000294558 0.00161199)
(0.104611 0.000232666 0.00159891)
(0.10475 0.000156943 0.00161037)
(0.104873 6.16345e-05 0.00164772)
(0.104972 -6.63863e-05 0.00172748)
(0.10504 -0.000242395 0.00186205)
(0.105079 -0.000476633 0.00205039)
(0.105294 -0.000737147 0.00228947)
(0.100087 -0.00014441 0.000707022)
(0.100477 -0.00039056 0.0016178)
(0.101065 -0.000541221 0.00203465)
(0.101694 -0.000610348 0.00211772)
(0.102268 -0.000636369 0.00215057)
(0.102741 -0.000627426 0.00218064)
(0.103122 -0.000595783 0.00213554)
(0.103425 -0.000550894 0.00204679)
(0.103676 -0.000506617 0.0019395)
(0.103891 -0.000465737 0.00183731)
(0.104082 -0.000425027 0.0017447)
(0.104261 -0.000386278 0.00166862)
(0.104424 -0.000353195 0.00162803)
(0.10456 -0.000325698 0.00162603)
(0.104672 -0.000304914 0.00165337)
(0.104754 -0.000292722 0.00172684)
(0.104794 -0.000291377 0.00186622)
(0.104783 -0.000301519 0.00209647)
(0.104736 -0.000324489 0.00242055)
(0.104982 -0.000348302 0.00277209)
(0.100093 -0.000445909 0.000763214)
(0.100504 -0.00119442 0.00174905)
(0.101105 -0.00158668 0.00212965)
(0.101634 -0.00174025 0.00223503)
(0.101979 -0.00178198 0.00228783)
(0.102171 -0.00172854 0.00223716)
(0.102251 -0.00160734 0.00211789)
(0.102274 -0.00145907 0.00196781)
(0.102274 -0.00130297 0.00180731)
(0.102264 -0.00115326 0.00166134)
(0.102251 -0.00102266 0.00155886)
(0.102242 -0.000909683 0.00149257)
(0.102233 -0.000805557 0.00145578)
(0.102223 -0.000702695 0.00144739)
(0.102208 -0.000594189 0.00147034)
(0.102181 -0.000473764 0.00153324)
(0.102132 -0.000328456 0.00165477)
(0.102054 -0.000139053 0.00185794)
(0.101961 0.000108907 0.00214606)
(0.102195 0.00035705 0.0024623)
(0.10014 -0.000774986 0.000869273)
(0.100454 -0.00196229 0.00196365)
(0.100911 -0.00242731 0.00233469)
(0.100978 -0.00252619 0.0024416)
(0.100694 -0.00242563 0.00233732)
(0.100224 -0.0021964 0.00211331)
(0.0997085 -0.00191487 0.00182462)
(0.0991829 -0.00166285 0.00157793)
(0.0986876 -0.00145771 0.001394)
(0.0982392 -0.00128747 0.00125721)
(0.0978446 -0.00114452 0.00115917)
(0.0974996 -0.00102146 0.00109336)
(0.0972006 -0.000909434 0.00105191)
(0.0969453 -0.000797909 0.0010292)
(0.0967306 -0.000677661 0.0010263)
(0.0965564 -0.000532797 0.00104392)
(0.096422 -0.000341429 0.00108522)
(0.0963244 -7.34395e-05 0.00115386)
(0.0962677 0.000309349 0.00123408)
(0.0964962 0.000822576 0.00120108)
(0.100226 -0.000720793 0.000720823)
(0.0999601 -0.00198265 0.00198277)
(0.0997824 -0.00245165 0.00245195)
(0.0987884 -0.0024193 0.00241982)
(0.0972759 -0.00220033 0.00220116)
(0.0957754 -0.00181075 0.00181221)
(0.0943939 -0.00138121 0.00138358)
(0.0931657 -0.00106801 0.00107199)
(0.09208 -0.000850308 0.000857075)
(0.0911201 -0.000695431 0.000707001)
(0.0902715 -0.000578331 0.000598854)
(0.0895109 -0.000486542 0.000519891)
(0.0888211 -0.000414938 0.000464946)
(0.0882035 -0.000351551 0.000426852)
(0.087662 -0.000276523 0.000400265)
(0.0872052 -0.000180963 0.000381815)
(0.0868441 -3.08001e-05 0.000363653)
(0.086565 0.000234983 0.000308325)
(0.0861826 0.000773043 4.21478e-05)
(0.0860706 0.0018943 -0.000792675)
(0.0999088 -0.000712552 0.00129701)
(0.0969669 -0.0027472 0.00365593)
(0.0935347 -0.00211805 0.00264029)
(0.0895895 -0.00162037 0.00182054)
(0.0858327 -0.00139029 0.00152899)
(0.082591 -0.00116074 0.00135158)
(0.0798667 -0.000896377 0.0011801)
(0.0775695 -0.000691124 0.00104181)
(0.075562 -0.00055885 0.000945017)
(0.0737582 -0.000477129 0.000869593)
(0.0721134 -0.000427513 0.000799582)
(0.0706007 -0.000396294 0.000730323)
(0.0692026 -0.00037834 0.00066833)
(0.0679083 -0.00037119 0.000618484)
(0.066719 -0.000363377 0.000575724)
(0.0656505 -0.000341957 0.000535911)
(0.0647684 -0.000282757 0.000470401)
(0.0642599 -6.75459e-05 0.000322784)
(0.0646748 0.000297494 4.7309e-05)
(0.0625693 0.00064457 -0.000441687)
(0.099413 0.000270235 0.000345213)
(0.0988664 0.00187492 0.00201895)
(0.0979214 0.00218907 0.00257293)
(0.0963658 0.00190848 0.00237953)
(0.0946333 0.0016268 0.00211357)
(0.0929719 0.00141891 0.0019259)
(0.0913634 0.00127171 0.00180002)
(0.0898525 0.0011609 0.00170301)
(0.0884521 0.00107138 0.00160078)
(0.0871537 0.00100087 0.00148762)
(0.0859494 0.000954849 0.00137259)
(0.0848234 0.000931217 0.00126101)
(0.0837554 0.000926194 0.00115023)
(0.0827297 0.000936833 0.00103237)
(0.0817336 0.00096368 0.000896789)
(0.0807558 0.00101016 0.000728894)
(0.0797749 0.00108567 0.000508)
(0.0787428 0.00119794 0.000114429)
(0.0775636 0.0014112 -0.000570731)
(0.0761482 0.00187985 -0.00178558)
(0.10014 0.000869273 0.000774985)
(0.100454 0.00196365 0.00196229)
(0.100911 0.00233469 0.00242731)
(0.100978 0.0024416 0.00252619)
(0.100694 0.00233731 0.00242563)
(0.100224 0.0021133 0.00219639)
(0.0997085 0.00182461 0.00191486)
(0.0991829 0.00157792 0.00166283)
(0.0986877 0.00139398 0.00145768)
(0.0982393 0.00125719 0.00128743)
(0.0978447 0.00115914 0.00114447)
(0.0974997 0.0010933 0.00102138)
(0.0972008 0.00105179 0.000909294)
(0.0969457 0.00102918 0.000797858)
(0.096731 0.0010263 0.000677634)
(0.0965568 0.00104373 0.000532607)
(0.0964226 0.00108485 0.000341078)
(0.0963251 0.00115336 7.29503e-05)
(0.0962685 0.00123346 -0.000309984)
(0.0964972 0.00120005 -0.00082359)
(0.10006 0.000641415 0.000641362)
(0.100502 0.0016451 0.00164494)
(0.101149 0.00221251 0.0022122)
(0.101738 0.00244017 0.00243963)
(0.102205 0.00244234 0.00244147)
(0.102502 0.00231419 0.00231284)
(0.102646 0.00209364 0.00209139)
(0.102716 0.00187081 0.0018672)
(0.102743 0.00167403 0.00166813)
(0.102758 0.00150968 0.00150003)
(0.102781 0.00137452 0.00135885)
(0.10282 0.00126463 0.00123935)
(0.102881 0.00117631 0.00113577)
(0.102968 0.00110545 0.00104098)
(0.103083 0.00104768 0.000946772)
(0.103227 0.000998238 0.000843102)
(0.103395 0.000950914 0.000718184)
(0.103578 0.000894849 0.000560697)
(0.103765 0.000811474 0.000368555)
(0.104104 0.00070966 0.000229882)
(0.100046 0.000395704 0.000540223)
(0.10048 0.00104482 0.00138403)
(0.101154 0.00147528 0.00192284)
(0.101913 0.0017051 0.00219236)
(0.102632 0.00177987 0.00229376)
(0.103302 0.00174456 0.00227781)
(0.103895 0.00163382 0.00218501)
(0.104392 0.00149095 0.00205169)
(0.10482 0.00134411 0.00190383)
(0.1052 0.00120823 0.00176413)
(0.105546 0.00108776 0.00164139)
(0.105871 0.000982717 0.00153708)
(0.106188 0.000889898 0.00145021)
(0.106502 0.000804787 0.00137815)
(0.10682 0.000724124 0.001317)
(0.107145 0.000642429 0.0012626)
(0.10748 0.000554143 0.00121229)
(0.107826 0.000452736 0.00116644)
(0.108191 0.000334914 0.00113068)
(0.108654 0.00020575 0.00114561)
(0.100039 0.000131302 0.000478765)
(0.100448 0.000350411 0.00123477)
(0.101114 0.000504927 0.00174646)
(0.101909 0.000596938 0.0020268)
(0.102728 0.000638188 0.00215208)
(0.103529 0.000637622 0.00218647)
(0.104298 0.000603491 0.00215344)
(0.105007 0.000557608 0.00207981)
(0.105643 0.0005075 0.00198177)
(0.106217 0.000457782 0.00187578)
(0.106739 0.000410851 0.00177405)
(0.107221 0.000366968 0.00168503)
(0.107673 0.000325113 0.00161528)
(0.108106 0.000282605 0.00156739)
(0.108526 0.000237023 0.00154072)
(0.108932 0.000184579 0.00153467)
(0.109327 0.000123373 0.00155453)
(0.10972 4.95677e-05 0.00160513)
(0.110129 -3.52258e-05 0.00168105)
(0.110636 -0.000116904 0.00177728)
(0.100039 -0.000131345 0.000478784)
(0.100448 -0.000350524 0.00123482)
(0.101114 -0.000505128 0.00174657)
(0.101909 -0.000597269 0.00202699)
(0.102728 -0.000638737 0.00215243)
(0.103528 -0.000638503 0.00218705)
(0.104297 -0.000604954 0.00215433)
(0.105006 -0.000559935 0.0020812)
(0.10564 -0.000511279 0.00198395)
(0.106212 -0.000463974 0.00187931)
(0.106733 -0.000420888 0.00177995)
(0.107212 -0.000382891 0.00169498)
(0.107658 -0.000349563 0.00163179)
(0.108085 -0.000319318 0.00159357)
(0.108495 -0.000292434 0.00158148)
(0.108888 -0.000270462 0.00159944)
(0.10927 -0.000252325 0.00165576)
(0.109653 -0.000235098 0.00175751)
(0.110071 -0.00021658 0.00189233)
(0.110613 -0.000189369 0.00202538)
(0.100046 -0.00039569 0.000540272)
(0.10048 -0.00104478 0.00138418)
(0.101154 -0.00147521 0.00192312)
(0.101913 -0.00170501 0.00219284)
(0.102631 -0.00177971 0.00229459)
(0.103301 -0.00174425 0.00227914)
(0.103893 -0.00163328 0.0021871)
(0.104389 -0.00149009 0.0020551)
(0.104816 -0.0013427 0.00190914)
(0.105193 -0.00120612 0.0017725)
(0.105535 -0.00108455 0.00165502)
(0.105855 -0.000977748 0.00155915)
(0.106162 -0.000881548 0.00148623)
(0.106463 -0.000790992 0.00143646)
(0.106761 -0.000703847 0.00140975)
(0.10706 -0.000614296 0.00140865)
(0.107362 -0.000516681 0.00143744)
(0.107672 -0.00040612 0.00149811)
(0.108015 -0.000284041 0.0015775)
(0.108505 -0.000170455 0.00164652)
(0.10006 -0.000641362 0.000641416)
(0.100502 -0.00164494 0.0016451)
(0.101149 -0.0022122 0.00221252)
(0.101738 -0.00243964 0.00244018)
(0.102205 -0.00244148 0.00244235)
(0.102502 -0.00231284 0.00231421)
(0.102646 -0.0020914 0.00209366)
(0.102716 -0.00186722 0.00187084)
(0.102743 -0.00166815 0.00167407)
(0.102758 -0.00150006 0.00150974)
(0.102781 -0.00135888 0.0013746)
(0.102819 -0.0012394 0.00126473)
(0.102881 -0.00113584 0.00117645)
(0.102968 -0.00104106 0.0011056)
(0.103083 -0.00094687 0.00104785)
(0.103227 -0.000843272 0.000998475)
(0.103394 -0.000718447 0.000951229)
(0.103577 -0.000561083 0.000895239)
(0.103765 -0.000369101 0.000811924)
(0.104104 -0.000230763 0.00071029)
(0.10014 -0.000869233 0.000775018)
(0.100454 -0.00196348 0.00196239)
(0.100911 -0.00233432 0.00242749)
(0.100979 -0.00244097 0.00252656)
(0.100695 -0.00233638 0.00242626)
(0.100225 -0.00211204 0.00219748)
(0.0997106 -0.00182261 0.00191657)
(0.0991866 -0.00157443 0.00166545)
(0.098694 -0.00138806 0.00146218)
(0.0982503 -0.00124734 0.00129517)
(0.0978632 -0.00114261 0.0011569)
(0.0975305 -0.00106602 0.00104213)
(0.0972499 -0.00100712 0.000944751)
(0.097021 -0.000956803 0.000857368)
(0.0968465 -0.000907855 0.000770458)
(0.0967296 -0.000846948 0.000672409)
(0.0966703 -0.000749365 0.000543026)
(0.0966551 -0.000585112 0.000355962)
(0.0966026 -0.000339943 7.18895e-05)
(0.0967183 -3.0971e-05 -0.000410861)
(0.099413 -0.000270228 0.000345231)
(0.0988664 -0.00187486 0.00201903)
(0.0979217 -0.00218888 0.00257309)
(0.0963664 -0.00190816 0.00237981)
(0.0946344 -0.00162635 0.00211401)
(0.092974 -0.00141825 0.00192662)
(0.0913672 -0.00127062 0.00180108)
(0.0898592 -0.00115906 0.00170476)
(0.0884635 -0.00106839 0.00160374)
(0.0871728 -0.000995915 0.00149254)
(0.0859813 -0.00094696 0.00138078)
(0.0848769 -0.00091756 0.00127439)
(0.0838445 -0.000902494 0.00117137)
(0.0828777 -0.000896108 0.00106506)
(0.0819797 -0.000891788 0.000946654)
(0.0811723 -0.000874868 0.000800143)
(0.0805021 -0.000831413 0.00060265)
(0.080034 -0.000694263 0.000246232)
(0.0798417 -0.000438415 -0.00042565)
(0.0791309 0.000155321 -0.00208609)
(0.0995405 0.000321902 0.000245029)
(0.0992576 0.00154094 0.00105555)
(0.0988488 0.00211453 0.00150219)
(0.0981246 0.00209177 0.00157917)
(0.0973364 0.00188643 0.0015144)
(0.096584 0.00166641 0.00144569)
(0.0958636 0.00149888 0.00140878)
(0.0951944 0.00137309 0.00137659)
(0.0945628 0.00128785 0.00132931)
(0.0939127 0.00123532 0.00125521)
(0.0932757 0.00120225 0.00116067)
(0.0926471 0.00118679 0.00105675)
(0.0920131 0.00118784 0.000951714)
(0.0913577 0.0012066 0.000846763)
(0.0906593 0.00124863 0.000735207)
(0.0898845 0.00132508 0.000605375)
(0.0889785 0.00145886 0.000459491)
(0.0878192 0.00169524 0.000239309)
(0.0862881 0.0019989 -5.98528e-05)
(0.0845296 0.00340892 0.000188982)
(0.100093 0.000763214 0.000445908)
(0.100504 0.00174905 0.00119442)
(0.101105 0.00212965 0.00158668)
(0.101634 0.00223502 0.00174024)
(0.101979 0.00228782 0.00178197)
(0.102171 0.00223715 0.00172853)
(0.102251 0.00211788 0.00160732)
(0.102274 0.00196779 0.00145904)
(0.102274 0.00180728 0.00130293)
(0.102264 0.00166131 0.00115321)
(0.102251 0.00155881 0.00102259)
(0.102242 0.00149249 0.000909575)
(0.102233 0.00145565 0.000805402)
(0.102223 0.00144729 0.000702557)
(0.102208 0.00147021 0.000594033)
(0.102181 0.00153294 0.000473481)
(0.102133 0.00165426 0.000328018)
(0.102054 0.00185713 0.000138414)
(0.101961 0.00214489 -0.000109827)
(0.102195 0.00246099 -0.000358266)
(0.100046 0.000540271 0.000395689)
(0.10048 0.00138417 0.00104478)
(0.101154 0.00192311 0.00147521)
(0.101913 0.00219283 0.00170501)
(0.102631 0.00229457 0.0017797)
(0.103301 0.00227912 0.00174424)
(0.103893 0.00218707 0.00163327)
(0.104389 0.00205506 0.00149007)
(0.104816 0.00190909 0.00134267)
(0.105193 0.00177244 0.00120608)
(0.105535 0.00165494 0.00108449)
(0.105855 0.00155904 0.000977668)
(0.106162 0.00148608 0.000881441)
(0.106463 0.00143631 0.000790873)
(0.106761 0.00140956 0.000703691)
(0.10706 0.00140837 0.000614054)
(0.107362 0.00143707 0.000516329)
(0.107672 0.00149765 0.000405627)
(0.108015 0.00157699 0.000283352)
(0.108505 0.00164606 0.000169437)
(0.100036 0.000323153 0.000323119)
(0.100429 0.000868696 0.000868601)
(0.10108 0.00126243 0.00126226)
(0.101891 0.00150443 0.00150413)
(0.102756 0.00162166 0.00162118)
(0.103616 0.00164291 0.00164217)
(0.104446 0.00160498 0.00160384)
(0.105224 0.00152693 0.00152513)
(0.105939 0.00142783 0.00142499)
(0.106594 0.00132366 0.00131918)
(0.107199 0.00122507 0.00121796)
(0.107764 0.00113728 0.00112601)
(0.108297 0.00106214 0.00104431)
(0.108807 0.000999821 0.000971943)
(0.109301 0.000949852 0.0009072)
(0.109788 0.000911494 0.000847999)
(0.110274 0.000883738 0.000792467)
(0.110766 0.000863844 0.00073955)
(0.111282 0.000844832 0.000691328)
(0.111882 0.000815444 0.000664608)
(0.100031 0.00010707 0.000281373)
(0.100395 0.000293026 0.000768603)
(0.101024 0.000434046 0.00113302)
(0.101843 0.000526176 0.00136912)
(0.102751 0.000576276 0.00150132)
(0.103688 0.000591648 0.0015541)
(0.104617 0.000582211 0.00154914)
(0.105516 0.000557505 0.00150827)
(0.106367 0.000523734 0.00144474)
(0.107164 0.000486416 0.00136882)
(0.107907 0.000449811 0.00128923)
(0.1086 0.000416267 0.00121272)
(0.109252 0.000386645 0.00114412)
(0.10987 0.000360496 0.00108693)
(0.110463 0.00033582 0.00104426)
(0.111039 0.00031165 0.001017)
(0.111604 0.000287582 0.00100469)
(0.112167 0.000264267 0.00100514)
(0.112746 0.000240568 0.00101531)
(0.113392 0.000218594 0.00103222)
(0.100031 -0.000107076 0.000281391)
(0.100395 -0.00029304 0.000768655)
(0.101024 -0.000434068 0.00113312)
(0.101843 -0.000526208 0.0013693)
(0.102751 -0.000576317 0.00150162)
(0.103688 -0.000591691 0.00155455)
(0.104617 -0.000582259 0.00154978)
(0.105515 -0.000557616 0.00150923)
(0.106366 -0.000523981 0.00144622)
(0.107163 -0.000486867 0.00137114)
(0.107905 -0.000450492 0.00129289)
(0.108598 -0.000417109 0.00121845)
(0.109248 -0.000387407 0.00115303)
(0.109866 -0.000360917 0.00110068)
(0.110458 -0.0003363 0.00106546)
(0.111033 -0.00031357 0.0010488)
(0.111598 -0.000292771 0.0010502)
(0.112164 -0.000273642 0.00106623)
(0.112751 -0.000255875 0.0010897)
(0.113412 -0.000243563 0.00110527)
(0.100036 -0.00032312 0.000323154)
(0.100429 -0.000868603 0.000868701)
(0.10108 -0.00126226 0.00126244)
(0.101891 -0.00150414 0.00150444)
(0.102756 -0.00162119 0.00162168)
(0.103616 -0.00164218 0.00164295)
(0.104446 -0.00160385 0.00160502)
(0.105224 -0.00152514 0.00152698)
(0.105939 -0.00142501 0.00142789)
(0.106594 -0.00131922 0.00132374)
(0.107199 -0.00121801 0.00122518)
(0.107764 -0.00112606 0.00113742)
(0.108297 -0.00104439 0.00106231)
(0.108807 -0.000972051 0.00100002)
(0.109301 -0.000907347 0.000950084)
(0.109788 -0.000848195 0.000911773)
(0.110273 -0.000792729 0.000884059)
(0.110765 -0.000739902 0.000864183)
(0.111282 -0.000691795 0.000845143)
(0.111882 -0.000665202 0.000815636)
(0.100046 -0.000540224 0.000395705)
(0.10048 -0.00138403 0.00104482)
(0.101154 -0.00192285 0.00147529)
(0.101913 -0.00219236 0.00170511)
(0.102632 -0.00229377 0.0017799)
(0.103302 -0.00227782 0.00174459)
(0.103895 -0.00218502 0.00163387)
(0.104392 -0.0020517 0.00149101)
(0.10482 -0.00190384 0.00134418)
(0.1052 -0.00176415 0.00120832)
(0.105545 -0.00164141 0.00108787)
(0.105871 -0.00153712 0.000982857)
(0.106188 -0.00145026 0.000890078)
(0.106502 -0.00137823 0.000805014)
(0.106819 -0.00131711 0.000724394)
(0.107145 -0.00126274 0.000642746)
(0.107479 -0.00121247 0.000554508)
(0.107825 -0.00116669 0.000453144)
(0.10819 -0.00113104 0.00033535)
(0.108653 -0.00114616 0.000206218)
(0.100093 -0.0007632 0.000445901)
(0.100504 -0.00174901 0.0011944)
(0.101105 -0.00212952 0.00158663)
(0.101635 -0.00223458 0.00174012)
(0.10198 -0.00228697 0.00178175)
(0.102172 -0.00223592 0.00172819)
(0.102254 -0.00211602 0.00160671)
(0.102279 -0.00196493 0.00145798)
(0.102283 -0.00180296 0.0013013)
(0.102277 -0.00165434 0.00115018)
(0.102274 -0.00154665 0.00101753)
(0.10228 -0.0014717 0.000901304)
(0.102297 -0.0014203 0.000794245)
(0.102325 -0.00138718 0.000687136)
(0.102367 -0.00136789 0.000568265)
(0.102427 -0.00135806 0.000427109)
(0.102499 -0.00135328 0.000247913)
(0.102578 -0.00135293 1.13147e-05)
(0.10265 -0.00137031 -0.000294768)
(0.102825 -0.00147365 -0.000631725)
(0.0995405 -0.000321899 0.000245014)
(0.0992576 -0.00154093 0.00105548)
(0.0988491 -0.00211442 0.00150205)
(0.0981252 -0.0020916 0.00157891)
(0.0973376 -0.00188616 0.00151387)
(0.0965863 -0.001666 0.00144466)
(0.0958676 -0.00149834 0.001407)
(0.0952013 -0.00137218 0.00137368)
(0.0945748 -0.0012859 0.00132437)
(0.0939331 -0.00123117 0.00124737)
(0.0933101 -0.00119459 0.00114839)
(0.0927051 -0.00117257 0.00103752)
(0.0921108 -0.00116341 0.00092042)
(0.0915229 -0.00116493 0.000795064)
(0.0909388 -0.00117346 0.000652941)
(0.0903552 -0.00118398 0.000462197)
(0.0897741 -0.00119217 0.000195141)
(0.0891939 -0.00120394 -0.000199442)
(0.0885759 -0.00123477 -0.000792751)
(0.0877972 -0.00134067 -0.00174096)
(0.0993802 5.89776e-05 3.37827e-05)
(0.0992677 0.00120004 0.000274421)
(0.0989804 0.0018885 0.000432436)
(0.0984745 0.00200653 0.000483561)
(0.0979952 0.00191483 0.000478984)
(0.09757 0.00173505 0.000465723)
(0.0971793 0.00154781 0.000453147)
(0.0968279 0.00138952 0.000442781)
(0.0965249 0.00127189 0.000436848)
(0.0962652 0.00120293 0.000429257)
(0.095982 0.00117846 0.00041253)
(0.095673 0.00118133 0.000389389)
(0.0953311 0.00119987 0.000365776)
(0.094934 0.00123711 0.000349093)
(0.0944622 0.00130453 0.000349385)
(0.0938802 0.00141135 0.000368184)
(0.0931424 0.00158342 0.000425902)
(0.0921476 0.00185967 0.000523247)
(0.0907845 0.00223447 0.000757262)
(0.0892544 0.0028595 0.000955364)
(0.100087 0.000707022 0.000144408)
(0.100477 0.00161779 0.000390556)
(0.101065 0.00203465 0.000541217)
(0.101694 0.00211771 0.000610341)
(0.102268 0.00215057 0.000636358)
(0.102741 0.00218063 0.000627409)
(0.103122 0.00213553 0.00059576)
(0.103425 0.00204677 0.000550862)
(0.103676 0.00193947 0.000506572)
(0.103891 0.00183727 0.000465677)
(0.104082 0.00174464 0.000424944)
(0.104261 0.00166854 0.000386165)
(0.104424 0.0016279 0.000353041)
(0.10456 0.00162587 0.000325513)
(0.104672 0.00165315 0.000304689)
(0.104755 0.00172649 0.000292411)
(0.104794 0.00186566 0.000290955)
(0.104783 0.00209559 0.000300973)
(0.104736 0.00241928 0.000323821)
(0.104981 0.00277087 0.000347639)
(0.100039 0.000478784 0.000131344)
(0.100448 0.00123482 0.000350521)