/*--------------------------------*- C++ -*----------------------------------*\
| =========                 |                                                 |
| \\      /  F ield         | OpenFOAM: The Open Source CFD Toolbox           |
|  \\    /   O peration     | Version:  2212                                  |
|   \\  /    A nd           | Website:  www.openfoam.com                      |
|    \\/     M anipulation  |                                                 |
\*---------------------------------------------------------------------------*/
FoamFile
{
    version     2.0;
    format      ascii;
    arch        "LSB;label=32;scalar=64";
    class       volVectorField;
    location    "0.55";
    object      U;
}
// * * * * * * * * * * * * * * * * * * * * * * * * * * * * * * * * * * * * * //

dimensions      [0 1 -1 0 0 0 0];

internalField   nonuniform List<vector> 
678
(
(0.0312727 2.19784e-06 -7.97569e-07)
(0.0312745 2.08728e-06 -3.64751e-07)
(0.0312714 2.05623e-06 2.44668e-08)
(0.0312653 1.99484e-06 7.7709e-08)
(0.0312625 1.74801e-06 -4.58134e-07)
(0.0507765 3.57869e-06 -8.88591e-07)
(0.0507759 3.70505e-06 1.52722e-06)
(0.0507727 3.56395e-06 3.22912e-06)
(0.0507673 3.27094e-06 3.40548e-06)
(0.0507642 3.18567e-06 3.8665e-06)
(0.0686773 3.21334e-06 1.2745e-06)
(0.0686768 3.50468e-06 2.14943e-06)
(0.0686757 3.32005e-06 2.47203e-06)
(0.0686737 2.99109e-06 2.25066e-06)
(0.0686726 3.10029e-06 3.36182e-06)
(0.0800702 1.62209e-06 3.42836e-06)
(0.0800703 1.99784e-06 2.63287e-06)
(0.0800703 2.33385e-06 1.306e-06)
(0.0800697 2.41545e-06 2.97148e-07)
(0.0800701 2.09475e-06 2.44838e-07)
(0.0800705 1.26162e-06 2.26586e-07)
(0.0849765 -6.93307e-07 3.62163e-06)
(0.0849771 -4.22941e-08 2.19785e-06)
(0.0849773 7.55601e-07 4.78823e-07)
(0.0849765 1.19768e-06 -6.9466e-07)
(0.0849769 8.93809e-07 -7.97881e-07)
(0.0849775 -8.01053e-08 -4.63291e-07)
(0.0849942 -3.0394e-06 3.05039e-06)
(0.0849946 -1.94361e-06 1.55807e-06)
(0.0849944 -6.58062e-07 -4.35218e-08)
(0.0849929 3.03357e-09 -1.08649e-06)
(0.0849927 -2.82596e-07 -1.25301e-06)
(0.0849927 -1.33294e-06 -7.71743e-07)
(0.0849921 -1.97648e-06 -5.88314e-07)
(0.0810015 -3.82392e-06 2.76179e-06)
(0.0810008 -2.7195e-06 1.19255e-06)
(0.0809997 -1.27373e-06 -2.44807e-07)
(0.0809975 -4.45382e-07 -1.04371e-06)
(0.0809965 -1.93743e-07 -1.20225e-06)
(0.0809958 -6.96054e-07 -6.99103e-07)
(0.0809945 -2.28632e-06 -1.9299e-07)
(0.0733595 -2.1025e-06 2.10191e-06)
(0.0733585 -2.13411e-06 7.6971e-07)
(0.0733569 -1.97677e-06 -4.0018e-08)
(0.073355 -1.5962e-06 -4.54797e-07)
(0.0733537 -1.12904e-06 -6.17839e-07)
(0.0733539 -1.4385e-06 -4.47418e-07)
(0.0733542 -3.7934e-06 4.45466e-07)
(0.062123 8.15881e-07 1.08508e-06)
(0.0621218 -1.31184e-06 6.07358e-07)
(0.0621194 -3.17771e-06 5.82657e-07)
(0.0621154 -3.59907e-06 5.46809e-07)
(0.0621112 -2.77923e-06 2.87674e-07)
(0.06211 -2.08186e-06 1.31038e-07)
(0.0621058 -3.44564e-06 8.84115e-07)
(0.0475025 1.43011e-06 5.97276e-07)
(0.0475023 -4.76456e-07 4.89441e-07)
(0.0474986 -2.26498e-06 4.9261e-07)
(0.0474924 -2.5955e-06 3.074e-07)
(0.0474875 -1.42775e-06 -1.45718e-07)
(0.0474871 1.04284e-06 -8.57823e-07)
(0.0312758 4.9799e-07 4.22489e-07)
(0.0312773 -6.02391e-08 2.64081e-07)
(0.0312739 -5.10142e-07 7.10581e-08)
(0.031268 -5.32074e-07 -1.24117e-07)
(0.0312639 -1.8634e-07 -2.04106e-07)
(0.0312652 4.32229e-07 -2.71478e-08)
(0.0474991 3.17359e-06 -3.52243e-06)
(0.0474992 3.14423e-06 -1.85329e-06)
(0.0474956 3.37713e-06 -6.85738e-08)
(0.0474888 3.54901e-06 1.91151e-07)
(0.0474848 3.19625e-06 -8.85959e-07)
(0.0474774 2.14935e-06 -3.60648e-06)
(0.0781331 5.4511e-06 -2.60011e-06)
(0.0781328 5.11489e-06 -1.02243e-06)
(0.0781321 5.60983e-06 2.97708e-06)
(0.0781297 5.69133e-06 4.57306e-06)
(0.0781278 3.5059e-06 -2.39235e-06)
(0.0935962 5.42699e-06 -4.28758e-07)
(0.0935962 5.1734e-06 2.54684e-06)
(0.0935956 5.02755e-06 6.14269e-06)
(0.0935944 4.71328e-06 7.32389e-06)
(0.093593 3.5595e-06 4.18621e-06)
(0.0935949 2.02336e-06 -2.44043e-06)
(0.101499 4.10035e-06 1.5585e-06)
(0.1015 3.36756e-06 4.28507e-06)
(0.1015 2.68572e-06 7.08039e-06)
(0.101498 2.03337e-06 8.01382e-06)
(0.101497 1.27072e-06 4.50318e-06)
(0.101497 8.32522e-07 -2.67534e-06)
(0.104846 2.21809e-06 2.52535e-06)
(0.104847 9.10537e-07 4.59446e-06)
(0.104846 -2.93205e-07 6.53867e-06)
(0.104845 -1.22741e-06 7.43194e-06)
(0.104844 -8.44231e-07 4.46511e-06)
(0.104844 1.04183e-06 -2.63546e-06)
(0.104965 7.99795e-07 2.34182e-06)
(0.104965 -1.46329e-06 4.204e-06)
(0.104965 -3.55569e-06 5.99615e-06)
(0.104963 -4.82759e-06 6.62806e-06)
(0.104962 -3.18722e-06 3.55054e-06)
(0.104962 1.51299e-06 -3.45683e-06)
(0.102581 3.7956e-07 1.68178e-06)
(0.102582 -2.75314e-06 3.43979e-06)
(0.10258 -5.82206e-06 5.42415e-06)
(0.102578 -7.08637e-06 6.07071e-06)
(0.102575 -4.11734e-06 3.31103e-06)
(0.102574 2.82841e-06 -2.71089e-06)
(0.0979118 6.60845e-07 1.38212e-06)
(0.0979112 -2.89134e-06 2.93979e-06)
(0.0979091 -7.02424e-06 5.11781e-06)
(0.0979061 -8.4373e-06 5.98866e-06)
(0.097903 -5.78896e-06 4.42462e-06)
(0.0979016 7.4871e-07 5.76698e-07)
(0.0979018 5.62717e-06 -2.41633e-06)
(0.0906265 1.31483e-06 1.85424e-06)
(0.0906253 -1.49652e-06 2.43935e-06)
(0.0906233 -5.81969e-06 3.70651e-06)
(0.0906209 -7.32132e-06 4.00404e-06)
(0.0906181 -4.47845e-06 2.80828e-06)
(0.0906181 3.5181e-06 -6.96515e-07)
(0.0906196 8.29779e-06 -3.01331e-06)
(0.0781368 1.93341e-06 2.20146e-06)
(0.078136 3.66415e-07 1.60183e-06)
(0.0781349 -3.50968e-06 1.76347e-06)
(0.0781319 -5.14796e-06 1.66517e-06)
(0.0781277 -3.20442e-06 9.98356e-07)
(0.078126 1.50394e-06 2.04974e-07)
(0.0781198 6.52237e-06 -1.1849e-07)
(0.0507825 1.51052e-06 1.13962e-06)
(0.0507813 -7.65208e-07 1.14793e-06)
(0.0507777 -2.2153e-06 7.88633e-07)
(0.0507725 -1.66575e-06 1.62925e-07)
(0.0507693 1.16275e-07 -1.9472e-07)
(0.0507706 2.59597e-06 1.59268e-07)
(0.0621223 3.82943e-06 -3.32186e-06)
(0.0621212 3.50549e-06 -1.13297e-06)
(0.0621185 3.71296e-06 9.19853e-07)
(0.0621143 4.10323e-06 1.59304e-06)
(0.06211 4.61135e-06 3.34418e-06)
(0.0621067 4.29972e-06 2.99908e-06)
(0.0621005 2.4525e-06 5.00537e-07)
(0.0906262 4.65926e-06 -2.84649e-06)
(0.0906254 5.50916e-06 8.83463e-08)
(0.090624 7.03047e-06 4.33543e-06)
(0.0906224 7.04161e-06 4.98765e-06)
(0.0906213 4.81785e-06 -1.7626e-07)
(0.0906248 -1.00792e-06 -1.00055e-05)
(0.102805 4.94304e-06 2.10094e-07)
(0.102805 5.33805e-06 3.1575e-06)
(0.102804 6.22545e-06 6.92448e-06)
(0.102804 5.90033e-06 7.19859e-06)
(0.102805 3.42302e-06 1.82176e-06)
(0.102806 -5.43807e-07 -6.20962e-06)
(0.109142 3.51877e-06 2.93019e-06)
(0.109142 3.38073e-06 6.07771e-06)
(0.109142 3.35458e-06 9.0072e-06)
(0.109143 2.79685e-06 9.00129e-06)
(0.109144 1.25459e-06 3.57604e-06)
(0.109144 -7.85022e-07 -5.91664e-06)
(0.112059 1.94715e-06 4.29138e-06)
(0.112059 5.72825e-07 7.29392e-06)
(0.112059 -4.03642e-07 9.811e-06)
(0.11206 -8.0409e-07 9.28164e-06)
(0.112061 -9.2895e-08 3.98472e-06)
(0.112062 1.36509e-06 -4.60395e-06)
(0.112508 7.51404e-07 4.61464e-06)
(0.112507 -2.02736e-06 7.28038e-06)
(0.112508 -4.26596e-06 9.20346e-06)
(0.112509 -4.41127e-06 8.36454e-06)
(0.112511 -1.09853e-06 3.52964e-06)
(0.112511 4.03791e-06 -3.70455e-06)
(0.111041 -1.04549e-07 4.03859e-06)
(0.111041 -3.85935e-06 6.34745e-06)
(0.111041 -7.05122e-06 8.00755e-06)
(0.111042 -6.78266e-06 7.3004e-06)
(0.111043 -1.23085e-06 2.98652e-06)
(0.111044 6.81022e-06 -2.94368e-06)
(0.107886 -7.45301e-07 3.57398e-06)
(0.107886 -4.24693e-06 5.02226e-06)
(0.107885 -8.58087e-06 6.83201e-06)
(0.107885 -8.42578e-06 6.71838e-06)
(0.107886 -2.67536e-06 3.83434e-06)
(0.107887 7.09352e-06 -5.86545e-07)
(0.102805 -8.19936e-07 3.53583e-06)
(0.102804 -3.85168e-06 3.8353e-06)
(0.102803 -8.08681e-06 4.858e-06)
(0.102802 -8.36218e-06 4.92223e-06)
(0.102802 -4.21883e-06 3.52899e-06)
(0.102803 4.9241e-06 7.12381e-07)
(0.0935988 -4.96034e-09 3.25102e-06)
(0.0935982 -3.23828e-06 2.81724e-06)
(0.0935965 -6.8191e-06 2.56517e-06)
(0.0935943 -7.08001e-06 2.16969e-06)
(0.0935917 -3.72074e-06 1.70823e-06)
(0.0935917 5.16759e-06 1.21281e-06)
(0.0935941 8.07336e-06 1.41162e-06)
(0.0686863 -1.19338e-06 1.22435e-06)
(0.068685 -2.0898e-06 1.35125e-06)
(0.068683 -2.20702e-06 1.01872e-06)
(0.0686803 -1.25495e-06 3.06705e-07)
(0.0686781 -3.0908e-07 -1.48984e-07)
(0.0686782 -1.54807e-06 6.33737e-07)
(0.0733629 4.68597e-06 -7.05577e-07)
(0.0733613 3.39758e-06 -1.32933e-07)
(0.0733589 2.78567e-06 -1.85727e-08)
(0.0733564 2.7236e-06 -4.00221e-07)
(0.0733547 3.08908e-06 -7.95038e-08)
(0.0733549 3.26075e-06 1.87083e-06)
(0.0733535 2.80225e-06 4.62981e-06)
(0.0979124 3.52647e-06 -2.2572e-06)
(0.0979118 5.47508e-06 1.2365e-06)
(0.0979098 7.70876e-06 4.88901e-06)
(0.0979074 7.59449e-06 4.97908e-06)
(0.0979057 5.14941e-06 1.16854e-06)
(0.0979052 8.63226e-08 -4.16124e-06)
(0.0979066 -4.5326e-06 -6.94056e-06)
(0.107886 3.94794e-06 4.71833e-07)
(0.107886 5.38804e-06 3.99357e-06)
(0.107886 6.65948e-06 7.53916e-06)
(0.107886 5.50771e-06 6.68112e-06)
(0.107887 1.6223e-06 5.48987e-07)
(0.107887 -2.74579e-06 -7.31919e-06)
(0.113173 2.61437e-06 3.18051e-06)
(0.113172 3.11495e-06 6.00173e-06)
(0.113174 3.3517e-06 8.71522e-06)
(0.113176 2.50913e-06 8.11522e-06)
(0.113178 3.69537e-07 2.91642e-06)
(0.113177 -1.95944e-06 -5.35939e-06)
(0.115788 9.56748e-07 4.22416e-06)
(0.115788 4.15163e-07 6.29006e-06)
(0.11579 -1.0832e-07 8.95571e-06)
(0.115792 -4.55727e-07 8.16848e-06)
(0.115794 -3.41867e-07 3.3735e-06)
(0.115793 2.94349e-07 -3.63187e-06)
(0.116442 8.50554e-08 4.89904e-06)
(0.116442 -1.61172e-06 6.55865e-06)
(0.116444 -3.17158e-06 8.36913e-06)
(0.116447 -2.81918e-06 7.42788e-06)
(0.116449 5.65489e-09 3.06674e-06)
(0.116449 3.38954e-06 -2.71116e-06)
(0.115517 -6.98895e-07 4.4042e-06)
(0.115517 -3.1177e-06 5.53079e-06)
(0.115519 -5.73246e-06 6.89156e-06)
(0.115522 -4.88508e-06 6.14519e-06)
(0.115525 5.43982e-07 2.46574e-06)
(0.113171 -2.48768e-06 4.15704e-06)
(0.113171 -5.51353e-06 4.91183e-06)
(0.113173 -8.35226e-06 5.82019e-06)
(0.113175 -7.82735e-06 5.74329e-06)
(0.113177 -2.4858e-06 3.84619e-06)
(0.113177 6.01274e-06 3.68308e-07)
(0.10914 -3.33317e-06 3.57208e-06)
(0.10914 -6.78628e-06 3.55058e-06)
(0.10914 -9.8774e-06 3.92418e-06)
(0.109141 -8.61792e-06 4.05281e-06)
(0.109143 -1.71991e-06 3.06767e-06)
(0.109144 7.53721e-06 7.21692e-07)
(0.1015 -2.06246e-06 2.79801e-06)
(0.1015 -5.42737e-06 1.89694e-06)
(0.101499 -8.31432e-06 1.22349e-06)
(0.101498 -7.50257e-06 9.92768e-07)
(0.101497 -1.99381e-06 1.36953e-06)
(0.101498 4.85217e-06 1.96252e-06)
(0.0800825 -4.11349e-06 -1.10214e-07)
(0.0800813 -3.26127e-06 3.21845e-08)
(0.0800796 -1.87507e-06 9.07683e-08)
(0.0800778 -9.47008e-07 -3.02703e-07)
(0.0800763 -1.02532e-06 -5.16171e-07)
(0.0800748 -3.60709e-06 6.76813e-07)
(0.0810076 5.27123e-06 1.56034e-06)
(0.0810054 3.18916e-06 1.39019e-06)
(0.0810023 1.65883e-06 4.40157e-07)
(0.0809987 9.70958e-07 -5.00167e-07)
(0.0809962 1.31429e-06 -3.42149e-07)
(0.0809938 2.69406e-06 2.36294e-06)
(0.102582 2.85193e-06 -1.74238e-06)
(0.102582 5.303e-06 1.84852e-06)
(0.10258 7.19613e-06 4.43472e-06)
(0.102577 6.12261e-06 3.60373e-06)
(0.102576 6.87533e-07 -7.79086e-07)
(0.102576 -5.82262e-06 -5.9034e-06)
(0.11104 3.53393e-06 2.88101e-07)
(0.11104 5.79742e-06 3.91059e-06)
(0.111042 6.11695e-06 5.67263e-06)
(0.111044 2.17283e-06 2.107e-06)
(0.111046 -3.58197e-06 -4.49676e-06)
(0.115516 1.76191e-06 1.66801e-06)
(0.115517 2.72605e-06 3.64022e-06)
(0.11552 2.85673e-06 5.31902e-06)
(0.115524 7.74131e-07 3.63465e-06)
(0.115526 -2.37322e-06 -1.66864e-06)
(0.117824 -1.40603e-07 2.75817e-06)
(0.117826 9.98088e-08 3.91095e-06)
(0.117829 -1.70126e-07 4.94465e-06)
(0.117832 -1.14659e-06 3.54151e-06)
(0.117834 -1.77848e-06 -4.86509e-07)
(0.118517 -1.14348e-06 3.46821e-06)
(0.118518 -1.72542e-06 4.12656e-06)
(0.11852 -2.36988e-06 4.73427e-06)
(0.118523 -1.98731e-06 3.74333e-06)
(0.118525 -1.53715e-07 7.54173e-07)
(0.117824 -1.57076e-06 3.13256e-06)
(0.117825 -2.96126e-06 3.44296e-06)
(0.117828 -4.40628e-06 3.83243e-06)
(0.117831 -3.46271e-06 3.47043e-06)
(0.117832 2.69081e-07 1.83572e-06)
(0.115784 -2.96149e-06 3.05626e-06)
(0.115785 -5.01232e-06 2.8059e-06)
(0.115788 -7.1939e-06 2.87973e-06)
(0.115791 -5.62213e-06 3.13868e-06)
(0.115793 3.72482e-07 2.81575e-06)
(0.112054 -4.43029e-06 2.42311e-06)
(0.112054 -7.2962e-06 1.22127e-06)
(0.112056 -8.90455e-06 9.07162e-07)
(0.112059 -5.60189e-06 1.84068e-06)
(0.112062 1.97678e-06 2.99118e-06)
(0.104845 -3.39334e-06 1.51195e-06)
(0.104846 -6.11925e-06 4.02198e-08)
(0.104846 -8.26518e-06 -1.15171e-06)
(0.104845 -6.13681e-06 -6.16444e-07)
(0.104845 6.10988e-07 1.76983e-06)
(0.0849915 -5.20159e-06 -1.73572e-06)
(0.0849902 -3.98426e-06 -1.27586e-06)
(0.084988 -2.34783e-06 -7.5113e-07)
(0.0849858 -1.65315e-06 -7.58911e-07)
(0.0849838 -1.97423e-06 -7.19612e-07)
(0.0849818 -3.13691e-06 5.46748e-07)
(0.0850008 4.46989e-06 3.75252e-06)
(0.0849982 1.61796e-06 3.64491e-06)
(0.084995 -3.43836e-07 2.5485e-06)
(0.0849918 -8.62452e-07 1.63746e-06)
(0.0849892 4.94368e-07 2.37381e-06)
(0.0849875 2.24055e-06 4.99953e-06)
(0.104966 2.61302e-06 -9.19845e-07)
(0.104966 5.37379e-06 2.54335e-06)
(0.104965 6.8899e-06 4.73412e-06)
(0.104963 4.60481e-06 3.92806e-06)
(0.104962 -1.1608e-06 5.79827e-07)
(0.104965 -6.68578e-06 -3.5611e-06)
(0.112506 3.87723e-06 -1.08272e-06)
(0.112508 6.74344e-06 1.24979e-06)
(0.112511 5.62024e-06 1.60081e-06)
(0.112514 1.13089e-07 -1.07378e-06)
(0.116439 2.12433e-06 -1.09088e-06)
(0.116442 4.17282e-06 -1.90167e-07)
(0.116446 3.96835e-06 3.2184e-07)
(0.11645 1.16919e-07 -1.192e-06)
(0.118515 -1.82903e-07 -5.80511e-07)
(0.118517 1.28022e-06 -5.25364e-07)
(0.118521 1.14076e-06 -3.76356e-07)
(0.118524 -8.57788e-07 -1.01963e-06)
(0.119176 -1.47249e-06 4.81474e-07)
(0.119177 -8.77201e-07 3.65267e-07)
(0.11918 -8.29932e-07 3.56483e-07)
(0.119183 -9.70955e-07 2.87187e-07)
(0.119184 -5.16093e-07 1.36916e-08)
(0.118515 -2.18957e-06 7.31049e-07)
(0.118516 -2.67263e-06 3.0189e-07)
(0.118519 -3.16508e-06 1.03614e-08)
(0.118521 -2.12981e-06 5.67513e-07)
(0.118522 5.48217e-07 1.58878e-06)
(0.116438 -3.13131e-06 1.2211e-06)
(0.116439 -4.5919e-06 -8.12146e-08)
(0.116442 -5.82073e-06 -1.00605e-06)
(0.116445 -3.90915e-06 1.73537e-07)
(0.116446 9.82179e-07 2.81327e-06)
(0.112503 -4.68186e-06 8.90487e-07)
(0.112503 -7.29685e-06 -1.81593e-06)
(0.112506 -8.03097e-06 -2.98305e-06)
(0.112509 -4.46116e-06 -6.57294e-07)
(0.11251 2.31398e-06 3.61399e-06)
(0.104964 -3.88811e-06 7.06437e-07)
(0.104965 -6.29036e-06 -1.78788e-06)
(0.104965 -8.09653e-06 -3.7343e-06)
(0.104964 -5.93615e-06 -2.34726e-06)
(0.104965 6.7591e-07 2.29508e-06)
(0.0850089 -5.44386e-06 -2.66987e-06)
(0.0850075 -4.16829e-06 -1.90887e-06)
(0.0850053 -2.76748e-06 -9.96045e-07)
(0.0850029 -2.22134e-06 -8.27751e-07)
(0.0850012 -2.25198e-06 -9.00547e-07)
(0.0849841 6.01259e-06 1.44069e-06)
(0.0849824 2.42131e-06 3.67468e-06)
(0.0849813 -5.8453e-07 4.18107e-06)
(0.084979 -2.0366e-06 3.7121e-06)
(0.0849774 -2.00614e-06 3.33137e-06)
(0.0849757 -6.04946e-07 3.36812e-06)
(0.104849 4.58891e-06 -9.71291e-07)
(0.104849 5.63129e-06 7.82869e-07)
(0.104849 6.87279e-06 2.30971e-06)
(0.104847 7.07128e-06 3.37265e-06)
(0.104846 3.60803e-06 2.80627e-06)
(0.104846 -3.62818e-06 2.09568e-07)
(0.112057 5.44279e-06 -1.77351e-06)
(0.112058 8.22781e-06 -1.58834e-06)
(0.112059 1.03039e-05 -1.10208e-06)
(0.112061 9.37227e-06 -8.86474e-07)
(0.112064 2.9084e-06 -1.62097e-06)
(0.112065 -5.51958e-06 -2.4389e-06)
(0.115784 2.96079e-06 -2.07754e-06)
(0.115785 5.59388e-06 -2.98197e-06)
(0.115788 8.69525e-06 -3.32451e-06)
(0.115792 8.59239e-06 -3.17002e-06)
(0.115794 3.80914e-06 -2.79538e-06)
(0.115794 -3.00657e-06 -2.09371e-06)
(0.117821 -9.05325e-08 -2.39596e-06)
(0.117823 3.03593e-06 -3.10324e-06)
(0.117825 5.68164e-06 -3.69633e-06)
(0.117829 5.58725e-06 -3.61073e-06)
(0.117832 2.67821e-06 -2.71212e-06)
(0.117832 -1.57203e-06 -1.07304e-06)
(0.118515 -6.53414e-07 -1.67419e-06)
(0.118517 1.40013e-06 -2.42519e-06)
(0.11852 2.01134e-06 -2.863e-06)
(0.118523 1.15827e-06 -1.79459e-06)
(0.118523 -3.17047e-07 4.04334e-07)
(0.117823 -2.0156e-06 -1.68504e-06)
(0.117824 -1.49825e-06 -2.45573e-06)
(0.117827 -1.32768e-06 -3.03265e-06)
(0.11783 -7.1477e-07 -1.27656e-06)
(0.11783 4.83405e-07 2.17723e-06)
(0.115513 -3.08279e-06 -1.02224e-06)
(0.115515 -3.83678e-06 -2.91312e-06)
(0.115518 -4.45494e-06 -4.43034e-06)
(0.115521 -2.80602e-06 -2.18376e-06)
(0.115522 9.56176e-07 3.38122e-06)
(0.111038 -4.4101e-06 -6.302e-07)
(0.111039 -6.65309e-06 -4.56443e-06)
(0.11104 -7.0815e-06 -6.36501e-06)
(0.111042 -3.87333e-06 -2.8085e-06)
(0.111044 2.01674e-06 4.60959e-06)
(0.102582 -3.65325e-06 7.27853e-07)
(0.102582 -5.73275e-06 -3.06401e-06)
(0.102581 -7.64997e-06 -6.07526e-06)
(0.10258 -5.45721e-06 -3.86864e-06)
(0.10258 1.2681e-06 3.38352e-06)
(0.0810129 -5.20556e-06 -2.5681e-06)
(0.0810112 -3.70196e-06 -1.85516e-06)
(0.0810087 -2.45141e-06 -1.15415e-06)
(0.0810065 -2.01362e-06 -1.06282e-06)
(0.0810048 -1.83949e-06 -1.18864e-06)
(0.0800741 4.71513e-06 -4.52125e-07)
(0.0800733 1.83784e-06 9.16123e-07)
(0.080073 -8.32104e-07 1.96774e-06)
(0.0800724 -2.66309e-06 2.60474e-06)
(0.080072 -2.96129e-06 3.15834e-06)
(0.080072 -2.10861e-06 3.19564e-06)
(0.101505 3.68602e-06 -2.83784e-06)
(0.101505 5.87534e-06 -1.32105e-06)
(0.101504 7.89574e-06 -1.17541e-07)
(0.101501 7.84578e-06 6.05587e-07)
(0.101499 3.30427e-06 9.35272e-07)
(0.101499 -4.83501e-06 7.25061e-07)
(0.109144 4.16533e-06 -3.48946e-06)
(0.109145 7.77649e-06 -3.4704e-06)
(0.109144 1.10856e-05 -3.58272e-06)
(0.109145 1.10066e-05 -3.36778e-06)
(0.109145 5.67865e-06 -2.26786e-06)
(0.109145 -4.74942e-06 -5.63551e-07)
(0.113172 2.84033e-06 -4.00376e-06)
(0.113172 6.68218e-06 -4.77721e-06)
(0.113174 1.06565e-05 -5.59943e-06)
(0.113176 1.05964e-05 -5.16374e-06)
(0.113178 5.39371e-06 -3.04175e-06)
(0.113178 -3.27906e-06 -5.0385e-08)
(0.115514 3.87553e-07 -4.50189e-06)
(0.115515 4.3957e-06 -4.89316e-06)
(0.115517 7.87132e-06 -5.83766e-06)
(0.11552 7.89396e-06 -5.45337e-06)
(0.115522 3.97849e-06 -3.07684e-06)
(0.115522 -2.35732e-06 6.90018e-07)
(0.116439 -4.47021e-08 -2.95063e-06)
(0.116441 3.00952e-06 -4.40962e-06)
(0.116444 4.09031e-06 -5.23101e-06)
(0.116447 2.15263e-06 -2.6099e-06)
(0.116447 -1.19856e-06 1.96825e-06)
(0.115784 -1.82556e-06 -3.13505e-06)
(0.115785 -5.5738e-07 -4.57653e-06)
(0.115788 4.01183e-08 -5.78882e-06)
(0.115791 1.25701e-07 -3.06405e-06)
(0.115792 6.82382e-08 3.07551e-06)
(0.113169 -3.0845e-06 -2.74249e-06)
(0.11317 -3.23326e-06 -4.81356e-06)
(0.113172 -3.34591e-06 -6.39664e-06)
(0.113175 -1.93636e-06 -3.07737e-06)
(0.113177 7.3974e-07 4.41149e-06)
(0.107885 -4.1188e-06 -1.25607e-06)
(0.107885 -5.55657e-06 -5.12633e-06)
(0.107885 -6.3759e-06 -7.88619e-06)
(0.107886 -4.06546e-06 -4.42319e-06)
(0.107887 1.02267e-06 5.40605e-06)
(0.0979126 -3.2983e-06 1.20131e-06)
(0.0979121 -5.09362e-06 -3.00254e-06)
(0.09791 -6.7283e-06 -6.53932e-06)
(0.0979082 -4.80585e-06 -3.87097e-06)
(0.0979079 1.05515e-06 4.79522e-06)
(0.0733686 -4.24385e-06 -4.50919e-07)
(0.0733669 -2.92255e-06 -8.41368e-07)
(0.0733644 -2.22551e-06 -1.25931e-06)
(0.0733618 -2.04194e-06 -1.20089e-06)
(0.0733599 -1.65513e-06 -6.06501e-07)
(0.0686804 2.38604e-06 -2.05758e-06)
(0.0686791 1.42408e-06 -1.01128e-06)
(0.0686783 1.78201e-07 2.91333e-07)
(0.0686771 -1.75409e-06 1.57098e-06)
(0.0686774 -3.51748e-06 2.52441e-06)
(0.0686792 -3.33429e-06 2.56604e-06)
(0.0936026 3.54468e-07 -3.89795e-06)
(0.0936021 3.56566e-06 -2.76544e-06)
(0.0936005 6.66864e-06 -1.8597e-06)
(0.093598 7.79317e-06 -1.14506e-06)
(0.093595 4.43167e-06 -3.90687e-07)
(0.0935941 -3.70132e-06 9.40977e-07)
(0.102811 1.24291e-06 -4.17206e-06)
(0.102811 4.83335e-06 -4.28105e-06)
(0.102809 9.26061e-06 -4.89758e-06)
(0.102807 1.0793e-05 -4.71754e-06)
(0.102806 7.04026e-06 -2.79503e-06)
(0.102805 -3.12001e-06 7.67396e-07)
(0.10789 1.38398e-06 -4.41298e-06)
(0.10789 5.82764e-06 -5.77289e-06)
(0.107889 1.05481e-05 -7.06605e-06)
(0.107889 1.06607e-05 -6.37732e-06)
(0.107889 5.05515e-06 -2.76404e-06)
(0.107889 -5.12997e-06 2.37684e-06)
(0.111041 7.58042e-07 -5.14392e-06)
(0.111041 5.44075e-06 -6.43245e-06)
(0.111041 8.54894e-06 -7.44965e-06)
(0.111042 8.54402e-06 -6.70384e-06)
(0.111043 3.47047e-06 -2.96602e-06)
(0.111043 -4.7956e-06 3.33617e-06)
(0.112506 -1.1666e-08 -3.28382e-06)
(0.112507 4.13577e-06 -6.55976e-06)
(0.112508 5.2951e-06 -7.11215e-06)
(0.11251 2.43791e-06 -3.53857e-06)
(0.11251 -2.5218e-06 3.23984e-06)
(0.112055 -1.72414e-06 -3.71932e-06)
(0.112056 1.54322e-07 -6.44326e-06)
(0.112058 9.29239e-07 -7.50092e-06)
(0.11206 3.09613e-07 -3.5276e-06)
(0.112061 -1.03363e-06 4.41701e-06)
(0.109139 -3.22586e-06 -3.5995e-06)
(0.109139 -2.95474e-06 -6.63273e-06)
(0.10914 -2.817e-06 -8.39221e-06)
(0.109141 -1.91965e-06 -4.45791e-06)
(0.109143 -2.76889e-07 5.2606e-06)
(0.102803 -4.30329e-06 -1.0786e-06)
(0.102803 -4.71398e-06 -4.48775e-06)
(0.102802 -5.29259e-06 -7.73605e-06)
(0.102802 -4.17607e-06 -5.54271e-06)
(0.102802 -7.79307e-07 3.63937e-06)
(0.0906282 -3.77062e-06 1.90926e-06)
(0.090627 -4.6588e-06 -1.62879e-06)
(0.090625 -5.55038e-06 -5.33501e-06)
(0.0906231 -4.23328e-06 -3.42107e-06)
(0.090623 -3.77911e-07 4.47563e-06)
(0.062129 -2.98033e-06 2.54084e-06)
(0.0621277 -2.46534e-06 3.73152e-07)
(0.0621253 -2.49327e-06 -1.66088e-06)
(0.0621215 -2.31615e-06 -1.38733e-06)
(0.0621198 -1.44542e-06 5.9478e-07)
(0.0507773 -8.66346e-07 -1.77111e-06)
(0.0507768 4.76414e-07 -1.02484e-06)
(0.0507746 1.348e-06 -6.61127e-08)
(0.0507708 -1.24777e-07 9.32939e-07)
(0.0507716 -2.77422e-06 1.60785e-06)
(0.0507756 -3.21499e-06 1.89613e-06)
(0.0781388 -2.33095e-06 -3.09576e-06)
(0.0781381 6.13182e-07 -2.38661e-06)
(0.078137 4.52694e-06 -2.07645e-06)
(0.078134 7.71008e-06 -2.07475e-06)
(0.0781287 6.19101e-06 -1.3e-06)
(0.0781258 -1.6153e-06 1.14628e-06)
(0.0906339 -1.19462e-06 -2.97264e-06)
(0.0906324 2.31982e-06 -3.60745e-06)
(0.0906298 6.66735e-06 -4.56496e-06)
(0.0906268 7.24716e-06 -4.08972e-06)
(0.0906237 2.93741e-06 -1.531e-06)
(0.0906232 -3.19687e-06 1.54655e-06)
(0.0979184 -1.40361e-07 -2.68594e-06)
(0.0979176 3.77016e-06 -4.44442e-06)
(0.0979153 7.55671e-06 -6.25307e-06)
(0.0979124 7.31489e-06 -5.43547e-06)
(0.0979109 2.4062e-06 -1.80233e-06)
(0.0979107 -5.27172e-06 3.6545e-06)
(0.102585 5.05511e-07 -3.20139e-06)
(0.102585 3.08048e-06 -5.04371e-06)
(0.102584 5.45124e-06 -6.62801e-06)
(0.102582 6.12747e-06 -6.49415e-06)
(0.10258 2.90799e-06 -3.21555e-06)
(0.10258 -3.96319e-06 3.6684e-06)
(0.104966 -1.0335e-06 -1.61836e-06)
(0.104967 2.07425e-06 -5.26895e-06)
(0.104966 3.92859e-06 -7.3109e-06)
(0.104964 2.37769e-06 -4.83568e-06)
(0.104964 -2.29419e-06 2.55918e-06)
(0.104845 -1.33328e-06 -1.91888e-06)
(0.104846 -8.80269e-08 -4.70943e-06)
(0.104846 7.87423e-07 -6.87568e-06)
(0.104845 2.38123e-07 -4.64267e-06)
(0.104845 -1.89744e-06 2.58294e-06)
(0.101498 -2.91426e-06 -2.06499e-06)
(0.101499 -2.37493e-06 -5.09595e-06)
(0.101499 -1.94748e-06 -7.29448e-06)
(0.101498 -1.70089e-06 -4.73964e-06)
(0.101498 -1.75575e-06 3.10608e-06)
(0.0935978 -4.18885e-06 -2.45574e-07)
(0.0935975 -4.02316e-06 -3.67075e-06)
(0.0935963 -3.92319e-06 -6.4114e-06)
(0.0935951 -3.26773e-06 -4.25212e-06)
(0.0935955 -2.00382e-06 3.20056e-06)
(0.0781395 -4.13202e-06 2.05822e-06)
(0.0781389 -3.78379e-06 1.90176e-07)
(0.078138 -4.04587e-06 -3.23536e-06)
(0.0781355 -3.52256e-06 -2.5797e-06)
(0.078134 -1.79363e-06 2.9913e-06)
(0.0475057 -2.274e-06 2.80609e-06)
(0.0475057 -2.15773e-06 9.88076e-07)
(0.0475021 -2.20352e-06 -6.71039e-07)
(0.0474969 -1.83456e-06 -1.36451e-07)
(0.0474958 -9.33096e-07 1.94421e-06)
(0.0312745 -6.34585e-07 -6.97729e-07)
(0.0312758 2.98757e-08 -3.42975e-07)
(0.0312727 4.80086e-07 2.27872e-08)
(0.0312669 5.67163e-07 2.58395e-07)
(0.0312646 2.04752e-07 3.79383e-07)
(0.0312678 -2.88685e-07 7.69807e-07)
(0.0474989 -1.66078e-06 -1.06057e-06)
(0.0474995 8.59212e-08 -8.38021e-07)
(0.0474972 1.67715e-06 -7.90872e-07)
(0.0474921 1.54864e-06 -7.12303e-07)
(0.0474919 3.22139e-07 -1.54569e-07)
(0.0474958 -7.90196e-07 7.87016e-07)
(0.0621226 -8.58389e-07 -1.4113e-06)
(0.0621217 9.80603e-08 -9.73306e-07)
(0.0621199 1.02445e-06 -1.04861e-06)
(0.0621168 1.03293e-07 -1.23117e-06)
(0.0733647 2.14859e-06 -2.35872e-06)
(0.0733634 8.20191e-07 -1.34442e-06)
(0.0733618 -2.86562e-08 -1.02454e-06)
(0.0733599 -1.49238e-07 -1.0508e-06)
(0.0733566 1.78356e-07 -1.00416e-06)
(0.0810107 4.72653e-06 -3.36163e-06)
(0.0810097 5.16202e-07 -2.60133e-06)
(0.081009 -1.58084e-06 -1.61392e-06)
(0.0810073 -1.40334e-06 -8.70028e-07)
(0.0810058 -1.60957e-08 -5.62331e-07)
(0.0850025 1.86478e-06 -3.7713e-06)
(0.0850017 -1.26812e-06 -2.64618e-06)
(0.0850002 -1.88085e-06 -1.09028e-06)
(0.0849994 -1.33275e-06 -4.43242e-07)
(0.0849996 -2.07743e-07 -1.55501e-07)
(0.0849877 2.48459e-06 -3.79634e-06)
(0.0849873 1.73172e-07 -2.9116e-06)
(0.0849859 -1.40052e-06 -1.61591e-06)
(0.0849846 -1.66798e-06 -1.02231e-06)
(0.0849843 -1.30164e-06 -8.79962e-07)
(0.0800817 3.38108e-07 -3.5314e-06)
(0.0800813 -7.81506e-07 -2.93264e-06)
(0.0800802 -1.68282e-06 -1.96668e-06)
(0.0800792 -1.7398e-06 -1.3829e-06)
(0.0800785 -1.53689e-06 -1.08111e-06)
(0.0686876 -1.6768e-06 -1.17063e-06)
(0.068687 -2.29643e-06 -2.19821e-06)
(0.0686855 -2.37472e-06 -2.61553e-06)
(0.0686835 -2.03393e-06 -2.00456e-06)
(0.0686826 -1.77372e-06 -9.04063e-07)
(0.0507842 -2.34771e-06 1.09293e-06)
(0.0507835 -2.60601e-06 -1.41389e-06)
(0.05078 -2.48496e-06 -2.73969e-06)
(0.0507758 -2.06051e-06 -1.74046e-06)
(0.0507752 -1.71964e-06 5.76774e-07)
(0.0312771 -1.47963e-06 6.28269e-07)
(0.0312786 -1.38057e-06 1.36187e-07)
(0.0312752 -1.29383e-06 -1.88799e-07)
(0.0312705 -1.10948e-06 -2.03838e-08)
(0.0312707 -8.90064e-07 6.70157e-07)
)
;

boundaryField
{
    inlet
    {
        type            fixedValue;
        value           nonuniform List<vector> 0();
    }
    ami1
    {
        type            cyclicAMI;
        value           nonuniform List<vector> 0();
    }
    walls
    {
        type            noSlip;
    }
    ami2
    {
        type            cyclicAMI;
        value           nonuniform List<vector> 0();
    }
    outlet
    {
        type            zeroGradient;
    }
    procBoundary5to6
    {
        type            processor;
        value           nonuniform List<vector> 
177
(
(0.0312621 1.59346e-06 -9.67941e-07)
(0.0312621 1.59346e-06 -9.67941e-07)
(0.0507571 2.89066e-06 1.4187e-06)
(0.0686716 2.67152e-06 2.67785e-06)
(0.0686716 2.67152e-06 2.67785e-06)
(0.0686716 2.67152e-06 2.67785e-06)
(0.0800714 4.45438e-07 -5.61032e-07)
(0.0849778 -7.12011e-07 -7.20583e-07)
(0.0849778 -7.12011e-07 -7.20583e-07)
(0.0849948 -1.3343e-06 -1.34366e-06)
(0.104963 3.55398e-06 -4.70644e-06)
(0.0809971 -3.24913e-06 -2.52045e-07)
(0.102576 5.07398e-06 -3.64651e-06)
(0.0733535 -4.90037e-06 1.25501e-06)
(0.0621031 -4.04594e-06 1.35728e-06)
(0.0474915 2.53911e-06 -7.7692e-07)
(0.0474915 2.53911e-06 -7.7692e-07)
(0.0474915 2.53911e-06 -7.7692e-07)
(0.031271 7.69962e-07 6.75074e-07)
(0.0474851 7.60455e-07 -3.55028e-06)
(0.0781315 1.97832e-06 -6.19245e-06)
(0.0474851 7.60455e-07 -3.55028e-06)
(0.0781315 1.97832e-06 -6.19245e-06)
(0.0781315 1.97832e-06 -6.19245e-06)
(0.0781315 1.97832e-06 -6.19245e-06)
(0.0935955 1.17468e-06 -4.61167e-06)
(0.101498 7.97938e-07 -4.81578e-06)
(0.104845 1.89227e-06 -5.1399e-06)
(0.104963 3.55398e-06 -4.70644e-06)
(0.102576 5.07398e-06 -3.64651e-06)
(0.102576 5.07398e-06 -3.64651e-06)
(0.0979061 4.73199e-06 -1.92504e-06)
(0.107888 8.66546e-06 -2.10495e-06)
(0.0906241 4.10411e-06 -1.16056e-06)
(0.102805 8.87514e-06 -1.13313e-06)
(0.0781203 5.77724e-06 8.79414e-07)
(0.0507738 8.62207e-07 2.00331e-06)
(0.0507738 8.62207e-07 2.00331e-06)
(0.0621021 -2.96825e-08 -1.45006e-06)
(0.0906282 -2.82272e-06 -9.22424e-06)
(0.0906282 -2.82272e-06 -9.22424e-06)
(0.0906282 -2.82272e-06 -9.22424e-06)
(0.102807 -2.21863e-06 -7.51075e-06)
(0.109144 -1.32254e-06 -7.02411e-06)
(0.112061 1.75647e-06 -6.10954e-06)
(0.112511 5.26368e-06 -4.80152e-06)
(0.111045 7.33547e-06 -3.33627e-06)
(0.115525 5.31079e-06 -1.28198e-06)
(0.107888 8.66546e-06 -2.10495e-06)
(0.102805 8.87514e-06 -1.13313e-06)
(0.102805 8.87514e-06 -1.13313e-06)
(0.0935999 1.49802e-06 2.52677e-06)
(0.0686729 -6.12071e-06 3.10741e-06)
(0.101502 4.29989e-06 2.07403e-06)
(0.0686729 -6.12071e-06 3.10741e-06)
(0.0733496 1.36275e-06 4.52413e-06)
(0.0809906 2.54702e-06 6.17521e-06)
(0.0979105 -3.7413e-06 -3.51602e-06)
(0.107888 -3.49451e-06 -7.57195e-06)
(0.10258 -5.1589e-06 -3.97747e-06)
(0.107888 -3.49451e-06 -7.57195e-06)
(0.111047 -3.80268e-06 -5.3242e-06)
(0.113177 -2.2876e-06 -8.03829e-06)
(0.115525 -3.29242e-06 -6.0279e-06)
(0.115792 9.35641e-07 -6.75475e-06)
(0.117833 -9.24791e-07 -4.06402e-06)
(0.116447 4.25383e-06 -4.89583e-06)
(0.115525 5.31079e-06 -1.28198e-06)
(0.118524 1.74563e-06 -2.25704e-06)
(0.115525 5.31079e-06 -1.28198e-06)
(0.115525 5.31079e-06 -1.28198e-06)
(0.113177 8.41795e-06 -2.06429e-06)
(0.115792 5.20474e-06 1.06243e-06)
(0.109146 7.85827e-06 -1.21469e-06)
(0.112062 5.0812e-06 1.97623e-06)
(0.101502 4.29989e-06 2.07403e-06)
(0.104847 3.17235e-06 2.68812e-06)
(0.0800722 -6.54745e-06 3.89993e-06)
(0.0809906 2.54702e-06 6.17521e-06)
(0.10258 -5.1589e-06 -3.97747e-06)
(0.111047 -3.80268e-06 -5.3242e-06)
(0.111047 -3.80268e-06 -5.3242e-06)
(0.112517 -3.00042e-06 -2.38793e-06)
(0.115525 -3.29242e-06 -6.0279e-06)
(0.116452 -2.9684e-06 -2.72168e-06)
(0.117833 -9.24791e-07 -4.06402e-06)
(0.118526 -1.88211e-06 -1.51302e-06)
(0.118524 1.74563e-06 -2.25704e-06)
(0.117831 3.43088e-06 -4.37156e-07)
(0.115792 5.20474e-06 1.06243e-06)
(0.112062 5.0812e-06 1.97623e-06)
(0.104847 3.17235e-06 2.68812e-06)
(0.104847 3.17235e-06 2.68812e-06)
(0.0849843 -3.12371e-06 3.2468e-06)
(0.0849996 -1.8447e-06 5.33011e-09)
(0.0849853 1.69906e-06 6.28978e-06)
(0.0849739 1.502e-07 4.03333e-06)
(0.112517 -3.00042e-06 -2.38793e-06)
(0.104969 -5.20846e-06 -3.26716e-06)
(0.112516 -1.8974e-06 -2.19908e-06)
(0.104848 -5.94767e-06 -1.81321e-06)
(0.112517 -3.00042e-06 -2.38793e-06)
(0.112517 -3.00042e-06 -2.38793e-06)
(0.116452 -2.9684e-06 -2.72168e-06)
(0.116452 -2.9684e-06 -2.72168e-06)
(0.118526 -1.88211e-06 -1.51302e-06)
(0.118526 -1.88211e-06 -1.51302e-06)
(0.118526 -1.88211e-06 -1.51302e-06)
(0.119182 6.23542e-07 -5.74011e-07)
(0.118521 2.46412e-06 1.42391e-06)