/*--------------------------------*- C++ -*----------------------------------*\
| =========                 |                                                 |
| \\      /  F ield         | OpenFOAM: The Open Source CFD Toolbox           |
|  \\    /   O peration     | Version:  2212                                  |
|   \\  /    A nd           | Website:  www.openfoam.com                      |
|    \\/     M anipulation  |                                                 |
\*---------------------------------------------------------------------------*/
FoamFile
{
    version     2.0;
    format      ascii;
    arch        "LSB;label=32;scalar=64";
    class       volScalarField;
    location    "0.3";
    object      nut;
}
// * * * * * * * * * * * * * * * * * * * * * * * * * * * * * * * * * * * * * //

dimensions      [0 2 -1 0 0 0 0];

internalField   nonuniform List<scalar> 
693
(
4.78222e-06
4.7827e-06
4.78307e-06
4.78334e-06
4.78354e-06
4.78368e-06
1.03605e-05
1.0362e-05
1.03633e-05
1.03643e-05
1.0365e-05
1.03657e-05
1.55292e-05
1.55317e-05
1.55338e-05
1.55356e-05
1.5537e-05
1.55379e-05
1.97426e-05
1.97461e-05
1.9749e-05
1.97515e-05
1.97534e-05
1.97545e-05
2.24682e-05
2.24722e-05
2.24757e-05
2.24787e-05
2.24809e-05
2.24822e-05
2.3425e-05
2.34297e-05
2.34338e-05
2.34374e-05
2.344e-05
2.34415e-05
2.25098e-05
2.25143e-05
2.25182e-05
2.25216e-05
2.25241e-05
2.25255e-05
1.97897e-05
1.97934e-05
1.97966e-05
1.97993e-05
1.98013e-05
1.98026e-05
1.55868e-05
1.55894e-05
1.55916e-05
1.55935e-05
1.5595e-05
1.55959e-05
1.03494e-05
1.03509e-05
1.03522e-05
1.03532e-05
1.0354e-05
1.03547e-05
4.78215e-06
4.78264e-06
4.78302e-06
4.7833e-06
4.7835e-06
4.78366e-06
1.03495e-05
1.0351e-05
1.03522e-05
1.03532e-05
1.03541e-05
1.03547e-05
5.69986e-05
5.70094e-05
5.70207e-05
5.70309e-05
5.70376e-05
5.70386e-05
9.44763e-05
9.44909e-05
9.45115e-05
9.45302e-05
9.45391e-05
9.45319e-05
0.000121913
0.000121936
0.000121965
0.00012199
0.000121997
0.000121965
0.000139309
0.000139314
0.00013934
0.00013937
0.000139376
0.000139312
0.000146299
0.000146384
0.000146442
0.000146493
0.000146505
0.000146431
0.000141784
0.00014186
0.000141912
0.000141956
0.000141966
0.000141892
0.000125781
0.000125818
0.000125856
0.000125884
0.000125893
0.00012586
9.80043e-05
9.80251e-05
9.80491e-05
9.80692e-05
9.80786e-05
9.80704e-05
5.69971e-05
5.70094e-05
5.70219e-05
5.70325e-05
5.70393e-05
5.70403e-05
1.03602e-05
1.03617e-05
1.0363e-05
1.03641e-05
1.03649e-05
1.03656e-05
1.55869e-05
1.55895e-05
1.55917e-05
1.55936e-05
1.55951e-05
1.5596e-05
9.8002e-05
9.80212e-05
9.8045e-05
9.80657e-05
9.80755e-05
9.80688e-05
0.000169161
0.000169212
0.000169274
0.000169319
0.000169324
0.00016927
0.000215823
0.000215996
0.000216102
0.000216185
0.000216178
0.000215967
0.000242423
0.000242672
0.000242881
0.000243019
0.000243013
0.000242727
0.000251775
0.000252065
0.000252368
0.000252486
0.000252474
0.000252157
0.000244217
0.00024443
0.000244609
0.000244721
0.000244699
0.000244405
0.000217544
0.000217709
0.000217816
0.000217889
0.00021787
0.000217657
0.000169187
0.000169244
0.000169305
0.000169347
0.000169348
0.000169288
9.44763e-05
9.44977e-05
9.45217e-05
9.45408e-05
9.45495e-05
9.4539e-05
1.55284e-05
1.55311e-05
1.55334e-05
1.55354e-05
1.55369e-05
1.55378e-05
1.97902e-05
1.97939e-05
1.97971e-05
1.97997e-05
1.98017e-05
1.98029e-05
0.000125795
0.000125831
0.000125867
0.000125894
0.000125899
0.000125864
0.000217574
0.000217734
0.000217831
0.000217896
0.00021787
0.000217645
0.000276949
0.000277197
0.00027733
0.000277428
0.000277375
0.000276988
0.000309935
0.000310149
0.000310405
0.000310641
0.000310625
0.00031033
0.000320797
0.000321089
0.000321498
0.000321731
0.000321723
0.000321419
0.000310681
0.000310925
0.000311167
0.000311315
0.00031129
0.000310974
0.000276923
0.000277216
0.000277366
0.000277465
0.000277414
0.00027703
0.000215947
0.00021611
0.000216213
0.00021628
0.000216255
0.000216038
0.000121918
0.000121957
0.000121994
0.000122021
0.000122026
0.000121989
1.97411e-05
1.9745e-05
1.97483e-05
1.97511e-05
1.97533e-05
1.97546e-05
2.25107e-05
2.25152e-05
2.25191e-05
2.25224e-05
2.25248e-05
2.25261e-05
0.000141834
0.000141903
0.00014195
0.000141987
0.000141987
0.000141901
0.000244418
0.00024461
0.000244749
0.000244824
0.00024476
0.000244414
0.000311015
0.000311213
0.000311398
0.000311503
0.000311427
0.000311014
0.000348007
0.000348281
0.000348548
0.000348699
0.000348622
0.000348158
0.000359647
0.000359988
0.000360451
0.000360692
0.000360657
0.000360234
0.000347726
0.000347998
0.000348343
0.000348518
0.000348543
0.000348161
0.000310269
0.000310489
0.000310693
0.000310821
0.00031078
0.000310443
0.000242761
0.000243001
0.000243127
0.00024321
0.000243166
0.000242854
0.000139278
0.00013934
0.000139388
0.000139424
0.000139427
0.000139362
2.24664e-05
2.24711e-05
2.24751e-05
2.24785e-05
2.24811e-05
2.24826e-05
2.34257e-05
2.34304e-05
2.34346e-05
2.34381e-05
2.34406e-05
2.34419e-05
0.000146377
0.000146448
0.000146497
0.000146533
0.000146522
0.000146411
0.000252245
0.000252491
0.000252603
0.00025265
0.000252516
0.000252039
0.000321606
0.000321809
0.000321984
0.000322045
0.000321882
0.000321271
0.00036032
0.000360591
0.000360815
0.000360886
0.000360735
0.000360012
0.000372431
0.000372716
0.000373031
0.000373236
0.000373229
0.00037272
0.000359854
0.000360133
0.000360495
0.000360671
0.000360693
0.000360266
0.000321386
0.000321618
0.000321833
0.000321966
0.000321922
0.000321561
0.000252216
0.000252428
0.000252599
0.000252694
0.000252645
0.000252301
0.000146393
0.00014647
0.000146525
0.000146566
0.000146568
0.00014649
2.34257e-05
2.34305e-05
2.34347e-05
2.34383e-05
2.3441e-05
2.34425e-05
2.24662e-05
2.24707e-05
2.24747e-05
2.2478e-05
2.24802e-05
0.000139157
0.000139268
0.000139338
0.000139371
0.000139333
0.0002428
0.000242976
0.000243091
0.000243077
0.000242755
0.000310499
0.000310687
0.000310827
0.000310804
0.000310419
0.00034827
0.000348508
0.000348679
0.000348668
0.000348215
0.000360001
0.000360244
0.000360513
0.000360726
0.00036064
0.000360004
0.0003478
0.000348057
0.000348387
0.000348559
0.000348574
0.000348161
0.000310898
0.000311123
0.000311333
0.000311463
0.000311425
0.000311083
0.000244413
0.000244616
0.000244778
0.000244868
0.000244827
0.000244518
0.00014184
0.00014192
0.000141976
0.000142015
0.000142016
0.000141938
2.25108e-05
2.25153e-05
2.25192e-05
2.25226e-05
2.25251e-05
2.25264e-05
1.97453e-05
1.97486e-05
1.97512e-05
1.97529e-05
0.000121977
0.000121996
0.000121999
0.000121965
0.000215963
0.000216099
0.000216182
0.000216173
0.000215956
0.000277083
0.000277338
0.000277424
0.000277373
0.000276973
0.000311003
0.000311202
0.000311349
0.000311346
0.000311007
0.000321201
0.000321402
0.000321638
0.000321835
0.000321757
0.000321246
0.000310017
0.000310243
0.000310497
0.000310719
0.000310701
0.000310367
0.000276927
0.000277226
0.000277392
0.000277501
0.000277456
0.000277072
0.000217608
0.000217794
0.0002179
0.000217968
0.000217941
0.000217728
0.000125809
0.000125852
0.000125892
0.000125919
0.000125924
0.000125888
1.97905e-05
1.97941e-05
1.97973e-05
1.98e-05
1.98021e-05
1.98033e-05
1.55315e-05
1.55338e-05
1.55356e-05
1.55368e-05
9.45096e-05
9.45264e-05
9.4533e-05
9.45226e-05
0.000169122
0.000169194
0.00016926
0.000169279
0.000169227
0.00021757
0.000217735
0.000217813
0.000217809
0.000217604
0.000244353
0.000244591
0.000244697
0.000244697
0.000244412
0.000251988
0.000252255
0.000252514
0.00025258
0.000252496
0.000252067
0.000242533
0.000242812
0.000243023
0.000243139
0.000243108
0.000242799
0.000215897
0.000216097
0.000216213
0.000216289
0.000216269
0.000216061
0.000169203
0.000169273
0.000169338
0.000169379
0.000169379
0.00016932
9.80148e-05
9.80396e-05
9.80652e-05
9.80849e-05
9.80937e-05
9.80845e-05
1.55872e-05
1.55898e-05
1.55921e-05
1.5594e-05
1.55954e-05
1.55964e-05
1.03626e-05
1.03637e-05
1.03643e-05
1.0365e-05
5.70587e-05
5.70286e-05
5.70285e-05
5.70297e-05
9.7611e-05
9.78385e-05
9.79718e-05
9.80249e-05
9.80328e-05
0.000125712
0.00012577
0.000125827
0.000125852
0.000125827
0.000141807
0.000141886
0.000141937
0.00014196
0.000141916
0.000146363
0.000146448
0.000146503
0.000146539
0.000146532
0.000146438
0.000139358
0.00013937
0.000139399
0.000139423
0.000139419
0.000139351
0.000121948
0.000121978
0.000122009
0.000122031
0.000122033
0.000121996
9.44942e-05
9.45145e-05
9.45363e-05
9.45533e-05
9.45602e-05
9.45507e-05
5.70046e-05
5.7017e-05
5.70291e-05
5.70392e-05
5.70454e-05
5.70461e-05
1.03498e-05
1.03513e-05
1.03525e-05
1.03535e-05
1.03544e-05
1.0355e-05
4.78251e-06
4.78284e-06
4.78315e-06
4.78341e-06
1.03511e-05
1.03522e-05
1.03529e-05
1.03536e-05
1.55852e-05
1.55874e-05
1.55898e-05
1.55919e-05
1.55935e-05
1.97898e-05
1.97932e-05
1.97961e-05
1.97985e-05
1.98002e-05
2.25103e-05
2.25145e-05
2.25183e-05
2.25214e-05
2.25235e-05
2.34262e-05
2.34308e-05
2.34348e-05
2.34382e-05
2.34406e-05
2.3442e-05
2.24693e-05
2.24733e-05
2.24768e-05
2.24797e-05
2.24818e-05
2.2483e-05
1.97434e-05
1.97469e-05
1.97499e-05
1.97523e-05
1.97542e-05
1.97552e-05
1.55297e-05
1.55323e-05
1.55344e-05
1.55362e-05
1.55375e-05
1.55384e-05
1.03608e-05
1.03624e-05
1.03636e-05
1.03646e-05
1.03654e-05
1.0366e-05
4.78232e-06
4.7828e-06
4.78317e-06
4.78345e-06
4.78365e-06
4.78379e-06
)
;

boundaryField
{
    inlet
    {
        type            calculated;
        value           nonuniform List<scalar> 0();
    }
    ami1
    {
        type            cyclicAMI;
        value           nonuniform List<scalar> 0();
    }
    walls
    {
        type            nutkWallFunction;
        blending        stepwise;
        value           uniform 0;
    }
    ami2
    {
        type            cyclicAMI;
        value           nonuniform List<scalar> 0();
    }
    outlet
    {
        type            calculated;
        value           nonuniform List<scalar> 0();
    }
    procBoundary7to5
    {
        type            processor;
        value           nonuniform List<scalar> 
131
(
4.78379e-06
1.0366e-05
1.55383e-05
1.97551e-05
2.2483e-05
2.34425e-05
2.25263e-05
1.98033e-05
1.55965e-05
1.0355e-05
4.78379e-06
1.0355e-05
5.70342e-05
9.45136e-05
0.000121927
0.000139257
0.00014637
0.000141833
0.000125818
9.80495e-05
5.70347e-05
1.0366e-05
1.55965e-05
9.80496e-05
0.000169186
0.000215828
0.000242546
0.00025196
0.000244215
0.00021751
0.000169196
9.45158e-05
1.55384e-05
1.98036e-05
0.00012582
0.000217494
0.000276741
0.000310002
0.000321076
0.000310642
0.000276778
0.000215877
0.000121941
1.97553e-05
2.25267e-05
0.000141831
0.000244195
0.000310624
0.000347719
0.000359801
0.000347758
0.000310082
0.000242636
0.000139294
2.24835e-05
2.34426e-05
2.24819e-05
0.00014634
0.000139366
0.000251824
0.00024249
0.000320901
0.000309937
0.000359602
0.000347574
0.000372239
0.000359823
0.000321168
0.000252062
0.000146413
2.34433e-05
2.24819e-05
0.000139366
0.00024249
0.000309937
0.000347574
0.000347574
0.000359641
0.000347732
0.000310707
0.000244295
0.000141865
2.25271e-05
1.97541e-05
0.000121927
0.00021579
0.000276689
0.000310542
0.000310542
0.000320944
0.000309999
0.000276801
0.000217561
0.000125838
1.9804e-05
1.55375e-05
9.4501e-05
0.000169135
0.000217445
0.00024416
0.00024416
0.00025189
0.000242581
0.000215893
0.000169221
9.80603e-05
1.55968e-05
1.03654e-05
5.7025e-05
9.80178e-05
0.000125794
0.000141948
0.000141948
0.000146372
0.000139282
0.000121947
9.45261e-05
5.70396e-05
1.03553e-05
4.78359e-06
1.03542e-05
1.55946e-05
1.98014e-05
2.25251e-05
2.25251e-05
2.3443e-05
2.24837e-05
1.97558e-05
1.55388e-05
1.03663e-05
4.7839e-06
)
;
    }
    procBoundary7to8
    {
        type            processor;
        value           nonuniform List<scalar> 
68
(
4.7816e-06
1.03584e-05
1.5526e-05
1.97384e-05
2.24638e-05
1.03474e-05
5.69879e-05
9.44757e-05
0.000121943
0.000139469
1.55836e-05
9.79961e-05
0.000169206
0.000215926
0.000242575
1.97859e-05
0.000125801
0.00021766
0.000277142
0.000310201
2.25057e-05
0.000141857
0.000244553
0.00031129
0.000348373
0.000359962
2.34204e-05
0.000146411
0.0002524
0.000321893
0.000360695
0.000372835
2.24613e-05
1.97416e-05
0.000139276
0.000122081
0.000242953
0.000310779
0.000348627
0.000360392
1.97416e-05
0.000122081
0.000122081
0.000216068
0.000277278
0.000311303
0.000321535
1.55287e-05
9.45118e-05
9.45118e-05
0.000169223
0.000217693
0.000244518
0.000252173
1.03602e-05
5.71648e-05
5.71648e-05
9.79307e-05
0.000125773
0.000141851
0.000146423
4.7822e-06
1.03496e-05
1.03496e-05
1.55833e-05
1.97858e-05
2.25058e-05
2.34211e-05
)
;
    }
    procBoundary7to9
    {
        type            processor;
        value           nonuniform List<scalar> 
59
(
2.34199e-05
2.25049e-05
1.97854e-05
1.55836e-05
1.03474e-05
4.78153e-06
0.000146351
0.000141816
0.000125789
9.79992e-05
5.69859e-05
1.03581e-05
0.000251937
0.000244375
0.000217642
0.000169233
9.44717e-05
1.55251e-05
0.000321051
0.000311
0.000277123
0.000216044
0.000121927
1.97367e-05
0.000348066
0.000310579
0.000242914
0.000139301
2.24613e-05
0.000360238
0.000321726
0.000252387
0.000146426
2.34204e-05
0.000348172
0.000311221
0.00024457
0.000141869
2.25058e-05
0.000310335
0.000277155
0.000217713
0.000125817
1.97861e-05
0.000242713
0.000216021
0.000169255
9.80097e-05
1.5584e-05
0.000139526
0.000121981
9.44937e-05
5.69943e-05
1.03477e-05
2.24648e-05
1.97392e-05
1.55266e-05
1.03587e-05
4.78171e-06
)
;
    }
}


// ************************************************************************* //
