/*--------------------------------*- C++ -*----------------------------------*\
| =========                 |                                                 |
| \\      /  F ield         | OpenFOAM: The Open Source CFD Toolbox           |
|  \\    /   O peration     | Version:  2212                                  |
|   \\  /    A nd           | Website:  www.openfoam.com                      |
|    \\/     M anipulation  |                                                 |
\*---------------------------------------------------------------------------*/
FoamFile
{
    version     2.0;
    format      ascii;
    arch        "LSB;label=32;scalar=64";
    class       volVectorField;
    location    "1.35";
    object      U;
}
// * * * * * * * * * * * * * * * * * * * * * * * * * * * * * * * * * * * * * //

dimensions      [0 1 -1 0 0 0 0];

internalField   nonuniform List<vector> 
690
(
(0.0913641 -0.00121238 0.00185892)
(0.0905214 -0.00153137 0.0022968)
(0.0895943 -0.00144539 0.00248334)
(0.104131 -0.00067788 0.00192835)
(0.104465 -0.000785057 0.00225588)
(0.104683 -0.000841971 0.00243399)
(0.109596 -0.000350886 0.00170767)
(0.109995 -0.000337647 0.00186829)
(0.110374 -0.000352143 0.00200876)
(0.0892562 -0.000851135 0.00129373)
(0.0888728 -0.00109175 0.00149691)
(0.0884902 -0.00112019 0.0016407)
(0.088014 -0.00102531 0.00171802)
(0.0874271 -0.00089025 0.00175558)
(0.086747 -0.000747715 0.00176203)
(0.0860004 -0.000604276 0.00175014)
(0.0852027 -0.000466813 0.0017293)
(0.0843591 -0.000338277 0.00170584)
(0.0834788 -0.000220536 0.0016783)
(0.0825776 -0.000106202 0.00164526)
(0.0816692 -1.09811e-05 0.00160686)
(0.104349 -0.000368666 0.00149439)
(0.104552 -0.000508835 0.00161441)
(0.104751 -0.000631556 0.00172319)
(0.104958 -0.000698775 0.00179657)
(0.105141 -0.000708525 0.00184348)
(0.105284 -0.000664781 0.00187849)
(0.105379 -0.000598583 0.00190219)
(0.10543 -0.00052275 0.00190125)
(0.105446 -0.000431372 0.00187645)
(0.105435 -0.000335054 0.00184201)
(0.105403 -0.000238119 0.00180624)
(0.105354 -0.000145062 0.00176818)
(0.110243 -3.00513e-05 0.00143811)
(0.11061 -6.01123e-05 0.00148798)
(0.110969 -0.00010776 0.00154496)
(0.111364 -0.00014594 0.00159324)
(0.111776 -0.000165277 0.00162989)
(0.112184 -0.000166101 0.00165673)
(0.112578 -0.000151235 0.00167139)
(0.112954 -0.000125404 0.0016733)
(0.113311 -9.21425e-05 0.00166353)
(0.113649 -5.40965e-05 0.00164531)
(0.11397 -1.30943e-05 0.00162202)
(0.114276 2.95655e-05 0.00159509)
(0.0837421 -0.000533954 0.000488096)
(0.0837145 -0.000616623 0.000580679)
(0.0838206 -0.000670917 0.000730352)
(0.0838392 -0.000665562 0.000859371)
(0.0837335 -0.000598138 0.000968003)
(0.0835259 -0.000495253 0.00105842)
(0.083235 -0.000380378 0.00113331)
(0.0828656 -0.000268838 0.00119562)
(0.0824116 -0.000168434 0.00124683)
(0.0818855 -7.94147e-05 0.00128506)
(0.0812945 2.53734e-07 0.00131164)
(0.0806477 6.9036e-05 0.00132705)
(0.101932 1.46083e-06 0.000901389)
(0.102082 -0.000101923 0.000921556)
(0.102307 -0.000206421 0.000971234)
(0.102575 -0.000289857 0.0010278)
(0.102861 -0.000335303 0.00109046)
(0.103137 -0.000344043 0.001155)
(0.103394 -0.00032722 0.00122093)
(0.103626 -0.000298761 0.00127241)
(0.103835 -0.000259214 0.00130858)
(0.104015 -0.000206642 0.00134058)
(0.104164 -0.00014664 0.00136712)
(0.104284 -8.27829e-05 0.00138859)
(0.108899 0.000426035 0.0010044)
(0.109234 0.000357314 0.000989107)
(0.109576 0.000327509 0.000977787)
(0.109972 0.000302964 0.000979544)
(0.1104 0.000277538 0.000995086)
(0.110835 0.000253675 0.00102029)
(0.111268 0.000233914 0.001051)
(0.111694 0.000220718 0.00108296)
(0.112111 0.000215884 0.00111288)
(0.112514 0.000219204 0.00114005)
(0.112902 0.000229051 0.0011642)
(0.113278 0.000243431 0.00118505)
(0.112448 0.000694086 0.00073803)
(0.112926 0.00065996 0.000744178)
(0.113382 0.000653158 0.000735421)
(0.113876 0.000651488 0.000723028)
(0.114392 0.000644446 0.000713272)
(0.114911 0.000631147 0.000707259)
(0.115425 0.000612768 0.000704699)
(0.115934 0.000591072 0.000704696)
(0.116433 0.000568712 0.000706398)
(0.116921 0.000547931 0.000709463)
(0.117398 0.000529669 0.000713643)
(0.117865 0.000513957 0.000718491)
(0.114282 0.000690666 0.000361611)
(0.114831 0.000702775 0.000364417)
(0.115349 0.000712712 0.000361946)
(0.115902 0.000718298 0.000355581)
(0.11647 0.000719945 0.000348637)
(0.117035 0.000716059 0.000341134)
(0.117596 0.000707532 0.000334023)
(0.11815 0.000694733 0.000327451)
(0.118695 0.000678528 0.000321603)
(0.11923 0.000660265 0.000316695)
(0.119752 0.000640992 0.000312672)
(0.120264 0.000620287 0.000308674)
(0.114815 0.000549777 -0.000130246)
(0.115396 0.00056926 -0.000132716)
(0.11594 0.000574094 -0.000132007)
(0.116514 0.000569692 -0.000129847)
(0.117101 0.000565777 -0.000128339)
(0.117682 0.000564734 -0.000127931)
(0.118258 0.000561131 -0.00012724)
(0.118829 0.000554819 -0.000126083)
(0.119392 0.000546488 -0.000124534)
(0.119945 0.000536895 -0.000122733)
(0.120487 0.000526689 -0.000120824)
(0.121018 0.000516141 -0.000118896)
(0.114282 0.000361775 -0.000690859)
(0.114831 0.000364565 -0.000702806)
(0.115349 0.000362143 -0.000712598)
(0.115902 0.000355848 -0.000718091)
(0.11647 0.000348969 -0.000719696)
(0.117036 0.00034151 -0.000715805)
(0.117596 0.000334412 -0.000707306)
(0.118151 0.000327827 -0.000694551)
(0.118696 0.000321945 -0.000678398)
(0.11923 0.000316972 -0.000660185)
(0.119753 0.000312845 -0.000640952)
(0.120264 0.000308721 -0.000620361)
(0.112646 0.000263044 -0.00126952)
(0.113109 0.000223567 -0.00130816)
(0.113561 0.000214541 -0.00135632)
(0.114062 0.000211549 -0.00139233)
(0.114581 0.00020424 -0.0014097)
(0.115092 0.000192026 -0.00140904)
(0.11559 0.000176499 -0.00139169)
(0.116073 0.000160037 -0.00136049)
(0.11654 0.000144377 -0.00131919)
(0.116991 0.000130439 -0.00127253)
(0.11743 0.000118696 -0.00122425)
(0.117857 0.000109293 -0.00117631)
(0.109595 0.000350311 -0.0017082)
(0.109993 0.000337007 -0.00186848)
(0.110373 0.000352414 -0.00200852)
(0.110788 0.000354235 -0.0020939)
(0.111191 0.000332178 -0.00213153)
(0.111552 0.000290055 -0.00213053)
(0.111872 0.00023474 -0.00209747)
(0.112158 0.000179403 -0.00204257)
(0.112419 0.000125705 -0.00197019)
(0.11266 7.43958e-05 -0.00189336)
(0.11289 2.79343e-05 -0.00181673)
(0.104131 0.000677382 -0.00192889)
(0.104465 0.000784235 -0.00225599)
(0.104683 0.000841955 -0.00243013)
(0.10482 0.00083142 -0.00249059)
(0.104848 0.000760291 -0.00249528)
(0.104771 0.000652932 -0.00246301)
(0.104618 0.00052625 -0.00238752)
(0.104413 0.000395375 -0.0022955)
(0.104182 0.000271805 -0.0021787)
(0.103942 0.000160058 -0.00206761)
(0.103705 6.27592e-05 -0.00196469)
(0.0913626 0.00121437 -0.00186002)
(0.0905186 0.00153356 -0.00229891)
(0.0895913 0.00144632 -0.00248494)
(0.0884404 0.00126185 -0.00248566)
(0.0871443 0.00104585 -0.00241147)
(0.0857813 0.000826991 -0.00231019)
(0.084399 0.00062495 -0.00220433)
(0.0830281 0.000441738 -0.00209612)
(0.0816889 0.000271497 -0.00198702)
(0.0804021 0.00013126 -0.00187875)
(0.0791811 2.36351e-05 -0.00177202)
(0.0756128 0.000108239 -0.000457433)
(0.0759527 0.000174293 -0.000400889)
(0.0764651 2.77289e-05 -0.000227965)
(0.0767411 -0.000101427 -7.9534e-06)
(0.0768403 -0.000133395 0.000213644)
(0.0768335 -0.000109296 0.000409401)
(0.0767148 -6.72514e-05 0.000571199)
(0.0764914 -2.40555e-05 0.000701585)
(0.0761748 1.59879e-05 0.000806805)
(0.0757787 5.33008e-05 0.000890427)
(0.0753132 8.84846e-05 0.000955066)
(0.0747857 0.000122881 0.00100258)
(0.0975519 0.000601023 0.000176472)
(0.0976653 0.000581068 0.000231027)
(0.0978837 0.000507219 0.000244592)
(0.0981532 0.000405481 0.000289013)
(0.098435 0.000318024 0.000378581)
(0.0987201 0.000243074 0.0004747)
(0.0990083 0.000181478 0.000564359)
(0.0992881 0.000141386 0.00065309)
(0.0995478 0.000120457 0.0007356)
(0.0997827 0.000113393 0.000808776)
(0.0999908 0.000116393 0.00087237)
(0.100165 0.000125624 0.000925958)
(0.10566 0.00108085 0.000443714)
(0.106067 0.00107717 0.000459513)
(0.106438 0.00108943 0.0004308)
(0.106873 0.00106913 0.000399264)
(0.107311 0.00101531 0.00039241)
(0.107725 0.000943053 0.00040896)
(0.108125 0.000865252 0.000442016)
(0.108514 0.00079196 0.000487023)
(0.108896 0.000729037 0.00053904)
(0.10927 0.000677359 0.000592889)
(0.109637 0.000636137 0.00064554)
(0.109997 0.000602998 0.000694678)
(0.110248 0.00130249 0.000451165)
(0.110678 0.00133393 0.000406979)
(0.111104 0.00138745 0.000385575)
(0.111598 0.00141591 0.000362918)
(0.112103 0.00141085 0.000339469)
(0.112585 0.00137784 0.000319333)
(0.113043 0.00132405 0.000305169)
(0.113482 0.00125682 0.000300058)
(0.113904 0.00118711 0.00030322)
(0.114316 0.00112018 0.000310072)
(0.11472 0.00105796 0.00032037)
(0.115118 0.00100056 0.000334168)
(0.112646 0.00126933 0.000263031)
(0.113109 0.00130827 0.0002237)
(0.113561 0.00135662 0.000214722)
(0.114062 0.00139271 0.000211684)
(0.114581 0.00141004 0.000204261)
(0.115092 0.00140925 0.000191917)
(0.115589 0.00139177 0.000176297)
(0.116072 0.00136043 0.000159787)
(0.116538 0.00131906 0.000144116)
(0.11699 0.00127237 0.000130208)
(0.117427 0.0012241 0.000118575)
(0.117855 0.0011761 0.000109275)
(0.113279 0.00104952 -0.000145547)
(0.113779 0.00108176 -0.000144346)
(0.114246 0.00110083 -0.000134273)
(0.114745 0.00111328 -0.000122458)
(0.115263 0.00112193 -0.00011365)
(0.115784 0.00112574 -0.000108598)
(0.116301 0.00112443 -0.000107249)
(0.11681 0.00111746 -0.000108878)
(0.11731 0.00110498 -0.00011287)
(0.117796 0.00108849 -0.000118825)
(0.11827 0.00106981 -0.000126342)
(0.118732 0.00104986 -0.000135071)
(0.112448 0.000738274 -0.000694083)
(0.112926 0.000744529 -0.000659838)
(0.113382 0.000735888 -0.000652945)
(0.113876 0.00072355 -0.00065121)
(0.114392 0.000713807 -0.000644131)
(0.114911 0.000707787 -0.000630829)
(0.115425 0.000705219 -0.000612477)
(0.115934 0.000705213 -0.000590835)
(0.116433 0.000706923 -0.000568545)
(0.116922 0.00070999 -0.00054786)
(0.117399 0.000714136 -0.00052968)
(0.117866 0.000718873 -0.000514093)
(0.110248 0.000451468 -0.00130247)
(0.110678 0.000407337 -0.00133357)
(0.111104 0.000385991 -0.0013869)
(0.111599 0.00036335 -0.00141531)
(0.112103 0.00033989 -0.00141039)
(0.112586 0.000319718 -0.00137762)
(0.113045 0.000305519 -0.00132404)
(0.113484 0.000300378 -0.00125695)
(0.113906 0.000303567 -0.00118733)
(0.114319 0.000310475 -0.0011205)
(0.114723 0.000320675 -0.00105822)
(0.115121 0.000334417 -0.001001)
(0.106788 0.000443629 -0.00182236)
(0.107167 0.000391367 -0.00209034)
(0.107532 0.000350524 -0.00226123)
(0.107936 0.00028954 -0.0023142)
(0.108295 0.000218573 -0.00229077)
(0.108578 0.000147325 -0.00221143)
(0.108806 8.59104e-05 -0.00209625)
(0.109001 3.7817e-05 -0.00196264)
(0.10918 1.2702e-05 -0.00183391)
(0.109356 -3.7954e-06 -0.00171968)
(0.109533 -8.97604e-06 -0.00161174)
(0.101017 0.000884221 -0.00224)
(0.101447 0.000883339 -0.00279392)
(0.101603 0.000767851 -0.00296503)
(0.10155 0.000596718 -0.00292001)
(0.101303 0.000420082 -0.0028071)
(0.10092 0.000252323 -0.00261469)
(0.100489 0.000106508 -0.0023875)
(0.100058 -8.94348e-06 -0.00216724)
(0.0996473 -9.42704e-05 -0.0019682)
(0.0992691 -0.000152043 -0.00180578)
(0.0989314 -0.000182303 -0.00166036)
(0.089076 0.00172401 -0.00237487)
(0.0874888 0.00173707 -0.00307698)
(0.0856805 0.00146934 -0.00312712)
(0.0835204 0.00113025 -0.00296116)
(0.0812754 0.000783267 -0.00273754)
(0.0791314 0.000485864 -0.00249152)
(0.0771475 0.000264297 -0.00225076)
(0.0753436 0.000111974 -0.00202866)
(0.0737312 6.7632e-06 -0.00182481)
(0.0722936 -6.32297e-05 -0.00165162)
(0.0710125 -0.000103504 -0.00150616)
(0.0664298 0.000510378 -0.00137209)
(0.0665703 0.000575631 -0.00102623)
(0.066753 0.000272107 -0.000779558)
(0.0666222 0.000173588 -0.000483111)
(0.0663586 0.000186089 -0.000171294)
(0.066083 0.000213922 8.36654e-05)
(0.0657823 0.000236913 0.000274596)
(0.065437 0.000256767 0.000415236)
(0.0650454 0.000267879 0.000516296)
(0.0646166 0.000269795 0.000587417)
(0.0641501 0.000270061 0.000639051)
(0.0636711 0.000276705 0.000679857)
(0.0906828 0.00119499 -0.00047384)
(0.091184 0.00143632 -0.000156248)
(0.0914085 0.00132742 -0.000119179)
(0.0915217 0.00112699 -0.000137058)
(0.091586 0.00094514 -0.000102029)
(0.0916527 0.000801467 -1.92553e-05)
(0.0917298 0.000692441 8.03375e-05)
(0.091817 0.000609388 0.00017719)
(0.0919065 0.000545111 0.000265883)
(0.0919868 0.000494139 0.000342858)
(0.092057 0.000460326 0.000413669)
(0.092103 0.000424603 0.000464668)
(0.101014 0.00171104 0.000241781)
(0.101448 0.00202371 0.000236783)
(0.10179 0.00210351 0.000168746)
(0.102129 0.00203115 7.50301e-05)
(0.102396 0.00189153 9.54074e-06)
(0.10259 0.00172635 -1.47517e-05)
(0.102746 0.00156096 -4.31555e-06)
(0.102897 0.00141089 2.51202e-05)
(0.103053 0.00128593 6.99074e-05)
(0.103218 0.00118069 0.000124927)
(0.103397 0.00109374 0.000183013)
(0.103583 0.00101943 0.000237495)
(0.106787 0.00182218 0.000443472)
(0.107166 0.00209091 0.000391558)
(0.107531 0.00226228 0.000350874)
(0.107934 0.0023152 0.000289757)
(0.108291 0.00229116 0.000218488)
(0.108574 0.00221111 0.000146995)
(0.108801 0.00209549 8.54711e-05)
(0.108996 0.00196169 3.73406e-05)
(0.109174 0.00183301 1.22416e-05)
(0.10935 0.00171865 -4.32732e-06)
(0.109528 0.00161129 -9.12667e-06)
(0.109713 0.00151084 -6.78996e-06)
(0.109595 0.00170808 0.000350699)
(0.109993 0.00186877 0.000337867)
(0.110372 0.00200887 0.000353341)
(0.110788 0.0020941 0.000354922)
(0.11119 0.00213145 0.000332444)
(0.11155 0.00213015 0.000289882)
(0.11187 0.00209687 0.000234346)
(0.112156 0.00204182 0.00017892)
(0.112416 0.00196944 0.000125201)
(0.112656 0.00189268 7.39321e-05)
(0.112887 0.00181632 2.77178e-05)
(0.113111 0.00174099 -1.26407e-05)
(0.110243 0.00143835 2.99807e-05)
(0.110609 0.00148833 6.01829e-05)
(0.110969 0.00154519 0.000107973)
(0.111363 0.00159322 0.000146347)
(0.111776 0.00162994 0.00016591)
(0.112184 0.00165702 0.000166856)
(0.112577 0.00167188 0.000152)
(0.112953 0.00167398 0.00012604)
(0.113311 0.00166441 9.2496e-05)
(0.113649 0.0016463 5.41184e-05)
(0.113969 0.00162301 1.27951e-05)
(0.114275 0.00159596 -3.01675e-05)
(0.108899 0.00100456 -0.00042601)
(0.109233 0.000989393 -0.000357282)
(0.109576 0.000978346 -0.000327705)
(0.109972 0.000980206 -0.000303281)
(0.1104 0.000995708 -0.000277741)
(0.110835 0.00102081 -0.000253631)
(0.111268 0.00105147 -0.000233675)
(0.111694 0.00108346 -0.000220417)
(0.112111 0.00111343 -0.000215627)
(0.112514 0.00114066 -0.000219082)
(0.112903 0.00116482 -0.000229035)
(0.113278 0.00118559 -0.000243668)
(0.105659 0.000444275 -0.00108098)
(0.106067 0.00046034 -0.00107719)
(0.106438 0.000431782 -0.00108949)
(0.106873 0.000400251 -0.00106928)
(0.107311 0.000393236 -0.00101555)
(0.107726 0.000409558 -0.000943289)
(0.108125 0.000442441 -0.000865443)
(0.108515 0.000487352 -0.000792116)
(0.108897 0.000539341 -0.000729214)
(0.109271 0.000593273 -0.000677722)
(0.109639 0.000645827 -0.000636373)
(0.109999 0.000695168 -0.000603869)
(0.101014 0.000242288 -0.00171149)
(0.101449 0.000237506 -0.00202406)
(0.101792 0.000169693 -0.00210387)
(0.102132 7.59216e-05 -0.00203132)
(0.102399 1.02869e-05 -0.0018918)
(0.102593 -1.43273e-05 -0.00172663)
(0.10275 -4.13171e-06 -0.00156118)
(0.102901 2.5265e-05 -0.00141115)
(0.103056 7.00373e-05 -0.00128628)
(0.103222 0.00012533 -0.00118152)
(0.103399 0.000182878 -0.00109376)
(0.0938294 0.000830106 -0.00252153)
(0.094373 0.000673982 -0.0031809)
(0.0943806 0.000337932 -0.00312888)
(0.0939955 5.43792e-05 -0.00282039)
(0.093416 -0.000130296 -0.00240683)
(0.0928175 -0.000238029 -0.00201875)
(0.0922573 -0.000274433 -0.00169189)
(0.091767 -0.000265771 -0.0014324)
(0.0913535 -0.00024282 -0.00124195)
(0.091001 -0.000203531 -0.00110217)
(0.0907008 -0.000159012 -0.00099275)
(0.0812345 0.00168279 -0.0029335)
(0.0780319 0.00147879 -0.00361395)
(0.0746959 0.000924178 -0.00329142)
(0.0712738 0.000449681 -0.00285669)
(0.0682893 0.000179606 -0.00241272)
(0.0658818 3.27313e-05 -0.00200246)
(0.0639714 -3.69981e-05 -0.00166751)
(0.0624449 -5.24502e-05 -0.00139664)
(0.0612016 -4.57054e-05 -0.00117253)
(0.0601499 -3.24627e-05 -0.00101076)
(0.0592334 -1.50118e-05 -0.000901893)
(0.0513405 0.00177648 -0.000992342)
(0.0511305 0.00143683 -0.000779885)
(0.0506628 0.000402368 -0.000790607)
(0.0500605 -6.51521e-05 -0.000644835)
(0.0496588 -6.94162e-05 -0.000428594)
(0.0493327 -3.86723e-05 -0.00021203)
(0.0489609 -1.16386e-05 -5.75094e-05)
(0.0485177 1.38753e-05 4.16599e-05)
(0.0480392 3.56699e-05 0.000104887)
(0.047561 5.56255e-05 0.000147874)
(0.0470714 7.76775e-05 0.0001792)
(0.0465897 9.8527e-05 0.000200134)
(0.0795998 0.00285235 0.000333423)
(0.0804234 0.00304841 0.000268361)
(0.0801972 0.00239249 -0.000118035)
(0.0794431 0.0016288 -0.000338168)
(0.0787109 0.00113447 -0.000374707)
(0.0781256 0.000818311 -0.000333175)
(0.0776469 0.00060073 -0.000269879)
(0.0772397 0.000453769 -0.000199309)
(0.0768732 0.000372549 -0.000129046)
(0.0765127 0.000323128 -6.33105e-05)
(0.0761491 0.000283485 -1.30943e-05)
(0.0757955 0.000244597 2.03299e-05)
(0.0938303 0.0025218 0.000830099)
(0.0943734 0.00318246 0.000674673)
(0.0943791 0.00313017 0.000338935)
(0.0939919 0.00282124 5.5227e-05)
(0.0934119 0.00240575 -0.000130215)
(0.0928138 0.00201677 -0.00023827)
(0.0922542 0.00168997 -0.000274555)
(0.0917646 0.00143085 -0.000265858)
(0.091352 0.00124076 -0.000242908)
(0.0910003 0.0011004 -0.000203899)
(0.0907011 0.000993845 -0.000158528)
(0.0904431 0.000906743 -0.000115502)
(0.101017 0.0022402 0.000884053)
(0.101445 0.00279508 0.000883714)
(0.101599 0.00296548 0.000768378)
(0.101543 0.00291997 0.00059703)
(0.101295 0.00280608 0.000420041)
(0.100911 0.00261251 0.000251918)
(0.100481 0.00238509 0.000106072)
(0.10005 0.00216536 -9.26358e-06)
(0.0996407 0.00196677 -9.44457e-05)
(0.099263 0.00180467 -0.000152061)
(0.0989264 0.00166033 -0.000182078)
(0.0986342 0.00153591 -0.000197028)
(0.104131 0.00192849 0.000677433)
(0.104464 0.00225572 0.000784766)
(0.104682 0.00242971 0.000842607)
(0.104818 0.00249001 0.000831784)
(0.104845 0.00249461 0.000760218)
(0.104768 0.00246222 0.000652453)
(0.104614 0.00238665 0.000525607)
(0.10441 0.00229432 0.000394782)
(0.104179 0.00217768 0.000271373)
(0.103938 0.00206707 0.000159799)
(0.103701 0.00196392 6.27491e-05)
(0.103476 0.001867 -1.98442e-05)
(0.104348 0.00149445 0.000368288)
(0.104552 0.00161442 0.000508487)
(0.104751 0.00172208 0.000631611)
(0.104958 0.00179411 0.000699349)
(0.105142 0.00184174 0.00070906)
(0.105285 0.00187791 0.00066516)
(0.105381 0.00190237 0.000599178)
(0.105431 0.00190201 0.000523389)
(0.105447 0.00187763 0.000431778)
(0.105436 0.00184339 0.000335258)
(0.105403 0.00180775 0.000238076)
(0.105354 0.00176975 0.000144637)
(0.101931 0.0009015 -1.70223e-06)
(0.102081 0.000921837 0.000101554)
(0.102306 0.000971454 0.00020596)
(0.102574 0.00102765 0.000289477)
(0.10286 0.00109003 0.000335189)
(0.103136 0.00115462 0.000344193)
(0.103394 0.00122085 0.000327532)
(0.103627 0.00127263 0.000299124)
(0.103835 0.001309 0.000259504)
(0.104015 0.00134114 0.00020671)
(0.104165 0.00136778 0.000146566)
(0.104285 0.00138932 8.20659e-05)
(0.0975514 0.000176913 -0.000601453)
(0.0976648 0.000231705 -0.000581672)
(0.0978834 0.00024534 -0.000507876)
(0.098153 0.000289684 -0.000406074)
(0.0984348 0.000379033 -0.00031837)
(0.0987199 0.000474976 -0.000243133)
(0.0990081 0.000564578 -0.000181335)
(0.099288 0.000653293 -0.000141161)
(0.0995476 0.000735792 -0.000120249)
(0.0997829 0.000809084 -0.000113415)
(0.0999897 0.000872489 -0.000116392)
(0.100166 0.000926483 -0.00012646)
(0.0906825 -0.000473526 -0.00119584)
(0.0911838 -0.000155582 -0.00143801)
(0.0914087 -0.000118047 -0.00132988)
(0.0915214 -0.00013571 -0.0011295)
(0.0915853 -0.000101283 -0.000946569)
(0.0916519 -1.90467e-05 -0.000801789)
(0.0917289 8.03165e-05 -0.000692118)
(0.0918161 0.00017715 -0.000608828)
(0.0919054 0.000265563 -0.000544149)
(0.091986 0.000343976 -0.000494906)
(0.092054 0.000411141 -0.00045689)
(0.0795972 0.000333647 -0.00285327)
(0.0804174 0.000268334 -0.00304917)
(0.0801882 -0.000118502 -0.00239297)
(0.0794324 -0.000339067 -0.0016287)
(0.0787003 -0.000375505 -0.00113444)
(0.0781155 -0.000333793 -0.00081801)
(0.0776378 -0.000270349 -0.000600241)
(0.0772313 -0.000199334 -0.00045362)
(0.0768653 -0.000128782 -0.000372464)
(0.0765037 -6.2803e-05 -0.000323435)
(0.0761454 -1.34149e-05 -0.00028263)
(0.0645085 0.00089017 -0.00262134)
(0.0594243 0.000730491 -0.0029956)
(0.0554154 0.000373005 -0.00254935)
(0.0521046 0.000121722 -0.00188764)
(0.0498757 -2.52742e-05 -0.00118645)
(0.0484675 -4.51719e-05 -0.000784655)
(0.0474547 -1.20813e-05 -0.000594716)
(0.046605 1.92736e-05 -0.00048777)
(0.0458637 3.59914e-05 -0.000403077)
(0.0452177 4.16904e-05 -0.000333027)
(0.0446255 4.12345e-05 -0.000278374)
(0.0425854 0.00233321 0.000353465)
(0.0367048 0.001099 -0.000311763)
(0.0341956 0.000270738 -0.000463776)
(0.0325767 0.000135491 -0.000327643)
(0.0316417 0.000105426 -0.000192601)
(0.0310565 7.51865e-05 -9.06705e-05)
(0.0305633 4.79113e-05 -2.8201e-05)
(0.0300862 3.31993e-05 6.18159e-06)
(0.0296323 2.75541e-05 2.1811e-05)
(0.0292129 2.62671e-05 2.80565e-05)
(0.0288121 2.84519e-05 3.07378e-05)
(0.0284333 3.17668e-05 3.06196e-05)
(0.0645111 0.00262075 0.00088993)
(0.0594276 0.00299591 0.000731316)
(0.0554189 0.00254942 0.000374173)
(0.0521092 0.0018878 0.000122629)
(0.0498819 0.00118597 -2.50696e-05)
(0.0484752 0.000783943 -4.55489e-05)
(0.047464 0.000594033 -1.26756e-05)
(0.0466153 0.000487293 1.87866e-05)
(0.0458738 0.000402875 3.56085e-05)
(0.0452284 0.00033273 4.13856e-05)
(0.0446334 0.000278623 4.12094e-05)
(0.0440846 0.0002364 3.79372e-05)
(0.0812376 0.0029323 0.00168231)
(0.0780383 0.00361151 0.00147792)
(0.0747063 0.0032885 0.000923441)
(0.0712889 0.00285397 0.00044919)
(0.0683072 0.00241054 0.00017929)
(0.0659011 0.00200082 3.24067e-05)
(0.063991 0.00166661 -3.72268e-05)
(0.0624644 0.00139664 -5.23453e-05)
(0.0612203 0.00117321 -4.53379e-05)
(0.0601686 0.00101166 -3.18999e-05)
(0.0592485 0.000902713 -1.45252e-05)
(0.0584231 0.000832283 6.10535e-06)
(0.0890786 0.00237308 0.00172237)
(0.087494 0.00307276 0.00173477)
(0.0856886 0.003122 0.0014668)
(0.0835314 0.00295622 0.00112793)
(0.081289 0.00273384 0.000781789)
(0.079147 0.00248931 0.000485394)
(0.077164 0.00224975 0.000264508)
(0.0753609 0.00202842 0.000112571)
(0.073749 0.00182507 7.4496e-06)
(0.0723118 0.00165225 -6.21534e-05)
(0.0710301 0.0015067 -0.000102628)
(0.0698832 0.00138386 -0.000118094)
(0.091364 0.00185891 0.00121177)
(0.0905209 0.00229637 0.00153016)
(0.0895943 0.00248149 0.00144314)
(0.088444 0.00248218 0.00125921)
(0.0871485 0.00240857 0.0010441)
(0.0857862 0.00230816 0.000826276)
(0.0844049 0.00220303 0.000624907)
(0.0830348 0.0020953 0.000442194)
(0.0816963 0.00198653 0.00027217)
(0.0804101 0.00187855 0.000132102)
(0.0791898 0.00177213 2.43558e-05)
(0.0780411 0.00167085 -5.35306e-05)
(0.0892553 0.00129387 0.000850629)
(0.0888712 0.00149724 0.00109118)
(0.0884884 0.00164148 0.00111963)
(0.0880109 0.0017191 0.00102478)
(0.087423 0.00175612 0.000889682)
(0.0867418 0.00176183 0.000746932)
(0.0859945 0.00174959 0.000603611)
(0.0851964 0.00172874 0.000466508)
(0.0843531 0.00170548 0.000338418)
(0.0834734 0.00167814 0.000221097)
(0.082573 0.00164521 0.000106814)
(0.0816653 0.00160679 1.14629e-05)
(0.0837411 0.000488163 0.000533736)
(0.0837133 0.00058082 0.000616627)
(0.0838194 0.000730823 0.000671205)
(0.0838378 0.000860238 0.000666082)
(0.0837318 0.000969102 0.000598411)
(0.0835238 0.00105944 0.000495183)
(0.0832323 0.00113413 0.00038014)
(0.0828624 0.00119624 0.000268592)
(0.082408 0.00124729 0.000168218)
(0.0818816 0.00128533 7.91853e-05)
(0.0812906 0.0013118 -6.73609e-07)
(0.0806436 0.00132697 -6.95911e-05)
(0.075612 -0.000457385 -0.000108634)
(0.0759522 -0.000400731 -0.000174725)
(0.0764648 -0.000227683 -2.77418e-05)
(0.0767408 -7.65904e-06 0.000101991)
(0.07684 0.000214041 0.000134171)
(0.076833 0.000409938 0.000109956)
(0.0767141 0.000571834 6.77146e-05)
(0.0764902 0.000702249 2.43322e-05)
(0.0761732 0.000807469 -1.59423e-05)
(0.0757765 0.00089091 -5.32529e-05)
(0.0753107 0.00095568 -8.91723e-05)
(0.0747819 0.00100227 -0.000122149)
(0.0664282 -0.00137215 -0.00051086)
(0.066568 -0.00102626 -0.000576898)
(0.0667502 -0.000779294 -0.000274023)
(0.0666199 -0.000482941 -0.0001749)
(0.0663568 -0.00017116 -0.000186688)
(0.0660814 8.39491e-05 -0.000214026)
(0.065781 0.000274963 -0.000236678)
(0.0654357 0.000415571 -0.000256212)
(0.0650443 0.000516597 -0.000267203)
(0.0646138 0.000587585 -0.000269108)
(0.0641526 0.000639336 -0.00026985)
(0.051338 -0.000992488 -0.00177675)
(0.0511274 -0.00078051 -0.00143756)
(0.0506594 -0.000791137 -0.000403806)
(0.050056 -0.000645248 6.28748e-05)
(0.0496533 -0.000428687 6.78306e-05)
(0.0493268 -0.000211915 3.79257e-05)
(0.0489546 -5.73249e-05 1.16222e-05)
(0.0485115 4.18598e-05 -1.34311e-05)
(0.0480339 0.000105071 -3.49881e-05)
(0.047555 0.000148299 -5.5291e-05)
(0.0470687 0.000178959 -7.66444e-05)
(0.0425843 0.000353604 -0.00233379)
(0.0367039 -0.000312233 -0.0010995)
(0.034195 -0.000464532 -0.000271408)
(0.0325753 -0.00032829 -0.000135751)
(0.031639 -0.000192967 -0.000105539)
(0.0310525 -9.07514e-05 -7.51443e-05)
(0.030558 -2.81212e-05 -4.78309e-05)
(0.0300804 6.32101e-06 -3.30893e-05)
(0.0296266 2.19544e-05 -2.73921e-05)
(0.0292068 2.82189e-05 -2.61785e-05)
(0.0288077 3.07439e-05 -2.81951e-05)
)
;

boundaryField
{
    inlet
    {
        type            fixedValue;
        value           nonuniform List<vector> 0();
    }
    ami1
    {
        type            cyclicAMI;
        value           nonuniform List<vector> 0();
    }
    walls
    {
        type            noSlip;
    }
    ami2
    {
        type            cyclicAMI;
        value           nonuniform List<vector> 
61
(
(0.0919149 -0.000944608 0.0016274)
(0.103897 -0.000611099 0.00178147)
(0.109317 -0.000360069 0.00165925)
(0.0894357 -0.000663199 0.00119417)
(0.104209 -0.000303014 0.00143774)
(0.110021 -1.71793e-05 0.00142118)
(0.0837716 -0.000440539 0.00048011)
(0.101833 5.74656e-05 0.000888595)
(0.108692 0.000479422 0.00100859)
(0.112135 0.000728992 0.000734693)
(0.113919 0.000696 0.000360877)
(0.114431 0.00054006 -0.000133142)
(0.113919 0.000361063 -0.000696225)
(0.112337 0.000286802 -0.00126399)
(0.109317 0.000359683 -0.00165979)
(0.103897 0.000610837 -0.00178203)
(0.0919138 0.000946117 -0.00162801)
(0.0754509 7.51896e-05 -0.000359873)
(0.0975307 0.000602315 0.000137313)
(0.1053 0.00112736 0.000448681)
(0.109921 0.00131793 0.000487385)
(0.112337 0.00126374 0.000286737)
(0.112958 0.00103612 -0.000154724)
(0.112135 0.000734937 -0.000729051)
(0.109921 0.000487674 -0.00131804)
(0.106503 0.000471097 -0.00173563)
(0.100733 0.000817754 -0.00197102)
(0.0902025 0.00144685 -0.00195506)
(0.0664759 0.000351887 -0.00128282)
(0.0903406 0.000971305 -0.000649353)
(0.100679 0.00157594 0.00026149)
(0.106503 0.00173532 0.000470856)
(0.109317 0.00165954 0.000359815)
(0.11002 0.0014214 1.70519e-05)
(0.108692 0.00100878 -0.000479471)
(0.1053 0.000449134 -0.00112756)
(0.100679 0.000261942 -0.00157642)
(0.0934631 0.000760339 -0.00207499)
(0.0835511 0.00149453 -0.0022921)
(0.0521635 0.00110041 -0.00122779)
(0.0790106 0.00211819 0.000178001)
(0.0934641 0.00207479 0.000760086)
(0.100733 0.00197082 0.000817416)
(0.103897 0.00178156 0.000610668)
(0.104209 0.00143785 0.000302656)
(0.101832 0.0008887 -5.77099e-05)
(0.0975302 0.000137632 -0.000602655)
(0.0903401 -0.000649093 -0.00097194)
(0.0790085 0.000178237 -0.00211887)
(0.070061 0.000862863 -0.00218396)
(0.051525 0.00172265 -0.000243281)
(0.0700633 0.00218342 0.000862612)
(0.0835536 0.00229109 0.00149394)
(0.0902045 0.00195382 0.00144555)
(0.0919147 0.00162741 0.000944128)
(0.0894349 0.00119427 0.00066275)
(0.0837707 0.000480189 0.000440278)
(0.0754501 -0.000359796 -7.55031e-05)
(0.0664746 -0.0012828 -0.00035225)
(0.0521614 -0.0012278 -0.00110068)
(0.0515235 -0.000243105 -0.00172311)
)
;
    }
    outlet
    {
        type            zeroGradient;
    }
    procBoundary1to0
    {
        type            processor;
        value           nonuniform List<vector> 
138
(
(0.0884475 -0.00126197 0.00248592)
(0.0884475 -0.00126197 0.00248592)
(0.0871526 -0.00104665 0.00241288)
(0.0857909 -0.000827765 0.00231168)
(0.0844089 -0.000625203 0.00220523)
(0.0830374 -0.000441225 0.0020963)
(0.0816972 -0.000270056 0.0019864)
(0.0804097 -0.000129666 0.00187755)
(0.0791887 -2.20456e-05 0.00177055)
(0.0780396 5.54635e-05 0.00166906)
(0.104817 -0.000829969 0.00249568)
(0.104817 -0.000829969 0.00249568)
(0.104845 -0.000758433 0.00249681)
(0.104768 -0.000651382 0.00246228)
(0.104616 -0.000525054 0.00238534)
(0.104413 -0.000394513 0.00229245)
(0.104183 -0.000271372 0.00217577)
(0.103943 -0.000159999 0.00206516)
(0.103706 -6.31504e-05 0.0019621)
(0.10348 1.92343e-05 0.00186535)
(0.112647 -0.000263162 0.00126892)
(0.11311 -0.000223616 0.00130772)
(0.11079 -0.000352886 0.00209431)
(0.113562 -0.000214254 0.00135595)
(0.11079 -0.000352886 0.00209431)
(0.111192 -0.000330391 0.00213154)
(0.111553 -0.000288486 0.00212999)
(0.111873 -0.000233638 0.00209635)
(0.112159 -0.000178783 0.00204099)
(0.11242 -0.000125565 0.00196841)
(0.112661 -7.47619e-05 0.0018917)
(0.112891 -2.89008e-05 0.00181555)
(0.113116 1.11937e-05 0.00174051)
(0.113279 0.000145568 0.00104919)
(0.11378 0.000144504 0.00108132)
(0.114246 0.000134546 0.00110042)
(0.114745 0.000122827 0.00111291)
(0.115264 0.000114067 0.00112148)
(0.115784 0.000109007 0.00112516)
(0.116301 0.000107601 0.00112374)
(0.116811 0.000109123 0.00111672)
(0.117311 0.000112961 0.00110421)
(0.117797 0.000118731 0.00108773)
(0.118271 0.000126062 0.00106913)
(0.118732 0.000134641 0.00104933)
(0.113279 0.000145568 0.00104919)
(0.11378 0.000144504 0.00108132)
(0.114246 0.000134546 0.00110042)
(0.114745 0.000122827 0.00111291)
(0.115264 0.000114067 0.00112148)
(0.115784 0.000109007 0.00112516)
(0.116301 0.000107601 0.00112374)
(0.116811 0.000109123 0.00111672)
(0.117311 0.000112961 0.00110421)
(0.117797 0.000118731 0.00108773)
(0.118271 0.000126062 0.00106913)
(0.118732 0.000134641 0.00104933)
(0.114815 0.000130075 0.000549442)
(0.115397 0.000132624 0.00056883)
(0.11594 0.000132002 0.000573611)
(0.116514 0.000129926 0.000569159)
(0.117101 0.000128471 0.000565151)