/*--------------------------------*- C++ -*----------------------------------*\
| =========                 |                                                 |
| \\      /  F ield         | OpenFOAM: The Open Source CFD Toolbox           |
|  \\    /   O peration     | Version:  2212                                  |
|   \\  /    A nd           | Website:  www.openfoam.com                      |
|    \\/     M anipulation  |                                                 |
\*---------------------------------------------------------------------------*/
FoamFile
{
    version     2.0;
    format      ascii;
    arch        "LSB;label=32;scalar=64";
    class       surfaceVectorField;
    location    "1.35";
    object      Uf;
}
// * * * * * * * * * * * * * * * * * * * * * * * * * * * * * * * * * * * * * //

dimensions      [0 1 -1 0 0 0 0];

internalField   nonuniform List<vector> 
1805
(
(0.0910434 -0.00137188 0.00207786)
(0.0973939 -0.000953787 0.00194439)
(0.0903219 -0.00104564 0.00158281)
(0.090109 -0.00148838 0.00239007)
(0.0971069 -0.00117804 0.00228467)
(0.0897062 -0.00133389 0.00190689)
(0.0967208 -0.00116732 0.00240066)
(0.0890484 -0.00129955 0.00207091)
(0.104256 -0.000731468 0.00209212)
(0.106751 -0.000518596 0.00183954)
(0.104239 -0.000513198 0.00171019)
(0.104558 -0.000813514 0.00234494)
(0.107116 -0.000565328 0.00210546)
(0.104508 -0.000644819 0.00193702)
(0.107412 -0.000599261 0.00228351)
(0.104717 -0.00074494 0.0020836)
(0.109753 -0.000344266 0.00178798)
(0.109918 -0.000183091 0.00157166)
(0.11016 -0.000344895 0.00193852)
(0.1103 -0.000195528 0.00167836)
(0.11067 -0.000232938 0.00177903)
(0.0890521 -0.000971443 0.00139532)
(0.0964028 -0.000622511 0.00138949)
(0.0864685 -0.0006909 0.000886448)
(0.088701 -0.00110597 0.0015688)
(0.0962972 -0.000814754 0.0015569)
(0.0862649 -0.000838059 0.00103141)
(0.0882601 -0.00107275 0.00167936)
(0.0961901 -0.000893456 0.00165907)
(0.0861294 -0.000879078 0.00117808)
(0.0877175 -0.000957778 0.0017368)
(0.096037 -0.000879411 0.00171635)
(0.0859033 -0.000834464 0.00128239)
(0.0870843 -0.000818982 0.0017588)
(0.095815 -0.000814732 0.00175028)
(0.0855597 -0.000739161 0.00135683)
(0.0863736 -0.000675996 0.00175608)
(0.0955245 -0.000719816 0.00176651)
(0.0851185 -0.000620771 0.00140642)
(0.0856004 -0.000535545 0.00173972)
(0.0951767 -0.000613309 0.00176988)
(0.0846023 -0.000494891 0.00143893)
(0.0847788 -0.000402545 0.00171757)
(0.0947805 -0.000504756 0.00175968)
(0.0840211 -0.000372151 0.00146041)
(0.0839176 -0.000279407 0.00169207)
(0.0943439 -0.000393163 0.00173849)
(0.0833745 -0.000258147 0.00147475)
(0.0830283 -0.000163369 0.00166178)
(0.0938754 -0.000285056 0.00170995)
(0.0826733 -0.000155447 0.00148055)
(0.0821238 -5.85914e-05 0.00162606)
(0.0933855 -0.000178777 0.00167644)
(0.0819289 -5.86306e-05 0.00147765)
(0.0928842 -8.45452e-05 0.00163836)
(0.0811527 2.46917e-05 0.00146621)
(0.104426 -0.00043875 0.0015544)
(0.10718 -0.000201701 0.00148671)
(0.10313 -0.000188655 0.00119655)
(0.104638 -0.000570196 0.0016688)
(0.107461 -0.000288538 0.00157506)
(0.103307 -0.000307506 0.00126571)
(0.104856 -0.000665165 0.00175988)
(0.107737 -0.000372944 0.00166903)
(0.103519 -0.000419645 0.00134443)
(0.105052 -0.00070365 0.00182002)
(0.108034 -0.000424737 0.00173695)
(0.103756 -0.00049482 0.00140929)
(0.105212 -0.000686653 0.00186099)
(0.108328 -0.000438321 0.00178237)
(0.103991 -0.000523187 0.00146426)
(0.105331 -0.000631682 0.00189034)
(0.108598 -0.00041562 0.00181506)
(0.104201 -0.000507313 0.00151441)
(0.105405 -0.000560667 0.00190172)
(0.108836 -0.000373904 0.00183518)
(0.104378 -0.000467479 0.00155967)
(0.105438 -0.000477061 0.00188885)
(0.109043 -0.00032203 0.00183585)
(0.10452 -0.000416073 0.00158527)
(0.10544 -0.000383213 0.00185923)
(0.109223 -0.000258531 0.00181842)
(0.104633 -0.000350532 0.00159116)
(0.105418 -0.000286586 0.00182412)
(0.10938 -0.000190114 0.00179213)
(0.104719 -0.00027579 0.00159014)
(0.105378 -0.000191591 0.00178721)
(0.109517 -0.000119927 0.00176286)
(0.104778 -0.000197317 0.00158576)
(0.109639 -5.09675e-05 0.00173062)
(0.104814 -0.000118715 0.00157767)
(0.110415 -4.50818e-05 0.00146305)
(0.109567 0.000203371 0.001219)
(0.110776 -8.39361e-05 0.00151647)
(0.109917 0.000153078 0.00123621)
(0.111166 -0.00012685 0.0015691)
(0.110268 0.000110475 0.00125957)
(0.111573 -0.000155608 0.00161157)
(0.110663 7.77502e-05 0.0012847)
(0.11198 -0.000165689 0.00164331)
(0.111084 5.51421e-05 0.00131076)
(0.11238 -0.000158668 0.00166406)
(0.111505 4.23994e-05 0.00133683)
(0.112766 -0.000138319 0.00167235)
(0.111918 3.9307e-05 0.00135968)
(0.113133 -0.000108773 0.00166842)
(0.11232 4.48349e-05 0.00137684)
(0.11348 -7.31195e-05 0.00165442)
(0.112707 5.85491e-05 0.00138713)
(0.113809 -3.35954e-05 0.00163367)
(0.113077 7.92683e-05 0.00139174)
(0.114123 8.23557e-06 0.00160856)
(0.113432 0.000104787 0.00139229)
(0.113774 0.000133512 0.00138936)
(0.0837058 -0.000575289 0.000534388)
(0.0923332 -0.000282555 0.000678912)
(0.0795353 -0.000292346 4.22296e-06)
(0.0838034 -0.00064377 0.000655516)
(0.0923897 -0.000362066 0.000775646)
(0.0796978 -0.000242836 7.48493e-05)
(0.0838446 -0.000668239 0.000794861)
(0.092552 -0.000442702 0.000870296)
(0.0800142 -0.000318351 0.000234966)
(0.0837841 -0.00063185 0.000913687)
(0.0926881 -0.000484441 0.000949811)
(0.080166 -0.000369173 0.000410268)
(0.0836272 -0.000546696 0.00101321)
(0.0927674 -0.000473868 0.00102623)
(0.0801663 -0.000343004 0.00057675)
(0.0833817 -0.000437815 0.00109587)
(0.0927882 -0.000426282 0.00109679)
(0.0800626 -0.000273148 0.000721218)
(0.08305 -0.000324608 0.00116446)
(0.092756 -0.000360039 0.00116056)
(0.0798608 -0.000191311 0.000840801)
(0.0826368 -0.000218636 0.00122123)
(0.092671 -0.000289532 0.00121244)
(0.079567 -0.000115195 0.000938345)
(0.082148 -0.000123925 0.00126595)
(0.0925299 -0.00021906 0.00125303)
(0.0791841 -4.9427e-05 0.00101771)
(0.0815908 -3.95805e-05 0.00129835)
(0.0923372 -0.000148374 0.001285)
(0.0787253 7.78954e-06 0.00107973)
(0.0809707 3.46449e-05 0.00131935)
(0.0920959 -7.91562e-05 0.00130812)
(0.0781992 5.91042e-05 0.00112633)
(0.0918111 -1.3571e-05 0.00132381)
(0.0776142 0.000111863 0.00115824)
(0.101983 -5.0231e-05 0.000911473)
(0.105273 0.000210137 0.00096753)
(0.0996836 0.000284216 0.000531722)
(0.102183 -0.000154172 0.000946395)
(0.105511 0.000119728 0.000958727)
(0.0998151 0.000235701 0.000568368)
(0.102442 -0.000248139 0.000999519)
(0.105793 5.23197e-05 0.000983347)
(0.100037 0.000151905 0.000599025)
(0.102719 -0.00031258 0.00105913)
(0.106122 -8.62243e-07 0.00102026)
(0.100305 6.25014e-05 0.000649025)
(0.102999 -0.000339673 0.00112273)
(0.106476 -3.50802e-05 0.00106567)
(0.100589 -1.8148e-06 0.000725234)
(0.103265 -0.000335631 0.00118796)
(0.106828 -4.98399e-05 0.00111539)
(0.10087 -4.22013e-05 0.000805753)
(0.10351 -0.00031299 0.00124667)
(0.107169 -4.94814e-05 0.00116797)
(0.101143 -6.39418e-05 0.000883699)
(0.103731 -0.000278987 0.00129049)
(0.107495 -3.9901e-05 0.00121368)
(0.1014 -6.92206e-05 0.000954159)
(0.103925 -0.000232928 0.00132458)
(0.107803 -2.06706e-05 0.00125002)
(0.101634 -5.95705e-05 0.00101401)
(0.104089 -0.000176641 0.00135385)
(0.10809 9.0577e-06 0.00128224)
(0.101842 -3.71767e-05 0.0010671)
(0.104224 -0.000114711 0.00137786)
(0.108354 4.56248e-05 0.00130964)
(0.102022 -6.07478e-06 0.00111262)
(0.108596 8.61755e-05 0.00133219)
(0.102169 2.93919e-05 0.00115062)
(0.109056 0.000391675 0.000996753)
(0.110623 0.000555875 0.000873596)
(0.107245 0.000710275 0.00072464)
(0.109392 0.000342412 0.000983447)
(0.111028 0.000503503 0.000867072)
(0.107616 0.000687084 0.00072361)
(0.109775 0.000315237 0.000978666)
(0.111425 0.000484192 0.000854546)
(0.107973 0.000698717 0.000700784)
(0.110189 0.000290251 0.000987315)
(0.111869 0.00047039 0.000848097)
(0.10839 0.000685421 0.000684344)
(0.110618 0.000265606 0.00100769)
(0.11234 0.000453609 0.000850319)
(0.108822 0.000650071 0.000687846)
(0.111051 0.000243794 0.00103564)
(0.112815 0.000434676 0.000859628)
(0.109247 0.000604017 0.000708297)
(0.111481 0.000227316 0.00106698)
(0.113288 0.000415447 0.000873676)
(0.109663 0.000555602 0.000740077)
(0.111903 0.000218301 0.00109792)
(0.113754 0.00039787 0.000889201)
(0.11007 0.000512765 0.000778564)
(0.112312 0.000217544 0.00112647)
(0.11421 0.000384221 0.000904331)
(0.110469 0.00047934 0.000819624)
(0.112708 0.000224128 0.00115213)
(0.114655 0.000375665 0.000919193)
(0.110857 0.000454928 0.000860377)
(0.11309 0.000236241 0.00117463)
(0.115087 0.000371808 0.000933466)
(0.111235 0.000438641 0.000899088)
(0.115506 0.000371575 0.000946567)
(0.111602 0.000428654 0.000934399)
(0.112665 0.000677023 0.000741104)
(0.11335 0.00069278 0.000554423)
(0.111328 0.0009797 0.000595916)
(0.113138 0.000656559 0.0007398)
(0.113863 0.000681145 0.000557979)
(0.111781 0.000982054 0.00057593)
(0.11363 0.000652323 0.000729224)
(0.114349 0.000682484 0.000551967)
(0.112222 0.00101574 0.000559137)
(0.114137 0.000647967 0.00071815)
(0.114872 0.000684336 0.000542358)
(0.112717 0.00103445 0.000540694)
(0.114652 0.000637797 0.000710265)
(0.115414 0.000681506 0.000533749)
(0.113227 0.00103053 0.000523622)
(0.115168 0.000621958 0.000705979)
(0.115955 0.000672783 0.000526797)
(0.113726 0.00100882 0.000510152)
(0.11568 0.00060192 0.000704698)
(0.116493 0.000659189 0.000521771)
(0.114212 0.00097383 0.000501452)
(0.116184 0.000579892 0.000705547)
(0.117024 0.000641837 0.000518416)
(0.114685 0.000930071 0.000498665)
(0.116677 0.000558321 0.000707931)
(0.117545 0.000622517 0.000516463)
(0.115145 0.000884388 0.000500983)
(0.11716 0.0005388 0.000711553)
(0.118056 0.000603 0.000515709)
(0.115595 0.00084051 0.000505911)
(0.117631 0.000521813 0.000716067)
(0.118556 0.000584269 0.000515966)
(0.116035 0.000800029 0.000513178)
(0.119044 0.000566139 0.000516607)
(0.116466 0.000763172 0.000522571)
(0.114529 0.00069672 0.000363014)
(0.114547 0.000621064 0.000118978)
(0.113451 0.000983085 0.000311837)
(0.115073 0.000707744 0.000363181)
(0.115112 0.000636966 0.000119697)
(0.113956 0.00100662 0.000293652)
(0.115627 0.000715505 0.000358763)
(0.115643 0.000644344 0.000118716)
(0.11444 0.00103607 0.000287877)
(0.116189 0.000719122 0.000352109)
(0.116206 0.000644927 0.000116433)
(0.114966 0.00105801 0.000283037)
(0.116753 0.000718002 0.000344886)
(0.116784 0.000643709 0.000113268)
(0.115509 0.00106815 0.00027575)
(0.117316 0.000711796 0.000337579)
(0.117357 0.000641107 0.000109149)
(0.116047 0.00106629 0.000265698)
(0.117873 0.000701133 0.000330737)
(0.117925 0.000634954 0.0001056)
(0.116576 0.00105376 0.000254155)
(0.118423 0.000686631 0.000324527)
(0.118488 0.000625321 0.000102617)
(0.117094 0.00103214 0.000242414)
(0.118962 0.000669397 0.000319149)
(0.119042 0.00061296 0.000100141)
(0.117599 0.00100368 0.000231469)
(0.119491 0.000650629 0.000314683)
(0.119585 0.000598926 9.82206e-05)
(0.118091 0.000971374 0.000221907)
(0.120008 0.000630639 0.000310673)
(0.120118 0.000584086 9.68215e-05)
(0.118571 0.000937661 0.000213957)
(0.120639 0.00056837 9.55085e-05)
(0.119039 0.000903389 0.000207205)
(0.115076 0.000559519 -0.000131481)
(0.114547 0.000454947 -0.00041355)
(0.114035 0.000807864 -0.00013896)
(0.11565 0.000571677 -0.000132361)
(0.115112 0.000465997 -0.000420973)
(0.114575 0.00083217 -0.000139193)
(0.116229 0.000571893 -0.000130927)
(0.115643 0.000467479 -0.000424165)
(0.11508 0.000841674 -0.000133151)
(0.11681 0.000567734 -0.000129093)
(0.116206 0.000462238 -0.000425326)
(0.115615 0.000845109 -0.000125923)
(0.117391 0.000565255 -0.000128135)
(0.116784 0.000456905 -0.000425049)
(0.116167 0.000847349 -0.000120654)
(0.11797 0.000562932 -0.000127585)
(0.117357 0.00045273 -0.000422453)
(0.116718 0.000848509 -0.000117828)
(0.118544 0.000557975 -0.000126662)
(0.117925 0.000447409 -0.000417653)
(0.117264 0.000846041 -0.000116796)
(0.119111 0.000550653 -0.000125309)
(0.118488 0.000440983 -0.000410559)
(0.117804 0.00083956 -0.000117092)
(0.119669 0.000541691 -0.000123634)
(0.119042 0.000433905 -0.000401563)
(0.118334 0.000829399 -0.000118421)
(0.120216 0.000531792 -0.000121779)
(0.119586 0.000426661 -0.000391391)
(0.118854 0.000816554 -0.000120617)
(0.120753 0.000521415 -0.00011986)
(0.120118 0.000419533 -0.000380671)
(0.119361 0.000802244 -0.000123542)
(0.120639 0.000412229 -0.000369293)
(0.119856 0.000787173 -0.000127085)
(0.114529 0.00036317 -0.000696833)
(0.113451 0.00031192 -0.00098329)
(0.11335 0.000554615 -0.00069287)
(0.115073 0.000363354 -0.000707702)
(0.113956 0.000293655 -0.00100659)
(0.113863 0.000558223 -0.000681096)
(0.115627 0.000358996 -0.000715345)
(0.11444 0.000287882 -0.00103586)
(0.114349 0.000552312 -0.000682323)
(0.116189 0.000352409 -0.000718893)
(0.114967 0.000283101 -0.00105772)
(0.114872 0.000542781 -0.000684099)
(0.116753 0.00034524 -0.00071775)
(0.11551 0.000275904 -0.00106784)
(0.115414 0.000534213 -0.000681231)
(0.117316 0.000337961 -0.000711555)
(0.116048 0.00026594 -0.00106605)
(0.115955 0.000527274 -0.000672502)
(0.117874 0.00033112 -0.000700929)
(0.116576 0.000254452 -0.00105359)
(0.116493 0.000522243 -0.000658934)
(0.118423 0.000324886 -0.000686475)
(0.117094 0.00024273 -0.00103206)
(0.117024 0.000518874 -0.000641629)
(0.118963 0.000319459 -0.000669291)
(0.1176 0.000231773 -0.00100367)
(0.117546 0.000516902 -0.00062237)
(0.119492 0.000314909 -0.000650569)
(0.118092 0.000222164 -0.0009714)
(0.118057 0.000516112 -0.000602924)
(0.120009 0.000310783 -0.000630657)
(0.118572 0.000214109 -0.000937689)
(0.118556 0.000516292 -0.000584253)
(0.119041 0.00020724 -0.000903512)
(0.119045 0.000516802 -0.000566239)
(0.112849 0.000243305 -0.00128884)
(0.111078 0.000309538 -0.00148564)
(0.111425 0.000353912 -0.00128484)
(0.113315 0.000219054 -0.00133224)
(0.111507 0.000283122 -0.00158913)
(0.111871 0.000314287 -0.00132028)
(0.113814 0.000213045 -0.00137433)
(0.111922 0.000285749 -0.00168981)
(0.11231 0.000303507 -0.00137237)
(0.114325 0.000207894 -0.00140102)
(0.112379 0.000285062 -0.0017522)
(0.112808 0.000291536 -0.0014048)
(0.114837 0.000198133 -0.00140937)
(0.112838 0.000270273 -0.00177938)
(0.11332 0.000275427 -0.00141066)
(0.115341 0.000184263 -0.00140037)
(0.113272 0.00024278 -0.00177797)
(0.113816 0.000258474 -0.00139345)
(0.115831 0.000168268 -0.00137609)
(0.113678 0.000206985 -0.00175145)
(0.114294 0.000243024 -0.00135748)
(0.116307 0.000152207 -0.00133984)
(0.11406 0.000170824 -0.00170638)
(0.114755 0.000231572 -0.00130779)
(0.116766 0.000137408 -0.00129586)
(0.114421 0.000135953 -0.00164708)
(0.115199 0.000224933 -0.00125191)
(0.117211 0.000124568 -0.00124839)
(0.114764 0.000103071 -0.00158333)
(0.115631 0.000221434 -0.00119493)
(0.117643 0.000113994 -0.00120028)
(0.115096 7.3642e-05 -0.00151951)
(0.116052 0.000220772 -0.00113949)
(0.116464 0.000222991 -0.00108678)
(0.109752 0.000343659 -0.00178834)
(0.106751 0.000518081 -0.00183993)
(0.108162 0.000402878 -0.00176808)
(0.110159 0.000344711 -0.0019385)
(0.107116 0.000564607 -0.00210552)
(0.10855 0.000374468 -0.00198491)
(0.110587 0.000353325 -0.00205121)
(0.107411 0.000599379 -0.00228141)
(0.108922 0.000364248 -0.0021417)
(0.110995 0.000343206 -0.00211271)
(0.107682 0.000593861 -0.00235999)
(0.109332 0.000332901 -0.00221018)
(0.111371 0.000311116 -0.00213103)
(0.107889 0.000546104 -0.00238154)
(0.109712 0.000283773 -0.00221595)
(0.111712 0.000262397 -0.002114)
(0.108022 0.000470162 -0.00236332)
(0.110033 0.000223642 -0.00217393)
(0.112016 0.000207071 -0.00207002)
(0.108096 0.000377968 -0.00230635)
(0.110306 0.000161978 -0.00209789)
(0.112289 0.000152554 -0.00200638)
(0.108127 0.000283605 -0.00223014)
(0.110546 0.000107368 -0.00200184)
(0.112539 0.00010005 -0.00193178)
(0.108131 0.000193712 -0.00213344)
(0.110765 6.62336e-05 -0.00190002)
(0.112775 5.1165e-05 -0.00185504)
(0.108122 0.000111089 -0.00203779)
(0.110973 3.20874e-05 -0.0018039)
(0.108109 3.83582e-05 -0.00194616)
(0.111176 6.4243e-06 -0.00171118)
(0.104255 0.000730808 -0.00209244)
(0.097393 0.000954575 -0.00194544)
(0.102532 0.000791265 -0.00209135)
(0.104558 0.000813095 -0.00234306)
(0.0971055 0.00117877 -0.00228615)
(0.102916 0.000865248 -0.00254293)
(0.10476 0.000836688 -0.00246036)
(0.0967194 0.00116775 -0.00240012)
(0.103102 0.000840576 -0.00271785)
(0.104838 0.000795855 -0.00249293)
(0.0961765 0.00106838 -0.00240381)
(0.103141 0.000741674 -0.00272204)
(0.104809 0.000706611 -0.00247914)
(0.0955058 0.000921397 -0.00236177)
(0.103028 0.000608766 -0.00266363)
(0.104694 0.000589591 -0.00242526)
(0.09475 0.000755158 -0.00229345)
(0.102794 0.000463059 -0.00254652)
(0.104516 0.000460812 -0.00234151)
(0.0939485 0.000588252 -0.00220586)
(0.102498 0.000319628 -0.00239068)
(0.104297 0.00033359 -0.0022371)
(0.0931284 0.000428996 -0.00211183)
(0.102178 0.000191789 -0.00223108)
(0.104061 0.000215932 -0.00212315)
(0.0923125 0.000280011 -0.00200584)
(0.101854 8.44439e-05 -0.00207085)
(0.103823 0.000111409 -0.00201615)
(0.0915201 0.000152575 -0.00190185)
(0.101543 -1.86801e-06 -0.00193259)
(0.0907637 4.92605e-05 -0.00180177)
(0.101255 -6.63913e-05 -0.00180727)
(0.0910414 0.00137396 -0.00207947)
(0.0901793 0.00147729 -0.00212613)
(0.0901057 0.00148994 -0.00239192)
(0.0889507 0.00168601 -0.00272048)
(0.0890064 0.00135408 -0.0024853)
(0.0875675 0.00151365 -0.00283951)
(0.0877794 0.00115385 -0.00244856)
(0.0858944 0.00123061 -0.00274653)
(0.0864593 0.000936419 -0.00236083)
(0.0841072 0.000931005 -0.00258865)
(0.085089 0.00072597 -0.00225726)
(0.08234 0.00066387 -0.00240941)
(0.0837117 0.000533344 -0.00215022)
(0.0806464 0.000447423 -0.00223201)
(0.0823558 0.000356617 -0.00204157)
(0.0790514 0.000276352 -0.00206332)
(0.0810447 0.000201379 -0.00193288)
(0.0775708 0.000136451 -0.00190386)
(0.0797914 7.74477e-05 -0.00182538)
(0.076206 3.05396e-05 -0.00176118)
(0.0749539 -4.33221e-05 -0.00163397)
(0.0758102 0.000141266 -0.000429161)
(0.0858864 0.000333282 -0.000173011)
(0.0707248 0.000422321 -0.000938711)
(0.0762975 0.000101011 -0.000314427)
(0.0861202 0.00038713 -5.64088e-05)
(0.0709585 0.000560011 -0.000724141)
(0.0766056 -3.68488e-05 -0.000117959)
(0.086495 0.000271979 3.61609e-05)
(0.0712954 0.000255041 -0.000516145)
(0.0767763 -0.000117411 0.000102845)
(0.0867679 0.000156451 0.00017566)
(0.0713549 7.14306e-05 -0.000259398)
(0.0768349 -0.000121345 0.000311523)
(0.0869526 9.85617e-05 0.000335568)
(0.071261 4.36599e-05 9.13497e-06)
(0.0767764 -8.82738e-05 0.0004903)
(0.0870825 7.31908e-05 0.000477959)
(0.0711111 5.51958e-05 0.000235593)
(0.0766043 -4.56535e-05 0.000636392)
(0.0871543 6.2023e-05 0.000595807)
(0.0708955 7.15851e-05 0.000412031)
(0.0763332 -4.03381e-06 0.000754195)
(0.0871666 6.08222e-05 0.000694966)
(0.0706072 9.2414e-05 0.00054732)
(0.075977 3.46443e-05 0.000848616)
(0.0871198 6.69706e-05 0.000777943)
(0.0702507 0.000112704 0.000650083)
(0.0755462 7.08927e-05 0.000922747)
(0.0870192 7.8764e-05 0.000846376)
(0.0698372 0.00012986 0.000726977)
(0.0750494 0.000105683 0.000978822)
(0.0868692 9.48604e-05 0.000901799)
(0.0693712 0.000144813 0.000784602)
(0.0866701 0.000114547 0.0009458)
(0.0688695 0.000163962 0.000828518)
(0.0975751 0.000591045 0.000203749)
(0.101419 0.00084536 0.000343609)
(0.0939549 0.000859117 -0.000163672)
(0.0977645 0.000544143 0.000237809)
(0.101673 0.000821111 0.000348777)
(0.0942714 0.00101455 2.83368e-05)
(0.0980219 0.00045635 0.000266802)
(0.101964 0.000782136 0.000326293)
(0.094493 0.000961561 5.39189e-05)
(0.0982934 0.000361752 0.000333797)
(0.102312 0.000718986 0.000333833)
(0.0946806 0.000796182 6.58053e-05)
(0.0985761 0.000280549 0.000426641)
(0.102668 0.000649858 0.000383272)
(0.0948485 0.000647101 0.000126905)
(0.0988643 0.000212276 0.00051953)
(0.103015 0.000579327 0.000449478)
(0.0950192 0.000531046 0.000216073)
(0.0991481 0.000161432 0.000608725)
(0.103356 0.000513217 0.00052038)
(0.0951969 0.000440495 0.000310965)
(0.0994174 0.000130922 0.000694345)
(0.103689 0.000460299 0.000595969)
(0.0953758 0.000373722 0.000403979)
(0.0996654 0.000116925 0.000772188)
(0.104006 0.000421922 0.000670552)
(0.0955464 0.000327739 0.000489745)
(0.0998864 0.000114893 0.000840573)
(0.104308 0.000395589 0.000739662)
(0.0957004 0.000296541 0.000564918)
(0.100079 0.000121008 0.000899164)
(0.104592 0.000379055 0.000802029)
(0.0958363 0.000278996 0.000632301)
(0.104854 0.000369043 0.00085597)
(0.0959432 0.000262883 0.000684547)
(0.105789 0.00107901 0.000451613)
(0.107882 0.00117945 0.000421187)
(0.10325 0.00138988 0.000340144)
(0.106219 0.0010833 0.000445157)
(0.1083 0.00119457 0.000413317)
(0.103671 0.00156025 0.000344507)
(0.106666 0.00107928 0.000415032)
(0.108698 0.00122985 0.000397206)
(0.104027 0.00163177 0.00029382)
(0.107099 0.00104222 0.000395837)
(0.109162 0.00123371 0.000371602)
(0.104413 0.00158387 0.000230074)
(0.107518 0.000979183 0.000400685)
(0.109631 0.00120299 0.000355188)
(0.104762 0.00147416 0.000193551)
(0.107925 0.000904152 0.000425488)
(0.110078 0.00114911 0.000352094)
(0.105062 0.00134573 0.000189439)
(0.108319 0.000828606 0.00046452)
(0.110507 0.00108243 0.000360749)
(0.105335 0.00121795 0.00021106)
(0.108705 0.000760499 0.000513032)
(0.11092 0.00101183 0.000380778)
(0.105601 0.0011012 0.000248228)
(0.109083 0.000703198 0.000565965)
(0.111321 0.000945581 0.000408998)
(0.105865 0.00100307 0.000296692)
(0.109453 0.000656748 0.000619214)
(0.111714 0.000886524 0.000440111)
(0.106131 0.000921537 0.000351284)
(0.109817 0.000619568 0.000670109)
(0.112099 0.000835216 0.00047251)
(0.106401 0.000855371 0.000406833)
(0.112477 0.000790514 0.000505088)
(0.10667 0.000799415 0.000458838)
(0.110408 0.00131821 0.000429072)
(0.111425 0.00128476 0.000353748)
(0.108463 0.00156634 0.000447695)
(0.110861 0.00136069 0.000396277)
(0.111871 0.00132052 0.000314171)
(0.108866 0.00172289 0.000399196)
(0.111358 0.00140168 0.000374247)
(0.11231 0.0013728 0.000303402)
(0.109261 0.00184598 0.000366799)
(0.111857 0.00141338 0.000351194)
(0.112808 0.0014053 0.000291405)
(0.109709 0.00188732 0.000324277)
(0.112344 0.00139435 0.000329401)
(0.113319 0.00141106 0.000275233)
(0.110137 0.00186942 0.000276531)
(0.112813 0.00135095 0.000312251)
(0.113815 0.00139367 0.000258219)
(0.110516 0.00180877 0.000230312)
(0.113263 0.00129043 0.000302614)
(0.114293 0.00135752 0.000242734)
(0.110856 0.00171972 0.000192127)
(0.113693 0.00122197 0.000301639)
(0.114753 0.0013077 0.000231276)
(0.111168 0.0016146 0.000165255)
(0.11411 0.00115365 0.000306646)
(0.115197 0.00125173 0.000224623)
(0.111465 0.00151136 0.000154216)
(0.114518 0.00108907 0.000315221)
(0.115628 0.00119469 0.000221118)
(0.111755 0.00141826 0.000149193)
(0.114919 0.00102926 0.000327269)
(0.116049 0.00113929 0.000220565)
(0.112042 0.00133177 0.000151823)
(0.116461 0.00108647 0.000222886)
(0.11233 0.00125133 0.00015981)
(0.112849 0.0012888 0.000243366)
(0.112961 0.00116052 6.17095e-05)
(0.111078 0.0014855 0.00030973)
(0.113315 0.00133245 0.000219211)
(0.113442 0.00119605 4.22221e-05)
(0.111507 0.00158937 0.000283622)
(0.113814 0.00137467 0.000213203)
(0.113901 0.00123011 4.37588e-05)
(0.111921 0.00169021 0.000286303)
(0.114325 0.00140137 0.000207972)
(0.114401 0.00125452 4.84219e-05)
(0.112378 0.00175256 0.000285468)
(0.114836 0.00140965 0.000198089)
(0.11492 0.00126746 4.87544e-05)
(0.112837 0.00177957 0.000270409)
(0.11534 0.00140051 0.000184107)
(0.115436 0.0012689 4.48031e-05)
(0.113271 0.00177793 0.000242629)
(0.11583 0.0013761 0.000168042)
(0.115943 0.00125938 3.73327e-05)
(0.113677 0.0017512 0.000206679)
(0.116305 0.00133975 0.000151951)
(0.116439 0.00124007 2.78691e-05)
(0.114058 0.00170597 0.000170452)
(0.116764 0.00129572 0.000137162)
(0.116922 0.00121295 1.75558e-05)
(0.114418 0.00164664 0.000135565)
(0.117208 0.00124824 0.000124391)
(0.117391 0.00118115 7.1238e-06)
(0.114762 0.00158292 0.000102718)
(0.117641 0.0012001 0.000113925)
(0.117846 0.00114749 -2.88414e-06)
(0.115093 0.00151922 7.34738e-05)
(0.11829 0.00111336 -1.21815e-05)
(0.115415 0.00145645 4.83277e-05)
(0.113512 0.00106564 -0.000144946)
(0.112861 0.000892798 -0.000422268)
(0.111719 0.00124723 -5.49253e-05)
(0.113999 0.0010913 -0.00013931)
(0.11335 0.000912171 -0.000403434)
(0.112151 0.00128685 -3.84401e-05)
(0.114496 0.00110706 -0.000128366)
(0.113811 0.000917654 -0.000393248)
(0.112562 0.00132474 -8.85749e-06)
(0.115007 0.00111761 -0.000118054)
(0.114308 0.000917738 -0.000386005)
(0.113008 0.00135502 1.67e-05)
(0.115524 0.00112384 -0.000111124)
(0.114825 0.000917166 -0.00037792)
(0.113472 0.0013774 3.11882e-05)
(0.116042 0.00112509 -0.000107923)
(0.115345 0.000916038 -0.000368684)
(0.113934 0.00139298 3.41735e-05)
(0.116556 0.00112095 -0.000108063)
(0.11586 0.0009141 -0.000358759)
(0.114388 0.00139978 2.72415e-05)
(0.11706 0.00111122 -0.000110874)
(0.11637 0.000910646 -0.000348622)
(0.114829 0.00139669 1.32878e-05)
(0.117553 0.00109673 -0.000115847)
(0.116869 0.000905307 -0.000339361)
(0.115255 0.00138446 -5.60338e-06)
(0.118033 0.00107915 -0.000122583)
(0.117356 0.000898654 -0.000331916)
(0.115666 0.00136603 -2.7966e-05)
(0.118501 0.00105984 -0.000130706)
(0.117832 0.000891448 -0.000326559)
(0.116061 0.00134435 -5.27055e-05)
(0.118296 0.000883891 -0.000323182)
(0.116443 0.00132031 -7.89226e-05)
(0.112665 0.000741401 -0.00067696)
(0.111328 0.000596179 -0.000979758)
(0.110623 0.000873817 -0.000555866)
(0.113138 0.000740208 -0.000656391)
(0.111781 0.000576272 -0.000981886)
(0.111027 0.000867399 -0.000503429)
(0.11363 0.000729719 -0.000652077)
(0.112222 0.000559576 -0.00101536)
(0.111425 0.000855037 -0.000484182)
(0.114137 0.000718679 -0.000647671)
(0.112717 0.000541176 -0.00103397)
(0.111869 0.000848633 -0.000470402)
(0.114652 0.000710797 -0.00063748)
(0.113227 0.000524107 -0.00103009)
(0.11234 0.000850834 -0.000453542)
(0.115168 0.000706503 -0.000621653)
(0.113727 0.000510617 -0.0010085)
(0.112815 0.000860103 -0.000434485)
(0.11568 0.000705216 -0.000601656)
(0.114213 0.000501893 -0.000973635)
(0.113288 0.000874132 -0.000415173)
(0.116184 0.000706068 -0.00057969)
(0.114686 0.000499087 -0.000929987)
(0.113754 0.000889684 -0.000397594)
(0.116677 0.000708457 -0.000558203)
(0.115147 0.000501421 -0.00088439)
(0.114211 0.000904859 -0.000384005)
(0.11716 0.000712063 -0.00053877)
(0.115596 0.000506377 -0.000840617)
(0.114655 0.000919759 -0.000375568)
(0.117632 0.000716504 -0.000521886)
(0.116037 0.000513578 -0.000800153)
(0.115087 0.000934031 -0.000371807)
(0.116468 0.000522889 -0.000763439)
(0.115507 0.00094704 -0.000371765)
(0.110408 0.000429403 -0.00131802)
(0.108464 0.000447944 -0.00156624)
(0.107882 0.000421637 -0.00117951)
(0.110861 0.000396664 -0.00136023)
(0.108867 0.000399298 -0.0017222)
(0.1083 0.000413941 -0.00119442)
(0.111358 0.00037467 -0.0014011)
(0.109262 0.000366833 -0.00184506)
(0.108698 0.000397936 -0.00122962)
(0.111858 0.00035162 -0.00141285)
(0.10971 0.000324377 -0.00188648)
(0.109162 0.00037232 -0.00123349)
(0.112345 0.000329804 -0.00139401)
(0.110139 0.000276775 -0.00186902)
(0.109632 0.0003558 -0.00120289)
(0.112815 0.000312618 -0.00135083)
(0.110519 0.000230659 -0.0018089)
(0.110079 0.000352554 -0.00114912)
(0.113264 0.000302948 -0.00129049)
(0.110859 0.000192512 -0.00172019)
(0.110508 0.000361097 -0.00108251)
(0.113695 0.000301972 -0.00122214)
(0.111172 0.000165647 -0.00161522)
(0.110921 0.000381066 -0.00101196)
(0.114112 0.000307021 -0.00115391)
(0.111469 0.000154616 -0.00151197)
(0.111323 0.000409297 -0.000945767)
(0.114521 0.000315575 -0.00108936)
(0.111759 0.000149658 -0.00141898)
(0.111716 0.000440488 -0.000886857)
(0.114922 0.000327546 -0.00102961)
(0.112047 0.000152047 -0.00133214)
(0.112101 0.000472804 -0.000835464)
(0.11248 0.00050542 -0.000791165)
(0.106899 0.000417498 -0.00195635)
(0.10377 0.000673029 -0.00205584)
(0.103794 0.00030684 -0.00175206)
(0.107313 0.000370945 -0.00217578)
(0.104175 0.000644721 -0.00251525)
(0.104201 0.000287833 -0.00204658)
(0.107748 0.000320032 -0.00228771)
(0.104431 0.000563398 -0.00270687)
(0.104555 0.000249295 -0.00217667)
(0.108124 0.000254056 -0.00230249)
(0.104596 0.000444579 -0.00271177)
(0.104926 0.000171346 -0.00216456)
(0.108437 0.000182949 -0.0022511)
(0.104638 0.000318485 -0.00263951)
(0.105237 9.36471e-05 -0.00207717)
(0.108692 0.000116617 -0.00215384)
(0.104572 0.000197091 -0.00249623)
(0.105474 4.02264e-05 -0.00195079)
(0.108904 6.18637e-05 -0.00202944)
(0.104456 9.1943e-05 -0.00231657)
(0.105665 1.38499e-05 -0.00180871)
(0.109091 2.52595e-05 -0.00189827)
(0.104323 8.92712e-06 -0.00213321)
(0.105837 6.10823e-06 -0.00166665)
(0.109267 4.45328e-06 -0.00177679)
(0.104194 -4.74599e-05 -0.00196454)
(0.106004 1.80637e-05 -0.00154025)
(0.109444 -6.38572e-06 -0.00166571)
(0.10408 -8.53201e-05 -0.00182186)
(0.106175 3.94581e-05 -0.00143119)
(0.103988 -0.000103393 -0.00169108)
(0.106352 6.77499e-05 -0.00133409)
(0.101177 0.00088378 -0.00251696)
(0.0946677 0.00132953 -0.00243134)
(0.0972532 0.000852877 -0.00238603)
(0.101521 0.000825595 -0.00287947)
(0.0940253 0.00133711 -0.00296158)
(0.0977429 0.000795141 -0.0030065)
(0.101591 0.000682285 -0.00294252)
(0.0931368 0.0011418 -0.00295855)
(0.0978212 0.00056175 -0.00305965)
(0.101429 0.0005084 -0.00286355)
(0.0919631 0.000881723 -0.0028136)
(0.097594 0.00031292 -0.00286793)
(0.101111 0.000336203 -0.00271089)
(0.0906539 0.000614535 -0.00263939)
(0.0971731 0.000117087 -0.00259064)
(0.100705 0.000179415 -0.00250109)
(0.0893345 0.000377751 -0.00242727)
(0.0966771 -2.79638e-05 -0.00229172)
(0.100273 4.8782e-05 -0.00227737)
(0.0880776 0.000191516 -0.00220668)
(0.0961783 -0.000120143 -0.00201064)
(0.0998515 -5.16069e-05 -0.00206772)
(0.0869167 5.63171e-05 -0.00199926)
(0.0957163 -0.000172373 -0.00176902)
(0.0994568 -0.000123157 -0.00188699)
(0.0858671 -3.97074e-05 -0.00180986)
(0.0953042 -0.000200871 -0.00157454)
(0.0990996 -0.000167173 -0.00173307)
(0.0849256 -0.000104081 -0.00165175)
(0.0949395 -0.000205497 -0.00142505)
(0.0840863 -0.000139757 -0.0015152)
(0.0946214 -0.000193459 -0.00129994)
(0.0885362 0.00173054 -0.00272593)
(0.084902 0.00176039 -0.00270389)
(0.0866827 0.0016032 -0.00310205)
(0.082455 0.00168742 -0.00341049)
(0.0845743 0.00129979 -0.00304414)
(0.0798335 0.00124588 -0.0032508)
(0.0823721 0.000956758 -0.00284935)
(0.0770017 0.000776792 -0.00291033)
(0.0801945 0.000634566 -0.00261453)
(0.074363 0.000424229 -0.00254417)
(0.0781353 0.000375081 -0.00237114)
(0.0720788 0.000186312 -0.00219952)