/*--------------------------------*- C++ -*----------------------------------*\
| =========                 |                                                 |
| \\      /  F ield         | OpenFOAM: The Open Source CFD Toolbox           |
|  \\    /   O peration     | Version:  2212                                  |
|   \\  /    A nd           | Website:  www.openfoam.com                      |
|    \\/     M anipulation  |                                                 |
\*---------------------------------------------------------------------------*/
FoamFile
{
    version     2.0;
    format      ascii;
    arch        "LSB;label=32;scalar=64";
    class       volScalarField;
    location    "3";
    object      k;
}
// * * * * * * * * * * * * * * * * * * * * * * * * * * * * * * * * * * * * * //

dimensions      [0 2 -2 0 0 0 0];

internalField   nonuniform List<scalar> 
678
(
0.00183942
0.00181854
0.00179775
0.00177809
0.00175932
0.00157766
0.00155794
0.00153907
0.00152101
0.0015037
0.00154918
0.00152804
0.0015074
0.00148784
0.00146919
0.00150237
0.00147984
0.00145743
0.00143614
0.00141624
0.0013975
0.00147659
0.00145356
0.00143078
0.00140921
0.00138915
0.00136988
0.00145185
0.001429
0.0014077
0.00138703
0.00136583
0.00134664
0.00132843
0.00142922
0.00140659
0.0013859
0.00136475
0.00134528
0.00132692
0.0013107
0.001413
0.0013909
0.00137142
0.00135315
0.00133517
0.00131796
0.00130152
0.0014194
0.00139981
0.00138125
0.0013637
0.00134682
0.00133085
0.0013157
0.00148605
0.00146731
0.0014495
0.00143256
0.00141644
0.00140116
0.00183899
0.00181823
0.00179767
0.00177827
0.00175972
0.001742
0.00148687
0.0014679
0.00144991
0.00143279
0.00141634
0.00140045
0.000973976
0.000946532
0.000920946
0.000897496
0.000875827
0.00119757
0.00116157
0.00112522
0.00109382
0.00106181
0.00103364
0.00133533
0.00129424
0.0012538
0.00121839
0.00118253
0.00115052
0.00140045
0.00135713
0.00131479
0.00127745
0.00123983
0.00120484
0.00142462
0.00138153
0.00134175
0.00130352
0.00126275
0.001223
0.00139203
0.00134669
0.00130296
0.00126141
0.001221
0.00118317
0.00127843
0.0012347
0.00119083
0.00115048
0.00110965
0.00107463
0.00104019
0.00109241
0.00105579
0.00101888
0.000986584
0.000953704
0.000925478
0.000899412
0.000970708
0.000943652
0.000918331
0.000895346
0.000873642
0.000853951
0.000836398
0.0015773
0.00155779
0.00153909
0.00152118
0.00150412
0.00148793
0.00142045
0.00140054
0.0013817
0.0013639
0.00134675
0.00133058
0.00131498
0.00109759
0.00106014
0.00102248
0.000989586
0.000955837
0.000928015
0.00135355
0.00130415
0.00125577
0.00121227
0.00116841
0.00113005
0.0015509
0.00149286
0.00143763
0.00138606
0.00133539
0.00128984
0.00167013
0.00160703
0.00154717
0.00149065
0.00143645
0.00138587
0.00171744
0.00165274
0.00159131
0.00153307
0.00147712
0.00142427
0.00168495
0.00162055
0.00155932
0.00150121
0.00144546
0.00139272
0.00155523
0.00149598
0.0014384
0.00138487
0.00133222
0.00128468
0.00135111
0.00130216
0.00125381
0.00121069
0.00116726
0.001129
0.00119556
0.0011598
0.00112373
0.00109269
0.00106103
0.00103303
0.00100581
0.00154932
0.00152826
0.00150777
0.00148837
0.00146989
0.00145239
0.00141459
0.00139182
0.00137176
0.00135332
0.00133512
0.00131766
0.00130093
0.0012853
0.00123957
0.00119482
0.00115384
0.00111219
0.00107667
0.00104122
0.00155804
0.00149816
0.00144078
0.0013868
0.00133386
0.00128585
0.00178809
0.0017185
0.00165241
0.00158963
0.00152985
0.0014733
0.00193269
0.00185725
0.00178577
0.00171786
0.00165344
0.00159213
0.00198521
0.00190772
0.00183434
0.00176454
0.00169863
0.00163548
0.00193876
0.00186306
0.0017913
0.001723
0.00165878
0.00178755
0.00171798
0.001652
0.00158923
0.00152984
0.00147297
0.00155066
0.00149258
0.00143754
0.00138612
0.00133604
0.00129011
0.00133491
0.00129385
0.00125406
0.00121884
0.0011834
0.00115099
0.00150277
0.00148025
0.00145804
0.00143689
0.00141716
0.00139849
0.00143009
0.00140725
0.00138625
0.00136493
0.0013453
0.00132657
0.00139617
0.0013498
0.00130556
0.00126369
0.00122303
0.00118489
0.00168707
0.00162258
0.00156126
0.00150289
0.00144754
0.00193966
0.00186397
0.00179212
0.00172397
0.00165946
0.00210271
0.00201993
0.00194157
0.00186737
0.00179714
0.00216001
0.00207479
0.00199421
0.00191786
0.00184588
0.00210255
0.00201977
0.00194147
0.00186717
0.0017972
0.00193305
0.00185766
0.00178624
0.00171837
0.00165454
0.00167099
0.00160795
0.00154828
0.0014918
0.00143829
0.00140105
0.0013577
0.00131662
0.001279
0.0012414
0.00147722
0.00145423
0.00143156
0.00141017
0.00139019
0.00137105
0.00145208
0.00142918
0.00140776
0.00138703
0.00136591
0.0013464
0.00142627
0.00138298
0.00134264
0.0013048
0.00126421
0.0012235
0.00171866
0.00165385
0.00159229
0.00153415
0.00198606
0.00190854
0.001835
0.00176584
0.00216035
0.00207507
0.00199444
0.00191851
0.00222126
0.0021334
0.00205036
0.00197185
0.00189769
0.00216016
0.00207496
0.00199439
0.00191805
0.00184612
0.0019858
0.00190838
0.00183504
0.00176538
0.00169982
0.00171854
0.00165396
0.0015927
0.00153457
0.00147919
0.00142589
0.00138287
0.00134329
0.00130545
0.00126481
0.00145255
0.00142977
0.00140854
0.00138801
0.00136702
0.00150128
0.00147655
0.00145344
0.00143067
0.00140941
0.00138904
0.0014481
0.00140122
0.00135726
0.00131686
0.00127773
0.00124122
0.00173701
0.00167035
0.00160728
0.00154762
0.00149094
0.00143734
0.00201279
0.00193296
0.00185756
0.00178611
0.00171852
0.00165434
0.00219054
0.00210273
0.00201993
0.00194159
0.00186752
0.00179737
0.0021602
0.00207492
0.00199431
0.00191799
0.0018461
0.0021026
0.00201983
0.00194153
0.00186728
0.00179737
0.00193907
0.00186344
0.00179178
0.00172361
0.00165956
0.00168578
0.00162155
0.00156058
0.00150253
0.00144761
0.00139322
0.00134832
0.00130493
0.00126382
0.00122353
0.00142999
0.00140746
0.00138685
0.00136587
0.00134651
0.00152586
0.00150192
0.00147936
0.00145722
0.00143601
0.00141626
0.00137744
0.0013328
0.001293
0.00125336
0.00121748
0.00118276
0.00161146
0.0015494
0.00149158
0.00143721
0.00138455
0.00133652
0.00186114
0.00178765
0.00171805
0.00165225
0.00158948
0.00153087
0.00201933
0.00193926
0.00186361
0.00179198
0.00172391
0.00165993
0.00198565
0.00190817
0.00183485
0.00176525
0.00169981
0.00193274
0.00185738
0.00178603
0.00171825
0.00165457
0.00178729
0.00171784
0.00165204
0.00158927
0.00153065
0.00155564
0.00149656
0.00143921
0.00138553
0.00133505
0.00127993
0.00123643
0.00119301
0.00115278
0.00111327
0.0014139
0.00139192
0.0013725
0.00135431
0.00133647
0.00157036
0.00154841
0.0015273
0.00150694
0.00148752
0.0014691
0.00123429
0.00119469
0.0011575
0.00112435
0.00109088
0.00106167
0.00140563
0.00135205
0.0013012
0.00125565
0.00120984
0.00116973
0.00162079
0.00155726
0.00149672
0.00144058
0.00138542
0.00133584
0.00175422
0.00168652
0.00162222
0.00156124
0.00150307
0.00144836
0.00171824
0.00165359
0.00159228
0.00153415
0.00147901
0.00167039
0.00160739
0.00154777
0.00149133
0.00143802
0.00154972
0.00149181
0.00143697
0.00138547
0.00133681
0.00135104
0.00130197
0.00125425
0.00121065
0.00116949
0.00109396
0.0010573
0.0010212
0.000987869
0.000957668
0.00142041
0.00140089
0.00138243
0.00136485
0.00134811
0.00159678
0.00157646
0.00155716
0.0015386
0.00152084
0.00150382
0.000999828
0.000970699
0.00094381
0.000919507
0.000896369
0.000876015
0.00113904
0.00109763
0.00105761
0.00102314
0.000987634
0.000958684
0.00133365
0.00128468
0.00123823
0.00119574
0.00115288
0.00111589
0.00144521
0.0013963
0.00135004
0.00130626
0.00126444
0.00122495
0.00142565
0.00138284
0.00134196
0.00130466
0.00126454
0.00140042
0.00135713
0.00131571
0.00127818
0.00124083
0.00133396
0.00129288
0.00125328
0.0012182
0.00118313
0.00119533
0.00115817
0.00112464
0.00109169
0.0010618
0.000971895
0.000944562
0.000919853
0.000896171
0.000875247
0.00148684
0.00146817
0.00145042
0.00143346
0.00141724
0.00186045
0.00183906
0.00181796
0.00179785
0.00177837
0.00176001
0.00150585
0.0014862
0.00146764
0.00145003
0.00143314
0.00141704
0.00144195
0.00142095
0.00140113
0.00138252
0.00143973
0.0014149
0.00139243
0.00137264
0.00135412
0.00145469
0.00143067
0.00140788
0.00138691
0.00136594
0.00145237
0.00142957
0.0014082
0.00138743
0.00136671
0.00147662
0.00145363
0.00143094
0.0014095
0.00138957
0.00150206
0.00147964
0.00145735
0.00143642
0.00141654
0.00154879
0.00152773
0.00150736
0.00148799
0.00146957
0.0015773
0.0015578
0.00153916
0.00152129
0.00150416
0.00183958
0.00181877
0.00179837
0.00177876
0.00176033
)
;

boundaryField
{
    inlet
    {
        type            fixedValue;
        value           nonuniform List<scalar> 0();
    }
    ami1
    {
        type            cyclicAMI;
        value           nonuniform List<scalar> 0();
    }
    walls
    {
        type            kqRWallFunction;
        value           nonuniform List<scalar> 
250
(
0.00183942
0.00157766
0.00154918
0.00150237
0.00147659
0.00145185
0.00142922
0.001413
0.0014194
0.00148605
0.00183899
0.00181854
0.00155794
0.00152804
0.00147984
0.00145356
0.001429
0.00140659
0.0013909
0.00139981
0.00146731
0.00181823
0.00179775
0.00153907
0.0015074
0.00145743
0.00143078
0.0014077
0.0013859
0.00137142
0.00138125
0.0014495
0.00179767
0.00177809
0.00152101
0.00148784
0.00143614
0.00140921
0.00138703
0.00136475
0.00135315
0.0013637
0.00143256
0.00177827
0.00175932
0.0015037
0.00146919
0.00141624
0.00138915
0.00136583
0.00134528
0.00133517
0.00134682
0.00141644
0.00175972
0.0013975
0.00136988
0.00134664
0.00132692
0.00131796
0.00133085
0.00140116
0.001742
0.00132843
0.0013107
0.00130152
0.0013157
0.00183899
0.0015773
0.00154932
0.00150277
0.00147722
0.00145255
0.00142999
0.0014139
0.00142041
0.00148684
0.00183958
0.00181823
0.00155779
0.00152826
0.00148025
0.00145423
0.00142977
0.00140746
0.00139192
0.00140089
0.00146817
0.00181877
0.00179767
0.00153909
0.00150777
0.00145804
0.00143156
0.00140854
0.00138685
0.0013725
0.00138243
0.00145042
0.00179837
0.00177827
0.00152118
0.00148837
0.00143689
0.00141017
0.00138801
0.00136587
0.00135431
0.00136485
0.00143346
0.00177876
0.00175972
0.00150412
0.00146989
0.00141716
0.00139019
0.00136702
0.00134651
0.00133647
0.00134811
0.00141724
0.00176033
0.001742
0.00148793
0.00145239
0.00139849
0.00137105
0.00186045
0.00150585
0.00144195
0.00143973
0.00145469
0.00183906
0.0014862
0.00142095
0.0014149
0.00143067
0.00145237
0.00147662
0.00150206
0.00154879
0.0015773
0.00183958
0.00181796
0.00146764
0.00140113
0.00139243
0.00140788
0.00142957
0.00145363
0.00147964
0.00152773
0.0015578
0.00181877
0.00179785
0.00145003
0.00138252
0.00137264
0.00138691
0.0014082
0.00143094
0.00145735
0.00150736
0.00153916
0.00179837
0.00177837
0.00143314
0.00135412
0.00136594
0.00138743
0.0014095
0.00143642
0.00148799
0.00152129
0.00177876
0.00176001
0.00141704
0.00136671
0.00138957
0.00141654
0.00146957
0.00150416
0.00176033
0.00150128
0.00152586
0.00157036
0.00159678
0.00186045
0.00183942
0.00148687
0.00142045
0.00141459
0.00143009
0.00145208
0.00147655
0.00150192
0.00154841
0.00157646
0.00183906
0.00181854
0.0014679
0.00140054
0.00139182
0.00140725
0.00142918
0.00145344
0.00147936
0.0015273
0.00155716
0.00181796
0.00179775
0.00144991
0.0013817
0.00137176
0.00138625
0.00140776
0.00143067
0.00145722
0.00150694
0.0015386
0.00179785
0.00177809
0.00143279
0.0013639
0.00135332
0.00136493
0.00138703
0.00140941
0.00143601
0.00148752
0.00152084
0.00177837
0.00175932
0.00141634
0.00134675
0.00133512
0.0013453
0.00136591
0.00138904
0.00141626
0.0014691
0.00150382
0.00176001
0.00140045
0.00133058
0.00131766
0.00132657
0.0013464
0.00131498
0.00130093
)
;
    }
    ami2
    {
        type            cyclicAMI;
        value           nonuniform List<scalar> 0();
    }
    outlet
    {
        type            zeroGradient;
    }
    procBoundary5to6
    {
        type            processor;
        value           nonuniform List<scalar> 
177
(
0.00174095
0.00174095
0.00148718
0.00145154
0.00145154
0.00145154
0.00138001
0.00135175
0.00135175
0.00131216
0.0011857
0.00129518
0.00114668
0.00128575
0.00130089
0.00138662
0.00138662
0.00138662
0.00172532
0.00138561
0.000852713
0.00138561
0.000852713
0.000852713
0.000852713
0.00100536
0.00111936
0.00117092
0.0011857
0.00114668
0.00114668
0.00100626
0.00123706
0.000871351
0.00109121
0.000817295
0.00147247
0.00147247
0.00129986
0.000898843
0.000898843
0.000898843
0.0010911
0.00124435
0.00133641
0.00137245
0.00134052
0.00159585
0.00123706
0.00109121
0.00109121
0.000979224
0.0014358
0.00112038
0.0014358
0.00128477
0.00131009
0.001006
0.00123745
0.00114659
0.00123745
0.00139315
0.00141706
0.00159591
0.00153182
0.00172871
0.00157344
0.00159585
0.00177599
0.00159585
0.00159585
0.00141688
0.00159207
0.00124481
0.00138699
0.00112038
0.00120675
0.00138122
0.00131009
0.00114659
0.00139315
0.00139315
0.00147765
0.00159591
0.00169849
0.00172871
0.00184534
0.00177599
0.00172922
0.00159207
0.00138699
0.00120675
0.00120675
0.00135308
0.00134808
0.00132791
0.00137001
0.00147765
0.00118606
0.00142309
0.00120545
0.00147765
0.00147765
0.00169849
0.00169849
0.00184534
0.00184534
0.00184534
0.00182582
0.00177641
0.00163584
0.00142579
0.00122544
0.00134808
0.00137001
0.00120545
0.00138559
0.00159141
0.00172916
0.00177638
0.00172951
0.00159688
0.00139461
0.00118607
0.00132811
0.00139757
0.00115069
0.00128921
0.0014729
0.00159721
0.00163588
0.00159229
0.00147279
0.00128583
0.00107735
0.0013193
0.00145167
0.00103223
0.00112918
0.00128603
0.00139515
0.00142559
0.00138689
0.00129002
0.00112975
0.000926675
0.001332
0.0014876
0.000853397
0.00136432
0.000927114
0.00134755
0.00107759
0.001336
0.00118631
0.00134563
0.00122513
0.00120628
0.00115123
0.00103274
0.000852777
0.00140166
0.00174184
0.00136432
0.00140143
0.00134755
0.00136432
0.00136432
0.001336
0.00134563
0.00134563
0.00134677
0.0013703
0.00139816
0.00145219
0.00148792
0.00174227
)
;
    }
    procBoundary5to7
    {
        type            processor;
        value           nonuniform List<scalar> 
131
(
0.00186269
0.00159846
0.00157134
0.00152636
0.00150129
0.00147609
0.00145351
0.0014378
0.00144081
0.00150653
0.00186183
0.00150787
0.00100981
0.0012393
0.00137829
0.00144744
0.00146943
0.00144253
0.0013301
0.0011382
0.00100519
0.00159788
0.00144239
0.00114482
0.00140947
0.00161248
0.00173697
0.00178534
0.00175319
0.00162057
0.00140672
0.001237
0.00157137
0.00143984
0.00133698
0.00162345
0.00186199
0.00201241
0.00206706
0.00201877
0.00186124
0.00161207
0.00137768
0.0015266
0.00145475
0.00144674
0.00175562
0.00201977
0.00219036
0.00225022
0.00219013
0.00201265
0.00173763
0.00144863
0.0015018
0.00147655
0.00147655
0.00147092
0.00147092
0.00178693
0.00178693
0.002068
0.002068
0.00225063
0.00225063
0.00231426
0.00225032
0.00206753
0.00178625
0.00147043
0.00147668
0.00152762
0.00149719
0.00180745
0.00209737
0.00228366
0.00225047
0.00225047
0.00219014
0.00201894
0.00175376
0.0014436
0.0014542
0.00155094
0.00142169
0.00167655
0.00193934
0.00210431
0.00206757
0.00206757
0.00201231
0.00186082
0.00162067
0.00133121
0.00143862
0.0015932
0.0012758
0.00146282
0.00168919
0.00182587
0.00178633
0.00178633
0.00173702
0.00161107
0.00140628
0.00113923
0.00144176
0.00161818
0.00103657
0.00118567
0.0013866
0.0014976
0.00147092
0.00147092
0.001448
0.00137643
0.00123592
0.00100586
0.0015073
0.00188423
0.00152775
0.00146497
0.00146523
0.00148037
0.0014767
0.0014767
0.00150135
0.00152592
0.00157074
0.00159777
0.00186229
)
;
    }
}


// ************************************************************************* //
