/*--------------------------------*- C++ -*----------------------------------*\
| =========                 |                                                 |
| \\      /  F ield         | OpenFOAM: The Open Source CFD Toolbox           |
|  \\    /   O peration     | Version:  2212                                  |
|   \\  /    A nd           | Website:  www.openfoam.com                      |
|    \\/     M anipulation  |                                                 |
\*---------------------------------------------------------------------------*/
FoamFile
{
    version     2.0;
    format      ascii;
    arch        "LSB;label=32;scalar=64";
    class       volScalarField;
    location    "3";
    object      nut;
}
// * * * * * * * * * * * * * * * * * * * * * * * * * * * * * * * * * * * * * //

dimensions      [0 2 -1 0 0 0 0];

internalField   nonuniform List<scalar> 
678
(
3.49708e-06
3.47674e-06
3.45628e-06
3.43685e-06
3.41822e-06
6.94735e-06
6.90297e-06
6.86035e-06
6.81926e-06
6.77976e-06
1.00271e-05
9.9583e-06
9.89062e-06
9.82566e-06
9.76379e-06
1.22447e-05
1.21527e-05
1.20613e-05
1.19704e-05
1.18893e-05
1.18086e-05
1.36145e-05
1.35075e-05
1.34039e-05
1.32966e-05
1.32064e-05
1.31129e-05
1.40001e-05
1.38891e-05
1.37843e-05
1.36842e-05
1.35721e-05
1.34883e-05
1.33854e-05
1.33997e-05
1.32917e-05
1.31938e-05
1.30861e-05
1.30005e-05
1.29019e-05
1.28263e-05
1.18834e-05
1.17868e-05
1.17013e-05
1.16222e-05
1.15437e-05
1.14679e-05
1.13951e-05
9.60415e-06
9.53579e-06
9.4706e-06
9.40864e-06
9.34879e-06
9.29187e-06
9.2376e-06
6.74399e-06
6.69989e-06
6.65781e-06
6.61757e-06
6.57915e-06
6.54273e-06
3.49562e-06
3.47544e-06
3.45523e-06
3.43614e-06
3.41783e-06
3.40033e-06
6.74874e-06
6.70408e-06
6.66147e-06
6.62066e-06
6.58122e-06
6.54269e-06
7.13998e-06
6.9363e-06
6.71886e-06
6.51815e-06
6.35773e-06
1.62925e-05
1.58468e-05
1.5213e-05
1.48405e-05
1.42528e-05
1.38956e-05
2.51141e-05
2.41462e-05
2.33024e-05
2.28248e-05
2.19109e-05
2.14405e-05
3.06315e-05
2.97003e-05
2.857e-05
2.80804e-05
2.70084e-05
2.64456e-05
3.33139e-05
3.23772e-05
3.15243e-05
3.06591e-05
2.95861e-05
2.85913e-05
3.16237e-05
3.09418e-05
2.98076e-05
2.87624e-05
2.77443e-05
2.69113e-05
2.47886e-05
2.42951e-05
2.31711e-05
2.23078e-05
2.12735e-05
2.0822e-05
1.99659e-05
1.49727e-05
1.46017e-05
1.39223e-05
1.34619e-05
1.28433e-05
1.25136e-05
1.21258e-05
7.07931e-06
6.87668e-06
6.66047e-06
6.47162e-06
6.29191e-06
6.13777e-06
6.02871e-06
6.94505e-06
6.90115e-06
6.85891e-06
6.81824e-06
6.77937e-06
6.74239e-06
9.61211e-06
9.54267e-06
9.47638e-06
9.41346e-06
9.3524e-06
9.29447e-06
9.23787e-06
1.51284e-05
1.47482e-05
1.40455e-05
1.35768e-05
1.29189e-05
1.26501e-05
3.27858e-05
3.18255e-05
3.03625e-05
2.95087e-05
2.80139e-05
2.73893e-05
4.86344e-05
4.6605e-05
4.49155e-05
4.33089e-05
4.11738e-05
4.04435e-05
5.79433e-05
5.58333e-05
5.37371e-05
5.16944e-05
4.95445e-05
4.80612e-05
6.24283e-05
5.99907e-05
5.76586e-05
5.54233e-05
5.31087e-05
5.13252e-05
5.98353e-05
5.75899e-05
5.52962e-05
5.30865e-05
5.07492e-05
4.88271e-05
4.92245e-05
4.80369e-05
4.56427e-05
4.41619e-05
4.193e-05
4.11743e-05
3.25895e-05
3.17103e-05
3.02024e-05
2.94055e-05
2.79212e-05
2.73006e-05
1.62129e-05
1.57746e-05
1.51552e-05
1.47899e-05
1.42128e-05
1.38782e-05
1.34059e-05
1.00267e-05
9.9581e-06
9.89074e-06
9.82637e-06
9.76512e-06
9.70645e-06
1.18962e-05
1.17957e-05
1.17077e-05
1.16277e-05
1.15482e-05
1.1471e-05
1.13964e-05
2.53033e-05
2.43796e-05
2.33264e-05
2.24719e-05
2.138e-05
2.09154e-05
1.99874e-05
4.96695e-05
4.8051e-05
4.6041e-05
4.42416e-05
4.20468e-05
4.11296e-05
6.96521e-05
6.71941e-05
6.47241e-05
6.22671e-05
6.00488e-05
5.77469e-05
8.09213e-05
7.81814e-05
7.54263e-05
7.26506e-05
7.02159e-05
6.7283e-05
8.50184e-05
8.21834e-05
7.93198e-05
7.63968e-05
7.40172e-05
7.03139e-05
8.16499e-05
7.88765e-05
7.60606e-05
7.32715e-05
7.07804e-05
6.95719e-05
6.71319e-05
6.4698e-05
6.22654e-05
6.00925e-05
5.74876e-05
4.85294e-05
4.6518e-05
4.49066e-05
4.33559e-05
4.12615e-05
4.03207e-05
2.50642e-05
2.41251e-05
2.33216e-05
2.28246e-05
2.19367e-05
2.13991e-05
1.22457e-05
1.21534e-05
1.20631e-05
1.19722e-05
1.18928e-05
1.1811e-05
1.34085e-05
1.32997e-05
1.31999e-05
1.30905e-05
1.30065e-05
1.29022e-05
3.19361e-05
3.0962e-05
2.99079e-05
2.8889e-05
2.78616e-05
2.69336e-05
6.0067e-05
5.77662e-05
5.54994e-05
5.32557e-05
5.1086e-05
8.18691e-05
7.90832e-05
7.62335e-05
7.35667e-05
7.06571e-05
9.39427e-05
9.10496e-05
8.79829e-05
8.50642e-05
8.1602e-05
9.78487e-05
9.49146e-05
9.18017e-05
8.87589e-05
8.54981e-05
9.38708e-05
9.09831e-05
8.7924e-05
8.49485e-05
8.18907e-05
8.10269e-05
7.83235e-05
7.55795e-05
7.28945e-05
7.0432e-05
5.80587e-05
5.59858e-05
5.39129e-05
5.18716e-05
4.99098e-05
3.05127e-05
2.97555e-05
2.88224e-05
2.80629e-05
2.70942e-05
1.36169e-05
1.35101e-05
1.3406e-05
1.33015e-05
1.32105e-05
1.31158e-05
1.40041e-05
1.38932e-05
1.37875e-05
1.36866e-05
1.35765e-05
1.34886e-05
3.35134e-05
3.24271e-05
3.16249e-05
3.06629e-05
2.96924e-05
2.85358e-05
6.24245e-05
6.00138e-05
5.76953e-05
5.54075e-05
8.51847e-05
8.2339e-05
7.94684e-05
7.67634e-05
9.78814e-05
9.49294e-05
9.18828e-05
8.87142e-05
0.000102002
9.90089e-05
9.58107e-05
9.27738e-05
8.89165e-05
9.79038e-05
9.49647e-05
9.18468e-05
8.88454e-05
8.55883e-05
8.5207e-05
8.23983e-05
7.95327e-05
7.67812e-05
7.41076e-05
6.26138e-05
6.02029e-05
5.79052e-05
5.56935e-05
5.35157e-05
3.34189e-05
3.24391e-05
3.16653e-05
3.07623e-05
2.96766e-05
1.4003e-05
1.38925e-05
1.37881e-05
1.36883e-05
1.3579e-05
1.37294e-05
1.36155e-05
1.35087e-05
1.34002e-05
1.33051e-05
1.32029e-05
3.1932e-05
3.06582e-05
2.97345e-05
2.89355e-05
2.7888e-05
2.72346e-05
6.03319e-05
5.80844e-05
5.59139e-05
5.37932e-05
5.16702e-05
4.98076e-05
8.36657e-05
8.10408e-05
7.83852e-05
7.56773e-05
7.31822e-05
7.0199e-05
9.67273e-05
9.39551e-05
9.10784e-05
8.81053e-05
8.53409e-05
8.18262e-05
9.7765e-05
9.48608e-05
9.18046e-05
8.88816e-05
8.56532e-05
9.39161e-05
9.10417e-05
8.80022e-05
8.50886e-05
8.20592e-05
8.17653e-05
7.9049e-05
7.62627e-05
7.35754e-05
7.10644e-05
5.99891e-05
5.78031e-05
5.55421e-05
5.33619e-05
5.13272e-05
3.16728e-05
3.10762e-05
2.99514e-05
2.89208e-05
2.7862e-05
1.34028e-05
1.32956e-05
1.31979e-05
1.30912e-05
1.3007e-05
1.23404e-05
1.22429e-05
1.215e-05
1.20606e-05
1.19692e-05
1.18894e-05
2.58975e-05
2.477e-05
2.42375e-05
2.3259e-05
2.27626e-05
2.19838e-05
5.02817e-05
4.80007e-05
4.66637e-05
4.49656e-05
4.29443e-05
4.19913e-05
7.19662e-05
6.96052e-05
6.72605e-05
6.49157e-05
6.25564e-05
6.06814e-05
8.44149e-05
8.18209e-05
7.91727e-05
7.64837e-05
7.38993e-05
7.14338e-05
8.5046e-05
8.23712e-05
7.96081e-05
7.69415e-05
7.43381e-05
8.10274e-05
7.83777e-05
7.56832e-05
7.30851e-05
7.06475e-05
6.95734e-05
6.72504e-05
6.48237e-05
6.24666e-05
6.04479e-05
4.92993e-05
4.81445e-05
4.57275e-05
4.44283e-05
4.27352e-05
2.4862e-05
2.4368e-05
2.32793e-05
2.24173e-05
2.14476e-05
1.18864e-05
1.1791e-05
1.1706e-05
1.16273e-05
1.15495e-05
1.00949e-05
1.00237e-05
9.95488e-06
9.88792e-06
9.82357e-06
9.76249e-06
1.69386e-05
1.62555e-05
1.56948e-05
1.52678e-05
1.46691e-05
1.43036e-05
3.45136e-05
3.28272e-05
3.15659e-05
3.06936e-05
2.91508e-05
2.84677e-05
5.16157e-05
4.96171e-05
4.77667e-05
4.62668e-05
4.39958e-05
4.31862e-05
6.26694e-05
6.01821e-05
5.79173e-05
5.5677e-05
5.35365e-05
5.15851e-05
6.24218e-05
6.01026e-05
5.78641e-05
5.57121e-05
5.36098e-05
5.80754e-05
5.60097e-05
5.3949e-05
5.19481e-05
5.0028e-05
4.84021e-05
4.65246e-05
4.48739e-05
4.34471e-05
4.18004e-05
3.26138e-05
3.17352e-05
3.02671e-05
2.94564e-05
2.82914e-05
1.50193e-05
1.46416e-05
1.39956e-05
1.34851e-05
1.30114e-05
9.60715e-06
9.53928e-06
9.47468e-06
9.41277e-06
9.35344e-06
6.98894e-06
6.94332e-06
6.8999e-06
6.85788e-06
6.81754e-06
6.77877e-06
7.34599e-06
7.12261e-06
6.894e-06
6.69323e-06
6.49439e-06
6.35631e-06
1.60439e-05
1.52996e-05
1.46156e-05
1.41327e-05
1.34381e-05
1.31369e-05
2.63974e-05
2.52344e-05
2.43349e-05
2.34495e-05
2.23827e-05
2.18062e-05
3.31946e-05
3.20309e-05
3.10157e-05
2.99859e-05
2.89908e-05
2.80126e-05
3.32647e-05
3.24803e-05
3.15466e-05
3.07558e-05
2.96897e-05
3.05255e-05
2.97342e-05
2.87862e-05
2.80715e-05
2.71155e-05
2.50554e-05
2.41e-05
2.33154e-05
2.28254e-05
2.19967e-05
1.62212e-05
1.56946e-05
1.52639e-05
1.46878e-05
1.42811e-05
7.09973e-06
6.88676e-06
6.68846e-06
6.47259e-06
6.32846e-06
6.74551e-06
6.70174e-06
6.65992e-06
6.61968e-06
6.58106e-06
3.51675e-06
3.496e-06
3.47532e-06
3.45558e-06
3.43639e-06
3.41831e-06
6.79135e-06
6.74535e-06
6.70161e-06
6.65985e-06
6.61954e-06
6.58117e-06
9.68435e-06
9.61201e-06
9.54298e-06
9.47749e-06
1.20006e-05
1.18951e-05
1.17974e-05
1.17103e-05
1.16296e-05
1.35228e-05
1.34103e-05
1.33021e-05
1.32e-05
1.31027e-05
1.40049e-05
1.38946e-05
1.37899e-05
1.36858e-05
1.35888e-05
1.36156e-05
1.3509e-05
1.34047e-05
1.32995e-05
1.321e-05
1.22433e-05
1.21522e-05
1.20585e-05
1.19732e-05
1.1888e-05
1.00248e-05
9.9561e-06
9.88916e-06
9.82505e-06
9.7638e-06
6.94479e-06
6.90097e-06
6.85892e-06
6.81837e-06
6.77934e-06
3.49611e-06
3.4759e-06
3.45588e-06
3.43657e-06
3.41834e-06
)
;

boundaryField
{
    inlet
    {
        type            calculated;
        value           nonuniform List<scalar> 0();
    }
    ami1
    {
        type            cyclicAMI;
        value           nonuniform List<scalar> 0();
    }
    walls
    {
        type            nutkWallFunction;
        blending        stepwise;
        value           uniform 0;
    }
    ami2
    {
        type            cyclicAMI;
        value           nonuniform List<scalar> 0();
    }
    outlet
    {
        type            calculated;
        value           nonuniform List<scalar> 0();
    }
    procBoundary5to6
    {
        type            processor;
        value           nonuniform List<scalar> 
177
(
3.39982e-06
3.39982e-06
6.74179e-06
9.70477e-06
9.70477e-06
9.70477e-06
1.17353e-05
1.30267e-05
1.30267e-05
1.33117e-05
2.76341e-05
1.27482e-05
2.59603e-05
1.13245e-05
9.18434e-06
6.50762e-06
6.50762e-06
6.50762e-06
3.38379e-06
6.50693e-06
6.09438e-06
6.50693e-06
6.09438e-06
6.09438e-06
6.09438e-06
1.3469e-05
2.08059e-05
2.55939e-05
2.76341e-05
2.59603e-05
2.59603e-05
1.92705e-05
3.87801e-05
1.16068e-05
2.60765e-05
5.81035e-06
6.70686e-06
6.70686e-06
9.18324e-06
1.20446e-05
1.20446e-05
1.20446e-05
2.6091e-05
3.82464e-05
4.55643e-05
4.84926e-05
4.57715e-05
6.56816e-05
3.87801e-05
2.60765e-05
2.60765e-05
1.3045e-05
9.65094e-06
2.08122e-05
9.65094e-06
1.13235e-05
1.28299e-05
1.93186e-05
3.87579e-05
2.58789e-05
3.87579e-05
4.86774e-05
5.35613e-05
6.56006e-05
6.22697e-05
7.56409e-05
6.49898e-05
6.56816e-05
7.92156e-05
6.56816e-05
6.56816e-05
5.34027e-05
6.54682e-05
3.80846e-05
4.7822e-05
2.08122e-05
2.65224e-05
1.17408e-05
1.28299e-05
2.58789e-05
4.86774e-05
4.86774e-05
5.28139e-05
6.56006e-05
7.13718e-05
7.56409e-05
8.24633e-05
7.92156e-05
7.59465e-05
6.54682e-05
4.7822e-05
2.65224e-05
2.65224e-05
1.30328e-05
1.34989e-05
1.33803e-05
1.31169e-05
5.28139e-05
2.78076e-05
5.03631e-05
2.64061e-05
5.28139e-05
5.28139e-05
7.13718e-05
7.13718e-05
8.24633e-05
8.24633e-05
8.24633e-05
8.24358e-05
7.93507e-05
6.88306e-05
5.11191e-05
2.87171e-05
1.34989e-05
1.31169e-05
2.64061e-05
4.7662e-05
6.52371e-05
7.59637e-05
7.94322e-05
7.61048e-05
6.60065e-05
4.90878e-05
2.71112e-05
1.29026e-05
1.18066e-05
2.14843e-05
3.98824e-05
5.65285e-05
6.64469e-05
6.90945e-05
6.56785e-05
5.63301e-05
4.09321e-05
2.09752e-05
1.14731e-05
9.70406e-06
1.38351e-05
2.7134e-05
4.08027e-05
4.93773e-05
5.12902e-05
4.80057e-05
4.01622e-05
2.73175e-05
1.2476e-05
9.29562e-06
6.7417e-06
6.09153e-06
9.41213e-06
1.24527e-05
9.35243e-06
2.08072e-05
1.15493e-05
2.71149e-05
1.29917e-05
2.88196e-05
2.65689e-05
2.15108e-05
1.3858e-05
6.07529e-06
6.54346e-06
3.40036e-06
9.41213e-06
6.54374e-06
9.35243e-06
9.41213e-06
9.41213e-06
1.15493e-05
1.29917e-05
1.29917e-05
1.34754e-05
1.31114e-05
1.18126e-05
9.70573e-06
6.74208e-06
3.40038e-06
)
;
    }
    procBoundary5to7
    {
        type            processor;
        value           nonuniform List<scalar> 
131
(
3.51984e-06
6.99403e-06
1.00989e-05
1.23427e-05
1.37285e-05
1.41174e-05
1.35147e-05
1.19893e-05
9.67856e-06
6.79227e-06
3.51797e-06
6.79824e-06
7.59337e-06
1.71138e-05
2.57429e-05
3.16796e-05
3.42712e-05
3.31843e-05
2.64185e-05
1.60605e-05
7.49938e-06
6.9913e-06
9.68842e-06
1.62931e-05
3.47342e-05
4.99886e-05
6.07072e-05
6.55499e-05
6.30225e-05
5.16697e-05
3.45352e-05
1.70187e-05
1.00982e-05
1.20035e-05
2.65675e-05
5.18571e-05
7.24896e-05
8.41522e-05
8.83194e-05
8.48975e-05
7.23937e-05
4.99407e-05
2.56964e-05
1.23429e-05
1.35251e-05
3.33184e-05
6.32937e-05
8.51289e-05
9.73552e-05
0.000101326
9.72751e-05
8.42342e-05
6.08111e-05
3.1941e-05
1.37303e-05
1.41224e-05
1.41224e-05
3.42902e-05
3.42902e-05
6.5664e-05
6.5664e-05
8.85476e-05
8.85476e-05
0.000101418
0.000101418
0.000105589
0.000101377
8.84744e-05
6.57116e-05
3.4323e-05
1.41198e-05
1.38497e-05
3.26243e-05
6.31615e-05
8.668e-05
0.0001
0.000101326
0.000101326
9.73247e-05
8.49866e-05
6.3154e-05
3.32534e-05
1.35175e-05
1.2442e-05
2.65043e-05
5.1717e-05
7.47375e-05
8.74553e-05
8.8358e-05
8.8358e-05
8.42236e-05
7.23765e-05
5.17362e-05
2.64668e-05
1.19921e-05
1.01685e-05
1.75109e-05
3.57502e-05
5.38515e-05
6.53528e-05
6.5614e-05
6.5614e-05
6.08556e-05
4.99586e-05
3.45623e-05
1.6088e-05
9.68111e-06
7.03674e-06
7.79998e-06
1.68004e-05
2.75009e-05
3.4227e-05
3.44268e-05
3.44268e-05
3.19367e-05
2.56648e-05
1.69919e-05
7.5086e-06
6.79352e-06
3.5399e-06
6.84247e-06
9.76312e-06
1.21063e-05
1.36421e-05
1.41224e-05
1.41224e-05
1.37298e-05
1.23407e-05
1.00959e-05
6.99065e-06
3.51825e-06
)
;
    }
}


// ************************************************************************* //
