/*--------------------------------*- C++ -*----------------------------------*\
| =========                 |                                                 |
| \\      /  F ield         | OpenFOAM: The Open Source CFD Toolbox           |
|  \\    /   O peration     | Version:  2212                                  |
|   \\  /    A nd           | Website:  www.openfoam.com                      |
|    \\/     M anipulation  |                                                 |
\*---------------------------------------------------------------------------*/
FoamFile
{
    version     2.0;
    format      ascii;
    arch        "LSB;label=32;scalar=64";
    class       volScalarField;
    location    "3";
    object      p;
}
// * * * * * * * * * * * * * * * * * * * * * * * * * * * * * * * * * * * * * //

dimensions      [0 2 -2 0 0 0 0];

internalField   nonuniform List<scalar> 
678
(
0.0011528
0.00103942
0.000927466
0.000816606
0.000706592
0.0011465
0.00103359
0.000922131
0.000811782
0.000702295
0.00113938
0.00102762
0.000917093
0.000807523
0.00069851
0.00113906
0.00102737
0.000916075
0.000805862
0.000696671
0.000588123
0.00114475
0.00103207
0.000919598
0.000808396
0.000698708
0.000589928
0.00114741
0.00103498
0.000923511
0.000813257
0.00070383
0.000594814
0.000486354
0.00115007
0.00103762
0.000926489
0.0008162
0.000706449
0.000597493
0.000489295
0.00115432
0.00104143
0.000930064
0.00081959
0.000709525
0.000600301
0.000492038
0.00115578
0.00104234
0.000930418
0.000819586
0.000709267
0.000599451
0.000490855
0.00115944
0.00104563
0.000933199
0.000821887
0.000711234
0.000601083
0.00115211
0.00103881
0.000926931
0.000816149
0.000706066
0.000596442
0.00116028
0.00104639
0.000933863
0.000822466
0.000711921
0.000601851
0.00115949
0.00104592
0.000933495
0.000822154
0.000711448
0.0011493
0.00103724
0.000925603
0.00081491
0.000704832
0.000595674
0.00115051
0.00103762
0.000925289
0.00081413
0.000703968
0.000595153
0.00115328
0.00104003
0.000927917
0.000816816
0.000706502
0.000597328
0.00115415
0.00104144
0.000929437
0.000818207
0.00070765
0.000598106
0.00115215
0.00103986
0.000927972
0.000816883
0.000706368
0.000596467
0.00114925
0.00103741
0.000926321
0.00081591
0.000706202
0.000597512
0.000489326
0.00115233
0.00103995
0.00092859
0.000818074
0.000708018
0.000598689
0.000490368
0.00115875
0.00104524
0.000932925
0.000821657
0.000711062
0.000600965
0.000492122
0.00114593
0.00103312
0.00092173
0.000811453
0.000701862
0.000592717
0.00115665
0.00104319
0.000931109
0.000820206
0.000709803
0.000600086
0.000491279
0.00115279
0.00104057
0.000929043
0.000818469
0.000708207
0.000598709
0.00113344
0.0010225
0.000912098
0.000802351
0.000693169
0.000585097
0.00112811
0.00101616
0.000905473
0.000795468
0.000686585
0.000578987
0.00112339
0.00101114
0.000900265
0.000790231
0.00068135
0.000573535
0.00112347
0.0010112
0.000899925
0.000789445
0.00068023
0.000572176
0.00112264
0.00101088
0.000899616
0.000789439
0.000680916
0.000572871
0.00112657
0.00101558
0.000904815
0.000794937
0.00068673
0.000579461
0.00113356
0.00102252
0.000912086
0.000802347
0.000693314
0.000585447
0.00114894
0.00103685
0.000925304
0.000814696
0.000704899
0.000595843
0.00048787
0.00113897
0.00102722
0.000916737
0.000807247
0.000698304
0.00058973
0.00115514
0.00104248
0.000930764
0.000820156
0.000710131
0.000600902
0.000492401
0.00114941
0.00103756
0.000926463
0.000816127
0.000706413
0.000597505
0.000489171
0.00112616
0.00101502
0.000904518
0.000794631
0.000686282
0.000578854
0.00111782
0.00100597
0.000895085
0.000785091
0.000676807
0.000568896
0.00111077
0.000998606
0.000887655
0.000777753
0.000669012
0.000560553
0.00111023
0.000997693
0.000886524
0.000776442
0.000667372
0.000558848
0.00111066
0.000998357
0.000887249
0.000777195
0.000668118
0.00111799
0.00100622
0.000895323
0.000785409
0.000677127
0.000569014
0.00112812
0.00101624
0.000905537
0.000795538
0.000686695
0.000579002
0.0011502
0.00103726
0.000924982
0.000813944
0.000703955
0.00059519
0.00113855
0.00102681
0.000915639
0.000805606
0.000696523
0.00058801
0.0011507
0.00103838
0.000926972
0.000816571
0.000706915
0.000597967
0.00115231
0.0010399
0.00092816
0.000817054
0.000706395
0.000595993
0.00112233
0.00101051
0.000899525
0.000789456
0.000680697
0.00111047
0.000998188
0.000887164
0.000777168
0.000668007
0.00110292
0.00099034
0.000879052
0.000768753
0.000659042
0.00110148
0.000988786
0.000877367
0.000767008
0.000657257
0.00110301
0.00099043
0.000879098
0.000768768
0.000658898
0.00111086
0.000998784
0.000887824
0.000777846
0.000668713
0.00112329
0.00101133
0.000900423
0.000790311
0.000681586
0.00115285
0.00103975
0.000927632
0.000816483
0.000706401
0.00114432
0.00103141
0.000919132
0.000808224
0.000698505
0.000589748
0.00114767
0.00103536
0.000923936
0.000813678
0.00070421
0.000594943
0.00115437
0.00104162
0.000929672
0.00081859
0.000708061
0.000597861
0.00112346
0.00101121
0.000900066
0.000789996
0.00111008
0.000997644
0.000886496
0.000776104
0.00110136
0.000988699
0.000877188
0.000766215
0.00109923
0.000986466
0.000874891
0.000764211
0.00065436
0.00110154
0.000988842
0.000877394
0.000766938
0.000657011
0.0011103
0.000997814
0.00088664
0.000776461
0.000666968
0.00112343
0.00101126
0.000900006
0.000789586
0.000680465
0.00115371
0.00104107
0.000929042
0.000817754
0.000707411
0.00114683
0.00103436
0.000922945
0.000812846
0.000703453
0.00125768
0.00114475
0.00103191
0.000919786
0.000808774
0.000698968
0.0012669
0.00115303
0.00104006
0.000927921
0.000816829
0.000706723
0.00123664
0.00112326
0.00101136
0.000900281
0.000790431
0.000681631
0.00122423
0.00111091
0.000998898
0.000887852
0.000777855
0.000668404
0.00121671
0.00110314
0.000990745
0.000879399
0.000768932
0.000658907
0.00110155
0.000988996
0.000877615
0.000767165
0.000657227
0.00110315
0.000990633
0.000879334
0.000768997
0.000659069
0.00111081
0.000998579
0.000887508
0.000777497
0.000668139
0.00112263
0.00101095
0.000899724
0.000789624
0.000680921
0.00115167
0.00103936
0.000927421
0.00081625
0.000705856
0.00114938
0.00103686
0.000925767
0.000815567
0.000705778
0.00125158
0.00113886
0.0010269
0.000915999
0.000805827
0.000696555
0.00126405
0.00115042
0.00103734
0.000925157
0.000813952
0.000704146
0.00124097
0.00112793
0.00101643
0.000905538
0.00079576
0.000687149
0.00123046
0.00111777
0.00100639
0.000895464
0.000785903
0.000677059
0.00122431
0.00111082
0.000998732
0.000887668
0.00077771
0.000668328
0.00111028
0.000997987
0.000886916
0.000776787
0.00066728
0.00111094
0.000998925
0.000888016
0.000778036
0.000668642
0.00111799
0.00100634
0.000895609
0.000785942
0.000676917
0.0011264
0.00101546
0.00090478
0.000795121
0.000686821
0.00114876
0.00103684
0.000925621
0.000815099
0.000705665
0.00115364
0.00104068
0.000929279
0.000818759
0.000708752
0.0012516
0.00113889
0.00102715
0.000916929
0.000807431
0.000698266
0.00126203
0.00114924
0.00103677
0.000925289
0.000814572
0.000704629
0.00124629
0.00113356
0.00102224
0.000911774
0.000801957
0.000693161
0.00123851
0.00112606
0.00101512
0.0009045
0.000794981
0.000686593
0.00123532
0.00112231
0.00101052
0.000899508
0.000789618
0.000680837
0.00112316
0.00101104
0.000899925
0.000789712
0.000680664
0.00112309
0.00101115
0.000900367
0.000790439
0.000681628
0.00112791
0.00101608
0.000905489
0.000795776
0.00068699
0.00113325
0.00102224
0.000911625
0.000801761
0.000693025
0.00115181
0.00103931
0.000927835
0.000817133
0.000707139
0.00115514
0.00104162
0.000929695
0.000818722
0.000708613
0.00125908
0.00114541
0.00103286
0.00092172
0.000811423
0.00070191
0.00127231
0.00115846
0.00104498
0.000932773
0.000821361
0.000710736
0.00126529
0.00115233
0.00103966
0.000928255
0.000817612
0.000707582
0.00126197
0.00114881
0.00103668
0.000925518
0.000815149
0.000705632
0.00126474
0.0011515
0.00103901
0.000927202
0.000816167
0.000705532
0.00115358
0.00104076
0.00092873
0.000817491
0.000707116
0.0011526
0.0010394
0.000927227
0.00081607
0.000706003
0.00114987
0.00103687
0.000924431
0.000813209
0.000703532
0.00114855
0.00103638
0.00092466
0.000813795
0.00070407
0.00115826
0.00104456
0.000932246
0.000820878
0.000710336
0.00115882
0.00104491
0.000932486
0.000821107
0.000710672
0.00126547
0.00115151
0.00103853
0.000926822
0.000815936
0.000705945
0.00127304
0.00115869
0.00104517
0.000932864
0.000821382
0.000710917
0.00126908
0.00115538
0.00104216
0.000930224
0.00126726
0.00115392
0.0010411
0.000929531
0.000818701
0.00126268
0.00114955
0.00103717
0.000925791
0.000815306
0.001147
0.00103437
0.00092276
0.000812412
0.000702889
0.00114418
0.00103117
0.000918728
0.000807678
0.000697912
0.00113827
0.00102643
0.000915159
0.000804974
0.000695816
0.00113867
0.00102672
0.00091623
0.000806689
0.000697581
0.00114555
0.0010326
0.000921188
0.000810851
0.000701326
0.00115163
0.0010382
0.00092632
0.000815469
0.000705496
)
;

boundaryField
{
    inlet
    {
        type            zeroGradient;
    }
    ami1
    {
        type            cyclicAMI;
        value           nonuniform List<scalar> 0();
    }
    walls
    {
        type            zeroGradient;
    }
    ami2
    {
        type            cyclicAMI;
        value           nonuniform List<scalar> 0();
    }
    outlet
    {
        type            fixedValue;
        value           nonuniform List<scalar> 0();
    }
    procBoundary5to6
    {
        type            processor;
        value           nonuniform List<scalar> 
177
(
0.000597003
0.000597003
0.000593138
0.000589772
0.000589772
0.000589772
0.000480638
0.00048216
0.00048216
0.000378095
0.000489071
0.000381144
0.000486977
0.000383631
0.000382321
0.000492159
0.000492159
0.000492159
0.000487954
0.000492362
0.000601365
0.000492362
0.000601365
0.000601365
0.000601365
0.000487906
0.000487321
0.000488507
0.000489071
0.000486977
0.000486977
0.000380897
0.000471343
0.000381956
0.000477863
0.000383426
0.000484608
0.000484608
0.000382599
0.000490477
0.000490477
0.000490477
0.000477687
0.00047123
0.00046571
0.00046455
0.000464531
0.000559489
0.000471343
0.000477863
0.000477863
0.000379913
0.000481955
0.000487205
0.000481955
0.000383793
0.000489531
0.000380729
0.000470927
0.000486169
0.000470927
0.000572293
0.000460694
0.000559443
0.00045307
0.000550584
0.000451871
0.000559489
0.000548925
0.000559489
0.000559489
0.000460454
0.00056018
0.000470884
0.000573418
0.000487205
0.000597186
0.000480485
0.000489531
0.000486169
0.000572293
0.000572293
0.000680594
0.000559443
0.000666363
0.000550584
0.00065628
0.000548925
0.000550546
0.00056018
0.000573418
0.000597186
0.000597186
0.000481879
0.000594405
0.000486135
0.000590348
0.000680594
0.00048814
0.000571578
0.000597192
0.000680594
0.000680594
0.000666363
0.000666363
0.00065628
0.00065628
0.00065628
0.000546877
0.000548995
0.000558602
0.000572135
0.000597787
0.000594405
0.000590348
0.000597192
0.000572934
0.000559839
0.00055068
0.000549184
0.000550804
0.000559688
0.000572742
0.000595852
0.000596723
0.000588221
0.000595557
0.000578817
0.000568159
0.000559729
0.000558878
0.000560186
0.000568365
0.000579015
0.000597109
0.00059959
0.000589706
0.000595826
0.000585298
0.000578345
0.00057242
0.000572298
0.000573357
0.000578842
0.000585185
0.000597983
0.000599012
0.000592945
0.000600991
0.000819108
0.00059867
0.00070894
0.00059708
0.000708974
0.000595302
0.000705672
0.000597392
0.000596719
0.000594872
0.000595211
0.000600427
0.000600771
0.000596616
0.000819108
0.00060115
0.00070894
0.000819108
0.000819108
0.000708974
0.000705672
0.000705672
0.000593904
0.000589205
0.000587434
0.000589016
0.000592323
0.000596069
)
;
    }
    procBoundary5to7
    {
        type            processor;
        value           nonuniform List<scalar> 
131
(
0.00126619
0.00125971
0.00125217
0.00125183
0.00125787
0.00126057
0.001263
0.00126742
0.00126928
0.0012732
0.00126557
0.00127389
0.00127318
0.00126248
0.00126416
0.00126687
0.00126736
0.00126511
0.00126242
0.00126561
0.00127252
0.00125918
0.00127003
0.00126597
0.00124627
0.00124091
0.00123657
0.00123691
0.00123561
0.00123884
0.00124638
0.00126216
0.00125179
0.00126803
0.00126254
0.0012386
0.00123056
0.00122444
0.00122446
0.00122459
0.00123059
0.00124083
0.00126379
0.00125136
0.00126344
0.00126531
0.00123547
0.00122447
0.00121696
0.00121555
0.00121701
0.00122444
0.00123647
0.00126648
0.00125733
0.00126073
0.00126073
0.00126766
0.00126766
0.0012369
0.0012369
0.00122419
0.00122419
0.00121534
0.00121534
0.00121325
0.00121559
0.00122446
0.00123683
0.00126695
0.00126001
0.0013715
0.0013813
0.00135101
0.00133903
0.00133155
0.00121543
0.00121543
0.0012171
0.00122466
0.00123554
0.00126467
0.00126239
0.00136523
0.00137859
0.00135494
0.00134443
0.00133924
0.00122424
0.00122424
0.0012245
0.00123056
0.00123871
0.00126201
0.00126678
0.00136532
0.00137603
0.00136018
0.00135229
0.00134952
0.00123656
0.00123656
0.00123633
0.00124067
0.00124618
0.00126517
0.0012687
0.00137323
0.00138693
0.00137935
0.00137624
0.00137885
0.00126696
0.00126696
0.00126629
0.00126356
0.00126186
0.00127203
0.00127259
0.00137979
0.00138751
0.00138317
0.001381
0.00137679
0.00126022
0.00126022
0.00125722
0.00125111
0.00125148
0.0012588
0.0012651
)
;
    }
}


// ************************************************************************* //
