/*--------------------------------*- C++ -*----------------------------------*\
| =========                 |                                                 |
| \\      /  F ield         | OpenFOAM: The Open Source CFD Toolbox           |
|  \\    /   O peration     | Version:  2212                                  |
|   \\  /    A nd           | Website:  www.openfoam.com                      |
|    \\/     M anipulation  |                                                 |
\*---------------------------------------------------------------------------*/
FoamFile
{
    version     2.0;
    format      ascii;
    arch        "LSB;label=32;scalar=64";
    class       surfaceScalarField;
    location    "3";
    object      phi;
}
// * * * * * * * * * * * * * * * * * * * * * * * * * * * * * * * * * * * * * //

dimensions      [0 3 -1 0 0 0 0];

oriented        oriented;

internalField   nonuniform List<scalar> 
1755
(
5.77818e-08
-3.4096e-08
3.46939e-08
5.71954e-08
-3.41148e-08
3.47012e-08
5.66312e-08
-3.4145e-08
3.47092e-08
5.60922e-08
-3.41784e-08
3.47175e-08
-3.42125e-08
3.47285e-08
1.88171e-07
-6.41387e-08
3.18409e-08
1.86425e-07
-6.42163e-08
3.18468e-08
1.84751e-07
-6.43149e-08
3.18445e-08
1.83146e-07
-6.44188e-08
3.18451e-08
-6.45037e-08
3.18338e-08
3.68676e-07
-8.89469e-08
2.81052e-08
3.65446e-07
-8.90204e-08
2.80335e-08
3.6231e-07
-8.91397e-08
2.79608e-08
3.59292e-07
-8.92718e-08
2.78716e-08
-8.93795e-08
2.77753e-08
5.2539e-07
-1.06966e-07
2.28796e-08
5.20693e-07
-1.07003e-07
2.26788e-08
5.16225e-07
-1.0709e-07
2.24191e-08
5.12e-07
-1.07188e-07
2.21412e-08
5.0797e-07
-1.07266e-07
2.19172e-08
-1.07333e-07
2.17461e-08
6.30772e-07
-1.16828e-07
1.56461e-08
6.25199e-07
-1.16874e-07
1.54431e-08
6.19827e-07
-1.16951e-07
1.5233e-08
6.14658e-07
-1.1704e-07
1.50203e-08
6.09677e-07
-1.17109e-07
1.48237e-08
-1.17154e-07
1.46451e-08
6.59441e-07
-1.17834e-07
6.45308e-09
6.54173e-07
-1.17842e-07
6.23701e-09
6.49041e-07
-1.17859e-07
6.0399e-09
6.44022e-07
-1.17873e-07
5.85244e-09
6.39107e-07
-1.17859e-07
5.665e-09
6.34316e-07
-1.17824e-07
5.46132e-09
-1.1779e-07
6.07038e-07
-1.09332e-07
-3.87862e-09
6.02541e-07
-1.09284e-07
-4.06113e-09
5.9815e-07
-1.09233e-07
-4.234e-09
5.93841e-07
-1.09181e-07
-4.38347e-09
5.89665e-07
-1.09095e-07
-4.5883e-09
5.85691e-07
-1.08977e-07
-4.87287e-09
-1.08877e-07
4.90703e-07
-9.15887e-08
-1.41906e-08
4.87207e-07
-9.15174e-08
-1.42709e-08
4.83785e-07
-9.14346e-08
-1.43761e-08
4.80433e-07
-9.13538e-08
-1.44759e-08
4.77155e-07
-9.12769e-08
-1.45397e-08
4.73963e-07
-9.11881e-08
-1.45972e-08
-9.11071e-08
-1.46916e-08
3.35951e-07
-6.62659e-08
-2.25474e-08
3.33239e-07
-6.62197e-08
-2.25861e-08
3.30624e-07
-6.61616e-08
-2.26571e-08
3.28106e-07
-6.61021e-08
-2.27341e-08
3.25681e-07
-6.60542e-08
-2.2798e-08
3.23345e-07
-6.60153e-08
-2.28367e-08
-2.29264e-08
1.76198e-07
-3.46938e-08
-2.99702e-08
1.74639e-07
-3.47027e-08
-2.99574e-08
1.73145e-07
-3.47098e-08
-2.99581e-08
1.71719e-07
-3.47162e-08
-2.99598e-08
1.70351e-07
-3.47266e-08
-2.99599e-08
-3.47413e-08
-2.9946e-08
5.77654e-08
-3.41023e-08
5.71853e-08
-3.41227e-08
5.66278e-08
-3.41522e-08
5.60969e-08
-3.41854e-08
5.559e-08
-3.42197e-08
-3.42511e-08
1.76282e-07
-2.99675e-08
6.62853e-08
1.74705e-07
-2.99515e-08
6.62306e-08
1.7319e-07
-2.9949e-08
6.61724e-08
1.71738e-07
-2.99436e-08
6.61139e-08
1.70333e-07
-2.99457e-08
6.60791e-08
6.60407e-08
4.81533e-07
-5.56583e-08
6.0487e-08
4.78592e-07
-5.56563e-08
6.04921e-08
4.75685e-07
-5.56564e-08
6.04595e-08
4.72817e-07
-5.56507e-08
6.04201e-08
-5.5682e-08
6.0378e-08
7.9832e-07
-7.75459e-08
5.2164e-08
7.96079e-07
-7.75104e-08
5.21289e-08
7.93751e-07
-7.74566e-08
5.20888e-08
7.91361e-07
-7.74235e-08
5.20351e-08
7.88905e-07
-7.74246e-08
5.19732e-08
-7.74199e-08
5.19161e-08
1.0256e-06
-9.33318e-08
4.02508e-08
1.02397e-06
-9.33169e-08
4.01178e-08
1.0222e-06
-9.32906e-08
4.00225e-08
1.02031e-06
-9.32823e-08
3.98918e-08
1.01832e-06
-9.3291e-08
3.97698e-08
-9.32822e-08
3.96608e-08
1.16016e-06
-1.01847e-07
2.55333e-08
1.15876e-06
-1.01849e-07
2.53777e-08
1.15731e-06
-1.01849e-07
2.52456e-08
1.1558e-06
-1.01856e-07
2.51045e-08
1.15425e-06
-1.01873e-07
2.49536e-08
-1.01884e-07
2.4791e-08
1.19738e-06
-1.02889e-07
8.49227e-09
1.19635e-06
-1.02906e-07
8.33045e-09
1.19528e-06
-1.02919e-07
8.17618e-09
1.19422e-06
-1.02941e-07
8.00255e-09
1.19316e-06
-1.02966e-07
7.81586e-09
-1.02984e-07
7.60713e-09
1.14091e-06
-9.63821e-08
-9.82861e-09
1.14032e-06
-9.64319e-08
-9.94463e-09
1.1397e-06
-9.645e-08
-1.0086e-08
1.13907e-06
-9.64658e-08
-1.02251e-08
1.13838e-06
-9.65121e-08
-1.0357e-08
-9.6577e-08
-1.05175e-08
9.99297e-07
-8.23982e-08
-2.73996e-08
9.98441e-07
-8.24347e-08
-2.74122e-08
9.97502e-07
-8.24105e-08
-2.74768e-08
9.96482e-07
-8.23757e-08
-2.75461e-08
9.95353e-07
-8.23615e-08
-2.75616e-08
9.94127e-07
-8.23694e-08
-2.75782e-08
-8.23158e-08
7.74675e-07
-6.04602e-08
-4.24841e-08
7.72575e-07
-6.04617e-08
-4.24592e-08
7.70397e-07
-6.04225e-08
-4.24666e-08
7.68158e-07
-6.03758e-08
-4.24955e-08
7.65859e-07
-6.03385e-08
-4.2522e-08
7.63506e-07
-6.03273e-08
-4.25258e-08
-6.02385e-08
4.81418e-07
-3.18291e-08
-5.56779e-08
4.78512e-07
-3.18321e-08
-5.56814e-08
4.75643e-07
-3.18293e-08
-5.56818e-08
4.72814e-07
-3.18244e-08
-5.56829e-08
4.70032e-07
-3.18155e-08
-5.57003e-08
4.67294e-07
-3.18181e-08
-5.57175e-08
-5.57981e-08
1.8813e-07
-6.41566e-08
1.86405e-07
-6.42301e-08
1.84748e-07
-6.43242e-08
1.83164e-07
-6.44259e-08
1.81652e-07
-6.45235e-08
-6.4611e-08
3.36105e-07
-2.2528e-08
9.1636e-08
3.33358e-07
-2.25704e-08
9.15484e-08
3.30699e-07
-2.2636e-08
9.14671e-08
3.28138e-07
-2.27132e-08
9.13878e-08
3.2567e-07
-2.27605e-08
9.1308e-08
3.23291e-07
-2.28048e-08
9.12247e-08
9.11377e-08
7.74638e-07
-4.24766e-08
8.24305e-08
7.72536e-07
-4.24384e-08
8.24627e-08
7.70345e-07
-4.2439e-08
8.24532e-08
7.68103e-07
-4.24701e-08
8.24192e-08
7.65797e-07
-4.2485e-08
8.24083e-08
-4.25134e-08
8.23968e-08
1.13075e-06
-6.04213e-08
6.93455e-08
1.1314e-06
-6.03486e-08
6.93932e-08
1.13189e-06
-6.02753e-08
6.94311e-08
1.13225e-06
-6.02342e-08
6.94412e-08
1.13247e-06
-6.01824e-08
6.94521e-08
-6.01466e-08
6.94475e-08
1.37238e-06
-7.39181e-08
5.16975e-08
1.37432e-06
-7.38557e-08
5.16778e-08
1.37618e-06
-7.37829e-08
5.16744e-08
1.37793e-06
-7.37305e-08
5.16433e-08
1.37954e-06
-7.36586e-08
5.16303e-08
-7.35999e-08
5.15873e-08
1.5136e-06
-8.17203e-08
3.06651e-08
1.5162e-06
-8.16814e-08
3.06078e-08
1.51875e-06
-8.16407e-08
3.05562e-08
1.52122e-06
-8.16018e-08
3.05019e-08
1.52362e-06
-8.15644e-08
3.0457e-08
-8.15372e-08
3.03659e-08
1.55619e-06
-8.35106e-08
7.30744e-09
1.55915e-06
-8.35255e-08
7.21298e-09
1.5621e-06
-8.35435e-08
7.1302e-09
1.56501e-06
-8.35675e-08
7.05093e-09
1.5679e-06
-8.36037e-08
6.97093e-09
-8.36237e-08
6.83857e-09
1.50415e-06
-7.94996e-08
-1.69624e-08
1.50726e-06
-7.956e-08
-1.7028e-08
1.51033e-06
-7.9613e-08
-1.7085e-08
1.51334e-06
-7.96641e-08
-1.71362e-08
1.51631e-06
-7.97336e-08
-1.71946e-08
-7.97883e-08
1.36291e-06
-6.93098e-08
-4.0151e-08
1.36541e-06
-6.9345e-08
-4.01259e-08
1.36781e-06
-6.93768e-08
-4.01154e-08
1.3701e-06
-6.9394e-08
-4.00991e-08
1.37226e-06
-6.94062e-08
-4.00571e-08
-6.94073e-08
-4.00491e-08
1.13105e-06
-5.21099e-08
-6.04216e-08
1.13167e-06
-5.207e-08
-6.03533e-08
1.13214e-06
-5.20286e-08
-6.02834e-08
1.13247e-06
-5.19793e-08
-6.02384e-08
1.13266e-06
-5.19231e-08
-6.01921e-08
-5.18584e-08
-6.01525e-08
7.98459e-07
-2.80654e-08
-7.75583e-08
7.96223e-07
-2.79956e-08
-7.752e-08
7.93902e-07
-2.7925e-08
-7.74643e-08
7.91509e-07
-2.78374e-08
-7.74314e-08
7.89048e-07
-2.77345e-08
-7.74284e-08
7.86538e-07
-2.76365e-08
-7.74293e-08
3.68706e-07
-8.89544e-08
3.65505e-07
-8.90249e-08
3.62396e-07
-8.91404e-08
3.59407e-07
-8.92738e-08
3.56535e-07
-8.93865e-08
-8.94768e-08
4.9091e-07
-1.41528e-08
1.09401e-07
4.87353e-07
-1.4255e-08
1.09361e-07
4.83863e-07
-1.43479e-08
1.09305e-07
4.80449e-07
-1.44474e-08
1.09248e-07
4.77115e-07
-1.4511e-08
1.09153e-07
4.73875e-07
-1.45636e-08
1.09029e-07
-1.46553e-08
9.99014e-07
-2.73958e-08
9.64111e-08
9.98214e-07
-2.74359e-08
9.64438e-08
9.97318e-07
-2.74767e-08
9.64777e-08
9.96332e-07
-2.75446e-08
9.65026e-08
9.95237e-07
-2.75576e-08
9.65504e-08
9.94035e-07
-2.75797e-08
9.66146e-08
1.36254e-06
-4.01621e-08
7.95175e-08
1.36507e-06
-4.01424e-08
7.95753e-08
1.36752e-06
-4.01251e-08
7.96314e-08
1.36986e-06
-4.01193e-08
7.96741e-08
1.37209e-06
-4.00784e-08
7.97358e-08
-4.00803e-08
1.60742e-06
-5.0398e-08
5.77921e-08
1.61151e-06
-5.03669e-08
5.78185e-08
1.61554e-06
-5.03302e-08
5.78439e-08
1.61949e-06
-5.02897e-08
5.78679e-08
1.62339e-06
-5.0241e-08
5.7895e-08
-5.02443e-08
1.75184e-06
-5.69618e-08
3.24e-08
1.75663e-06
-5.69348e-08
3.23837e-08
1.76139e-06
-5.69081e-08
3.23741e-08
1.76611e-06
-5.688e-08
3.23747e-08
1.7708e-06
-5.68507e-08
3.23758e-08
-5.68394e-08
1.79827e-06
-5.94152e-08
4.67978e-09
1.80333e-06
-5.94224e-08
4.6384e-09
1.80838e-06
-5.94314e-08
4.60655e-09
1.8134e-06
-5.94423e-08
4.58679e-09
1.81841e-06
-5.94363e-08
4.54984e-09
1.74906e-06
-5.77669e-08
-2.35634e-08
1.75399e-06
-5.77967e-08
-2.35888e-08
1.75891e-06
-5.78259e-08
-2.3602e-08
1.76379e-06
-5.78576e-08
-2.3604e-08
-5.78762e-08
-2.36404e-08
1.60758e-06
-5.16555e-08
-5.0394e-08
1.61165e-06
-5.16369e-08
-5.03574e-08
1.61566e-06
-5.16371e-08
-5.03153e-08
1.61958e-06
-5.16085e-08
-5.02679e-08
1.62345e-06
-5.15788e-08
-5.02274e-08
-5.15173e-08
1.37257e-06
-4.01988e-08
-7.39187e-08
1.3745e-06
-4.00689e-08
-7.38552e-08
1.37633e-06
-3.99761e-08
-7.37784e-08
1.37805e-06
-3.98458e-08
-7.37197e-08
1.37965e-06
-3.97091e-08
-7.36602e-08
-3.95864e-08
1.0258e-06
-2.28345e-08
-9.33357e-08
1.02416e-06
-2.26402e-08
-9.33132e-08
1.0224e-06
-2.23853e-08
-9.32861e-08
1.0205e-06
-2.21049e-08
-9.32779e-08
1.01852e-06
-2.1872e-08
-9.32851e-08
-2.16947e-08
5.25549e-07
-1.06973e-07
5.2089e-07
-1.07006e-07
5.16456e-07
-1.07092e-07
5.12267e-07
-1.07189e-07
5.08269e-07
-1.07261e-07
-1.07321e-07
6.07145e-07
-3.83849e-09
1.1791e-07
6.02597e-07
-4.02022e-09
1.17929e-07
5.98145e-07
-4.18335e-09
1.17941e-07
5.93777e-07
-4.32851e-09
1.17945e-07
5.8955e-07
-4.54295e-09
1.17923e-07
-4.83796e-09
1.17889e-07
1.14063e-06
-9.82205e-09
1.02917e-07
1.14008e-06
-9.95637e-09
1.02929e-07
1.13951e-06
-1.00825e-08
1.02947e-07
1.13893e-06
-1.02122e-08
1.02967e-07
1.13831e-06
-1.03634e-08
1.02985e-07
1.02998e-07
1.50387e-06
-1.69671e-08
8.35239e-08
1.507e-06
-1.70406e-08
8.35313e-08
1.5101e-06
-1.70967e-08
8.35465e-08
1.51315e-06
-1.7151e-08
8.35627e-08
-1.72359e-08
1.74892e-06
-2.35665e-08
5.94373e-08
1.75386e-06
-2.3598e-08
5.94372e-08
1.75878e-06
-2.36138e-08
5.94413e-08
1.76367e-06
-2.36261e-08
5.94502e-08
-2.368e-08
1.89462e-06
-2.85616e-08
3.15854e-08
1.9004e-06
-2.85688e-08
3.15773e-08
1.90615e-06
-2.85709e-08
3.15746e-08
1.91189e-06
-2.85723e-08
3.15819e-08
-2.85879e-08
1.94288e-06
-3.15665e-08
1.60656e-09
1.94892e-06
-3.15637e-08
1.59447e-09
1.95494e-06
-3.15641e-08
1.58592e-09
1.96093e-06
-3.15658e-08
1.58189e-09
-3.15509e-08
1.56384e-09
1.89464e-06
-3.23783e-08
-2.85582e-08
1.90041e-06
-3.23645e-08
-2.8562e-08
1.90617e-06
-3.23583e-08
-2.85621e-08
1.91192e-06
-3.23587e-08
-2.85589e-08
-3.23179e-08
-2.85694e-08
1.75181e-06
-3.06273e-08
-5.69618e-08
1.75659e-06
-3.05737e-08
-5.69309e-08
1.76134e-06
-3.0523e-08
-5.69006e-08
1.76606e-06
-3.04703e-08
-5.68696e-08
-3.03858e-08
-5.68509e-08
1.5136e-06
-2.54722e-08
-8.17254e-08
1.51619e-06
-2.53374e-08
-8.16801e-08
1.51872e-06
-2.51958e-08
-8.16372e-08
1.52117e-06
-2.50389e-08
-8.15967e-08
-2.48766e-08
-8.15608e-08
1.1603e-06
-1.55961e-08
-1.01853e-07
1.1589e-06
-1.53999e-08
-1.01845e-07
1.15745e-06
-1.51845e-08
-1.01843e-07
1.15594e-06
-1.4966e-08
-1.0185e-07
-1.47689e-08
-1.01858e-07
6.3107e-07
-1.16824e-07
6.2554e-07
-1.16876e-07
6.20211e-07
-1.16947e-07
6.15081e-07
-1.17026e-07
6.1014e-07
-1.17088e-07
6.59438e-07
6.47172e-09
1.16897e-07
6.54146e-07
6.25711e-09
1.16964e-07
6.48986e-07
6.06082e-09
1.1704e-07
6.43943e-07
5.87053e-09
1.17117e-07
6.39011e-07
5.67335e-09
1.17181e-07
5.48456e-09
1.19721e-06
8.49967e-09
1.01896e-07
1.19618e-06
8.33212e-09
1.01888e-07
1.19512e-06
8.17246e-09
1.01895e-07
1.19407e-06
7.98184e-09
1.01909e-07
1.19304e-06
1.01918e-07
1.55604e-06
7.30099e-09
8.17428e-08
1.559e-06
7.20648e-09
8.16933e-08
1.56194e-06
7.12327e-09
8.16544e-08
7.00705e-09
8.16162e-08
1.79816e-06
4.67311e-09
5.69818e-08
1.80323e-06
4.62934e-09
5.69448e-08
1.80829e-06
4.59678e-09
5.69089e-08
4.52503e-09
5.68721e-08
1.94284e-06
1.59593e-09
2.85798e-08
1.94889e-06
1.58138e-09
2.85743e-08
1.95492e-06
1.56908e-09
2.85646e-08
1.53578e-09
2.85488e-08
1.99127e-06
-1.59373e-09
-1.58169e-09
1.99761e-06
-1.58511e-09
-1.57478e-09
2.00392e-06
-1.58062e-09
-1.57325e-09
2.01019e-06
-1.58154e-09
-1.5747e-09
-1.56809e-09
-1.55601e-09
1.94285e-06
-4.66156e-09
-3.15634e-08
1.94889e-06
-4.62221e-09
-3.15599e-08
1.9549e-06
-4.59448e-09
-3.15611e-08
1.9609e-06
-4.57373e-09
-3.15645e-08
-4.50656e-09
-3.15503e-08
1.79818e-06
-7.27411e-09
-5.94164e-08
1.80323e-06
-7.18012e-09
-5.94222e-08
1.80826e-06
-7.09954e-09
-5.94308e-08
1.81329e-06
-7.02104e-09
-5.94437e-08
-6.9073e-09
-5.9439e-08
1.55611e-06
-8.44282e-09
-8.35155e-08
1.55906e-06
-8.27999e-09
-8.35279e-08
1.56199e-06
-8.12382e-09
-8.35424e-08
1.56488e-06
-7.93991e-09
-8.35673e-08
-7.7358e-09
-8.35955e-08
1.19747e-06
-6.41233e-09
-1.02893e-07
1.19644e-06
-6.19171e-09
-1.02908e-07
1.19538e-06
-5.99348e-09
-1.02916e-07
1.19432e-06
-5.80296e-09
-1.02929e-07
-5.6085e-09
-1.02946e-07
6.59767e-07
-1.1783e-07
6.54534e-07
-1.17836e-07
6.49444e-07
-1.1785e-07
6.44472e-07
-1.17858e-07
-1.17835e-07
6.36545e-07
1.5837e-08
1.06995e-07
6.30774e-07
1.56362e-08
1.07031e-07
6.25209e-07
1.5441e-08
1.07089e-07
6.19842e-07
1.52236e-08
1.07183e-07
6.14668e-07
1.50101e-08
1.07282e-07
1.48177e-08
1.07358e-07
1.1615e-06
2.56952e-08
9.34108e-08
1.16012e-06
2.55287e-08
9.33833e-08
1.15871e-06
2.53904e-08
9.33549e-08
1.15724e-06
2.52355e-08
9.33455e-08
1.15574e-06
2.50787e-08
9.33436e-08
2.49226e-08
9.33422e-08
1.51095e-06
3.0739e-08
7.40256e-08
1.5136e-06
3.06694e-08
7.39557e-08
1.5162e-06
3.06108e-08
7.38706e-08
1.51873e-06
3.05523e-08
7.38104e-08
1.52119e-06
3.04937e-08
7.37381e-08
3.04029e-08
7.36752e-08
1.747e-06
3.24185e-08
5.04607e-08
1.75183e-06
3.2396e-08
5.04296e-08
1.75662e-06
3.23816e-08
5.03821e-08
1.76137e-06
3.2374e-08
5.03343e-08
1.7661e-06
3.23624e-08
5.02734e-08
3.23031e-08
5.02547e-08
1.88879e-06
2.35582e-08
1.8946e-06
3.15732e-08
2.35928e-08
1.90037e-06
3.15703e-08
2.3611e-08
1.90613e-06
3.15693e-08
2.3616e-08
1.91187e-06
3.15653e-08
2.36071e-08
3.15429e-08
2.36383e-08
1.94284e-06
2.85648e-08
-4.64631e-09
1.94888e-06
2.8568e-08
-4.60976e-09
1.95489e-06
2.85672e-08
-4.5857e-09
1.96089e-06
2.85626e-08
-4.56929e-09
2.8573e-08
-4.50566e-09
1.89463e-06
2.35776e-08
-3.23729e-08
1.90039e-06
2.36007e-08
-3.23572e-08
1.90614e-06
2.36116e-08
-3.23511e-08
1.91188e-06
2.36116e-08
-3.23524e-08
2.36563e-08
-3.2307e-08
1.74901e-06
1.69895e-08
-5.77634e-08
1.75392e-06
1.70549e-08
-5.77919e-08
1.75881e-06
1.71128e-08
-5.78213e-08
1.76369e-06
1.71547e-08
-5.78594e-08
1.72228e-08
-5.78463e-08
1.50408e-06
9.86719e-09
-7.94982e-08
1.50718e-06
9.98203e-09
-7.9553e-08
1.51022e-06
1.01307e-08
-7.96042e-08
1.5132e-06
1.02759e-08
-7.96738e-08
1.04105e-08
-7.97217e-08
1.14097e-06
3.91096e-09
-9.63891e-08
1.14039e-06
4.09295e-09
-9.64373e-08
1.13978e-06
4.26816e-09
-9.64488e-08
1.13917e-06
4.42214e-09
-9.6459e-08
4.61944e-09
-9.65042e-08
6.07318e-07
-1.09334e-07
6.02863e-07
-1.09288e-07
5.98516e-07
-1.09234e-07
5.94255e-07
-1.09175e-07
-1.0909e-07
5.30126e-07
2.2975e-08
8.89709e-08
5.25299e-07
2.28459e-08
8.90128e-08
5.20629e-07
2.26658e-08
8.9092e-08
5.16204e-07
2.239e-08
8.92182e-08
5.12014e-07
2.21264e-08
8.93458e-08
2.19054e-08
8.9455e-08
1.02736e-06
4.03192e-08
7.76255e-08
1.02576e-06
4.02246e-08
7.76002e-08
1.0241e-06
4.01349e-08
7.75479e-08
1.02232e-06
4.00049e-08
7.75139e-08
1.02041e-06
3.9898e-08
7.74858e-08
3.97728e-08
7.74765e-08
1.37055e-06
5.16897e-08
6.04975e-08
1.37258e-06
5.16794e-08
6.04678e-08
1.37452e-06
5.16897e-08
6.0376e-08
1.37634e-06
5.16647e-08
6.03283e-08
1.37805e-06
5.16618e-08
6.02729e-08
5.16204e-08
6.02262e-08
1.60342e-06
5.77529e-08
4.01951e-08
1.60754e-06
5.77811e-08
4.02031e-08
1.61162e-06
5.78177e-08
4.01718e-08
1.61562e-06
5.78475e-08
4.01582e-08
1.61955e-06
5.78876e-08
4.01104e-08
5.78793e-08
4.00966e-08
1.74401e-06
1.68973e-08
1.74896e-06
5.9426e-08
1.69986e-08
1.75388e-06
5.94331e-08
1.70705e-08
1.75878e-06
5.94424e-08
1.71267e-08
1.76366e-06
5.9456e-08
1.71608e-08
5.94528e-08
1.72216e-08
1.79819e-06
5.69655e-08
-7.25639e-09
1.80324e-06
5.69366e-08
-7.16505e-09
1.80828e-06
5.6908e-08
-7.08685e-09
1.8133e-06
5.68784e-08
-7.01368e-09
5.68671e-08
-6.9051e-09
1.75185e-06
5.04071e-08
-3.0622e-08
1.75663e-06
5.03688e-08
-3.05635e-08
1.76137e-06
5.03255e-08
-3.05117e-08
1.76609e-06
5.02706e-08
-3.04625e-08
5.02652e-08
-3.038e-08
1.6076e-06
4.01782e-08
-5.16504e-08
1.61165e-06
4.01572e-08
-5.16303e-08
1.61563e-06
4.01475e-08
-5.16263e-08
1.61956e-06
4.0103e-08
-5.16161e-08
4.01058e-08
-5.15586e-08
1.36288e-06
2.74334e-08
-6.93029e-08
1.36537e-06
2.74519e-08
-6.93346e-08
1.36775e-06
2.75219e-08
-6.93567e-08
1.37e-06
2.75731e-08
-6.93944e-08
2.76146e-08
-6.93817e-08
9.99347e-07
1.42127e-08
-8.2402e-08
9.98507e-07
1.42924e-08
-8.24376e-08
9.97589e-07
1.43956e-08
-8.24055e-08
9.96596e-07
1.4491e-08
-8.23836e-08
1.45644e-08
-8.23511e-08
4.90932e-07
-9.15976e-08
4.87464e-07
-9.15278e-08
4.84073e-07
-9.14476e-08
4.80753e-07
-9.13644e-08
-9.12924e-08
3.71812e-07
2.81624e-08
6.41261e-08
3.68558e-07
2.8064e-08
6.42026e-08
3.65362e-07
2.80104e-08
6.42775e-08
3.62269e-07
2.79377e-08
6.43742e-08
3.59285e-07
2.78515e-08
6.44774e-08
2.7769e-08
6.45537e-08
8.00653e-07
5.2201e-08
5.56782e-08
7.98489e-07
5.21394e-08
5.56882e-08
7.96232e-07
5.21282e-08
5.56876e-08
7.93909e-07
5.20756e-08
5.56992e-08
7.91515e-07
5.2027e-08
5.57037e-08
5.19811e-08
5.57267e-08
1.13022e-06
6.93281e-08
4.24971e-08
1.13098e-06
6.93341e-08
4.25184e-08
1.1316e-06
6.93942e-08
4.24907e-08
1.13208e-06
6.94177e-08
4.25086e-08
1.13242e-06
6.94464e-08
4.25112e-08
6.94608e-08
4.25383e-08
1.36015e-06
7.94704e-08
2.73708e-08
1.36274e-06
7.95116e-08
2.74424e-08
1.36525e-06
7.95809e-08
2.74697e-08
1.36766e-06
7.9635e-08
2.75355e-08
1.36995e-06
7.97078e-08
2.75522e-08
7.97697e-08
2.75837e-08
1.50083e-06
9.6828e-09
1.50397e-06
8.35216e-08
9.85663e-09
1.50708e-06
8.35326e-08
1.00026e-08
1.51015e-06
8.35514e-08
1.01391e-08
1.51318e-06
8.35805e-08
1.02636e-08
8.36122e-08
1.0401e-08
1.55611e-06
8.17288e-08
-8.43904e-09
1.55907e-06
8.16853e-08
-8.27754e-09
1.56201e-06
8.1644e-08
-8.11856e-09
1.56491e-06
8.1606e-08
-7.94333e-09
8.15752e-08
-7.74411e-09
1.51366e-06
7.39337e-08
-2.54786e-08
1.51625e-06
7.38694e-08
-2.53338e-08
1.51877e-06
7.37939e-08
-2.51879e-08
1.52122e-06
7.37232e-08
-2.50289e-08
7.36735e-08
-2.48671e-08
1.37264e-06
6.04518e-08
-4.02014e-08
1.37456e-06
6.03827e-08
-4.00676e-08
1.37637e-06
6.03227e-08
-3.99655e-08
1.37806e-06
6.02602e-08
-3.98407e-08
6.02321e-08
-3.96961e-08
1.13107e-06
4.25189e-08
-5.21e-08
1.1317e-06
4.2496e-08
-5.20717e-08
1.13217e-06
4.25135e-08
-5.20207e-08
1.1325e-06
4.25111e-08
-5.1972e-08
4.25662e-08
-5.19103e-08
7.74755e-07
2.25651e-08
-6.04609e-08
7.72675e-07
2.2601e-08
-6.04625e-08
7.70529e-07
2.26746e-08
-6.04199e-08
7.6832e-07
2.27319e-08
-6.03954e-08
2.2798e-08
-6.03395e-08
3.36125e-07
-6.62752e-08
3.33428e-07
-6.623e-08
3.30828e-07
-6.61725e-08
3.28315e-07
-6.61198e-08
-6.60741e-08
1.89824e-07
3.1861e-08
3.40921e-08
1.88069e-07
3.18456e-08
3.41113e-08
1.86365e-07
3.1846e-08
3.41357e-08
1.84727e-07
3.18445e-08
3.41682e-08
1.83151e-07
3.18497e-08
3.42034e-08
3.18425e-08
3.42354e-08
4.84463e-07
6.05152e-08
2.99629e-08
4.81529e-07
6.04979e-08
2.99704e-08
4.78611e-07
6.04888e-08
2.9963e-08
4.75736e-07
6.04539e-08
2.99644e-08
4.72897e-07
6.0436e-08
2.99562e-08
6.03893e-08
2.99587e-08
7.76735e-07
8.2416e-08
2.24902e-08
7.74754e-07
8.24291e-08
2.25685e-08
7.72668e-07
8.24523e-08
2.26136e-08
7.7051e-07
8.24388e-08
2.26815e-08
7.68276e-07
8.24453e-08
8.24312e-08
9.99902e-07
9.63849e-08
1.4073e-08
9.99174e-07
9.64047e-08
1.4195e-08
9.98367e-07
9.64436e-08
1.42855e-08
9.9748e-07
9.64707e-08
1.439e-08
9.96496e-07
9.65143e-08
1.44678e-08
9.65713e-08
1.14128e-06
3.64576e-09
1.14076e-06
1.02907e-07
3.8666e-09
1.14023e-06
1.02917e-07
4.06163e-09
1.13967e-06
1.02937e-07
4.23417e-09
1.1391e-06
1.02965e-07
4.38315e-09
1.02987e-07
1.19736e-06
1.01877e-07
-6.43863e-09
1.19636e-06
1.01869e-07
-6.22342e-09
1.19533e-06
1.01869e-07
-6.02115e-09
1.1943e-06
1.01881e-07
-5.82901e-09
1.01894e-07
-5.63614e-09
1.16028e-06
9.33598e-08
-1.56107e-08
1.15889e-06
9.33404e-08
-1.54114e-08
1.15745e-06
9.3318e-08
-1.51941e-08
1.15595e-06
9.3316e-08
-1.49728e-08
9.33172e-08
-1.47705e-08
1.02581e-06
7.75884e-08
-2.28404e-08
1.02418e-06
7.7541e-08
-2.26389e-08
1.02242e-06
7.74916e-08
-2.23791e-08
1.02053e-06
7.74687e-08
-2.21057e-08
7.7461e-08
-2.18687e-08
7.98491e-07
5.57096e-08
-2.80637e-08
7.96259e-07
5.57034e-08
-2.8002e-08
7.93955e-07
5.57042e-08
-2.79298e-08
7.91594e-07
5.56996e-08
-2.78421e-08
5.57183e-08
-2.77457e-08
4.81492e-07
2.99837e-08
-3.18286e-08
4.78604e-07
2.99653e-08
-3.1836e-08
4.75753e-07
2.99674e-08
-3.18321e-08
4.72932e-07
2.99596e-08
-3.1834e-08
2.99606e-08
-3.18229e-08
1.76281e-07
-3.46995e-08
1.74725e-07
-3.47089e-08
1.73235e-07
-3.4715e-08
1.71798e-07
-3.47238e-08
-3.47317e-08
5.83499e-08
3.47054e-08
5.77595e-08
3.47017e-08
5.71859e-08
3.47093e-08
5.66345e-08
3.47196e-08
5.61037e-08
3.47342e-08
3.47461e-08
1.77837e-07
6.63366e-08
1.76248e-07
6.62608e-08
1.74709e-07
6.62112e-08
1.73229e-07
6.61646e-08
1.71794e-07
3.38966e-07
9.1683e-08
3.36185e-07
9.16111e-08
3.33471e-07
9.15384e-08
9.14668e-08
4.94596e-07
1.09408e-07
4.91024e-07
1.09378e-07
4.8752e-07
1.09328e-07
4.84096e-07
1.09281e-07
1.09228e-07
6.11989e-07
6.07355e-07
1.17879e-07
6.02851e-07
1.17894e-07
5.98456e-07
1.1791e-07
1.1792e-07
6.59617e-07
1.16876e-07
6.54358e-07
1.16929e-07
6.49243e-07
1.17004e-07
6.44252e-07
1.17081e-07
1.17145e-07
6.30874e-07
1.07011e-07
6.25341e-07
1.0705e-07
6.20011e-07
1.0714e-07
6.14882e-07
1.07237e-07
1.07311e-07
5.25401e-07
8.89751e-08
5.20757e-07
8.9055e-08
5.16345e-07
8.91729e-08
5.12177e-07
8.92994e-08
8.94143e-08
3.68642e-07
6.41717e-08
3.65452e-07
6.42424e-08
3.62358e-07
6.43373e-08
3.59377e-07
6.44381e-08
6.45218e-08
1.88139e-07
3.41109e-08
1.86416e-07
3.41294e-08
1.84763e-07
3.41582e-08
1.83177e-07
3.41903e-08
3.42222e-08
5.77817e-08
5.72021e-08
5.66454e-08
5.61119e-08
)
;

boundaryField
{
    inlet
    {
        type            calculated;
        value           nonuniform List<scalar> 0();
    }
    ami1
    {
        type            cyclicAMI;
        value           nonuniform List<scalar> 0();
    }
    walls
    {
        type            calculated;
        value           nonuniform List<scalar> 
250
(
2.90979e-14
2.43942e-14
1.84387e-14
1.28555e-14
6.40674e-15
1.34856e-21
-6.40674e-15
-1.28555e-14
-1.84387e-14
-2.43942e-14
-2.90979e-14
2.90979e-14
2.43942e-14
1.84387e-14
1.28555e-14
6.40674e-15
1.0774e-21
-6.40674e-15
-1.28555e-14
-1.84387e-14
-2.43942e-14
-2.90979e-14
2.90979e-14
2.43942e-14
1.84387e-14
1.28555e-14
6.40674e-15
1.34856e-21
-6.40674e-15
-1.28555e-14
-1.84387e-14
-2.43942e-14
-2.90979e-14
2.90979e-14
2.43942e-14
1.84387e-14
1.28555e-14
6.40674e-15
1.34856e-21
-6.40674e-15
-1.28555e-14
-1.84387e-14
-2.43942e-14
-2.90979e-14
2.90979e-14
2.43942e-14
1.84387e-14
1.28555e-14
6.40674e-15
1.34856e-21
-6.40674e-15
-1.28555e-14
-1.84387e-14
-2.43942e-14
-2.90979e-14
1.28555e-14
6.40674e-15
1.3483e-21
-6.40674e-15
-1.28555e-14
-1.84387e-14
-2.43942e-14
-2.90979e-14
1.34856e-21
-6.40674e-15
-1.28555e-14
-1.84387e-14
2.90979e-14
2.43942e-14
1.84387e-14
1.28555e-14
6.40674e-15
1.34856e-21
-6.40674e-15
-1.28555e-14
-1.84387e-14
-2.43942e-14
-2.90979e-14
2.90979e-14
2.43942e-14
1.84387e-14
1.28555e-14
6.40674e-15
1.0774e-21
-6.40674e-15
-1.28555e-14
-1.84387e-14
-2.43942e-14
-2.90979e-14
2.90979e-14
2.43942e-14
1.84387e-14
1.28555e-14
6.40674e-15
1.34856e-21
-6.40674e-15
-1.28555e-14
-1.84387e-14
-2.43942e-14
-2.90979e-14
2.90979e-14
2.43942e-14
1.84387e-14
1.28555e-14
6.40674e-15
1.34856e-21
-6.40674e-15
-1.28555e-14
-1.84387e-14
-2.43942e-14
-2.90979e-14
2.90979e-14
2.43942e-14
1.84387e-14
1.28555e-14
6.40674e-15
1.34856e-21
-6.40674e-15
-1.28555e-14
-1.84387e-14
-2.43942e-14
-2.90979e-14
2.90979e-14
2.43942e-14
1.84387e-14
1.28555e-14
6.40674e-15
-2.90979e-14
-2.43942e-14
-1.84387e-14
-1.28555e-14
-6.40674e-15
-2.90979e-14
-2.43942e-14
-1.84387e-14
-1.28555e-14
-6.40674e-15
8.11493e-22
6.40674e-15
1.28555e-14
1.84387e-14
2.43942e-14
2.90979e-14
-2.90979e-14
-2.43942e-14
-1.84387e-14
-1.28555e-14
-6.40674e-15
8.21752e-22
6.40674e-15
1.28555e-14
1.84387e-14
2.43942e-14
2.90979e-14
-2.90979e-14
-2.43942e-14
-1.84387e-14
-1.28555e-14
-6.40674e-15
8.11316e-22
6.40674e-15
1.28555e-14
1.84387e-14
2.43942e-14
2.90979e-14
-2.90979e-14
-2.43942e-14
-1.28555e-14
-6.40674e-15
8.11316e-22
6.40674e-15
1.28555e-14
1.84387e-14
2.43942e-14
2.90979e-14
-2.90979e-14
-2.43942e-14
8.11316e-22
6.40674e-15
1.28555e-14
1.84387e-14
2.43942e-14
2.90979e-14
6.40674e-15
1.28555e-14
1.84387e-14
2.43942e-14
2.90979e-14
-2.90979e-14
-2.43942e-14
-1.84387e-14
-1.28555e-14
-6.40674e-15
8.11493e-22
6.40674e-15
1.28555e-14
1.84387e-14
2.43942e-14
2.90979e-14
-2.90979e-14
-2.43942e-14
-1.84387e-14
-1.28555e-14
-6.40674e-15
8.21752e-22
6.40674e-15
1.28555e-14
1.84387e-14
2.43942e-14
2.90979e-14
-2.90979e-14
-2.43942e-14
-1.84387e-14
-1.28555e-14
-6.40674e-15
8.11316e-22
6.40674e-15
1.28555e-14
1.84387e-14
2.43942e-14
2.90979e-14
-2.90979e-14
-2.43942e-14
-1.84387e-14
-1.28555e-14
-6.40674e-15
8.11316e-22
6.40674e-15
1.28555e-14
1.84387e-14
2.43942e-14
2.90979e-14
-2.90979e-14
-2.43942e-14
-1.84387e-14
-1.28555e-14
-6.40674e-15
8.11316e-22
6.40674e-15
1.28555e-14
1.84387e-14
2.43942e-14
2.90979e-14
-2.43942e-14
-1.84387e-14
-1.28555e-14
-6.40674e-15
8.11316e-22
-1.84387e-14
-1.28555e-14
)
;
    }
    ami2
    {
        type            cyclicAMI;
        value           nonuniform List<scalar> 0();
    }
    outlet
    {
        type            calculated;
        value           nonuniform List<scalar> 0();
    }
    procBoundary5to6
    {
        type            processor;
        value           nonuniform List<scalar> 
177
(
5.55763e-08
-3.47395e-08
1.81603e-07
3.56392e-07
8.94717e-08
-2.76878e-08
5.04085e-07
6.04853e-07
1.17167e-07
6.29703e-07
5.23635e-09
5.81919e-07
-5.14193e-09
4.70885e-07
3.21132e-07
-6.59671e-08
1.69023e-07
2.99772e-08
5.50998e-08
1.68979e-07
-2.99475e-08
-6.59711e-08
4.70009e-07
5.57093e-08
-6.0338e-08
7.86388e-07
1.01627e-06
1.1527e-06
1.19211e-06
1.13762e-06
9.66167e-08
9.92812e-07
-2.7678e-08
7.61143e-07
-4.26405e-08
4.64659e-07
-3.17823e-08
1.80194e-07
3.21031e-07
-2.29064e-08
7.63447e-07
-8.23537e-08
1.13257e-06
1.38107e-06
1.52598e-06
1.57075e-06
1.51925e-06
-1.72946e-08
1.37435e-06
1.13273e-06
5.17217e-08
7.84006e-07
-2.75165e-08
-7.74716e-08
3.53764e-07
4.70742e-07
1.08925e-07
9.92744e-07
-2.76758e-08
9.66654e-08
1.37425e-06
7.97949e-08
1.62725e-06
5.78841e-08
1.77544e-06
3.23208e-08
1.82337e-06
-5.9417e-08
4.45697e-09
1.76867e-06
5.78479e-08
1.62731e-06
-5.02322e-08
1.38118e-06
-7.36083e-08
1.01647e-06
-9.32744e-08
5.04419e-07
5.85527e-07
1.13763e-06
-1.05364e-08
1.51617e-06
8.35877e-08
1.76856e-06
5.94535e-08
1.9176e-06
3.15783e-08
1.96688e-06
1.91761e-06
1.77075e-06
1.52356e-06
1.15441e-06
1.45801e-08
6.05362e-07
-1.17123e-07
6.34209e-07
1.17207e-07
7.76997e-09
1.19201e-06
7.58898e-09
1.01922e-07
1.56487e-06
-8.15741e-08
1.81335e-06
-5.68521e-08
1.96095e-06
-1.49288e-09
-2.85537e-08
2.01637e-06
1.96682e-06
1.81827e-06
1.56774e-06
1.19328e-06
6.39611e-07
6.09674e-07
1.15421e-06
1.52361e-06
1.7708e-06
1.91754e-06
1.96681e-06
1.91755e-06
1.76853e-06
1.51614e-06
1.13852e-06
5.90129e-07
5.08011e-07
1.0184e-06
1.37965e-06
1.62345e-06
1.7685e-06
1.81828e-06
1.77076e-06
1.62343e-06
1.37215e-06
9.95493e-07
4.77521e-07
3.56418e-07
7.89053e-07
1.13263e-06
1.37216e-06
1.51616e-06
1.56779e-06
1.52361e-06
1.37964e-06
1.13269e-06
7.66076e-07
3.25895e-07
1.81627e-07
4.70118e-07
2.2736e-08
7.65988e-07
2.27845e-08
9.95408e-07
1.45317e-08
1.1385e-06
4.58709e-09
1.19328e-06
1.15443e-06
1.01856e-06
7.89173e-07
4.70173e-07
1.70417e-07
5.5593e-08
6.61253e-08
1.70403e-07
6.60963e-08
3.3085e-07
-9.14007e-08
4.80736e-07
5.94148e-07
-1.17908e-07
6.39379e-07
6.09945e-07
5.08206e-07
3.56524e-07
1.81653e-07
5.56024e-08
)
;
    }
    procBoundary5to7
    {
        type            processor;
        value           nonuniform List<scalar> 
131
(
-5.83796e-08
-1.89969e-07
-3.71973e-07
-5.3025e-07
-6.36556e-07
-6.64888e-07
-6.11661e-07
-4.94256e-07
-3.38726e-07
-1.778e-07
-5.83568e-08
-1.77906e-07
-4.84488e-07
-8.00492e-07
-1.02719e-06
-1.16153e-06
-1.19838e-06
-1.14147e-06
-1.00007e-06
-7.76677e-07
-4.84341e-07
-1.89905e-07
-3.38928e-07
-7.76633e-07
-1.12999e-06
-1.37033e-06
-1.51093e-06
-1.55321e-06
-1.50102e-06
-1.36035e-06
-1.13032e-06
-8.00623e-07
-3.71973e-07
-4.94522e-07
-9.99752e-07
-1.35995e-06
-1.60328e-06
-1.74701e-06
-1.79319e-06
-1.74411e-06
-1.60345e-06
-1.37053e-06
-1.02739e-06
-5.30365e-07
-6.11816e-07
-1.14115e-06
-1.50073e-06
-1.74396e-06
-1.88881e-06
-1.93681e-06
-1.88883e-06
-1.74699e-06
-1.51095e-06
-1.16166e-06
-6.36815e-07
-6.64897e-07
-1.1686e-07
-1.19822e-06
-1.01904e-07
-1.55306e-06
-8.17917e-08
-1.79308e-06
-5.70164e-08
-1.93675e-06
-2.85795e-08
-1.98489e-06
-1.93678e-06
-1.79311e-06
-1.55315e-06
-1.19846e-06
-6.65173e-07
-6.42517e-07
-1.16287e-06
-1.50823e-06
-1.74212e-06
-1.88293e-06
3.15802e-08
-1.93677e-06
-1.88883e-06
-1.74407e-06
-1.50097e-06
-1.14152e-06
-6.11902e-07
-5.35077e-07
-1.02892e-06
-1.36839e-06
-1.59921e-06
-1.73902e-06
5.94251e-08
-1.79312e-06
-1.74705e-06
-1.60349e-06
-1.36033e-06
-1.00011e-06
-4.94456e-07
-3.75129e-07
-8.02744e-07
-1.12935e-06
-1.35747e-06
-1.49768e-06
8.35282e-08
-1.55313e-06
-1.51101e-06
-1.3706e-06
-1.13034e-06
-7.76743e-07
-3.38882e-07
-1.91651e-07
-4.87402e-07
-7.78629e-07
-1.00057e-06
-1.14177e-06
1.02914e-07
-1.19833e-06
-1.16163e-06
-1.0274e-06
-8.00648e-07
-4.84399e-07
-1.77873e-07
-5.89632e-08