/*--------------------------------*- C++ -*----------------------------------*\
| =========                 |                                                 |
| \\      /  F ield         | OpenFOAM: The Open Source CFD Toolbox           |
|  \\    /   O peration     | Version:  2212                                  |
|   \\  /    A nd           | Website:  www.openfoam.com                      |
|    \\/     M anipulation  |                                                 |
\*---------------------------------------------------------------------------*/
FoamFile
{
    version     2.0;
    format      ascii;
    arch        "LSB;label=32;scalar=64";
    class       volVectorField;
    location    "3";
    object      U;
}
// * * * * * * * * * * * * * * * * * * * * * * * * * * * * * * * * * * * * * //

dimensions      [0 1 -1 0 0 0 0];

internalField   nonuniform List<vector> 
678
(
(0.022985 -4.35161e-05 1.16283e-05)
(0.0227529 -4.22898e-05 1.03817e-05)
(0.0225247 -3.975e-05 8.85584e-06)
(0.0223061 -3.7157e-05 7.09476e-06)
(0.0220983 -3.4843e-05 5.50825e-06)
(0.0388067 -0.000159224 -0.000119519)
(0.0384474 -0.000151615 -0.000115453)
(0.0380963 -0.000141567 -0.000111955)
(0.0377594 -0.000131056 -0.000107978)
(0.0374387 -0.00012156 -0.000104107)
(0.0538268 -0.000183398 -0.000391179)
(0.0533583 -0.00017618 -0.000374074)
(0.05289 -0.000165987 -0.000351598)
(0.0524471 -0.000153795 -0.000325154)
(0.0520119 -0.000142167 -0.000300391)
(0.0627045 -0.000209629 -0.000759704)
(0.062134 -0.000199293 -0.000716763)
(0.0615833 -0.000176489 -0.000649182)
(0.0610752 -0.00015276 -0.000582669)
(0.0605807 -0.000137072 -0.000534002)
(0.0601142 -0.000125818 -0.000497752)
(0.0675265 -0.000176481 -0.000943637)
(0.0669218 -0.000170766 -0.000907563)
(0.0663335 -0.000162257 -0.000867499)
(0.0657799 -0.000151773 -0.000827384)
(0.0652352 -0.000141623 -0.00079147)
(0.0647153 -0.000132073 -0.000759023)
(0.0681716 -0.000134173 -0.000912615)
(0.0676201 -0.000122625 -0.000872824)
(0.0670865 -0.000107898 -0.00083707)
(0.0665661 -9.17284e-05 -0.000806707)
(0.0660529 -7.76543e-05 -0.000777227)
(0.065552 -6.64677e-05 -0.000744043)
(0.0650684 -5.92538e-05 -0.00070675)
(0.0649328 -2.34059e-05 -0.000734218)
(0.0644523 -1.73973e-05 -0.000696653)
(0.0639797 -1.34395e-05 -0.00066557)
(0.0635155 -1.13928e-05 -0.000638854)
(0.063059 -1.28463e-05 -0.000590315)
(0.0626266 -1.56514e-05 -0.000517738)
(0.0622147 -1.66949e-05 -0.000453087)
(0.0584986 3.16341e-05 -0.00038235)
(0.0580898 2.84536e-05 -0.000363286)
(0.0576763 2.29724e-05 -0.000346303)
(0.057276 1.67943e-05 -0.000330547)
(0.056876 9.61171e-06 -0.000315043)
(0.0564985 4.82616e-07 -0.000298861)
(0.0561229 -6.91409e-06 -0.000282184)
(0.0490274 5.8009e-05 -0.000251775)
(0.0486379 5.11284e-05 -0.00023978)
(0.0482475 4.2206e-05 -0.000226185)
(0.0478781 3.28613e-05 -0.000212851)
(0.047513 2.45814e-05 -0.000201031)
(0.0471699 1.60561e-05 -0.000190501)
(0.0468424 7.79507e-06 -0.000179342)
(0.0363284 -2.53152e-05 -6.68516e-05)
(0.0360087 -2.56558e-05 -6.60443e-05)
(0.0356952 -2.63144e-05 -6.4595e-05)
(0.0353963 -2.68894e-05 -6.29772e-05)
(0.0351084 -2.6095e-05 -6.20551e-05)
(0.034831 -2.44568e-05 -6.23494e-05)
(0.0229776 -1.16492e-05 -4.35966e-05)
(0.0227477 -1.0383e-05 -4.22036e-05)
(0.0225217 -8.93657e-06 -3.96531e-05)
(0.0223066 -7.33118e-06 -3.69747e-05)
(0.0221012 -5.67219e-06 -3.45803e-05)
(0.0219033 -3.93679e-06 -3.28515e-05)
(0.0363472 -6.67119e-05 2.41824e-05)
(0.0360238 -6.57197e-05 2.54692e-05)
(0.0357071 -6.46313e-05 2.59955e-05)
(0.0354024 -6.3348e-05 2.63049e-05)
(0.035111 -6.36203e-05 2.48777e-05)
(0.0348236 -6.3561e-05 2.40012e-05)
(0.0686137 -0.000237993 -0.000151638)
(0.0682033 -0.000244568 -0.000153004)
(0.0677823 -0.000246708 -0.000152959)
(0.0673787 -0.000249569 -0.000154625)
(0.0669657 -0.000245708 -0.000153106)
(0.0898523 -0.000336729 -0.000585995)
(0.0896045 -0.0003408 -0.000575004)
(0.0893446 -0.000346136 -0.000565668)
(0.089084 -0.000351193 -0.000556375)
(0.0888051 -0.000352301 -0.000544716)
(0.0885315 -0.000353759 -0.000535591)
(0.0994411 -0.000300824 -0.000941616)
(0.099285 -0.000304238 -0.000913712)
(0.0991224 -0.000312688 -0.000895452)
(0.0989446 -0.000316742 -0.000872557)
(0.0987543 -0.000316788 -0.000846516)
(0.0985618 -0.000319088 -0.000826105)
(0.103491 -0.000329372 -0.00114539)
(0.103367 -0.000328819 -0.00111473)
(0.103243 -0.000329323 -0.00109016)
(0.103108 -0.000328287 -0.00106467)
(0.102973 -0.000324955 -0.00103664)
(0.102835 -0.000323147 -0.00101113)
(0.103965 -0.000317876 -0.00115205)
(0.103876 -0.000313474 -0.00112534)
(0.103785 -0.000307567 -0.00109949)
(0.103692 -0.000300002 -0.00106939)
(0.103599 -0.000291756 -0.00103663)
(0.10351 -0.000284348 -0.00100415)
(0.101741 -0.000184023 -0.000972446)
(0.101687 -0.000175002 -0.000954341)
(0.101634 -0.000166059 -0.00092812)
(0.101579 -0.000156818 -0.000904086)
(0.10152 -0.000147052 -0.00088404)
(0.101457 -0.000136795 -0.000863562)
(0.0968547 3.90808e-05 -0.00075103)
(0.0967759 4.87023e-05 -0.000748409)
(0.0966874 5.35726e-05 -0.00073261)
(0.0965937 5.79696e-05 -0.000715892)
(0.0964889 6.55476e-05 -0.000710548)
(0.0963775 7.43997e-05 -0.000708891)
(0.096252 8.02366e-05 -0.000695865)
(0.0871826 0.000248455 -0.00056243)
(0.0869563 0.000250262 -0.000567267)
(0.0867116 0.000245891 -0.000561739)
(0.0864673 0.000239876 -0.000552862)
(0.0862063 0.000234934 -0.00054576)
(0.0859504 0.000233177 -0.000545936)
(0.0856821 0.00022336 -0.000530351)
(0.0685952 0.000148228 -0.000237997)
(0.0681894 0.000149417 -0.00024285)
(0.0677737 0.000149339 -0.000244387)
(0.067375 0.000149725 -0.000245176)
(0.0669693 0.00015065 -0.000244591)
(0.0665806 0.000154012 -0.000246001)
(0.0661989 0.000150086 -0.000236137)
(0.0387965 0.000117355 -0.000157455)
(0.0384415 0.000113438 -0.000149863)
(0.0380936 0.000109942 -0.000140234)
(0.0377616 0.000105952 -0.000129969)
(0.0374425 0.000101224 -0.000119546)
(0.0371374 9.68966e-05 -0.000109655)
(0.0490527 -0.000255617 -6.21351e-05)
(0.0486575 -0.000242369 -5.31941e-05)
(0.0482614 -0.000228655 -4.41828e-05)
(0.0478867 -0.000215215 -3.51425e-05)
(0.047513 -0.000204619 -2.76074e-05)
(0.0471688 -0.000195641 -1.96286e-05)
(0.0468259 -0.000182598 -9.42622e-06)
(0.0871806 -0.000561739 -0.000253308)
(0.0869512 -0.000568288 -0.000256005)
(0.0867064 -0.000564352 -0.000252464)
(0.0864617 -0.000555503 -0.000246285)
(0.0861987 -0.000551857 -0.00024242)
(0.0859432 -0.000546951 -0.000237605)
(0.106354 -0.000672112 -0.000647247)
(0.106416 -0.000679657 -0.000647265)
(0.106472 -0.000687203 -0.000646062)
(0.106509 -0.000690471 -0.000641103)
(0.106537 -0.000693807 -0.000635633)
(0.106553 -0.00069552 -0.000629102)
(0.114684 -0.000521184 -0.000959653)
(0.114851 -0.000530237 -0.000948108)
(0.115012 -0.000541647 -0.000938391)
(0.115159 -0.000548532 -0.000923232)
(0.115304 -0.000559756 -0.000913891)
(0.115433 -0.000568044 -0.000902548)
(0.118209 -0.000414563 -0.00112791)
(0.118415 -0.000422079 -0.00111444)
(0.118617 -0.000429918 -0.00110065)
(0.118812 -0.00043682 -0.00108545)
(0.119005 -0.000444328 -0.00107272)
(0.119189 -0.000449711 -0.0010544)
(0.118878 -0.000272157 -0.0011561)
(0.119105 -0.000271513 -0.00113787)
(0.119331 -0.00027083 -0.00112216)
(0.119554 -0.00026968 -0.00110601)
(0.119778 -0.000267682 -0.00109123)
(0.119996 -0.000264939 -0.00106977)
(0.117453 -3.16653e-05 -0.00103589)
(0.117695 -2.28123e-05 -0.00102282)
(0.117938 -1.36385e-05 -0.00101193)
(0.118175 -4.03274e-06 -0.00100037)
(0.118412 6.66933e-06 -0.000990807)
(0.118638 1.68456e-05 -0.000973374)
(0.113874 0.00031802 -0.000854309)
(0.114081 0.000327946 -0.000854189)
(0.114288 0.000336249 -0.000851459)
(0.114482 0.000344203 -0.000849354)
(0.114674 0.000353172 -0.000854022)
(0.114847 0.000359379 -0.00085493)
(0.106383 0.000640318 -0.000671364)
(0.106443 0.000638798 -0.000677422)
(0.106496 0.000636898 -0.000683779)
(0.106532 0.000632412 -0.000687613)
(0.106557 0.000626938 -0.000690807)
(0.10657 0.000620812 -0.000694305)
(0.089867 0.000577937 -0.000333901)
(0.0896206 0.000566952 -0.000337833)
(0.0893612 0.000557963 -0.000343528)
(0.0891005 0.000548985 -0.000348829)
(0.0888231 0.00053778 -0.000350635)
(0.088546 0.000526567 -0.000350271)
(0.0882635 0.000510249 -0.000342816)
(0.0538292 0.00038585 -0.000181937)
(0.0533647 0.000369079 -0.000175385)
(0.0529007 0.000347046 -0.000165841)
(0.0524616 0.000320904 -0.000153782)
(0.0520304 0.000295211 -0.000140837)
(0.0516241 0.000272831 -0.000128753)
(0.0585313 -0.000389851 -3.93584e-05)
(0.0581089 -0.000370327 -3.5139e-05)
(0.0576885 -0.00035299 -2.92872e-05)
(0.0572825 -0.000336712 -2.30938e-05)
(0.0568744 -0.000320667 -1.51372e-05)
(0.0564915 -0.000305192 -5.49284e-06)
(0.0561077 -0.000288422 2.63121e-06)
(0.0968253 -0.000752152 -4.38759e-05)
(0.0967503 -0.000741767 -5.19247e-05)
(0.0966688 -0.000731786 -5.87389e-05)
(0.0965771 -0.000717027 -6.36428e-05)
(0.0964767 -0.000712368 -7.1043e-05)
(0.0963661 -0.000710379 -7.99114e-05)
(0.0962453 -0.00069813 -8.723e-05)
(0.113841 -0.000853496 -0.000321583)
(0.114052 -0.000853304 -0.000332293)
(0.114261 -0.000851974 -0.000341362)
(0.114459 -0.000847537 -0.000348163)
(0.114657 -0.000851607 -0.00035676)
(0.114835 -0.000851247 -0.000363267)
(0.121489 -0.000637898 -0.000576948)
(0.1218 -0.00064215 -0.000579643)
(0.122107 -0.000647534 -0.000582079)
(0.122409 -0.000653516 -0.000584206)
(0.122709 -0.000660177 -0.000586486)
(0.122998 -0.000657395 -0.000582459)
(0.124922 -0.000421128 -0.000740845)
(0.125265 -0.000425486 -0.00073593)
(0.125606 -0.000430291 -0.000732036)
(0.125945 -0.000435649 -0.000729649)
(0.126282 -0.000441225 -0.000727342)
(0.126612 -0.000441291 -0.000716358)
(0.125805 -0.000148953 -0.000790354)
(0.126161 -0.000149611 -0.000782368)
(0.126515 -0.000150206 -0.000775502)
(0.126868 -0.000150994 -0.000770813)
(0.12722 -0.000151876 -0.000763705)
(0.127567 -0.000151989 -0.00074653)
(0.124718 0.000178998 -0.000744108)
(0.125071 0.000183421 -0.000739388)
(0.125423 0.000187974 -0.00073622)
(0.125773 0.000192581 -0.000735019)
(0.126121 0.000194917 -0.000727112)
(0.121502 0.000572746 -0.000638642)
(0.121811 0.000575297 -0.000643887)
(0.122118 0.000577948 -0.000649782)
(0.122417 0.000580456 -0.000656566)
(0.122715 0.000580995 -0.000662789)
(0.123002 0.000574815 -0.000660371)
(0.1147 0.000951754 -0.000520968)
(0.114866 0.000940295 -0.000530327)
(0.115026 0.000931247 -0.000542464)
(0.115171 0.000916525 -0.000550091)
(0.115314 0.000904735 -0.000559477)
(0.115442 0.000890364 -0.000566335)
(0.0994603 0.000934002 -0.000300734)
(0.0993039 0.000907025 -0.000304827)
(0.0991418 0.000888562 -0.000313515)
(0.0989633 0.000864783 -0.000317713)
(0.0987737 0.000836845 -0.000317309)
(0.0985814 0.000815123 -0.000319727)
(0.0627207 0.000752666 -0.000208923)
(0.0621549 0.00071033 -0.000199361)
(0.0616096 0.000643874 -0.000177282)
(0.0611044 0.000577341 -0.000153153)
(0.060615 0.00052812 -0.000137487)
(0.0601511 0.000491095 -0.000127054)
(0.0649495 -0.00074389 1.36054e-05)
(0.0644598 -0.000709131 6.2779e-06)
(0.0639817 -0.000678529 2.99841e-06)
(0.0635122 -0.000651278 2.26627e-06)
(0.06305 -0.000600465 4.89407e-06)
(0.0626118 -0.000525813 8.02318e-06)
(0.101713 -0.000974225 0.000180324)
(0.101664 -0.000952236 0.000171797)
(0.101615 -0.000930266 0.000162463)
(0.101563 -0.000908454 0.000153002)
(0.101512 -0.000886713 0.000143659)
(0.101452 -0.000862529 0.000133187)
(0.11743 -0.0010358 2.95991e-05)
(0.117675 -0.00102175 2.16019e-05)
(0.117918 -0.00101077 1.27391e-05)
(0.118158 -0.000999857 4.01427e-06)
(0.118398 -0.000986232 -5.59741e-06)
(0.124708 -0.000744099 -0.00018193)
(0.125062 -0.00073818 -0.000185855)
(0.125413 -0.000734728 -0.000189983)
(0.125764 -0.000731557 -0.000194168)
(0.126112 -0.000720731 -0.000197976)
(0.128111 -0.000427668 -0.000329635)
(0.128503 -0.000425748 -0.000329028)
(0.128894 -0.000425192 -0.00032928)
(0.129283 -0.000425159 -0.000330648)
(0.129669 -0.000421691 -0.000330973)
(0.129097 -6.56072e-05 -0.00040399)
(0.1295 -6.51971e-05 -0.000401136)
(0.129901 -6.49758e-05 -0.000399195)
(0.130301 -6.48637e-05 -0.000397975)
(0.130697 -6.44422e-05 -0.000393902)
(0.128112 0.000327348 -0.000427847)
(0.128505 0.000327029 -0.000426548)
(0.128895 0.00032735 -0.000426344)
(0.129285 0.00032804 -0.000427078)
(0.12967 0.000325726 -0.000424522)
(0.12492 0.000737165 -0.000420874)
(0.125263 0.000732482 -0.00042589)
(0.125603 0.000729013 -0.000431423)
(0.125941 0.000726453 -0.000437431)
(0.126276 0.000716842 -0.000439779)
(0.118211 0.00112143 -0.000413611)
(0.118415 0.00110796 -0.000421726)
(0.118615 0.00109391 -0.000429844)
(0.118809 0.00107909 -0.000437415)
(0.119001 0.00106202 -0.000443448)
(0.103504 0.00113528 -0.000327434)
(0.103381 0.00110986 -0.000329553)
(0.103255 0.00108308 -0.000329838)
(0.103121 0.00105327 -0.00032787)
(0.102988 0.00102601 -0.00032587)
(0.0675546 0.000937268 -0.000176283)
(0.0669541 0.000899484 -0.00016976)
(0.0663751 0.000858912 -0.000161488)
(0.0658218 0.000819551 -0.000152208)
(0.0652819 0.000783298 -0.000143324)
(0.0647681 0.000750213 -0.000135293)
(0.0681734 -0.000917193 0.000123246)
(0.067618 -0.000879038 0.000109647)
(0.0670831 -0.000844151 9.52523e-05)
(0.0665583 -0.000813615 8.10131e-05)
(0.0660452 -0.000783266 6.82213e-05)
(0.0655395 -0.000750623 5.85099e-05)
(0.103949 -0.00115565 0.000313123)
(0.103862 -0.00112719 0.000308886)
(0.10377 -0.00110055 0.000303024)
(0.103679 -0.00106954 0.000295589)
(0.103587 -0.0010348 0.000288014)
(0.103499 -0.00100513 0.000282395)
(0.118866 -0.00115515 0.000269647)
(0.119094 -0.0011372 0.000270414)
(0.119319 -0.00112094 0.000270111)
(0.119544 -0.00110189 0.000269097)
(0.125798 -0.000790247 0.00014618)
(0.126154 -0.000781741 0.000147965)
(0.126509 -0.000774932 0.000149523)
(0.126862 -0.000761333 0.000149793)
(0.129093 -0.000403157 6.3182e-05)
(0.129497 -0.000399718 6.38344e-05)
(0.1299 -0.000397064 6.45109e-05)
(0.130299 -0.000390802 6.43293e-05)
(0.130084 -2.7378e-07 -1.40689e-06)
(0.1305 1.66363e-07 -1.14075e-06)
(0.130913 6.87135e-07 -7.92081e-07)
(0.131325 2.06771e-06 -6.80499e-07)
(0.131732 3.99749e-06 -9.89912e-07)
(0.129095 0.000402257 -6.57402e-05)
(0.129498 0.000399673 -6.5598e-05)
(0.129898 0.000398064 -6.55122e-05)
(0.130298 0.000397091 -6.55214e-05)
(0.130693 0.000392384 -6.51624e-05)
(0.1258 0.000787281 -0.000148348)
(0.126154 0.00077945 -0.000149305)
(0.126507 0.000773219 -0.000150213)
(0.12686 0.000768087 -0.000151015)
(0.127209 0.000754744 -0.000150893)
(0.118873 0.00115021 -0.000270556)
(0.119099 0.00113176 -0.000270321)
(0.119323 0.00111585 -0.000270043)
(0.119545 0.0010998 -0.000269155)
(0.119767 0.00108082 -0.000267289)
(0.103972 0.00114485 -0.000316398)
(0.103884 0.00111793 -0.00031235)
(0.103793 0.00109188 -0.000307108)
(0.1037 0.00105949 -0.000300192)
(0.103611 0.00102555 -0.000292967)
(0.0682032 0.000906943 -0.000133747)
(0.0676549 0.00086626 -0.00012241)
(0.0671263 0.000829818 -0.000108263)
(0.0666102 0.000799381 -9.3476e-05)
(0.0661014 0.000769361 -8.09227e-05)
(0.068155 -0.000978375 0.000173025)
(0.0675259 -0.000944274 0.000166132)
(0.0669194 -0.000907697 0.000156963)
(0.0663404 -0.00086883 0.00014802)
(0.0657769 -0.000830728 0.000138445)
(0.0652379 -0.000795015 0.000128555)
(0.103609 -0.00117741 0.000322041)
(0.103489 -0.00114477 0.000321998)
(0.103364 -0.00111954 0.000323091)
(0.103236 -0.00109053 0.000321447)
(0.103104 -0.00106175 0.000318313)
(0.102969 -0.00103599 0.000316418)
(0.118 -0.00114584 0.000404119)
(0.118211 -0.00113007 0.000411571)
(0.118416 -0.00111517 0.000419939)
(0.118615 -0.00109976 0.000427276)
(0.118812 -0.00108484 0.000434508)
(0.119002 -0.00106797 0.000441494)
(0.124575 -0.000747004 0.000413346)
(0.124921 -0.000741432 0.000417936)
(0.125264 -0.000736535 0.000424052)
(0.125605 -0.000732592 0.000430508)
(0.125944 -0.000727634 0.000437011)
(0.126278 -0.000715149 0.00043928)
(0.127715 -0.000330077 0.000426201)
(0.12811 -0.000328909 0.000424641)
(0.128502 -0.000328508 0.000424675)
(0.128892 -0.000328543 0.000425959)
(0.129281 -0.000328136 0.000428301)
(0.129666 -0.000324174 0.000427136)
(0.129094 6.47309e-05 0.000400517)
(0.129497 6.46814e-05 0.000398252)
(0.129898 6.48414e-05 0.00039724)
(0.130298 6.53465e-05 0.00039685)
(0.130693 6.55892e-05 0.000392527)
(0.128112 0.000426637 0.000326881)
(0.128503 0.000425593 0.000326463)
(0.128893 0.000425656 0.000326946)
(0.129282 0.000426572 0.000327883)
(0.129667 0.000423429 0.000325556)
(0.124716 0.000741535 0.000179323)
(0.125067 0.000737021 0.000183566)
(0.125417 0.00073418 0.000188187)
(0.125766 0.000733341 0.000193267)
(0.126112 0.000724275 0.000195303)
(0.117449 0.00103104 -3.01544e-05)
(0.117689 0.00101761 -2.17485e-05)
(0.11793 0.00100604 -1.29574e-05)
(0.118166 0.000996468 -2.96276e-06)
(0.118399 0.000985263 7.33461e-06)
(0.101746 0.000967173 -0.000181844)
(0.101693 0.000949907 -0.000173137)
(0.101641 0.000922615 -0.000164958)
(0.101586 0.000895755 -0.000156787)
(0.101532 0.000875534 -0.000147602)
(0.0649598 0.000729477 -2.2655e-05)
(0.0644845 0.000691325 -1.65704e-05)
(0.0640163 0.000659956 -1.29375e-05)
(0.0635577 0.000633391 -1.21816e-05)
(0.0631049 0.000588329 -1.45876e-05)
(0.0632752 -0.000783488 0.000202942)
(0.0626869 -0.000757855 0.000198837)
(0.062126 -0.000714025 0.000186497)
(0.0615801 -0.000646846 0.000162079)
(0.0610725 -0.000582728 0.000138564)
(0.0605849 -0.000534999 0.00012281)
(0.0996102 -0.000963151 0.000284895)
(0.0994574 -0.000939963 0.000291789)
(0.099299 -0.000919149 0.000299396)
(0.0991361 -0.00089602 0.00030424)
(0.0989525 -0.000874513 0.00030844)
(0.098767 -0.000850403 0.000309363)
(0.114525 -0.000965419 0.000503843)
(0.114704 -0.000957351 0.000514134)
(0.114869 -0.000951174 0.000527804)
(0.115025 -0.000936956 0.000535748)
(0.115174 -0.000927322 0.000547179)
(0.115312 -0.000915347 0.000556059)
(0.121183 -0.000574007 0.000629984)
(0.121499 -0.000577146 0.000633268)
(0.121809 -0.000580646 0.00063934)
(0.122114 -0.000583069 0.000645789)
(0.122417 -0.000586219 0.000654905)
(0.12271 -0.000582447 0.000655764)
(0.124356 -0.00017775 0.000746274)
(0.124712 -0.000181348 0.000739734)
(0.125064 -0.000186035 0.000735424)
(0.125414 -0.000190643 0.00073307)
(0.125764 -0.000195591 0.000733158)
(0.126109 -0.000197717 0.000725238)
(0.125801 0.000147564 0.000785103)
(0.126155 0.00014837 0.000777583)
(0.126508 0.000149147 0.000771725)
(0.126861 0.000149789 0.000767178)
(0.12721 0.000149144 0.000754441)
(0.124924 0.000420036 0.000736473)
(0.125265 0.000425018 0.000731359)
(0.125605 0.000430566 0.000727807)
(0.125943 0.000436809 0.000725455)
(0.126277 0.000437801 0.000715678)
(0.121504 0.000636009 0.00057267)
(0.121812 0.000641319 0.000574876)
(0.122117 0.000647093 0.000577177)
(0.122416 0.000655098 0.000580357)
(0.12271 0.000654514 0.000576367)
(0.113872 0.000849327 0.000318693)
(0.114078 0.000848066 0.000327849)
(0.114284 0.000845212 0.000335715)
(0.114476 0.000849507 0.000345653)
(0.114663 0.000846587 0.000351136)
(0.0968587 0.000746504 4.16664e-05)
(0.0967817 0.000743578 5.09485e-05)
(0.0966941 0.000727095 5.53085e-05)
(0.0966028 0.000710705 5.96047e-05)
(0.0965034 0.000704352 6.65393e-05)
(0.0585243 0.000379676 3.3758e-05)
(0.0581184 0.000360778 3.08645e-05)
(0.057709 0.000344239 2.54276e-05)
(0.0573113 0.000328665 1.8226e-05)
(0.0569172 0.000312893 1.10569e-05)
(0.0542887 -0.000405333 0.000179294)
(0.0538092 -0.000389071 0.000172303)
(0.0533402 -0.000372735 0.000164461)
(0.0528859 -0.000351078 0.000153953)
(0.052439 -0.000325809 0.000141748)
(0.0520158 -0.000301858 0.000130707)
(0.0901126 -0.000600918 0.000328556)
(0.0898691 -0.000585297 0.00032726)
(0.0896212 -0.000577555 0.000333035)
(0.0893646 -0.000567852 0.000336663)
(0.0890982 -0.000558819 0.000339831)
(0.0888254 -0.000551206 0.00034371)
(0.106295 -0.000650331 0.000665628)
(0.106372 -0.000646513 0.000663953)
(0.106439 -0.000649716 0.000674709)
(0.106487 -0.000646451 0.000678389)
(0.106527 -0.000642721 0.000682321)
(0.106553 -0.000638115 0.000685957)
(0.113635 -0.000312671 0.000851512)
(0.113856 -0.000322539 0.000846151)
(0.11407 -0.000334097 0.00084772)
(0.114272 -0.000342907 0.000844633)
(0.114474 -0.000353165 0.000848902)
(0.114659 -0.000360702 0.000850058)
(0.117192 3.51026e-05 0.00105229)
(0.117438 2.8581e-05 0.00103147)
(0.117682 1.98245e-05 0.00101674)
(0.117923 1.03611e-05 0.00100472)
(0.118163 -5.95031e-08 0.00099613)
(0.118398 -1.09569e-05 0.000985859)
(0.118872 0.000270147 0.00114836)
(0.119099 0.000270027 0.0011304)
(0.119324 0.000269474 0.00111463)
(0.119547 0.000268137 0.00109907)
(0.11977 0.000265707 0.00108069)
(0.118215 0.000412754 0.00112142)
(0.11842 0.000420547 0.00110707)
(0.11862 0.000428361 0.00109252)
(0.118814 0.000435913 0.00107776)
(0.119005 0.000441986 0.00106119)
(0.114707 0.00051768 0.000952038)
(0.114872 0.000527362 0.000940408)
(0.11503 0.000538973 0.000930569)
(0.115174 0.000549142 0.000918845)
(0.115313 0.000555445 0.000903775)
(0.106384 0.000665948 0.000640862)
(0.106446 0.000671852 0.000639191)
(0.106497 0.000676868 0.000636246)
(0.106535 0.000684385 0.000633912)
(0.10656 0.000684417 0.000625975)
(0.0871906 0.000557454 0.000250845)
(0.0869662 0.000562372 0.000252645)
(0.0867245 0.00055501 0.000247392)
(0.086483 0.000551202 0.000243994)
(0.0862272 0.000540689 0.00023682)
(0.0490518 0.000249888 6.08039e-05)
(0.0486637 0.000238213 5.40198e-05)
(0.0482776 0.000225014 4.51984e-05)
(0.0479052 0.000212651 3.59453e-05)
(0.0475483 0.000202039 2.82138e-05)
(0.0391496 -0.000125749 0.000158929)
(0.0387853 -0.000119544 0.000151651)
(0.0384308 -0.00011623 0.000143267)
(0.0380891 -0.000113495 0.000132907)
(0.037756 -0.000110312 0.000121926)
(0.037443 -0.000107127 0.000113374)
(0.0690371 -0.000158383 0.000233873)
(0.0686179 -0.00015813 0.00023928)
(0.0681983 -0.000158425 0.000241874)
(0.0677942 -0.000158908 0.000241782)
(0.0673796 -0.000161856 0.000243191)
(0.0669872 -0.000161393 0.000238488)
(0.087413 -0.000255713 0.000562894)
(0.087192 -0.000254556 0.000557574)
(0.086962 -0.000255684 0.000558849)
(0.0867278 -0.000252977 0.000553164)
(0.0864758 -0.000251461 0.00055065)
(0.0862233 -0.000247353 0.000543957)
(0.0969065 -3.42886e-05 0.000760101)
(0.0968399 -4.41498e-05 0.000746021)
(0.0967653 -5.38779e-05 0.000738873)
(0.096684 -6.04883e-05 0.000723715)
(0.0965928 -6.87533e-05 0.000716149)
(0.0964931 -7.71412e-05 0.000709231)
(0.101769 0.000187967 0.000997696)
(0.101724 0.00018022 0.000969835)
(0.101678 0.000171391 0.000945411)
(0.101629 0.000161602 0.000921864)
(0.101579 0.000151228 0.000899805)
(0.101526 0.000140364 0.000879151)
(0.103961 0.000313834 0.00114569)
(0.103875 0.000310114 0.00111911)
(0.103787 0.000304301 0.00109236)
(0.103696 0.000296586 0.00106229)
(0.103609 0.000288715 0.00102965)
(0.103501 0.000323751 0.0011381)
(0.103379 0.000325359 0.0011111)
(0.103254 0.000325312 0.00108403)
(0.103122 0.000322595 0.00105427)
(0.102989 0.000320449 0.00102667)
(0.0994605 0.000297381 0.000936547)
(0.099306 0.000300934 0.000908823)
(0.0991425 0.00030892 0.000889621)
(0.098966 0.000312459 0.000865829)
(0.0987793 0.000312471 0.000838871)
(0.0898694 0.000327936 0.000578885)
(0.0896256 0.000334823 0.000570616)
(0.0893642 0.000339738 0.000560424)
(0.0891082 0.000343357 0.000549603)
(0.0888353 0.000347283 0.000540193)
(0.0686061 0.000233188 0.000150965)
(0.0681982 0.000238657 0.000152418)
(0.0677922 0.000240188 0.000152119)
(0.0673869 0.000243348 0.000153661)
(0.0669908 0.000240885 0.000152614)
(0.0363452 6.56584e-05 -2.20552e-05)
(0.036025 6.51679e-05 -2.2575e-05)
(0.0357152 6.37467e-05 -2.34136e-05)
(0.0354117 6.30331e-05 -2.35729e-05)
(0.0351268 6.25573e-05 -2.34516e-05)
(0.0232128 1.05482e-05 4.33887e-05)
(0.0229766 9.88933e-06 4.21626e-05)
(0.0227461 8.48737e-06 4.0257e-05)
(0.0225242 6.65637e-06 3.73774e-05)
(0.0223085 4.60007e-06 3.46304e-05)
(0.0221046 3.18349e-06 3.23655e-05)
(0.0366716 1.85138e-05 6.83728e-05)
(0.0363414 2.27854e-05 6.45053e-05)
(0.0360206 2.31623e-05 6.32743e-05)
(0.035713 2.21756e-05 6.22701e-05)
(0.0354102 2.00188e-05 6.20335e-05)
(0.0351261 1.80901e-05 6.2268e-05)
(0.0494788 -6.84926e-05 0.000264076)
(0.0490693 -5.99086e-05 0.00024976)
(0.0486669 -5.24838e-05 0.000236534)
(0.048286 -4.54625e-05 0.000223297)
(0.0589749 -3.64111e-05 0.000409521)
(0.0585435 -3.66702e-05 0.00038453)
(0.0581236 -3.38128e-05 0.000364342)
(0.0577163 -2.98656e-05 0.000347096)
(0.0573064 -2.50624e-05 0.0003308)
(0.0654743 2.72081e-05 0.000779913)
(0.0649704 1.6608e-05 0.000739397)
(0.0644846 1.0184e-05 0.000702572)
(0.0640118 5.82458e-06 0.000670233)
(0.0635478 4.19338e-06 0.000642374)
(0.0681878 0.00012682 0.000914481)
(0.0676392 0.000114728 0.000874816)
(0.0671058 0.000100071 0.000838449)
(0.0665886 8.50238e-05 0.000806431)
(0.0660776 7.14353e-05 0.000776016)
(0.0675338 0.000169079 0.000941327)
(0.0669331 0.000162084 0.000904034)
(0.0663534 0.000153586 0.000863488)
(0.0658006 0.000144156 0.00082361)
(0.0652607 0.000134704 0.000786575)
(0.0627024 0.00020395 0.000754879)
(0.0621378 0.000192882 0.000711535)
(0.0615952 0.000169742 0.000644094)
(0.0610919 0.000146484 0.000578724)
(0.0606056 0.000130566 0.000529346)
(0.053821 0.000178782 0.000387923)
(0.0533524 0.000171718 0.000370977)
(0.0528985 0.000162077 0.000348893)
(0.052453 0.000150445 0.000323363)
(0.0520291 0.000138468 0.000297947)
(0.0387987 0.000154625 0.000118646)
(0.038442 0.000147571 0.00011506)
(0.0380983 0.000138109 0.000111602)
(0.0377625 0.00012787 0.000107806)
(0.0374472 0.000119009 0.000103633)
(0.0229839 4.23637e-05 -1.08392e-05)
(0.0227537 4.12158e-05 -9.5269e-06)
(0.0225295 3.86541e-05 -8.18134e-06)
(0.0223122 3.62273e-05 -6.49198e-06)
(0.0221076 3.4111e-05 -5.12537e-06)
)
;

boundaryField
{
    inlet
    {
        type            fixedValue;
        value           nonuniform List<vector> 0();
    }
    ami1
    {
        type            cyclicAMI;
        value           nonuniform List<vector> 0();
    }
    walls
    {
        type            noSlip;
    }
    ami2
    {
        type            cyclicAMI;
        value           nonuniform List<vector> 0();
    }
    outlet
    {
        type            zeroGradient;
    }
    procBoundary5to6
    {
        type            processor;
        value           nonuniform List<vector> 
177
(
(0.0218964 -3.29801e-05 4.13292e-06)
(0.0218964 -3.29801e-05 4.13292e-06)
(0.037123 -0.00011295 -0.00010027)
(0.0516006 -0.000131364 -0.000279039)
(0.0516006 -0.000131364 -0.000279039)
(0.0516006 -0.000131364 -0.000279039)
(0.0596611 -0.000116734 -0.000469595)
(0.0642099 -0.00012619 -0.000729497)
(0.0642099 -0.00012619 -0.000729497)
(0.0646025 -5.64182e-05 -0.000668926)
(0.103417 -0.000277502 -0.000968343)
(0.0618214 -1.7093e-05 -0.000407209)
(0.101384 -0.000126358 -0.00083916)
(0.0557636 -1.30948e-05 -0.000266667)
(0.0465235 7.77587e-07 -0.000168051)
(0.034571 -2.40852e-05 -6.01601e-05)
(0.034571 -2.40852e-05 -6.01601e-05)
(0.034571 -2.40852e-05 -6.01601e-05)
(0.0217167 -3.02935e-06 -3.03485e-05)
(0.0345558 -6.00359e-05 2.47297e-05)
(0.0665792 -0.000242248 -0.000153241)
(0.0345558 -6.00359e-05 2.47297e-05)
(0.0665792 -0.000242248 -0.000153241)
(0.0665792 -0.000242248 -0.000153241)
(0.0665792 -0.000242248 -0.000153241)
(0.0882449 -0.000349367 -0.000523117)
(0.0983592 -0.000317609 -0.000799064)
(0.102697 -0.000319496 -0.00097564)
(0.103417 -0.000277502 -0.000968343)
(0.101384 -0.000126358 -0.00083916)
(0.101384 -0.000126358 -0.00083916)
(0.0961199 8.59091e-05 -0.00068266)
(0.115016 0.000358167 -0.000838535)
(0.0854152 0.000214137 -0.000513247)
(0.106569 0.000603324 -0.000680102)
(0.0658288 0.000147403 -0.000225907)
(0.03685 9.19977e-05 -0.000100234)
(0.03685 9.19977e-05 -0.000100234)
(0.04651 -0.0001686 -1.68862e-06)
(0.0856762 -0.000531073 -0.000228014)
(0.0856762 -0.000531073 -0.000228014)
(0.0856762 -0.000531073 -0.000228014)
(0.106557 -0.000684171 -0.00061511)
(0.115555 -0.000565588 -0.000880377)
(0.11937 -0.000450205 -0.0010289)
(0.120212 -0.000261657 -0.00104163)
(0.118866 2.51695e-05 -0.000951853)
(0.126467 0.000195568 -0.000714493)
(0.115016 0.000358167 -0.000838535)
(0.106569 0.000603324 -0.000680102)
(0.106569 0.000603324 -0.000680102)
(0.0879739 0.000498816 -0.000339456)
(0.0512294 0.000253373 -0.000117787)
(0.0983785 0.000785728 -0.000317918)
(0.0512294 0.000253373 -0.000117787)
(0.0557442 -0.000272005 8.6569e-06)
(0.0621935 -0.000461242 8.71239e-06)
(0.0961138 -0.000685283 -9.47165e-05)
(0.115011 -0.000835828 -0.000363873)
(0.101389 -0.000838377 0.000120696)
(0.115011 -0.000835828 -0.000363873)
(0.118629 -0.000969847 -1.70185e-05)
(0.123288 -0.000647582 -0.000572185)
(0.126459 -0.000707295 -0.000200661)
(0.126942 -0.000436115 -0.000698042)
(0.130054 -0.00041572 -0.000327625)
(0.127913 -0.000149978 -0.000725513)
(0.126467 0.000195568 -0.000714493)
(0.13109 -6.35809e-05 -0.000386826)
(0.126467 0.000195568 -0.000714493)
(0.126467 0.000195568 -0.000714493)
(0.123291 0.000564275 -0.000651445)
(0.126609 0.000702601 -0.000439035)
(0.115562 0.000866871 -0.000564173)
(0.119183 0.00104158 -0.000447796)
(0.0983785 0.000785728 -0.000317918)
(0.102849 0.000997552 -0.00032426)
(0.0597047 0.000462868 -0.000120435)
(0.0621935 -0.000461242 8.71239e-06)
(0.101389 -0.000838377 0.000120696)
(0.118629 -0.000969847 -1.70185e-05)
(0.118629 -0.000969847 -1.70185e-05)
(0.119766 -0.00108134 0.00026745)
(0.126459 -0.000707295 -0.000200661)
(0.127215 -0.000744596 0.000148748)
(0.130054 -0.00041572 -0.000327625)
(0.130699 -0.0003824 6.31713e-05)
(0.13109 -6.35809e-05 -0.000386826)
(0.130054 0.000321512 -0.000419059)
(0.126609 0.000702601 -0.000439035)
(0.119183 0.00104158 -0.000447796)
(0.102849 0.000997552 -0.00032426)
(0.102849 0.000997552 -0.00032426)
(0.0642667 0.000721473 -0.000131818)
(0.0656074 0.000736859 -7.14887e-05)
(0.0650571 -0.000714699 5.26229e-05)
(0.0647149 -0.000763825 0.000121366)
(0.119766 -0.00108134 0.00026745)
(0.103408 -0.000975323 0.000276826)
(0.119987 -0.00106304 0.000264789)
(0.102832 -0.0010044 0.000314574)
(0.119766 -0.00108134 0.00026745)
(0.119766 -0.00108134 0.00026745)
(0.127215 -0.000744596 0.000148748)
(0.127215 -0.000744596 0.000148748)
(0.130699 -0.0003824 6.31713e-05)
(0.130699 -0.0003824 6.31713e-05)
(0.130699 -0.0003824 6.31713e-05)
(0.132134 3.89294e-06 -6.70359e-07)
(0.131085 0.000384645 -6.43054e-05)
(0.127557 0.000736467 -0.000149936)