/*--------------------------------*- C++ -*----------------------------------*\
| =========                 |                                                 |
| \\      /  F ield         | OpenFOAM: The Open Source CFD Toolbox           |
|  \\    /   O peration     | Version:  2212                                  |
|   \\  /    A nd           | Website:  www.openfoam.com                      |
|    \\/     M anipulation  |                                                 |
\*---------------------------------------------------------------------------*/
FoamFile
{
    version     2.0;
    format      ascii;
    arch        "LSB;label=32;scalar=64";
    class       volScalarField;
    location    "1.4";
    object      nut;
}
// * * * * * * * * * * * * * * * * * * * * * * * * * * * * * * * * * * * * * //

dimensions      [0 2 -1 0 0 0 0];

internalField   nonuniform List<scalar> 
680
(
6.52684e-06
6.32408e-06
6.14622e-06
5.98931e-06
5.85526e-06
5.70085e-06
1.54492e-05
1.47211e-05
1.40866e-05
1.35316e-05
1.30548e-05
1.26451e-05
2.39123e-05
2.27355e-05
2.16977e-05
2.07808e-05
1.99738e-05
1.93089e-05
3.08223e-05
2.92482e-05
2.78528e-05
2.66114e-05
2.55055e-05
2.45403e-05
3.46448e-05
3.28599e-05
3.12733e-05
2.98573e-05
2.85931e-05
2.75055e-05
3.46405e-05
3.28534e-05
3.12636e-05
2.98436e-05
2.85786e-05
2.75289e-05
3.25996e-05
3.08133e-05
2.92342e-05
2.7831e-05
2.65784e-05
2.54648e-05
2.45819e-05
2.52434e-05
2.3904e-05
2.27221e-05
2.16761e-05
2.07466e-05
1.99262e-05
1.92637e-05
1.62903e-05
1.54449e-05
1.47139e-05
1.40736e-05
1.35076e-05
1.30173e-05
1.26253e-05
6.75937e-06
6.52683e-06
6.32409e-06
6.14625e-06
5.98938e-06
5.85542e-06
5.7012e-06
1.54449e-05
1.47138e-05
1.40735e-05
1.35074e-05
1.3017e-05
1.26244e-05
8.64149e-05
7.96e-05
7.33733e-05
6.77232e-05
6.34738e-05
5.56584e-05
0.000128893
0.000120673
0.000113273
0.000106534
0.000100822
9.46382e-05
0.000155077
0.000145638
0.000137066
0.000129251
0.000122114
0.000115928
0.000167638
0.000157618
0.000148497
0.000140155
0.00013248
0.000125386
0.000167594
0.000157552
0.000148394
0.000139995
0.000132238
0.000125124
0.000165446
0.000154986
0.000145494
0.000136828
0.000128859
0.000121483
0.000115164
0.000138077
0.00012882
0.000120551
0.000113056
0.000106145
0.000100136
9.37813e-05
9.38314e-05
8.64191e-05
7.9603e-05
7.3376e-05
6.77263e-05
6.34779e-05
5.56762e-05
1.62931e-05
1.54492e-05
1.47211e-05
1.40866e-05
1.35317e-05
1.30552e-05
1.26464e-05
2.39038e-05
2.2722e-05
2.1676e-05
2.07466e-05
1.99261e-05
1.92633e-05
0.000128815
0.000120548
0.000113055
0.000106146
0.000100131
9.37709e-05
0.000199841
0.000188366
0.000177895
0.000168277
0.000159379
0.000149984
0.000239405
0.000226325
0.000214379
0.000203403
0.000193187
0.000183186
0.000257882
0.000244016
0.000231344
0.000219688
0.000208818
0.000198351
0.000257863
0.00024399
0.000231304
0.000219617
0.000208652
0.000197724
0.000253776
0.000239377
0.00022628
0.000214306
0.000203272
0.000192896
0.000182112
0.000212479
0.000199843
0.000188368
0.000177896
0.000168279
0.000159378
0.000149974
0.000138124
0.000128894
0.000120674
0.000113275
0.000106537
0.000100828
9.46386e-05
2.52485e-05
2.39122e-05
2.27354e-05
2.16976e-05
2.07807e-05
1.99737e-05
1.93078e-05
3.08131e-05
2.92341e-05
2.78309e-05
2.65784e-05
2.54649e-05
2.45822e-05
0.000154983
0.000145492
0.000136828
0.000128861
0.000121488
0.000115177
0.000239374
0.000226279
0.000214306
0.000203275
0.000192903
0.000182141
0.000287007
0.00027191
0.000258097
0.00024535
0.000233319
0.000221075
0.000309325
0.000293264
0.000278552
0.000264952
0.000252072
0.000238934
0.00030932
0.000293257
0.000278541
0.000264933
0.000252025
0.000238851
0.000303591
0.000287008
0.000271911
0.000258097
0.000245351
0.000233319
0.000221062
0.000253795
0.000239405
0.000226325
0.000214381
0.000203406
0.000193191
0.000183183
0.000165504
0.000155075
0.000145637
0.000137066
0.000129252
0.000122115
0.000115928
3.26054e-05
3.08222e-05
2.92481e-05
2.78527e-05
2.66113e-05
2.55054e-05
2.454e-05
3.46405e-05
3.28534e-05
3.12637e-05
2.98437e-05
2.85788e-05
2.75289e-05
0.000167594
0.000157553
0.000148396
0.000139999
0.000132244
0.000125136
0.000257864
0.000243991
0.000231306
0.00021962
0.000208658
0.000197745
0.00030932
0.000293257
0.000278542
0.000264934
0.000252027
0.00023886
0.000333583
0.000316467
0.000300755
0.000286172
0.000272194
0.000257446
0.000333583
0.000316467
0.000300755
0.000286172
0.000272192
0.000257441
0.000326942
0.000309325
0.000293264
0.000278553
0.000264955
0.000252076
0.000238935
0.000273122
0.00025788
0.000244016
0.000231345
0.000219691
0.000208824
0.000198353
0.000178685
0.000167634
0.000157616
0.000148495
0.000140153
0.000132477
0.000125382
3.66624e-05
3.46448e-05
3.28598e-05
3.12732e-05
2.98572e-05
2.8593e-05
2.7505e-05
3.46448e-05
3.28599e-05
3.12733e-05
2.98574e-05
2.85933e-05
2.75054e-05
0.000167638
0.000157619
0.000148498
0.000140156
0.000132483
0.000125391
0.000257882
0.000244016
0.000231345
0.000219689
0.000208819
0.000198354
0.000309325
0.000293264
0.000278552
0.000264953
0.000252074
0.000238936
0.000333583
0.000316467
0.000300755
0.000286172
0.000272194
0.000257445
0.000333583
0.000316467
0.000300755
0.000286172
0.000272193
0.000257442
0.000326938
0.00030932
0.000293258
0.000278542
0.000264935
0.000252029
0.000238854
0.000273111
0.000257864
0.000243991
0.000231305
0.000219618
0.000208655
0.000197736
0.000178658
0.000167593
0.000157551
0.000148393
0.000139993
0.000132233
0.000125122
3.66596e-05
3.46407e-05
3.28535e-05
3.12637e-05
2.98437e-05
2.85786e-05
2.75287e-05
3.08223e-05
2.92482e-05
2.78528e-05
2.66114e-05
2.55056e-05
2.45404e-05
0.000155076
0.000145637
0.000137065
0.00012925
0.000122113
0.000115927
0.000239405
0.000226324
0.000214378
0.000203401
0.000193184
0.000183178
0.000287006
0.000271909
0.000258095
0.000245349
0.00023332
0.000221065
0.00030932
0.000293257
0.000278541
0.000264934
0.000252027
0.000238859
0.000309325
0.000293264
0.000278552
0.000264953
0.000252074
0.00023893
0.00030359
0.000287008
0.00027191
0.000258096
0.00024535
0.00023332
0.000221062
0.000253776
0.000239376
0.00022628
0.000214305
0.00020327
0.000192894
0.000182128
0.000165446
0.000154986
0.000145493
0.000136827
0.000128857
0.000121479
0.000115166
3.25996e-05
3.08133e-05
2.92342e-05
2.78311e-05
2.65784e-05
2.54648e-05
2.45821e-05
2.39123e-05
2.27355e-05
2.16977e-05
2.07807e-05
1.99737e-05
1.93091e-05
0.000128892
0.000120671
0.000113269
0.000106528
0.000100822
9.46322e-05
0.000199839
0.000188364
0.000177891
0.000168271
0.00015937
0.000149971
0.000239373
0.000226277
0.000214303
0.00020327
0.000192896
0.000182131
0.000257863
0.00024399
0.000231304
0.000219618
0.000208655
0.000197738
0.000257882
0.000244016
0.000231345
0.000219689
0.00020882
0.000198347
0.000253795
0.000239405
0.000226324
0.000214378
0.000203402
0.000193185
0.000183182
0.000212479
0.000199842
0.000188366
0.000177893
0.000168273
0.000159372
0.000149977
0.000138077
0.00012882
0.00012055
0.000113055
0.000106144
0.000100135
9.37676e-05
2.52434e-05
2.39039e-05
2.27221e-05
2.16761e-05
2.07467e-05
1.99262e-05
1.92634e-05
1.54492e-05
1.4721e-05
1.40865e-05
1.35316e-05
1.30548e-05
1.26451e-05
8.64142e-05
7.95989e-05
7.33715e-05
6.7721e-05
6.3471e-05
5.56535e-05
0.000128814
0.000120547
0.000113053
0.000106144
0.000100127
9.37656e-05
0.000154982
0.000145491
0.000136827
0.000128859
0.000121482
0.000115168
0.000167594
0.000157553
0.000148395
0.000139997
0.000132239
0.000125132
0.000167638
0.000157619
0.000148497
0.000140155
0.00013248
0.000125385
0.000165504
0.000155075
0.000145636
0.000137064
0.000129249
0.000122113
0.000115926
0.000138124
0.000128892
0.000120672
0.00011327
0.00010653
0.000100824
9.46333e-05
9.3831e-05
8.64185e-05
7.9602e-05
7.33743e-05
6.77242e-05
6.34745e-05
5.56589e-05
1.62903e-05
1.54449e-05
1.47139e-05
1.40735e-05
1.35075e-05
1.30172e-05
1.26248e-05
6.52682e-06
6.32405e-06
6.14619e-06
5.98928e-06
5.85528e-06
5.70073e-06
1.54448e-05
1.47137e-05
1.40733e-05
1.35072e-05
1.30166e-05
1.26237e-05
2.39038e-05
2.27219e-05
2.16759e-05
2.07464e-05
1.99258e-05
1.9263e-05
3.0813e-05
2.9234e-05
2.78309e-05
2.65783e-05
2.54647e-05
2.45821e-05
3.46405e-05
3.28534e-05
3.12637e-05
2.98438e-05
2.85788e-05
2.75288e-05
3.46448e-05
3.28599e-05
3.12733e-05
2.98574e-05
2.85933e-05
2.75054e-05
3.26054e-05
3.08222e-05
2.92481e-05
2.78527e-05
2.66114e-05
2.55056e-05
2.45405e-05
2.52485e-05
2.39122e-05
2.27354e-05
2.16976e-05
2.07807e-05
1.99737e-05
1.93089e-05
1.6293e-05
1.54492e-05
1.47211e-05
1.40866e-05
1.35316e-05
1.30549e-05
1.26455e-05
6.75936e-06
6.52681e-06
6.32407e-06
6.14622e-06
5.98934e-06
5.85539e-06
5.701e-06
4.85583e-06
4.68413e-06
4.52309e-06
4.40863e-06
1.02956e-05
9.77115e-06
9.44378e-06
9.19194e-06
1.5355e-05
1.49336e-05
1.44278e-05
1.04537e-05
1.00068e-05
9.58026e-06
9.25367e-06
3.16222e-05
2.90409e-05
2.75777e-05
2.63611e-05
6.674e-05
6.11012e-05
5.89435e-05
1.57777e-05
1.5173e-05
1.452e-05
5.79998e-05
5.62665e-05
5.5163e-05
0.000111617
0.000106732
0.000102388
2.0286e-05
1.94639e-05
1.86945e-05
8.12251e-05
7.85221e-05
7.58253e-05
0.000146519
0.000139718
0.000133667
)
;

boundaryField
{
    inlet
    {
        type            calculated;
        value           nonuniform List<scalar> 0();
    }
    ami1
    {
        type            cyclicAMI;
        value           nonuniform List<scalar> 
100
(
7.77579e-06
1.43412e-05
2.00005e-05
2.46425e-05
2.94785e-05
3.06184e-05
2.77204e-05
2.15615e-05
1.36939e-05
7.77822e-06
1.36888e-05
5.17717e-05
8.78349e-05
0.000111816
0.00012263
0.000120071
0.00010766
8.55373e-05
5.18381e-05
1.43483e-05
2.15585e-05
8.55291e-05
0.000141066
0.000177079
0.000192604
0.000190801
0.000174154
0.000141039
8.77605e-05
2.00038e-05
2.7719e-05
0.000107697
0.000174237
0.000213785
0.000230793
0.000230818
0.00021374
0.000177051
0.000111802
2.46424e-05
3.06203e-05
0.000120118
0.00019086
0.000230823
0.00024834
0.000248336
0.000230751
0.000192577
0.000122636
2.94784e-05
2.94791e-05
0.000122644
0.000192578
0.000230753
0.000248336
0.000248338
0.00023082
0.000190851
0.000120108
3.06198e-05
2.46427e-05
0.000111802
0.000177054
0.000213761
0.000230846
0.000230755
0.000213749
0.000174225
0.000107694
2.77202e-05
2.00005e-05
8.78252e-05
0.000141062
0.000174237
0.000190893
0.000192548
0.000177063
0.000141063
8.55319e-05
2.15601e-05
1.43411e-05
5.17665e-05
8.55343e-05
0.000107698
0.000120115
0.00012269
0.000111834
8.78355e-05
5.17714e-05
1.36895e-05
7.77606e-06
1.36896e-05
2.15589e-05
2.77182e-05
3.06173e-05
2.94823e-05
2.46437e-05
2.00006e-05
1.43427e-05
7.77626e-06
)
;
    }
    walls
    {
        type            nutkWallFunction;
        blending        stepwise;
        value           uniform 0;
    }
    ami2
    {
        type            cyclicAMI;
        value           nonuniform List<scalar> 
12
(
8.01065e-06
1.18451e-05
1.89871e-05
1.4159e-05
3.8032e-05
7.0564e-05
1.94654e-05
6.69229e-05
0.000117338
2.33852e-05
8.95841e-05
0.00015132
)
;
    }
    outlet
    {
        type            calculated;
        value           nonuniform List<scalar> 0();
    }
    procBoundary2to0
    {
        type            processor;
        value           nonuniform List<scalar> 
28
(
4.3266e-06
9.0059e-06
1.39895e-05
1.98107e-05
1.91633e-05
1.39895e-05
1.85502e-05
8.99291e-06
1.39967e-05
2.48294e-05
5.64541e-05
5.33667e-05
8.8276e-05
8.42638e-05
5.64541e-05
8.03239e-05
1.39967e-05
5.33667e-05
0.0001496
0.000142404
9.81775e-05
0.00013597
1.80689e-05
7.30556e-05
0.000189531
0.000180482
0.000128003
0.000172412
)
;
    }
    procBoundary2to1
    {
        type            processor;
        value           nonuniform List<scalar> 9(2.32369e-05 2.23198e-05 2.14965e-05 0.00010068 9.55138e-05 9.07104e-05 0.000168234 0.000160398 0.000153165);
    }
    procBoundary2to3
    {
        type            processor;
        value           nonuniform List<scalar> 
110
(
6.75936e-06
1.6293e-05
2.52484e-05
3.26053e-05
3.66624e-05
3.66597e-05
3.66597e-05
3.46312e-05
2.67724e-05
1.72614e-05
7.02388e-06
1.62904e-05
9.38368e-05
0.000138126
0.000165502
0.000178682
0.000178655
0.000178655
0.000177031
0.000148351
0.000102118
1.72624e-05
2.52435e-05
0.000138083
0.000212483
0.000253796
0.000273121
0.000273109
0.000273109
0.000269689
0.000226453
0.000148378
2.67754e-05
3.25998e-05
0.000165449
0.000253778
0.000303591
0.000326941
0.000326938
0.000326938
0.000321885
0.000269701
0.000177064
3.46347e-05
3.66598e-05
0.000178657
0.000273111
0.000326938
0.000352313
0.000352313
0.000352313
0.000346334
0.000289954
0.00019093
3.89545e-05
3.66624e-05
0.000178682
0.000273121
0.000326941
0.000352313
0.000352313
0.000352313
0.000346332
0.000289947
0.000190914
3.89529e-05
3.26053e-05
0.000165501
0.000253795
0.000303591
0.000326938
0.000326941
0.000326941
0.000321885
0.000269689
0.000177031
3.46312e-05
2.52484e-05
0.000138125
0.000212481
0.000253777
0.000273111
0.000273121
0.000273121
0.0002697
0.000226453
0.000148351
2.67724e-05
1.6293e-05
9.38362e-05
0.000138082
0.000165449
0.000178657
0.000178682
0.000178682
0.000177063
0.000148377
0.000102118
1.72614e-05
6.75934e-06
1.62904e-05
2.52435e-05
3.25997e-05
3.66598e-05
3.66624e-05
3.66624e-05
3.46347e-05
2.67754e-05
1.72624e-05
7.02388e-06
)
;
    }
}


// ************************************************************************* //
