/*--------------------------------*- C++ -*----------------------------------*\
| =========                 |                                                 |
| \\      /  F ield         | OpenFOAM: The Open Source CFD Toolbox           |
|  \\    /   O peration     | Version:  2212                                  |
|   \\  /    A nd           | Website:  www.openfoam.com                      |
|    \\/     M anipulation  |                                                 |
\*---------------------------------------------------------------------------*/
FoamFile
{
    version     2.0;
    format      ascii;
    arch        "LSB;label=32;scalar=64";
    class       volScalarField;
    location    "1.4";
    object      p;
}
// * * * * * * * * * * * * * * * * * * * * * * * * * * * * * * * * * * * * * //

dimensions      [0 2 -2 0 0 0 0];

internalField   nonuniform List<scalar> 
680
(
0.00593889
0.00578485
0.00563211
0.00548015
0.00532387
0.00512505
0.00594551
0.00578831
0.00562996
0.00546398
0.00527328
0.00502086
0.00592645
0.00576747
0.00560497
0.00543572
0.00525771
0.00506374
0.00593219
0.00577692
0.00562113
0.00546496
0.00531064
0.00516032
0.00593021
0.00577911
0.00562968
0.00548248
0.00533859
0.00520079
0.00593637
0.00578865
0.00564426
0.00550384
0.00536568
0.00523199
0.00609701
0.00594768
0.00580181
0.00566077
0.00552581
0.00539547
0.00526921
0.0060951
0.00594468
0.00579805
0.00565691
0.00552325
0.00539967
0.00529288
0.00610959
0.0059567
0.00580768
0.00566267
0.00552155
0.00538695
0.00526222
0.00609358
0.00593888
0.00578484
0.0056321
0.00548012
0.0053238
0.00512481
0.00595673
0.0058077
0.0056627
0.0055216
0.00538704
0.0052624
0.00598782
0.00583041
0.00567565
0.0055247
0.00538814
0.00529029
0.00594821
0.00578713
0.00562676
0.00546689
0.00530929
0.00516262
0.00594703
0.00578791
0.00562948
0.00547144
0.00531323
0.00515773
0.00593792
0.00578335
0.00563142
0.00548233
0.00533646
0.00519359
0.00594603
0.00579517
0.00564818
0.00550659
0.00537107
0.00523717
0.00611838
0.00596348
0.00581358
0.0056691
0.00553131
0.00540097
0.00527297
0.00611954
0.00596271
0.00581057
0.00566412
0.00552533
0.0053969
0.00528569
0.0061476
0.00598783
0.00583042
0.00567567
0.00552471
0.00538817
0.00529036
0.0061034
0.00594553
0.00578834
0.00562998
0.00546399
0.00527326
0.0050207
0.0059447
0.00579807
0.00565693
0.00552328
0.00539972
0.00529293
0.00596269
0.00581056
0.00566409
0.00552529
0.00539682
0.00528554
0.00591248
0.00575566
0.00560168
0.00545096
0.00530424
0.00515934
0.00589042
0.0057334
0.00557833
0.00542461
0.00527242
0.00511925
0.00587703
0.0057217
0.00556922
0.00541863
0.00526942
0.00511817
0.00588076
0.00572714
0.00557646
0.00542834
0.00528288
0.00513381
0.00605488
0.00589725
0.005743
0.00559138
0.00544345
0.00529971
0.00515245
0.0060728
0.00591253
0.00575571
0.00560174
0.00545105
0.00530435
0.0051595
0.00611074
0.00594826
0.00578718
0.00562682
0.00546698
0.00530945
0.0051629
0.00608414
0.00592649
0.00576751
0.00560503
0.0054358
0.00525782
0.00506394
0.00594769
0.00580182
0.00566078
0.00552581
0.00539546
0.00526919
0.00596347
0.00581357
0.00566908
0.00553129
0.00540092
0.00527288
0.00589722
0.00574297
0.00559136
0.00544343
0.00529969
0.00515243
0.00586239
0.00570743
0.00555457
0.00540359
0.00525493
0.00510262
0.00584522
0.00569073
0.00553859
0.00538886
0.00524295
0.00509424
0.0058462
0.00569209
0.00554022
0.00539043
0.00524393
0.00509397
0.00602015
0.00586242
0.00570746
0.0055546
0.0054036
0.00525494
0.0051026
0.0060503
0.00589047
0.00573346
0.0055784
0.00542468
0.00527249
0.00511931
0.00610756
0.00594709
0.00578798
0.00562955
0.00547152
0.00531331
0.00515778
0.00608741
0.00593224
0.00577698
0.00562119
0.00546504
0.00531073
0.00516043
0.00593638
0.00578865
0.00564426
0.00550384
0.00536568
0.00523197
0.00594603
0.00579518
0.00564819
0.0055066
0.00537109
0.00523719
0.00588077
0.00572715
0.00557648
0.00542838
0.00528295
0.00513391
0.00584619
0.00569209
0.00554022
0.00539046
0.00524397
0.00509404
0.00582694
0.00567299
0.00552145
0.00537259
0.00522813
0.00508313
0.00582695
0.005673
0.00552146
0.0053726
0.00522813
0.00508312
0.00600264
0.00584525
0.00569077
0.00553863
0.0053889
0.00524298
0.00509427
0.00603625
0.00587709
0.00572176
0.0055693
0.00541871
0.00526951
0.00511828
0.00609492
0.00593798
0.00578342
0.00563149
0.00548242
0.00533655
0.00519369
0.00608272
0.00593028
0.00577918
0.00562975
0.00548257
0.00533868
0.00520089
0.00593024
0.00577913
0.00562971
0.00548251
0.00533862
0.00520082
0.00593795
0.00578338
0.00563145
0.00548238
0.00533652
0.00519366
0.00587706
0.00572173
0.00556926
0.00541868
0.00526948
0.00511825
0.00584524
0.00569075
0.00553862
0.00538888
0.00524298
0.00509427
0.00582695
0.005673
0.00552147
0.0053726
0.00522814
0.00508313
0.00582696
0.00567301
0.00552147
0.00537261
0.00522814
0.00508314
0.00600327
0.00584623
0.00569213
0.00554026
0.00539048
0.00524399
0.00509405
0.00603874
0.00588082
0.0057272
0.00557652
0.00542842
0.00528298
0.00513392
0.00610017
0.00594609
0.00579524
0.00564825
0.00550666
0.00537115
0.00523723
0.0060866
0.00593644
0.00578872
0.00564434
0.00550394
0.0053658
0.00523213
0.00593224
0.00577697
0.00562118
0.00546502
0.00531071
0.00516041
0.00594708
0.00578797
0.00562954
0.00547151
0.00531332
0.00515784
0.00589046
0.00573345
0.00557839
0.00542468
0.0052725
0.00511934
0.00586242
0.00570747
0.00555461
0.00540363
0.00525498
0.00510267
0.00584622
0.00569212
0.00554025
0.00539048
0.00524399
0.00509407
0.00584525
0.00569077
0.00553864
0.00538891
0.00524301
0.00509431
0.00602017
0.00586244
0.00570748
0.00555463
0.00540365
0.005255
0.0051027
0.00605491
0.00589728
0.00574304
0.00559142
0.0054435
0.00529976
0.00515252
0.00611843
0.00596353
0.00581364
0.00566916
0.00553137
0.00540101
0.00527297
0.00609706
0.00594775
0.00580189
0.00566086
0.00552592
0.0053956
0.00526938
0.00592651
0.00576753
0.00560504
0.0054358
0.0052578
0.00506384
0.00594826
0.0057872
0.00562684
0.00546697
0.00530939
0.00516273
0.00591254
0.00575572
0.00560174
0.00545104
0.00530432
0.00515943
0.00589726
0.00574302
0.0055914
0.00544348
0.00529974
0.00515248
0.0058808
0.00572718
0.00557651
0.00542841
0.00528298
0.00513395
0.00587708
0.00572175
0.0055693
0.00541874
0.00526956
0.00511839
0.0060503
0.00589048
0.00573347
0.00557841
0.00542471
0.00527255
0.00511944
0.00607282
0.00591255
0.00575573
0.00560175
0.00545106
0.00530436
0.00515951
0.00611957
0.00596275
0.00581062
0.00566417
0.00552537
0.00539691
0.00528566
0.00609515
0.00594474
0.00579813
0.005657
0.00552336
0.00539982
0.00529307
0.00594557
0.00578838
0.00563003
0.00546405
0.00527337
0.00502095
0.00598788
0.00583048
0.00567573
0.00552478
0.00538824
0.00529041
0.00596275
0.00581062
0.00566417
0.00552538
0.00539692
0.00528564
0.00596352
0.00581363
0.00566915
0.00553136
0.005401
0.00527295
0.00594607
0.00579522
0.00564824
0.00550665
0.00537114
0.00523723
0.00593797
0.0057834
0.00563148
0.00548241
0.00533656
0.00519373
0.00610755
0.00594708
0.00578796
0.00562953
0.0054715
0.00531331
0.00515782
0.00611075
0.00594826
0.00578719
0.00562682
0.00546695
0.00530937
0.00516272
0.00614762
0.00598786
0.00583046
0.00567571
0.00552475
0.00538819
0.00529032
0.00610963
0.00595675
0.00580774
0.00566275
0.00552166
0.0053871
0.00526244
0.00593894
0.00578491
0.00563218
0.00548022
0.00532395
0.00512515
0.00595678
0.00580776
0.00566277
0.00552168
0.00538714
0.00526252
0.00594475
0.00579813
0.005657
0.00552337
0.00539983
0.00529309
0.00594774
0.00580187
0.00566084
0.0055259
0.00539558
0.00526936
0.00593641
0.0057887
0.00564431
0.00550391
0.00536576
0.00523209
0.00593025
0.00577915
0.00562972
0.00548252
0.00533862
0.00520079
0.0060874
0.00593223
0.00577695
0.00562116
0.00546499
0.00531065
0.00516029
0.00608414
0.00592649
0.00576751
0.00560502
0.00543576
0.00525774
0.00506374
0.00610341
0.00594554
0.00578836
0.00563
0.00546402
0.0052733
0.0050208
0.0060936
0.00593891
0.00578488
0.00563216
0.00548019
0.0053239
0.00512502
0.00535768
0.00488445
0.00458956
0.00445717
0.00519724
0.0048689
0.00463437
0.00450189
0.00503189
0.0048616
0.00466997
0.00537422
0.00493719
0.0045902
0.0044236
0.00512709
0.00486955
0.00464896
0.00449055
0.00496961
0.00479504
0.00464218
0.00527874
0.00497918
0.00468808
0.00507907
0.00490475
0.00472101
0.00492798
0.00478619
0.00466204
0.00517192
0.00495176
0.0047193
0.00504714
0.00490259
0.00474934
0.00493536
0.00479423
0.00467029
)
;

boundaryField
{
    inlet
    {
        type            zeroGradient;
    }
    ami1
    {
        type            cyclicAMI;
        value           nonuniform List<scalar> 
100
(
0.0051671
0.00502519
0.00502841
0.0050859
0.00512761
0.00517461
0.00523137
0.00527415
0.00525816
0.00516686
0.00525831
0.00515651
0.00505054
0.00507178
0.00509384
0.0051182
0.0051392
0.00514637
0.00515657
0.00502501
0.00527418
0.0051462
0.0050274
0.00501097
0.00501944
0.00502579
0.00502988
0.0050276
0.00505086
0.00502861
0.00523133
0.00513912
0.00502987
0.00499029
0.00498155
0.00498226
0.00499026
0.00501103
0.00507185
0.005086
0.00517457
0.00511823
0.00502591
0.00498234
0.00496454
0.00496453
0.00498158
0.00501956
0.00509393
0.00512771
0.00512764
0.00509391
0.00501953
0.00498158
0.00496455
0.00496455
0.00498234
0.00502589
0.00511823
0.00517478
0.005086
0.00507191
0.00501107
0.00499033
0.00498236
0.00498163
0.00499038
0.00502994
0.00513917
0.00523159
0.00502851
0.00505067
0.00502749
0.00502988
0.00502593
0.00501968
0.00501119
0.00502762
0.00514634
0.00527436
0.00502527
0.00515665
0.0051463
0.00513914
0.00511823
0.00509399
0.0050719
0.0050507
0.00515654
0.00525834
0.00516722
0.00525848
0.0052744
0.00523156
0.00517473
0.00512762
0.00508586
0.00502838
0.00502503
0.005167
)
;
    }
    walls
    {
        type            zeroGradient;
    }
    ami2
    {
        type            cyclicAMI;
        value           nonuniform List<scalar> 
12
(
0.00529547
0.00519014
0.00506026
0.00533032
0.00520482
0.0051175
0.00527716
0.00517981
0.0050794
0.00520855
0.0051528
0.00506695
)
;
    }
    outlet
    {
        type            fixedValue;
        value           nonuniform List<scalar> 0();
    }
    procBoundary2to0
    {
        type            processor;
        value           nonuniform List<scalar> 
28
(
0.0043372
0.00437213
0.00451351
0.0049908
0.00485162
0.00451351
0.00468213
0.00429943
0.00448527
0.00434779
0.0044886
0.004545
0.00492671
0.00477901
0.0044886
0.00464062
0.00448527
0.004545
0.00487449
0.00473197
0.00450707
0.00461314
0.00452586
0.00458228
0.00488519
0.00473568
0.0045206
0.00461089
)
;
    }
    procBoundary2to1
    {
        type            processor;
        value           nonuniform List<scalar> 9(0.00508901 0.00490101 0.00470578 0.00501599 0.00486573 0.004723 0.00493732 0.00478441 0.00465044);
    }
    procBoundary2to3
    {
        type            processor;
        value           nonuniform List<scalar> 
110
(
0.00609357
0.00610337
0.0060841
0.00608736
0.00608266
0.00608654
0.00608654
0.00624893
0.00624887
0.00626487
0.00624828
0.0061096
0.00614758
0.0061107
0.00610751
0.00609486
0.00610012
0.00610012
0.00627793
0.00628126
0.00631003
0.00626147
0.00609511
0.00611952
0.00607276
0.00605025
0.0060362
0.0060387
0.0060387
0.00621696
0.00623732
0.00627587
0.00624219
0.00609701
0.00611837
0.00605485
0.00602012
0.00600261
0.00600324
0.00600324
0.00618132
0.00621383
0.00627044
0.00624295
0.00608655
0.00610012
0.0060387
0.00600324
0.00598378
0.00598378
0.00598378
0.00616326
0.00619965
0.0062546
0.00623599
0.00608269
0.00609489
0.00603623
0.00600263
0.00598379
0.00598379
0.00598379
0.00616369
0.00620141
0.00625797
0.00623839
0.00608741
0.00610755
0.00605029
0.00602015
0.00600326
0.00600264
0.00600264
0.00618134
0.00621699
0.00627798
0.00624898
0.00608415
0.00611075
0.00607281
0.00605489
0.00603873
0.00603625
0.00603625
0.00621383
0.00623734
0.00628128
0.00624891
0.00610343
0.00614764
0.00611957
0.00611841
0.00610016
0.00609491
0.00609491
0.00627043
0.00627588
0.00631005
0.00626491
0.00609362
0.00610965
0.00609516
0.00609705
0.00608658
0.0060827
0.0060827
0.00624295
0.00624219
0.00626148
0.0062483
)
;
    }
}


// ************************************************************************* //
