/*--------------------------------*- C++ -*----------------------------------*\
| =========                 |                                                 |
| \\      /  F ield         | OpenFOAM: The Open Source CFD Toolbox           |
|  \\    /   O peration     | Version:  2212                                  |
|   \\  /    A nd           | Website:  www.openfoam.com                      |
|    \\/     M anipulation  |                                                 |
\*---------------------------------------------------------------------------*/
FoamFile
{
    version     2.0;
    format      ascii;
    arch        "LSB;label=32;scalar=64";
    class       surfaceScalarField;
    location    "0.35";
    object      phi;
}
// * * * * * * * * * * * * * * * * * * * * * * * * * * * * * * * * * * * * * //

dimensions      [0 3 -1 0 0 0 0];

oriented        oriented;

internalField   nonuniform List<scalar> 
1815
(
9.30245e-08
-3.46296e-08
3.46223e-08
9.30371e-08
-3.46608e-08
3.46481e-08
9.30536e-08
-3.46835e-08
3.4667e-08
9.30719e-08
-3.47001e-08
3.46818e-08
9.30916e-08
-3.47116e-08
3.46919e-08
9.31118e-08
-3.47187e-08
3.46986e-08
9.31315e-08
-3.47229e-08
3.47032e-08
9.31502e-08
-3.4725e-08
3.47063e-08
9.31679e-08
-3.47257e-08
3.47081e-08
9.31848e-08
-3.47257e-08
3.47087e-08
-3.47251e-08
3.4709e-08
2.85759e-07
-6.55748e-08
3.0973e-08
2.85762e-07
-6.5592e-08
3.09278e-08
2.85786e-07
-6.56044e-08
3.08968e-08
2.85823e-07
-6.56117e-08
3.08745e-08
2.85868e-07
-6.56151e-08
3.08593e-08
2.85915e-07
-6.56154e-08
3.08493e-08
2.85962e-07
-6.56133e-08
3.08432e-08
2.86007e-07
-6.56094e-08
3.08397e-08
2.86048e-07
-6.56044e-08
3.0837e-08
2.86087e-07
-6.5599e-08
3.08343e-08
-6.5593e-08
3.08324e-08
5.25961e-07
-9.04643e-08
2.51688e-08
5.25805e-07
-9.05363e-08
2.51004e-08
5.25732e-07
-9.05851e-08
2.50528e-08
5.25714e-07
-9.06161e-08
2.50224e-08
5.2573e-07
-9.0634e-08
2.50035e-08
5.25764e-07
-9.06421e-08
2.49922e-08
5.25808e-07
-9.06444e-08
2.4987e-08
5.25856e-07
-9.06426e-08
2.49857e-08
5.25903e-07
-9.06384e-08
2.49865e-08
5.2595e-07
-9.06332e-08
2.49877e-08
-9.0627e-08
2.49902e-08
7.30432e-07
-1.07852e-07
1.78084e-08
7.30172e-07
-1.07997e-07
1.77204e-08
7.30026e-07
-1.08096e-07
1.76577e-08
7.29956e-07
-1.08162e-07
1.7615e-08
7.29937e-07
-1.08202e-07
1.75879e-08
7.29948e-07
-1.08226e-07
1.75731e-08
7.29977e-07
-1.08239e-07
1.75662e-08
7.30015e-07
-1.08245e-07
1.75649e-08
7.30057e-07
-1.08247e-07
1.75668e-08
7.301e-07
-1.08246e-07
1.75695e-08
-1.08243e-07
1.75739e-08
8.54184e-07
9.17035e-09
8.54077e-07
9.11431e-09
8.54026e-07
9.07451e-09
8.54014e-07
9.04645e-09
8.54029e-07
9.02991e-09
8.54059e-07
9.02167e-09
8.541e-07
9.01946e-09
8.54143e-07
9.022e-09
8.54186e-07
9.02741e-09
8.54228e-07
9.03333e-09
9.04025e-09
2.72749e-07
-3.08022e-08
6.54033e-08
2.72781e-07
-3.08144e-08
6.54302e-08
2.72821e-07
-3.08241e-08
6.54514e-08
2.72865e-07
-3.0832e-08
6.54699e-08
2.72912e-07
-3.08392e-08
6.54838e-08
2.72961e-07
-3.08449e-08
6.54949e-08
2.73009e-07
-3.08488e-08
6.55042e-08
2.73054e-07
-3.08518e-08
6.55125e-08
2.73097e-07
-3.08545e-08
6.55197e-08
2.73138e-07
-3.08575e-08
6.55259e-08
-3.08599e-08
6.55316e-08
5.79302e-07
-5.79196e-08
5.82108e-08
5.79238e-07
-5.79586e-08
5.8136e-08
5.79211e-07
-5.79882e-08
5.80876e-08
5.79209e-07
-5.8011e-08
5.80556e-08
5.79223e-07
-5.80282e-08
5.80349e-08
5.79246e-07
-5.80397e-08
5.80211e-08
5.79274e-07
-5.80469e-08
5.80132e-08
5.79304e-07
-5.8051e-08
5.8009e-08
5.79334e-07
-5.80538e-08
5.80059e-08
5.79365e-07
-5.80567e-08
5.80025e-08
-5.80584e-08
5.80002e-08
8.40922e-07
-7.96323e-08
4.73111e-08
8.40639e-07
-7.97499e-08
4.71748e-08
8.40455e-07
-7.98322e-08
4.70805e-08
8.40339e-07
-7.98897e-08
4.70167e-08
8.40269e-07
-7.99293e-08
4.69748e-08
8.4023e-07
-7.99554e-08
4.69473e-08
8.4021e-07
-7.99715e-08
4.69314e-08
8.40203e-07
-7.99806e-08
4.69228e-08
8.40203e-07
-7.99856e-08
4.6918e-08
8.4021e-07
-7.99896e-08
4.69139e-08
-7.99914e-08
4.69122e-08
1.04589e-06
-9.47362e-08
3.3409e-08
1.04554e-06
-9.49357e-08
3.32537e-08
1.0453e-06
-9.50776e-08
3.31443e-08
1.04514e-06
-9.51776e-08
3.30685e-08
1.04503e-06
-9.52465e-08
3.3017e-08
1.04495e-06
-9.52927e-08
3.29842e-08
1.0449e-06
-9.53223e-08
3.29652e-08
1.04487e-06
-9.53406e-08
3.29555e-08
1.04486e-06
-9.53517e-08
3.29509e-08
1.04485e-06
-9.53593e-08
3.29473e-08
-9.53637e-08
3.2947e-08
1.1701e-06
1.72574e-08
1.16992e-06
1.71539e-08
1.1698e-06
1.70792e-08
1.1697e-06
1.70244e-08
1.16963e-06
1.69879e-08
1.16958e-06
1.69652e-08
1.16954e-06
1.69531e-08
1.16952e-06
1.69487e-08
1.1695e-06
1.69478e-08
1.16949e-06
1.69463e-08
1.69475e-08
4.89479e-07
-2.51001e-08
9.04192e-08
4.89556e-07
-2.50907e-08
9.04441e-08
4.89629e-07
-2.50863e-08
9.04648e-08
4.897e-07
-2.50841e-08
9.04827e-08
4.89771e-07
-2.50831e-08
9.04961e-08
4.89841e-07
-2.50817e-08
9.05069e-08
4.89908e-07
-2.50796e-08
9.05171e-08
4.8997e-07
-2.5077e-08
9.05267e-08
4.90029e-07
-2.50746e-08
9.05359e-08
4.90084e-07
-2.50732e-08
9.05441e-08
-2.50709e-08
9.05521e-08
8.21651e-07
-4.69571e-08
8.01072e-08
8.21632e-07
-4.69721e-08
8.00363e-08
8.21627e-07
-4.6984e-08
7.99907e-08
8.2163e-07
-4.69937e-08
7.99616e-08
8.2164e-07
-4.70015e-08
7.99435e-08
8.21653e-07
-4.70065e-08
7.9933e-08
8.21668e-07
-4.7009e-08
7.99279e-08
8.21683e-07
-4.70095e-08
7.99261e-08
8.21699e-07
-4.70098e-08
7.99253e-08
8.21716e-07
-4.70116e-08
7.99235e-08
-4.7012e-08
7.99229e-08
1.0771e-06
-6.43461e-08
6.49925e-08
1.0769e-06
-6.44334e-08
6.48425e-08
1.07675e-06
-6.44962e-08
6.47376e-08
1.07665e-06
-6.4541e-08
6.46659e-08
1.07658e-06
-6.45726e-08
6.46176e-08
1.07653e-06
-6.4594e-08
6.45863e-08
1.07649e-06
-6.46074e-08
6.45672e-08
1.07646e-06
-6.46151e-08
6.45561e-08
1.07644e-06
-6.46202e-08
6.4549e-08
1.07643e-06
-6.46256e-08
6.45424e-08
-6.46285e-08
6.45385e-08
1.27354e-06
-7.64361e-08
4.58434e-08
1.27328e-06
-7.65866e-08
4.56687e-08
1.27308e-06
-7.6697e-08
4.55428e-08
1.27293e-06
-7.67766e-08
4.54535e-08
1.27282e-06
-7.68332e-08
4.53917e-08
1.27273e-06
-7.68723e-08
4.53504e-08
1.27266e-06
-7.68983e-08
4.53243e-08
1.27261e-06
-7.69151e-08
4.53087e-08
1.27257e-06
-7.69265e-08
4.52988e-08
1.27254e-06
-7.69361e-08
4.52904e-08
-7.69413e-08
4.52864e-08
1.39479e-06
2.37312e-08
1.39467e-06
2.36034e-08
1.39456e-06
2.3508e-08
1.39447e-06
2.34377e-08
1.39438e-06
2.33879e-08
1.39431e-06
2.33541e-08
1.39425e-06
2.33328e-08
1.3942e-06
2.33202e-08
1.39416e-06
2.33117e-08
1.39412e-06
2.33043e-08
2.3303e-08
6.87894e-07
-1.78079e-08
1.07958e-07
6.8809e-07
-1.77712e-08
1.08019e-07
6.88239e-07
-1.77481e-08
1.08064e-07
6.8836e-07
-1.77332e-08
1.08095e-07
6.88463e-07
-1.77235e-08
1.08117e-07
6.88553e-07
-1.77161e-08
1.08133e-07
6.88633e-07
-1.77091e-08
1.08146e-07
6.88705e-07
-1.77021e-08
1.08157e-07
6.8877e-07
-1.76958e-08
1.08167e-07
6.8883e-07
-1.76911e-08
1.08176e-07
-1.76857e-08
1.08183e-07
1.01901e-06
-3.31639e-08
9.526e-08
1.01915e-06
-3.31387e-08
9.52643e-08
1.01924e-06
-3.3124e-08
9.5271e-08
1.01931e-06
-3.31151e-08
9.52779e-08
1.01936e-06
-3.31097e-08
9.52846e-08
1.01939e-06
-3.31052e-08
9.5291e-08
1.01941e-06
-3.31004e-08
9.52973e-08
1.01942e-06
-3.30949e-08
9.53032e-08
1.01944e-06
-3.30905e-08
9.5308e-08
1.01945e-06
-3.30891e-08
9.53104e-08
-3.30863e-08
9.53123e-08
1.26257e-06
-4.52847e-08
7.71052e-08
1.26256e-06
-4.53186e-08
7.70287e-08
1.26255e-06
-4.53465e-08
7.69751e-08
1.26253e-06
-4.53676e-08
7.6939e-08
1.2625e-06
-4.53831e-08
7.6915e-08
1.26248e-06
-4.53935e-08
7.69003e-08
1.26245e-06
-4.53994e-08
7.68921e-08
1.26242e-06
-4.54018e-08
7.68878e-08
1.2624e-06
-4.54035e-08
7.6885e-08
1.26238e-06
-4.54069e-08
7.68813e-08
-4.54078e-08
7.68796e-08
1.44791e-06
-5.37035e-08
5.43073e-08
1.44786e-06
-5.37844e-08
5.41891e-08
1.4478e-06
-5.38468e-08
5.41024e-08
1.44774e-06
-5.38938e-08
5.40403e-08
1.44768e-06
-5.39281e-08
5.39969e-08
1.44762e-06
-5.39524e-08
5.39674e-08
1.44757e-06
-5.39686e-08
5.39484e-08
1.44752e-06
-5.3979e-08
5.39365e-08
1.44747e-06
-5.39865e-08
5.39285e-08
1.44743e-06
-5.39933e-08
5.39218e-08
-5.39972e-08
5.39184e-08
1.56384e-06
2.81133e-08
1.56387e-06
2.80128e-08
1.56386e-06
2.79365e-08
1.56383e-06
2.7879e-08
1.56379e-06
2.78371e-08
1.56374e-06
2.78078e-08
1.56368e-06
2.77882e-08
1.56363e-06
2.77755e-08
1.56358e-06
2.77666e-08
1.56352e-06
2.77594e-08
2.77569e-08
8.27307e-07
-9.3293e-09
1.16906e-07
8.27577e-07
-9.28376e-09
1.17033e-07
8.27775e-07
-9.25517e-09
1.17121e-07
8.27926e-07
-9.23704e-09
1.17181e-07
8.28047e-07
-9.22499e-09
1.17221e-07
8.28147e-07
-9.21516e-09
1.17248e-07
8.28233e-07
-9.20578e-09
1.17266e-07
8.28307e-07
-9.19639e-09
1.17279e-07
8.28372e-07
-9.18745e-09
1.17289e-07
8.28431e-07
-9.18015e-09
1.17297e-07
-9.17243e-09
1.17303e-07
1.15206e-06
-1.72389e-08
1.0283e-07
1.15229e-06
-1.72047e-08
1.02953e-07
1.15244e-06
-1.71829e-08
1.03043e-07
1.15255e-06
-1.71693e-08
1.03108e-07
1.15261e-06
-1.71607e-08
1.03155e-07
1.15265e-06
-1.71531e-08
1.03189e-07
1.15267e-06
-1.71452e-08
1.03213e-07
1.15269e-06
-1.71369e-08
1.03229e-07
1.1527e-06
-1.71298e-08
1.03241e-07
1.15271e-06
-1.71259e-08
1.03248e-07
-1.71205e-08
1.03253e-07
1.38535e-06
-2.33989e-08
8.30602e-08
1.38548e-06
-2.34122e-08
8.31062e-08
1.38555e-06
-2.34252e-08
8.31421e-08
1.38559e-06
-2.3437e-08
8.31697e-08
1.3856e-06
-2.34467e-08
8.31906e-08
1.38559e-06
-2.34526e-08
8.32067e-08
1.38558e-06
-2.34551e-08
8.3219e-08
1.38555e-06
-2.34551e-08
8.32282e-08
1.38553e-06
-2.3455e-08
8.32345e-08
1.3855e-06
-2.34568e-08
8.32378e-08
-2.34551e-08
8.32406e-08
1.56105e-06
-2.76774e-08
5.84116e-08
1.56115e-06
-2.7723e-08
5.83947e-08
1.56121e-06
-2.77596e-08
5.83834e-08
1.56122e-06
-2.77887e-08
5.83761e-08
1.56121e-06
-2.78108e-08
5.83717e-08
1.56118e-06
-2.78266e-08
5.83694e-08
1.56115e-06
-2.7837e-08
5.83687e-08
1.5611e-06
-2.78435e-08
5.83689e-08
1.56105e-06
-2.78483e-08
5.83691e-08
1.561e-06
-2.7853e-08
5.83689e-08
-2.78548e-08
5.83693e-08
1.6716e-06
-2.99862e-08
3.01864e-08
1.67175e-06
-3.00137e-08
3.01508e-08
1.67184e-06
-3.00359e-08
3.01242e-08
1.67188e-06
-3.00534e-08
3.01042e-08
1.67188e-06
-3.00668e-08
3.00898e-08
1.67186e-06
-3.00766e-08
3.00798e-08
1.67182e-06
-3.00834e-08
3.00731e-08
1.67177e-06
-3.00881e-08
3.00689e-08
1.67172e-06
-3.00916e-08
3.0066e-08
1.67166e-06
-3.00947e-08
3.00637e-08
-3.00965e-08
3.00633e-08
1.70907e-06
7.91894e-11
1.70926e-06
5.34071e-11
1.70938e-06
3.32277e-11
1.70945e-06
1.72512e-11
1.70947e-06
5.0443e-12
1.70945e-06
-3.67616e-12
1.70942e-06
-9.54773e-12
1.70938e-06
-1.3483e-11
1.70932e-06
-1.62787e-11
1.70925e-06
-1.84225e-11
-1.85157e-11
8.86151e-07
-1.20374e-10
1.16827e-07
8.86301e-07
-1.13421e-10
1.16997e-07
8.8642e-07
-1.10785e-10
1.17113e-07
8.86518e-07
-1.10312e-10
1.17192e-07
8.86604e-07
-1.08693e-10
1.17244e-07
8.86681e-07
-1.0568e-10
1.17277e-07
8.86751e-07
-1.0078e-10
1.17298e-07
8.86814e-07
-9.39517e-11
1.1731e-07
8.86871e-07
-8.60403e-11
1.17318e-07
8.86924e-07
-7.84763e-11
1.17322e-07
-7.02659e-11
1.17324e-07
1.20509e-06
-4.85723e-11
1.02594e-07
1.2052e-06
-6.72549e-11
1.028e-07
1.20527e-06
-8.33844e-11
1.0295e-07
1.2053e-06
-9.61534e-11
1.03057e-07
1.20532e-06
-1.0447e-10
1.03132e-07
1.20533e-06
-1.08164e-10
1.03183e-07
1.20533e-06
-1.07446e-10
1.03218e-07
1.20533e-06
-1.03447e-10
1.03241e-07
1.20533e-06
-9.83385e-11
1.03255e-07
1.20533e-06
-9.48804e-11
1.03265e-07
-8.94653e-11
1.03271e-07
1.43194e-06
1.08909e-10
8.27724e-08
1.43202e-06
5.54928e-11
8.29119e-08
1.43205e-06
1.22895e-11
8.30162e-08
1.43205e-06
-2.12482e-11
8.30929e-08
1.43203e-06
-4.56139e-11
8.31484e-08
1.432e-06
-6.17136e-11
8.31878e-08
1.43197e-06
-7.10536e-11
8.32154e-08
1.43194e-06
-7.54714e-11
8.32341e-08
1.4319e-06
-7.76354e-11
8.3247e-08
1.43187e-06
-8.00842e-11
8.32564e-08
-7.85006e-11
8.32624e-08
1.60181e-06
1.75971e-10
5.81521e-08
1.60192e-06
1.15992e-10
5.82167e-08
1.60199e-06
6.79757e-11
5.82667e-08
1.602e-06
3.05569e-11
5.83049e-08
1.602e-06
2.57372e-12
5.83333e-08
1.60197e-06
-1.71513e-11
5.83541e-08
1.60192e-06
-3.03127e-11
5.83689e-08
1.60188e-06
-3.85407e-11
5.83793e-08
1.60183e-06
-4.4134e-11
5.83869e-08
1.60177e-06
-4.89699e-11
5.8393e-08
-5.04523e-11
5.8397e-08
1.70906e-06
8.85062e-11
2.99873e-08
1.70925e-06
6.11109e-11
3.00137e-08
1.70937e-06
3.90631e-11
3.0035e-08
1.70943e-06
2.19249e-11
3.00521e-08
1.70945e-06
9.12534e-12
3.00654e-08
1.70944e-06
1.0413e-13
3.00754e-08
1.7094e-06
-6.09312e-12
3.00826e-08
1.70936e-06
-1.01522e-11
3.00877e-08
1.7093e-06
-1.30066e-11
3.00916e-08
1.70923e-06
-1.55214e-11
3.00952e-08
-1.70408e-11
3.00975e-08
1.74584e-06
-8.4214e-11
1.74607e-06
-5.90186e-11
1.74622e-06
-3.8988e-11
1.7463e-06
-2.28756e-11
1.74634e-06
-1.04048e-11
1.74633e-06
-1.25125e-12
1.74631e-06
5.29215e-12
1.74626e-06
9.78148e-12
1.7462e-06
1.33054e-11
1.74614e-06
1.65912e-11
1.84457e-11
8.54163e-07
9.17472e-09
1.07846e-07
8.54047e-07
9.11994e-09
1.07993e-07
8.53987e-07
9.08075e-09
1.08092e-07
8.53969e-07
9.05269e-09
1.08158e-07
8.53977e-07
9.03507e-09
1.082e-07
8.54004e-07
9.0259e-09
1.08224e-07
8.54041e-07
9.02258e-09
1.08238e-07
8.54084e-07
9.02384e-09
1.08244e-07
8.54127e-07
9.02791e-09
1.08247e-07
8.5417e-07
9.03268e-09
1.08247e-07
9.03822e-09
1.08246e-07
1.17011e-06
1.72581e-08
9.47308e-08
1.16994e-06
1.71548e-08
9.49306e-08
1.16982e-06
1.70804e-08
9.50732e-08
1.16973e-06
1.70263e-08
9.51739e-08
1.16966e-06
1.699e-08
9.52434e-08
1.16961e-06
1.69674e-08
9.52901e-08
1.16958e-06
1.69552e-08
9.53203e-08
1.16955e-06
1.69508e-08
9.53389e-08
1.16953e-06
1.69505e-08
9.53498e-08
1.16953e-06
1.69505e-08
9.53561e-08
1.69524e-08
9.53584e-08
1.3948e-06
2.37346e-08
7.64311e-08
1.39468e-06
2.36062e-08
7.65814e-08
1.39458e-06
2.35102e-08
7.66924e-08
1.39448e-06
2.34397e-08
7.67729e-08
1.3944e-06
2.33899e-08
7.68303e-08
1.39433e-06
2.33563e-08
7.687e-08
1.39427e-06
2.33352e-08
7.68965e-08
1.39422e-06
2.33231e-08
7.69138e-08
1.39417e-06
2.33157e-08
7.69255e-08
1.39414e-06
2.33099e-08
7.69351e-08
2.33089e-08
7.69407e-08
1.56384e-06
2.81204e-08
5.37021e-08
1.56386e-06
2.80187e-08
5.37827e-08
1.56386e-06
2.79409e-08
5.3845e-08
1.56383e-06
2.78826e-08
5.38921e-08
1.56378e-06
2.78404e-08
5.39268e-08
1.56373e-06
2.78109e-08
5.39513e-08
1.56367e-06
2.77913e-08
5.39679e-08
1.56362e-06
2.77789e-08
5.39789e-08
1.56356e-06
2.77705e-08
5.3987e-08
1.56351e-06
2.77638e-08
5.39945e-08
2.77609e-08
5.3999e-08
1.6716e-06
3.01946e-08
2.76792e-08
1.67175e-06
3.01575e-08
2.7724e-08
1.67183e-06
3.01291e-08
2.77599e-08
1.67187e-06
3.01081e-08
2.77887e-08
1.67187e-06
3.0093e-08
2.78107e-08
1.67185e-06
3.00826e-08
2.78267e-08
1.67181e-06
3.00758e-08
2.78374e-08
1.67176e-06
3.00716e-08
2.78443e-08
1.67171e-06
3.00687e-08
2.78497e-08
1.67164e-06
3.00663e-08
2.78551e-08
3.00648e-08
2.78574e-08
1.70906e-06
-1.70319e-10
1.70926e-06
-1.12151e-10
1.70938e-06
-6.60665e-11
1.70944e-06
-2.94727e-11
1.70946e-06
-1.77183e-12
1.70944e-06
1.80424e-11
1.70941e-06
3.12836e-11
1.70936e-06
3.97604e-11
1.70931e-06
4.61974e-11
1.70924e-06
5.21474e-11
5.40903e-11
7.30421e-07
1.78114e-08
9.04602e-08
7.30157e-07
1.77235e-08
9.05333e-08
7.30005e-07
1.7661e-08
9.05827e-08
7.29931e-07
1.76182e-08
9.0614e-08
7.29908e-07
1.75909e-08
9.0632e-08
7.29917e-07
1.75757e-08
9.06402e-08
7.29944e-07
1.75681e-08
9.06424e-08
7.29982e-07
1.75657e-08
9.06407e-08
7.30025e-07
1.75664e-08
9.06367e-08
7.30072e-07
1.75682e-08
9.06317e-08
7.30117e-07
1.75721e-08
9.06282e-08
1.75804e-08
9.06216e-08
1.0459e-06
3.34116e-08
7.96274e-08
1.04555e-06
3.32564e-08
7.97452e-08
1.04531e-06
3.31467e-08
7.98281e-08
1.04514e-06
3.30705e-08
7.98863e-08
1.04503e-06
3.30189e-08
7.99265e-08
1.04496e-06
3.2986e-08
7.99531e-08
1.04491e-06
3.29669e-08
7.99694e-08
1.04488e-06
3.29572e-08
7.99784e-08
1.04486e-06
3.29531e-08
7.99829e-08
1.04485e-06
3.29511e-08
7.99846e-08
1.04485e-06
3.29533e-08
7.99809e-08
7.99785e-08
1.27355e-06
4.58454e-08
6.43405e-08
1.27329e-06
4.56711e-08
6.44276e-08
1.27309e-06
4.55451e-08
6.44909e-08
1.27295e-06
4.54555e-08
6.45367e-08
1.27283e-06
4.53934e-08
6.45693e-08
1.27274e-06
4.53521e-08
6.45913e-08
1.27268e-06
4.53262e-08
6.46052e-08
1.27262e-06
4.53109e-08
6.46132e-08
1.27258e-06
4.53016e-08
6.46187e-08
1.27255e-06
4.52941e-08
6.46254e-08
4.52907e-08
6.46306e-08
1.44792e-06
5.43094e-08
4.52827e-08
1.44786e-06
5.4192e-08
4.53163e-08
1.4478e-06
5.41055e-08
4.53438e-08
1.44774e-06
5.40431e-08
4.53655e-08
1.44768e-06
5.39993e-08
4.53815e-08
1.44762e-06
5.39696e-08
4.53923e-08
1.44757e-06
5.39505e-08
4.53985e-08
1.44752e-06
5.39387e-08
4.54013e-08
1.44747e-06
5.39308e-08
4.54037e-08
1.44743e-06
5.39241e-08
4.54085e-08
5.39204e-08
4.54115e-08
1.56104e-06
5.84151e-08
2.33984e-08
1.56115e-06
5.83979e-08
2.3412e-08
1.5612e-06
5.83861e-08
2.34252e-08
1.56122e-06
5.83784e-08
2.34372e-08
1.5612e-06
5.83737e-08
2.34468e-08
1.56118e-06
5.83713e-08
2.3453e-08
1.56114e-06
5.83705e-08
2.34556e-08
1.5611e-06
5.83706e-08
2.34558e-08
1.56105e-06
5.83707e-08
2.34563e-08
1.561e-06
5.83702e-08
2.3459e-08
5.83699e-08
2.34582e-08
1.6018e-06
-1.06107e-10
1.60192e-06
-5.30461e-11
1.60198e-06
-1.06302e-11
1.602e-06
2.26371e-11
1.60199e-06
4.69762e-11
1.60196e-06
6.31403e-11
1.60192e-06
7.24427e-11
1.60188e-06
7.70453e-11
1.60183e-06
8.00126e-11
1.60177e-06
8.37175e-11
8.28234e-11
5.2596e-07
2.51702e-08
6.5572e-08
5.25801e-07
2.51019e-08
6.55902e-08
5.25726e-07
2.5054e-08
6.56032e-08
5.25706e-07
2.50236e-08
6.56106e-08
5.25719e-07
2.50048e-08
6.56137e-08
5.25752e-07
2.49934e-08
6.56137e-08
5.25796e-07
2.49878e-08
6.56113e-08
5.25843e-07
2.4986e-08
6.5607e-08
5.25893e-07
2.49861e-08
6.56016e-08
5.25942e-07
2.49861e-08
6.55959e-08
5.25988e-07
2.49847e-08
6.55976e-08
2.4993e-08
6.55898e-08
8.40929e-07
4.73124e-08
5.79165e-08
8.40644e-07
4.71761e-08
5.79558e-08
8.40459e-07
4.70818e-08
5.79856e-08
8.40343e-07
4.70176e-08
5.80087e-08
8.40272e-07
4.69756e-08
5.80265e-08
8.40232e-07
4.69481e-08
5.80382e-08
8.40212e-07
4.69322e-08
5.80452e-08
8.40203e-07
4.69239e-08
5.80488e-08
8.40202e-07
4.69197e-08
5.80507e-08
8.40204e-07
4.69174e-08
5.80516e-08
8.4021e-07
4.69193e-08
5.80403e-08
5.80419e-08
1.07712e-06
6.4992e-08
4.69536e-08
1.07691e-06
6.4842e-08
4.69685e-08
1.07676e-06
6.47374e-08
4.69806e-08
1.07666e-06
6.46657e-08
4.6991e-08
1.07659e-06
6.46176e-08
4.69993e-08
1.07654e-06
6.45866e-08
4.70046e-08
1.0765e-06
6.45679e-08
4.70068e-08
1.07647e-06
6.45573e-08
4.70069e-08
1.07645e-06
6.45504e-08
4.70069e-08
1.07644e-06
6.45433e-08
4.7011e-08
6.45376e-08
4.70211e-08
1.26257e-06
7.71027e-08
3.31629e-08
1.26257e-06
7.70268e-08
3.31376e-08
1.26255e-06
7.69742e-08
3.31229e-08
1.26253e-06
7.69386e-08
3.31144e-08
1.2625e-06
7.69151e-08
3.31092e-08
1.26248e-06
7.69007e-08
3.31047e-08
1.26245e-06
7.68928e-08
3.30995e-08
1.26243e-06
7.68887e-08
3.30936e-08
1.26241e-06
7.68858e-08
3.30891e-08
1.26239e-06
7.68812e-08
3.30891e-08
7.68783e-08
3.30901e-08
1.38535e-06
8.306e-08
1.72363e-08
1.38548e-06
8.3106e-08
1.72035e-08
1.38555e-06
8.3142e-08
1.71833e-08
1.38559e-06
8.31699e-08
1.71705e-08
1.38559e-06
8.31911e-08
1.7162e-08
1.38559e-06
8.32073e-08
1.71543e-08
1.38557e-06
8.32198e-08
1.7146e-08
1.38555e-06
8.32291e-08
1.71372e-08
1.38552e-06
8.32353e-08
1.71298e-08
1.3855e-06
8.32384e-08
1.71261e-08
8.32408e-08
1.71213e-08
1.43193e-06
4.98223e-11
1.432e-06
6.89155e-11
1.43203e-06
8.52572e-11
1.43203e-06
9.83127e-11
1.43202e-06
1.06781e-10
1.43199e-06
1.10306e-10
1.43196e-06
1.0909e-10
1.43192e-06
1.04672e-10
1.43189e-06
9.95572e-11
1.43186e-06
9.66236e-11
9.15805e-11
2.8576e-07
3.09735e-08
3.46281e-08
2.85762e-07
3.09284e-08
3.46597e-08
2.85786e-07
3.08975e-08
3.46826e-08
2.85822e-07
3.08751e-08
3.46991e-08
2.85865e-07
3.08598e-08
3.47104e-08
2.85912e-07
3.08497e-08
3.47173e-08
2.85959e-07
3.08435e-08
3.47212e-08
2.86003e-07
3.08398e-08
3.4723e-08
2.86045e-07
3.08361e-08
3.47235e-08
2.86086e-07
3.08314e-08
3.4723e-08
2.86134e-07
3.08279e-08
3.47224e-08
3.083e-08
3.47225e-08
5.7931e-07
5.82117e-08
3.08009e-08
5.79244e-07
5.81368e-08
3.08131e-08
5.79216e-07
5.80881e-08
3.0823e-08
5.79213e-07
5.80558e-08
3.08313e-08
5.79226e-07
5.80348e-08
3.08388e-08
5.79248e-07
5.80209e-08
3.08446e-08
5.79275e-07
5.80132e-08
3.08485e-08
5.79303e-07
5.80092e-08
3.08512e-08
5.7933e-07
5.80059e-08
3.08541e-08
5.79354e-07
5.80011e-08
3.08587e-08
5.79358e-07
5.80013e-08
3.08622e-08
3.08608e-08
8.21664e-07
8.01075e-08
2.50982e-08
8.21644e-07
8.0036e-08
2.50891e-08
8.21638e-07
7.999e-08
2.50853e-08
8.2164e-07
7.99606e-08
2.50837e-08
8.21649e-07
7.99425e-08
2.50829e-08
8.21661e-07
7.99323e-08
2.50814e-08
8.21674e-07
7.99278e-08
2.50789e-08
8.21688e-07
7.99268e-08
2.50754e-08
8.21702e-07
7.99267e-08
2.5072e-08
8.21719e-07
7.99235e-08
2.50716e-08
7.99153e-08
2.5079e-08
1.01902e-06
9.52594e-08
1.78074e-08
1.01916e-06
9.52632e-08
1.77715e-08
1.01925e-06
9.52696e-08
1.7749e-08
1.01932e-06
9.52766e-08
1.77345e-08
1.01936e-06
9.52837e-08
1.77248e-08
1.01939e-06
9.52905e-08
1.7717e-08
1.01941e-06
9.52973e-08
1.77092e-08
1.01943e-06
9.53038e-08
1.77008e-08
1.01944e-06
9.53088e-08
1.76925e-08
1.01946e-06
9.53102e-08
1.76856e-08
9.53097e-08
1.76784e-08
1.15207e-06
1.02829e-07
9.33128e-09
1.1523e-06
1.02952e-07
9.28781e-09
1.15245e-06
1.03042e-07
9.26024e-09
1.15255e-06
1.03108e-07
9.24217e-09
1.15261e-06
1.03155e-07
9.22936e-09
1.15265e-06
1.03189e-07
9.21851e-09
1.15267e-06
1.03213e-07
9.20787e-09
1.15268e-06
1.0323e-07
9.19697e-09
1.15269e-06
1.03242e-07
9.18631e-09
1.1527e-06
1.03249e-07
9.17728e-09
1.03254e-07
9.1681e-09
1.2051e-06
1.25776e-10
1.2052e-06
1.2021e-10
1.20526e-06
1.1786e-10
1.20529e-06
1.16914e-10
1.20531e-06
1.14286e-10
1.20531e-06
1.10107e-10
1.20531e-06
1.03816e-10
1.20531e-06
9.54324e-11
1.20531e-06
8.59817e-11
1.20531e-06
7.71513e-11
6.77898e-11
9.30254e-08
3.46218e-08
9.30372e-08
3.46478e-08
9.30531e-08
3.46667e-08
9.30711e-08
3.46811e-08
9.30907e-08
3.46908e-08
9.31106e-08
3.46973e-08
9.31301e-08
3.47018e-08
9.31484e-08
3.47047e-08
9.31659e-08
3.47061e-08
9.31828e-08
3.47061e-08
9.31993e-08
3.47059e-08
3.47069e-08
2.72752e-07
6.54037e-08
2.72783e-07
6.54304e-08
2.72822e-07
6.5451e-08
2.72865e-07
6.54687e-08
2.72912e-07
6.54824e-08
2.72961e-07
6.54934e-08
2.73009e-07
6.55028e-08
2.73053e-07
6.55112e-08
2.73095e-07
6.55182e-08
2.73138e-07
6.55217e-08
2.73191e-07
6.55152e-08
4.89487e-07
9.04203e-08
4.89562e-07
9.04445e-08
4.89634e-07
9.04641e-08
4.89706e-07
9.0481e-08
4.89776e-07
9.04945e-08
4.89846e-07
9.05054e-08
4.89912e-07
9.05159e-08
4.89972e-07
9.05266e-08
4.90024e-07
9.05377e-08
4.90069e-07
9.05492e-08
9.05614e-08
6.87896e-07
1.07959e-07
6.88092e-07
1.0802e-07
6.88242e-07
1.08063e-07
6.88364e-07
1.08094e-07
6.88467e-07
1.08116e-07
6.88558e-07
1.08132e-07
6.88637e-07
1.08145e-07
6.88707e-07
1.08158e-07
6.88768e-07
1.08169e-07
6.88823e-07
1.0818e-07
1.08191e-07
8.27277e-07
1.16903e-07
8.27554e-07
1.1703e-07
8.27759e-07
1.17119e-07
8.27916e-07
1.17179e-07
8.28041e-07
1.1722e-07
8.28145e-07
1.17247e-07
8.28232e-07
1.17266e-07
8.28307e-07
1.1728e-07
8.28371e-07
1.17291e-07
8.28429e-07
1.17299e-07
1.17306e-07
8.86152e-07
8.86304e-07
8.86425e-07
8.86527e-07
8.86615e-07
8.86694e-07
8.86765e-07
8.86829e-07
8.86886e-07
8.8694e-07
)
;

boundaryField
{
    inlet
    {
        type            calculated;
        value           nonuniform List<scalar> 0();
    }
    ami1
    {
        type            cyclicAMI;
        value           nonuniform List<scalar> 0();
    }
    walls
    {
        type            calculated;
        value           nonuniform List<scalar> 
248
(
2.90979e-14
2.43942e-14
1.84387e-14
1.28555e-14
6.40674e-15
2.90979e-14
2.43942e-14
1.84387e-14
1.28555e-14
6.40674e-15
2.90979e-14
2.43942e-14
1.84387e-14
1.28555e-14
6.40674e-15
2.90979e-14
2.43942e-14
1.84387e-14
1.28555e-14
6.40674e-15
2.90979e-14
2.43942e-14
1.84387e-14
1.28555e-14
6.40674e-15
2.90979e-14
2.43942e-14
1.84387e-14
1.28555e-14
6.40674e-15
2.90979e-14
2.43942e-14
1.84387e-14
1.28555e-14
6.40674e-15
2.90979e-14
2.43942e-14
1.84387e-14
1.28555e-14
6.40674e-15
2.90979e-14
2.43942e-14
1.84387e-14
1.28555e-14
6.40674e-15
2.90979e-14
2.43942e-14
1.84387e-14
1.28555e-14
6.40674e-15
2.90979e-14
2.43942e-14
1.84387e-14
1.28555e-14
6.40674e-15
-2.90979e-14
-2.43942e-14
-1.84387e-14
-1.28555e-14
-6.40674e-15
9.36346e-22
-2.90979e-14
-2.43942e-14
-1.84387e-14
-1.28555e-14
-6.40674e-15
9.36427e-22
-2.90979e-14
-2.43942e-14
-1.84387e-14
-1.28555e-14
-6.40674e-15
9.36427e-22
-2.90979e-14
-2.43942e-14
-1.84387e-14
-1.28555e-14
-6.40674e-15
4.12459e-22
-2.90979e-14
-2.43942e-14
-1.84387e-14
-1.28555e-14
-6.40674e-15
9.38075e-22
-2.90979e-14
-2.43942e-14
-1.84387e-14
-1.28555e-14
-6.40674e-15
9.38075e-22
-2.90979e-14
-2.43942e-14
-1.84387e-14
-1.28555e-14
-6.40674e-15
9.38075e-22
-2.90979e-14
-2.43942e-14
-1.84387e-14
-1.28555e-14
-6.40674e-15
9.38075e-22
-2.90979e-14
-2.43942e-14
-1.84387e-14
-1.28555e-14
-6.40674e-15
9.3885e-22
-2.90979e-14
-2.43942e-14
-1.84387e-14
-1.28555e-14
-6.40674e-15
9.3885e-22
-2.90979e-14
-2.43942e-14
-1.84387e-14
-1.28555e-14
-6.40674e-15
6.8845e-22
-2.90979e-14
-2.43942e-14
-2.90979e-14
-2.43942e-14
-1.84387e-14
-1.28555e-14
-6.40674e-15
9.36346e-22
6.40674e-15
1.28555e-14
1.84387e-14
2.43942e-14
2.90979e-14
-2.90979e-14
-2.43942e-14
-1.84387e-14
-1.28555e-14
-6.40674e-15
9.36427e-22
6.40674e-15
1.28555e-14
1.84387e-14
2.43942e-14
2.90979e-14
-2.90979e-14
-2.43942e-14
-1.84387e-14
-1.28555e-14
-6.40674e-15
9.36427e-22
6.40674e-15
1.28555e-14
1.84387e-14
2.43942e-14
2.90979e-14
-2.90979e-14
-2.43942e-14
-1.84387e-14
-1.28555e-14
-6.40674e-15
4.12459e-22
6.40674e-15
1.28555e-14
1.84387e-14
2.43942e-14
2.90979e-14
-2.90979e-14
-2.43942e-14
-1.84387e-14
-1.28555e-14
-6.40674e-15
9.38075e-22
6.40674e-15
1.28555e-14
1.84387e-14
2.43942e-14
2.90979e-14
-2.90979e-14
-2.43942e-14
-1.84387e-14
-1.28555e-14
-6.40674e-15
9.38075e-22
6.40674e-15
1.28555e-14
1.84387e-14
2.43942e-14
2.90979e-14
-2.90979e-14
-2.43942e-14
-1.84387e-14
-1.28555e-14
-6.40674e-15
9.38075e-22
6.40674e-15
1.28555e-14
1.84387e-14
2.43942e-14
2.90979e-14
-2.90979e-14
-2.43942e-14
-1.84387e-14
-1.28555e-14
-6.40674e-15
9.38075e-22
6.40674e-15
1.28555e-14
1.84387e-14
2.43942e-14
2.90979e-14
-2.90979e-14
-2.43942e-14
-1.84387e-14
-1.28555e-14
-6.40674e-15
9.3885e-22
6.40674e-15
1.28555e-14
1.84387e-14
2.43942e-14
2.90979e-14
-2.90979e-14
-2.43942e-14
-1.84387e-14
-1.28555e-14
-6.40674e-15
9.3885e-22
6.40674e-15
1.28555e-14
1.84387e-14
2.43942e-14
2.90979e-14
-2.90979e-14
-2.43942e-14
-1.84387e-14
-1.28555e-14
-6.40674e-15
6.8845e-22
6.40674e-15
1.28555e-14
1.84387e-14
2.43942e-14
2.90979e-14
1.28555e-14
1.84387e-14
2.43942e-14
2.90979e-14
)
;
    }
    ami2
    {
        type            cyclicAMI;
        value           nonuniform List<scalar> 0();
    }
    outlet
    {
        type            calculated;
        value           nonuniform List<scalar> 0();
    }
    procBoundary8to0
    {
        type            processor;
        value           nonuniform List<scalar> 
29
(
-9.30173e-08
-2.85787e-07
-5.2624e-07
-7.30853e-07
-8.54371e-07
-2.72728e-07
-5.79422e-07
-8.41352e-07
-1.04639e-06
-1.17032e-06
-4.89395e-07
-8.2169e-07
-1.0774e-06
-1.27389e-06
-1.39493e-06
-6.87624e-07
-1.01881e-06
-1.26256e-06
-1.44796e-06
-1.56378e-06
-8.26925e-07
-1.15172e-06
-1.38514e-06
-1.56087e-06
-1.67136e-06
-1.70878e-06
-1.60161e-06
-1.70878e-06
-1.74551e-06
)
;
    }
    procBoundary8to1
    {
        type            processor;
        value           nonuniform List<scalar> 
33
(
-8.85952e-07
-1.20493e-06
-1.43181e-06
-8.54357e-07
-1.17033e-06
-1.39494e-06
-1.56378e-06
-1.67136e-06
-1.70877e-06
-7.30846e-07
-1.04639e-06
-1.2739e-06
-1.44796e-06
-1.56086e-06
-1.6016e-06
-5.26242e-07
-8.4136e-07
-1.07741e-06
-1.26256e-06
-1.38514e-06
-1.4318e-06
-2.8579e-07
-5.79433e-07
-8.21705e-07
-1.01882e-06
-1.15174e-06
-1.20494e-06
-9.30191e-08
-2.72733e-07
-4.89405e-07
-6.87627e-07
-8.26889e-07
-8.85952e-07
)
;
    }
    procBoundary8to7
    {
        type            processor;
        value           nonuniform List<scalar> 
68
(
9.32009e-08
2.86123e-07
5.25994e-07
7.30142e-07
8.54266e-07
2.73175e-07
5.79396e-07
8.40221e-07
1.04485e-06
1.1695e-06
4.90135e-07
8.21735e-07
1.07642e-06
1.27251e-06
1.39409e-06
6.88884e-07
1.01946e-06
1.26236e-06
1.44738e-06
1.56347e-06
8.28484e-07
1.15271e-06
1.38548e-06
1.56095e-06
1.67159e-06
1.70919e-06
8.86973e-07
1.20533e-06
1.43184e-06
1.60172e-06
1.70917e-06
1.74606e-06
8.54211e-07
-1.0824e-07
1.16952e-06
-9.53589e-08
1.3941e-06
1.56346e-06
1.67158e-06
1.70917e-06
7.30155e-07
1.04485e-06
3.29592e-08
1.27252e-06
1.44738e-06
1.56095e-06
1.60172e-06
5.26027e-07
8.40216e-07
4.69232e-08
1.07643e-06
1.26237e-06
1.38547e-06
1.43183e-06
2.86171e-07
5.79366e-07
5.80031e-08
8.21747e-07
1.01948e-06
1.15271e-06
1.20531e-06
9.3215e-08
2.73233e-07
6.55262e-08
4.90101e-07
6.88872e-07
8.28482e-07
8.86989e-07
)
;
    }
    procBoundary8to9
    {
        type            processor;
        value           nonuniform List<scalar> 
132
(
-1.16835e-07
-1.17004e-07
-1.17119e-07
-1.17197e-07
-1.17247e-07
-1.17279e-07
-1.17299e-07
-1.17311e-07
-1.17318e-07
-1.17321e-07
-1.17321e-07
-1.02598e-07
-1.02804e-07
-1.02953e-07
-1.0306e-07
-1.03134e-07
-1.03185e-07
-1.03219e-07
-1.03242e-07
-1.03256e-07
-1.03266e-07
-1.03273e-07
-8.27739e-08
-8.29137e-08
-8.30181e-08
-8.30948e-08
-8.31503e-08
-8.31896e-08
-8.32168e-08
-8.32354e-08
-8.32482e-08
-8.32577e-08
-8.32637e-08
-5.81528e-08
-5.82176e-08
-5.82678e-08
-5.83062e-08
-5.83347e-08
-5.83555e-08
-5.837e-08
-5.838e-08
-5.83873e-08
-5.8393e-08
-5.83965e-08
-1.66795e-10
-1.08551e-10
-6.24561e-11
-2.6008e-11
1.37265e-12
2.09762e-11
3.39599e-11
4.22424e-11
4.84205e-11
5.3862e-11
5.45616e-11
-3.01896e-08
-3.01546e-08
-3.01279e-08
-3.01077e-08
-3.00928e-08
-3.00823e-08
-3.00753e-08
-3.00707e-08
-3.00675e-08
-3.00648e-08
-3.00635e-08
-8.1038e-11
-5.64702e-11
-3.68134e-11
-2.09529e-11
-8.5167e-12
6.26604e-13
7.05781e-12
1.13688e-11
1.44787e-11
1.7165e-11
1.8182e-11
2.99916e-08
3.00161e-08
3.00363e-08
3.0053e-08
3.00662e-08
3.00763e-08
3.00837e-08
3.00887e-08
3.00925e-08
3.00959e-08
3.00973e-08
5.81546e-08
5.82177e-08
5.82671e-08
5.83051e-08
5.83337e-08
5.83546e-08
5.83695e-08
5.83798e-08
5.83874e-08
5.83935e-08
5.83971e-08
8.27726e-08
8.29117e-08
8.30159e-08
8.30929e-08
8.31487e-08
8.31883e-08
8.32159e-08
8.32347e-08
8.32478e-08
8.32575e-08
8.32639e-08
1.02593e-07
1.028e-07
1.0295e-07
1.03057e-07
1.03132e-07
1.03184e-07