/*--------------------------------*- C++ -*----------------------------------*\
| =========                 |                                                 |
| \\      /  F ield         | OpenFOAM: The Open Source CFD Toolbox           |
|  \\    /   O peration     | Version:  2212                                  |
|   \\  /    A nd           | Website:  www.openfoam.com                      |
|    \\/     M anipulation  |                                                 |
\*---------------------------------------------------------------------------*/
FoamFile
{
    version     2.0;
    format      ascii;
    arch        "LSB;label=32;scalar=64";
    class       volScalarField;
    location    "0.35";
    object      epsilon;
}
// * * * * * * * * * * * * * * * * * * * * * * * * * * * * * * * * * * * * * //

dimensions      [0 2 -3 0 0 0 0];

internalField   nonuniform List<scalar> 
678
(
0.273764
0.273771
0.273773
0.273772
0.273798
0.146109
0.146114
0.146119
0.146122
0.146109
0.109674
0.109679
0.109685
0.109692
0.109703
0.0967591
0.0967647
0.0967723
0.0967794
0.0967807
0.0967672
0.0906558
0.0906624
0.0906708
0.0906795
0.0906853
0.0906864
0.0891212
0.0891288
0.089138
0.0891471
0.0891528
0.0891514
0.0891518
0.0913711
0.0913789
0.0913883
0.0913972
0.0914016
0.0913975
0.0913924
0.097873
0.0978796
0.0978878
0.0978947
0.0978978
0.0978916
0.0978741
0.11171
0.111716
0.111722
0.111726
0.111726
0.111709
0.111644
0.146816
0.146821
0.146826
0.14683
0.146827
0.146806
0.273761
0.273768
0.273771
0.273771
0.273765
0.273768
0.146818
0.146822
0.146826
0.146826
0.146808
0.146708
0.0723267
0.0723326
0.0723354
0.0723385
0.0723649
0.0567377
0.0567422
0.0567434
0.0567414
0.0567372
0.0566634
0.0515301
0.0515289
0.0515215
0.0515154
0.0515255
0.0516027
0.0495308
0.0495212
0.049508
0.0494966
0.0494984
0.0495187
0.0490259
0.0490126
0.0489968
0.0489856
0.04899
0.0490347
0.0497955
0.0497813
0.0497664
0.0497562
0.0497641
0.0498156
0.0519534
0.0519514
0.0519449
0.0519351
0.0519447
0.0519761
0.0520497
0.0571343
0.0571382
0.0571395
0.0571359
0.0571456
0.0571852
0.0573847
0.0723247
0.0723316
0.0723328
0.0723333
0.0723371
0.0723516
0.0724468
0.146107
0.146113
0.146118
0.146123
0.146122
0.146104
0.111712
0.111716
0.111721
0.111723
0.111718
0.111693
0.111641
0.0571358
0.0571417
0.0571433
0.0571441
0.0571595
0.0572344
0.0485451
0.0485512
0.0485363
0.0485321
0.0485422
0.0485575
0.0464507
0.0464271
0.0464047
0.0463932
0.046409
0.046488
0.0460032
0.0459652
0.0459303
0.0459127
0.0459334
0.046035
0.0460087
0.0459655
0.0459267
0.0459089
0.0459365
0.0460568
0.046137
0.0460983
0.0460648
0.0460528
0.0460894
0.0462288
0.046628
0.0466028
0.0465803
0.0465698
0.0465932
0.0466844
0.0485396
0.0485418
0.0485337
0.0485239
0.0485412
0.0485851
0.0567358
0.0567399
0.0567378
0.056737
0.0567453
0.056778
0.0569185
0.109672
0.109678
0.109684
0.10969
0.109692
0.109686
0.0978759
0.097881
0.0978863
0.0978901
0.0978889
0.0978815
0.0978832
0.0519549
0.0519556
0.0519446
0.0519443
0.0519611
0.0519933
0.0520251
0.046635
0.0466135
0.0465951
0.0465866
0.0466266
0.0467243
0.0460629
0.0460606
0.0460445
0.0460457
0.0460863
0.046186
0.046418
0.0464121
0.0463775
0.0463832
0.0464232
0.04655
0.04663
0.0466197
0.0465786
0.0465867
0.0466364
0.0468007
0.0464436
0.0464352
0.0464002
0.0464154
0.046496
0.0460511
0.0460449
0.0460269
0.046026
0.0460681
0.0461953
0.046436
0.0464127
0.0463916
0.0463852
0.0464176
0.0465229
0.0515226
0.0515177
0.0515102
0.0515054
0.0515229
0.0515692
0.0967589
0.0967658
0.0967736
0.0967802
0.0967829
0.0967808
0.0913744
0.0913799
0.0913862
0.0913898
0.0913869
0.0913762
0.0497997
0.0497875
0.049776
0.0497777
0.0498064
0.0498884
0.0461471
0.0461167
0.0460986
0.046127
0.0462611
0.0464596
0.0464594
0.0464402
0.0464753
0.0465959
0.0472685
0.0472605
0.0472317
0.0472736
0.0474107
0.0476001
0.0475876
0.0475495
0.0475783
0.0476839
0.0472432
0.0472324
0.0471943
0.0472167
0.0473037
0.0463961
0.0463901
0.0463584
0.0463736
0.0464463
0.045978
0.0459422
0.045916
0.0459224
0.0460136
0.049514
0.0495032
0.0494927
0.0494888
0.049522
0.0906586
0.0906659
0.0906741
0.0906806
0.0906827
0.0906895
0.089122
0.0891284
0.0891351
0.089138
0.0891357
0.0891335
0.0490453
0.0490259
0.0490123
0.0490187
0.0490595
0.0490766
0.0460537
0.0460046
0.0459918
0.0460861
0.0466817
0.0466655
0.0466517
0.0467348
0.047655
0.0476297
0.0476172
0.0477276
0.0480095
0.0479933
0.047956
0.0479924
0.0481255
0.0475862
0.0475727
0.047533
0.0475565
0.0476462
0.0466055
0.0465964
0.0465608
0.0465773
0.0466486
0.0459782
0.0459386
0.0459107
0.0459191
0.046013
0.0490067
0.0489921
0.0489797
0.0489818
0.0490205
0.0891279
0.0891349
0.0891431
0.0891492
0.0891495
0.0906521
0.0906625
0.0906708
0.0906767
0.0906797
0.0906792
0.0494901
0.0495043
0.0495027
0.0494998
0.0495054
0.049525
0.0460117
0.0459813
0.0459502
0.0459352
0.0459627
0.0460894
0.0464262
0.0464286
0.0463978
0.0463788
0.0464126
0.0465276
0.0472868
0.0472681
0.0472199
0.0472047
0.047243
0.0473728
0.0476345
0.0476019
0.0475494
0.0475697
0.0476594
0.0472459
0.0472311
0.047189
0.0472069
0.0472836
0.0464231
0.0464149
0.0463817
0.046396
0.0464588
0.0461091
0.0460729
0.0460479
0.0460558
0.0461416
0.0497788
0.0497626
0.0497494
0.049753
0.0497946
0.0913787
0.0913858
0.0913943
0.0914003
0.0913995
0.0967499
0.0967608
0.0967703
0.0967789
0.0967854
0.0967876
0.0515308
0.0515247
0.0515164
0.0515083
0.0515137
0.0515407
0.0464518
0.0464253
0.0464002
0.0463841
0.0463925
0.0464645
0.0460599
0.0460544
0.0460293
0.0460106
0.0460221
0.0460804
0.0464598
0.0464414
0.0463967
0.0463738
0.0463931
0.046464
0.0466615
0.0466305
0.0465759
0.0465853
0.0466502
0.0464086
0.0463959
0.0463561
0.0463676
0.0464271
0.0460392
0.0460306
0.0460145
0.0460182
0.0460669
0.04661
0.046584
0.0465654
0.046572
0.0466388
0.0519444
0.0519382
0.0519297
0.0519352
0.051965
0.0978805
0.0978868
0.0978944
0.0978997
0.0978992
0.109662
0.109671
0.10968
0.109691
0.109705
0.109713
0.056738
0.0567411
0.0567351
0.0567318
0.0567178
0.0567301
0.0485495
0.0485466
0.0485325
0.0485165
0.0484922
0.0485346
0.0466326
0.0466051
0.0465771
0.04656
0.0465708
0.0466328
0.0461403
0.0460919
0.0460569
0.0460352
0.0460454
0.046128
0.0460348
0.0459679
0.0459234
0.0459221
0.046007
0.0459917
0.0459478
0.0459159
0.0459185
0.0459991
0.0464282
0.0464013
0.0463819
0.0463868
0.04645
0.0485314
0.048528
0.0485169
0.0485238
0.0485549
0.0571307
0.0571323
0.0571317
0.0571356
0.0571521
0.111718
0.111724
0.11173
0.111734
0.111735
0.146091
0.1461
0.146112
0.146131
0.146196
0.146244
0.072319
0.0723258
0.0723278
0.0723188
0.0721608
0.0721342
0.057135
0.0571369
0.0571344
0.0571405
0.0572179
0.0573584
0.0519505
0.0519419
0.0519342
0.0519439
0.0520327
0.0520161
0.0497424
0.0497409
0.0497392
0.049739
0.0497534
0.0497621
0.0490293
0.0490023
0.0489838
0.0489824
0.0490156
0.0495206
0.049505
0.0494915
0.0494918
0.0495239
0.0515211
0.0515131
0.0515034
0.0515068
0.0515342
0.0567324
0.0567333
0.0567316
0.0567351
0.0567508
0.072326
0.0723305
0.0723316
0.0723342
0.0723413
0.146827
0.146832
0.146837
0.146842
0.146844
0.273736
0.273752
0.273767
0.273789
0.27388
0.273927
0.146787
0.1468
0.146813
0.146831
0.146893
0.14693
0.111678
0.111693
0.111704
0.11171
0.0978527
0.0978655
0.0978765
0.0978801
0.0978617
0.091368
0.0913798
0.0913895
0.091396
0.0913971
0.0891268
0.089135
0.0891439
0.0891502
0.0891521
0.0906626
0.0906687
0.0906764
0.0906824
0.0906831
0.0967666
0.0967718
0.0967786
0.0967837
0.0967838
0.109682
0.109686
0.109692
0.109696
0.109697
0.146119
0.146124
0.146129
0.146133
0.146135
0.273779
0.273787
0.273791
0.273796
0.2738
)
;

boundaryField
{
    inlet
    {
        type            fixedValue;
        value           nonuniform List<scalar> 0();
    }
    ami1
    {
        type            cyclicAMI;
        value           nonuniform List<scalar> 0();
    }
    walls
    {
        type            epsilonWallFunction;
        blending        stepwise;
        value           nonuniform List<scalar> 
250
(
0.273764
0.146109
0.109674
0.0967591
0.0906558
0.0891212
0.0913711
0.097873
0.11171
0.146816
0.273761
0.273771
0.146114
0.109679
0.0967647
0.0906624
0.0891288
0.0913789
0.0978796
0.111716
0.146821
0.273768
0.273773
0.146119
0.109685
0.0967723
0.0906708
0.089138
0.0913883
0.0978878
0.111722
0.146826
0.273771
0.273772
0.146122
0.109692
0.0967794
0.0906795
0.0891471
0.0913972
0.0978947
0.111726
0.14683
0.273771
0.273798
0.146109
0.109703
0.0967807
0.0906853
0.0891528
0.0914016
0.0978978
0.111726
0.146827
0.273765
0.0967672
0.0906864
0.0891514
0.0913975
0.0978916
0.111709
0.146806
0.273768
0.0891518
0.0913924
0.0978741
0.111644
0.273761
0.146107
0.109672
0.0967589
0.0906586
0.0891279
0.0913787
0.0978805
0.111718
0.146827
0.273779
0.273768
0.146113
0.109678
0.0967658
0.0906659
0.0891349
0.0913858
0.0978868
0.111724
0.146832
0.273787
0.273771
0.146118
0.109684
0.0967736
0.0906741
0.0891431
0.0913943
0.0978944
0.11173
0.146837
0.273791
0.273771
0.146123
0.10969
0.0967802
0.0906806
0.0891492
0.0914003
0.0978997
0.111734
0.146842
0.273796
0.273765
0.146122
0.109692
0.0967829
0.0906827
0.0891495
0.0913995
0.0978992
0.111735
0.146844
0.2738
0.273768
0.146104
0.109686
0.0967808
0.0906895
0.273736
0.146787
0.111678
0.0978527
0.091368
0.273752
0.1468
0.111693
0.0978655
0.0913798
0.0891268
0.0906626
0.0967666
0.109682
0.146119
0.273779
0.273767
0.146813
0.111704
0.0978765
0.0913895
0.089135
0.0906687
0.0967718
0.109686
0.146124
0.273787
0.273789
0.146831
0.11171
0.0978801
0.091396
0.0891439
0.0906764
0.0967786
0.109692
0.146129
0.273791
0.27388
0.146893
0.0978617
0.0913971
0.0891502
0.0906824
0.0967837
0.109696
0.146133
0.273796
0.273927
0.14693
0.0891521
0.0906831
0.0967838
0.109697
0.146135
0.2738
0.0906521
0.0967499
0.109662
0.146091
0.273736
0.273764
0.146818
0.111712
0.0978759
0.0913744
0.089122
0.0906625
0.0967608
0.109671
0.1461
0.273752
0.273771
0.146822
0.111716
0.097881
0.0913799
0.0891284
0.0906708
0.0967703
0.10968
0.146112
0.273767
0.273773
0.146826
0.111721
0.0978863
0.0913862
0.0891351
0.0906767
0.0967789
0.109691
0.146131
0.273789
0.273772
0.146826
0.111723
0.0978901
0.0913898
0.089138
0.0906797
0.0967854
0.109705
0.146196
0.27388
0.273798
0.146808
0.111718
0.0978889
0.0913869
0.0891357
0.0906792
0.0967876
0.109713
0.146244
0.273927
0.146708
0.111693
0.0978815
0.0913762
0.0891335
0.111641
0.0978832
)
;
    }
    ami2
    {
        type            cyclicAMI;
        value           nonuniform List<scalar> 0();
    }
    outlet
    {
        type            zeroGradient;
    }
    procBoundary5to6
    {
        type            processor;
        value           nonuniform List<scalar> 
177
(
0.273685
0.273685
0.146036
0.109738
0.109738
0.109738
0.0967697
0.0906927
0.0906927
0.0891545
0.0490749
0.0913918
0.0498723
0.0978671
0.11164
0.146728
0.146728
0.146728
0.273695
0.146767
0.0726904
0.146767
0.0726904
0.0726904
0.0726904
0.0567395
0.0515964
0.0495179
0.0490749
0.0498723
0.0498723
0.0520549
0.0467541
0.0572962
0.0486386
0.0723949
0.14604
0.14604
0.111649
0.0574163
0.0574163
0.0574163
0.0486034
0.0465428
0.0461011
0.0461309
0.0462876
0.0466446
0.0467541
0.0486386
0.0486386
0.0568645
0.109662
0.0516061
0.109662
0.0978804
0.0913651
0.0520675
0.0467708
0.0499498
0.0467708
0.0463356
0.0462394
0.0466849
0.0466133
0.0475033
0.0468524
0.0466446
0.0478061
0.0466446
0.0466446
0.0462383
0.0465527
0.0465672
0.0460945
0.0516061
0.0495417
0.096778
0.0913651
0.0499498
0.0463356
0.0463356
0.046193
0.0466849
0.046865
0.0475033
0.0478798
0.0478061
0.0474095
0.0465527
0.0460945
0.0495417
0.0495417
0.0906937
0.0891491
0.089133
0.0906837
0.046193
0.0490886
0.0461334
0.0495332
0.046193
0.046193
0.046865
0.046865
0.0478798
0.0478798
0.0478798
0.0482028
0.0477434
0.0467417
0.046086
0.0490624
0.0891491
0.0906837
0.0495332
0.0461398
0.0465933
0.0474417
0.0477513
0.0473749
0.046545
0.0462106
0.0498374
0.0913973
0.096788
0.0515703
0.0465255
0.0461584
0.0465516
0.0467349
0.0465106
0.0461431
0.0466985
0.0520002
0.0978972
0.109713
0.0567677
0.048605
0.0466935
0.0461949
0.0460744
0.0460655
0.0465084
0.0486016
0.0571768
0.111733
0.146208
0.0722991
0.111684
0.0572688
0.11163
0.0520153
0.0978552
0.0498115
0.0914007
0.0490561
0.049563
0.0515675
0.0567745
0.0723544
0.146843
0.273907
0.111684
0.146886
0.11163
0.111684
0.111684
0.0978552
0.0914007
0.0914007
0.0891513
0.0906824
0.0967824
0.109695
0.146134
0.273803
)
;
    }
    procBoundary5to7
    {
        type            processor;
        value           nonuniform List<scalar> 
131
(
0.273753
0.146101
0.109668
0.0967537
0.0906504
0.0891147
0.0913649
0.0978664
0.111703
0.146808
0.273748
0.146809
0.0723091
0.0567115
0.0514943
0.0494877
0.048979
0.0497489
0.0519144
0.0571049
0.0723045
0.146097
0.111705
0.0571086
0.0484948
0.0463881
0.0459301
0.0459313
0.0460606
0.0465617
0.0484845
0.0567041
0.109665
0.0978703
0.0519158
0.046569
0.0459734
0.0463187
0.0465279
0.0463434
0.0459584
0.0463652
0.0514799
0.0967518
0.0913698
0.0497499
0.0460642
0.0463486
0.0471518
0.0474829
0.0471294
0.0462886
0.0458932
0.0494633
0.0906517
0.0891169
0.0891169
0.0489949
0.0489949
0.0459729
0.0459729
0.0465749
0.0465749
0.0475449
0.0475449
0.0478824
0.047465
0.0464921
0.0458886
0.0489525
0.0891217
0.0906323
0.0494633
0.0459099
0.0462894
0.0471266
0.0475304
0.0475304
0.0471268
0.046313
0.0460235
0.0497264
0.0913733
0.0967375
0.0514878
0.0463756
0.0459533
0.0463275
0.046566
0.046566
0.0462982
0.0459409
0.0465375
0.0519014
0.0978748
0.109652
0.0567035
0.0484893
0.0465577
0.0460431
0.0459628
0.0459628
0.0459071
0.046356
0.0484741
0.0570993
0.111712
0.14608
0.0722948
0.0571006
0.0519071
0.0497159
0.0489806
0.0489806
0.0494706
0.0514798
0.056702
0.0723065
0.14682
0.273717
0.146772
0.111659
0.0978381
0.0913495
0.08912
0.08912
0.0906583
0.0967625
0.109677
0.146113
0.273768
)
;
    }
}


// ************************************************************************* //
