/*--------------------------------*- C++ -*----------------------------------*\
| =========                 |                                                 |
| \\      /  F ield         | OpenFOAM: The Open Source CFD Toolbox           |
|  \\    /   O peration     | Version:  2212                                  |
|   \\  /    A nd           | Website:  www.openfoam.com                      |
|    \\/     M anipulation  |                                                 |
\*---------------------------------------------------------------------------*/
FoamFile
{
    version     2.0;
    format      ascii;
    arch        "LSB;label=32;scalar=64";
    class       volScalarField;
    location    "0.35";
    object      nut;
}
// * * * * * * * * * * * * * * * * * * * * * * * * * * * * * * * * * * * * * //

dimensions      [0 2 -1 0 0 0 0];

internalField   nonuniform List<scalar> 
678
(
4.59382e-06
4.5939e-06
4.59392e-06
4.59391e-06
4.59401e-06
9.74856e-06
9.74881e-06
9.74905e-06
9.74926e-06
9.74914e-06
1.45506e-05
1.45511e-05
1.45517e-05
1.45523e-05
1.45529e-05
1.83944e-05
1.83952e-05
1.83963e-05
1.83975e-05
1.83986e-05
1.83982e-05
2.08803e-05
2.08814e-05
2.0883e-05
2.08847e-05
2.0886e-05
2.08859e-05
2.1742e-05
2.17432e-05
2.1745e-05
2.17469e-05
2.17482e-05
2.17478e-05
2.17471e-05
2.08904e-05
2.08915e-05
2.08931e-05
2.08949e-05
2.08959e-05
2.08953e-05
2.08941e-05
1.83865e-05
1.83873e-05
1.83883e-05
1.83896e-05
1.83903e-05
1.839e-05
1.83883e-05
1.45244e-05
1.45248e-05
1.45254e-05
1.45261e-05
1.45264e-05
1.4526e-05
1.45241e-05
9.72664e-06
9.72683e-06
9.72705e-06
9.72731e-06
9.72742e-06
9.72714e-06
4.59387e-06
4.59395e-06
4.59397e-06
4.59398e-06
4.59394e-06
4.59413e-06
9.72652e-06
9.72673e-06
9.72691e-06
9.72706e-06
9.72687e-06
9.72555e-06
4.6339e-05
4.63386e-05
4.63413e-05
4.63436e-05
4.63228e-05
7.92711e-05
7.92742e-05
7.92843e-05
7.93016e-05
7.93202e-05
7.94422e-05
0.000103845
0.000103864
0.000103901
0.000103937
0.00010393
0.000103771
0.000119472
0.000119519
0.000119579
0.000119636
0.000119652
0.00011961
0.000126001
0.000126061
0.000126133
0.000126193
0.000126203
0.000126089
0.000122003
0.000122062
0.000122128
0.000122183
0.000122182
0.000122057
0.000107622
0.000107645
0.000107681
0.000107726
0.000107719
0.000107652
0.000107505
8.26398e-05
8.26441e-05
8.26549e-05
8.26758e-05
8.26665e-05
8.25984e-05
8.22733e-05
4.63411e-05
4.63399e-05
4.63442e-05
4.63506e-05
4.63487e-05
4.63285e-05
4.62225e-05
9.74873e-06
9.74896e-06
9.74922e-06
9.74949e-06
9.74963e-06
9.74933e-06
1.45244e-05
1.45248e-05
1.45253e-05
1.45257e-05
1.45256e-05
1.45246e-05
1.4523e-05
8.2639e-05
8.264e-05
8.26485e-05
8.26584e-05
8.26376e-05
8.25192e-05
0.000144327
0.000144331
0.000144403
0.000144442
0.000144428
0.000144393
0.000185537
0.000185665
0.000185793
0.000185876
0.000185845
0.000185562
0.00020933
0.000209543
0.000209746
0.000209871
0.000209821
0.00020941
0.000217794
0.000218041
0.000218271
0.000218403
0.000218322
0.000217815
0.000210948
0.000211165
0.000211363
0.000211464
0.000211347
0.000210782
0.000187177
0.000187314
0.000187443
0.000187524
0.000187462
0.000187124
0.000144341
0.000144358
0.00014441
0.000144468
0.000144432
0.000144308
7.92774e-05
7.92801e-05
7.92952e-05
7.93111e-05
7.9304e-05
7.92506e-05
7.90335e-05
1.45511e-05
1.45515e-05
1.45521e-05
1.45527e-05
1.45531e-05
1.45528e-05
1.83869e-05
1.83877e-05
1.83885e-05
1.83892e-05
1.83893e-05
1.83886e-05
1.83872e-05
0.000107627
0.00010764
0.000107682
0.000107699
0.000107668
0.000107599
0.000107552
0.000187165
0.000187281
0.000187389
0.000187456
0.000187323
0.000186974
0.000239515
0.000239562
0.000239687
0.00023973
0.000239589
0.000239186
0.000268718
0.000268792
0.000269043
0.000269074
0.000268944
0.000268377
0.000278505
0.000278607
0.000278905
0.00027893
0.000278751
0.000277975
0.000269355
0.000269445
0.000269702
0.000269688
0.000269357
0.00023955
0.000239619
0.000239756
0.000239811
0.000239662
0.000239125
0.000185592
0.000185718
0.000185838
0.000185899
0.000185797
0.00018541
0.000103869
0.000103894
0.00010393
0.000103961
0.000103933
0.000103841
1.83953e-05
1.8396e-05
1.83971e-05
1.83982e-05
1.83988e-05
1.83985e-05
2.08912e-05
2.08919e-05
2.08931e-05
2.0894e-05
2.08938e-05
2.08923e-05
0.000122005
0.000122052
0.000122102
0.000122112
0.000122043
0.000121848
0.000210929
0.000211099
0.000211219
0.00021113
0.000210583
0.000269307
0.000269346
0.000269512
0.000269395
0.00026886
0.000301856
0.000301951
0.000302205
0.000302057
0.000301412
0.000312531
0.000312655
0.000312973
0.000312897
0.000312416
0.000301972
0.000302084
0.00030239
0.000302344
0.000301963
0.000268813
0.000268887
0.000269122
0.000269105
0.000268803
0.000209441
0.00020964
0.000209799
0.00020981
0.000209438
0.000119527
0.000119573
0.000119623
0.000119654
0.000119578
2.08818e-05
2.08827e-05
2.08841e-05
2.08854e-05
2.08861e-05
2.08862e-05
2.17426e-05
2.17435e-05
2.17448e-05
2.17456e-05
2.17453e-05
2.17451e-05
0.000125958
0.000126026
0.000126084
0.000126077
0.000125986
0.000125961
0.000217611
0.00021787
0.00021797
0.000217585
0.000278258
0.000278381
0.00027853
0.000278174
0.000312233
0.000312428
0.0003126
0.000312075
0.000323458
0.000323605
0.000323928
0.000323807
0.000323161
0.000312594
0.000312723
0.000313048
0.000312996
0.000312592
0.00027862
0.000278715
0.00027898
0.000278956
0.000278654
0.000217934
0.000218158
0.000218332
0.000218335
0.000217938
0.000126067
0.000126126
0.000126184
0.000126199
0.000126102
2.17438e-05
2.17448e-05
2.17463e-05
2.17475e-05
2.17474e-05
2.08806e-05
2.08814e-05
2.08826e-05
2.08839e-05
2.08846e-05
2.08843e-05
0.000119556
0.000119545
0.000119573
0.000119604
0.000119606
0.000119568
0.000209243
0.000209423
0.000209609
0.000209722
0.00020964
0.000209128
0.000268605
0.000268639
0.000268867
0.000269038
0.00026893
0.000268418
0.000301656
0.000301814
0.000302181
0.00030235
0.000302218
0.000301602
0.00031233
0.000312563
0.000312964
0.000312929
0.000312526
0.000301952
0.000302082
0.000302408
0.000302382
0.000302047
0.000269455
0.00026954
0.000269782
0.000269765
0.000269506
0.000211073
0.000211274
0.000211428
0.000211431
0.000211078
0.000122059
0.00012212
0.000122177
0.000122188
0.000122087
2.0892e-05
2.08929e-05
2.08942e-05
2.08953e-05
2.08951e-05
1.83932e-05
1.83942e-05
1.83956e-05
1.83969e-05
1.83979e-05
1.83977e-05
0.000103819
0.000103854
0.000103896
0.000103938
0.000103943
0.000103892
0.000185472
0.000185619
0.000185764
0.000185872
0.000185876
0.000185622
0.000239442
0.000239515
0.000239693
0.000239845
0.000239848
0.000239633
0.00026919
0.000269339
0.000269654
0.000269847
0.000269813
0.000269521
0.000278325
0.000278532
0.000278905
0.00027892
0.000278653
0.000268742
0.000268849
0.000269127
0.000269125
0.000268885
0.000239601
0.000239679
0.000239804
0.000239835
0.000239652
0.00018725
0.000187386
0.000187495
0.0001875
0.000187254
0.000107653
0.000107682
0.00010772
0.000107725
0.000107663
1.83876e-05
1.83883e-05
1.83892e-05
1.839e-05
1.83899e-05
1.45494e-05
1.45501e-05
1.4551e-05
1.45519e-05
1.45527e-05
1.4553e-05
7.92452e-05
7.92547e-05
7.92818e-05
7.93075e-05
7.93482e-05
7.93399e-05
0.000144256
0.000144297
0.000144376
0.000144464
0.000144574
0.000144473
0.000187092
0.000187247
0.000187407
0.000187524
0.000187523
0.000187308
0.00021086
0.000211127
0.00021134
0.000211493
0.000211495
0.000211164
0.000217663
0.000218013
0.000218269
0.000218322
0.000217971
0.00020937
0.000209605
0.000209791
0.00020982
0.000209494
0.000185618
0.000185758
0.00018587
0.000185882
0.000185654
0.00014437
0.000144403
0.000144462
0.000144462
0.000144375
8.26541e-05
8.26609e-05
8.26739e-05
8.26787e-05
8.26546e-05
1.4525e-05
1.45254e-05
1.45259e-05
1.45264e-05
1.45265e-05
9.74778e-06
9.74816e-06
9.74859e-06
9.74912e-06
9.74996e-06
9.7504e-06
4.63256e-05
4.63282e-05
4.63367e-05
4.63564e-05
4.64884e-05
4.65158e-05
8.25993e-05
8.26145e-05
8.26389e-05
8.26472e-05
8.25298e-05
8.2306e-05
0.00010759
0.000107635
0.00010768
0.000107685
0.000107506
0.000107549
0.000122108
0.000122141
0.000122178
0.00012221
0.000122196
0.000122182
0.000125992
0.000126088
0.000126167
0.000126197
0.000126118
0.000119504
0.000119563
0.000119622
0.000119643
0.000119569
0.000103874
0.000103905
0.000103945
0.000103956
0.000103902
7.92892e-05
7.92959e-05
7.931e-05
7.9316e-05
7.92942e-05
4.63466e-05
4.63465e-05
4.63506e-05
4.63539e-05
4.63492e-05
9.72698e-06
9.72716e-06
9.72738e-06
9.72759e-06
9.7277e-06
4.59358e-06
4.59372e-06
4.59382e-06
4.59389e-06
4.59414e-06
4.59436e-06
9.72548e-06
9.72585e-06
9.72631e-06
9.7268e-06
9.72748e-06
9.72758e-06
1.45223e-05
1.4523e-05
1.45241e-05
1.4525e-05
1.83846e-05
1.83858e-05
1.83874e-05
1.83888e-05
1.83893e-05
2.08905e-05
2.08916e-05
2.08932e-05
2.08947e-05
2.08957e-05
2.17426e-05
2.17439e-05
2.17457e-05
2.17472e-05
2.17474e-05
2.08812e-05
2.08823e-05
2.08838e-05
2.0885e-05
2.08851e-05
1.83954e-05
1.83961e-05
1.83972e-05
1.83981e-05
1.83981e-05
1.45514e-05
1.45518e-05
1.45523e-05
1.45528e-05
1.4553e-05
9.74905e-06
9.74925e-06
9.74948e-06
9.7497e-06
9.7498e-06
4.59399e-06
4.59407e-06
4.59411e-06
4.59414e-06
4.59421e-06
)
;

boundaryField
{
    inlet
    {
        type            calculated;
        value           nonuniform List<scalar> 0();
    }
    ami1
    {
        type            cyclicAMI;
        value           nonuniform List<scalar> 0();
    }
    walls
    {
        type            nutkWallFunction;
        blending        stepwise;
        value           uniform 0;
    }
    ami2
    {
        type            cyclicAMI;
        value           nonuniform List<scalar> 0();
    }
    outlet
    {
        type            calculated;
        value           nonuniform List<scalar> 0();
    }
    procBoundary5to6
    {
        type            processor;
        value           nonuniform List<scalar> 
177
(
4.5937e-06
4.5937e-06
9.7481e-06
1.45531e-05
1.45531e-05
1.45531e-05
1.83977e-05
2.08855e-05
2.08855e-05
2.17475e-05
0.000125988
2.0894e-05
0.000121921
1.83873e-05
1.45224e-05
9.72625e-06
9.72625e-06
9.72625e-06
4.59389e-06
9.72548e-06
4.60755e-05
9.72548e-06
4.60755e-05
4.60755e-05
4.60755e-05
7.9328e-05
0.000103786
0.000119619
0.000125988
0.000121921
0.000121921
0.000107494
0.000186872
8.23922e-05
0.000144158
4.62505e-05
9.74859e-06
9.74859e-06
1.45227e-05
8.22231e-05
8.22231e-05
8.22231e-05
0.000144266
0.000185364
0.000209145
0.000217507
0.000210541
0.00026864
0.000186872
0.000144158
0.000144158
7.91071e-05
1.45517e-05
0.000103768
1.45517e-05
1.83867e-05
2.0891e-05
0.000107466
0.000186811
0.000121703
0.000186811
0.000210288
0.000238953
0.000268433
0.000268072
0.000300941
0.000277718
0.00026864
0.000311781
0.00026864
0.00026864
0.000238939
0.000268298
0.000185257
0.000209115
0.000103768
0.000119538
1.83979e-05
2.0891e-05
0.000121703
0.000210288
0.000210288
0.000217152
0.000268433
0.000277548
0.000300941
0.000311304
0.000311781
0.000301428
0.000268298
0.000209115
0.000119538
0.000119538
2.08864e-05
2.17467e-05
2.17453e-05
2.08839e-05
0.000217152
0.000125948
0.000217445
0.000119562
0.000217152
0.000217152
0.000277548
0.000277548
0.000311304
0.000311304
0.000311304
0.000322762
0.000312093
0.000278203
0.000217639
0.000125998
2.17467e-05
2.08839e-05
0.000119562
0.000208935
0.00026811
0.000301259
0.000312056
0.000301588
0.000269097
0.000210802
0.000121984
2.08943e-05
1.83972e-05
0.000103835
0.000185406
0.000239295
0.000269108
0.000278249
0.000268493
0.000239319
0.000187037
0.000107587
1.83892e-05
1.45528e-05
7.92844e-05
0.000144266
0.000187092
0.000210902
0.000217701
0.000209234
0.000185444
0.00014424
8.26152e-05
1.45261e-05
9.7503e-06
4.63954e-05
1.45256e-05
8.24391e-05
1.45251e-05
0.000107552
1.83894e-05
0.000122064
2.08957e-05
0.000126021
0.000119479
0.000103834
7.92573e-05
4.63376e-05
9.72758e-06
4.59439e-06
1.45256e-05
9.7275e-06
1.45251e-05
1.45256e-05
1.45256e-05
1.83894e-05
2.08957e-05
2.08957e-05
2.17469e-05
2.08846e-05
1.83977e-05
1.45527e-05
9.74968e-06
4.59425e-06
)
;
    }
    procBoundary5to7
    {
        type            processor;
        value           nonuniform List<scalar> 
131
(
4.59366e-06
9.74823e-06
1.45502e-05
1.83938e-05
2.08796e-05
2.17414e-05
2.08899e-05
1.83862e-05
1.45241e-05
9.72632e-06
4.59371e-06
9.72617e-06
4.63473e-05
7.93003e-05
0.000103903
0.000119556
0.000126096
0.000122095
0.000107688
8.26741e-05
4.63515e-05
9.74844e-06
1.4524e-05
8.26703e-05
0.000144449
0.000185733
0.000209587
0.000218076
0.00021122
0.000187388
0.000144478
7.93154e-05
1.45507e-05
1.83867e-05
0.000107695
0.000187378
0.000239881
0.000269157
0.000278964
0.000269798
0.000239929
0.000185822
0.000103943
1.83949e-05
2.08911e-05
0.000122112
0.000211239
0.000269815
0.000302419
0.000313101
0.000302517
0.000269298
0.000209754
0.000119632
2.08815e-05
2.17425e-05
2.17425e-05
0.000126071
0.000126071
0.000217925
0.000217925
0.000278761
0.000278761
0.000312775
0.000312775
0.000324097
0.00031319
0.000279147
0.000218278
0.000126186
2.17436e-05
2.08791e-05
0.000119586
0.000209614
0.000269222
0.000302424
0.000312832
0.000312832
0.000302528
0.000269954
0.000211392
0.00012217
2.08919e-05
1.83921e-05
0.000103883
0.000185711
0.000239875
0.000269779
0.000278756
0.000278756
0.000269241
0.000240009
0.000187489
0.00010773
1.83874e-05
1.45488e-05
7.9282e-05
0.000144397
0.000187324
0.000211207
0.000217925
0.000217925
0.00020968
0.000185854
0.000144516
8.26931e-05
1.45248e-05
9.74739e-06
4.63356e-05
8.26311e-05
0.000107652
0.000122134
0.000126095
0.000126095
0.000119608
0.000103947
7.93271e-05
4.63577e-05
9.72666e-06
4.59339e-06
9.72505e-06
1.45216e-05
1.83838e-05
2.08891e-05
2.17421e-05
2.17421e-05
2.08809e-05
1.83951e-05
1.45511e-05
9.74876e-06
4.59384e-06
)
;
    }
}


// ************************************************************************* //
