/*--------------------------------*- C++ -*----------------------------------*\
| =========                 |                                                 |
| \\      /  F ield         | OpenFOAM: The Open Source CFD Toolbox           |
|  \\    /   O peration     | Version:  2212                                  |
|   \\  /    A nd           | Website:  www.openfoam.com                      |
|    \\/     M anipulation  |                                                 |
\*---------------------------------------------------------------------------*/
FoamFile
{
    version     2.0;
    format      ascii;
    arch        "LSB;label=32;scalar=64";
    class       surfaceScalarField;
    location    "0.15";
    object      phi;
}
// * * * * * * * * * * * * * * * * * * * * * * * * * * * * * * * * * * * * * //

dimensions      [0 3 -1 0 0 0 0];

oriented        oriented;

internalField   nonuniform List<scalar> 
1795
(
1.90048e-07
3.06138e-09
3.06712e-09
1.85526e-07
2.25523e-09
2.26641e-09
1.82155e-07
1.676e-09
1.6956e-09
1.79657e-07
1.23272e-09
1.26541e-09
1.77822e-07
8.89649e-10
9.45206e-10
1.76482e-07
6.22486e-10
7.17098e-10
4.02896e-10
5.61435e-10
5.03239e-07
7.22818e-09
5.46383e-09
4.95964e-07
5.56655e-09
3.9639e-09
4.90456e-07
4.27244e-09
2.91126e-09
4.86282e-07
3.27457e-09
2.13309e-09
4.83113e-07
2.4962e-09
1.56205e-09
4.80729e-07
1.86017e-09
1.14629e-09
1.34658e-09
8.50594e-10
8.1104e-07
8.2922e-09
7.6094e-09
8.04087e-07
6.59009e-09
5.92894e-09
7.98705e-07
5.09633e-09
4.55882e-09
7.9463e-07
3.87055e-09
3.47824e-09
7.91576e-07
2.90693e-09
2.64386e-09
7.89265e-07
2.17456e-09
1.99645e-09
1.63506e-09
1.51769e-09
1.02693e-06
4.84621e-09
8.80342e-09
1.0226e-06
3.89879e-09
7.01611e-09
1.01924e-06
3.0659e-09
5.3956e-09
1.01666e-06
2.37239e-09
4.07733e-09
1.01467e-06
1.83038e-09
3.06482e-09
1.01311e-06
1.43023e-09
2.30506e-09
1.16456e-09
1.74992e-09
1.13294e-06
9.72896e-12
8.8274e-09
1.12962e-06
1.62042e-11
7.20763e-09
1.12693e-06
2.69568e-11
5.72277e-09
1.12483e-06
4.46544e-11
4.43211e-09
1.12326e-06
7.36396e-11
3.32896e-09
1.12212e-06
1.2113e-10
2.44727e-09
1.98565e-10
1.80568e-09
1.13296e-06
-4.83196e-09
8.82399e-09
1.12965e-06
-3.87487e-09
7.20199e-09
1.12699e-06
-3.02602e-09
5.7136e-09
1.12492e-06
-2.30591e-09
4.41781e-09
1.12341e-06
-1.71886e-09
3.30501e-09
1.12237e-06
-1.24298e-09
2.40555e-09
1.73486e-09
1.02697e-06
-8.29015e-09
8.79624e-09
1.02268e-06
-6.58692e-09
7.00562e-09
1.01937e-06
-5.09089e-09
5.37821e-09
1.01688e-06
-3.86041e-09
4.04676e-09
1.01503e-06
-2.88684e-09
3.01224e-09
-2.13376e-09
2.21527e-09
8.11076e-07
-7.2351e-09
7.60325e-09
8.04149e-07
-5.57901e-09
5.91896e-09
7.9881e-07
-4.29379e-09
4.54235e-09
7.94809e-07
-3.31039e-09
3.45046e-09
7.91881e-07
-2.55396e-09
2.59517e-09
-1.94185e-09
1.90772e-09
5.0325e-07
-3.06725e-09
5.4582e-09
4.95982e-07
-2.26669e-09
3.95557e-09
4.90487e-07
-1.69613e-09
2.89804e-09
4.86331e-07
-1.26633e-09
2.1114e-09
4.832e-07
-9.45863e-10
1.5226e-09
-7.16931e-10
1.07987e-09
1.90048e-07
3.06125e-09
1.85526e-07
2.25508e-09
1.82154e-07
1.67593e-09
1.79654e-07
1.23296e-09
1.77819e-07
8.89308e-10
6.2104e-10
5.0325e-07
5.4578e-09
7.23522e-09
4.95983e-07
3.95513e-09
5.57885e-09
4.90488e-07
2.89746e-09
4.29288e-09
4.86336e-07
2.11019e-09
3.30745e-09
4.83208e-07
1.52396e-09
2.54961e-09
4.80896e-07
1.08187e-09
1.94679e-09
7.39635e-10
1.48802e-09
8.62364e-07
9.47301e-09
9.48229e-09
8.56125e-07
7.07148e-09
7.08652e-09
8.51432e-07
5.23892e-09
5.26356e-09
8.48002e-07
3.81622e-09
3.85652e-09
8.45524e-07
2.74891e-09
2.81534e-09
8.43704e-07
1.96949e-09
2.07872e-09
1.38376e-09
1.56292e-09
1.14703e-06
1.03564e-08
1.16553e-08
1.14285e-06
8.04679e-09
9.13282e-09
1.13951e-06
6.0941e-09
7.04765e-09
1.13693e-06
4.52452e-09
5.35232e-09
1.13498e-06
3.31842e-09
4.01962e-09
1.13354e-06
2.40796e-09
3.00166e-09
1.74249e-09
2.26889e-09
1.35243e-06
6.63498e-09
1.302e-08
1.3516e-06
5.26826e-09
1.06314e-08
1.35066e-06
4.04119e-09
8.38545e-09
1.34975e-06
3.03728e-09
6.47001e-09
1.34895e-06
2.26062e-09
4.92677e-09
1.34826e-06
1.68655e-09
3.72065e-09
1.29189e-09
2.81253e-09
1.45694e-06
9.02057e-12
1.31173e-08
1.45831e-06
1.46789e-11
1.10887e-08
1.45898e-06
2.39215e-11
9.0642e-09
1.45924e-06
3.88106e-11
7.179e-09
1.45926e-06
6.28792e-11
5.50314e-09
1.45917e-06
1.01902e-10
4.12081e-09
1.65082e-10
3.06879e-09
1.45696e-06
-6.6233e-09
1.31116e-08
1.45835e-06
-5.2498e-09
1.10796e-08
1.45904e-06
-4.011e-09
9.04962e-09
1.45933e-06
-2.98714e-09
7.15617e-09
1.45941e-06
-2.17834e-09
5.46584e-09
1.45941e-06
-1.55228e-09
4.05853e-09
2.96676e-09
1.35248e-06
-1.03578e-08
1.30075e-08
1.35167e-06
-8.04981e-09
1.06121e-08
1.35079e-06
-6.09885e-09
8.35393e-09
1.34996e-06
-4.53056e-09
6.41669e-09
1.34928e-06
-3.32643e-09
4.83853e-09
-2.42181e-09
3.57674e-09
1.14706e-06
-9.48187e-09
1.16434e-08
1.1429e-06
-7.0861e-09
9.11298e-09
1.1396e-06
-5.26298e-09
7.01475e-09
1.13707e-06
-3.85503e-09
5.29761e-09
1.13522e-06
-2.80903e-09
3.92861e-09
-2.07831e-09
2.85348e-09
8.62365e-07
-5.46335e-09
9.47314e-09
8.56126e-07
-3.9636e-09
7.07154e-09
8.51434e-07
-2.91126e-09
5.23867e-09
8.48009e-07
-2.13391e-09
3.81483e-09
8.45541e-07
-1.5603e-09
2.7422e-09
-1.14379e-09
1.96802e-09
5.03239e-07
7.22843e-09
4.95964e-07
5.56691e-09
4.90455e-07
4.27338e-09
4.86277e-07
3.27742e-09
4.83105e-07
2.50005e-09
1.85423e-09
8.11076e-07
7.60302e-09
8.29053e-09
8.04148e-07
5.91879e-09
6.58733e-09
7.98808e-07
4.54211e-09
5.09136e-09
7.94804e-07
3.44972e-09
3.86108e-09
7.91871e-07
2.59416e-09
2.88872e-09
7.89769e-07
1.91022e-09
2.13849e-09
1.3668e-09
1.56316e-09
1.14706e-06
1.16434e-08
1.03583e-08
1.1429e-06
9.11324e-09
8.05047e-09
1.13959e-06
7.0154e-09
6.09987e-09
1.13707e-06
5.29891e-09
4.53228e-09
1.13522e-06
3.93082e-09
3.32885e-09
1.13393e-06
2.85342e-09
2.42079e-09
2.02033e-09
1.75512e-09
1.40875e-06
1.17138e-08
1.1722e-08
1.40821e-06
9.38729e-09
9.40027e-09
1.40756e-06
7.34835e-09
7.36921e-09
1.40693e-06
5.62435e-09
5.658e-09
1.40639e-06
4.21491e-09
4.26905e-09
1.40597e-06
3.09476e-09
3.18151e-09
2.23223e-09
2.37042e-09
1.59429e-06
7.29763e-09
1.23263e-08
1.59805e-06
5.94218e-09
1.03188e-08
1.60073e-06
4.69024e-09
8.36574e-09
1.6026e-06
3.61508e-09
6.60526e-09
1.6039e-06
2.74029e-09
5.10529e-09
1.60478e-06
2.05263e-09
3.88269e-09
1.52943e-09
2.92975e-09
1.68947e-06
4.57153e-12
1.22383e-08
1.69594e-06
7.21029e-12
1.05492e-08
1.7009e-06
1.13567e-11
8.78127e-09
1.70459e-06
1.78671e-11
7.08637e-09
1.70725e-06
2.81947e-11
5.56046e-09
1.70911e-06
4.45202e-11
4.26158e-09
7.01135e-11
3.21318e-09
1.68948e-06
-7.29439e-09
1.22331e-08
1.69596e-06
-5.93718e-09
1.05411e-08
1.70094e-06
-4.68229e-09
8.76837e-09
1.70465e-06
-3.60221e-09
7.06597e-09
1.70733e-06
-2.71981e-09
5.52808e-09
1.70925e-06
-2.02019e-09
4.21026e-09
3.1325e-09
1.59432e-06
-1.17213e-08
1.23156e-08
1.59809e-06
-9.39946e-09
1.03018e-08
1.60079e-06
-7.36811e-09
8.33844e-09
1.6027e-06
-5.65656e-09
6.56121e-09
1.60405e-06
-4.26752e-09
5.03476e-09
-3.18124e-09
3.77052e-09
1.40875e-06
-1.16547e-08
1.17137e-08
1.40821e-06
-9.13205e-09
9.38702e-09
1.40756e-06
-7.04654e-09
7.34784e-09
1.40692e-06
-5.35048e-09
5.62357e-09
1.40639e-06
-4.01645e-09
4.21418e-09
-3.00022e-09
3.09542e-09
1.14703e-06
-7.60898e-09
1.03563e-08
1.14285e-06
-5.92863e-09
8.04656e-09
1.13951e-06
-4.55875e-09
6.09354e-09
1.13693e-06
-3.47874e-09
4.5232e-09
1.13498e-06
-2.64413e-09
3.31583e-09
-1.99193e-09
2.40738e-09
8.1104e-07
8.29235e-09
8.04088e-07
6.59019e-09
7.98706e-07
5.09642e-09
7.94634e-07
3.87062e-09
7.91584e-07
2.90595e-09
2.17028e-09
1.02697e-06
8.79627e-09
4.83234e-09
1.02268e-06
7.00586e-09
3.87547e-09
1.01936e-06
5.37883e-09
3.02704e-09
1.01687e-06
4.04796e-09
2.30773e-09
1.01502e-06
3.01409e-09
1.72223e-09
1.0137e-06
2.2169e-09
1.24882e-09
1.59574e-09
8.59487e-10
1.35248e-06
1.30075e-08
6.62362e-09
1.35167e-06
1.06124e-08
5.25028e-09
1.35079e-06
8.3545e-09
4.01171e-09
1.34996e-06
6.41752e-09
2.9881e-09
1.34928e-06
4.83895e-09
2.17903e-09
1.3488e-06
3.57428e-09
1.55094e-09
2.56909e-09
1.06655e-09
1.59432e-06
1.23156e-08
7.2947e-09
1.59809e-06
1.03018e-08
5.93757e-09
1.60079e-06
8.33856e-09
4.68272e-09
1.60271e-06
6.56128e-09
3.60257e-09
1.60406e-06
5.03438e-09
2.71973e-09
1.60503e-06
3.76905e-09
2.01911e-09
2.74899e-09
1.47471e-09
1.76327e-06
7.42295e-09
7.42667e-09
1.77128e-06
6.30349e-09
6.30932e-09
1.77763e-06
5.17285e-09
5.18201e-09
1.78254e-06
4.1212e-09
4.13563e-09
1.78626e-06
3.19811e-09
3.22069e-09
1.78904e-06
2.42006e-09
2.45506e-09
1.78526e-09
1.83871e-09
1.85027e-06
1.99848e-13
7.28707e-09
1.86076e-06
2.95326e-13
6.35987e-09
1.86936e-06
4.1247e-13
5.35805e-09
1.87619e-06
5.75517e-13
4.37563e-09
1.88147e-06
8.48226e-13
3.47361e-09
1.88547e-06
1.36895e-12
2.68225e-09
2.43122e-12
2.00662e-09
1.85027e-06
-7.42639e-09
7.28439e-09
1.86077e-06
-6.30897e-09
6.35571e-09
1.86937e-06
-5.18161e-09
5.35159e-09
1.8762e-06
-4.13522e-09
4.36561e-09
1.8815e-06
-3.22041e-09
3.45818e-09
1.8855e-06
-2.45513e-09
2.6587e-09
1.97118e-09
1.76327e-06
-1.23257e-08
7.42298e-09
1.77128e-06
-1.0318e-08
6.30354e-09
1.77763e-06
-8.36481e-09
5.17293e-09
1.78254e-06
-6.60416e-09
4.12139e-09
1.78626e-06
-5.10421e-09
3.19852e-09
-3.88224e-09
2.42085e-09
1.59429e-06
-1.30193e-08
7.29749e-09
1.59805e-06
-1.06306e-08
5.94202e-09
1.60073e-06
-8.38441e-09
4.69005e-09
1.6026e-06
-6.46859e-09
3.6149e-09
1.6039e-06
-4.92499e-09
2.7403e-09
-3.71963e-09
2.05331e-09
1.35243e-06
-8.80296e-09
6.6347e-09
1.3516e-06
-7.01564e-09
5.26794e-09
1.35066e-06
-5.39508e-09
4.04073e-09
1.34976e-06
-4.07666e-09
3.0366e-09
1.34895e-06
-3.0637e-09
2.25985e-09
-2.3032e-09
1.68662e-09
1.02693e-06
4.84616e-09
1.0226e-06
3.89854e-09
1.01924e-06
3.06542e-09
1.01666e-06
2.3717e-09
1.01468e-06
1.82924e-09
1.42819e-09
1.13296e-06
8.82392e-09
-9.60489e-12
1.12965e-06
7.20202e-09
-1.5945e-11
1.12699e-06
5.71383e-09
-2.65088e-11
1.12492e-06
4.41838e-09
-4.39532e-11
1.12341e-06
3.30613e-09
-7.25659e-11
1.12237e-06
2.40733e-09
-1.19501e-10
1.73618e-09
-1.96616e-10
1.45696e-06
1.31115e-08
-8.96137e-12
1.45835e-06
1.10796e-08
-1.4569e-11
1.45904e-06
9.04971e-09
-2.3766e-11
1.45933e-06
7.15645e-09
-3.86617e-11
1.45942e-06
5.46628e-09
-6.2911e-11
1.45942e-06
4.0589e-09
-1.02403e-10
2.9664e-09
-1.65939e-10
1.68948e-06
1.22329e-08
-4.57344e-12
1.69596e-06
1.05409e-08
-7.21262e-12
1.70094e-06
8.76827e-09
-1.13884e-11
1.70465e-06
7.06589e-09
-1.79847e-11
1.70734e-06
5.52794e-09
-2.84969e-11
1.70925e-06
4.20992e-09
-4.51041e-11
3.1319e-09
-7.08655e-11
1.85028e-06
7.28424e-09
-2.1231e-13
1.86077e-06
6.35556e-09
-2.8606e-13
1.86937e-06
5.35143e-09
-3.92911e-13
1.87621e-06
4.36543e-09
-5.64565e-13
1.8815e-06
3.45797e-09
-8.81058e-13
1.88551e-06
2.65842e-09
-1.48512e-12
1.97085e-09
-2.60451e-12
1.93304e-06
-6.33378e-13
6.33191e-13
1.94575e-06
-9.47695e-13
1.00233e-12
1.95646e-06
-1.43926e-12
1.54857e-12
1.9652e-06
-2.18809e-12
2.35225e-12
1.97214e-06
-3.30597e-12
3.50909e-12
1.97748e-06
-4.93198e-12
5.11124e-12
-7.14756e-12
7.27037e-12
1.93304e-06
-7.28683e-09
-5.97443e-13
1.94575e-06
-6.35954e-09
-8.9507e-13
1.95646e-06
-5.35765e-09
-1.37473e-12
1.9652e-06
-4.37514e-09
-2.12041e-12
1.97213e-06
-3.47312e-09
-3.24463e-12
1.97747e-06
-2.68191e-09
-4.8638e-12
-7.02603e-12
1.85027e-06
-1.22378e-08
1.68409e-13
1.86076e-06
-1.05486e-08
3.28691e-13
1.86936e-06
-8.7805e-09
5.21697e-13
1.87619e-06
-7.08549e-09
7.72083e-13
1.88147e-06
-5.5596e-09
1.14772e-12
-4.26104e-09
1.78646e-12
1.68946e-06
-1.31167e-08
4.38675e-12
1.69594e-06
-1.1088e-08
7.15738e-12
1.7009e-06
-9.06343e-09
1.1458e-11
1.70459e-06
-7.17813e-09
1.8156e-11
1.70724e-06
-5.50227e-09
2.87431e-11
-4.12032e-09
4.5407e-11
1.45694e-06
-8.82694e-09
8.63598e-12
1.45831e-06
-7.2072e-09
1.43627e-11
1.45898e-06
-5.72237e-09
2.36649e-11
1.45924e-06
-4.43174e-09
3.86702e-11
1.45926e-06
-3.3286e-09
6.30437e-11
-2.44696e-09
1.02661e-10
1.13294e-06
9.68237e-12
1.12962e-06
1.5687e-11
1.12693e-06
2.60315e-11
1.12483e-06
4.35451e-11
1.12326e-06
7.24222e-11
1.19667e-10
1.13294e-06
8.82723e-09
-4.84629e-09
1.12962e-06
7.20751e-09
-3.8988e-09
1.12693e-06
5.72276e-09
-3.06582e-09
1.12483e-06
4.43227e-09
-2.37224e-09
1.12326e-06
3.32934e-09
-1.83017e-09
1.12212e-06
2.44789e-09
-1.42997e-09
1.8063e-09
-1.16431e-09
1.45694e-06
1.31171e-08
-6.63509e-09
1.45831e-06
1.10885e-08
-5.26839e-09
1.45898e-06
9.06412e-09
-4.04134e-09
1.45924e-06
7.17908e-09
-3.0375e-09
1.45926e-06
5.5034e-09
-2.26096e-09
1.45917e-06
4.12118e-09
-1.68706e-09
3.06905e-09
-1.29249e-09
1.68947e-06
1.2238e-08
-7.29781e-09
1.69594e-06
1.0549e-08
-5.94239e-09
1.7009e-06
8.7811e-09
-4.69047e-09
1.70459e-06
7.08628e-09
-3.61536e-09
1.70725e-06
5.56044e-09
-2.74063e-09
1.70911e-06
4.26161e-09
-2.05304e-09
3.2132e-09
-1.52986e-09
1.85027e-06
7.28687e-09
-7.42313e-09
1.86076e-06
6.35969e-09
-6.30366e-09
1.86936e-06
5.3579e-09
-5.173e-09
1.87619e-06
4.37551e-09
-4.12134e-09
1.88148e-06
3.47354e-09
-3.19823e-09
1.88547e-06
2.68224e-09
-2.42017e-09
2.00664e-09
-1.78535e-09
1.93304e-06
5.80771e-13
-7.28439e-09
1.94575e-06
9.60091e-13
-6.35565e-09
1.95646e-06
1.52566e-12
-5.35145e-09
1.9652e-06
2.35826e-12
-4.36539e-09
1.97214e-06
3.55034e-12
-3.45787e-09
1.97748e-06
5.17855e-12
-2.65831e-09
7.30367e-12
-1.97072e-09
1.93304e-06
-7.28421e-09
-7.287e-09
1.94575e-06
-6.3554e-09
-6.35972e-09
1.95646e-06
-5.35115e-09
-5.35784e-09
1.9652e-06
-4.36505e-09
-4.37537e-09
1.97213e-06
-3.45753e-09
-3.47337e-09
1.97747e-06
-2.6581e-09
-2.6821e-09
-2.00655e-09
1.85027e-06
-1.22327e-08
-7.42655e-09
1.86077e-06
-1.05405e-08
-6.3091e-09
1.86937e-06
-8.76758e-09
-5.18172e-09
1.8762e-06
-7.06501e-09
-4.13532e-09
1.88149e-06
-5.52702e-09
-3.22052e-09
-4.20929e-09
-2.45522e-09
1.68948e-06
-1.31113e-08
-7.29456e-09
1.69596e-06
-1.10791e-08
-5.93717e-09
1.70094e-06
-9.04894e-09
-4.68211e-09
1.70465e-06
-7.1554e-09
-3.60181e-09
1.70733e-06
-5.46509e-09
-2.719e-09
-4.05802e-09
-2.01888e-09
1.45696e-06
-8.82371e-09
-6.62365e-09
1.45834e-06
-7.2019e-09
-5.24992e-09
1.45904e-06
-5.71368e-09
-4.01106e-09
1.45933e-06
-4.41801e-09
-2.98711e-09
1.45941e-06
-3.30549e-09
-2.17768e-09
-2.40648e-09
-1.55005e-09
1.13296e-06
-4.83217e-09
1.12965e-06
-3.87595e-09
1.12699e-06
-3.02782e-09
1.12492e-06
-2.30817e-09
1.12341e-06
-1.72163e-09
-1.2467e-09
1.02693e-06
8.80319e-09
-8.29234e-09
1.0226e-06
7.01595e-09
-6.5902e-09
1.01924e-06
5.39553e-09
-5.09642e-09
1.01666e-06
4.07736e-09
-3.87065e-09
1.01467e-06
3.06499e-09
-2.90706e-09
1.01311e-06
2.30536e-09
-2.17473e-09
1.7503e-09
-1.63529e-09
1.35243e-06
1.30197e-08
-1.03565e-08
1.3516e-06
1.06312e-08
-8.047e-09
1.35066e-06
8.3853e-09
-6.09436e-09
1.34976e-06
6.46998e-09
-4.52486e-09
1.34895e-06
4.92687e-09
-3.31885e-09
1.34826e-06
3.72089e-09
-2.4085e-09
2.81288e-09
-1.74312e-09
1.59429e-06
1.2326e-08
-1.1714e-08
1.59805e-06
1.03185e-08
-9.38756e-09
1.60073e-06
8.36554e-09
-7.34864e-09
1.6026e-06
6.60514e-09
-5.62466e-09
1.6039e-06
5.10526e-09
-4.21526e-09
1.60478e-06
3.88277e-09
-3.09516e-09
2.92994e-09
-2.23269e-09
1.76327e-06
7.42643e-09
-1.23158e-08
1.77128e-06
6.30911e-09
-1.0302e-08
1.77763e-06
5.18184e-09
-8.33874e-09
1.78254e-06
4.1355e-09
-6.56142e-09
1.78626e-06
3.22062e-09
-5.0345e-09
1.78904e-06
2.45504e-09
-3.76917e-09
1.83876e-09
-2.74914e-09
1.85027e-06
-2.83552e-13
-1.22331e-08
1.86077e-06
-3.25954e-13
-1.0541e-08
1.86937e-06
-4.03062e-13
-8.76827e-09
1.8762e-06
-5.60417e-13
-7.06579e-09
1.8815e-06
-8.98826e-13
-5.52777e-09
1.8855e-06
-1.5704e-12
-4.20975e-09
-2.73723e-12
-3.13181e-09
1.8379e-06
-8.39724e-09
-1.36293e-08
1.85027e-06
-7.42292e-09
-1.22381e-08
1.86076e-06
-6.30333e-09
-1.0549e-08
1.86936e-06
-5.17257e-09
-8.78098e-09
1.87619e-06
-4.12088e-09
-7.08605e-09
1.88147e-06
-3.19789e-09
-5.56021e-09
1.88547e-06
-2.42016e-09
-4.26155e-09
-3.21337e-09
1.75348e-06
-1.41681e-08
-1.41747e-08
1.76327e-06
-1.23153e-08
-1.2326e-08
1.77128e-06
-1.03012e-08
-1.03184e-08
1.77763e-06
-8.33764e-09
-8.36529e-09
1.78254e-06
-6.56015e-09
-6.60482e-09
1.78626e-06
-5.03326e-09
-5.10524e-09
-3.76853e-09
-3.88369e-09
1.5892e-06
-1.53436e-08
-1.42035e-08
1.59432e-06
-1.30071e-08
-1.17215e-08
1.59809e-06
-1.06114e-08
-9.39975e-09
1.60079e-06
-8.35314e-09
-7.36844e-09
1.6027e-06
-6.4159e-09
-5.65689e-09
1.60405e-06
-4.83701e-09
-4.26788e-09
-3.57309e-09
-3.18159e-09
1.35295e-06
-1.06352e-08
-1.29899e-08
1.35248e-06
-8.79631e-09
-1.03579e-08
1.35167e-06
-7.00584e-09
-8.04975e-09
1.35078e-06
-5.37867e-09
-6.0988e-09
1.34996e-06
-4.04757e-09
-4.5305e-09
1.34928e-06
-3.01302e-09
-3.32573e-09
-2.21487e-09
-2.41949e-09
1.03231e-06
-1.01047e-08
1.02698e-06
-8.29016e-09
1.02268e-06
-6.58771e-09
1.01937e-06
-5.09241e-09
1.01687e-06
-3.8621e-09
1.01503e-06
-2.88787e-09
-2.13336e-09
8.1104e-07
7.60905e-09
-7.22821e-09
8.04088e-07
5.92868e-09
-5.56655e-09
7.98705e-07
4.55867e-09
-4.27248e-09
7.94631e-07
3.47819e-09
-3.27466e-09
7.91576e-07
2.64391e-09
-2.49635e-09
7.89266e-07
1.99662e-09
-1.86039e-09
1.518e-09
-1.34688e-09
1.14703e-06
1.16549e-08
-9.47318e-09
1.14285e-06
9.1325e-09
-7.0717e-09
1.13951e-06
7.04743e-09
-5.23918e-09
1.13693e-06
5.35221e-09
-3.81654e-09
1.13498e-06
4.01964e-09
-2.74931e-09
1.13354e-06
3.00185e-09
-1.96998e-09
2.26929e-09
-1.38439e-09
1.40875e-06
1.17216e-08
-1.16437e-08
1.40821e-06
9.39994e-09
-9.11349e-09
1.40756e-06
7.36896e-09
-7.01565e-09
1.40693e-06
5.65784e-09
-5.29918e-09
1.40639e-06
4.26898e-09
-3.93111e-09
1.40597e-06
3.18157e-09
-2.8538e-09
2.37065e-09
-2.02087e-09
1.59432e-06
7.2944e-09
-1.30078e-08
1.59809e-06
5.93731e-09
-1.06126e-08
1.60079e-06
4.68251e-09
-8.3546e-09
1.6027e-06
3.6024e-09
-6.41758e-09
1.60406e-06
2.71959e-09
-4.83899e-09
1.60503e-06
2.01898e-09
-3.57435e-09
1.47466e-09
-2.56929e-09
1.68948e-06
-4.64043e-12
-1.31117e-08
1.69596e-06
-7.27188e-12
-1.10796e-08
1.70094e-06
-1.14431e-11
-9.04959e-09
1.70465e-06
-1.80716e-11
-7.15614e-09
1.70733e-06
-2.87054e-11
-5.46583e-09
1.70925e-06
-4.55309e-11
-4.05844e-09
-7.1408e-11
-2.96616e-09
1.68129e-06
-8.62638e-09
-1.49516e-08
1.68946e-06
-7.29754e-09
-1.31172e-08
1.69594e-06
-5.94209e-09
-1.10884e-08
1.7009e-06
-4.69013e-09
-9.06377e-09
1.70459e-06
-3.61505e-09
-7.17844e-09
1.70724e-06
-2.74069e-09
-5.50255e-09
1.70911e-06
-2.05401e-09
-4.12043e-09
-3.06903e-09
1.58918e-06
-1.41985e-08
-1.53507e-08
1.59429e-06
-1.17135e-08
-1.30196e-08
1.59805e-06
-9.38687e-09
-1.06309e-08
1.60073e-06
-7.34766e-09
-8.38464e-09
1.6026e-06
-5.62331e-09
-6.46894e-09
1.60389e-06
-4.21375e-09
-4.92606e-09
-3.09479e-09
-3.72278e-09
1.40889e-06
-1.46147e-08
-1.46211e-08
1.40875e-06
-1.16434e-08
-1.16547e-08
1.40821e-06
-9.1129e-09
-9.13224e-09
1.40756e-06
-7.0146e-09
-7.04678e-09
1.40692e-06
-5.29735e-09
-5.35084e-09
1.40639e-06
-3.92794e-09
-4.01719e-09
-2.85225e-09
-3.00137e-09
1.15198e-06
-9.63309e-09
-1.25975e-08
1.14706e-06
-7.60343e-09
-9.4815e-09
1.1429e-06
-5.91933e-09
-7.08541e-09
1.13959e-06
-4.54273e-09
-5.2622e-09
1.13707e-06
-3.45065e-09
-3.85443e-09
1.13522e-06
-2.59457e-09
-2.8083e-09
-1.9058e-09
-2.07701e-09
8.19736e-07
-9.27724e-09
8.11077e-07
-7.23503e-09
8.0415e-07
-5.57951e-09
7.98809e-07
-4.29437e-09
7.94807e-07
-3.31081e-09
7.91878e-07
-2.55354e-09
-1.94001e-09
5.0324e-07
5.46345e-09
-3.06119e-09
4.95965e-07
3.96355e-09
-2.25499e-09
4.90457e-07
2.91097e-09
-1.6758e-09
4.86282e-07
2.13287e-09
-1.23258e-09
4.83113e-07
1.56192e-09
-8.89582e-10
4.80729e-07
1.14624e-09
-6.22481e-10
8.5069e-10
-4.02921e-10
8.62364e-07
9.48189e-09
-5.45801e-09
8.56126e-07
7.08616e-09
-3.95536e-09
8.51432e-07
5.26325e-09
-2.89769e-09
8.48002e-07
3.85627e-09
-2.11043e-09
8.45524e-07
2.81518e-09
-1.52421e-09
8.43704e-07
2.07869e-09
-1.08216e-09
1.56313e-09
-7.40003e-10
1.14706e-06
1.03579e-08
-7.60319e-09
1.1429e-06
8.05008e-09
-5.91896e-09
1.13959e-06
6.09953e-09
-4.54227e-09
1.13707e-06
4.53199e-09
-3.44987e-09
1.13522e-06
3.32862e-09
-2.5943e-09
1.13393e-06
2.42068e-09
-1.91039e-09
1.75526e-09
-1.3671e-09
1.35248e-06
6.62331e-09
-8.79641e-09
1.35167e-06
5.24999e-09
-7.00597e-09
1.35078e-06
4.01144e-09
-5.37889e-09
1.34996e-06
2.98786e-09
-4.04796e-09
1.34928e-06
2.1788e-09
-3.01404e-09
1.3488e-06
1.55072e-09
-2.21683e-09
1.06646e-09
-1.59579e-09
1.45696e-06
-8.98644e-12
-8.82404e-09
1.45834e-06
-1.46056e-11
-7.20213e-09
1.45904e-06
-2.37655e-11
-5.71387e-09
1.45933e-06
-3.85986e-11
-4.41824e-09
1.45941e-06
-6.28932e-11
-3.30577e-09
1.45942e-06
-1.02693e-10
-2.40678e-09
-1.66426e-10
-1.73568e-09
1.4546e-06
-8.0419e-09
-1.04833e-08
1.45693e-06
-6.63477e-09
-8.82735e-09
1.45831e-06
-5.26809e-09
-7.20755e-09
1.45898e-06
-4.04088e-09
-5.72261e-09
1.45923e-06
-3.03674e-09
-4.43167e-09
1.45926e-06
-2.2603e-09
-3.32809e-09
1.45917e-06
-1.68823e-09
-2.44591e-09
-1.80476e-09
1.35293e-06
-1.29881e-08
-1.06393e-08
1.35243e-06
-1.0356e-08
-8.80321e-09
1.3516e-06
-8.04653e-09
-7.01586e-09
1.35066e-06
-6.09365e-09
-5.39502e-09
1.34975e-06
-4.52349e-09
-4.0761e-09
1.34895e-06
-3.31663e-09
-3.06283e-09
-2.40947e-09
-2.30326e-09
1.15196e-06
-1.25917e-08
-9.63616e-09
1.14703e-06
-9.47256e-09
-7.6092e-09
1.14285e-06
-7.07098e-09
-5.92922e-09
1.13951e-06
-5.23835e-09
-4.55936e-09
1.13693e-06
-3.81514e-09
-3.4792e-09
1.13498e-06
-2.74341e-09
-2.6448e-09
-1.97007e-09
-1.99341e-09
8.70398e-07
-7.60233e-09
-7.60576e-09
8.62365e-07
-5.45775e-09
-5.46327e-09
8.56127e-07
-3.95487e-09
-3.96319e-09
8.51434e-07
-2.89729e-09
-2.91072e-09
8.4801e-07
-2.1111e-09
-2.13371e-09
8.45541e-07
-1.52272e-09
-1.56059e-09
-1.07999e-09
-1.14452e-09
5.12878e-07
-4.13136e-09
5.03252e-07
-3.06696e-09
4.95985e-07
-2.26659e-09
4.90488e-07
-1.69555e-09
4.86332e-07
-1.26557e-09
4.83201e-07
-9.44843e-10
-7.15361e-10
1.90048e-07
3.06722e-09
1.85526e-07
2.26654e-09
1.82155e-07
1.69572e-09
1.79657e-07
1.26551e-09
1.77822e-07
9.45278e-10
1.76482e-07
7.17164e-10
5.61529e-10
5.03251e-07
7.23508e-09
4.95983e-07
5.57872e-09
4.90488e-07
4.29274e-09
4.86336e-07
3.30731e-09
4.83208e-07
2.54949e-09
4.80896e-07
1.94671e-09
1.48806e-09
8.11076e-07
8.29034e-09
8.04148e-07
6.5871e-09
7.98808e-07
5.09111e-09
7.94804e-07
3.86085e-09
7.91871e-07
2.88856e-09
7.89769e-07
2.13843e-09
1.56328e-09
1.02697e-06
4.83229e-09
1.02268e-06
3.87532e-09
1.01936e-06
3.02685e-09
1.01687e-06
2.3076e-09
1.01502e-06
1.72228e-09
1.01369e-06
1.24911e-09
8.59985e-10
1.13296e-06
-9.5008e-12
1.12965e-06
-1.60069e-11
1.12699e-06
-2.65748e-11
1.12492e-06
-4.37261e-11
1.12341e-06
-7.17295e-11
1.12237e-06
-1.17838e-10
-1.94449e-10
1.13693e-06
-5.8559e-09
1.13294e-06
-4.84624e-09
1.12962e-06
-3.89895e-09
1.12693e-06
-3.06581e-09
1.12483e-06
-2.37125e-09
1.12326e-06
-1.82715e-09
1.12212e-06
-1.42402e-09
1.03229e-06
-1.0106e-08
1.02693e-06
-8.29227e-09
1.02261e-06
-6.59086e-09
1.01924e-06
-5.09754e-09
1.01667e-06
-3.87143e-09
1.01468e-06
-2.90588e-09
-2.16998e-09
8.19714e-07
-9.27266e-09
8.11041e-07
-7.22807e-09
8.04089e-07
-5.56767e-09
7.98706e-07
-4.27474e-09
7.94635e-07
-3.27906e-09
7.91586e-07
-2.50174e-09
-1.856e-09
5.12872e-07
-4.12773e-09
5.03242e-07
-3.06106e-09
4.95966e-07
-2.25555e-09
4.90457e-07
-1.67648e-09
4.86278e-07
-1.23383e-09
4.83107e-07
-8.90678e-10
-6.22838e-10
1.96177e-07
1.90049e-07
1.85527e-07
1.82155e-07
1.79655e-07
1.7782e-07
)
;

boundaryField
{
    inlet
    {
        type            calculated;
        value           nonuniform List<scalar> 0();
    }
    ami1
    {
        type            cyclicAMI;
        value           nonuniform List<scalar> 0();
    }
    walls
    {
        type            calculated;
        value           uniform 0;
    }
    ami2
    {
        type            cyclicAMI;
        value           nonuniform List<scalar> 0();
    }
    outlet
    {
        type            calculated;
        value           nonuniform List<scalar> 0();
    }
    procBoundary3to2
    {
        type            processor;
        value           nonuniform List<scalar> 
110
(
1.75518e-07
4.78935e-07
7.87459e-07
1.01183e-06
1.12128e-06
1.12169e-06
-8.53857e-10
1.01371e-06
7.89782e-07
4.80896e-07
1.76481e-07
4.7923e-07
8.42347e-07
1.13243e-06
1.34764e-06
1.45903e-06
1.45942e-06
-1.06891e-09
1.34879e-06
1.13393e-06
8.43718e-07
4.80728e-07
7.88327e-07
1.13309e-06
1.40566e-06
1.60537e-06
1.71043e-06
1.71063e-06
-1.47629e-09
1.60502e-06
1.40597e-06
1.13354e-06
7.89276e-07
1.0128e-06
1.34851e-06
1.60574e-06
1.79109e-06
1.88846e-06
1.88851e-06
-1.83915e-09
1.78903e-06
1.60478e-06
1.34825e-06
1.01311e-06
1.12169e-06
1.45942e-06
1.71063e-06
1.88851e-06
1.98145e-06
1.98145e-06
-2.00657e-09
1.88547e-06
1.70911e-06
1.45917e-06
1.12212e-06
1.12128e-06
1.45904e-06
1.71043e-06
1.88846e-06
1.98145e-06
1.98145e-06
-1.97077e-09
1.8855e-06
1.70925e-06
1.45941e-06
1.12237e-06
1.01183e-06
1.34764e-06
1.60537e-06
1.79109e-06
1.88851e-06
1.88846e-06
-1.78567e-09
1.78903e-06
1.60502e-06
1.34879e-06
1.0137e-06
7.87459e-07
1.13243e-06
1.40566e-06
1.60574e-06
1.71063e-06
1.71043e-06
-1.53122e-09
1.60477e-06
1.40596e-06
1.13393e-06
7.89779e-07
4.78935e-07
8.42347e-07
1.13309e-06
1.34851e-06
1.45942e-06
1.45903e-06
-1.29445e-09
1.34825e-06
1.13354e-06
8.43719e-07
4.80896e-07
1.75518e-07
4.7923e-07
7.88327e-07
1.0128e-06
1.12169e-06
1.12128e-06
-1.15838e-09
1.01312e-06
7.89279e-07
4.80729e-07
1.76482e-07
)
;
    }
    procBoundary3to4
    {
        type            processor;
        value           nonuniform List<scalar> 
109
(
-1.96176e-07
-5.1287e-07
-8.19713e-07
-1.03229e-06
-1.13693e-06
-1.13694e-06
-1.03231e-06
-8.19734e-07
-5.12876e-07
-1.96176e-07
-5.12876e-07
-8.70398e-07
-1.15196e-06
-1.35293e-06
-1.4546e-06
-1.45461e-06
-1.35296e-06
-1.15198e-06
-8.70398e-07
-5.1287e-07
-8.19734e-07
-1.15198e-06
-1.40889e-06
-1.58918e-06
-1.68129e-06
-1.6813e-06
-1.5892e-06
-1.40889e-06
-1.15196e-06
-8.19713e-07
-1.03231e-06
-1.35296e-06
-1.5892e-06
-1.75348e-06
-1.8379e-06
-1.8379e-06
-1.75348e-06
-1.58918e-06
-1.35293e-06
-1.03229e-06
-1.13694e-06
-1.45461e-06
-1.6813e-06
-1.8379e-06
-1.91847e-06
-1.91847e-06
-1.8379e-06
-1.68129e-06
-1.4546e-06
-1.13693e-06
-1.13693e-06
-1.4546e-06
-1.68129e-06
-1.8379e-06
-1.91847e-06
-1.91847e-06
8.01847e-09
-1.8379e-06
8.39952e-09
-1.6813e-06
8.62477e-09
-1.45461e-06
8.03602e-09
-1.13694e-06
5.84688e-09
-1.03229e-06
-1.35293e-06
-1.58918e-06
-1.75348e-06
-1.8379e-06
2.29645e-13
-1.82389e-06
-1.74193e-06
-1.58244e-06
-1.35271e-06
-1.03869e-06
-8.19713e-07
-1.15196e-06
-1.40889e-06
-1.5892e-06
-1.6813e-06
2.95317e-12
-1.67135e-06
-1.58243e-06
-1.40806e-06
-1.15735e-06
-8.30197e-07
-5.1287e-07
-8.70398e-07
-1.15198e-06
-1.35296e-06
-1.45461e-06
5.4537e-12
-1.45103e-06
-1.35269e-06
-1.15734e-06
-8.80379e-07
-5.25626e-07
-1.96176e-07
-5.12876e-07
-8.19734e-07
-1.03231e-06
-1.13694e-06
5.55326e-12
-1.14157e-06
-1.03868e-06
-8.30184e-07
-5.25622e-07
-2.04436e-07
)
;
    }
}


// ************************************************************************* //
