/*--------------------------------*- C++ -*----------------------------------*\
| =========                 |                                                 |
| \\      /  F ield         | OpenFOAM: The Open Source CFD Toolbox           |
|  \\    /   O peration     | Version:  2212                                  |
|   \\  /    A nd           | Website:  www.openfoam.com                      |
|    \\/     M anipulation  |                                                 |
\*---------------------------------------------------------------------------*/
FoamFile
{
    version     2.0;
    format      ascii;
    arch        "LSB;label=32;scalar=64";
    class       volScalarField;
    location    "1.95";
    object      epsilon;
}
// * * * * * * * * * * * * * * * * * * * * * * * * * * * * * * * * * * * * * //

dimensions      [0 2 -3 0 0 0 0];

internalField   nonuniform List<scalar> 
682
(
0.0257057
0.0243679
0.0231619
0.0220713
0.0210822
0.0201898
0.0193777
0.0186329
0.0179518
0.0173229
0.0167559
0.0258166
0.0244934
0.0232974
0.0222134
0.0212292
0.0203364
0.0195278
0.0187965
0.0181287
0.0175146
0.0169371
0.027684
0.0263309
0.0251057
0.0239949
0.022989
0.0220798
0.0212504
0.0204934
0.0198081
0.0191638
0.0185286
0.0344867
0.0329483
0.0315225
0.030232
0.0290203
0.0278137
0.0267878
0.025845
0.0249945
0.0241926
0.0234568
0.0227654
0.0501022
0.0482731
0.0462881
0.0445356
0.04293
0.0414305
0.0400568
0.0387824
0.0376166
0.0365223
0.0355158
0.0346052
0.133626
0.129667
0.125781
0.122192
0.118825
0.115705
0.11273
0.109962
0.107346
0.104839
0.10244
0.100212
0.013129
0.0122192
0.0114052
0.0106781
0.010028
0.00944565
0.00892276
0.00845227
0.00802841
0.00764682
0.00731197
0.0130394
0.0121424
0.0113416
0.0106261
0.00998698
0.0094136
0.00889868
0.00843466
0.00801623
0.00763838
0.00730504
0.0134395
0.012579
0.011804
0.0111038
0.0104773
0.00990053
0.00938902
0.00891908
0.00850036
0.00812021
0.00774611
0.0160573
0.0150893
0.0142279
0.013445
0.012669
0.01212
0.0113437
0.0109285
0.0103053
0.00996606
0.00943201
0.00913019
0.022809
0.0216844
0.0207627
0.0197645
0.0189276
0.0181071
0.0173959
0.0167128
0.0161227
0.0155229
0.0149728
0.014496
0.0529778
0.0509849
0.0490947
0.0473509
0.0457315
0.0442722
0.042921
0.041689
0.0405294
0.0394473
0.0384137
0.0374643
0.0126811
0.0116372
0.0107155
0.00989883
0.00917234
0.00852317
0.00794219
0.0074219
0.00695374
0.00653671
0.00613808
0.0124915
0.0114752
0.0105772
0.00978141
0.00907301
0.00843995
0.00787335
0.00736609
0.0069078
0.00649969
0.00610719
0.0122451
0.0112925
0.0104432
0.00969063
0.00901199
0.00839912
0.00785497
0.00737781
0.00693869
0.00655404
0.00617564
0.0134836
0.0124792
0.0116117
0.0108093
0.0101178
0.00942557
0.00881292
0.00833406
0.00796727
0.00749825
0.00718845
0.00675183
0.0169468
0.015721
0.015044
0.0140455
0.0135023
0.0127036
0.0122546
0.0116038
0.0112392
0.0106736
0.0103663
0.00988722
0.0377265
0.0361214
0.0345935
0.0331818
0.0319199
0.0307979
0.0297759
0.0288267
0.0279196
0.0270953
0.0262595
0.0254897
0.0137458
0.0125451
0.0114881
0.0105538
0.00972493
0.00898707
0.00832831
0.00773882
0.00720976
0.00673663
0.00629431
0.0134849
0.0123155
0.0112855
0.0103742
0.00956464
0.00884301
0.00819823
0.00762172
0.00710424
0.00664136
0.00620699
0.0128515
0.0117707
0.0108168
0.00997197
0.00922095
0.00854932
0.00794985
0.00741205
0.00692767
0.00649457
0.0060759
0.0135052
0.0124101
0.0114399
0.01058
0.00981509
0.00913125
0.00851319
0.00796344
0.00748141
0.00703419
0.00664541
0.0061946
0.0150492
0.0140701
0.0131951
0.0124037
0.0116982
0.0110676
0.0105229
0.00996811
0.00957287
0.00901546
0.00871521
0.00824391
0.0315288
0.0299283
0.0284983
0.0272145
0.0260624
0.0250127
0.024086
0.0231418
0.0222665
0.0215108
0.0207914
0.0201213
0.014377
0.0131028
0.0119808
0.0109891
0.0101094
0.00932652
0.00862786
0.00800276
0.00744199
0.00693913
0.0064738
0.0135042
0.0123333
0.0113017
0.0103894
0.00957945
0.00885779
0.00821312
0.00763552
0.0071168
0.00665231
0.00621735
0.0137875
0.0126213
0.0115945
0.0106867
0.00988126
0.00916409
0.00852297
0.00794886
0.00743255
0.00696878
0.00655289
0.00615191
0.0144108
0.0134077
0.0125084
0.0117039
0.0109835
0.0103378
0.0097583
0.00923491
0.00876316
0.0083351
0.00795139
0.00759858
0.028569
0.0270319
0.0256546
0.024423
0.0233127
0.0223011
0.0213747
0.0205316
0.0197486
0.0190752
0.0183653
0.017704
0.0147092
0.013398
0.0122434
0.011223
0.0103181
0.00951296
0.00879458
0.00815194
0.00757558
0.00705877
0.00658262
0.0137478
0.0125453
0.0114865
0.0105505
0.00971988
0.00898022
0.00831957
0.0077281
0.00719702
0.00672147
0.00627852
0.0138682
0.0126798
0.0116347
0.0107118
0.00989362
0.00916577
0.00851544
0.00793338
0.00741178
0.00694235
0.00652387
0.00612599
0.014154
0.0131344
0.0122207
0.011404
0.0106748
0.0100231
0.00943932
0.00891516
0.00844337
0.00801829
0.00763525
0.00729889
0.0272078
0.0257201
0.0243822
0.0231756
0.0220844
0.0210945
0.0202013
0.0193886
0.0186432
0.0179617
0.0173329
0.0167641
0.0143788
0.0131043
0.0119821
0.0109902
0.0101104
0.00932739
0.00862857
0.00800333
0.00744247
0.00693952
0.00647402
0.0134882
0.0123179
0.0112872
0.0103753
0.00956527
0.00884313
0.00819785
0.00762091
0.007103
0.00663959
0.00620522
0.0136486
0.0124916
0.0114744
0.0105761
0.00977968
0.00907115
0.00843724
0.00787063
0.00736242
0.00690435
0.00649451
0.00610383
0.01405
0.0130413
0.0121421
0.0113401
0.0106236
0.0099839
0.00940982
0.00889449
0.00842993
0.00801121
0.00763243
0.00730043
0.0272932
0.0258261
0.024504
0.0233082
0.0222241
0.0212392
0.0203459
0.0195366
0.0188046
0.0181364
0.0175214
0.0169429
0.0135035
0.0123338
0.0113034
0.0103923
0.00958349
0.00886288
0.00821926
0.00764287
0.00712514
0.00666224
0.00622732
0.0128514
0.0117706
0.0108168
0.00997239
0.00922165
0.00854996
0.0079508
0.00741344
0.00692939
0.00649656
0.00607872
0.0133256
0.0122467
0.0112909
0.0104435
0.00968793
0.00901316
0.00839541
0.00785564
0.00737239
0.00694368
0.0065445
0.00617879
0.0144081
0.0134449
0.0125794
0.0118062
0.0111014
0.0104755
0.00989651
0.00938602
0.00891396
0.00850281
0.00810569
0.00774969
0.029179
0.0276844
0.0263343
0.0251104
0.0239999
0.022994
0.0220846
0.0212547
0.0204974
0.019812
0.0191656
0.0185298
0.0126217
0.0115959
0.0106893
0.00988506
0.00916893
0.00852861
0.00795547
0.00744042
0.00697714
0.0065639
0.00616239
0.0124076
0.0114387
0.0105793
0.0098146
0.00913264
0.00851136
0.00796511
0.00747947
0.00703993
0.00664569
0.00620016
0.0134716
0.012488
0.0115992
0.0108268
0.0100912
0.00945844
0.00879037
0.0083624
0.00790735
0.00758297
0.00709113
0.00680683
0.0160469
0.0151106
0.0142042
0.0134899
0.0126365
0.0121118
0.0113259
0.0109231
0.0102953
0.00996608
0.00942163
0.00912398
0.0344667
0.0329374
0.0315178
0.0302326
0.029017
0.0278097
0.0267869
0.0258439
0.0249949
0.0241897
0.0234574
0.0227637
0.0133987
0.0125049
0.0117037
0.0109853
0.0103414
0.00976262
0.00924102
0.00877068
0.00834426
0.0079642
0.00760658
0.0140594
0.0131883
0.0124067
0.0116957
0.0110741
0.0105057
0.00997927
0.00955028
0.00903366
0.00872132
0.00824954
0.0167677
0.0158603
0.0148877
0.0142479
0.013335
0.0128417
0.0121203
0.0117107
0.011117
0.0107747
0.0102631
0.00994669
0.0227422
0.0217399
0.0206901
0.0197814
0.0188741
0.0181127
0.0173616
0.0167122
0.0160926
0.0155291
0.0149508
0.0144965
0.0500965
0.0482668
0.046307
0.0445239
0.0429409
0.0414192
0.0400591
0.0387741
0.0376126
0.0365165
0.0355153
0.0346069
0.027034
0.025657
0.0244254
0.0233158
0.0223051
0.0213797
0.0205376
0.0197553
0.0190821
0.0183723
0.0177102
0.029929
0.0284964
0.0272127
0.02606
0.0250118
0.0240861
0.0231427
0.0222687
0.0215142
0.0207945
0.0201246
0.0377391
0.0361312
0.0346075
0.033165
0.0319223
0.0307823
0.0297766
0.0288145
0.0279218
0.0270921
0.0262597
0.0254882
0.0529897
0.0509767
0.0491197
0.0473314
0.0457372
0.0442513
0.0429184
0.0416716
0.0405247
0.0394381
0.0384111
0.0374646
0.13364
0.129644
0.125822
0.122167
0.118844
0.115658
0.112745
0.109921
0.107349
0.10482
0.102453
0.100219
)
;

boundaryField
{
    inlet
    {
        type            fixedValue;
        value           nonuniform List<scalar> 0();
    }
    ami1
    {
        type            cyclicAMI;
        value           nonuniform List<scalar> 0();
    }
    walls
    {
        type            epsilonWallFunction;
        blending        stepwise;
        value           nonuniform List<scalar> 
259
(
0.0344867
0.0501022
0.133626
0.0257057
0.0258166
0.027684
0.0329483
0.0482731
0.129667
0.0243679
0.0244934
0.0263309
0.0315225
0.0462881
0.125781
0.0231619
0.0232974
0.0251057
0.030232
0.0445356
0.122192
0.0220713
0.0222134
0.0239949
0.0290203
0.04293
0.118825
0.0210822
0.0212292
0.022989
0.0278137
0.0414305
0.115705
0.0201898
0.0203364
0.0220798
0.0267878
0.0400568
0.11273
0.0193777
0.0195278
0.0212504
0.025845
0.0387824
0.109962
0.0186329
0.0187965
0.0204934
0.0249945
0.0376166
0.107346
0.0179518
0.0181287
0.0198081
0.0241926
0.0365223
0.104839
0.0173229
0.0175146
0.0191638
0.0234568
0.0355158
0.10244
0.0167559
0.0169371
0.0185286
0.0227654
0.0346052
0.100212
0.133626
0.0529778
0.0377265
0.0315288
0.028569
0.0272078
0.0272932
0.029179
0.0344667
0.0500965
0.13364
0.129667
0.0509849
0.0361214
0.0299283
0.0270319
0.0257201
0.0258261
0.0276844
0.0329374
0.0482668
0.129644
0.125781
0.0490947
0.0345935
0.0284983
0.0256546
0.0243822
0.024504
0.0263343
0.0315178
0.046307
0.125822
0.122192
0.0473509
0.0331818
0.0272145
0.024423
0.0231756
0.0233082
0.0251104
0.0302326
0.0445239
0.122167
0.118825
0.0457315
0.0319199
0.0260624
0.0233127
0.0220844
0.0222241
0.0239999
0.029017
0.0429409
0.118844
0.115705
0.0442722
0.0307979
0.0250127
0.0223011
0.0210945
0.0212392
0.022994
0.0278097
0.0414192
0.115658
0.11273
0.042921
0.0297759
0.024086
0.0213747
0.0202013
0.0203459
0.0220846
0.0267869
0.0400591
0.112745
0.109962
0.041689
0.0288267
0.0231418
0.0205316
0.0193886
0.0195366
0.0212547
0.0258439
0.0387741
0.109921
0.107346
0.0405294
0.0279196
0.0222665
0.0197486
0.0186432
0.0188046
0.0204974
0.0249949
0.0376126
0.107349
0.104839
0.0394473
0.0270953
0.0215108
0.0190752
0.0179617
0.0181364
0.019812
0.0241897
0.0365165
0.10482
0.10244
0.0384137
0.0262595
0.0207914
0.0183653
0.0173329
0.0175214
0.0191656
0.0234574
0.0355153
0.102453
0.100212
0.0374643
0.0254897
0.0201213
0.017704
0.0167641
0.0169429
0.0185298
0.0227637
0.0346069
0.100219
0.0377391
0.0529897
0.13364
0.027034
0.029929
0.0361312
0.0509767
0.129644
0.025657
0.0284964
0.0346075
0.0491197
0.125822
0.0244254
0.0272127
0.033165
0.0473314
0.122167
0.0233158
0.02606
0.0319223
0.0457372
0.118844
0.0223051
0.0250118
0.0307823
0.0442513
0.115658
0.0213797
0.0240861
0.0297766
0.0429184
0.112745
0.0205376
0.0231427
0.0288145
0.0416716
0.109921
0.0197553
0.0222687
0.0279218
0.0405247
0.107349
0.0190821
0.0215142
0.0270921
0.0394381
0.10482
0.0183723
0.0207945
0.0262597
0.0384111
0.102453
0.0177102
0.0201246
0.0254882
0.0374646
0.100219
)
;
    }
    ami2
    {
        type            cyclicAMI;
        value           nonuniform List<scalar> 0();
    }
    outlet
    {
        type            zeroGradient;
    }
    procBoundary9to0
    {
        type            processor;
        value           nonuniform List<scalar> 
40
(
0.027166
0.0272665
0.029171
0.029171
0.0361776
0.0520743
0.137818
0.0141856
0.0140727
0.0144285
0.0144285
0.0171797
0.0241185
0.0551732
0.0138673
0.0136502
0.0133338
0.0133338
0.0146371
0.0179158
0.0395859
0.0151031
0.0148093
0.014077
0.014077
0.0147651
0.0162033
0.033326
0.0158167
0.0148269
0.0148269
0.0151141
0.0155941
0.0302707
0.0161899
0.0151052
0.0151052
0.0152192
0.015344
0.0288333
)
;
    }
    procBoundary9to1
    {
        type            processor;
        value           nonuniform List<scalar> 
30
(
0.0158189
0.0148113
0.0148113
0.0149736
0.0152192
0.028899
0.0148239
0.0140736
0.0140736
0.0145701
0.0155395
0.0308095
0.0137809
0.0135031
0.0135031
0.0146288
0.0171827
0.0361385
0.0144468
0.0150767
0.0150767
0.0179511
0.0241215
0.0520182
0.0285537
0.0315315
0.0315315
0.0395939
0.0551394
0.13775
)
;
    }
    procBoundary9to7
    {
        type            processor;
        value           nonuniform List<scalar> 
59
(
0.016215
0.0164117
0.0179411
0.0221001
0.0337671
0.0981242
0.00702139
0.00702523
0.00751847
0.00869849
0.0140174
0.0365839
0.00582907
0.00579808
0.00583
0.00652324
0.00961833
0.0247876
0.0059379
0.00585752
0.0057439
0.00593248
0.00804276
0.0194862
0.00609269
0.00586675
0.00584145
0.00731745
0.0171057
0.0061908
0.00592042
0.00581469
0.00700895
0.016225
0.00609267
0.00585497
0.00579304
0.00701998
0.0164166
0.00587725
0.00574747
0.00583051
0.00750741
0.0179426
0.00585284
0.00593417
0.00647785
0.00867052
0.0221021
0.00733619
0.00804284
0.00956377
0.0140042
0.0337713
0.0171125
0.0194894
0.0247881
0.0365872
0.0981465
)
;
    }
    procBoundary9to8
    {
        type            processor;
        value           nonuniform List<scalar> 
132
(
0.0270248
0.0256457
0.0244132
0.0233017
0.0222896
0.0213629
0.02052
0.0197371
0.0190621
0.0183514
0.0176898
0.013398
0.0125054
0.011705
0.0109875
0.0103442
0.00976594
0.00924529
0.00877324
0.00834924
0.00796306
0.00761878
0.0126228
0.0115971
0.0106908
0.00988689
0.00917127
0.00853125
0.00795809
0.00744332
0.00698025
0.00656743
0.00616589
0.0135029
0.0123329
0.0113024
0.0103912
0.00958243
0.008862
0.00821851
0.00764222
0.00712463
0.00666193
0.00622742
0.0147081
0.0133975
0.0122436
0.0112238
0.0103196
0.00951524
0.00879767
0.00815587
0.00758038
0.00706459
0.00658876
0.0147081
0.0133975
0.0122436
0.0112238
0.0103196
0.00951524
0.00879767
0.00815587
0.00758038
0.00706459
0.00658876
0.0150724
0.0137218
0.0125326
0.0114816
0.0105496
0.00972044
0.00898072
0.00831902
0.00772563
0.00719328
0.00670468
0.0147089
0.0133971
0.0122421
0.0112213
0.010316
0.00951053
0.00879174
0.0081486
0.00757166
0.00705418
0.00657757
0.0137451
0.0125437
0.0114859
0.0105508
0.00972088
0.00898187
0.0083218
0.00773081
0.00720013
0.00672507
0.0062821
0.0126798
0.0116353
0.0107131
0.0098957
0.00916811
0.00851803
0.0079361
0.0074145
0.00694491
0.00652684
0.00612935
0.0131298
0.01222
0.0114053
0.0106771
0.0100259
0.00944227
0.00891819
0.00844654
0.00802156
0.00763883
0.00730293
0.0257175
0.0243815
0.0231772
0.0220885
0.0211008
0.0202092
0.0193981
0.0186541
0.0179735
0.0173455
0.0167767
)
;
    }
}


// ************************************************************************* //
