/*--------------------------------*- C++ -*----------------------------------*\
| =========                 |                                                 |
| \\      /  F ield         | OpenFOAM: The Open Source CFD Toolbox           |
|  \\    /   O peration     | Version:  2212                                  |
|   \\  /    A nd           | Website:  www.openfoam.com                      |
|    \\/     M anipulation  |                                                 |
\*---------------------------------------------------------------------------*/
FoamFile
{
    version     2.0;
    format      ascii;
    arch        "LSB;label=32;scalar=64";
    class       volScalarField;
    location    "1.95";
    object      k;
}
// * * * * * * * * * * * * * * * * * * * * * * * * * * * * * * * * * * * * * //

dimensions      [0 2 -2 0 0 0 0];

internalField   nonuniform List<scalar> 
682
(
0.00222373
0.0021462
0.00207508
0.00200967
0.00194935
0.00189405
0.00184305
0.00179565
0.00175172
0.00171064
0.00167312
0.00217734
0.00210263
0.0020339
0.00197055
0.00191208
0.00185821
0.00180868
0.00176333
0.00172135
0.0016823
0.00164512
0.00211346
0.00204441
0.00198079
0.00192214
0.00186814
0.00181867
0.00177288
0.00173056
0.00169172
0.0016549
0.00161806
0.00211907
0.00205637
0.00199709
0.00194242
0.00189044
0.00183778
0.00179231
0.00174999
0.00171136
0.00167451
0.00164034
0.00160791
0.00211614
0.00206495
0.00200812
0.00195711
0.00190983
0.00186508
0.00182357
0.00178462
0.00174859
0.00171445
0.00168269
0.00165369
0.00244733
0.00239884
0.00235055
0.00230557
0.00226295
0.00222307
0.00218474
0.00214874
0.00211445
0.00208136
0.0020494
0.0020195
0.00300025
0.00283317
0.00268093
0.00254194
0.00241473
0.0022981
0.00219091
0.00209205
0.00200103
0.00191599
0.00183775
0.00297526
0.00281163
0.00266199
0.00252496
0.00239909
0.00228335
0.00217666
0.0020781
0.00198702
0.00190188
0.00182412
0.00280425
0.00265065
0.0025092
0.00237933
0.00225901
0.00214865
0.00204628
0.00195181
0.00186404
0.00178144
0.00170656
0.00260067
0.00245207
0.00231345
0.00218446
0.00206826
0.00195522
0.00185916
0.00176353
0.0016811
0.00159931
0.00152656
0.00145711
0.00209113
0.00197733
0.00186449
0.00176698
0.00167466
0.00159294
0.0015172
0.00144929
0.00138702
0.00132573
0.00126688
0.00121756
0.00219659
0.00214148
0.00208811
0.00203831
0.00199149
0.00194882
0.00190889
0.00187213
0.00183718
0.00180433
0.00177261
0.00174322
0.00391118
0.00368049
0.00347011
0.00327775
0.00310142
0.00293941
0.00279025
0.00265255
0.00252528
0.00240693
0.0022976
0.00383586
0.00361175
0.00340706
0.00321963
0.00304759
0.00288934
0.0027435
0.00260875
0.00248407
0.0023681
0.002261
0.0035557
0.00334965
0.0031609
0.00298765
0.00282817
0.00268141
0.00254607
0.00242079
0.00230469
0.00219642
0.00209635
0.00326476
0.00307204
0.00289434
0.00273152
0.00258096
0.00244317
0.00231652
0.00219972
0.00208969
0.00198993
0.00189464
0.00180985
0.00258166
0.00244603
0.0023138
0.00219985
0.00208819
0.00199246
0.00189877
0.00181833
0.00173705
0.00166716
0.00159589
0.00153427
0.00225095
0.00218693
0.00212431
0.00206617
0.00201343
0.00196595
0.00192219
0.00188112
0.00184145
0.00180501
0.00176773
0.00173303
0.00460184
0.00432661
0.00407573
0.00384642
0.00363625
0.00344315
0.00326531
0.00310113
0.00294926
0.00280832
0.00267763
0.00448679
0.00421962
0.00397593
0.00375307
0.00354871
0.00336087
0.00318783
0.00302803
0.00288016
0.00274288
0.00261559
0.00412192
0.00387826
0.00365571
0.00345192
0.00326483
0.00309269
0.00293402
0.00278741
0.00265171
0.00252556
0.00240866
0.00374853
0.00352304
0.00331718
0.00312891
0.00295622
0.00279757
0.00265151
0.00251716
0.00239261
0.00227767
0.00217001
0.00207172
0.00290183
0.00273888
0.00259018
0.00245466
0.00233063
0.00221734
0.0021126
0.0020181
0.00192722
0.00184866
0.00177052
0.00170161
0.00230503
0.00222634
0.0021548
0.00208955
0.00203014
0.00197528
0.00192624
0.00187558
0.00182801
0.00178648
0.00174649
0.00170879
0.00489489
0.00460111
0.00433332
0.00408855
0.00386424
0.00365815
0.00346834
0.00329314
0.00313105
0.0029807
0.00284121
0.00447589
0.00420873
0.00396508
0.00374227
0.00353799
0.00335023
0.00317728
0.00301759
0.00286987
0.00273272
0.00260549
0.00404929
0.00380285
0.00357858
0.00337394
0.00318672
0.00301503
0.00285722
0.00271192
0.00257773
0.00245389
0.00233779
0.0022303
0.00309702
0.00291907
0.00275727
0.00260995
0.00247551
0.0023526
0.00223983
0.00213645
0.00204064
0.001954
0.00186609
0.00178469
0.0023291
0.00224496
0.00216819
0.00209829
0.00203435
0.00197521
0.00192023
0.00186949
0.00182174
0.00178025
0.00173589
0.00169399
0.0050356
0.00473288
0.00445696
0.00420477
0.00397369
0.0037614
0.00356591
0.00338547
0.00321856
0.00306377
0.00292019
0.00460186
0.00432672
0.00407587
0.00384655
0.00363636
0.00344322
0.00326535
0.00310116
0.00294929
0.00280838
0.00267774
0.00416506
0.00391153
0.00368095
0.00347063
0.00327831
0.003102
0.00293999
0.00279082
0.00265312
0.00252586
0.00240756
0.00229829
0.00318553
0.00300174
0.00283463
0.0026824
0.00254343
0.00241624
0.00229959
0.00219242
0.00209355
0.00200254
0.00191756
0.00183947
0.00230908
0.00222448
0.00214698
0.00207586
0.00201044
0.00195012
0.00189478
0.00184378
0.00179635
0.00175241
0.00171134
0.00167371
0.00489461
0.00460094
0.00433322
0.00408848
0.00386417
0.00365807
0.00346826
0.00329304
0.00313095
0.00298059
0.00284111
0.0044864
0.00421935
0.00397572
0.00375286
0.00354849
0.00336062
0.00318753
0.00302771
0.00287981
0.00274253
0.00261524
0.00408158
0.00383568
0.00361168
0.00340704
0.00321963
0.00304755
0.00288927
0.00274337
0.00260859
0.00248386
0.00236788
0.00226079
0.00315522
0.00297593
0.0028124
0.00266281
0.00252581
0.00239992
0.00228416
0.0021774
0.00207882
0.00198764
0.00190252
0.00182468
0.00225903
0.00217773
0.00210312
0.00203445
0.00197112
0.00191265
0.00185878
0.00180923
0.00176385
0.00172186
0.00168276
0.00164553
0.00447632
0.00420902
0.00396527
0.00374237
0.00353802
0.00335022
0.00317722
0.0030175
0.00286976
0.00273257
0.00260531
0.00412227
0.00387853
0.00365585
0.00345192
0.00326468
0.00309243
0.00293364
0.00278696
0.0026512
0.002525
0.00240807
0.00378068
0.00355543
0.00334954
0.00316072
0.00298743
0.00282779
0.00268097
0.00254545
0.00242021
0.00230391
0.00219568
0.00209562
0.00297058
0.00280376
0.0026506
0.00250914
0.00237941
0.00225904
0.00214875
0.00204625
0.00195193
0.00186368
0.00178151
0.0017064
0.00218809
0.00211324
0.00204441
0.00198091
0.00192233
0.00186838
0.00181892
0.00177313
0.0017308
0.00169196
0.00165504
0.00161817
0.00380383
0.00357927
0.00337438
0.00318698
0.00301517
0.00285728
0.00271192
0.00257769
0.00245384
0.00233767
0.00223013
0.00352456
0.00331839
0.00312965
0.00295669
0.00279767
0.00265149
0.00251688
0.00239235
0.00227727
0.00216952
0.00207118
0.00326588
0.00307257
0.00289536
0.00273134
0.00258139
0.00244216
0.00231632
0.00219814
0.00209011
0.00198755
0.001895
0.0018085
0.00259993
0.00245057
0.00231409
0.00218276
0.00206835
0.00195455
0.00185904
0.00176292
0.00168096
0.00159801
0.00152666
0.00145634
0.00211808
0.00205574
0.00199681
0.00194237
0.00189034
0.00183767
0.00179231
0.00174998
0.00171143
0.00167443
0.00164042
0.00160787
0.00291952
0.00275764
0.00261018
0.00247567
0.00235267
0.00223992
0.00213652
0.00204075
0.00195407
0.001866
0.0017846
0.00274031
0.00259155
0.00245535
0.00233126
0.00221725
0.00211307
0.00201778
0.00192771
0.00184846
0.00177024
0.00170126
0.00258729
0.00244518
0.00231891
0.00219621
0.00209151
0.00198885
0.00190127
0.00181514
0.00173956
0.00166445
0.00159728
0.00153315
0.00209206
0.00197622
0.00186944
0.00176491
0.00167742
0.00159113
0.00151874
0.00144798
0.00138722
0.00132451
0.00126718
0.00121758
0.00211574
0.00206477
0.00200882
0.00195692
0.0019103
0.00186487
0.00182375
0.00178446
0.00174856
0.00171433
0.00168273
0.00165378
0.00224515
0.00216837
0.00209844
0.00203451
0.0019754
0.00192047
0.00186979
0.00182209
0.00178062
0.00173628
0.00169434
0.00222652
0.00215487
0.00208959
0.00203012
0.00197528
0.00192628
0.00187564
0.00182813
0.00178666
0.00174665
0.00170897
0.00225161
0.00218746
0.00212512
0.00206566
0.00201368
0.00196539
0.0019223
0.00188065
0.00184158
0.0018049
0.00176775
0.00173298
0.00219684
0.00214137
0.00208902
0.00203794
0.00199183
0.00194835
0.00190892
0.00187169
0.00183711
0.00180409
0.00177256
0.00174325
0.00244746
0.00239867
0.00235123
0.0023054
0.00226331
0.0022226
0.00218502
0.00214829
0.00211456
0.00208116
0.00204962
0.00201962
)
;

boundaryField
{
    inlet
    {
        type            fixedValue;
        value           nonuniform List<scalar> 0();
    }
    ami1
    {
        type            cyclicAMI;
        value           nonuniform List<scalar> 0();
    }
    walls
    {
        type            kqRWallFunction;
        value           nonuniform List<scalar> 
259
(
0.00211907
0.00211614
0.00244733
0.00222373
0.00217734
0.00211346
0.00205637
0.00206495
0.00239884
0.0021462
0.00210263
0.00204441
0.00199709
0.00200812
0.00235055
0.00207508
0.0020339
0.00198079
0.00194242
0.00195711
0.00230557
0.00200967
0.00197055
0.00192214
0.00189044
0.00190983
0.00226295
0.00194935
0.00191208
0.00186814
0.00183778
0.00186508
0.00222307
0.00189405
0.00185821
0.00181867
0.00179231
0.00182357
0.00218474
0.00184305
0.00180868
0.00177288
0.00174999
0.00178462
0.00214874
0.00179565
0.00176333
0.00173056
0.00171136
0.00174859
0.00211445
0.00175172
0.00172135
0.00169172
0.00167451
0.00171445
0.00208136
0.00171064
0.0016823
0.0016549
0.00164034
0.00168269
0.0020494
0.00167312
0.00164512
0.00161806
0.00160791
0.00165369
0.0020195
0.00244733
0.00219659
0.00225095
0.00230503
0.0023291
0.00230908
0.00225903
0.00218809
0.00211808
0.00211574
0.00244746
0.00239884
0.00214148
0.00218693
0.00222634
0.00224496
0.00222448
0.00217773
0.00211324
0.00205574
0.00206477
0.00239867
0.00235055
0.00208811
0.00212431
0.0021548
0.00216819
0.00214698
0.00210312
0.00204441
0.00199681
0.00200882
0.00235123
0.00230557
0.00203831
0.00206617
0.00208955
0.00209829
0.00207586
0.00203445
0.00198091
0.00194237
0.00195692
0.0023054
0.00226295
0.00199149
0.00201343
0.00203014
0.00203435
0.00201044
0.00197112
0.00192233
0.00189034
0.0019103
0.00226331
0.00222307
0.00194882
0.00196595
0.00197528
0.00197521
0.00195012
0.00191265
0.00186838
0.00183767
0.00186487
0.0022226
0.00218474
0.00190889
0.00192219
0.00192624
0.00192023
0.00189478
0.00185878
0.00181892
0.00179231
0.00182375
0.00218502
0.00214874
0.00187213
0.00188112
0.00187558
0.00186949
0.00184378
0.00180923
0.00177313
0.00174998
0.00178446
0.00214829
0.00211445
0.00183718
0.00184145
0.00182801
0.00182174
0.00179635
0.00176385
0.0017308
0.00171143
0.00174856
0.00211456
0.00208136
0.00180433
0.00180501
0.00178648
0.00178025
0.00175241
0.00172186
0.00169196
0.00167443
0.00171433
0.00208116
0.0020494
0.00177261
0.00176773
0.00174649
0.00173589
0.00171134
0.00168276
0.00165504
0.00164042
0.00168273
0.00204962
0.0020195
0.00174322
0.00173303
0.00170879
0.00169399
0.00167371
0.00164553
0.00161817
0.00160787
0.00165378
0.00201962
0.00225161
0.00219684
0.00244746
0.00224515
0.00222652
0.00218746
0.00214137
0.00239867
0.00216837
0.00215487
0.00212512
0.00208902
0.00235123
0.00209844
0.00208959
0.00206566
0.00203794
0.0023054
0.00203451
0.00203012
0.00201368
0.00199183
0.00226331
0.0019754
0.00197528
0.00196539
0.00194835
0.0022226
0.00192047
0.00192628
0.0019223
0.00190892
0.00218502
0.00186979
0.00187564
0.00188065
0.00187169
0.00214829
0.00182209
0.00182813
0.00184158
0.00183711
0.00211456
0.00178062
0.00178666
0.0018049
0.00180409
0.00208116
0.00173628
0.00174665
0.00176775
0.00177256
0.00204962
0.00169434
0.00170897
0.00173298
0.00174325
0.00201962
)
;
    }
    ami2
    {
        type            cyclicAMI;
        value           nonuniform List<scalar> 0();
    }
    outlet
    {
        type            zeroGradient;
    }
    procBoundary9to0
    {
        type            processor;
        value           nonuniform List<scalar> 
40
(
0.00230674
0.0022576
0.00218777
0.00218777
0.00218671
0.00216956
0.0024974
0.00318527
0.00315534
0.00297036
0.00297036
0.00275647
0.00220076
0.00225567
0.00416591
0.00408242
0.00378009
0.00378009
0.00347127
0.00273496
0.00232399
0.00490578
0.00478118
0.004389
0.004389
0.00399429
0.00307933
0.00239146
0.00521918
0.00477018
0.00477018
0.00432101
0.00329346
0.00242026
0.00536999
0.00490559
0.00490559
0.00444572
0.00338942
0.0023997
)
;
    }
    procBoundary9to1
    {
        type            processor;
        value           nonuniform List<scalar> 
30
(
0.00521871
0.00478068
0.00478068
0.00435277
0.00335277
0.00234626
0.00477089
0.00438958
0.00438958
0.00402602
0.00315023
0.00226809
0.0040511
0.00374948
0.00374948
0.00347195
0.00275381
0.00218502
0.00309825
0.00290278
0.00290278
0.0027361
0.00219729
0.00216804
0.00232814
0.00230501
0.00230501
0.00232438
0.00225486
0.00249662
)
;
    }
    procBoundary9to7
    {
        type            processor;
        value           nonuniform List<scalar> 
59
(
0.00163701
0.00161097
0.00158362
0.00157634
0.00162678
0.00199131
0.00175689
0.00174729
0.00163037
0.00139274
0.00117745
0.00171578
0.00219417
0.00215985
0.00200227
0.0017273
0.00147133
0.00170111
0.00255564
0.00249669
0.00229938
0.00197878
0.00163256
0.00167271
0.00271131
0.00248681
0.00213001
0.00171615
0.00165565
0.00278653
0.00255582
0.00219494
0.00175896
0.00163772
0.00271121
0.00249636
0.00215964
0.00174799
0.00161131
0.00248659
0.00229873
0.00200143
0.0016303
0.00158372
0.00212984
0.00197813
0.00172692
0.00139337
0.00157645
0.00171625
0.00163221
0.0014714
0.00117794
0.00162695
0.00165608
0.00167289
0.00170114
0.0017159
0.00199165
)
;
    }
    procBoundary9to8
    {
        type            processor;
        value           nonuniform List<scalar> 
132
(
0.00224468
0.00216777
0.00209778
0.00203373
0.00197451
0.00191949
0.00186875
0.00182099
0.00177939
0.00173496
0.00169303
0.00291802
0.00275612
0.00260865
0.00247409
0.002351
0.00223823
0.00213462
0.00203894
0.00195206
0.00186371
0.00178198
0.00380242
0.00357802
0.00337327
0.00318597
0.00301422
0.00285638
0.00271101
0.00257682
0.00245292
0.0023367
0.00222909
0.00447542
0.00420828
0.00396468
0.00374191
0.00353767
0.00334995
0.00317702
0.00301735
0.00286963
0.00273247
0.0026052
0.00503554
0.00473279
0.00445686
0.00420469
0.00397362
0.00376135
0.00356588
0.00338546
0.00321857
0.00306378
0.00292019
0.00503554
0.00473279
0.00445686
0.00420469
0.00397362
0.00376135
0.00356588
0.00338546
0.00321857
0.00306378
0.00292019
0.00518437
0.00487241
0.00458803
0.00432811
0.00408993
0.00387114
0.00366967
0.00348372
0.00331173
0.00315224
0.0030043
0.00503527
0.00473272
0.0044569
0.00420478
0.00397372
0.00376146
0.00356598
0.00338556
0.00321867
0.0030639
0.00292034
0.00460205
0.00432686
0.00407601
0.0038467
0.00363653
0.00344343
0.00326559
0.00310142
0.00294958
0.00280869
0.00267806
0.00391171
0.00368107
0.00347076
0.00327847
0.00310222
0.0029403
0.0027912
0.00265359
0.00252639
0.00240815
0.00229888
0.00300106
0.00283418
0.00268217
0.0025434
0.00241644
0.00229999
0.002193
0.00209431
0.00200342
0.00191855
0.00184046
0.00222419
0.00214677
0.00207579
0.00201052
0.00195034
0.00189512
0.00184424
0.00179693
0.00175307
0.00171208
0.00167448
)
;
    }
}


// ************************************************************************* //
