/*--------------------------------*- C++ -*----------------------------------*\
| =========                 |                                                 |
| \\      /  F ield         | OpenFOAM: The Open Source CFD Toolbox           |
|  \\    /   O peration     | Version:  2212                                  |
|   \\  /    A nd           | Website:  www.openfoam.com                      |
|    \\/     M anipulation  |                                                 |
\*---------------------------------------------------------------------------*/
FoamFile
{
    version     2.0;
    format      ascii;
    arch        "LSB;label=32;scalar=64";
    class       volScalarField;
    location    "1.9";
    object      k;
}
// * * * * * * * * * * * * * * * * * * * * * * * * * * * * * * * * * * * * * //

dimensions      [0 2 -2 0 0 0 0];

internalField   nonuniform List<scalar> 
690
(
0.00420812
0.00383848
0.00355211
0.00728945
0.0066329
0.00605334
0.0097233
0.00883458
0.00805512
0.00418007
0.00388539
0.00362727
0.00340129
0.0032033
0.0030294
0.0028759
0.00273946
0.00261646
0.00250481
0.00240317
0.00231059
0.00743792
0.00676241
0.00617013
0.00565064
0.00519456
0.00479476
0.00444393
0.00413519
0.00385911
0.00361007
0.00338508
0.0031821
0.0100027
0.00907621
0.00826931
0.00756312
0.00694237
0.00639459
0.0059096
0.00547891
0.00509509
0.00475132
0.00444194
0.00416239
0.00425663
0.00394655
0.00367769
0.00344389
0.00323959
0.00306084
0.00290321
0.00276324
0.00263764
0.00252454
0.00242236
0.0023298
0.00732711
0.00661385
0.00601124
0.00549494
0.00504798
0.00466035
0.00432092
0.00402111
0.00375214
0.00351027
0.00329218
0.0030953
0.00965973
0.0087798
0.00800912
0.00733213
0.00673557
0.00620825
0.00574085
0.00532515
0.0049539
0.00462056
0.0043201
0.00404836
0.0113959
0.0103683
0.00946413
0.00866727
0.00796311
0.00733903
0.00678423
0.00628945
0.00584679
0.00544939
0.0050914
0.00476782
0.0125177
0.0113753
0.0103769
0.0095
0.00872641
0.00804118
0.00743198
0.00688846
0.00640193
0.00596498
0.00557132
0.00521554
0.0128803
0.0117084
0.0106822
0.00977998
0.00898368
0.00827812
0.00765066
0.00709071
0.00658933
0.00613898
0.00573319
0.00536642
0.0125175
0.0113759
0.010378
0.00950137
0.00872789
0.00804269
0.00743344
0.00688982
0.00640313
0.00596601
0.00557216
0.00521616
0.0114605
0.0104082
0.00949123
0.00868746
0.00797951
0.00735333
0.00679737
0.00630194
0.00585888
0.00546119
0.00510296
0.004779
0.00972642
0.00883664
0.00805603
0.00737147
0.00677002
0.00623993
0.00577119
0.00535517
0.00498425
0.00465162
0.00435189
0.0072936
0.00663737
0.00605693
0.00554826
0.00510335
0.00471575
0.00437777
0.00407988
0.00381195
0.00357013
0.00335192
0.00421114
0.00384167
0.00355427
0.00331841
0.00311997
0.00295026
0.00280268
0.00267194
0.00255399
0.00244703
0.00234977
0.00430099
0.0039327
0.00363313
0.00338861
0.00318459
0.00300903
0.00285446
0.00271797
0.00259678
0.00248858
0.00239206
0.00230506
0.00675792
0.00610514
0.00555038
0.00507924
0.00467801
0.00433141
0.00402379
0.00374969
0.00350429
0.00328348
0.00308402
0.002903
0.00877092
0.00799725
0.0073128
0.00670848
0.00617495
0.00570321
0.00528446
0.00491056
0.00457494
0.0042724
0.00399867
0.00375007
0.010352
0.00944231
0.00863401
0.0079174
0.00728217
0.00671838
0.00621693
0.00576943
0.00536861
0.00500823
0.00468306
0.00438866
0.0114611
0.0104081
0.00949074
0.00868669
0.00797858
0.0073523
0.0067963
0.0063009
0.00585791
0.00546035
0.00510228
0.00477867
0.0118384
0.0107332
0.00977676
0.00894211
0.00820888
0.00756125
0.00698662
0.00647476
0.00601719
0.00560671
0.00523719
0.00490338
0.0113966
0.0103697
0.00946631
0.00866996
0.0079661
0.00734213
0.00678728
0.00629231
0.00584938
0.00545165
0.00509331
0.00476939
0.0103519
0.00944332
0.00863574
0.00791962
0.00728473
0.00672112
0.00621969
0.00577209
0.00537106
0.0050104
0.00468489
0.00439016
0.00893387
0.00809365
0.00737358
0.00675089
0.00620843
0.00573262
0.00531269
0.00493917
0.00460455
0.00430297
0.0040299
0.00689261
0.00621901
0.00564244
0.00515717
0.00474742
0.00439973
0.00409515
0.00382307
0.00357809
0.00335626
0.00315479
0.0041177
0.00368769
0.00338905
0.00316006
0.0029762
0.00282205
0.00268757
0.00256772
0.0024596
0.00236122
0.00227141
0.00423562
0.00380403
0.00345486
0.00322327
0.00302925
0.00286256
0.00272112
0.00260074
0.00249649
0.00240566
0.00232425
0.00225124
0.00570883
0.00520279
0.00475712
0.0043869
0.00406535
0.00378334
0.00353169
0.00330524
0.00310023
0.00291406
0.00274479
0.00258501
0.00743746
0.00679759
0.00622537
0.00572387
0.00528551
0.00489901
0.00455463
0.0042453
0.0039657
0.00371125
0.00347956
0.0032668
0.00893337
0.00809231
0.00737155
0.0067483
0.00620539
0.00572931
0.00530926
0.00493577
0.00460134
0.00430008
0.00402751
0.00377986
0.00972587
0.00883687
0.00805629
0.00737148
0.00676969
0.00623925
0.00577022
0.00535402
0.00498303
0.00465045
0.00435088
0.00407995
0.0100038
0.00907837
0.00827199
0.00756603
0.00694537
0.00639752
0.00591232
0.00548135
0.00509725
0.00475325
0.00444369
0.00416402
0.00966034
0.00878034
0.00801024
0.00733386
0.00673778
0.00621075
0.00574342
0.00532762
0.00495624
0.00462271
0.00432202
0.00405011
0.00877061
0.00799671
0.00731253
0.00670874
0.00617579
0.00570449
0.00528605
0.00491231
0.00457671
0.0042741
0.00400015
0.00375169
0.00743695
0.00679954
0.00622756
0.00572592
0.00528745
0.00490091
0.00455652
0.00424716
0.0039674
0.00371291
0.0034804
0.00601115
0.00535031
0.00483971
0.00444375
0.00411474
0.00382941
0.00357574
0.00334615
0.00313632
0.00294255
0.00276447
0.0038473
0.00342191
0.00312928
0.00294155
0.00278879
0.00265821
0.00254417
0.00244243
0.00235036
0.00226577
0.00218847
0.00397563
0.00354763
0.00323028
0.00300062
0.00282776
0.00269304
0.00258244
0.00248723
0.00240247
0.00232274
0.00225591
0.00219533
0.00428193
0.00399003
0.00368836
0.00343176
0.00320593
0.00300584
0.00282288
0.00265279
0.00249569
0.00233809
0.00221217
0.00208763
0.00601089
0.00534813
0.00483602
0.0044395
0.00411001
0.0038244
0.00357078
0.00334143
0.00313232
0.00293901
0.00276194
0.00259745
0.00689232
0.0062213
0.00564434
0.00515729
0.00474583
0.00439657
0.00409073
0.00381804
0.00357303
0.00335161
0.00315069
0.0029676
0.00729227
0.00663741
0.00605853
0.00555023
0.00510477
0.00471625
0.00437729
0.00407851
0.00380998
0.003568
0.00334953
0.00315209
0.00743853
0.00676397
0.00617289
0.00565438
0.00519847
0.00479819
0.00444686
0.0041376
0.00386107
0.00361172
0.00338657
0.00318355
0.0073275
0.00661514
0.00601302
0.00549712
0.00505037
0.00466279
0.00432331
0.00402339
0.00375424
0.00351219
0.00329392
0.003097
0.0067583
0.006105
0.0055498
0.00507864
0.0046776
0.00433128
0.00402391
0.00375005
0.0035048
0.00328414
0.00308458
0.00290403
0.0057081
0.00520072
0.0047537
0.00438342
0.00406185
0.00378018
0.00352891
0.00330292
0.00309833
0.00291299
0.00274231
0.00428141
0.00398925
0.00368649
0.00342908
0.00320245
0.00300194
0.00281886
0.00264932
0.00249196
0.00233744
0.00220677
0.00346367
0.00318008
0.00294809
0.00277543
0.00264694
0.00254809
0.00246214
0.00237924
0.00230513
0.00223295
0.00216961
0.00414596
0.00367837
0.00331309
0.00308663
0.00294075
0.00283974
0.0027587
0.00268349
0.00261584
0.00255152
0.00249585
0.0024447
0.00346388
0.00318284
0.00295021
0.00277679
0.0026482
0.00254945
0.00246376
0.00238046
0.00230651
0.00223341
0.00217096
0.0021141
0.00384723
0.00342249
0.00312856
0.0029401
0.00278695
0.00265616
0.00254209
0.0024405
0.00234875
0.00226449
0.00218758
0.0021178
0.00411809
0.00368797
0.00339021
0.00316021
0.0029757
0.00282078
0.00268573
0.00256565
0.00245754
0.00235939
0.00226983
0.00218792
0.00421107
0.00384267
0.00355575
0.0033196
0.00312057
0.0029502
0.00280203
0.00267085
0.00255269
0.00244572
0.00234842
0.0022597
0.00418073
0.00388643
0.00362885
0.00340308
0.00320478
0.00303035
0.0028764
0.00273961
0.00261639
0.00250467
0.0024031
0.0023107
0.00425696
0.0039475
0.00367884
0.00344506
0.00324067
0.00306179
0.00290403
0.00276396
0.00263826
0.00252509
0.00242286
0.0023303
0.00430126
0.00393303
0.00363338
0.00338861
0.00318438
0.00300878
0.00285422
0.00271777
0.00259665
0.00248853
0.00239205
0.00230505
0.00423555
0.00380296
0.00345392
0.00322131
0.0030271
0.00286051
0.00271928
0.00259915
0.00249524
0.00240456
0.00232357
0.00397468
0.00354566
0.0032278
0.00299797
0.00282499
0.00269031
0.00257991
0.0024851
0.00240044
0.00232176
0.00225457
0.00414425
0.00367669
0.00331129
0.0030849
0.00293895
0.00283787
0.00275673
0.00268177
0.00261425
0.00255085
0.00249475
)
;

boundaryField
{
    inlet
    {
        type            fixedValue;
        value           nonuniform List<scalar> 0();
    }
    ami1
    {
        type            cyclicAMI;
        value           nonuniform List<scalar> 0();
    }
    walls
    {
        type            kqRWallFunction;
        value           nonuniform List<scalar> 
259
(
0.00421114
0.0041177
0.0038473
0.00346367
0.00414425
0.00384167
0.00368769
0.00342191
0.00318008
0.00367669
0.00355427
0.00338905
0.00312928
0.00294809
0.00331129
0.00331841
0.00316006
0.00294155
0.00277543
0.0030849
0.00311997
0.0029762
0.00278879
0.00264694
0.00293895
0.00295026
0.00282205
0.00265821
0.00254809
0.00283787
0.00280268
0.00268757
0.00254417
0.00246214
0.00275673
0.00267194
0.00256772
0.00244243
0.00237924
0.00268177
0.00255399
0.0024596
0.00235036
0.00230513
0.00261425
0.00244703
0.00236122
0.00226577
0.00223295
0.00255085
0.00234977
0.00227141
0.00218847
0.00216961
0.00249475
0.00414596
0.00346388
0.00384723
0.00411809
0.00421107
0.00418073
0.00425696
0.00430126
0.00423555
0.00397468
0.00414425
0.00367837
0.00318284
0.00342249
0.00368797
0.00384267
0.00388643
0.0039475
0.00393303
0.00380296
0.00354566
0.00367669
0.00331309
0.00295021
0.00312856
0.00339021
0.00355575
0.00362885
0.00367884
0.00363338
0.00345392
0.0032278
0.00331129
0.00308663
0.00277679
0.0029401
0.00316021
0.0033196
0.00340308
0.00344506
0.00338861
0.00322131
0.00299797
0.0030849
0.00294075
0.0026482
0.00278695
0.0029757
0.00312057
0.00320478
0.00324067
0.00318438
0.0030271
0.00282499
0.00293895
0.00283974
0.00254945
0.00265616
0.00282078
0.0029502
0.00303035
0.00306179
0.00300878
0.00286051
0.00269031
0.00283787
0.0027587
0.00246376
0.00254209
0.00268573
0.00280203
0.0028764
0.00290403
0.00285422
0.00271928
0.00257991
0.00275673
0.00268349
0.00238046
0.0024405
0.00256565
0.00267085
0.00273961
0.00276396
0.00271777
0.00259915
0.0024851
0.00268177
0.00261584
0.00230651
0.00234875
0.00245754
0.00255269
0.00261639
0.00263826
0.00259665
0.00249524
0.00240044
0.00261425
0.00255152
0.00223341
0.00226449
0.00235939
0.00244572
0.00250467
0.00252509
0.00248853
0.00240456
0.00232176
0.00255085
0.00249585
0.00217096
0.00218758
0.00226983
0.00234842
0.0024031
0.00242286
0.00239205
0.00232357
0.00225457
0.00249475
0.0024447
0.0021141
0.0021178
0.00218792
0.0022597
0.0023107
0.0023303
0.00230505
0.00420812
0.00418007
0.00425663
0.00430099
0.00423562
0.00397563
0.00414596
0.00383848
0.00388539
0.00394655
0.0039327
0.00380403
0.00354763
0.00367837
0.00355211
0.00362727
0.00367769
0.00363313
0.00345486
0.00323028
0.00331309
0.00340129
0.00344389
0.00338861
0.00322327
0.00300062
0.00308663
0.0032033
0.00323959
0.00318459
0.00302925
0.00282776
0.00294075
0.0030294
0.00306084
0.00300903
0.00286256
0.00269304
0.00283974
0.0028759
0.00290321
0.00285446
0.00272112
0.00258244
0.0027587
0.00273946
0.00276324
0.00271797
0.00260074
0.00248723
0.00268349
0.00261646
0.00263764
0.00259678
0.00249649
0.00240247
0.00261584
0.00250481
0.00252454
0.00248858
0.00240566
0.00232274
0.00255152
0.00240317
0.00242236
0.00239206
0.00232425
0.00225591
0.00249585
0.00231059
0.0023298
0.00230506
0.00225124
0.00219533
0.0024447
)
;
    }
    ami2
    {
        type            cyclicAMI;
        value           nonuniform List<scalar> 
61
(
0.00444201
0.00765427
0.0102283
0.00435015
0.0078181
0.0105361
0.00443409
0.00772449
0.0101627
0.0119799
0.0131756
0.0135526
0.0131755
0.0120714
0.0102298
0.0076561
0.0044435
0.00450613
0.00710399
0.00920771
0.0108582
0.0120718
0.0124864
0.0119803
0.0108581
0.0094358
0.0072549
0.00437168
0.0044292
0.00597267
0.00777706
0.00943571
0.0102296
0.0105368
0.010163
0.00920757
0.0077767
0.00640389
0.00407997
0.00415986
0.00439637
0.00640393
0.00725496
0.00765558
0.00781843
0.00772479
0.00710424
0.00597224
0.004396
0.0035715
0.00404491
0.00357172
0.00408006
0.004372
0.00444355
0.00435058
0.00443433
0.00450631
0.00442915
0.00415932
0.00404394
)
;
    }
    outlet
    {
        type            zeroGradient;
    }
    procBoundary1to0
    {
        type            processor;
        value           nonuniform List<scalar> 
138
(
0.00331555
0.00331555
0.0031182
0.00294924
0.00280204
0.00267152
0.00255367
0.00244669
0.00234915
0.00226005
0.00554442
0.00554442
0.00510073
0.00471425
0.00437676
0.00407891
0.00381095
0.00356917
0.00335058
0.00315298
0.0114626
0.0104091
0.00737186
0.00949139
0.00737186
0.00676998
0.0062396
0.00577066
0.0053545
0.00498345
0.00465077
0.00435106
0.00407997
0.0118399
0.0107337
0.00977639
0.00894108
0.0082074
0.00755952
0.0069848
0.00647297
0.00601551
0.00560519
0.00523586
0.00490223
0.0118399
0.0107337
0.00977639
0.00894108
0.0082074
0.00755952
0.0069848
0.00647297
0.00601551
0.00560519
0.00523586
0.00490223
0.0128807
0.0117091
0.0106828
0.00978045
0.00898397
0.00827827
0.0076507
0.00709067
0.00658925
0.00613888
0.00573309
0.00536632
0.0132159
0.0120302
0.0109855
0.0100633
0.00924721
0.00852281
0.00787782
0.00730174
0.0067856
0.00632175
0.00590366
0.00552565
0.0128806
0.0117091
0.0106831
0.00978107
0.00898481
0.00827923
0.0076517
0.00709164
0.00659015
0.00613966
0.00573374
0.00536681
0.011838
0.0107326
0.00977613
0.00894154
0.00820837
0.00756082
0.00698627
0.00647447
0.00601695
0.0056065
0.00523699
0.00490296
0.0100049
0.00907889
0.00827169
0.00756515
0.00694422
0.00639632
0.00591124
0.00548042
0.00509649
0.00475261
0.00444311
0.00743844
0.00676365
0.00617175
0.0056526
0.00519645
0.00479646
0.00444543
0.0041366
0.00386047
0.00361136
0.00338676
0.00417774
0.00388363
0.00362666
0.00340149
0.00320383
0.00303003
0.00287655
0.00274012
0.00261713
0.00250551
0.00240415
)
;
    }
    procBoundary1to2
    {
        type            processor;
        value           nonuniform List<scalar> 9(0.00411752 0.00368744 0.00339031 0.00689225 0.00622134 0.00564621 0.00893626 0.00809621 0.00737703);
    }
    procBoundary1to8
    {
        type            processor;
        value           nonuniform List<scalar> 
33
(
0.00222655
0.00299717
0.00390818
0.00224599
0.00291666
0.00380139
0.00447417
0.00489261
0.00503337
0.00222602
0.00273975
0.00352451
0.00412146
0.00448487
0.00460012
0.00218598
0.0024494
0.00307433
0.00355492
0.00383355
0.00390939
0.00213904
0.00197419
0.00245073
0.00280138
0.00297223
0.00299858
0.00239546
0.002062
0.00205496
0.00211329
0.00217899
0.00222703
)
;
    }
    procBoundary1to9
    {
        type            processor;
        value           nonuniform List<scalar> 
30
(
0.00489287
0.00448488
0.00408006
0.00408006
0.00315322
0.00226136
0.004475
0.00412215
0.00378242
0.00378242
0.00297188
0.00218972
0.00380252
0.00352536
0.00327039
0.00327039
0.00260393
0.00211928
0.0029179
0.00274026
0.0025898
0.0025898
0.00209239
0.00211425
0.00224656
0.00222611
0.00225009
0.00225009
0.00219462
0.00244422
)
;
    }
}


// ************************************************************************* //
