/*--------------------------------*- C++ -*----------------------------------*\
| =========                 |                                                 |
| \\      /  F ield         | OpenFOAM: The Open Source CFD Toolbox           |
|  \\    /   O peration     | Version:  2212                                  |
|   \\  /    A nd           | Website:  www.openfoam.com                      |
|    \\/     M anipulation  |                                                 |
\*---------------------------------------------------------------------------*/
FoamFile
{
    version     2.0;
    format      ascii;
    arch        "LSB;label=32;scalar=64";
    class       volScalarField;
    location    "1.9";
    object      nut;
}
// * * * * * * * * * * * * * * * * * * * * * * * * * * * * * * * * * * * * * //

dimensions      [0 2 -1 0 0 0 0];

internalField   nonuniform List<scalar> 
690
(
2.32557e-05
2.20397e-05
2.11419e-05
0.000102074
9.71354e-05
9.25516e-05
0.000170315
0.000162367
0.000155101
2.38066e-05
2.2896e-05
2.20968e-05
2.13824e-05
2.07448e-05
2.01735e-05
1.96587e-05
1.91912e-05
1.87605e-05
1.83611e-05
1.79897e-05
1.76445e-05
0.000106267
0.00010119
9.61185e-05
9.14252e-05
8.70264e-05
8.33862e-05
8.0237e-05
7.73946e-05
7.39313e-05
7.04132e-05
6.71917e-05
6.42571e-05
0.000177325
0.00016894
0.000161146
0.000153956
0.000147314
0.000141211
0.000135626
0.0001305
0.000125652
0.00012102
0.000116607
0.000112424
2.29552e-05
2.21633e-05
2.14226e-05
2.07448e-05
2.01284e-05
1.95713e-05
1.9066e-05
1.86053e-05
1.81814e-05
1.77905e-05
1.74293e-05
1.70954e-05
0.000103348
9.7009e-05
9.14713e-05
8.6585e-05
8.23164e-05
7.89972e-05
7.57413e-05
7.25459e-05
6.89169e-05
6.55878e-05
6.25121e-05
5.96843e-05
0.000168336
0.000160828
0.000153688
0.000146996
0.000140774
0.00013504
0.000129716
0.000124741
0.000119963
0.000115404
0.000111074
0.000106969
0.000209383
0.00020081
0.000192598
0.000184835
0.000177552
0.000170744
0.00016438
0.00015843
0.000152864
0.000147625
0.000142664
0.00013796
0.000234059
0.000223977
0.000214689
0.000206073
0.000198052
0.000190574
0.000183592
0.000177065
0.000170957
0.000165228
0.00015984
0.000154756
0.000241426
0.000231156
0.000221658
0.000212829
0.000204601
0.00019692
0.000189742
0.000183027
0.00017674
0.000170845
0.000165306
0.000160082
0.000234052
0.000224037
0.00021477
0.000206159
0.000198139
0.000190659
0.000183674
0.000177143
0.000171028
0.000165292
0.000159896
0.000154799
0.000211874
0.000202399
0.000193724
0.000185732
0.000178346
0.000171503
0.000165147
0.000159217
0.000153659
0.000148429
0.000143486
0.000138779
0.000170641
0.000162473
0.000155127
0.000148448
0.000142347
0.00013679
0.00013168
0.000126904
0.000122349
0.000118003
0.000113834
0.000103065
9.7554e-05
9.2814e-05
8.8537e-05
8.46456e-05
8.15986e-05
7.905e-05
7.62598e-05
7.26818e-05
6.94203e-05
6.64415e-05
2.32577e-05
2.20486e-05
2.11483e-05
2.04026e-05
1.97671e-05
1.92149e-05
1.87262e-05
1.82852e-05
1.78801e-05
1.75062e-05
1.716e-05
2.07167e-05
1.98267e-05
1.90584e-05
1.84003e-05
1.78309e-05
1.73323e-05
1.68813e-05
1.64731e-05
1.61022e-05
1.57637e-05
1.54558e-05
1.51716e-05
8.82904e-05
8.29229e-05
7.8219e-05
7.44103e-05
7.1509e-05
6.85736e-05
6.48609e-05
6.15095e-05
5.84029e-05
5.55096e-05
5.28115e-05
5.02814e-05
0.000145439
0.000139285
0.000133556
0.000128231
0.000123294
0.000118633
0.000114072
0.000109685
0.000105455
0.000101378
9.74492e-05
9.3668e-05
0.000185207
0.000178169
0.000171231
0.000164608
0.00015836
0.000152498
0.000146987
0.000141751
0.000136769
0.000132018
0.000127478
0.000123141
0.000211943
0.000202384
0.000193691
0.000185699
0.000178313
0.000171469
0.00016511
0.000159179
0.000153623
0.000148397
0.000143462
0.000138787
0.000220617
0.000210181
0.00020085
0.000192359
0.000184555
0.000177344
0.000170656
0.000164441
0.000158646
0.000153221
0.000148115
0.000143287
0.000209484
0.000201
0.000192799
0.000185032
0.000177748
0.000170938
0.000164569
0.000158614
0.000153043
0.000147794
0.000142821
0.000138103
0.000185225
0.000178238
0.000171323
0.000164717
0.000158483
0.000152632
0.000147132
0.000141902
0.000136918
0.000132158
0.000127603
0.000123253
0.000151117
0.000142303
0.000135663
0.000130127
0.000125233
0.000120781
0.000116504
0.000112326
0.000108236
0.000104224
0.000100316
9.34094e-05
8.49241e-05
8.06036e-05
7.7084e-05
7.43498e-05
7.24276e-05
6.94629e-05
6.62135e-05
6.32022e-05
6.03527e-05
5.76429e-05
2.0401e-05
1.92218e-05
1.83923e-05
1.7738e-05
1.7205e-05
1.67487e-05
1.63437e-05
1.59774e-05
1.56421e-05
1.53321e-05
1.50444e-05
1.67159e-05
1.58769e-05
1.50149e-05
1.44931e-05
1.40482e-05
1.36496e-05
1.33014e-05
1.3e-05
1.27355e-05
1.25016e-05
1.22895e-05
1.20941e-05
6.07784e-05
5.84411e-05
5.58845e-05
5.42208e-05
5.1542e-05
4.90394e-05
4.66195e-05
4.42825e-05
4.20005e-05
3.97952e-05
3.78183e-05
3.55156e-05
0.000109991
0.000104992
0.000101076
9.78284e-05
9.46066e-05
9.13245e-05
8.79888e-05
8.4606e-05
8.12095e-05
7.78016e-05
7.44716e-05
7.11057e-05
0.00015101
0.000142285
0.000135628
0.000130054
0.000125126
0.000120635
0.000116326
0.000112131
0.000108037
0.000104034
0.000100153
9.64018e-05
0.000170494
0.000162473
0.000155138
0.000148443
0.000142322
0.000136744
0.000131615
0.000126824
0.00012226
0.000117916
0.000113753
0.00010976
0.000177433
0.000169181
0.000161387
0.000154156
0.000147487
0.000141369
0.000135765
0.000130626
0.000125779
0.000121158
0.000116749
0.00011257
0.000168396
0.000160982
0.000153853
0.000147166
0.000140947
0.000135211
0.000129869
0.000124897
0.000120135
0.000115576
0.000111236
0.000107127
0.000145429
0.000139243
0.000133535
0.000128264
0.00012336
0.000118718
0.000114186
0.000109821
0.000105595
0.000101515
9.75713e-05
9.38126e-05
0.000109946
0.000105092
0.000101122
9.78798e-05
9.46788e-05
9.1424e-05
8.81016e-05
8.47254e-05
8.13241e-05
7.79206e-05
7.45234e-05
6.99468e-05
6.13464e-05
5.80866e-05
5.65512e-05
5.42306e-05
5.16412e-05
4.92287e-05
4.68813e-05
4.45808e-05
4.2288e-05
4.00289e-05
1.55792e-05
1.49355e-05
1.42626e-05
1.37928e-05
1.34153e-05
1.30922e-05
1.28094e-05
1.25561e-05
1.23246e-05
1.21089e-05
1.19072e-05
1.11888e-05
1.05301e-05
9.99718e-06
9.60722e-06
9.31167e-06
9.07986e-06
8.8883e-06
8.72283e-06
8.572e-06
8.43009e-06
8.31075e-06
8.19942e-06
2.95286e-05
2.87099e-05
2.79654e-05
2.68995e-05
2.56837e-05
2.45188e-05
2.32259e-05
2.19259e-05
2.06803e-05
1.93203e-05
1.83118e-05
1.7118e-05
6.99379e-05
6.13292e-05
5.79883e-05
5.64043e-05
5.40098e-05
5.14011e-05
4.899e-05
4.66523e-05
4.43789e-05
4.21033e-05
3.98879e-05
3.76291e-05
9.34077e-05
8.53172e-05
8.0852e-05
7.71656e-05
7.43431e-05
7.22797e-05
6.92043e-05
6.59352e-05
6.29277e-05
6.00993e-05
5.74129e-05
5.48438e-05
0.000102876
9.78149e-05
9.30581e-05
8.86967e-05
8.47041e-05
8.15914e-05
7.89715e-05
7.6112e-05
7.25042e-05
6.92481e-05
6.62612e-05
6.35022e-05
0.000106368
0.000101317
9.62707e-05
9.15132e-05
8.70896e-05
8.33963e-05
8.02806e-05
7.74197e-05
7.3944e-05
7.04195e-05
6.72032e-05
6.42847e-05
0.000103375
9.70408e-05
9.15235e-05
8.66534e-05
8.23803e-05
7.90716e-05
7.58226e-05
7.26323e-05
6.89954e-05
6.56595e-05
6.25783e-05
5.97522e-05
8.82848e-05
8.29017e-05
7.81967e-05
7.43984e-05
7.15037e-05
6.85779e-05
6.4872e-05
6.15277e-05
5.84255e-05
5.55375e-05
5.28358e-05
5.0343e-05
6.07388e-05
5.83985e-05
5.5808e-05
5.4145e-05
5.14591e-05
4.89557e-05
4.65405e-05
4.42134e-05
4.1941e-05
3.97781e-05
3.77038e-05
2.95174e-05
2.87449e-05
2.79537e-05
2.68679e-05
2.56201e-05
2.44411e-05
2.31462e-05
2.18582e-05
2.06066e-05
1.93197e-05
1.817e-05
1.04282e-05
9.91924e-06
9.5052e-06
9.20299e-06
8.96645e-06
8.79528e-06
8.64953e-06
8.51003e-06
8.38229e-06
8.25429e-06
8.14336e-06
5.39817e-06
5.0327e-06
4.7316e-06
4.54488e-06
4.42487e-06
4.34404e-06
4.28066e-06
4.22245e-06
4.16975e-06
4.11946e-06
4.07538e-06
4.03367e-06
1.04285e-05
9.9238e-06
9.50942e-06
9.20399e-06
8.96674e-06
8.79621e-06
8.65132e-06
8.51125e-06
8.38411e-06
8.25433e-06
8.14688e-06
8.04445e-06
1.55828e-05
1.49404e-05
1.42691e-05
1.379e-05
1.34112e-05
1.30863e-05
1.28022e-05
1.25483e-05
1.23171e-05
1.21019e-05
1.19017e-05
1.17176e-05
2.04027e-05
1.92211e-05
1.83954e-05
1.77408e-05
1.72054e-05
1.67456e-05
1.63374e-05
1.59688e-05
1.56322e-05
1.53219e-05
1.50342e-05
1.47668e-05
2.32588e-05
2.20506e-05
2.11519e-05
2.04059e-05
1.97693e-05
1.92151e-05
1.87241e-05
1.82808e-05
1.7874e-05
1.7499e-05
1.71518e-05
1.68295e-05
2.38077e-05
2.2897e-05
2.21001e-05
2.13886e-05
2.07512e-05
2.01787e-05
1.96623e-05
1.9193e-05
1.87607e-05
1.83601e-05
1.79882e-05
1.76433e-05
2.29564e-05
2.21666e-05
2.1427e-05
2.07497e-05
2.01332e-05
1.95759e-05
1.90702e-05
1.86089e-05
1.81845e-05
1.77932e-05
1.74317e-05
1.70976e-05
2.07176e-05
1.98269e-05
1.90597e-05
1.84018e-05
1.78318e-05
1.73329e-05
1.68817e-05
1.64734e-05
1.61025e-05
1.5764e-05
1.54561e-05
1.51721e-05
1.67163e-05
1.58699e-05
1.50157e-05
1.44904e-05
1.40446e-05
1.36458e-05
1.32974e-05
1.29963e-05
1.27324e-05
1.24986e-05
1.22869e-05
1.11878e-05
1.05288e-05
9.99537e-06
9.60469e-06
9.30845e-06
9.07612e-06
8.88434e-06
8.71898e-06
8.56804e-06
8.42798e-06
8.30636e-06
5.39769e-06
5.03229e-06
4.73093e-06
4.54427e-06
4.42412e-06
4.343e-06
4.27935e-06
4.22113e-06
4.16839e-06
4.11879e-06
4.07415e-06
)
;

boundaryField
{
    inlet
    {
        type            calculated;
        value           nonuniform List<scalar> 0();
    }
    ami1
    {
        type            cyclicAMI;
        value           nonuniform List<scalar> 0();
    }
    walls
    {
        type            nutkWallFunction;
        blending        stepwise;
        value           uniform 0;
    }
    ami2
    {
        type            cyclicAMI;
        value           nonuniform List<scalar> 
61
(
2.82681e-05
0.000108181
0.000175671
2.53082e-05
0.000111912
0.000182428
2.46613e-05
0.000108532
0.000172278
0.000213994
0.000239112
0.000246469
0.000239106
0.000217187
0.000175836
0.000108674
2.82682e-05
2.41433e-05
9.24446e-05
0.000148588
0.000189615
0.000217227
0.000225633
0.000214043
0.000189618
0.000157015
9.86905e-05
2.60754e-05
2.15706e-05
6.44331e-05
0.000112776
0.000156972
0.000175766
0.000182487
0.000172308
0.00014858
0.000112747
7.63926e-05
2.00755e-05
1.7033e-05
2.93629e-05
7.6395e-05
9.86969e-05
0.000108583
0.000111966
0.000108548
9.24407e-05
6.44107e-05
2.93561e-05
1.15864e-05
1.1379e-05
1.15867e-05
2.00789e-05
2.60779e-05
2.82695e-05
2.53092e-05
2.46622e-05
2.41438e-05
2.15707e-05
1.70322e-05
1.13785e-05
)
;
    }
    outlet
    {
        type            calculated;
        value           nonuniform List<scalar> 0();
    }
    procBoundary1to0
    {
        type            processor;
        value           nonuniform List<scalar> 
138
(
2.03914e-05
2.03914e-05
1.97596e-05
1.92103e-05
1.87232e-05
1.82837e-05
1.78797e-05
1.7506e-05
1.71587e-05
1.68353e-05
8.8385e-05
8.8385e-05
8.45866e-05
8.16357e-05
7.90267e-05
7.61879e-05
7.26117e-05
6.93549e-05
6.63526e-05
6.35727e-05
0.000211964
0.000202404
0.000148467
0.000193707
0.000148467
0.000142348
0.000136768
0.000131634
0.00012684
0.000122263
0.000117902
0.000113727
0.000109722
0.00022072
0.0002102
0.000200817
0.000192293
0.000184466
0.000177237
0.000170539
0.000164321
0.000158527
0.000153102
0.000147998
0.000143171
0.00022072
0.0002102
0.000200817
0.000192293
0.000184466
0.000177237
0.000170539
0.000164321
0.000158527
0.000153102
0.000147998
0.000143171
0.000241433
0.000231214
0.000221717
0.000212876
0.000204635
0.000196943
0.000189757
0.000183036
0.000176745
0.000170847
0.000165307
0.000160081
0.00024749
0.000237636
0.000228264
0.000219417
0.000211099
0.00020329
0.000195967
0.000189099
0.000182657
0.000176611
0.000170928
0.000165567
0.00024143
0.000231205
0.000221732
0.000212914
0.000204688
0.000197004
0.000189819
0.000183097
0.000176802
0.000170898
0.000165351
0.000160114
0.000220615
0.000210172
0.000200844
0.000192353
0.000184547
0.000177334
0.000170643
0.000164427
0.00015863
0.000153202
0.000148092
0.00014323
0.000177439
0.00016916
0.000161374
0.00015415
0.000147481
0.000141363
0.000135755
0.000130621
0.000125774
0.00012115
0.000116741
0.000106231
0.00010115
9.61396e-05
9.14213e-05
8.70345e-05
8.34076e-05
8.02645e-05
7.74355e-05
7.39748e-05
7.04602e-05
6.7278e-05
2.37904e-05
2.2884e-05
2.20909e-05
2.13822e-05
2.0747e-05
2.01765e-05
1.96616e-05
1.91939e-05
1.87631e-05
1.83636e-05
1.79935e-05
)
;
    }
    procBoundary1to2
    {
        type            processor;
        value           nonuniform List<scalar> 9(2.04003e-05 1.92197e-05 1.83948e-05 9.33636e-05 8.53338e-05 8.09599e-05 0.000151218 0.000142863 0.000136151);
    }
    procBoundary1to8
    {
        type            processor;
        value           nonuniform List<scalar> 
33
(
1.73252e-05
6.15656e-05
0.000108374
1.67877e-05
5.7131e-05
0.000103023
0.000133409
0.000149845
0.000155017
1.49097e-05
4.80608e-05
9.01002e-05
0.000118966
0.000134246
0.000138558
1.19195e-05
3.45081e-05
6.82093e-05
9.28881e-05
0.000105892
0.00010848
8.09529e-06
1.62172e-05
3.58935e-05
5.25397e-05
6.09651e-05
6.16336e-05
3.99303e-06
7.9481e-06
1.15509e-05
1.4521e-05
1.65319e-05
1.73253e-05
)
;
    }
    procBoundary1to9
    {
        type            processor;
        value           nonuniform List<scalar> 
30
(
0.000149847
0.000134212
0.000109771
0.000109771
6.36906e-05
1.68402e-05
0.00013347
0.000118998
9.66268e-05
9.66268e-05
5.51695e-05
1.47801e-05
0.000103102
9.01496e-05
7.14532e-05
7.14532e-05
3.80285e-05
1.1728e-05
5.71901e-05
4.80685e-05
3.59999e-05
3.59999e-05
1.73258e-05
8.04735e-06
1.67901e-05
1.49106e-05
1.20929e-05
1.20929e-05
8.19967e-06
4.0338e-06
)
;
    }
}


// ************************************************************************* //
