/*--------------------------------*- C++ -*----------------------------------*\
| =========                 |                                                 |
| \\      /  F ield         | OpenFOAM: The Open Source CFD Toolbox           |
|  \\    /   O peration     | Version:  2212                                  |
|   \\  /    A nd           | Website:  www.openfoam.com                      |
|    \\/     M anipulation  |                                                 |
\*---------------------------------------------------------------------------*/
FoamFile
{
    version     2.0;
    format      ascii;
    arch        "LSB;label=32;scalar=64";
    class       volScalarField;
    location    "1.75";
    object      k;
}
// * * * * * * * * * * * * * * * * * * * * * * * * * * * * * * * * * * * * * //

dimensions      [0 2 -2 0 0 0 0];

internalField   nonuniform List<scalar> 
6840
(
0.213564
0.055916
0.0283994
0.0193411
0.0146927
0.011851
0.00989062
0.00851597
0.00749118
0.00669612
0.00606024
0.00555042
0.00512215
0.0047439
0.00442364
0.00415404
0.00392508
0.0037294
0.00357614
0.00340096
0.264759
0.104702
0.0585298
0.039163
0.0286199
0.0219934
0.017536
0.0143632
0.0120082
0.0102137
0.00881622
0.00770551
0.0068037
0.00606055
0.00544869
0.00494637
0.00452722
0.00417329
0.00387964
0.00365731
0.283364
0.126774
0.0717019
0.0473281
0.0338662
0.0256616
0.0204608
0.016797
0.0140485
0.011941
0.0102838
0.00895548
0.00788418
0.00700984
0.00628632
0.00568091
0.00517114
0.00473897
0.00437352
0.00408719
0.292299
0.141633
0.0819301
0.0541653
0.038923
0.0292874
0.0232722
0.0190785
0.015934
0.0135148
0.0116266
0.0101124
0.00888137
0.00787036
0.00703202
0.00633041
0.00573832
0.00523484
0.00480697
0.00448234
0.295943
0.148782
0.0871941
0.0576749
0.0415194
0.0310723
0.0246451
0.0202211
0.0169051
0.0143251
0.0123086
0.0107025
0.00939644
0.00832289
0.00743172
0.00668503
0.00605422
0.00551748
0.00506111
0.0047048
0.295943
0.148782
0.0871941
0.057675
0.0415194
0.0310723
0.0246452
0.0202212
0.0169052
0.0143252
0.0123089
0.0107029
0.00939693
0.00832355
0.00743263
0.00668644
0.00605625
0.00552022
0.00506352
0.00469422
0.292299
0.141633
0.0819302
0.0541654
0.0389231
0.0292875
0.0232724
0.0190787
0.0159343
0.0135152
0.0116271
0.0101132
0.00888246
0.00787188
0.00703423
0.00633378
0.00574331
0.00524193
0.00481435
0.00445666
0.283364
0.126774
0.071702
0.0473282
0.0338663
0.0256617
0.0204609
0.0167971
0.0140487
0.0119413
0.0102843
0.00895623
0.00788525
0.00701138
0.0062887
0.00568466
0.00517697
0.00474793
0.0043862
0.00409684
0.264759
0.104702
0.0585298
0.039163
0.0286199
0.0219934
0.017536
0.0143633
0.0120082
0.0102138
0.00881638
0.00770578
0.00680417
0.00606141
0.00545003
0.00494877
0.00453164
0.00418166
0.00389506
0.00366863
0.213564
0.055916
0.0283994
0.0193411
0.0146927
0.011851
0.00989062
0.00851596
0.00749118
0.00669611
0.00606025
0.00555041
0.00512215
0.00474388
0.00442364
0.00415405
0.00392509
0.00372941
0.00357614
0.00340109
0.264759
0.104702
0.0585298
0.039163
0.0286199
0.0219934
0.017536
0.0143633
0.0120082
0.0102138
0.00881639
0.00770579
0.00680417
0.00606149
0.00545003
0.00494875
0.00453165
0.00418169
0.00389509
0.00366859
0.311746
0.197541
0.130357
0.0911456
0.0668022
0.050811
0.0397943
0.0319121
0.0260942
0.0216872
0.0182765
0.0155883
0.0134408
0.0116979
0.0102666
0.00907821
0.00808196
0.00723706
0.00653208
0.00590555
0.31754
0.217754
0.151085
0.108549
0.0807154
0.0618724
0.0486771
0.0391415
0.0320582
0.026671
0.0224893
0.0191862
0.0165373
0.0143845
0.012614
0.0111437
0.00991149
0.00886884
0.00798148
0.00722163
0.319723
0.227073
0.162232
0.118772
0.089361
0.0689927
0.0545305
0.0439844
0.0360996
0.0300746
0.0253819
0.0216649
0.0186773
0.0162448
0.0142415
0.0125744
0.0111745
0.00998886
0.00897646
0.00811041
0.320484
0.23086
0.167176
0.123531
0.0935159
0.0724826
0.0574408
0.0464215
0.0381541
0.0318176
0.0268715
0.0229476
0.0197893
0.0172149
0.0150927
0.0133254
0.0118402
0.0105818
0.00950714
0.00858726
0.320484
0.23086
0.167176
0.123531
0.093516
0.0724827
0.0574409
0.0464216
0.0381543
0.0318179
0.0268719
0.0229481
0.01979
0.0172159
0.015094
0.0133273
0.011843
0.0105857
0.00951222
0.00859445
0.319723
0.227073
0.162232
0.118772
0.0893611
0.0689928
0.0545307
0.0439846
0.0361
0.0300751
0.0253827
0.021666
0.0186788
0.0162469
0.0142444
0.0125788
0.0111808
0.00999777
0.00898869
0.00812896
0.31754
0.217754
0.151085
0.108549
0.0807155
0.0618725
0.0486773
0.0391417
0.0320586
0.0266714
0.0224899
0.019187
0.0165385
0.0143861
0.0126165
0.0111474
0.00991692
0.00887688
0.00799367
0.00724153
0.311746
0.197541
0.130357
0.0911456
0.0668022
0.050811
0.0397943
0.031912
0.0260942
0.0216872
0.0182764
0.0155883
0.0134408
0.0116978
0.0102666
0.00907823
0.00808198
0.00723708
0.00653217
0.00590576
0.264759
0.104702
0.0585298
0.039163
0.0286199
0.0219934
0.017536
0.0143632
0.0120082
0.0102137
0.00881622
0.00770551
0.00680367
0.00606056
0.00544866
0.00494637
0.00452725
0.00417334
0.00387973
0.00365743
0.283364
0.126774
0.071702
0.0473282
0.0338663
0.0256617
0.0204609
0.0167971
0.0140487
0.0119413
0.0102843
0.00895625
0.00788529
0.00701141
0.00628866
0.00568465
0.00517699
0.00474798
0.00438623
0.00409683
0.31754
0.217754
0.151085
0.108549
0.0807155
0.0618725
0.0486773
0.0391417
0.0320586
0.0266714
0.0224899
0.0191871
0.0165386
0.0143862
0.0126164
0.0111474
0.00991694
0.00887696
0.00799373
0.0072416
0.322005
0.239026
0.177588
0.133616
0.102323
0.0798668
0.0635104
0.0513819
0.0422214
0.035179
0.0296752
0.0253087
0.0217972
0.0189384
0.0165851
0.0146284
0.0129867
0.0115974
0.0104108
0.00937402
0.323293
0.245617
0.187499
0.144537
0.112864
0.0894038
0.0718632
0.0585863
0.0483994
0.040474
0.0342244
0.0292329
0.0251987
0.0219022
0.0191812
0.0169141
0.015009
0.0133945
0.0120126
0.0108042
0.323714
0.247819
0.191099
0.14881
0.117249
0.0935708
0.0756574
0.0619606
0.0513628
0.0430613
0.0364794
0.0311997
0.026918
0.0234099
0.0205084
0.0180871
0.0160499
0.0143216
0.0128409
0.0115476
0.323714
0.247819
0.191099
0.14881
0.117249
0.0935708
0.0756574
0.0619607
0.0513629
0.0430615
0.0364796
0.0311999
0.0269183
0.0234103
0.0205089
0.018088
0.0160511
0.0143234
0.0128437
0.0115546
0.323293
0.245617
0.187499
0.144537
0.112864
0.0894039
0.0718633
0.0585865
0.0483996
0.0404743
0.0342248
0.0292334
0.0251992
0.0219029
0.0191822
0.0169157
0.0150113
0.0133977
0.0120177
0.010817
0.322005
0.239026
0.177588
0.133616
0.102323
0.0798668
0.0635104
0.0513819
0.0422214
0.035179
0.0296752
0.0253087
0.0217972
0.0189384
0.0165851
0.0146284
0.0129867
0.0115974
0.0104108
0.00937429
0.31754
0.217754
0.151085
0.108549
0.0807154
0.0618724
0.0486771
0.0391415
0.0320582
0.026671
0.0224893
0.0191862
0.0165373
0.0143845
0.0126139
0.0111437
0.00991151
0.00886891
0.00798169
0.00722215
0.283364
0.126774
0.0717019
0.0473281
0.0338662
0.0256616
0.0204608
0.016797
0.0140485
0.0119409
0.0102838
0.00895547
0.00788419
0.00700985
0.00628624
0.00568086
0.00517112
0.00473896
0.00437352
0.00408714
0.292299
0.141633
0.0819302
0.0541654
0.0389231
0.0292875
0.0232724
0.0190787
0.0159343
0.0135152
0.0116271
0.0101132
0.00888249
0.0078719
0.00703417
0.00633377
0.00574333
0.00524199
0.00481445
0.00445695
0.319723
0.227073
0.162232
0.118772
0.0893611
0.0689928
0.0545307
0.0439846
0.0361001
0.0300751
0.0253827
0.0216661
0.0186789
0.0162469
0.0142444
0.0125788
0.0111808
0.00999788
0.00898887
0.00812872
0.323293
0.245617
0.187499
0.144537
0.112864
0.0894039
0.0718633
0.0585865
0.0483996
0.0404743
0.0342248
0.0292334
0.0251993
0.0219029
0.0191822
0.0169157
0.0150113
0.0133978
0.0120178
0.0108169
0.324288
0.250862
0.19613
0.154888
0.123591
0.09968
0.0812741
0.0669837
0.0557847
0.0469223
0.0398394
0.0341235
0.0294672
0.0256397
0.0224665
0.0198144
0.0175803
0.0156828
0.0140531
0.0126163
0.32459
0.252403
0.19891
0.158543
0.12769
0.103871
0.08532
0.0707499
0.0592099
0.0499926
0.0425683
0.0365382
0.0316002
0.0275245
0.0241347
0.0212943
0.0188968
0.0168567
0.0150991
0.0135369
0.32459
0.252403
0.19891
0.158543
0.12769
0.103871
0.0853201
0.0707499
0.0592099
0.0499927
0.0425684
0.0365382
0.0316003
0.0275246
0.0241348
0.0212945
0.0188971
0.016857
0.0150995
0.0135372
0.324288
0.250862
0.19613
0.154888
0.123591
0.09968
0.0812741
0.0669837
0.0557847
0.0469223
0.0398394
0.0341235
0.0294672
0.0256397
0.0224665
0.0198143
0.0175802
0.0156828
0.0140531
0.0126164
0.323293
0.245617
0.187499
0.144537
0.112864
0.0894038
0.0718632
0.0585863
0.0483994
0.040474
0.0342244
0.0292329
0.0251987
0.0219022
0.0191811
0.0169141
0.015009
0.0133945
0.0120127
0.0108047
0.319723
0.227073
0.162232
0.118772
0.089361
0.0689927
0.0545305
0.0439843
0.0360996
0.0300746
0.0253819
0.0216649
0.0186774
0.0162449
0.0142414
0.0125743
0.0111745
0.00998886
0.00897655
0.00811056
0.292299
0.141633
0.0819301
0.0541654
0.038923
0.0292874
0.0232722
0.0190785
0.015934
0.0135148
0.0116266
0.0101124
0.00888139
0.0078704
0.00703192
0.00633034
0.00573826
0.00523479
0.00480691
0.00448212
0.295943
0.148782
0.0871941
0.057675
0.0415194
0.0310723
0.0246452
0.0202212
0.0169052
0.0143252
0.0123089
0.0107029
0.00939693
0.00832356
0.00743264
0.00668645
0.00605628
0.00552027
0.0050636
0.0046944
0.320484
0.23086
0.167176
0.123531
0.093516
0.0724827
0.0574409
0.0464216
0.0381543
0.0318179
0.0268719
0.0229481
0.01979
0.0172159
0.015094
0.0133274
0.0118431
0.0105858
0.00951238
0.00859459
0.323714
0.247819
0.191099
0.14881
0.117249
0.0935708
0.0756574
0.0619607
0.0513629
0.0430615
0.0364796
0.0312
0.0269183
0.0234104
0.020509
0.018088
0.0160512
0.0143234
0.0128438
0.0115548
0.32459
0.252403
0.19891
0.158543
0.12769
0.103871
0.0853201
0.0707499
0.0592099
0.0499927
0.0425684
0.0365382
0.0316003
0.0275246
0.0241348
0.0212945
0.0188971
0.0168571
0.0150996
0.0135374
0.324844
0.253685
0.20131
0.161836
0.131535
0.107943
0.0893701
0.0746125
0.062792
0.0532534
0.0455012
0.0391572
0.0339299
0.0295939
0.0259732
0.0229301
0.020355
0.0181582
0.0162569
0.0145436
0.324844
0.253685
0.20131
0.161836
0.131535
0.107943
0.0893701
0.0746125
0.062792
0.0532534
0.0455012
0.0391571
0.0339299
0.0295939
0.0259732
0.0229301
0.020355
0.0181582
0.0162569
0.0145436
0.32459
0.252403
0.19891
0.158543
0.12769
0.103871
0.08532
0.0707499
0.0592099
0.0499926
0.0425683
0.0365382
0.0316002
0.0275245
0.0241347
0.0212943
0.0188968
0.0168567
0.0150992
0.0135371
0.323714
0.247819
0.191099
0.14881
0.117249
0.0935708
0.0756574
0.0619606
0.0513628
0.0430613
0.0364794
0.0311997
0.026918
0.0234099
0.0205083
0.0180871
0.0160499
0.0143217
0.012841
0.0115478
0.320484
0.23086
0.167176
0.123531
0.0935159
0.0724826
0.0574408
0.0464214
0.0381541
0.0318176
0.0268715
0.0229475
0.0197894
0.017215
0.0150926
0.0133253
0.0118402
0.0105817
0.00950712
0.00858721
0.295943
0.148782
0.0871941
0.0576749
0.0415194
0.0310723
0.0246451
0.0202211
0.0169051
0.0143251
0.0123086
0.0107025
0.00939646
0.00832293
0.00743165
0.00668497
0.00605416
0.00551742
0.00506103
0.00470465
0.295943
0.148782
0.0871941
0.0576749
0.0415194
0.0310723
0.0246451
0.0202211
0.0169051
0.0143251
0.0123086
0.0107025
0.00939644
0.00832288
0.00743171
0.00668502
0.00605421
0.00551748
0.00506112
0.00470482
0.320484
0.23086
0.167176
0.123531
0.0935159
0.0724826
0.0574408
0.0464214
0.0381541
0.0318176
0.0268715
0.0229475
0.0197893
0.0172149
0.0150927
0.0133254
0.0118403
0.0105818
0.00950717
0.00858727
0.323714
0.247819
0.191099
0.14881
0.117249
0.0935708
0.0756574
0.0619606
0.0513628
0.0430613
0.0364794
0.0311997
0.026918
0.0234099
0.0205084
0.0180871
0.0160499
0.0143217
0.0128409
0.0115476
0.32459
0.252403
0.19891
0.158543
0.12769
0.103871
0.08532
0.0707499
0.0592099
0.0499926
0.0425683
0.0365382
0.0316002
0.0275245
0.0241347
0.0212943
0.0188968
0.0168567
0.0150992
0.013537
0.324844
0.253685
0.20131
0.161836
0.131535
0.107943
0.08937
0.0746125
0.062792
0.0532534
0.0455012
0.0391571
0.0339299
0.0295939
0.0259732
0.0229301
0.020355
0.0181582
0.0162569
0.0145436
0.324844
0.253685
0.20131
0.161836
0.131535
0.107943
0.08937
0.0746125
0.062792
0.0532534
0.0455012
0.0391571
0.0339299
0.0295939
0.0259732
0.0229301
0.020355
0.0181582
0.0162569
0.0145436
0.32459
0.252403
0.19891
0.158543
0.12769
0.103871
0.0853201
0.0707499
0.0592099
0.0499926
0.0425684
0.0365382
0.0316003
0.0275246
0.0241348
0.0212945
0.0188971
0.016857
0.0150995
0.0135374
0.323714
0.247819
0.191099
0.14881
0.117249
0.0935708
0.0756574
0.0619607
0.0513629
0.0430615
0.0364795
0.0311999
0.0269183
0.0234104
0.020509
0.018088
0.0160511
0.0143234
0.0128437
0.0115547
0.320484
0.23086
0.167176
0.123531
0.093516
0.0724826
0.0574409
0.0464216
0.0381543
0.0318179
0.0268718
0.022948
0.01979
0.0172159
0.015094
0.0133273
0.011843
0.0105856
0.00951214
0.00859433
0.295943
0.148782
0.0871941
0.057675
0.0415194
0.0310723
0.0246452
0.0202212
0.0169052
0.0143252
0.0123088
0.0107029
0.00939693
0.00832357
0.00743264
0.00668642
0.00605623
0.00552019
0.00506348
0.00469423
0.292299
0.141633
0.0819301
0.0541653
0.038923
0.0292874
0.0232722
0.0190785
0.015934
0.0135148
0.0116266
0.0101124
0.00888136
0.00787035
0.00703201
0.00633039
0.00573829
0.0052348
0.00480692
0.00448226
0.319723
0.227073
0.162232
0.118772
0.089361
0.0689927
0.0545305
0.0439843
0.0360996
0.0300746
0.0253819
0.0216649
0.0186773
0.0162448
0.0142415
0.0125744
0.0111745
0.00998879
0.00897635
0.00811024
0.323293
0.245617
0.187499
0.144537
0.112864
0.0894038
0.0718632
0.0585863
0.0483994
0.040474
0.0342244
0.0292329
0.0251987
0.0219022
0.0191811
0.0169141
0.015009
0.0133944
0.0120125
0.010804
0.324288
0.250862
0.19613
0.154888
0.123591
0.09968
0.0812741
0.0669837
0.0557847
0.0469223
0.0398394
0.0341235
0.0294672
0.0256397
0.0224665
0.0198143
0.0175802
0.0156828
0.014053
0.0126161
0.32459
0.252403
0.19891
0.158543
0.12769
0.103871
0.0853201
0.0707499
0.0592099
0.0499926
0.0425684
0.0365382
0.0316003
0.0275246
0.0241348
0.0212945
0.018897
0.016857
0.0150995
0.0135372
0.32459
0.252403
0.19891
0.158543
0.12769
0.103871
0.08532
0.0707499
0.0592099
0.0499926
0.0425683
0.0365382
0.0316002
0.0275245
0.0241346
0.0212943
0.0188968
0.0168567
0.0150991
0.013537
0.324288
0.250862
0.19613
0.154888
0.123591
0.09968
0.0812741
0.0669837
0.0557847
0.0469223
0.0398394
0.0341235
0.0294672
0.0256397
0.0224665
0.0198143
0.0175802
0.0156828
0.014053
0.0126162
0.323293
0.245617
0.187499
0.144537
0.112864
0.0894039
0.0718633
0.0585865
0.0483996
0.0404743
0.0342247
0.0292334
0.0251992
0.0219029
0.0191822
0.0169157
0.0150113
0.0133977
0.0120176
0.0108167
0.319723
0.227073
0.162232
0.118772
0.0893611
0.0689928
0.0545307
0.0439846
0.0361
0.0300751
0.0253827
0.021666
0.0186788
0.0162469
0.0142444
0.0125787
0.0111807
0.00999773
0.00898862
0.00812837
0.292299
0.141633
0.0819302
0.0541654
0.0389231
0.0292875
0.0232724
0.0190787
0.0159343
0.0135152
0.0116271
0.0101132
0.00888245
0.00787187
0.00703422
0.00633377
0.0057433
0.00524193
0.00481436
0.0044568
0.283364
0.126774
0.0717019
0.0473281
0.0338662
0.0256616
0.0204608
0.016797
0.0140485
0.0119409
0.0102838
0.00895547
0.00788416
0.00700982
0.0062863
0.00568088
0.0051711
0.00473891
0.00437345
0.00408701
0.31754
0.217754
0.151085
0.108549
0.0807154
0.0618724
0.0486771
0.0391415
0.0320582
0.0266709
0.0224893
0.0191861
0.0165373
0.0143844
0.012614
0.0111437
0.00991139
0.00886867
0.00798133
0.00722136
0.322005
0.239026
0.177588
0.133616
0.102323
0.0798668
0.0635104
0.0513819
0.0422214
0.035179
0.0296752
0.0253087
0.0217972
0.0189384
0.0165851
0.0146283
0.0129866
0.0115972
0.0104106
0.00937371
0.323293
0.245617
0.187499
0.144537
0.112864
0.0894039
0.0718633
0.0585864
0.0483995
0.0404743
0.0342247
0.0292334
0.0251993
0.0219029
0.0191822
0.0169157
0.0150112
0.0133977
0.0120176
0.0108164
0.323714
0.247819
0.191099
0.14881
0.117249
0.0935708
0.0756574
0.0619607
0.0513629
0.0430615
0.0364796
0.0311999
0.0269183
0.0234104
0.0205089
0.018088
0.0160511
0.0143234
0.0128436
0.0115546
0.323714
0.247819
0.191099
0.14881
0.117249
0.0935708
0.0756574
0.0619606
0.0513628
0.0430613
0.0364794
0.0311997
0.026918
0.0234099
0.0205084
0.0180871
0.0160499
0.0143216
0.0128409
0.0115477
0.323293
0.245617
0.187499
0.144537
0.112864
0.0894038
0.0718632
0.0585863
0.0483994
0.040474
0.0342244
0.0292329
0.0251987
0.0219022
0.0191811
0.0169141
0.015009
0.0133945
0.0120125
0.0108042
0.322005
0.239026
0.177588
0.133616
0.102323
0.0798668
0.0635104
0.0513819
0.0422214
0.035179
0.0296752
0.0253087
0.0217972
0.0189384
0.0165851
0.0146283
0.0129866
0.0115973
0.0104107
0.00937384
0.31754
0.217754
0.151085
0.108549
0.0807155
0.0618725
0.0486773
0.0391417
0.0320585
0.0266714
0.0224899
0.019187
0.0165385
0.0143861
0.0126164
0.0111474
0.00991689
0.00887684
0.00799368
0.00724141
0.283364
0.126774
0.071702
0.0473282
0.0338663
0.0256617
0.0204609
0.0167971
0.0140487
0.0119413
0.0102843
0.00895623
0.00788525
0.00701138
0.00628869
0.00568466
0.00517697
0.00474794
0.00438621
0.00409675
0.264759
0.104702
0.0585298
0.039163
0.0286199
0.0219934
0.017536
0.0143632
0.0120082
0.0102137
0.00881622
0.00770551
0.00680369
0.00606054
0.00544867
0.00494633
0.00452716
0.00417319
0.0038795
0.00365704
0.311746
0.197541
0.130357
0.0911456
0.0668022
0.050811
0.0397943
0.031912
0.0260942
0.0216872
0.0182764
0.0155883
0.0134407
0.0116979
0.0102665
0.00907813
0.00808183
0.00723687
0.00653187
0.0059052
0.31754
0.217754
0.151085
0.108549
0.0807155
0.0618725
0.0486773
0.0391417
0.0320586
0.0266714
0.0224899
0.019187
0.0165386
0.0143861
0.0126164
0.0111473
0.00991684
0.00887681
0.00799357
0.00724138
0.319723
0.227073
0.162232
0.118772
0.0893611
0.0689928
0.0545307
0.0439846
0.0361
0.0300751
0.0253827
0.021666
0.0186789
0.0162469
0.0142443
0.0125787
0.0111808
0.00999778
0.0089887
0.00812832
0.320484
0.23086
0.167176
0.123531
0.093516
0.0724827
0.0574409
0.0464216
0.0381543
0.0318179
0.0268719
0.0229481
0.01979
0.0172159
0.015094
0.0133274
0.0118431
0.0105857
0.0095123
0.00859461
0.320484
0.23086
0.167176
0.123531
0.0935159
0.0724826
0.0574408
0.0464214
0.0381541
0.0318176
0.0268715
0.0229475
0.0197893
0.017215
0.0150927
0.0133254
0.0118403
0.0105818
0.00950722
0.00858737
0.319723
0.227073
0.162232
0.118772
0.089361
0.0689927
0.0545305
0.0439843
0.0360996
0.0300746
0.0253819
0.0216649
0.0186774
0.0162449
0.0142414
0.0125743
0.0111745
0.00998884
0.00897649
0.00811039
0.31754
0.217754
0.151085
0.108549
0.0807154
0.0618724
0.0486771
0.0391415
0.0320582
0.0266709
0.0224893
0.0191862
0.0165373
0.0143845
0.0126139
0.0111436
0.00991143
0.00886876
0.00798152
0.00722147
0.311746
0.197541
0.130357
0.0911456
0.0668022
0.050811
0.0397943
0.031912
0.0260941
0.0216872
0.0182764
0.0155883
0.0134407
0.0116978
0.0102665
0.00907818
0.00808191
0.00723696
0.00653205
0.00590529
0.264759
0.104702
0.0585298
0.039163
0.0286199
0.0219934
0.017536
0.0143633
0.0120082
0.0102138
0.00881637
0.00770577
0.00680416
0.00606141
0.00545003
0.00494875
0.00453163
0.00418163
0.00389501
0.00366848
0.213564
0.055916
0.0283994
0.0193411
0.0146927
0.011851
0.00989062
0.00851597
0.00749118
0.00669612
0.00606024
0.00555041
0.00512214
0.00474388
0.00442362
0.00415401
0.00392503
0.00372933
0.00357601
0.00340076
0.264759
0.104702
0.0585298
0.039163
0.0286199
0.0219934
0.017536
0.0143633
0.0120082
0.0102138
0.00881638
0.00770578
0.00680415
0.00606147
0.00545
0.00494871
0.00453158
0.00418159
0.00389494
0.00366839
0.283364
0.126774
0.071702
0.0473282
0.0338663
0.0256617
0.0204609
0.0167971
0.0140487
0.0119413
0.0102843
0.00895624
0.00788528
0.00701141
0.00628864
0.00568463
0.00517696
0.00474795
0.0043862
0.00409673
0.292299
0.141633
0.0819302
0.0541654
0.0389231
0.0292875
0.0232724
0.0190787
0.0159343
0.0135152
0.0116271
0.0101132
0.00888249
0.0078719
0.00703416
0.00633376
0.00574333
0.00524199
0.00481447
0.00445711
0.295943
0.148782
0.0871941
0.057675
0.0415194
0.0310723
0.0246452
0.0202212
0.0169052
0.0143252
0.0123089
0.0107029
0.00939694
0.00832356
0.00743264
0.00668645
0.00605629
0.00552028
0.00506364
0.00469456
0.295943
0.148782
0.0871941
0.0576749
0.0415194
0.0310723
0.0246451
0.0202211
0.0169051
0.0143251
0.0123086
0.0107025
0.00939644
0.0083229
0.00743172
0.00668503
0.00605422
0.00551748
0.00506112
0.00470482
0.292299
0.141633
0.0819301
0.0541653
0.038923
0.0292874
0.0232722
0.0190785
0.015934
0.0135148
0.0116266
0.0101124
0.00888139
0.0078704
0.00703193
0.00633034
0.00573827
0.00523479
0.00480691
0.00448225
0.283364
0.126774
0.0717019
0.0473281
0.0338662
0.0256616
0.0204608
0.0167969
0.0140485
0.0119409
0.0102838
0.00895547
0.00788418
0.00700984
0.00628623
0.00568084
0.00517108
0.00473891
0.00437347
0.00408705
0.264759
0.104702
0.0585298
0.039163
0.0286199
0.0219934
0.017536
0.0143632
0.0120082
0.0102137
0.00881621
0.00770551
0.00680366
0.00606055
0.00544864
0.00494633
0.00452718
0.00417321
0.00387954
0.0036571
0.213564
0.055916
0.0283994
0.0193411
0.0146927
0.011851
0.00989062
0.00851596
0.00749118
0.00669611
0.00606025
0.0055504
0.00512214
0.00474386
0.00442362
0.00415402
0.00392505
0.00372936
0.00357604
0.0034009
0.00375493
0.00346415
0.00321693
0.0030465
0.00292359
0.00283049
0.00274625
0.002669
0.00259843
0.00253373
0.00247883
0.00242933
0.00238206
0.00233621
0.00229363
0.00225213
0.00221371
0.00217619
0.00214113
0.0021079
0.00207518
0.0020443
0.00201466
0.00198697
0.00196039
0.00193439
0.00190908
0.00188384
0.00185907
0.00183447
0.00181125
0.00178806
0.00176497
0.00174163
0.00171765
0.00169774
0.00167766
0.00165713
0.0016394
0.00160974
0.00373448
0.00339116
0.00314234
0.00294752
0.00279397
0.00267063
0.00256334
0.00246915
0.00238411
0.0023055
0.00223912
0.00218005
0.00212538
0.00207548
0.00202822
0.00198276
0.00194134
0.00190235
0.00186616
0.00183224
0.00179944
0.00176856
0.00173952
0.00171253
0.00168741
0.00166338
0.00164001
0.00161714
0.00159484
0.00157258
0.00155107
0.00153002
0.00150958
0.00148949
0.00146921
0.00145001
0.00143179
0.00141383
0.00139676
0.00137711
0.00401424
0.00365241
0.0033876
0.00316489
0.00298558
0.00283105
0.00269762
0.00258172
0.00248084
0.00239184
0.00231134
0.00224006
0.00217558
0.00211857
0.0020615
0.00200965
0.00196252
0.00191946
0.00187817
0.00183918
0.00180238
0.00176527
0.00173025
0.00169852
0.00166965
0.00164264
0.0016163
0.00159065
0.00156596
0.00154181
0.00151847
0.00149553
0.00147356
0.00145218
0.00143117
0.00141159
0.00139214
0.00137301
0.00135478
0.00133579
0.00422926
0.00387688
0.00359875
0.00336666
0.00316639
0.00299256
0.00283973
0.00270514
0.00258593
0.00247973
0.00238464
0.00229941
0.00222155
0.00215149
0.00208735
0.00202858
0.0019738
0.00192504
0.00187413
0.00182675
0.00178431
0.00174431
0.00170612
0.00166999
0.00163634
0.00160493
0.00157533
0.0015471
0.00152051
0.00149465
0.00146953
0.00144453
0.00142129
0.00139864
0.00137736
0.00135614
0.00133609
0.00131658
0.00129794
0.00127921
0.00431008
0.00398405
0.00370537
0.00346419
0.00325419
0.00307116
0.00291054
0.00276864
0.00264191
0.00252809
0.00242536
0.00233223
0.00224761
0.00217025
0.00209994
0.00203528
0.00197539
0.00191971
0.0018683
0.00181987
0.00177756
0.00173274
0.00169075
0.0016521
0.00161671
0.00158338
0.0015524
0.00152298
0.00149557
0.0014691
0.00144369
0.00141822
0.00139496
0.00137137
0.00134943
0.00132704
0.00130655
0.00128706
0.00126839
0.00125057
0.00424164
0.00394205
0.00367778
0.00344541
0.00324091
0.00306097
0.00290218
0.00276114
0.00263411
0.00251891
0.00241418
0.00231882
0.00223227
0.00215204
0.0020785
0.00201106
0.00194938
0.00189301
0.00184096
0.00179279
0.00174841
0.00170702
0.00166961
0.0016332
0.00159575
0.00156036
0.00152825
0.00149874
0.001472
0.00144591
0.00142163
0.0013977
0.00137453
0.00134814
0.00132736
0.00130421
0.00128406
0.00126506
0.00124635
0.00122838
0.00409906
0.00380644
0.00355331
0.00333374
0.00314166
0.00297296
0.00282355
0.00268959
0.00256781
0.00245693
0.00235592
0.00226377
0.00217971
0.0021024
0.00203169
0.00196689
0.00190748
0.00185304
0.00180343
0.00175783
0.00171595
0.00167689
0.00163998
0.00160564
0.00156933
0.00153613
0.00150611
0.00147807
0.00145219
0.00142624
0.0014019
0.00137763
0.00135446
0.00132984
0.00130922
0.00128801
0.00126734
0.00124761
0.00122799
0.00120888
0.0039719
0.00363561
0.00338229
0.00317536
0.00299929
0.00284591
0.00270824
0.00258337
0.00246989
0.00236667
0.00227268
0.00218678
0.00210854
0.00203778
0.00197312
0.00191387
0.00186
0.00181057
0.00176512
0.0017232
0.00168519
0.0016482
0.00161211
0.00157827
0.00154781
0.00151842
0.00149099
0.00146456
0.00143838
0.00141203
0.00138732
0.00136424
0.00134295
0.00132155
0.00130036
0.00127895
0.0012567
0.00123602
0.0012157
0.0011957
0.00375209
0.00338817
0.00316054
0.00298144
0.00282771
0.00269107
0.00256829
0.00245772
0.00235771
0.00226713
0.00218618
0.00211197
0.00204687
0.00198671
0.00193265
0.00187948
0.0018277
0.00178311
0.00174169
0.00170377
0.00166777
0.00163424
0.0016023
0.00157141
0.00154322
0.00151569
0.00148998
0.00146525
0.00144199
0.00141913
0.00139728
0.00137581
0.00135509
0.00133462
0.0013143
0.00129281
0.00127094
0.00125089
0.00123183
0.00121251
0.00345198
0.00318249
0.00297109
0.00281501
0.0026865
0.00257792
0.00247709
0.00238538
0.0023028
0.00222719
0.00215948
0.00210121
0.0020506
0.00199494
0.00194494
0.00189832
0.00185463
0.00181418
0.00177638
0.00174133
0.00170809
0.00167727
0.00164905
0.00162271
0.00159802
0.00157402
0.00155099
0.0015286
0.00150708
0.00148549
0.00146475
0.00144448
0.00142473
0.00140509
0.00138564
0.00136449
0.00134581
0.00132732
0.00131036
0.00129044
0.0037548
0.00346354
0.00321583
0.00304551
0.00292352
0.00282923
0.00274571
0.00266917
0.00259944
0.00253533
0.00247991
0.00243021
0.00238377
0.00233749
0.00229401
0.00225277
0.00221394
0.00217672
0.00214163
0.00210819
0.00207566
0.00204439
0.00201503
0.00198714
0.00196083
0.00193468
0.00190942
0.00188415
0.00185933
0.00183476
0.0018116
0.00178847
0.00176552
0.00174255
0.00171995
0.00169781
0.00167734
0.00165635
0.00163803
0.00160682
0.00345121
0.00318265
0.00297296
0.00281839
0.00269273
0.00258226
0.00247844
0.00238561
0.00230181
0.00222526
0.00215785
0.00209999
0.00204836
0.00199284
0.00194436
0.00189728
0.00185445
0.00181358
0.00177597
0.00174098
0.00170765
0.00167703
0.00164878
0.0016226
0.00159784
0.00157392
0.00155092
0.00152857
0.00150708
0.00148546
0.00146474
0.00144446
0.00142464
0.00140458
0.00138358
0.00136378
0.00134602
0.00132836
0.00131189
0.00129276
0.00469073
0.00423799
0.00386252
0.00357458
0.0033296
0.00309209
0.00287533
0.00267901
0.00249844
0.00232876
0.00219258
0.00206521
0.00195115
0.00183945
0.00174716
0.00165404
0.00157666
0.00150119
0.00143544
0.00137534
0.00131251
0.00125791
0.00121067
0.00117305
0.00113551
0.00109866
0.00106435
0.00103112
0.00100136
0.000972488
0.000943338
0.000914846
0.000888904
0.000863823
0.000834033
0.000810119
0.000788252
0.00076722
0.000747431
0.000732075
0.0058869
0.00533401
0.0048694
0.00449368
0.00415071
0.00384759
0.00357612
0.00333312
0.00311608
0.00292049
0.00274541
0.00258224
0.00244398
0.00231109
0.00219679
0.00208505
0.00198893
0.00189612
0.00181399
0.0017363
0.0016607
0.00159485
0.00152869
0.00147169
0.00141482
0.0013626
0.001315
0.00126713
0.00122696
0.00118616
0.0011458
0.00110445
0.00106951
0.00103407
0.00100145
0.000963452
0.000928607
0.000893892
0.0008641
0.000825453
0.00676036
0.00612724
0.00558435
0.00511476
0.00470974
0.00435678
0.00404226
0.00376194
0.00351174
0.00328755
0.00308609
0.00290359
0.00274026
0.00259109
0.0024552
0.00233094
0.00221688
0.00211293
0.00201564
0.00192833
0.00184466
0.0017704
0.00169722
0.0016326
0.0015694
0.00151387
0.0014594
0.00141025
0.00136367
0.00131817
0.00127376
0.00122856
0.00118905
0.0011488
0.00111247
0.0010717
0.00103256
0.000993041
0.000958051
0.00091283
0.00729081
0.00660794
0.00601587
0.00550109
0.00505219
0.00466182
0.00432
0.00401863
0.00374891
0.00350681
0.00328889
0.00309184
0.00291475
0.00275321
0.00260602
0.00247162
0.00234859
0.00223581
0.00213214
0.00203645
0.00194928
0.00186103
0.00177937
0.00171041
0.00164929
0.00159072
0.00153688
0.00148321
0.00143181
0.00138236
0.0013363
0.00129036
0.00124808
0.00120505
0.00116531
0.00112167
0.00107903
0.0010368
0.00099763
0.000947832
0.00748278
0.00678234
0.0061745
0.00564643
0.00518578
0.00478384
0.00443241
0.00412387
0.00384832
0.00359995
0.00337581
0.00317338
0.00299006
0.00282372
0.00267211
0.00253364
0.00240689
0.00229066
0.00218385
0.00208537
0.00199472
0.00191012
0.00183218
0.00175114
0.00167555
0.0016103
0.00155569
0.00150444
0.00145587
0.00140842
0.00136275
0.00131922
0.0012728
0.00122526
0.00118216
0.00113535
0.00108896
0.00104636
0.00100312
0.000950526
0.00730216
0.0066244
0.00603868
0.00553153
0.00508956
0.00470408
0.00436696
0.00406882
0.00379996
0.00355709
0.00333761
0.00313969
0.00295755
0.00279412
0.002645
0.0025087
0.00238371
0.00226892
0.00216325
0.00206572
0.00197567
0.00189156
0.00181474
0.00173752
0.0016659
0.00160416
0.00154471
0.00148618
0.00143436
0.00138199
0.00133183
0.0012815
0.00123532
0.00118851
0.00114563
0.00109723
0.00105004
0.00100535
0.000958969
0.000902434
0.00678533
0.00615378
0.00561681
0.00515759
0.00476048
0.00441575
0.00410822
0.0038304
0.00357892
0.00335117
0.00314514
0.00295848
0.00278548
0.00263102
0.00248955
0.00236016
0.00224068
0.00213143
0.00203029
0.0019372
0.00185079
0.00176954
0.00169574
0.00162076
0.00155642
0.0014919
0.00143517
0.00137721
0.0013273
0.00127577
0.00122525
0.00117362
0.00112873
0.00108298
0.00104077
0.000997524
0.000945063
0.000897223
0.00085132
0.000798356
0.00595
0.00539458
0.00492821
0.00454294
0.00420627
0.00390407
0.00363004
0.00338121
0.00315407
0.0029468
0.00276164
0.00258849
0.00243575
0.00229512
0.00216551
0.00204937
0.00193701
0.00184208
0.00174785
0.00166718
0.00158667
0.0015155
0.00144736
0.00138507
0.00133024
0.00127418
0.00122652
0.00117705
0.0011358
0.00109342
0.00105184
0.00100894
0.000973345
0.000936682
0.000902868
0.000862747
0.000814454
0.000776598
0.000742739
0.00071462
0.00468995
0.00423474
0.00385819
0.00356458
0.00330823
0.00307847
0.00286669
0.00267461
0.00249773
0.0023315
0.00219361
0.00206891
0.00195559
0.00184363
0.00174711
0.00165619
0.00157605
0.00150207
0.00143612
0.00137573
0.00131436
0.00125827
0.00121185
0.00117303
0.00113643
0.00109877
0.00106449
0.00103114
0.00100136
0.000972779
0.000943751
0.000915403
0.000889681
0.00086493
0.000841079
0.000816791
0.000785986
0.000762408
0.000742804
0.000728357
0.00373434
0.00339013
0.00314086
0.00294821
0.00279502
0.00266964
0.00256257