/*--------------------------------*- C++ -*----------------------------------*\
| =========                 |                                                 |
| \\      /  F ield         | OpenFOAM: The Open Source CFD Toolbox           |
|  \\    /   O peration     | Version:  2212                                  |
|   \\  /    A nd           | Website:  www.openfoam.com                      |
|    \\/     M anipulation  |                                                 |
\*---------------------------------------------------------------------------*/
FoamFile
{
    version     2.0;
    format      ascii;
    arch        "LSB;label=32;scalar=64";
    class       volScalarField;
    location    "1.75";
    object      nut;
}
// * * * * * * * * * * * * * * * * * * * * * * * * * * * * * * * * * * * * * //

dimensions      [0 2 -1 0 0 0 0];

internalField   nonuniform List<scalar> 
6840
(
4.5356e-05
2.3208e-05
1.65396e-05
1.36493e-05
1.18966e-05
1.06844e-05
9.76072e-06
9.05705e-06
8.49464e-06
8.03122e-06
7.64038e-06
7.31194e-06
7.02419e-06
6.75993e-06
6.5279e-06
6.32612e-06
6.14987e-06
5.99594e-06
5.87988e-06
5.73226e-06
0.000107685
6.77183e-05
5.0631e-05
4.14158e-05
3.54048e-05
3.10366e-05
2.77136e-05
2.50815e-05
2.29333e-05
2.11504e-05
1.96502e-05
1.83706e-05
1.72621e-05
1.62917e-05
1.54471e-05
1.47171e-05
1.40785e-05
1.35151e-05
1.30279e-05
1.26532e-05
0.000160509
0.00010736
8.07408e-05
6.55975e-05
5.54895e-05
4.83024e-05
4.31308e-05
3.90789e-05
3.57389e-05
3.29491e-05
3.05773e-05
2.8534e-05
2.67726e-05
2.5244e-05
2.39051e-05
2.27236e-05
2.16783e-05
2.075e-05
1.99322e-05
1.92722e-05
0.000198681
0.0001383
0.000105187
8.55268e-05
7.25011e-05
6.289e-05
5.60609e-05
5.0759e-05
4.63876e-05
4.27212e-05
3.96243e-05
3.6954e-05
3.46313e-05
3.26001e-05
3.08142e-05
2.92352e-05
2.78325e-05
2.65808e-05
2.54697e-05
2.46171e-05
0.000218609
0.000155003
0.000118661
9.65069e-05
8.18823e-05
7.08355e-05
6.30855e-05
5.71434e-05
5.22483e-05
4.80962e-05
4.45827e-05
4.15722e-05
3.89528e-05
3.66599e-05
3.46412e-05
3.2854e-05
3.12644e-05
2.98448e-05
2.8583e-05
2.75737e-05
0.000218609
0.000155003
0.000118661
9.65069e-05
8.18823e-05
7.08356e-05
6.30857e-05
5.71436e-05
5.22487e-05
4.80968e-05
4.45835e-05
4.15735e-05
3.89547e-05
3.66626e-05
3.46452e-05
3.28604e-05
3.1274e-05
2.98584e-05
2.85972e-05
2.75354e-05
0.000198681
0.0001383
0.000105187
8.55269e-05
7.25013e-05
6.28902e-05
5.60612e-05
5.07595e-05
4.63883e-05
4.27223e-05
3.96261e-05
3.69566e-05
3.46352e-05
3.26059e-05
3.08232e-05
2.92496e-05
2.78548e-05
2.6614e-05
2.5508e-05
2.45302e-05
0.000160509
0.00010736
8.07408e-05
6.55975e-05
5.54896e-05
4.83026e-05
4.3131e-05
3.90792e-05
3.57394e-05
3.29501e-05
3.05787e-05
2.85362e-05
2.6776e-05
2.52492e-05
2.39135e-05
2.27375e-05
2.17011e-05
2.07874e-05
1.99942e-05
1.93715e-05
0.000107685
6.77183e-05
5.06311e-05
4.14159e-05
3.54048e-05
3.10366e-05
2.77137e-05
2.50816e-05
2.29334e-05
2.11506e-05
1.96505e-05
1.83712e-05
1.72632e-05
1.6294e-05
1.54508e-05
1.4724e-05
1.40918e-05
1.35415e-05
1.30814e-05
1.27146e-05
4.5356e-05
2.3208e-05
1.65396e-05
1.36493e-05
1.18966e-05
1.06844e-05
9.76072e-06
9.05705e-06
8.49464e-06
8.03121e-06
7.64038e-06
7.31195e-06
7.02419e-06
6.75992e-06
6.52791e-06
6.32614e-06
6.14989e-06
5.99598e-06
5.87989e-06
5.73262e-06
0.000107685
6.77183e-05
5.06311e-05
4.14159e-05
3.54048e-05
3.10366e-05
2.77137e-05
2.50816e-05
2.29334e-05
2.11506e-05
1.96505e-05
1.83712e-05
1.72632e-05
1.62941e-05
1.54508e-05
1.4724e-05
1.40918e-05
1.35416e-05
1.30814e-05
1.27143e-05
0.000528907
0.000369984
0.000305097
0.000261371
0.000228528
0.000202475
0.000181113
0.000163073
0.000147538
0.000133983
0.000122048
0.000111464
0.000102133
9.38608e-05
8.6455e-05
7.96555e-05
7.34505e-05
6.77708e-05
6.36722e-05
5.71344e-05
0.000663952
0.000488458
0.000404619
0.000347248
0.000305035
0.000272127
0.000245317
0.000222887
0.000203753
0.000187176
0.000172649
0.000159807
0.000148362
0.000138099
0.000128843
0.000120588
0.000113124
0.000106258
0.000100323
9.43317e-05
0.00071288
0.000556432
0.000466396
0.000402354
0.000354425
0.00031705
0.000286674
0.000261254
0.000239579
0.000220842
0.000204439
0.000189943
0.000177035
0.000165458
0.000155002
0.000145525
0.000136888
0.00012897
0.000121693
0.000115204
0.000728543
0.000588231
0.000496002
0.000429131
0.000378509
0.000338934
0.000306818
0.000279973
0.000257072
0.000237256
0.000219909
0.000204577
0.000190917
0.000178665
0.000167612
0.000157579
0.000148438
0.000140069
0.000132365
0.000125323
0.000728543
0.000588231
0.000496002
0.000429132
0.00037851
0.000338935
0.00030682
0.000279976
0.000257076
0.000237261
0.000219918
0.00020459
0.000190937
0.000178696
0.000167662
0.00015765
0.00014854
0.000140212
0.00013256
0.000125616
0.00071288
0.000556432
0.000466397
0.000402355
0.000354426
0.000317051
0.000286677
0.000261259
0.000239587
0.000220854
0.000204457
0.000189971
0.000177078
0.000165528
0.000155105
0.000145673
0.000137103
0.000129283
0.000122141
0.000116094
0.000663952
0.000488458
0.000404619
0.000347248
0.000305036
0.000272128
0.000245319
0.000222891
0.000203759
0.000187184
0.000172662
0.000159827
0.000148392
0.000138147
0.000128922
0.000120701
0.00011329
0.000106502
0.000100724
9.4845e-05
0.000528907
0.000369984
0.000305097
0.000261371
0.000228528
0.000202475
0.000181113
0.000163073
0.000147538
0.000133983
0.000122047
0.000111464
0.000102133
9.38574e-05
8.64574e-05
7.96563e-05
7.34503e-05
6.77701e-05
6.36713e-05
5.71317e-05
0.000107685
6.77183e-05
5.0631e-05
4.14158e-05
3.54048e-05
3.10366e-05
2.77136e-05
2.50815e-05
2.29333e-05
2.11504e-05
1.96502e-05
1.83706e-05
1.7262e-05
1.62918e-05
1.54471e-05
1.47171e-05
1.40785e-05
1.35152e-05
1.30282e-05
1.26539e-05
0.000160509
0.00010736
8.07408e-05
6.55975e-05
5.54896e-05
4.83026e-05
4.3131e-05
3.90792e-05
3.57394e-05
3.29501e-05
3.05787e-05
2.85362e-05
2.67761e-05
2.52493e-05
2.39134e-05
2.27375e-05
2.17011e-05
2.07874e-05
1.99943e-05
1.93716e-05
0.000663952
0.000488458
0.000404619
0.000347248
0.000305036
0.000272128
0.000245319
0.000222891
0.000203759
0.000187185
0.000172663
0.000159827
0.000148393
0.000138147
0.000128922
0.000120702
0.000113293
0.000106509
0.000100723
9.48517e-05
0.000786827
0.000662293
0.000567974
0.000495805
0.000439463
0.000394562
0.000357974
0.00032745
0.000301488
0.000279048
0.000259395
0.000241998
0.000226465
0.000212497
0.000199861
0.000188394
0.000177932
0.000168326
0.000159482
0.000150468
0.000809324
0.000713906
0.000631504
0.000562574
0.000505377
0.000457785
0.00041784
0.000383938
0.000354802
0.000329446
0.000307151
0.000287371
0.000269689
0.000253777
0.000239373
0.000226278
0.000214307
0.00020329
0.000192999
0.000182717
0.000814958
0.000730426
0.000654634
0.000589044
0.000533067
0.000485439
0.000444764
0.000409794
0.000379471
0.000352933
0.000329494
0.000308632
0.000289945
0.000273109
0.000257863
0.000243989
0.000231303
0.000219622
0.000208693
0.000197934
0.000814958
0.000730426
0.000654634
0.000589044
0.000533068
0.000485439
0.000444765
0.000409796
0.000379474
0.000352937
0.0003295
0.000308642
0.000289959
0.00027313
0.000257897
0.000244036
0.000231369
0.000219714
0.000208824
0.000198146
0.000809324
0.000713906
0.000631505
0.000562574
0.000505377
0.000457786
0.000417842
0.000383941
0.000354806
0.000329453
0.000307162
0.000287387
0.000269712
0.000253814
0.000239431
0.000226358
0.000214421
0.000203451
0.000193233
0.000183122
0.000786827
0.000662293
0.000567974
0.000495805
0.000439463
0.000394562
0.000357974
0.00032745
0.000301488
0.000279048
0.000259394
0.000241997
0.000226462
0.000212494
0.000199863
0.000188394
0.00017793
0.000168322
0.000159476
0.000150458
0.000663952
0.000488458
0.000404619
0.000347248
0.000305035
0.000272127
0.000245317
0.000222887
0.000203753
0.000187176
0.000172649
0.000159807
0.000148361
0.000138095
0.000128846
0.00012059
0.000113125
0.00010626
0.000100328
9.43388e-05
0.000160509
0.00010736
8.07408e-05
6.55975e-05
5.54895e-05
4.83024e-05
4.31308e-05
3.90789e-05
3.57389e-05
3.29491e-05
3.05773e-05
2.8534e-05
2.67727e-05
2.52441e-05
2.39049e-05
2.27234e-05
2.16782e-05
2.075e-05
1.99324e-05
1.92727e-05
0.000198681
0.0001383
0.000105187
8.55269e-05
7.25013e-05
6.28902e-05
5.60612e-05
5.07595e-05
4.63883e-05
4.27223e-05
3.96261e-05
3.69566e-05
3.46352e-05
3.2606e-05
3.0823e-05
2.92495e-05
2.78548e-05
2.66141e-05
2.55083e-05
2.45313e-05
0.00071288
0.000556432
0.000466397
0.000402355
0.000354426
0.000317051
0.000286677
0.000261259
0.000239587
0.000220854
0.000204457
0.000189971
0.000177078
0.000165523
0.000155109
0.000145676
0.000137107
0.000129289
0.000122149
0.000116092
0.000809324
0.000713906
0.000631505
0.000562574
0.000505377
0.000457786
0.000417842
0.000383941
0.000354806
0.000329453
0.000307162
0.000287388
0.000269714
0.000253814
0.000239432
0.00022636
0.000214425
0.000203456
0.000193243
0.000183126
0.000823497
0.000753987
0.000688491
0.000628748
0.000575387
0.000528266
0.000486845
0.000450441
0.000418362
0.000389972
0.000364725
0.000342158
0.000321888
0.000303593
0.000287009
0.000271914
0.000258101
0.000245351
0.000233316
0.000221156
0.000826292
0.000764347
0.000706102
0.000651937
0.00060223
0.000557104
0.000516428
0.000479912
0.00044718
0.000417832
0.000391475
0.000367748
0.000346329
0.000326933
0.000309312
0.000293248
0.000278527
0.000264901
0.000251938
0.000238571
0.000826292
0.000764347
0.000706102
0.000651937
0.000602231
0.000557104
0.000516428
0.000479912
0.000447181
0.000417833
0.000391477
0.000367751
0.000346333
0.000326938
0.000309321
0.00029326
0.000278543
0.000264922
0.000251965
0.000238601
0.000823497
0.000753987
0.000688491
0.000628748
0.000575387
0.000528266
0.000486845
0.000450441
0.000418362
0.000389972
0.000364725
0.000342158
0.000321886
0.000303591
0.00028701
0.000271914
0.000258099
0.000245348
0.000233311
0.000221157
0.000809324
0.000713905
0.000631504
0.000562574
0.000505377
0.000457785
0.00041784
0.000383938
0.000354802
0.000329446
0.000307151
0.000287371
0.000269688
0.000253774
0.000239375
0.000226278
0.000214307
0.000203289
0.000192999
0.000182727
0.00071288
0.000556432
0.000466396
0.000402354
0.000354425
0.000317049
0.000286674
0.000261254
0.000239579
0.000220842
0.000204439
0.000189943
0.000177036
0.000165456
0.000155003
0.000145525
0.000136888
0.000128972
0.000121698
0.000115211
0.000198681
0.0001383
0.000105187
8.55268e-05
7.25011e-05
6.289e-05
5.60609e-05
5.0759e-05
4.63876e-05
4.27212e-05
3.96243e-05
3.6954e-05
3.46314e-05
3.26003e-05
3.08139e-05
2.9235e-05
2.78323e-05
2.65806e-05
2.54696e-05
2.46164e-05
0.000218609
0.000155003
0.000118661
9.65069e-05
8.18823e-05
7.08356e-05
6.30857e-05
5.71436e-05
5.22487e-05
4.80968e-05
4.45835e-05
4.15735e-05
3.89547e-05
3.66626e-05
3.46452e-05
3.28604e-05
3.12741e-05
2.98586e-05
2.85974e-05
2.75361e-05
0.000728543
0.000588231
0.000496002
0.000429132
0.00037851
0.000338935
0.00030682
0.000279976
0.000257076
0.000237261
0.000219918
0.00020459
0.000190937
0.000178695
0.000167663
0.000157651
0.000148541
0.000140215
0.000132564
0.000125621
0.000814958
0.000730426
0.000654634
0.000589044
0.000533068
0.000485439
0.000444765
0.000409796
0.000379474
0.000352937
0.0003295
0.000308642
0.00028996
0.000273131
0.000257898
0.000244037
0.00023137
0.000219717
0.000208828
0.000198151
0.000826292
0.000764347
0.000706102
0.000651937
0.000602231
0.000557104
0.000516428
0.000479912
0.000447181
0.000417833
0.000391477
0.000367751
0.000346334
0.000326939
0.000309322
0.00029326
0.000278544
0.000264924
0.000251968
0.000238605
0.000828382
0.0007726
0.000721138
0.00067296
0.000627782
0.00058562
0.000546547
0.000510578
0.000477647
0.000447613
0.000420285
0.000395442
0.000372857
0.000352304
0.000333568
0.000316449
0.000300724
0.000286107
0.000272025
0.000257018
0.000828382
0.0007726
0.000721138
0.00067296
0.000627782
0.00058562
0.000546547
0.000510578
0.000477647
0.000447613
0.000420285
0.000395442
0.000372857
0.000352303
0.000333568
0.000316448
0.000300724
0.000286107
0.000272025
0.00025702
0.000826292
0.000764347
0.000706102
0.000651937
0.00060223
0.000557104
0.000516428
0.000479912
0.00044718
0.000417832
0.000391475
0.000367748
0.000346329
0.000326932
0.000309314
0.000293249
0.000278527
0.000264902
0.000251938
0.000238576
0.000814958
0.000730426
0.000654634
0.000589044
0.000533067
0.000485438
0.000444764
0.000409794
0.000379471
0.000352933
0.000329494
0.000308633
0.000289946
0.00027311
0.000257862
0.000243988
0.000231303
0.000219624
0.000208696
0.000197942
0.000728543
0.000588231
0.000496002
0.000429131
0.000378509
0.000338934
0.000306818
0.000279973
0.000257072
0.000237256
0.000219909
0.000204578
0.000190919
0.000178668
0.000167608
0.000157576
0.000148437
0.000140068
0.000132365
0.000125322
0.000218609
0.000155003
0.000118661
9.65069e-05
8.18823e-05
7.08355e-05
6.30855e-05
5.71434e-05
5.22483e-05
4.80962e-05
4.45826e-05
4.15722e-05
3.89529e-05
3.666e-05
3.4641e-05
3.28538e-05
3.12641e-05
2.98445e-05
2.85827e-05
2.7573e-05
0.000218609
0.000155003
0.000118661
9.65069e-05
8.18823e-05
7.08355e-05
6.30855e-05
5.71434e-05
5.22483e-05
4.80962e-05
4.45827e-05
4.15722e-05
3.89528e-05
3.66599e-05
3.46412e-05
3.2854e-05
3.12644e-05
2.98448e-05
2.8583e-05
2.75739e-05
0.000728543
0.000588231
0.000496002
0.000429131
0.000378509
0.000338934
0.000306818
0.000279973
0.000257072
0.000237255
0.000219909
0.000204577
0.000190916
0.000178664
0.000167612
0.000157579
0.000148436
0.000140066
0.00013236
0.000125316
0.000814958
0.000730426
0.000654634
0.000589044
0.000533067
0.000485438
0.000444764
0.000409794
0.000379471
0.000352933
0.000329493
0.000308632
0.000289944
0.000273108
0.000257863
0.000243988
0.000231301
0.000219619
0.000208687
0.000197927
0.000826292
0.000764347
0.000706102
0.000651937
0.00060223
0.000557104
0.000516428
0.000479912
0.00044718
0.000417832
0.000391475
0.000367748
0.000346329
0.000326933
0.000309312
0.000293247
0.000278526
0.0002649
0.000251936
0.000238568
0.000828382
0.0007726
0.000721138
0.00067296
0.000627782
0.00058562
0.000546547
0.000510578
0.000477647
0.000447613
0.000420285
0.000395442
0.000372857
0.000352304
0.000333568
0.000316448
0.000300724
0.000286106
0.000272025
0.000257017
0.000828382
0.0007726
0.000721138
0.00067296
0.000627782
0.00058562
0.000546547
0.000510578
0.000477647
0.000447613
0.000420285
0.000395442
0.000372857
0.000352304
0.000333568
0.000316448
0.000300724
0.000286107
0.000272026
0.000257022
0.000826292
0.000764347
0.000706102
0.000651937
0.000602231
0.000557104
0.000516428
0.000479912
0.000447181
0.000417833
0.000391477
0.000367751
0.000346333
0.000326939
0.000309322
0.000293261
0.000278544
0.000264925
0.000251968
0.000238609
0.000814958
0.000730426
0.000654634
0.000589044
0.000533068
0.000485439
0.000444765
0.000409796
0.000379474
0.000352937
0.0003295
0.000308643
0.000289961
0.000273133
0.000257895
0.000244036
0.000231371
0.000219717
0.000208828
0.000198154
0.000728543
0.000588231
0.000496002
0.000429132
0.00037851
0.000338935
0.00030682
0.000279976
0.000257076
0.000237261
0.000219918
0.00020459
0.000190939
0.000178702
0.000167656
0.000157646
0.000148537
0.00014021
0.000132557
0.000125613
0.000218609
0.000155003
0.000118661
9.65069e-05
8.18823e-05
7.08356e-05
6.30857e-05
5.71436e-05
5.22486e-05
4.80967e-05
4.45835e-05
4.15734e-05
3.89547e-05
3.66626e-05
3.46452e-05
3.28603e-05
3.12739e-05
2.98583e-05
2.8597e-05
2.75355e-05
0.000198681
0.0001383
0.000105187
8.55268e-05
7.25011e-05
6.289e-05
5.60609e-05
5.0759e-05
4.63876e-05
4.27212e-05
3.96243e-05
3.6954e-05
3.46313e-05
3.26001e-05
3.08142e-05
2.92352e-05
2.78324e-05
2.65807e-05
2.54695e-05
2.46168e-05
0.00071288
0.000556432
0.000466396
0.000402354
0.000354425
0.000317049
0.000286674
0.000261254
0.000239579
0.000220842
0.000204438
0.000189942
0.000177035
0.000165457
0.000155002
0.000145523
0.000136884
0.000128965
0.000121686
0.000115194
0.000809324
0.000713906
0.000631504
0.000562574
0.000505377
0.000457785
0.00041784
0.000383938
0.000354802
0.000329446
0.000307151
0.000287371
0.000269688
0.000253776
0.000239372
0.000226276
0.000214304
0.000203284
0.000192989
0.0001827
0.000823497
0.000753987
0.000688491
0.000628748
0.000575387
0.000528266
0.000486845
0.000450441
0.000418362
0.000389972
0.000364725
0.000342158
0.000321887
0.000303593
0.000287008
0.000271912
0.000258098
0.000245348
0.00023331
0.000221146
0.000826292
0.000764347
0.000706102
0.000651937
0.000602231
0.000557104
0.000516428
0.000479912
0.000447181
0.000417833
0.000391477
0.000367751
0.000346334
0.00032694
0.000309321
0.00029326
0.000278543
0.000264924
0.000251967
0.000238606
0.000826292
0.000764347
0.000706102
0.000651937
0.00060223
0.000557103
0.000516428
0.000479912
0.00044718
0.000417832
0.000391475
0.000367748
0.000346329
0.000326933
0.000309312
0.000293248
0.000278527
0.000264902
0.000251937
0.000238574
0.000823497
0.000753987
0.000688491
0.000628748
0.000575387
0.000528266
0.000486845
0.000450441
0.000418362
0.000389972
0.000364725
0.000342158
0.000321887
0.000303591
0.00028701
0.000271914
0.0002581
0.000245349
0.00023331
0.000221152
0.000809324
0.000713906
0.000631505
0.000562574
0.000505377
0.000457786
0.000417842
0.000383941
0.000354806
0.000329453
0.000307162
0.000287388
0.000269713
0.000253814
0.000239431
0.000226359
0.000214423
0.000203453
0.000193234
0.000183118
0.00071288
0.000556432
0.000466397
0.000402355
0.000354426
0.000317051
0.000286677
0.000261259
0.000239587
0.000220854
0.000204457
0.00018997
0.000177078
0.000165528
0.000155104
0.000145671
0.000137102
0.000129281
0.000122139
0.000116077
0.000198681
0.0001383
0.000105187
8.55269e-05
7.25012e-05
6.28902e-05
5.60612e-05
5.07595e-05
4.63883e-05
4.27222e-05
3.9626e-05
3.69566e-05
3.46352e-05
3.26059e-05
3.08231e-05
2.92496e-05
2.78548e-05
2.6614e-05
2.5508e-05
2.45307e-05
0.000160509
0.00010736
8.07408e-05
6.55975e-05
5.54895e-05
4.83024e-05
4.31308e-05
3.90789e-05
3.57389e-05
3.29491e-05
3.05773e-05
2.8534e-05
2.67726e-05
2.5244e-05
2.3905e-05
2.27236e-05
2.16782e-05
2.07499e-05
1.9932e-05
1.92718e-05
0.000663952
0.000488458
0.000404619
0.000347248
0.000305035
0.000272127
0.000245317
0.000222887
0.000203753
0.000187176
0.000172649
0.000159807
0.000148361
0.000138098
0.000128842
0.000120586
0.00011312
0.000106251
0.000100326
9.4318e-05
0.000786827
0.000662293
0.000567974
0.000495805
0.000439463
0.000394562
0.000357974
0.00032745
0.000301488
0.000279048
0.000259394
0.000241997
0.000226464
0.000212496
0.000199859
0.000188392
0.000177928
0.00016832
0.000159475
0.000150446
0.000809324
0.000713906
0.000631505
0.000562574
0.000505377
0.000457786
0.000417842
0.000383941
0.000354806
0.000329453
0.000307162
0.000287388
0.000269714
0.000253814
0.000239431
0.000226359
0.000214423
0.000203454
0.000193237
0.000183115
0.000814958
0.000730426
0.000654634
0.000589044
0.000533068
0.000485439
0.000444765
0.000409796
0.000379474
0.000352937
0.0003295
0.000308643
0.00028996
0.000273132
0.000257898
0.000244037
0.000231372
0.000219719
0.000208829
0.000198155
0.000814958
0.000730426
0.000654634
0.000589044
0.000533067
0.000485439
0.000444764
0.000409794
0.000379471
0.000352933
0.000329493
0.000308632
0.000289945
0.000273109
0.000257863
0.000243989
0.000231304
0.000219623
0.000208692
0.000197935
0.000809324
0.000713906
0.000631504
0.000562574
0.000505377
0.000457785
0.00041784
0.000383938
0.000354802
0.000329446
0.000307151
0.000287371
0.000269688
0.000253774
0.000239375
0.000226278
0.000214306
0.000203287
0.000192993
0.000182711
0.000786827
0.000662293
0.000567974
0.000495805
0.000439463
0.000394561
0.000357974
0.00032745
0.000301488
0.000279048
0.000259394
0.000241997
0.000226463
0.000212494
0.000199863
0.000188394
0.00017793
0.000168322
0.000159478
0.000150459
0.000663952
0.000488458
0.000404619
0.000347248
0.000305036
0.000272128
0.000245319
0.000222891
0.000203759
0.000187184
0.000172662
0.000159827
0.000148392
0.000138147
0.000128921
0.0001207
0.000113289
0.000106502
0.000100725
9.48413e-05
0.000160509
0.00010736
8.07408e-05
6.55975e-05
5.54896e-05
4.83026e-05
4.3131e-05
3.90792e-05
3.57394e-05
3.29501e-05
3.05787e-05
2.85362e-05
2.6776e-05
2.52492e-05
2.39135e-05
2.27375e-05
2.17011e-05
2.07874e-05
1.99943e-05
1.93712e-05
0.000107685
6.77183e-05
5.0631e-05
4.14158e-05
3.54048e-05
3.10366e-05
2.77136e-05
2.50815e-05
2.29333e-05
2.11504e-05
1.96502e-05
1.83706e-05
1.7262e-05
1.62917e-05
1.54471e-05
1.47171e-05
1.40784e-05
1.35149e-05
1.30278e-05
1.26528e-05
0.000528907
0.000369984
0.000305097
0.000261371
0.000228528
0.000202475
0.000181113
0.000163073
0.000147538
0.000133983
0.000122048
0.000111464
0.000102134
9.38609e-05
8.64544e-05
7.96548e-05
7.34495e-05
6.77691e-05
6.36702e-05
5.71259e-05
0.000663952
0.000488458
0.000404619
0.000347248
0.000305036
0.000272128
0.000245319
0.000222891
0.000203759
0.000187185
0.000172663
0.000159827
0.000148393
0.000138147
0.000128922
0.000120702
0.000113292
0.000106508
0.000100721
9.48506e-05
0.00071288
0.000556432
0.000466397
0.000402355
0.000354426
0.000317051
0.000286677
0.000261259
0.000239587
0.000220854
0.000204457
0.000189971
0.000177078
0.000165523
0.000155109
0.000145676
0.000137107
0.000129288
0.000122146
0.000116083
0.000728543
0.000588231
0.000496002
0.000429132
0.00037851
0.000338935
0.00030682
0.000279976
0.000257076
0.000237261
0.000219918
0.00020459
0.000190937
0.000178695
0.000167664
0.000157652
0.000148541
0.000140214
0.000132562
0.000125622
0.000728543
0.000588231
0.000496002
0.000429131
0.000378509
0.000338935
0.000306818
0.000279973
0.000257072
0.000237255
0.000219909
0.000204577
0.000190917
0.000178664
0.000167613
0.000157579
0.000148437
0.000140067
0.000132362
0.00012532
0.00071288
0.000556432
0.000466396
0.000402354
0.000354425
0.000317049
0.000286673
0.000261254
0.000239579
0.000220842
0.000204439
0.000189943
0.000177035
0.000165456
0.000155003
0.000145524
0.000136886
0.000128967
0.000121691
0.0001152
0.000663952
0.000488458
0.000404619
0.000347248
0.000305035
0.000272127
0.000245317
0.000222887
0.000203753
0.000187176
0.000172649
0.000159807
0.000148361
0.000138094
0.000128846
0.000120588
0.000113123
0.000106254
0.000100332
9.43221e-05
0.000528907
0.000369984
0.000305097
0.000261371
0.000228528
0.000202475
0.000181113
0.000163073
0.000147538
0.000133983
0.000122048
0.000111464
0.000102133
9.38573e-05
8.64573e-05
7.96562e-05
7.34499e-05
6.77691e-05
6.36709e-05
5.71221e-05
0.000107685
6.77183e-05
5.06311e-05
4.14159e-05
3.54048e-05
3.10366e-05
2.77137e-05
2.50816e-05
2.29334e-05
2.11506e-05
1.96505e-05
1.83712e-05
1.72632e-05
1.6294e-05
1.54508e-05
1.4724e-05
1.40918e-05
1.35415e-05
1.30813e-05
1.27141e-05
4.5356e-05
2.3208e-05
1.65396e-05
1.36493e-05
1.18966e-05
1.06844e-05
9.76072e-06
9.05705e-06
8.49464e-06
8.03121e-06
7.64038e-06
7.31194e-06
7.02419e-06
6.75992e-06
6.52789e-06
6.3261e-06
6.14983e-06
5.99589e-06
5.87981e-06
5.73214e-06
0.000107685
6.77183e-05
5.06311e-05
4.14159e-05
3.54048e-05
3.10366e-05
2.77137e-05
2.50816e-05
2.29334e-05
2.11506e-05
1.96505e-05
1.83712e-05
1.72632e-05
1.62941e-05
1.54508e-05
1.47239e-05
1.40917e-05
1.35414e-05
1.30811e-05
1.27135e-05
0.000160509
0.00010736
8.07408e-05
6.55975e-05
5.54896e-05
4.83026e-05
4.3131e-05
3.90792e-05
3.57394e-05
3.29501e-05
3.05787e-05
2.85362e-05
2.67761e-05
2.52493e-05
2.39133e-05
2.27374e-05
2.1701e-05
2.07874e-05
1.99942e-05
1.93705e-05
0.000198681
0.0001383
0.000105187
8.55269e-05
7.25013e-05
6.28902e-05
5.60612e-05
5.07595e-05
4.63883e-05
4.27223e-05
3.96261e-05
3.69566e-05
3.46352e-05
3.2606e-05
3.0823e-05
2.92495e-05
2.78548e-05
2.66141e-05
2.55083e-05
2.4531e-05
0.000218609
0.000155003
0.000118661
9.65069e-05
8.18823e-05
7.08356e-05
6.30857e-05
5.71436e-05
5.22487e-05
4.80968e-05
4.45835e-05
4.15735e-05
3.89547e-05
3.66626e-05
3.46452e-05
3.28605e-05
3.12741e-05
2.98586e-05
2.85974e-05
2.75354e-05
0.000218609
0.000155003
0.000118661
9.65069e-05
8.18823e-05
7.08355e-05
6.30855e-05
5.71434e-05
5.22483e-05
4.80962e-05
4.45826e-05
4.15722e-05
3.89528e-05
3.66599e-05
3.46412e-05
3.2854e-05
3.12644e-05
2.98448e-05
2.8583e-05
2.75737e-05
0.000198681
0.0001383
0.000105187
8.55268e-05
7.25011e-05
6.289e-05
5.60609e-05
5.0759e-05
4.63876e-05
4.27212e-05
3.96243e-05
3.6954e-05
3.46314e-05
3.26003e-05
3.08139e-05
2.9235e-05
2.78323e-05
2.65806e-05
2.54695e-05
2.46168e-05
0.000160509
0.00010736
8.07408e-05
6.55975e-05
5.54895e-05
4.83024e-05
4.31308e-05
3.90788e-05
3.57389e-05
3.29491e-05
3.05773e-05
2.8534e-05
2.67727e-05
2.52441e-05
2.39049e-05
2.27234e-05
2.16781e-05
2.07499e-05
1.99321e-05
1.92719e-05
0.000107685
6.77183e-05
5.0631e-05
4.14158e-05
3.54048e-05
3.10366e-05
2.77136e-05
2.50815e-05
2.29333e-05
2.11504e-05
1.96502e-05
1.83706e-05
1.7262e-05
1.62917e-05
1.5447e-05
1.4717e-05
1.40783e-05
1.35149e-05
1.30278e-05
1.26527e-05
4.5356e-05
2.3208e-05
1.65396e-05
1.36493e-05
1.18966e-05
1.06844e-05
9.76072e-06
9.05705e-06
8.49464e-06
8.03121e-06
7.64038e-06
7.31194e-06
7.02418e-06
6.75991e-06
6.52789e-06
6.32611e-06
6.14984e-06
5.99591e-06
5.87977e-06
5.7323e-06
5.10544e-06
4.87268e-06
4.65881e-06
4.51594e-06
4.42071e-06
4.34958e-06
4.28554e-06
4.22335e-06
4.16597e-06
4.11087e-06
4.06414e-06
4.02197e-06
3.981e-06
3.94176e-06
3.90559e-06
3.86966e-06
3.83643e-06
3.80329e-06
3.77229e-06
3.7427e-06
3.71324e-06
3.68556e-06
3.65859e-06
3.6335e-06
3.60944e-06
3.58572e-06
3.56257e-06
3.53937e-06
3.5166e-06
3.49395e-06
3.47266e-06
3.45104e-06
3.42948e-06
3.40745e-06
3.38465e-06
3.36625e-06
3.34716e-06
3.32747e-06
3.31027e-06
3.28036e-06
1.08834e-05
1.03191e-05
9.89351e-06
9.55572e-06
9.29409e-06
9.0813e-06
8.8925e-06
8.72107e-06
8.56725e-06
8.41722e-06
8.28997e-06
8.17698e-06
8.06869e-06
7.97034e-06
7.87827e-06
7.7894e-06
7.70703e-06
7.62894e-06
7.55515e-06
7.48571e-06
7.41801e-06
7.3536e-06
7.29293e-06
7.23585e-06
7.18297e-06
7.13214e-06
7.08236e-06
7.03339e-06
6.98551e-06
6.93749e-06
6.89128e-06
6.84566e-06
6.80089e-06
6.75667e-06
6.71149e-06
6.66873e-06
6.62836e-06
6.58805e-06
6.54938e-06
6.50462e-06
1.64473e-05
1.55561e-05
1.49494e-05
1.44361e-05
1.39979e-05
1.36186e-05
1.32842e-05
1.29865e-05
1.27209e-05
1.24845e-05
1.22659e-05
1.20732e-05
1.1894e-05
1.17316e-05
1.15705e-05
1.14242e-05
1.12895e-05
1.11645e-05
1.10432e-05
1.09278e-05
1.08176e-05
1.07054e-05
1.05986e-05
1.05007e-05
1.04112e-05
1.03269e-05
1.02442e-05
1.01631e-05
1.00846e-05
1.00073e-05
9.93262e-06
9.85803e-06
9.7867e-06
9.71599e-06
9.64611e-06
9.58084e-06
9.51567e-06
9.45093e-06
9.38888e-06
9.32368e-06
2.07301e-05
1.97856e-05
1.90305e-05
1.84001e-05
1.78437e-05
1.73416e-05
1.68856e-05
1.64713e-05
1.60957e-05
1.57543e-05
1.54437e-05
1.51624e-05
1.49e-05
1.46609e-05
1.44395e-05
1.42344e-05
1.40412e-05
1.38655e-05
1.36805e-05
1.35069e-05
1.33491e-05
1.31986e-05
1.30533e-05
1.29143e-05
1.27836e-05
1.26604e-05
1.25432e-05
1.24307e-05
1.23241e-05
1.22196e-05
1.212e-05
1.20141e-05
1.19236e-05
1.18241e-05
1.17388e-05
1.16461e-05
1.15621e-05
1.14779e-05
1.13973e-05
1.1315e-05
2.32402e-05
2.23519e-05
2.15682e-05
2.08641e-05
2.02268e-05
1.96494e-05
1.91262e-05
1.86512e-05
1.82163e-05
1.78176e-05
1.74507e-05
1.71124e-05
1.68003e-05
1.65092e-05
1.62405e-05
1.59892e-05
1.57528e-05
1.55298e-05
1.5321e-05
1.51216e-05
1.49445e-05
1.47548e-05
1.4575e-05
1.44077e-05
1.42529e-05
1.41053e-05
1.39669e-05
1.38343e-05
1.37099e-05
1.35885e-05
1.34761e-05
1.33496e-05
1.32531e-05
1.31288e-05
1.30366e-05
1.2922e-05
1.28246e-05
1.27285e-05
1.26378e-05
1.25502e-05
2.37294e-05
2.29311e-05
2.21835e-05
2.14922e-05
2.08565e-05
2.02775e-05
1.97507e-05
1.92703e-05
1.88276e-05
1.84167e-05
1.80349e-05
1.76804e-05
1.73529e-05
1.70419e-05
1.67513e-05
1.64801e-05
1.62271e-05
1.59923e-05
1.57719e-05
1.55647e-05
1.53709e-05
1.5188e-05
1.50198e-05
1.48557e-05
1.46853e-05
1.45218e-05
1.43719e-05
1.42329e-05
1.41062e-05
1.39819e-05
1.38662e-05
1.37433e-05
1.36622e-05
1.34752e-05
1.34342e-05
1.32858e-05
1.31892e-05
1.30919e-05
1.29965e-05
1.29044e-05
2.26815e-05
2.18206e-05
2.10629e-05
2.03951e-05
1.98001e-05
1.92666e-05
1.87833e-05
1.83407e-05
1.79292e-05
1.75459e-05
1.71885e-05
1.68549e-05
1.65443e-05
1.62516e-05
1.59786e-05
1.57234e-05
1.5485e-05
1.52628e-05
1.50569e-05
1.48652e-05
1.46865e-05
1.45184e-05
1.43575e-05
1.42071e-05
1.40461e-05
1.38965e-05
1.37604e-05
1.36324e-05
1.35139e-05
1.33943e-05
1.32828e-05
1.31603e-05
1.30817e-05
1.29258e-05
1.28571e-05
1.27415e-05
1.26422e-05
1.2546e-05
1.24495e-05
1.23553e-05
2.02197e-05
1.91305e-05
1.83694e-05
1.77659e-05
1.72609e-05
1.68206e-05
1.64192e-05
1.60463e-05
1.56981e-05
1.53725e-05
1.50683e-05
1.47838e-05
1.45192e-05
1.42744e-05
1.40464e-05
1.38338e-05
1.36368e-05
1.34536e-05
1.32827e-05
1.31232e-05
1.29763e-05
1.28339e-05
1.26921e-05
1.25581e-05
1.24364e-05
1.23181e-05
1.22073e-05
1.20995e-05
1.19927e-05
1.1885e-05
1.17831e-05
1.16874e-05
1.15992e-05
1.15094e-05
1.14204e-05
1.1329e-05
1.12324e-05
1.11422e-05
1.10535e-05
1.09657e-05
1.58692e-05
1.48332e-05
1.42816e-05
1.38674e-05
1.35152e-05
1.31994e-05
1.29078e-05
1.26354e-05
1.23812e-05
1.21429e-05
1.19245e-05
1.17211e-05
1.15383e-05
1.13671e-05
1.12098e-05
1.10552e-05
1.08997e-05
1.07646e-05
1.06374e-05
1.05202e-05
1.04077e-05
1.03022e-05
1.02012e-05
1.01022e-05
1.00115e-05
9.92247e-06
9.83902e-06
9.75834e-06
9.68238e-06
9.60738e-06
9.53573e-06
9.46488e-06
9.39658e-06
9.32863e-06
9.26079e-06
9.18834e-06
9.11187e-06
9.04189e-06
8.97623e-06
8.90846e-06
1.02056e-05
9.85729e-06
9.50013e-06
9.2459e-06
9.0477e-06
8.87697e-06
8.7139e-06
8.55201e-06
8.40583e-06
8.26464e-06
8.13782e-06
8.02323e-06
7.9244e-06
7.81594e-06
7.71674e-06
7.62296e-06
7.5336e-06
7.45009e-06
7.37113e-06
7.29769e-06
7.2273e-06
7.16155e-06
7.10091e-06
7.04391e-06
6.99074e-06
6.93887e-06
6.88864e-06
6.83976e-06
6.79291e-06
6.74589e-06
6.70089e-06
6.65657e-06
6.61293e-06
6.56914e-06
6.52556e-06
6.47741e-06
6.43549e-06
6.39425e-06
6.35613e-06
6.3106e-06
5.10564e-06
4.8714e-06
4.65768e-06
4.51473e-06
4.41761e-06
4.3448e-06
4.28121e-06
4.2203e-06
4.16426e-06
4.11066e-06
4.06435e-06
4.02173e-06
3.9826e-06
3.94322e-06
3.90584e-06
3.87001e-06
3.83627e-06
3.80344e-06
3.77252e-06
3.74274e-06
3.71366e-06
3.68551e-06
3.65891e-06
3.6335e-06
3.60973e-06
3.58576e-06
3.56267e-06
3.53943e-06
3.51666e-06
3.4941e-06
3.47289e-06
3.45136e-06
3.42995e-06
3.40822e-06
3.38666e-06
3.36557e-06
3.34661e-06
3.32665e-06
3.30903e-06
3.27757e-06
1.02054e-05
9.85611e-06
9.50196e-06
9.25419e-06
9.06934e-06