/*--------------------------------*- C++ -*----------------------------------*\
| =========                 |                                                 |
| \\      /  F ield         | OpenFOAM: The Open Source CFD Toolbox           |
|  \\    /   O peration     | Version:  2212                                  |
|   \\  /    A nd           | Website:  www.openfoam.com                      |
|    \\/     M anipulation  |                                                 |
\*---------------------------------------------------------------------------*/
FoamFile
{
    version     2.0;
    format      ascii;
    arch        "LSB;label=32;scalar=64";
    class       surfaceScalarField;
    location    "1.75";
    object      phi;
}
// * * * * * * * * * * * * * * * * * * * * * * * * * * * * * * * * * * * * * //

dimensions      [0 3 -1 0 0 0 0];

oriented        oriented;

internalField   nonuniform List<scalar> 
19019
(
3.32249e-07
1.09681e-09
1.0969e-09
2.7919e-07
2.65295e-08
2.65298e-08
2.49217e-07
1.49863e-08
1.49869e-08
2.29252e-07
9.98194e-09
9.98278e-09
2.14832e-07
7.20956e-09
7.21119e-09
2.03194e-07
5.81772e-09
5.82025e-09
1.93763e-07
4.71313e-09
4.7179e-09
1.85989e-07
3.88247e-09
3.89087e-09
1.79331e-07
3.32207e-09
3.33649e-09
1.73486e-07
2.91012e-09
2.93465e-09
1.68286e-07
2.57951e-09
2.62008e-09
1.63617e-07
2.30122e-09
2.3686e-09
1.5938e-07
2.06204e-09
2.17483e-09
1.555e-07
1.83896e-09
2.04033e-09
1.51936e-07
1.60869e-09
1.95588e-09
1.48686e-07
1.32992e-09
1.92002e-09
1.45802e-07
9.44656e-10
1.93944e-09
1.43531e-07
3.10038e-10
1.96099e-09
1.42417e-07
-1.14413e-09
2.25758e-09
-9.09715e-09
-3.15551e-09
6.3138e-07
3.58761e-09
7.40295e-09
6.14563e-07
2.26459e-08
2.07007e-08
5.86443e-07
2.43762e-08
1.87297e-08
5.61722e-07
1.88552e-08
1.58482e-08
5.39611e-07
1.55697e-08
1.37508e-08
5.20626e-07
1.35104e-08
1.12918e-08
5.04674e-07
1.19518e-08
8.71339e-09
4.9091e-07
1.07997e-08
6.84672e-09
4.7867e-07
9.9474e-09
5.61455e-09
4.67558e-07
9.23746e-09
4.78522e-09
4.57329e-07
8.61291e-09
4.19566e-09
4.47825e-07
8.05361e-09
3.75165e-09
4.38916e-07
7.54895e-09
3.42141e-09
4.30489e-07
7.09233e-09
3.17435e-09
4.22427e-07
6.67336e-09
2.99712e-09
4.14649e-07
6.2555e-09
2.85187e-09
4.07154e-07
5.75586e-09
2.68356e-09
4.00061e-07
5.01522e-09
2.38844e-09
3.93581e-07
3.92456e-09
1.41126e-09
4.70405e-09
7.21558e-10
8.90374e-07
2.8527e-09
6.33244e-09
8.82485e-07
1.3409e-08
1.71262e-08
8.70356e-07
1.78682e-08
1.86367e-08
8.55107e-07
1.69567e-08
1.71482e-08
8.39973e-07
1.53422e-08
1.53616e-08
8.25519e-07
1.41729e-08
1.37909e-08
8.11743e-07
1.33847e-08
1.23439e-08
7.98734e-07
1.2684e-08
1.11241e-08
7.86638e-07
1.19013e-08
1.01421e-08
7.75458e-07
1.10659e-08
9.35218e-09
7.65044e-07
1.02736e-08
8.75316e-09
7.55231e-07
9.54901e-09
8.31769e-09
7.45862e-07
8.90873e-09
8.0091e-09
7.36806e-07
8.3587e-09
7.78974e-09
7.27947e-07
7.891e-09
7.64107e-09
7.19154e-07
7.49339e-09
7.55539e-09
7.10219e-07
7.1605e-09
7.52983e-09
7.00747e-07
6.92663e-09
7.56058e-09
6.89774e-07
7.11946e-09
7.77889e-09
9.36275e-09
9.19985e-09
1.07432e-06
1.06507e-09
5.56893e-09
1.06824e-06
5.58753e-09
1.39004e-08
1.06138e-06
8.46586e-09
1.62621e-08
1.05338e-06
9.0428e-09
1.59093e-08
1.0451e-06
8.62265e-09
1.5002e-08
1.03721e-06
8.1286e-09
1.39326e-08
1.02982e-06
7.80015e-09
1.29758e-08
1.02281e-06
7.57665e-09
1.21127e-08
1.01597e-06
7.40574e-09
1.13417e-08
1.0092e-06
7.14531e-09
1.06868e-08
1.00254e-06
6.74493e-09
1.0191e-08
9.95949e-07
6.31158e-09
9.82783e-09
9.89362e-07
5.92383e-09
9.57174e-09
9.82704e-07
5.60747e-09
9.40914e-09
9.75894e-07
5.37252e-09
9.3286e-09
9.68828e-07
5.23427e-09
9.32519e-09
9.61352e-07
5.22687e-09
9.40998e-09
9.53263e-07
5.40625e-09
9.60975e-09
9.44582e-07
5.85474e-09
9.94583e-09
7.32037e-09
1.08531e-08
1.16914e-06
8.74772e-14
4.90663e-09
1.16312e-06
3.97726e-13
1.16087e-08
1.15731e-06
8.52739e-13
1.42756e-08
1.15202e-06
1.44842e-12
1.43334e-08
1.14691e-06
2.38816e-12
1.37293e-08
1.14207e-06
3.99318e-12
1.29671e-08
1.13776e-06
6.728e-12
1.20969e-08
1.13403e-06
1.11754e-11
1.13014e-08
1.13078e-06
1.8521e-11
1.06386e-08
1.12772e-06
3.05255e-11
1.01706e-08
1.12455e-06
5.00559e-11
9.86458e-09
1.12114e-06
8.17681e-11
9.64198e-09
1.11743e-06
1.33216e-10
9.49922e-09
1.11338e-06
2.16353e-10
9.44147e-09
1.10895e-06
3.49094e-10
9.45499e-09
1.1041e-06
5.55869e-10
9.52873e-09
1.09878e-06
8.77087e-10
9.66777e-09
1.09294e-06
1.36637e-09
9.87941e-09
1.08662e-06
2.04547e-09
1.01268e-08
3.12971e-09
1.06111e-08
1.16914e-06
-1.06489e-09
4.9066e-09
1.16312e-06
-5.58691e-09
1.16086e-08
1.15731e-06
-8.46467e-09
1.42755e-08
1.15202e-06
-9.04082e-09
1.43331e-08
1.14691e-06
-8.61923e-09
1.37285e-08
1.14208e-06
-8.12266e-09
1.29656e-08
1.13778e-06
-7.79001e-09
1.20946e-08
1.13405e-06
-7.55967e-09
1.12978e-08
1.13081e-06
-7.3771e-09
1.06324e-08
1.12778e-06
-7.09814e-09
1.01605e-08
1.12465e-06
-6.66809e-09
9.84857e-09
1.1213e-06
-6.18592e-09
9.61582e-09
1.1177e-06
-5.71787e-09
9.45537e-09
1.11382e-06
-5.26827e-09
9.36865e-09
1.10964e-06
-4.81212e-09
9.33641e-09
1.10517e-06
-4.31344e-09
9.33939e-09
1.1004e-06
-3.71307e-09
9.365e-09
1.09526e-06
-2.90884e-09
9.40892e-09
1.08966e-06
-1.81968e-09
9.4702e-09
-3.77663e-10
9.58609e-09
1.07432e-06
-2.85271e-09
5.56891e-09
1.06824e-06
-1.3409e-08
1.39003e-08
1.06138e-06
-1.78681e-08
1.62617e-08
1.05339e-06
-1.69565e-08
1.59083e-08
1.04511e-06
-1.53417e-08
1.50003e-08
1.03723e-06
-1.41718e-08
1.39299e-08
1.02985e-06
-1.33826e-08
1.29717e-08
1.02286e-06
-1.26807e-08
1.2106e-08
1.01605e-06
-1.18956e-08
1.13307e-08
1.00934e-06
-1.10564e-08
1.06684e-08
1.00277e-06
-1.02578e-08
1.01592e-08
9.96333e-07
-9.5218e-09
9.77526e-09
9.89991e-07
-8.85983e-09
9.48359e-09
9.8373e-07
-8.26736e-09
9.25999e-09
9.77554e-07
-7.71437e-09
9.07857e-09
9.71482e-07
-7.14409e-09
8.90271e-09
9.65523e-07
-6.44619e-09
8.69131e-09
9.59626e-07
-5.39149e-09
8.37964e-09
9.53618e-07
-3.74755e-09
7.93591e-09
-6.06574e-10
7.07137e-09
8.90375e-07
-3.58771e-09
6.33239e-09
8.82486e-07
-2.26463e-08
1.7126e-08
8.70358e-07
-2.43767e-08
1.86361e-08
8.55111e-07
-1.88561e-08
1.71472e-08
8.39981e-07
-1.55714e-08
1.536e-08
8.25533e-07
-1.35132e-08
1.37888e-08
8.11767e-07
-1.19565e-08
1.23404e-08
7.98776e-07
-1.08076e-08
1.1118e-08
7.86709e-07
-9.96053e-09
1.01321e-08
7.75576e-07
-9.25968e-09
9.33594e-09
7.65243e-07
-8.65042e-09
8.72599e-09
7.55564e-07
-8.11475e-09
8.27137e-09
7.4642e-07
-7.64534e-09
7.92989e-09
7.37741e-07
-7.24496e-09
7.65663e-09
7.29529e-07
-6.91094e-09
7.4086e-09
7.21865e-07
-6.61563e-09
7.13462e-09
7.14962e-07
-6.27192e-09
6.72937e-09
7.09187e-07
-5.56926e-09
5.95227e-09
7.05103e-07
-4.25645e-09
4.59235e-09
3.31395e-10
1.15533e-09
6.3138e-07
-1.0969e-09
7.4029e-09
6.14563e-07
-2.65298e-08
2.07004e-08
5.86444e-07
-1.49869e-08
1.87293e-08
5.61723e-07
-9.98278e-09
1.58475e-08
5.39613e-07
-7.21119e-09
1.37498e-08
5.20631e-07
-5.82026e-09
1.12898e-08
5.04682e-07
-4.71792e-09
8.71006e-09
4.90924e-07
-3.89089e-09
6.84139e-09
4.78694e-07
-3.33651e-09
5.60569e-09
4.67599e-07
-2.93468e-09
4.77016e-09
4.57401e-07
-2.62013e-09
4.16753e-09
4.47952e-07
-2.36868e-09
3.70333e-09
4.39141e-07
-2.17488e-09
3.34047e-09
4.30869e-07
-2.04042e-09
3.06728e-09
4.23087e-07
-1.95597e-09
2.82708e-09
4.1584e-07
-1.9198e-09
2.5505e-09
4.09398e-07
-1.93879e-09
2.10857e-09
4.04578e-07
-1.95952e-09
1.21079e-09
4.0321e-07
-2.2546e-09
-6.34416e-10
3.16476e-09
-9.84303e-09
3.32249e-07
1.09681e-09
2.7919e-07
2.65295e-08
2.49217e-07
1.49863e-08
2.29252e-07
9.98193e-09
2.14832e-07
7.20956e-09
2.03194e-07
5.8177e-09
1.93763e-07
4.71312e-09
1.85989e-07
3.88245e-09
1.79331e-07
3.32205e-09
1.73486e-07
2.9101e-09
1.68286e-07
2.57948e-09
1.63617e-07
2.30116e-09
1.5938e-07
2.06194e-09
1.555e-07
1.83888e-09
1.51936e-07
1.60864e-09
1.48686e-07
1.32988e-09
1.45802e-07
9.44734e-10
1.43533e-07
3.10187e-10
1.42422e-07
-1.1444e-09
-9.09875e-09
6.3138e-07
7.4029e-09
3.58771e-09
6.14563e-07
2.07004e-08
2.26463e-08
5.86444e-07
1.87293e-08
2.43767e-08
5.61723e-07
1.58475e-08
1.88561e-08
5.39613e-07
1.37498e-08
1.55713e-08
5.20631e-07
1.12898e-08
1.35131e-08
5.04682e-07
8.71007e-09
1.19565e-08
4.90924e-07
6.84141e-09
1.08075e-08
4.78694e-07
5.60571e-09
9.96045e-09
4.67599e-07
4.77018e-09
9.25957e-09
4.57401e-07
4.16757e-09
8.65026e-09
4.47952e-07
3.70343e-09
8.11452e-09
4.39141e-07
3.34072e-09
7.64503e-09
4.30869e-07
3.06741e-09
7.2449e-09
4.23087e-07
2.82693e-09
6.91121e-09
4.1584e-07
2.55057e-09
6.61612e-09
4.09398e-07
2.10888e-09
6.27291e-09
4.04576e-07
1.21152e-09
5.57159e-09
4.03201e-07
-6.31526e-10
4.26334e-09
-9.83693e-09
-3.11068e-10
9.23616e-07
7.03395e-09
7.03405e-09
9.25317e-07
1.98502e-08
1.98505e-08
9.17181e-07
2.27973e-08
2.27979e-08
9.04269e-07
2.23031e-08
2.23042e-08
8.90524e-07
2.0622e-08
2.06237e-08
8.77392e-07
1.78549e-08
1.78581e-08
8.65412e-07
1.46996e-08
1.47048e-08
8.54714e-07
1.21884e-08
1.21969e-08
8.45243e-07
1.03387e-08
1.03534e-08
8.36846e-07
8.96335e-09
8.98871e-09
8.29334e-07
7.91601e-09
7.95921e-09
8.2251e-07
7.10387e-09
7.17549e-09
8.16229e-07
6.46273e-09
6.5803e-09
8.10426e-07
5.92714e-09
6.1172e-09
8.05078e-07
5.43073e-09
5.74113e-09
8.0013e-07
4.92518e-09
5.42555e-09
7.95444e-07
4.34012e-09
5.13881e-09
7.90577e-07
3.61835e-09
4.84867e-09
7.84565e-07
2.47991e-09
4.31185e-09
1.46233e-10
2.64874e-09
1.1589e-06
5.28154e-09
6.10285e-09
1.16569e-06
1.39994e-08
1.61838e-08
1.16844e-06
1.79793e-08
2.07081e-08
1.1666e-06
1.91809e-08
2.21069e-08
1.1622e-06
1.88789e-08
2.15085e-08
1.15652e-06
1.75495e-08
1.97737e-08
1.15044e-06
1.56917e-08
1.74313e-08
1.14452e-06
1.38965e-08
1.53393e-08
1.13905e-06
1.23012e-08
1.36457e-08
1.13416e-06
1.09118e-08
1.2295e-08
1.12983e-06
9.76759e-09
1.12307e-08
1.12601e-06
8.83626e-09
1.04059e-08
1.12264e-06
8.07258e-09
9.77529e-09
1.11963e-06
7.4332e-09
9.29501e-09
1.11687e-06
6.88721e-09
8.94054e-09
1.11423e-06
6.40925e-09
8.70808e-09
1.11151e-06
5.98437e-09
8.60749e-09
1.10839e-06
5.63159e-09
8.66815e-09
1.10445e-06
5.33553e-09
8.86698e-09
5.10106e-09
9.05518e-09
1.32762e-06
2.71857e-09
4.93134e-09
1.33539e-06
7.12185e-09
1.30096e-08
1.34286e-06
9.55521e-09
1.72169e-08
1.34847e-06
1.05808e-08
1.89013e-08
1.35197e-06
1.08796e-08
1.95038e-08
1.35374e-06
1.05873e-08
1.91187e-08
1.3544e-06
9.90239e-09
1.81059e-08
1.35453e-06
9.06288e-09
1.68191e-08
1.35448e-06
8.22131e-09
1.54755e-08
1.35438e-06
7.4413e-09
1.42514e-08
1.3543e-06
6.76141e-09
1.32779e-08
1.35426e-06
6.18013e-09
1.2523e-08
1.35427e-06
5.69158e-09
1.19475e-08
1.35429e-06
5.289e-09
1.15267e-08
1.35429e-06
4.97211e-09
1.12479e-08
1.35417e-06
4.74756e-09
1.1107e-08
1.35382e-06
4.62832e-09
1.11153e-08
1.35311e-06
4.64598e-09
1.13027e-08
1.3519e-06
4.82439e-09
1.16682e-08
5.14265e-09
1.21205e-08
1.41518e-06
1.43515e-13
4.19305e-09
1.42279e-06
4.05135e-13
1.11163e-08
1.43152e-06
6.884e-13
1.50991e-08
1.4398e-06
1.1904e-12
1.66298e-08
1.44714e-06
2.08007e-12
1.72755e-08
1.45318e-06
3.48262e-12
1.75091e-08
1.45802e-06
5.62568e-12
1.71513e-08
1.46194e-06
9.09058e-12
1.64333e-08
1.46525e-06
1.49773e-11
1.55416e-08
1.46818e-06
2.53705e-11
1.46519e-08
1.47094e-06
4.27704e-11
1.38272e-08
1.47358e-06
7.04955e-11
1.31065e-08
1.4761e-06
1.1426e-10
1.25602e-08
1.47844e-06
1.81273e-10
1.2202e-08
1.48059e-06
2.85112e-10
1.19945e-08
1.48252e-06
4.47934e-10
1.19007e-08
1.48421e-06
7.00007e-10
1.19021e-08
1.48564e-06
1.08321e-09
1.20114e-08
1.48672e-06
1.63867e-09
1.2234e-08
2.34485e-09
1.25186e-08
1.41518e-06
-2.7184e-09
4.19297e-09
1.42279e-06
-7.12138e-09
1.11161e-08
1.43152e-06
-9.55437e-09
1.50988e-08
1.43981e-06
-1.05793e-08
1.66293e-08
1.44714e-06
-1.0877e-08
1.72743e-08
1.45319e-06
-1.0583e-08
1.7507e-08
1.45803e-06
-9.89541e-09
1.71481e-08
1.46196e-06
-9.05146e-09
1.64283e-08
1.46528e-06
-8.20234e-09
1.55338e-08
1.46823e-06
-7.40755e-09
1.46394e-08
1.47102e-06
-6.70293e-09
1.38065e-08
1.47372e-06
-6.08396e-09
1.30716e-08
1.47632e-06
-5.53643e-09
1.25009e-08
1.47882e-06
-5.04678e-09
1.21037e-08
1.4812e-06
-4.59179e-09
1.18355e-08
1.48347e-06
-4.13265e-09
1.1648e-08
1.48565e-06
-3.6313e-09
1.15095e-08
1.48778e-06
-3.03723e-09
1.14089e-08
1.48983e-06
-2.27586e-09
1.13341e-08
-1.21507e-09
1.11801e-08
1.32762e-06
-5.2816e-09
4.93119e-09
1.33539e-06
-1.39995e-08
1.30092e-08
1.34286e-06
-1.79794e-08
1.72161e-08
1.34848e-06
-1.91811e-08
1.88995e-08
1.35198e-06
-1.88792e-08
1.95008e-08
1.35376e-06
-1.75502e-08
1.91142e-08
1.35443e-06
-1.56925e-08
1.80989e-08
1.35457e-06
-1.38972e-08
1.6808e-08
1.35455e-06
-1.23024e-08
1.54581e-08
1.3545e-06
-1.09139e-08
1.42229e-08
1.3545e-06
-9.77095e-09
1.32294e-08
1.35459e-06
-8.84311e-09
1.2442e-08
1.35481e-06
-8.08473e-09
1.18137e-08
1.35517e-06
-7.45892e-09
1.13087e-08
1.35568e-06
-6.91869e-09
1.0892e-08
1.35635e-06
-6.42556e-09
1.05262e-08
1.35719e-06
-5.94504e-09
1.01701e-08
1.35818e-06
-5.42174e-09
9.775e-09
1.35932e-06
-4.75152e-09
9.26836e-09
-3.50045e-09
8.43206e-09
1.1589e-06
-7.03406e-09
6.10269e-09
1.1657e-06
-1.98505e-08
1.61832e-08
1.16844e-06
-2.27979e-08
2.0707e-08
1.16661e-06
-2.23042e-08
2.21052e-08
1.16221e-06
-2.06238e-08
2.15058e-08
1.15653e-06
-1.78582e-08
1.97699e-08
1.15046e-06
-1.47049e-08
1.74249e-08
1.14455e-06
-1.2197e-08
1.53283e-08
1.13911e-06
-1.03535e-08
1.36269e-08
1.13425e-06
-8.9889e-09
1.22638e-08
1.12999e-06
-7.95944e-09
1.11792e-08
1.12627e-06
-7.17572e-09
1.03209e-08
1.12306e-06
-6.5805e-09
9.63527e-09
1.12031e-06
-6.11771e-09
9.06523e-09
1.11799e-06
-5.74171e-09
8.56007e-09
1.11604e-06
-5.42559e-09
8.07611e-09
1.11441e-06
-5.13814e-09
7.5524e-09
1.1129e-06
-4.84687e-09
6.895e-09
1.11108e-06
-4.30698e-09
5.96178e-09
-2.64031e-09
4.51146e-09
9.23616e-07
-7.40295e-09
7.03395e-09
9.25317e-07
-2.07007e-08
1.98502e-08
9.17181e-07
-1.87297e-08
2.27973e-08
9.04269e-07
-1.58482e-08
2.23031e-08
8.90524e-07
-1.37509e-08
2.0622e-08
8.77392e-07
-1.12919e-08
1.78549e-08
8.65412e-07
-8.71345e-09
1.46995e-08
8.54714e-07
-6.8468e-09
1.21884e-08
8.45243e-07
-5.61466e-09
1.03387e-08
8.36846e-07
-4.78537e-09
8.9633e-09
8.29334e-07
-4.19585e-09
7.91592e-09
8.2251e-07
-3.75183e-09
7.10367e-09
8.16229e-07
-3.42154e-09
6.46224e-09
8.10426e-07
-3.17468e-09
5.92695e-09
8.05078e-07
-2.99756e-09
5.43073e-09
8.00131e-07
-2.85206e-09
4.92445e-09
7.95446e-07
-2.6835e-09
4.33858e-09
7.90582e-07
-2.38793e-09
3.61546e-09
7.84576e-07
-1.40891e-09
2.47407e-09
-7.19276e-10
1.40927e-10
6.3138e-07
3.58761e-09
6.14563e-07
2.26459e-08
5.86443e-07
2.43762e-08
5.61722e-07
1.88552e-08
5.39611e-07
1.55697e-08
5.20626e-07
1.35104e-08
5.04674e-07
1.19518e-08
4.9091e-07
1.07997e-08
4.7867e-07
9.9473e-09
4.67558e-07
9.23735e-09
4.57329e-07
8.61277e-09
4.47824e-07
8.05342e-09
4.38916e-07
7.54871e-09
4.30489e-07
7.09175e-09
4.22427e-07
6.67245e-09
4.14651e-07
6.25448e-09
4.07157e-07
5.75456e-09
4.00066e-07
5.01308e-09
3.93593e-07
3.92055e-09
4.69577e-09
8.90375e-07
6.33239e-09
2.8527e-09
8.82486e-07
1.7126e-08
1.3409e-08
8.70358e-07
1.86361e-08
1.78681e-08
8.55111e-07
1.71472e-08
1.69565e-08
8.39981e-07
1.536e-08
1.53416e-08
8.25533e-07
1.37888e-08
1.41717e-08
8.11767e-07
1.23404e-08
1.33825e-08
7.98776e-07
1.1118e-08
1.26806e-08
7.86709e-07
1.01321e-08
1.18954e-08
7.75576e-07
9.33595e-09
1.10562e-08
7.65243e-07
8.726e-09
1.02576e-08
7.55565e-07
8.27137e-09
9.52149e-09
7.4642e-07
7.92978e-09
8.85946e-09
7.37742e-07
7.65656e-09
8.26702e-09
7.2953e-07
7.40866e-09
7.71409e-09
7.21868e-07
7.13457e-09
7.14381e-09
7.14966e-07
6.72913e-09
6.44596e-09
7.09194e-07
5.95175e-09
5.39177e-09
7.05115e-07
4.59257e-09
3.74889e-09
1.16277e-09
6.1401e-10
1.1589e-06
6.10269e-09
5.28159e-09
1.1657e-06
1.61832e-08
1.39995e-08
1.16844e-06
2.0707e-08
1.79794e-08
1.16661e-06
2.21052e-08
1.91811e-08
1.16221e-06
2.15059e-08
1.88792e-08
1.15653e-06
1.97699e-08
1.75501e-08
1.15046e-06
1.74249e-08
1.56924e-08
1.14455e-06
1.53283e-08
1.3897e-08
1.13911e-06
1.3627e-08
1.23022e-08
1.13425e-06
1.22639e-08
1.09137e-08
1.12999e-06
1.11793e-08
9.77065e-09
1.12627e-06
1.0321e-08
8.84275e-09
1.12306e-06
9.63543e-09
8.08419e-09
1.12031e-06
9.06534e-09
7.45825e-09
1.11799e-06
8.56035e-09
6.91799e-09
1.11604e-06
8.07676e-09
6.42481e-09
1.11441e-06
7.55356e-09
5.94426e-09
1.1129e-06
6.89657e-09
5.4206e-09
1.11109e-06
5.9645e-09
4.75079e-09
4.51613e-09
3.50888e-09
1.37712e-06
4.57749e-09
4.57763e-09
1.38565e-06
1.19176e-08
1.1918e-08
1.39417e-06
1.64479e-08
1.64485e-08
1.40126e-06
1.85619e-08
1.8563e-08
1.40641e-06
1.89316e-08
1.89333e-08
1.4095e-06
1.82235e-08
1.82262e-08
1.41092e-06
1.67178e-08
1.67222e-08
1.41149e-06
1.50454e-08
1.50523e-08
1.41174e-06
1.35027e-08
1.3514e-08
1.41195e-06
1.2167e-08
1.21852e-08
1.41227e-06
1.10302e-08
1.10595e-08
1.4128e-06
1.00769e-08
1.01244e-08
1.41357e-06
9.28097e-09
9.35796e-09
1.41458e-06
8.60971e-09
8.73471e-09
1.41582e-06
8.03395e-09
8.23479e-09
1.41722e-06
7.53337e-09
7.84897e-09
1.41873e-06
7.08295e-09
7.57049e-09
1.42024e-06
6.65843e-09
7.3927e-09
1.42161e-06
6.19796e-09
7.26332e-09
5.6868e-09
7.01957e-09
1.53312e-06
2.36636e-09
3.64956e-09
1.54218e-06
6.2397e-09
9.63457e-09
1.55327e-06
8.87488e-09
1.3693e-08
1.56445e-06
1.03497e-08
1.59387e-08
1.57507e-06
1.09039e-08
1.69151e-08
1.5847e-06
1.07613e-08
1.69504e-08
1.59298e-06
1.01538e-08
1.63837e-08
1.60004e-06
9.34783e-09
1.54567e-08
1.60617e-06
8.48644e-09
1.43609e-08
1.61163e-06
7.68131e-09
1.3276e-08
1.61666e-06
6.98053e-09
1.22987e-08
1.62142e-06
6.38712e-09
1.14595e-08
1.626e-06
5.8851e-09
1.07644e-08
1.63046e-06
5.4613e-09
1.02087e-08
1.63485e-06
5.10817e-09
9.78443e-09
1.63918e-06
4.82744e-09
9.48531e-09
1.64346e-06
4.61338e-09
9.30782e-09
1.64771e-06
4.46443e-09
9.2419e-09
1.65195e-06
4.37458e-09
9.25511e-09
4.29201e-09
9.2565e-09
1.61424e-06
9.79489e-14
3.0929e-09
1.62332e-06
2.37765e-13
8.27419e-09
1.63534e-06
4.05281e-13
1.19573e-08
1.6482e-06
6.86512e-13
1.41147e-08
1.66118e-06
1.16547e-12
1.52004e-08
1.67386e-06
1.86839e-12
1.55826e-08
1.68574e-06
3.0312e-12
1.54283e-08
1.69656e-06
4.82497e-12
1.49554e-08
1.7063e-06
7.87316e-12
1.42795e-08
1.71512e-06
1.29916e-11
1.35018e-08
1.72319e-06
2.12409e-11
1.27114e-08
1.73068e-06
3.40483e-11
1.19742e-08
1.73773e-06
5.33599e-11
1.13361e-08
1.7445e-06
8.18831e-11
1.08186e-08
1.75105e-06
1.25156e-10
1.04252e-08
1.75743e-06
1.91213e-10
1.01536e-08
1.76368e-06
2.8917e-10
9.97897e-09
1.76985e-06
4.31993e-10
9.87758e-09
1.776e-06
6.38604e-10
9.81698e-09
8.58741e-10
9.76103e-09
1.61424e-06
-2.36629e-09
3.09282e-09
1.62332e-06
-6.23952e-09
8.27397e-09
1.63534e-06
-8.87457e-09
1.19569e-08
1.6482e-06
-1.03492e-08
1.4114e-08
1.66118e-06
-1.0903e-08
1.51992e-08
1.67387e-06
-1.076e-08
1.55806e-08
1.68575e-06
-1.01517e-08
1.54254e-08
1.69657e-06
-9.34435e-09
1.49509e-08
1.70632e-06
-8.48065e-09
1.42725e-08
1.71516e-06
-7.67102e-09
1.34907e-08
1.72325e-06
-6.96258e-09
1.26933e-08
1.73077e-06
-6.35759e-09
1.19449e-08
1.73788e-06
-5.83847e-09
1.12888e-08
1.74471e-06
-5.39022e-09
1.07433e-08
1.75136e-06
-5.00059e-09
1.03061e-08
1.7579e-06
-4.66032e-09
9.96692e-09
1.76435e-06
-4.35291e-09
9.69478e-09
1.7708e-06
-4.06067e-09
9.45374e-09
1.77733e-06
-3.75256e-09
9.19811e-09
-3.37235e-09
8.92303e-09
1.53312e-06
-4.57763e-09
3.64938e-09
1.54218e-06
-1.1918e-08
9.63409e-09
1.55328e-06
-1.64486e-08
1.36921e-08
1.56445e-06
-1.8563e-08
1.59372e-08
1.57507e-06
-1.89334e-08
1.69126e-08
1.5847e-06
-1.82263e-08
1.69465e-08
1.593e-06
-1.67223e-08
1.63777e-08
1.60007e-06
-1.50525e-08
1.54472e-08
1.60621e-06
-1.35143e-08
1.43459e-08
1.6117e-06
-1.21855e-08
1.32524e-08
1.61676e-06
-1.10599e-08
1.22609e-08
1.62157e-06
-1.01248e-08
1.13985e-08
1.62624e-06
-9.35858e-09
1.06659e-08
1.63085e-06
-8.73565e-09
1.00494e-08
1.63545e-06
-8.236e-09
9.52787e-09
1.64008e-06
-7.85032e-09
9.07997e-09
1.64479e-06
-7.5721e-09
8.67912e-09
1.64961e-06
-7.395e-09
8.29258e-09
1.65452e-06
-7.26757e-09
7.87005e-09
-7.03064e-09
7.37781e-09
1.37712e-06
-6.10285e-09
4.57749e-09
1.38565e-06
-1.61838e-08
1.19176e-08
1.39417e-06
-2.07081e-08
1.64479e-08
1.40126e-06
-2.2107e-08
1.85619e-08
1.40641e-06
-2.15086e-08
1.89316e-08
1.4095e-06
-1.97738e-08
1.82235e-08
1.41092e-06
-1.74314e-08
1.67178e-08
1.41149e-06
-1.53394e-08
1.50454e-08
1.41174e-06
-1.36459e-08
1.35026e-08
1.41195e-06
-1.22952e-08
1.21669e-08
1.41227e-06
-1.1231e-08
1.10301e-08
1.4128e-06
-1.04062e-08
1.00766e-08
1.41357e-06
-9.77556e-09
9.28061e-09
1.41458e-06
-9.29561e-09
8.60933e-09
1.41581e-06
-8.9413e-09
8.03337e-09
1.41722e-06
-8.70841e-09
7.53222e-09
1.41872e-06
-8.60721e-09
7.08105e-09
1.42023e-06
-8.66693e-09
6.6557e-09
1.4216e-06
-8.86463e-09
6.19446e-09
-9.05543e-09
5.68568e-09
1.1589e-06
-6.33244e-09
5.28153e-09
1.16569e-06
-1.71262e-08
1.39994e-08
1.16844e-06
-1.86367e-08
1.79793e-08
1.1666e-06
-1.71483e-08
1.91809e-08
1.1622e-06
-1.53616e-08
1.88789e-08
1.15652e-06
-1.3791e-08
1.75495e-08
1.15044e-06
-1.2344e-08
1.56917e-08
1.14452e-06
-1.11242e-08
1.38965e-08
1.13905e-06
-1.01422e-08
1.23012e-08
1.13416e-06
-9.35234e-09
1.09117e-08
1.12983e-06
-8.75335e-09
9.76743e-09
1.12601e-06
-8.31792e-09
8.83599e-09
1.12264e-06
-8.00932e-09
8.07205e-09
1.11963e-06
-7.78989e-09
7.4327e-09
1.11687e-06
-7.64109e-09
6.88657e-09
1.11423e-06
-7.55518e-09
6.40785e-09
1.11151e-06
-7.52919e-09
5.98193e-09
1.10839e-06
-7.559e-09
5.62753e-09
1.10445e-06
-7.77518e-09
5.32883e-09
-9.19223e-09
5.09351e-09
8.90374e-07
2.8527e-09
8.82485e-07
1.3409e-08
8.70356e-07
1.78682e-08
8.55107e-07
1.69567e-08
8.39973e-07
1.53422e-08
8.25519e-07
1.41728e-08
8.11743e-07
1.33846e-08
7.98734e-07
1.26839e-08
7.86638e-07
1.19011e-08
7.75458e-07
1.10657e-08
7.65044e-07
1.02734e-08
7.5523e-07
9.54869e-09
7.45862e-07
8.90828e-09
7.36806e-07
8.35782e-09
7.27948e-07
7.88959e-09
7.19155e-07
7.49155e-09
7.10223e-07
7.15795e-09
7.00755e-07
6.92272e-09
6.89787e-07
7.113e-09
9.35124e-09
1.07432e-06
5.56892e-09
1.06489e-09
1.06824e-06
1.39003e-08
5.58689e-09
1.06138e-06
1.62617e-08
8.46465e-09
1.05339e-06
1.59083e-08
9.0408e-09
1.04511e-06
1.50003e-08
8.6192e-09
1.03723e-06
1.393e-08
8.12261e-09
1.02985e-06
1.29717e-08
7.78994e-09
1.02286e-06
1.2106e-08
7.55956e-09
1.01605e-06
1.13307e-08
7.37695e-09
1.00934e-06
1.06684e-08
7.09793e-09
1.00277e-06
1.01592e-08
6.66782e-09
9.96333e-07
9.7752e-09
6.18557e-09
9.89992e-07
9.48339e-09
5.71744e-09
9.83731e-07
9.25964e-09
5.26768e-09
9.77556e-07
9.07795e-09
4.8113e-09
9.71486e-07
8.90142e-09
4.31225e-09
9.65533e-07
8.68879e-09
3.71106e-09
9.59644e-07
8.37493e-09
2.90527e-09
9.53651e-07
7.9289e-09
1.81324e-09
7.07273e-09
3.67055e-10
1.32762e-06
4.9312e-09
2.7184e-09
1.33539e-06
1.30092e-08
7.12137e-09
1.34286e-06
1.72161e-08
9.55435e-09
1.34848e-06
1.88995e-08
1.05792e-08
1.35198e-06
1.95008e-08
1.08769e-08
1.35376e-06
1.91142e-08
1.05829e-08
1.35443e-06
1.80989e-08
9.89528e-09
1.35457e-06
1.6808e-08
9.05128e-09
1.35455e-06
1.54581e-08
8.2021e-09
1.3545e-06
1.4223e-08
7.40724e-09
1.3545e-06
1.32294e-08
6.70254e-09
1.35459e-06
1.2442e-08
6.08347e-09
1.35481e-06
1.18136e-08
5.53578e-09
1.35517e-06
1.13086e-08
5.04605e-09
1.35568e-06
1.0892e-08
4.59095e-09
1.35635e-06
1.05259e-08
4.13152e-09
1.35719e-06
1.01695e-08
3.6298e-09
1.35817e-06
9.77414e-09
3.03535e-09
1.35931e-06
9.26903e-09
2.27489e-09
8.44883e-09
1.2252e-09
1.53312e-06
3.64938e-09
2.36628e-09
1.54218e-06
9.6341e-09
6.2395e-09
1.55328e-06
1.36921e-08
8.87453e-09
1.56445e-06
1.59373e-08
1.03491e-08
1.57507e-06
1.69126e-08
1.09029e-08
1.5847e-06
1.69465e-08
1.07599e-08
1.593e-06
1.63777e-08
1.01515e-08
1.60007e-06
1.54472e-08
9.34409e-09
1.60621e-06
1.4346e-08
8.48032e-09
1.6117e-06
1.32524e-08
7.67061e-09
1.61676e-06
1.2261e-08
6.96207e-09
1.62157e-06
1.13986e-08
6.35697e-09
1.62624e-06
1.06661e-08
5.8377e-09
1.63085e-06
1.00497e-08
5.38927e-09
1.63544e-06
9.52828e-09
4.99943e-09
1.64008e-06
9.08063e-09
4.6589e-09
1.64479e-06
8.68018e-09
4.35118e-09
1.6496e-06
8.29432e-09
4.05859e-09
1.65451e-06
7.87311e-09
3.75013e-09
7.3834e-09
3.36939e-09
1.68027e-06
1.89119e-09
1.89124e-09
1.68934e-06
5.09969e-09
5.09984e-09
1.7018e-06
7.46481e-09
7.46508e-09
1.71578e-06
8.94696e-09
8.9474e-09
1.73021e-06
9.69437e-09
9.69508e-09
1.74439e-06
9.86282e-09
9.86397e-09
1.75783e-06
9.65489e-09
9.65668e-09
1.77033e-06
9.20283e-09
9.20556e-09
1.7818e-06
8.61868e-09
8.62279e-09
1.79233e-06
7.9959e-09
8.00213e-09
1.80208e-06
7.39904e-09
7.40874e-09
1.8112e-06
6.86011e-09
6.87565e-09
1.81983e-06
6.38957e-09
6.41489e-09
1.82807e-06
5.98589e-09
6.02732e-09
1.83604e-06
5.64136e-09
5.70813e-09
1.84381e-06
5.34479e-09
5.44869e-09
1.85147e-06
5.08446e-09
5.23948e-09
1.8591e-06
4.84287e-09
5.06413e-09
1.86674e-06
4.59423e-09
4.89538e-09
4.32182e-09
4.72131e-09
1.7569e-06
1.70638e-14
1.61331e-09
1.76589e-06
2.7869e-14
4.3843e-09
1.77878e-06
3.65249e-14
6.53205e-09
1.79389e-06
5.30032e-14
7.95142e-09
1.81003e-06
8.13295e-14
8.75609e-09
1.82639e-06
1.24673e-13
9.08598e-09
1.8424e-06
2.0951e-13
9.07211e-09
1.85772e-06
4.39283e-13
8.83552e-09
1.87216e-06
8.7298e-13
8.46118e-09
1.88564e-06
1.57232e-12
8.01506e-09
1.8982e-06
2.57932e-12
7.54836e-09
1.90993e-06
3.89251e-12
7.09812e-09
1.92096e-06
5.42857e-12
6.68854e-09
1.93143e-06
7.08551e-12
6.33308e-09
1.94145e-06
9.08462e-12
6.03731e-09
1.95113e-06
1.22255e-11
5.80203e-09
1.96056e-06
1.70826e-11
5.6158e-09
1.96981e-06
2.21498e-11
5.45409e-09
1.97893e-06
2.09245e-11
5.27075e-09
-7.34282e-12
5.16095e-09
1.7569e-06
-1.89125e-09
1.61326e-09
1.76589e-06
-5.09987e-09
4.38416e-09
1.77878e-06
-7.46514e-09
6.5318e-09
1.79389e-06
-8.94749e-09
7.951e-09
1.81003e-06
-9.69521e-09
8.75543e-09
1.82639e-06
-9.86415e-09
9.08497e-09
1.8424e-06
-9.65691e-09
9.07062e-09
1.85773e-06
-9.20587e-09
8.83327e-09
1.87217e-06
-8.62318e-09
8.45773e-09
1.88565e-06
-8.00263e-09
8.00972e-09
1.89822e-06
-7.40935e-09
7.54005e-09
1.90996e-06
-6.8764e-09
7.08514e-09
1.921e-06
-6.41582e-09
6.66829e-09
1.93147e-06
-6.0285e-09
6.30162e-09
1.94151e-06
-5.70964e-09
5.98878e-09
1.95121e-06
-5.45061e-09
5.72803e-09
1.96066e-06
-5.24197e-09
5.50662e-09
1.9699e-06
-5.06749e-09
5.29867e-09
1.97896e-06
-4.90017e-09
5.05949e-09
-4.72849e-09
4.89835e-09
1.68027e-06
-3.64957e-09
1.89119e-09
1.68934e-06
-9.63458e-09
5.09969e-09
1.70179e-06
-1.3693e-08
7.4648e-09
1.71578e-06
-1.59388e-08
8.94695e-09
1.73021e-06
-1.69152e-08
9.69436e-09
1.74438e-06
-1.69505e-08
9.86281e-09
1.75783e-06
-1.63838e-08
9.65488e-09
1.77033e-06
-1.5457e-08
9.20281e-09
1.7818e-06
-1.43612e-08
8.61865e-09
1.79233e-06
-1.32764e-08
7.99585e-09
1.80208e-06
-1.22991e-08
7.39896e-09
1.8112e-06
-1.14601e-08
6.85999e-09
1.81983e-06
-1.07652e-08
6.38941e-09
1.82807e-06
-1.02098e-08
5.9857e-09
1.83603e-06
-9.78586e-09
5.64107e-09
1.84381e-06
-9.48707e-09
5.34435e-09
1.85147e-06
-9.31008e-09
5.08383e-09
1.8591e-06
-9.24504e-09
4.84203e-09
1.86673e-06
-9.26e-09
4.59339e-09
-9.26518e-09
4.32134e-09
1.53312e-06
-4.93134e-09
2.36636e-09
1.54218e-06
-1.30096e-08
6.23969e-09
1.55327e-06
-1.72169e-08
8.87487e-09
1.56445e-06
-1.89013e-08
1.03497e-08
1.57507e-06
-1.95039e-08
1.09039e-08
1.5847e-06
-1.91188e-08
1.07612e-08
1.59298e-06
-1.8106e-08
1.01538e-08
1.60004e-06
-1.68193e-08
9.34779e-09
1.60617e-06
-1.54757e-08
8.48638e-09
1.61163e-06
-1.42517e-08
7.68122e-09
1.61666e-06
-1.32782e-08
6.98039e-09
1.62142e-06
-1.25234e-08
6.38692e-09
1.62599e-06
-1.19479e-08
5.88482e-09
1.63046e-06
-1.15273e-08
5.46099e-09
1.63485e-06
-1.12485e-08
5.10777e-09
1.63917e-06
-1.11074e-08
4.82675e-09
1.64345e-06
-1.11152e-08
4.61239e-09
1.6477e-06
-1.1302e-08
4.46325e-09
1.65193e-06
-1.16671e-08
4.37376e-09
-1.21201e-08
4.29337e-09
1.32762e-06
-5.56893e-09
2.71857e-09
1.33539e-06
-1.39004e-08
7.12184e-09
1.34286e-06
-1.62621e-08
9.55519e-09
1.34847e-06
-1.59093e-08
1.05808e-08
1.35197e-06
-1.5002e-08
1.08795e-08
1.35374e-06
-1.39326e-08
1.05873e-08
1.3544e-06
-1.29758e-08
9.90235e-09
1.35453e-06
-1.21128e-08
9.06281e-09
1.35448e-06
-1.13418e-08
8.22123e-09
1.35438e-06
-1.0687e-08
7.44118e-09
1.3543e-06
-1.01911e-08
6.76122e-09
1.35426e-06
-9.82804e-09
6.17986e-09
1.35427e-06
-9.57192e-09
5.69117e-09
1.35429e-06
-9.40916e-09
5.28847e-09
1.35429e-06
-9.32839e-09
4.97141e-09
1.35417e-06
-9.32467e-09
4.74641e-09
1.35382e-06
-9.40878e-09
4.62643e-09
1.35311e-06
-9.60721e-09
4.64306e-09
1.35189e-06
-9.9412e-09
4.82001e-09
-1.08452e-08
5.13806e-09
1.07432e-06
1.06506e-09
1.06824e-06
5.58751e-09
1.06138e-06
8.46582e-09
1.05338e-06
9.04274e-09
1.0451e-06
8.62258e-09
1.03721e-06
8.12851e-09
1.02982e-06
7.80003e-09
1.02281e-06
7.5765e-09
1.01597e-06
7.40556e-09
1.0092e-06
7.14508e-09
1.00254e-06
6.74463e-09
9.95949e-07
6.31121e-09
9.89362e-07
5.92332e-09
9.82704e-07
5.60665e-09
9.75894e-07
5.37128e-09
9.68828e-07
5.23261e-09
9.61353e-07
5.22455e-09
9.53266e-07
5.40284e-09
9.44589e-07
5.8497e-09
7.31312e-09
1.16914e-06
4.9066e-09
-9.40739e-14
1.16312e-06
1.16086e-08
-4.16348e-13
1.15731e-06
1.42755e-08
-8.73142e-13
1.15202e-06
1.43331e-08
-1.4694e-12
1.14691e-06
1.37285e-08
-2.41744e-12
1.14208e-06
1.29657e-08
-4.03831e-12
1.13778e-06
1.20946e-08
-6.7975e-12
1.13405e-06
1.12978e-08
-1.12781e-11
1.13081e-06
1.06325e-08
-1.86681e-11
1.12778e-06
1.01605e-08
-3.07314e-11
1.12465e-06
9.84856e-09
-5.03388e-11
1.1213e-06
9.61577e-09
-8.21501e-11
1.1177e-06
9.45526e-09
-1.33726e-10
1.11382e-06
9.36835e-09
-2.17053e-10
1.10964e-06
9.3358e-09
-3.50095e-10
1.10517e-06
9.3383e-09
-5.57316e-10
1.1004e-06
9.36312e-09
-8.79218e-10
1.09527e-06
9.40563e-09
-1.36953e-09
1.08967e-06
9.46498e-09
-2.05014e-09
9.58048e-09
-3.13724e-09
1.41518e-06
4.19297e-09
-1.49505e-13
1.42279e-06
1.11161e-08
-4.18565e-13
1.43152e-06
1.50988e-08
-7.09049e-13
1.43981e-06
1.66293e-08
-1.22554e-12
1.44714e-06
1.72743e-08
-2.13888e-12
1.45319e-06
1.7507e-08
-3.57565e-12
1.45803e-06
1.71481e-08
-5.76306e-12
1.46196e-06
1.64283e-08
-9.28444e-12
1.46528e-06
1.55339e-08
-1.52407e-11
1.46823e-06
1.46394e-08
-2.57187e-11
1.47102e-06
1.38065e-08
-4.32182e-11
1.47372e-06
1.30716e-08
-7.10641e-11
1.47632e-06
1.25009e-08
-1.14973e-10
1.47882e-06
1.21037e-08
-1.82139e-10
1.4812e-06
1.18353e-08
-2.8615e-10
1.48347e-06
1.16476e-08
-4.492e-10
1.48565e-06
1.15089e-08
-7.01474e-10
1.48777e-06
1.14083e-08
-1.08464e-09
1.48981e-06
1.13343e-08
-1.63925e-09
1.11848e-08
-2.34262e-09
1.61424e-06
3.09282e-09
-1.07608e-13
1.62332e-06
8.27397e-09
-2.6147e-13
1.63534e-06
1.1957e-08
-4.45959e-13
1.6482e-06
1.4114e-08
-7.52341e-13
1.66118e-06
1.51992e-08
-1.26636e-12
1.67387e-06
1.55806e-08
-2.01382e-12