/*--------------------------------*- C++ -*----------------------------------*\
| =========                 |                                                 |
| \\      /  F ield         | OpenFOAM: The Open Source CFD Toolbox           |
|  \\    /   O peration     | Version:  2212                                  |
|   \\  /    A nd           | Website:  www.openfoam.com                      |
|    \\/     M anipulation  |                                                 |
\*---------------------------------------------------------------------------*/
FoamFile
{
    version     2.0;
    format      ascii;
    arch        "LSB;label=32;scalar=64";
    class       volVectorField;
    location    "1.75";
    object      U;
}
// * * * * * * * * * * * * * * * * * * * * * * * * * * * * * * * * * * * * * //

dimensions      [0 1 -1 0 0 0 0];

internalField   nonuniform List<vector> 
6840
(
(0.0956456 -0.00836005 -0.00836005)
(0.0904939 0.00152202 0.00152206)
(0.0790682 0.00242971 0.0024298)
(0.071301 0.00148767 0.00148784)
(0.0661791 0.00083031 0.000830593)
(0.0623221 0.000563433 0.000563886)
(0.0592199 0.000425802 0.000426691)
(0.0566835 0.000323028 0.000324491)
(0.0545475 0.000251569 0.000253969)
(0.0526936 0.000200195 0.000204164)
(0.0510527 0.000162306 0.000168967)
(0.0495859 0.000133766 0.000144767)
(0.0482609 0.000109787 0.000127806)
(0.0470496 8.75141e-05 0.000116061)
(0.045939 6.28889e-05 0.000109788)
(0.0449214 3.12953e-05 0.000110507)
(0.0440034 -2.96371e-06 0.0001219)
(0.0432116 -6.92647e-05 0.000141911)
(0.0427844 -0.000231943 0.00018119)
(0.041303 -0.0014973 -0.000587082)
(0.0999088 0.001297 0.000712564)
(0.0969668 0.00365588 0.00274726)
(0.0935344 0.00264021 0.00211816)
(0.0895889 0.00182045 0.00162063)
(0.0858314 0.00152879 0.0013906)
(0.0825889 0.00135131 0.00116115)
(0.0798633 0.00117932 0.000897139)
(0.0775636 0.00104054 0.000692146)
(0.075552 0.00094288 0.000560473)
(0.0737413 0.000865845 0.000479823)
(0.0720843 0.000793543 0.000432991)
(0.0705502 0.000720906 0.000406077)
(0.069118 0.000651335 0.00039079)
(0.0677697 0.000587871 0.000380741)
(0.0664878 0.000527004 0.000378826)
(0.0652552 0.00045825 0.000382089)
(0.064068 0.000358276 0.000382072)
(0.0629154 0.000198515 0.000365773)
(0.0618515 -7.32174e-05 0.000329239)
(0.0604662 -0.000305502 0.000684975)
(0.099413 0.000345239 0.000270237)
(0.0988664 0.00201909 0.00187492)
(0.0979214 0.00257323 0.00218901)
(0.0963657 0.00238004 0.00190837)
(0.094633 0.00211443 0.00162658)
(0.0929717 0.00192727 0.00141834)
(0.0913632 0.00180241 0.00127062)
(0.0898525 0.00170713 0.00115903)
(0.0884521 0.00160781 0.00106825)
(0.087154 0.00149943 0.000995576)
(0.08595 0.00139224 0.000945802)
(0.0848247 0.0012938 0.000916233)
(0.0837581 0.00120527 0.000902017)
(0.0827331 0.00112423 0.000898561)
(0.0817359 0.00104808 0.000902965)
(0.0807538 0.000974746 0.000914261)
(0.0797691 0.000901208 0.000932811)
(0.0787482 0.000820832 0.000958568)
(0.0776099 0.000758888 0.00102662)
(0.0763012 0.000877106 0.00138894)
(0.0995405 0.000245051 0.000321904)
(0.0992576 0.00105566 0.00154095)
(0.0988489 0.00150244 0.00211447)
(0.0981248 0.00157959 0.00209163)
(0.0973369 0.00151508 0.00188608)
(0.0965851 0.00144689 0.00166573)
(0.0958657 0.00141093 0.00149766)
(0.0951982 0.0013803 0.00137098)
(0.0945699 0.00133544 0.00128392)
(0.0939253 0.00126569 0.00122818)
(0.0932973 0.00117808 0.00119097)
(0.0926837 0.00108563 0.00116846)
(0.0920747 0.000999123 0.00115738)
(0.0914622 0.000923806 0.00115525)
(0.0908392 0.000861103 0.00116089)
(0.0901976 0.000811667 0.00117366)
(0.0895267 0.000777402 0.00119452)
(0.0888135 0.000765611 0.00122801)
(0.0880022 0.00079931 0.00128839)
(0.087134 0.00102172 0.00147351)
(0.0993802 3.37874e-05 5.90042e-05)
(0.0992677 0.000274444 0.00120007)
(0.0989805 0.000432474 0.00188846)
(0.0984748 0.000483612 0.00200635)
(0.097996 0.000479056 0.00191441)
(0.0975718 0.000465811 0.00173431)
(0.0971828 0.000453252 0.00154658)
(0.0968342 0.000442911 0.0013874)
(0.0965359 0.000437058 0.00126814)
(0.0962844 0.000429788 0.00119642)
(0.0960151 0.00041371 0.00116744)
(0.0957292 0.000391806 0.00116305)
(0.0954265 0.000370293 0.00116887)
(0.0950977 0.000353826 0.00117971)
(0.0947372 0.000345911 0.00119482)
(0.0943421 0.000350425 0.00121474)
(0.0939096 0.000374001 0.00124165)
(0.0934377 0.000423687 0.00127812)
(0.0929026 0.000504358 0.00132321)
(0.0923272 0.000677715 0.00142838)
(0.0993802 -3.37661e-05 5.89731e-05)
(0.0992678 -0.000274336 0.00120004)
(0.0989805 -0.000432251 0.00188845)
(0.098475 -0.000483236 0.00200632)
(0.0979963 -0.00047843 0.00191435)
(0.0975723 -0.000464753 0.00173418)
(0.0971837 -0.000451459 0.00154639)
(0.0968356 -0.000439922 0.00138707)
(0.0965383 -0.000432093 0.00126755)
(0.0962884 -0.000421578 0.00119539)
(0.0960217 -0.000400217 0.00116576)
(0.09574 -0.000369733 0.00116035)
(0.0954441 -0.000334293 0.00116446)
(0.0951265 -0.000295266 0.00117243)
(0.0947835 -0.000251048 0.00118293)
(0.0944149 -0.000198295 0.0011957)
(0.0940209 -0.000131279 0.0012107)
(0.0935988 -4.04709e-05 0.00122923)
(0.0931447 8.03704e-05 0.00125493)
(0.0926807 0.000232846 0.00130775)
(0.0995405 -0.000245041 0.000321902)
(0.0992576 -0.00105561 0.00154093)
(0.098849 -0.00150234 0.00211442)
(0.0981251 -0.00157943 0.00209155)
(0.0973375 -0.00151477 0.00188596)
(0.0965862 -0.00144632 0.00166554)
(0.0958677 -0.00140997 0.00149742)
(0.0952017 -0.00137874 0.00137055)
(0.0945758 -0.00133279 0.00128309)
(0.0939352 -0.00126143 0.00122645)
(0.0933139 -0.00117134 0.0011876)
(0.0927111 -0.00107465 0.00116272)
(0.0921198 -0.00098088 0.00114774)
(0.091536 -0.000892685 0.00113966)
(0.0909591 -0.000807233 0.00113623)
(0.0903907 -0.000718734 0.00113237)
(0.0898323 -0.000615793 0.00112301)
(0.0892816 -0.000475826 0.00109946)
(0.0887426 -0.00027204 0.00106073)
(0.088166 3.48482e-05 0.000967409)
(0.099413 -0.000345249 0.000270233)
(0.0988664 -0.00201913 0.00187489)
(0.0979215 -0.00257331 0.00218893)
(0.096366 -0.00238017 0.00190823)
(0.0946337 -0.00211463 0.00162638)
(0.0929728 -0.00192761 0.00141805)
(0.0913653 -0.00180291 0.00127013)
(0.089856 -0.00170793 0.00115821)
(0.0884581 -0.00160913 0.00106693)
(0.087164 -0.00150159 0.000993406)
(0.085967 -0.00139579 0.000942351)
(0.0848533 -0.00129949 0.000910381)
(0.0838059 -0.00121405 0.000892011)
(0.0828131 -0.00113701 0.00088152)
(0.0818707 -0.00106551 0.000873621)
(0.0809832 -0.000995795 0.000862084)
(0.0801648 -0.000917322 0.000835165)
(0.0794484 -0.000798359 0.000764213)
(0.0789129 -0.000595333 0.000639111)
(0.0779288 -0.000135323 0.000181145)
(0.0999088 -0.00129701 0.000712559)
(0.0969668 -0.00365596 0.00274723)
(0.0935345 -0.00264034 0.00211809)
(0.0895891 -0.00182068 0.0016205)
(0.0858317 -0.00152922 0.00139041)
(0.0825894 -0.00135198 0.00116079)
(0.0798642 -0.00118059 0.000896516)
(0.0775652 -0.00104271 0.000691173)
(0.0755548 -0.00094658 0.000558876)
(0.0737462 -0.000872131 0.000477161)
(0.0720928 -0.000804253 0.000427958)
(0.0705652 -0.000738721 0.000397468)
(0.0691446 -0.000680514 0.000376701)
(0.067815 -0.000635168 0.000365182)
(0.0665657 -0.000605118 0.000357166)
(0.0653931 -0.00058842 0.000344651)
(0.0643229 -0.000579783 0.000307616)
(0.0634192 -0.000564868 0.000201121)
(0.0629253 -0.00057468 6.34663e-05)
(0.0607885 -0.000200948 -0.00046483)
(0.0956456 0.00836005 -0.00836005)
(0.0904939 -0.00152206 0.00152202)
(0.0790682 -0.0024298 0.00242971)
(0.071301 -0.00148784 0.00148767)
(0.0661791 -0.000830594 0.00083031)
(0.0623221 -0.000563887 0.000563431)
(0.0592199 -0.000426694 0.000425799)
(0.0566835 -0.000324496 0.000323025)
(0.0545475 -0.000253975 0.000251563)
(0.0526936 -0.000204172 0.000200189)
(0.0510527 -0.000168978 0.000162298)
(0.0495859 -0.000144779 0.000133753)
(0.0482609 -0.000127814 0.000109762)
(0.0470496 -0.000116081 8.75022e-05)
(0.0459391 -0.000109804 6.28932e-05)
(0.0449215 -0.000110475 3.12843e-05)
(0.0440036 -0.000121816 -2.96972e-06)
(0.043212 -0.000141746 -6.92572e-05)
(0.0427853 -0.000180926 -0.000231916)
(0.0413058 0.000587707 -0.00149759)
(0.0999088 0.000712559 0.00129701)
(0.0969668 0.00274723 0.00365596)
(0.0935345 0.00211809 0.00264034)
(0.0895891 0.0016205 0.00182068)
(0.0858317 0.00139041 0.00152922)
(0.0825894 0.00116079 0.00135198)
(0.0798642 0.000896517 0.00118058)
(0.0775653 0.000691174 0.00104271)
(0.0755548 0.000558878 0.000946576)
(0.0737462 0.000477163 0.000872125)
(0.0720928 0.00042796 0.000804245)
(0.0705652 0.00039747 0.00073871)
(0.0691447 0.000376706 0.000680506)
(0.0678151 0.000365206 0.000635187)
(0.0665657 0.000357179 0.000605168)
(0.0653931 0.000344644 0.000588531)
(0.0643228 0.000307599 0.000580016)
(0.063419 0.000201117 0.000565351)
(0.0629247 6.36448e-05 0.000575712)
(0.0607868 -0.000463621 0.000202463)
(0.100226 0.000720811 0.000720828)
(0.09996 0.00198274 0.0019828)
(0.0997821 0.00245183 0.00245198)
(0.0987879 0.00241961 0.00241987)
(0.0972751 0.00220078 0.00220119)
(0.095774 0.00181132 0.00181204)
(0.0943915 0.00138209 0.00138327)
(0.0931616 0.00106957 0.00107154)
(0.0920731 0.00085296 0.000856325)
(0.0911083 0.000699847 0.000705628)
(0.0902515 0.000586057 0.000596328)
(0.0894797 0.000498648 0.000515773)
(0.0887714 0.000430732 0.000458597)
(0.0881169 0.000375846 0.000417392)
(0.0875131 0.000320572 0.000388653)
(0.0869589 0.000255848 0.000369577)
(0.0864394 0.000167368 0.000361745)
(0.0859218 3.37372e-05 0.000371027)
(0.0853669 -0.000249237 0.000331861)
(0.0850492 -0.000900125 7.50112e-05)
(0.10014 0.000775026 0.000869275)
(0.100454 0.00196244 0.00196365)
(0.100911 0.0024276 0.00233467)
(0.100978 0.00252667 0.00244148)
(0.100693 0.00242635 0.00233703)
(0.100223 0.00219761 0.00211276)
(0.0997073 0.00191695 0.00182364)
(0.0991809 0.00166632 0.00157618)
(0.0986843 0.0014637 0.00139093)
(0.0982338 0.00129749 0.00125196)
(0.0978353 0.00116042 0.00115011)
(0.0974841 0.00104708 0.00107828)
(0.0971744 0.000952522 0.00102887)
(0.0969 0.00086965 0.000995016)
(0.0966527 0.000794078 0.0009741)
(0.0964225 0.000720884 0.000966815)
(0.0961939 0.000644305 0.000975218)
(0.095945 0.000561505 0.00100324)
(0.0956451 0.000465278 0.00104937)
(0.0956645 0.000351461 0.00107568)
(0.100093 0.00044595 0.000763216)
(0.100504 0.00119456 0.00174906)
(0.101105 0.00158695 0.00212962)
(0.101634 0.00174067 0.00223482)
(0.101979 0.00178267 0.00228721)
(0.102171 0.00172969 0.00223603)
(0.102252 0.00160924 0.00211602)
(0.102275 0.00146223 0.00196475)
(0.102276 0.00130836 0.00180236)
(0.102268 0.00116221 0.00165311)
(0.102259 0.001038 0.00154472)
(0.102254 0.000934496 0.00146883)
(0.102252 0.000846192 0.00141639)
(0.102254 0.000770581 0.00138266)
(0.102256 0.000706517 0.00136499)
(0.102253 0.000652894 0.00136242)
(0.102236 0.000609441 0.00137646)
(0.102196 0.000579221 0.00141088)
(0.102132 0.000566527 0.00146455)
(0.1023 0.000578488 0.00152445)
(0.100087 0.000144419 0.000707029)
(0.100477 0.00039059 0.00161781)
(0.101066 0.00054128 0.00203466)
(0.101694 0.000610428 0.0021176)
(0.102269 0.00063648 0.00214998)
(0.102742 0.000627573 0.00217935)
(0.103124 0.000596008 0.0021334)
(0.103428 0.000551223 0.00204319)
(0.103681 0.000507017 0.00193326)
(0.1039 0.000466408 0.00182647)
(0.104098 0.000426873 0.00172705)
(0.104289 0.000389962 0.00163881)
(0.104472 0.000359639 0.00157582)
(0.104645 0.000336685 0.00154037)
(0.104805 0.000321639 0.00152491)
(0.104949 0.000317121 0.00152262)
(0.105076 0.000326436 0.00153123)
(0.105186 0.000354579 0.00155161)
(0.105283 0.000405333 0.00158295)
(0.105533 0.000474241 0.00161903)
(0.100087 -0.000144385 0.000707025)
(0.100477 -0.000390492 0.0016178)
(0.101066 -0.000541111 0.00203465)
(0.101695 -0.000610141 0.00211756)
(0.102269 -0.000635977 0.00214986)
(0.102743 -0.000626723 0.00217912)
(0.103125 -0.000594635 0.00213306)
(0.10343 -0.000548999 0.00204267)
(0.103683 -0.000503316 0.00193247)
(0.103903 -0.000460082 0.0018252)
(0.104103 -0.00041617 0.00172503)
(0.104296 -0.000372312 0.00163539)
(0.104485 -0.000331074 0.00156983)
(0.104665 -0.000291525 0.00153033)
(0.104838 -0.000250819 0.00150859)
(0.105002 -0.000205711 0.0014966)
(0.105159 -0.000151151 0.00149036)
(0.10531 -8.13753e-05 0.00148847)
(0.105465 9.79251e-06 0.00148901)
(0.105696 0.00012061 0.00147316)
(0.100093 -0.000445945 0.000763207)
(0.100504 -0.00119455 0.00174903)
(0.101105 -0.00158691 0.00212955)
(0.101635 -0.00174059 0.00223461)
(0.101979 -0.00178254 0.00228683)
(0.102172 -0.00172949 0.00223548)
(0.102253 -0.00160888 0.00211519)
(0.102278 -0.00146163 0.00196346)
(0.102281 -0.00130738 0.00180041)
(0.102274 -0.00116033 0.00164997)
(0.10227 -0.00103468 0.0015393)
(0.102273 -0.000929253 0.00145975)
(0.102283 -0.000837875 0.00140129)
(0.102305 -0.00075777 0.00135758)
(0.102339 -0.000685712 0.00132347)
(0.102383 -0.00061598 0.00129387)
(0.10244 -0.000545229 0.00126331)
(0.102509 -0.000468087 0.00122536)
(0.102594 -0.000375525 0.00117177)
(0.102697 -0.000243274 0.00105682)
(0.10014 -0.000775044 0.000869253)
(0.100454 -0.00196249 0.00196357)
(0.100911 -0.00242769 0.0023345)
(0.100978 -0.00252685 0.00244119)
(0.100694 -0.00242666 0.00233659)
(0.100224 -0.00219814 0.00211215)
(0.0997085 -0.00191777 0.00182269)
(0.0991829 -0.00166758 0.00157451)
(0.0986877 -0.00146581 0.0013881)
(0.0982397 -0.00130114 0.00124724)
(0.0978455 -0.0011664 0.00114225)
(0.0975013 -0.00105697 0.00106522)
(0.0972029 -0.000968999 0.00100727)
(0.0969462 -0.000898861 0.00095933)
(0.0967272 -0.000841206 0.000914757)
(0.0965435 -0.000794046 0.000867317)
(0.09639 -0.000754095 0.000805714)
(0.0962595 -0.000714167 0.000708763)
(0.0961273 -0.000665335 0.000549164)
(0.0960667 -0.000543926 0.000246553)
(0.100226 -0.000720828 0.000720811)
(0.09996 -0.0019828 0.00198273)
(0.0997821 -0.00245198 0.00245183)
(0.0987879 -0.00241987 0.00241961)
(0.0972751 -0.0022012 0.00220078)
(0.095774 -0.00181205 0.00181132)
(0.0943915 -0.00138328 0.00138209)
(0.0931616 -0.00107156 0.00106957)
(0.0920731 -0.000856344 0.000852956)
(0.0911083 -0.000705652 0.000699841)
(0.0902515 -0.000596357 0.000586046)
(0.0894797 -0.000515798 0.000498621)
(0.0887714 -0.000458597 0.000430665)
(0.0881169 -0.000417466 0.000375835)
(0.087513 -0.000388765 0.000320622)
(0.0869589 -0.000369588 0.000255816)
(0.0864396 -0.000361659 0.000167273)
(0.0859222 -0.000370795 3.35651e-05)
(0.0853679 -0.000331254 -0.000249666)
(0.0850507 -7.45826e-05 -0.000900236)
(0.0999088 -0.000712564 0.001297)
(0.0969668 -0.00274726 0.00365588)
(0.0935344 -0.00211816 0.00264021)
(0.0895889 -0.00162064 0.00182044)
(0.0858314 -0.00139061 0.00152879)
(0.0825889 -0.00116116 0.0013513)
(0.0798633 -0.000897148 0.00117932)
(0.0775636 -0.000692158 0.00104053)
(0.075552 -0.00056049 0.000942873)
(0.0737413 -0.000479844 0.000865836)
(0.0720843 -0.000433019 0.000793532)
(0.0705502 -0.000406106 0.000720887)
(0.069118 -0.000390834 0.000651308)
(0.0677696 -0.000380773 0.000587817)
(0.0664879 -0.000378829 0.000526949)
(0.0652554 -0.000382104 0.000458209)
(0.0640683 -0.000382096 0.000358249)
(0.062916 -0.000365768 0.000198468)
(0.0618528 -0.000329047 -7.33423e-05)
(0.0604686 -0.000684603 -0.000305753)
(0.099413 0.000270233 0.000345248)
(0.0988664 0.00187489 0.00201913)
(0.0979215 0.00218893 0.00257331)
(0.096366 0.00190823 0.00238017)
(0.0946337 0.00162638 0.00211462)
(0.0929728 0.00141805 0.0019276)
(0.0913653 0.00127013 0.0018029)
(0.089856 0.00115821 0.00170792)
(0.0884581 0.00106693 0.00160911)
(0.0871641 0.000993407 0.00150157)
(0.085967 0.00094235 0.00139577)
(0.0848533 0.000910377 0.00129946)
(0.083806 0.000891996 0.001214)
(0.0828132 0.000881504 0.00113698)
(0.0818708 0.000873612 0.00106553)
(0.0809834 0.000862051 0.000995859)
(0.0801652 0.000835064 0.000917461)
(0.079449 0.000764023 0.000798692)
(0.0789139 0.000638985 0.000596166)
(0.0779259 0.000183066 0.000139885)
(0.10014 0.000869254 0.000775044)
(0.100454 0.00196357 0.00196249)
(0.100911 0.0023345 0.00242769)
(0.100978 0.00244119 0.00252685)
(0.100694 0.00233659 0.00242665)
(0.100224 0.00211215 0.00219813)
(0.0997085 0.00182269 0.00191776)
(0.0991829 0.00157452 0.00166756)
(0.0986877 0.0013881 0.00146579)
(0.0982397 0.00124725 0.00130111)
(0.0978455 0.00114226 0.00116636)
(0.0975013 0.00106524 0.00105693)
(0.0972029 0.00100727 0.000968935)
(0.0969462 0.000959333 0.000898787)
(0.0967273 0.000914789 0.000841142)
(0.0965436 0.000867368 0.000794008)
(0.09639 0.000805791 0.000754115)
(0.0962595 0.000708827 0.000714228)
(0.0961276 0.00054937 0.000665535)
(0.0960669 0.000247674 0.000544665)
(0.10006 0.000641411 0.000641438)
(0.100501 0.0016451 0.00164518)
(0.101149 0.00221251 0.00221266)
(0.101738 0.00244014 0.00244039)
(0.102204 0.00244214 0.00244255)
(0.102501 0.00231375 0.00231439)
(0.102644 0.00209285 0.00209391)
(0.102713 0.00186946 0.00187116)
(0.102737 0.00167167 0.00167445)
(0.10275 0.0015056 0.00151019)
(0.102766 0.00136758 0.0013751)
(0.102796 0.00125317 0.00126545)
(0.102843 0.00115814 0.00117816)
(0.102908 0.0010777 0.00111036)
(0.10299 0.00100687 0.00105979)
(0.103087 0.000940814 0.00102581)
(0.103193 0.000874318 0.00100942)
(0.103303 0.000801438 0.00101256)
(0.103421 0.000709678 0.00102833)
(0.103676 0.000606087 0.00103687)
(0.100046 0.000395744 0.000540276)
(0.10048 0.00104494 0.00138419)
(0.101154 0.00147551 0.00192311)
(0.101913 0.0017055 0.00219278)
(0.102632 0.00178049 0.00229436)
(0.103301 0.00174547 0.00227867)
(0.103893 0.00163517 0.0021862)
(0.104389 0.00149307 0.00205339)
(0.104815 0.00134749 0.00190627)
(0.105191 0.00121371 0.00176763)
(0.105532 0.00109664 0.00164645)
(0.105849 0.00099679 0.00154476)
(0.106153 0.000911541 0.00146299)
(0.106447 0.000838105 0.00140046)
(0.106737 0.000774699 0.00135609)
(0.107021 0.000721013 0.00132926)
(0.107302 0.000675368 0.00132061)
(0.107578 0.000636355 0.0013309)
(0.107866 0.000601613 0.00135527)
(0.108267 0.000568279 0.0013789)
(0.100039 0.000131362 0.000478782)
(0.100448 0.000350574 0.00123481)
(0.101114 0.000505216 0.00174651)
(0.101909 0.000597419 0.00202682)
(0.102729 0.000638954 0.00215205)
(0.103529 0.000638851 0.00218628)
(0.104298 0.000605506 0.00215293)
(0.105008 0.000560852 0.00207879)
(0.105643 0.000512706 0.00197979)
(0.106216 0.000466149 0.00187201)
(0.106739 0.000424214 0.00176709)
(0.10722 0.000387939 0.00167247)
(0.107669 0.000357355 0.00159355)
(0.108096 0.000332189 0.00153302)
(0.108508 0.000312492 0.0014904)
(0.10891 0.000299423 0.00146411)
(0.109301 0.000293005 0.00145052)
(0.109684 0.000294196 0.00144856)
(0.110073 0.000304075 0.00145465)
(0.110532 0.000313634 0.00145974)
(0.100039 -0.000131341 0.000478772)
(0.100448 -0.00035052 0.00123478)
(0.101114 -0.000505122 0.00174646)
(0.101909 -0.000597264 0.00202673)
(0.102729 -0.0006387 0.0021519)
(0.10353 -0.000638442 0.00218603)
(0.104298 -0.000604828 0.00215254)
(0.105008 -0.000559764 0.00207819)
(0.105644 -0.000510924 0.00197885)
(0.106218 -0.000463196 0.0018705)
(0.106742 -0.000419363 0.00176461)
(0.107224 -0.000380138 0.00166836)
(0.107676 -0.000345097 0.00158673)
(0.108106 -0.000313311 0.00152186)
(0.108524 -0.000283611 0.0014724)
(0.108933 -0.0002553 0.00143557)
(0.109335 -0.000226091 0.00140672)
(0.109734 -0.000193987 0.00138253)
(0.11014 -0.000156672 0.00135859)
(0.110588 -0.000116707 0.00132788)
(0.100046 -0.000395751 0.000540251)
(0.10048 -0.00104496 0.00138412)
(0.101154 -0.00147554 0.00192299)
(0.101913 -0.00170555 0.00219255)
(0.102632 -0.00178058 0.00229399)
(0.103301 -0.00174561 0.00227808)
(0.103894 -0.00163542 0.00218525)
(0.10439 -0.00149345 0.00205185)
(0.104817 -0.00134809 0.00190386)
(0.105195 -0.00121455 0.00176383)
(0.105537 -0.00109782 0.00164035)
(0.105857 -0.000998608 0.00153478)
(0.106165 -0.000914491 0.0014467)
(0.106467 -0.000843129 0.00137378)
(0.106767 -0.000783042 0.0013125)
(0.107069 -0.00073351 0.00125939)
(0.107373 -0.000693259 0.00121015)
(0.107684 -0.000660357 0.00115971)
(0.108009 -0.000630556 0.00110059)
(0.108388 -0.000590807 0.0010289)
(0.10006 -0.000641439 0.00064141)
(0.100501 -0.00164518 0.0016451)
(0.101149 -0.00221266 0.00221251)
(0.101738 -0.0024404 0.00244014)
(0.102204 -0.00244256 0.00244214)
(0.102501 -0.0023144 0.00231375)
(0.102644 -0.00209392 0.00209285)
(0.102713 -0.00187118 0.00186946)
(0.102737 -0.00167448 0.00167166)
(0.10275 -0.00151023 0.00150559)
(0.102766 -0.00137514 0.00136756)
(0.102796 -0.0012655 0.00125313)
(0.102843 -0.00117823 0.00115809)
(0.102908 -0.00111047 0.00107765)
(0.10299 -0.00105993 0.0010068)
(0.103087 -0.00102594 0.000940671)
(0.103193 -0.00100955 0.000874082)
(0.103303 -0.00101271 0.00080109)
(0.103421 -0.00102865 0.000709194)
(0.103675 -0.0010381 0.000605995)
(0.10014 -0.000869275 0.000775026)
(0.100454 -0.00196365 0.00196244)
(0.100911 -0.00233467 0.0024276)
(0.100978 -0.00244148 0.00252667)
(0.100693 -0.00233703 0.00242635)
(0.100223 -0.00211277 0.00219761)
(0.0997073 -0.00182366 0.00191694)
(0.0991809 -0.0015762 0.00166631)
(0.0986843 -0.00139095 0.00146369)
(0.0982338 -0.00125199 0.00129747)
(0.0978353 -0.00115015 0.0011604)
(0.0974841 -0.00107832 0.00104704)
(0.0971744 -0.00102891 0.000952449)
(0.0969 -0.000995095 0.000869589)
(0.0966527 -0.000974204 0.000794005)
(0.0964224 -0.000966861 0.000720718)
(0.0961939 -0.000975188 0.000644022)
(0.0959451 -0.00100309 0.000561036)
(0.0956453 -0.00104897 0.000464485)
(0.0956644 -0.00107531 0.000350607)
(0.099413 -0.000270236 0.000345238)
(0.0988664 -0.00187492 0.00201909)
(0.0979214 -0.00218901 0.00257323)
(0.0963657 -0.00190837 0.00238004)
(0.094633 -0.00162658 0.00211442)
(0.0929717 -0.00141835 0.00192726)
(0.0913632 -0.00127063 0.0018024)
(0.0898525 -0.00115904 0.00170712)
(0.0884521 -0.00106827 0.00160779)
(0.0871539 -0.000995599 0.0014994)
(0.08595 -0.00094583 0.00139221)
(0.0848247 -0.00091627 0.00129376)
(0.0837581 -0.000902064 0.00120521)
(0.0827331 -0.000898578 0.00112412)
(0.081736 -0.000902946 0.0010479)
(0.0807539 -0.000914241 0.000974518)
(0.0797694 -0.000932769 0.000900906)
(0.0787488 -0.000958452 0.00082038)
(0.077611 -0.00102633 0.000758098)
(0.0763033 -0.00138792 0.000875709)
(0.0995405 0.000321902 0.000245041)
(0.0992576 0.00154094 0.00105561)
(0.098849 0.00211442 0.00150234)
(0.0981251 0.00209155 0.00157942)
(0.0973375 0.00188596 0.00151477)
(0.0965862 0.00166554 0.00144632)
(0.0958677 0.00149742 0.00140996)
(0.0952017 0.00137055 0.00137873)
(0.0945758 0.00128309 0.00133277)
(0.0939352 0.00122645 0.0012614)
(0.0933139 0.0011876 0.0011713)
(0.0927112 0.00116272 0.0010746)
(0.0921198 0.00114773 0.000980822)
(0.0915361 0.00113961 0.000892621)
(0.0909593 0.00113613 0.000807153)
(0.0903911 0.0011322 0.000718622)
(0.0898329 0.00112266 0.000615619)
(0.0892827 0.00109879 0.000475572)
(0.0887449 0.00105962 0.000271633)
(0.088169 0.000966028 -3.51068e-05)
(0.100093 0.000763208 0.000445945)
(0.100504 0.00174904 0.00119455)
(0.101105 0.00212955 0.00158691)
(0.101635 0.00223461 0.00174059)
(0.101979 0.00228683 0.00178253)
(0.102172 0.00223548 0.00172948)
(0.102253 0.00211519 0.00160887)
(0.102278 0.00196346 0.0014616)
(0.102281 0.00180041 0.00130735)
(0.102274 0.00164997 0.0011603)
(0.10227 0.0015393 0.00103464)
(0.102273 0.00145975 0.000929195)
(0.102283 0.00140126 0.000837794)
(0.102306 0.00135756 0.000757681)
(0.102339 0.00132344 0.000685614)
(0.102383 0.00129377 0.000615845)
(0.102439 0.00126312 0.000545051)
(0.102509 0.00122503 0.000467858)
(0.102594 0.0011716 0.000375417)
(0.102696 0.00106002 0.000245122)
(0.100046 0.000540252 0.000395751)
(0.10048 0.00138412 0.00104496)
(0.101154 0.00192299 0.00147554)
(0.101913 0.00219255 0.00170554)
(0.102632 0.00229399 0.00178057)
(0.103301 0.00227808 0.0017456)
(0.103894 0.00218526 0.00163539)
(0.10439 0.00205186 0.00149342)
(0.104817 0.00190387 0.00134805)
(0.105195 0.00176384 0.0012145)
(0.105537 0.00164036 0.00109776)
(0.105857 0.0015348 0.000998535)
(0.106165 0.00144672 0.000914397)
(0.106467 0.00137381 0.000843004)
(0.106767 0.00131254 0.000782884)
(0.107069 0.00125945 0.000733307)
(0.107373 0.00121025 0.000692997)
(0.107684 0.00115987 0.000659989)
(0.108009 0.00110093 0.000629991)
(0.108387 0.00102961 0.000589831)
(0.100036 0.000323153 0.000323169)
(0.100429 0.000868701 0.000868745)
(0.10108 0.00126244 0.00126252)
(0.101891 0.00150443 0.00150456)
(0.102756 0.00162167 0.00162188)
(0.103616 0.00164285 0.00164318)
(0.104446 0.00160475 0.00160525)
(0.105223 0.00152642 0.00152721)
(0.105937 0.00142688 0.00142813)
(0.106591 0.00132197 0.00132393)
(0.107194 0.00122208 0.0012252)
(0.107755 0.00113212 0.0011371)
(0.108282 0.0010535 0.00106142)
(0.108784 0.000985797 0.000998336)
(0.109266 0.000927765 0.000947436)
(0.109734 0.000877723 0.000908059)
(0.110192 0.000833566 0.000879205)
(0.110647 0.000792569 0.000858688)
(0.11111 0.000750738 0.000842891)
(0.111627 0.000705494 0.00082657)
(0.100031 0.00010709 0.000281389)
(0.100395 0.000293083 0.00076865)
(0.101024 0.000434143 0.0011331)
(0.101844 0.000526332 0.00136925)
(0.102751 0.000576511 0.00150149)
(0.103688 0.000591982 0.00155427)
(0.104617 0.000582687 0.00154923)
(0.105515 0.000558232 0.00150825)
(0.106366 0.000524839 0.00144452)
(0.107163 0.000488036 0.00136829)
(0.107904 0.000452084 0.00128819)
(0.108596 0.000419339 0.00121081)
(0.109243 0.000390738 0.00114063)
(0.109854 0.000366294 0.00108011)
(0.110436 0.00034549 0.00103045)
(0.110997 0.000327381 0.000992305)
(0.11154 0.000311356 0.00096406)
(0.112072 0.000296252 0.000942564)
(0.112603 0.000280007 0.000924572)
(0.113177 0.000261307 0.000908965)
(0.100031 -0.000107089 0.000281381)
(0.100395 -0.00029308 0.000768626)
(0.101024 -0.00043414 0.00113306)
(0.101844 -0.000526328 0.00136917)
(0.102751 -0.000576505 0.00150137)
(0.103689 -0.000591974 0.00155408)
(0.104618 -0.000582673 0.00154896)
(0.105516 -0.000558183 0.00150784)
(0.106367 -0.000524717 0.00144389)
(0.107163 -0.000487791 0.00136729)
(0.107905 -0.000451664 0.00128661)
(0.108597 -0.000418704 0.00120831)
(0.109244 -0.000389882 0.00113671)
(0.109856 -0.000365258 0.00107401)
(0.11044 -0.000344299 0.001021)
(0.111001 -0.000325887 0.000977751)
(0.111546 -0.000309192 0.000942237)
(0.112077 -0.000293261 0.000910789)
(0.112608 -0.000277148 0.000879628)
(0.113178 -0.000264519 0.000851767)
(0.100036 -0.00032317 0.000323152)
(0.100429 -0.000868748 0.0008687)
(0.10108 -0.00126252 0.00126244)
(0.101891 -0.00150457 0.00150443)
(0.102756 -0.00162189 0.00162167)
(0.103616 -0.0016432 0.00164285)
(0.104445 -0.00160528 0.00160475)
(0.105223 -0.00152725 0.00152642)
(0.105937 -0.00142817 0.00142688)
(0.106591 -0.00132399 0.00132196)
(0.107194 -0.00122527 0.00122206)
(0.107755 -0.00113719 0.0011321)
(0.108282 -0.00106153 0.00105347)
(0.108784 -0.000998487 0.000985755)
(0.109266 -0.000947633 0.000927701)
(0.109734 -0.000908315 0.000877622)
(0.110192 -0.000879547 0.000833414)
(0.110647 -0.00085917 0.000792341)
(0.111109 -0.000843605 0.00075042)
(0.111626 -0.000827687 0.000705054)
(0.100046 -0.000540277 0.000395744)
(0.10048 -0.00138419 0.00104494)
(0.101154 -0.00192312 0.00147551)
(0.101913 -0.00219278 0.0017055)
(0.102632 -0.00229437 0.00178049)
(0.103301 -0.00227869 0.00174546)
(0.103893 -0.00218622 0.00163517)
(0.104389 -0.00205341 0.00149307)
(0.104815 -0.0019063 0.00134748)
(0.105191 -0.00176767 0.00121369)
(0.105532 -0.00164651 0.00109661)
(0.105849 -0.00154483 0.000996752)
(0.106153 -0.00146308 0.000911489)
(0.106447 -0.00140058 0.000838044)
(0.106736 -0.00135624 0.000774613)
(0.107021 -0.00132943 0.000720866)
(0.107302 -0.0013208 0.000675144)
(0.107577 -0.00133114 0.000636052)
(0.107865 -0.00135566 0.00060126)
(0.108266 -0.00137967 0.00056808)
(0.100093 -0.000763216 0.000445949)
(0.100504 -0.00174906 0.00119456)
(0.101105 -0.00212962 0.00158694)
(0.101634 -0.00223483 0.00174066)
(0.101979 -0.00228722 0.00178266)
(0.102171 -0.00223604 0.00172969)
(0.102252 -0.00211604 0.00160923)
(0.102275 -0.00196477 0.00146223)
(0.102276 -0.00180239 0.00130835)
(0.102268 -0.00165314 0.00116219)
(0.102259 -0.00154476 0.00103797)
(0.102254 -0.00146888 0.000934455)
(0.102252 -0.00141643 0.000846127)
(0.102254 -0.00138271 0.000770497)
(0.102256 -0.00136504 0.000706407)
(0.102253 -0.00136243 0.00065271)
(0.102236 -0.00137639 0.000609141)
(0.102196 -0.00141067 0.00057875)
(0.102131 -0.00146416 0.00056578)
(0.102299 -0.00152401 0.000577597)
(0.0995405 -0.000321904 0.00024505)
(0.0992576 -0.00154094 0.00105566)
(0.0988489 -0.00211447 0.00150243)
(0.0981248 -0.00209163 0.00157958)
(0.0973369 -0.00188608 0.00151507)
(0.0965851 -0.00166573 0.00144688)
(0.0958657 -0.00149767 0.00141091)
(0.0951982 -0.00137098 0.00138028)
(0.0945699 -0.00128393 0.00133541)
(0.0939252 -0.0012282 0.00126565)
(0.0932973 -0.00119099 0.00117803)
(0.0926837 -0.00116849 0.00108557)
(0.0920747 -0.00115741 0.000999045)
(0.0914622 -0.00115525 0.000923675)
(0.0908392 -0.00116087 0.000860903)
(0.0901976 -0.00117361 0.0008114)
(0.0895267 -0.0011944 0.000777034)
(0.0888137 -0.00122774 0.000765068)
(0.0880026 -0.00128788 0.000798508)
(0.087135 -0.00147244 0.00102049)
(0.0993802 5.89717e-05 3.37656e-05)
(0.0992678 0.00120004 0.000274334)
(0.0989805 0.00188845 0.000432248)
(0.098475 0.00200632 0.000483233)
(0.0979963 0.00191435 0.000478426)
(0.0975723 0.00173418 0.000464747)
(0.0971837 0.00154639 0.000451449)
(0.0968356 0.00138707 0.000439909)
(0.0965383 0.00126754 0.000432073)
(0.0962884 0.00119539 0.000421551)
(0.0960217 0.00116576 0.00040018)
(0.09574 0.00116034 0.000369685)
(0.0954442 0.00116444 0.000334233)
(0.0951266 0.00117239 0.000295184)
(0.0947836 0.00118284 0.000250932)
(0.0944151 0.00119554 0.000198129)
(0.0940212 0.00121043 0.000131026)
(0.0935993 0.00122873 4.00559e-05)
(0.0931456 0.00125407 -8.10949e-05)
(0.0926818 0.00130654 -0.00023434)
(0.100087 0.000707025 0.000144384)
(0.100477 0.0016178 0.00039049)
(0.101066 0.00203465 0.000541108)
(0.101695 0.00211756 0.000610136)
(0.102269 0.00214986 0.000635969)
(0.102743 0.00217912 0.000626711)
(0.103125 0.00213306 0.000594618)
(0.10343 0.00204267 0.000548974)
(0.103683 0.00193247 0.000503282)
(0.103903 0.0018252 0.000460038)
(0.104103 0.00172503 0.000416114)
(0.104296 0.00163539 0.000372243)
(0.104485 0.00156982 0.000330989)
(0.104665 0.00153031 0.000291423)
(0.104838 0.00150854 0.000250698)
(0.105002 0.0014965 0.000205558)
(0.105159 0.00149019 0.000150964)
(0.10531 0.00148823 8.11689e-05)
(0.105464 0.00148877 -9.92089e-06)
(0.105696 0.00147351 -0.000120315)
(0.100039 0.000478772 0.00013134)