/*--------------------------------*- C++ -*----------------------------------*\
| =========                 |                                                 |
| \\      /  F ield         | OpenFOAM: The Open Source CFD Toolbox           |
|  \\    /   O peration     | Version:  2212                                  |
|   \\  /    A nd           | Website:  www.openfoam.com                      |
|    \\/     M anipulation  |                                                 |
\*---------------------------------------------------------------------------*/
FoamFile
{
    version     2.0;
    format      ascii;
    arch        "LSB;label=32;scalar=64";
    class       surfaceVectorField;
    location    "1.75";
    object      Uf;
}
// * * * * * * * * * * * * * * * * * * * * * * * * * * * * * * * * * * * * * //

dimensions      [0 1 -1 0 0 0 0];

internalField   nonuniform List<vector> 
19019
(
(0.0993441 -0.00341902 -0.00341899)
(0.0973536 0.00106247 -0.00148428)
(0.0973536 -0.00148428 0.00106248)
(0.0834791 0.00197587 0.00197593)
(0.0930872 0.00326896 0.0025335)
(0.0930872 0.00253347 0.00326903)
(0.074517 0.00195869 0.00195882)
(0.0848639 0.00163579 0.00179241)
(0.084864 0.00179235 0.00163592)
(0.0685475 0.00115899 0.00115922)
(0.0786278 0.00107343 0.0012215)
(0.0786279 0.00122136 0.00107366)
(0.0642356 0.000696872 0.000697239)
(0.0740526 0.000785178 0.000865307)
(0.0740527 0.000865102 0.000785588)
(0.0607558 0.000494618 0.000495288)
(0.0704418 0.000650288 0.000669651)
(0.070442 0.000669304 0.000650944)
(0.0579359 0.000374415 0.000375591)
(0.0674905 0.000546219 0.000509267)
(0.0674908 0.000508603 0.00054746)
(0.0556116 0.000287298 0.00028923)
(0.0650489 0.000467978 0.000388621)
(0.0650495 0.00038757 0.000470094)
(0.0536207 0.000225882 0.000229067)
(0.0629627 0.000413716 0.000309761)
(0.0629639 0.000308063 0.000417287)
(0.0518731 0.000181251 0.000186565)
(0.0611262 0.000370123 0.000258138)
(0.0611281 0.000255348 0.00037614)
(0.0503184 0.000148036 0.000156867)
(0.0594788 0.000330213 0.000225146)
(0.0594822 0.00022022 0.000340348)
(0.0489221 0.000121776 0.000136286)
(0.057985 0.000292334 0.000204719)
(0.057991 0.000196501 0.000309187)
(0.0476553 9.86507e-05 0.000121934)
(0.0566171 0.000256766 0.000192325)
(0.0566278 0.000179057 0.000284693)
(0.0464953 7.52015e-05 0.000112925)
(0.0553509 0.000221954 0.000183573)
(0.0553691 0.000166153 0.000268155)
(0.0454295 4.70921e-05 0.000110147)
(0.0541717 0.00018324 0.000179297)
(0.0542029 0.000153038 0.000260696)
(0.0444577 1.41658e-05 0.000116203)
(0.0530679 0.000133463 0.000179112)
(0.0531232 0.000135087 0.000264755)
(0.0435954 -3.61142e-05 0.000131905)
(0.0520421 6.36734e-05 0.000180563)
(0.0521442 0.000108723 0.000283614)
(0.0429163 -0.000150604 0.000161551)
(0.0511057 -4.97755e-05 0.000180364)
(0.0513075 4.62728e-05 0.000323916)
(0.0425834 -0.000864623 -0.000202946)
(0.0504234 -0.000300195 0.000163563)
(0.0508534 -5.64954e-05 0.000436965)
(0.0489805 -0.00143973 -0.000322499)
(0.049109 -0.000935945 -1.84804e-05)
(0.0984572 0.00247644 0.00172991)
(0.0996871 0.000439233 0.00034549)
(0.100049 0.00105638 0.000750982)
(0.0958347 0.00314804 0.00243271)
(0.0978161 0.0027328 0.00228231)
(0.0982936 0.0028092 0.00216153)
(0.0914498 0.00223033 0.0018694)
(0.0954958 0.00300173 0.00230318)
(0.0963038 0.00244259 0.0019979)
(0.0875947 0.00167462 0.00150562)
(0.0926188 0.0022994 0.00183889)
(0.0936665 0.00198065 0.00172718)
(0.0841467 0.00144005 0.00127588)
(0.0897666 0.00189194 0.00153579)
(0.090904 0.00171956 0.00149816)
(0.0811863 0.00126531 0.00102914)
(0.087231 0.00165653 0.00129483)
(0.0884334 0.00145423 0.00121231)
(0.0786987 0.00110993 0.000794643)
(0.0850049 0.00149205 0.0010775)
(0.0863031 0.00118286 0.000909665)
(0.0765524 0.000991708 0.00062631)
(0.083058 0.00137164 0.000913844)
(0.0844777 0.000981983 0.000692439)
(0.0746437 0.000904362 0.000520148)
(0.0813196 0.00127871 0.000802598)
(0.0828752 0.000843446 0.000551579)
(0.0729108 0.000829694 0.000456407)
(0.0797381 0.00119421 0.000728077)
(0.0814395 0.000741457 0.000460491)
(0.0713157 0.000757224 0.000419534)
(0.0782836 0.00111215 0.000682217)
(0.0801372 0.000657071 0.000400793)
(0.0698336 0.00068612 0.000398433)
(0.0769324 0.00103284 0.00065602)
(0.078941 0.000582347 0.000360587)
(0.0684445 0.000619603 0.000385766)
(0.0756636 0.00095741 0.00064224)
(0.0778297 0.000516965 0.000334854)
(0.0671302 0.000557437 0.000379784)
(0.0744599 0.000886935 0.00063547)
(0.0767889 0.00046061 0.000318768)
(0.0658731 0.000492627 0.000380458)
(0.0733052 0.000819447 0.000636464)
(0.0758076 0.000405791 0.000313351)
(0.0646603 0.000408263 0.00038208)
(0.0721846 0.000749681 0.000643724)
(0.0748757 0.000342994 0.000316514)
(0.0634915 0.000278395 0.000373923)
(0.071088 0.000665767 0.000653668)
(0.0739845 0.000254079 0.000327051)
(0.0623854 6.26487e-05 0.000347506)
(0.0699942 0.000545549 0.00065776)
(0.0731134 0.000113157 0.000339149)
(0.0613749 -0.00018936 0.000507107)
(0.068897 0.00036697 0.000667736)
(0.0722751 -0.000164649 0.000298884)
(0.067546 0.00034334 0.00104676)
(0.071363 -0.000589069 0.00036761)
(0.0993753 0.00118217 0.00107258)
(0.099473 0.00034977 0.000307064)
(0.0997475 0.000610988 0.00077989)
(0.0984947 0.00229616 0.00203197)
(0.0990504 0.00157688 0.00172049)
(0.099597 0.00201835 0.00200292)
(0.097141 0.00247664 0.00204869)
(0.0983576 0.00213127 0.00216891)
(0.0992971 0.00246162 0.00210251)
(0.095439 0.00224724 0.00176747)
(0.0971931 0.00203609 0.00200246)
(0.0984879 0.00237461 0.00190275)
(0.0937499 0.00202085 0.00152246)
(0.0959048 0.00185615 0.00175437)
(0.0974217 0.00218107 0.00168885)
(0.0921367 0.00186484 0.00134448)
(0.0946712 0.00173363 0.00154254)
(0.0963085 0.00198499 0.00150835)
(0.0905991 0.00175477 0.00121482)
(0.093481 0.00165433 0.00138615)
(0.0952027 0.00180213 0.00134271)
(0.0891472 0.00165747 0.00111364)
(0.0923669 0.0015795 0.00126505)
(0.0941449 0.00164558 0.00120376)
(0.0877972 0.00155362 0.00103191)
(0.0913296 0.00148586 0.00117119)
(0.0931604 0.00150635 0.00109574)
(0.0865493 0.00144583 0.000970689)
(0.0903389 0.00137833 0.00110228)
(0.0922523 0.00137751 0.00101375)
(0.085387 0.00134302 0.000931018)
(0.0894059 0.00127167 0.0010563)
(0.0914189 0.00126148 0.000956892)
(0.0842918 0.00124954 0.000909125)
(0.0885213 0.00117059 0.00102873)
(0.0906499 0.00115987 0.000920574)
(0.0832461 0.00116475 0.000900289)
(0.0876699 0.00107872 0.00101495)
(0.0899315 0.00107132 0.000899644)
(0.0822353 0.00108616 0.000900763)
(0.0868389 0.000997762 0.00101149)
(0.0892519 0.000991602 0.000889639)
(0.0812466 0.00101141 0.000908613)
(0.0860177 0.000927052 0.00101626)
(0.0885998 0.000917542 0.00088868)
(0.0802652 0.000937977 0.000923536)
(0.0851957 0.000865013 0.00102826)
(0.0879636 0.00084577 0.000896577)
(0.079268 0.00086102 0.000945689)
(0.0843586 0.000810703 0.00104808)
(0.0873269 0.000771912 0.000914171)
(0.0782108 0.00078986 0.000992596)
(0.0834824 0.000768452 0.0010789)
(0.0866611 0.000690829 0.000942376)
(0.0769861 0.000817997 0.00120778)
(0.0824979 0.000779834 0.00115022)
(0.0859086 0.000612472 0.000998146)
(0.0813965 0.00104031 0.0014518)
(0.085211 0.000624939 0.00120936)
(0.0996493 0.000650355 0.000931425)
(0.0994625 0.000129405 0.00019253)
(0.0997993 0.000375147 0.000741363)
(0.0990854 0.00127905 0.00182771)
(0.0992625 0.000636988 0.00137064)
(0.0998409 0.00115046 0.00181422)
(0.0984491 0.00154101 0.00210305)
(0.0989129 0.000973619 0.00200357)
(0.0999047 0.00153666 0.00209014)
(0.0977075 0.00154734 0.00198885)
(0.098295 0.00105037 0.0020506)
(0.0997672 0.00163199 0.00202299)
(0.0969393 0.00148099 0.0017759)
(0.0976575 0.00100805 0.0018995)
(0.0995093 0.00161011 0.00189556)
(0.0962076 0.00142891 0.0015817)
(0.097065 0.000961051 0.00169808)
(0.0991992 0.00154854 0.00175142)
(0.095522 0.00139562 0.00143432)
(0.0965063 0.000934903 0.00152027)
(0.0988543 0.00147634 0.00162536)
(0.0948722 0.00135787 0.00132745)
(0.095994 0.000919536 0.00137841)
(0.0985102 0.00139584 0.00151425)
(0.0942372 0.00130056 0.00125605)
(0.0955262 0.000906936 0.00127723)
(0.0981765 0.00130443 0.0014183)
(0.0936096 0.00122188 0.00120957)
(0.0950728 0.000877076 0.00121482)
(0.0978296 0.00120266 0.00134089)
(0.0929916 0.00113185 0.00117971)
(0.0946193 0.000823884 0.00118157)
(0.0974914 0.00110066 0.0012865)
(0.0923803 0.00104238 0.00116292)
(0.0941651 0.00076375 0.00116764)
(0.0971627 0.00100494 0.00125023)
(0.0917693 0.000961464 0.00115631)
(0.093705 0.000708828 0.00116478)
(0.0968378 0.000918944 0.00122779)
(0.0911518 0.000892455 0.00115807)
(0.0932306 0.000663246 0.00116908)
(0.0965127 0.00084451 0.0012169)
(0.0905201 0.000836385 0.00116728)
(0.0927352 0.000628556 0.00117949)
(0.0961823 0.000781888 0.00121586)
(0.0898647 0.000794534 0.00118409)
(0.0922135 0.000606947 0.00119592)
(0.0958394 0.000730925 0.00122401)
(0.0891712 0.000771506 0.00121126)
(0.0916586 0.000603096 0.00121999)
(0.0954746 0.000692544 0.00124276)
(0.0884209 0.00078246 0.0012582)
(0.0910627 0.000624553 0.00125532)
(0.0950767 0.000671867 0.00127514)
(0.0876157 0.000910515 0.00138095)
(0.0903858 0.000682296 0.0013084)
(0.0946148 0.000682093 0.00132199)
(0.08966 0.00087425 0.00145387)
(0.0942317 0.000803317 0.00143258)
(0.0996725 0.000154116 0.000629535)
(0.0993802 1.2293e-08 5.89887e-05)
(0.0997132 0.000103946 0.000687956)
(0.0991591 0.000353459 0.00154426)
(0.0992678 5.58917e-08 0.00120005)
(0.0998377 0.000341732 0.00162232)
(0.0986638 0.000458043 0.00194741)
(0.0989805 1.19834e-07 0.00188845)
(0.0999631 0.000485642 0.00199137)
(0.0982126 0.000481334 0.00196038)
(0.0984749 2.03543e-07 0.00200633)
(0.099992 0.000539905 0.00199652)
(0.0977771 0.000472433 0.00182436)
(0.0979961 3.35603e-07 0.00191438)
(0.10001 0.000546851 0.00191072)
(0.0973642 0.000459531 0.00164044)
(0.0975721 5.61155e-07 0.00173424)
(0.100008 0.00053422 0.00180365)
(0.0969973 0.000448081 0.00146699)
(0.0971832 9.45474e-07 0.00154648)
(0.0999827 0.000512653 0.00168181)
(0.0966788 0.000439985 0.00132777)
(0.0968349 1.57046e-06 0.00138724)
(0.0999417 0.000486953 0.00157078)
(0.0964017 0.000433423 0.00123228)
(0.0965371 2.60272e-06 0.00126784)
(0.0999031 0.000464274 0.00147832)
(0.0961412 0.000421749 0.00118193)
(0.0962864 4.28969e-06 0.0011959)
(0.0998732 0.00044259 0.00141336)
(0.0958709 0.000402758 0.00116525)
(0.0960184 7.03427e-06 0.0011666)
(0.0998242 0.000416592 0.00137154)
(0.09558 0.00038105 0.00116596)
(0.0957346 1.14907e-05 0.0011617)
(0.0997628 0.000388397 0.00134164)
(0.0952639 0.000362059 0.00117429)
(0.0954353 1.87207e-05 0.00116667)
(0.0996893 0.000363168 0.00132286)
(0.0949186 0.000349869 0.00118726)
(0.0951121 3.04038e-05 0.00117607)
(0.0995968 0.00034386 0.00131577)
(0.0945408 0.000348168 0.00120478)
(0.0947604 4.90576e-05 0.00118888)
(0.0994814 0.000332687 0.00131831)
(0.0941273 0.000362213 0.00122819)
(0.0943785 7.81153e-05 0.00120522)
(0.0993404 0.000332998 0.00132871)
(0.0936739 0.000398844 0.00125988)
(0.0939652 0.000123256 0.00122618)
(0.0991717 0.000349877 0.00134743)
(0.0931761 0.000464022 0.00130067)
(0.0935183 0.000192014 0.00125368)
(0.0989739 0.000389346 0.00137516)
(0.0926375 0.000591036 0.0013758)
(0.0930237 0.000287447 0.00128907)
(0.0987369 0.000455512 0.00140645)
(0.092504 0.000439812 0.00136807)
(0.0985502 0.000579035 0.00146804)
(0.0996725 -0.000154051 0.000629506)
(0.0994625 -0.000129382 0.000192513)
(0.0997132 -0.00010392 0.000687954)
(0.0991592 -0.000353294 0.00154424)
(0.0992625 -0.000636901 0.00137062)
(0.0998377 -0.000341629 0.0016223)
(0.0986639 -0.000457743 0.00194738)
(0.098913 -0.000973454 0.00200353)
(0.0999632 -0.000485445 0.00199136)
(0.0982128 -0.000480833 0.00196033)
(0.0982953 -0.00105009 0.00205054)
(0.0999921 -0.000539572 0.0019965)
(0.0977774 -0.000471592 0.00182426)
(0.0976579 -0.00100758 0.00189941)
(0.10001 -0.000546284 0.00191064)
(0.0973649 -0.000458106 0.00164028)
(0.0970659 -0.000960223 0.00169792)
(0.100009 -0.000533262 0.0018035)
(0.0969985 -0.000445691 0.00146673)
(0.0965078 -0.000933485 0.00152005)
(0.0999835 -0.000511061 0.00168159)
(0.0966808 -0.000436008 0.00132731)
(0.0959965 -0.000917163 0.00137801)
(0.099943 -0.000484327 0.00157041)
(0.0964048 -0.000426836 0.00123147)
(0.0955304 -0.000902942 0.00127649)
(0.0999053 -0.000459908 0.0014777)
(0.0961463 -0.000410897 0.00118058)
(0.0950798 -0.000870519 0.00121339)
(0.0998767 -0.000435275 0.00141234)
(0.0958795 -0.000384975 0.00116305)
(0.094631 -0.000813239 0.00117895)
(0.0998299 -0.000404428 0.00136996)
(0.095594 -0.000352013 0.0011624)
(0.0941844 -0.000746351 0.00116326)
(0.0997721 -0.000368433 0.00133905)
(0.0952868 -0.000314779 0.00116845)
(0.0937368 -0.000680324 0.0011575)
(0.0997045 -0.000330714 0.00131847)
(0.0949556 -0.000273157 0.00117768)
(0.0932825 -0.000616284 0.00115725)
(0.0996216 -0.000291681 0.00130838)
(0.0945997 -0.000224672 0.00118932)
(0.0928193 -0.000550894 0.00116059)
(0.0995215 -0.000249258 0.00130619)
(0.0942186 -0.000164787 0.0012032)
(0.0923481 -0.000479347 0.00116477)
(0.0994038 -0.000200221 0.00130934)
(0.0938116 -8.58751e-05 0.00121997)
(0.0918696 -0.00039351 0.00116722)
(0.0992695 -0.000139188 0.00131636)
(0.0933739 1.99497e-05 0.00124208)
(0.0913815 -0.000279239 0.00116435)
(0.0991175 -5.83917e-05 0.00132707)
(0.092896 0.000156608 0.00128134)
(0.0908838 -0.000124772 0.001158)
(0.0989504 4.84232e-05 0.00134168)
(0.090362 7.8518e-05 0.00113907)
(0.0988142 0.000181083 0.00136546)
(0.0996493 -0.000650327 0.000931418)
(0.099473 -0.000349772 0.000307061)
(0.0997993 -0.00037514 0.000741361)
(0.0990855 -0.00127898 0.00182768)
(0.0990504 -0.00157688 0.00172047)
(0.0998409 -0.00115043 0.00181421)
(0.0984493 -0.00154088 0.00210298)
(0.0983578 -0.00213127 0.00216885)
(0.0999048 -0.0015366 0.0020901)
(0.097708 -0.0015471 0.00198875)
(0.0971934 -0.00203608 0.00200234)
(0.0997675 -0.00163187 0.00202287)
(0.0969402 -0.00148055 0.00177575)
(0.0959054 -0.00185611 0.0017542)
(0.0995099 -0.00160989 0.00189535)
(0.0962092 -0.00142815 0.00158148)
(0.0946724 -0.00173352 0.00154229)
(0.0992003 -0.00154815 0.00175111)
(0.0955247 -0.00139436 0.00143398)
(0.093483 -0.00165411 0.00138577)
(0.0988561 -0.00147567 0.00162489)
(0.0948768 -0.00135577 0.00132682)
(0.0923704 -0.00157916 0.0012644)
(0.0985133 -0.00139473 0.00151348)
(0.0942449 -0.00129711 0.00125477)
(0.0913356 -0.00148528 0.00117008)
(0.0981816 -0.00130257 0.00141703)
(0.0936225 -0.00121639 0.00120703)
(0.0903489 -0.0013774 0.0011003)
(0.0978379 -0.00119956 0.00133875)
(0.0930132 -0.00112299 0.00117516)
(0.0894226 -0.00127016 0.00105284)
(0.0975054 -0.00109562 0.00128277)
(0.0924159 -0.00102776 0.00115523)
(0.0885493 -0.00116798 0.00102283)
(0.097186 -0.000996823 0.00124401)
(0.0918277 -0.000936782 0.0011437)
(0.0877164 -0.00107388 0.0010049)
(0.0968763 -0.000905634 0.0012173)
(0.0912469 -0.000849959 0.00113794)
(0.086916 -0.000988241 0.000994731)
(0.0965761 -0.000822336 0.00119909)
(0.090674 -0.000762983 0.0011343)
(0.0861455 -0.000907565 0.000988298)
(0.0962847 -0.000743973 0.00118615)
(0.0901108 -0.000667263 0.00112769)
(0.0854081 -0.000824921 0.000979382)
(0.096003 -0.000664914 0.00117413)
(0.0895582 -0.00054581 0.00111124)
(0.0847119 -0.000726177 0.000958594)
(0.0957324 -0.000577634 0.00115836)
(0.0890112 -0.000373933 0.0010801)
(0.0840735 -0.000582029 0.00090623)
(0.0954718 -0.000467723 0.00113193)
(0.0884538 -0.000118596 0.00101407)
(0.0835364 -0.000359185 0.000817035)
(0.095225 -0.000317184 0.0010933)
(0.0827439 3.79163e-05 0.00052837)
(0.0949664 -9.47647e-05 0.00100603)
(0.0993753 -0.00118219 0.00107256)
(0.0996871 -0.000439249 0.000345488)
(0.0997475 -0.000611002 0.000779879)
(0.0984948 -0.00229622 0.00203191)
(0.0978161 -0.00273287 0.00228228)
(0.0995971 -0.00201839 0.00200287)
(0.0971413 -0.00247674 0.00204858)
(0.0954959 -0.00300185 0.00230311)
(0.0992972 -0.0024617 0.00210239)
(0.0954395 -0.0022474 0.0017673)
(0.092619 -0.00229959 0.00183875)
(0.0984882 -0.00237477 0.00190254)
(0.0937508 -0.00202112 0.00152222)
(0.0897671 -0.00189228 0.0015356)
(0.0974222 -0.00218132 0.00168854)
(0.0921383 -0.00186526 0.00134409)
(0.0872318 -0.00165709 0.00129452)
(0.0963094 -0.00198541 0.00150791)
(0.0906018 -0.00175542 0.00121417)
(0.0850063 -0.00149301 0.00107695)
(0.0952043 -0.00180277 0.00134199)
(0.0891519 -0.00165853 0.00111257)
(0.0830604 -0.00137325 0.000912957)
(0.0941477 -0.00164659 0.00120254)
(0.087805 -0.00155536 0.00103017)
(0.0813239 -0.00128139 0.000801139)
(0.0931652 -0.00150804 0.00109374)
(0.0865625 -0.00144869 0.000967878)
(0.0797453 -0.00119871 0.000725659)
(0.0922604 -0.00138038 0.00101046)
(0.0854092 -0.00134764 0.000926366)
(0.0782959 -0.00111982 0.000677956)
(0.0914328 -0.00126615 0.000951426)
(0.084329 -0.00125677 0.000901196)
(0.0769534 -0.00104548 0.000648741)
(0.0906731 -0.00116748 0.000911359)
(0.0833084 -0.00117553 0.000886766)
(0.0756997 -0.000977628 0.000630039)
(0.0899704 -0.00108359 0.000884105)
(0.0823397 -0.00110126 0.00087757)
(0.0745207 -0.000917874 0.000618887)
(0.0893164 -0.00101183 0.000863638)
(0.0814232 -0.00103065 0.000867852)
(0.0734086 -0.000867738 0.000610314)
(0.0887068 -0.000948362 0.000844578)
(0.0805679 -0.000956559 0.000848624)
(0.0723634 -0.000825462 0.000597501)
(0.0881432 -0.000890063 0.000820093)
(0.0797973 -0.00085784 0.000799689)
(0.0714058 -0.000783478 0.000564158)
(0.0876307 -0.000829117 0.000776529)
(0.0791528 -0.000696846 0.000701662)
(0.0705858 -0.000708511 0.000468254)
(0.0871838 -0.000743686 0.000683859)
(0.078697 -0.000365328 0.000410128)
(0.0700734 -0.000559719 0.00031136)
(0.086834 -0.000604577 0.00051867)
(0.0684519 -3.65892e-05 -0.000228902)
(0.0862748 -0.000288374 9.08934e-05)
(0.0984572 -0.00247648 0.00172989)
(0.0973536 -0.00106248 -0.00148428)
(0.100049 -0.00105639 0.000750968)
(0.0958348 -0.00314815 0.00243266)
(0.0930872 -0.00326903 0.00253347)
(0.0982936 -0.00280927 0.00216146)
(0.0914499 -0.00223051 0.00186929)
(0.084864 -0.00163593 0.00179235)
(0.0963039 -0.00244273 0.00199778)
(0.0875949 -0.00167495 0.00150545)
(0.0786279 -0.00107366 0.00122136)
(0.0936666 -0.00198088 0.00172696)
(0.0841471 -0.0014406 0.0012756)
(0.0740527 -0.000785589 0.000865101)
(0.0909042 -0.00171996 0.00149782)
(0.0811869 -0.00126628 0.00102865)
(0.070442 -0.000650946 0.000669303)
(0.0884337 -0.00145489 0.00121169)
(0.0786999 -0.00111165 0.000793845)
(0.0674908 -0.000547463 0.000508602)
(0.0863036 -0.00118402 0.000908631)
(0.0765545 -0.000994646 0.000625025)
(0.0650495 -0.000470099 0.000387568)
(0.0844786 -0.000983956 0.000690736)
(0.0746474 -0.000909356 0.000518018)
(0.0629639 -0.000417293 0.000308059)
(0.0828768 -0.000846801 0.000548715)
(0.0729172 -0.000838192 0.000452559)
(0.0611281 -0.000376148 0.000255344)
(0.0814422 -0.000747178 0.000455615)
(0.071327 -0.000771487 0.000412713)
(0.0594822 -0.00034036 0.000220216)
(0.0801419 -0.000666995 0.000392011)
(0.0698535 -0.000709618 0.000387084)
(0.057991 -0.000309204 0.000196496)
(0.0789493 -0.000598826 0.000345741)
(0.0684795 -0.000657841 0.000370942)
(0.0566278 -0.000284709 0.000179045)
(0.0778445 -0.000543737 0.000310339)
(0.0671896 -0.000620143 0.000361174)
(0.055369 -0.000268175 0.000166145)
(0.0768142 -0.00050203 0.000283785)
(0.065976 -0.000596769 0.000350908)
(0.0542029 -0.000260706 0.000153047)
(0.075851 -0.000473485 0.000256979)
(0.064846 -0.000584102 0.000326134)
(0.0531232 -0.000264711 0.000135094)
(0.0749525 -0.000455118 0.000219946)
(0.0638415 -0.000572325 0.000254369)
(0.0521443 -0.00028349 0.000108738)
(0.0741265 -0.000443822 0.000153092)
(0.0630897 -0.000569774 0.000132294)
(0.0513078 -0.000323643 4.62903e-05)
(0.073394 -0.000430487 1.31881e-05)
(0.0628764 -0.000387814 -0.000200682)
(0.0508542 -0.000436445 -5.65199e-05)
(0.0728734 -0.000385322 -0.0002668)
(0.0491113 1.96792e-05 -0.000936729)
(0.0715431 0.000215259 -0.00150449)
(0.0993441 0.003419 -0.00341902)
(0.0973536 0.00148428 0.00106247)
(0.0834791 -0.00197593 0.00197586)
(0.0930872 -0.0025335 0.00326896)
(0.074517 -0.00195882 0.00195869)
(0.0848639 -0.00179241 0.00163579)
(0.0685475 -0.00115922 0.00115899)
(0.0786278 -0.0012215 0.00107343)
(0.0642356 -0.000697241 0.00069687)
(0.0740526 -0.00086531 0.000785176)
(0.0607558 -0.00049529 0.000494615)
(0.0704418 -0.000669654 0.000650283)
(0.0579359 -0.000375595 0.000374412)
(0.0674905 -0.000509271 0.000546213)
(0.0556116 -0.000289236 0.000287294)
(0.0650489 -0.000388628 0.000467971)
(0.0536207 -0.000229073 0.000225876)
(0.0629627 -0.000309769 0.000413707)
(0.0518731 -0.000186575 0.000181244)
(0.0611261 -0.000258149 0.000370112)
(0.0503184 -0.000156879 0.000148026)
(0.0594788 -0.000225161 0.0003302)
(0.0489221 -0.000136297 0.000121757)
(0.057985 -0.000204735 0.000292314)
(0.0476553 -0.000121947 9.86319e-05)
(0.0566171 -0.000192345 0.000256736)
(0.0464953 -0.000112942 7.51977e-05)
(0.0553509 -0.000183597 0.000221925)
(0.0454295 -0.000110139 4.70888e-05)
(0.0541717 -0.00017931 0.000183225)
(0.0444578 -0.000116145 1.41573e-05)
(0.053068 -0.00017911 0.000133458)
(0.0435956 -0.000131781 -3.61135e-05)
(0.0520423 -0.000180545 6.36977e-05)
(0.0429169 -0.000161336 -0.000150586)
(0.0511062 -0.000180307 -4.97153e-05)
(0.0425849 0.00020339 -0.000864753)
(0.0504245 -0.000163381 -0.000300137)
(0.0489832 0.000322895 -0.00143979)
(0.0984572 0.00172989 0.00247648)
(0.100049 0.000750969 0.00105639)
(0.0996871 0.000345488 0.000439249)
(0.0958348 0.00243266 0.00314815)
(0.0982936 0.00216146 0.00280927)
(0.0978161 0.00228228 0.00273287)
(0.0914499 0.00186929 0.00223051)
(0.0963039 0.00199778 0.00244273)
(0.0954959 0.00230311 0.00300184)
(0.0875949 0.00150545 0.00167495)
(0.0936666 0.00172697 0.00198088)
(0.092619 0.00183875 0.00229959)
(0.0841471 0.0012756 0.0014406)
(0.0909042 0.00149782 0.00171996)
(0.0897671 0.0015356 0.00189228)
(0.081187 0.00102865 0.00126628)
(0.0884337 0.0012117 0.00145489)
(0.0872318 0.00129452 0.00165709)
(0.0786999 0.000793845 0.00111165)
(0.0863036 0.000908635 0.00118401)
(0.0850063 0.00107695 0.00149301)
(0.0765545 0.000625026 0.000994643)
(0.0844786 0.000690742 0.000983949)
(0.0830604 0.000912956 0.00137324)
(0.0746474 0.00051802 0.000909351)
(0.0828768 0.000548722 0.000846792)
(0.0813239 0.000801138 0.00128138)
(0.0729173 0.000452561 0.000838185)
(0.0814422 0.000455624 0.000747166)
(0.0797453 0.000725658 0.0011987)
(0.071327 0.000412715 0.000771478)
(0.080142 0.000392023 0.00066698)
(0.0782959 0.000677954 0.0011198)
(0.0698535 0.000387088 0.000709608)
(0.0789494 0.000345763 0.000598812)
(0.0769534 0.000648735 0.00104544)
(0.0684795 0.000370956 0.000657846)
(0.0778445 0.00031038 0.000543736)
(0.0756997 0.000630027 0.000977582)
(0.0671896 0.000361192 0.000620178)
(0.0768142 0.000283813 0.000502012)
(0.0745208 0.000618889 0.000917863)
(0.065976 0.000350911 0.00059685)
(0.075851 0.000256965 0.000473464)
(0.0734086 0.000610318 0.00086778)
(0.064846 0.000326122 0.000584274)
(0.0749525 0.000219937 0.000455167)
(0.0723635 0.000597482 0.000825548)
(0.0638414 0.000254358 0.000572684)
(0.0741263 0.000153079 0.000443971)
(0.0714059 0.000564099 0.000783659)
(0.0630894 0.000132381 0.000570532)
(0.0733937 1.31667e-05 0.000430818)
(0.070586 0.000468164 0.000708919)
(0.0628751 -0.000199988 0.000389088)
(0.0728726 -0.000266662 0.000386101)
(0.0700735 0.000311451 0.000560786)
(0.0715415 -0.00150391 -0.000214288)
(0.0684497 -0.00022745 3.92754e-05)
(0.10008 0.00135177 0.00135181)
(0.100186 0.000798766 0.00080497)
(0.100186 0.000804952 0.000798786)
(0.100264 0.00221728 0.00221739)
(0.100189 0.00231188 0.00207155)
(0.10019 0.00207149 0.00231195)
(0.0993826 0.00243572 0.00243592)
(0.100306 0.00263374 0.00245322)
(0.100306 0.00245307 0.00263387)
(0.0979836 0.0023102 0.00231053)
(0.0998046 0.00256045 0.00245619)
(0.0998047 0.00245592 0.00256069)
(0.0964942 0.00200605 0.00200662)
(0.0988621 0.00236451 0.00228127)
(0.0988623 0.00228086 0.00236489)
(0.0950713 0.0015967 0.00159766)
(0.0978398 0.00204915 0.00196853)
(0.0978401 0.00196787 0.00204981)
(0.0937731 0.00122583 0.0012274)
(0.0968595 0.00169144 0.00160532)
(0.09686 0.00160427 0.00169252)
(0.092614 0.000961264 0.000963934)
(0.0959562 0.00140492 0.00132265)
(0.0959571 0.00132085 0.00140669)
(0.0915877 0.000776403 0.000780977)
(0.0951425 0.0011921 0.00112056)
(0.095144 0.00111752 0.00119513)
(0.0906778 0.000642952 0.000650978)
(0.0944165 0.00103246 0.000975176)
(0.0944192 0.000970016 0.00103766)
(0.0898638 0.000542352 0.000556051)
(0.0937724 0.000909356 0.000869769)
(0.0937772 0.000860807 0.000918271)
(0.0891244 0.00046469 0.000487185)
(0.0931959 0.0008122 0.000793924)
(0.0932039 0.000778997 0.000827)
(0.0884438 0.000403289 0.000437995)
(0.0926726 0.000733546 0.000740826)
(0.0926859 0.000716367 0.00075783)
(0.0878151 0.000348209 0.000403023)
(0.0921946 0.000665926 0.000703106)
(0.0922161 0.000665153 0.000704728)
(0.0872356 0.00028821 0.000379115)
(0.0917563 0.000600474 0.000677782)
(0.0917909 0.000615271 0.000663995)
(0.0866994 0.000211608 0.000365661)
(0.0913525 0.000530419 0.000663777)
(0.0914087 0.000559166 0.000633923)
(0.0861916 0.000100553 0.000366386)
(0.0909681 0.000444962 0.000662761)
(0.0910592 0.000483871 0.000613613)
(0.0856642 -0.00010775 0.000351444)
(0.0905753 0.000334062 0.000680494)
(0.0907213 0.000368502 0.000604362)
(0.0850128 -0.000574681 0.000203436)
(0.0901388 0.000164835 0.000688726)
(0.0903628 0.000150855 0.000588452)
(0.0899776 -0.000148381 0.000588812)
(0.0901644 -0.000313703 0.00047868)
(0.100171 0.00136873 0.00141646)
(0.100118 0.000577434 0.000811319)
(0.100102 0.000699781 0.000700719)
(0.100759 0.00219502 0.00214916)
(0.100478 0.00158296 0.00185881)
(0.100477 0.00182261 0.00186475)
(0.100996 0.00247713 0.00238808)
(0.101004 0.00205896 0.0022426)
(0.101024 0.00234692 0.00238313)
(0.100837 0.00247651 0.00238925)
(0.101292 0.00220381 0.00235216)
(0.101337 0.00250617 0.00254397)
(0.100457 0.00231198 0.00222489)
(0.101308 0.00216786 0.00232208)
(0.101408 0.00245081 0.00247264)
(0.0999658 0.00205728 0.0019682)
(0.101155 0.00201162 0.00217855)
(0.1013 0.00226498 0.00227086)
(0.0994403 0.00179163 0.00169991)
(0.100925 0.00179505 0.00196809)
(0.101096 0.00200962 0.00199928)
(0.0989283 0.00156501 0.00148356)
(0.100661 0.00158569 0.00176516)
(0.100851 0.00177095 0.00175884)
(0.0984558 0.0013806 0.00132144)
(0.100403 0.00139882 0.00158948)
(0.100601 0.00157012 0.00156569)
(0.0980331 0.00122896 0.00120104)
(0.100164 0.00123466 0.00144424)
(0.100369 0.00140361 0.00141292)
(0.0976589 0.00110375 0.0011142)
(0.0999519 0.00109706 0.00133806)
(0.100167 0.0012658 0.00129385)
(0.0973286 0.000999799 0.00105358)
(0.0997665 0.000982971 0.0012633)
(0.0999962 0.00115172 0.00120301)
(0.0970368 0.000911086 0.00101194)
(0.0996041 0.000887661 0.00121178)
(0.0998551 0.00105682 0.00113508)
(0.0967765 0.000831864 0.000984558)
(0.0994617 0.000806252 0.00117762)
(0.0997412 0.000975112 0.00108522)
(0.0965383 0.000757481 0.000970458)
(0.0993338 0.000735009 0.00115804)
(0.0996498 0.000901921 0.00105097)
(0.0963104 0.000682594 0.000971017)
(0.0992121 0.00067049 0.00115289)
(0.0995742 0.00083244 0.00103277)
(0.0960751 0.000602905 0.00098923)
(0.0990849 0.000610304 0.00116409)
(0.099504 0.000761339 0.00103303)
(0.0958054 0.000513392 0.00102631)
(0.0989361 0.0005563 0.00119582)
(0.099425 0.000684675 0.00105657)
(0.0954645 0.00040837 0.00106252)
(0.0987488 0.000506617 0.00124674)
(0.0993227 0.000593276 0.00110203)
(0.0988395 0.000466465 0.00129154)
(0.0994535 0.000489938 0.00114841)
(0.100242 0.000820256 0.00125614)
(0.10009 0.00029438 0.000735361)
(0.100071 0.000415714 0.000602794)
(0.100828 0.00139075 0.00193934)
(0.100491 0.000792117 0.00168403)
(0.100492 0.00112454 0.00158703)
(0.101392 0.00166381 0.00218222)
(0.101086 0.00107796 0.00208339)
(0.101128 0.00154107 0.00209414)
(0.101816 0.00176167 0.00226102)
(0.101664 0.00120472 0.00217893)
(0.101767 0.0017331 0.00229422)
(0.10208 0.00175618 0.00226162)
(0.102121 0.00124036 0.00222165)
(0.10229 0.00179051 0.00236711)
(0.102214 0.00166946 0.00217603)
(0.102451 0.00120295 0.0022094)
(0.10271 0.00174479 0.00232158)
(0.102264 0.00153573 0.00204039)
(0.102679 0.00112006 0.00212515)
(0.103035 0.00162765 0.00220146)
(0.102273 0.0013853 0.00188356)
(0.10284 0.00102005 0.00200352)
(0.103284 0.00148177 0.00204851)
(0.102269 0.00123528 0.00172774)
(0.102965 0.000921058 0.00186692)
(0.103489 0.00133129 0.00188858)
(0.102262 0.0011001 0.00159892)
(0.103067 0.000829448 0.00173871)
(0.103664 0.00119091 0.00174328)
(0.102256 0.000986247 0.00150678)
(0.10316 0.00074891 0.00163491)
(0.103822 0.00107011 0.00162877)
(0.102253 0.000890344 0.00144261)
(0.103251 0.000679453 0.00155309)
(0.103971 0.000968397 0.00154091)
(0.102253 0.000808387 0.00139953)
(0.10334 0.00062011 0.00149553)
(0.104115 0.000881612 0.001475)
(0.102255 0.000738549 0.00137383)
(0.103425 0.000570101 0.00146094)
(0.104256 0.000807107 0.0014281)
(0.102255 0.000679705 0.00136371)
(0.103504 0.00052982 0.00144434)
(0.104395 0.000743473 0.00139868)
(0.102246 0.000631168 0.00136944)
(0.103573 0.000500469 0.00144192)
(0.10453 0.000690024 0.00138628)
(0.10222 0.000594331 0.00139367)
(0.103627 0.000483782 0.00145338)
(0.104655 0.000645873 0.00139249)
(0.102166 0.000572874 0.00143771)
(0.103661 0.000483716 0.00148106)
(0.104766 0.000612124 0.00142115)
(0.102075 0.000572508 0.0014945)
(0.103675 0.000503503 0.00152392)
(0.104869 0.000590195 0.00147196)
(0.103884 0.000541249 0.00157197)
(0.105149 0.000582619 0.00153254)
(0.100243 0.000267505 0.00116242)
(0.100087 1.86505e-08 0.000707027)
(0.100064 0.000135855 0.000537344)
(0.100782 0.000465935 0.00182624)
(0.100477 5.26495e-08 0.0016178)
(0.100463 0.000371022 0.00142416)
(0.101401 0.000575854 0.00207613)
(0.101066 8.94615e-08 0.00203466)
(0.101089 0.000525407 0.00193358)
(0.101988 0.000623454 0.00213379)
(0.101694 1.547e-07 0.00211758)
(0.101797 0.000606274 0.00212856)
(0.102507 0.000632026 0.00216466)
(0.102269 2.70317e-07 0.00214992)
(0.102489 0.000639954 0.00221081)
(0.102935 0.00061179 0.00215637)
(0.102742 4.52585e-07 0.00217923)
(0.10312 0.000635218 0.00224121)
(0.103278 0.000573615 0.0020883)
(0.103125 7.31088e-07 0.00213323)
(0.103687 0.000602603 0.00219617)
(0.103556 0.00052912 0.00198823)
(0.103429 1.18137e-06 0.00204293)
(0.104186 0.000557549 0.00210499)
(0.10379 0.000486712 0.00187986)
(0.103682 1.94638e-06 0.00193286)
(0.104622 0.000511113 0.00199138)