/*--------------------------------*- C++ -*----------------------------------*\
| =========                 |                                                 |
| \\      /  F ield         | OpenFOAM: The Open Source CFD Toolbox           |
|  \\    /   O peration     | Version:  2212                                  |
|   \\  /    A nd           | Website:  www.openfoam.com                      |
|    \\/     M anipulation  |                                                 |
\*---------------------------------------------------------------------------*/
FoamFile
{
    version     2.0;
    format      ascii;
    arch        "LSB;label=32;scalar=64";
    class       surfaceScalarField;
    location    "1.1";
    object      phi;
}
// * * * * * * * * * * * * * * * * * * * * * * * * * * * * * * * * * * * * * //

dimensions      [0 3 -1 0 0 0 0];

oriented        oriented;

internalField   nonuniform List<scalar> 
1769
(
1.52363e-07
2.02047e-09
1.36523e-09
1.49418e-07
1.9939e-09
9.51042e-10
1.47075e-07
1.96965e-09
3.73939e-10
1.46265e-07
1.79564e-09
-9.86165e-10
1.49091e-07
1.24128e-09
-4.06686e-09
-1.08004e-08
-2.66495e-08
4.24197e-07
6.62129e-09
2.73988e-09
4.17764e-07
6.1066e-09
2.32118e-09
4.12868e-07
5.29478e-09
1.57089e-09
4.11582e-07
3.32896e-09
-2.47381e-10
4.18322e-07
-6.51278e-10
-4.84707e-09
-1.18583e-08
-1.94776e-08
7.30922e-07
6.96643e-09
7.2843e-09
7.24352e-07
5.8526e-09
6.82427e-09
7.1935e-07
4.26814e-09
6.02859e-09
7.16509e-07
1.77079e-09
4.39941e-09
7.16717e-07
-2.4361e-09
1.57638e-09
-1.06043e-08
-4.37963e-09
9.7773e-07
3.93925e-09
9.14023e-09
9.71746e-07
2.89443e-09
8.94227e-09
9.65953e-07
1.40937e-09
8.65188e-09
9.60265e-07
-7.59637e-10
8.2186e-09
9.53993e-07
-3.85213e-09
7.68786e-09
-8.71765e-09
7.5144e-09
1.10762e-06
-9.073e-10
9.78756e-09
1.10194e-06
-1.50085e-09
1.00812e-08
1.09528e-06
-2.51145e-09
1.05729e-08
1.08729e-06
-4.06956e-09
1.13045e-08
1.07799e-06
-6.78812e-09
1.22348e-08
-1.1766e-08
1.33034e-08
1.10533e-06
-5.23122e-09
1.02162e-08
1.09808e-06
-5.07478e-09
1.08278e-08
1.08889e-06
-5.17631e-09
1.1852e-08
1.07692e-06
-5.57223e-09
1.34764e-08
1.06105e-06
-6.67102e-09
1.57556e-08
-1.06095e-08
1.86567e-08
9.81176e-07
-7.95635e-09
9.76037e-09
9.73225e-07
-7.21507e-09
9.93572e-09
9.64116e-07
-6.35259e-09
1.03863e-08
9.52987e-07
-5.34167e-09
1.12948e-08
9.38306e-07
-3.89215e-09
1.30008e-08
9.17918e-07
-1.80384e-09
1.55212e-08
-1.46965e-09
2.29344e-08
7.36526e-07
-6.75689e-09
7.95704e-09
7.27509e-07
-6.10752e-09
7.90997e-09
7.18458e-07
-5.29572e-09
7.99396e-09
7.09044e-07
-4.20139e-09
8.27358e-09
6.98383e-07
-2.01293e-09
8.78173e-09
6.84344e-07
2.45805e-09
9.77772e-09
1.48711e-08
1.36795e-08
4.30802e-07
-1.70257e-09
3.25284e-09
4.22965e-07
-1.36537e-09
3.09532e-09
4.15653e-07
-9.51221e-10
2.9672e-09
4.09004e-07
-3.74144e-10
2.82211e-09
4.03837e-07
9.85655e-10
2.16793e-09
4.0269e-07
4.06603e-09
-4.59812e-10
2.66502e-08
-1.33849e-08
1.55748e-07
2.08867e-09
1.52363e-07
2.02048e-09
1.49418e-07
1.99383e-09
1.47074e-07
1.96971e-09
1.46264e-07
1.79605e-09
1.49087e-07
1.24277e-09
-1.07955e-08
4.22965e-07
3.0952e-09
6.1073e-09
4.15654e-07
2.96687e-09
5.29522e-09
4.09006e-07
2.82149e-09
4.2006e-09
4.03842e-07
2.16647e-09
2.01103e-09
4.027e-07
-4.62833e-10
-2.46182e-09
-1.3387e-08
-1.48739e-08
8.06559e-07
5.60978e-09
4.96427e-09
8.02572e-07
5.13837e-09
4.13665e-09
7.99459e-07
4.50746e-09
2.99763e-09
7.96683e-07
3.44061e-09
1.25477e-09
7.91714e-07
1.20412e-09
-1.54499e-09
-3.02728e-09
-5.79788e-09
1.11967e-06
6.38056e-09
8.22138e-09
1.11863e-06
5.52041e-09
7.48791e-09
1.11822e-06
4.42637e-09
6.51736e-09
1.11802e-06
2.92178e-09
5.12237e-09
1.11678e-06
7.98098e-10
3.21579e-09
-2.31393e-09
1.30874e-09
1.35638e-06
3.86971e-09
1.09007e-08
1.35735e-06
2.98646e-09
1.04984e-08
1.3585e-06
1.85348e-09
1.00772e-08
1.35966e-06
3.61896e-10
9.61547e-09
1.36058e-06
-1.59012e-09
9.16516e-09
-3.80731e-09
9.16604e-09
1.48013e-06
-6.90397e-10
1.2346e-08
1.4819e-06
-1.07894e-09
1.23802e-08
1.48337e-06
-1.66233e-09
1.26138e-08
1.48444e-06
-2.50668e-09
1.31058e-08
1.48492e-06
-3.68183e-09
1.3846e-08
-5.04759e-09
1.47901e-08
1.47855e-06
-4.70837e-09
1.27817e-08
1.47955e-06
-4.34118e-09
1.30893e-08
1.48e-06
-4.01736e-09
1.37621e-08
1.47979e-06
-3.72138e-09
1.48962e-08
1.47887e-06
-3.41307e-09
1.64108e-08
-3.21962e-09
1.78979e-08
1.35364e-06
-7.04503e-09
1.18918e-08
1.35328e-06
-6.24164e-09
1.18246e-08
1.35268e-06
-5.37093e-09
1.20162e-08
1.35176e-06
-4.34168e-09
1.25478e-08
1.35057e-06
-3.044e-09
1.35074e-08
1.34925e-06
-1.38675e-09
1.48207e-08
6.87767e-10
1.60934e-08
1.12004e-06
-5.65368e-09
9.39153e-09
1.1176e-06
-4.96479e-09
9.07055e-09
1.1155e-06
-4.13745e-09
8.86422e-09
1.11367e-06
-2.99896e-09
8.75363e-09
1.11198e-06
-1.25719e-09
8.69298e-09
1.11029e-06
1.54126e-09
8.5373e-09
5.79613e-09
7.98141e-09
8.11297e-07
-3.03262e-09
6.05722e-09
8.06558e-07
-2.74e-09
5.60989e-09
8.0257e-07
-2.32143e-09
5.13876e-09
7.99457e-07
-1.57135e-09
4.50835e-09
7.96678e-07
2.46463e-10
3.44246e-09
7.91707e-07
4.84531e-09
1.20756e-09
1.94763e-08
-3.02305e-09
4.31538e-07
7.07655e-09
4.24197e-07
6.62121e-09
4.17763e-07
6.10664e-09
4.12866e-07
5.29509e-09
4.11579e-07
3.3298e-09
4.18316e-07
-6.49385e-10
-1.18538e-08
7.27509e-07
7.90985e-09
7.21464e-09
7.18459e-07
7.99351e-09
6.35183e-09
7.09046e-07
8.27252e-09
5.34043e-09
6.98388e-07
8.77934e-09
3.88964e-09
6.84354e-07
9.7732e-09
1.79974e-09
1.36776e-08
1.46449e-09
1.1176e-06
9.07029e-09
6.24096e-09
1.1155e-06
8.86362e-09
5.36996e-09
1.11367e-06
8.75245e-09
4.34019e-09
1.11198e-06
8.69081e-09
3.04161e-09
1.11029e-06
8.53413e-09
1.38338e-09
7.98307e-09
-6.87383e-10
1.41713e-06
8.04788e-09
7.56074e-09
1.41915e-06
7.53077e-09
6.79623e-09
1.42144e-06
7.03195e-09
5.9515e-09
1.42377e-06
6.50797e-09
4.97366e-09
1.42575e-06
5.89737e-09
3.87637e-09
5.22554e-09
3.03703e-09
1.63639e-06
4.64476e-09
9.3999e-09
1.64143e-06
4.10921e-09
8.88072e-09
1.64663e-06
3.52176e-09
8.38602e-09
1.652e-06
2.84415e-09
7.9057e-09
1.65755e-06
2.04698e-09
7.46695e-09
1.1947e-09
7.29095e-09
1.75147e-06
-2.79426e-10
1.05924e-08
1.75798e-06
-4.29369e-10
1.04045e-08
1.7644e-06
-6.44521e-10
1.03593e-08
1.77083e-06
-9.33064e-10
1.04557e-08
1.77735e-06
-1.28835e-09
1.06639e-08
-1.61762e-09
1.09536e-08
1.75073e-06
-4.84755e-09
1.09052e-08
1.75694e-06
-4.43407e-09
1.08838e-08
1.76302e-06
-4.03829e-09
1.10787e-08
1.76913e-06
-3.63934e-09
1.14916e-08
1.77543e-06
-3.21241e-09
1.20329e-08
-2.80898e-09
1.24842e-08
1.63062e-06
-8.30809e-09
1.03807e-08
1.63511e-06
-7.56136e-09
1.00455e-08
1.63962e-06
-6.79709e-09
9.87384e-09
1.6442e-06
-5.9527e-09
9.87709e-09
1.64899e-06
-4.97529e-09
1.00512e-08
1.65417e-06
-3.87819e-09
1.03099e-08
-3.03756e-09
1.0439e-08
1.41544e-06
-8.86413e-09
8.62335e-09
1.41713e-06
-8.22191e-09
8.04799e-09
1.41915e-06
-7.48881e-09
7.53107e-09
1.42144e-06
-6.51887e-09
7.03253e-09
1.42377e-06
-5.12478e-09
6.50887e-09
1.42575e-06
-3.21943e-09
5.89832e-09
-1.3127e-09
5.22486e-09
1.12138e-06
-7.60221e-09
7.1437e-09
1.11967e-06
-7.28452e-09
6.38054e-09
1.11863e-06
-6.82473e-09
5.5206e-09
1.11822e-06
-6.02948e-09
4.42693e-09
1.11801e-06
-4.40104e-09
2.9229e-09
1.11678e-06
-1.5791e-09
7.99876e-10
4.37468e-09
-2.31275e-09
7.38551e-07
7.81798e-09
7.30921e-07
6.96631e-09
7.24351e-07
5.85254e-09
7.19348e-07
4.26822e-09
7.16505e-07
1.77118e-09
7.16712e-07
-2.43517e-09
-1.06019e-08
9.73225e-07
9.93553e-09
5.23063e-09
9.64117e-07
1.03858e-08
5.07395e-09
9.52988e-07
1.12937e-08
5.17509e-09
9.38309e-07
1.29988e-08
5.57032e-09
9.17923e-07
1.55174e-08
6.6681e-09
2.293e-08
1.06052e-08
1.35328e-06
1.18243e-08
4.70774e-09
1.35268e-06
1.20157e-08
4.34039e-09
1.35175e-06
1.25469e-08
4.01638e-09
1.35057e-06
1.35059e-08
3.72018e-09
1.34924e-06
1.48186e-08
3.41187e-09
1.60928e-08
3.22001e-09
1.63511e-06
1.00454e-08
4.84707e-09
1.63962e-06
9.87365e-09
4.43356e-09
1.6442e-06
9.87681e-09
4.03781e-09
1.64899e-06
1.00509e-08
3.63904e-09
1.65416e-06
1.03099e-08
3.21272e-09
1.04404e-08
2.81076e-09
1.8367e-06
5.72393e-09
5.52275e-09
1.84482e-06
5.46426e-09
5.17279e-09
1.85297e-06
5.25377e-09
4.85234e-09
1.8613e-06
5.0778e-09
4.55462e-09
1.8699e-06
4.89529e-09
4.28221e-09
4.6478e-09
4.12508e-09
1.94205e-06
-6.70869e-12
6.0744e-09
1.95206e-06
-1.68154e-11
5.87553e-09
1.96196e-06
-3.77128e-11
5.75041e-09
1.97187e-06
-7.04119e-11
5.69067e-09
1.98187e-06
-1.17967e-10
5.68007e-09
-1.79833e-10
5.70742e-09
1.94189e-06
-5.52311e-09
6.21412e-09
1.95185e-06
-5.17315e-09
6.08206e-09
1.9617e-06
-4.85263e-09
6.04251e-09
1.9716e-06
-4.55473e-09
6.07927e-09
1.98164e-06
-4.28192e-09
6.15192e-09
-4.1241e-09
6.16978e-09
1.8285e-06
-9.96871e-09
6.04006e-09
1.8367e-06
-9.40039e-09
5.72386e-09
1.84482e-06
-8.88135e-09
5.46418e-09
1.85297e-06
-8.38683e-09
5.25362e-09
1.8613e-06
-7.90667e-09
5.0775e-09
1.8699e-06
-7.46785e-09
4.89466e-09
-7.29119e-09
4.64664e-09
1.63148e-06
-1.13292e-08
5.16064e-09
1.63639e-06
-1.09012e-08
4.64471e-09
1.64143e-06
-1.04992e-08
4.10922e-09
1.64663e-06
-1.00785e-08
3.52178e-09
1.65201e-06
-9.61739e-09
2.84411e-09
1.65756e-06
-9.16774e-09
2.04668e-09
-9.16727e-09
1.19376e-09
1.35563e-06
-9.31328e-09
4.60757e-09
1.35638e-06
-9.14054e-09
3.86969e-09
1.35735e-06
-8.94282e-09
2.98654e-09
1.3585e-06
-8.65289e-09
1.85372e-09
1.35966e-06
-8.2204e-09
3.62316e-10
1.36058e-06
-7.69082e-09
-1.58964e-09
-7.51858e-09
-3.80815e-09
9.83842e-07
4.71325e-09
9.77728e-07
3.93924e-09
9.71744e-07
2.89451e-09
9.65949e-07
1.40964e-09
9.60259e-07
-7.59028e-10
9.53984e-07
-3.85091e-09
-8.71473e-09
1.10533e-06
1.02161e-08
9.06688e-10
1.09808e-06
1.08275e-08
1.50004e-09
1.08889e-06
1.18514e-08
2.51032e-09
1.07692e-06
1.34755e-08
4.06798e-09
1.06105e-06
1.5754e-08
6.78588e-09
1.86537e-08
1.17625e-08
1.47855e-06
1.27816e-08
6.89853e-10
1.47955e-06
1.3089e-08
1.07828e-09
1.48e-06
1.37617e-08
1.66159e-09
1.47979e-06
1.48955e-08
2.50596e-09
1.47886e-06
1.64098e-08
3.68146e-09
1.78964e-08
5.04856e-09
1.75073e-06
1.09051e-08
2.79072e-10
1.75694e-06
1.08837e-08
4.29028e-10
1.76302e-06
1.10785e-08
6.44305e-10
1.76913e-06
1.14914e-08
9.33167e-10
1.77543e-06
1.20327e-08
1.28915e-09
1.2484e-08
1.61968e-09
1.94189e-06
6.21414e-09
6.42111e-12
1.95185e-06
6.08209e-09
1.65446e-11
1.9617e-06
6.04255e-09
3.75403e-11
1.9716e-06
6.07933e-09
7.04392e-11
1.98164e-06
6.15201e-09
1.18369e-10
6.16983e-09
1.80824e-10
2.04138e-06
2.97709e-11
-3.01102e-11
2.05334e-06
4.20703e-11
-4.2426e-11
2.06514e-06
5.59809e-11
-5.63178e-11
2.07691e-06
6.91369e-11
-6.93964e-11
2.08874e-06
7.63768e-11
-7.64707e-11
6.76466e-11
-6.7493e-11
2.04138e-06
-6.07474e-09
2.96728e-11
2.05334e-06
-5.87589e-09
4.19324e-11
2.06514e-06
-5.75074e-09
5.57814e-11
2.07691e-06
-5.69089e-09
6.88491e-11
2.08874e-06
-5.68004e-09
7.5983e-11
-5.70698e-09
6.7187e-11
1.9318e-06
-1.09222e-08
-4.98327e-12
1.94205e-06
-1.05928e-08
-6.87103e-12
1.95206e-06
-1.04049e-08
-1.70831e-11
1.96196e-06
-1.03598e-08
-3.81454e-11
1.97188e-06
-1.04563e-08
-7.11196e-11
1.98187e-06
-1.06643e-08
-1.19085e-10
-1.09534e-08
-1.81408e-10
1.74479e-06
-1.24587e-08
-1.8466e-10
1.75147e-06
-1.23464e-08
-2.79527e-10
1.75798e-06
-1.23808e-08
-4.29555e-10
1.7644e-06
-1.26147e-08
-6.449e-10
1.77083e-06
-1.31071e-08
-9.3383e-10
1.77735e-06
-1.38476e-08
-1.28983e-09
-1.47903e-08
-1.62014e-09
1.47813e-06
-9.63535e-09
-4.35853e-10
1.48013e-06
-9.78787e-09
-6.90334e-10
1.48189e-06
-1.00816e-08
-1.07884e-09
1.48337e-06
-1.05737e-08
-1.66223e-09
1.48444e-06
-1.13059e-08
-2.50669e-09
1.48492e-06
-1.22368e-08
-3.68228e-09
-1.33047e-08
-5.04924e-09
1.11256e-06
-5.43912e-10
1.10762e-06
-9.07129e-10
1.10193e-06
-1.50057e-09
1.09528e-06
-2.51098e-09
1.08728e-06
-4.06879e-09
1.07798e-06
-6.78695e-09
-1.17637e-08
1.10762e-06
9.78759e-09
-3.93984e-09
1.10194e-06
1.00812e-08
-2.89522e-09
1.09528e-06
1.0573e-08
-1.41052e-09
1.08729e-06
1.13048e-08
7.57911e-10
1.07799e-06
1.22352e-08
3.8494e-09
1.33022e-08
8.71258e-09
1.48013e-06
1.2346e-08
-3.87022e-09
1.4819e-06
1.23803e-08
-2.98714e-09
1.48337e-06
1.26139e-08
-1.85437e-09
1.48444e-06
1.3106e-08
-3.63047e-10
1.48492e-06
1.3846e-08
1.58881e-09
1.47883e-08
3.80731e-09
1.75147e-06
1.05923e-08
-4.64516e-09
1.75798e-06
1.04044e-08
-4.10971e-09
1.7644e-06
1.03592e-08
-3.52234e-09
1.77083e-06
1.04554e-08
-2.8448e-09
1.77735e-06
1.06634e-08
-2.04757e-09
1.09524e-08
-1.1949e-09
1.94205e-06
6.07435e-09
-5.7243e-09
1.95206e-06
5.87544e-09
-5.4647e-09
1.96196e-06
5.75026e-09
-5.25425e-09
1.97188e-06
5.6904e-09
-5.07831e-09
1.98187e-06
5.6796e-09
-4.89573e-09
5.70665e-09
-4.64793e-09
2.04138e-06
-3.01329e-11
-6.21458e-09
2.05334e-06
-4.24771e-11
-6.0826e-09
2.06514e-06
-5.64098e-11
-6.04314e-09
2.07691e-06
-6.95537e-11
-6.07997e-09
2.08874e-06
-7.67297e-11
-6.15264e-09
-6.78867e-11
-6.17034e-09
2.04138e-06
-6.21455e-09
-6.07486e-09
2.05334e-06
-6.08256e-09
-5.87607e-09
2.06514e-06
-6.04308e-09
-5.75102e-09
2.07691e-06
-6.07989e-09
-5.69132e-09
2.08874e-06
-6.15253e-09
-5.68068e-09
-6.17016e-09
-5.7079e-09
1.93168e-06
-1.11249e-08
-5.90918e-09
1.94189e-06
-1.09056e-08
-5.52322e-09
1.95185e-06
-1.08842e-08
-5.17337e-09
1.9617e-06
-1.10792e-08
-4.85303e-09
1.9716e-06
-1.14923e-08
-4.55545e-09
1.98164e-06
-1.20336e-08
-4.28318e-09
-1.24846e-08
-4.12611e-09
1.74429e-06
-1.27408e-08
-5.29225e-09
1.75073e-06
-1.2782e-08
-4.84751e-09
1.75694e-06
-1.30896e-08
-4.43411e-09
1.76302e-06
-1.37626e-08
-4.0385e-09
1.76913e-06
-1.48968e-08
-3.63992e-09
1.77543e-06
-1.64116e-08
-3.21386e-09
-1.78983e-08
-2.81215e-09
1.4771e-06
-9.878e-09
-5.12589e-09
1.47855e-06
-1.02164e-08
-4.70812e-09
1.47955e-06
-1.0828e-08
-4.34085e-09
1.47999e-06
-1.18522e-08
-4.01693e-09
1.47979e-06
-1.34767e-08
-3.72087e-09
1.47886e-06
-1.57561e-08
-3.41276e-09
-1.86566e-08
-3.22091e-09
1.11122e-06
-5.48819e-09
1.10533e-06
-5.23088e-09
1.09808e-06
-5.07425e-09
1.08889e-06
-5.17546e-09
1.07691e-06
-5.57075e-09
1.06104e-06
-6.66863e-09
-1.06055e-08
9.77729e-07
9.14036e-09
-6.96686e-09
9.71744e-07
8.94254e-09
-5.85316e-09
9.6595e-07
8.65244e-09
-4.26888e-09
9.6026e-07
8.21968e-09
-1.77182e-09
9.53985e-07
7.68968e-09
2.4345e-09
7.51671e-09
1.06011e-08
1.35638e-06
1.09008e-08
-6.38095e-09
1.35735e-06
1.04986e-08
-5.52096e-09
1.3585e-06
1.00777e-08
-4.42717e-09
1.35966e-06
9.61627e-09
-2.92299e-09
1.36058e-06
9.16617e-09
-7.99703e-10
9.16497e-09
2.31292e-09
1.63639e-06
9.39996e-09
-8.0483e-09
1.64143e-06
8.88079e-09
-7.53134e-09
1.64663e-06
8.38612e-09
-7.03278e-09
1.652e-06
7.90581e-09
-6.50917e-09
1.65755e-06
7.46692e-09
-5.89908e-09
7.29023e-09
-5.22765e-09
1.8367e-06
5.52273e-09
-1.00459e-08
1.84482e-06
5.17273e-09
-9.87424e-09
1.85297e-06
4.85221e-09
-9.87758e-09
1.8613e-06
4.55438e-09
-1.00519e-08
1.8699e-06
4.28176e-09
-1.03112e-08
4.12429e-09
-1.04417e-08
1.94189e-06
6.36748e-12
-1.09056e-08
1.95185e-06
1.64119e-11
-1.08843e-08
1.9617e-06
3.73149e-11
-1.10793e-08
1.9716e-06
7.00558e-11
-1.14923e-08
1.98164e-06
1.17724e-10
-1.20338e-08
1.79781e-10
-1.2485e-08
1.94205e-06
-5.72433e-09
-1.05928e-08
1.95206e-06
-5.46476e-09
-1.0405e-08
1.96196e-06
-5.25436e-09
-1.03599e-08
1.97187e-06
-5.07851e-09
-1.04564e-08
1.98187e-06
-4.8961e-09
-1.06645e-08
-4.64858e-09
-1.09537e-08
1.8285e-06
-1.0381e-08
-9.96866e-09
1.8367e-06
-1.00458e-08
-9.40033e-09
1.84481e-06
-9.87421e-09
-8.88127e-09
1.85297e-06
-9.87754e-09
-8.38674e-09
1.8613e-06
-1.00518e-08
-7.90662e-09
1.8699e-06
-1.03111e-08
-7.46807e-09
-1.04416e-08
-7.29225e-09
1.63062e-06
-1.18919e-08
-8.30791e-09
1.63511e-06
-1.18247e-08
-7.56109e-09
1.63961e-06
-1.20162e-08
-6.79668e-09
1.6442e-06
-1.25477e-08
-5.9521e-09
1.64899e-06
-1.3507e-08
-4.9745e-09
1.65416e-06
-1.48202e-08
-3.87754e-09
-1.60944e-08
-3.03859e-09
1.35364e-06
-9.7604e-09
-7.04479e-09
1.35328e-06
-9.93569e-09
-6.24125e-09
1.35268e-06
-1.03861e-08
-5.37028e-09
1.35175e-06
-1.12943e-08
-4.34057e-09
1.35057e-06
-1.29998e-08
-3.04211e-09
1.34924e-06
-1.55189e-08
-1.38407e-09
-2.29318e-08
6.86495e-10
9.81176e-07
-7.95613e-09
9.73224e-07
-7.21468e-09
9.64115e-07
-6.35194e-09
9.52986e-07
-5.34057e-09
9.38305e-07
-3.88981e-09
9.17917e-07
-1.79987e-09
-1.46432e-09
7.30921e-07
7.28439e-09
-6.62148e-09
7.2435e-07
6.82447e-09
-6.10682e-09
7.19347e-07
6.02896e-09
-5.29509e-09
7.16505e-07
4.40015e-09
-3.32938e-09
7.16711e-07
1.57759e-09
6.50744e-10
-4.37724e-09
1.18573e-08
1.11967e-06
8.22153e-09
-5.61e-09
1.11863e-06
7.48817e-09
-5.13869e-09
1.11822e-06
6.51781e-09
-4.50793e-09
1.11801e-06
5.12318e-09
-3.44137e-09
1.11678e-06
3.2171e-09
-1.20532e-09
1.31018e-09
3.02592e-09
1.41713e-06
7.56088e-09
-9.0706e-09
1.41915e-06
6.79642e-09
-8.86408e-09
1.42144e-06
5.9518e-09
-8.75317e-09
1.42377e-06
4.97416e-09
-8.69194e-09
1.42575e-06
3.87712e-09
-8.5359e-09
3.03797e-09
-7.98537e-09
1.63511e-06
4.84716e-09
-1.18247e-08
1.63962e-06
4.43365e-09
-1.20163e-08
1.6442e-06
4.0379e-09
-1.25477e-08
1.64899e-06
3.63912e-09
-1.35071e-08
1.65416e-06
3.21278e-09
-1.48203e-08
2.81072e-09
-1.60949e-08
1.75073e-06
2.79128e-10
-1.2782e-08
1.75694e-06
4.29041e-10
-1.30896e-08
1.76302e-06
6.44232e-10
-1.37626e-08
1.76913e-06
9.3293e-10
-1.48967e-08
1.77543e-06
1.28859e-09
-1.64113e-08
1.61851e-09
-1.78981e-08
1.75147e-06
-4.64508e-09
-1.23464e-08
1.75798e-06
-4.10965e-09
-1.23808e-08
1.7644e-06
-3.52233e-09
-1.26146e-08
1.77083e-06
-2.84491e-09
-1.31068e-08
1.77735e-06
-2.04804e-09
-1.3847e-08
-1.1963e-09
-1.47891e-08
1.63148e-06
-8.62355e-09
-1.13292e-08
1.63639e-06
-8.04817e-09
-1.0901e-08
1.64143e-06
-7.53119e-09
-1.04989e-08
1.64663e-06
-7.03256e-09
-1.0078e-08
1.652e-06
-6.50888e-09
-9.61661e-09
1.65755e-06
-5.89882e-09
-9.1666e-09
-5.22778e-09
-9.16588e-09
1.41544e-06
-9.3916e-09
-8.86394e-09
1.41713e-06
-9.07053e-09
-8.22158e-09
1.41915e-06
-8.86398e-09
-7.48822e-09
1.42144e-06
-8.75297e-09
-6.51784e-09
1.42377e-06
-8.69162e-09
-5.12307e-09
1.42574e-06
-8.53542e-09
-3.21683e-09
-7.9849e-09
-1.31007e-09
1.12004e-06
-7.95703e-09
-5.6535e-09
1.1176e-06
-7.90988e-09
-4.96447e-09
1.1155e-06
-7.99367e-09
-4.13684e-09
1.11367e-06
-8.27285e-09
-2.99782e-09
1.11197e-06
-8.77994e-09
-1.255e-09
1.11028e-06
-9.77421e-09
1.54471e-09
-1.3679e-08
5.7979e-09
7.36526e-07
-6.75674e-09
7.27508e-07
-6.10724e-09
7.18458e-07
-5.29522e-09
7.09045e-07
-4.20054e-09
6.98386e-07
-2.01092e-09
6.8435e-07
2.46214e-09
1.48749e-08
4.24197e-07
2.73987e-09
-2.02047e-09
4.17763e-07
2.3212e-09
-1.99392e-09
4.12866e-07
1.57097e-09
-1.96974e-09
4.1158e-07
-2.47188e-10
-1.79575e-09
4.18319e-07
-4.84677e-09
-1.24144e-09
-1.94771e-08
1.08001e-08
8.06558e-07
4.96437e-09
-3.09527e-09
8.0257e-07
4.13681e-09
-2.96698e-09
7.99457e-07
2.9979e-09
-2.82166e-09
7.9668e-07
1.25525e-09
-2.16684e-09
7.9171e-07
-1.5442e-09
4.62143e-10
-5.79694e-09
1.33856e-08
1.1176e-06
6.24114e-09
-7.91e-09
1.1155e-06
5.3702e-09
-7.99374e-09
1.11367e-06
4.34054e-09
-8.27292e-09
1.11197e-06
3.04215e-09
-8.78003e-09
1.11028e-06
1.38425e-09
-9.77439e-09
-6.86309e-10
-1.36792e-08
1.35328e-06
4.70796e-09
-9.93579e-09
1.35268e-06
4.34065e-09
-1.03862e-08
1.35175e-06
4.01668e-09
-1.12943e-08
1.35057e-06
3.72054e-09
-1.29997e-08
1.34924e-06
3.4123e-09
-1.55189e-08
3.22035e-09
-2.29321e-08
1.47855e-06
6.9009e-10
-1.02164e-08
1.47955e-06
1.07854e-09
-1.0828e-08
1.48e-06
1.66186e-09
-1.18522e-08
1.47979e-06
2.50621e-09
-1.34766e-08
1.47886e-06
3.68164e-09
-1.57558e-08
5.04852e-09
-1.86561e-08
1.48013e-06
-3.86995e-09
-9.78785e-09
1.4819e-06
-2.98681e-09
-1.00816e-08
1.48337e-06
-1.85398e-09
-1.05736e-08
1.48444e-06
-3.62579e-10
-1.13056e-08
1.48492e-06
1.58929e-09
-1.22364e-08
3.80754e-09
-1.33036e-08
1.35563e-06
-7.14387e-09
-9.31325e-09
1.35638e-06
-6.38067e-09
-9.14049e-09
1.35735e-06
-5.52061e-09
-8.9427e-09
1.3585e-06
-4.42669e-09
-8.65264e-09
1.35966e-06
-2.92228e-09
-8.21992e-09
1.36057e-06
-7.98796e-10
-7.68998e-09
2.31368e-09
-7.51766e-09
1.12138e-06
-6.05728e-09
-7.60212e-09
1.11967e-06
-5.60985e-09
-7.28437e-09
1.11863e-06
-5.13849e-09
-6.82444e-09
1.11822e-06
-4.50764e-09
-6.02894e-09
1.11801e-06
-3.44088e-09
-4.40003e-09
1.11678e-06
-1.2046e-09
-1.57723e-09
3.02711e-09
4.37821e-09
8.11297e-07
-3.25282e-09
-3.0326e-09
8.06558e-07
-3.09522e-09
-2.73994e-09
8.02571e-07
-2.96695e-09
-2.32123e-09
7.99458e-07
-2.82159e-09
-1.57096e-09
7.96682e-07
-2.16675e-09
2.47222e-10
7.91713e-07
4.62227e-10
4.8467e-09
1.33861e-08
1.94772e-08
4.30802e-07
-1.70247e-09
4.22965e-07
-1.36521e-09
4.15654e-07
-9.51003e-10
4.09005e-07
-3.73823e-10
4.03842e-07
9.86336e-10
4.02699e-07
4.06706e-09
2.66503e-08
1.52363e-07
1.36522e-09
1.49418e-07
9.51011e-10
1.47074e-07
3.73873e-10
1.46265e-07
-9.86201e-10
1.4909e-07
-4.06675e-09
-2.66492e-08
4.22964e-07
6.10735e-09
4.15653e-07
5.29525e-09
4.09005e-07
4.20063e-09
4.03841e-07
2.01113e-09
4.02698e-07
-2.46158e-09
-1.48733e-08
7.27508e-07
7.21477e-09
7.18458e-07
6.35198e-09
7.09045e-07
5.34061e-09
6.98386e-07
3.88989e-09
6.8435e-07
1.80003e-09
1.46472e-09
9.73224e-07
5.23085e-09
9.64115e-07
5.0742e-09
9.52986e-07
5.17538e-09
9.38306e-07
5.57064e-09
9.17918e-07
6.66842e-09
1.06052e-08
1.10533e-06
9.06977e-10
1.09808e-06
1.50039e-09
1.08889e-06
2.51074e-09
1.07692e-06
4.06849e-09
1.06104e-06
6.78653e-09
1.17631e-08
1.10762e-06
-3.93948e-09
1.10193e-06
-2.89475e-09
1.09528e-06
-1.40988e-09
1.08729e-06
7.58806e-10
1.07798e-06
3.85073e-09
8.71432e-09
9.83842e-07
-7.81815e-09
9.77729e-07
-6.96647e-09
9.71744e-07
-5.85264e-09
9.6595e-07
-4.26818e-09
9.60259e-07
-1.77081e-09
9.53984e-07
2.43627e-09
1.06044e-08
7.38551e-07
-7.07661e-09
7.30921e-07
-6.62121e-09
7.24351e-07
-6.1065e-09
7.19348e-07
-5.29465e-09
7.16507e-07
-3.32878e-09
7.16714e-07
6.51836e-10
1.18596e-08
4.31538e-07
-2.08872e-09
4.24197e-07
-2.02053e-09
4.17763e-07
-1.99382e-09
4.12868e-07
-1.96956e-09
4.11582e-07
-1.79556e-09
4.18322e-07
-1.24119e-09
1.08009e-08
1.55748e-07
1.52363e-07
1.49418e-07
1.47075e-07
1.46265e-07
1.49091e-07
1.25083e-07
-1.18115e-08
5.61762e-08
1.00773e-07
-2.28473e-08
4.71579e-08
8.98248e-08
-3.07411e-08
4.16893e-08
-3.38624e-08
3.93631e-08
2.96639e-07
-4.26339e-08
5.52722e-08
2.69954e-07
-4.77019e-08
5.15402e-08
2.5505e-07
-5.72242e-08
4.13867e-08
3.54017e-08
4.61336e-07
2.70306e-08
4.64263e-07
3.0685e-08
2.92572e-08
3.46511e-07
3.5761e-09
9.39009e-08
3.05078e-07
-1.87444e-09
9.04656e-08
2.76107e-07
-1.13199e-08
8.1981e-08
-1.83287e-08
6.03785e-07
-3.22195e-08
8.20577e-08
6.02367e-07
-3.10341e-08
8.21179e-08
5.92068e-07
-3.55486e-08
7.59146e-08
8.34673e-07
5.77502e-08
8.36775e-07
5.88988e-08
5.74452e-08
5.78695e-07
2.25129e-10
1.1588e-07
5.47938e-07
3.02069e-09
1.18202e-07
-9.77398e-10
1.1353e-07
8.60442e-07
-2.65e-08
9.95722e-08
8.66583e-07
-2.25597e-08
1.01557e-07
-2.29621e-08
9.9661e-08
1.10162e-06
7.72997e-08
1.10657e-06
7.83639e-08
7.78733e-08
7.41453e-07
-2.34668e-09
7.27174e-07
1.72303e-09
1.73221e-09
1.05273e-06
-1.70764e-08
1.0573e-06
-1.38226e-08
-1.26842e-08
1.29045e-06
1.29688e-06
)
;

boundaryField
{
    inlet
    {
        type            calculated;
        value           nonuniform List<scalar> 0();
    }
    ami1
    {
        type            cyclicAMI;
        value           nonuniform List<scalar> 
100
(
1.86541e-07
4.38857e-07
7.19843e-07
9.44592e-07
1.06774e-06
1.04123e-06
8.85843e-07
6.54324e-07
4.04296e-07
1.86533e-07
4.04312e-07
7.67675e-07
1.11038e-06
1.36042e-06
1.48467e-06
1.4778e-06
1.35218e-06
1.11088e-06
7.67665e-07
4.38851e-07
6.54338e-07
1.11087e-06
1.42677e-06
1.66346e-06
1.784e-06
1.78204e-06
1.66005e-06
1.42678e-06
1.11038e-06
7.19835e-07
8.85852e-07
1.35217e-06
1.66004e-06
1.87885e-06
1.99194e-06
1.9919e-06
1.87886e-06
1.66346e-06
1.36042e-06
9.44578e-07
1.04123e-06
1.47779e-06
1.78203e-06
1.9919e-06
2.10062e-06
2.10062e-06
1.99195e-06
1.784e-06
1.48467e-06
1.06773e-06
1.06774e-06
1.48468e-06
1.784e-06
1.99195e-06
2.10062e-06
2.10062e-06
1.9919e-06
1.78204e-06
1.47779e-06
1.04122e-06
9.4458e-07
1.36042e-06
1.66346e-06
1.87886e-06
1.9919e-06
1.99195e-06
1.87885e-06
1.66004e-06
1.35217e-06
8.85844e-07
7.19832e-07
1.11038e-06
1.42678e-06
1.66004e-06
1.78204e-06
1.784e-06
1.66346e-06
1.42677e-06
1.11087e-06
6.54332e-07
4.38854e-07
7.67671e-07
1.11087e-06
1.35217e-06
1.47779e-06
1.48467e-06
1.36042e-06
1.11038e-06
7.67675e-07
4.0431e-07
1.8654e-07
4.04307e-07
6.54333e-07
8.85846e-07
1.04123e-06
1.06773e-06
9.44576e-07
7.19837e-07
4.38858e-07
1.86543e-07
)
;
    }
    walls
    {
        type            calculated;
        value           nonuniform List<scalar> 
283
(
0
0
0
0
0
0
0
0
0
0
0
0
0
0
0
0
0
0
0
0
0
0
0
0
0
0
0
0
0
0
0
0
0
0
0
0
0
0
0
0
0
0
0
0
0
0
0
0
0
0
0
0
0
0
0
0
0
0
0
0
0
0
0
0
0
0
0
0
0
0
0
0
0
0
0
0
0
0
0
0
0
0
0
0
0
0
0
0
0
0
0
0
0
0
0
0
0
0
0
0
0
0
0
0
0
0
0
0
0
0
0
0
0
0
0
0
0
0
0
0
0
0
0
0
0
0
0
0
0
0
0
0
0
0
0
0
0
0
0
0
0
0
0
0
0
0
0
0
0
0
0
0
0
0
0
0
0
0
0
0
0
0
0
0
0
0
0
0
0
0
0
0
0
0
0
0
0
0
0
0
0
0
0
0
0
0
0
0
0
0
0
0
0
0
0
0
0
0
0
0
0
0
0
0
0
0
0
0
0
0
0
0
0
0
0
0
0
0
0
0
0
0
0
0
0
0
0
0
0
0
0
0
0
0
0
0
0
0
0
0
0
0
0
0
0
0
0
0
0
0
0
0
0
0
0
0
0
0
2.90979e-14
2.43942e-14
1.84387e-14
2.90979e-14
2.43942e-14
1.84387e-14
2.90979e-14
2.43942e-14
1.84387e-14
2.90979e-14
2.43942e-14
-2.90979e-14
-2.43942e-14
-1.84387e-14
-1.28555e-14
-2.90979e-14
-2.43942e-14
-1.84387e-14
-1.28555e-14
-2.90979e-14
-2.43942e-14
-1.84387e-14
-1.28555e-14
-2.90979e-14
-2.43942e-14
)
;
    }
    ami2
    {
        type            cyclicAMI;
        value           nonuniform List<scalar> 
12
(
-1.69447e-07
-3.21089e-07
-4.45883e-07
-3.87811e-07
-5.94775e-07
-8.33914e-07
-6.00899e-07
-8.51232e-07
-1.09882e-06
-7.51156e-07
-1.04868e-06
-1.2861e-06
)
;
    }
    outlet
    {
        type            calculated;
        value           nonuniform List<scalar> 0();
    }
    procBoundary2to0
    {
        type            processor;
        value           nonuniform List<scalar> 
28
(
8.43246e-08
2.4812e-07
-6.23339e-08
-8.51175e-08
-8.13134e-08
4.61941e-07
-8.41607e-08
2.57748e-07
7.60509e-08
5.80586e-07
-4.11723e-08
6.97272e-08
-6.36981e-08
-6.13507e-08
8.36253e-07
-6.32147e-08
5.17366e-07
8.64821e-07
-4.88439e-08
-4.69758e-08
1.10987e-06
-4.6693e-08
7.09614e-07
1.05847e-06
-3.15473e-08
-3.02052e-08
1.30267e-06
-2.93535e-08
)
;
    }
    procBoundary2to1
    {
        type            processor;
        value           nonuniform List<scalar> 9(1.2793e-07 1.30759e-07 1.29358e-07 1.10258e-07 1.12526e-07 1.12915e-07 8.74228e-08 8.83106e-08 8.87583e-08);
    }
    procBoundary2to3
    {
        type            processor;
        value           nonuniform List<scalar> 
110
(
-1.55749e-07
-4.31538e-07
-7.38552e-07
-9.83843e-07
-1.11256e-06
-1.11123e-06
5.48839e-09
-9.88469e-07
-7.45682e-07
-4.39109e-07
-1.5954e-07
-4.30802e-07
-8.11297e-07
-1.12138e-06
-1.35563e-06
-1.47813e-06
-1.4771e-06
5.12606e-09
-1.35385e-06
-1.12286e-06
-8.16722e-07
-4.39558e-07
-7.36526e-07
-1.12004e-06
-1.41544e-06
-1.63148e-06
-1.74479e-06
-1.74429e-06
5.2923e-09
-1.62609e-06
-1.41412e-06
-1.12373e-06
-7.46895e-07
-9.81176e-07
-1.35364e-06
-1.63062e-06
-1.8285e-06
-1.9318e-06
-1.93169e-06
5.90912e-09
-1.8201e-06
-1.62666e-06
-1.35511e-06
-9.90051e-07
-1.11122e-06
-1.4771e-06
-1.74429e-06
-1.93169e-06
-2.0291e-06
-2.0291e-06
6.34962e-09
-1.92118e-06
-1.73791e-06
-1.47591e-06
-1.11694e-06
-1.11256e-06
-1.47813e-06
-1.74479e-06
-1.9318e-06
-2.0291e-06
-2.0291e-06
6.44097e-09
-1.9211e-06
-1.73756e-06
-1.47527e-06
-1.11616e-06
-9.83842e-07
-1.35563e-06
-1.63148e-06
-1.8285e-06
-1.93169e-06
-1.9318e-06
6.04043e-09
-1.8201e-06
-1.62609e-06
-1.35385e-06
-9.88468e-07
-7.38551e-07
-1.12138e-06
-1.41544e-06
-1.63062e-06
-1.74429e-06
-1.74479e-06
5.16093e-09
-1.62666e-06
-1.41412e-06
-1.12286e-06
-7.45682e-07
-4.31537e-07
-8.11297e-07
-1.12004e-06
-1.35364e-06
-1.4771e-06
-1.47813e-06
4.60778e-09
-1.35511e-06
-1.12373e-06
-8.16722e-07
-4.39109e-07
-1.55748e-07
-4.30802e-07
-7.36525e-07
-9.81176e-07
-1.11122e-06
-1.11256e-06
4.71345e-09
-9.90051e-07
-7.46895e-07
-4.39558e-07
-1.5954e-07
)
;
    }
}


// ************************************************************************* //
