/*--------------------------------*- C++ -*----------------------------------*\
| =========                 |                                                 |
| \\      /  F ield         | OpenFOAM: The Open Source CFD Toolbox           |
|  \\    /   O peration     | Version:  2212                                  |
|   \\  /    A nd           | Website:  www.openfoam.com                      |
|    \\/     M anipulation  |                                                 |
\*---------------------------------------------------------------------------*/
FoamFile
{
    version     2.0;
    format      ascii;
    arch        "LSB;label=32;scalar=64";
    class       surfaceVectorField;
    location    "2.15";
    object      Uf;
}
// * * * * * * * * * * * * * * * * * * * * * * * * * * * * * * * * * * * * * //

dimensions      [0 1 -1 0 0 0 0];

internalField   nonuniform List<vector> 
1795
(
(0.0556156 0.000285305 0.000290473)
(0.0650518 0.000466457 0.000389905)
(0.0650528 0.000386697 0.000470466)
(0.0536273 0.000222635 0.00023106)
(0.0629675 0.00041114 0.000311851)
(0.0629693 0.00030664 0.000417882)
(0.0518841 0.000175852 0.000189898)
(0.0611342 0.000365826 0.000261545)
(0.0611372 0.000253033 0.000377139)
(0.0503372 0.000138927 0.000162334)
(0.0594923 0.000322869 0.000231096)
(0.0594979 0.000216005 0.000342005)
(0.0489551 0.000107024 0.000144532)
(0.0580083 0.00027995 0.000214485)
(0.0580185 0.000189176 0.000311653)
(0.0477095 7.58517e-05 0.000133848)
(0.0566559 0.000237596 0.000206561)
(0.0566736 0.000168894 0.000288786)
(0.0554145 0.00019218 0.000204195)
(0.0554435 0.000152945 0.000274893)
(0.0765559 0.000988543 0.000628058)
(0.0830593 0.00136834 0.000915381)
(0.0844809 0.000980183 0.000693826)
(0.0746496 0.000898967 0.000523048)
(0.0813218 0.00127313 0.000805127)
(0.0828805 0.000840347 0.000553903)
(0.0729206 0.000820438 0.000461462)
(0.0797417 0.00118484 0.000732262)
(0.0814484 0.00073619 0.000464414)
(0.0713319 0.000741429 0.000428167)
(0.0782896 0.0010963 0.000689384)
(0.0801521 0.000647804 0.000407707)
(0.0698608 0.000661064 0.000411531)
(0.0769422 0.0010061 0.000667788)
(0.0789653 0.000566996 0.000372109)
(0.0684894 0.000580634 0.000404445)
(0.0756798 0.000914128 0.000659956)
(0.0778692 0.000494976 0.000352682)
(0.0744881 0.0008168 0.000662062)
(0.076857 0.000427066 0.000345464)
(0.0891467 0.00165206 0.00111627)
(0.0923648 0.00157555 0.00126704)
(0.0941455 0.00164205 0.00120615)
(0.0877962 0.00154451 0.0010362)
(0.0913258 0.00147926 0.00117462)
(0.0931613 0.00150031 0.00109968)
(0.0865475 0.00143059 0.000977721)
(0.0903321 0.0013672 0.00110817)
(0.0922537 0.00136735 0.0010203)
(0.0853839 0.0013175 0.00094252)
(0.0893943 0.00125304 0.00106585)
(0.0914213 0.00124479 0.000967852)
(0.0842863 0.00120663 0.000927626)
(0.0885017 0.00113945 0.00104432)
(0.0906538 0.00113221 0.000938706)
(0.0832384 0.00109279 0.000929358)
(0.0876373 0.0010269 0.00104004)
(0.0899386 0.00102467 0.000928357)
(0.0867859 0.000911039 0.0010516)
(0.0892665 0.000913389 0.000934108)
(0.0948665 0.00135334 0.0013304)
(0.0959888 0.000917576 0.0013805)
(0.0985074 0.00139265 0.00151707)
(0.0942272 0.00129305 0.00126139)
(0.095517 0.000903831 0.00128097)
(0.0981714 0.00129918 0.00142302)
(0.0935924 0.00120928 0.00121851)
(0.095057 0.000871762 0.00122136)
(0.0978206 0.00119388 0.0013488)
(0.0929625 0.00111079 0.00119422)
(0.0945924 0.000814844 0.00119226)
(0.097476 0.00108592 0.00129962)
(0.0923315 0.00100743 0.00118651)
(0.0941199 0.000748359 0.00118513)
(0.097137 0.000980563 0.00127199)
(0.0916879 0.000903834 0.00119498)
(0.093629 0.000683116 0.00119345)
(0.0967951 0.000878502 0.00126372)
(0.0931017 0.000621815 0.00121818)
(0.0964418 0.000777598 0.0012766)
(0.0966704 0.000439785 0.00133067)
(0.0968293 2.9639e-06 0.00138908)
(0.0999367 0.000486711 0.00157368)
(0.0963871 0.000433149 0.00123726)
(0.0965275 5.10415e-06 0.00127098)
(0.0998947 0.000464042 0.00148323)
(0.0961163 0.000421263 0.00119033)
(0.0962701 8.66731e-06 0.00120117)
(0.099859 0.000442284 0.0014216)
(0.0958288 0.00040184 0.00117912)
(0.0959909 1.45994e-05 0.0011753)
(0.0998 0.000415896 0.00138484)
(0.095509 0.000379428 0.00118894)
(0.0956889 2.44589e-05 0.00117583)
(0.099722 0.000387004 0.00136339)
(0.0951438 0.000360255 0.00121415)
(0.0953592 4.09705e-05 0.00118987)
(0.09962 0.000360628 0.00135975)
(0.0949842 6.85269e-05 0.00121696)
(0.0994776 0.000340426 0.00138009)
(0.0966744 -0.000432113 0.00132939)
(0.0959937 -0.000913267 0.00137956)
(0.0999395 -0.000481658 0.00157269)
(0.096394 -0.00042009 0.00123489)
(0.0955256 -0.000896317 0.00127903)
(0.0998994 -0.000455343 0.00148149)
(0.0961283 -0.000399285 0.00118615)
(0.0950718 -0.0008593 0.00121739)
(0.0998669 -0.000427363 0.00141863)
(0.0958496 -0.000365172 0.001172)
(0.0946179 -0.000794482 0.00118502)
(0.0998134 -0.000390682 0.00137995)
(0.0955452 -0.000318461 0.00117676)
(0.0941634 -0.000715328 0.00117211)
(0.0997446 -0.000345021 0.00135504)
(0.0952071 -0.000258822 0.00119267)
(0.0937034 -0.000628878 0.0011714)
(0.0996592 -0.000291908 0.00134484)
(0.0995464 -0.000228326 0.00135317)
(0.0948757 -0.00134954 0.00132887)
(0.0923713 -0.00157526 0.00126548)
(0.0985134 -0.00139079 0.00151515)
(0.094243 -0.00128673 0.00125797)
(0.0913373 -0.00147873 0.00117183)
(0.0981817 -0.00129596 0.00141979)
(0.0936196 -0.00119932 0.00121169)
(0.0903517 -0.00136645 0.00110299)
(0.097838 -0.0011885 0.00134317)
(0.0930088 -0.00109529 0.00118144)
(0.0894275 -0.00125208 0.00105696)
(0.0975054 -0.0010774 0.00128975)
(0.09241 -0.000982686 0.00116418)
(0.088558 -0.00113838 0.00102841)
(0.0971869 -0.000967214 0.00125445)
(0.0877318 -0.00102532 0.00101302)
(0.0968795 -0.000858022 0.00123308)
(0.0891553 -0.00165462 0.00111351)
(0.0830635 -0.00137139 0.000913173)
(0.0941507 -0.00164436 0.00120327)
(0.0878109 -0.00154877 0.00103169)
(0.0813292 -0.00127823 0.000801472)
(0.0931703 -0.00150427 0.00109496)
(0.0865725 -0.00143769 0.000970479)
(0.0797543 -0.00119349 0.000726151)
(0.092269 -0.0013741 0.00101245)
(0.0854259 -0.00132921 0.000930433)
(0.0783113 -0.00111121 0.000678518)
(0.0914472 -0.00125577 0.000954739)
(0.0843566 -0.00122546 0.000906773)
(0.0769801 -0.00103068 0.000648948)
(0.0906974 -0.00115032 0.000916374)
(0.075744 -0.000952349 0.000631021)
(0.0900103 -0.00105443 0.000890836)
(0.0765592 -0.000993331 0.000624786)
(0.0650527 -0.00047044 0.000386715)
(0.0844822 -0.000983899 0.000690406)
(0.0746554 -0.000907201 0.000517572)
(0.0629692 -0.000417852 0.000306663)
(0.0828829 -0.000846716 0.000548114)
(0.0729309 -0.0008346 0.000451415)
(0.0611371 -0.000377102 0.000253062)
(0.0814526 -0.000747134 0.000454483)
(0.0713507 -0.000765223 0.000410118)
(0.0594978 -0.000341961 0.000216043)
(0.0801597 -0.000667017 0.000389363)
(0.0698944 -0.000699696 0.000384043)
(0.0580183 -0.000311599 0.000189226)
(0.0789792 -0.000598522 0.000341214)
(0.0566734 -0.000288723 0.000168958)
(0.0778936 -0.000543638 0.000306463)
(0.0556155 -0.000290446 0.000285333)
(0.0650518 -0.000389886 0.000466488)
(0.0536272 -0.000231029 0.00022267)
(0.0629675 -0.000311828 0.000411177)
(0.051884 -0.000189861 0.000175896)
(0.0611341 -0.000261518 0.000365872)
(0.0503371 -0.00016229 0.000138983)
(0.0594922 -0.000231061 0.000322926)
(0.048955 -0.000144481 0.000107097)
(0.0580082 -0.000214442 0.000280022)
(0.0566558 -0.000206516 0.000237691)
(0.0765592 0.000624771 0.00099335)
(0.0844822 0.000690386 0.000983916)
(0.0830636 0.00091316 0.0013714)
(0.0746555 0.000517552 0.000907225)
(0.082883 0.000548088 0.000846737)
(0.0813293 0.000801454 0.00127825)
(0.072931 0.000451385 0.000834628)
(0.0814526 0.000454449 0.000747161)
(0.0797544 0.000726127 0.00119351)
(0.0713508 0.000410078 0.000765256)
(0.0801598 0.000389317 0.000667052)
(0.0783115 0.000678484 0.00111124)
(0.0698945 0.000383995 0.00069974)
(0.0789793 0.00034116 0.000598569)
(0.0769802 0.000648902 0.0010307)
(0.068547 0.000369954 0.000643358)
(0.0778938 0.000306394 0.000543685)
(0.0757443 0.000630961 0.000952379)
(0.0768973 0.000281161 0.000501903)
(0.0745943 0.000621647 0.000875754)
(0.0926189 0.000959304 0.000964963)
(0.095959 0.00140261 0.00132401)
(0.0959607 0.00132004 0.00140633)
(0.091596 0.000773062 0.000782776)
(0.0951471 0.00118812 0.0011229)
(0.0951501 0.00111613 0.00119454)
(0.0906917 0.000637079 0.000654257)
(0.0944243 0.00102576 0.000979143)
(0.0944295 0.000967658 0.00103679)
(0.0898865 0.000532549 0.000561599)
(0.0937857 0.000898266 0.000876626)
(0.0937946 0.000856537 0.000917089)
(0.0891612 0.000450583 0.000495716)
(0.0932172 0.000794139 0.000804968)
(0.0932321 0.000772014 0.000824901)
(0.0885069 0.000383399 0.0004502)
(0.0927079 0.000704894 0.000757269)
(0.0927317 0.000706013 0.000753251)
(0.0922573 0.000619446 0.000726646)
(0.0922937 0.000648728 0.000694697)
(0.0989305 0.00156068 0.00148641)
(0.100662 0.00158251 0.00176782)
(0.100854 0.00176829 0.0017601)
(0.0984595 0.00137322 0.00132623)
(0.100403 0.00139333 0.00159381)
(0.100605 0.00156566 0.0015679)
(0.0980392 0.00121684 0.00120898)
(0.100164 0.00122542 0.00145128)
(0.100376 0.00139619 0.00141655)
(0.0976692 0.00108401 0.00112717)
(0.0999523 0.00108177 0.00134984)
(0.100178 0.00125381 0.00129975)
(0.0973463 0.000966729 0.00107361)
(0.0997672 0.000957925 0.00128258)
(0.100014 0.00113209 0.00121222)
(0.0970678 0.000855233 0.00104153)
(0.0996061 0.000845708 0.00124215)
(0.0998838 0.00102381 0.00114835)
(0.099467 0.000735725 0.00122479)
(0.0997888 0.000919739 0.00110319)
(0.102271 0.00138136 0.00188783)
(0.102838 0.00101829 0.00200703)
(0.103284 0.00147895 0.00205134)
(0.102266 0.00122873 0.00173455)
(0.102961 0.000918238 0.00187258)
(0.103488 0.00132662 0.00189309)
(0.102256 0.00108913 0.00161019)
(0.103061 0.000824886 0.00174801)
(0.103662 0.00118336 0.00175062)
(0.102246 0.000968068 0.00152553)
(0.103148 0.000740953 0.00165008)
(0.103819 0.00105765 0.00164109)
(0.102236 0.000860125 0.00147333)
(0.103231 0.000665965 0.00157822)
(0.103966 0.000948223 0.00156107)
(0.102227 0.000757791 0.00144941)
(0.103307 0.000596943 0.0015378)
(0.104107 0.000848405 0.00150734)
(0.103369 0.000531514 0.00153006)
(0.104244 0.000752691 0.00147905)
(0.103551 0.000528835 0.00199316)
(0.103426 2.35004e-06 0.00204621)
(0.104183 0.000557019 0.00210823)
(0.103783 0.00048644 0.00188808)
(0.103678 3.99785e-06 0.00193836)
(0.104618 0.000510417 0.00199679)
(0.103986 0.000446114 0.00179007)
(0.103894 6.95555e-06 0.00183502)
(0.105004 0.000466475 0.0018871)
(0.104172 0.000407238 0.00170469)
(0.104088 1.18915e-05 0.00174054)
(0.105353 0.000425056 0.00178796)
(0.104344 0.000372485 0.00164443)
(0.104271 2.00008e-05 0.00166093)
(0.105677 0.000387482 0.00170682)
(0.104496 0.000343826 0.00162036)
(0.104442 3.23944e-05 0.00161369)
(0.105976 0.000355432 0.00165593)
(0.104592 5.14468e-05 0.00160224)
(0.106252 0.000328513 0.00163727)
(0.103555 -0.000522837 0.00199141)
(0.102842 -0.00101571 0.0020047)
(0.104185 -0.000553711 0.00210674)
(0.103788 -0.000476006 0.0018853)
(0.102967 -0.000913766 0.00186907)
(0.104621 -0.000504755 0.0019945)
(0.103994 -0.00042814 0.00178549)
(0.103071 -0.000816739 0.00174233)
(0.10501 -0.000456663 0.00188333)
(0.104186 -0.000376982 0.00169678)
(0.103165 -0.000726834 0.00164032)
(0.105363 -0.00040841 0.00178155)
(0.104368 -0.000323256 0.0016302)
(0.10326 -0.000642605 0.0015614)
(0.105691 -0.00035995 0.00169548)
(0.104538 -0.000265534 0.00159558)
(0.103356 -0.000561574 0.00150893)
(0.106 -0.000311665 0.00163595)
(0.106292 -0.000259853 0.00160419)
(0.102278 -0.0013802 0.00188379)
(0.100666 -0.00158352 0.00176428)
(0.103288 -0.00147907 0.00204777)
(0.102277 -0.0012266 0.00172823)
(0.100411 -0.00139512 0.00158807)
(0.103494 -0.00132683 0.00188759)
(0.102274 -0.00108528 0.00159952)
(0.100177 -0.00122853 0.00144191)
(0.103673 -0.00118324 0.00174172)
(0.102277 -0.000961711 0.00150718)
(0.0999733 -0.00108708 0.00133396)
(0.103836 -0.00105713 0.00162584)
(0.102289 -0.000851281 0.00144233)
(0.0998027 -0.000967231 0.00125614)
(0.103995 -0.000947207 0.00153561)
(0.0996644 -0.000862604 0.00119847)
(0.104155 -0.000848456 0.00146555)
(0.0989356 -0.00156444 0.00148122)
(0.0959607 -0.00140631 0.00132006)
(0.100855 -0.00177163 0.00175603)
(0.0984683 -0.00137975 0.00131752)
(0.0951501 -0.00119453 0.00111616)
(0.100608 -0.00157123 0.00156101)
(0.0980542 -0.0012277 0.00119443)
(0.0944294 -0.00103677 0.000967702)
(0.100382 -0.00140556 0.00140518)
(0.0976946 -0.00110194 0.00110309)
(0.0937945 -0.000917058 0.000856595)
(0.100188 -0.00126899 0.00128108)
(0.0973874 -0.000997011 0.0010343)
(0.093232 -0.000824863 0.000772091)
(0.10003 -0.00115701 0.00118197)
(0.0927315 -0.000753238 0.000706145)
(0.0999106 -0.00106483 0.00109962)
(0.0926188 -0.000964943 0.000959335)
(0.0844808 -0.000693805 0.000980212)
(0.0959589 -0.00132399 0.00140264)
(0.0915959 -0.000782749 0.000773101)
(0.0828805 -0.000553878 0.000840385)
(0.0951471 -0.00112287 0.00118816)
(0.0906916 -0.000654222 0.00063713)
(0.0814483 -0.000464383 0.000736238)
(0.0944242 -0.000979113 0.00102582)
(0.0898864 -0.00056155 0.000532611)
(0.080152 -0.000407666 0.000647866)
(0.0937856 -0.000876585 0.000898332)
(0.0891611 -0.00049567 0.000450674)
(0.0789652 -0.000372051 0.000567069)
(0.0932171 -0.00080491 0.000794216)
(0.0778691 -0.000352618 0.000495069)
(0.0927078 -0.00075722 0.00070501)
(0.0765559 -0.000628043 0.000988583)
(0.0830593 -0.000915365 0.00136838)
(0.0746495 -0.00052303 0.000899017)
(0.0813218 -0.000805109 0.00127318)
(0.0729205 -0.00046144 0.000820502)
(0.0797416 -0.000732239 0.00118491)
(0.0713318 -0.000428137 0.000741509)
(0.0782895 -0.000689357 0.00109638)
(0.0698607 -0.000411494 0.000661157)
(0.0769421 -0.00066775 0.0010062)
(0.0756796 -0.000659909 0.000914243)
(0.0891554 0.00111349 0.00165463)
(0.0941507 0.00120325 0.00164437)
(0.0923714 0.00126546 0.00157527)
(0.087811 0.00103167 0.00154879)
(0.0931704 0.00109493 0.00150428)
(0.0913374 0.00117181 0.00147874)
(0.0865726 0.00097045 0.0014377)
(0.0922691 0.00101242 0.00137412)
(0.0903518 0.00110297 0.00136646)
(0.0854261 0.000930393 0.00132922)
(0.0914473 0.000954697 0.00125578)
(0.0894276 0.00105693 0.00125209)
(0.0843568 0.000906714 0.00122547)
(0.0906976 0.000916313 0.00115033)
(0.0885581 0.00102837 0.00113839)
(0.0833552 0.000893731 0.00112225)
(0.0900105 0.000890735 0.00105443)
(0.0877321 0.00101295 0.00102533)
(0.0893825 0.000872246 0.000962009)
(0.0869442 0.00100636 0.000908431)
(0.0989356 0.00148119 0.00156445)
(0.100855 0.001756 0.00177164)
(0.100666 0.00176425 0.00158352)
(0.0984684 0.00131748 0.00137976)
(0.100608 0.00156097 0.00157124)
(0.100411 0.00158804 0.00139513)
(0.0980543 0.00119438 0.00122771)
(0.100382 0.00140512 0.00140557)
(0.100177 0.00144187 0.00122854)
(0.0976947 0.00110301 0.00110196)
(0.100188 0.00128102 0.00126901)
(0.0999734 0.0013339 0.00108709)
(0.0973875 0.00103418 0.000997008)
(0.100031 0.00118188 0.00115702)
(0.0998029 0.00125605 0.000967233)
(0.0971323 0.000978177 0.000906695)
(0.0999108 0.00109948 0.00106483)
(0.0996646 0.00119833 0.000862586)
(0.0998301 0.00102536 0.000987142)
(0.0995589 0.00115331 0.000765088)
(0.102727 0.00176785 0.00177319)
(0.103524 0.0016957 0.00196168)
(0.103525 0.00195772 0.00169848)
(0.102748 0.00158427 0.00159298)
(0.103744 0.00151663 0.00178902)
(0.103746 0.00178273 0.00152114)
(0.102768 0.00142955 0.0014437)
(0.103934 0.00136076 0.00163794)
(0.103937 0.00162786 0.00136796)
(0.102798 0.00129894 0.00132179)
(0.10411 0.00122611 0.00151123)
(0.104116 0.00149487 0.0012377)
(0.102847 0.00118691 0.00122352)
(0.104284 0.00110988 0.0014081)
(0.104293 0.00138172 0.00112844)
(0.10292 0.00108689 0.00114518)
(0.104463 0.0010071 0.00132741)
(0.104476 0.00128481 0.00103696)
(0.104651 0.000911566 0.00126727)
(0.104672 0.00119906 0.000959111)
(0.104604 0.00141673 0.00198265)
(0.104693 0.00103685 0.00206856)
(0.104795 0.00150812 0.00181033)
(0.105005 0.00127492 0.00184145)
(0.105222 0.000936029 0.00194646)
(0.105361 0.0013835 0.00168399)
(0.105363 0.00114612 0.00171445)
(0.105695 0.000841644 0.00182541)
(0.105874 0.00126167 0.00155921)
(0.105694 0.00103228 0.00160777)
(0.106124 0.000758679 0.00171662)
(0.106343 0.00114987 0.00144788)
(0.106007 0.000931119 0.00152337)
(0.106522 0.000686739 0.0016257)
(0.106781 0.00105019 0.00135387)
(0.106309 0.000838172 0.0014621)
(0.106897 0.000622705 0.00155691)
(0.107197 0.000960865 0.00127855)
(0.107258 0.00056326 0.00151217)
(0.107598 0.000878975 0.00122207)
(0.105324 0.000535804 0.00203284)
(0.105007 1.16403e-06 0.00208072)
(0.105254 0.000559059 0.00181046)
(0.105928 0.000488 0.00193179)
(0.105642 1.94351e-06 0.001983)
(0.105994 0.0005178 0.00173035)
(0.106474 0.000443108 0.00182949)
(0.106215 3.27626e-06 0.00187745)
(0.106676 0.00047555 0.00163872)
(0.106973 0.000403034 0.00173668)
(0.106737 5.41553e-06 0.00177634)
(0.107304 0.000435865 0.00154683)
(0.107435 0.000368045 0.00166145)
(0.107218 8.6948e-06 0.0016882)
(0.107887 0.000400307 0.00146355)
(0.107871 0.000337443 0.00160927)
(0.107667 1.34601e-05 0.00161976)
(0.108432 0.000369042 0.00139568)
(0.108096 2.06401e-05 0.00157414)
(0.108951 0.00034136 0.00134746)
(0.105326 -0.000532966 0.00203088)
(0.104695 -0.00103645 0.00206586)
(0.105255 -0.000558074 0.00180908)
(0.105931 -0.000483197 0.00192866)
(0.105225 -0.000935297 0.00194228)
(0.105996 -0.000516044 0.00172822)
(0.10648 -0.00043505 0.0018243)
(0.1057 -0.000840144 0.00181878)
(0.106678 -0.000472465 0.00163531)
(0.106982 -0.000389856 0.00172787)
(0.106133 -0.000755849 0.00170572)
(0.107309 -0.000430664 0.00154127)
(0.107449 -0.00034723 0.00164652)
(0.106536 -0.000681902 0.00160775)
(0.107894 -0.000391954 0.00145443)
(0.107891 -0.00030535 0.00158464)
(0.106919 -0.00061542 0.00152727)
(0.108443 -0.00035628 0.00138084)
(0.108965 -0.000322199 0.00132368)
(0.104607 -0.00141836 0.00197778)
(0.103525 -0.00169848 0.00195776)
(0.104796 -0.00150985 0.00180721)
(0.105011 -0.00127741 0.00183385)
(0.103746 -0.00152113 0.00178278)
(0.105363 -0.00138622 0.00167916)
(0.105372 -0.00114983 0.00170224)
(0.103937 -0.00136796 0.00162792)
(0.105877 -0.00126581 0.00155166)
(0.105708 -0.00103794 0.00158794)
(0.104116 -0.00123769 0.00149495)
(0.106349 -0.00115629 0.00143576)
(0.106029 -0.000940274 0.00149105)
(0.104293 -0.00112843 0.00138181)
(0.10679 -0.00106025 0.00133441)
(0.104476 -0.00103695 0.00128493)
(0.107211 -0.000977049 0.00124704)
(0.102727 -0.00177318 0.00176789)
(0.100853 -0.00176009 0.00176833)
(0.103524 -0.00196167 0.00169574)
(0.102748 -0.00159297 0.00158433)
(0.100605 -0.00156788 0.00156571)
(0.103744 -0.00178901 0.00151669)
(0.102767 -0.00144369 0.00142961)
(0.100376 -0.00141653 0.00139626)
(0.103934 -0.00163792 0.00136083)
(0.102798 -0.00132177 0.00129903)
(0.100178 -0.00129972 0.00125388)
(0.10411 -0.00151121 0.00122619)
(0.102847 -0.0012235 0.00118701)
(0.100014 -0.00121217 0.00113218)
(0.104284 -0.00140807 0.00110998)
(0.0998837 -0.0011483 0.00102393)
(0.104463 -0.00132739 0.00100722)
(0.0989305 -0.00148639 0.00156073)
(0.0941454 -0.00120613 0.0016421)
(0.100662 -0.00176781 0.00158256)
(0.0984595 -0.00132621 0.00137327)
(0.0931612 -0.00109966 0.00150036)
(0.100403 -0.00159379 0.00139339)
(0.0980391 -0.00120895 0.00121691)
(0.0922536 -0.00102027 0.00136742)
(0.100164 -0.00145126 0.00122549)
(0.0976691 -0.00112712 0.00108409)
(0.0914213 -0.000967809 0.00124487)
(0.0999522 -0.00134981 0.00108185)
(0.0973462 -0.00107355 0.000966828)
(0.0906537 -0.000938647 0.00113232)
(0.0997672 -0.00128252 0.000958023)
(0.0899385 -0.000928282 0.00102479)
(0.099606 -0.00124208 0.000845826)
(0.0891466 -0.00111625 0.00165212)
(0.0923647 -0.00126703 0.00157561)
(0.0877961 -0.00103618 0.00154458)
(0.0913257 -0.0011746 0.00147933)
(0.0865475 -0.000977693 0.00143068)
(0.0903321 -0.00110815 0.00136729)
(0.0853838 -0.000942484 0.00131761)
(0.0893943 -0.00106582 0.00125315)
(0.0842862 -0.00092758 0.00120676)
(0.0885016 -0.00104428 0.00113958)
(0.0876373 -0.00103999 0.00102705)
(0.0948757 0.00132886 0.00134954)
(0.0985134 0.00151513 0.00139079)
(0.0959937 0.00137955 0.00091326)
(0.0942431 0.00125795 0.00128673)
(0.0981818 0.00141976 0.00129596)
(0.0955257 0.00127901 0.000896309)
(0.0936197 0.00121166 0.00119932)
(0.0978381 0.00134314 0.0011885)
(0.0950719 0.00121737 0.00085929)
(0.093009 0.0011814 0.00109529)
(0.0975055 0.00128971 0.0010774)
(0.094618 0.00118499 0.000794472)
(0.0924102 0.00116413 0.000982681)
(0.0971871 0.0012544 0.000967208)
(0.0941635 0.00117207 0.000715316)
(0.0918204 0.00115752 0.000863385)
(0.0968797 0.00123299 0.000858007)
(0.0937036 0.00117135 0.00062886)
(0.096582 0.00122328 0.000744955)
(0.0932292 0.00118043 0.000532054)
(0.102278 0.00188376 0.0013802)
(0.103288 0.00204774 0.00147907)
(0.102842 0.00200468 0.0010157)
(0.102277 0.00172819 0.0012266)
(0.103494 0.00188754 0.00132683)
(0.102967 0.00186904 0.000913761)
(0.102275 0.00159947 0.00108528)
(0.103673 0.00174167 0.00118324)
(0.103071 0.00174229 0.00081673)
(0.102277 0.00150711 0.000961704)
(0.103836 0.00162577 0.00105713)
(0.103166 0.00164026 0.000726823)
(0.102289 0.00144222 0.000851262)
(0.103995 0.00153551 0.0009472)
(0.10326 0.00156132 0.000642585)
(0.102312 0.00139728 0.000746168)
(0.104155 0.00146542 0.000848442)
(0.103356 0.00150881 0.000561545)
(0.10432 0.00141091 0.000754274)
(0.10345 0.00148138 0.000477216)
(0.104607 0.00197773 0.00141836)
(0.104796 0.00180716 0.00150985)
(0.104695 0.00206582 0.00103645)
(0.105011 0.00183379 0.00127741)
(0.105363 0.0016791 0.00138622)
(0.105225 0.00194222 0.000935294)
(0.105372 0.00170217 0.00114983)
(0.105877 0.00155159 0.00126581)
(0.1057 0.00181872 0.000840139)
(0.105708 0.00158785 0.00103794)
(0.106349 0.00143567 0.00115629)
(0.106133 0.00170564 0.000755842)
(0.106029 0.00149093 0.000940273)
(0.10679 0.0013343 0.00106025)
(0.106536 0.00160765 0.000681892)
(0.106344 0.00140944 0.000853235)
(0.107211 0.00124692 0.000977044)
(0.106919 0.00152715 0.000615409)
(0.10762 0.00117141 0.000904716)
(0.107291 0.00146396 0.000552632)
(0.105582 0.00147519 0.00147806)
(0.105368 0.00104813 0.00151865)
(0.105368 0.00151693 0.00104938)
(0.106267 0.00137222 0.00137666)
(0.10615 0.000980566 0.00143747)
(0.10615 0.00143482 0.000982408)
(0.106897 0.00126865 0.00127563)
(0.106875 0.000908479 0.00134781)
(0.106876 0.00134369 0.000911219)
(0.107481 0.00117191 0.00118291)
(0.107548 0.000839152 0.0012595)
(0.107549 0.00125301 0.000843353)
(0.10803 0.00108476 0.00110214)
(0.108175 0.000775991 0.00117863)
(0.108177 0.00116841 0.000782619)
(0.10855 0.00100715 0.00103448)
(0.108766 0.000719732 0.00110874)
(0.108768 0.00109268 0.000730406)
(0.109327 0.000669609 0.00105192)
(0.10933 0.00102681 0.000686706)
(0.105942 0.000540826 0.00147808)
(0.105516 -4.8161e-08 0.00150899)
(0.105595 0.000551806 0.00103368)
(0.106766 0.000505473 0.00140911)
(0.106367 5.25581e-09 0.00144574)
(0.106495 0.000523757 0.000990465)
(0.107535 0.000468742 0.00133252)
(0.107164 9.54765e-08 0.00137025)
(0.107344 0.000491538 0.000939135)
(0.108252 0.000433848 0.00125628)
(0.107907 1.94769e-07 0.00129131)
(0.108141 0.000458937 0.000885826)
(0.108924 0.000402246 0.00118644)
(0.1086 2.25738e-07 0.00121576)
(0.108888 0.000428238 0.000835128)
(0.109557 0.00037409 0.00112751)
(0.109251 7.32458e-08 0.00114851)
(0.109591 0.000400528 0.000790324)
(0.109868 -2.87631e-07 0.00109305)
(0.110257 0.00037605 0.000753789)
(0.105943 -0.000541006 0.00147665)
(0.105368 -0.00104939 0.00151698)
(0.105595 -0.000552175 0.00103286)
(0.106767 -0.000505569 0.00140688)
(0.10615 -0.000982414 0.00143488)
(0.106495 -0.000524208 0.000989249)
(0.107537 -0.000468735 0.00132903)
(0.106876 -0.000911227 0.00134377)
(0.107345 -0.000492096 0.000937284)
(0.108255 -0.000433828 0.00125079)
(0.107549 -0.000843363 0.00125311)
(0.108142 -0.000459699 0.000882974)
(0.108927 -0.000402513 0.00117783)
(0.108177 -0.000782632 0.00116853)
(0.10889 -0.000429435 0.000830698)
(0.109562 -0.000375148 0.00111405)
(0.108767 -0.000730423 0.00109281)
(0.109593 -0.000402608 0.000783415)
(0.110259 -0.000379635 0.00074303)
(0.105582 -0.00147806 0.00147525)
(0.104795 -0.00181033 0.00150817)
(0.105368 -0.00151866 0.00104818)
(0.106267 -0.00137667 0.00137229)
(0.105361 -0.00168398 0.00138356)
(0.10615 -0.00143747 0.000980633)
(0.106897 -0.00127563 0.00126873)
(0.105874 -0.0015592 0.00126175)
(0.106875 -0.00134782 0.000908561)
(0.107481 -0.00118292 0.00117201)
(0.106343 -0.00144787 0.00114996)
(0.107548 -0.0012595 0.000839251)
(0.108029 -0.00110215 0.00108487)
(0.106781 -0.00135386 0.0010503)
(0.108175 -0.00117864 0.000776109)
(0.107197 -0.00127853 0.000960991)
(0.108765 -0.00110875 0.000719869)
(0.104604 -0.00198265 0.00141678)
(0.103284 -0.00205133 0.001479)
(0.104693 -0.00206856 0.0010369)
(0.105005 -0.00184144 0.00127499)
(0.103488 -0.00189307 0.00132668)
(0.105222 -0.00194646 0.000936095)
(0.105363 -0.00171444 0.0011462)
(0.103662 -0.0017506 0.00118344)
(0.105695 -0.00182541 0.000841724)
(0.105694 -0.00160775 0.00103238)
(0.103819 -0.00164106 0.00105774)
(0.106124 -0.00171661 0.000758776)
(0.106006 -0.00152334 0.000931235)
(0.103966 -0.00156103 0.000948333)
(0.106522 -0.00162568 0.000686853)
(0.104107 -0.00150729 0.000848529)
(0.106897 -0.00155689 0.000622837)
(0.102271 -0.00188782 0.00138142)
(0.0985073 -0.00151706 0.00139271)
(0.102838 -0.00200702 0.00101835)
(0.102266 -0.00173453 0.0012288)
(0.0981714 -0.001423 0.00129925)
(0.102961 -0.00187257 0.000918305)
(0.102256 -0.00161017 0.00108922)
(0.0978206 -0.00134878 0.00119397)
(0.103061 -0.00174799 0.00082497)
(0.102246 -0.00152549 0.000968174)
(0.097476 -0.00129959 0.00108603)
(0.103148 -0.00165006 0.000741058)
(0.102236 -0.00147327 0.000860243)
(0.097137 -0.00127195 0.000980691)
(0.103231 -0.00157818 0.000666088)
(0.0967951 -0.00126364 0.000878648)
(0.103307 -0.00153772 0.000597081)
(0.0948665 -0.00133039 0.00135341)
(0.0959887 -0.00138049 0.000917641)
(0.0942272 -0.00126138 0.00129314)
(0.095517 -0.00128096 0.00090391)
(0.0935923 -0.00121849 0.00120939)
(0.095057 -0.00122135 0.000871859)
(0.0929625 -0.00119419 0.00111092)
(0.0945924 -0.00119224 0.000814963)
(0.0923315 -0.00118647 0.00100759)
(0.0941198 -0.0011851 0.000748501)
(0.093629 -0.00119341 0.000683284)
(0.0966744 0.00132937 0.000432099)
(0.0999396 0.00157267 0.000481648)
(0.0968294 0.00138907 -2.98088e-06)
(0.0963941 0.00123487 0.000420075)
(0.0998995 0.00148147 0.00045533)
(0.0965276 0.00127096 -5.12412e-06)
(0.0961284 0.00118612 0.000399267)
(0.099867 0.0014186 0.000427347)
(0.0962702 0.00120115 -8.69097e-06)
(0.0958498 0.00117198 0.000365151)
(0.0998135 0.00137991 0.000390663)
(0.0959911 0.00117527 -1.46277e-05)
(0.0955454 0.00117672 0.000318437)
(0.0997448 0.00135499 0.000344997)
(0.095689 0.0011758 -2.44932e-05)
(0.0952073 0.00119262 0.000258786)
(0.0996594 0.00134477 0.000291878)
(0.0953594 0.00118983 -4.10124e-05)
(0.0995466 0.00135308 0.000228287)
(0.0949844 0.0012169 -6.85825e-05)
(0.103555 0.00199138 0.000522828)
(0.104185 0.0021067 0.000553704)
(0.103426 0.00204618 -2.3617e-06)
(0.103788 0.00188526 0.000475993)
(0.104621 0.00199445 0.000504745)
(0.103678 0.00193832 -4.0126e-06)
(0.103994 0.00178544 0.000428122)
(0.10501 0.00188327 0.000456649)
(0.103894 0.00183497 -6.97477e-06)
(0.104186 0.00169672 0.000376959)
(0.105363 0.00178148 0.000408392)
(0.104088 0.00174048 -1.19167e-05)
(0.104368 0.00163012 0.000323226)
(0.105691 0.00169539 0.000359927)
(0.104272 0.00166086 -2.00332e-05)
(0.104538 0.00159547 0.000265502)
(0.106 0.00163583 0.000311637)
(0.104443 0.0016136 -3.24343e-05)
(0.106292 0.00160406 0.000259826)
(0.104593 0.00160213 -5.14895e-05)
(0.105326 0.00203083 0.000532958)
(0.105255 0.00180903 0.000558067)
(0.105007 0.00208067 -1.17385e-06)
(0.105931 0.0019286 0.000483187)
(0.105996 0.00172816 0.000516034)
(0.105642 0.00198295 -1.95624e-06)
(0.10648 0.00182422 0.000435036)
(0.106679 0.00163523 0.000472453)
(0.106215 0.00187738 -3.2927e-06)
(0.106982 0.00172778 0.000389838)
(0.107309 0.00154118 0.000430648)
(0.106737 0.00177626 -5.43655e-06)
(0.107449 0.00164641 0.000347209)
(0.107894 0.00145432 0.000391933)
(0.107218 0.0016881 -8.72073e-06)
(0.107891 0.0015845 0.000305328)
(0.108443 0.00138071 0.000356256)
(0.107667 0.00161964 -1.349e-05)
(0.108966 0.00132353 0.000322172)
(0.108096 0.00157399 -2.06715e-05)
(0.105943 0.00147659 0.000540997)
(0.105595 0.00103281 0.000552166)
(0.105516 0.00150894 3.80517e-08)
(0.106767 0.00140681 0.000505557)
(0.106495 0.000989179 0.000524196)
(0.106367 0.00144567 -1.80761e-08)
(0.107537 0.00132894 0.00046872)
(0.107345 0.000937199 0.000492081)
(0.107164 0.00137017 -1.12699e-07)
(0.108255 0.00125068 0.000433809)
(0.108142 0.000882871 0.00045968)
(0.107907 0.00129121 -2.16132e-07)
(0.108927 0.0011777 0.000402489)
(0.10889 0.000830575 0.00042941)
(0.1086 0.00121564 -2.52657e-07)
(0.109562 0.0011139 0.000375118)
(0.109593 0.000783269 0.000402576)
(0.109251 0.00114837 -1.04899e-07)
(0.110259 0.000742859 0.000379592)
(0.109868 0.00109289 2.48658e-07)
(0.106153 0.000534675 0.000535309)
(0.105677 -2.47624e-07 0.00054613)
(0.105677 0.000546069 2.36332e-07)
(0.107079 0.000509905 0.000510813)
(0.106627 -3.5065e-07 0.000523922)
(0.106627 0.000523847 3.36458e-07)
(0.107957 0.000481927 0.000483253)
(0.10753 -5.04354e-07 0.000496878)
(0.10753 0.000496787 4.86318e-07)
(0.108785 0.000453601 0.00045558)
(0.108383 -7.4354e-07 0.000468402)
(0.108383 0.000468292 7.20482e-07)
(0.109564 0.00042685 0.000429861)
(0.109186 -1.12293e-06 0.000440898)
(0.109186 0.000440766 1.09341e-06)
(0.1103 0.000402867 0.000407473)
(0.109942 -1.72064e-06 0.000415956)
(0.109942 0.000415798 1.6826e-06)
(0.110658 -2.62611e-06 0.000394555)
(0.110658 0.000394366 2.57615e-06)
(0.106153 -0.000535321 0.000534743)
(0.105595 -0.00103368 0.000551865)
(0.105677 -0.000546142 -1.86473e-07)
(0.107079 -0.000510828 0.000509987)
(0.106495 -0.000990476 0.00052383)
(0.106627 -0.000523937 -2.75843e-07)
(0.107957 -0.000483272 0.000482027)
(0.107344 -0.000939149 0.000491627)
(0.10753 -0.000496897 -4.13358e-07)
(0.108785 -0.000455605 0.00045372)
(0.108141 -0.000885843 0.000459043)
(0.108383 -0.000468426 -6.33308e-07)
(0.109564 -0.000429894 0.000426994)
(0.108888 -0.000835151 0.000428365)
(0.109186 -0.000440929 -9.89814e-07)
(0.1103 -0.000407517 0.000403038)
(0.109591 -0.000790355 0.00040068)
(0.109942 -0.000415997 -1.5602e-06)
(0.110658 -0.00039461 -2.43237e-06)