/*--------------------------------*- C++ -*----------------------------------*\
| =========                 |                                                 |
| \\      /  F ield         | OpenFOAM: The Open Source CFD Toolbox           |
|  \\    /   O peration     | Version:  2212                                  |
|   \\  /    A nd           | Website:  www.openfoam.com                      |
|    \\/     M anipulation  |                                                 |
\*---------------------------------------------------------------------------*/
FoamFile
{
    version     2.0;
    format      ascii;
    arch        "LSB;label=32;scalar=64";
    class       surfaceScalarField;
    location    "1.05";
    object      phi;
}
// * * * * * * * * * * * * * * * * * * * * * * * * * * * * * * * * * * * * * //

dimensions      [0 3 -1 0 0 0 0];

oriented        oriented;

internalField   nonuniform List<scalar> 
1812
(
8.18072e-08
-3.39149e-08
3.73019e-08
7.94983e-08
-3.42035e-08
3.65128e-08
7.77195e-08
-3.44151e-08
3.61942e-08
7.62259e-08
-3.45019e-08
3.59958e-08
7.49152e-08
-3.4503e-08
3.5814e-08
7.37336e-08
-3.44485e-08
3.56302e-08
7.26395e-08
-3.43684e-08
3.54628e-08
-3.42769e-08
3.53092e-08
2.45928e-07
-6.30294e-08
3.42238e-08
2.42252e-07
-6.38836e-08
3.3356e-08
2.39254e-07
-6.42519e-08
3.2835e-08
2.3651e-07
-6.43421e-08
3.25846e-08
2.33859e-07
-6.43355e-08
3.24832e-08
2.31259e-07
-6.42751e-08
3.2427e-08
2.28701e-07
-6.41935e-08
3.23827e-08
-6.41028e-08
3.23302e-08
4.63292e-07
-8.57864e-08
2.96864e-08
4.59262e-07
-8.77943e-08
2.87945e-08
4.55736e-07
-8.87873e-08
2.84299e-08
4.52511e-07
-8.93406e-08
2.83134e-08
4.49394e-07
-8.95859e-08
2.83607e-08
4.46241e-07
-8.96494e-08
2.84676e-08
4.43003e-07
-8.96427e-08
2.8605e-08
4.39654e-07
-8.95807e-08
2.87364e-08
-8.94923e-08
2.88337e-08
6.04348e-07
-1.08485e-07
9.59893e-09
6.18644e-07
-1.06114e-07
1.37799e-08
6.27615e-07
-1.06224e-07
1.54774e-08
6.32751e-07
-1.07428e-07
1.65053e-08
6.35667e-07
-1.08294e-07
1.75841e-08
6.36891e-07
-1.08694e-07
1.86823e-08
6.36748e-07
-1.08759e-07
1.95614e-08
6.3554e-07
-1.08677e-07
2.02997e-08
6.33466e-07
-1.08505e-07
2.09293e-08
6.30677e-07
-1.08295e-07
2.14411e-08
6.27273e-07
-1.08051e-07
2.18747e-08
-1.07821e-07
2.22419e-08
7.08117e-07
-1.23701e-07
1.06032e-09
7.22939e-07
-1.24018e-07
3.08165e-09
7.35146e-07
-1.23547e-07
5.11576e-09
7.44123e-07
-1.23202e-07
6.79611e-09
7.50362e-07
-1.22832e-07
8.29872e-09
7.54297e-07
-1.22297e-07
9.66774e-09
7.56167e-07
-1.21623e-07
1.09935e-08
7.5629e-07
-1.20827e-07
1.20265e-08
7.54961e-07
-1.20073e-07
1.28973e-08
7.52454e-07
-1.19421e-07
1.36327e-08
7.49004e-07
-1.18855e-07
1.42537e-08
-1.18335e-07
1.47505e-08
7.79796e-07
-1.30198e-07
-1.42045e-09
7.87612e-07
-1.31918e-07
8.42525e-11
7.9469e-07
-1.31798e-07
1.17268e-09
7.99723e-07
-1.30504e-07
2.26917e-09
8.02394e-07
-1.28801e-07
3.29921e-09
8.02847e-07
-1.27e-07
4.24976e-09
8.01396e-07
-1.2524e-07
5.06739e-09
7.98454e-07
-1.23657e-07
5.77203e-09
7.94352e-07
-1.22283e-07
6.31174e-09
7.89367e-07
-1.21146e-07
6.71014e-09
7.83763e-07
-1.20259e-07
7.00877e-09
-1.19522e-07
7.2344e-09
7.94095e-07
-1.28293e-07
-3.68185e-09
7.94607e-07
-1.31192e-07
-1.23772e-09
7.92443e-07
-1.29738e-07
1.03494e-10
7.87661e-07
-1.26482e-07
7.61355e-10
7.80809e-07
-1.22958e-07
1.00905e-09
7.72586e-07
-1.19798e-07
1.02126e-09
7.63576e-07
-1.17179e-07
9.48999e-10
7.54307e-07
-1.15095e-07
7.06992e-10
7.45032e-07
-1.1343e-07
4.21455e-10
7.36005e-07
-1.12202e-07
8.40692e-11
7.27332e-07
-1.11325e-07
-2.61189e-10
-1.10676e-07
-5.75872e-10
7.33297e-07
-1.16867e-07
-3.17785e-09
7.20331e-07
-1.19283e-07
1.05698e-09
7.0377e-07
-1.14302e-07
1.12517e-09
6.85596e-07
-1.08229e-07
-7.91284e-11
6.67355e-07
-1.03252e-07
-1.46423e-09
6.50241e-07
-9.96376e-08
-3.04689e-09
6.34805e-07
-9.71193e-08
-4.62255e-09
6.21171e-07
-9.5381e-08
-6.07977e-09
6.09229e-07
-9.41755e-08
-7.31213e-09
5.98744e-07
-9.33987e-08
-8.31845e-09
5.8946e-07
-9.29168e-08
-9.12336e-09
-9.75153e-09
5.78688e-07
-9.526e-08
5.66172e-10
5.47548e-07
-9.15251e-08
3.38291e-09
5.16711e-07
-8.26949e-08
-7.69729e-10
4.90155e-07
-7.62976e-08
-5.37528e-09
4.68401e-07
-7.2187e-08
-9.31096e-09
4.51237e-07
-6.99468e-08
-1.25259e-08
4.37859e-07
-6.87964e-08
-1.49441e-08
4.27346e-07
-6.81844e-08
-1.66831e-08
4.18863e-07
-6.77734e-08
-1.79196e-08
4.11718e-07
-6.74795e-08
-1.87733e-08
-6.72845e-08
-1.93706e-08
3.5058e-07
-5.73861e-08
4.23643e-09
3.07941e-07
-4.76524e-08
-1.23387e-09
2.77917e-07
-4.1727e-08
-1.09427e-08
2.58982e-07
-3.91735e-08
-1.81886e-08
2.46916e-07
-3.73019e-08
-2.28187e-08
2.38726e-07
-3.65129e-08
-2.52438e-08
2.32699e-07
-3.61957e-08
-2.65735e-08
2.27878e-07
-3.59977e-08
-2.73647e-08
2.23818e-07
-3.58153e-08
-2.78978e-08
2.2028e-07
-3.56307e-08
-2.83111e-08
-3.54618e-08
-2.86405e-08
1.28692e-07
-1.10405e-08
1.03092e-07
-2.20523e-08
9.12165e-08
-2.98512e-08
8.51994e-08
-3.31563e-08
8.18146e-08
-3.3917e-08
7.95073e-08
-3.42055e-08
7.77273e-08
-3.44156e-08
7.62308e-08
-3.45011e-08
7.49171e-08
-3.45015e-08
7.37332e-08
-3.44466e-08
-3.43656e-08
2.46891e-07
-2.28202e-08
7.21952e-08
2.38702e-07
-2.5242e-08
6.99436e-08
2.32683e-07
-2.65723e-08
6.87854e-08
2.27871e-07
-2.73641e-08
6.81729e-08
2.23818e-07
-2.78967e-08
6.77636e-08
2.20287e-07
-2.83117e-08
6.74736e-08
2.17111e-07
-2.86394e-08
6.72782e-08
-2.89133e-08
6.71616e-08
5.74494e-07
-4.44204e-08
6.68795e-08
5.65528e-07
-4.74063e-08
6.44866e-08
5.58415e-07
-4.95322e-08
6.29083e-08
5.52653e-07
-5.10249e-08
6.20076e-08
5.47771e-07
-5.20623e-08
6.15311e-08
5.43486e-07
-5.28351e-08
6.12348e-08
5.39598e-07
-5.34154e-08
6.10467e-08
-5.38907e-08
6.08969e-08
8.39963e-07
-6.44533e-08
5.68392e-08
8.36694e-07
-6.73142e-08
5.49574e-08
8.33758e-07
-6.9724e-08
5.36831e-08
8.31352e-07
-7.16759e-08
5.28632e-08
8.29499e-07
-7.31822e-08
5.23711e-08
8.28092e-07
-7.43049e-08
5.21165e-08
8.26994e-07
-7.51367e-08
5.2005e-08
8.26082e-07
-7.57564e-08
5.19893e-08
-7.62441e-08
5.19824e-08
1.00439e-06
-8.91863e-08
3.655e-08
1.00931e-06
-8.7792e-08
3.70461e-08
1.01387e-06
-8.77967e-08
3.73551e-08
1.0175e-06
-8.88294e-08
3.72572e-08
1.0206e-06
-9.00341e-08
3.72038e-08
1.02344e-06
-9.11382e-08
3.72517e-08
1.02607e-06
-9.2083e-08
3.73415e-08
1.02847e-06
-9.28292e-08
3.75405e-08
1.03066e-06
-9.33669e-08
3.78096e-08
1.03258e-06
-9.37199e-08
3.80998e-08
1.03425e-06
-9.39362e-08
3.83842e-08
-9.40545e-08
3.86406e-08
1.11823e-06
-1.05437e-07
1.94241e-08
1.1211e-06
-1.06415e-07
1.88333e-08
1.12632e-06
-1.06931e-07
1.90295e-08
1.13214e-06
-1.07283e-07
1.94354e-08
1.13793e-06
-1.0748e-07
1.99541e-08
1.14334e-06
-1.07474e-07
2.05914e-08
1.14823e-06
-1.07262e-07
2.12799e-08
1.1525e-06
-1.06961e-07
2.18877e-08
1.15619e-06
-1.06564e-07
2.2406e-08
1.15933e-06
-1.06109e-07
2.28851e-08
1.16196e-06
-1.05635e-07
2.33185e-08
-1.0517e-07
2.36897e-08
1.16994e-06
-1.13233e-07
5.004e-09
1.17391e-06
-1.15242e-07
4.94342e-09
1.17883e-06
-1.16064e-07
5.38576e-09
1.18388e-06
-1.15963e-07
5.89254e-09
1.1886e-06
-1.15307e-07
6.40625e-09
1.19273e-06
-1.14298e-07
6.94122e-09
1.19613e-06
-1.13072e-07
7.48241e-09
1.19879e-06
-1.11765e-07
7.91923e-09
1.20083e-06
-1.10508e-07
8.20591e-09
1.20239e-06
-1.09349e-07
8.394e-09
1.20353e-06
-1.08309e-07
8.54078e-09
-1.07393e-07
8.64302e-09
1.15657e-06
-1.11017e-07
-6.73656e-09
1.15898e-06
-1.13318e-07
-5.57465e-09
1.16139e-06
-1.13642e-07
-4.72331e-09
1.16301e-06
-1.12539e-07
-4.28125e-09
1.16369e-06
-1.10873e-07
-4.11184e-09
1.16343e-06
-1.08881e-07
-4.13525e-09
1.16244e-06
-1.06807e-07
-4.32296e-09
1.16098e-06
-1.0487e-07
-4.72126e-09
1.15929e-06
-1.03226e-07
-5.17515e-09
1.15753e-06
-1.01851e-07
-5.65439e-09
1.15579e-06
-1.00722e-07
-6.10777e-09
-9.98015e-08
-6.539e-09
1.05209e-06
-1.00368e-07
-1.70131e-08
1.05623e-06
-1.02489e-07
-1.39124e-08
1.05731e-06
-1.00668e-07
-1.29248e-08
1.05531e-06
-9.72888e-08
-1.33314e-08
1.05127e-06
-9.41001e-08
-1.41968e-08
1.04609e-06
-9.12521e-08
-1.54968e-08
1.04054e-06
-8.88983e-08
-1.69779e-08
1.03516e-06
-8.71189e-08
-1.84556e-08
1.0302e-06
-8.58058e-08
-1.97749e-08
1.02579e-06
-8.48488e-08
-2.09078e-08
1.02198e-06
-8.41561e-08
-2.18802e-08
-2.2705e-08
8.62599e-07
-8.38479e-08
-2.59734e-08
8.69293e-07
-8.37394e-08
-2.20612e-08
8.67641e-07
-7.72535e-08
-2.2532e-08
8.60813e-07
-7.08131e-08
-2.50229e-08
8.52069e-07
-6.68872e-08
-2.77797e-08
8.43239e-07
-6.44886e-08
-3.04592e-08
8.35134e-07
-6.29103e-08
-3.28264e-08
8.28089e-07
-6.2011e-08
-3.47455e-08
8.22138e-07
-6.15351e-08
-3.62391e-08
8.17172e-07
-6.12419e-08
-3.74142e-08
-6.10443e-08
-3.83409e-08
6.12452e-07
-5.73072e-08
-2.99721e-08
6.09543e-07
-5.30978e-08
-2.89668e-08
5.98122e-07
-4.27103e-08
-3.40642e-08
5.85546e-07
-3.63475e-08
-4.00786e-08
5.74482e-07
-3.42243e-08
-4.44178e-08
5.65515e-07
-3.33547e-08
-4.74103e-08
5.58402e-07
-3.28353e-08
-4.95356e-08
5.52639e-07
-3.25862e-08
-5.10261e-08
5.47753e-07
-3.24845e-08
-5.20624e-08
5.4346e-07
-3.24288e-08
-5.28309e-08
-3.2381e-08
-5.34172e-08
3.07191e-07
-3.98682e-08
2.77172e-07
-4.51315e-08
2.59654e-07
-5.50433e-08
2.51063e-07
-6.09124e-08
2.45962e-07
-6.30406e-08
2.42286e-07
-6.38842e-08
2.39281e-07
-6.42456e-08
2.36528e-07
-6.4334e-08
2.33869e-07
-6.43274e-08
2.31263e-07
-6.42697e-08
-6.41827e-08
4.90156e-07
-5.37068e-09
1.0824e-07
4.684e-07
-9.30524e-09
1.03257e-07
4.5124e-07
-1.25272e-08
9.96308e-08
4.37871e-07
-1.49511e-08
9.71059e-08
4.27367e-07
-1.66909e-08
9.53679e-08
4.18893e-07
-1.7927e-08
9.41643e-08
4.11756e-07
-1.87793e-08
9.33902e-08
4.055e-07
-1.93751e-08
9.29094e-08
-1.98055e-08
9.26232e-08
8.60843e-07
-2.50312e-08
9.7281e-08
8.52105e-07
-2.77826e-08
9.40954e-08
8.43273e-07
-3.04581e-08
9.12491e-08
8.35162e-07
-3.28263e-08
8.8895e-08
8.28111e-07
-3.47478e-08
8.7115e-08
8.22158e-07
-3.62437e-08
8.58011e-08
8.1719e-07
-3.74211e-08
8.48445e-08
8.13049e-07
-3.83417e-08
8.41549e-08
-3.90853e-08
8.36321e-08
1.11538e-06
-4.67539e-08
7.75754e-08
1.11497e-06
-4.834e-08
7.5923e-08
1.11387e-06
-5.00651e-08
7.43865e-08
1.11257e-06
-5.17674e-08
7.31017e-08
1.11146e-06
-5.33e-08
7.20362e-08
1.11072e-06
-5.45949e-08
7.12072e-08
1.1104e-06
-5.56818e-08
7.05859e-08
1.11048e-06
-5.6573e-08
7.01463e-08
-5.73171e-08
6.98077e-08
1.27997e-06
-6.74664e-08
5.38897e-08
1.28427e-06
-6.67951e-08
5.36377e-08
1.28931e-06
-6.67534e-08
5.33901e-08
1.29405e-06
-6.72201e-08
5.29852e-08
1.29837e-06
-6.79774e-08
5.25146e-08
1.30236e-06
-6.88746e-08
5.2075e-08
1.30606e-06
-6.97946e-08
5.1669e-08
1.30958e-06
-7.06396e-08
5.13595e-08
1.313e-06
-7.13553e-08
5.11435e-08
1.31637e-06
-7.19497e-08
5.09999e-08
1.3197e-06
-7.24356e-08
5.09145e-08
-7.28309e-08
5.08631e-08
1.38667e-06
-8.26473e-08
2.92124e-08
1.39286e-06
-8.29554e-08
2.87999e-08
1.39945e-06
-8.30685e-08
2.8751e-08
1.40613e-06
-8.32212e-08
2.87637e-08
1.4127e-06
-8.34012e-08
2.88045e-08
1.41908e-06
-8.35572e-08
2.88951e-08
1.4252e-06
-8.3663e-08
2.9022e-08
1.43101e-06
-8.37125e-08
2.91497e-08
1.43649e-06
-8.36972e-08
2.92671e-08
1.44167e-06
-8.36222e-08
2.93814e-08
1.44658e-06
-8.35133e-08
2.94911e-08
-8.33827e-08
2.95856e-08
1.43418e-06
-8.97481e-08
7.50077e-09
1.43936e-06
-9.04615e-08
7.26593e-09
1.44528e-06
-9.0882e-08
7.28004e-09
1.45153e-06
-9.09638e-08
7.3886e-09
1.45778e-06
-9.07686e-08
7.51983e-09
1.46387e-06
-9.03641e-08
7.65853e-09
1.4697e-06
-8.9807e-08
7.79303e-09
1.47518e-06
-8.91552e-08
7.88265e-09
1.48027e-06
-8.84945e-08
7.91273e-09
1.485e-06
-8.78567e-08
7.89596e-09
1.48945e-06
-8.72691e-08
7.85483e-09
-8.67338e-08
7.79387e-09
1.40562e-06
-8.78829e-08
-1.26531e-08
1.4105e-06
-8.88842e-08
-1.20298e-08
1.41591e-06
-8.94073e-08
-1.16032e-08
1.42117e-06
-8.91014e-08
-1.14061e-08
1.42601e-06
-8.83263e-08
-1.13981e-08
1.43035e-06
-8.72958e-08
-1.1541e-08
1.43421e-06
-8.61914e-08
-1.18008e-08
1.43761e-06
-8.50984e-08
-1.21726e-08
1.44067e-06
-8.41099e-08
-1.2622e-08
1.44351e-06
-8.3249e-08
-1.30996e-08
1.44622e-06
-8.25314e-08
-1.35551e-08
-8.19174e-08
-1.39912e-08
1.29099e-06
-7.85107e-08
-3.14207e-08
1.29789e-06
-7.95865e-08
-3.01099e-08
1.30387e-06
-7.90604e-08
-2.92429e-08
1.30819e-06
-7.75901e-08
-2.91699e-08
1.31122e-06
-7.59299e-08
-2.9616e-08
1.31321e-06
-7.43859e-08
-3.03967e-08
1.31448e-06
-7.30976e-08
-3.13442e-08
1.31535e-06
-7.20322e-08
-3.23966e-08
1.31611e-06
-7.12039e-08
-3.34332e-08
1.31692e-06
-7.05835e-08
-3.43912e-08
1.31791e-06
-7.01409e-08
-3.52539e-08
-3.60178e-08
1.10632e-06
-5.90545e-08
-4.78261e-08
1.11114e-06
-6.05668e-08
-4.59012e-08
1.11436e-06
-5.91392e-08
-4.56795e-08
1.11535e-06
-5.68501e-08
-4.67434e-08
1.11493e-06
-5.49595e-08
-4.83345e-08
1.11383e-06
-5.3681e-08
-5.00647e-08
1.11254e-06
-5.28609e-08
-5.17689e-08
1.11143e-06
-5.23703e-08
-5.3301e-08
1.1107e-06
-5.21169e-08
-5.45947e-08
1.11038e-06
-5.20058e-08
-5.56785e-08
-5.1987e-08
-5.65729e-08
8.38626e-07
-3.08298e-08
-6.20598e-08
8.42808e-07
-3.41138e-08
-5.96017e-08
8.42711e-07
-3.17479e-08
-6.13583e-08
8.39912e-07
-2.96802e-08
-6.44498e-08
8.36637e-07
-2.87869e-08
-6.73153e-08
8.33703e-07
-2.84301e-08
-6.97276e-08
8.31305e-07
-2.83193e-08
-7.16784e-08
8.29459e-07
-2.83685e-08
-7.31826e-08
8.2806e-07
-2.84761e-08
-7.43037e-08
8.26969e-07
-2.86107e-08
-7.51353e-08
-2.8742e-08
-7.57559e-08
4.74345e-07
-8.14238e-08
4.73139e-07
-7.80399e-08
4.68132e-07
-8.17838e-08
4.63338e-07
-8.57992e-08
4.59311e-07
-8.78004e-08
4.5578e-07
-8.87836e-08
4.52547e-07
-8.93313e-08
4.49419e-07
-8.9575e-08
4.46254e-07
-8.96384e-08
4.43006e-07
-8.96327e-08
-8.95714e-08
6.85632e-07
-7.5653e-11
1.26478e-07
6.67397e-07
-1.46313e-09
1.22956e-07
6.50284e-07
-3.05132e-09
1.19795e-07
6.34846e-07
-4.6287e-09
1.17173e-07
6.21212e-07
-6.08548e-09
1.15088e-07
6.09271e-07
-7.31761e-09
1.13422e-07
5.98791e-07
-8.32444e-09
1.12195e-07
5.89513e-07
-9.12988e-09
1.11317e-07
-9.75795e-09
1.1067e-07
1.05529e-06
-1.33258e-08
1.12537e-07
1.05125e-06
-1.41968e-08
1.10868e-07
1.04608e-06
-1.55038e-08
1.08875e-07
1.04053e-06
-1.69858e-08
1.06801e-07
1.03516e-06
-1.84626e-08
1.04865e-07
1.0302e-06
-1.97819e-08
1.03221e-07
1.02579e-06
-2.09157e-08
1.01847e-07
1.02198e-06
-2.18879e-08
1.0072e-07
-2.27139e-08
9.97991e-08
1.30818e-06
-2.91701e-08
8.90963e-08
1.3112e-06
-2.96179e-08
8.83215e-08
1.31319e-06
-3.04002e-08
8.72925e-08
1.31447e-06
-3.13477e-08
8.61907e-08
1.31534e-06
-3.24007e-08
8.50993e-08
1.31609e-06
-3.34381e-08
8.41118e-08
1.31691e-06
-3.43974e-08
8.32517e-08
1.31789e-06
-3.52597e-08
8.25358e-08
-3.60235e-08
8.19236e-08
1.47047e-06
-4.4955e-08
6.17469e-08
1.47676e-06
-4.45417e-08
6.17853e-08
1.48338e-06
-4.4227e-08
6.17549e-08
1.48981e-06
-4.41797e-08
6.15667e-08
1.49585e-06
-4.43895e-08
6.12447e-08
1.50146e-06
-4.47829e-08
6.08446e-08
1.50668e-06
-4.53037e-08
6.04036e-08
1.51157e-06
-4.58883e-08
5.99613e-08
1.51621e-06
-4.64788e-08
5.95452e-08
1.52068e-06
-4.70443e-08
5.91711e-08
1.52505e-06
-4.75633e-08
5.88504e-08
-4.80334e-08
5.85748e-08
1.58054e-06
-5.61408e-08
3.37764e-08
1.58743e-06
-5.60779e-08
3.34426e-08
1.59474e-06
-5.60463e-08
3.32651e-08
1.60222e-06
-5.60712e-08
3.31766e-08
1.60968e-06
-5.61458e-08
3.30998e-08
1.61702e-06
-5.62506e-08
3.30179e-08
1.62418e-06
-5.63733e-08
3.29311e-08
1.63111e-06
-5.65019e-08
3.28375e-08
1.63778e-06
-5.66217e-08
3.27392e-08
1.6442e-06
-5.67254e-08
3.26414e-08
1.65039e-06
-5.68129e-08
3.25475e-08
-5.68865e-08
3.24537e-08
1.62057e-06
-6.18716e-08
6.09656e-09
1.62781e-06
-6.20765e-08
6.0255e-09
1.63529e-06
-6.22755e-08
6.02148e-09
1.64293e-06
-6.23379e-08
6.01396e-09
1.65059e-06
-6.22808e-08
5.99809e-09
1.65817e-06
-6.21385e-08
5.9705e-09
1.6656e-06
-6.19352e-08
5.9262e-09
1.67281e-06
-6.16947e-08
5.86057e-09
1.67977e-06
-6.14356e-08
5.77067e-09
1.68645e-06
-6.1174e-08
5.66147e-09
1.69288e-06
-6.09302e-08
5.54259e-09
-6.07075e-08
5.41838e-09
1.58332e-06
-6.17491e-08
-2.02455e-08
1.59101e-06
-6.17873e-08
-2.00056e-08
1.59867e-06
-6.17571e-08
-1.97898e-08
1.60619e-06
-6.15691e-08
-1.969e-08
1.61346e-06
-6.12463e-08
-1.97061e-08
1.62045e-06
-6.0845e-08
-1.98178e-08
1.62712e-06
-6.04025e-08
-2.00076e-08
1.63347e-06
-5.99589e-08
-2.02596e-08
1.63951e-06
-5.95419e-08
-2.05594e-08
1.64529e-06
-5.91666e-08
-2.08823e-08
1.65086e-06
-5.88436e-08
-2.12085e-08
-5.85663e-08
-2.15299e-08
1.47047e-06
-5.38943e-08
-4.49555e-08
1.47676e-06
-5.3641e-08
-4.4543e-08
1.48338e-06
-5.33931e-08
-4.42282e-08
1.48981e-06
-5.29887e-08
-4.41801e-08
1.49585e-06
-5.25162e-08
-4.43892e-08
1.50146e-06
-5.20742e-08
-4.4782e-08
1.50669e-06
-5.16666e-08
-4.53022e-08
1.51157e-06
-5.13566e-08
-4.5886e-08
1.51621e-06
-5.11403e-08
-4.64757e-08
1.52069e-06
-5.09964e-08
-4.70404e-08
1.52506e-06
-5.09067e-08
-4.75596e-08
-4.80297e-08
1.27995e-06
-3.65562e-08
-6.74639e-08
1.28425e-06
-3.70478e-08
-6.67933e-08
1.28928e-06
-3.73524e-08
-6.6751e-08
1.29402e-06
-3.72545e-08
-6.72162e-08
1.29835e-06
-3.72015e-08
-6.79745e-08
1.30233e-06
-3.72499e-08
-6.88738e-08
1.30603e-06
-3.73408e-08
-6.9795e-08
1.30956e-06
-3.75415e-08
-7.06398e-08
1.31299e-06
-3.78113e-08
-7.13549e-08
1.31636e-06
-3.81004e-08
-7.1948e-08
-3.83792e-08
-7.2436e-08
1.00437e-06
-9.59649e-09
-8.91821e-08
1.00928e-06
-1.37761e-08
-8.7789e-08
1.01384e-06
-1.54713e-08
-8.77946e-08
1.01746e-06
-1.64992e-08
-8.88268e-08
1.02056e-06
-1.75819e-08
-9.00324e-08
1.0234e-06
-1.86851e-08
-9.11375e-08
1.02603e-06
-1.95676e-08
-9.2082e-08
1.02844e-06
-2.03076e-08
-9.28274e-08
1.03063e-06
-2.09375e-08
-9.33644e-08
1.03256e-06
-2.1448e-08
-9.37177e-08
-2.18763e-08
-9.39355e-08
6.04373e-07
-1.08492e-07
6.18676e-07
-1.06119e-07
6.27648e-07
-1.06227e-07
6.3278e-07
-1.0743e-07
6.35691e-07
-1.08294e-07
6.36912e-07
-1.0869e-07
6.36765e-07
-1.08752e-07
6.35551e-07
-1.08668e-07
6.33471e-07
-1.08496e-07
6.30676e-07
-1.08286e-07
-1.08039e-07
7.87694e-07
7.5962e-10
7.80844e-07
1.00814e-09
7.72621e-07
1.02194e-09
7.63608e-07
9.49807e-10
7.54336e-07
7.07389e-10
7.45059e-07
4.21117e-10
7.36031e-07
8.23623e-11
7.27361e-07
-2.65279e-10
-5.8272e-10
1.16297e-06
-4.27651e-09
1.16366e-06
-4.11179e-09
1.1634e-06
-4.13847e-09
1.16241e-06
-4.32811e-09
1.16095e-06
-4.72702e-09
1.15927e-06
-5.18121e-09
1.15752e-06
-5.66169e-09
1.15578e-06
-6.1171e-09
-6.55068e-09
1.42115e-06
-1.14024e-08
1.42599e-06
-1.13973e-08
1.43032e-06
-1.1543e-08
1.43418e-06
-1.18049e-08
1.43758e-06
-1.21781e-08
1.44064e-06
-1.26287e-08
1.44348e-06
-1.31077e-08
1.4462e-06
-1.35648e-08
-1.40022e-08
1.58331e-06
-2.02438e-08
6.18712e-08
1.591e-06
-2.00031e-08
6.20765e-08
1.59867e-06
-1.9787e-08
6.22758e-08
1.60618e-06
-1.96876e-08
6.23382e-08
1.61345e-06
-1.97051e-08
6.22808e-08
1.62043e-06
-1.98184e-08
6.21386e-08
1.62711e-06
-2.00099e-08
6.19357e-08
1.63346e-06
-2.02634e-08
6.16958e-08
1.6395e-06
-2.05646e-08
6.14376e-08
1.64527e-06
-2.08888e-08
6.1177e-08
1.65084e-06
-2.1216e-08
6.09345e-08
-2.15383e-08
6.07129e-08
1.69442e-06
-2.74752e-08
3.24061e-08
1.70302e-06
-2.74856e-08
3.2326e-08
1.71159e-06
-2.74184e-08
3.23293e-08
1.72011e-06
-2.73662e-08
3.23308e-08
1.72855e-06
-2.73545e-08
3.23121e-08
1.73685e-06
-2.73788e-08
3.22757e-08
1.74498e-06
-2.74319e-08
3.22258e-08
1.7529e-06
-2.75082e-08
3.2164e-08
1.76058e-06
-2.76011e-08
3.20941e-08
1.76801e-06
-2.77027e-08
3.20207e-08
1.77521e-06
-2.78085e-08
3.19464e-08
-2.79177e-08
3.18703e-08
1.73357e-06
-3.24062e-08
2.40734e-09
1.74207e-06
-3.23257e-08
2.36903e-09
1.75067e-06
-3.23289e-08
2.33389e-09
1.75934e-06
-3.23303e-08
2.3026e-09
1.76802e-06
-3.23116e-08
2.28123e-09
1.77663e-06
-3.22751e-08
2.25757e-09
1.78512e-06
-3.22249e-08
2.22439e-09
1.79345e-06
-3.21626e-08
2.18331e-09
1.80158e-06
-3.2092e-08
2.13462e-09
1.80948e-06
-3.20177e-08
2.07994e-09
1.81713e-06
-3.19423e-08
2.02144e-09
-3.18651e-08
1.96017e-09
1.69442e-06
-3.37782e-08
-2.74758e-08
1.70302e-06
-3.34442e-08
-2.74867e-08
1.71159e-06
-3.32666e-08
-2.74195e-08
1.72011e-06
-3.3178e-08
-2.73672e-08
1.72855e-06
-3.31007e-08
-2.73548e-08
1.73685e-06
-3.30181e-08
-2.73782e-08
1.74498e-06
-3.29304e-08
-2.74302e-08
1.7529e-06
-3.28358e-08
-2.75055e-08
1.76058e-06
-3.27364e-08
-2.75974e-08
1.76802e-06
-3.26373e-08
-2.76981e-08
1.77521e-06
-3.25411e-08
-2.78033e-08
-3.24458e-08
-2.7912e-08
1.58054e-06
-2.92152e-08
-5.61403e-08
1.58743e-06
-2.88026e-08
-5.60779e-08
1.59473e-06
-2.87533e-08
-5.60465e-08
1.60221e-06
-2.87656e-08
-5.60712e-08
1.60967e-06
-2.88057e-08
-5.61456e-08
1.61702e-06
-2.88954e-08
-5.62499e-08
1.62418e-06
-2.90216e-08
-5.63721e-08
1.63111e-06
-2.91487e-08
-5.65001e-08
1.63778e-06
-2.92654e-08
-5.66193e-08
1.6442e-06
-2.93783e-08
-5.67226e-08
1.6504e-06
-2.94838e-08
-5.681e-08
-5.68833e-08
1.38666e-06
-1.94253e-08
-8.26451e-08
1.39285e-06
-1.88342e-08
-8.29529e-08
1.39944e-06
-1.90296e-08
-8.3066e-08
1.40611e-06
-1.94351e-08
-8.32187e-08
1.41268e-06
-1.9954e-08
-8.33991e-08
1.41906e-06
-2.05918e-08
-8.35558e-08
1.42519e-06
-2.12809e-08
-8.36621e-08
1.431e-06
-2.18895e-08
-8.37115e-08
1.43648e-06
-2.2408e-08
-8.36958e-08
1.44166e-06
-2.28848e-08
-8.36203e-08
-2.33126e-08
-8.3512e-08
1.11822e-06
-1.05621e-09
-1.05435e-07
1.12109e-06
-3.07864e-09
-1.06411e-07
1.1263e-06
-5.11384e-09
-1.06928e-07
1.13212e-06
-6.79504e-09
-1.0728e-07
1.13791e-06
-8.29907e-09
-1.07477e-07
1.14332e-06
-9.66998e-09
-1.07471e-07
1.14821e-06
-1.09974e-08
-1.07259e-07
1.15248e-06
-1.20316e-08
-1.06958e-07
1.15617e-06
-1.2903e-08
-1.06561e-07
1.15932e-06
-1.36374e-08
-1.06106e-07
-1.42556e-08
-1.05632e-07
7.08122e-07
-1.23703e-07
7.22944e-07
-1.2402e-07
7.35151e-07
-1.23548e-07
7.44127e-07
-1.23201e-07
7.50364e-07
-1.2283e-07
7.54298e-07
-1.22293e-07
7.56166e-07
-1.21618e-07
7.56286e-07
-1.20821e-07
7.54954e-07
-1.20067e-07
7.52445e-07
-1.19415e-07
-1.18847e-07
1.62056e-06
6.09774e-09
1.6278e-06
6.02693e-09
1.63529e-06
6.02317e-09
1.64293e-06
6.01568e-09
1.65058e-06
5.99918e-09
1.65816e-06
5.97033e-09
1.66559e-06
5.92445e-09
1.6728e-06
5.85711e-09
1.67976e-06
5.76542e-09
1.68644e-06
5.65436e-09
1.69287e-06
5.53364e-09
5.4082e-09
1.73357e-06
2.40763e-09
1.74207e-06
2.36942e-09
1.75067e-06
2.33439e-09
1.75934e-06
2.30309e-09
1.76802e-06
2.28137e-09
1.77663e-06
2.25692e-09
1.78512e-06
2.22275e-09
1.79345e-06
2.18055e-09
1.80158e-06
2.13069e-09
1.80947e-06
2.07488e-09
1.81713e-06
2.01536e-09
1.95349e-09
1.77025e-06
-2.40752e-09
1.77973e-06
-2.36914e-09
1.78907e-06
-2.33392e-09
1.79827e-06
-2.30248e-09
1.8074e-06
-2.28088e-09
1.81642e-06
-2.25693e-09
1.82532e-06
-2.2234e-09
1.83404e-06
-2.18186e-09
1.84257e-06
-2.13257e-09
1.85088e-06
-2.0771e-09
1.85894e-06
-2.01759e-09
-1.95543e-09
1.73357e-06
-6.09796e-09
1.74207e-06
-6.0271e-09
1.75067e-06
-6.02312e-09
1.75934e-06
-6.01543e-09
1.76802e-06
-5.99917e-09
1.77663e-06
-5.97098e-09
1.78512e-06
-5.9259e-09
1.79346e-06
-5.85936e-09
1.80158e-06
-5.76834e-09
1.80948e-06
-5.65766e-09
1.81714e-06
-5.53661e-09
-5.41122e-09
1.62056e-06
-7.50242e-09
1.6278e-06
-7.26747e-09
1.63529e-06
-7.28167e-09
1.64293e-06
-7.39025e-09
1.65059e-06
-7.52132e-09
1.65816e-06
-7.6596e-09
1.66559e-06
-7.79357e-09
1.67281e-06
-7.88255e-09
1.67976e-06
-7.91162e-09
1.68645e-06
-7.89298e-09
1.69288e-06
-7.84773e-09
1.43417e-06
-5.00464e-09
1.43935e-06
-4.94309e-09
1.44527e-06
-5.38507e-09
1.45152e-06
-5.89218e-09
1.45777e-06
-6.4066e-09
1.46386e-06
-6.94206e-09
1.46969e-06
-7.4838e-09
1.47517e-06
-7.92106e-09
1.48026e-06
-8.20754e-09
1.485e-06
-8.39244e-09
-8.53367e-09
1.16993e-06
1.4221e-09
1.1739e-06
-8.1958e-11
1.17881e-06
-1.17032e-09
1.18387e-06
-2.26794e-09
1.18859e-06
-3.29905e-09
1.19272e-06
-4.25081e-09
1.19612e-06
-5.06976e-09
1.19877e-06
-5.77555e-09
1.20083e-06
-6.31605e-09
1.20239e-06
-6.71326e-09
-7.00855e-09
7.798e-07
7.87616e-07
7.94694e-07
7.99725e-07
8.02393e-07
8.02843e-07
8.0139e-07
7.98445e-07
7.9434e-07
7.89353e-07
)
;

boundaryField
{
    inlet
    {
        type            calculated;
        value           nonuniform List<scalar> 0();
    }
    ami1
    {
        type            cyclicAMI;
        value           nonuniform List<scalar> 0();
    }
    walls
    {
        type            calculated;
        value           nonuniform List<scalar> 
227
(
1.28555e-14
6.40674e-15
1.55096e-22
-6.40674e-15
-1.28555e-14
-1.84387e-14
-2.43942e-14
-2.90979e-14
1.28555e-14
6.40674e-15
2.21012e-22
-6.40674e-15
-1.28555e-14
-1.84387e-14
-2.43942e-14
-2.90979e-14
1.28555e-14
6.40674e-15
1.54579e-22
-6.40674e-15
-1.28555e-14
-1.84387e-14
-2.43942e-14
-2.90979e-14
1.84387e-14
1.28555e-14
6.40674e-15
1.54579e-22
-6.40674e-15
-1.28555e-14
-1.84387e-14
-2.43942e-14
-2.90979e-14
2.90979e-14
2.43942e-14
1.84387e-14
1.28555e-14
6.40674e-15
1.54579e-22
-6.40674e-15
-1.28555e-14
-1.84387e-14
-2.43942e-14
-2.90979e-14
2.90979e-14
2.43942e-14
1.84387e-14
1.28555e-14
6.40674e-15
2.21271e-22
-6.40674e-15
-1.28555e-14
-1.84387e-14
-2.43942e-14
-2.90979e-14
2.90979e-14
2.43942e-14
1.84387e-14
1.28555e-14
6.40674e-15
1.53804e-22
-6.40674e-15
-1.28555e-14
-1.84387e-14
-2.43942e-14
-2.90979e-14
2.90979e-14
2.43942e-14
1.84387e-14
1.28555e-14
6.40674e-15
1.53804e-22
-6.40674e-15
-1.28555e-14
-1.84387e-14
-2.43942e-14
-2.90979e-14
2.90979e-14
2.43942e-14
1.84387e-14
1.28555e-14
6.40674e-15
1.54579e-22
-6.40674e-15
-1.28555e-14
-1.84387e-14
-2.43942e-14
-2.90979e-14
2.90979e-14
2.43942e-14
1.84387e-14
1.28555e-14
6.40674e-15
2.20754e-22
-6.40674e-15
-1.28555e-14
-1.84387e-14
-2.43942e-14
-2.90979e-14
2.90979e-14
2.43942e-14
1.84387e-14
1.28555e-14
6.40674e-15
1.55096e-22
-6.40674e-15
-1.28555e-14
-1.84387e-14
-2.43942e-14
-2.90979e-14
2.90979e-14
2.43942e-14
1.84387e-14
1.28555e-14
6.40674e-15
1.54838e-22
-6.40674e-15
-1.28555e-14
2.90979e-14
2.43942e-14
1.84387e-14
1.28555e-14
6.40674e-15
1.55096e-22
2.90979e-14
2.43942e-14
1.84387e-14
1.28555e-14
6.40674e-15
2.21012e-22
2.90979e-14
2.43942e-14
1.84387e-14
1.28555e-14
6.40674e-15
1.54579e-22
2.90979e-14
2.43942e-14
1.84387e-14
1.28555e-14
6.40674e-15
1.54579e-22
2.90979e-14
2.43942e-14
1.84387e-14
1.28555e-14
6.40674e-15
1.54579e-22
2.90979e-14
2.43942e-14
1.84387e-14
1.28555e-14
6.40674e-15
2.21271e-22
2.90979e-14
2.43942e-14
1.84387e-14
1.28555e-14
6.40674e-15
1.53804e-22
2.90979e-14
2.43942e-14
1.84387e-14
1.28555e-14
6.40674e-15
1.53804e-22
2.90979e-14
2.43942e-14
1.84387e-14
1.28555e-14
6.40674e-15
1.54579e-22
2.90979e-14
2.43942e-14
1.84387e-14
1.28555e-14
6.40674e-15
2.20754e-22
2.90979e-14
2.43942e-14
1.84387e-14
1.28555e-14
6.40674e-15
1.55096e-22
-1.84387e-14
-1.28555e-14
-6.40674e-15
-2.90979e-14
-2.43942e-14
-1.84387e-14
-1.28555e-14
-6.40674e-15
-2.90979e-14
-2.43942e-14
-1.84387e-14
-1.28555e-14
-6.40674e-15
-2.90979e-14
-2.43942e-14
-1.84387e-14
-1.28555e-14
-6.40674e-15
-2.90979e-14
-2.43942e-14
-1.84387e-14
-1.28555e-14
-6.40674e-15
-2.90979e-14
-2.43942e-14
-1.84387e-14
-1.28555e-14
-6.40674e-15
-2.90979e-14
-2.43942e-14
-1.84387e-14
-1.28555e-14
-6.40674e-15
-2.90979e-14
-2.43942e-14
-1.84387e-14
-1.28555e-14
-6.40674e-15
-2.90979e-14
-2.43942e-14
-1.84387e-14
-1.28555e-14
-6.40674e-15
)
;
    }
    ami2
    {
        type            cyclicAMI;
        value           nonuniform List<scalar> 
48
(
-5.86883e-07
-6.93962e-07
-7.71878e-07
-7.92319e-07
-7.41544e-07
-6.00862e-07
-3.9269e-07
-1.75038e-07
-1.00422e-06
-1.12034e-06
-1.16857e-06
-1.15573e-06
-1.04891e-06
-8.52579e-07
-6.04784e-07
-3.3567e-07
-1.27767e-06
-1.38127e-06
-1.42957e-06
-1.40157e-06
-1.28596e-06
-1.10392e-06
-8.34763e-07
-4.63619e-07
-1.46479e-06
-1.57392e-06
-1.61343e-06
-1.57585e-06
-1.46479e-06
-1.27765e-06
-1.00421e-06
-5.86902e-07
-1.57585e-06
-1.68582e-06
-1.72495e-06
-1.68582e-06
-1.57392e-06
-1.38127e-06
-1.12034e-06
-6.93967e-07
-1.61343e-06
-1.72495e-06
-1.76063e-06
-1.72495e-06
-1.61343e-06
-1.42957e-06
-1.16856e-06
-7.71881e-07
)
;
    }
    outlet
    {
        type            calculated;
        value           nonuniform List<scalar> 0();
    }
    procBoundary0to1
    {
        type            processor;
        value           nonuniform List<scalar> 
138
(
-7.92473e-07
1.30498e-07
1.28797e-07
1.26996e-07
1.25237e-07
1.23653e-07
1.22278e-07
1.21141e-07
1.20253e-07
1.19516e-07
-1.16136e-06
1.15962e-07
1.15304e-07
1.14294e-07
1.13066e-07
1.1176e-07
1.10503e-07
1.09345e-07
1.08305e-07
1.0739e-07
1.26508e-08
1.20272e-08
-1.41589e-06
1.15993e-08
9.09639e-08
9.07674e-08
9.03622e-08
8.98052e-08
8.91542e-08
8.84944e-08
8.78575e-08
8.7271e-08
8.67369e-08
-7.50164e-09
-7.26643e-09
-7.28119e-09
-7.3905e-09
-7.52114e-09
-7.65843e-09
-7.7913e-09
-7.87916e-09
-7.90738e-09
-7.88845e-09
-7.84486e-09
-7.78209e-09
5.61407e-08
5.60781e-08
5.60469e-08
5.6072e-08
5.61468e-08
5.62516e-08
5.63744e-08
5.65031e-08
5.66231e-08
5.67272e-08
5.68152e-08
5.68894e-08
2.74762e-08
2.7487e-08
2.742e-08
2.73679e-08
2.7356e-08
2.73801e-08
2.74329e-08
2.75091e-08
2.7602e-08
2.77038e-08
2.78099e-08
2.79197e-08
-2.4067e-09
-2.36821e-09
-2.33289e-09
-2.30135e-09
-2.2796e-09
-2.25539e-09
-2.22149e-09
-2.17954e-09
-2.12984e-09
-2.07408e-09
-2.01444e-09
-1.95211e-09
-3.24056e-08
-3.23252e-08
-3.23283e-08
-3.23295e-08
-3.23105e-08
-3.22736e-08
-3.22229e-08
-3.21602e-08
-3.20893e-08
-3.20148e-08
-3.19395e-08
-3.18622e-08
-6.18708e-08
-6.2076e-08
-6.22751e-08
-6.23372e-08
-6.22797e-08
-6.21371e-08
-6.19335e-08
-6.16927e-08
-6.14334e-08
-6.11716e-08
-6.0928e-08
-6.0705e-08
-8.97458e-08
-9.04597e-08
-9.08805e-08
-9.09623e-08
-9.07671e-08
-9.03625e-08
-8.98054e-08
-8.91535e-08
-8.84927e-08
-8.78546e-08
-8.72663e-08
-1.13231e-07
-1.15238e-07
-1.1606e-07
-1.15959e-07
-1.15303e-07
-1.14295e-07
-1.13068e-07
-1.11762e-07
-1.10505e-07
-1.09345e-07
-1.08304e-07
-1.30199e-07
-1.31918e-07
-1.31797e-07
-1.30501e-07
-1.28797e-07
-1.26995e-07
-1.25234e-07
-1.23651e-07
-1.22277e-07
-1.21141e-07
-1.20254e-07
)
;
    }
    procBoundary0to2
    {
        type            processor;
        value           nonuniform List<scalar> 
28
(
-8.51936e-08
-2.51037e-07
6.09025e-08
8.14216e-08
7.80375e-08
-4.68095e-07
8.17757e-08
-2.58963e-07
-7.6307e-08
-5.8555e-07
4.00822e-08
-7.08069e-08
6.2064e-08
5.96004e-08
-8.42745e-07
6.13584e-08
-5.16717e-07
-8.67657e-07
4.78246e-08
4.58982e-08
-1.11439e-06
4.56839e-08
-7.03794e-07
-1.0573e-06
3.14182e-08
3.01063e-08
-1.30386e-06
2.92406e-08
)
;
    }
    procBoundary0to8
    {
        type            processor;
        value           nonuniform List<scalar> 
29
(
7.16075e-08
2.26197e-07
4.3621e-07
6.2336e-07
7.44767e-07
2.14172e-07
5.36009e-07
8.25287e-07
1.03566e-06
1.16414e-06
3.99844e-07
8.09593e-07
1.11088e-06
1.323e-06
1.45123e-06
5.81225e-07