/*--------------------------------*- C++ -*----------------------------------*\
| =========                 |                                                 |
| \\      /  F ield         | OpenFOAM: The Open Source CFD Toolbox           |
|  \\    /   O peration     | Version:  2212                                  |
|   \\  /    A nd           | Website:  www.openfoam.com                      |
|    \\/     M anipulation  |                                                 |
\*---------------------------------------------------------------------------*/
FoamFile
{
    version     2.0;
    format      ascii;
    arch        "LSB;label=32;scalar=64";
    class       volScalarField;
    location    "0.8";
    object      p;
}
// * * * * * * * * * * * * * * * * * * * * * * * * * * * * * * * * * * * * * //

dimensions      [0 2 -2 0 0 0 0];

internalField   nonuniform List<scalar> 
682
(
0.00316526
0.00303391
0.00290461
0.00277768
0.00265286
0.00252996
0.00240893
0.00228973
0.00217229
0.00205678
0.00194262
0.00316464
0.00303349
0.00290447
0.00277782
0.00265314
0.00253036
0.00240944
0.00229044
0.00217317
0.00205802
0.00194485
0.00315923
0.00302881
0.00290062
0.00277468
0.00265018
0.00252765
0.00240714
0.00228893
0.00217248
0.00205784
0.00194538
0.00327677
0.0031477
0.00301911
0.00289305
0.00276919
0.00264685
0.0025258
0.00240606
0.00228828
0.00217187
0.00205779
0.00194545
0.0032724
0.00314474
0.00301725
0.00289197
0.00276888
0.00264734
0.0025268
0.00240728
0.00228942
0.00217306
0.00205866
0.00194637
0.00326928
0.00314165
0.00301424
0.00288894
0.0027657
0.00264376
0.00252296
0.00240355
0.0022858
0.00216959
0.00205513
0.00194279
0.00314701
0.00301923
0.00289286
0.00276798
0.00264465
0.0025229
0.00240275
0.00228411
0.00216708
0.00205136
0.00193572
0.00314921
0.00302093
0.00289418
0.00276908
0.00264567
0.00252378
0.00240366
0.00228508
0.00216836
0.00205288
0.00193696
0.00314706
0.0030189
0.00289235
0.00276758
0.00264431
0.00252256
0.00240308
0.00228549
0.00216901
0.00205333
0.00193841
0.00327021
0.0031416
0.00301411
0.00288892
0.00276565
0.00264248
0.00252078
0.00240142
0.00228415
0.00216833
0.00205381
0.00194064
0.00327075
0.00314314
0.00301596
0.00289114
0.00276813
0.002646
0.00252492
0.00240543
0.0022877
0.00217138
0.00205713
0.00194509
0.00326621
0.00313822
0.00301074
0.00288559
0.0027623
0.00264013
0.00251919
0.0023999
0.00228229
0.00216624
0.00205189
0.0019396
0.00311645
0.0029907
0.00286652
0.00274354
0.00262194
0.00250171
0.00238261
0.00226444
0.00214688
0.00202958
0.00191302
0.00311881
0.00299288
0.00286831
0.00274494
0.00262323
0.002503
0.00238373
0.0022653
0.002148
0.00203113
0.00191408
0.00312098
0.00299505
0.00286982
0.00274579
0.00262442
0.00250461
0.00238576
0.0022676
0.00215076
0.00203452
0.00191731
0.00325097
0.00312286
0.0029968
0.00287156
0.00274791
0.0026263
0.00250645
0.00238856
0.0022721
0.0021562
0.00204022
0.00192394
0.00326432
0.00313609
0.0030093
0.00288458
0.00276173
0.00263923
0.00251822
0.00239924
0.00228204
0.00216604
0.0020514
0.00193768
0.00326946
0.00313989
0.00301166
0.00288577
0.00276167
0.00263884
0.00251757
0.00239828
0.00228068
0.00216467
0.00205012
0.00193745
0.00310609
0.00298041
0.00285658
0.00273406
0.00261285
0.00249285
0.00237376
0.00225534
0.00213724
0.00201903
0.00190211
0.00310837
0.00298258
0.00285849
0.00273572
0.00261441
0.00249437
0.00237511
0.00225649
0.00213822
0.00201999
0.00190301
0.00311296
0.00298709
0.0028625
0.00273926
0.00261801
0.00249814
0.00237839
0.00225915
0.00214153
0.00202452
0.00190762
0.00324782
0.00311979
0.00299359
0.00286817
0.00274422
0.00262316
0.00250356
0.00238461
0.00226653
0.00214975
0.00203363
0.00191691
0.00326989
0.00314079
0.00301326
0.0028873
0.00276305
0.0026404
0.00251928
0.00240004
0.0022824
0.00216569
0.00205014
0.00193491
0.00328494
0.00315255
0.00302245
0.00289466
0.002769
0.00264486
0.00252277
0.00240269
0.00228442
0.00216777
0.00205273
0.00193936
0.0031029
0.00297709
0.00285315
0.00273065
0.00260948
0.00248947
0.00237034
0.00225189
0.00213385
0.00201576
0.00189871
0.0031075
0.00298179
0.00285769
0.00273503
0.00261385
0.00249388
0.0023747
0.00225621
0.00213806
0.00201984
0.00190284
0.00324463
0.00311683
0.00299078
0.00286609
0.00274294
0.00262155
0.00250151
0.00238231
0.00226409
0.00214695
0.0020302
0.00191373
0.00327247
0.00314335
0.00301562
0.00288945
0.00276487
0.002642
0.00252058
0.00240069
0.00228228
0.00216568
0.0020503
0.00193475
0.00329324
0.0031596
0.00302861
0.0029001
0.00277372
0.00264925
0.00252669
0.002406
0.00228712
0.00216989
0.00205465
0.00194085
0.00310142
0.0029757
0.00285183
0.0027294
0.00260828
0.00248829
0.00236921
0.00225081
0.00213284
0.00201481
0.00189782
0.00310693
0.00298126
0.00285722
0.00273463
0.00261341
0.00249339
0.00237429
0.00225587
0.00213769
0.00201926
0.00190199
0.0032455
0.0031178
0.00299171
0.002867
0.0027438
0.00262216
0.00250192
0.00238283
0.00226469
0.00214715
0.00202987
0.00191327
0.00327609
0.00314669
0.00301865
0.00289215
0.00276728
0.00264404
0.00252237
0.0024023
0.00228376
0.0021669
0.0020514
0.001936
0.00329639
0.00316303
0.00303197
0.00290323
0.0027766
0.00265193
0.00252915
0.00240824
0.00228919
0.00217194
0.0020567
0.00194288
0.00310286
0.00297705
0.00285311
0.00273062
0.00260947
0.00248948
0.00237038
0.00225195
0.00213393
0.00201586
0.00189885
0.00310895
0.00298305
0.00285875
0.00273593
0.00261464
0.00249463
0.00237541
0.00225677
0.00213845
0.00202015
0.00190304
0.00324807
0.00312005
0.00299365
0.00286852
0.00274497
0.0026232
0.00250298
0.00238381
0.00226539
0.00214809
0.00203123
0.00191431
0.00327894
0.00314891
0.00302042
0.00289359
0.0027685
0.00264514
0.00252333
0.00240332
0.00228485
0.00216826
0.00205292
0.00193717
0.00329529
0.00316257
0.00303186
0.00290346
0.00277709
0.00265254
0.00252985
0.00240902
0.00229012
0.00217298
0.00205809
0.00194504
0.00310686
0.00298118
0.00285729
0.00273475
0.00261361
0.00249368
0.00237454
0.00225601
0.00213786
0.00201982
0.00190307
0.00311303
0.00298713
0.00286254
0.00273935
0.00261806
0.00249823
0.00237863
0.00225935
0.00214163
0.00202463
0.00190771
0.00324984
0.00312175
0.00299551
0.00286992
0.00274588
0.00262428
0.00250444
0.00238594
0.00226782
0.00215096
0.00203468
0.00191735
0.00327649
0.00314645
0.00301842
0.00289207
0.0027673
0.00264409
0.00252238
0.00240288
0.00228534
0.00216905
0.00205354
0.00193843
0.00328935
0.00315752
0.00302751
0.00289991
0.00277424
0.0026499
0.00252744
0.00240688
0.00228866
0.00217228
0.00205776
0.00194551
0.00311556
0.00298988
0.00286576
0.00274287
0.00262152
0.00250149
0.00238233
0.00226404
0.00214683
0.00203003
0.00191356
0.00311912
0.00299326
0.00286826
0.00274459
0.00262336
0.0025037
0.00238504
0.00226686
0.00214998
0.00203367
0.00191665
0.00325098
0.00312275
0.00299692
0.00287185
0.0027482
0.00262651
0.00250658
0.002389
0.00227236
0.00215644
0.00204043
0.00192383
0.00326995
0.0031411
0.00301376
0.00288878
0.0027654
0.00264251
0.0025209
0.00240122
0.00228399
0.00216825
0.00205387
0.00194075
0.0032764
0.00314688
0.00301829
0.00289238
0.00276872
0.00264653
0.00252557
0.00240578
0.00228806
0.00217165
0.00205749
0.00194547
0.00314345
0.00301597
0.00288991
0.00276535
0.00264243
0.00252097
0.00240108
0.00228262
0.00216592
0.00205032
0.00193444
0.00314115
0.00301376
0.00288781
0.00276351
0.00264082
0.0025196
0.00240054
0.00228276
0.00216587
0.00205014
0.00193474
0.00326463
0.00313668
0.00300975
0.0028849
0.0027618
0.00263951
0.00251851
0.00239933
0.0022821
0.00216609
0.00205144
0.00193771
0.00327078
0.00314334
0.00301595
0.00289098
0.00276799
0.00264596
0.00252497
0.00240506
0.00228752
0.00217129
0.002057
0.00194516
0.00327221
0.00314428
0.00301673
0.00289146
0.00276848
0.00264706
0.0025266
0.00240696
0.00228918
0.00217287
0.00205852
0.0019465
0.00316143
0.00303009
0.00290101
0.00277436
0.00264978
0.00252713
0.00240634
0.0022874
0.00217009
0.00205473
0.00194071
0.00315405
0.00302354
0.00289526
0.0027694
0.00264522
0.00252308
0.00240284
0.00228455
0.00216788
0.00205274
0.00193929
0.00326986
0.00314087
0.00301233
0.0028861
0.00276189
0.00263906
0.00251785
0.00239804
0.00228064
0.00216473
0.0020502
0.00193751
0.00326643
0.00313872
0.00301124
0.00288589
0.00276252
0.00264033
0.00251936
0.00239977
0.00228223
0.00216623
0.00205192
0.00193973
0.0032693
0.00314167
0.00301423
0.00288884
0.00276561
0.00264374
0.00252294
0.00240333
0.00228564
0.00216949
0.00205507
0.00194291
)
;

boundaryField
{
    inlet
    {
        type            zeroGradient;
    }
    ami1
    {
        type            cyclicAMI;
        value           nonuniform List<scalar> 0();
    }
    walls
    {
        type            zeroGradient;
    }
    ami2
    {
        type            cyclicAMI;
        value           nonuniform List<scalar> 0();
    }
    outlet
    {
        type            fixedValue;
        value           nonuniform List<scalar> 0();
    }
    procBoundary9to0
    {
        type            processor;
        value           nonuniform List<scalar> 
40
(
0.00329769
0.00329647
0.00329025
0.00329025
0.00340583
0.00339933
0.00339615
0.00327626
0.00327908
0.00327675
0.00327675
0.0033997
0.00339801
0.00339334
0.00324505
0.00324763
0.00324951
0.00324951
0.00338218
0.0033937
0.00339916
0.00323458
0.00323699
0.00324133
0.00324133
0.00337933
0.00340076
0.00341873
0.00323131
0.00323553
0.00323553
0.00337554
0.00340317
0.00342899
0.00322959
0.00323477
0.00323477
0.00337609
0.00340691
0.00343163
)
;
    }
    procBoundary9to1
    {
        type            processor;
        value           nonuniform List<scalar> 
30
(
0.00323127
0.00323712
0.00323712
0.00337935
0.0034106
0.00342915
0.00323541
0.00324139
0.00324139
0.00338154
0.00340826
0.00342158
0.00324424
0.00324762
0.00324762
0.003382
0.00339978
0.00340594
0.00327247
0.00327008
0.00327008
0.00339361
0.00339825
0.0033995
0.00329424
0.00328573
0.00328573
0.00339944
0.00339356
0.00339634
)
;
    }
    procBoundary9to7
    {
        type            processor;
        value           nonuniform List<scalar> 
59
(
0.0018267
0.00182923
0.00182987
0.00183006
0.00183135
0.00182809
0.00182014
0.00182128
0.00182307
0.00182541
0.00183016
0.00182503
0.00179971
0.00180036
0.00180325
0.00180952
0.00182251
0.00182268
0.00178954
0.00179035
0.00179462
0.00180305
0.00181986
0.0018241
0.00178581
0.0017901
0.00180016
0.00181952
0.00182543
0.00178485
0.0017891
0.00179977
0.00182068
0.00182736
0.00178597
0.00179024
0.00180052
0.00182164
0.0018296
0.00179051
0.00179451
0.00180311
0.00182305
0.00183028
0.0018002
0.00180259
0.00180911
0.00182561
0.00183057
0.00181905
0.00181949
0.00182252
0.00183059
0.00183181
0.00182489
0.00182387
0.00182276
0.00182525
0.00182844
)
;
    }
    procBoundary9to8
    {
        type            processor;
        value           nonuniform List<scalar> 
132
(
0.00316169
0.00303042
0.00290138
0.00277474
0.00265019
0.0025275
0.00240665
0.00228763
0.00217026
0.0020548
0.00194058
0.00314363
0.00301618
0.00289013
0.00276557
0.00264247
0.00252106
0.0024011
0.00228258
0.00216582
0.00205011
0.00193436
0.00311553
0.00298979
0.00286565
0.00274274
0.00262134
0.0025013
0.0023821
0.00226386
0.00214664
0.00202985
0.00191352
0.00310675
0.00298104
0.00285717
0.00273463
0.00261347
0.0024935
0.00237433
0.00225583
0.00213771
0.00201972
0.00190306
0.00310114
0.00297537
0.00285152
0.00272912
0.00260801
0.00248802
0.00236894
0.00225055
0.00213261
0.00201471
0.0018979
0.00310114
0.00297537
0.00285152
0.00272912
0.00260801
0.00248802
0.00236894
0.00225055
0.00213261
0.00201471
0.0018979
0.0030993
0.00297368
0.00284994
0.00272764
0.00260659
0.00248664
0.00236759
0.00224922
0.0021313
0.00201341
0.00189656
0.00310127
0.00297556
0.00285176
0.00272938
0.00260829
0.00248831
0.00236923
0.00225083
0.00213284
0.00201478
0.00189771
0.00310616
0.00298057
0.00285682
0.00273438
0.00261322
0.00249321
0.0023741
0.00225567
0.00213752
0.00201921
0.0019021
0.00311642
0.00299077
0.0028667
0.00274379
0.00262224
0.00250202
0.0023829
0.00226471
0.00214708
0.00202986
0.00191338
0.00314668
0.00301888
0.00289249
0.00276761
0.00264432
0.00252265
0.00240256
0.00228399
0.00216703
0.00205142
0.001936
0.00316484
0.00303336
0.00290396
0.00277695
0.00265211
0.00252924
0.00240829
0.00228922
0.002172
0.0020566
0.00194258
)
;
    }
}


// ************************************************************************* //
