/*--------------------------------*- C++ -*----------------------------------*\
| =========                 |                                                 |
| \\      /  F ield         | OpenFOAM: The Open Source CFD Toolbox           |
|  \\    /   O peration     | Version:  2212                                  |
|   \\  /    A nd           | Website:  www.openfoam.com                      |
|    \\/     M anipulation  |                                                 |
\*---------------------------------------------------------------------------*/
FoamFile
{
    version     2.0;
    format      ascii;
    arch        "LSB;label=32;scalar=64";
    class       surfaceVectorField;
    location    "0.8";
    object      Uf;
}
// * * * * * * * * * * * * * * * * * * * * * * * * * * * * * * * * * * * * * //

dimensions      [0 1 -1 0 0 0 0];

internalField   nonuniform List<vector> 
1786
(
(0.0801639 -0.00049718 0.000362514)
(0.0784059 -0.000536736 0.00036531)
(0.0917052 -0.000550417 0.000380302)
(0.0798079 -0.000475101 0.000369723)
(0.0779936 -0.000505018 0.000376192)
(0.0915726 -0.000527412 0.000393117)
(0.079454 -0.000446523 0.000365068)
(0.077592 -0.000469207 0.000373607)
(0.0914266 -0.000498265 0.000394135)
(0.0791107 -0.000414593 0.000352423)
(0.0772062 -0.000432494 0.000362099)
(0.0912731 -0.000465349 0.000386165)
(0.0787834 -0.000381177 0.000334496)
(0.0768424 -0.00039551 0.000344671)
(0.091118 -0.000430445 0.000371821)
(0.0784751 -0.00034801 0.000313317)
(0.0765035 -0.00035911 0.000323596)
(0.0909652 -0.000395293 0.000353372)
(0.0781871 -0.000316679 0.000290506)
(0.0761895 -0.000324875 0.000300385)
(0.0908171 -0.000361827 0.000332718)
(0.0779199 -0.000288127 0.000267125)
(0.0759003 -0.000294239 0.000276187)
(0.0906748 -0.000331516 0.000311503)
(0.0776724 -0.000263216 0.000243937)
(0.0756334 -0.000267132 0.000251827)
(0.0905399 -0.000304544 0.000290346)
(0.0774461 -0.000243861 0.000222356)
(0.075392 -0.000245645 0.000228078)
(0.0904137 -0.000279041 0.000268071)
(0.0751775 -0.000232605 0.00020643)
(0.0902995 -0.000250359 0.000241383)
(0.0762832 -0.000542083 0.000380631)
(0.0726229 -0.000521844 0.000391081)
(0.0887064 -0.000677758 0.000344346)
(0.0758228 -0.000497311 0.000381397)
(0.0721078 -0.000474586 0.000389662)
(0.0884598 -0.000620338 0.000361681)
(0.0753883 -0.000453606 0.000371945)
(0.0716303 -0.000431863 0.000377408)
(0.0882215 -0.000565741 0.000365977)
(0.0749834 -0.000411698 0.000355925)
(0.0711894 -0.000393157 0.000358239)
(0.0879939 -0.000513912 0.000360636)
(0.0746089 -0.000371492 0.000335665)
(0.0707861 -0.000355264 0.000335461)
(0.0877799 -0.000464473 0.000348634)
(0.0742648 -0.000334041 0.000312609)
(0.0704224 -0.000318674 0.00031032)
(0.0875804 -0.000418379 0.000332125)
(0.0739496 -0.000300868 0.000287712)
(0.0700907 -0.000284938 0.000283368)
(0.0873952 -0.00037744 0.000312329)
(0.0736619 -0.000272205 0.000262072)
(0.0697941 -0.000256172 0.000255665)
(0.0872228 -0.000342467 0.000290791)
(0.0733987 -0.00024847 0.000237205)
(0.0695189 -0.000232645 0.000229699)
(0.0870639 -0.00031289 0.000269758)
(0.0731583 -0.000232185 0.000214403)
(0.0692752 -0.000214644 0.000207173)
(0.0869169 -0.000284953 0.0002487)
(0.0690576 -0.000203278 0.000186689)
(0.0867875 -0.000250464 0.000222373)
(0.0687179 -0.000451218 0.000403982)
(0.0632636 -0.000376625 0.000370417)
(0.0826509 -0.000644861 0.000361249)
(0.0681828 -0.000408142 0.000388482)
(0.0627232 -0.000340846 0.000353528)
(0.082289 -0.000578723 0.000362018)
(0.0676985 -0.000372346 0.000365352)
(0.0622391 -0.000312297 0.000329098)
(0.0819615 -0.000522126 0.000352471)
(0.0672625 -0.000340048 0.000337802)
(0.0617951 -0.000287058 0.000300296)
(0.0816663 -0.000471194 0.000335505)
(0.0668706 -0.000308162 0.000308466)
(0.0614002 -0.000259462 0.000269272)
(0.0813996 -0.000424581 0.000315094)
(0.0665195 -0.000276289 0.000278773)
(0.0610443 -0.000230835 0.000239346)
(0.0811629 -0.000380209 0.000292555)
(0.0662053 -0.000246199 0.000249648)
(0.0607293 -0.00020422 0.000211941)
(0.0809485 -0.000339196 0.000268405)
(0.0659228 -0.000220736 0.000222936)
(0.0604473 -0.000178936 0.000187014)
(0.0807557 -0.000301489 0.000243702)
(0.0656648 -0.00020176 0.000199999)
(0.0601919 -0.000159615 0.000166479)
(0.0805756 -0.000272559 0.000222539)
(0.0654285 -0.000188272 0.000179923)
(0.0599654 -0.000147637 0.000149191)
(0.0804168 -0.000249246 0.000203917)
(0.0597634 -0.000135567 0.000133698)
(0.0802778 -0.000212376 0.00017998)
(0.0585241 -0.000335912 0.000326176)
(0.0509439 -0.000230469 0.000241521)
(0.0736942 -0.000559108 0.000305299)
(0.0579693 -0.000304788 0.000309298)
(0.0504127 -0.000208922 0.000228293)
(0.0732266 -0.000498936 0.000295485)
(0.0574707 -0.000277844 0.000286625)
(0.0499406 -0.000190121 0.000211761)
(0.0728159 -0.00044982 0.000280713)
(0.0570227 -0.000253775 0.000259829)
(0.0495191 -0.000173363 0.000192685)
(0.0724535 -0.000402373 0.000260118)
(0.0566205 -0.000227296 0.000230858)
(0.0491367 -0.0001568 0.000172349)
(0.0721224 -0.000357447 0.000236764)
(0.0562599 -0.000197794 0.000202099)
(0.0487991 -0.000139595 0.00015194)
(0.0718301 -0.000317619 0.000213947)
(0.0559381 -0.000170876 0.000176086)
(0.0484901 -0.000123072 0.000133096)
(0.0715713 -0.00028261 0.000192325)
(0.0556514 -0.000147193 0.000153311)
(0.0482171 -0.000108146 0.000116589)
(0.0713413 -0.000251274 0.000172163)
(0.055398 -0.000127649 0.00013409)
(0.0479705 -9.31458e-05 0.000102296)
(0.0711361 -0.000220721 0.00015346)
(0.0551689 -0.000114158 0.000119157)
(0.0477516 -8.28947e-05 9.04916e-05)
(0.0709483 -0.00020006 0.000138029)
(0.0549586 -0.000102258 0.000106674)
(0.0475546 -7.28857e-05 8.21749e-05)
(0.0707813 -0.000178719 0.000124792)
(0.0473889 -6.0105e-05 7.35708e-05)
(0.0706319 -0.00014321 0.000109339)
(0.0443792 -0.000103072 0.000171294)
(0.0352419 -6.13054e-05 0.000105302)
(0.0589864 -0.000282752 0.000182658)
(0.0439218 -9.00097e-05 0.000158723)
(0.0348404 -5.28239e-05 9.84174e-05)
(0.0584998 -0.000248852 0.000167075)
(0.0435104 -7.96178e-05 0.00014482)
(0.034481 -4.62075e-05 9.07178e-05)
(0.0580729 -0.000222008 0.000151342)
(0.0431442 -6.95062e-05 0.00013056)
(0.0341589 -3.95488e-05 8.27815e-05)
(0.057689 -0.000192915 0.000135552)
(0.0428198 -6.01814e-05 0.000117157)
(0.0338743 -3.25478e-05 7.53866e-05)
(0.0573471 -0.000165078 0.000121138)
(0.0425275 -5.29691e-05 0.000105077)
(0.0336225 -2.62826e-05 6.91714e-05)
(0.057042 -0.000145623 0.000109121)
(0.0422615 -4.66866e-05 9.39103e-05)
(0.0333947 -2.15197e-05 6.34808e-05)
(0.0567656 -0.000132071 9.8582e-05)
(0.0420215 -4.02575e-05 8.37969e-05)
(0.0331897 -1.77753e-05 5.77692e-05)
(0.0565159 -0.00011887 8.87641e-05)
(0.0418082 -3.45781e-05 7.51286e-05)
(0.0330074 -1.42267e-05 5.27488e-05)
(0.0562921 -0.000105562 8.03465e-05)
(0.0416146 -2.89041e-05 6.82493e-05)
(0.0328445 -1.16341e-05 4.8434e-05)
(0.0560893 -9.49382e-05 7.32347e-05)
(0.041441 -1.95163e-05 6.23518e-05)
(0.0326974 -8.14818e-06 4.53655e-05)
(0.0559063 -8.35809e-05 6.75376e-05)
(0.032584 -9.46973e-08 4.27266e-05)
(0.0557517 -5.5311e-05 6.15149e-05)
(0.0288213 -3.22405e-05 5.40965e-05)
(0.0364038 -0.000119833 3.20014e-05)
(0.0284928 -3.06676e-05 4.9733e-05)
(0.0360112 -0.000111688 2.7304e-05)
(0.0281951 -2.82848e-05 4.55216e-05)
(0.0356597 -0.000103502 2.36702e-05)
(0.0279326 -2.5253e-05 4.18384e-05)
(0.0353438 -9.30931e-05 2.12835e-05)
(0.027703 -2.24992e-05 3.88968e-05)
(0.0350647 -8.37795e-05 2.05474e-05)
(0.027499 -2.02377e-05 3.64844e-05)
(0.0348168 -7.7071e-05 2.0723e-05)
(0.0273156 -1.81816e-05 3.4209e-05)
(0.0345946 -7.1179e-05 2.09174e-05)
(0.027152 -1.61182e-05 3.20761e-05)
(0.0343946 -6.46968e-05 2.08328e-05)
(0.0270076 -1.43075e-05 3.0197e-05)
(0.0342179 -5.84407e-05 2.08943e-05)
(0.0268781 -1.27045e-05 2.87113e-05)
(0.0340604 -5.33409e-05 2.08854e-05)
(0.0267657 -9.87581e-06 2.77504e-05)
(0.0339184 -4.83621e-05 2.13147e-05)
(0.0338083 -4.08387e-05 2.23824e-05)
(0.1044 -0.000571053 0.000399759)
(0.103326 -0.000688689 0.000341832)
(0.108923 -0.000591665 0.000435039)
(0.1045 -0.000546711 0.00041235)
(0.103384 -0.000644544 0.00036806)
(0.109099 -0.000566592 0.000441159)
(0.104576 -0.000517331 0.000414436)
(0.103424 -0.000600155 0.000381333)
(0.109251 -0.000538043 0.000439802)
(0.104632 -0.000484093 0.000407726)
(0.10345 -0.000554292 0.00038307)
(0.109383 -0.00050586 0.000431317)
(0.104671 -0.000449236 0.000394939)
(0.103465 -0.000508453 0.000376377)
(0.109495 -0.000471773 0.000417387)
(0.104696 -0.000415191 0.000378685)
(0.10347 -0.000464521 0.000364153)
(0.10959 -0.000437989 0.000400308)
(0.10471 -0.000384026 0.000361141)
(0.103467 -0.000425117 0.000348889)
(0.109671 -0.00040664 0.000382201)
(0.104714 -0.000356813 0.000343881)
(0.103456 -0.000390997 0.000332454)
(0.109739 -0.000378921 0.000364801)
(0.104711 -0.000330457 0.00032512)
(0.103443 -0.000363489 0.000316739)
(0.109798 -0.00035358 0.000347484)
(0.104705 -0.000293736 0.000296416)
(0.103423 -0.000331806 0.000297356)
(0.109849 -0.000322026 0.000323712)
(0.103404 -0.000275062 0.000261475)
(0.109893 -0.000275968 0.000287148)
(0.102328 -0.000757689 0.000313614)
(0.100187 -0.00080813 0.000297211)
(0.107304 -0.000853208 0.000302091)
(0.102327 -0.000694437 0.000339832)
(0.100117 -0.0007343 0.00032275)
(0.107389 -0.000782297 0.000325061)
(0.102318 -0.000634315 0.000352206)
(0.10005 -0.000667291 0.000335154)
(0.107464 -0.000716145 0.000337683)
(0.102303 -0.000576334 0.000353633)
(0.099989 -0.000603273 0.000336168)
(0.107531 -0.000652619 0.000340917)
(0.102284 -0.000521709 0.000347335)
(0.0999305 -0.000544359 0.000329802)
(0.107589 -0.000593122 0.000336754)
(0.102261 -0.000472841 0.000335781)
(0.0998751 -0.000489887 0.000318053)
(0.107639 -0.000539161 0.000327468)
(0.102235 -0.000431119 0.000321081)
(0.099823 -0.000443781 0.000302728)
(0.107683 -0.0004922 0.000315541)
(0.102206 -0.000396749 0.000306186)
(0.0997681 -0.000402625 0.000284905)
(0.10772 -0.000451829 0.000302505)
(0.102174 -0.000363492 0.000290283)
(0.0997171 -0.000368783 0.000269739)
(0.107754 -0.000415192 0.000288695)
(0.102144 -0.000312494 0.000263154)
(0.0996662 -0.000332528 0.000252754)
(0.107782 -0.000372536 0.000270129)
(0.0996256 -0.000264084 0.000218208)
(0.107809 -0.000309198 0.000238937)
(0.098089 -0.00078356 0.000306922)
(0.0943263 -0.000758402 0.000286249)
(0.103768 -0.000947388 0.000271599)
(0.0979567 -0.000706894 0.000318581)
(0.0941151 -0.000684323 0.000290745)
(0.10373 -0.00085559 0.000281778)
(0.0978401 -0.00063708 0.000319266)
(0.0939289 -0.000615577 0.000285992)
(0.103701 -0.000772562 0.000284473)
(0.0977375 -0.000572561 0.000312498)
(0.0937648 -0.000549656 0.00027466)
(0.103683 -0.000694299 0.000280215)
(0.0976454 -0.000513515 0.000301138)
(0.0936172 -0.000490072 0.000261889)
(0.103669 -0.000624427 0.000271406)
(0.0975611 -0.000460916 0.000286494)
(0.0934931 -0.000438224 0.000247212)
(0.103659 -0.000563206 0.000259529)
(0.0974818 -0.000414042 0.000269293)
(0.0933772 -0.00039358 0.000231445)
(0.103653 -0.000508224 0.000245548)
(0.0974063 -0.00037324 0.000251552)
(0.0932735 -0.000351972 0.000214367)
(0.103645 -0.000456765 0.000229701)
(0.0973365 -0.000337732 0.000234318)
(0.0931717 -0.000323432 0.000198973)
(0.103642 -0.000417888 0.000215751)
(0.0972758 -0.000284881 0.000209221)
(0.0930817 -0.000291391 0.000182547)
(0.103638 -0.000378514 0.000200741)
(0.0930037 -0.000226419 0.000156564)
(0.10364 -0.000308377 0.000175389)
(0.0910044 -0.000754842 0.000269639)
(0.0835992 -0.000649309 0.000219954)
(0.0975605 -0.000980079 0.000240422)
(0.0907035 -0.000675903 0.000264345)
(0.083186 -0.000579649 0.000206846)
(0.0973605 -0.000879563 0.000228341)
(0.0904419 -0.000607285 0.000254813)
(0.0828307 -0.000524466 0.000193798)
(0.0971974 -0.000797308 0.000215709)
(0.0902124 -0.000539505 0.000240627)
(0.0825144 -0.000465831 0.00017919)
(0.0970615 -0.000712549 0.000201379)
(0.0900116 -0.000477807 0.000224138)
(0.0822327 -0.000409068 0.000164047)
(0.0969498 -0.000630117 0.000185617)
(0.089836 -0.000426477 0.000207361)
(0.0819801 -0.000365003 0.00014897)
(0.096854 -0.000564567 0.00016915)
(0.0896812 -0.000383025 0.000191059)
(0.0817612 -0.000330248 0.00013531)
(0.0967772 -0.000510033 0.00015358)
(0.089543 -0.000343232 0.000175396)
(0.0815597 -0.000298045 0.000123302)
(0.0967065 -0.000459863 0.000139267)
(0.0894167 -0.000311873 0.000161523)
(0.0813826 -0.000266676 0.000112802)
(0.0966449 -0.000413864 0.000126313)
(0.0892964 -0.000283589 0.000148638)
(0.0812146 -0.000244265 0.000104568)
(0.0965837 -0.000382578 0.000116511)
(0.0891862 -0.000236668 0.000132548)
(0.0810647 -0.000220747 9.59369e-05)
(0.096531 -0.000346848 0.000107155)
(0.0809289 -0.000170731 8.43096e-05)
(0.0964876 -0.000284462 9.48615e-05)
(0.0768323 -0.000467931 0.000178395)
(0.0606056 -0.000322813 8.15277e-05)
(0.0848161 -0.000675028 0.000145584)
(0.0763777 -0.000417879 0.000159595)
(0.0601314 -0.000288235 7.10818e-05)
(0.0844559 -0.00060406 0.000118636)
(0.0759726 -0.000370396 0.000142415)
(0.0597157 -0.000258796 6.25336e-05)
(0.0841417 -0.000543612 9.58546e-05)
(0.0756125 -0.000321146 0.000127073)
(0.0593404 -0.000226203 5.63268e-05)
(0.0838658 -0.000482572 7.78593e-05)
(0.0752927 -0.000278995 0.000113926)
(0.0590061 -0.000195499 5.25376e-05)
(0.0836151 -0.00042621 6.38529e-05)
(0.0750051 -0.000247936 0.00010265)
(0.0587064 -0.000172346 5.01289e-05)
(0.0833926 -0.000381342 5.36584e-05)
(0.0747452 -0.000223053 9.28069e-05)
(0.0584379 -0.000154701 4.76913e-05)
(0.0831951 -0.000344531 4.54497e-05)
(0.0745111 -0.000199855 8.4466e-05)
(0.0581951 -0.000138242 4.52613e-05)
(0.0830157 -0.000309317 3.92438e-05)
(0.0743006 -0.000179382 7.76303e-05)
(0.0579792 -0.000122601 4.34286e-05)
(0.0828538 -0.000276912 3.47414e-05)
(0.074107 -0.000162659 7.21629e-05)
(0.0577839 -0.000110464 4.18929e-05)
(0.082703 -0.00025093 3.14142e-05)
(0.0739245 -0.000133605 6.77214e-05)
(0.057608 -9.89531e-05 4.17245e-05)
(0.0825666 -0.000232197 2.94713e-05)
(0.0574578 -7.33987e-05 4.26344e-05)
(0.0824407 -0.000188678 3.11783e-05)
(0.0472963 -0.000203979 -1.53762e-05)
(0.0552874 -0.000292649 -9.02532e-05)
(0.0468591 -0.000189044 -1.85421e-05)
(0.0548178 -0.000273594 -9.62854e-05)
(0.046465 -0.000173111 -1.89083e-05)
(0.054403 -0.000253509 -9.71266e-05)
(0.0461139 -0.000157157 -1.63514e-05)
(0.0540193 -0.000233699 -9.24366e-05)
(0.045802 -0.00014384 -1.20569e-05)
(0.0536781 -0.000216103 -8.36819e-05)
(0.0455213 -0.00013261 -7.71967e-06)
(0.0533657 -0.000200866 -7.40696e-05)
(0.0452677 -0.000121042 -3.98401e-06)
(0.0530887 -0.00018473 -6.48752e-05)
(0.0450416 -0.000109157 -5.99592e-07)
(0.0528342 -0.000166482 -5.60569e-05)
(0.0448415 -9.86749e-05 2.51078e-06)
(0.0526116 -0.00014936 -4.75676e-05)
(0.0446617 -9.0005e-05 5.60927e-06)
(0.0524082 -0.000135233 -3.99937e-05)
(0.0444994 -8.08224e-05 9.41878e-06)
(0.0522273 -0.000123872 -3.26299e-05)
(0.0520754 -0.000114079 -2.50743e-05)
(0.114001 -0.000564896 0.00045728)
(0.113289 -0.000738001 0.000371763)
(0.116198 -0.000514392 0.000428775)
(0.114235 -0.00053521 0.000448417)
(0.113498 -0.000685054 0.000374148)
(0.116471 -0.000485205 0.000414916)
(0.114448 -0.0005041 0.000436226)
(0.113691 -0.000634342 0.000372289)
(0.116722 -0.000456058 0.000399917)
(0.114641 -0.000471715 0.000420771)
(0.113868 -0.000584429 0.000365783)
(0.116952 -0.000426051 0.000383017)
(0.114814 -0.000439657 0.000403181)
(0.114029 -0.000537189 0.000355313)
(0.117163 -0.000396163 0.000364736)
(0.11497 -0.000409469 0.000384895)
(0.114175 -0.000494239 0.000342394)
(0.117355 -0.000367753 0.000346091)
(0.115111 -0.000382066 0.000367269)
(0.114308 -0.000455192 0.000328724)
(0.117529 -0.000341496 0.000327929)
(0.115239 -0.000355774 0.000349317)
(0.114429 -0.000420515 0.000315414)
(0.11769 -0.000317725 0.000311003)
(0.115356 -0.000323615 0.000325435)
(0.11454 -0.000385071 0.000298575)
(0.117836 -0.000293676 0.000293015)
(0.115464 -0.000281697 0.000292853)
(0.114644 -0.000340943 0.000273834)
(0.11797 -0.000261393 0.000267453)
(0.114738 -0.00028766 0.00024344)
(0.118089 -0.000221239 0.00023481)
(0.112793 -0.000855393 0.000290508)
(0.111284 -0.000973883 0.000251897)
(0.1152 -0.000829656 0.000233665)
(0.112963 -0.000781789 0.000299712)
(0.111406 -0.000884689 0.000259101)
(0.115419 -0.000758507 0.000238398)
(0.113121 -0.000712551 0.000303417)
(0.111525 -0.000800791 0.000262284)
(0.115624 -0.000692348 0.000240008)
(0.113266 -0.000648136 0.000301675)
(0.11164 -0.00072135 0.000260768)
(0.115814 -0.000629721 0.000238023)
(0.1134 -0.000590417 0.000295568)
(0.111749 -0.000652252 0.000254799)
(0.11599 -0.000572812 0.000232833)
(0.113523 -0.000539179 0.000286787)
(0.111849 -0.000593756 0.000246416)
(0.116152 -0.000522235 0.000225622)
(0.113636 -0.000493548 0.000276834)
(0.111944 -0.000538407 0.000235748)
(0.116302 -0.000476338 0.000217481)
(0.11374 -0.000449944 0.000264498)
(0.112034 -0.000486802 0.000224145)
(0.116441 -0.000435105 0.000209111)
(0.113839 -0.000402284 0.0002471)
(0.11212 -0.000443689 0.000211663)
(0.11657 -0.000395473 0.000198274)
(0.113934 -0.000346889 0.000224474)
(0.112201 -0.000396467 0.000195491)
(0.116691 -0.000349431 0.00018226)
(0.112275 -0.00033037 0.000174023)
(0.116799 -0.000292413 0.000160989)
(0.109955 -0.0010003 0.000221767)
(0.107189 -0.00103546 0.000194823)
(0.112634 -0.00100136 0.000146654)
(0.110031 -0.000901647 0.000222868)
(0.107205 -0.000936653 0.000186577)
(0.112769 -0.000905748 0.000144416)
(0.11011 -0.000808848 0.000220282)
(0.107233 -0.000836306 0.000177104)
(0.112902 -0.000815882 0.000140538)
(0.110188 -0.000725154 0.000214608)
(0.107273 -0.000740255 0.000166372)
(0.113031 -0.000731572 0.000134925)
(0.110265 -0.000654801 0.000207037)
(0.107318 -0.000666355 0.000156108)
(0.113154 -0.000659375 0.000128946)
(0.110339 -0.000592146 0.000197045)
(0.107361 -0.000606068 0.00014601)
(0.11327 -0.000599044 0.000122769)
(0.110412 -0.000531609 0.000184384)
(0.107405 -0.000548769 0.000134284)
(0.113381 -0.000542172 0.000115245)
(0.110482 -0.00048112 0.000172222)
(0.107445 -0.000495478 0.00012189)
(0.113486 -0.000489005 0.000106551)
(0.110551 -0.000438246 0.000160917)
(0.107487 -0.000455171 0.000112537)
(0.113588 -0.000448477 9.92114e-05)
(0.11062 -0.000380597 0.000145554)
(0.107525 -0.000411024 0.000103639)
(0.113682 -0.000402511 9.07002e-05)
(0.107566 -0.000339629 9.04146e-05)
(0.113768 -0.000333239 7.72304e-05)
(0.104682 -0.0010889 0.000172954)
(0.0989482 -0.000999062 0.000120665)
(0.107641 -0.00110968 0.000104519)
(0.104635 -0.000984399 0.000153184)
(0.0988087 -0.000898597 9.12188e-05)
(0.107675 -0.00100147 7.70642e-05)
(0.10461 -0.000883933 0.000135101)
(0.0986924 -0.000813121 6.75252e-05)
(0.107719 -0.000908522 5.52165e-05)
(0.104603 -0.000780784 0.000117976)
(0.0986027 -0.000727139 4.77242e-05)
(0.107772 -0.000813626 3.64584e-05)
(0.104611 -0.000694451 0.000103127)
(0.0985263 -0.000646768 3.19857e-05)
(0.107833 -0.000723041 2.08256e-05)
(0.104624 -0.000629744 9.1004e-05)
(0.0984648 -0.000583398 2.19645e-05)
(0.107895 -0.000654055 9.13144e-06)
(0.104639 -0.000572607 8.06864e-05)
(0.0984124 -0.000529604 1.51689e-05)
(0.107952 -0.000596836 1.01451e-06)
(0.104653 -0.000518995 7.15733e-05)
(0.0983668 -0.000477506 1.08814e-05)
(0.108009 -0.000541934 -3.51415e-06)
(0.104665 -0.000473299 6.36405e-05)
(0.0983226 -0.000430546 7.87482e-06)
(0.108059 -0.000492349 -6.64724e-06)
(0.104678 -0.000431779 5.64575e-05)
(0.0982811 -0.000394094 5.19501e-06)
(0.108109 -0.000453793 -9.98835e-06)
(0.104698 -0.000375174 4.8429e-05)
(0.0982437 -0.000362963 1.36416e-06)
(0.108155 -0.000412279 -1.36688e-05)
(0.0982116 -0.000305409 -1.12515e-06)
(0.1082 -0.00034601 -1.69336e-05)
(0.09369 -0.00080149 6.0198e-05)
(0.0782158 -0.000598405 -6.71847e-05)
(0.0973496 -0.000838276 3.56412e-06)
(0.0934898 -0.000717641 2.83083e-05)
(0.0778605 -0.000540409 -8.67851e-05)
(0.0972398 -0.00075241 -3.86232e-05)
(0.0933173 -0.00064273 4.79406e-06)
(0.0775467 -0.000488558 -9.76309e-05)
(0.0971412 -0.000679033 -6.82756e-05)
(0.0931652 -0.000574127 -1.14499e-05)
(0.07726 -0.000439102 -0.000100127)
(0.0970601 -0.000613399 -8.73025e-05)
(0.0930298 -0.000514333 -2.20232e-05)
(0.0770004 -0.000395009 -9.6965e-05)
(0.0969792 -0.000554451 -9.81678e-05)
(0.0929095 -0.000463136 -2.83334e-05)
(0.0767621 -0.000358615 -9.21474e-05)
(0.0969088 -0.000502426 -0.000104861)
(0.0928019 -0.000416601 -3.13114e-05)
(0.0765535 -0.000325242 -8.58608e-05)
(0.0968426 -0.000455155 -0.000106477)
(0.0927042 -0.000373384 -3.17767e-05)
(0.0763597 -0.000291188 -7.78926e-05)
(0.0967821 -0.000410839 -0.000104067)
(0.0926131 -0.000336712 -3.10088e-05)
(0.0761893 -0.000260251 -6.91954e-05)
(0.0967196 -0.000372337 -9.94629e-05)
(0.0925254 -0.000308608 -2.99707e-05)
(0.0760284 -0.000235027 -6.11577e-05)
(0.0966596 -0.000341279 -9.43401e-05)
(0.092442 -0.000271889 -2.66402e-05)
(0.0758856 -0.000214826 -5.35368e-05)
(0.096602 -0.000316199 -8.90883e-05)
(0.0757574 -0.000186243 -4.50398e-05)
(0.0965488 -0.000266194 -7.74899e-05)
(0.0647137 -0.000372023 -0.000193916)
(0.0699908 -0.00038576 -0.00025221)
(0.0642638 -0.000346858 -0.000197623)
(0.0695403 -0.000365801 -0.000265589)
(0.0638513 -0.000322199 -0.000192738)
(0.0691277 -0.000344047 -0.000265777)
(0.0634748 -0.000299387 -0.000181095)
(0.0687357 -0.000323164 -0.000255793)
(0.0631326 -0.000278435 -0.000166084)
(0.0683793 -0.000302439 -0.000239581)
(0.0628207 -0.000257277 -0.000150346)
(0.0680453 -0.000281296 -0.000220898)
(0.062538 -0.000234072 -0.0001344)
(0.0677487 -0.000257983 -0.000201487)
(0.062284 -0.000210728 -0.000118588)
(0.0674707 -0.000233917 -0.000181343)
(0.0620559 -0.000190181 -0.000103863)
(0.067226 -0.000212029 -0.000161578)
(0.0618488 -0.000172966 -9.07244e-05)
(0.0669961 -0.000193763 -0.000143659)
(0.0616598 -0.000159832 -7.90362e-05)
(0.0667927 -0.000178276 -0.000128276)
(0.0666125 -0.00016799 -0.00011532)
(0.118798 -0.0004409 0.000393996)
(0.118241 -0.000615772 0.000296529)
(0.11909 -0.000411269 0.000372705)
(0.118525 -0.000566942 0.000283737)
(0.11936 -0.000382486 0.000351983)
(0.118789 -0.000521328 0.000271156)
(0.11961 -0.000354431 0.000331473)
(0.119035 -0.000477935 0.00025815)
(0.11984 -0.000327658 0.000311412)
(0.119261 -0.000437541 0.0002447)
(0.120052 -0.000302642 0.000292209)
(0.119471 -0.000400576 0.000231283)
(0.120248 -0.000279511 0.000274128)
(0.119665 -0.000366573 0.000218441)
(0.120429 -0.000257647 0.000256738)
(0.119844 -0.000335436 0.000206293)
(0.120595 -0.000233453 0.000236949)
(0.12001 -0.000306536 0.000194043)
(0.120745 -0.000203289 0.000211556)
(0.120162 -0.000272031 0.00017719)
(0.120297 -0.000228698 0.000154753)
(0.117971 -0.00073982 0.000187704)
(0.11666 -0.000868985 0.000133197)
(0.119045 -0.000656349 0.00010158)
(0.118229 -0.000675256 0.000183482)
(0.116894 -0.000789975 0.000126573)
(0.119339 -0.00060127 9.89357e-05)
(0.118469 -0.000615232 0.00017851)
(0.117114 -0.000716749 0.000120542)
(0.119613 -0.000550163 9.62956e-05)
(0.118691 -0.000559738 0.000172404)
(0.11732 -0.000648548 0.00011441)
(0.119867 -0.000502203 9.32322e-05)
(0.118897 -0.000509408 0.000165407)
(0.117511 -0.000587875 0.000107996)
(0.120102 -0.000458185 8.9618e-05)
(0.119089 -0.000463608 0.000158252)
(0.11769 -0.000534474 0.00010174)
(0.12032 -0.000418148 8.57386e-05)
(0.119266 -0.000421679 0.00015131)
(0.117857 -0.000485026 9.63732e-05)
(0.120522 -0.000381121 8.18946e-05)
(0.119431 -0.00038388 0.000143965)
(0.118013 -0.000440203 9.12528e-05)
(0.120709 -0.000347034 7.80117e-05)
(0.119585 -0.000345329 0.000134023)
(0.118159 -0.000402753 8.51561e-05)
(0.120882 -0.000315579 7.34393e-05)
(0.119725 -0.000298068 0.000119754)
(0.118295 -0.000358501 7.64997e-05)
(0.12104 -0.000279206 6.67863e-05)
(0.118416 -0.000299674 6.5522e-05)
(0.12118 -0.000234962 5.84199e-05)
(0.115624 -0.000916028 7.40403e-05)
(0.113155 -0.000968741 4.0478e-05)
(0.116757 -0.000837395 -2.84238e-05)
(0.115823 -0.00082864 6.58054e-05)
(0.113321 -0.000878094 2.22141e-05)
(0.116999 -0.000763812 -3.35466e-05)
(0.11601 -0.000747565 5.87063e-05)
(0.11348 -0.000793155 8.38479e-06)
(0.117226 -0.00069522 -3.69121e-05)
(0.116185 -0.000674485 5.22915e-05)
(0.11363 -0.000714384 -2.42528e-06)
(0.117438 -0.000631169 -3.90138e-05)
(0.116349 -0.000611013 4.65674e-05)
(0.113772 -0.000647488 -1.12996e-05)
(0.117635 -0.000574292 -4.00098e-05)
(0.116506 -0.00055476 4.15067e-05)
(0.113903 -0.000590179 -1.76203e-05)
(0.117817 -0.00052418 -4.02309e-05)
(0.116652 -0.0005038 3.68087e-05)
(0.114027 -0.000535274 -2.15364e-05)
(0.117988 -0.00047755 -4.08441e-05)
(0.116789 -0.000459892 3.2465e-05)
(0.114144 -0.000486071 -2.43887e-05)
(0.118147 -0.000435384 -4.16346e-05)
(0.116918 -0.000416219 2.81152e-05)
(0.114255 -0.000447626 -2.65657e-05)
(0.118295 -0.000400161 -4.07825e-05)
(0.11704 -0.000360139 2.29727e-05)
(0.114357 -0.000404955 -2.80568e-05)
(0.118432 -0.000358453 -3.7919e-05)
(0.114448 -0.000342627 -2.78689e-05)
(0.118554 -0.000302833 -3.39415e-05)
(0.110863 -0.00103673 1.43187e-05)
(0.105807 -0.000973185 -2.66859e-05)
(0.111997 -0.000949386 -9.17146e-05)
(0.110995 -0.000939365 -1.63054e-05)
(0.105872 -0.000881601 -6.96654e-05)
(0.112188 -0.000869949 -0.00011902)
(0.111126 -0.000851343 -3.98144e-05)
(0.105934 -0.000801199 -0.000100315)
(0.112369 -0.000798863 -0.00013889)
(0.111251 -0.000769273 -5.74705e-05)
(0.105995 -0.000729463 -0.000121666)
(0.112538 -0.000730876 -0.000152781)
(0.111367 -0.000696175 -7.01157e-05)
(0.10605 -0.000663048 -0.000134801)
(0.112695 -0.000666726 -0.000161179)
(0.111477 -0.000633914 -7.82588e-05)
(0.106101 -0.000605202 -0.000141743)
(0.112839 -0.000611547 -0.000163819)
(0.11158 -0.000576392 -8.21295e-05)
(0.106142 -0.000552318 -0.000143084)
(0.112969 -0.000563238 -0.000162623)
(0.111676 -0.000521773 -8.29886e-05)
(0.106181 -0.000502177 -0.000140713)
(0.11309 -0.000516011 -0.000159343)
(0.111766 -0.000476984 -8.29111e-05)
(0.10621 -0.000458194 -0.000136626)
(0.1132 -0.000473909 -0.000155739)
(0.111851 -0.000439038 -8.21206e-05)
(0.10624 -0.000423116 -0.000132265)
(0.113303 -0.000437869 -0.000149759)
(0.111932 -0.000390442 -7.90083e-05)
(0.106262 -0.000389635 -0.000127174)
(0.113397 -0.000399212 -0.000139975)
(0.106284 -0.000335021 -0.00011602)
(0.113481 -0.000345592 -0.000126857)
(0.101258 -0.000808463 -9.05849e-05)
(0.0876824 -0.00063963 -0.00019839)
(0.102642 -0.000746413 -0.000167066)
(0.10126 -0.000731607 -0.000132108)
(0.0874603 -0.000585868 -0.000230323)
(0.102714 -0.000689662 -0.000209523)
(0.101259 -0.000664974 -0.000159269)
(0.0872457 -0.000536832 -0.000245733)
(0.102771 -0.000638349 -0.000236409)
(0.101255 -0.00060617 -0.000174939)
(0.0870415 -0.000493323 -0.000249128)
(0.102816 -0.000591361 -0.000250997)
(0.101248 -0.000554043 -0.000182603)
(0.0868477 -0.000452539 -0.000243867)
(0.102847 -0.000546542 -0.000255491)
(0.101237 -0.000506413 -0.000184192)
(0.0866656 -0.000415111 -0.000234316)
(0.10287 -0.000506029 -0.000253283)
(0.10122 -0.000461151 -0.000180263)
(0.0864969 -0.000377922 -0.000220992)
(0.10288 -0.000466454 -0.000245199)
(0.101198 -0.000420654 -0.000173059)
(0.0863385 -0.000342495 -0.000204636)
(0.102885 -0.000430617 -0.00023345)
(0.101171 -0.000385853 -0.000165003)
(0.0861898 -0.000311365 -0.000187486)
(0.102877 -0.000399156 -0.00022067)
(0.101142 -0.00035519 -0.000156895)
(0.0860497 -0.000285755 -0.00017233)
(0.102867 -0.000371389 -0.000210525)
(0.101115 -0.00031498 -0.000143969)
(0.0859217 -0.00026337 -0.00015916)
(0.102849 -0.000342313 -0.000199422)
(0.0858082 -0.000235006 -0.000144551)
(0.102834 -0.000294818 -0.000176682)
(0.0755195 -0.000421333 -0.000310615)
(0.0780482 -0.000412317 -0.000330276)
(0.0751059 -0.000400098 -0.000323746)
(0.0776799 -0.000406764 -0.000354398)
(0.0747119 -0.000377684 -0.000321473)
(0.0773135 -0.000393683 -0.000358235)
(0.0743406 -0.000354869 -0.000309035)
(0.0769551 -0.000375943 -0.000349407)
(0.0739947 -0.000330609 -0.000290617)
(0.0766132 -0.000355035 -0.000332513)
(0.0736748 -0.000304601 -0.000269185)
(0.0762891 -0.000330617 -0.000311427)
(0.0733808 -0.000278301 -0.000246156)
(0.0759902 -0.00030505 -0.000287687)
(0.0731114 -0.000253734 -0.000222568)
(0.0757093 -0.000280384 -0.000262533)
(0.0728644 -0.000232237 -0.000200093)
(0.0754533 -0.000257689 -0.000237546)
(0.072637 -0.000213886 -0.000180448)
(0.0752133 -0.000236777 -0.000214461)
(0.072428 -0.000199578 -0.000164372)
(0.074998 -0.000217291 -0.000195064)
(0.0748047 -0.000203234 -0.000179965)
(0.120453 -0.000514889 1.06288e-05)
(0.119145 -0.000622817 -6.50927e-05)
(0.120642 -0.000392868 -0.000123074)
(0.120764 -0.000473516 9.49158e-06)
(0.119448 -0.000573565 -6.64345e-05)
(0.120974 -0.000363361 -0.00011479)
(0.121054 -0.000434709 8.72397e-06)
(0.119729 -0.000527395 -6.64629e-05)
(0.121283 -0.000335539 -0.000106496)
(0.121321 -0.00039845 8.15711e-06)
(0.119989 -0.000483858 -6.54203e-05)
(0.121569 -0.000309122 -9.83031e-05)
(0.121569 -0.00036492 7.69155e-06)
(0.12023 -0.000443802 -6.35261e-05)
(0.121833 -0.000284372 -9.04528e-05)
(0.121798 -0.000333926 7.25578e-06)
(0.120452 -0.000407197 -6.11545e-05)
(0.122078 -0.000261392 -8.30943e-05)
(0.12201 -0.000305182 6.78248e-06)
(0.120657 -0.000373254 -5.88587e-05)
(0.122303 -0.000240041 -7.62798e-05)
(0.122206 -0.000278204 6.32325e-06)
(0.120847 -0.000342103 -5.67174e-05)
(0.122512 -0.000220187 -6.99866e-05)
(0.122386 -0.000249974 6.00061e-06)
(0.121023 -0.000313122 -5.36259e-05)
(0.122704 -0.000201106 -6.378e-05)
(0.122547 -0.000217253 5.84539e-06)
(0.121183 -0.0002794 -4.82675e-05)
(0.122878 -0.000178766 -5.63026e-05)
(0.121324 -0.000238247 -4.11864e-05)
(0.12303 -0.000152391 -4.74513e-05)
(0.118177 -0.000679906 -0.000140763)
(0.115704 -0.000723811 -0.000188388)
(0.11834 -0.000557252 -0.000298241)
(0.11845 -0.000625828 -0.000140781)
(0.115961 -0.000671298 -0.000195534)
(0.118633 -0.000519394 -0.000284507)
(0.118704 -0.000574948 -0.000138868)
(0.116199 -0.000620922 -0.000198294)
(0.118905 -0.000483199 -0.000269743)
(0.118937 -0.000527656 -0.000135295)
(0.116416 -0.000572816 -0.000197358)
(0.119155 -0.000448264 -0.000254131)
(0.119153 -0.000484574 -0.000130544)
(0.116615 -0.000528849 -0.000193168)
(0.119386 -0.000415457 -0.000238261)
(0.119352 -0.000445127 -0.000125499)
(0.116796 -0.000488961 -0.000186835)
(0.119598 -0.00038509 -0.000222812)
(0.119535 -0.00040901 -0.000120783)
(0.116962 -0.000452336 -0.000180051)