/*--------------------------------*- C++ -*----------------------------------*\
| =========                 |                                                 |
| \\      /  F ield         | OpenFOAM: The Open Source CFD Toolbox           |
|  \\    /   O peration     | Version:  2212                                  |
|   \\  /    A nd           | Website:  www.openfoam.com                      |
|    \\/     M anipulation  |                                                 |
\*---------------------------------------------------------------------------*/
FoamFile
{
    version     2.0;
    format      ascii;
    arch        "LSB;label=32;scalar=64";
    class       volScalarField;
    location    "3";
    object      epsilon;
}
// * * * * * * * * * * * * * * * * * * * * * * * * * * * * * * * * * * * * * //

dimensions      [0 2 -3 0 0 0 0];

internalField   nonuniform List<scalar> 
6840
(
90.5034
12.1248
4.38869
2.46658
1.63315
1.18306
0.901999
0.720642
0.594555
0.502455
0.432605
0.379174
0.336139
0.299581
0.269741
0.24543
0.225404
0.208785
0.195903
0.181597
58.5856
14.5696
6.08946
3.33294
2.08216
1.40266
0.998637
0.740268
0.565879
0.443896
0.355984
0.290879
0.241345
0.202929
0.173017
0.149711
0.131221
0.116426
0.104835
0.0959548
45.0226
13.4729
5.73075
3.07323
1.86023
1.22699
0.873576
0.649781
0.497016
0.389493
0.311305
0.252997
0.20901
0.175261
0.148898
0.127999
0.111289
0.0978157
0.0869249
0.0783874
38.7028
13.0541
5.74336
3.08734
1.88067
1.22751
0.869486
0.645396
0.492608
0.384801
0.307055
0.249086
0.205035
0.171069
0.144518
0.123496
0.106662
0.0930413
0.0819357
0.0729837
36.0571
12.8529
5.76645
3.10212
1.89476
1.2267
0.866515
0.644003
0.492276
0.383999
0.305847
0.247986
0.204012
0.170073
0.143508
0.122447
0.105549
0.0918485
0.0806806
0.071934
36.0571
12.8529
5.76645
3.10212
1.89476
1.2267
0.866509
0.643994
0.492266
0.383985
0.305826
0.247959
0.203974
0.170019
0.143431
0.122342
0.105406
0.0916611
0.0804792
0.072112
38.7028
13.0541
5.74336
3.08733
1.88066
1.2275
0.869472
0.645377
0.492583
0.384769
0.307007
0.249022
0.204945
0.170939
0.144335
0.123241
0.106302
0.0925405
0.0813283
0.0731816
45.0226
13.4729
5.73075
3.07322
1.86022
1.22698
0.873563
0.649762
0.496992
0.38945
0.31125
0.252924
0.208908
0.175112
0.148676
0.127677
0.110813
0.0971074
0.0859295
0.0772911
58.5856
14.5696
6.08946
3.33294
2.08216
1.40265
0.998635
0.740263
0.565873
0.443882
0.355961
0.290843
0.241288
0.202805
0.172831
0.149421
0.130729
0.115552
0.103339
0.0938924
90.5034
12.1248
4.38869
2.46658
1.63315
1.18306
0.901999
0.720643
0.594556
0.502457
0.432604
0.379179
0.336137
0.29959
0.269743
0.245434
0.22541
0.208794
0.195916
0.181621
58.5856
14.5696
6.08946
3.33294
2.08216
1.40265
0.998634
0.740262
0.565872
0.443881
0.355959
0.290841
0.241285
0.202801
0.172828
0.149418
0.130725
0.115545
0.103329
0.0938803
16.5373
9.49239
5.0127
2.8606
1.75746
1.14759
0.786933
0.562051
0.415369
0.31595
0.246335
0.196226
0.159223
0.131253
0.109773
0.0931974
0.0801547
0.0696398
0.0606731
0.0565686
13.6679
8.73671
5.07741
3.05388
1.92224
1.2661
0.869294
0.618635
0.453966
0.342043
0.263662
0.207326
0.165919
0.134866
0.111155
0.0927044
0.0781829
0.0666435
0.0571706
0.0501503
12.9054
8.33993
5.07879
3.15547
2.02775
1.35121
0.933543
0.666463
0.489553
0.368605
0.283616
0.222402
0.177344
0.143545
0.117754
0.0977843
0.0820985
0.0696296
0.0596006
0.0513492
12.6882
8.1544
5.07113
3.20039
2.07939
1.39506
0.967834
0.692724
0.509641
0.38402
0.295508
0.231653
0.184599
0.149269
0.122292
0.101389
0.0849701
0.0719154
0.0614261
0.052954
12.6882
8.1544
5.07113
3.20038
2.07939
1.39506
0.967831
0.692722
0.509636
0.384015
0.295501
0.231645
0.184588
0.149257
0.122284
0.101374
0.0849509
0.0718933
0.0614019
0.0529248
12.9054
8.33993
5.07879
3.15547
2.02775
1.3512
0.933536
0.666458
0.489544
0.368593
0.283601
0.222383
0.177323
0.143528
0.117735
0.0977527
0.0820611
0.069591
0.0595629
0.0513302
13.6679
8.73671
5.07741
3.05388
1.92223
1.26609
0.869289
0.618631
0.453959
0.342034
0.26365
0.207311
0.165901
0.13485
0.11114
0.0926801
0.0781563
0.066621
0.0571697
0.0501718
16.5373
9.49239
5.0127
2.8606
1.75746
1.14759
0.786932
0.562051
0.415369
0.315949
0.246334
0.196225
0.159222
0.131251
0.109775
0.0931964
0.0801523
0.0696378
0.0606694
0.0565643
58.5856
14.5696
6.08946
3.33294
2.08216
1.40266
0.998638
0.740269
0.56588
0.443897
0.355986
0.290881
0.241347
0.202937
0.173019
0.149712
0.131223
0.11643
0.104842
0.0959666
45.0226
13.4729
5.73075
3.07322
1.86022
1.22698
0.873563
0.649762
0.496991
0.389449
0.31125
0.252923
0.208907
0.175114
0.148673
0.127674
0.11081
0.0971036
0.0859249
0.0772861
13.6679
8.73671
5.07741
3.05388
1.92223
1.26609
0.869289
0.618631
0.45396
0.342034
0.263651
0.207312
0.165902
0.134846
0.111144
0.0926823
0.0781587
0.0666242
0.0571706
0.0501693
11.8601
7.76395
4.99734
3.24076
2.14419
1.45499
1.0141
0.725635
0.532157
0.399151
0.305548
0.238224
0.188827
0.151916
0.123874
0.102241
0.085325
0.0719355
0.0611987
0.0526494
11.6229
7.60535
5.0103
3.34209
2.26848
1.57142
1.11236
0.804589
0.594206
0.44752
0.343214
0.267637
0.211904
0.170124
0.138326
0.113789
0.094606
0.0794327
0.0673007
0.0575338
11.5726
7.56718
5.02065
3.38344
2.32103
1.62326
1.15828
0.843156
0.625691
0.47285
0.363485
0.283854
0.224907
0.18059
0.146789
0.120665
0.100222
0.0840421
0.0710976
0.0606013
11.5726
7.56718
5.02065
3.38344
2.32103
1.62326
1.15828
0.843155
0.625689
0.472847
0.363481
0.28385
0.224902
0.180584
0.146784
0.120657
0.100213
0.0840312
0.0710894
0.0606148
11.6229
7.60535
5.0103
3.34209
2.26848
1.57142
1.11236
0.804587
0.594203
0.447515
0.343208
0.26763
0.211895
0.170116
0.138317
0.113775
0.094589
0.0794137
0.0672832
0.0575221
11.8601
7.76395
4.99734
3.24076
2.14419
1.45499
1.0141
0.725635
0.532157
0.39915
0.305547
0.238223
0.188826
0.151915
0.123875
0.102241
0.0853235
0.0719335
0.0611963
0.0526476
13.6679
8.73671
5.07741
3.05388
1.92224
1.2661
0.869293
0.618635
0.453966
0.342043
0.263661
0.207325
0.165918
0.13486
0.111161
0.0927057
0.0781826
0.0666427
0.0571695
0.0501474
45.0226
13.4729
5.73075
3.07323
1.86023
1.22699
0.873576
0.649781
0.497017
0.389493
0.311305
0.252999
0.209012
0.175264
0.148897
0.127998
0.111289
0.0978157
0.0869255
0.0783887
38.7028
13.0541
5.74336
3.08733
1.88066
1.2275
0.869472
0.645376
0.492582
0.384769
0.307007
0.249022
0.204946
0.170942
0.144332
0.123238
0.1063
0.0925382
0.0813255
0.073178
12.9054
8.33993
5.07879
3.15547
2.02775
1.3512
0.933536
0.666458
0.489544
0.368593
0.283602
0.222383
0.177322
0.14352
0.117741
0.0977551
0.0820624
0.0695923
0.0595642
0.0513314
11.6229
7.60535
5.0103
3.34209
2.26848
1.57142
1.11236
0.804587
0.594203
0.447516
0.343209
0.267631
0.211895
0.170115
0.138319
0.113776
0.0945896
0.0794145
0.067284
0.0575239
11.4933
7.5119
5.02843
3.434
2.3892
1.6928
1.22111
0.896487
0.669456
0.508123
0.391656
0.306286
0.242785
0.194887
0.15828
0.129954
0.107779
0.0902297
0.0761942
0.0648171
11.4757
7.50136
5.04297
3.47002
2.43665
1.74299
1.26863
0.938712
0.705584
0.538336
0.416594
0.326729
0.2595
0.208558
0.169485
0.139169
0.11539
0.0965447
0.0814468
0.0691231
11.4757
7.50136
5.04297
3.47002
2.43665
1.74299
1.26863
0.938712
0.705583
0.538335
0.416593
0.326728
0.259498
0.208556
0.169484
0.139168
0.115388
0.096542
0.0814431
0.0691158
11.4933
7.5119
5.02843
3.434
2.3892
1.6928
1.22111
0.896487
0.669456
0.508122
0.391656
0.306286
0.242784
0.194887
0.15828
0.129954
0.107779
0.0902294
0.0761939
0.064817
11.6229
7.60535
5.0103
3.34209
2.26848
1.57142
1.11236
0.804589
0.594206
0.44752
0.343214
0.267637
0.211903
0.170123
0.138328
0.113789
0.0946051
0.0794315
0.0672994
0.0575313
12.9054
8.33993
5.07879
3.15547
2.02775
1.35121
0.933543
0.666463
0.489553
0.368605
0.283616
0.222401
0.177343
0.143539
0.11776
0.097786
0.0820989
0.0696297
0.0596005
0.0513491
38.7028
13.0541
5.74337
3.08734
1.88067
1.22751
0.869486
0.645397
0.492608
0.384802
0.307056
0.249086
0.205036
0.171071
0.144517
0.123496
0.106662
0.0930413
0.0819356
0.0729837
36.0571
12.8529
5.76645
3.10212
1.89476
1.2267
0.866509
0.643994
0.492265
0.383985
0.305826
0.247959
0.203974
0.170019
0.143431
0.122342
0.105406
0.091661
0.0804792
0.0721109
12.6882
8.1544
5.07113
3.20038
2.07939
1.39506
0.967831
0.692722
0.509636
0.384015
0.295501
0.231644
0.184588
0.149256
0.122286
0.101375
0.0849504
0.0718923
0.0614008
0.0529239
11.5726
7.56718
5.02065
3.38344
2.32103
1.62326
1.15828
0.843155
0.625689
0.472847
0.363481
0.28385
0.224901
0.180584
0.146785
0.120658
0.100213
0.084031
0.0710892
0.0606152
11.4757
7.50136
5.04297
3.47002
2.43665
1.74299
1.26863
0.938712
0.705583
0.538335
0.416593
0.326728
0.259498
0.208556
0.169484
0.139168
0.115388
0.0965421
0.0814431
0.0691164
11.4647
7.49683
5.0577
3.50272
2.48038
1.79068
1.31522
0.981305
0.742925
0.57021
0.443351
0.348968
0.277889
0.223736
0.18202
0.149545
0.124007
0.103728
0.0874451
0.0740801
11.4647
7.49683
5.0577
3.50272
2.48038
1.79068
1.31522
0.981305
0.742925
0.57021
0.443351
0.348968
0.277889
0.223736
0.18202
0.149545
0.124007
0.103728
0.087445
0.0740805
11.4757
7.50136
5.04297
3.47002
2.43665
1.74299
1.26863
0.938712
0.705584
0.538336
0.416594
0.326729
0.259499
0.208558
0.169485
0.139169
0.11539
0.0965447
0.0814469
0.0691265
11.5726
7.56718
5.02065
3.38344
2.32103
1.62326
1.15828
0.843156
0.625691
0.47285
0.363485
0.283854
0.224907
0.180589
0.14679
0.120665
0.100222
0.0840418
0.0710975
0.0606026
12.6882
8.1544
5.07113
3.20039
2.07939
1.39506
0.967834
0.692724
0.509641
0.38402
0.295508
0.231653
0.184599
0.149266
0.122293
0.10139
0.0849704
0.0719156
0.0614264
0.0529543
36.0571
12.8529
5.76645
3.10212
1.89476
1.2267
0.866515
0.644003
0.492277
0.384
0.305847
0.247987
0.204011
0.170073
0.14351
0.122448
0.10555
0.0918498
0.0806822
0.0719393
36.0571
12.8529
5.76645
3.10212
1.89476
1.2267
0.866515
0.644003
0.492276
0.383999
0.305846
0.247987
0.204012
0.170073
0.143508
0.122447
0.10555
0.0918498
0.0806826
0.0719352
12.6882
8.1544
5.07113
3.20039
2.07939
1.39506
0.967834
0.692724
0.509641
0.38402
0.295508
0.231653
0.184598
0.149267
0.122293
0.101389
0.0849689
0.0719135
0.0614236
0.0529515
11.5726
7.56718
5.02065
3.38344
2.32103
1.62326
1.15828
0.843156
0.625691
0.47285
0.363485
0.283854
0.224906
0.18059
0.14679
0.120665
0.100222
0.0840413
0.0710968
0.0606017
11.4757
7.50136
5.04297
3.47002
2.43665
1.74299
1.26863
0.938712
0.705584
0.538336
0.416594
0.326729
0.2595
0.208558
0.169485
0.139169
0.11539
0.0965446
0.0814467
0.0691227
11.4647
7.49683
5.0577
3.50272
2.48038
1.79068
1.31522
0.981305
0.742925
0.57021
0.443351
0.348968
0.277889
0.223736
0.18202
0.149545
0.124007
0.103728
0.0874451
0.074081
11.4647
7.49683
5.0577
3.50272
2.48038
1.79068
1.31522
0.981305
0.742925
0.57021
0.443351
0.348968
0.277889
0.223736
0.18202
0.149545
0.124007
0.103728
0.0874449
0.0740805
11.4757
7.50136
5.04297
3.47002
2.43665
1.74299
1.26863
0.938712
0.705583
0.538335
0.416593
0.326728
0.259498
0.208556
0.169484
0.139168
0.115388
0.0965423
0.0814435
0.0691193
11.5726
7.56718
5.02065
3.38344
2.32103
1.62326
1.15828
0.843155
0.625689
0.472847
0.363481
0.28385
0.224902
0.180585
0.146783
0.120657
0.100213
0.084032
0.0710905
0.0606179
12.6882
8.1544
5.07113
3.20038
2.07939
1.39506
0.967831
0.692722
0.509636
0.384015
0.295502
0.231645
0.184589
0.14926
0.12228
0.101373
0.0849505
0.0718931
0.061402
0.0529255
36.0571
12.8529
5.76645
3.10212
1.89476
1.2267
0.866509
0.643994
0.492266
0.383985
0.305826
0.247959
0.203973
0.170017
0.143434
0.122345
0.105409
0.0916634
0.0804814
0.072116
38.7028
13.0541
5.74336
3.08734
1.88067
1.22751
0.869486
0.645396
0.492608
0.384801
0.307055
0.249086
0.205035
0.171069
0.144518
0.123497
0.106663
0.0930432
0.0819385
0.0729866
12.9054
8.33993
5.07879
3.15547
2.02775
1.35121
0.933543
0.666463
0.489553
0.368605
0.283616
0.222401
0.177344
0.143545
0.117754
0.0977837
0.0820975
0.0696283
0.0595989
0.0513486
11.6229
7.60535
5.0103
3.34209
2.26848
1.57142
1.11236
0.804589
0.594206
0.44752
0.343214
0.267637
0.211903
0.170124
0.138326
0.113788
0.0946054
0.079432
0.0673
0.057533
11.4933
7.5119
5.02843
3.434
2.3892
1.6928
1.22111
0.896487
0.669456
0.508122
0.391656
0.306286
0.242785
0.194887
0.15828
0.129954
0.107779
0.0902297
0.076194
0.0648159
11.4757
7.50136
5.04297
3.47002
2.43665
1.74299
1.26863
0.938712
0.705583
0.538335
0.416593
0.326728
0.259499
0.208556
0.169484
0.139168
0.115388
0.0965422
0.0814432
0.0691174
11.4757
7.50136
5.04297
3.47002
2.43665
1.74299
1.26863
0.938712
0.705584
0.538336
0.416594
0.326729
0.2595
0.208558
0.169485
0.13917
0.115391
0.0965448
0.0814466
0.0691231
11.4933
7.5119
5.02843
3.434
2.3892
1.6928
1.22111
0.896487
0.669456
0.508122
0.391656
0.306286
0.242784
0.194887
0.15828
0.129954
0.107779
0.0902297
0.0761941
0.064817
11.6229
7.60535
5.0103
3.34209
2.26848
1.57142
1.11236
0.804587
0.594203
0.447516
0.343209
0.267631
0.211896
0.170116
0.138317
0.113776
0.0945898
0.0794148
0.0672842
0.0575225
12.9054
8.33993
5.07879
3.15547
2.02775
1.3512
0.933537
0.666457
0.489544
0.368593
0.283601
0.222383
0.177323
0.143527
0.117734
0.0977526
0.082061
0.0695909
0.0595629
0.0513287
38.7028
13.0541
5.74336
3.08733
1.88066
1.2275
0.869471
0.645377
0.492583
0.384769
0.307008
0.249022
0.204945
0.170939
0.144336
0.123242
0.106303
0.092542
0.0813294
0.0731825
45.0226
13.4729
5.73075
3.07323
1.86023
1.22699
0.873576
0.649781
0.497016
0.389493
0.311305
0.252998
0.209011
0.175261
0.148898
0.128
0.111291
0.0978177
0.0869275
0.0783931
13.6679
8.73671
5.07741
3.05388
1.92224
1.2661
0.869294
0.618635
0.453966
0.342043
0.263662
0.207326
0.165919
0.134866
0.111154
0.0927038
0.0781825
0.066643
0.0571734
0.0501505
11.8601
7.76395
4.99734
3.24076
2.14419
1.45499
1.0141
0.725635
0.532157
0.399151
0.305548
0.238224
0.188827
0.151917
0.123873
0.102241
0.0853248
0.0719354
0.0611983
0.0526474
11.6229
7.60535
5.0103
3.34209
2.26848
1.57142
1.11236
0.804587
0.594203
0.447516
0.343209
0.267631
0.211896
0.170115
0.138318
0.113776
0.0945899
0.0794151
0.0672845
0.0575229
11.5726
7.56718
5.02065
3.38344
2.32103
1.62326
1.15828
0.843155
0.625689
0.472847
0.363482
0.28385
0.224902
0.180585
0.146785
0.120658
0.100213
0.084032
0.0710904
0.0606157
11.5726
7.56718
5.02065
3.38344
2.32103
1.62326
1.15828
0.843156
0.625691
0.47285
0.363485
0.283854
0.224907
0.18059
0.14679
0.120666
0.100222
0.0840418
0.0710974
0.0606008
11.6229
7.60535
5.0103
3.34209
2.26848
1.57142
1.11236
0.804589
0.594206
0.44752
0.343214
0.267637
0.211903
0.170123
0.138328
0.113789
0.0946052
0.0794316
0.0672994
0.0575319
11.8601
7.76395
4.99734
3.24076
2.14419
1.45499
1.0141
0.725635
0.532157
0.399151
0.305547
0.238224
0.188826
0.151915
0.123875
0.102241
0.0853243
0.0719343
0.0611972
0.0526451
13.6679
8.73671
5.07741
3.05388
1.92223
1.26609
0.86929
0.618631
0.453959
0.342034
0.26365
0.207311
0.165902
0.13485
0.11114
0.0926803
0.0781566
0.0666214
0.0571713
0.0501336
45.0226
13.4729
5.73075
3.07322
1.86022
1.22698
0.873563
0.649762
0.496992
0.38945
0.311251
0.252924
0.208908
0.175113
0.148677
0.127678
0.110814
0.0971083
0.0859305
0.0772974
58.5856
14.5696
6.08946
3.33294
2.08216
1.40266
0.998637
0.740268
0.565879
0.443896
0.355984
0.290879
0.241345
0.202929
0.173018
0.149712
0.131222
0.116429
0.104839
0.0959613
16.5373
9.49239
5.0127
2.8606
1.75746
1.14759
0.786933
0.562051
0.415369
0.31595
0.246335
0.196226
0.159224
0.131254
0.109773
0.0931981
0.0801561
0.0696419
0.0606764
0.0565704
13.6679
8.73671
5.07741
3.05388
1.92223
1.26609
0.869289
0.618631
0.45396
0.342034
0.263651
0.207312
0.165903
0.134847
0.111144
0.0926828
0.0781595
0.0666254
0.0571716
0.0501726
12.9054
8.33993
5.07879
3.15547
2.02775
1.3512
0.933536
0.666458
0.489545
0.368593
0.283602
0.222384
0.177323
0.143521
0.117742
0.0977554
0.0820627
0.0695926
0.0595645
0.0513319
12.6882
8.1544
5.07113
3.20038
2.07939
1.39506
0.967831
0.692722
0.509636
0.384015
0.295501
0.231644
0.184588
0.149255
0.122286
0.101375
0.0849505
0.0718923
0.0614009
0.0529238
12.6882
8.1544
5.07113
3.20039
2.07939
1.39506
0.967834
0.692725
0.509641
0.38402
0.295508
0.231653
0.184598
0.149267
0.122294
0.101389
0.0849688
0.0719134
0.0614236
0.0529509
12.9054
8.33993
5.07879
3.15547
2.02775
1.35121
0.933541
0.666464
0.489554
0.368605
0.283616
0.222401
0.177343
0.143539
0.11776
0.0977854
0.082098
0.0696286
0.0595991
0.0513488
13.6679
8.73671
5.07741
3.05388
1.92224
1.2661
0.869293
0.618636
0.453966
0.342043
0.263662
0.207326
0.165919
0.134859
0.111161
0.0927062
0.0781834
0.0666434
0.0571736
0.050148
16.5373
9.49239
5.0127
2.8606
1.75746
1.14759
0.786933
0.562051
0.41537
0.31595
0.246335
0.196226
0.159223
0.131251
0.109776
0.0931981
0.0801547
0.0696404
0.0606739
0.0565625
58.5856
14.5696
6.08946
3.33294
2.08216
1.40265
0.998635
0.740262
0.565872
0.443881
0.355961
0.290842
0.241287
0.202804
0.17283
0.14942
0.130728
0.11555
0.103334
0.093895
90.5034
12.1248
4.38869
2.46658
1.63315
1.18306
0.901999
0.720642
0.594555
0.502455
0.432605
0.379174
0.336139
0.299581
0.269741
0.24543
0.225404
0.208786
0.195907
0.181598
58.5856
14.5696
6.08946
3.33294
2.08216
1.40265
0.998633
0.740262
0.565872
0.44388
0.355959
0.290841
0.241284
0.202799
0.172827
0.149417
0.130723
0.115542
0.103324
0.0938709
45.0226
13.4729
5.73075
3.07322
1.86022
1.22698
0.873563
0.649762
0.496991
0.389449
0.311249
0.252923
0.208907
0.175113
0.148673
0.127673
0.110809
0.0971025
0.085923
0.0772828
38.7028
13.0541
5.74336
3.08733
1.88066
1.2275
0.869472
0.645376
0.492582
0.384769
0.307007
0.249022
0.204946
0.170942
0.144332
0.123238
0.1063
0.0925381
0.0813251
0.0731793
36.0571
12.8529
5.76645
3.10212
1.89476
1.2267
0.866509
0.643994
0.492265
0.383985
0.305826
0.247959
0.203974
0.17002
0.143431
0.122342
0.105407
0.0916617
0.0804801
0.0721141
36.0571
12.8529
5.76645
3.10212
1.89476
1.2267
0.866515
0.644003
0.492277
0.384
0.305847
0.247987
0.204012
0.170074
0.143509
0.122448
0.10555
0.0918505
0.0806837
0.0719385
38.7028
13.0541
5.74337
3.08734
1.88067
1.22751
0.869487
0.645396
0.492608
0.384802
0.307055
0.249086
0.205036
0.171071
0.144517
0.123496
0.106663
0.093043
0.0819385
0.0729875
45.0226
13.4729
5.73075
3.07323
1.86023
1.22699
0.873577
0.649781
0.497016
0.389493
0.311305
0.252998
0.209012
0.175264
0.148897
0.127999
0.111289
0.0978164
0.0869264
0.07839
58.5856
14.5696
6.08946
3.33294
2.08216
1.40266
0.998639
0.740268
0.565879
0.443897
0.355985
0.29088
0.241346
0.202936
0.173018
0.149711
0.131222
0.116429
0.104839
0.0959705
90.5034
12.1248
4.38869
2.46658
1.63315
1.18306
0.901999
0.720643
0.594555
0.502457
0.432603
0.379179
0.336136
0.299589
0.269742
0.245432
0.225407
0.208791
0.195913
0.181616
0.246052
0.215142
0.189603
0.174103
0.163934
0.157037
0.151406
0.14623
0.141437
0.137397
0.133679
0.130361
0.126851
0.123407
0.120231
0.117131
0.114299
0.111549
0.108996
0.106572
0.104197
0.101895
0.0997464
0.097574
0.0957033
0.0938382
0.0920609
0.0903396
0.0887163
0.087076
0.0856081
0.0841578
0.0827917
0.0814951
0.0802339
0.0790637
0.0779823
0.0769389
0.0760908
0.0745899
0.102077
0.0879967
0.0792217
0.0734309
0.0689874
0.0656307
0.0627373
0.0599825
0.0573329
0.0550637
0.0530256
0.0513303
0.0496071
0.0480047
0.0464702
0.0449986
0.0436655
0.0424235
0.0412755
0.0402105
0.0391909
0.038213
0.0373051
0.0364289
0.0356377
0.0349059
0.0342027
0.0335289
0.0328789
0.0322441
0.0316452
0.0310752
0.0305328
0.030016
0.0295253
0.0290617
0.0286269
0.0282137
0.0278338
0.0274074
0.0827623
0.0719482
0.0635914
0.0578739
0.0535583
0.0499958
0.0469774
0.0443815
0.0421112
0.0400575
0.0382222
0.0365777
0.0351195
0.0338829
0.0325851
0.0313948
0.0303407
0.0293738
0.0284858
0.0276457
0.0268511
0.0260607
0.0253238
0.0246654
0.024074
0.0235248
0.0229942
0.0224871
0.0220042
0.0215413
0.0211021
0.0206765
0.0202764
0.0198965
0.0195396
0.0192033
0.0188857
0.0185813
0.0182945
0.0180011
0.0721468
0.0638918
0.0574176
0.0522455
0.0479495
0.0443639
0.0413098
0.0386506
0.0363138
0.0342481
0.0324097
0.0307587
0.0292492
0.0279366
0.0267474
0.0256628
0.0246705
0.0237766
0.0229299
0.0220884
0.0213269
0.020648
0.0200026
0.0193992
0.0188444
0.0183336
0.0178557
0.0174108
0.0169882
0.0165899
0.016218
0.0158499
0.0155071
0.0151829
0.0148848
0.0146052
0.0143419
0.0140914
0.0138534
0.0136095
0.067218
0.0604957
0.0547421
0.0498367
0.0456435
0.0420423
0.0389527
0.0362654
0.0338923
0.0317866
0.02991
0.028225
0.0266941
0.0253547
0.0241453
0.0230577
0.0220751
0.0211759
0.0203499
0.0195942
0.0189024
0.0182722
0.01763
0.0170465
0.0165221
0.016035
0.0155856
0.0151679
0.0147758
0.0144133
0.0140778
0.0137454
0.0134417
0.0131508
0.0128799
0.0126241
0.0123834
0.0121564
0.0119442
0.0117479
0.068059
0.0609423
0.0549171
0.0498019
0.0454273
0.0416624
0.0384161
0.0356103
0.0331383
0.0309424
0.0289901
0.0272476
0.0256773
0.0242969
0.0230573
0.0219417
0.0209363
0.020037
0.0192254
0.018488
0.0178173
0.0172089
0.0166369
0.0161478
0.0156273
0.0151243
0.0146715
0.0142616
0.0138904
0.0135506
0.0132322
0.0129383
0.012653
0.0123706
0.0121001
0.0118656
0.0116409
0.011436
0.0112429
0.0110607
0.0717344
0.0636317
0.0568978
0.0512788
0.0465041
0.0424128
0.0389129
0.0358998
0.0332852
0.0310026
0.0290024
0.0272412
0.0256771
0.0243026
0.0230758
0.021977
0.0209908
0.0201041
0.0193085
0.0185899
0.0179422
0.0173433
0.0167785
0.0162815
0.0157548
0.0152672
0.0148314
0.014434
0.0140693
0.0137198
0.0133966
0.0131021
0.0128097
0.0125287
0.0122822
0.0120544
0.0118428
0.0116333
0.0114327
0.0112436
0.0775485
0.0678448
0.0598662
0.053658
0.0484201
0.0440115
0.0403511
0.0372825
0.034682
0.0324393
0.0304911
0.028775
0.027243
0.0258871
0.0246737
0.0235829
0.0226052
0.0217228
0.0209234
0.0201941
0.0195482
0.0189071
0.0183081
0.0177472
0.0172504
0.0167735
0.0163355
0.0159255
0.0155183
0.0151211
0.0147721
0.0144659
0.014179
0.0138987
0.013632
0.013379
0.0131384
0.0129047
0.0126828
0.0124707
0.0882227
0.0765185
0.0661501
0.0587939
0.0530799
0.0485757
0.0449786
0.0420787
0.0395654
0.0373601
0.0354302
0.0337038
0.0321991
0.030829
0.0296175
0.0283779
0.0272665
0.026312
0.0254272
0.0246209
0.0238702
0.0231629
0.0225166
0.02187
0.0212939
0.0207343
0.0202235
0.0197441
0.0193039
0.0188796
0.0184937
0.0181305
0.017789
0.0174626
0.0171553
0.0168655
0.0165836
0.0163079
0.0160493
0.0157953
0.114226
0.0986108
0.0852636
0.076026
0.0695706
0.0649325
0.0613113
0.0581861
0.0553023
0.0528221
0.0507875
0.0489394
0.0472185
0.0453462
0.0437007
0.0421816
0.0407885
0.0395176
0.0383339
0.0372473
0.0362253
0.0352719
0.0343957
0.0335224
0.032748
0.0320228
0.031339
0.0306891
0.0300736
0.0294709
0.0289212
0.028402
0.0279107
0.0274455
0.0270061
0.026591
0.0261924
0.0258162
0.0254797
0.0251059
0.246006
0.215046
0.189648
0.174006
0.164061
0.157402
0.151848
0.146671
0.141779
0.13749
0.133853
0.130244
0.126691
0.123214
0.119979
0.11693
0.114076
0.111355
0.108808
0.10638
0.104025
0.101731
0.099621
0.0974618
0.0956164
0.0937462
0.0919947
0.0902854
0.0886811
0.0870719
0.0856116
0.0841751
0.0828262
0.0815414
0.0803193
0.0791731
0.0780681
0.0770308
0.0761681
0.0746562
0.11425
0.0986461
0.0852146
0.0761176
0.0695317
0.0647542
0.0610949
0.0579349
0.05509
0.052725
0.0506541
0.0489617
0.0472921
0.0454253
0.043818
0.0422857
0.0409162
0.0396287
0.0384494
0.0373541
0.0363262
0.0353646
0.0344772
0.0335851
0.0327992
0.0320697
0.0313793
0.0307226
0.0301007
0.0294826
0.0289267
0.0284023
0.0279065
0.0274327
0.0269788
0.0265552
0.0261585
0.0257838
0.0254503
0.0250796
0.0611293
0.052836
0.0445183
0.038514
0.0354675
0.0319596
0.0295198
0.0275846
0.025939
0.0245019
0.0232227
0.0218951
0.0212734
0.0200695
0.0190316
0.0182186
0.0174132
0.0167311
0.0160967
0.0155047
0.0149521
0.0144852
0.0140002
0.0138457
0.0133968
0.0130272
0.0127034
0.0124091
0.012086
0.0119576
0.0116248
0.011361
0.011122
0.0108587
0.0107379
0.0104675
0.0102636
0.01006
0.00986459
0.00962979
0.0496587
0.0431673
0.0367666
0.0320906
0.028725
0.0261289
0.0239534
0.0220662
0.0204275
0.0190136
0.017723
0.0166888
0.0156171
0.014906
0.0139072
0.0133658
0.0125746
0.0121318
0.0115047
0.011109
0.0106589
0.0101599
0.00983912
0.00946188
0.00921661
0.00886026
0.00859832
0.00835841
0.00807697
0.00792247
0.00766288
0.00749028
0.00725575
0.00711933
0.0069199
0.00675384
0.00658546
0.00648581
0.00629341
0.00613803
0.0468966
0.0412425
0.0356572
0.0312133
0.0275257
0.0245482
0.0223442
0.0204976
0.0188655
0.0174263
0.0161568
0.0150388
0.0140749
0.0131665
0.0123668
0.0116679
0.0110339
0.010462
0.00996852
0.00944578
0.00910083
0.00857151
0.00828001
0.00786707
0.00765562
0.00730426
0.00711764
0.00681496
0.00664146
0.00639005
0.00624345
0.00607153
0.00585341
0.00574388
0.00555644
0.00542
0.00530576
0.00521411
0.00502832
0.00489649
0.0464329
0.0404381
0.0354221
0.0312311
0.0277295
0.0247657
0.0220135
0.0198867
0.0182789
0.0168414
0.0155565
0.0144132
0.0134108
0.0124933
0.0116822
0.0109604
0.0103149
0.00973552
0.0092137
0.00874056
0.00831351
0.00792402
0.00757258
0.0072583
0.00694784
0.00668474
0.00640888
0.00618796
0.005952
0.00576246
0.00558114
0.00544557
0.0052303
0.00512231
0.00494027
0.00482128
0.00472282
0.00461693
0.00446792
0.00433703
0.0455402
0.0400163
0.0352504
0.0311735
0.0277075
0.0247591
0.0221322
0.0197511
0.0179745
0.0165726
0.0152972
0.0141503
0.0131308
0.0122087
0.0113894
0.0106603
0.0100088
0.00942487
0.00889994
0.00842687
0.00799933
0.0076125
0.00726538
0.00695586
0.0066514
0.00637557
0.00611688
0.00589341
0.00567034
0.00548295
0.00530549
0.00513973
0.00498793
0.00485053
0.00470824
0.00457874
0.00447014
0.00435365
0.00422332
0.00408941
0.0464706
0.0402502
0.0352289
0.0310292
0.0275144
0.0245241
0.0217971
0.0195623
0.0179075
0.0164807
0.0152001
0.0140595
0.0130531
0.0121463
0.011343
0.010627
0.00998617
0.00941033
0.00889186
0.00842276
0.00799913
0.00761499
0.00726803
0.00696455
0.00666177
0.00639784
0.00612789
0.00592006
0.00564365
0.00551472
0.00527509
0.00512598
0.00497885
0.00483612
0.00468168
0.00455844
0.0044431
0.00432514
0.00419632
0.00406576
0.0500637
0.0415663
0.0355506
0.0308141
0.0271304
0.0240917
0.0216914
0.0198294
0.0182035
0.0167801
0.0155287
0.0144332
0.013459
0.0125802
0.011799
0.0110972
0.0104686
0.00989107
0.00938113
0.00890105
0.00847862
0.00808822
0.00771037
0.00748416
0.00706004
0.00684342
0.00649382
0.00632913
0.006027
0.00593392
0.00564736
0.00550803
0.00534004
0.00520929
0.00499155
0.00487731
0.00472904
0.00461133
0.0044854
0.00434614
0.053586
0.0430744
0.0363385
0.0317527
0.0281908
0.0254627
0.0232081
0.0213132
0.0196912
0.0182972
0.0170662
0.0160537
0.0150037
0.0141184
0.013318
0.0125567
0.0119973
0.0112273
0.0108188
0.0101891
0.00986197
0.00933049
0.00901101
0.00865567
0.00833974
0.00810348
0.0077438
0.00757749
0.00725968
0.00717323
0.00687051
0.0067109
0.00650736
0.00637371
0.00616018
0.00600412
0.00588732
0.00569136
0.00556799
0.00542758
0.0611453
0.0528704
0.044548
0.038823
0.0347312
0.031693
0.0293776
0.0274984
0.0258787
0.0245093
0.0230533
0.0224364
0.0210888
0.0200603
0.0190872
0.0182639
0.017476
0.0167904
0.0161559
0.0155719
0.0150026
0.0145431
0.014047
0.0138915
0.0134177
0.0130752
0.0127288
0.012453
0.0121259
0.0119792
0.0116543
0.0113956
0.0111484
0.0109176
0.010693
0.0104434
0.0103466
0.0100817
0.00990465
0.00967605
0.102041
0.0879991
0.079261
0.0733989
0.0691336
0.065838
0.0629209
0.0601815
0.0575039
0.0551264
0.053173
0.0513097
0.0495691
0.0479632
0.0464102
0.0449369
0.0436053
0.0423641
0.0412287
0.0401588
0.0391497
0.0381707
0.037271
0.0363981
0.0356152
0.0348841
0.0341832
0.0335136
0.0328679
0.03224
0.0316475
0.0310824
0.0305445
0.0300343
0.0295524
0.0290949
0.0286625
0.0282477
0.0278664
0.0274369
0.0882137
0.0765151
0.0661083
0.0588804
0.0531314
0.0485666
0.0449392
0.0420113
0.039511
0.0373305
0.0354132
0.0337259
0.0322336
0.0308616
0.0296757
0.0284272
0.0273517
0.0263702
0.0255064
0.0246874
0.0239356
0.0232301
0.0225794
0.0219272
0.0213345
0.0207746
0.0202566
0.0197723
0.0193265
0.0188919
0.0184996
0.0181313
0.0177852
0.0174539
0.0171436
0.0168466
0.0165592
0.0162804
0.0160204
0.0157654
0.0536232
0.0429108
0.0363332
0.0319097
0.0281687
0.0253997
0.0231419
0.0212535
0.0196408
0.0182602
0.0170241
0.015945
0.0150329
0.0141597
0.0132074
0.0126282
0.011766
0.0113215
0.0106304
0.0102574
0.00975003
0.00929277
0.00897425
0.00862087
0.00837846
0.00802647
0.00772477
0.0075493
0.00723952
0.00716689
0.00685848
0.00669908
0.0064916
0.0063648
0.00612715
0.00603695
0.00583555
0.00570906
0.00556241
0.00542267
0.0455517
0.0395602
0.0344062
0.0300978
0.0265277
0.02361
0.0211879
0.0191471
0.0174068
0.0159097
0.014608
0.0134695
0.0124974
0.0115932
0.0107897
0.0100657
0.00938613
0.00879974
0.00829976
0.00789617
0.00749718
0.00709346
0.00676873
0.00640248
0.00615274
0.00586049
0.00557935
0.00539834
0.00514752
0.00502927
0.00480972
0.00467437
0.00448219
0.00438593
0.00419624
0.00410655
0.00400892
0.00392811
0.00375914
0.00364399
0.0479524
0.0415691
0.0361826
0.0316585
0.0278771
0.0247114
0.022055
0.0198035
0.0178766
0.0162149
0.0147734
0.0135141
0.0124146
0.0114365
0.0105719
0.00980223
0.00911688
0.00849811
0.00794752
0.00745429
0.00701385
0.00660424
0.00621797
0.00582026
0.00556906
0.00532584
0.00510196
0.00485902
0.0046812
0.00445111
0.00430377
0.00414131
0.00399237
0.00389796
0.00370227
0.00364363
0.00355684
0.00346024
0.00334968
0.00324011
0.0494944
0.0430245
0.0375502
0.0329293
0.0290282
0.025718
0.0228882
0.0204784
0.0184292
0.0166651
0.0151343
0.0137986
0.0126245
0.0115948
0.0106843
0.00987618
0.00915673
0.00851352
0.00793674
0.00741824
0.00695021
0.00653124
0.00613759
0.00579597
0.00547976
0.00519912
0.00489686
0.00464393
0.00447287
0.00433252
0.0041629
0.00400907
0.00386857
0.00374822
0.00359663
0.00352776
0.00343698
0.00333471
0.00322937
0.00312877
0.0502349
0.0436075
0.0380628
0.0333905
0.0294362
0.0260743
0.0231959
0.0207194
0.0186071
0.0168011
0.0152398
0.0138794
0.0126847
0.0116371
0.0107118
0.0098913
0.00916051
0.00850753
0.00792294
0.00739825
0.00692547
0.00650176
0.00610774
0.00577041
0.00545175
0.00515931
0.0048898
0.00464785
0.00437637
0.00425231
0.00409798
0.00395267
0.00381655
0.00369751
0.00355709
0.00349589
0.00340393
0.00329997
0.00319292
0.00308952
0.0499832
0.0431396
0.0375347
0.0328676
0.0289444
0.0256189
0.0227794
0.0203562
0.0182925
0.0165224
0.0149942
0.0136657
0.0125021
0.0114804
0.010579
0.00977962
0.00906833
0.00843236
0.0078611
0.00734837
0.00688534
0.00646915
0.00608184
0.00575109
0.00543174
0.00513998
0.00488148
0.00462388
0.00438938