/*--------------------------------*- C++ -*----------------------------------*\
| =========                 |                                                 |
| \\      /  F ield         | OpenFOAM: The Open Source CFD Toolbox           |
|  \\    /   O peration     | Version:  2212                                  |
|   \\  /    A nd           | Website:  www.openfoam.com                      |
|    \\/     M anipulation  |                                                 |
\*---------------------------------------------------------------------------*/
FoamFile
{
    version     2.0;
    format      ascii;
    arch        "LSB;label=32;scalar=64";
    class       volScalarField;
    location    "3";
    object      k;
}
// * * * * * * * * * * * * * * * * * * * * * * * * * * * * * * * * * * * * * //

dimensions      [0 2 -2 0 0 0 0];

internalField   nonuniform List<scalar> 
6840
(
0.213564
0.055916
0.0283994
0.0193411
0.0146927
0.011851
0.0098906
0.00851592
0.00749111
0.006696
0.00606006
0.00555018
0.00512179
0.00474324
0.00442266
0.00415246
0.00392274
0.00372623
0.00356658
0.00338924
0.264759
0.104702
0.0585298
0.039163
0.0286198
0.0219933
0.0175359
0.0143631
0.012008
0.0102136
0.00881607
0.00770538
0.00680362
0.0060609
0.00544948
0.00494808
0.00453115
0.00418241
0.0038962
0.00366704
0.283364
0.126774
0.071702
0.0473282
0.0338663
0.0256616
0.0204608
0.0167971
0.0140487
0.0119414
0.0102844
0.00895631
0.00788546
0.00701185
0.00628963
0.00568616
0.00517944
0.00475186
0.00439177
0.00410224
0.292299
0.141633
0.0819302
0.0541654
0.0389231
0.0292875
0.0232724
0.0190788
0.0159343
0.0135152
0.0116272
0.0101134
0.00888274
0.00787239
0.00703509
0.00633504
0.00574524
0.00524487
0.00481843
0.00446045
0.295943
0.148782
0.0871941
0.057675
0.0415194
0.0310723
0.0246452
0.0202212
0.0169052
0.0143252
0.0123089
0.0107029
0.00939694
0.00832354
0.00743257
0.00668635
0.00605617
0.00552012
0.00506306
0.00468985
0.295943
0.148782
0.0871941
0.0576749
0.0415194
0.0310723
0.0246451
0.020221
0.016905
0.0143249
0.0123084
0.0107022
0.0093959
0.00832194
0.00743012
0.00668286
0.00605121
0.00551329
0.00505539
0.00469616
0.292299
0.141633
0.0819301
0.0541654
0.038923
0.0292874
0.0232722
0.0190784
0.0159338
0.0135145
0.0116261
0.0101118
0.0088804
0.00786876
0.00702968
0.00632712
0.00573353
0.00522782
0.00479705
0.00446914
0.283364
0.126774
0.0717019
0.0473281
0.0338662
0.0256615
0.0204607
0.0167968
0.0140483
0.0119406
0.0102833
0.00895476
0.00788314
0.00700826
0.00628397
0.00567755
0.00516619
0.00473143
0.00436189
0.00406592
0.264759
0.104702
0.0585298
0.039163
0.0286198
0.0219933
0.0175359
0.0143631
0.012008
0.0102134
0.00881573
0.0077048
0.00680266
0.00605864
0.00544593
0.00494235
0.00452113
0.00416426
0.00386571
0.0036278
0.213564
0.055916
0.0283994
0.0193411
0.0146927
0.011851
0.0098906
0.00851593
0.00749111
0.00669602
0.00606006
0.00555022
0.00512177
0.00474333
0.00442268
0.0041525
0.00392281
0.00372634
0.00356677
0.00338952
0.264759
0.104702
0.0585298
0.039163
0.0286198
0.0219933
0.0175359
0.0143631
0.012008
0.0102133
0.0088157
0.00770477
0.0068026
0.00605857
0.00544586
0.00494228
0.00452101
0.00416408
0.00386546
0.00362748
0.311746
0.197541
0.130357
0.0911456
0.0668021
0.0508109
0.0397942
0.0319118
0.0260938
0.0216867
0.0182758
0.0155874
0.0134395
0.0116961
0.0102641
0.00907487
0.00807726
0.0072322
0.0065265
0.00587016
0.31754
0.217754
0.151085
0.108549
0.0807155
0.0618725
0.0486773
0.0391417
0.0320585
0.0266714
0.0224898
0.019187
0.0165386
0.0143864
0.0126171
0.0111485
0.00991885
0.00888028
0.00799969
0.00723903
0.319723
0.227073
0.162232
0.118772
0.0893611
0.0689929
0.0545307
0.0439847
0.0361001
0.0300752
0.0253828
0.0216663
0.0186793
0.0162476
0.0142455
0.0125802
0.011183
0.0100011
0.00899355
0.0081322
0.320484
0.23086
0.167176
0.123531
0.093516
0.0724827
0.0574409
0.0464216
0.0381542
0.0318179
0.0268718
0.022948
0.0197899
0.0172157
0.0150936
0.0133268
0.0118424
0.010585
0.00951151
0.0085914
0.320484
0.23086
0.167176
0.123531
0.0935159
0.0724825
0.0574407
0.0464213
0.0381539
0.0318173
0.026871
0.0229469
0.0197883
0.0172132
0.01509
0.0133219
0.0118356
0.0105757
0.00949916
0.00857789
0.319723
0.227073
0.162232
0.118772
0.089361
0.0689926
0.0545303
0.0439841
0.0360993
0.0300741
0.0253812
0.0216639
0.0186757
0.0162423
0.0142379
0.0125696
0.0111679
0.00997954
0.00896358
0.00809712
0.31754
0.217754
0.151085
0.108549
0.0807154
0.0618723
0.048677
0.0391412
0.0320579
0.0266705
0.0224886
0.0191851
0.0165358
0.0143822
0.0126109
0.0111395
0.00990551
0.00886013
0.00796993
0.00719619
0.311746
0.197541
0.130357
0.0911456
0.0668021
0.0508109
0.0397942
0.0319119
0.0260939
0.0216868
0.0182759
0.0155875
0.0134396
0.0116963
0.0102642
0.00907496
0.00807745
0.00723249
0.00652692
0.00587077
0.264759
0.104702
0.0585298
0.039163
0.0286198
0.0219934
0.0175359
0.0143632
0.0120081
0.0102136
0.0088161
0.00770541
0.00680366
0.00606105
0.00544952
0.00494811
0.00453121
0.00418253
0.00389639
0.00366742
0.283364
0.126774
0.0717019
0.0473281
0.0338662
0.0256615
0.0204607
0.0167968
0.0140483
0.0119406
0.0102833
0.00895473
0.00788313
0.0070083
0.00628388
0.00567745
0.00516608
0.0047313
0.00436173
0.00406575
0.31754
0.217754
0.151085
0.108549
0.0807154
0.0618723
0.048677
0.0391412
0.0320579
0.0266704
0.0224885
0.0191851
0.0165358
0.0143822
0.0126107
0.0111393
0.00990533
0.00885986
0.0079696
0.00719604
0.322005
0.239026
0.177588
0.133616
0.102323
0.0798667
0.0635103
0.0513818
0.0422213
0.0351789
0.029675
0.0253084
0.0217968
0.018938
0.0165846
0.0146278
0.0129859
0.0115964
0.010409
0.00936348
0.323293
0.245617
0.187499
0.144537
0.112864
0.0894039
0.0718633
0.0585865
0.0483996
0.0404743
0.0342248
0.0292335
0.0251995
0.0219033
0.0191828
0.0169165
0.0150125
0.0133995
0.0120202
0.0108191
0.323714
0.247819
0.191099
0.14881
0.117249
0.0935708
0.0756574
0.0619607
0.0513629
0.0430615
0.0364796
0.0312
0.0269184
0.0234104
0.0205091
0.0180882
0.0160514
0.014324
0.0128449
0.0115583
0.323714
0.247819
0.191099
0.14881
0.117249
0.0935708
0.0756573
0.0619605
0.0513627
0.0430612
0.0364791
0.0311993
0.0269175
0.0234092
0.0205073
0.0180858
0.0160483
0.0143197
0.0128387
0.0115458
0.323293
0.245617
0.187499
0.144537
0.112864
0.0894038
0.0718631
0.0585862
0.0483992
0.0404738
0.0342241
0.0292325
0.025198
0.0219012
0.0191798
0.0169125
0.0150069
0.0133917
0.0120085
0.0107949
0.322005
0.239026
0.177588
0.133616
0.102323
0.0798668
0.0635103
0.0513818
0.0422213
0.0351789
0.029675
0.0253085
0.0217969
0.0189381
0.0165846
0.0146278
0.012986
0.0115965
0.0104092
0.00936381
0.31754
0.217754
0.151085
0.108549
0.0807155
0.0618725
0.0486773
0.0391417
0.0320585
0.0266714
0.0224899
0.0191871
0.0165387
0.0143866
0.0126171
0.0111485
0.00991891
0.00888041
0.00799992
0.00723948
0.283364
0.126774
0.071702
0.0473282
0.0338663
0.0256616
0.0204609
0.0167971
0.0140487
0.0119414
0.0102844
0.00895634
0.00788552
0.00701195
0.00628959
0.00568613
0.00517942
0.00475187
0.0043918
0.00410229
0.292299
0.141633
0.0819301
0.0541654
0.038923
0.0292874
0.0232722
0.0190784
0.0159338
0.0135145
0.0116261
0.0101118
0.00888043
0.00786885
0.00702958
0.00632703
0.00573345
0.00522774
0.00479695
0.004469
0.319723
0.227073
0.162232
0.118772
0.089361
0.0689926
0.0545303
0.0439841
0.0360993
0.0300741
0.0253812
0.0216638
0.0186757
0.0162424
0.0142378
0.0125695
0.0111677
0.00997941
0.00896342
0.00809696
0.323293
0.245617
0.187499
0.144536
0.112864
0.0894038
0.0718631
0.0585862
0.0483992
0.0404738
0.0342241
0.0292324
0.025198
0.0219012
0.0191798
0.0169124
0.0150068
0.0133916
0.0120084
0.0107948
0.324288
0.250862
0.19613
0.154888
0.123591
0.09968
0.0812741
0.0669837
0.0557847
0.0469223
0.0398394
0.0341235
0.0294672
0.0256398
0.0224667
0.0198147
0.0175807
0.0156836
0.0140544
0.0126173
0.32459
0.252403
0.19891
0.158543
0.12769
0.103871
0.0853201
0.0707499
0.05921
0.0499928
0.0425685
0.0365384
0.0316006
0.0275251
0.0241354
0.0212953
0.0188982
0.0168589
0.0151031
0.013546
0.32459
0.252403
0.19891
0.158543
0.12769
0.103871
0.0853201
0.0707499
0.0592099
0.0499927
0.0425684
0.0365383
0.0316004
0.0275247
0.0241349
0.0212947
0.0188975
0.0168579
0.0151016
0.0135428
0.324288
0.250862
0.19613
0.154888
0.123591
0.09968
0.0812741
0.0669838
0.0557847
0.0469223
0.0398394
0.0341236
0.0294673
0.0256398
0.0224667
0.0198147
0.0175808
0.0156837
0.0140546
0.0126175
0.323293
0.245617
0.187499
0.144537
0.112864
0.0894039
0.0718633
0.0585865
0.0483996
0.0404743
0.0342249
0.0292335
0.0251996
0.0219034
0.0191828
0.0169166
0.0150125
0.0133996
0.0120204
0.0108195
0.319723
0.227073
0.162232
0.118772
0.0893611
0.0689929
0.0545307
0.0439847
0.0361001
0.0300752
0.0253829
0.0216663
0.0186793
0.0162477
0.0142455
0.0125802
0.011183
0.0100012
0.00899367
0.0081323
0.292299
0.141633
0.0819302
0.0541654
0.0389231
0.0292875
0.0232724
0.0190788
0.0159343
0.0135152
0.0116272
0.0101134
0.00888277
0.00787247
0.00703505
0.00633502
0.00574523
0.00524487
0.00481842
0.00446042
0.295943
0.148782
0.0871941
0.0576749
0.0415194
0.0310723
0.0246451
0.020221
0.016905
0.0143249
0.0123084
0.0107022
0.0093959
0.00832197
0.00743012
0.00668286
0.0060512
0.00551329
0.00505539
0.0046961
0.320484
0.23086
0.167176
0.123531
0.0935159
0.0724825
0.0574407
0.0464213
0.0381538
0.0318173
0.026871
0.0229469
0.0197883
0.0172133
0.0150901
0.0133219
0.0118356
0.0105757
0.00949919
0.00857794
0.323714
0.247819
0.191099
0.14881
0.117249
0.0935707
0.0756573
0.0619605
0.0513627
0.0430611
0.0364791
0.0311993
0.0269175
0.0234092
0.0205073
0.0180858
0.0160483
0.0143197
0.0128386
0.0115459
0.32459
0.252403
0.19891
0.158543
0.12769
0.103871
0.0853201
0.0707499
0.0592099
0.0499927
0.0425684
0.0365383
0.0316004
0.0275247
0.0241349
0.0212947
0.0188974
0.0168579
0.0151015
0.0135429
0.324844
0.253685
0.20131
0.161836
0.131535
0.107943
0.0893701
0.0746126
0.0627922
0.0532536
0.0455015
0.0391575
0.0339304
0.0295945
0.0259741
0.0229313
0.0203567
0.0181609
0.0162621
0.0145552
0.324844
0.253685
0.20131
0.161836
0.131535
0.107943
0.0893701
0.0746126
0.0627922
0.0532536
0.0455015
0.0391575
0.0339304
0.0295946
0.0259742
0.0229313
0.0203567
0.0181609
0.0162621
0.0145552
0.32459
0.252403
0.19891
0.158543
0.12769
0.103871
0.0853201
0.07075
0.05921
0.0499928
0.0425685
0.0365385
0.0316006
0.0275251
0.0241354
0.0212953
0.0188982
0.016859
0.0151032
0.0135461
0.323714
0.247819
0.191099
0.14881
0.117249
0.0935708
0.0756574
0.0619607
0.0513629
0.0430615
0.0364796
0.0312
0.0269184
0.0234105
0.0205091
0.0180882
0.0160515
0.014324
0.012845
0.0115583
0.320484
0.23086
0.167176
0.123531
0.093516
0.0724827
0.0574409
0.0464216
0.0381543
0.0318179
0.0268718
0.022948
0.0197899
0.0172157
0.0150937
0.0133269
0.0118425
0.010585
0.00951155
0.00859113
0.295943
0.148782
0.0871941
0.057675
0.0415194
0.0310723
0.0246452
0.0202212
0.0169052
0.0143253
0.0123089
0.0107029
0.00939693
0.00832354
0.00743261
0.0066864
0.00605621
0.00552016
0.00506311
0.00469004
0.295943
0.148782
0.0871941
0.057675
0.0415194
0.0310723
0.0246452
0.0202212
0.0169052
0.0143252
0.0123089
0.0107029
0.00939695
0.00832356
0.00743257
0.00668637
0.0060562
0.00552017
0.00506314
0.0046899
0.320484
0.23086
0.167176
0.123531
0.093516
0.0724827
0.0574409
0.0464216
0.0381542
0.0318179
0.0268718
0.022948
0.0197899
0.0172157
0.0150936
0.0133268
0.0118425
0.0105851
0.00951167
0.00859153
0.323714
0.247819
0.191099
0.14881
0.117249
0.0935708
0.0756574
0.0619607
0.0513629
0.0430615
0.0364796
0.0312
0.0269184
0.0234105
0.0205091
0.0180882
0.0160515
0.014324
0.012845
0.0115582
0.32459
0.252403
0.19891
0.158543
0.12769
0.103871
0.0853201
0.0707499
0.05921
0.0499928
0.0425685
0.0365384
0.0316006
0.0275251
0.0241354
0.0212953
0.0188982
0.0168589
0.0151032
0.013546
0.324844
0.253685
0.20131
0.161836
0.131535
0.107943
0.0893701
0.0746126
0.0627922
0.0532536
0.0455015
0.0391575
0.0339304
0.0295945
0.0259742
0.0229313
0.0203567
0.0181609
0.0162621
0.0145551
0.324844
0.253685
0.20131
0.161836
0.131535
0.107943
0.0893701
0.0746126
0.0627922
0.0532536
0.0455015
0.0391575
0.0339304
0.0295946
0.0259742
0.0229313
0.0203567
0.0181609
0.0162621
0.0145551
0.32459
0.252403
0.19891
0.158543
0.12769
0.103871
0.0853201
0.0707499
0.0592099
0.0499927
0.0425684
0.0365383
0.0316004
0.0275247
0.024135
0.0212947
0.0188975
0.0168579
0.0151016
0.0135425
0.323714
0.247819
0.191099
0.14881
0.117249
0.0935708
0.0756573
0.0619605
0.0513627
0.0430612
0.0364791
0.0311993
0.0269174
0.0234092
0.0205074
0.0180859
0.0160483
0.0143197
0.0128386
0.0115451
0.320484
0.23086
0.167176
0.123531
0.0935159
0.0724825
0.0574407
0.0464213
0.0381539
0.0318173
0.026871
0.0229469
0.0197883
0.0172132
0.0150902
0.013322
0.0118357
0.0105758
0.00949908
0.00857716
0.295943
0.148782
0.0871941
0.0576749
0.0415194
0.0310723
0.0246451
0.020221
0.016905
0.0143249
0.0123084
0.0107022
0.00939586
0.00832189
0.00743024
0.00668297
0.00605131
0.00551338
0.00505548
0.00469638
0.292299
0.141633
0.0819302
0.0541654
0.0389231
0.0292875
0.0232724
0.0190788
0.0159343
0.0135152
0.0116272
0.0101134
0.00888275
0.0078724
0.0070351
0.00633507
0.00574528
0.00524494
0.00481854
0.00446055
0.319723
0.227073
0.162232
0.118772
0.0893611
0.0689929
0.0545307
0.0439847
0.0361001
0.0300752
0.0253828
0.0216663
0.0186793
0.0162476
0.0142455
0.0125803
0.0111831
0.0100012
0.00899377
0.00813254
0.323293
0.245617
0.187499
0.144537
0.112864
0.0894039
0.0718633
0.0585865
0.0483996
0.0404743
0.0342248
0.0292335
0.0251995
0.0219033
0.0191828
0.0169166
0.0150125
0.0133996
0.0120203
0.0108194
0.324288
0.250862
0.19613
0.154888
0.123591
0.09968
0.0812741
0.0669837
0.0557847
0.0469223
0.0398394
0.0341236
0.0294672
0.0256398
0.0224667
0.0198147
0.0175808
0.0156837
0.0140546
0.0126173
0.32459
0.252403
0.19891
0.158543
0.12769
0.103871
0.0853201
0.0707499
0.0592099
0.0499927
0.0425684
0.0365383
0.0316004
0.0275247
0.0241349
0.0212947
0.0188975
0.0168579
0.0151016
0.0135426
0.32459
0.252403
0.19891
0.158543
0.12769
0.103871
0.0853201
0.07075
0.05921
0.0499928
0.0425685
0.0365384
0.0316006
0.0275251
0.0241354
0.0212953
0.0188982
0.0168589
0.0151032
0.0135458
0.324288
0.250862
0.19613
0.154888
0.123591
0.09968
0.0812741
0.0669838
0.0557847
0.0469223
0.0398394
0.0341236
0.0294673
0.0256398
0.0224667
0.0198147
0.0175808
0.0156837
0.0140545
0.0126171
0.323293
0.245617
0.187499
0.144537
0.112864
0.0894038
0.0718631
0.0585862
0.0483992
0.0404738
0.0342241
0.0292325
0.025198
0.0219012
0.0191798
0.0169125
0.0150069
0.0133916
0.0120083
0.0107943
0.319723
0.227073
0.162232
0.118772
0.089361
0.0689926
0.0545303
0.0439841
0.0360993
0.0300741
0.0253812
0.0216639
0.0186757
0.0162423
0.014238
0.0125696
0.0111679
0.00997953
0.00896342
0.00809691
0.292299
0.141633
0.0819301
0.0541654
0.038923
0.0292874
0.0232722
0.0190784
0.0159338
0.0135146
0.0116261
0.0101118
0.00888041
0.00786878
0.00702971
0.00632716
0.00573358
0.00522788
0.00479709
0.00446915
0.283364
0.126774
0.071702
0.0473282
0.0338663
0.0256616
0.0204608
0.0167971
0.0140487
0.0119414
0.0102844
0.00895632
0.00788546
0.00701186
0.00628964
0.00568619
0.00517948
0.00475193
0.00439186
0.00410245
0.31754
0.217754
0.151085
0.108549
0.0807155
0.0618725
0.0486773
0.0391417
0.0320585
0.0266714
0.0224899
0.019187
0.0165386
0.0143864
0.0126172
0.0111486
0.00991893
0.00888041
0.00799986
0.00723935
0.322005
0.239026
0.177588
0.133616
0.102323
0.0798667
0.0635103
0.0513818
0.0422213
0.0351789
0.029675
0.0253084
0.0217968
0.018938
0.0165846
0.0146278
0.0129859
0.0115964
0.0104091
0.00936359
0.323293
0.245617
0.187499
0.144536
0.112864
0.0894038
0.0718631
0.0585862
0.0483992
0.0404738
0.0342241
0.0292324
0.025198
0.0219012
0.0191798
0.0169124
0.0150068
0.0133916
0.0120084
0.0107947
0.323714
0.247819
0.191099
0.14881
0.117249
0.0935708
0.0756573
0.0619605
0.0513627
0.0430612
0.0364791
0.0311993
0.0269175
0.0234092
0.0205073
0.0180858
0.0160483
0.0143196
0.0128385
0.0115456
0.323714
0.247819
0.191099
0.14881
0.117249
0.0935708
0.0756574
0.0619607
0.0513629
0.0430615
0.0364796
0.0312
0.0269184
0.0234105
0.0205091
0.0180882
0.0160515
0.014324
0.0128449
0.0115583
0.323293
0.245617
0.187499
0.144537
0.112864
0.0894039
0.0718633
0.0585865
0.0483996
0.0404743
0.0342248
0.0292335
0.0251995
0.0219034
0.0191828
0.0169166
0.0150125
0.0133996
0.0120203
0.0108191
0.322005
0.239026
0.177588
0.133616
0.102323
0.0798668
0.0635103
0.0513818
0.0422213
0.0351789
0.029675
0.0253085
0.0217969
0.018938
0.0165846
0.0146278
0.0129859
0.0115965
0.010409
0.00936324
0.31754
0.217754
0.151085
0.108549
0.0807154
0.0618723
0.048677
0.0391412
0.0320579
0.0266705
0.0224886
0.0191851
0.0165358
0.0143822
0.0126109
0.0111395
0.0099055
0.00886008
0.00796972
0.00719649
0.283364
0.126774
0.0717019
0.0473281
0.0338662
0.0256615
0.0204607
0.0167968
0.0140483
0.0119406
0.0102833
0.00895476
0.00788314
0.00700827
0.00628398
0.00567757
0.00516621
0.00473146
0.00436192
0.00406613
0.264759
0.104702
0.0585298
0.039163
0.0286198
0.0219933
0.0175359
0.0143631
0.012008
0.0102136
0.00881607
0.00770538
0.00680362
0.00606089
0.00544949
0.0049481
0.00453117
0.00418246
0.00389627
0.00366725
0.311746
0.197541
0.130357
0.0911456
0.0668021
0.0508109
0.0397942
0.0319118
0.0260938
0.0216867
0.0182758
0.0155874
0.0134395
0.011696
0.0102641
0.00907487
0.00807726
0.00723217
0.00652646
0.00587008
0.31754
0.217754
0.151085
0.108549
0.0807154
0.0618723
0.048677
0.0391412
0.0320579
0.0266704
0.0224885
0.0191851
0.0165358
0.0143822
0.0126107
0.0111393
0.00990529
0.00885978
0.00796945
0.00719572
0.319723
0.227073
0.162232
0.118772
0.089361
0.0689926
0.0545303
0.0439841
0.0360993
0.0300741
0.0253812
0.0216638
0.0186757
0.0162424
0.0142378
0.0125694
0.0111677
0.00997933
0.0089632
0.00809674
0.320484
0.23086
0.167176
0.123531
0.0935159
0.0724825
0.0574407
0.0464213
0.0381538
0.0318173
0.026871
0.0229469
0.0197883
0.0172133
0.0150901
0.0133218
0.0118356
0.0105757
0.00949905
0.00857787
0.320484
0.23086
0.167176
0.123531
0.093516
0.0724827
0.0574409
0.0464216
0.0381542
0.0318179
0.0268718
0.022948
0.01979
0.0172158
0.0150937
0.0133268
0.0118425
0.0105851
0.00951166
0.00859165
0.319723
0.227073
0.162232
0.118772
0.0893611
0.0689929
0.0545307
0.0439847
0.0361001
0.0300752
0.0253829
0.0216663
0.0186793
0.0162477
0.0142455
0.0125802
0.011183
0.0100012
0.00899376
0.00813255
0.31754
0.217754
0.151085
0.108549
0.0807155
0.0618725
0.0486773
0.0391417
0.0320585
0.0266714
0.0224899
0.019187
0.0165387
0.0143866
0.0126171
0.0111485
0.00991887
0.00888037
0.0079998
0.00723945
0.311746
0.197541
0.130357
0.0911456
0.0668021
0.0508109
0.0397942
0.0319118
0.0260939
0.0216868
0.0182758
0.0155875
0.0134395
0.0116962
0.0102641
0.0090749
0.00807735
0.00723235
0.00652657
0.00587113
0.264759
0.104702
0.0585298
0.039163
0.0286198
0.0219933
0.0175359
0.0143631
0.012008
0.0102133
0.00881573
0.00770479
0.00680264
0.00605863
0.00544591
0.00494233
0.00452108
0.00416419
0.0038656
0.00362791
0.213564
0.055916
0.0283994
0.0193411
0.0146927
0.011851
0.0098906
0.00851592
0.00749111
0.006696
0.00606006
0.00555017
0.00512179
0.00474323
0.00442266
0.00415246
0.00392274
0.00372623
0.00356663
0.00338921
0.264759
0.104702
0.0585298
0.039163
0.0286198
0.0219933
0.0175359
0.0143631
0.012008
0.0102133
0.0088157
0.00770476
0.00680259
0.00605854
0.00544584
0.00494225
0.00452096
0.00416399
0.0038653
0.00362719
0.283364
0.126774
0.0717019
0.0473281
0.0338662
0.0256615
0.0204607
0.0167968
0.0140483
0.0119406
0.0102833
0.00895473
0.00788312
0.00700829
0.00628386
0.00567743
0.00516606
0.00473127
0.00436166
0.00406563
0.292299
0.141633
0.0819301
0.0541654
0.038923
0.0292874
0.0232722
0.0190784
0.0159338
0.0135145
0.0116261
0.0101118
0.00888043
0.00786886
0.00702957
0.00632703
0.00573345
0.00522774
0.00479693
0.00446906
0.295943
0.148782
0.0871941
0.0576749
0.0415194
0.0310723
0.0246451
0.020221
0.016905
0.0143249
0.0123084
0.0107022
0.00939591
0.00832198
0.00743012
0.00668287
0.00605123
0.00551332
0.00505544
0.00469627
0.295943
0.148782
0.0871941
0.057675
0.0415194
0.0310723
0.0246452
0.0202212
0.0169052
0.0143253
0.0123089
0.0107029
0.00939697
0.00832359
0.00743259
0.00668638
0.00605622
0.0055202
0.00506318
0.00469004
0.292299
0.141633
0.0819302
0.0541654
0.0389231
0.0292875
0.0232724
0.0190788
0.0159343
0.0135152
0.0116272
0.0101134
0.00888278
0.00787248
0.00703506
0.00633504
0.00574526
0.00524493
0.00481854
0.0044606
0.283364
0.126774
0.071702
0.0473282
0.0338663
0.0256616
0.0204609
0.0167971
0.0140487
0.0119414
0.0102844
0.00895633
0.00788551
0.00701194
0.00628959
0.00568613
0.00517942
0.00475188
0.0043918
0.00410218
0.264759
0.104702
0.0585298
0.039163
0.0286198
0.0219934
0.017536
0.0143631
0.0120081
0.0102136
0.00881609
0.00770539
0.00680363
0.00606103
0.0054495
0.00494808
0.00453117
0.00418247
0.0038963
0.00366753
0.213564
0.055916
0.0283994
0.0193411
0.0146927
0.011851
0.0098906
0.00851592
0.00749111
0.00669602
0.00606005
0.00555022
0.00512176
0.00474332
0.00442267
0.00415247
0.00392277
0.0037263
0.00356673
0.0033895
0.00362789
0.00333729
0.0030796
0.00291474
0.00280104
0.00272306
0.00265845
0.00259836
0.00254191
0.00249313
0.00244806
0.00240763
0.00236464
0.00232187
0.00228208
0.00224284
0.00220665
0.00217118
0.00213795
0.00210618
0.00207482
0.00204412
0.00201521
0.00198567
0.00196005
0.00193433
0.00190965
0.00188556
0.00186269
0.00183942
0.00181854
0.00179775
0.00177809
0.00175932
0.00174095
0.00172395
0.00170813
0.00169285
0.00168038
0.00165828
0.00340939
0.00308397
0.00287649
0.00273401
0.00262103
0.00253496
0.00246007
0.0023879
0.00231718
0.00225524
0.00219906
0.00215184
0.00210365
0.00205821
0.00201421
0.00197154
0.00193243
0.00189561
0.00186122
0.00182904
0.00179795
0.00176791
0.00173974
0.00171227
0.00168723
0.00166393
0.00164138
0.0016196
0.00159846
0.00157766
0.00155794
0.00153907
0.00152101
0.0015037
0.00148718
0.00147151
0.00145677
0.00144271
0.00142974
0.00141513
0.00373939
0.00344234
0.00319051
0.00299539
0.00284567
0.00271791
0.00260726
0.00251051
0.00242428
0.0023449
0.00227262
0.00220677
0.00214756
0.00209673
0.00204276
0.00199263
0.00194767
0.00190599
0.00186724
0.00183019
0.00179491
0.00175945
0.00172616
0.00169579
0.00166858
0.00164305
0.00161821
0.00159428
0.00157134
0.00154918
0.00152804
0.0015074
0.00148784
0.00146919
0.00145154
0.00143483
0.00141897
0.00140369
0.00138923
0.00137437
0.00396637
0.00367745
0.00343428
0.00322972
0.00305227
0.0028987
0.00276389
0.00264412
0.00253634
0.002439
0.00235068
0.00226991
0.00219487
0.00212854
0.00206751
0.00201108
0.00195873
0.00191109
0.0018651
0.00181902
0.00177691
0.00173889
0.00170237
0.00166783
0.0016358
0.00160603
0.00157794
0.00155158
0.00152636
0.00150237
0.00147984
0.00145743
0.00143614
0.00141624
0.0013975
0.00138001
0.00136336
0.00134743
0.00133227
0.0013166
0.00412742
0.00384929
0.00360192
0.00338354
0.00319082
0.00302037
0.00287011
0.00273613
0.00261504
0.00250522
0.00240532
0.00231385
0.00222923
0.00215381
0.00208458
0.00202143
0.00196341
0.00190953
0.00185939
0.00181291
0.00176991
0.00173006
0.00168916
0.00165158
0.00161746
0.00158546
0.00155567
0.00152773
0.00150129
0.00147659
0.00145356
0.00143078
0.00140921
0.00138915
0.00136988
0.00135175
0.00133448
0.00131811
0.00130276
0.00128847
0.00428056
0.00397117
0.00370177
0.00346605
0.00325859
0.00307503
0.00291247
0.00276829
0.00263822
0.00252005
0.00241268
0.00231486
0.00222495
0.0021443
0.00207058
0.00200311
0.00194132
0.00188528
0.0018339
0.00178659
0.00174299
0.001703
0.00166499
0.00163198
0.00159662
0.00156219
0.00153088
0.00150223
0.00147609
0.00145185
0.001429
0.0014077
0.00138703
0.00136583
0.00134664
0.00132843
0.00131216
0.0012964
0.0012818
0.00126794
0.00430413
0.00397301
0.00368759
0.00344061
0.00322387
0.00303223
0.00286329
0.00271376
0.00258053
0.00246133
0.00235446
0.0022583
0.00217115
0.00209294
0.00202188
0.00195713
0.00189808
0.0018442
0.00179518
0.00175031
0.00170932
0.00167106
0.00163457
0.00160204
0.00156723
0.00153483
0.00150552
0.00147848
0.00145351
0.00142922
0.00140659
0.0013859
0.00136475
0.00134528
0.00132692
0.0013107
0.00129518
0.00127986
0.00126511
0.00125113
0.00417006
0.00382371
0.00352618
0.00327977
0.00306456
0.00287688
0.00271574
0.00257669
0.00245591
0.00234933
0.00225473
0.00216954
0.00209204
0.00202212
0.00195851
0.0019004
0.00184755
0.00179915
0.00175474
0.00171374
0.00167692
0.00164027
0.00160543
0.00157242
0.001543
0.00151446
0.00148794
0.00146285
0.0014378
0.001413
0.0013909
0.00137142
0.00135315
0.00133517
0.00131796
0.00130152
0.00128575
0.00127043
0.00125579
0.00124175
0.0039135
0.00357427
0.003264
0.00301977
0.00282216
0.00266092
0.00252837
0.00241934
0.00232281
0.00223622
0.00215893
0.00208858
0.00202611
0.00196832
0.0019169
0.00186321
0.00181421
0.00177159
0.00173169
0.00169491
0.00166028
0.00162739
0.001597
0.00156629
0.00153874
0.00151165
0.00148653
0.00146278
0.00144081
0.0014194
0.00139981
0.00138125
0.0013637
0.00134682
0.00133085
0.0013157
0.00130089
0.00128638
0.00127271
0.00125924
0.00362295
0.003297
0.00300114
0.00278611
0.00262894
0.00251213
0.00241867
0.00233724
0.00226016
0.00219197
0.00213576
0.00208415
0.00203542
0.00198161
0.00193375
0.00188884
0.00184707
0.00180851
0.00177218
0.00173855
0.00170664
0.00167658
0.00164866
0.00162057
0.00159536
0.00157157
0.00154893
0.00152724
0.00150653
0.00148605
0.00146731
0.0014495
0.00143256
0.00141644
0.00140116
0.00138662
0.00137269
0.00135949
0.00134766
0.00133446
0.0036273
0.00333596
0.00307972
0.00291324
0.00280275
0.00272748
0.00266347
0.0026036
0.00254611
0.00249444
0.00245038
0.00240637
0.00236268
0.00231948
0.00227883
0.00224012
0.0022035
0.0021683
0.00213506
0.0021032
0.00207208
0.00204145
0.00201305
0.00198373
0.00195847
0.00193268
0.00190835
0.00188444
0.00186183
0.00183899
0.00181823
0.00179767
0.00177827
0.00175972
0.001742
0.00172532
0.00170922
0.00169405
0.0016814
0.00165914
0.00362365
0.00329788
0.00300087
0.00278854
0.00262729
0.00250719
0.00241313
0.00233058
0.00225424
0.00218914
0.00213177
0.00208439
0.00203745
0.00198382
0.00193711
0.00189199
0.00185113
0.00181225
0.00177621
0.0017424
0.00171036
0.00168009
0.00165183
0.00162314
0.00159752
0.00157358
0.00155072
0.00152879
0.00150787
0.00148687
0.0014679
0.00144991
0.00143279
0.00141634
0.00140045
0.00138561
0.00137171
0.00135853
0.00134677
0.00133365
0.00461451
0.00396018
0.00355243
0.00328776
0.00304564
0.0028687
0.00271017
0.00255134
0.00239575
0.0022677
0.0021486
0.00205389
0.00194347
0.00183607
0.00174959
0.00166394
0.00159193
0.00152209
0.00145966
0.00140257
0.00134388
0.00128803
0.00124233
0.00118884
0.00114815
0.00111047
0.00107507
0.00104097
0.00100981
0.000973976
0.000946532
0.000920946
0.000897496
0.000875827
0.000852713
0.000834164
0.000817263
0.000801874
0.000788359
0.000776932
0.00589105
0.00529536
0.00481292
0.00441546
0.0040773
0.00378208
0.00352049
0.00328774
0.00308061
0.00289272
0.00272429
0.00256937
0.0024302
0.00229903
0.00218692
0.00207779
0.00198409
0.00189333
0.00181349
0.00173756
0.0016646
0.00159985
0.0015383
0.00147937
0.00142194
0.00137168
0.00132446
0.00127889
0.0012393
0.00119757
0.00116157
0.00112522
0.00109382
0.00106181
0.00103364
0.00100536
0.000980308
0.000954446
0.000931194
0.000901985
0.00674973
0.00612105
0.00558046
0.00511517
0.00471239
0.00436043
0.00404767
0.00376794
0.00351694
0.00329147
0.00308873
0.00290605
0.00273973
0.00258962
0.00245359
0.00232939
0.00221596
0.00211248
0.00201666
0.00193039
0.00184763
0.00177489
0.00170336
0.00164002
0.00157855
0.00152462
0.00147168
0.00142482
0.00137829
0.00133533
0.00129424
0.0012538
0.00121839
0.00118253
0.00115052
0.00111936
0.00108946
0.00105927
0.00103165
0.000997468
0.00729769
0.0066169
0.00602868
0.00551788
0.00507176
0.0046797
0.00433758
0.00403562
0.00376392
0.00351883
0.00329801
0.00309871
0.00291855
0.00275528
0.00260716
0.00247237
0.00234945
0.00223707
0.00213405
0.0020392
0.00195306
0.00186793
0.0017879
0.0017186
0.00165898
0.0016019
0.00154915
0.00149758
0.00144744
0.00140045
0.00135713
0.00131479
0.00127745
0.00123983
0.00120484
0.00117092
0.00113742
0.00110475
0.00107361
0.00103574
0.00750767
0.00680363
0.00619301
0.00566205
0.00519867
0.00479215
0.00443557
0.00412451
0.00384791
0.00359798
0.00337233
0.00316865
0.00298454
0.00281782
0.00266645
0.00252864
0.0024028
0.00228762
0.00218196
0.00208469
0.00199524
0.00191203
0.00183588
0.00175931
0.00168603
0.00162059
0.00156599
0.0015162
0.00146943
0.00142462
0.00138153
0.00134175
0.00130352
0.00126275
0.001223
0.0011857
0.00114955
0.00111531
0.00108215
0.00104218
0.0073057
0.00662013
0.00602445
0.00550727
0.00505724
0.00466407
0.00432234
0.00402359
0.00375657
0.00351625
0.00329987
0.00310484
0.00292744
0.00276733
0.00262162
0.00248852
0.00236642
0.00225426
0.00215096
0.00205565
0.00196768
0.00188566
0.00181038
0.00173726
0.00166969
0.00160741
0.00154885
0.00149218
0.00144253
0.00139203
0.00134669
0.00130296
0.00126141
0.001221
0.00118317
0.00114668
0.00111137
0.0010778
0.00104485
0.00100445
0.00673382
0.00607428
0.00551866
0.0050486
0.00464555
0.00429785
0.00399504
0.00372637
0.00348573
0.00326938
0.00307449
0.00289709
0.00273369
0.00258644
0.00245138
0.00232748
0.00221275
0.00210759
0.00200985
0.00191991
0.0018365
0.00175767
0.00168633
0.00161302
0.00155055
0.00148809
0.00143364
0.00137834
0.0013301
0.00127843
0.0012347
0.00119083
0.00115048
0.00110965
0.00107463
0.00104019
0.00100626
0.000973788
0.00094215
0.000904596
0.00583183
0.0052049
0.00471113
0.00431143
0.00398103
0.00369944
0.00345425
0.0032332
0.00303097
0.00284721
0.00268217
0.00252247
0.00238079
0.00224981
0.00212872
0.00201934
0.00191301
0.00182313
0.00173302
0.00165638
0.00157969
0.00151028
0.00144828
0.00138363
0.00132867
0.0012732
0.0012267
0.00117853
0.0011382
0.00109241
0.00105579
0.00101888
0.000986584
0.000953704
0.000925478
0.000899412
0.000871351
0.000844949
0.000821415
0.000802135
0.00461312
0.00395616
0.00355124
0.00327894
0.00306931
0.0028904
0.00272855
0.00256938
0.00240943
0.00227286
0.00216444
0.00204814
0.00193623
0.0018319
0.00174215
0.00165748
0.00158242
0.00151305
0.00145002
0.00139273
0.00133373
0.00127831
0.00123368
0.00118191
0.00114271
0.00110467
0.00106999
0.001036
0.00100519
0.000970708
0.000943652
0.000918331
0.000895346
0.000873642
0.000853951
0.000836398
0.000817295
0.000802289
0.00078822
0.000776179
0.00340828
0.0030835
0.00287713
0.00273302
0.00262486
0.002541
0.00246495
0.00239312
0.00232186