/*--------------------------------*- C++ -*----------------------------------*\
| =========                 |                                                 |
| \\      /  F ield         | OpenFOAM: The Open Source CFD Toolbox           |
|  \\    /   O peration     | Version:  2212                                  |
|   \\  /    A nd           | Website:  www.openfoam.com                      |
|    \\/     M anipulation  |                                                 |
\*---------------------------------------------------------------------------*/
FoamFile
{
    version     2.0;
    format      ascii;
    arch        "LSB;label=32;scalar=64";
    class       volScalarField;
    location    "3";
    object      nut;
}
// * * * * * * * * * * * * * * * * * * * * * * * * * * * * * * * * * * * * * //

dimensions      [0 2 -1 0 0 0 0];

internalField   nonuniform List<scalar> 
6840
(
4.5356e-05
2.3208e-05
1.65396e-05
1.36493e-05
1.18966e-05
1.06843e-05
9.76071e-06
9.05703e-06
8.49459e-06
8.03113e-06
7.64022e-06
7.31168e-06
7.02371e-06
6.75893e-06
6.52623e-06
6.32302e-06
6.14411e-06
5.98524e-06
5.84396e-06
5.69296e-06
0.000107685
6.77183e-05
5.06311e-05
4.14159e-05
3.54048e-05
3.10366e-05
2.77136e-05
2.50815e-05
2.29331e-05
2.11502e-05
1.965e-05
1.83703e-05
1.72617e-05
1.62919e-05
1.54477e-05
1.47185e-05
1.40817e-05
1.35221e-05
1.30322e-05
1.26127e-05
0.000160509
0.00010736
8.07408e-05
6.55975e-05
5.54896e-05
4.83025e-05
4.31309e-05
3.9079e-05
3.57392e-05
3.29498e-05
3.05782e-05
2.85355e-05
2.6775e-05
2.52478e-05
2.39114e-05
2.27339e-05
2.16947e-05
2.0776e-05
1.997e-05
1.93214e-05
0.000198681
0.0001383
0.000105187
8.55269e-05
7.25012e-05
6.28902e-05
5.60611e-05
5.07594e-05
4.63882e-05
4.2722e-05
3.96257e-05
3.69561e-05
3.46345e-05
3.2605e-05
3.0822e-05
2.92475e-05
2.78516e-05
2.66095e-05
2.55024e-05
2.45343e-05
0.000218609
0.000155003
0.000118661
9.65069e-05
8.18824e-05
7.08356e-05
6.30857e-05
5.71437e-05
5.22487e-05
4.80968e-05
4.45836e-05
4.15735e-05
3.89548e-05
3.66627e-05
3.46452e-05
3.28604e-05
3.1274e-05
2.98585e-05
2.85956e-05
2.75186e-05
0.000218609
0.000155003
0.000118661
9.65069e-05
8.18824e-05
7.08356e-05
6.30856e-05
5.71435e-05
5.22485e-05
4.80965e-05
4.4583e-05
4.15727e-05
3.89534e-05
3.66602e-05
3.46411e-05
3.28544e-05
3.12651e-05
2.98455e-05
2.85803e-05
2.75246e-05
0.000198681
0.0001383
0.000105187
8.55269e-05
7.25012e-05
6.28901e-05
5.6061e-05
5.07591e-05
4.63878e-05
4.27214e-05
3.96245e-05
3.69542e-05
3.46314e-05
3.25998e-05
3.08136e-05
2.92348e-05
2.7832e-05
2.65798e-05
2.54653e-05
2.45634e-05
0.000160509
0.00010736
8.07408e-05
6.55975e-05
5.54895e-05
4.83025e-05
4.31308e-05
3.90788e-05
3.57388e-05
3.29491e-05
3.05772e-05
2.85338e-05
2.67723e-05
2.52433e-05
2.39039e-05
2.27223e-05
2.16767e-05
2.07479e-05
1.99273e-05
1.925e-05
0.000107685
6.77183e-05
5.06311e-05
4.14158e-05
3.54048e-05
3.10366e-05
2.77136e-05
2.50814e-05
2.29331e-05
2.11501e-05
1.96497e-05
1.83699e-05
1.7261e-05
1.62898e-05
1.54442e-05
1.47129e-05
1.40722e-05
1.35064e-05
1.30148e-05
1.26153e-05
4.5356e-05
2.3208e-05
1.65396e-05
1.36493e-05
1.18966e-05
1.06844e-05
9.76071e-06
9.05703e-06
8.49459e-06
8.03114e-06
7.64022e-06
7.31171e-06
7.02371e-06
6.75899e-06
6.52625e-06
6.32307e-06
6.14418e-06
5.98536e-06
5.84415e-06
5.69316e-06
0.000107685
6.77183e-05
5.06311e-05
4.14158e-05
3.54048e-05
3.10366e-05
2.77136e-05
2.50814e-05
2.29331e-05
2.11501e-05
1.96497e-05
1.83699e-05
1.72609e-05
1.62897e-05
1.5444e-05
1.47127e-05
1.4072e-05
1.35061e-05
1.30143e-05
1.26147e-05
0.000528907
0.000369984
0.000305096
0.00026137
0.000228527
0.000202473
0.000181111
0.000163069
0.000147531
0.000133972
0.000122031
0.000111439
0.000102094
9.38024e-05
8.63756e-05
7.95279e-05
7.32558e-05
6.75967e-05
6.31839e-05
5.48235e-05
0.000663952
0.000488458
0.000404619
0.000347248
0.000305035
0.000272127
0.000245317
0.000222888
0.000203754
0.000187177
0.000172651
0.00015981
0.000148369
0.000138117
0.000128895
0.000120663
0.000113254
0.000106497
0.000100743
9.40436e-05
0.00071288
0.000556432
0.000466397
0.000402355
0.000354426
0.000317051
0.000286676
0.000261258
0.000239585
0.000220851
0.000204452
0.000189965
0.00017707
0.000165512
0.000155102
0.000145663
0.000137095
0.000129283
0.000122139
0.000115911
0.000728543
0.000588231
0.000496002
0.000429132
0.00037851
0.000338936
0.00030682
0.000279977
0.000257078
0.000237263
0.000219921
0.000204594
0.000190943
0.000178699
0.000167661
0.000157653
0.000148544
0.000140217
0.000132553
0.00012545
0.000728543
0.000588231
0.000496002
0.000429132
0.00037851
0.000338935
0.000306819
0.000279974
0.000257075
0.000237259
0.000219913
0.000204582
0.000190922
0.000178662
0.000167592
0.000157559
0.000148408
0.000140015
0.000132261
0.000125125
0.00071288
0.000556432
0.000466397
0.000402355
0.000354425
0.00031705
0.000286674
0.000261253
0.000239579
0.000220841
0.000204436
0.000189938
0.000177024
0.000165425
0.000154964
0.000145464
0.000136787
0.000128798
0.000121403
0.000114956
0.000663952
0.000488458
0.000404618
0.000347247
0.000305035
0.000272126
0.000245316
0.000222884
0.000203749
0.000187169
0.000172639
0.00015979
0.000148335
0.000138052
0.000128783
0.0001205
0.000112988
0.00010605
9.99967e-05
9.2894e-05
0.000528907
0.000369984
0.000305096
0.00026137
0.000228527
0.000202474
0.000181111
0.000163069
0.000147532
0.000133972
0.000122032
0.00011144
0.000102097
9.38068e-05
8.63752e-05
7.95304e-05
7.32614e-05
6.76041e-05
6.31959e-05
5.48391e-05
0.000107685
6.77183e-05
5.06311e-05
4.14159e-05
3.54048e-05
3.10366e-05
2.77136e-05
2.50815e-05
2.29332e-05
2.11502e-05
1.965e-05
1.83704e-05
1.72618e-05
1.62921e-05
1.54478e-05
1.47186e-05
1.40819e-05
1.35224e-05
1.30327e-05
1.26138e-05
0.000160509
0.00010736
8.07408e-05
6.55975e-05
5.54895e-05
4.83025e-05
4.31308e-05
3.90788e-05
3.57388e-05
3.2949e-05
3.05771e-05
2.85338e-05
2.67723e-05
2.52434e-05
2.39037e-05
2.27221e-05
2.16764e-05
2.07476e-05
1.9927e-05
1.92497e-05
0.000663952
0.000488458
0.000404618
0.000347247
0.000305034
0.000272126
0.000245316
0.000222884
0.000203748
0.000187169
0.000172638
0.000159789
0.000148334
0.000138057
0.000128777
0.000120494
0.00011298
0.000106039
9.99868e-05
9.28948e-05
0.000786827
0.000662293
0.000567974
0.000495805
0.000439462
0.000394561
0.000357972
0.000327448
0.000301485
0.000279042
0.000259385
0.000241984
0.000226446
0.000212474
0.000199836
0.000188353
0.000177873
0.000168246
0.000159338
0.000149873
0.000809324
0.000713906
0.000631505
0.000562574
0.000505377
0.000457786
0.000417841
0.00038394
0.000354804
0.00032945
0.000307157
0.000287381
0.000269704
0.000253803
0.000239421
0.000226342
0.000214402
0.000203432
0.000193216
0.000183106
0.000814958
0.000730426
0.000654634
0.000589044
0.000533068
0.000485439
0.000444765
0.000409796
0.000379474
0.000352937
0.0003295
0.000308642
0.000289959
0.000273129
0.000257893
0.000244033
0.000231369
0.000219722
0.000208858
0.000198402
0.000814958
0.000730426
0.000654634
0.000589044
0.000533067
0.000485439
0.000444764
0.000409794
0.000379471
0.000352934
0.000329495
0.000308634
0.000289947
0.000273108
0.000257857
0.000243986
0.000231301
0.000219619
0.000208679
0.00019793
0.000809324
0.000713906
0.000631504
0.000562574
0.000505377
0.000457785
0.00041784
0.000383937
0.000354801
0.000329445
0.000307148
0.000287368
0.000269683
0.000253765
0.000239362
0.000226261
0.000214281
0.000203244
0.000192891
0.000182326
0.000786827
0.000662293
0.000567974
0.000495805
0.000439463
0.000394561
0.000357973
0.000327448
0.000301485
0.000279043
0.000259386
0.000241986
0.000226449
0.000212477
0.000199835
0.000188355
0.000177879
0.000168255
0.000159349
0.000149889
0.000663952
0.000488458
0.000404619
0.000347248
0.000305035
0.000272127
0.000245318
0.000222888
0.000203754
0.000187177
0.000172652
0.000159812
0.000148372
0.000138127
0.000128888
0.000120662
0.000113256
0.000106502
0.000100751
9.40609e-05
0.000160509
0.00010736
8.07408e-05
6.55975e-05
5.54896e-05
4.83025e-05
4.3131e-05
3.90791e-05
3.57392e-05
3.29498e-05
3.05783e-05
2.85355e-05
2.67751e-05
2.5248e-05
2.39113e-05
2.27338e-05
2.16947e-05
2.0776e-05
1.99701e-05
1.93215e-05
0.000198681
0.0001383
0.000105187
8.55269e-05
7.25012e-05
6.28901e-05
5.6061e-05
5.07591e-05
4.63877e-05
4.27213e-05
3.96245e-05
3.69542e-05
3.46315e-05
3.26e-05
3.08133e-05
2.92346e-05
2.78318e-05
2.65796e-05
2.54651e-05
2.4563e-05
0.00071288
0.000556432
0.000466397
0.000402355
0.000354425
0.00031705
0.000286673
0.000261253
0.000239578
0.000220841
0.000204436
0.000189938
0.000177025
0.000165437
0.000154953
0.000145458
0.000136782
0.000128793
0.000121396
0.000114949
0.000809324
0.000713906
0.000631504
0.000562573
0.000505377
0.000457785
0.00041784
0.000383937
0.0003548
0.000329444
0.000307148
0.000287367
0.000269683
0.000253767
0.000239358
0.000226258
0.000214277
0.00020324
0.000192887
0.000182317
0.000823497
0.000753987
0.000688491
0.000628748
0.000575387
0.000528266
0.000486845
0.000450441
0.000418361
0.000389971
0.000364723
0.000342156
0.000321885
0.000303591
0.000287009
0.000271911
0.000258097
0.00024535
0.000233318
0.000221048
0.000826292
0.000764347
0.000706102
0.000651937
0.000602231
0.000557104
0.000516428
0.000479913
0.000447182
0.000417834
0.000391477
0.000367752
0.000346335
0.000326944
0.000309328
0.000293268
0.000278557
0.000264955
0.000252059
0.000238912
0.000826292
0.000764347
0.000706102
0.000651937
0.00060223
0.000557104
0.000516428
0.000479912
0.000447181
0.000417833
0.000391476
0.00036775
0.000346332
0.000326938
0.000309319
0.000293256
0.00027854
0.00026493
0.000252019
0.000238826
0.000823497
0.000753987
0.000688491
0.000628748
0.000575387
0.000528266
0.000486845
0.000450441
0.000418361
0.000389971
0.000364724
0.000342156
0.000321886
0.000303592
0.000287009
0.000271912
0.000258099
0.000245353
0.000233323
0.000221056
0.000809324
0.000713906
0.000631505
0.000562574
0.000505377
0.000457786
0.000417841
0.00038394
0.000354805
0.000329451
0.000307158
0.000287382
0.000269707
0.000253807
0.000239419
0.000226344
0.000214406
0.000203439
0.000193226
0.000183127
0.00071288
0.000556432
0.000466397
0.000402355
0.000354426
0.000317051
0.000286676
0.000261258
0.000239585
0.000220851
0.000204453
0.000189965
0.000177072
0.000165523
0.000155095
0.000145661
0.000137095
0.000129285
0.000122142
0.000115914
0.000198681
0.0001383
0.000105187
8.55269e-05
7.25012e-05
6.28902e-05
5.60612e-05
5.07594e-05
4.63882e-05
4.27221e-05
3.96257e-05
3.69561e-05
3.46346e-05
3.26053e-05
3.08219e-05
2.92474e-05
2.78515e-05
2.66094e-05
2.55023e-05
2.45339e-05
0.000218609
0.000155003
0.000118661
9.65069e-05
8.18824e-05
7.08356e-05
6.30856e-05
5.71435e-05
5.22485e-05
4.80965e-05
4.4583e-05
4.15727e-05
3.89534e-05
3.66603e-05
3.46411e-05
3.28544e-05
3.12651e-05
2.98456e-05
2.85804e-05
2.75243e-05
0.000728543
0.000588231
0.000496002
0.000429132
0.00037851
0.000338935
0.000306819
0.000279974
0.000257074
0.000237258
0.000219913
0.000204582
0.000190923
0.000178665
0.00016759
0.000157559
0.000148409
0.000140017
0.000132264
0.000125129
0.000814958
0.000730426
0.000654634
0.000589044
0.000533067
0.000485439
0.000444764
0.000409794
0.000379471
0.000352934
0.000329495
0.000308634
0.000289947
0.000273109
0.000257855
0.000243985
0.000231301
0.000219619
0.000208678
0.000197932
0.000826292
0.000764347
0.000706102
0.000651937
0.00060223
0.000557104
0.000516428
0.000479912
0.000447181
0.000417833
0.000391476
0.00036775
0.000346332
0.000326938
0.000309319
0.000293256
0.00027854
0.00026493
0.000252018
0.000238828
0.000828382
0.0007726
0.000721138
0.00067296
0.000627782
0.00058562
0.000546547
0.000510579
0.000477649
0.000447615
0.000420287
0.000395446
0.000372863
0.000352314
0.000333585
0.000316468
0.000300753
0.000286167
0.000272183
0.000257382
0.000828382
0.0007726
0.000721138
0.00067296
0.000627782
0.00058562
0.000546547
0.000510579
0.000477649
0.000447615
0.000420287
0.000395446
0.000372863
0.000352315
0.000333585
0.000316468
0.000300754
0.000286168
0.000272184
0.000257381
0.000826292
0.000764347
0.000706102
0.000651937
0.000602231
0.000557104
0.000516428
0.000479913
0.000447182
0.000417834
0.000391478
0.000367753
0.000346336
0.000326944
0.000309328
0.000293269
0.000278558
0.000264957
0.000252063
0.000238905
0.000814958
0.000730426
0.000654634
0.000589044
0.000533068
0.000485439
0.000444765
0.000409796
0.000379474
0.000352938
0.000329501
0.000308643
0.00028996
0.000273131
0.000257893
0.000244035
0.000231371
0.000219724
0.000208862
0.0001984
0.000728543
0.000588231
0.000496002
0.000429132
0.00037851
0.000338936
0.00030682
0.000279977
0.000257078
0.000237263
0.000219921
0.000204595
0.000190942
0.000178703
0.000167661
0.000157654
0.000148546
0.000140218
0.000132553
0.000125442
0.000218609
0.000155003
0.000118661
9.65069e-05
8.18824e-05
7.08356e-05
6.30857e-05
5.71437e-05
5.22487e-05
4.80968e-05
4.45836e-05
4.15736e-05
3.89548e-05
3.66627e-05
3.46453e-05
3.28605e-05
3.12741e-05
2.98585e-05
2.85957e-05
2.75188e-05
0.000218609
0.000155003
0.000118661
9.65069e-05
8.18824e-05
7.08356e-05
6.30857e-05
5.71437e-05
5.22487e-05
4.80968e-05
4.45835e-05
4.15735e-05
3.89548e-05
3.66627e-05
3.46452e-05
3.28604e-05
3.12741e-05
2.98586e-05
2.85958e-05
2.75188e-05
0.000728543
0.000588231
0.000496002
0.000429132
0.00037851
0.000338936
0.00030682
0.000279976
0.000257077
0.000237263
0.000219921
0.000204595
0.000190944
0.000178701
0.00016766
0.000157654
0.000148548
0.000140223
0.000132562
0.00012546
0.000814958
0.000730426
0.000654634
0.000589044
0.000533068
0.000485439
0.000444765
0.000409795
0.000379474
0.000352937
0.0003295
0.000308643
0.00028996
0.00027313
0.000257892
0.000244034
0.000231371
0.000219725
0.000208861
0.000198399
0.000826292
0.000764347
0.000706102
0.000651937
0.000602231
0.000557104
0.000516428
0.000479913
0.000447182
0.000417834
0.000391477
0.000367752
0.000346335
0.000326944
0.000309329
0.000293268
0.000278557
0.000264956
0.000252061
0.000238915
0.000828382
0.0007726
0.000721138
0.00067296
0.000627782
0.00058562
0.000546547
0.000510579
0.000477649
0.000447615
0.000420287
0.000395446
0.000372863
0.000352314
0.000333585
0.000316468
0.000300753
0.000286167
0.000272183
0.000257375
0.000828382
0.0007726
0.000721138
0.00067296
0.000627782
0.00058562
0.000546547
0.000510579
0.000477649
0.000447615
0.000420287
0.000395446
0.000372863
0.000352315
0.000333585
0.000316468
0.000300754
0.000286168
0.000272184
0.000257376
0.000826292
0.000764347
0.000706102
0.000651937
0.000602231
0.000557104
0.000516428
0.000479912
0.000447181
0.000417833
0.000391476
0.00036775
0.000346332
0.000326938
0.00030932
0.000293257
0.00027854
0.000264931
0.000252019
0.000238804
0.000814958
0.000730426
0.000654634
0.000589044
0.000533067
0.000485439
0.000444764
0.000409794
0.000379472
0.000352934
0.000329495
0.000308634
0.000289945
0.000273107
0.000257861
0.000243987
0.000231301
0.000219617
0.000208673
0.000197898
0.000728543
0.000588231
0.000496002
0.000429132
0.00037851
0.000338935
0.000306819
0.000279974
0.000257075
0.000237259
0.000219913
0.000204582
0.00019092
0.000178658
0.000167601
0.000157565
0.000148412
0.000140017
0.000132258
0.000125102
0.000218609
0.000155003
0.000118661
9.65069e-05
8.18824e-05
7.08356e-05
6.30856e-05
5.71435e-05
5.22485e-05
4.80965e-05
4.4583e-05
4.15727e-05
3.89533e-05
3.66601e-05
3.46414e-05
3.28546e-05
3.12653e-05
2.98458e-05
2.85806e-05
2.75256e-05
0.000198681
0.0001383
0.000105187
8.55269e-05
7.25012e-05
6.28902e-05
5.60611e-05
5.07594e-05
4.63882e-05
4.2722e-05
3.96257e-05
3.69561e-05
3.46345e-05
3.26051e-05
3.0822e-05
2.92476e-05
2.78517e-05
2.66096e-05
2.55027e-05
2.45344e-05
0.00071288
0.000556432
0.000466397
0.000402355
0.000354426
0.000317051
0.000286676
0.000261258
0.000239585
0.000220851
0.000204452
0.000189965
0.00017707
0.000165514
0.000155103
0.000145665
0.000137099
0.00012929
0.000122148
0.000115922
0.000809324
0.000713906
0.000631505
0.000562574
0.000505377
0.000457786
0.000417841
0.00038394
0.000354804
0.00032945
0.000307157
0.000287381
0.000269705
0.000253804
0.000239422
0.000226344
0.000214405
0.000203437
0.000193224
0.000183119
0.000823497
0.000753987
0.000688491
0.000628748
0.000575387
0.000528266
0.000486845
0.000450441
0.000418361
0.000389971
0.000364723
0.000342156
0.000321885
0.000303591
0.00028701
0.000271912
0.000258098
0.000245352
0.000233323
0.000221052
0.000826292
0.000764347
0.000706102
0.000651937
0.00060223
0.000557104
0.000516428
0.000479912
0.000447181
0.000417833
0.000391476
0.00036775
0.000346332
0.000326938
0.00030932
0.000293256
0.00027854
0.00026493
0.000252018
0.000238815
0.000826292
0.000764347
0.000706102
0.000651937
0.000602231
0.000557104
0.000516428
0.000479913
0.000447182
0.000417834
0.000391478
0.000367752
0.000346336
0.000326944
0.000309329
0.000293268
0.000278557
0.000264956
0.000252061
0.000238909
0.000823497
0.000753987
0.000688491
0.000628748
0.000575387
0.000528266
0.000486845
0.000450441
0.000418361
0.000389971
0.000364723
0.000342156
0.000321886
0.000303592
0.000287009
0.000271911
0.000258098
0.000245352
0.000233322
0.000221039
0.000809324
0.000713906
0.000631504
0.000562574
0.000505377
0.000457785
0.00041784
0.000383937
0.000354801
0.000329445
0.000307148
0.000287367
0.000269682
0.000253766
0.000239362
0.00022626
0.000214278
0.000203239
0.000192883
0.000182304
0.00071288
0.000556432
0.000466397
0.000402355
0.000354425
0.00031705
0.000286673
0.000261253
0.000239579
0.000220841
0.000204437
0.000189938
0.000177024
0.000165427
0.000154965
0.000145466
0.000136788
0.000128798
0.000121399
0.000114953
0.000198681
0.0001383
0.000105187
8.55269e-05
7.25012e-05
6.28901e-05
5.6061e-05
5.07591e-05
4.63878e-05
4.27214e-05
3.96245e-05
3.69542e-05
3.46314e-05
3.25998e-05
3.08137e-05
2.92349e-05
2.78322e-05
2.658e-05
2.54654e-05
2.45632e-05
0.000160509
0.00010736
8.07408e-05
6.55975e-05
5.54896e-05
4.83025e-05
4.31309e-05
3.9079e-05
3.57392e-05
3.29498e-05
3.05782e-05
2.85355e-05
2.6775e-05
2.52478e-05
2.39114e-05
2.27339e-05
2.16948e-05
2.07761e-05
1.99702e-05
1.9322e-05
0.000663952
0.000488458
0.000404619
0.000347248
0.000305035
0.000272127
0.000245317
0.000222888
0.000203754
0.000187177
0.000172651
0.00015981
0.000148369
0.000138116
0.000128896
0.000120665
0.000113256
0.000106501
0.000100743
9.40517e-05
0.000786827
0.000662293
0.000567974
0.000495805
0.000439462
0.000394561
0.000357972
0.000327448
0.000301485
0.000279042
0.000259385
0.000241984
0.000226446
0.000212473
0.000199838
0.000188355
0.000177874
0.000168247
0.000159341
0.000149882
0.000809324
0.000713906
0.000631504
0.000562573
0.000505377
0.000457785
0.00041784
0.000383937
0.0003548
0.000329444
0.000307148
0.000287366
0.000269682
0.000253766
0.000239359
0.000226258
0.000214276
0.000203237
0.000192883
0.000182315
0.000814958
0.000730426
0.000654634
0.000589044
0.000533067
0.000485439
0.000444764
0.000409794
0.000379471
0.000352934
0.000329495
0.000308634
0.000289947
0.000273108
0.000257856
0.000243984
0.000231299
0.000219615
0.000208672
0.000197921
0.000814958
0.000730426
0.000654634
0.000589044
0.000533068
0.000485439
0.000444765
0.000409795
0.000379474
0.000352937
0.0003295
0.000308643
0.00028996
0.00027313
0.000257892
0.000244033
0.00023137
0.000219723
0.000208859
0.000198404
0.000809324
0.000713906
0.000631505
0.000562574
0.000505377
0.000457786
0.000417841
0.00038394
0.000354804
0.00032945
0.000307157
0.000287381
0.000269706
0.000253806
0.000239418
0.000226343
0.000214405
0.000203437
0.000193224
0.000183112
0.000786827
0.000662293
0.000567974
0.000495805
0.000439463
0.000394561
0.000357972
0.000327448
0.000301485
0.000279042
0.000259386
0.000241985
0.000226448
0.000212477
0.000199835
0.000188354
0.000177876
0.000168251
0.000159342
0.000149878
0.000663952
0.000488458
0.000404618
0.000347247
0.000305035
0.000272126
0.000245315
0.000222885
0.000203749
0.000187169
0.000172639
0.00015979
0.000148335
0.000138052
0.000128783
0.000120499
0.000112987
0.000106048
9.99887e-05
9.29725e-05
0.000160509
0.00010736
8.07408e-05
6.55975e-05
5.54895e-05
4.83025e-05
4.31308e-05
3.90788e-05
3.57388e-05
3.29491e-05
3.05772e-05
2.85338e-05
2.67723e-05
2.52433e-05
2.3904e-05
2.27223e-05
2.16767e-05
2.0748e-05
1.99274e-05
1.92504e-05
0.000107685
6.77183e-05
5.06311e-05
4.14159e-05
3.54048e-05
3.10366e-05
2.77136e-05
2.50814e-05
2.29331e-05
2.11502e-05
1.965e-05
1.83703e-05
1.72617e-05
1.62919e-05
1.54477e-05
1.47185e-05
1.40818e-05
1.35222e-05
1.30323e-05
1.26133e-05
0.000528907
0.000369984
0.000305096
0.00026137
0.000228527
0.000202473
0.000181111
0.000163069
0.000147531
0.000133972
0.000122031
0.000111438
0.000102094
9.38012e-05
8.63758e-05
7.95273e-05
7.32543e-05
6.75943e-05
6.31798e-05
5.48203e-05
0.000663952
0.000488458
0.000404618
0.000347247
0.000305034
0.000272126
0.000245316
0.000222884
0.000203748
0.000187168
0.000172637
0.000159788
0.000148333
0.000138055
0.000128776
0.000120493
0.000112978
0.000106035
9.99814e-05
9.28805e-05
0.00071288
0.000556432
0.000466397
0.000402355
0.000354425
0.00031705
0.000286674
0.000261253
0.000239578
0.000220841
0.000204436
0.000189937
0.000177025
0.000165436
0.000154952
0.000145457
0.000136781
0.00012879
0.00012139
0.000114941
0.000728543
0.000588231
0.000496002
0.000429132
0.00037851
0.000338935
0.000306819
0.000279974
0.000257074
0.000237258
0.000219913
0.000204582
0.000190923
0.000178666
0.000167589
0.000157558
0.000148408
0.000140016
0.00013226
0.000125127
0.000728543
0.000588231
0.000496002
0.000429132
0.00037851
0.000338936
0.00030682
0.000279976
0.000257077
0.000237263
0.000219921
0.000204595
0.000190944
0.000178703
0.000167659
0.000157654
0.000148548
0.000140223
0.000132562
0.000125465
0.00071288
0.000556432
0.000466397
0.000402355
0.000354426
0.000317051
0.000286676
0.000261257
0.000239585
0.000220851
0.000204453
0.000189965
0.000177072
0.000165522
0.000155095
0.000145662
0.000137097
0.000129289
0.000122148
0.000115922
0.000663952
0.000488458
0.000404619
0.000347248
0.000305035
0.000272127
0.000245318
0.000222888
0.000203754
0.000187177
0.000172651
0.000159811
0.000148371
0.000138127
0.000128887
0.00012066
0.000113254
0.000106499
0.000100741
9.40589e-05
0.000528907
0.000369984
0.000305096
0.00026137
0.000228527
0.000202474
0.000181111
0.000163069
0.000147531
0.000133972
0.000122031
0.000111439
0.000102095
9.38063e-05
8.63739e-05
7.95279e-05
7.32573e-05
6.75989e-05
6.31845e-05
5.48477e-05
0.000107685
6.77183e-05
5.06311e-05
4.14158e-05
3.54048e-05
3.10366e-05
2.77136e-05
2.50814e-05
2.29331e-05
2.11501e-05
1.96497e-05
1.83699e-05
1.72609e-05
1.62897e-05
1.54441e-05
1.47128e-05
1.40721e-05
1.35063e-05
1.30146e-05
1.26157e-05
4.5356e-05
2.3208e-05
1.65396e-05
1.36493e-05
1.18966e-05
1.06843e-05
9.76071e-06
9.05703e-06
8.49459e-06
8.03113e-06
7.64021e-06
7.31168e-06
7.02371e-06
6.75892e-06
6.52623e-06
6.32302e-06
6.1441e-06
5.98524e-06
5.84396e-06
5.69282e-06
0.000107685
6.77183e-05
5.06311e-05
4.14158e-05
3.54048e-05
3.10366e-05
2.77136e-05
2.50814e-05
2.29331e-05
2.11501e-05
1.96497e-05
1.83699e-05
1.72608e-05
1.62897e-05
1.5444e-05
1.47127e-05
1.40719e-05
1.35058e-05
1.3014e-05
1.2614e-05
0.000160509
0.00010736
8.07408e-05
6.55975e-05
5.54895e-05
4.83025e-05
4.31308e-05
3.90788e-05
3.57388e-05
3.2949e-05
3.05771e-05
2.85338e-05
2.67723e-05
2.52434e-05
2.39037e-05
2.2722e-05
2.16764e-05
2.07476e-05
1.99268e-05
1.92493e-05
0.000198681
0.0001383
0.000105187
8.55269e-05
7.25012e-05
6.28901e-05
5.6061e-05
5.07591e-05
4.63877e-05
4.27213e-05
3.96245e-05
3.69542e-05
3.46315e-05
3.26e-05
3.08133e-05
2.92346e-05
2.78318e-05
2.65796e-05
2.54651e-05
2.45633e-05
0.000218609
0.000155003
0.000118661
9.65069e-05
8.18824e-05
7.08356e-05
6.30856e-05
5.71435e-05
5.22485e-05
4.80965e-05
4.4583e-05
4.15727e-05
3.89534e-05
3.66603e-05
3.46412e-05
3.28544e-05
3.12651e-05
2.98457e-05
2.85806e-05
2.75251e-05
0.000218609
0.000155003
0.000118661
9.65069e-05
8.18824e-05
7.08356e-05
6.30857e-05
5.71437e-05
5.22487e-05
4.80968e-05
4.45836e-05
4.15736e-05
3.89548e-05
3.66628e-05
3.46453e-05
3.28605e-05
3.12742e-05
2.98587e-05
2.85959e-05
2.75191e-05
0.000198681
0.0001383
0.000105187
8.55269e-05
7.25012e-05
6.28902e-05
5.60612e-05
5.07594e-05
4.63882e-05
4.2722e-05
3.96257e-05
3.69561e-05
3.46346e-05
3.26053e-05
3.08219e-05
2.92475e-05
2.78516e-05
2.66096e-05
2.55026e-05
2.45347e-05
0.000160509
0.00010736
8.07408e-05
6.55975e-05
5.54896e-05
4.83025e-05
4.3131e-05
3.9079e-05
3.57392e-05
3.29498e-05
3.05782e-05
2.85355e-05
2.67751e-05
2.5248e-05
2.39112e-05
2.27338e-05
2.16947e-05
2.0776e-05
1.99699e-05
1.93202e-05
0.000107685
6.77183e-05
5.06311e-05
4.14159e-05
3.54048e-05
3.10366e-05
2.77136e-05
2.50815e-05
2.29331e-05
2.11502e-05
1.965e-05
1.83704e-05
1.72617e-05
1.62921e-05
1.54477e-05
1.47185e-05
1.40818e-05
1.35222e-05
1.30324e-05
1.2614e-05
4.5356e-05
2.3208e-05
1.65396e-05
1.36493e-05
1.18966e-05
1.06844e-05
9.76071e-06
9.05703e-06
8.49459e-06
8.03114e-06
7.64021e-06
7.3117e-06
7.0237e-06
6.75898e-06
6.52623e-06
6.32304e-06
6.14413e-06
5.98531e-06
5.84412e-06
5.69325e-06
4.81418e-06
4.65912e-06
4.50179e-06
4.39173e-06
4.30737e-06
4.24966e-06
4.20101e-06
4.15535e-06
4.11149e-06
4.07153e-06
4.0348e-06
4.00198e-06
3.96714e-06
3.93168e-06
3.8984e-06
3.86516e-06
3.83413e-06
3.80337e-06
3.77422e-06
3.74618e-06
3.71836e-06
3.69065e-06
3.66424e-06
3.63683e-06
3.61286e-06
3.58859e-06
3.56511e-06
3.54198e-06
3.51984e-06
3.49708e-06
3.47674e-06
3.45628e-06
3.43685e-06
3.41822e-06
3.39982e-06
3.38308e-06
3.36736e-06
3.35221e-06
3.33984e-06
3.31799e-06
1.02488e-05
9.72739e-06
9.3999e-06
9.16146e-06
8.96224e-06
8.81206e-06
8.68184e-06
8.55559e-06
8.42867e-06
8.31312e-06
8.20786e-06
8.11874e-06
8.0287e-06
7.94217e-06
7.85735e-06
7.77417e-06
7.69686e-06
7.62313e-06
7.55349e-06
7.48775e-06
7.42358e-06
7.36124e-06
7.30204e-06
7.24333e-06
7.18918e-06
7.13861e-06
7.08927e-06
7.04109e-06
6.99403e-06
6.94735e-06
6.90297e-06
6.86035e-06
6.81926e-06
6.77976e-06
6.74179e-06
6.70576e-06
6.6719e-06
6.63954e-06
6.60971e-06
6.57603e-06
1.52059e-05
1.48228e-05
1.44066e-05
1.3953e-05
1.36077e-05
1.32978e-05
1.30233e-05
1.2781e-05
1.25606e-05
1.2354e-05
1.21613e-05
1.19823e-05
1.18191e-05
1.16774e-05
1.15254e-05
1.13825e-05
1.12524e-05
1.11308e-05
1.10158e-05
1.09046e-05
1.07985e-05
1.06908e-05
1.05895e-05
1.0493e-05
1.04085e-05
1.03281e-05
1.02493e-05
1.01728e-05
1.00989e-05
1.00271e-05
9.9583e-06
9.89062e-06
9.82566e-06
9.76379e-06
9.70477e-06
9.6487e-06
9.59519e-06
9.5435e-06
9.49446e-06
9.44385e-06
1.96251e-05
1.90498e-05
1.84871e-05
1.7969e-05
1.74866e-05
1.70459e-05
1.66429e-05
1.62798e-05
1.59435e-05
1.56326e-05
1.53446e-05
1.50763e-05
1.48233e-05
1.4596e-05
1.43833e-05
1.4184e-05
1.39964e-05
1.38247e-05
1.36536e-05
1.34819e-05
1.33244e-05
1.31798e-05
1.30396e-05
1.29051e-05
1.27797e-05
1.26619e-05
1.255e-05
1.24444e-05
1.23427e-05
1.22447e-05
1.21527e-05
1.20613e-05
1.19704e-05
1.18893e-05
1.18086e-05
1.17353e-05
1.16643e-05
1.15958e-05
1.15311e-05
1.14633e-05
2.28095e-05
2.20434e-05
2.133e-05
2.06746e-05
2.00755e-05
1.95288e-05
1.90328e-05
1.85791e-05
1.81593e-05
1.77701e-05
1.74088e-05
1.70718e-05
1.67547e-05
1.64664e-05
1.61975e-05
1.59495e-05
1.57167e-05
1.54972e-05
1.52904e-05
1.50961e-05
1.49152e-05
1.47426e-05
1.45657e-05
1.44014e-05
1.42509e-05
1.41087e-05
1.39751e-05
1.38487e-05
1.37285e-05
1.36145e-05
1.35075e-05
1.34039e-05
1.32966e-05
1.32064e-05
1.31129e-05
1.30267e-05
1.29427e-05
1.28629e-05
1.27882e-05
1.27183e-05
2.42303e-05
2.32896e-05
2.24571e-05
2.17103e-05
2.10371e-05
2.04266e-05
1.98725e-05
1.93682e-05
1.89032e-05
1.84717e-05
1.80714e-05
1.76995e-05
1.73514e-05
1.70319e-05
1.67348e-05
1.64582e-05
1.62008e-05
1.59648e-05
1.57442e-05
1.55382e-05
1.53459e-05
1.51676e-05
1.49967e-05
1.48443e-05
1.46813e-05
1.45223e-05
1.43763e-05
1.42412e-05
1.41174e-05
1.40001e-05
1.38891e-05
1.37843e-05
1.36842e-05
1.35721e-05
1.34883e-05
1.33854e-05
1.33117e-05
1.32264e-05
1.31523e-05
1.30815e-05
2.32427e-05
2.23258e-05
2.15096e-05
2.07767e-05
2.01144e-05
1.95106e-05
1.89618e-05
1.84626e-05
1.80057e-05
1.75867e-05
1.72025e-05
1.68491e-05
1.65225e-05
1.6222e-05
1.5944e-05
1.56861e-05
1.5447e-05
1.52255e-05
1.50215e-05
1.48318e-05
1.46559e-05
1.44909e-05
1.43317e-05
1.41871e-05
1.40312e-05
1.38868e-05
1.3754e-05
1.36297e-05
1.35147e-05
1.33997e-05
1.32917e-05
1.31938e-05
1.30861e-05
1.30005e-05
1.29019e-05
1.28263e-05
1.27482e-05
1.26725e-05
1.25993e-05
1.25297e-05
2.01815e-05
1.93952e-05
1.86926e-05
1.80425e-05
1.74563e-05
1.69247e-05
1.64499e-05
1.60274e-05
1.56517e-05
1.53129e-05
1.50057e-05
1.47218e-05
1.44586e-05
1.42158e-05
1.39913e-05
1.37827e-05
1.35902e-05
1.34111e-05
1.32445e-05
1.3089e-05
1.29468e-05
1.28071e-05
1.26701e-05
1.25387e-05
1.24215e-05
1.23065e-05
1.21977e-05
1.20934e-05
1.19893e-05
1.18834e-05
1.17868e-05
1.17013e-05
1.16222e-05
1.15437e-05
1.14679e-05
1.13951e-05
1.13245e-05
1.12562e-05
1.11909e-05
1.11281e-05
1.5624e-05
1.50263e-05
1.44948e-05
1.39591e-05
1.35044e-05
1.31186e-05
1.27914e-05
1.25191e-05
1.22731e-05
1.20465e-05
1.18398e-05
1.16484e-05
1.14743e-05
1.13103e-05
1.11659e-05
1.10099e-05
1.08639e-05
1.07354e-05
1.06141e-05
1.0501e-05
1.03932e-05
1.02903e-05
1.01941e-05
1.00957e-05
1.00073e-05
9.91875e-06
9.83403e-06
9.75356e-06
9.67856e-06
9.60415e-06
9.53579e-06
9.4706e-06
9.40864e-06
9.34879e-06
9.29187e-06
9.2376e-06
9.18434e-06
9.13232e-06
9.08336e-06
9.03513e-06
1.0342e-05
9.92101e-06
9.5072e-06
9.1892e-06
8.94082e-06
8.74713e-06
8.58726e-06
8.44946e-06
8.31339e-06
8.18642e-06
8.08335e-06
7.98809e-06
7.89657e-06
7.79362e-06
7.70116e-06
7.61221e-06
7.52786e-06
7.44892e-06
7.37355e-06
7.30335e-06
7.23626e-06
7.17238e-06
7.11216e-06
7.05092e-06
6.99477e-06
6.94144e-06
6.89006e-06
6.84025e-06
6.79227e-06
6.74399e-06
6.69989e-06
6.65781e-06
6.61757e-06
6.57915e-06
6.54273e-06
6.50762e-06
6.47456e-06
6.44321e-06
6.41514e-06
6.38375e-06
4.81352e-06
4.65749e-06
4.50109e-06
4.38965e-06
4.30929e-06
4.25357e-06
4.20463e-06
4.15957e-06
4.11517e-06
4.07303e-06
4.03719e-06
4.00137e-06
3.96559e-06
3.92974e-06
3.89549e-06
3.86241e-06
3.83066e-06
3.79989e-06
3.77053e-06
3.74235e-06
3.71464e-06
3.68694e-06
3.661e-06
3.63389e-06
3.61029e-06
3.58599e-06
3.56284e-06
3.53987e-06
3.51797e-06
3.49562e-06
3.47544e-06
3.45523e-06
3.43614e-06
3.41783e-06
3.40033e-06
3.38379e-06
3.36793e-06
3.35299e-06
3.34048e-06
3.31853e-06
1.03437e-05
9.92278e-06
9.51093e-06
9.19412e-06
8.9346e-06