/*--------------------------------*- C++ -*----------------------------------*\
| =========                 |                                                 |
| \\      /  F ield         | OpenFOAM: The Open Source CFD Toolbox           |
|  \\    /   O peration     | Version:  2212                                  |
|   \\  /    A nd           | Website:  www.openfoam.com                      |
|    \\/     M anipulation  |                                                 |
\*---------------------------------------------------------------------------*/
FoamFile
{
    version     2.0;
    format      ascii;
    arch        "LSB;label=32;scalar=64";
    class       volScalarField;
    location    "3";
    object      p;
}
// * * * * * * * * * * * * * * * * * * * * * * * * * * * * * * * * * * * * * //

dimensions      [0 2 -2 0 0 0 0];

internalField   nonuniform List<scalar> 
6840
(
0.0177977
0.0106833
0.00839185
0.00785404
0.00757969
0.00735751
0.00717094
0.00700459
0.00684356
0.00668432
0.00652699
0.00637151
0.00621704
0.00606261
0.0059084
0.00575517
0.00560338
0.00545345
0.00530406
0.00513939
0.0106189
0.00988507
0.00879218
0.00812621
0.00772363
0.00744992
0.00723878
0.0070526
0.00687826
0.00671102
0.00654843
0.00638878
0.00623062
0.00607309
0.00591618
0.00576036
0.00560477
0.0054451
0.00527238
0.00506767
0.0102706
0.00941912
0.00865485
0.00809572
0.00771956
0.00745151
0.0072358
0.00704281
0.00686427
0.00669555
0.00653173
0.00637055
0.00621138
0.00605383
0.00589709
0.00573978
0.00558015
0.00541565
0.00524484
0.00505987
0.00986133
0.0090986
0.00847983
0.00802849
0.0076845
0.00741542
0.00719571
0.00700674
0.00683863
0.00668074
0.00652434
0.00636786
0.00621183
0.00605654
0.00590179
0.00574716
0.00559219
0.00543681
0.00528225
0.00513058
0.0097271
0.00898591
0.00839773
0.00798959
0.0076676
0.00740081
0.00717915
0.00698828
0.00681715
0.00665984
0.00650896
0.00635748
0.00620433
0.00605098
0.00589841
0.00574709
0.00559723
0.00544916
0.00530334
0.00516183
0.0097271
0.00898592
0.00839774
0.00798961
0.00766763
0.00740086
0.00717923
0.00698843
0.0068174
0.00666026
0.00650966
0.00635864
0.00620627
0.00605415
0.00590351
0.00575507
0.00560957
0.00546763
0.0053282
0.00519254
0.00986134
0.00909862
0.00847985
0.00802853
0.00768456
0.00741552
0.00719591
0.0070071
0.00683927
0.00668182
0.00652615
0.00637083
0.00621664
0.00606428
0.00591428
0.00576735
0.00562468
0.00548751
0.00535464
0.00522436
0.0102706
0.00941913
0.00865487
0.00809575
0.00771961
0.00745162
0.00723602
0.00704319
0.00686492
0.00669667
0.00653367
0.00637378
0.00621666
0.00606245
0.00591133
0.00576362
0.00562057
0.00548408
0.0053551
0.00523568
0.0106189
0.00988506
0.00879218
0.00812621
0.00772365
0.00744996
0.00723886
0.00705275
0.00687853
0.00671153
0.00654928
0.0063902
0.00623312
0.00607774
0.00592465
0.00577504
0.00562937
0.00548753
0.00535034
0.00521446
0.0177977
0.0106833
0.00839185
0.00785403
0.00757968
0.0073575
0.00717093
0.00700458
0.00684354
0.0066843
0.00652697
0.00637147
0.00621699
0.00606255
0.00590833
0.00575507
0.00560327
0.00545332
0.00530392
0.0051392
0.0106189
0.00988507
0.00879218
0.00812622
0.00772366
0.00744997
0.00723887
0.00705276
0.00687855
0.00671155
0.00654931
0.00639024
0.00623317
0.0060778
0.00592473
0.00577514
0.0056295
0.00548767
0.00535051
0.00521467
0.00990234
0.00987064
0.00914243
0.00843195
0.00798563
0.00766974
0.00741094
0.00718341
0.00697906
0.00679104
0.00661389
0.00644405
0.00627882
0.0061167
0.00595745
0.00580087
0.00564729
0.00549833
0.00536452
0.00526617
0.00897686
0.00910305
0.00880018
0.00838398
0.00801686
0.00769824
0.00741972
0.00717931
0.00696678
0.0067723
0.00658914
0.00641405
0.00624509
0.00608047
0.00591881
0.00575914
0.00560095
0.0054444
0.00529236
0.00515513
0.00855846
0.00860197
0.0084364
0.00817347
0.00789309
0.00762174
0.00737071
0.0071443
0.00694116
0.00675434
0.00657696
0.00640585
0.00623951
0.00607696
0.00591708
0.00575886
0.00560165
0.00544517
0.00528964
0.00513735
0.00834247
0.00836429
0.00823708
0.00801955
0.0077871
0.00755791
0.00733504
0.00712179
0.00692088
0.00673331
0.0065565
0.00638698
0.00622303
0.00606333
0.00590641
0.00575175
0.00559949
0.00544962
0.00530193
0.00515583
0.00834248
0.00836431
0.00823711
0.00801961
0.00778718
0.00755801
0.0073352
0.00712203
0.0069212
0.00673386
0.0065575
0.00638868
0.00622576
0.00606762
0.0059131
0.00576154
0.00561339
0.00546994
0.00533145
0.00519387
0.0085585
0.00860201
0.00843646
0.00817355
0.00789321
0.0076219
0.00737096
0.00714467
0.00694178
0.00675561
0.00657942
0.00640997
0.00624564
0.00608567
0.0059301
0.00577911
0.00563301
0.00549273
0.00535822
0.00522402
0.00897687
0.00910307
0.00880021
0.00838402
0.00801691
0.00769834
0.0074199
0.00717965
0.0069674
0.00677337
0.00659085
0.00641673
0.00624932
0.00608734
0.00593003
0.00577718
0.00562944
0.00548826
0.00535456
0.00523158
0.00990233
0.00987063
0.00914242
0.00843194
0.00798562
0.00766973
0.00741093
0.0071834
0.00697905
0.00679102
0.00661386
0.00644401
0.00627878
0.00611665
0.00595739
0.00580078
0.00564718
0.00549821
0.00536438
0.005266
0.0106189
0.00988506
0.00879217
0.00812621
0.00772362
0.00744992
0.00723877
0.00705259
0.00687824
0.006711
0.00654841
0.00638875
0.00623058
0.00607305
0.00591612
0.00576027
0.00560467
0.00544499
0.00527225
0.00506753
0.0102706
0.00941914
0.00865488
0.00809576
0.00771962
0.00745163
0.00723603
0.00704321
0.00686493
0.00669669
0.00653369
0.00637381
0.0062167
0.00606251
0.0059114
0.00576371
0.00562068
0.00548422
0.00535526
0.00523588
0.00897688
0.00910308
0.00880022
0.00838403
0.00801692
0.00769835
0.00741991
0.00717966
0.00696742
0.00677339
0.00659087
0.00641676
0.00624935
0.00608738
0.00593009
0.00577725
0.00562952
0.00548836
0.00535467
0.00523169
0.00840738
0.00850836
0.00839682
0.00817138
0.00791566
0.00765732
0.00739902
0.00715757
0.00693995
0.00674008
0.00655306
0.00637585
0.00620602
0.0060416
0.0058814
0.00572456
0.00557037
0.00541893
0.00526969
0.00512078
0.00803937
0.00810743
0.00805505
0.00790809
0.00772324
0.00751815
0.00730753
0.0071007
0.0068997
0.00670744
0.00652508
0.00635082
0.00618269
0.00601932
0.00585972
0.00570299
0.00554824
0.00539493
0.00524311
0.00508994
0.00785628
0.00792072
0.00789125
0.00776639
0.00760736
0.00743366
0.00724736
0.00705932
0.00687315
0.00668968
0.00651047
0.00633654
0.00616825
0.00600493
0.00584591
0.00569081
0.00553851
0.00538824
0.00524087
0.00509308
0.00785629
0.00792072
0.00789126
0.00776644
0.00760746
0.0074338
0.00724752
0.00705952
0.00687342
0.00669011
0.00651114
0.00633752
0.00616961
0.00600679
0.00584863
0.00569472
0.00554362
0.00539475
0.00524798
0.00509794
0.00803939
0.00810745
0.00805509
0.00790816
0.00772336
0.00751829
0.0073077
0.00710094
0.00690007
0.00670806
0.00652613
0.00635247
0.00618511
0.00602281
0.00586485
0.00571016
0.0055577
0.00540815
0.00526057
0.00510861
0.00840738
0.00850835
0.00839681
0.00817137
0.00791566
0.00765731
0.00739901
0.00715756
0.00693994
0.00674007
0.00655305
0.00637583
0.00620599
0.00604157
0.00588137
0.00572453
0.00557034
0.00541888
0.00526965
0.00512076
0.00897685
0.00910304
0.00880017
0.00838397
0.00801685
0.00769823
0.00741971
0.0071793
0.00696676
0.00677228
0.00658912
0.00641403
0.00624506
0.00608043
0.00591877
0.00575909
0.00560089
0.00544434
0.00529229
0.00515502
0.0102706
0.00941911
0.00865485
0.00809572
0.00771955
0.0074515
0.00723579
0.0070428
0.00686426
0.00669553
0.00653171
0.00637052
0.00621135
0.0060538
0.00589705
0.00573972
0.00558008
0.00541557
0.00524474
0.00505975
0.00986135
0.00909863
0.00847986
0.00802854
0.00768457
0.00741554
0.00719592
0.00700712
0.00683928
0.00668184
0.00652617
0.00637086
0.00621668
0.00606433
0.00591434
0.00576742
0.00562478
0.00548763
0.00535479
0.00522453
0.00855851
0.00860202
0.00843647
0.00817356
0.00789322
0.00762192
0.00737097
0.00714469
0.0069418
0.00675563
0.00657944
0.00641
0.00624568
0.00608571
0.00593014
0.00577917
0.00563309
0.00549283
0.00535832
0.0052241
0.0080394
0.00810746
0.0080551
0.00790817
0.00772337
0.0075183
0.00730771
0.00710096
0.00690008
0.00670807
0.00652615
0.00635249
0.00618513
0.00602283
0.00586488
0.00571019
0.00555774
0.00540819
0.00526062
0.00510863
0.00774149
0.00780064
0.00778871
0.00769333
0.00755373
0.00738828
0.00720814
0.00702375
0.00683989
0.00665969
0.00648478
0.00631505
0.00614991
0.00598877
0.00583107
0.00567619
0.00552344
0.00537264
0.00522436
0.00507305
0.00759036
0.00765326
0.00765702
0.00758337
0.00746325
0.00731685
0.00715395
0.00698252
0.00680838
0.00663484
0.00646375
0.00629601
0.00613193
0.00597141
0.00581417
0.00565991
0.00550812
0.005359
0.00521445
0.00506749
0.00759037
0.00765326
0.00765703
0.00758338
0.00746327
0.00731688
0.007154
0.00698259
0.00680848
0.00663497
0.00646393
0.00629625
0.00613225
0.00597187
0.0058149
0.00566094
0.00550935
0.00536016
0.00521486
0.00506663
0.00774149
0.00780063
0.0077887
0.00769333
0.00755372
0.00738827
0.00720814
0.00702374
0.00683988
0.00665968
0.00648477
0.00631504
0.0061499
0.00598875
0.00583106
0.00567618
0.00552342
0.00537263
0.00522435
0.00507305
0.00803936
0.00810742
0.00805505
0.00790808
0.00772323
0.00751814
0.00730752
0.00710069
0.00689969
0.00670743
0.00652507
0.00635081
0.00618267
0.0060193
0.0058597
0.00570297
0.00554822
0.00539491
0.0052431
0.00508992
0.00855845
0.00860196
0.00843639
0.00817346
0.00789308
0.00762173
0.0073707
0.00714429
0.00694115
0.00675433
0.00657695
0.00640584
0.00623949
0.00607694
0.00591705
0.00575883
0.00560162
0.00544514
0.00528961
0.00513732
0.00986132
0.00909859
0.00847982
0.00802849
0.00768449
0.00741541
0.0071957
0.00700673
0.00683862
0.00668073
0.00652433
0.00636784
0.00621181
0.00605652
0.00590177
0.00574712
0.00559214
0.00543675
0.00528218
0.00513049
0.00972711
0.00898593
0.00839775
0.00798962
0.00766765
0.00740087
0.00717925
0.00698845
0.00681742
0.00666028
0.00650968
0.00635867
0.0062063
0.0060542
0.00590357
0.00575514
0.00560966
0.00546773
0.00532832
0.00519267
0.00834249
0.00836432
0.00823712
0.00801962
0.0077872
0.00755803
0.00733521
0.00712204
0.00692122
0.00673388
0.00655753
0.00638872
0.0062258
0.00606766
0.00591314
0.00576161
0.00561347
0.00547003
0.00533155
0.00519397
0.0078563
0.00792073
0.00789127
0.00776645
0.00760747
0.00743381
0.00724753
0.00705953
0.00687344
0.00669012
0.00651116
0.00633755
0.00616964
0.00600682
0.00584866
0.00569476
0.00554366
0.0053948
0.00524803
0.00509797
0.00759037
0.00765327
0.00765703
0.00758339
0.00746327
0.00731689
0.00715401
0.00698261
0.00680849
0.00663499
0.00646394
0.00629626
0.00613226
0.00597189
0.00581491
0.00566095
0.00550937
0.00536017
0.00521487
0.00506663
0.00744756
0.00751707
0.0075392
0.00748665
0.0073854
0.00725447
0.00710455
0.00694357
0.00677708
0.00660879
0.00644107
0.00627536
0.00611243
0.00595259
0.0057959
0.00564215
0.00549091
0.00534248
0.00519857
0.00505496
0.00744756
0.00751707
0.00753919
0.00748665
0.0073854
0.00725447
0.00710454
0.00694356
0.00677708
0.00660879
0.00644107
0.00627535
0.00611242
0.00595259
0.00579589
0.00564215
0.00549091
0.00534247
0.00519856
0.00505496
0.00759036
0.00765325
0.00765701
0.00758336
0.00746324
0.00731685
0.00715394
0.00698251
0.00680837
0.00663483
0.00646374
0.006296
0.00613192
0.0059714
0.00581417
0.00565991
0.00550811
0.00535899
0.00521444
0.00506748
0.00785628
0.00792071
0.00789124
0.00776639
0.00760736
0.00743366
0.00724735
0.00705931
0.00687314
0.00668967
0.00651047
0.00633654
0.00616825
0.00600493
0.00584591
0.0056908
0.00553851
0.00538825
0.00524089
0.00509315
0.00834246
0.00836429
0.00823708
0.00801955
0.0077871
0.0075579
0.00733503
0.00712178
0.00692087
0.0067333
0.00655649
0.00638697
0.00622302
0.00606332
0.0059064
0.00575175
0.00559949
0.00544962
0.00530194
0.00515592
0.00972709
0.00898591
0.00839773
0.00798959
0.0076676
0.0074008
0.00717914
0.00698828
0.00681714
0.00665983
0.00650896
0.00635747
0.00620432
0.00605097
0.0058984
0.00574708
0.0055972
0.0054491
0.00530322
0.00516165
0.00972711
0.00898592
0.00839774
0.0079896
0.00766762
0.00740082
0.00717916
0.0069883
0.00681717
0.00665986
0.00650899
0.00635751
0.00620437
0.00605102
0.00589846
0.00574715
0.0055973
0.00544924
0.00530343
0.00516194
0.00834248
0.0083643
0.0082371
0.00801956
0.00778712
0.00755792
0.00733505
0.00712181
0.0069209
0.00673333
0.00655653
0.00638701
0.00622307
0.00606337
0.00590646
0.00575181
0.00559956
0.0054497
0.00530201
0.00515592
0.00785629
0.00792072
0.00789126
0.0077664
0.00760737
0.00743368
0.00724738
0.00705934
0.00687317
0.0066897
0.0065105
0.00633657
0.00616828
0.00600497
0.00584595
0.00569085
0.00553856
0.00538829
0.00524091
0.00509311
0.00759037
0.00765326
0.00765702
0.00758338
0.00746325
0.00731686
0.00715396
0.00698253
0.00680839
0.00663485
0.00646376
0.00629603
0.00613194
0.00597142
0.00581419
0.00565993
0.00550813
0.00535901
0.00521446
0.00506749
0.00744756
0.00751708
0.0075392
0.00748666
0.00738541
0.00725447
0.00710455
0.00694357
0.00677709
0.0066088
0.00644108
0.00627536
0.00611243
0.0059526
0.0057959
0.00564216
0.00549091
0.00534247
0.00519856
0.00505495
0.00744756
0.00751707
0.0075392
0.00748665
0.0073854
0.00725447
0.00710455
0.00694357
0.00677708
0.00660879
0.00644107
0.00627536
0.00611242
0.00595259
0.00579589
0.00564215
0.0054909
0.00534246
0.00519855
0.00505493
0.00759037
0.00765326
0.00765703
0.00758338
0.00746326
0.00731688
0.007154
0.00698259
0.00680848
0.00663497
0.00646393
0.00629625
0.00613225
0.00597187
0.0058149
0.00566093
0.00550934
0.00536013
0.00521482
0.00506658
0.00785629
0.00792072
0.00789126
0.00776644
0.00760746
0.00743379
0.00724751
0.00705951
0.00687342
0.0066901
0.00651114
0.00633752
0.00616961
0.0060068
0.00584865
0.00569473
0.00554363
0.00539477
0.00524802
0.00509811
0.00834248
0.00836431
0.0082371
0.0080196
0.00778718
0.00755801
0.00733519
0.00712202
0.0069212
0.00673386
0.0065575
0.00638868
0.00622576
0.00606763
0.00591312
0.00576158
0.00561343
0.00546998
0.00533151
0.00519404
0.00972709
0.00898591
0.00839774
0.00798961
0.00766763
0.00740085
0.00717923
0.00698843
0.0068174
0.00666026
0.00650966
0.00635864
0.00620627
0.00605416
0.00590352
0.00575509
0.00560958
0.00546761
0.00532815
0.00519238
0.00986134
0.00909861
0.00847984
0.00802851
0.00768451
0.00741544
0.00719573
0.00700676
0.00683865
0.00668077
0.00652437
0.0063679
0.00621188
0.00605659
0.00590185
0.00574722
0.00559225
0.00543688
0.00528233
0.00513066
0.00855847
0.00860198
0.00843641
0.00817348
0.0078931
0.00762176
0.00737073
0.00714432
0.00694118
0.00675436
0.00657699
0.00640589
0.00623955
0.00607701
0.00591713
0.00575892
0.00560171
0.00544524
0.00528972
0.00513745
0.00803938
0.00810744
0.00805506
0.0079081
0.00772325
0.00751816
0.00730755
0.00710072
0.00689972
0.00670746
0.0065251
0.00635084
0.00618272
0.00601935
0.00585976
0.00570303
0.00554828
0.00539497
0.00524315
0.00508996
0.0077415
0.00780064
0.00778872
0.00769334
0.00755374
0.00738829
0.00720815
0.00702376
0.0068399
0.0066597
0.0064848
0.00631507
0.00614993
0.00598878
0.00583109
0.0056762
0.00552344
0.00537264
0.00522434
0.00507301
0.00759037
0.00765327
0.00765704
0.00758339
0.00746327
0.00731689
0.00715401
0.00698261
0.00680849
0.00663499
0.00646394
0.00629626
0.00613226
0.00597189
0.00581491
0.00566095
0.00550936
0.00536016
0.00521485
0.00506662
0.00759036
0.00765326
0.00765702
0.00758337
0.00746325
0.00731685
0.00715395
0.00698252
0.00680838
0.00663484
0.00646375
0.00629601
0.00613193
0.0059714
0.00581417
0.00565991
0.0055081
0.00535897
0.00521441
0.00506743
0.00774149
0.00780064
0.00778871
0.00769333
0.00755373
0.00738827
0.00720814
0.00702374
0.00683988
0.00665968
0.00648478
0.00631504
0.0061499
0.00598876
0.00583106
0.00567617
0.0055234
0.00537259
0.00522427
0.00507289
0.00803939
0.00810746
0.00805509
0.00790816
0.00772336
0.00751829
0.0073077
0.00710095
0.00690007
0.00670806
0.00652614
0.00635248
0.00618512
0.00602282
0.00586487
0.00571017
0.00555771
0.00540814
0.00526054
0.00510848
0.0085585
0.00860201
0.00843645
0.00817355
0.0078932
0.0076219
0.00737095
0.00714467
0.00694178
0.00675561
0.00657942
0.00640997
0.00624565
0.00608569
0.00593013
0.00577916
0.00563309
0.00549283
0.00535834
0.00522405
0.00986134
0.00909861
0.00847985
0.00802853
0.00768455
0.00741552
0.0071959
0.0070071
0.00683927
0.00668182
0.00652615
0.00637084
0.00621665
0.0060643
0.00591431
0.0057674
0.00562476
0.0054876
0.00535478
0.00522455
0.0102706
0.00941913
0.00865487
0.00809574
0.00771957
0.00745152
0.00723582
0.00704284
0.0068643
0.00669558
0.00653176
0.00637058
0.00621142
0.00605387
0.00589714
0.00573983
0.0055802
0.00541571
0.00524488
0.00505989
0.00897687
0.00910306
0.00880019
0.00838399
0.00801687
0.00769826
0.00741974
0.00717933
0.0069668
0.00677232
0.00658917
0.00641408
0.00624512
0.00608051
0.00591886
0.00575919
0.00560099
0.00544444
0.00529241
0.0051552
0.00840739
0.00850837
0.00839683
0.00817139
0.00791568
0.00765733
0.00739904
0.00715759
0.00693997
0.0067401
0.00655308
0.00637587
0.00620604
0.00604163
0.00588143
0.00572459
0.0055704
0.00541895
0.00526972
0.00512081
0.0080394
0.00810747
0.00805511
0.00790818
0.00772337
0.00751831
0.00730772
0.00710097
0.00690009
0.00670808
0.00652616
0.0063525
0.00618514
0.00602284
0.00586488
0.00571018
0.00555773
0.00540816
0.00526057
0.00510853
0.0078563
0.00792073
0.00789127
0.00776645
0.00760747
0.00743381
0.00724753
0.00705953
0.00687344
0.00669012
0.00651116
0.00633754
0.00616963
0.00600681
0.00584865
0.00569474
0.00554364
0.00539477
0.005248
0.00509796
0.00785629
0.00792072
0.00789125
0.0077664
0.00760737
0.00743367
0.00724737
0.00705933
0.00687316
0.00668968
0.00651048
0.00633655
0.00616826
0.00600494
0.00584592
0.00569082
0.00553852
0.00538824
0.00524086
0.00509305
0.00803937
0.00810743
0.00805505
0.00790809
0.00772324
0.00751815
0.00730753
0.0071007
0.0068997
0.00670744
0.00652508
0.00635082
0.00618269
0.00601932
0.00585972
0.00570299
0.00554824
0.00539492
0.00524308
0.00508984
0.00840738
0.00850836
0.00839681
0.00817137
0.00791566
0.00765731
0.00739902
0.00715757
0.00693994
0.00674008
0.00655305
0.00637584
0.00620601
0.00604159
0.0058814
0.00572457
0.00557039
0.00541896
0.00526973
0.00512073
0.00897687
0.00910307
0.00880021
0.00838402
0.00801691
0.00769834
0.0074199
0.00717965
0.0069674
0.00677338
0.00659085
0.00641674
0.00624934
0.00608736
0.00593007
0.00577726
0.00562954
0.00548841
0.00535478
0.00523182
0.0102706
0.00941913
0.00865487
0.00809575
0.00771961
0.00745162
0.00723602
0.00704319
0.00686492
0.00669667
0.00653367
0.00637379
0.00621668
0.00606248
0.00591138
0.00576369
0.00562067
0.00548422
0.00535526
0.00523594
0.0106189
0.00988508
0.00879219
0.00812623
0.00772365
0.00744994
0.0072388
0.00705262
0.00687828
0.00671105
0.00654846
0.00638881
0.00623066
0.00607313
0.00591622
0.0057604
0.00560482
0.00544515
0.00527241
0.00506769
0.00990235
0.00987065
0.00914244
0.00843196
0.00798565
0.00766976
0.00741095
0.00718343
0.00697908
0.00679106
0.00661391
0.00644407
0.00627885
0.00611674
0.00595748
0.0058009
0.00564733
0.00549837
0.00536457
0.00526622
0.00897689
0.00910308
0.00880023
0.00838404
0.00801693
0.00769836
0.00741992
0.00717968
0.00696743
0.00677341
0.00659088
0.00641678
0.00624937
0.0060874
0.00593011
0.00577728
0.00562954
0.00548839
0.00535471
0.00523174
0.00855851
0.00860202
0.00843647
0.00817356
0.00789322
0.00762192
0.00737098
0.00714469
0.00694181
0.00675564
0.00657945
0.00641
0.00624568
0.00608571
0.00593015
0.00577917
0.00563309
0.00549281
0.0053583
0.00522404
0.00834249
0.00836432
0.00823712
0.00801962
0.0077872
0.00755803
0.00733521
0.00712204
0.00692122
0.00673388
0.00655752
0.00638871
0.00622579
0.00606764
0.00591313
0.00576158
0.00561344
0.00546999
0.00533149
0.0051939
0.00834247
0.0083643
0.00823709
0.00801956
0.00778711
0.00755792
0.00733504
0.0071218
0.00692089
0.00673332
0.00655651
0.00638699
0.00622304
0.00606334
0.00590642
0.00575177
0.00559951
0.00544964
0.00530194
0.00515583
0.00855846
0.00860197
0.0084364
0.00817347
0.00789309
0.00762174
0.00737071
0.0071443
0.00694116
0.00675434
0.00657697
0.00640585
0.00623951
0.00607696
0.00591708
0.00575887
0.00560166
0.00544518
0.00528962
0.00513727
0.00897686
0.00910305
0.00880018
0.00838398
0.00801685
0.00769824
0.00741972
0.00717931
0.00696677
0.00677229
0.00658913
0.00641404
0.00624508
0.00608046
0.00591881
0.00575915
0.00560097
0.00544444
0.00529242
0.00515521
0.00990233
0.00987063
0.00914243
0.00843194
0.00798563
0.00766974
0.00741093
0.00718341
0.00697905
0.00679103
0.00661387
0.00644403
0.0062788
0.00611669
0.00595744
0.00580087
0.0056473
0.00549837
0.00536458
0.00526641
0.0106189
0.00988507
0.00879218
0.00812622
0.00772365
0.00744996
0.00723886
0.00705276
0.00687854
0.00671153
0.00654929
0.00639022
0.00623314
0.00607778
0.00592471
0.00577513
0.00562949
0.00548769
0.00535051
0.00521473
0.0177977
0.0106833
0.00839187
0.00785405
0.00757971
0.00735753
0.00717096
0.00700461
0.00684358
0.00668434
0.00652702
0.00637154
0.00621707
0.00606264
0.00590843
0.00575521
0.00560342
0.00545349
0.00530409
0.00513942
0.0106189
0.00988508
0.0087922
0.00812623
0.00772367
0.00744999
0.00723889
0.00705278
0.00687857
0.00671157
0.00654933
0.00639027
0.0062332
0.00607783
0.00592476
0.00577518
0.00562953
0.00548772
0.00535056
0.00521474
0.0102707
0.00941915
0.00865489
0.00809577
0.00771963
0.00745164
0.00723604
0.00704322
0.00686495
0.00669671
0.00653371
0.00637382
0.00621672
0.00606252
0.00591142
0.00576373
0.00562071
0.00548425
0.00535531
0.00523594
0.00986136
0.00909863
0.00847987
0.00802855
0.00768457
0.00741554
0.00719593
0.00700713
0.00683929
0.00668185
0.00652618
0.00637087
0.00621668
0.00606433
0.00591434
0.00576743
0.00562478
0.00548763
0.0053548
0.00522454
0.00972711
0.00898593
0.00839775
0.00798962
0.00766765
0.00740087
0.00717925
0.00698845
0.00681742
0.00666028
0.00650968
0.00635866
0.00620629
0.00605419
0.00590355
0.00575512
0.00560963
0.0054677
0.00532827
0.0051926
0.0097271
0.00898592
0.00839774
0.0079896
0.00766761
0.00740082
0.00717916
0.00698829
0.00681716
0.00665985
0.00650897
0.00635749
0.00620434
0.006051
0.00589843
0.00574712
0.00559726
0.00544919
0.00530337
0.00516186
0.00986133
0.0090986
0.00847983
0.0080285
0.0076845
0.00741542
0.00719571
0.00700674
0.00683863
0.00668074
0.00652434
0.00636786
0.00621183
0.00605655
0.00590181
0.00574717
0.00559221
0.00543685
0.00528231
0.00513066
0.0102706
0.00941911
0.00865485
0.00809572
0.00771955
0.0074515
0.0072358
0.00704281
0.00686427
0.00669554
0.00653172
0.00637054
0.00621137
0.00605383
0.0058971
0.00573979
0.00558018
0.00541572
0.00524496
0.00506013
0.0106189
0.00988506
0.00879217
0.00812621
0.00772363
0.00744992
0.00723878
0.0070526
0.00687825
0.00671101
0.00654842
0.00638876
0.0062306
0.00607308
0.00591617
0.00576036
0.00560478
0.00544514
0.00527244
0.00506781
0.0177977
0.0106833
0.00839185
0.00785403
0.00757968
0.00735751
0.00717093
0.00700459
0.00684355
0.00668431
0.00652698
0.00637149
0.00621701
0.00606258
0.00590839
0.00575516
0.00560338
0.00545346
0.00530405
0.0051394
0.00532314
0.00486203
0.00457005
0.00443884
0.00431688
0.0041773
0.00404018
0.00390591
0.00377054
0.00363455
0.00349903
0.00336616
0.00323467
0.00310156
0.00297028
0.00284057
0.00271157
0.00258433
0.00245831
0.00233408
0.00221087
0.00208878
0.00196909
0.00185007
0.00173039
0.00161198
0.00149556
0.00138013
0.00126619
0.0011528
0.00103942
0.000927466
0.000816606
0.000706592
0.000597003
0.000488001
0.000379743
0.000271179
0.000164018
5.08213e-05
0.00518027
0.00485487
0.00461251
0.00447511
0.00434379
0.00420051
0.00405938
0.00392078
0.00378125
0.00364139
0.00350255
0.00336689
0.00323277
0.00309726
0.00296382
0.00283254
0.00270274
0.00257503
0.00244881
0.00232443
0.00220124
0.00207964
0.00196087
0.00184272
0.0017235
0.00160526
0.00148887
0.00137355
0.00125971
0.0011465
0.00103359
0.000922131
0.000811782
0.000702295
0.000593138
0.000484501
0.000376682
0.000268776
0.000161677
5.01205e-05
0.00499381
0.00481878
0.00463178
0.00447952
0.00434156
0.00420005
0.00405635
0.00391345
0.00377185
0.00363161
0.00349319
0.00335642
0.00322089
0.00308601
0.00295312
0.00282246
0.00269345
0.00256625
0.0024404
0.0023162
0.00219256
0.00207066
0.00195105
0.00183258
0.00171435
0.0015968
0.00148085
0.00136587
0.00125217
0.00113938
0.00102762
0.000917093
0.000807523
0.00069851
0.000589772
0.00048185
0.000374687
0.000267308
0.000160861
4.97196e-05
0.00495931
0.00481553
0.00464854
0.00449334
0.00434906
0.00420608
0.00406293
0.00392086
0.00378011
0.00364063
0.00350246
0.00336612
0.00323123
0.00309732
0.00296483
0.00283406
0.00270489
0.00257723
0.00245076
0.00232576
0.00220151
0.00207806
0.00195561
0.00183455
0.00171516
0.0015972
0.00148072
0.00136558
0.00125183
0.00113906
0.00102737
0.000916075
0.000805862
0.000696671
0.000588123
0.000480638
0.000373808
0.000266612
0.000160438
4.92668e-05
0.00499043
0.00483029
0.00466135
0.00450061
0.0043476
0.00419898
0.00405403
0.00391293
0.00377427
0.00363663
0.00350029
0.0033651
0.0032311
0.0030983
0.00296687
0.00283692
0.00270835
0.00258095
0.00245471
0.00232978
0.00220616
0.00208372
0.00196215
0.00184136
0.00172178
0.0016036
0.00148694
0.00137182
0.00125787
0.00114475
0.00103207
0.000919598
0.000808396
0.000698708
0.000589928
0.00048216
0.000374783
0.000267062
0.000160565
4.91692e-05
0.00501838
0.00484719
0.00466999
0.00450372
0.00434744
0.00419747
0.00405181
0.0039104
0.00377252
0.00363601
0.00350015
0.00336523
0.00323148
0.00309896
0.0029679
0.0028383
0.00270996
0.00258284
0.00245695
0.00233231
0.00220893
0.00208675
0.00196582
0.00184591
0.00172664
0.0016081
0.00149079
0.00137494
0.00126057
0.00114741
0.00103498
0.000923511
0.000813257
0.00070383
0.000594814
0.000486354
0.000378095
0.000269578
0.000162262
5.01804e-05
0.00506065
0.00487523
0.00468137
0.00450707
0.0043481
0.00419644
0.00404945
0.00390737
0.00376903
0.00363222
0.00349638
0.00336183
0.00322854
0.00309641
0.00296573
0.00283668
0.00270894
0.0025823
0.00245687
0.00233269
0.00220974
0.00208793
0.00196734
0.00184747
0.00172804
0.00160955
0.00149264
0.00137701
0.001263
0.00115007
0.00103762
0.000926489
0.0008162
0.000706449
0.000597493
0.000489295
0.000381144
0.00027267
0.000164834
5.18589e-05
0.00512718
0.00491453
0.00469057
0.00450071
0.00433568
0.00418259
0.00403672
0.00389633
0.00375883
0.0036231
0.00348886
0.00335595
0.00322375
0.00309199
0.00296128
0.00283238
0.00270502
0.00257897
0.00245413
0.00233038
0.00220786
0.00208637
0.00196644
0.00184685
0.00172817
0.00161124
0.00149569
0.00138102
0.00126742
0.00115432
0.00104143
0.000930064
0.00081959
0.000709525
0.000600301
0.000492038
0.000383631
0.000274815
0.000166303
5.28414e-05
0.00521936
0.00493576
0.00465784
0.00445979
0.00429861
0.00415057
0.00401008
0.00387505
0.00374234
0.00361045
0.00347965
0.00334888
0.00321788
0.00308902
0.00296174
0.00283486
0.0027076
0.00258136
0.00245651
0.00233261
0.0022099
0.0020879
0.00196775
0.00184839
0.00173038
0.00161378
0.0014982
0.00138325
0.00126928
0.00115578
0.00104234
0.000930418
0.000819586
0.000709267
0.000599451
0.000490855
0.000382321
0.000273303
0.000164717
5.2129e-05
0.0053216
0.00490513
0.00457099
0.00440573
0.00428021
0.00414793
0.00401647
0.00388746
0.00375755
0.00362535
0.00349489
0.00336468
0.00323324
0.00310449
0.00297724
0.00284955
0.00272134
0.00259417
0.00246844
0.00234407
0.00222107
0.00209854
0.0019778
0.00185762
0.00173765
0.00161954
0.00150296
0.00138745
0.0012732
0.00115944
0.00104563
0.000933199
0.000821887
0.000711234
0.000601083
0.000492159
0.000383371
0.000274035
0.000165321
5.2318e-05
0.00532327
0.00486194
0.0045694
0.00443663
0.0043151
0.00417845
0.00404165
0.00390694
0.00377179
0.00363508
0.00350089
0.00336759
0.00323336
0.00310132
0.00297071
0.00284104
0.00271193
0.00258435
0.0024584
0.00233391
0.00221091
0.00208873
0.00196888
0.00184957
0.0017298
0.00161169
0.00149512
0.00137969
0.00126557
0.00115211
0.00103881
0.000926931
0.000816149
0.000706066
0.000596442
0.000487954
0.000379661
0.000270876
0.000163978
5.07505e-05
0.0053215
0.00490521
0.00457156
0.00440839
0.00428244
0.00414695
0.00401492
0.00388621
0.0037561
0.00362456
0.00349271
0.00336302
0.00323418
0.00310413
0.00297623
0.00284857
0.00272063
0.00259391
0.0024682
0.00234411
0.00222093
0.00209863
0.00197814
0.00185826
0.00173818
0.00161968
0.00150329
0.00138789
0.00127389
0.00116028
0.00104639
0.000933863
0.000822466
0.000711921
0.000601851
0.000492362
0.000383439
0.000274271
0.000165289
5.22882e-05
0.00510686
0.00485696
0.00463379
0.0044722
0.00432753
0.00418713
0.00405019
0.00391497
0.00378014
0.00364542
0.00351138
0.00337817
0.00324552
0.00311254
0.00298115
0.00285112
0.00272228
0.00259515
0.00246923
0.002345
0.00222106
0.00209875
0.00197821
0.00185872
0.00173934
0.00162033
0.00150345
0.00138759
0.00127318
0.00115949
0.00104592
0.000933495
0.000822154
0.000711448
0.000601365
0.000492306
0.000383766
0.000274917
0.000166695
5.30481e-05
0.00494685
0.0047768
0.0046231
0.00446895
0.00432236
0.004182
0.00404241
0.00390368
0.00376689
0.00363152
0.00349706
0.00336258
0.0032288
0.00309739
0.00296699
0.00283743
0.00270919
0.00258235
0.00245694
0.00233244
0.00220853
0.00208573
0.00196372
0.00184349
0.00172544
0.00160809
0.00149183
0.00137669
0.00126248
0.0011493
0.00103724
0.000925603
0.00081491
0.000704832
0.000595674
0.000487906
0.000380274
0.000271978
0.000164782
5.24044e-05
0.00490059
0.00475328
0.00461906
0.00447344
0.00432888
0.00418769
0.00404805
0.00391015
0.00377364
0.00363796
0.00350293
0.00336882
0.00323585
0.0031043
0.00297352
0.00284352
0.00271483
0.0025874
0.00246139
0.00233633
0.00221274
0.00208993
0.0019677
0.00184708
0.00172849
0.00161103
0.0014942
0.00137872
0.00126416
0.00115051
0.00103762
0.000925289
0.00081413
0.000703968
0.000595153
0.000487321
0.000379236
0.000271088
0.000163981
5.25041e-05
0.00495701
0.00479601
0.00464303
0.00449281
0.00434579
0.00420145
0.00405893
0.00391826
0.00377951
0.0036424
0.00350671
0.00337227
0.0032392
0.00310741
0.00297664
0.00284696
0.00271846
0.00259112
0.00246499
0.00233993
0.00221606
0.00209313
0.00197124
0.00185076
0.00173159
0.00161344
0.00149643
0.00138102
0.00126687
0.00115328
0.00104003
0.000927917
0.000816816
0.000706502
0.000597328
0.000488507
0.000379372
0.000270576
0.000162972
5.26161e-05
0.00498314
0.00482081
0.00466749
0.00451669
0.00436715
0.00422019
0.00407575
0.00393287
0.00379154
0.00365229
0.00351508
0.00337944
0.00324519
0.00311235
0.00298074
0.00285036
0.00272126
0.00259345