/*--------------------------------*- C++ -*----------------------------------*\
| =========                 |                                                 |
| \\      /  F ield         | OpenFOAM: The Open Source CFD Toolbox           |
|  \\    /   O peration     | Version:  2212                                  |
|   \\  /    A nd           | Website:  www.openfoam.com                      |
|    \\/     M anipulation  |                                                 |
\*---------------------------------------------------------------------------*/
FoamFile
{
    version     2.0;
    format      ascii;
    arch        "LSB;label=32;scalar=64";
    class       surfaceScalarField;
    location    "3";
    object      phi;
}
// * * * * * * * * * * * * * * * * * * * * * * * * * * * * * * * * * * * * * //

dimensions      [0 3 -1 0 0 0 0];

oriented        oriented;

internalField   nonuniform List<scalar> 
19019
(
3.32249e-07
1.09682e-09
1.09686e-09
2.7919e-07
2.65297e-08
2.65295e-08
2.49217e-07
1.49866e-08
1.49865e-08
2.29252e-07
9.98249e-09
9.98218e-09
2.14831e-07
7.21103e-09
7.20989e-09
2.03193e-07
5.81996e-09
5.81823e-09
1.93762e-07
4.71756e-09
4.71368e-09
1.85988e-07
3.89053e-09
3.88338e-09
1.79329e-07
3.33611e-09
3.32339e-09
1.73482e-07
2.93432e-09
2.91185e-09
1.68281e-07
2.61924e-09
2.58189e-09
1.63611e-07
2.36644e-09
2.30421e-09
1.5937e-07
2.17305e-09
2.06749e-09
1.55477e-07
2.04259e-09
1.85097e-09
1.51891e-07
1.96525e-09
1.62043e-09
1.48616e-07
1.91567e-09
1.35977e-09
1.45674e-07
1.89141e-09
1.0508e-09
1.4322e-07
1.83444e-09
6.19662e-10
1.41233e-07
2.22711e-09
-2.39702e-10
-1.70181e-09
-5.24067e-09
6.3138e-07
3.58766e-09
7.40286e-09
6.14563e-07
2.26463e-08
2.07003e-08
5.86444e-07
2.43766e-08
1.87292e-08
5.61723e-07
1.88561e-08
1.58473e-08
5.39613e-07
1.55717e-08
1.37496e-08
5.20629e-07
1.3514e-08
1.12892e-08
5.0468e-07
1.19579e-08
8.70921e-09
4.9092e-07
1.08098e-08
6.84033e-09
4.78688e-07
9.96421e-09
5.60399e-09
4.67589e-07
9.26605e-09
4.76697e-09
4.57388e-07
8.66136e-09
4.15939e-09
4.47935e-07
8.13128e-09
3.68824e-09
4.39115e-07
7.6701e-09
3.32291e-09
4.30822e-07
7.2831e-09
3.05204e-09
4.22976e-07
6.97715e-09
2.83436e-09
4.15642e-07
6.71859e-09
2.53214e-09
4.09052e-07
6.43242e-09
2.04911e-09
4.03996e-07
5.7877e-09
1.10298e-09
4.01655e-07
5.05114e-09
-4.82625e-10
1.90703e-09
-7.3166e-09
8.90375e-07
2.85273e-09
6.33232e-09
8.82486e-07
1.34091e-08
1.71257e-08
8.70359e-07
1.78683e-08
1.86355e-08
8.55111e-07
1.6957e-08
1.71466e-08
8.39981e-07
1.53424e-08
1.53593e-08
8.25534e-07
1.41727e-08
1.37882e-08
8.11769e-07
1.33837e-08
1.23398e-08
7.98779e-07
1.26821e-08
1.11171e-08
7.86715e-07
1.18973e-08
1.01309e-08
7.75589e-07
1.10585e-08
9.33442e-09
7.65265e-07
1.02609e-08
8.72407e-09
7.55602e-07
9.52652e-09
8.2678e-09
7.46487e-07
8.8656e-09
7.91972e-09
7.37865e-07
8.27093e-09
7.63433e-09
7.29759e-07
7.71231e-09
7.3705e-09
7.22292e-07
7.12374e-09
7.0624e-09
7.15763e-07
6.37769e-09
6.58327e-09
7.10485e-07
5.30317e-09
5.76333e-09
7.07094e-07
3.88538e-09
4.55681e-09
1.50043e-09
2.20344e-09
1.07432e-06
1.06493e-09
5.56885e-09
1.06824e-06
5.58703e-09
1.39001e-08
1.06138e-06
8.46491e-09
1.62614e-08
1.05339e-06
9.04124e-09
1.59078e-08
1.04511e-06
8.61976e-09
1.49996e-08
1.03723e-06
8.12308e-09
1.39293e-08
1.02985e-06
7.79008e-09
1.29711e-08
1.02287e-06
7.55908e-09
1.21053e-08
1.01606e-06
7.37496e-09
1.13298e-08
1.00936e-06
7.0932e-09
1.06668e-08
1.00281e-06
6.65859e-09
1.0156e-08
9.96397e-07
6.16856e-09
9.76906e-09
9.90107e-07
5.6868e-09
9.46894e-09
9.83931e-07
5.21102e-09
9.23529e-09
9.77884e-07
4.72575e-09
9.03377e-09
9.71988e-07
4.19346e-09
8.82624e-09
9.66287e-07
3.52064e-09
8.55815e-09
9.60792e-07
2.61335e-09
8.18556e-09
9.55575e-07
1.36834e-09
7.7337e-09
-1.3346e-10
7.67757e-09
1.16914e-06
-4.42752e-14
4.90652e-09
1.16312e-06
-2.51668e-13
1.16084e-08
1.15731e-06
-6.7589e-13
1.42752e-08
1.15202e-06
-1.26351e-12
1.43328e-08
1.14692e-06
-2.24354e-12
1.37282e-08
1.14208e-06
-4.0823e-12
1.29654e-08
1.13778e-06
-7.51396e-12
1.20946e-08
1.13406e-06
-1.31798e-11
1.12981e-08
1.13082e-06
-2.28427e-11
1.06334e-08
1.12779e-06
-3.88206e-11
1.01624e-08
1.12466e-06
-6.50689e-11
9.85114e-09
1.12132e-06
-1.08194e-10
9.61868e-09
1.11773e-06
-1.79166e-10
9.45783e-09
1.11386e-06
-2.95861e-10
9.37217e-09
1.10971e-06
-4.75928e-10
9.35349e-09
1.10528e-06
-7.5387e-10
9.37949e-09
1.10055e-06
-1.18873e-09
9.43365e-09
1.09551e-06
-1.84931e-09
9.50713e-09
1.08998e-06
-2.73755e-09
9.63406e-09
-4.15073e-09
1.0146e-08
1.16914e-06
-1.06505e-09
4.90654e-09
1.16312e-06
-5.58748e-09
1.16084e-08
1.15731e-06
-8.46577e-09
1.42752e-08
1.15202e-06
-9.04271e-09
1.43331e-08
1.14691e-06
-8.62277e-09
1.37294e-08
1.14207e-06
-8.12916e-09
1.29678e-08
1.13776e-06
-7.80164e-09
1.20984e-08
1.13403e-06
-7.57974e-09
1.13045e-08
1.13077e-06
-7.41217e-09
1.06445e-08
1.12771e-06
-7.15637e-09
1.01816e-08
1.12452e-06
-6.76247e-09
9.88311e-09
1.12108e-06
-6.33879e-09
9.67229e-09
1.11732e-06
-5.96694e-09
9.54889e-09
1.11318e-06
-5.67875e-09
9.52288e-09
1.10861e-06
-5.49797e-09
9.59323e-09
1.10356e-06
-5.46501e-09
9.76188e-09
1.09795e-06
-5.62058e-09
1.00336e-08
1.09172e-06
-6.0251e-09
1.04141e-08
1.08478e-06
-6.63478e-09
1.08289e-08
-8.15526e-09
1.1034e-08
1.07432e-06
-2.8527e-09
5.56884e-09
1.06824e-06
-1.3409e-08
1.39001e-08
1.06138e-06
-1.78682e-08
1.62618e-08
1.05338e-06
-1.69567e-08
1.59093e-08
1.0451e-06
-1.53425e-08
1.50025e-08
1.03721e-06
-1.41737e-08
1.39338e-08
1.02982e-06
-1.33862e-08
1.29779e-08
1.02281e-06
-1.26863e-08
1.21166e-08
1.01595e-06
-1.19056e-08
1.1349e-08
1.00917e-06
-1.10731e-08
1.06997e-08
1.00248e-06
-1.02851e-08
1.02142e-08
9.95837e-07
-9.5676e-09
9.86791e-09
9.89173e-07
-8.94039e-09
9.63789e-09
9.8239e-07
-8.41416e-09
9.51793e-09
9.75373e-07
-7.98965e-09
9.50921e-09
9.67951e-07
-7.67052e-09
9.62686e-09
9.59909e-07
-7.48934e-09
9.91121e-09
9.51003e-07
-7.5308e-09
1.04109e-08
9.4129e-07
-7.95365e-09
1.10312e-08
-9.14314e-09
1.08653e-08
8.90375e-07
-3.58761e-09
6.33237e-09
8.82485e-07
-2.26459e-08
1.71261e-08
8.70357e-07
-2.43762e-08
1.86367e-08
8.55107e-07
-1.88553e-08
1.71485e-08
8.39972e-07
-1.55699e-08
1.53621e-08
8.25518e-07
-1.35109e-08
1.37918e-08
8.11738e-07
-1.19526e-08
1.23458e-08
7.98725e-07
-1.08011e-08
1.11278e-08
7.86621e-07
-9.94962e-09
1.01484e-08
7.75426e-07
-9.24059e-09
9.36281e-09
7.64986e-07
-8.61683e-09
8.77146e-09
7.55127e-07
-8.05868e-09
8.34966e-09
7.45684e-07
-7.55941e-09
8.06195e-09
7.36512e-07
-7.11742e-09
7.87619e-09
7.27469e-07
-6.72952e-09
7.78293e-09
7.18335e-07
-6.34371e-09
7.80659e-09
7.088e-07
-5.94769e-09
7.99366e-09
6.98378e-07
-5.53128e-09
8.42235e-09
6.86511e-07
-5.15296e-09
9.06589e-09
-4.96575e-09
8.77881e-09
6.3138e-07
-1.09686e-09
7.40291e-09
6.14563e-07
-2.65295e-08
2.07006e-08
5.86443e-07
-1.49865e-08
1.87298e-08
5.61722e-07
-9.98216e-09
1.58484e-08
5.39611e-07
-7.20987e-09
1.37512e-08
5.20626e-07
-5.81819e-09
1.12923e-08
5.04672e-07
-4.71364e-09
8.71414e-09
4.90906e-07
-3.88332e-09
6.8485e-09
4.78662e-07
-3.32333e-09
5.61789e-09
4.67542e-07
-2.91177e-09
4.79122e-09
4.57299e-07
-2.58177e-09
4.20755e-09
4.47771e-07
-2.30404e-09
3.77333e-09
4.38819e-07
-2.06723e-09
3.46045e-09
4.30311e-07
-1.85065e-09
3.24112e-09
4.22106e-07
-1.62017e-09
3.09542e-09
4.14124e-07
-1.35958e-09
2.99836e-09
4.06255e-07
-1.05042e-09
2.97115e-09
3.9836e-07
-6.19014e-10
2.9833e-09
3.90535e-07
2.41116e-10
2.43067e-09
5.24298e-09
1.01935e-09
3.32249e-07
1.09682e-09
2.7919e-07
2.65297e-08
2.49217e-07
1.49866e-08
2.29252e-07
9.9825e-09
2.14832e-07
7.21104e-09
2.03193e-07
5.81996e-09
1.93762e-07
4.71758e-09
1.85988e-07
3.89054e-09
1.79329e-07
3.33611e-09
1.73483e-07
2.93431e-09
1.68282e-07
2.61922e-09
1.63611e-07
2.36644e-09
1.59371e-07
2.17309e-09
1.55478e-07
2.04249e-09
1.51893e-07
1.96489e-09
1.48618e-07
1.91527e-09
1.45677e-07
1.89093e-09
1.43224e-07
1.83395e-09
1.41238e-07
2.22646e-09
-1.70458e-09
6.3138e-07
7.40291e-09
3.58761e-09
6.14563e-07
2.07006e-08
2.26459e-08
5.86443e-07
1.87298e-08
2.43762e-08
5.61722e-07
1.58484e-08
1.88554e-08
5.3961e-07
1.37512e-08
1.557e-08
5.20625e-07
1.12923e-08
1.3511e-08
5.04672e-07
8.71416e-09
1.19527e-08
4.90906e-07
6.84852e-09
1.08013e-08
4.78661e-07
5.61792e-09
9.94985e-09
4.67541e-07
4.79126e-09
9.24091e-09
4.57298e-07
4.20757e-09
8.61728e-09
4.47769e-07
3.7733e-09
8.05934e-09
4.38816e-07
3.46039e-09
7.56032e-09
4.30308e-07
3.24134e-09
7.11819e-09
4.22102e-07
3.09582e-09
6.73026e-09
4.14118e-07
2.99872e-09
6.34503e-09
4.06248e-07
2.97176e-09
5.94975e-09
3.98349e-07
2.98445e-09
5.53441e-09
3.90517e-07
2.43328e-09
5.15843e-09
1.02297e-09
4.97185e-09
9.23616e-07
7.03402e-09
7.03392e-09
9.25317e-07
1.98504e-08
1.98501e-08
9.1718e-07
2.27979e-08
2.27972e-08
9.04269e-07
2.23044e-08
2.2303e-08
8.90523e-07
2.06243e-08
2.06219e-08
8.77391e-07
1.78591e-08
1.78545e-08
8.65409e-07
1.47066e-08
1.4699e-08
8.54709e-07
1.22002e-08
1.21881e-08
8.45234e-07
1.03594e-08
1.0338e-08
8.36831e-07
8.99968e-09
8.96153e-09
8.29307e-07
7.97891e-09
7.91218e-09
8.22462e-07
7.20896e-09
7.09746e-09
8.16155e-07
6.6352e-09
6.4553e-09
8.10324e-07
6.20401e-09
5.92036e-09
8.04943e-07
5.8808e-09
5.43046e-09
7.99913e-07
5.64034e-09
4.92045e-09
7.951e-07
5.4769e-09
4.35689e-09
7.90109e-07
5.385e-09
3.69326e-09
7.84507e-07
5.01019e-09
2.54262e-09
3.49452e-09
-2.06067e-10
1.1589e-06
5.28159e-09
6.10259e-09
1.1657e-06
1.39995e-08
1.61829e-08
1.16844e-06
1.79795e-08
2.07064e-08
1.16661e-06
1.91814e-08
2.21045e-08
1.16221e-06
1.88798e-08
2.15049e-08
1.15653e-06
1.75513e-08
1.97688e-08
1.15046e-06
1.56942e-08
1.74237e-08
1.14455e-06
1.38995e-08
1.53266e-08
1.13911e-06
1.23059e-08
1.36243e-08
1.13427e-06
1.09194e-08
1.22599e-08
1.13002e-06
9.78045e-09
1.11733e-08
1.12632e-06
8.86025e-09
1.03117e-08
1.12315e-06
8.11166e-09
9.6193e-09
1.12045e-06
7.4969e-09
9.0366e-09
1.11822e-06
6.96905e-09
8.5158e-09
1.11642e-06
6.49315e-09
8.00673e-09
1.11502e-06
6.02665e-09
7.43357e-09
1.11389e-06
5.53978e-09
6.73966e-09
1.11271e-06
4.92055e-09
5.8294e-09
3.90385e-09
4.73931e-09
1.32762e-06
2.71842e-09
4.93108e-09
1.33539e-06
7.12143e-09
1.30089e-08
1.34286e-06
9.5545e-09
1.72157e-08
1.34848e-06
1.05795e-08
1.88989e-08
1.35198e-06
1.08773e-08
1.95e-08
1.35376e-06
1.05834e-08
1.91134e-08
1.35443e-06
9.89595e-09
1.8098e-08
1.35458e-06
9.05217e-09
1.68072e-08
1.35455e-06
8.20261e-09
1.54575e-08
1.35451e-06
7.40497e-09
1.4222e-08
1.35453e-06
6.6944e-09
1.32271e-08
1.35465e-06
6.06701e-09
1.24369e-08
1.35492e-06
5.51085e-09
1.18047e-08
1.35534e-06
5.01533e-09
1.12926e-08
1.35595e-06
4.53395e-09
1.08616e-08
1.35677e-06
4.03094e-09
1.04697e-08
1.35781e-06
3.46457e-09
1.00763e-08
1.3591e-06
2.79228e-09
9.64097e-09
1.36064e-06
1.966e-09
9.14834e-09
9.43511e-10
8.7919e-09
1.41518e-06
-1.12036e-13
4.19285e-09
1.42279e-06
-3.34539e-13
1.11159e-08
1.43152e-06
-5.71672e-13
1.50985e-08
1.43981e-06
-1.12278e-12
1.6629e-08
1.44714e-06
-2.23192e-12
1.72741e-08
1.45319e-06
-4.07927e-12
1.75071e-08
1.45804e-06
-6.85418e-12
1.71487e-08
1.46197e-06
-1.13516e-11
1.64297e-08
1.46529e-06
-1.94173e-11
1.55372e-08
1.46824e-06
-3.48348e-11
1.46458e-08
1.47103e-06
-6.18143e-11
1.38167e-08
1.47373e-06
-1.04235e-10
1.30881e-08
1.47634e-06
-1.67769e-10
1.2529e-08
1.47884e-06
-2.62428e-10
1.21478e-08
1.48125e-06
-4.1011e-10
1.1892e-08
1.48358e-06
-6.37039e-10
1.1711e-08
1.48588e-06
-9.76214e-10
1.15843e-08
1.48813e-06
-1.46989e-09
1.15106e-08
1.49039e-06
-2.13383e-09
1.14761e-08
-2.8697e-09
1.1585e-08
1.41518e-06
-2.71855e-09
4.19292e-09
1.42279e-06
-7.12177e-09
1.11161e-08
1.43152e-06
-9.55511e-09
1.50988e-08
1.4398e-06
-1.05807e-08
1.66298e-08
1.44713e-06
-1.08798e-08
1.7276e-08
1.45318e-06
-1.05881e-08
1.75106e-08
1.45802e-06
-9.90411e-09
1.71543e-08
1.46194e-06
-9.06608e-09
1.64383e-08
1.46524e-06
-8.22679e-09
1.55502e-08
1.46817e-06
-7.45198e-09
1.4667e-08
1.47092e-06
-6.78093e-09
1.38533e-08
1.47355e-06
-6.21041e-09
1.31521e-08
1.47602e-06
-5.73333e-09
1.26392e-08
1.4783e-06
-5.34936e-09
1.23305e-08
1.48037e-06
-5.06376e-09
1.21825e-08
1.48223e-06
-4.88836e-09
1.2149e-08
1.48389e-06
-4.83552e-09
1.22276e-08
1.48532e-06
-4.94484e-09
1.24604e-08
1.4864e-06
-5.17544e-09
1.27948e-08
-5.22355e-09
1.29202e-08
1.32762e-06
-5.2815e-09
4.93123e-09
1.33539e-06
-1.39993e-08
1.30094e-08
1.34286e-06
-1.79792e-08
1.72168e-08
1.34847e-06
-1.91809e-08
1.89016e-08
1.35197e-06
-1.88791e-08
1.95051e-08
1.35374e-06
-1.75498e-08
1.91213e-08
1.3544e-06
-1.56926e-08
1.81103e-08
1.35452e-06
-1.38987e-08
1.68265e-08
1.35446e-06
-1.23044e-08
1.5487e-08
1.35435e-06
-1.09165e-08
1.42705e-08
1.35425e-06
-9.77468e-09
1.33113e-08
1.35417e-06
-8.84621e-09
1.25787e-08
1.35413e-06
-8.08631e-09
1.20366e-08
1.35409e-06
-7.45488e-09
1.16669e-08
1.35398e-06
-6.91872e-09
1.1465e-08
1.35374e-06
-6.46246e-09
1.1445e-08
1.35326e-06
-6.08421e-09
1.16368e-08
1.35251e-06
-5.80642e-09
1.20265e-08
1.35135e-06
-5.45211e-09
1.24664e-08
-4.52638e-09
1.2308e-08
1.1589e-06
-7.03392e-09
6.10278e-09
1.16569e-06
-1.985e-08
1.61837e-08
1.16844e-06
-2.27972e-08
2.07083e-08
1.1666e-06
-2.2303e-08
2.21075e-08
1.1622e-06
-2.06219e-08
2.15095e-08
1.15652e-06
-1.78544e-08
1.97751e-08
1.15044e-06
-1.46989e-08
1.7434e-08
1.14451e-06
-1.21879e-08
1.53447e-08
1.13904e-06
-1.03378e-08
1.36556e-08
1.13413e-06
-8.96125e-09
1.23121e-08
1.12978e-06
-7.91183e-09
1.12596e-08
1.12593e-06
-7.09703e-09
1.04534e-08
1.12251e-06
-6.45469e-09
9.85125e-09
1.11943e-06
-5.91946e-09
9.41564e-09
1.11659e-06
-5.42937e-09
9.1321e-09
1.11384e-06
-4.91925e-09
9.01859e-09
1.111e-06
-4.35524e-09
9.10545e-09
1.10789e-06
-3.69088e-09
9.41285e-09
1.10435e-06
-2.53874e-09
9.6902e-09
2.12911e-10
9.12208e-09
9.23616e-07
-7.40286e-09
7.03402e-09
9.25317e-07
-2.07003e-08
1.98504e-08
9.17181e-07
-1.87292e-08
2.27979e-08
9.04269e-07
-1.58473e-08
2.23044e-08
8.90523e-07
-1.37496e-08
2.06243e-08
8.77391e-07
-1.12892e-08
1.78591e-08
8.65409e-07
-8.70917e-09
1.47065e-08
8.5471e-07
-6.84026e-09
1.22001e-08
8.45235e-07
-5.60389e-09
1.03593e-08
8.36832e-07
-4.76682e-09
8.99956e-09
8.29308e-07
-4.15918e-09
7.97877e-09
8.22463e-07
-3.68799e-09
7.20888e-09
8.16157e-07
-3.32272e-09
6.63524e-09
8.10327e-07
-3.05155e-09
6.20329e-09
8.04947e-07
-2.83347e-09
5.87953e-09
7.99918e-07
-2.53125e-09
5.63941e-09
7.95106e-07
-2.04801e-09
5.47576e-09
7.90116e-07
-1.10169e-09
5.3835e-09
7.84516e-07
4.84507e-10
5.00817e-09
7.32001e-09
3.4906e-09
6.3138e-07
3.58766e-09
6.14563e-07
2.26463e-08
5.86444e-07
2.43766e-08
5.61723e-07
1.88561e-08
5.39613e-07
1.55717e-08
5.2063e-07
1.35139e-08
5.0468e-07
1.19579e-08
4.9092e-07
1.08098e-08
4.78689e-07
9.96413e-09
4.6759e-07
9.26592e-09
4.57389e-07
8.66118e-09
4.47936e-07
8.13102e-09
4.39117e-07
7.66984e-09
4.30825e-07
7.28277e-09
4.2298e-07
6.97651e-09
4.15646e-07
6.7176e-09
4.09058e-07
6.43101e-09
4.04005e-07
5.7858e-09
4.01667e-07
5.0488e-09
1.90458e-09
8.90375e-07
6.33237e-09
2.8527e-09
8.82485e-07
1.71261e-08
1.3409e-08
8.70357e-07
1.86367e-08
1.78682e-08
8.55107e-07
1.71485e-08
1.69568e-08
8.39972e-07
1.53621e-08
1.53426e-08
8.25517e-07
1.37918e-08
1.41738e-08
8.11738e-07
1.23458e-08
1.33864e-08
7.98725e-07
1.11278e-08
1.26866e-08
7.8662e-07
1.01485e-08
1.1906e-08
7.75424e-07
9.36293e-09
1.10736e-08
7.64984e-07
8.77162e-09
1.02857e-08
7.55125e-07
8.34994e-09
9.56841e-09
7.45682e-07
8.06251e-09
8.94143e-09
7.36508e-07
7.87666e-09
8.41539e-09
7.27463e-07
7.78333e-09
7.99121e-09
7.18328e-07
7.8076e-09
7.67271e-09
7.0879e-07
7.99544e-09
7.49241e-09
6.98363e-07
8.42553e-09
7.53506e-09
6.8649e-07
9.0717e-09
7.95942e-09
8.78712e-09
9.15092e-09
1.1589e-06
6.10278e-09
5.2815e-09
1.16569e-06
1.61837e-08
1.39993e-08
1.16844e-06
2.07083e-08
1.79792e-08
1.1666e-06
2.21076e-08
1.9181e-08
1.1622e-06
2.15095e-08
1.88792e-08
1.15652e-06
1.97752e-08
1.75499e-08
1.15044e-06
1.74341e-08
1.56928e-08
1.14451e-06
1.53448e-08
1.38989e-08
1.13904e-06
1.36558e-08
1.23048e-08
1.13413e-06
1.23123e-08
1.09169e-08
1.12978e-06
1.12598e-08
9.77519e-09
1.12593e-06
1.04537e-08
8.84688e-09
1.12251e-06
9.85189e-09
8.08736e-09
1.11943e-06
9.41637e-09
7.45594e-09
1.11659e-06
9.13282e-09
6.91977e-09
1.11384e-06
9.0197e-09
6.46406e-09
1.11099e-06
9.10703e-09
6.0864e-09
1.10789e-06
9.41535e-09
5.80964e-09
1.10435e-06
9.69445e-09
5.45708e-09
9.12765e-09
4.53287e-09
1.37712e-06
4.57762e-09
4.57742e-09
1.38565e-06
1.1918e-08
1.19174e-08
1.39417e-06
1.64488e-08
1.64476e-08
1.40126e-06
1.85635e-08
1.85616e-08
1.40641e-06
1.89343e-08
1.89311e-08
1.4095e-06
1.82278e-08
1.82229e-08
1.41091e-06
1.67251e-08
1.6717e-08
1.41148e-06
1.50573e-08
1.50447e-08
1.41174e-06
1.35223e-08
1.35018e-08
1.41195e-06
1.21986e-08
1.21658e-08
1.41227e-06
1.1081e-08
1.10285e-08
1.4128e-06
1.01582e-08
1.00738e-08
1.41359e-06
9.41059e-09
9.27413e-09
1.41463e-06
8.81547e-09
8.59545e-09
1.41592e-06
8.35502e-09
8.00876e-09
1.41742e-06
8.02495e-09
7.49602e-09
1.41912e-06
7.81727e-09
7.02397e-09
1.42102e-06
7.70421e-09
6.55614e-09
1.42301e-06
7.53428e-09
5.9986e-09
7.05601e-09
5.30088e-09
1.53312e-06
2.36628e-09
3.6493e-09
1.54218e-06
6.23955e-09
9.63389e-09
1.55328e-06
8.87467e-09
1.36918e-08
1.56445e-06
1.03494e-08
1.59368e-08
1.57507e-06
1.09035e-08
1.69121e-08
1.58471e-06
1.07607e-08
1.69459e-08
1.593e-06
1.01529e-08
1.63772e-08
1.60007e-06
9.34605e-09
1.54467e-08
1.60622e-06
8.48303e-09
1.43457e-08
1.61171e-06
7.6739e-09
1.32527e-08
1.6168e-06
6.96588e-09
1.22616e-08
1.62163e-06
6.36194e-09
1.13989e-08
1.62633e-06
5.84578e-09
1.06644e-08
1.631e-06
5.40344e-09
1.00413e-08
1.63569e-06
5.01545e-09
9.51079e-09
1.64046e-06
4.67224e-09
9.04863e-09
1.64537e-06
4.35376e-09
8.62869e-09
1.65047e-06
4.03599e-09
8.20767e-09
1.65574e-06
3.66414e-09
7.74978e-09
3.18933e-09
7.32951e-09
1.61424e-06
-7.80523e-14
3.09277e-09
1.62332e-06
-1.82049e-13
8.27386e-09
1.63534e-06
-3.23271e-13
1.19569e-08
1.6482e-06
-6.15693e-13
1.4114e-08
1.66118e-06
-1.18662e-12
1.51993e-08
1.67387e-06
-2.02028e-12
1.55811e-08
1.68575e-06
-3.46337e-12
1.54266e-08
1.69658e-06
-5.66109e-12
1.49531e-08
1.70633e-06
-9.65275e-12
1.42762e-08
1.71517e-06
-1.68528e-11
1.34969e-08
1.72328e-06
-2.87216e-11
1.27031e-08
1.73081e-06
-4.65218e-11
1.196e-08
1.73795e-06
-7.14972e-11
1.13116e-08
1.74483e-06
-1.06933e-10
1.07757e-08
1.75155e-06
-1.62418e-10
1.03479e-08
1.75816e-06
-2.45204e-10
1.00187e-08
1.76471e-06
-3.67667e-10
9.76089e-09
1.77124e-06
-5.31784e-10
9.54677e-09
1.77776e-06
-7.20641e-10
9.34429e-09
-9.15513e-10
9.20032e-09
1.61424e-06
-2.36633e-09
3.09286e-09
1.62332e-06
-6.23961e-09
8.27417e-09
1.63534e-06
-8.87477e-09
1.19575e-08
1.6482e-06
-1.03496e-08
1.41153e-08
1.66118e-06
-1.09038e-08
1.52017e-08
1.67386e-06
-1.07611e-08
1.55849e-08
1.68573e-06
-1.01539e-08
1.54321e-08
1.69655e-06
-9.34817e-09
1.4961e-08
1.70629e-06
-8.48719e-09
1.42883e-08
1.71511e-06
-7.68336e-09
1.35159e-08
1.72319e-06
-6.9851e-09
1.27341e-08
1.73068e-06
-6.39496e-09
1.20105e-08
1.73775e-06
-5.89603e-09
1.13933e-08
1.74454e-06
-5.47533e-09
1.09052e-08
1.75113e-06
-5.12494e-09
1.05496e-08
1.75756e-06
-4.84381e-09
1.03193e-08
1.76386e-06
-4.62929e-09
1.01894e-08
1.77012e-06
-4.47106e-09
1.01423e-08
1.7764e-06
-4.31298e-09
1.01099e-08
-4.10631e-09
1.00201e-08
1.53312e-06
-4.57741e-09
3.64955e-09
1.54218e-06
-1.19174e-08
9.63463e-09
1.55327e-06
-1.64476e-08
1.36933e-08
1.56445e-06
-1.85615e-08
1.59395e-08
1.57506e-06
-1.8931e-08
1.69166e-08
1.58469e-06
-1.82227e-08
1.6953e-08
1.59298e-06
-1.67168e-08
1.63879e-08
1.60004e-06
-1.50444e-08
1.5464e-08
1.60617e-06
-1.35014e-08
1.43722e-08
1.61162e-06
-1.21654e-08
1.32937e-08
1.61665e-06
-1.1028e-08
1.23268e-08
1.6214e-06
-1.00731e-08
1.15042e-08
1.62598e-06
-9.27328e-09
1.08343e-08
1.63045e-06
-8.59423e-09
1.03153e-08
1.63486e-06
-8.00721e-09
9.94147e-09
1.63925e-06
-7.49425e-09
9.70537e-09
1.64368e-06
-7.02184e-09
9.60035e-09
1.64819e-06
-6.55344e-09
9.59955e-09
1.65275e-06
-5.99524e-09
9.58635e-09
-5.29691e-09
9.37443e-09
1.37712e-06
-6.10258e-09
4.57761e-09
1.38565e-06
-1.61829e-08
1.1918e-08
1.39417e-06
-2.07064e-08
1.64487e-08
1.40126e-06
-2.21044e-08
1.85635e-08
1.40641e-06
-2.15049e-08
1.89342e-08
1.4095e-06
-1.97688e-08
1.82277e-08
1.41091e-06
-1.74236e-08
1.67249e-08
1.41148e-06
-1.53264e-08
1.50571e-08
1.41174e-06
-1.36241e-08
1.3522e-08
1.41195e-06
-1.22596e-08
1.21983e-08
1.41227e-06
-1.11729e-08
1.10806e-08
1.41281e-06
-1.03113e-08
1.01578e-08
1.41359e-06
-9.61879e-09
9.40999e-09
1.41463e-06
-9.03534e-09
8.81459e-09
1.41592e-06
-8.51394e-09
8.35395e-09
1.41743e-06
-8.00489e-09
8.02381e-09
1.41912e-06
-7.43137e-09
7.816e-09
1.42102e-06
-6.73683e-09
7.70275e-09
1.42301e-06
-5.82577e-09
7.53261e-09
-4.73399e-09
7.05444e-09
1.1589e-06
-6.33232e-09
5.28159e-09
1.1657e-06
-1.71257e-08
1.39995e-08
1.16844e-06
-1.86355e-08
1.79794e-08
1.16661e-06
-1.71466e-08
1.91813e-08
1.16221e-06
-1.53593e-08
1.88797e-08
1.15653e-06
-1.37881e-08
1.75512e-08
1.15046e-06
-1.23397e-08
1.56941e-08
1.14455e-06
-1.11169e-08
1.38993e-08
1.13911e-06
-1.01307e-08
1.23056e-08
1.13427e-06
-9.3342e-09
1.09192e-08
1.13002e-06
-8.72376e-09
9.78013e-09
1.12632e-06
-8.26741e-09
8.85993e-09
1.12315e-06
-7.91928e-09
8.11142e-09
1.12045e-06
-7.63356e-09
7.49601e-09
1.11822e-06
-7.36926e-09
6.96762e-09
1.11642e-06
-7.06082e-09
6.4919e-09
1.11502e-06
-6.58109e-09
6.02524e-09
1.11389e-06
-5.76029e-09
5.53802e-09
1.11271e-06
-4.55288e-09
4.91834e-09
-2.19956e-09
3.90128e-09
8.90375e-07
2.85273e-09
8.82486e-07
1.34091e-08
8.70359e-07
1.78683e-08
8.55111e-07
1.69569e-08
8.39981e-07
1.53423e-08
8.25535e-07
1.41726e-08
8.11769e-07
1.33836e-08
7.9878e-07
1.2682e-08
7.86716e-07
1.18971e-08
7.7559e-07
1.10582e-08
7.65266e-07
1.02606e-08
7.55604e-07
9.52613e-09
7.46489e-07
8.86515e-09
7.37868e-07
8.27056e-09
7.29763e-07
7.7119e-09
7.22297e-07
7.12302e-09
7.1577e-07
6.37657e-09
7.10494e-07
5.30162e-09
7.07107e-07
3.88352e-09
1.49896e-09
1.07432e-06
5.56884e-09
1.06506e-09
1.06824e-06
1.39001e-08
5.5875e-09
1.06138e-06
1.62619e-08
8.46583e-09
1.05338e-06
1.59093e-08
9.04281e-09
1.0451e-06
1.50026e-08
8.62291e-09
1.03721e-06
1.39339e-08
8.12936e-09
1.02982e-06
1.29779e-08
7.8019e-09
1.02281e-06
1.21167e-08
7.58008e-09
1.01595e-06
1.13492e-08
7.41261e-09
1.00917e-06
1.06999e-08
7.15692e-09
1.00247e-06
1.02144e-08
6.76315e-09
9.95835e-07
9.86827e-09
6.33962e-09
9.8917e-07
9.63845e-09
5.96796e-09
9.82387e-07
9.51855e-09
5.68014e-09
9.75368e-07
9.51001e-09
5.49986e-09
9.67944e-07
9.62823e-09
5.46749e-09
9.59899e-07
9.91331e-09
5.6238e-09
9.50991e-07
1.04141e-08
6.02931e-09
9.41274e-07
1.10358e-08
6.64016e-09
1.08717e-08
8.16188e-09
1.32762e-06
4.93123e-09
2.71855e-09
1.33539e-06
1.30094e-08
7.1218e-09
1.34286e-06
1.72168e-08
9.55516e-09
1.34847e-06
1.89017e-08
1.05808e-08
1.35197e-06
1.95052e-08
1.088e-08
1.35374e-06
1.91214e-08
1.05882e-08
1.3544e-06
1.81104e-08
9.90434e-09
1.35452e-06
1.68267e-08
9.06639e-09
1.35446e-06
1.54872e-08
8.22719e-09
1.35435e-06
1.42708e-08
7.45249e-09
1.35425e-06
1.33117e-08
6.78161e-09
1.35417e-06
1.25793e-08
6.21129e-09
1.35413e-06
1.20374e-08
5.7345e-09
1.35408e-06
1.16675e-08
5.35057e-09
1.35398e-06
1.14658e-08
5.06508e-09
1.35374e-06
1.14464e-08
4.89024e-09
1.35326e-06
1.16388e-08
4.83795e-09
1.35251e-06
1.20291e-08
4.94791e-09
1.35135e-06
1.24697e-08
5.17918e-09
1.2311e-08
5.22696e-09
1.53312e-06
3.64956e-09
2.36633e-09
1.54218e-06
9.63465e-09
6.23964e-09
1.55327e-06
1.36933e-08
8.87483e-09
1.56445e-06
1.59396e-08
1.03497e-08
1.57506e-06
1.69167e-08
1.09039e-08
1.58469e-06
1.69532e-08
1.07613e-08
1.59298e-06
1.63882e-08
1.01541e-08
1.60004e-06
1.54643e-08
9.34848e-09
1.60616e-06
1.43725e-08
8.48759e-09
1.61162e-06
1.32941e-08
7.68386e-09
1.61665e-06
1.23273e-08
6.98574e-09
1.6214e-06
1.15048e-08
6.39577e-09
1.62598e-06
1.08351e-08
5.89705e-09
1.63045e-06
1.03161e-08
5.47654e-09
1.63486e-06
9.94237e-09
5.12635e-09
1.63925e-06
9.70647e-09
4.84553e-09
1.64368e-06
9.60165e-09
4.63135e-09
1.64819e-06
9.60099e-09
4.47345e-09
1.65275e-06
9.58769e-09
4.31553e-09
9.37468e-09
4.10834e-09
1.68027e-06
1.89127e-09
1.89115e-09
1.68934e-06
5.1e-09
5.0996e-09
1.70179e-06
7.46545e-09
7.46467e-09
1.71578e-06
8.94809e-09
8.94679e-09
1.73021e-06
9.69626e-09
9.69414e-09
1.74439e-06
9.8659e-09
9.86254e-09
1.75784e-06
9.65969e-09
9.65462e-09
1.77033e-06
9.21014e-09
9.20266e-09
1.7818e-06
8.62959e-09
8.61879e-09
1.79234e-06
8.01226e-09
7.99654e-09
1.80211e-06
7.42403e-09
7.40038e-09
1.81125e-06
6.89893e-09
6.86188e-09
1.81991e-06
6.45022e-09
6.39055e-09
1.8282e-06
6.07975e-09
5.98353e-09
1.83624e-06
5.7825e-09
5.63251e-09
1.84412e-06
5.5463e-09
5.32749e-09
1.85193e-06
5.35733e-09
5.0614e-09
1.85974e-06
5.19281e-09
4.80541e-09
1.86755e-06
5.00307e-09
4.53071e-09
4.77217e-09
4.27377e-09
1.7569e-06
4.60396e-15
1.61323e-09
1.76589e-06
5.30553e-14
4.38413e-09
1.77878e-06
1.24782e-13
6.5318e-09
1.79389e-06
2.20719e-13
7.95105e-09
1.81003e-06
3.61863e-13
8.7556e-09
1.82639e-06
5.67953e-13
9.08538e-09
1.84241e-06
8.08725e-13
9.07148e-09
1.85773e-06
8.92879e-13
8.83482e-09
1.87218e-06
7.59946e-13
8.46026e-09
1.88567e-06
4.19278e-13
8.01364e-09
1.89825e-06
6.52023e-14
7.54582e-09
1.91002e-06
2.7135e-13
7.09324e-09
1.9211e-06
2.00202e-12
6.67914e-09
1.93163e-06
5.93524e-12
6.31541e-09
1.94175e-06
1.16209e-11
6.00566e-09
1.95155e-06
1.58093e-11
5.74933e-09
1.96111e-06
1.55631e-11
5.5358e-09
1.9705e-06
1.02446e-11
5.34457e-09
1.9797e-06
-7.51339e-13
5.14404e-09
-1.29256e-11
5.01056e-09
1.7569e-06
-1.89114e-09
1.61332e-09
1.76589e-06
-5.09956e-09
4.38439e-09
1.77878e-06
-7.46461e-09
6.53231e-09
1.79389e-06
-8.94669e-09
7.95197e-09
1.81003e-06
-9.694e-09
8.75709e-09
1.82639e-06
-9.86234e-09
9.08768e-09
1.8424e-06
-9.65435e-09
9.07482e-09
1.85773e-06
-9.20231e-09
8.83964e-09
1.87217e-06
-8.61835e-09
8.46735e-09
1.88565e-06
-7.996e-09
8.02428e-09
1.89823e-06
-7.39971e-09
7.56206e-09
1.90998e-06
-6.86105e-09
7.11828e-09
1.92105e-06
-6.38952e-09
6.71781e-09
1.93156e-06
-5.98224e-09
6.37501e-09
1.94166e-06
-5.63093e-09
6.09644e-09
1.95144e-06
-5.32559e-09
5.88293e-09
1.96098e-06
-5.05916e-09
5.72147e-09
1.97035e-06
-4.80282e-09
5.58803e-09
1.97955e-06
-4.52787e-09
5.43739e-09
-4.27095e-09
5.33112e-09
1.68027e-06
-3.6493e-09
1.89126e-09
1.68934e-06
-9.63386e-09
5.09996e-09
1.70179e-06
-1.36918e-08
7.46537e-09
1.71578e-06
-1.59368e-08
8.94797e-09
1.73021e-06
-1.6912e-08
9.69608e-09
1.74439e-06
-1.69457e-08
9.86567e-09
1.75784e-06
-1.6377e-08
9.65941e-09
1.77033e-06
-1.54465e-08
9.2098e-09
1.7818e-06
-1.43454e-08
8.62919e-09
1.79234e-06
-1.32522e-08
8.01179e-09
1.80211e-06
-1.22611e-08
7.42349e-09
1.81125e-06
-1.13982e-08
6.8983e-09
1.81991e-06
-1.06635e-08
6.44949e-09
1.8282e-06
-1.00401e-08
6.07891e-09
1.83624e-06
-9.50916e-09
5.78159e-09
1.84412e-06
-9.04674e-09
5.54538e-09
1.85193e-06
-8.62647e-09
5.35645e-09
1.85974e-06
-8.20505e-09
5.19208e-09
1.86755e-06
-7.74684e-09
5.00282e-09
-7.32652e-09
4.77312e-09
1.53312e-06
-4.93108e-09
2.36627e-09
1.54218e-06
-1.30089e-08
6.23952e-09
1.55328e-06
-1.72156e-08
8.87461e-09
1.56445e-06
-1.88988e-08
1.03493e-08
1.57507e-06
-1.95e-08
1.09033e-08
1.58471e-06
-1.91133e-08
1.07605e-08
1.593e-06
-1.80979e-08
1.01527e-08
1.60007e-06
-1.6807e-08
9.34575e-09
1.60622e-06
-1.54572e-08
8.48268e-09
1.61172e-06
-1.42217e-08
7.67348e-09
1.6168e-06
-1.32267e-08
6.96539e-09
1.62163e-06
-1.24364e-08
6.36137e-09
1.62634e-06
-1.18041e-08
5.84509e-09
1.631e-06
-1.12914e-08
5.40249e-09
1.63569e-06
-1.08598e-08
5.0143e-09
1.64046e-06
-1.04677e-08
4.67103e-09
1.64537e-06
-1.00739e-08
4.35249e-09
1.65048e-06
-9.63789e-09
4.03469e-09
1.65574e-06
-9.14462e-09
3.66281e-09
-8.78865e-09
3.18861e-09
1.32763e-06
-5.56885e-09
2.71841e-09
1.33539e-06
-1.39001e-08
7.12141e-09
1.34287e-06
-1.62614e-08
9.55445e-09
1.34848e-06
-1.59078e-08
1.05794e-08
1.35198e-06
-1.49996e-08
1.08771e-08
1.35376e-06
-1.39292e-08
1.05832e-08
1.35443e-06
-1.2971e-08
9.89574e-09
1.35458e-06
-1.21052e-08
9.05191e-09
1.35455e-06
-1.13297e-08
8.20229e-09
1.35451e-06
-1.06665e-08
7.40457e-09
1.35453e-06
-1.01557e-08
6.69393e-09
1.35465e-06
-9.76865e-09
6.06646e-09
1.35492e-06
-9.46846e-09
5.51027e-09
1.35535e-06
-9.23457e-09
5.01437e-09
1.35595e-06
-9.03269e-09
4.53259e-09
1.35677e-06
-8.82467e-09
4.0295e-09
1.35782e-06
-8.55576e-09
3.46289e-09
1.35911e-06
-8.18207e-09
2.79019e-09
1.36065e-06
-7.72898e-09
1.96281e-09
-7.6728e-09
9.39811e-10
1.07432e-06
1.06493e-09
1.06824e-06
5.58702e-09
1.06138e-06
8.46489e-09
1.05339e-06
9.0412e-09
1.04511e-06
8.61969e-09
1.03723e-06
8.12297e-09
1.02985e-06
7.78993e-09
1.02287e-06
7.55889e-09
1.01606e-06
7.3747e-09
1.00936e-06
7.09286e-09
1.00281e-06
6.65817e-09
9.96399e-07
6.16804e-09
9.90109e-07
5.6862e-09
9.83935e-07
5.21047e-09
9.77889e-07
4.72524e-09
9.71994e-07
4.1928e-09
9.66295e-07
3.51978e-09
9.60802e-07
2.61244e-09
9.55589e-07
1.36795e-09
-1.32525e-10
1.16914e-06
4.90654e-09
4.52606e-14
1.16312e-06
1.16085e-08
2.76173e-13
1.15731e-06
1.42752e-08
7.47489e-13
1.15202e-06
1.43331e-08
1.36815e-12
1.14691e-06
1.37294e-08
2.39204e-12
1.14207e-06
1.29679e-08
4.28539e-12
1.13776e-06
1.20985e-08
7.78282e-12
1.13403e-06
1.13046e-08
1.35294e-11
1.13077e-06
1.06447e-08
2.32889e-11
1.12771e-06
1.01818e-08
3.93807e-11
1.12452e-06
9.88335e-09
6.57644e-11
1.12108e-06
9.67258e-09
1.09049e-10
1.11732e-06
9.54927e-09
1.80222e-10
1.11318e-06
9.5234e-09
2.97203e-10
1.1086e-06
9.59396e-09
4.77679e-10
1.10355e-06
9.76288e-09
7.56135e-10
1.09795e-06
1.00349e-08
1.19159e-09
1.09171e-06
1.04159e-08
1.85299e-09
1.08478e-06
1.0831e-08
2.74223e-09
1.10353e-08
4.15638e-09
1.41518e-06
4.19293e-09
1.20842e-13
1.42279e-06
1.11161e-08
3.71243e-13
1.43152e-06
1.50988e-08
6.3372e-13
1.4398e-06
1.66298e-08
1.21694e-12
1.44713e-06
1.72762e-08
2.37006e-12
1.45318e-06
1.75107e-08
4.27419e-12
1.45802e-06
1.71545e-08
7.11524e-12
1.46194e-06
1.64386e-08
1.1693e-11
1.46524e-06
1.55505e-08
1.98568e-11
1.46817e-06
1.46673e-08
3.53954e-11
1.47092e-06
1.38538e-08
6.25322e-11
1.47355e-06
1.31527e-08
1.0515e-10
1.47602e-06
1.26399e-08
1.68907e-10
1.4783e-06
1.23313e-08
2.63768e-10
1.48036e-06
1.21834e-08
4.11691e-10
1.48223e-06
1.21502e-08
6.39003e-10
1.48389e-06
1.22293e-08
9.78606e-10
1.48532e-06
1.24625e-08
1.47272e-09
1.4864e-06
1.27973e-08
2.13695e-09
1.29216e-08
2.87249e-09
1.61424e-06
3.09287e-09
8.90451e-14
1.62332e-06
8.2742e-09
2.17552e-13
1.63534e-06
1.19576e-08
3.84585e-13
1.6482e-06
1.41154e-08
7.10556e-13
1.66118e-06