/*--------------------------------*- C++ -*----------------------------------*\
| =========                 |                                                 |
| \\      /  F ield         | OpenFOAM: The Open Source CFD Toolbox           |
|  \\    /   O peration     | Version:  2212                                  |
|   \\  /    A nd           | Website:  www.openfoam.com                      |
|    \\/     M anipulation  |                                                 |
\*---------------------------------------------------------------------------*/
FoamFile
{
    version     2.0;
    format      ascii;
    arch        "LSB;label=32;scalar=64";
    class       volVectorField;
    location    "3";
    object      U;
}
// * * * * * * * * * * * * * * * * * * * * * * * * * * * * * * * * * * * * * //

dimensions      [0 1 -1 0 0 0 0];

internalField   nonuniform List<vector> 
6840
(
(0.0956456 -0.00836005 -0.00836005)
(0.0904939 0.00152205 0.00152201)
(0.0790682 0.0024298 0.00242972)
(0.071301 0.00148784 0.00148765)
(0.0661791 0.000830675 0.000830254)
(0.062322 0.000564025 0.000563326)
(0.0592198 0.000427082 0.000425421)
(0.0566832 0.000325262 0.000322311)
(0.054547 0.000255257 0.000250383)
(0.0526927 0.000206296 0.000198242)
(0.0510514 0.000172699 0.000158816)
(0.0495843 0.000151019 0.000127652)
(0.0482587 0.000137586 9.99114e-05)
(0.0470457 0.000130997 7.27377e-05)
(0.045929 0.000131333 4.08885e-05)
(0.044902 0.000141924 1.568e-05)
(0.0439712 0.000177007 -2.46752e-05)
(0.0431495 0.000241477 -0.000120055)
(0.042557 0.000313864 -0.000289366)
(0.041192 -0.0001341 -0.00121151)
(0.0999088 0.001297 0.000712547)
(0.0969668 0.00365596 0.00274721)
(0.0935345 0.00264033 0.00211804)
(0.089589 0.00182067 0.00162043)
(0.0858317 0.00152926 0.00139032)
(0.0825893 0.00135205 0.00116064)
(0.0798639 0.00118068 0.000896275)
(0.0775648 0.00104286 0.000690799)
(0.0755541 0.000946854 0.000558258)
(0.0737449 0.000872691 0.000476073)
(0.072091 0.000805348 0.000425552)
(0.0705629 0.000740555 0.000392951)
(0.0691413 0.0006841 0.000370116)
(0.0678097 0.000641733 0.000356959)
(0.0665534 0.000616004 0.000351139)
(0.0653683 0.000602312 0.000324029)
(0.0642791 0.000597295 0.00025895)
(0.0633381 0.000573933 0.000105478)
(0.0627541 0.000643797 -2.3955e-05)
(0.0613036 0.000465575 -0.000641275)
(0.099413 0.000345251 0.000270227)
(0.0988664 0.00201914 0.00187485)
(0.0979216 0.00257334 0.00218884)
(0.096366 0.00238025 0.00190812)
(0.0946337 0.00211475 0.00162626)
(0.0929729 0.00192782 0.00141792)
(0.0913654 0.00180325 0.00126999)
(0.0898563 0.00170844 0.00115802)
(0.0884587 0.00160991 0.00106667)
(0.087165 0.00150281 0.000993059)
(0.0859687 0.00139777 0.000941992)
(0.0848563 0.00130258 0.000909711)
(0.0838113 0.00121838 0.000890397)
(0.0828229 0.00114267 0.000878243)
(0.0818888 0.00107285 0.000867605)
(0.0810151 0.00100603 0.000850578)
(0.0802249 0.000932266 0.000812455)
(0.0795543 0.000829167 0.000730473)
(0.0790668 0.000697205 0.000617716)
(0.0783767 0.000332535 0.000377332)
(0.0995405 0.000245046 0.000321897)
(0.0992576 0.00105564 0.00154091)
(0.098849 0.00150239 0.00211437)
(0.0981251 0.00157951 0.00209148)
(0.0973376 0.00151488 0.00188589)
(0.0965864 0.00144641 0.00166547)
(0.095868 0.00141002 0.0014974)
(0.0952022 0.00137871 0.00137058)
(0.0945766 0.00133257 0.00128316)
(0.0939365 0.00126097 0.00122639)
(0.0933163 0.00117061 0.00118708)
(0.0927154 0.00107345 0.0011615)
(0.0921276 0.000978739 0.00114528)
(0.0915498 0.000888053 0.00113685)
(0.0909827 0.000799513 0.00113115)
(0.090428 0.000706507 0.00112319)
(0.0898876 0.00059242 0.0011062)
(0.0893655 0.000439467 0.00107616)
(0.0888664 0.000221134 0.00103891)
(0.0883795 -7.51216e-05 0.00109936)
(0.0993802 3.377e-05 5.89756e-05)
(0.0992678 0.000274356 0.00120002)
(0.0989806 0.00043228 0.00188841)
(0.098475 0.000483275 0.00200627)
(0.0979964 0.000478473 0.00191431)
(0.0975725 0.000464774 0.00173412)
(0.0971839 0.000451394 0.00154634)
(0.0968359 0.000439707 0.00138704)
(0.0965387 0.000431581 0.00126751)
(0.0962889 0.000420502 0.00119534)
(0.0960224 0.000398137 0.00116567)
(0.095741 0.000365936 0.00116007)
(0.0954459 0.000327575 0.00116361)
(0.0951296 0.000283475 0.00117086)
(0.0947882 0.000233834 0.00118268)
(0.0944224 0.000175879 0.00119969)
(0.0940321 9.92309e-05 0.00122174)
(0.0936163 -8.69044e-06 0.00124708)
(0.0931665 -0.000153354 0.00128271)
(0.0926859 -0.000335835 0.00139358)
(0.0993802 -3.37856e-05 5.89984e-05)
(0.0992678 -0.000274434 0.00120004)
(0.0989806 -0.000432461 0.00188841)
(0.0984749 -0.0004836 0.00200631)
(0.0979961 -0.000479056 0.00191442)
(0.0975719 -0.00046586 0.00173438)
(0.0971828 -0.000453429 0.00154671)
(0.0968341 -0.000443306 0.00138768)
(0.0965356 -0.00043782 0.00126877)
(0.0962837 -0.000431135 0.00119766)
(0.0960134 -0.000415993 0.00116962)
(0.0957257 -0.00039554 0.00116663)
(0.0954198 -0.000376329 0.00117453)
(0.0950853 -0.000363733 0.00118888)
(0.0947151 -0.00036302 0.00121136)
(0.0943058 -0.000381799 0.00124629)
(0.0938544 -0.000426551 0.00129585)
(0.0933565 -0.000505112 0.00135821)
(0.092782 -0.000617834 0.00142464)
(0.092132 -0.000845287 0.00146731)
(0.0995405 -0.000245051 0.000321896)
(0.0992576 -0.00105566 0.0015409)
(0.0988489 -0.00150243 0.00211444)
(0.0981248 -0.00157959 0.00209161)
(0.0973369 -0.00151513 0.00188609)
(0.096585 -0.00144701 0.00166579)
(0.0958655 -0.00141116 0.00149776)
(0.0951978 -0.00138068 0.0013712)
(0.0945689 -0.00133628 0.00128458)
(0.0939231 -0.00126706 0.00122971)
(0.0932932 -0.00118007 0.00119403)
(0.0926762 -0.00108859 0.00117392)
(0.0920616 -0.00100405 0.0011661)
(0.0914402 -0.000932478 0.00116927)
(0.0908027 -0.00087673 0.00118417)
(0.0901368 -0.000839595 0.00121317)
(0.0894259 -0.000824898 0.0012615)
(0.0886526 -0.000840452 0.00134044)
(0.0877742 -0.000877063 0.00145133)
(0.0867155 -0.00109591 0.00143141)
(0.099413 -0.00034524 0.000270231)
(0.0988664 -0.00201909 0.0018749)
(0.0979214 -0.00257323 0.00218901)
(0.0963657 -0.00238003 0.0019084)
(0.094633 -0.00211442 0.00162665)
(0.0929716 -0.00192729 0.00141848)
(0.0913629 -0.00180247 0.00127091)
(0.0898518 -0.00170721 0.00115957)
(0.0884507 -0.00160788 0.00106916)
(0.0871514 -0.00149948 0.000997124)
(0.0859454 -0.00139224 0.000948355)
(0.0848164 -0.00129366 0.000920727)
(0.0837435 -0.00120485 0.000909663)
(0.0827083 -0.00112379 0.000911311)
(0.0816953 -0.00104914 0.000924354)
(0.0806863 -0.000981524 0.000952023)
(0.0796546 -0.000921119 0.00100226)
(0.0785581 -0.00087149 0.00109043)
(0.0773212 -0.000865543 0.0012383)
(0.0756562 -0.000906462 0.00128778)
(0.0999088 -0.00129699 0.000712561)
(0.0969668 -0.00365589 0.00274727)
(0.0935344 -0.00264022 0.00211817)
(0.0895889 -0.00182047 0.00162069)
(0.0858314 -0.0015288 0.0013907)
(0.0825889 -0.00135133 0.00116132)
(0.0798631 -0.00117938 0.000897395)
(0.0775633 -0.00104063 0.000692635)
(0.0755511 -0.00094298 0.000561358)
(0.0737396 -0.00086585 0.000481377)
(0.0720811 -0.00079323 0.000436032)
(0.0705443 -0.000720053 0.000411557)
(0.069107 -0.00065092 0.000399573)
(0.0677495 -0.000588953 0.000394574)
(0.0664513 -0.000530161 0.000397158)
(0.0651934 -0.000450235 0.000408386)
(0.0639628 -0.000345857 0.00043492)
(0.062733 -0.000215481 0.000484117)
(0.0615065 -4.31847e-05 0.000537104)
(0.0598267 0.000201083 0.000823949)
(0.0956456 0.00836005 -0.00836005)
(0.0904939 -0.001522 0.00152205)
(0.0790682 -0.00242972 0.0024298)
(0.071301 -0.00148764 0.00148785)
(0.0661791 -0.00083025 0.00083068)
(0.062322 -0.000563319 0.00056403)
(0.0592198 -0.000425411 0.00042709)
(0.0566833 -0.000322298 0.000325271)
(0.0545471 -0.00025037 0.000255266)
(0.0526928 -0.000198226 0.000206303)
(0.0510515 -0.000158797 0.000172703)
(0.0495844 -0.000127628 0.000151019)
(0.0482589 -9.98854e-05 0.000137577)
(0.047046 -7.27059e-05 0.000130954)
(0.0459293 -4.08618e-05 0.000131265)
(0.0449025 -1.56841e-05 0.000141875)
(0.0439718 2.46931e-05 0.000176961)
(0.0431504 0.000120086 0.00024144)
(0.0425583 0.000289415 0.000313793)
(0.0411939 0.00121169 -0.000134359)
(0.0999088 0.00071256 0.00129699)
(0.0969668 0.00274727 0.00365589)
(0.0935344 0.00211817 0.00264022)
(0.0895889 0.00162069 0.00182048)
(0.0858314 0.0013907 0.00152881)
(0.0825888 0.00116132 0.00135134)
(0.0798631 0.000897395 0.00117939)
(0.0775632 0.000692636 0.00104065)
(0.075551 0.000561361 0.000943007)
(0.0737395 0.000481383 0.000865884)
(0.0720809 0.000436045 0.000793275)
(0.0705441 0.000411576 0.000720111)
(0.0691067 0.000399617 0.000650994)
(0.067749 0.000394628 0.00058901)
(0.0664508 0.000397216 0.000530206)
(0.0651927 0.000408478 0.000450308)
(0.0639618 0.000435053 0.000345979)
(0.0627316 0.000484326 0.000215672)
(0.0615044 0.000537563 4.35696e-05)
(0.059823 0.000824344 -0.000200735)
(0.100226 0.000720827 0.000720811)
(0.09996 0.00198279 0.0019827)
(0.0997821 0.00245202 0.0024518)
(0.0987879 0.00241994 0.00241956)
(0.0972751 0.0022013 0.00220071)
(0.0957739 0.0018122 0.00181114)
(0.0943913 0.00138354 0.0013818)
(0.0931612 0.00107209 0.00106913)
(0.0920724 0.00085736 0.000852215)
(0.0911071 0.000707542 0.000698473)
(0.0902495 0.000600036 0.000583272)
(0.0894758 0.000522169 0.000493997)
(0.0887647 0.000469144 0.00042437)
(0.0881071 0.000434244 0.000367428)
(0.087501 0.000413891 0.000311091)
(0.08694 0.000411527 0.00023833)
(0.0864086 0.000433432 0.000138877)
(0.0858784 0.000479224 -7.327e-06)
(0.0853031 0.000464672 -0.000301208)
(0.085149 0.000223349 -0.000972509)
(0.10014 0.000775041 0.000869237)
(0.100454 0.00196249 0.00196352)
(0.100911 0.00242771 0.00233439)
(0.100978 0.00252692 0.00244105)
(0.100694 0.00242678 0.00233641)
(0.100224 0.00219836 0.00211196)
(0.0997085 0.00191813 0.00182244)
(0.099183 0.00166811 0.00157411)
(0.098688 0.0014667 0.00138745)
(0.0982404 0.00130274 0.00124622)
(0.0978471 0.00116916 0.00114057)
(0.0975043 0.00106168 0.00106248)
(0.0972084 0.000976462 0.00100237)
(0.0969549 0.00090973 0.000950996)
(0.0967421 0.000859086 0.000901936)
(0.0965682 0.000820818 0.000847508)
(0.0964305 0.000791125 0.000773023)
(0.096322 0.000771371 0.000664585)
(0.0962218 0.000744679 0.000505524)
(0.0963364 0.000651306 0.000284418)
(0.100093 0.000445948 0.000763193)
(0.100504 0.00119456 0.001749)
(0.101105 0.00158694 0.00212949)
(0.101635 0.00174064 0.0022345)
(0.101979 0.00178262 0.00228669)
(0.102172 0.00172962 0.00223533)
(0.102253 0.00160906 0.00211502)
(0.102278 0.00146187 0.00196329)
(0.102281 0.00130767 0.00180021)
(0.102275 0.00116047 0.0016497)
(0.102272 0.00103462 0.00153884)
(0.102276 0.000929118 0.00145888)
(0.10229 0.000837887 0.0013996)
(0.102316 0.000758544 0.00135458)
(0.102354 0.000684032 0.00131838)
(0.102407 0.000611153 0.00128525)
(0.102477 0.000535626 0.0012495)
(0.102565 0.00045143 0.00120544)
(0.102669 0.000351269 0.00115528)
(0.10286 0.000217851 0.00113375)
(0.100087 0.000144388 0.000707009)
(0.100477 0.0003905 0.00161776)
(0.101066 0.000541127 0.00203461)
(0.101695 0.00061016 0.00211751)
(0.102269 0.000635974 0.00214982)
(0.102743 0.000626681 0.00217912)
(0.103125 0.000594549 0.00213312)
(0.10343 0.00054883 0.00204285)
(0.103684 0.000502931 0.00193291)
(0.103903 0.000459091 0.00182607)
(0.104104 0.000413914 0.00172633)
(0.104297 0.000368076 0.00163736)
(0.104486 0.000324246 0.00157317)
(0.104667 0.000281483 0.00153589)
(0.104839 0.000235073 0.00151685)
(0.105007 0.000180935 0.00150692)
(0.105171 0.000114294 0.00150308)
(0.105332 3.04032e-05 0.00150585)
(0.105491 -7.42881e-05 0.00151631)
(0.105721 -0.00019415 0.00155594)
(0.100087 -0.000144416 0.000707011)
(0.100477 -0.000390584 0.00161776)
(0.101066 -0.000541271 0.0020346)
(0.101694 -0.000610425 0.00211756)
(0.102269 -0.000636508 0.00215002)
(0.102742 -0.000627674 0.00217951)
(0.103124 -0.000596218 0.00213374)
(0.103428 -0.000551617 0.00204382)
(0.103681 -0.000507793 0.00193435)
(0.1039 -0.000467932 0.00182839)
(0.104098 -0.000429662 0.0017303)
(0.104287 -0.000394556 0.00164437)
(0.104469 -0.000366528 0.00158548)
(0.104638 -0.000346903 0.00155642)
(0.104791 -0.000336772 0.00154942)
(0.104929 -0.000340006 0.00155652)
(0.105054 -0.000360566 0.00157702)
(0.105166 -0.00040268 0.00161752)
(0.105263 -0.000465584 0.00167054)
(0.105452 -0.0005317 0.00167747)
(0.100093 -0.000445948 0.000763199)
(0.100504 -0.00119455 0.00174902)
(0.101105 -0.00158694 0.00212959)
(0.101634 -0.00174067 0.00223485)
(0.101979 -0.0017827 0.00228738)
(0.102171 -0.00172976 0.00223636)
(0.102251 -0.00160941 0.00211657)
(0.102275 -0.00146257 0.00196563)
(0.102275 -0.00130884 0.00180373)
(0.102266 -0.0011631 0.00165532)
(0.102256 -0.00103955 0.0015487)
(0.102249 -0.000936681 0.00147561)
(0.102244 -0.000848842 0.00142752)
(0.102241 -0.000774419 0.00140067)
(0.102237 -0.000712528 0.00139391)
(0.102226 -0.000661309 0.0014091)
(0.102199 -0.000620299 0.00145131)
(0.102155 -0.000597016 0.0015202)
(0.102094 -0.000586104 0.00159342)
(0.102172 -0.000549994 0.00154374)
(0.10014 -0.000775021 0.000869263)
(0.100454 -0.00196243 0.00196365)
(0.100911 -0.00242758 0.0023347)
(0.100978 -0.00252664 0.00244157)
(0.100693 -0.00242631 0.00233717)
(0.100223 -0.00219753 0.00211295)
(0.099707 -0.00191685 0.00182399)
(0.0991803 -0.00166626 0.0015769)
(0.0986832 -0.00146354 0.00139229)
(0.0982319 -0.00129704 0.00125432)
(0.0978319 -0.00115961 0.00115419)
(0.0974784 -0.00104559 0.00108512)
(0.0971654 -0.000949871 0.00103979)
(0.0968864 -0.000865235 0.00101245)
(0.0966332 -0.000786209 0.00100223)
(0.0963944 -0.000710372 0.00101391)
(0.0961554 -0.000634552 0.00105345)
(0.0959037 -0.000555086 0.00112776)
(0.0956133 -0.000448408 0.00119808)
(0.095574 -0.000271186 0.00109096)
(0.100226 -0.000720811 0.000720827)
(0.09996 -0.0019827 0.00198279)
(0.0997822 -0.0024518 0.00245201)
(0.0987879 -0.00241956 0.00241993)
(0.0972751 -0.00220071 0.00220129)
(0.0957739 -0.00181114 0.0018122)
(0.0943913 -0.00138179 0.00138353)
(0.0931613 -0.00106912 0.00107209)
(0.0920724 -0.000852197 0.000857355)
(0.0911072 -0.00069845 0.000707535)
(0.0902496 -0.000583245 0.000600028)
(0.089476 -0.000493976 0.000522167)
(0.0887648 -0.000424365 0.000469147)
(0.0881074 -0.000367347 0.000434157)
(0.0875014 -0.000310954 0.000413757)
(0.0869404 -0.000238257 0.000411456)
(0.0864092 -0.000138793 0.000433354)
(0.0858791 7.43601e-06 0.000479125)
(0.085304 0.000301362 0.000464528)
(0.0851501 0.000972977 0.000222887)
(0.0999088 -0.000712547 0.001297)
(0.0969668 -0.0027472 0.00365596)
(0.0935345 -0.00211804 0.00264033)
(0.0895891 -0.00162043 0.00182067)
(0.0858317 -0.00139032 0.00152926)
(0.0825893 -0.00116063 0.00135205)
(0.0798639 -0.000896271 0.00118068)
(0.0775649 -0.000690793 0.00104286)
(0.0755541 -0.000558247 0.000946847)
(0.073745 -0.000476057 0.000872679)
(0.0720911 -0.000425528 0.000805328)
(0.0705631 -0.000392918 0.000740527)
(0.0691416 -0.000370085 0.000684074)
(0.0678101 -0.000356935 0.000641678)
(0.0665538 -0.000351076 0.000615882)
(0.0653689 -0.000323916 0.000602166)
(0.06428 -0.0002588 0.000597136)
(0.0633393 -0.000105259 0.000573779)
(0.0627557 2.42065e-05 0.000643649)
(0.0613057 0.000641612 0.00046535)
(0.099413 0.00027023 0.00034524)
(0.0988664 0.0018749 0.00201909)
(0.0979214 0.00218901 0.00257324)
(0.0963657 0.0019084 0.00238004)
(0.094633 0.00162665 0.00211443)
(0.0929715 0.00141848 0.00192731)
(0.0913629 0.00127091 0.0018025)
(0.0898517 0.00115957 0.00170725)
(0.0884507 0.00106917 0.00160793)
(0.0871513 0.000997136 0.00149953)
(0.0859453 0.000948376 0.00139231)
(0.0848162 0.000920766 0.00129377)
(0.0837432 0.000909727 0.00120499)
(0.082708 0.000911377 0.00112393)
(0.0816948 0.000924427 0.00104929)
(0.0806856 0.000952157 0.000981742)
(0.0796537 0.0010025 0.000921447)
(0.0785567 0.00109083 0.00087197)
(0.0773193 0.001239 0.000866268)
(0.0756523 0.00128868 0.00090741)
(0.10014 0.000869263 0.000775021)
(0.100454 0.00196365 0.00196243)
(0.100911 0.0023347 0.00242758)
(0.100978 0.00244158 0.00252665)
(0.100693 0.00233717 0.00242632)
(0.100223 0.00211296 0.00219755)
(0.099707 0.001824 0.00191687)
(0.0991803 0.00157691 0.00166629)
(0.0986832 0.0013923 0.00146357)
(0.0982318 0.00125433 0.00129709)
(0.0978318 0.00115422 0.00115966)
(0.0974783 0.00108516 0.00104566)
(0.0971653 0.00103989 0.000949994)
(0.0968862 0.00101252 0.000865349)
(0.0966329 0.00100227 0.000786308)
(0.0963941 0.00101402 0.000710535)
(0.0961551 0.00105362 0.000634786)
(0.0959033 0.00112808 0.000555456)
(0.095613 0.00119871 0.000449038)
(0.0955738 0.0010918 0.000272103)
(0.10006 0.000641435 0.000641398)
(0.100501 0.00164519 0.00164506)
(0.101149 0.0022127 0.00221245)
(0.101738 0.0024405 0.00244006)
(0.102204 0.00244272 0.00244201)
(0.102501 0.00231466 0.00231355)
(0.102644 0.00209441 0.00209257)
(0.102712 0.00187202 0.0018691)
(0.102737 0.00167594 0.00167113)
(0.102749 0.00151269 0.00150476)
(0.102766 0.00137923 0.00136622)
(0.102796 0.00127214 0.00125098)
(0.102844 0.00118879 0.00115461)
(0.10291 0.00112691 0.00107188)
(0.102995 0.00108534 0.000997418)
(0.103097 0.00106474 0.000925927)
(0.103213 0.00106736 0.000850751)
(0.103345 0.00109098 0.000767523)
(0.103491 0.00111074 0.000666202)
(0.103776 0.00107876 0.000551291)
(0.100046 0.000395752 0.000540237)
(0.10048 0.00104497 0.00138408)
(0.101154 0.00147557 0.00192293)
(0.101913 0.00170559 0.00219248)
(0.102632 0.00178067 0.00229389)
(0.103301 0.00174577 0.00227796)
(0.103894 0.00163569 0.00218512)
(0.10439 0.00149389 0.0020517)
(0.104817 0.00134877 0.0019037)
(0.105195 0.00121554 0.0017637)
(0.105538 0.00109925 0.0016402)
(0.10586 0.00100076 0.00153445)
(0.10617 0.000917866 0.0014459)
(0.106475 0.00084859 0.00137156)
(0.10678 0.000790721 0.00130838)
(0.107088 0.000743686 0.00125205)
(0.107404 0.000705215 0.00119819)
(0.10773 0.000671721 0.00114258)
(0.108074 0.000632844 0.00108183)
(0.108495 0.000575415 0.00102896)
(0.100039 0.000131342 0.00047876)
(0.100448 0.000350524 0.00123475)
(0.101114 0.000505131 0.00174643)
(0.101909 0.000597279 0.00202672)
(0.102729 0.000638717 0.0021519)
(0.10353 0.000638458 0.00218607)
(0.104298 0.000604822 0.00215267)
(0.105008 0.000559706 0.00207844)
(0.105645 0.000510764 0.00197933)
(0.106219 0.000462809 0.00187135)
(0.106743 0.000418566 0.00176606)
(0.107226 0.000378759 0.00167076)
(0.107679 0.000343032 0.00159059)
(0.108112 0.000310332 0.0015275)
(0.108534 0.000278528 0.00147938)
(0.108947 0.000246882 0.00144364)
(0.109354 0.00021338 0.00141655)
(0.109758 0.000176182 0.00139607)
(0.11017 0.000133704 0.00137829)
(0.11063 8.78085e-05 0.00136813)
(0.100039 -0.00013136 0.000478771)
(0.100448 -0.000350569 0.00123479)
(0.101114 -0.00050521 0.00174651)
(0.101909 -0.000597414 0.00202686)
(0.102729 -0.000638961 0.00215218)
(0.103529 -0.000638875 0.00218654)
(0.104298 -0.000605577 0.00215338)
(0.105007 -0.00056098 0.0020795)
(0.105643 -0.000512968 0.00198095)
(0.106216 -0.000466692 0.00187394)
(0.106738 -0.000425241 0.00177038)
(0.107219 -0.000389647 0.00167808)
(0.107669 -0.000359877 0.00160292)
(0.108097 -0.000335654 0.00154777)
(0.108512 -0.000316977 0.00151157)
(0.108917 -0.000304817 0.00149166)
(0.10931 -0.000300648 0.00148555)
(0.109699 -0.000303424 0.00149363)
(0.110093 -0.000308376 0.00150685)
(0.110535 -0.000314412 0.00150845)
(0.100046 -0.000395738 0.000540269)
(0.10048 -0.00104492 0.00138418)
(0.101154 -0.00147548 0.00192314)
(0.101913 -0.00170547 0.00219286)
(0.102631 -0.00178045 0.00229456)
(0.103301 -0.0017454 0.00227904)
(0.103893 -0.00163508 0.00218681)
(0.104388 -0.00149296 0.00205445)
(0.104815 -0.00134729 0.00190795)
(0.105191 -0.00121347 0.00177031)
(0.105531 -0.00109637 0.00165083)
(0.105848 -0.00099634 0.00155187)
(0.106152 -0.000910521 0.0014744)
(0.106447 -0.000836137 0.00141815)
(0.106737 -0.000771571 0.00138263)
(0.107023 -0.000716674 0.00136812)
(0.107309 -0.000669091 0.00137616)
(0.107603 -0.000626004 0.00140259)
(0.107906 -0.000580367 0.0014291)
(0.10828 -0.000527454 0.00142109)
(0.10006 -0.000641398 0.000641435)
(0.100501 -0.00164506 0.00164518)
(0.101149 -0.00221245 0.0022127)
(0.101738 -0.00244005 0.0024405)
(0.102204 -0.002442 0.00244271)
(0.102501 -0.00231354 0.00231464)
(0.102644 -0.00209255 0.00209439)
(0.102712 -0.00186907 0.001872)
(0.102737 -0.0016711 0.00167591)
(0.102749 -0.00150472 0.00151266)
(0.102766 -0.00136617 0.00137919)
(0.102796 -0.00125092 0.00127209)
(0.102844 -0.00115452 0.00118872)
(0.10291 -0.00107175 0.00112681)
(0.102995 -0.000997237 0.00108522)
(0.103097 -0.000925722 0.0010646)
(0.103213 -0.0008505 0.0010672)
(0.103345 -0.000767189 0.00109078)
(0.103491 -0.000665742 0.00111048)
(0.103776 -0.000550585 0.00107845)
(0.10014 -0.000869237 0.000775041)
(0.100454 -0.00196352 0.00196249)
(0.100911 -0.00233439 0.0024277)
(0.100978 -0.00244105 0.00252691)
(0.100694 -0.00233641 0.00242677)
(0.100224 -0.00211195 0.00219835)
(0.0997085 -0.00182243 0.00191812)
(0.099183 -0.0015741 0.0016681)
(0.098688 -0.00138744 0.00146668)
(0.0982405 -0.0012462 0.00130272)
(0.0978472 -0.00114054 0.00116913)
(0.0975044 -0.00106245 0.00106165)
(0.0972085 -0.00100235 0.000976445)
(0.0969551 -0.000950861 0.000909621)
(0.0967423 -0.00090171 0.000858902)
(0.0965685 -0.000847308 0.000820671)
(0.0964308 -0.000772783 0.00079097)
(0.0963223 -0.000664273 0.000771188)
(0.0962222 -0.000505139 0.000744469)
(0.0963368 -0.000283958 0.000651056)
(0.099413 -0.000270227 0.000345251)
(0.0988664 -0.00187485 0.00201914)
(0.0979216 -0.00218884 0.00257334)
(0.096366 -0.00190812 0.00238024)
(0.0946337 -0.00162625 0.00211475)
(0.0929729 -0.00141792 0.00192782)
(0.0913654 -0.00126999 0.00180324)
(0.0898563 -0.00115801 0.00170843)
(0.0884587 -0.00106666 0.00160989)
(0.0871651 -0.000993042 0.00150279)
(0.0859688 -0.000941967 0.00139773)
(0.0848565 -0.000909675 0.00130253)
(0.0838115 -0.000890347 0.00121831)
(0.0828233 -0.000878191 0.0011426)
(0.0818891 -0.000867529 0.00107277)
(0.0810156 -0.000850439 0.00100593)
(0.0802256 -0.000812228 0.000932122)
(0.0795552 -0.000730115 0.000828988)
(0.079068 -0.000617203 0.000697011)
(0.0783782 -0.000376721 0.000332339)
(0.0995405 0.000321896 0.000245051)
(0.0992576 0.0015409 0.00105566)
(0.0988489 0.00211444 0.00150244)
(0.0981248 0.00209161 0.0015796)
(0.0973369 0.0018861 0.00151515)
(0.096585 0.0016658 0.00144703)
(0.0958655 0.00149777 0.00141119)
(0.0951978 0.00137121 0.00138073)
(0.0945688 0.0012846 0.00133634)
(0.093923 0.00122972 0.00126713)
(0.0932931 0.00119406 0.00118016)
(0.092676 0.00117395 0.0010887)
(0.0920614 0.00116615 0.00100419)
(0.09144 0.00116934 0.00093266)
(0.0908023 0.00118428 0.00087698)
(0.0901363 0.00121334 0.000839934)
(0.0894252 0.00126174 0.000825343)
(0.0886516 0.00134083 0.000841019)
(0.0877729 0.00145193 0.000877719)
(0.0867136 0.00143223 0.00109682)
(0.100093 0.000763198 0.000445949)
(0.100504 0.00174902 0.00119456)
(0.101105 0.00212959 0.00158694)
(0.101634 0.00223486 0.00174068)
(0.101979 0.00228739 0.00178271)
(0.102171 0.00223637 0.00172978)
(0.102251 0.00211658 0.00160944)
(0.102275 0.00196565 0.00146261)
(0.102275 0.00180375 0.00130888)
(0.102266 0.00165534 0.00116316)
(0.102256 0.00154873 0.00103963)
(0.102249 0.00147566 0.000936782)
(0.102244 0.00142762 0.000848979)
(0.102241 0.00140073 0.000774551)
(0.102237 0.00139396 0.000712668)
(0.102226 0.00140925 0.000661524)
(0.102199 0.00145156 0.000620583)
(0.102155 0.00152055 0.000597392)
(0.102094 0.00159392 0.000586596)
(0.102172 0.00154432 0.000550547)
(0.100046 0.00054027 0.000395738)
(0.10048 0.00138419 0.00104493)
(0.101154 0.00192314 0.00147549)
(0.101913 0.00219287 0.00170548)
(0.102631 0.00229457 0.00178046)
(0.103301 0.00227906 0.00174542)
(0.103893 0.00218683 0.00163511)
(0.104388 0.00205448 0.00149299)
(0.104815 0.00190798 0.00134733)
(0.105191 0.00177035 0.00121353)
(0.105531 0.00165088 0.00109644)
(0.105848 0.00155194 0.000996427)
(0.106152 0.00147448 0.000910634)
(0.106447 0.00141824 0.000836275)
(0.106737 0.00138274 0.000771739)
(0.107023 0.00136826 0.00071688)
(0.107309 0.00137635 0.00066934)
(0.107603 0.00140281 0.000626303)
(0.107906 0.00142933 0.000580705)
(0.10828 0.00142119 0.00052775)
(0.100036 0.000323173 0.000323146)
(0.100429 0.000868767 0.000868683)
(0.10108 0.00126257 0.00126241)
(0.101891 0.00150467 0.0015044)
(0.102756 0.00162207 0.00162161)
(0.103616 0.00164349 0.00164278)
(0.104446 0.00160574 0.00160469)
(0.105223 0.00152797 0.00152637)
(0.105937 0.00142929 0.00142683)
(0.106592 0.00132572 0.00132192)
(0.107195 0.00122794 0.00122201)
(0.107757 0.00114129 0.00113194)
(0.108286 0.00106772 0.00105303)
(0.10879 0.00100765 0.000984732)
(0.109275 0.000960693 0.00092574)
(0.109748 0.000925746 0.000874517)
(0.110215 0.000900776 0.000829613)
(0.11068 0.000883074 0.000785389)
(0.111153 0.000864368 0.000737847)
(0.111679 0.000836634 0.000694728)
(0.100031 0.000107092 0.000281377)
(0.100395 0.000293091 0.000768622)
(0.101024 0.000434165 0.00113306)
(0.101844 0.000526373 0.00136918)
(0.102751 0.000576582 0.0015014)
(0.103689 0.0005921 0.00155415)
(0.104618 0.000582868 0.00154911)
(0.105516 0.000558459 0.0015081)
(0.106367 0.000525096 0.00144431)
(0.107164 0.000488321 0.00136794)
(0.107907 0.000452439 0.00128756)
(0.1086 0.000419894 0.00120968)
(0.109249 0.000391762 0.00113859)
(0.109863 0.000368145 0.0010765)
(0.110451 0.000348353 0.00102425)
(0.111017 0.000330778 0.00098203)
(0.111568 0.000314373 0.000947974)
(0.112107 0.000297679 0.000918842)
(0.112647 0.000278329 0.000891664)
(0.113233 0.000258679 0.000869443)
(0.100031 -0.000107087 0.000281389)
(0.100395 -0.000293073 0.00076866)
(0.101024 -0.000434127 0.00113314)
(0.101843 -0.000526311 0.00136933)
(0.102751 -0.000576481 0.00150165)
(0.103688 -0.000591939 0.00155454)
(0.104617 -0.00058263 0.00154966)
(0.105516 -0.00055818 0.00150889)
(0.106367 -0.000524824 0.00144549)
(0.107163 -0.0004881 0.00136976)
(0.107905 -0.000452256 0.00129042)
(0.108598 -0.000419602 0.00121413)
(0.109246 -0.000390968 0.00114547)
(0.10986 -0.000366222 0.00108707)
(0.110446 -0.000344748 0.00104034)
(0.111012 -0.000325801 0.00100595)
(0.111561 -0.000309215 0.000981748)
(0.112099 -0.000293895 0.00096448)
(0.112637 -0.000277929 0.000948734)
(0.113219 -0.000262963 0.00093264)
(0.100036 -0.000323145 0.000323172)
(0.100429 -0.000868679 0.000868763)
(0.10108 -0.0012624 0.00126256)
(0.101891 -0.00150439 0.00150466)
(0.102756 -0.0016216 0.00162205)
(0.103616 -0.00164276 0.00164346)
(0.104446 -0.00160467 0.00160571)
(0.105223 -0.00152633 0.00152794)
(0.105937 -0.00142679 0.00142925)
(0.106592 -0.00132186 0.00132567)
(0.107195 -0.00122193 0.00122788)
(0.107757 -0.00113185 0.00114122)
(0.108286 -0.00105292 0.00106764)
(0.10879 -0.000984584 0.00100755)
(0.109275 -0.000925555 0.000960592)
(0.109749 -0.000874295 0.000925639)
(0.110215 -0.00082935 0.000900666)
(0.11068 -0.000785087 0.000882972)
(0.111153 -0.000737519 0.000864306)
(0.111679 -0.000694424 0.000836705)
(0.100046 -0.000540237 0.000395751)
(0.10048 -0.00138408 0.00104497)
(0.101154 -0.00192293 0.00147556)
(0.101913 -0.00219247 0.00170558)
(0.102632 -0.00229388 0.00178065)
(0.103301 -0.00227794 0.00174575)
(0.103894 -0.0021851 0.00163567)
(0.10439 -0.00205167 0.00149386)
(0.104818 -0.00190367 0.00134874)
(0.105195 -0.00176365 0.0012155)
(0.105538 -0.00164014 0.0010992)
(0.10586 -0.00153438 0.00100071)
(0.10617 -0.0014458 0.000917793)
(0.106475 -0.00137141 0.000848486)
(0.10678 -0.00130818 0.000790597)
(0.107088 -0.00125182 0.000743561)
(0.107404 -0.00119791 0.000705087)
(0.10773 -0.00114225 0.000671597)
(0.108074 -0.00108144 0.000632724)
(0.108495 -0.00102852 0.000575338)
(0.100093 -0.000763193 0.000445948)
(0.100504 -0.001749 0.00119456)
(0.101105 -0.00212949 0.00158694)
(0.101635 -0.0022345 0.00174063)
(0.101979 -0.00228668 0.0017826)
(0.102172 -0.00223532 0.00172961)
(0.102253 -0.00211501 0.00160904)
(0.102278 -0.00196327 0.00146184)
(0.102281 -0.00180019 0.00130763)
(0.102275 -0.00164967 0.00116043)
(0.102272 -0.0015388 0.00103456)
(0.102276 -0.00145883 0.000929059)
(0.10229 -0.00139955 0.000837831)
(0.102316 -0.00135446 0.000758431)
(0.102354 -0.00131818 0.000683869)
(0.102408 -0.00128503 0.000611)
(0.102478 -0.00124919 0.000535459)
(0.102565 -0.00120501 0.000451234)
(0.102669 -0.00115473 0.000351002)
(0.10286 -0.00113336 0.000217486)
(0.0995405 -0.000321897 0.000245046)
(0.0992576 -0.00154091 0.00105563)
(0.098849 -0.00211437 0.00150239)
(0.0981251 -0.00209148 0.00157951)
(0.0973376 -0.00188588 0.00151487)
(0.0965865 -0.00166547 0.0014464)
(0.0958681 -0.0014974 0.00141)
(0.0952022 -0.00137057 0.00137869)
(0.0945767 -0.00128315 0.00133254)
(0.0939366 -0.00122637 0.00126092)
(0.0933164 -0.00118705 0.00117056)
(0.0927155 -0.00116146 0.00107338)
(0.0921278 -0.00114523 0.000978664)
(0.0915501 -0.00113678 0.000887993)
(0.090983 -0.00113106 0.000799465)
(0.0904284 -0.00112303 0.000706449)
(0.0898882 -0.00110592 0.000592343)
(0.0893664 -0.00107572 0.0004394)
(0.0888675 -0.00103829 0.000221146)
(0.0883808 -0.00109861 -7.48153e-05)
(0.0993802 5.89975e-05 3.37864e-05)
(0.0992678 0.00120004 0.000274438)
(0.0989806 0.00188841 0.000432471)
(0.0984749 0.00200631 0.000483614)
(0.0979961 0.00191442 0.000479076)
(0.0975719 0.00173439 0.000465888)
(0.0971828 0.00154672 0.000453466)
(0.0968341 0.00138769 0.000443354)
(0.0965356 0.00126878 0.000437881)
(0.0962836 0.00119768 0.000431212)
(0.0960133 0.00116965 0.000416088)
(0.0957256 0.00116665 0.000395656)
(0.0954197 0.00117456 0.000376471)
(0.0950851 0.00118893 0.000363922)
(0.0947149 0.00121144 0.000363274)
(0.0943054 0.00124641 0.000382132)
(0.093854 0.00129601 0.000426972)
(0.093356 0.00135841 0.000505647)
(0.0927814 0.00142486 0.000618545)
(0.0921315 0.00146742 0.000846106)
(0.100087 0.000707012 0.000144417)
(0.100477 0.00161777 0.000390589)
(0.101066 0.00203461 0.000541279)
(0.101694 0.00211756 0.000610437)
(0.102269 0.00215003 0.000636525)
(0.102742 0.00217953 0.000627698)
(0.103124 0.00213376 0.00059625)
(0.103428 0.00204384 0.00055166)
(0.103681 0.00193438 0.000507849)
(0.1039 0.00182842 0.000468004)
(0.104098 0.00173034 0.000429754)
(0.104287 0.00164442 0.000394675)
(0.104469 0.00158556 0.000366677)
(0.104638 0.0015565 0.000347077)
(0.104791 0.00154951 0.000336973)
(0.104929 0.00155666 0.000340258)
(0.105054 0.00157721 0.000360875)
(0.105166 0.00161779 0.000403049)
(0.105263 0.00167087 0.000465993)
(0.105452 0.00167763 0.000532027)
(0.100039 0.000478772 0.000131361)
(0.100448 0.00123479 0.000350573)
(0.101114 0.00174651 0.000505217)