/*--------------------------------*- C++ -*----------------------------------*\
| =========                 |                                                 |
| \\      /  F ield         | OpenFOAM: The Open Source CFD Toolbox           |
|  \\    /   O peration     | Version:  2212                                  |
|   \\  /    A nd           | Website:  www.openfoam.com                      |
|    \\/     M anipulation  |                                                 |
\*---------------------------------------------------------------------------*/
FoamFile
{
    version     2.0;
    format      ascii;
    arch        "LSB;label=32;scalar=64";
    class       surfaceVectorField;
    location    "3";
    object      Uf;
}
// * * * * * * * * * * * * * * * * * * * * * * * * * * * * * * * * * * * * * //

dimensions      [0 1 -1 0 0 0 0];

internalField   nonuniform List<vector> 
19019
(
(0.0993441 -0.003419 -0.00341902)
(0.0973536 0.00106247 -0.00148428)
(0.0973536 -0.00148427 0.00106248)
(0.0834791 0.00197592 0.00197586)
(0.0930872 0.00326902 0.00253345)
(0.0930872 0.0025335 0.00326897)
(0.074517 0.00195882 0.00195868)
(0.084864 0.0016359 0.00179232)
(0.0848639 0.00179242 0.00163581)
(0.0685475 0.00115926 0.00115895)
(0.0786279 0.00107364 0.00122131)
(0.0786279 0.00122153 0.00107345)
(0.0642356 0.00069735 0.00069679)
(0.0740527 0.000785615 0.000865009)
(0.0740526 0.00086541 0.000785177)
(0.0607557 0.000495553 0.000494373)
(0.0704419 0.000650988 0.000669137)
(0.0704417 0.000669826 0.000650277)
(0.0579357 0.000376172 0.000373866)
(0.0674906 0.000547625 0.000508216)
(0.0674903 0.000509648 0.000546094)
(0.0556113 0.000290259 0.000286347)
(0.0650492 0.000470435 0.000386884)
(0.0650486 0.00038935 0.000467715)
(0.05362 0.000230777 0.000224313)
(0.0629632 0.000417878 0.000306933)
(0.062962 0.000310992 0.000413234)
(0.051872 0.000189498 0.000178529)
(0.061127 0.000377178 0.000253469)
(0.0611249 0.000260195 0.000369233)
(0.0503168 0.000161859 0.000143234)
(0.0594807 0.000342247 0.000216709)
(0.0594766 0.00022887 0.000328466)
(0.0489203 0.000144303 0.000113782)
(0.0579891 0.000312423 0.000190297)
(0.0579816 0.000211125 0.000289131)
(0.0476524 0.000134291 8.63246e-05)
(0.0566251 0.000290036 0.000169355)
(0.0566112 0.000202396 0.000251863)
(0.0464882 0.000131165 5.68131e-05)
(0.0553646 0.00027669 0.000152219)
(0.0553402 0.000198993 0.000215104)
(0.0454162 0.000136629 2.82842e-05)
(0.0541919 0.000273123 0.000134615)
(0.0541508 0.000200523 0.000172955)
(0.0444369 0.000159465 -4.49763e-06)
(0.0531016 0.00027803 0.000111004)
(0.0530312 0.000208831 0.000121463)
(0.0435572 0.000209242 -7.23649e-05)
(0.0521073 0.000301503 6.3344e-05)
(0.0519802 0.000237113 4.96658e-05)
(0.0428235 0.000277671 -0.00020471)
(0.0512379 0.000352988 -4.23514e-05)
(0.0509949 0.00029469 -6.10865e-05)
(0.0422293 8.9882e-05 -0.000750437)
(0.0506488 0.00049029 -0.000157214)
(0.0501481 0.000350211 -0.000247271)
(0.0492495 0.00022774 -0.000912094)
(0.0486563 0.000129263 -0.00101326)
(0.0984572 0.00247648 0.00172988)
(0.0996871 0.000439245 0.000345479)
(0.100049 0.00105639 0.000750964)
(0.0958347 0.00314814 0.00243262)
(0.0978161 0.00273288 0.00228225)
(0.0982936 0.00280927 0.00216144)
(0.0914498 0.0022305 0.00186923)
(0.0954959 0.00300185 0.00230304)
(0.0963039 0.00244274 0.00199775)
(0.0875949 0.00167496 0.00150537)
(0.092619 0.00229962 0.00183867)
(0.0936666 0.00198091 0.00172692)
(0.084147 0.00144066 0.00127548)
(0.0897671 0.00189238 0.0015355)
(0.0909041 0.00172004 0.00149776)
(0.0811868 0.00126637 0.00102846)
(0.0872318 0.00165727 0.00129439)
(0.0884336 0.00145501 0.00121156)
(0.0786996 0.00111177 0.000793537)
(0.0850062 0.0014933 0.00107679)
(0.0863034 0.0011842 0.000908415)
(0.0765539 0.000994857 0.000624528)
(0.0830603 0.0013737 0.00091272)
(0.0844782 0.000984307 0.000690415)
(0.0746464 0.000909773 0.000517165)
(0.0813237 0.00128212 0.000800775)
(0.0828761 0.000847455 0.000548162)
(0.0729157 0.00083902 0.000450812)
(0.079745 0.00119997 0.000725059)
(0.081441 0.000748402 0.000454578)
(0.0713249 0.000772952 0.000409252)
(0.0782957 0.00112205 0.000676754)
(0.08014 0.000669342 0.000389692)
(0.0698508 0.000712328 0.000381533)
(0.0769535 0.00104904 0.000646403)
(0.0789464 0.000602844 0.000341585)
(0.0684754 0.000662917 0.000363537)
(0.0757002 0.000983069 0.000626272)
(0.0778397 0.000550686 0.000304535)
(0.0671823 0.000628868 0.000354049)
(0.0745221 0.000926031 0.000613657)
(0.0768069 0.000513524 0.000276423)
(0.0659588 0.000609158 0.000337584)
(0.0734098 0.000880213 0.000605536)
(0.0758388 0.000491203 0.000250622)
(0.064815 0.000599804 0.000291489)
(0.072364 0.000847007 0.000584593)
(0.0749303 0.000483264 0.000204995)
(0.0637874 0.000585614 0.000182214)
(0.0714085 0.000820525 0.000535198)
(0.0740883 0.000489838 0.000123874)
(0.062999 0.000608865 4.07617e-05)
(0.0705884 0.000764421 0.000414829)
(0.0733295 0.000494871 -3.16842e-05)
(0.0626339 0.000554686 -0.000332615)
(0.0700475 0.000700865 0.000275937)
(0.0727493 0.00050261 -0.000292085)
(0.068937 0.000381924 -0.000195323)
(0.0718735 0.000159828 -0.00125439)
(0.0993753 0.0011822 0.00107254)
(0.099473 0.000349777 0.000307056)
(0.0997475 0.000611002 0.000779868)
(0.0984948 0.00229624 0.00203185)
(0.0990504 0.00157691 0.00172043)
(0.0995971 0.0020184 0.00200283)
(0.0971413 0.00247679 0.00204848)
(0.0983578 0.00213132 0.00216878)
(0.0992972 0.00246173 0.0021023)
(0.0954395 0.0022475 0.00176719)
(0.0971934 0.00203617 0.00200226)
(0.0984882 0.00237484 0.00190243)
(0.0937508 0.00202129 0.00152209)
(0.0959055 0.00185624 0.00175411)
(0.0974222 0.00218145 0.0016884)
(0.0921384 0.00186554 0.00134396)
(0.0946726 0.00173367 0.00154219)
(0.0963095 0.00198563 0.00150775)
(0.090602 0.00175585 0.001214)
(0.0934833 0.0016543 0.00138569)
(0.0952044 0.00180312 0.00134179)
(0.0891523 0.00165918 0.00111235)
(0.0923707 0.00157939 0.00126431)
(0.0941479 0.00164711 0.00120225)
(0.0878058 0.00155636 0.00102987)
(0.0913363 0.00148556 0.00116998)
(0.0931656 0.00150887 0.00109332)
(0.0865639 0.00145029 0.000967526)
(0.09035 0.00137777 0.00110007)
(0.0922613 0.00138178 0.00100982)
(0.0854117 0.00135017 0.000925852)
(0.0894247 0.00127073 0.00105237)
(0.0914344 0.00126849 0.000950459)
(0.0843332 0.00126048 0.000900054)
(0.0885529 0.00116891 0.00102186)
(0.0906762 0.00117131 0.000909709)
(0.0833159 0.00118052 0.00088432)
(0.0877229 0.00107522 0.0010029)
(0.0899758 0.00108933 0.000880899)
(0.0823535 0.00110776 0.000872924)
(0.0869276 0.000989489 0.000991775)
(0.0893256 0.00101986 0.000857936)
(0.0814489 0.00103944 0.000859092)
(0.0861661 0.000908567 0.000982906)
(0.0887234 0.000960508 0.000835289)
(0.0806155 0.00096915 0.000831517)
(0.0854425 0.000824428 0.000968931)
(0.0881717 0.000907701 0.00080405)
(0.0798868 0.000880717 0.000771464)
(0.0847698 0.000720949 0.000938139)
(0.0876818 0.000853666 0.000747309)
(0.0792977 0.000763186 0.000674094)
(0.0841691 0.000576183 0.000876171)
(0.0872698 0.000785971 0.00064301)
(0.0789192 0.00051487 0.000497524)
(0.0836761 0.000385156 0.000794456)
(0.0869606 0.000695995 0.000486737)
(0.0830816 5.43669e-05 0.000695984)
(0.0866407 0.000441528 0.000204861)
(0.0996493 0.000650341 0.000931404)
(0.0994625 0.000129387 0.000192512)
(0.0997993 0.000375144 0.000741351)
(0.0990855 0.00127901 0.00182764)
(0.0992626 0.000636921 0.0013706)
(0.0998409 0.00115045 0.00181418)
(0.0984494 0.00154095 0.00210293)
(0.098913 0.000973494 0.00200349)
(0.0999048 0.00153664 0.00209004)
(0.0977081 0.0015472 0.00198868)
(0.0982953 0.00105016 0.00205049)
(0.0997676 0.00163194 0.00202279)
(0.0969403 0.00148065 0.00177568)
(0.097658 0.00100766 0.00189935)
(0.0995099 0.00160998 0.00189524)
(0.0962094 0.00142821 0.00158144)
(0.0970661 0.00096029 0.00169786)
(0.0992004 0.00154826 0.00175099)
(0.0955251 0.00139436 0.00143399)
(0.0965081 0.000933498 0.00152002)
(0.0988563 0.00147578 0.00162478)
(0.0948775 0.00135564 0.00132687)
(0.0959968 0.000917078 0.00137802)
(0.0985137 0.00139482 0.00151336)
(0.094246 0.00129677 0.00125477)
(0.095531 0.000902633 0.00127652)
(0.0981822 0.00130258 0.0014169)
(0.0936244 0.00121579 0.00120673)
(0.0950807 0.000869822 0.00121334)
(0.097839 0.00119937 0.00133855)
(0.0930165 0.00112203 0.00117429)
(0.0946325 0.000811921 0.00117864)
(0.0975073 0.00109522 0.00128236)
(0.0924219 0.00102609 0.00115339)
(0.0941871 0.000743966 0.00116251)
(0.0971896 0.000996168 0.00124322)
(0.0918384 0.000933396 0.00114106)
(0.0937417 0.00067609 0.00115583)
(0.0968836 0.000904531 0.00121537)
(0.0912656 0.000843783 0.001134)
(0.0932911 0.00060838 0.00115506)
(0.0965884 0.000820182 0.00119589)
(0.0907047 0.00075301 0.00112717)
(0.0928337 0.000538899 0.00115791)
(0.0963045 0.000738986 0.00118052)
(0.0901578 0.000649463 0.0011147)
(0.0923709 0.000462566 0.00116205)
(0.0960343 0.000656043 0.00116458)
(0.089629 0.000515943 0.00109118)
(0.0919035 0.00036646 0.00116402)
(0.0957795 0.000560545 0.00114201)
(0.0891193 0.000330301 0.00105753)
(0.0914331 0.000237503 0.00116116)
(0.0955426 0.000440298 0.00110853)
(0.0886354 7.30063e-05 0.00106913)
(0.090958 6.02262e-05 0.00115996)
(0.0953258 0.000278193 0.00107068)
(0.0904742 -0.00016388 0.00124689)
(0.0951564 5.93113e-05 0.00109965)
(0.0996725 0.000154063 0.000629497)
(0.0993802 -6.22192e-09 5.8987e-05)
(0.0997132 0.000103923 0.000687942)
(0.0991592 0.000353318 0.00154421)
(0.0992678 -3.53664e-08 0.00120003)
(0.0998377 0.000341643 0.00162227)
(0.0986639 0.000457777 0.00194734)
(0.0989806 -9.49817e-08 0.00188841)
(0.0999632 0.000485468 0.00199133)
(0.0982129 0.000480874 0.00196029)
(0.098475 -1.77559e-07 0.00200629)
(0.0999922 0.000539601 0.00199645)
(0.0977776 0.000471624 0.00182421)
(0.0979962 -3.15281e-07 0.00191436)
(0.10001 0.000546306 0.0019106)
(0.0973651 0.000458084 0.00164023)
(0.0975722 -5.73679e-07 0.00173425)
(0.100009 0.000533253 0.00180347)
(0.0969987 0.00044555 0.00146669)
(0.0971834 -1.05592e-06 0.00154653)
(0.0999837 0.000510985 0.00168159)
(0.0966811 0.000435644 0.00132728)
(0.096835 -1.85214e-06 0.00138736)
(0.0999432 0.000484133 0.00157047)
(0.0964053 0.000426041 0.00123143)
(0.0965372 -3.21004e-06 0.00126814)
(0.0999056 0.000459454 0.00147785)
(0.0961469 0.000409319 0.0011805)
(0.0962863 -5.45539e-06 0.0011965)
(0.0998772 0.000434236 0.00141267)
(0.0958803 0.000382037 0.00116287)
(0.0960179 -9.14402e-06 0.00116765)
(0.0998306 0.000402261 0.00137044)
(0.0955954 0.000346756 0.00116184)
(0.0957334 -1.52044e-05 0.00116335)
(0.099773 0.000364421 0.00133968)
(0.0952891 0.000305525 0.00116723)
(0.0954329 -2.51779e-05 0.00116907)
(0.099706 0.000323922 0.00131919)
(0.0949596 0.000258655 0.00117677)
(0.0951075 -4.15768e-05 0.00117987)
(0.099624 0.000280677 0.00130949)
(0.0946057 0.000204857 0.00119119)
(0.0947517 -6.68814e-05 0.00119702)
(0.0995247 0.000232711 0.00130952)
(0.0942278 0.000137555 0.00121072)
(0.0943641 -0.00010594 0.00122299)
(0.0994102 0.000176694 0.00131632)
(0.093825 4.52702e-05 0.00123441)
(0.0939432 -0.00016705 0.0012588)
(0.099281 0.000104862 0.00132798)
(0.093395 -8.10223e-05 0.0012649)
(0.0934864 -0.00025988 0.00130265)
(0.099137 8.32415e-06 0.00134375)
(0.0929237 -0.000244595 0.00133815)
(0.0929743 -0.000384703 0.00135367)
(0.0989744 -0.000117437 0.0013687)
(0.092409 -0.000583295 0.00143045)
(0.0988287 -0.000270209 0.0014496)
(0.0996725 -0.00015411 0.000629518)
(0.0994625 -0.000129404 0.000192523)
(0.0997132 -0.000103943 0.000687943)
(0.0991592 -0.000353448 0.00154422)
(0.0992625 -0.000636984 0.00137061)
(0.0998377 -0.000341724 0.00162228)
(0.0986638 -0.00045803 0.00194736)
(0.098913 -0.000973612 0.00200352)
(0.0999631 -0.000485631 0.00199132)
(0.0982127 -0.000481328 0.00196036)
(0.0982951 -0.00105036 0.00205057)
(0.0999921 -0.000539897 0.00199648)
(0.0977772 -0.000472458 0.0018244)
(0.0976576 -0.00100807 0.00189951)
(0.10001 -0.000546864 0.00191073)
(0.0973643 -0.000459644 0.00164055)
(0.0970651 -0.000961122 0.00169815)
(0.100008 -0.000534293 0.00180375)
(0.0969974 -0.000448368 0.0014672)
(0.0965063 -0.000935103 0.00152038)
(0.0999827 -0.000512844 0.00168201)
(0.0966787 -0.000440563 0.00132822)
(0.0959937 -0.000919947 0.00137866)
(0.0999415 -0.000487345 0.00157119)
(0.0964012 -0.000434477 0.00123321)
(0.0955255 -0.000907777 0.00127788)
(0.0999028 -0.00046504 0.00147912)
(0.0961399 -0.000423564 0.00118364)
(0.0950713 -0.00087849 0.00121621)
(0.0998726 -0.000444017 0.00141484)
(0.0958684 -0.000405766 0.00116813)
(0.0946164 -0.000826077 0.00118421)
(0.099823 -0.000419102 0.00137402)
(0.0955749 -0.000385934 0.00117058)
(0.0941595 -0.000767099 0.00117218)
(0.0997603 -0.00039251 0.0013457)
(0.0952543 -0.000370031 0.0011817)
(0.0936951 -0.000714133 0.00117199)
(0.0996843 -0.000369557 0.00132953)
(0.0949013 -0.000363376 0.00120012)
(0.0932132 -0.000672055 0.00118069)
(0.099587 -0.000353832 0.00132673)
(0.0945116 -0.000372409 0.00122882)
(0.0927057 -0.00064412 0.0011994)
(0.0994635 -0.000348773 0.00133695)
(0.094081 -0.000404175 0.00127107)
(0.0921646 -0.000635698 0.00123146)
(0.099312 -0.000360304 0.00136016)
(0.0936035 -0.000465831 0.00132703)
(0.09158 -0.000652152 0.00128065)
(0.0991323 -0.000393693 0.00139671)
(0.0930716 -0.000561473 0.00139143)
(0.0909406 -0.00070152 0.00135189)
(0.0989218 -0.000454987 0.00144711)
(0.0924806 -0.00073156 0.00144598)
(0.0902101 -0.000777992 0.00144148)
(0.0986638 -0.000543875 0.00150079)
(0.0893502 -0.000993539 0.00145114)
(0.0984088 -0.000695007 0.00152138)
(0.0996493 -0.000650355 0.000931399)
(0.099473 -0.000349771 0.000307057)
(0.0997993 -0.000375146 0.000741349)
(0.0990854 -0.00127905 0.00182767)
(0.0990504 -0.00157688 0.00172046)
(0.0998409 -0.00115046 0.00181417)
(0.0984492 -0.00154101 0.00210302)
(0.0983577 -0.00213127 0.00216889)
(0.0999047 -0.00153666 0.0020901)
(0.0977076 -0.00154736 0.00198885)
(0.0971931 -0.00203608 0.00200246)
(0.0997673 -0.00163199 0.00202299)
(0.0969393 -0.00148107 0.00177594)
(0.0959048 -0.00185618 0.00175441)
(0.0995093 -0.00161015 0.00189563)
(0.0962075 -0.00142908 0.00158178)
(0.0946712 -0.00173371 0.00154264)
(0.0991992 -0.00154863 0.00175159)
(0.0955217 -0.00139592 0.00143448)
(0.0934808 -0.0016545 0.00138636)
(0.0988541 -0.00147654 0.00162563)
(0.0948715 -0.00135848 0.00132789)
(0.0923663 -0.00157974 0.00126544)
(0.0985097 -0.00139619 0.00151475)
(0.0942356 -0.00130167 0.00125715)
(0.0913284 -0.00148631 0.00117198)
(0.0981755 -0.00130509 0.00141925)
(0.0936064 -0.00122356 0.00121187)
(0.0903365 -0.00137903 0.00110382)
(0.0978277 -0.00120378 0.00134257)
(0.0929857 -0.00113433 0.00118398)
(0.0894015 -0.00127269 0.00105912)
(0.0974879 -0.00110237 0.00128957)
(0.0923699 -0.00104632 0.00117001)
(0.0885133 -0.00117214 0.00103374)
(0.0971563 -0.00100741 0.0012556)
(0.0917518 -0.000968264 0.00116768)
(0.0876559 -0.00108141 0.00102325)
(0.0968269 -0.00092265 0.00123672)
(0.0911226 -0.000904604 0.00117672)
(0.0868154 -0.00100271 0.0010251)
(0.0964951 -0.000850714 0.00123157)
(0.0904717 -0.000858163 0.00119867)
(0.085979 -0.000936245 0.00103885)
(0.096154 -0.000792736 0.00124013)
(0.0897833 -0.000832246 0.00123733)
(0.0851314 -0.000881984 0.00106691)
(0.0957944 -0.000749318 0.00126449)
(0.0890373 -0.000832675 0.00130097)
(0.0842506 -0.000843076 0.00111624)
(0.0954038 -0.000722341 0.00131016)
(0.0882113 -0.000858758 0.00139588)
(0.0833061 -0.000828647 0.00120118)
(0.0949717 -0.000719462 0.00138288)
(0.0873104 -0.000986487 0.00144137)
(0.0822379 -0.000858938 0.00133558)
(0.0944758 -0.000732837 0.00147026)
(0.080858 -0.00102907 0.00136346)
(0.093949 -0.000831214 0.00142962)
(0.0993753 -0.00118216 0.00107256)
(0.0996871 -0.000439234 0.000345487)
(0.0997475 -0.000610986 0.00077988)
(0.0984947 -0.00229616 0.00203195)
(0.0978161 -0.0027328 0.00228231)
(0.0995971 -0.00201834 0.0020029)
(0.0971411 -0.00247663 0.0020487)
(0.0954959 -0.00300173 0.00230318)
(0.0992971 -0.0024616 0.00210251)
(0.095439 -0.00224722 0.00176752)
(0.0926188 -0.0022994 0.00183893)
(0.0984879 -0.00237459 0.00190279)
(0.0937498 -0.00202085 0.00152256)
(0.0897666 -0.00189194 0.00153588)
(0.0974216 -0.00218104 0.00168893)
(0.0921365 -0.00186488 0.00134469)
(0.087231 -0.00165654 0.00129498)
(0.0963084 -0.00198495 0.0015085)
(0.0905986 -0.00175484 0.00121524)
(0.0850047 -0.00149207 0.00107775)
(0.0952024 -0.00180211 0.00134299)
(0.0891462 -0.00165755 0.00111436)
(0.0830575 -0.00137168 0.000914333)
(0.0941442 -0.00164558 0.00120432)
(0.0877952 -0.00155368 0.00103314)
(0.0813185 -0.00127873 0.000803466)
(0.0931591 -0.00150627 0.00109672)
(0.0865457 -0.00144586 0.00097274)
(0.079736 -0.00119412 0.000729584)
(0.09225 -0.00137726 0.00101543)
(0.0853805 -0.00134295 0.000934541)
(0.0782798 -0.00111171 0.000684937)
(0.0914149 -0.001261 0.000959797)
(0.0842802 -0.00124925 0.000915195)
(0.0769254 -0.00103176 0.000660846)
(0.0906427 -0.00115897 0.000925668)
(0.0832263 -0.00116432 0.000910487)
(0.0756509 -0.000955997 0.000650125)
(0.0899195 -0.00106967 0.000908114)
(0.0822025 -0.00108647 0.000917832)
(0.0744376 -0.000885938 0.000648271)
(0.0892323 -0.000989018 0.000903461)
(0.0811932 -0.00101533 0.000938188)
(0.0732669 -0.00082085 0.000655842)
(0.0885688 -0.000913916 0.00091118)
(0.0801738 -0.000951322 0.000977142)
(0.0721203 -0.000751072 0.00067624)
(0.0879142 -0.000843591 0.000935188)
(0.0791096 -0.000896305 0.00104635)
(0.0709786 -0.000672204 0.000715664)
(0.0872473 -0.000776784 0.00098288)
(0.0779464 -0.000868517 0.00116437)
(0.0698084 -0.000579222 0.000782792)
(0.0865395 -0.000713808 0.00106599)
(0.0766219 -0.000886003 0.00126304)
(0.0685773 -0.000481266 0.000878186)
(0.0857382 -0.000661593 0.00117846)
(0.0669041 -0.000378367 0.00106434)
(0.0848212 -0.000601183 0.0011526)
(0.0984572 -0.00247644 0.00172991)
(0.0973536 -0.00106247 -0.00148427)
(0.100049 -0.00105638 0.000750978)
(0.0958347 -0.00314805 0.00243272)
(0.0930872 -0.00326897 0.0025335)
(0.0982936 -0.00280919 0.00216152)
(0.0914498 -0.00223035 0.00186943)
(0.084864 -0.00163581 0.00179242)
(0.0963038 -0.00244258 0.00199791)
(0.0875947 -0.00167464 0.00150569)
(0.0786279 -0.00107345 0.00122154)
(0.0936665 -0.00198063 0.00172722)
(0.0841467 -0.00144006 0.00127601)
(0.0740526 -0.000785171 0.000865414)
(0.090904 -0.00171952 0.00149823)
(0.0811862 -0.00126535 0.00102936)
(0.0704417 -0.000650269 0.00066983)
(0.0884334 -0.00145415 0.00121243)
(0.0786985 -0.00111 0.000795015)
(0.0674903 -0.000546084 0.000509654)
(0.086303 -0.00118272 0.000909846)
(0.0765517 -0.000991806 0.000626997)
(0.0650486 -0.000467702 0.000389356)
(0.0844773 -0.000981779 0.000692814)
(0.0746424 -0.000904415 0.000521368)
(0.0629621 -0.000413218 0.000310998)
(0.0828745 -0.00084306 0.000552285)
(0.0729083 -0.00082954 0.000458705)
(0.061125 -0.000369215 0.0002602)
(0.0814381 -0.00074067 0.0004618)
(0.0713111 -0.000756642 0.000423795)
(0.0594768 -0.000328443 0.000228872)
(0.0801346 -0.000655362 0.000403449)
(0.0698253 -0.000685487 0.000405565)
(0.0579818 -0.000289102 0.000211122)
(0.0789361 -0.000579338 0.000365383)
(0.0684292 -0.000619936 0.000397074)
(0.0566114 -0.000251827 0.000202379)
(0.0778206 -0.000513213 0.000342779)
(0.0671025 -0.000559557 0.000395866)
(0.0553406 -0.000215071 0.000198951)
(0.0767734 -0.000456379 0.000331394)
(0.0658231 -0.000490198 0.000402772)
(0.0541513 -0.000172941 0.00020047)
(0.0757821 -0.000401727 0.000331019)
(0.0645783 -0.000398046 0.000421653)
(0.0530318 -0.00012146 0.000208778)
(0.0748331 -0.00032921 0.000346133)
(0.0633513 -0.000280669 0.000459519)
(0.051981 -4.96352e-05 0.00023705)
(0.0739125 -0.000232264 0.000382964)
(0.0621201 -0.000129333 0.00051061)
(0.050996 6.11509e-05 0.000294602)
(0.0729929 -9.94532e-05 0.000441436)
(0.0608999 7.89489e-05 0.000680526)
(0.0501497 0.000247407 0.000350011)
(0.0720551 0.000132666 0.000450577)
(0.048659 0.00101349 0.000128958)
(0.0710517 0.000601278 0.000421092)
(0.0993441 0.00341902 -0.003419)
(0.0973536 0.00148428 0.00106247)
(0.0834791 -0.00197586 0.00197593)
(0.0930872 -0.00253345 0.00326902)
(0.074517 -0.00195868 0.00195882)
(0.084864 -0.00179232 0.0016359)
(0.0685475 -0.00115895 0.00115926)
(0.0786279 -0.00122131 0.00107364)
(0.0642356 -0.000696784 0.000697355)
(0.0740527 -0.000865006 0.000785618)
(0.0607557 -0.000494365 0.00049556)
(0.0704419 -0.000669133 0.000650992)
(0.0579357 -0.000373855 0.000376181)
(0.0674907 -0.000508209 0.000547631)
(0.0556113 -0.000286334 0.000290268)
(0.0650492 -0.000386875 0.000470441)
(0.0536201 -0.000224298 0.000230784)
(0.0629633 -0.000306923 0.000417884)
(0.0518721 -0.000178511 0.000189503)
(0.0611272 -0.000253456 0.000377183)
(0.050317 -0.000143212 0.000161861)
(0.0594808 -0.000216694 0.000342252)
(0.0489205 -0.000113757 0.000144298)
(0.0579893 -0.00019028 0.000312431)
(0.0476526 -8.62956e-05 0.000134266)
(0.0566253 -0.000169344 0.00029005)
(0.0464886 -5.67838e-05 0.000131109)
(0.0553649 -0.00015221 0.000276677)
(0.0454166 -2.82729e-05 0.00013657)
(0.0541923 -0.000134596 0.000273071)
(0.0444374 4.50451e-06 0.000159418)
(0.0531021 -0.00011098 0.000277973)
(0.043558 7.23893e-05 0.0002092)
(0.0521081 -6.32928e-05 0.000301445)
(0.0428245 0.00020475 0.000277616)
(0.0512389 4.24318e-05 0.000352949)
(0.0422309 0.000750554 8.97171e-05)
(0.0506502 0.000157317 0.000490233)
(0.0492515 0.000912387 0.000227415)
(0.0984572 0.00172991 0.00247644)
(0.100049 0.000750978 0.00105638)
(0.0996871 0.000345486 0.000439234)
(0.0958347 0.00243272 0.00314806)
(0.0982936 0.00216152 0.00280919)
(0.0978161 0.00228231 0.0027328)
(0.0914498 0.00186943 0.00223035)
(0.0963038 0.00199791 0.00244258)
(0.0954959 0.00230318 0.00300174)
(0.0875947 0.00150569 0.00167465)
(0.0936665 0.00172722 0.00198063)
(0.0926188 0.00183893 0.00229941)
(0.0841467 0.00127601 0.00144008)
(0.090904 0.00149823 0.00171953)
(0.0897666 0.00153588 0.00189195)
(0.0811861 0.00102936 0.00126537)
(0.0884333 0.00121242 0.00145415)
(0.0872309 0.00129498 0.00165656)
(0.0786984 0.000795016 0.00111002)
(0.0863029 0.000909843 0.00118273)
(0.0850046 0.00107775 0.00149209)
(0.0765517 0.000626999 0.000991829)
(0.0844773 0.000692811 0.000981794)
(0.0830574 0.000914335 0.0013717)
(0.0746423 0.000521372 0.000904445)
(0.0828744 0.000552282 0.00084308)
(0.0813185 0.000803471 0.00127876)
(0.0729082 0.000458714 0.00082958)
(0.081438 0.000461795 0.000740694)
(0.0797359 0.000729594 0.00119416)
(0.0713109 0.00042381 0.000756693)
(0.0801344 0.00040344 0.000655391)
(0.0782796 0.000684955 0.00111177)
(0.069825 0.000405597 0.000685553)
(0.0789359 0.000365365 0.000579367)
(0.0769251 0.000660879 0.00103185)
(0.0684289 0.000397123 0.000620002)
(0.0778204 0.000342759 0.000513239)
(0.0756506 0.000650185 0.00095612)
(0.0671021 0.000395922 0.000559608)
(0.0767731 0.000331411 0.000456424)
(0.0744371 0.000648332 0.000886037)
(0.0658225 0.000402847 0.000490257)
(0.0757817 0.000331058 0.00040179)
(0.0732664 0.000655908 0.000820942)
(0.0645775 0.000421766 0.000398143)
(0.0748325 0.000346168 0.000329262)
(0.0721196 0.000676361 0.000751234)
(0.0633501 0.00045969 0.000280825)
(0.0739117 0.000383027 0.000232349)
(0.0709776 0.000715859 0.000672458)
(0.0621184 0.000510944 0.000129621)
(0.0729918 0.000441563 9.95934e-05)
(0.069807 0.00078311 0.000579598)
(0.0608971 0.000680954 -7.85825e-05)
(0.0720536 0.000450882 -0.00013239)
(0.0685752 0.000878794 0.000481904)
(0.0710492 0.000421509 -0.00060088)
(0.0669002 0.00106499 0.000379086)
(0.10008 0.00135181 0.00135176)
(0.100186 0.000798783 0.000804944)
(0.100186 0.000804965 0.000798764)
(0.100264 0.0022174 0.00221725)
(0.100189 0.00231194 0.00207144)
(0.100189 0.00207154 0.00231186)
(0.0993826 0.00243598 0.00243568)
(0.100306 0.00263389 0.002453)
(0.100306 0.00245326 0.00263371)
(0.0979835 0.00231062 0.00231014)
(0.0998047 0.00256075 0.00245583)
(0.0998046 0.00245627 0.00256041)
(0.0964941 0.00200675 0.00200593)
(0.0988623 0.002365 0.00228073)
(0.098862 0.0022814 0.00236446)
(0.0950712 0.00159787 0.00159647)
(0.09784 0.00205001 0.00196768)
(0.0978396 0.0019687 0.00204905)
(0.0937728 0.00122781 0.00122546)
(0.0968599 0.00169285 0.001604)
(0.0968592 0.00160564 0.00169127)
(0.0926134 0.000964726 0.000960675)
(0.095957 0.00140728 0.00132045)
(0.0959557 0.00132328 0.00140469)
(0.0915867 0.000782451 0.000775344)
(0.0951438 0.00119621 0.00111685)
(0.0951415 0.00112175 0.00119166)
(0.0906762 0.000653789 0.000640872)
(0.0944189 0.00103961 0.00096885)
(0.0944149 0.000977316 0.00103157)
(0.0898609 0.000561102 0.000538635)
(0.0937768 0.000921795 0.000858602)
(0.0937697 0.000873702 0.00090766)
(0.0891192 0.000495656 0.000459184)
(0.0932032 0.000832967 0.000775324)
(0.0931911 0.000800623 0.000809329)
(0.0884358 0.000451694 0.000395899)
(0.0926848 0.000767474 0.00071083)
(0.0926648 0.000751693 0.000729323)
(0.087804 0.000424068 0.000339259)
(0.0922149 0.000719788 0.000657046)
(0.092183 0.000720413 0.000659941)
(0.0872209 0.000412709 0.00027471)
(0.0917913 0.000687512 0.000604706)
(0.0917407 0.00070464 0.000592688)
(0.0866759 0.000422479 0.000188603)
(0.0914101 0.000670621 0.000541073)
(0.0913292 0.000708352 0.00051687)
(0.0861544 0.000456328 6.57748e-05)
(0.0910615 0.000671743 0.000454127)
(0.0909336 0.000737718 0.000425803)
(0.0856136 0.000471948 -0.000154268)
(0.0907271 0.000694746 0.000327661)
(0.0905327 0.000797043 0.00031143)
(0.0850066 0.00034401 -0.000636859)
(0.0903723 0.000704062 0.000104881)
(0.0900897 0.000830294 0.000133199)
(0.090343 0.000608809 -0.00033509)
(0.0899889 0.000675476 -0.000225009)
(0.100171 0.00136877 0.00141638)
(0.100118 0.000577447 0.00081129)
(0.100102 0.000699801 0.000700679)
(0.100759 0.0021951 0.00214895)
(0.100478 0.00158299 0.00185871)
(0.100477 0.00182268 0.00186462)
(0.100996 0.00247731 0.00238772)
(0.101004 0.00205902 0.00224239)
(0.101024 0.00234707 0.00238287)
(0.100837 0.00247685 0.00238873)
(0.101292 0.00220394 0.00235179)
(0.101337 0.00250647 0.00254358)
(0.100457 0.00231257 0.00222419)
(0.101309 0.00216808 0.00232151)
(0.101408 0.00245131 0.00247205)
(0.0999667 0.00205825 0.0019672)
(0.101156 0.00201199 0.0021778)
(0.101301 0.00226579 0.00227002)
(0.0994419 0.00179312 0.00169828)
(0.100926 0.00179559 0.00196698)
(0.101097 0.00201097 0.00199797)
(0.0989311 0.00156741 0.00148078)
(0.100664 0.00158642 0.00176337)
(0.100852 0.00177308 0.00175666)
(0.0984609 0.00138472 0.00131684)
(0.100407 0.00139996 0.00158662)
(0.100603 0.00157367 0.00156206)
(0.0980421 0.00123595 0.0011934)
(0.100171 0.00123654 0.00143961)
(0.100373 0.00140965 0.0014069)
(0.0976747 0.00111542 0.00110153)
(0.099964 0.00110022 0.00133031)
(0.100173 0.00127578 0.00128397)
(0.0973553 0.00101907 0.00103243)
(0.0997873 0.000988573 0.0012504)
(0.100007 0.00116818 0.00118679)
(0.0970808 0.000943096 0.000976684)
(0.0996398 0.000896915 0.00119005)
(0.0998734 0.00108361 0.00110832)
(0.0968478 0.000884408 0.000926466)
(0.0995201 0.000821506 0.00114124)
(0.0997713 0.00101895 0.00104098)
(0.0966548 0.000839952 0.000874722)
(0.0994272 0.000757017 0.0010979)
(0.0996993 0.000972334 0.000978589)
(0.0964994 0.000805971 0.000810265)
(0.099362 0.000699876 0.00105325)
(0.0996558 0.000942116 0.000914557)
(0.0963784 0.000781248 0.000718804)
(0.0993236 0.000646121 0.00099691)
(0.0996382 0.000927482 0.000838621)
(0.0962806 0.000758025 0.000585054)
(0.0993088 0.000593468 0.000918905)
(0.0996433 0.000928416 0.000742989)
(0.0961784 0.000697993 0.000394971)
(0.0993064 0.00052801 0.000811297)
(0.0996596 0.00092512 0.000618437)
(0.0994578 0.000411492 0.000684969)
(0.0998551 0.00086721 0.000479976)
(0.100242 0.000820254 0.0012561)
(0.10009 0.000294361 0.000735339)
(0.100071 0.000415717 0.000602759)
(0.100828 0.00139075 0.00193924)
(0.100491 0.000792067 0.00168397)
(0.100492 0.00112455 0.00158694)
(0.101392 0.00166379 0.002182)
(0.101086 0.00107788 0.00208329)
(0.101128 0.00154109 0.00209397)
(0.101816 0.00176163 0.0022606)
(0.101664 0.00120457 0.00217873)
(0.101767 0.00173313 0.0022939)
(0.10208 0.00175612 0.00226101)
(0.102121 0.00124009 0.0022213)
(0.102291 0.00179056 0.0023666)
(0.102215 0.00166934 0.00217518)
(0.102452 0.00120247 0.00220893)
(0.102711 0.0017449 0.00232086)
(0.102266 0.00153547 0.00203915)
(0.10268 0.00111927 0.0021245)
(0.103037 0.0016278 0.0022004)
(0.102277 0.00138477 0.00188175)
(0.102842 0.00101872 0.0020026)
(0.103286 0.00148197 0.0020469)
(0.102275 0.00123407 0.00172496)
(0.102968 0.000918706 0.00186566)
(0.103492 0.00133154 0.00188617)
(0.102272 0.00109754 0.00159427)
(0.103073 0.000824832 0.00173677)
(0.103669 0.00119086 0.00173939)
(0.102273 0.000981866 0.00149886)
(0.103169 0.000740381 0.00163151)
(0.103831 0.00106953 0.00162213)
(0.102282 0.000883502 0.00142924)
(0.103266 0.00066507 0.00154723)
(0.103987 0.000967353 0.00152967)
(0.102302 0.000798216 0.00137709)
(0.103366 0.000597182 0.00148555)
(0.104143 0.000880092 0.00145633)
(0.102334 0.000721288 0.00133648)
(0.103468 0.000535513 0.0014443)
(0.104302 0.000805562 0.00139738)
(0.10238 0.000647593 0.00130182)
(0.103571 0.000474545 0.00141649)
(0.104467 0.000738984 0.00134819)
(0.102442 0.000573389 0.00126738)
(0.103681 0.000410213 0.00139467)
(0.104642 0.000678386 0.00130349)
(0.102521 0.000493528 0.00122747)
(0.103796 0.000337405 0.0013744)
(0.104829 0.000620457 0.00125827)
(0.102619 0.000401349 0.00118036)
(0.10392 0.000250747 0.00135305)
(0.105031 0.000560361 0.00120778)
(0.102735 0.00028456 0.00114451)
(0.104051 0.000143777 0.00133219)
(0.105249 0.000489278 0.00115099)
(0.104261 8.51154e-06 0.00133989)
(0.10555 0.000392222 0.0011152)
(0.100243 0.000267444 0.00116239)
(0.100087 -1.45596e-08 0.00070701)
(0.100064 0.00013583 0.00053732)
(0.100782 0.000465814 0.00182619)
(0.100477 -4.34752e-08 0.00161776)
(0.100463 0.000370951 0.0014241)
(0.101401 0.000575643 0.00207606)
(0.101066 -7.42919e-08 0.00203461)
(0.101089 0.000525287 0.00193351)
(0.101988 0.000623067 0.00213366)
(0.101694 -1.45911e-07 0.00211754)
(0.101798 0.000606067 0.00212845)
(0.102507 0.000631327 0.00216447)
(0.102269 -2.9005e-07 0.00214992)
(0.10249 0.000639577 0.00221064)
(0.102936 0.000610615 0.00215612)
(0.102742 -5.30124e-07 0.00217932)
(0.10312 0.000634564 0.00224099)
(0.103279 0.000571689 0.00208799)
(0.103125 -8.9074e-07 0.00213343)
(0.103688 0.000601514 0.00219587)
(0.103557 0.000525881 0.00198788)
(0.103429 -1.47521e-06 0.00204333)
(0.104187 0.000555752 0.00210459)
(0.103793 0.000481011 0.00187949)
(0.103682 -2.52339e-06 0.00193363)
(0.104624 0.000508054 0.00199094)