/*--------------------------------*- C++ -*----------------------------------*\
| =========                 |                                                 |
| \\      /  F ield         | OpenFOAM: The Open Source CFD Toolbox           |
|  \\    /   O peration     | Version:  2212                                  |
|   \\  /    A nd           | Website:  www.openfoam.com                      |
|    \\/     M anipulation  |                                                 |
\*---------------------------------------------------------------------------*/
FoamFile
{
    version     2.0;
    format      ascii;
    arch        "LSB;label=32;scalar=64";
    class       volScalarField;
    location    "0.7";
    object      epsilon;
}
// * * * * * * * * * * * * * * * * * * * * * * * * * * * * * * * * * * * * * //

dimensions      [0 2 -3 0 0 0 0];

internalField   nonuniform List<scalar> 
680
(
0.720684
0.594585
0.502533
0.43271
0.379335
0.336393
0.300059
0.740288
0.565913
0.443935
0.35604
0.290956
0.24146
0.203053
0.649774
0.497007
0.389472
0.311283
0.252971
0.208977
0.17522
0.645375
0.492582
0.384769
0.307011
0.24903
0.204961
0.170967
0.643978
0.492246
0.383961
0.305796
0.247923
0.203928
0.169961
0.643985
0.492254
0.383972
0.305813
0.247946
0.203961
0.170008
0.645389
0.4926
0.384793
0.307048
0.24908
0.20503
0.649787
0.497025
0.389503
0.311322
0.253025
0.209051
0.740292
0.565919
0.443947
0.356058
0.290984
0.241503
0.720684
0.594586
0.502533
0.43271
0.379336
0.336394
0.740292
0.565918
0.443946
0.356057
0.290984
0.241503
0.203139
0.562053
0.415373
0.315956
0.246345
0.19624
0.159246
0.131288
0.618633
0.453963
0.34204
0.263659
0.207323
0.165919
0.13487
0.666457
0.489545
0.368595
0.283605
0.222389
0.177332
0.143534
0.692718
0.509634
0.384013
0.2955
0.231645
0.18459
0.149261
0.692722
0.509638
0.384018
0.295507
0.231654
0.184602
0.149278
0.666464
0.489554
0.368606
0.28362
0.222409
0.177357
0.618638
0.453969
0.342048
0.263669
0.207338
0.165938
0.562054
0.415373
0.315956
0.246345
0.19624
0.159246
0.740288
0.565914
0.443935
0.35604
0.290957
0.24146
0.649786
0.497025
0.389503
0.311322
0.253025
0.20905
0.175322
0.618638
0.453969
0.342048
0.263669
0.207337
0.165937
0.134894
0.725639
0.532162
0.399157
0.305556
0.238236
0.188844
0.151941
0.804588
0.594205
0.447518
0.343212
0.267636
0.211904
0.170127
0.843153
0.625688
0.472846
0.363481
0.28385
0.224903
0.180588
0.843156
0.625691
0.47285
0.363486
0.283856
0.224911
0.180599
0.804592
0.59421
0.447524
0.34322
0.267647
0.211918
0.725639
0.532162
0.399157
0.305556
0.238236
0.188845
0.618633
0.453963
0.34204
0.263659
0.207324
0.165919
0.649774
0.497008
0.389473
0.311283
0.252972
0.208978
0.645389
0.4926
0.384793
0.307048
0.249079
0.20503
0.171065
0.666464
0.489554
0.368606
0.28362
0.222408
0.177356
0.143566
0.804592
0.59421
0.447524
0.34322
0.267646
0.211916
0.170144
0.896488
0.669458
0.508125
0.39166
0.306291
0.242792
0.194899
0.938712
0.705584
0.538336
0.416593
0.326729
0.259501
0.208561
0.938713
0.705585
0.538337
0.416595
0.326731
0.259503
0.208564
0.896488
0.669458
0.508125
0.39166
0.306291
0.242793
0.804588
0.594205
0.447518
0.343213
0.267637
0.211904
0.666457
0.489545
0.368595
0.283605
0.22239
0.177332
0.645375
0.492582
0.384769
0.307012
0.24903
0.204961
0.643985
0.492254
0.383972
0.305813
0.247946
0.20396
0.170008
0.692722
0.509638
0.384018
0.295507
0.231654
0.184602
0.149277
0.843156
0.625691
0.47285
0.363486
0.283856
0.224911
0.180598
0.938713
0.705585
0.538337
0.416595
0.326731
0.259503
0.208564
0.981305
0.742925
0.57021
0.443351
0.348969
0.27789
0.223739
0.981305
0.742925
0.57021
0.443351
0.348969
0.277891
0.22374
0.938712
0.705584
0.538336
0.416594
0.326729
0.259502
0.843153
0.625688
0.472846
0.363481
0.28385
0.224904
0.692718
0.509634
0.384013
0.2955
0.231645
0.184591
0.643979
0.492246
0.383961
0.305796
0.247923
0.203928
0.643979
0.492246
0.383961
0.305796
0.247923
0.203928
0.169961
0.692718
0.509634
0.384013
0.2955
0.231645
0.18459
0.149261
0.843153
0.625688
0.472846
0.363481
0.28385
0.224903
0.180588
0.938712
0.705584
0.538336
0.416594
0.326729
0.259501
0.208561
0.981305
0.742925
0.57021
0.443351
0.348969
0.27789
0.223739
0.981305
0.742925
0.57021
0.443351
0.348969
0.277891
0.22374
0.938713
0.705585
0.538337
0.416595
0.326731
0.259504
0.843156
0.625691
0.47285
0.363486
0.283857
0.224912
0.692722
0.509638
0.384018
0.295508
0.231654
0.184603
0.643985
0.492254
0.383972
0.305813
0.247946
0.203961
0.645375
0.492582
0.384769
0.307012
0.24903
0.204961
0.170967
0.666457
0.489545
0.368595
0.283605
0.222389
0.177332
0.143534
0.804588
0.594205
0.447518
0.343212
0.267636
0.211904
0.170127
0.896488
0.669458
0.508125
0.39166
0.306291
0.242792
0.194899
0.938713
0.705585
0.538337
0.416595
0.326731
0.259503
0.208564
1.26863
0.938712
0.705584
0.538336
0.416594
0.326729
0.259501
0.208562
1.22112
0.896488
0.669458
0.508125
0.39166
0.306291
0.242793
1.11236
0.804592
0.59421
0.447524
0.343221
0.267647
0.211918
0.933542
0.666464
0.489554
0.368606
0.28362
0.222409
0.177357
0.86948
0.645389
0.4926
0.384793
0.307048
0.24908
0.20503
0.649774
0.497008
0.389473
0.311283
0.252972
0.208978
0.17522
0.618633
0.453963
0.34204
0.263659
0.207324
0.165919
0.13487
0.725639
0.532162
0.399157
0.305556
0.238236
0.188844
0.151941
0.804592
0.59421
0.447524
0.34322
0.267647
0.211917
0.170144
0.843156
0.625691
0.47285
0.363486
0.283857
0.224911
0.180598
1.15828
0.843153
0.625688
0.472846
0.363481
0.28385
0.224903
0.180589
1.11236
0.804588
0.594205
0.447518
0.343213
0.267637
0.211905
1.01411
0.725639
0.532162
0.399157
0.305556
0.238236
0.188845
0.869295
0.618638
0.453969
0.342048
0.263669
0.207338
0.165938
0.873581
0.649787
0.497025
0.389503
0.311322
0.253025
0.20905
0.740288
0.565914
0.443935
0.35604
0.290957
0.24146
0.203053
0.562054
0.415373
0.315956
0.246345
0.19624
0.159246
0.131289
0.618638
0.453969
0.342048
0.263669
0.207338
0.165937
0.134894
0.666464
0.489554
0.368607
0.28362
0.222409
0.177357
0.143566
0.692722
0.509638
0.384018
0.295507
0.231654
0.184602
0.149277
0.967828
0.692718
0.509634
0.384013
0.2955
0.231645
0.18459
0.149261
0.933536
0.666457
0.489545
0.368595
0.283605
0.22239
0.177332
0.869291
0.618633
0.453963
0.34204
0.263659
0.207324
0.16592
0.786934
0.562054
0.415373
0.315956
0.246345
0.19624
0.159246
0.998658
0.740292
0.565919
0.443947
0.356058
0.290984
0.241503
0.720684
0.594586
0.502534
0.43271
0.379336
0.336394
0.30006
0.740292
0.565919
0.443947
0.356058
0.290984
0.241503
0.20314
0.649787
0.497025
0.389503
0.311322
0.253025
0.209051
0.175322
0.645389
0.4926
0.384793
0.307048
0.24908
0.20503
0.171066
0.643985
0.492254
0.383972
0.305813
0.247946
0.203961
0.170008
0.866496
0.643979
0.492246
0.383961
0.305796
0.247923
0.203928
0.169961
0.86947
0.645375
0.492582
0.384769
0.307012
0.24903
0.204961
0.873571
0.649774
0.497008
0.389473
0.311283
0.252972
0.208978
0.998656
0.740288
0.565914
0.443935
0.35604
0.290957
0.24146
0.902014
0.720684
0.594586
0.502533
0.43271
0.379336
0.336394
)
;

boundaryField
{
    inlet
    {
        type            fixedValue;
        value           nonuniform List<scalar> 0();
    }
    ami1
    {
        type            cyclicAMI;
        value           nonuniform List<scalar> 0();
    }
    walls
    {
        type            epsilonWallFunction;
        blending        stepwise;
        value           nonuniform List<scalar> 
271
(
0.86948
0.873581
0.998658
0.902014
0.720684
0.740288
0.649774
0.645375
0.643979
0.643985
0.645389
0.649787
0.740292
0.720684
0.594586
0.565914
0.497008
0.492582
0.492246
0.492254
0.4926
0.497025
0.565919
0.594586
0.502533
0.443935
0.389473
0.384769
0.383961
0.383972
0.384793
0.389503
0.443947
0.502533
0.43271
0.35604
0.311283
0.307012
0.305796
0.305813
0.307048
0.311322
0.356058
0.43271
0.379336
0.290957
0.252972
0.24903
0.247923
0.247946
0.24908
0.253025
0.290984
0.379336
0.336394
0.24146
0.208978
0.204961
0.203928
0.203961
0.20503
0.20905
0.241503
0.336394
0.720684
0.740288
0.649774
0.645375
0.643978
0.643985
0.645389
0.649787
0.740292
0.720684
0.594585
0.565913
0.497007
0.492582
0.492246
0.492254
0.4926
0.497025
0.565919
0.594586
0.502533
0.443935
0.389472
0.384769
0.383961
0.383972
0.384793
0.389503
0.443947
0.502533
0.43271
0.35604
0.311283
0.307011
0.305796
0.305813
0.307048
0.311322
0.356058
0.43271
0.379335
0.290956
0.252971
0.24903
0.247923
0.247946
0.24908
0.253025
0.290984
0.379336
0.336393
0.24146
0.208977
0.204961
0.203928
0.203961
0.20503
0.209051
0.241503
0.336394
0.300059
0.203053
0.17522
0.170967
0.169961
0.170008
0.720684
0.740292
0.649786
0.645389
0.643985
0.643979
0.645375
0.649774
0.740288
0.720684
0.594585
0.565918
0.497025
0.4926
0.492254
0.492246
0.492582
0.497008
0.565914
0.594586
0.502533
0.443946
0.389503
0.384793
0.383972
0.383961
0.384769
0.389473
0.443935
0.502534
0.43271
0.356057
0.311322
0.307048
0.305813
0.305796
0.307012
0.311283
0.35604
0.43271
0.379335
0.290984
0.253025
0.249079
0.247946
0.247923
0.24903
0.252972
0.290957
0.379336
0.336393
0.241503
0.20905
0.20503
0.20396
0.203928
0.204961
0.208978
0.24146
0.336394
0.300059
0.203139
0.175322
0.171065
0.170008
0.169961
0.170967
0.17522
0.203053
0.30006
0.866496
0.86947
0.873571
0.998656
0.902014
0.720684
0.740292
0.649787
0.645389
0.643985
0.643979
0.645375
0.649774
0.740288
0.720684
0.594586
0.565919
0.497025
0.4926
0.492254
0.492246
0.492582
0.497008
0.565914
0.594586
0.502534
0.443947
0.389503
0.384793
0.383972
0.383961
0.384769
0.389473
0.443935
0.502533
0.43271
0.356058
0.311322
0.307048
0.305813
0.305796
0.307012
0.311283
0.35604
0.43271
0.379336
0.290984
0.253025
0.24908
0.247946
0.247923
0.24903
0.252972
0.290957
0.379336
0.336394
0.241503
0.209051
0.20503
0.203961
0.203928
0.204961
0.208978
0.24146
0.336394
0.30006
0.20314
0.175322
0.171066
0.170008
0.169961
)
;
    }
    ami2
    {
        type            cyclicAMI;
        value           nonuniform List<scalar> 0();
    }
    outlet
    {
        type            zeroGradient;
    }
    procBoundary3to2
    {
        type            processor;
        value           nonuniform List<scalar> 
110
(
0.270486
0.173193
0.148838
0.144373
0.143353
0.143422
0.171066
0.171066
0.175322
0.203139
0.300059
0.17331
0.109832
0.111174
0.117754
0.122292
0.122313
0.143568
0.143568
0.134896
0.131291
0.203053
0.148988
0.111206
0.12391
0.138335
0.146791
0.146804
0.170145
0.170145
0.151942
0.134871
0.17522
0.144515
0.117796
0.138356
0.158297
0.169492
0.169495
0.194899
0.194899
0.170128
0.143535
0.170967
0.143422
0.122313
0.146803
0.169495
0.182026
0.182026
0.208562
0.208562
0.180588
0.149262
0.169961
0.143353
0.122292
0.146791
0.169492
0.182026
0.182026
0.208564
0.208564
0.180599
0.149279
0.170008
0.144373
0.117754
0.138335
0.158297
0.169495
0.169492
0.194899
0.194899
0.170145
0.143568
0.171066
0.148838
0.111175
0.12391
0.138357
0.146804
0.146791
0.170128
0.170128
0.151942
0.134896
0.175322
0.173194
0.109832
0.111207
0.117797
0.122313
0.122293
0.143536
0.143536
0.134872
0.131291
0.203139
0.270488
0.173311
0.148988
0.144515
0.143422
0.143354
0.170967
0.170967
0.17522
0.203053
0.300059
)
;
    }
    procBoundary3to4
    {
        type            processor;
        value           nonuniform List<scalar> 
109
(
0.902014
0.998655
0.873571
0.86947
0.866496
0.8665
0.86948
0.873581
0.998658
0.902014
0.998658
0.786934
0.869291
0.933536
0.967828
0.967831
0.933542
0.869295
0.786934
0.998656
0.873581
0.869295
1.01411
1.11236
1.15828
1.15828
1.11236
1.01411
0.869291
0.873571
0.86948
0.933542
1.11236
1.22112
1.26863
1.26863
1.22112
1.11236
0.933536
0.86947
0.8665
0.967831
1.15828
1.26863
1.31522
1.31522
1.26863
1.15828
0.967828
0.866496
0.866496
0.967828
1.15828
1.26863
1.31522
1.31522
1.31522
1.26863
1.26863
1.15828
1.15828
0.967831
0.967831
0.866501
0.866501
0.86947
0.933536
1.11236
1.22112
1.26863
1.26863
1.74299
1.6928
1.57142
1.35121
1.2275
0.873571
0.869291
1.01411
1.11236
1.15828
1.15828
1.62326
1.57142
1.45499
1.2661
1.227
0.998656
0.786934
0.869295
0.933542
0.967831
0.967831
1.39506
1.3512
1.26609
1.1476
1.40267
0.902014
0.998658
0.873581
0.86948
0.866501
0.866501
1.22669
1.2275
1.22699
1.40267
1.18307
)
;
    }
}


// ************************************************************************* //
