/*--------------------------------*- C++ -*----------------------------------*\
| =========                 |                                                 |
| \\      /  F ield         | OpenFOAM: The Open Source CFD Toolbox           |
|  \\    /   O peration     | Version:  2212                                  |
|   \\  /    A nd           | Website:  www.openfoam.com                      |
|    \\/     M anipulation  |                                                 |
\*---------------------------------------------------------------------------*/
FoamFile
{
    version     2.0;
    format      ascii;
    arch        "LSB;label=32;scalar=64";
    class       volScalarField;
    location    "3";
    object      epsilon;
}
// * * * * * * * * * * * * * * * * * * * * * * * * * * * * * * * * * * * * * //

dimensions      [0 2 -3 0 0 0 0];

internalField   nonuniform List<scalar> 
680
(
0.720642
0.594555
0.502455
0.432605
0.379174
0.336139
0.299581
0.740268
0.565879
0.443896
0.355984
0.290879
0.241345
0.202929
0.649781
0.497016
0.389493
0.311305
0.252997
0.20901
0.175261
0.645396
0.492608
0.384801
0.307055
0.249086
0.205035
0.171069
0.644003
0.492276
0.383999
0.305847
0.247986
0.204012
0.170073
0.643994
0.492266
0.383985
0.305826
0.247959
0.203974
0.170019
0.645377
0.492583
0.384769
0.307007
0.249022
0.204945
0.649762
0.496992
0.38945
0.31125
0.252924
0.208908
0.740263
0.565873
0.443882
0.355961
0.290843
0.241288
0.720643
0.594556
0.502457
0.432604
0.379179
0.336137
0.740262
0.565872
0.443881
0.355959
0.290841
0.241285
0.202801
0.562051
0.415369
0.31595
0.246335
0.196226
0.159223
0.131253
0.618635
0.453966
0.342043
0.263662
0.207326
0.165919
0.134866
0.666463
0.489553
0.368605
0.283616
0.222402
0.177344
0.143545
0.692724
0.509641
0.38402
0.295508
0.231653
0.184599
0.149269
0.692722
0.509636
0.384015
0.295501
0.231645
0.184588
0.149257
0.666458
0.489544
0.368593
0.283601
0.222383
0.177323
0.618631
0.453959
0.342034
0.26365
0.207311
0.165901
0.562051
0.415369
0.315949
0.246334
0.196225
0.159222
0.740269
0.56588
0.443897
0.355986
0.290881
0.241347
0.649762
0.496991
0.389449
0.31125
0.252923
0.208907
0.175114
0.618631
0.45396
0.342034
0.263651
0.207312
0.165902
0.134846
0.725635
0.532157
0.399151
0.305548
0.238224
0.188827
0.151916
0.804589
0.594206
0.44752
0.343214
0.267637
0.211904
0.170124
0.843156
0.625691
0.47285
0.363485
0.283854
0.224907
0.18059
0.843155
0.625689
0.472847
0.363481
0.28385
0.224902
0.180584
0.804587
0.594203
0.447515
0.343208
0.26763
0.211895
0.725635
0.532157
0.39915
0.305547
0.238223
0.188826
0.618635
0.453966
0.342043
0.263661
0.207325
0.165918
0.649781
0.497017
0.389493
0.311305
0.252999
0.209012
0.645376
0.492582
0.384769
0.307007
0.249022
0.204946
0.170942
0.666458
0.489544
0.368593
0.283602
0.222383
0.177322
0.14352
0.804587
0.594203
0.447516
0.343209
0.267631
0.211895
0.170115
0.896487
0.669456
0.508123
0.391656
0.306286
0.242785
0.194887
0.938712
0.705584
0.538336
0.416594
0.326729
0.2595
0.208558
0.938712
0.705583
0.538335
0.416593
0.326728
0.259498
0.208556
0.896487
0.669456
0.508122
0.391656
0.306286
0.242784
0.804589
0.594206
0.44752
0.343214
0.267637
0.211903
0.666463
0.489553
0.368605
0.283616
0.222401
0.177343
0.645397
0.492608
0.384802
0.307056
0.249086
0.205036
0.643994
0.492265
0.383985
0.305826
0.247959
0.203974
0.170019
0.692722
0.509636
0.384015
0.295501
0.231644
0.184588
0.149256
0.843155
0.625689
0.472847
0.363481
0.28385
0.224901
0.180584
0.938712
0.705583
0.538335
0.416593
0.326728
0.259498
0.208556
0.981305
0.742925
0.57021
0.443351
0.348968
0.277889
0.223736
0.981305
0.742925
0.57021
0.443351
0.348968
0.277889
0.223736
0.938712
0.705584
0.538336
0.416594
0.326729
0.259499
0.843156
0.625691
0.47285
0.363485
0.283854
0.224907
0.692724
0.509641
0.38402
0.295508
0.231653
0.184599
0.644003
0.492277
0.384
0.305847
0.247987
0.204011
0.644003
0.492276
0.383999
0.305846
0.247987
0.204012
0.170073
0.692724
0.509641
0.38402
0.295508
0.231653
0.184598
0.149267
0.843156
0.625691
0.47285
0.363485
0.283854
0.224906
0.18059
0.938712
0.705584
0.538336
0.416594
0.326729
0.2595
0.208558
0.981305
0.742925
0.57021
0.443351
0.348968
0.277889
0.223736
0.981305
0.742925
0.57021
0.443351
0.348968
0.277889
0.223736
0.938712
0.705583
0.538335
0.416593
0.326728
0.259498
0.843155
0.625689
0.472847
0.363481
0.28385
0.224902
0.692722
0.509636
0.384015
0.295502
0.231645
0.184589
0.643994
0.492266
0.383985
0.305826
0.247959
0.203973
0.645396
0.492608
0.384801
0.307055
0.249086
0.205035
0.171069
0.666463
0.489553
0.368605
0.283616
0.222401
0.177344
0.143545
0.804589
0.594206
0.44752
0.343214
0.267637
0.211903
0.170124
0.896487
0.669456
0.508122
0.391656
0.306286
0.242785
0.194887
0.938712
0.705583
0.538335
0.416593
0.326728
0.259499
0.208556
1.26863
0.938712
0.705584
0.538336
0.416594
0.326729
0.2595
0.208558
1.22111
0.896487
0.669456
0.508122
0.391656
0.306286
0.242784
1.11236
0.804587
0.594203
0.447516
0.343209
0.267631
0.211896
0.933537
0.666457
0.489544
0.368593
0.283601
0.222383
0.177323
0.869471
0.645377
0.492583
0.384769
0.307008
0.249022
0.204945
0.649781
0.497016
0.389493
0.311305
0.252998
0.209011
0.175261
0.618635
0.453966
0.342043
0.263662
0.207326
0.165919
0.134866
0.725635
0.532157
0.399151
0.305548
0.238224
0.188827
0.151917
0.804587
0.594203
0.447516
0.343209
0.267631
0.211896
0.170115
0.843155
0.625689
0.472847
0.363482
0.28385
0.224902
0.180585
1.15828
0.843156
0.625691
0.47285
0.363485
0.283854
0.224907
0.18059
1.11236
0.804589
0.594206
0.44752
0.343214
0.267637
0.211903
1.0141
0.725635
0.532157
0.399151
0.305547
0.238224
0.188826
0.86929
0.618631
0.453959
0.342034
0.26365
0.207311
0.165902
0.873563
0.649762
0.496992
0.38945
0.311251
0.252924
0.208908
0.740268
0.565879
0.443896
0.355984
0.290879
0.241345
0.202929
0.562051
0.415369
0.31595
0.246335
0.196226
0.159224
0.131254
0.618631
0.45396
0.342034
0.263651
0.207312
0.165903
0.134847
0.666458
0.489545
0.368593
0.283602
0.222384
0.177323
0.143521
0.692722
0.509636
0.384015
0.295501
0.231644
0.184588
0.149255
0.967834
0.692725
0.509641
0.38402
0.295508
0.231653
0.184598
0.149267
0.933541
0.666464
0.489554
0.368605
0.283616
0.222401
0.177343
0.869293
0.618636
0.453966
0.342043
0.263662
0.207326
0.165919
0.786933
0.562051
0.41537
0.31595
0.246335
0.196226
0.159223
0.998635
0.740262
0.565872
0.443881
0.355961
0.290842
0.241287
0.720642
0.594555
0.502455
0.432605
0.379174
0.336139
0.299581
0.740262
0.565872
0.44388
0.355959
0.290841
0.241284
0.202799
0.649762
0.496991
0.389449
0.311249
0.252923
0.208907
0.175113
0.645376
0.492582
0.384769
0.307007
0.249022
0.204946
0.170942
0.643994
0.492265
0.383985
0.305826
0.247959
0.203974
0.17002
0.866515
0.644003
0.492277
0.384
0.305847
0.247987
0.204012
0.170074
0.869487
0.645396
0.492608
0.384802
0.307055
0.249086
0.205036
0.873577
0.649781
0.497016
0.389493
0.311305
0.252998
0.209012
0.998639
0.740268
0.565879
0.443897
0.355985
0.29088
0.241346
0.901999
0.720643
0.594555
0.502457
0.432603
0.379179
0.336136
)
;

boundaryField
{
    inlet
    {
        type            fixedValue;
        value           nonuniform List<scalar> 0();
    }
    ami1
    {
        type            cyclicAMI;
        value           nonuniform List<scalar> 0();
    }
    walls
    {
        type            epsilonWallFunction;
        blending        stepwise;
        value           nonuniform List<scalar> 
271
(
0.869471
0.873563
0.998635
0.901999
0.720643
0.740269
0.649781
0.645397
0.644003
0.643994
0.645377
0.649762
0.740262
0.720643
0.594556
0.56588
0.497017
0.492608
0.492277
0.492266
0.492583
0.496992
0.565872
0.594555
0.502457
0.443897
0.389493
0.384802
0.384
0.383985
0.384769
0.38945
0.443881
0.502457
0.432604
0.355986
0.311305
0.307056
0.305847
0.305826
0.307008
0.311251
0.355961
0.432603
0.379179
0.290881
0.252999
0.249086
0.247987
0.247959
0.249022
0.252924
0.290842
0.379179
0.336137
0.241347
0.209012
0.205036
0.204011
0.203973
0.204945
0.208908
0.241287
0.336136
0.720642
0.740268
0.649781
0.645396
0.644003
0.643994
0.645377
0.649762
0.740263
0.720643
0.594555
0.565879
0.497016
0.492608
0.492276
0.492266
0.492583
0.496992
0.565873
0.594556
0.502455
0.443896
0.389493
0.384801
0.383999
0.383985
0.384769
0.38945
0.443882
0.502457
0.432605
0.355984
0.311305
0.307055
0.305847
0.305826
0.307007
0.31125
0.355961
0.432604
0.379174
0.290879
0.252997
0.249086
0.247986
0.247959
0.249022
0.252924
0.290843
0.379179
0.336139
0.241345
0.20901
0.205035
0.204012
0.203974
0.204945
0.208908
0.241288
0.336137
0.299581
0.202929
0.175261
0.171069
0.170073
0.170019
0.720642
0.740262
0.649762
0.645376
0.643994
0.644003
0.645396
0.649781
0.740268
0.720642
0.594555
0.565872
0.496991
0.492582
0.492265
0.492276
0.492608
0.497016
0.565879
0.594555
0.502455
0.443881
0.389449
0.384769
0.383985
0.383999
0.384801
0.389493
0.443896
0.502455
0.432605
0.355959
0.31125
0.307007
0.305826
0.305846
0.307055
0.311305
0.355984
0.432605
0.379174
0.290841
0.252923
0.249022
0.247959
0.247987
0.249086
0.252998
0.290879
0.379174
0.336139
0.241285
0.208907
0.204946
0.203974
0.204012
0.205035
0.209011
0.241345
0.336139
0.299581
0.202801
0.175114
0.170942
0.170019
0.170073
0.171069
0.175261
0.202929
0.299581
0.866515
0.869487
0.873577
0.998639
0.901999
0.720642
0.740262
0.649762
0.645376
0.643994
0.644003
0.645396
0.649781
0.740268
0.720643
0.594555
0.565872
0.496991
0.492582
0.492265
0.492277
0.492608
0.497016
0.565879
0.594555
0.502455
0.44388
0.389449
0.384769
0.383985
0.384
0.384802
0.389493
0.443897
0.502457
0.432605
0.355959
0.311249
0.307007
0.305826
0.305847
0.307055
0.311305
0.355985
0.432603
0.379174
0.290841
0.252923
0.249022
0.247959
0.247987
0.249086
0.252998
0.29088
0.379179
0.336139
0.241284
0.208907
0.204946
0.203974
0.204012
0.205036
0.209012
0.241346
0.336136
0.299581
0.202799
0.175113
0.170942
0.17002
0.170074
)
;
    }
    ami2
    {
        type            cyclicAMI;
        value           nonuniform List<scalar> 0();
    }
    outlet
    {
        type            zeroGradient;
    }
    procBoundary3to2
    {
        type            processor;
        value           nonuniform List<scalar> 
110
(
0.269741
0.173017
0.148898
0.144518
0.143508
0.143431
0.170939
0.170939
0.175112
0.202805
0.29959
0.172828
0.109773
0.111155
0.117754
0.122292
0.122284
0.143528
0.143528
0.13485
0.131251
0.202937
0.148673
0.111144
0.123874
0.138326
0.146789
0.146784
0.170116
0.170116
0.151915
0.13486
0.175264
0.144332
0.117741
0.138319
0.15828
0.169485
0.169484
0.194887
0.194887
0.170123
0.143539
0.171071
0.143431
0.122286
0.146785
0.169484
0.18202
0.18202
0.208558
0.208558
0.180589
0.149266
0.170073
0.143508
0.122293
0.14679
0.169485
0.18202
0.18202
0.208556
0.208556
0.180585
0.14926
0.170017
0.144518
0.117754
0.138326
0.15828
0.169484
0.169485
0.194887
0.194887
0.170116
0.143527
0.170939
0.148898
0.111154
0.123873
0.138318
0.146785
0.14679
0.170123
0.170123
0.151915
0.13485
0.175113
0.173018
0.109773
0.111144
0.117742
0.122286
0.122294
0.143539
0.143539
0.134859
0.131251
0.202804
0.269741
0.172827
0.148673
0.144332
0.143431
0.143509
0.171071
0.171071
0.175264
0.202936
0.299589
)
;
    }
    procBoundary3to4
    {
        type            processor;
        value           nonuniform List<scalar> 
109
(
0.901999
0.998637
0.873576
0.869486
0.866515
0.866509
0.869472
0.873563
0.998635
0.901999
0.998634
0.786933
0.869294
0.933543
0.967834
0.967831
0.933536
0.869289
0.786932
0.998638
0.873563
0.869289
1.0141
1.11236
1.15828
1.15828
1.11236
1.0141
0.869293
0.873576
0.869472
0.933536
1.11236
1.22111
1.26863
1.26863
1.22111
1.11236
0.933543
0.869486
0.866509
0.967831
1.15828
1.26863
1.31522
1.31522
1.26863
1.15828
0.967834
0.866515
0.866515
0.967834
1.15828
1.26863
1.31522
1.31522
1.31522
1.26863
1.26863
1.15828
1.15828
0.967831
0.967831
0.866509
0.866509
0.869486
0.933543
1.11236
1.22111
1.26863
1.26863
1.74299
1.6928
1.57142
1.3512
1.2275
0.873576
0.869294
1.0141
1.11236
1.15828
1.15828
1.62326
1.57142
1.45499
1.26609
1.22698
0.998637
0.786933
0.869289
0.933536
0.967831
0.967831
1.39506
1.35121
1.2661
1.14759
1.40265
0.901999
0.998633
0.873563
0.869472
0.866509
0.866509
1.2267
1.22751
1.22699
1.40266
1.18306
)
;
    }
}


// ************************************************************************* //
