/*--------------------------------*- C++ -*----------------------------------*\
| =========                 |                                                 |
| \\      /  F ield         | OpenFOAM: The Open Source CFD Toolbox           |
|  \\    /   O peration     | Version:  2212                                  |
|   \\  /    A nd           | Website:  www.openfoam.com                      |
|    \\/     M anipulation  |                                                 |
\*---------------------------------------------------------------------------*/
FoamFile
{
    version     2.0;
    format      ascii;
    arch        "LSB;label=32;scalar=64";
    class       volScalarField;
    location    "3";
    object      nut;
}
// * * * * * * * * * * * * * * * * * * * * * * * * * * * * * * * * * * * * * //

dimensions      [0 2 -1 0 0 0 0];

internalField   nonuniform List<scalar> 
680
(
9.05703e-06
8.49459e-06
8.03113e-06
7.64022e-06
7.31168e-06
7.02371e-06
6.75893e-06
2.50815e-05
2.29331e-05
2.11502e-05
1.965e-05
1.83703e-05
1.72617e-05
1.62919e-05
3.9079e-05
3.57392e-05
3.29498e-05
3.05782e-05
2.85355e-05
2.6775e-05
2.52478e-05
5.07594e-05
4.63882e-05
4.2722e-05
3.96257e-05
3.69561e-05
3.46345e-05
3.2605e-05
5.71437e-05
5.22487e-05
4.80968e-05
4.45836e-05
4.15735e-05
3.89548e-05
3.66627e-05
5.71435e-05
5.22485e-05
4.80965e-05
4.4583e-05
4.15727e-05
3.89534e-05
3.66602e-05
5.07591e-05
4.63878e-05
4.27214e-05
3.96245e-05
3.69542e-05
3.46314e-05
3.90788e-05
3.57388e-05
3.29491e-05
3.05772e-05
2.85338e-05
2.67723e-05
2.50814e-05
2.29331e-05
2.11501e-05
1.96497e-05
1.83699e-05
1.7261e-05
9.05703e-06
8.49459e-06
8.03114e-06
7.64022e-06
7.31171e-06
7.02371e-06
2.50814e-05
2.29331e-05
2.11501e-05
1.96497e-05
1.83699e-05
1.72609e-05
1.62897e-05
0.000163069
0.000147531
0.000133972
0.000122031
0.000111439
0.000102094
9.38024e-05
0.000222888
0.000203754
0.000187177
0.000172651
0.00015981
0.000148369
0.000138117
0.000261258
0.000239585
0.000220851
0.000204452
0.000189965
0.00017707
0.000165512
0.000279977
0.000257078
0.000237263
0.000219921
0.000204594
0.000190943
0.000178699
0.000279974
0.000257075
0.000237259
0.000219913
0.000204582
0.000190922
0.000178662
0.000261253
0.000239579
0.000220841
0.000204436
0.000189938
0.000177024
0.000222884
0.000203749
0.000187169
0.000172639
0.00015979
0.000148335
0.000163069
0.000147532
0.000133972
0.000122032
0.00011144
0.000102097
2.50815e-05
2.29332e-05
2.11502e-05
1.965e-05
1.83704e-05
1.72618e-05
3.90788e-05
3.57388e-05
3.2949e-05
3.05771e-05
2.85338e-05
2.67723e-05
2.52434e-05
0.000222884
0.000203748
0.000187169
0.000172638
0.000159789
0.000148334
0.000138057
0.000327448
0.000301485
0.000279042
0.000259385
0.000241984
0.000226446
0.000212474
0.00038394
0.000354804
0.00032945
0.000307157
0.000287381
0.000269704
0.000253803
0.000409796
0.000379474
0.000352937
0.0003295
0.000308642
0.000289959
0.000273129
0.000409794
0.000379471
0.000352934
0.000329495
0.000308634
0.000289947
0.000273108
0.000383937
0.000354801
0.000329445
0.000307148
0.000287368
0.000269683
0.000327448
0.000301485
0.000279043
0.000259386
0.000241986
0.000226449
0.000222888
0.000203754
0.000187177
0.000172652
0.000159812
0.000148372
3.90791e-05
3.57392e-05
3.29498e-05
3.05783e-05
2.85355e-05
2.67751e-05
5.07591e-05
4.63877e-05
4.27213e-05
3.96245e-05
3.69542e-05
3.46315e-05
3.26e-05
0.000261253
0.000239578
0.000220841
0.000204436
0.000189938
0.000177025
0.000165437
0.000383937
0.0003548
0.000329444
0.000307148
0.000287367
0.000269683
0.000253767
0.000450441
0.000418361
0.000389971
0.000364723
0.000342156
0.000321885
0.000303591
0.000479913
0.000447182
0.000417834
0.000391477
0.000367752
0.000346335
0.000326944
0.000479912
0.000447181
0.000417833
0.000391476
0.00036775
0.000346332
0.000326938
0.000450441
0.000418361
0.000389971
0.000364724
0.000342156
0.000321886
0.00038394
0.000354805
0.000329451
0.000307158
0.000287382
0.000269707
0.000261258
0.000239585
0.000220851
0.000204453
0.000189965
0.000177072
5.07594e-05
4.63882e-05
4.27221e-05
3.96257e-05
3.69561e-05
3.46346e-05
5.71435e-05
5.22485e-05
4.80965e-05
4.4583e-05
4.15727e-05
3.89534e-05
3.66603e-05
0.000279974
0.000257074
0.000237258
0.000219913
0.000204582
0.000190923
0.000178665
0.000409794
0.000379471
0.000352934
0.000329495
0.000308634
0.000289947
0.000273109
0.000479912
0.000447181
0.000417833
0.000391476
0.00036775
0.000346332
0.000326938
0.000510579
0.000477649
0.000447615
0.000420287
0.000395446
0.000372863
0.000352314
0.000510579
0.000477649
0.000447615
0.000420287
0.000395446
0.000372863
0.000352315
0.000479913
0.000447182
0.000417834
0.000391478
0.000367753
0.000346336
0.000409796
0.000379474
0.000352938
0.000329501
0.000308643
0.00028996
0.000279977
0.000257078
0.000237263
0.000219921
0.000204595
0.000190942
5.71437e-05
5.22487e-05
4.80968e-05
4.45836e-05
4.15736e-05
3.89548e-05
5.71437e-05
5.22487e-05
4.80968e-05
4.45835e-05
4.15735e-05
3.89548e-05
3.66627e-05
0.000279976
0.000257077
0.000237263
0.000219921
0.000204595
0.000190944
0.000178701
0.000409795
0.000379474
0.000352937
0.0003295
0.000308643
0.00028996
0.00027313
0.000479913
0.000447182
0.000417834
0.000391477
0.000367752
0.000346335
0.000326944
0.000510579
0.000477649
0.000447615
0.000420287
0.000395446
0.000372863
0.000352314
0.000510579
0.000477649
0.000447615
0.000420287
0.000395446
0.000372863
0.000352315
0.000479912
0.000447181
0.000417833
0.000391476
0.00036775
0.000346332
0.000409794
0.000379472
0.000352934
0.000329495
0.000308634
0.000289945
0.000279974
0.000257075
0.000237259
0.000219913
0.000204582
0.00019092
5.71435e-05
5.22485e-05
4.80965e-05
4.4583e-05
4.15727e-05
3.89533e-05
5.07594e-05
4.63882e-05
4.2722e-05
3.96257e-05
3.69561e-05
3.46345e-05
3.26051e-05
0.000261258
0.000239585
0.000220851
0.000204452
0.000189965
0.00017707
0.000165514
0.00038394
0.000354804
0.00032945
0.000307157
0.000287381
0.000269705
0.000253804
0.000450441
0.000418361
0.000389971
0.000364723
0.000342156
0.000321885
0.000303591
0.000479912
0.000447181
0.000417833
0.000391476
0.00036775
0.000346332
0.000326938
0.000516428
0.000479913
0.000447182
0.000417834
0.000391478
0.000367752
0.000346336
0.000326944
0.000486845
0.000450441
0.000418361
0.000389971
0.000364723
0.000342156
0.000321886
0.00041784
0.000383937
0.000354801
0.000329445
0.000307148
0.000287367
0.000269682
0.000286673
0.000261253
0.000239579
0.000220841
0.000204437
0.000189938
0.000177024
5.6061e-05
5.07591e-05
4.63878e-05
4.27214e-05
3.96245e-05
3.69542e-05
3.46314e-05
3.9079e-05
3.57392e-05
3.29498e-05
3.05782e-05
2.85355e-05
2.6775e-05
2.52478e-05
0.000222888
0.000203754
0.000187177
0.000172651
0.00015981
0.000148369
0.000138116
0.000327448
0.000301485
0.000279042
0.000259385
0.000241984
0.000226446
0.000212473
0.000383937
0.0003548
0.000329444
0.000307148
0.000287366
0.000269682
0.000253766
0.000409794
0.000379471
0.000352934
0.000329495
0.000308634
0.000289947
0.000273108
0.000444765
0.000409795
0.000379474
0.000352937
0.0003295
0.000308643
0.00028996
0.00027313
0.000417841
0.00038394
0.000354804
0.00032945
0.000307157
0.000287381
0.000269706
0.000357972
0.000327448
0.000301485
0.000279042
0.000259386
0.000241985
0.000226448
0.000245315
0.000222885
0.000203749
0.000187169
0.000172639
0.00015979
0.000148335
4.31308e-05
3.90788e-05
3.57388e-05
3.29491e-05
3.05772e-05
2.85338e-05
2.67723e-05
2.50814e-05
2.29331e-05
2.11502e-05
1.965e-05
1.83703e-05
1.72617e-05
1.62919e-05
0.000163069
0.000147531
0.000133972
0.000122031
0.000111438
0.000102094
9.38012e-05
0.000222884
0.000203748
0.000187168
0.000172637
0.000159788
0.000148333
0.000138055
0.000261253
0.000239578
0.000220841
0.000204436
0.000189937
0.000177025
0.000165436
0.000279974
0.000257074
0.000237258
0.000219913
0.000204582
0.000190923
0.000178666
0.00030682
0.000279976
0.000257077
0.000237263
0.000219921
0.000204595
0.000190944
0.000178703
0.000286676
0.000261257
0.000239585
0.000220851
0.000204453
0.000189965
0.000177072
0.000245318
0.000222888
0.000203754
0.000187177
0.000172651
0.000159811
0.000148371
0.000181111
0.000163069
0.000147531
0.000133972
0.000122031
0.000111439
0.000102095
2.77136e-05
2.50814e-05
2.29331e-05
2.11501e-05
1.96497e-05
1.83699e-05
1.72609e-05
9.05703e-06
8.49459e-06
8.03113e-06
7.64021e-06
7.31168e-06
7.02371e-06
6.75892e-06
2.50814e-05
2.29331e-05
2.11501e-05
1.96497e-05
1.83699e-05
1.72608e-05
1.62897e-05
3.90788e-05
3.57388e-05
3.2949e-05
3.05771e-05
2.85338e-05
2.67723e-05
2.52434e-05
5.07591e-05
4.63877e-05
4.27213e-05
3.96245e-05
3.69542e-05
3.46315e-05
3.26e-05
5.71435e-05
5.22485e-05
4.80965e-05
4.4583e-05
4.15727e-05
3.89534e-05
3.66603e-05
6.30857e-05
5.71437e-05
5.22487e-05
4.80968e-05
4.45836e-05
4.15736e-05
3.89548e-05
3.66628e-05
5.60612e-05
5.07594e-05
4.63882e-05
4.2722e-05
3.96257e-05
3.69561e-05
3.46346e-05
4.3131e-05
3.9079e-05
3.57392e-05
3.29498e-05
3.05782e-05
2.85355e-05
2.67751e-05
2.77136e-05
2.50815e-05
2.29331e-05
2.11502e-05
1.965e-05
1.83704e-05
1.72617e-05
9.76071e-06
9.05703e-06
8.49459e-06
8.03114e-06
7.64021e-06
7.3117e-06
7.0237e-06
)
;

boundaryField
{
    inlet
    {
        type            calculated;
        value           nonuniform List<scalar> 0();
    }
    ami1
    {
        type            cyclicAMI;
        value           nonuniform List<scalar> 0();
    }
    walls
    {
        type            nutkWallFunction;
        blending        stepwise;
        value           nonuniform List<scalar> 
271
(
1.44606e-06
0
0
0
0
0
0
5.78208e-07
1.62174e-06
1.6217e-06
5.78132e-07
0
0
0
0
0
0
0
8.23335e-07
8.23279e-07
0
0
0
0
0
0
0
0
1.37138e-07
1.3705e-07
0
0
0
0
0
0
0
0
0
0
0
0
0
0
0
0
0
0
0
0
0
0
0
0
0
0
0
0
0
0
0
0
0
0
0
0
0
5.78206e-07
1.62174e-06
1.6217e-06
5.7813e-07
0
0
0
0
0
0
0
8.23334e-07
8.23278e-07
0
0
0
0
0
0
0
0
1.37136e-07
1.37048e-07
0
0
0
0
0
0
0
0
0
0
0
0
0
0
0
0
0
0
0
0
0
0
0
0
0
0
0
0
0
0
0
0
0
0
0
0
0
0
0
0
0
0
0
5.78129e-07
1.6217e-06
1.62174e-06
5.78205e-07
0
0
0
0
0
0
0
8.23276e-07
8.23332e-07
0
0
0
0
0
0
0
0
1.37046e-07
1.37134e-07
0
0
0
0
0
0
0
0
0
0
0
0
0
0
0
0
0
0
0
0
0
0
0
0
0
0
0
0
0
0
0
0
0
0
0
0
0
0
0
0
0
0
0
0
2.57717e-06
1.44611e-06
0
0
0
0
0
0
5.78129e-07
1.6217e-06
1.62174e-06
5.78206e-07
0
0
0
0
0
0
0
8.23277e-07
8.23334e-07
0
0
0
0
0
0
0
0
1.37047e-07
1.37137e-07
0
0
0
0
0
0
0
0
0
0
0
0
0
0
0
0
0
0
0
0
0
0
0
0
0
0
0
0
0
0
0
0
0
0
0
0
0
0
0
0
)
;
    }
    ami2
    {
        type            cyclicAMI;
        value           nonuniform List<scalar> 0();
    }
    outlet
    {
        type            calculated;
        value           nonuniform List<scalar> 0();
    }
    procBoundary3to2
    {
        type            processor;
        value           nonuniform List<scalar> 
110
(
6.52623e-06
1.54477e-05
2.39114e-05
3.0822e-05
3.46452e-05
3.46411e-05
3.25998e-05
3.25998e-05
2.52433e-05
1.62898e-05
6.75899e-06
1.5444e-05
8.63756e-05
0.000128895
0.000155102
0.000167661
0.000167592
0.000165425
0.000165425
0.000138052
9.38068e-05
1.62921e-05
2.39037e-05
0.000128777
0.000199836
0.000239421
0.000257893
0.000257857
0.000253765
0.000253765
0.000212477
0.000138127
2.5248e-05
3.08133e-05
0.000154953
0.000239358
0.000287009
0.000309328
0.000309319
0.000303592
0.000303592
0.000253807
0.000165523
3.26053e-05
3.46411e-05
0.00016759
0.000257855
0.000309319
0.000333585
0.000333585
0.000326944
0.000326944
0.000273131
0.000178703
3.66627e-05
3.46452e-05
0.00016766
0.000257892
0.000309329
0.000333585
0.000333585
0.000326938
0.000326938
0.000273107
0.000178658
3.66601e-05
3.0822e-05
0.000155103
0.000239422
0.00028701
0.00030932
0.000309329
0.000303592
0.000303592
0.000253766
0.000165427
3.25998e-05
2.39114e-05
0.000128896
0.000199838
0.000239359
0.000257856
0.000257892
0.000253806
0.000253806
0.000212477
0.000138052
2.52433e-05
1.54477e-05
8.63758e-05
0.000128776
0.000154952
0.000167589
0.000167659
0.000165522
0.000165522
0.000138127
9.38063e-05
1.62897e-05
6.52623e-06
1.5444e-05
2.39037e-05
3.08133e-05
3.46412e-05
3.46453e-05
3.26053e-05
3.26053e-05
2.5248e-05
1.62921e-05
6.75898e-06
)
;
    }
    procBoundary3to4
    {
        type            processor;
        value           nonuniform List<scalar> 
109
(
9.76071e-06
2.77136e-05
4.31309e-05
5.60611e-05
6.30857e-05
6.30856e-05
5.6061e-05
4.31308e-05
2.77136e-05
9.76071e-06
2.77136e-05
0.000181111
0.000245317
0.000286676
0.00030682
0.000306819
0.000286674
0.000245316
0.000181111
2.77136e-05
4.31308e-05
0.000245316
0.000357972
0.000417841
0.000444765
0.000444764
0.00041784
0.000357973
0.000245318
4.3131e-05
5.6061e-05
0.000286673
0.00041784
0.000486845
0.000516428
0.000516428
0.000486845
0.000417841
0.000286676
5.60612e-05
6.30856e-05
0.000306819
0.000444764
0.000516428
0.000546547
0.000546547
0.000516428
0.000444765
0.00030682
6.30857e-05
6.30857e-05
0.00030682
0.000444765
0.000516428
0.000546547
0.000546547
0.000546547
0.000516428
0.000516428
0.000444764
0.000444764
0.000306819
0.000306819
6.30856e-05
6.30856e-05
5.60611e-05
0.000286676
0.000417841
0.000486845
0.000516428
0.000516428
0.000557104
0.000528266
0.000457785
0.00031705
6.28901e-05
4.31309e-05
0.000245317
0.000357972
0.00041784
0.000444764
0.000444764
0.000485439
0.000457786
0.000394561
0.000272126
4.83025e-05
2.77136e-05
0.000181111
0.000245316
0.000286674
0.000306819
0.000306819
0.000338936
0.000317051
0.000272127
0.000202474
3.10366e-05
9.76071e-06
2.77136e-05
4.31308e-05
5.6061e-05
6.30856e-05
6.30856e-05
7.08356e-05
6.28902e-05
4.83025e-05
3.10366e-05
1.06844e-05
)
;
    }
}


// ************************************************************************* //
