/*--------------------------------*- C++ -*----------------------------------*\
| =========                 |                                                 |
| \\      /  F ield         | OpenFOAM: The Open Source CFD Toolbox           |
|  \\    /   O peration     | Version:  2212                                  |
|   \\  /    A nd           | Website:  www.openfoam.com                      |
|    \\/     M anipulation  |                                                 |
\*---------------------------------------------------------------------------*/
FoamFile
{
    version     2.0;
    format      ascii;
    arch        "LSB;label=32;scalar=64";
    class       volScalarField;
    location    "3";
    object      p;
}
// * * * * * * * * * * * * * * * * * * * * * * * * * * * * * * * * * * * * * //

dimensions      [0 2 -2 0 0 0 0];

internalField   nonuniform List<scalar> 
680
(
0.00700459
0.00684356
0.00668432
0.00652699
0.00637151
0.00621704
0.00606261
0.0070526
0.00687826
0.00671102
0.00654843
0.00638878
0.00623062
0.00607309
0.00704281
0.00686427
0.00669555
0.00653173
0.00637055
0.00621138
0.00605383
0.00700674
0.00683863
0.00668074
0.00652434
0.00636786
0.00621183
0.00605654
0.00698828
0.00681715
0.00665984
0.00650896
0.00635748
0.00620433
0.00605098
0.00698843
0.0068174
0.00666026
0.00650966
0.00635864
0.00620627
0.00605415
0.0070071
0.00683927
0.00668182
0.00652615
0.00637083
0.00621664
0.00704319
0.00686492
0.00669667
0.00653367
0.00637378
0.00621666
0.00705275
0.00687853
0.00671153
0.00654928
0.0063902
0.00623312
0.00700458
0.00684354
0.0066843
0.00652697
0.00637147
0.00621699
0.00705276
0.00687855
0.00671155
0.00654931
0.00639024
0.00623317
0.0060778
0.00718341
0.00697906
0.00679104
0.00661389
0.00644405
0.00627882
0.0061167
0.00717931
0.00696678
0.0067723
0.00658914
0.00641405
0.00624509
0.00608047
0.0071443
0.00694116
0.00675434
0.00657696
0.00640585
0.00623951
0.00607696
0.00712179
0.00692088
0.00673331
0.0065565
0.00638698
0.00622303
0.00606333
0.00712203
0.0069212
0.00673386
0.0065575
0.00638868
0.00622576
0.00606762
0.00714467
0.00694178
0.00675561
0.00657942
0.00640997
0.00624564
0.00717965
0.0069674
0.00677337
0.00659085
0.00641673
0.00624932
0.0071834
0.00697905
0.00679102
0.00661386
0.00644401
0.00627878
0.00705259
0.00687824
0.006711
0.00654841
0.00638875
0.00623058
0.00704321
0.00686493
0.00669669
0.00653369
0.00637381
0.0062167
0.00606251
0.00717966
0.00696742
0.00677339
0.00659087
0.00641676
0.00624935
0.00608738
0.00715757
0.00693995
0.00674008
0.00655306
0.00637585
0.00620602
0.0060416
0.0071007
0.0068997
0.00670744
0.00652508
0.00635082
0.00618269
0.00601932
0.00705932
0.00687315
0.00668968
0.00651047
0.00633654
0.00616825
0.00600493
0.00705952
0.00687342
0.00669011
0.00651114
0.00633752
0.00616961
0.00600679
0.00710094
0.00690007
0.00670806
0.00652613
0.00635247
0.00618511
0.00715756
0.00693994
0.00674007
0.00655305
0.00637583
0.00620599
0.0071793
0.00696676
0.00677228
0.00658912
0.00641403
0.00624506
0.0070428
0.00686426
0.00669553
0.00653171
0.00637052
0.00621135
0.00700712
0.00683928
0.00668184
0.00652617
0.00637086
0.00621668
0.00606433
0.00714469
0.0069418
0.00675563
0.00657944
0.00641
0.00624568
0.00608571
0.00710096
0.00690008
0.00670807
0.00652615
0.00635249
0.00618513
0.00602283
0.00702375
0.00683989
0.00665969
0.00648478
0.00631505
0.00614991
0.00598877
0.00698252
0.00680838
0.00663484
0.00646375
0.00629601
0.00613193
0.00597141
0.00698259
0.00680848
0.00663497
0.00646393
0.00629625
0.00613225
0.00597187
0.00702374
0.00683988
0.00665968
0.00648477
0.00631504
0.0061499
0.00710069
0.00689969
0.00670743
0.00652507
0.00635081
0.00618267
0.00714429
0.00694115
0.00675433
0.00657695
0.00640584
0.00623949
0.00700673
0.00683862
0.00668073
0.00652433
0.00636784
0.00621181
0.00698845
0.00681742
0.00666028
0.00650968
0.00635867
0.0062063
0.0060542
0.00712204
0.00692122
0.00673388
0.00655753
0.00638872
0.0062258
0.00606766
0.00705953
0.00687344
0.00669012
0.00651116
0.00633755
0.00616964
0.00600682
0.00698261
0.00680849
0.00663499
0.00646394
0.00629626
0.00613226
0.00597189
0.00694357
0.00677708
0.00660879
0.00644107
0.00627536
0.00611243
0.00595259
0.00694356
0.00677708
0.00660879
0.00644107
0.00627535
0.00611242
0.00595259
0.00698251
0.00680837
0.00663483
0.00646374
0.006296
0.00613192
0.00705931
0.00687314
0.00668967
0.00651047
0.00633654
0.00616825
0.00712178
0.00692087
0.0067333
0.00655649
0.00638697
0.00622302
0.00698828
0.00681714
0.00665983
0.00650896
0.00635747
0.00620432
0.0069883
0.00681717
0.00665986
0.00650899
0.00635751
0.00620437
0.00605102
0.00712181
0.0069209
0.00673333
0.00655653
0.00638701
0.00622307
0.00606337
0.00705934
0.00687317
0.0066897
0.0065105
0.00633657
0.00616828
0.00600497
0.00698253
0.00680839
0.00663485
0.00646376
0.00629603
0.00613194
0.00597142
0.00694357
0.00677709
0.0066088
0.00644108
0.00627536
0.00611243
0.0059526
0.00694357
0.00677708
0.00660879
0.00644107
0.00627536
0.00611242
0.00595259
0.00698259
0.00680848
0.00663497
0.00646393
0.00629625
0.00613225
0.00705951
0.00687342
0.0066901
0.00651114
0.00633752
0.00616961
0.00712202
0.0069212
0.00673386
0.0065575
0.00638868
0.00622576
0.00698843
0.0068174
0.00666026
0.00650966
0.00635864
0.00620627
0.00700676
0.00683865
0.00668077
0.00652437
0.0063679
0.00621188
0.00605659
0.00714432
0.00694118
0.00675436
0.00657699
0.00640589
0.00623955
0.00607701
0.00710072
0.00689972
0.00670746
0.0065251
0.00635084
0.00618272
0.00601935
0.00702376
0.0068399
0.0066597
0.0064848
0.00631507
0.00614993
0.00598878
0.00698261
0.00680849
0.00663499
0.00646394
0.00629626
0.00613226
0.00597189
0.00715395
0.00698252
0.00680838
0.00663484
0.00646375
0.00629601
0.00613193
0.0059714
0.00720814
0.00702374
0.00683988
0.00665968
0.00648478
0.00631504
0.0061499
0.0073077
0.00710095
0.00690007
0.00670806
0.00652614
0.00635248
0.00618512
0.00737095
0.00714467
0.00694178
0.00675561
0.00657942
0.00640997
0.00624565
0.0071959
0.0070071
0.00683927
0.00668182
0.00652615
0.00637084
0.00621665
0.00704284
0.0068643
0.00669558
0.00653176
0.00637058
0.00621142
0.00605387
0.00717933
0.0069668
0.00677232
0.00658917
0.00641408
0.00624512
0.00608051
0.00715759
0.00693997
0.0067401
0.00655308
0.00637587
0.00620604
0.00604163
0.00710097
0.00690009
0.00670808
0.00652616
0.0063525
0.00618514
0.00602284
0.00705953
0.00687344
0.00669012
0.00651116
0.00633754
0.00616963
0.00600681
0.00724737
0.00705933
0.00687316
0.00668968
0.00651048
0.00633655
0.00616826
0.00600494
0.00730753
0.0071007
0.0068997
0.00670744
0.00652508
0.00635082
0.00618269
0.00739902
0.00715757
0.00693994
0.00674008
0.00655305
0.00637584
0.00620601
0.0074199
0.00717965
0.0069674
0.00677338
0.00659085
0.00641674
0.00624934
0.00723602
0.00704319
0.00686492
0.00669667
0.00653367
0.00637379
0.00621668
0.00705262
0.00687828
0.00671105
0.00654846
0.00638881
0.00623066
0.00607313
0.00718343
0.00697908
0.00679106
0.00661391
0.00644407
0.00627885
0.00611674
0.00717968
0.00696743
0.00677341
0.00659088
0.00641678
0.00624937
0.0060874
0.00714469
0.00694181
0.00675564
0.00657945
0.00641
0.00624568
0.00608571
0.00712204
0.00692122
0.00673388
0.00655752
0.00638871
0.00622579
0.00606764
0.00733504
0.0071218
0.00692089
0.00673332
0.00655651
0.00638699
0.00622304
0.00606334
0.00737071
0.0071443
0.00694116
0.00675434
0.00657697
0.00640585
0.00623951
0.00741972
0.00717931
0.00696677
0.00677229
0.00658913
0.00641404
0.00624508
0.00741093
0.00718341
0.00697905
0.00679103
0.00661387
0.00644403
0.0062788
0.00723886
0.00705276
0.00687854
0.00671153
0.00654929
0.00639022
0.00623314
0.00700461
0.00684358
0.00668434
0.00652702
0.00637154
0.00621707
0.00606264
0.00705278
0.00687857
0.00671157
0.00654933
0.00639027
0.0062332
0.00607783
0.00704322
0.00686495
0.00669671
0.00653371
0.00637382
0.00621672
0.00606252
0.00700713
0.00683929
0.00668185
0.00652618
0.00637087
0.00621668
0.00606433
0.00698845
0.00681742
0.00666028
0.00650968
0.00635866
0.00620629
0.00605419
0.00717916
0.00698829
0.00681716
0.00665985
0.00650897
0.00635749
0.00620434
0.006051
0.00719571
0.00700674
0.00683863
0.00668074
0.00652434
0.00636786
0.00621183
0.0072358
0.00704281
0.00686427
0.00669554
0.00653172
0.00637054
0.00621137
0.00723878
0.0070526
0.00687825
0.00671101
0.00654842
0.00638876
0.0062306
0.00717093
0.00700459
0.00684355
0.00668431
0.00652698
0.00637149
0.00621701
)
;

boundaryField
{
    inlet
    {
        type            zeroGradient;
    }
    ami1
    {
        type            cyclicAMI;
        value           nonuniform List<scalar> 0();
    }
    walls
    {
        type            zeroGradient;
    }
    ami2
    {
        type            cyclicAMI;
        value           nonuniform List<scalar> 0();
    }
    outlet
    {
        type            fixedValue;
        value           nonuniform List<scalar> 0();
    }
    procBoundary3to2
    {
        type            processor;
        value           nonuniform List<scalar> 
110
(
0.0059084
0.00591618
0.00589709
0.00590179
0.00589841
0.00590351
0.00606428
0.00606428
0.00606245
0.00607774
0.00606255
0.00592473
0.00595745
0.00591881
0.00591708
0.00590641
0.0059131
0.00608567
0.00608567
0.00608734
0.00611665
0.00607305
0.0059114
0.00593009
0.0058814
0.00585972
0.00584591
0.00584863
0.00602281
0.00602281
0.00604157
0.00608043
0.0060538
0.00591434
0.00593014
0.00586488
0.00583107
0.00581417
0.0058149
0.00598875
0.00598875
0.0060193
0.00607694
0.00605652
0.00590357
0.00591314
0.00584866
0.00581491
0.0057959
0.00579589
0.0059714
0.0059714
0.00600493
0.00606332
0.00605097
0.00589846
0.00590646
0.00584595
0.00581419
0.0057959
0.00579589
0.00597187
0.00597187
0.0060068
0.00606763
0.00605416
0.00590185
0.00591713
0.00585976
0.00583109
0.00581491
0.00581417
0.00598876
0.00598876
0.00602282
0.00608569
0.0060643
0.00589714
0.00591886
0.00588143
0.00586488
0.00584865
0.00584592
0.00601932
0.00601932
0.00604159
0.00608736
0.00606248
0.00591622
0.00595748
0.00593011
0.00593015
0.00591313
0.00590642
0.00607696
0.00607696
0.00608046
0.00611669
0.00607778
0.00590843
0.00592476
0.00591142
0.00591434
0.00590355
0.00589843
0.00605655
0.00605655
0.00605383
0.00607308
0.00606258
)
;
    }
    procBoundary3to4
    {
        type            processor;
        value           nonuniform List<scalar> 
109
(
0.00717094
0.00723878
0.0072358
0.00719571
0.00717915
0.00717923
0.00719591
0.00723602
0.00723886
0.00717093
0.00723887
0.00741094
0.00741972
0.00737071
0.00733504
0.0073352
0.00737096
0.0074199
0.00741093
0.00723877
0.00723603
0.00741991
0.00739902
0.00730753
0.00724736
0.00724752
0.0073077
0.00739901
0.00741971
0.00723579
0.00719592
0.00737097
0.00730771
0.00720814
0.00715395
0.007154
0.00720814
0.00730752
0.0073707
0.0071957
0.00717925
0.00733521
0.00724753
0.00715401
0.00710455
0.00710454
0.00715394
0.00724735
0.00733503
0.00717914
0.00717916
0.00733505
0.00724738
0.00715396
0.00710455
0.00710455
0.00710455
0.007154
0.007154
0.00724751
0.00724751
0.00733519
0.00733519
0.00717923
0.00717923
0.00719573
0.00737073
0.00730755
0.00720815
0.00715401
0.00715401
0.00731685
0.00738827
0.00751829
0.0076219
0.00741552
0.00723582
0.00741974
0.00739904
0.00730772
0.00724753
0.00724753
0.00743367
0.00751815
0.00765731
0.00769834
0.00745162
0.0072388
0.00741095
0.00741992
0.00737098
0.00733521
0.00733521
0.00755792
0.00762174
0.00769824
0.00766974
0.00744996
0.00717096
0.00723889
0.00723604
0.00719593
0.00717925
0.00717925
0.00740082
0.00741542
0.0074515
0.00744992
0.00735751
)
;
    }
}


// ************************************************************************* //
