/*--------------------------------*- C++ -*----------------------------------*\
| =========                 |                                                 |
| \\      /  F ield         | OpenFOAM: The Open Source CFD Toolbox           |
|  \\    /   O peration     | Version:  2212                                  |
|   \\  /    A nd           | Website:  www.openfoam.com                      |
|    \\/     M anipulation  |                                                 |
\*---------------------------------------------------------------------------*/
FoamFile
{
    version     2.0;
    format      ascii;
    arch        "LSB;label=32;scalar=64";
    class       surfaceScalarField;
    location    "3";
    object      phi;
}
// * * * * * * * * * * * * * * * * * * * * * * * * * * * * * * * * * * * * * //

dimensions      [0 3 -1 0 0 0 0];

oriented        oriented;

internalField   nonuniform List<scalar> 
1795
(
1.85988e-07
3.89053e-09
3.88338e-09
1.79329e-07
3.33611e-09
3.32339e-09
1.73482e-07
2.93432e-09
2.91185e-09
1.68281e-07
2.61924e-09
2.58189e-09
1.63611e-07
2.36644e-09
2.30421e-09
1.5937e-07
2.17305e-09
2.06749e-09
2.04259e-09
1.85097e-09
4.9092e-07
1.08098e-08
6.84033e-09
4.78688e-07
9.96421e-09
5.60399e-09
4.67589e-07
9.26605e-09
4.76697e-09
4.57388e-07
8.66136e-09
4.15939e-09
4.47935e-07
8.13128e-09
3.68824e-09
4.39115e-07
7.6701e-09
3.32291e-09
7.2831e-09
3.05204e-09
7.98779e-07
1.26821e-08
1.11171e-08
7.86715e-07
1.18973e-08
1.01309e-08
7.75589e-07
1.10585e-08
9.33442e-09
7.65265e-07
1.02609e-08
8.72407e-09
7.55602e-07
9.52652e-09
8.2678e-09
7.46487e-07
8.8656e-09
7.91972e-09
8.27093e-09
7.63433e-09
1.02287e-06
7.55908e-09
1.21053e-08
1.01606e-06
7.37496e-09
1.13298e-08
1.00936e-06
7.0932e-09
1.06668e-08
1.00281e-06
6.65859e-09
1.0156e-08
9.96397e-07
6.16856e-09
9.76906e-09
9.90107e-07
5.6868e-09
9.46894e-09
5.21102e-09
9.23529e-09
1.13406e-06
-1.31798e-11
1.12981e-08
1.13082e-06
-2.28427e-11
1.06334e-08
1.12779e-06
-3.88206e-11
1.01624e-08
1.12466e-06
-6.50689e-11
9.85114e-09
1.12132e-06
-1.08194e-10
9.61868e-09
1.11773e-06
-1.79166e-10
9.45783e-09
-2.95861e-10
9.37217e-09
1.13403e-06
-7.57974e-09
1.13045e-08
1.13077e-06
-7.41217e-09
1.06445e-08
1.12771e-06
-7.15637e-09
1.01816e-08
1.12452e-06
-6.76247e-09
9.88311e-09
1.12108e-06
-6.33879e-09
9.67229e-09
1.11732e-06
-5.96694e-09
9.54889e-09
9.52288e-09
1.02281e-06
-1.26863e-08
1.21166e-08
1.01595e-06
-1.19056e-08
1.1349e-08
1.00917e-06
-1.10731e-08
1.06997e-08
1.00248e-06
-1.02851e-08
1.02142e-08
9.95837e-07
-9.5676e-09
9.86791e-09
-8.94039e-09
9.63789e-09
7.98725e-07
-1.08011e-08
1.11278e-08
7.86621e-07
-9.94962e-09
1.01484e-08
7.75426e-07
-9.24059e-09
9.36281e-09
7.64986e-07
-8.61683e-09
8.77146e-09
7.55127e-07
-8.05868e-09
8.34966e-09
-7.55941e-09
8.06195e-09
4.90906e-07
-3.88332e-09
6.8485e-09
4.78662e-07
-3.32333e-09
5.61789e-09
4.67542e-07
-2.91177e-09
4.79122e-09
4.57299e-07
-2.58177e-09
4.20755e-09
4.47771e-07
-2.30404e-09
3.77333e-09
-2.06723e-09
3.46045e-09
1.85988e-07
3.89054e-09
1.79329e-07
3.33611e-09
1.73483e-07
2.93431e-09
1.68282e-07
2.61922e-09
1.63611e-07
2.36644e-09
2.17309e-09
4.90906e-07
6.84852e-09
1.08013e-08
4.78661e-07
5.61792e-09
9.94985e-09
4.67541e-07
4.79126e-09
9.24091e-09
4.57298e-07
4.20757e-09
8.61728e-09
4.47769e-07
3.7733e-09
8.05934e-09
4.38816e-07
3.46039e-09
7.56032e-09
3.24134e-09
7.11819e-09
8.54709e-07
1.22002e-08
1.21881e-08
8.45234e-07
1.03594e-08
1.0338e-08
8.36831e-07
8.99968e-09
8.96153e-09
8.29307e-07
7.97891e-09
7.91218e-09
8.22462e-07
7.20896e-09
7.09746e-09
8.16155e-07
6.6352e-09
6.4553e-09
6.20401e-09
5.92036e-09
1.14455e-06
1.38995e-08
1.53266e-08
1.13911e-06
1.23059e-08
1.36243e-08
1.13427e-06
1.09194e-08
1.22599e-08
1.13002e-06
9.78045e-09
1.11733e-08
1.12632e-06
8.86025e-09
1.03117e-08
1.12315e-06
8.11166e-09
9.6193e-09
7.4969e-09
9.0366e-09
1.35458e-06
9.05217e-09
1.68072e-08
1.35455e-06
8.20261e-09
1.54575e-08
1.35451e-06
7.40497e-09
1.4222e-08
1.35453e-06
6.6944e-09
1.32271e-08
1.35465e-06
6.06701e-09
1.24369e-08
1.35492e-06
5.51085e-09
1.18047e-08
5.01533e-09
1.12926e-08
1.46197e-06
-1.13516e-11
1.64297e-08
1.46529e-06
-1.94173e-11
1.55372e-08
1.46824e-06
-3.48348e-11
1.46458e-08
1.47103e-06
-6.18143e-11
1.38167e-08
1.47373e-06
-1.04235e-10
1.30881e-08
1.47634e-06
-1.67769e-10
1.2529e-08
-2.62428e-10
1.21478e-08
1.46194e-06
-9.06608e-09
1.64383e-08
1.46524e-06
-8.22679e-09
1.55502e-08
1.46817e-06
-7.45198e-09
1.4667e-08
1.47092e-06
-6.78093e-09
1.38533e-08
1.47355e-06
-6.21041e-09
1.31521e-08
1.47602e-06
-5.73333e-09
1.26392e-08
1.23305e-08
1.35452e-06
-1.38987e-08
1.68265e-08
1.35446e-06
-1.23044e-08
1.5487e-08
1.35435e-06
-1.09165e-08
1.42705e-08
1.35425e-06
-9.77468e-09
1.33113e-08
1.35417e-06
-8.84621e-09
1.25787e-08
-8.08631e-09
1.20366e-08
1.14451e-06
-1.21879e-08
1.53447e-08
1.13904e-06
-1.03378e-08
1.36556e-08
1.13413e-06
-8.96125e-09
1.23121e-08
1.12978e-06
-7.91183e-09
1.12596e-08
1.12593e-06
-7.09703e-09
1.04534e-08
-6.45469e-09
9.85125e-09
8.5471e-07
-6.84026e-09
1.22001e-08
8.45235e-07
-5.60389e-09
1.03593e-08
8.36832e-07
-4.76682e-09
8.99956e-09
8.29308e-07
-4.15918e-09
7.97877e-09
8.22463e-07
-3.68799e-09
7.20888e-09
-3.32272e-09
6.63524e-09
4.9092e-07
1.08098e-08
4.78689e-07
9.96413e-09
4.6759e-07
9.26592e-09
4.57389e-07
8.66118e-09
4.47936e-07
8.13102e-09
7.66984e-09
7.98725e-07
1.11278e-08
1.26866e-08
7.8662e-07
1.01485e-08
1.1906e-08
7.75424e-07
9.36293e-09
1.10736e-08
7.64984e-07
8.77162e-09
1.02857e-08
7.55125e-07
8.34994e-09
9.56841e-09
7.45682e-07
8.06251e-09
8.94143e-09
7.87666e-09
8.41539e-09
1.14451e-06
1.53448e-08
1.38989e-08
1.13904e-06
1.36558e-08
1.23048e-08
1.13413e-06
1.23123e-08
1.09169e-08
1.12978e-06
1.12598e-08
9.77519e-09
1.12593e-06
1.04537e-08
8.84688e-09
1.12251e-06
9.85189e-09
8.08736e-09
9.41637e-09
7.45594e-09
1.41148e-06
1.50573e-08
1.50447e-08
1.41174e-06
1.35223e-08
1.35018e-08
1.41195e-06
1.21986e-08
1.21658e-08
1.41227e-06
1.1081e-08
1.10285e-08
1.4128e-06
1.01582e-08
1.00738e-08
1.41359e-06
9.41059e-09
9.27413e-09
8.81547e-09
8.59545e-09
1.60007e-06
9.34605e-09
1.54467e-08
1.60622e-06
8.48303e-09
1.43457e-08
1.61171e-06
7.6739e-09
1.32527e-08
1.6168e-06
6.96588e-09
1.22616e-08
1.62163e-06
6.36194e-09
1.13989e-08
1.62633e-06
5.84578e-09
1.06644e-08
5.40344e-09
1.00413e-08
1.69658e-06
-5.66109e-12
1.49531e-08
1.70633e-06
-9.65275e-12
1.42762e-08
1.71517e-06
-1.68528e-11
1.34969e-08
1.72328e-06
-2.87216e-11
1.27031e-08
1.73081e-06
-4.65218e-11
1.196e-08
1.73795e-06
-7.14972e-11
1.13116e-08
-1.06933e-10
1.07757e-08
1.69655e-06
-9.34817e-09
1.4961e-08
1.70629e-06
-8.48719e-09
1.42883e-08
1.71511e-06
-7.68336e-09
1.35159e-08
1.72319e-06
-6.9851e-09
1.27341e-08
1.73068e-06
-6.39496e-09
1.20105e-08
1.73775e-06
-5.89603e-09
1.13933e-08
1.09052e-08
1.60004e-06
-1.50444e-08
1.5464e-08
1.60617e-06
-1.35014e-08
1.43722e-08
1.61162e-06
-1.21654e-08
1.32937e-08
1.61665e-06
-1.1028e-08
1.23268e-08
1.6214e-06
-1.00731e-08
1.15042e-08
-9.27328e-09
1.08343e-08
1.41148e-06
-1.53264e-08
1.50571e-08
1.41174e-06
-1.36241e-08
1.3522e-08
1.41195e-06
-1.22596e-08
1.21983e-08
1.41227e-06
-1.11729e-08
1.10806e-08
1.41281e-06
-1.03113e-08
1.01578e-08
-9.61879e-09
9.40999e-09
1.14455e-06
-1.11169e-08
1.38993e-08
1.13911e-06
-1.01307e-08
1.23056e-08
1.13427e-06
-9.3342e-09
1.09192e-08
1.13002e-06
-8.72376e-09
9.78013e-09
1.12632e-06
-8.26741e-09
8.85993e-09
-7.91928e-09
8.11142e-09
7.9878e-07
1.2682e-08
7.86716e-07
1.18971e-08
7.7559e-07
1.10582e-08
7.65266e-07
1.02606e-08
7.55604e-07
9.52613e-09
8.86515e-09
1.02281e-06
1.21167e-08
7.58008e-09
1.01595e-06
1.13492e-08
7.41261e-09
1.00917e-06
1.06999e-08
7.15692e-09
1.00247e-06
1.02144e-08
6.76315e-09
9.95835e-07
9.86827e-09
6.33962e-09
9.8917e-07
9.63845e-09
5.96796e-09
9.51855e-09
5.68014e-09
1.35452e-06
1.68267e-08
9.06639e-09
1.35446e-06
1.54872e-08
8.22719e-09
1.35435e-06
1.42708e-08
7.45249e-09
1.35425e-06
1.33117e-08
6.78161e-09
1.35417e-06
1.25793e-08
6.21129e-09
1.35413e-06
1.20374e-08
5.7345e-09
1.16675e-08
5.35057e-09
1.60004e-06
1.54643e-08
9.34848e-09
1.60616e-06
1.43725e-08
8.48759e-09
1.61162e-06
1.32941e-08
7.68386e-09
1.61665e-06
1.23273e-08
6.98574e-09
1.6214e-06
1.15048e-08
6.39577e-09
1.62598e-06
1.08351e-08
5.89705e-09
1.03161e-08
5.47654e-09
1.77033e-06
9.21014e-09
9.20266e-09
1.7818e-06
8.62959e-09
8.61879e-09
1.79234e-06
8.01226e-09
7.99654e-09
1.80211e-06
7.42403e-09
7.40038e-09
1.81125e-06
6.89893e-09
6.86188e-09
1.81991e-06
6.45022e-09
6.39055e-09
6.07975e-09
5.98353e-09
1.85773e-06
8.92879e-13
8.83482e-09
1.87218e-06
7.59946e-13
8.46026e-09
1.88567e-06
4.19278e-13
8.01364e-09
1.89825e-06
6.52023e-14
7.54582e-09
1.91002e-06
2.7135e-13
7.09324e-09
1.9211e-06
2.00202e-12
6.67914e-09
5.93524e-12
6.31541e-09
1.85773e-06
-9.20231e-09
8.83964e-09
1.87217e-06
-8.61835e-09
8.46735e-09
1.88565e-06
-7.996e-09
8.02428e-09
1.89823e-06
-7.39971e-09
7.56206e-09
1.90998e-06
-6.86105e-09
7.11828e-09
1.92105e-06
-6.38952e-09
6.71781e-09
6.37501e-09
1.77033e-06
-1.54465e-08
9.2098e-09
1.7818e-06
-1.43454e-08
8.62919e-09
1.79234e-06
-1.32522e-08
8.01179e-09
1.80211e-06
-1.22611e-08
7.42349e-09
1.81125e-06
-1.13982e-08
6.8983e-09
-1.06635e-08
6.44949e-09
1.60007e-06
-1.6807e-08
9.34575e-09
1.60622e-06
-1.54572e-08
8.48268e-09
1.61172e-06
-1.42217e-08
7.67348e-09
1.6168e-06
-1.32267e-08
6.96539e-09
1.62163e-06
-1.24364e-08
6.36137e-09
-1.18041e-08
5.84509e-09
1.35458e-06
-1.21052e-08
9.05191e-09
1.35455e-06
-1.13297e-08
8.20229e-09
1.35451e-06
-1.06665e-08
7.40457e-09
1.35453e-06
-1.01557e-08
6.69393e-09
1.35465e-06
-9.76865e-09
6.06646e-09
-9.46846e-09
5.51027e-09
1.02287e-06
7.55889e-09
1.01606e-06
7.3747e-09
1.00936e-06
7.09286e-09
1.00281e-06
6.65817e-09
9.96399e-07
6.16804e-09
5.6862e-09
1.13403e-06
1.13046e-08
1.35294e-11
1.13077e-06
1.06447e-08
2.32889e-11
1.12771e-06
1.01818e-08
3.93807e-11
1.12452e-06
9.88335e-09
6.57644e-11
1.12108e-06
9.67258e-09
1.09049e-10
1.11732e-06
9.54927e-09
1.80222e-10
9.5234e-09
2.97203e-10
1.46194e-06
1.64386e-08
1.1693e-11
1.46524e-06
1.55505e-08
1.98568e-11
1.46817e-06
1.46673e-08
3.53954e-11
1.47092e-06
1.38538e-08
6.25322e-11
1.47355e-06
1.31527e-08
1.0515e-10
1.47602e-06
1.26399e-08
1.68907e-10
1.23313e-08
2.63768e-10
1.69655e-06
1.49613e-08
5.99662e-12
1.70629e-06
1.42887e-08
1.00826e-11
1.71511e-06
1.35164e-08
1.73966e-11
1.72318e-06
1.27347e-08
2.94052e-11
1.73067e-06
1.20112e-08
4.73731e-11
1.73774e-06
1.1394e-08
7.25382e-11
1.09061e-08
1.0817e-10
1.85773e-06
8.84003e-09
-5.32804e-13
1.87217e-06
8.46782e-09
-3.04783e-13
1.88565e-06
8.02483e-09
1.63646e-13
1.89823e-06
7.56269e-09
6.75459e-13
1.90998e-06
7.11899e-09
6.21196e-13
1.92105e-06
6.71861e-09
-9.21837e-13
6.37589e-09
-4.67804e-12
1.94052e-06
1.76872e-12
-1.35644e-12
1.95744e-06
2.42165e-12
-1.90299e-12
1.97348e-06
3.36212e-12
-2.71727e-12
1.98859e-06
4.79463e-12
-4.0013e-12
2.0028e-06
7.0456e-12
-6.07919e-12
2.0162e-06
1.05905e-11
-9.42289e-12
1.60058e-11
-1.4597e-11
1.94052e-06
-8.83443e-09
1.34503e-12
1.95744e-06
-8.45978e-09
1.92266e-12
1.97348e-06
-8.01304e-09
2.78402e-12
1.98859e-06
-7.54508e-09
4.13592e-12
2.0028e-06
-7.09235e-09
6.30995e-12
2.0162e-06
-6.67804e-09
9.78536e-12
1.51352e-11
1.85773e-06
-1.49528e-08
5.1949e-13
1.87218e-06
-1.42759e-08
3.21824e-13
1.88567e-06
-1.34964e-08
-1.04863e-13
1.89826e-06
-1.27026e-08
-5.37837e-13
1.91002e-06
-1.19593e-08
-4.10092e-13
-1.13107e-08
1.23913e-12
1.69658e-06
-1.64295e-08
-6.00227e-12
1.70633e-06
-1.5537e-08
-1.00633e-11
1.71517e-06
-1.46455e-08
-1.73401e-11
1.72328e-06
-1.38163e-08
-2.92946e-11
1.73082e-06
-1.30876e-08
-4.71909e-11
-1.25282e-08
-7.22899e-11
1.46197e-06
-1.1298e-08
-1.16577e-11
1.46529e-06
-1.06332e-08
-1.97944e-11
1.46824e-06
-1.01622e-08
-3.52941e-11
1.47103e-06
-9.85089e-09
-6.23676e-11
1.47374e-06
-9.61832e-09
-1.04893e-10
-9.45733e-09
-1.68556e-10
1.13406e-06
-1.34181e-11
1.13082e-06
-2.31506e-11
1.12779e-06
-3.92134e-11
1.12466e-06
-6.55649e-11
1.12132e-06
-1.08814e-10
-1.79929e-10
1.13405e-06
1.12982e-08
-7.55874e-09
1.13082e-06
1.06335e-08
-7.37452e-09
1.12779e-06
1.01625e-08
-7.09266e-09
1.12466e-06
9.85131e-09
-6.65792e-09
1.12132e-06
9.61887e-09
-6.16773e-09
1.11773e-06
9.45805e-09
-5.68578e-09
9.37242e-09
-5.20975e-09
1.46197e-06
1.643e-08
-9.05187e-09
1.46528e-06
1.55375e-08
-8.20223e-09
1.46824e-06
1.46462e-08
-7.40448e-09
1.47103e-06
1.38172e-08
-6.69378e-09
1.47373e-06
1.30887e-08
-6.06622e-09
1.47634e-06
1.25296e-08
-5.50991e-09
1.21486e-08
-5.01418e-09
1.69658e-06
1.49535e-08
-9.34576e-09
1.70633e-06
1.42767e-08
-8.48265e-09
1.71517e-06
1.34974e-08
-7.67341e-09
1.72328e-06
1.27038e-08
-6.96527e-09
1.73081e-06
1.19607e-08
-6.36118e-09
1.73795e-06
1.13125e-08
-5.84486e-09
1.07767e-08
-5.40235e-09
1.85773e-06
8.83525e-09
-9.20982e-09
1.87218e-06
8.46078e-09
-8.62918e-09
1.88567e-06
8.01424e-09
-8.01174e-09
1.89825e-06
7.54652e-09
-7.42338e-09
1.91002e-06
7.09404e-09
-6.89814e-09
1.9211e-06
6.68004e-09
-6.44926e-09
6.31642e-09
-6.07861e-09
1.94052e-06
-9.02759e-13
-8.83966e-09
1.95744e-06
-1.36843e-12
-8.46734e-09
1.97348e-06
-2.09647e-12
-8.02423e-09
1.98859e-06
-3.28978e-12
-7.56196e-09
2.0028e-06
-5.27478e-12
-7.1181e-09
2.0162e-06
-8.5252e-12
-6.71754e-09
-1.36011e-11
-6.37461e-09
1.94052e-06
-8.83923e-09
-8.83484e-09
1.95744e-06
-8.46684e-09
-8.46025e-09
1.97348e-06
-8.02366e-09
-8.01359e-09
1.98859e-06
-7.5613e-09
-7.54572e-09
2.0028e-06
-7.11735e-09
-7.09306e-09
2.0162e-06
-6.71669e-09
-6.67884e-09
-6.31495e-09
1.85773e-06
-1.49607e-08
-9.20268e-09
1.87217e-06
-1.42879e-08
-8.61878e-09
1.88565e-06
-1.35155e-08
-7.9965e-09
1.89823e-06
-1.27335e-08
-7.4003e-09
1.90998e-06
-1.20098e-08
-6.86173e-09
-1.13924e-08
-6.3903e-09
1.69655e-06
-1.64381e-08
-9.34849e-09
1.70629e-06
-1.55499e-08
-8.48759e-09
1.71511e-06
-1.46666e-08
-7.68383e-09
1.72319e-06
-1.38529e-08
-6.98567e-09
1.73068e-06
-1.31516e-08
-6.39565e-09
-1.26385e-08
-5.89686e-09
1.46194e-06
-1.13044e-08
-9.06638e-09
1.46524e-06
-1.06444e-08
-8.22714e-09
1.46817e-06
-1.01814e-08
-7.45241e-09
1.47092e-06
-9.88292e-09
-6.78147e-09
1.47355e-06
-9.67202e-09
-6.21107e-09
-9.5485e-09
-5.73418e-09
1.13403e-06
-7.58e-09
1.13077e-06
-7.41251e-09
1.12771e-06
-7.15679e-09
1.12452e-06
-6.763e-09
1.12108e-06
-6.33945e-09
-5.9678e-09
1.02287e-06
1.21055e-08
-1.26818e-08
1.01606e-06
1.133e-08
-1.18969e-08
1.00936e-06
1.06669e-08
-1.1058e-08
1.00281e-06
1.01562e-08
-1.02604e-08
9.96396e-07
9.76929e-09
-9.52589e-09
9.90106e-07
9.46922e-09
-8.86481e-09
9.23556e-09
-8.26992e-09
1.35458e-06
1.68074e-08
-1.38993e-08
1.35455e-06
1.54578e-08
-1.23056e-08
1.35451e-06
1.42224e-08
-1.09191e-08
1.35453e-06
1.32276e-08
-9.77999e-09
1.35465e-06
1.24375e-08
-8.85969e-09
1.35492e-06
1.18054e-08
-8.11098e-09
1.12934e-08
-7.49609e-09
1.60007e-06
1.54471e-08
-1.50571e-08
1.60622e-06
1.43462e-08
-1.3522e-08
1.61171e-06
1.32532e-08
-1.21982e-08
1.6168e-06
1.22622e-08
-1.10805e-08
1.62163e-06
1.13997e-08
-1.01577e-08
1.62633e-06
1.06653e-08
-9.40992e-09
1.00424e-08
-8.81472e-09
1.77033e-06
9.2031e-09
-1.5464e-08
1.7818e-06
8.61931e-09
-1.43722e-08
1.79234e-06
7.99716e-09
-1.32937e-08
1.80211e-06
7.40111e-09
-1.23268e-08
1.81125e-06
6.86272e-09
-1.15042e-08
1.81991e-06
6.39151e-09
-1.08343e-08
5.98463e-09
-1.03153e-08
1.85773e-06
-9.08261e-14
-1.4961e-08
1.87217e-06
2.25958e-13
-1.42883e-08
1.88565e-06
8.07857e-13
-1.3516e-08
1.89823e-06
1.41541e-12
-1.27341e-08
1.90998e-06
1.48471e-12
-1.20105e-08
1.92105e-06
1.32427e-14
-1.13932e-08
-3.68635e-12
-1.09051e-08
1.84241e-06
-9.6591e-09
-1.54267e-08
1.85773e-06
-9.2094e-09
-1.49531e-08
1.87218e-06
-8.62869e-09
-1.42763e-08
1.88567e-06
-8.01117e-09
-1.34969e-08
1.89826e-06
-7.42273e-09
-1.27031e-08
1.91002e-06
-6.8974e-09
-1.19599e-08
1.9211e-06
-6.44844e-09
-1.13115e-08
-1.07755e-08
1.75784e-06
-1.63877e-08
-1.63772e-08
1.77033e-06
-1.54637e-08
-1.54468e-08
1.7818e-06
-1.43718e-08
-1.43457e-08
1.79234e-06
-1.32932e-08
-1.32526e-08
1.80211e-06
-1.23263e-08
-1.22616e-08
1.81125e-06
-1.15035e-08
-1.13989e-08
-1.08336e-08
-1.06643e-08
1.59298e-06
-1.81101e-08
-1.6717e-08
1.60004e-06
-1.68263e-08
-1.50447e-08
1.60617e-06
-1.54867e-08
-1.35018e-08
1.61162e-06
-1.42702e-08
-1.21658e-08
1.61665e-06
-1.3311e-08
-1.10285e-08
1.62141e-06
-1.25783e-08
-1.00738e-08
-1.20361e-08
-9.27411e-09
1.3544e-06
-1.29778e-08
-1.56928e-08
1.35452e-06
-1.21165e-08
-1.38989e-08
1.35446e-06
-1.13489e-08
-1.23047e-08
1.35435e-06
-1.06996e-08
-1.09169e-08
1.35425e-06
-1.0214e-08
-9.77514e-09
1.35417e-06
-9.86769e-09
-8.84678e-09
-9.63763e-09
-8.0871e-09
1.02982e-06
-1.33863e-08
1.02281e-06
-1.26866e-08
1.01595e-06
-1.19059e-08
1.00917e-06
-1.10735e-08
1.00248e-06
-1.02856e-08
9.95838e-07
-9.56826e-09
-8.94123e-09
7.98779e-07
1.11172e-08
-1.08097e-08
7.86715e-07
1.01311e-08
-9.96401e-09
7.75588e-07
9.33463e-09
-9.26581e-09
7.65265e-07
8.72432e-09
-8.66107e-09
7.55602e-07
8.26811e-09
-8.13093e-09
7.46487e-07
7.92009e-09
-7.66966e-09
7.63475e-09
-7.28253e-09
1.14455e-06
1.53268e-08
-1.22001e-08
1.13911e-06
1.36247e-08
-1.03593e-08
1.13427e-06
1.22603e-08
-8.9995e-09
1.13002e-06
1.11737e-08
-7.97867e-09
1.12632e-06
1.03123e-08
-7.20865e-09
1.12315e-06
9.61995e-09
-6.6348e-09
9.03745e-09
-6.20363e-09
1.41148e-06
1.5045e-08
-1.53448e-08
1.41174e-06
1.35022e-08
-1.36557e-08
1.41195e-06
1.21663e-08
-1.23121e-08
1.41227e-06
1.10291e-08
-1.12596e-08
1.4128e-06
1.00745e-08
-1.04534e-08
1.41359e-06
9.27498e-09
-9.85151e-09
8.59654e-09
-9.41599e-09
1.60004e-06
9.34887e-09
-1.68265e-08
1.60617e-06
8.48806e-09
-1.5487e-08
1.61162e-06
7.68441e-09
-1.42706e-08
1.61665e-06
6.98639e-09
-1.33114e-08
1.6214e-06
6.39653e-09
-1.25789e-08
1.62598e-06
5.89795e-09
-1.2037e-08
5.47762e-09
-1.16671e-08
1.69655e-06
6.39272e-12
-1.64384e-08
1.70629e-06
1.05546e-11
-1.55502e-08
1.71511e-06
1.79495e-11
-1.4667e-08
1.72319e-06
3.00432e-11
-1.38534e-08
1.73068e-06
4.81011e-11
-1.31523e-08
1.73775e-06
7.3373e-11
-1.26394e-08
1.09162e-10
-1.23307e-08
1.68575e-06
-1.01524e-08
-1.71487e-08
1.69658e-06
-9.34539e-09
-1.64297e-08
1.70633e-06
-8.48223e-09
-1.55372e-08
1.71517e-06
-7.67293e-09
-1.46458e-08
1.72328e-06
-6.96472e-09
-1.38167e-08
1.73082e-06
-6.36058e-09
-1.30881e-08
1.73795e-06
-5.84419e-09
-1.2529e-08
-1.21478e-08
1.593e-06
-1.67247e-08
-1.8098e-08
1.60007e-06
-1.50568e-08
-1.68071e-08
1.60622e-06
-1.35217e-08
-1.54574e-08
1.61172e-06
-1.21978e-08
-1.4222e-08
1.6168e-06
-1.10801e-08
-1.32271e-08
1.62163e-06
-1.01572e-08
-1.24369e-08
-9.40936e-09
-1.18048e-08
1.41091e-06
-1.74339e-08
-1.74237e-08
1.41148e-06
-1.53445e-08
-1.53265e-08
1.41174e-06
-1.36554e-08
-1.36243e-08
1.41195e-06
-1.23118e-08
-1.22599e-08
1.41227e-06
-1.12592e-08
-1.11733e-08
1.41281e-06
-1.0453e-08
-1.03118e-08
-9.85082e-09
-9.61951e-09
1.15044e-06
-1.23457e-08
-1.4699e-08
1.14451e-06
-1.11277e-08
-1.21881e-08
1.13904e-06
-1.01483e-08
-1.0338e-08
1.13413e-06
-9.36268e-09
-8.96152e-09
1.12978e-06
-8.77129e-09
-7.91216e-09
1.12593e-06
-8.34945e-09
-7.09745e-09
-8.06173e-09
-6.45531e-09
8.11738e-07
-1.19528e-08
7.98725e-07
-1.08013e-08
7.86621e-07
-9.94986e-09
7.75426e-07
-9.2409e-09
7.64986e-07
-8.61723e-09
7.55127e-07
-8.05921e-09
-7.56006e-09
4.9092e-07
6.84047e-09
-3.8905e-09
4.78688e-07
5.60415e-09
-3.33605e-09
4.67589e-07
4.76716e-09
-2.93424e-09
4.57388e-07
4.15962e-09
-2.61913e-09
4.47935e-07
3.68851e-09
-2.36629e-09
4.39115e-07
3.32316e-09
-2.17282e-09
3.05237e-09
-2.0423e-09
8.54709e-07
1.21883e-08
-6.84852e-09
8.45234e-07
1.03382e-08
-5.61791e-09
8.36831e-07
8.96183e-09
-4.79123e-09
8.29307e-07
7.91254e-09
-4.20752e-09
8.22462e-07
7.09787e-09
-3.7732e-09
8.16155e-07
6.45576e-09
-3.46024e-09
5.92102e-09
-3.24123e-09
1.14451e-06
1.38992e-08
-1.11278e-08
1.13904e-06
1.23051e-08
-1.01485e-08
1.13413e-06
1.09173e-08
-9.3629e-09
1.12978e-06
9.77563e-09
-8.77158e-09
1.12593e-06
8.84741e-09
-8.34987e-09
1.12251e-06
8.08801e-09
-8.06244e-09
7.45679e-09
-7.87658e-09
1.35452e-06
9.06665e-09
-1.21167e-08
1.35446e-06
8.22751e-09
-1.13491e-08
1.35435e-06
7.45287e-09
-1.06999e-08
1.35425e-06
6.78206e-09
-1.02144e-08
1.35417e-06
6.21183e-09
-9.86818e-09
1.35413e-06
5.73517e-09
-9.63836e-09
5.35141e-09
-9.51847e-09
1.46194e-06
1.19483e-11
-1.13045e-08
1.46524e-06
2.017e-11
-1.06446e-08
1.46817e-06
3.57705e-11
-1.01817e-08
1.47092e-06
6.29708e-11
-9.88323e-09
1.47355e-06
1.05655e-10
-9.67244e-09
1.47602e-06
1.69494e-10
-9.54911e-09
2.64514e-10
-9.52325e-09
1.45804e-06
-9.89553e-09
-1.20946e-08
1.46197e-06
-9.05163e-09
-1.12981e-08
1.46529e-06
-8.20195e-09
-1.06334e-08
1.46824e-06
-7.40415e-09
-1.01624e-08
1.47103e-06
-6.69341e-09
-9.85109e-09
1.47373e-06
-6.06585e-09
-9.61861e-09
1.47634e-06
-5.50955e-09
-9.45777e-09
-9.37216e-09
1.35443e-06
-1.56939e-08
-1.29711e-08
1.35458e-06
-1.38991e-08
-1.21053e-08
1.35455e-06
-1.23053e-08
-1.13298e-08
1.35451e-06
-1.09188e-08
-1.06667e-08
1.35453e-06
-9.7797e-09
-1.01559e-08
1.35465e-06
-8.85944e-09
-9.76896e-09
-8.1109e-09
-9.46889e-09
1.15046e-06
-1.47064e-08
-1.23398e-08
1.14455e-06
-1.21999e-08
-1.1117e-08
1.13911e-06
-1.0359e-08
-1.01309e-08
1.13427e-06
-8.99927e-09
-9.33439e-09
1.13002e-06
-7.97841e-09
-8.72402e-09
1.12632e-06
-7.20844e-09
-8.26777e-09
-6.63482e-09
-7.91979e-09
8.65409e-07
-8.71406e-09
-8.70923e-09
8.5471e-07
-6.84838e-09
-6.84034e-09
8.45235e-07
-5.61776e-09
-5.604e-09
8.36832e-07
-4.79107e-09
-4.76698e-09
8.29308e-07
-4.20733e-09
-4.15939e-09
8.22463e-07
-3.77305e-09
-3.68827e-09
-3.46015e-09
-3.32308e-09
5.04672e-07
-4.71369e-09
4.90906e-07
-3.88339e-09
4.78662e-07
-3.32342e-09
4.67542e-07
-2.91188e-09
4.57299e-07
-2.5819e-09
4.47771e-07
-2.30422e-09
-2.06748e-09
1.85988e-07
3.88343e-09
1.79329e-07
3.32347e-09
1.73482e-07
2.91196e-09
1.68281e-07
2.58203e-09
1.63611e-07
2.30438e-09
1.5937e-07
2.06768e-09
1.85121e-09
4.90906e-07
1.08014e-08
4.78661e-07
9.94994e-09
4.67541e-07
9.24105e-09
4.57298e-07
8.61748e-09
4.4777e-07
8.05961e-09
4.38816e-07
7.56065e-09
7.11856e-09
7.98725e-07
1.26866e-08
7.8662e-07
1.19061e-08
7.75425e-07
1.10737e-08
7.64985e-07
1.02859e-08
7.55126e-07
9.56871e-09
7.45682e-07
8.94183e-09
8.41589e-09
1.02281e-06
7.58009e-09
1.01595e-06
7.41265e-09
1.00917e-06
7.15702e-09
1.00248e-06
6.76332e-09
9.95836e-07
6.33987e-09
9.89171e-07
5.96831e-09
5.6806e-09
1.13403e-06
1.34976e-11
1.13077e-06
2.32864e-11
1.12771e-06
3.94202e-11
1.12452e-06
6.58565e-11
1.12108e-06
1.09202e-10
1.11732e-06
1.80429e-10
2.97453e-10
1.13778e-06
-7.78986e-09
1.13406e-06
-7.55878e-09
1.13082e-06
-7.37454e-09
1.12779e-06
-7.09264e-09
1.12466e-06
-6.65786e-09
1.12132e-06
-6.16764e-09
1.11773e-06
-5.68565e-09
1.02985e-06
-1.33835e-08
1.02287e-06
-1.26819e-08
1.01606e-06
-1.18969e-08
1.00936e-06
-1.1058e-08
1.00281e-06
-1.02604e-08
9.96398e-07
-9.52579e-09
-8.86471e-09
8.11769e-07
-1.19578e-08
7.9878e-07
-1.08097e-08
7.86716e-07
-9.964e-09
7.75589e-07
-9.26578e-09
7.65266e-07
-8.661e-09
7.55603e-07
-8.13082e-09
-7.66957e-09
5.0468e-07
-4.71755e-09
4.9092e-07
-3.89049e-09
4.78688e-07
-3.33605e-09
4.6759e-07
-2.93424e-09
4.57389e-07
-2.61913e-09
4.47936e-07
-2.3663e-09
-2.17293e-09
1.93762e-07
1.85988e-07
1.79329e-07
1.73483e-07
1.68282e-07
1.63611e-07
)
;

boundaryField
{
    inlet
    {
        type            calculated;
        value           nonuniform List<scalar> 0();
    }
    ami1
    {
        type            cyclicAMI;
        value           nonuniform List<scalar> 0();
    }
    walls
    {
        type            calculated;
        value           uniform 0;
    }
    ami2
    {
        type            cyclicAMI;
        value           nonuniform List<scalar> 0();
    }
    outlet
    {
        type            calculated;
        value           nonuniform List<scalar> 0();
    }
    procBoundary3to2
    {
        type            processor;
        value           nonuniform List<scalar> 
110
(
1.55477e-07
4.30822e-07
7.37865e-07
9.83931e-07
1.11386e-06
1.11318e-06
-5.67875e-09
9.89173e-07
7.45684e-07
4.38819e-07
1.59371e-07
4.30308e-07
8.10324e-07
1.12045e-06
1.35534e-06
1.47884e-06
1.4783e-06
-5.34936e-09
1.35413e-06
1.12251e-06
8.16157e-07
4.39117e-07
7.36508e-07
1.11943e-06
1.41463e-06
1.631e-06
1.74483e-06
1.74454e-06
-5.47533e-09
1.62598e-06
1.41359e-06
1.12315e-06
7.46489e-07
9.82387e-07
1.35408e-06
1.63045e-06
1.8282e-06
1.93163e-06
1.93156e-06
-5.98224e-09
1.81991e-06
1.62634e-06
1.35492e-06
9.90109e-07
1.11318e-06
1.4783e-06
1.74454e-06
1.93156e-06
2.02889e-06
2.02889e-06
-6.31407e-09
1.9211e-06
1.73795e-06
1.47634e-06
1.11773e-06
1.11386e-06
1.47884e-06
1.74483e-06
1.93163e-06
2.02889e-06
2.02889e-06
-6.37366e-09
1.92105e-06
1.73775e-06
1.47602e-06
1.11732e-06
9.83931e-07
1.35534e-06
1.631e-06
1.8282e-06
1.93157e-06
1.93164e-06
-6.07767e-09
1.81991e-06
1.62598e-06
1.35413e-06
9.89173e-07
7.37865e-07
1.12045e-06
1.41463e-06
1.63045e-06
1.74454e-06
1.74483e-06
-5.40149e-09
1.62634e-06
1.41359e-06
1.12251e-06
7.45684e-07
4.30822e-07
8.10324e-07
1.11943e-06
1.35408e-06
1.4783e-06
1.47884e-06
-5.01354e-09
1.35492e-06
1.12315e-06
8.16156e-07
4.38818e-07
1.55477e-07
4.30308e-07
7.36508e-07
9.82388e-07
1.11318e-06
1.11386e-06
-5.20975e-09
9.90108e-07
7.46488e-07
4.39116e-07
1.59371e-07
)
;
    }
    procBoundary3to4
    {
        type            processor;
        value           nonuniform List<scalar> 
109
(
-1.93762e-07
-5.0468e-07
-8.11769e-07
-1.02985e-06
-1.13778e-06
-1.13776e-06
-1.02982e-06
-8.11738e-07
-5.04672e-07
-1.93762e-07
-5.04672e-07
-8.65409e-07
-1.15046e-06
-1.35443e-06
-1.45804e-06
-1.45802e-06
-1.3544e-06
-1.15044e-06
-8.65409e-07
-5.0468e-07
-8.11738e-07
-1.15044e-06
-1.41091e-06
-1.593e-06
-1.68575e-06
-1.68573e-06
-1.59298e-06
-1.41091e-06
-1.15046e-06
-8.11769e-07
-1.02982e-06
-1.3544e-06
-1.59298e-06
-1.75784e-06
-1.84241e-06
-1.8424e-06
-1.75784e-06
-1.593e-06
-1.35443e-06
-1.02985e-06
-1.13776e-06
-1.45802e-06
-1.68573e-06
-1.8424e-06
-1.92284e-06
-1.92284e-06
-1.84241e-06
-1.68575e-06
-1.45804e-06
-1.13778e-06
-1.13778e-06
-1.45803e-06
-1.68575e-06
-1.84241e-06
-1.92284e-06
-1.92284e-06
9.07151e-09
-1.8424e-06
9.65465e-09
-1.68573e-06
1.01541e-08
-1.45802e-06
9.90434e-09
-1.13776e-06
7.80184e-09
-1.02985e-06
-1.35443e-06
-1.593e-06
-1.75784e-06
-1.8424e-06
1.59464e-13
-1.82639e-06
-1.74439e-06
-1.58469e-06
-1.35374e-06
-1.03721e-06
-8.11769e-07
-1.15046e-06
-1.41091e-06
-1.59298e-06
-1.68573e-06
-4.05007e-12
-1.67387e-06
-1.58471e-06
-1.4095e-06
-1.15652e-06
-8.25518e-07
-5.0468e-07
-8.65409e-07
-1.15044e-06
-1.3544e-06
-1.45802e-06
-7.31995e-12
-1.45319e-06
-1.35376e-06
-1.15653e-06
-8.77391e-07
-5.20626e-07
-1.93762e-07
-5.04672e-07
-8.11738e-07
-1.02982e-06
-1.13776e-06
-7.74123e-12
-1.14208e-06
-1.03723e-06
-8.25535e-07
-5.20629e-07
-2.03193e-07
)
;
    }
}


// ************************************************************************* //
