/*--------------------------------*- C++ -*----------------------------------*\
| =========                 |                                                 |
| \\      /  F ield         | OpenFOAM: The Open Source CFD Toolbox           |
|  \\    /   O peration     | Version:  2212                                  |
|   \\  /    A nd           | Website:  www.openfoam.com                      |
|    \\/     M anipulation  |                                                 |
\*---------------------------------------------------------------------------*/
FoamFile
{
    version     2.0;
    format      ascii;
    arch        "LSB;label=32;scalar=64";
    class       surfaceScalarField;
    location    "0.1";
    object      phi;
}
// * * * * * * * * * * * * * * * * * * * * * * * * * * * * * * * * * * * * * //

dimensions      [0 3 -1 0 0 0 0];

oriented        oriented;

internalField   nonuniform List<scalar> 
1795
(
1.96998e-07
2.17416e-09
2.17744e-09
1.94066e-07
1.46313e-09
1.46871e-09
1.92078e-07
9.89662e-10
9.98526e-10
1.90741e-07
6.60698e-10
6.75669e-10
1.89855e-07
4.29069e-10
4.5703e-10
1.8927e-07
2.69232e-10
3.16083e-10
1.54015e-10
2.30425e-10
5.1562e-07
4.6917e-09
4.36384e-09
5.10863e-07
3.30335e-09
2.91713e-09
5.07557e-07
2.36297e-09
1.93282e-09
5.05288e-07
1.66818e-09
1.26099e-09
5.03752e-07
1.15135e-09
8.14263e-10
5.02717e-07
7.68528e-10
5.35983e-10
5.03277e-10
3.68401e-10
8.1878e-07
5.18942e-09
5.92212e-09
8.14048e-07
3.69583e-09
4.33958e-09
8.10652e-07
2.63194e-09
3.12678e-09
8.08267e-07
1.86435e-09
2.18872e-09
8.06615e-07
1.31212e-09
1.49136e-09
8.05473e-07
9.13308e-10
9.96688e-10
6.46758e-10
6.72329e-10
1.02627e-06
3.12908e-09
7.36567e-09
1.02214e-06
2.22099e-09
5.61005e-09
1.01909e-06
1.57549e-09
4.10699e-09
1.01692e-06
1.12155e-09
2.90586e-09
1.01542e-06
8.01208e-10
2.01849e-09
1.01437e-06
5.85565e-10
1.37718e-09
4.59524e-10
9.34982e-10
1.12935e-06
4.63814e-12
7.73241e-09
1.12556e-06
7.76325e-12
6.0057e-09
1.1226e-06
1.28735e-11
4.51314e-09
1.12039e-06
2.11457e-11
3.3107e-09
1.11879e-06
3.44984e-11
2.36844e-09
1.11769e-06
5.57904e-11
1.63485e-09
8.9772e-11
1.092e-09
1.12936e-06
-3.12189e-09
7.73073e-09
1.12557e-06
-2.20874e-09
6.00292e-09
1.12263e-06
-1.55485e-09
4.50862e-09
1.12044e-06
-1.08735e-09
3.30337e-09
1.11886e-06
-7.45203e-10
2.35679e-09
1.11779e-06
-4.94898e-10
1.61595e-09
1.06065e-09
1.0263e-06
-5.18761e-09
7.36162e-09
1.02218e-06
-3.69246e-09
5.60374e-09
1.01915e-06
-2.62539e-09
4.09663e-09
1.01703e-06
-1.8523e-09
2.88882e-09
1.01558e-06
-1.29043e-09
1.99193e-09
-8.84921e-10
1.33639e-09
8.18799e-07
-4.69439e-09
5.91827e-09
8.14081e-07
-3.30716e-09
4.33292e-09
8.10708e-07
-2.36782e-09
3.11563e-09
8.0836e-07
-1.67474e-09
2.17029e-09
8.06769e-07
-1.1602e-09
1.46057e-09
-8.01448e-10
9.5554e-10
5.15628e-07
-2.17741e-09
4.36064e-09
5.10877e-07
-1.46851e-09
2.91201e-09
5.07584e-07
-9.97948e-10
1.92393e-09
5.05334e-07
-6.75421e-10
1.25075e-09
5.03828e-07
-4.58392e-10
8.03845e-10
-3.15603e-10
5.1142e-10
1.96999e-07
2.1734e-09
1.94068e-07
1.46199e-09
1.92082e-07
9.88002e-10
1.90748e-07
6.58896e-10
1.89861e-07
4.28774e-10
2.67742e-10
5.15626e-07
4.3614e-09
4.69503e-09
5.10872e-07
2.91363e-09
3.30878e-09
5.07572e-07
1.92643e-09
2.37182e-09
5.05315e-07
1.25024e-09
1.68262e-09
5.03798e-07
7.97289e-10
1.17672e-09
5.02799e-07
5.06396e-10
8.09027e-10
3.1456e-10
5.69213e-10
8.69863e-07
7.39026e-09
7.39447e-09
8.65547e-07
5.07e-09
5.07693e-09
8.62577e-07
3.40868e-09
3.42015e-09
8.60522e-07
2.27358e-09
2.2925e-09
8.59088e-07
1.50736e-09
1.5383e-09
8.58069e-07
1.00518e-09
1.05655e-09
6.66346e-10
7.51638e-10
1.14942e-06
7.87708e-09
9.4557e-09
1.14623e-06
5.66681e-09
6.93267e-09
1.14383e-06
3.95648e-09
4.97305e-09
1.1421e-06
2.69334e-09
3.49973e-09
1.14086e-06
1.8167e-09
2.42746e-09
1.13995e-06
1.22825e-09
1.68158e-09
8.41987e-10
1.1825e-09
1.3502e-06
5.03796e-09
1.10249e-08
1.34915e-06
3.72228e-09
8.59908e-09
1.34812e-06
2.64767e-09
6.45004e-09
1.34721e-06
1.82767e-09
4.68054e-09
1.34645e-06
1.25363e-09
3.3359e-09
1.34585e-06
8.65743e-10
2.34499e-09
6.22812e-10
1.64238e-09
1.45262e-06
4.06086e-12
1.13939e-08
1.45314e-06
6.53941e-12
9.20671e-09
1.45311e-06
1.05616e-11
7.17938e-09
1.4528e-06
1.71529e-11
5.42478e-09
1.45242e-06
2.79259e-11
3.9823e-09
1.45204e-06
4.58597e-11
2.82942e-09
7.51867e-11
1.95661e-09
1.45263e-06
-5.03248e-09
1.13912e-08
1.45315e-06
-3.71357e-09
9.20244e-09
1.45313e-06
-2.6337e-09
7.17256e-09
1.45284e-06
-1.805e-09
5.41386e-09
1.45248e-06
-1.2167e-09
3.96522e-09
1.45214e-06
-8.03439e-10
2.80146e-09
1.91016e-09
1.35022e-06
-7.87709e-09
1.10186e-08
1.34918e-06
-5.66707e-09
8.58939e-09
1.34817e-06
-3.9576e-09
6.43469e-09
1.34729e-06
-2.69657e-09
4.65584e-09
1.3466e-06
-1.82295e-09
3.29636e-09
-1.23258e-09
2.28007e-09
1.14943e-06
-7.39308e-09
9.44938e-09
1.14625e-06
-5.07478e-09
6.92239e-09
1.14387e-06
-3.41811e-09
4.95703e-09
1.14216e-06
-2.29513e-09
3.47546e-09
1.14096e-06
-1.5525e-09
2.38903e-09
-1.0646e-09
1.61297e-09
8.69864e-07
-4.36259e-09
7.38911e-09
8.65549e-07
-2.91514e-09
5.06803e-09
8.62578e-07
-1.93008e-09
3.40668e-09
8.60519e-07
-1.26126e-09
2.27601e-09
8.5907e-07
-8.20805e-10
1.52075e-09
-5.41524e-10
1.0119e-09
5.15623e-07
4.69074e-09
5.10868e-07
3.30117e-09
5.07568e-07
2.3583e-09
5.05306e-07
1.65916e-09
5.03781e-07
1.13381e-09
7.59623e-10
8.18797e-07
5.91921e-09
5.18847e-09
8.14076e-07
4.33488e-09
3.69418e-09
8.107e-07
3.11907e-09
2.62893e-09
8.08348e-07
2.17568e-09
1.85865e-09
8.06755e-07
1.469e-09
1.30146e-09
8.05715e-07
9.569e-10
8.91852e-10
6.00712e-10
6.04298e-10
1.14943e-06
9.45024e-09
7.87801e-09
1.14625e-06
6.92368e-09
5.66831e-09
1.14387e-06
4.95825e-09
3.95875e-09
1.14217e-06
3.4751e-09
2.69622e-09
1.14097e-06
2.38595e-09
1.81997e-09
1.14014e-06
1.61116e-09
1.2308e-09
1.06234e-09
8.40585e-10
1.40794e-06
9.50587e-09
9.50964e-09
1.40748e-06
7.1557e-09
7.1616e-09
1.40693e-06
5.23594e-09
5.2453e-09
1.4064e-06
3.74095e-09
3.75594e-09
1.40596e-06
2.61884e-09
2.64286e-09
1.4056e-06
1.80606e-09
1.84453e-09
1.2296e-09
1.29106e-09
1.59087e-06
5.92379e-09
1.04165e-08
1.59377e-06
4.55077e-09
8.30844e-09
1.59568e-06
3.37139e-09
6.40082e-09
1.59689e-06
2.42519e-09
4.78691e-09
1.59764e-06
1.71092e-09
3.49546e-09
1.59809e-06
1.19665e-09
2.50537e-09
8.39528e-10
1.7756e-09
1.68473e-06
1.81825e-12
1.05567e-08
1.68978e-06
2.84268e-12
8.70604e-09
1.6934e-06
4.49601e-12
6.92687e-09
1.69591e-06
7.21578e-12
5.3391e-09
1.69759e-06
1.17226e-11
3.99949e-09
1.69868e-06
1.91642e-11
2.91747e-09
3.0721e-11
2.0858e-09
1.68474e-06
-5.92258e-09
1.05544e-08
1.68979e-06
-4.549e-09
8.70248e-09
1.69342e-06
-3.3687e-09
6.9213e-09
1.69593e-06
-2.42081e-09
5.33033e-09
1.69762e-06
-1.70318e-09
3.98561e-09
1.69873e-06
-1.18218e-09
2.89532e-09
2.05059e-09
1.59088e-06
-9.509e-09
1.04116e-08
1.59378e-06
-7.16099e-09
8.3009e-09
1.5957e-06
-5.24514e-09
6.38905e-09
1.59692e-06
-3.75681e-09
4.7683e-09
1.5977e-06
-2.64453e-09
3.46558e-09
-1.84411e-09
2.45639e-09
1.40794e-06
-9.45451e-09
9.5057e-09
1.40747e-06
-6.93111e-09
7.15563e-09
1.40692e-06
-4.97158e-09
5.23639e-09
1.4064e-06
-3.49975e-09
3.74255e-09
1.40595e-06
-2.42979e-09
2.62138e-09
-1.68197e-09
1.80655e-09
1.14942e-06
-5.92086e-09
7.87647e-09
1.14623e-06
-4.33743e-09
5.66591e-09
1.14383e-06
-3.12327e-09
3.95571e-09
1.14209e-06
-2.18313e-09
2.6939e-09
1.14085e-06
-1.48237e-09
1.81915e-09
-9.93544e-10
1.22831e-09
8.18782e-07
5.18856e-09
8.14052e-07
3.69398e-09
8.10658e-07
2.62838e-09
8.08276e-07
1.85807e-09
8.06627e-07
1.30113e-09
9.05634e-10
1.02629e-06
7.36234e-09
3.12267e-09
1.02217e-06
5.60518e-09
2.21016e-09
1.01914e-06
4.0991e-09
1.55732e-09
1.01702e-06
2.89229e-09
1.09133e-09
1.01557e-06
1.99491e-09
7.50869e-10
1.01463e-06
1.33544e-09
5.00278e-10
8.60584e-10
3.14771e-10
1.35022e-06
1.10191e-08
5.03287e-09
1.34919e-06
8.59018e-09
3.71405e-09
1.34817e-06
6.43564e-09
2.6341e-09
1.3473e-06
4.65629e-09
1.80488e-09
1.34661e-06
3.29504e-09
1.21551e-09
1.34609e-06
2.27607e-09
8.01605e-10
1.5262e-09
5.14781e-10
1.59088e-06
1.04115e-08
5.92265e-09
1.59378e-06
8.30069e-09
4.54891e-09
1.59571e-06
6.38856e-09
3.36827e-09
1.59693e-06
4.76727e-09
2.41984e-09
1.5977e-06
3.46391e-09
1.70182e-09
1.59819e-06
2.45477e-09
1.18143e-09
1.69491e-09
8.14614e-10
1.75872e-06
6.25453e-09
6.25642e-09
1.76519e-06
5.06677e-09
5.0696e-09
1.77006e-06
3.95808e-09
3.96235e-09
1.77362e-06
2.99582e-09
3.00231e-09
1.77616e-06
2.20464e-09
2.21451e-09
1.77794e-06
1.57981e-09
1.59483e-09
1.10479e-09
1.1276e-09
1.84505e-06
-1.14465e-13
6.25706e-09
1.85359e-06
-1.42016e-13
5.22908e-09
1.86026e-06
-1.48473e-13
4.21538e-09
1.86531e-06
-7.8798e-14
3.29175e-09
1.86902e-06
1.70066e-13
2.49461e-09
1.87169e-06
7.21234e-13
1.82484e-09
1.53721e-12
1.3012e-09
1.84505e-06
-6.25633e-09
6.25598e-09
1.8536e-06
-5.06958e-09
5.2274e-09
1.86027e-06
-3.96245e-09
4.21277e-09
1.86531e-06
-3.00251e-09
3.28768e-09
1.86902e-06
-2.21466e-09
2.48825e-09
1.8717e-06
-1.59456e-09
1.81499e-09
1.28618e-09
1.75872e-06
-1.0416e-08
6.25499e-09
1.76519e-06
-8.30793e-09
5.0674e-09
1.77006e-06
-6.40041e-09
3.95891e-09
1.77361e-06
-4.78673e-09
2.99684e-09
1.77615e-06
-3.49542e-09
2.20566e-09
-2.50497e-09
1.58037e-09
1.59087e-06
-1.10239e-08
5.92406e-09
1.59376e-06
-8.59796e-09
4.55128e-09
1.59567e-06
-6.44873e-09
3.37225e-09
1.59688e-06
-4.67935e-09
2.42643e-09
1.59763e-06
-3.33517e-09
1.7122e-09
-2.34519e-09
1.197e-09
1.3502e-06
-7.3647e-09
5.03766e-09
1.34915e-06
-5.60866e-09
3.72203e-09
1.34811e-06
-4.10493e-09
2.64762e-09
1.3472e-06
-2.90316e-09
1.82805e-09
1.34645e-06
-2.01581e-09
1.25438e-09
-1.37732e-09
8.66205e-10
1.02627e-06
3.12819e-09
1.02214e-06
2.21948e-09
1.01909e-06
1.57335e-09
1.01693e-06
1.11882e-09
1.01541e-06
7.97778e-10
5.83615e-10
1.12936e-06
7.73101e-09
-4.37488e-12
1.12557e-06
6.00345e-09
-7.21321e-12
1.12263e-06
4.50947e-09
-1.19797e-11
1.12044e-06
3.30447e-09
-1.98944e-11
1.11886e-06
2.35812e-09
-3.29703e-11
1.1178e-06
1.61693e-09
-5.4507e-11
1.0596e-09
-8.98586e-11
1.45263e-06
1.13912e-08
-4.0963e-12
1.45315e-06
9.20262e-09
-6.60823e-12
1.45314e-06
7.17279e-09
-1.0756e-11
1.45285e-06
5.41402e-09
-1.7593e-11
1.45249e-06
3.96518e-09
-2.86144e-11
1.45215e-06
2.80117e-09
-4.6498e-11
1.90901e-09
-7.53796e-11
1.68474e-06
1.05542e-08
-2.07345e-12
1.68979e-06
8.7022e-09
-3.21729e-12
1.69342e-06
6.92095e-09
-5.04294e-12
1.69593e-06
5.32986e-09
-7.92533e-12
1.69762e-06
3.98506e-09
-1.24057e-11
1.69873e-06
2.89485e-09
-1.94018e-11
2.05033e-09
-3.01888e-11
1.84505e-06
6.25555e-09
-3.52777e-14
1.8536e-06
5.2269e-09
-4.21295e-14
1.86027e-06
4.21221e-09
-7.23466e-14
1.86531e-06
3.28711e-09
-1.33782e-13
1.86903e-06
2.4878e-09
-2.38072e-13
1.8717e-06
1.81481e-09
-4.18789e-13
1.28638e-09
-7.28732e-13
1.92743e-06
-3.92973e-13
4.37781e-13
1.93789e-06
-5.49128e-13
6.2838e-13
1.94632e-06
-7.6222e-13
8.74569e-13
1.9529e-06
-1.02657e-12
1.21023e-12
1.95788e-06
-1.34565e-12
1.6745e-12
1.96152e-06
-1.76492e-12
2.30106e-12
-2.42567e-12
3.19816e-12
1.92743e-06
-6.25684e-09
1.50581e-15
1.93789e-06
-5.22883e-09
-8.79887e-14
1.94632e-06
-4.21511e-09
-2.78654e-13
1.95289e-06
-3.29142e-09
-6.01169e-13
1.95788e-06
-2.49417e-09
-1.09613e-12
1.96152e-06
-1.82424e-09
-1.80301e-12
-2.76889e-12
1.84505e-06
-1.05563e-08
3.71076e-13
1.85359e-06
-8.70552e-09
4.93894e-13
1.86026e-06
-6.92629e-09
5.92524e-13
1.86531e-06
-5.33849e-09
6.75677e-13
1.86902e-06
-3.99888e-09
7.6565e-13
-2.91694e-09
9.16563e-13
1.68473e-06
-1.13933e-08
2.16469e-12
1.68978e-06
-9.20606e-09
3.51082e-12
1.6934e-06
-7.17862e-09
5.46837e-12
1.6959e-06
-5.42397e-09
8.4014e-12
1.69759e-06
-3.98169e-09
1.28748e-11
-2.82947e-09
1.98449e-11
1.45262e-06
-7.73182e-09
3.70164e-12
1.45314e-06
-6.00512e-09
6.47309e-12
1.45311e-06
-4.51249e-09
1.08652e-11
1.4528e-06
-3.31001e-09
1.78889e-11
1.45241e-06
-2.36794e-09
2.90114e-11
-1.63519e-09
4.69184e-11
1.12935e-06
3.70101e-12
1.12556e-06
6.11305e-12
1.12261e-06
1.11591e-11
1.12039e-06
1.97265e-11
1.11879e-06
3.32761e-11
5.50027e-11
1.12935e-06
7.73241e-09
-3.12913e-09
1.12556e-06
6.00582e-09
-2.22091e-09
1.12261e-06
4.51341e-09
-1.5753e-09
1.1204e-06
3.31109e-09
-1.12129e-09
1.11879e-06
2.36886e-09
-8.00942e-10
1.11769e-06
1.63514e-09
-5.85454e-10
1.09183e-09
-4.59829e-10
1.45262e-06
1.13938e-08
-5.03821e-09
1.45314e-06
9.2067e-09
-3.72258e-09
1.45311e-06
7.17946e-09
-2.64806e-09
1.45281e-06
5.42493e-09
-1.82816e-09
1.45242e-06
3.98248e-09
-1.25419e-09
1.45204e-06
2.82954e-09
-8.66207e-10
1.95644e-09
-6.23014e-10
1.68473e-06
1.05565e-08
-5.92415e-09
1.68978e-06
8.70582e-09
-4.55119e-09
1.6934e-06
6.92668e-09
-3.37185e-09
1.69591e-06
5.33895e-09
-2.42565e-09
1.69759e-06
3.9994e-09
-1.71129e-09
1.69868e-06
2.91749e-09
-1.19677e-09
2.0859e-09
-8.39284e-10
1.84505e-06
6.25676e-09
-6.25478e-09
1.8536e-06
5.22875e-09
-5.067e-09
1.86026e-06
4.21505e-09
-3.95827e-09
1.86531e-06
3.29147e-09
-2.99594e-09
1.86902e-06
2.49445e-09
-2.20463e-09
1.87169e-06
1.8249e-09
-1.57957e-09
1.30152e-09
-1.10426e-09
1.92743e-06
2.02539e-13
-6.25562e-09
1.93789e-06
3.39079e-13
-5.2269e-09
1.94632e-06
5.55778e-13
-4.21213e-09
1.9529e-06
9.24704e-13
-3.28695e-09
1.95788e-06
1.52624e-12
-2.48751e-09
1.96152e-06
2.39703e-12
-1.81436e-09
3.56428e-12
-1.28573e-09
1.92743e-06
-6.25562e-09
-6.25671e-09
1.93789e-06
-5.22694e-09
-5.22865e-09
1.94632e-06
-4.21222e-09
-4.21493e-09
1.95289e-06
-3.28703e-09
-3.29133e-09
1.95788e-06
-2.4875e-09
-2.49423e-09
1.96152e-06
-1.81417e-09
-1.82448e-09
-1.30079e-09
1.84505e-06
-1.05539e-08
-6.25609e-09
1.8536e-06
-8.70181e-09
-5.06926e-09
1.86027e-06
-6.92042e-09
-3.96213e-09
1.86531e-06
-5.32927e-09
-3.00229e-09
1.86902e-06
-3.98444e-09
-2.21463e-09
-2.89425e-09
-1.59477e-09
1.68474e-06
-1.13908e-08
-5.92234e-09
1.68979e-06
-9.20193e-09
-4.54846e-09
1.69342e-06
-7.1718e-09
-3.36793e-09
1.69593e-06
-5.41289e-09
-2.41982e-09
1.69762e-06
-3.96423e-09
-1.70194e-09
-2.801e-09
-1.1809e-09
1.45263e-06
-7.73071e-09
-5.03296e-09
1.45315e-06
-6.00312e-09
-3.71365e-09
1.45313e-06
-4.50886e-09
-2.63332e-09
1.45285e-06
-3.30356e-09
-1.80407e-09
1.45248e-06
-2.35723e-09
-1.21488e-09
-1.61694e-09
-8.00781e-10
1.12936e-06
-3.12415e-09
1.12557e-06
-2.21189e-09
1.12263e-06
-1.55725e-09
1.12044e-06
-1.08894e-09
1.11886e-06
-7.46904e-10
-4.97371e-10
1.02627e-06
7.36555e-09
-5.18955e-09
1.02214e-06
5.61004e-09
-3.69591e-09
1.01909e-06
4.10708e-09
-2.632e-09
1.01692e-06
2.90603e-09
-1.86442e-09
1.01542e-06
2.0187e-09
-1.31222e-09
1.01437e-06
1.37736e-09
-9.13493e-10
9.35099e-10
-6.47096e-10
1.3502e-06
1.10247e-08
-7.87736e-09
1.34915e-06
8.59901e-09
-5.66714e-09
1.34812e-06
6.45005e-09
-3.95688e-09
1.34721e-06
4.68063e-09
-2.6938e-09
1.34645e-06
3.33605e-09
-1.81718e-09
1.34585e-06
2.34519e-09
-1.2287e-09
1.64262e-09
-8.42389e-10
1.59087e-06
1.04163e-08
-9.50621e-09
1.59377e-06
8.30825e-09
-7.15606e-09
1.59568e-06
6.40068e-09
-5.2363e-09
1.59689e-06
4.78684e-09
-3.7413e-09
1.59764e-06
3.49549e-09
-2.61914e-09
1.59809e-06
2.50553e-09
-1.80629e-09
1.77594e-09
-1.22977e-09
1.75872e-06
6.25617e-09
-1.04118e-08
1.76519e-06
5.06935e-09
-8.30088e-09
1.77006e-06
3.9621e-09
-6.38868e-09
1.77362e-06
3.00208e-09
-4.76733e-09
1.77616e-06
2.21439e-09
-3.46391e-09
1.77794e-06
1.59492e-09
-2.45471e-09
1.12794e-09
-1.69481e-09
1.84505e-06
-1.92471e-13
-1.05543e-08
1.8536e-06
-2.69186e-13
-8.70216e-09
1.86027e-06
-3.91645e-13
-6.92078e-09
1.86531e-06
-5.11185e-13
-5.32962e-09
1.86903e-06
-5.4371e-13
-3.98477e-09
1.8717e-06
-4.35679e-13
-2.89453e-09
-3.50035e-13
-2.05002e-09
1.8345e-06
-7.39419e-09
-1.2278e-08
1.84505e-06
-6.25467e-09
-1.05565e-08
1.85359e-06
-5.06694e-09
-8.70569e-09
1.86026e-06
-3.95837e-09
-6.92651e-09
1.86531e-06
-2.99621e-09
-5.33883e-09
1.86902e-06
-2.20491e-09
-3.99934e-09
1.87169e-06
-1.57949e-09
-2.91737e-09
-2.08562e-09
1.7504e-06
-1.25337e-08
-1.25365e-08
1.75872e-06
-1.04112e-08
-1.04162e-08
1.76519e-06
-8.30012e-09
-8.30817e-09
1.77006e-06
-6.38799e-09
-6.40076e-09
1.77361e-06
-4.76691e-09
-4.78734e-09
1.77615e-06
-3.46368e-09
-3.49651e-09
-2.45415e-09
-2.5064e-09
1.58668e-06
-1.36094e-08
-1.21791e-08
1.59088e-06
-1.10183e-08
-9.50911e-09
1.59378e-06
-8.58869e-09
-7.16127e-09
1.5957e-06
-6.43369e-09
-5.24542e-09
1.59693e-06
-4.65443e-09
-3.75709e-09
1.5977e-06
-3.2937e-09
-2.64487e-09
-2.2758e-09
-1.84444e-09
1.35102e-06
-9.36492e-09
-1.06441e-08
1.35021e-06
-7.36274e-09
-7.87783e-09
1.34918e-06
-5.60507e-09
-5.66748e-09
1.34817e-06
-4.09762e-09
-3.95737e-09
1.3473e-06
-2.8894e-09
-2.69573e-09
1.3466e-06
-1.99181e-09
-1.82116e-09
-1.33516e-09
-1.22967e-09
1.03159e-06
-7.21591e-09
1.0263e-06
-5.19207e-09
1.02218e-06
-3.69691e-09
1.01915e-06
-2.62724e-09
1.01702e-06
-1.85127e-09
1.01557e-06
-1.28755e-09
-8.8168e-10
8.1878e-07
5.92194e-09
-4.6917e-09
8.14048e-07
4.33949e-09
-3.30339e-09
8.10652e-07
3.12679e-09
-2.36305e-09
8.08267e-07
2.18881e-09
-1.66833e-09
8.06615e-07
1.49151e-09
-1.15156e-09
8.05473e-07
9.96901e-10
-7.68788e-10
6.72636e-10
-5.03619e-10
1.14942e-06
9.45548e-09
-7.39047e-09
1.14623e-06
6.93252e-09
-5.07027e-09
1.14383e-06
4.973e-09
-3.409e-09
1.1421e-06
3.49977e-09
-2.27395e-09
1.14086e-06
2.4276e-09
-1.50776e-09
1.13995e-06
1.68187e-09
-1.00563e-09
1.18301e-09
-6.66902e-10
1.40794e-06
9.50935e-09
-9.4505e-09
1.40748e-06
7.16138e-09
-6.92393e-09
1.40693e-06
5.24515e-09
-4.95848e-09
1.4064e-06
3.75586e-09
-3.47532e-09
1.40596e-06
2.64289e-09
-2.3862e-09
1.4056e-06
1.84475e-09
-1.6115e-09
1.29156e-09
-1.06289e-09
1.59088e-06
5.92236e-09
-1.10193e-08
1.59378e-06
4.54863e-09
-8.59026e-09
1.59571e-06
3.36797e-09
-6.43559e-09
1.59693e-06
2.41953e-09
-4.6562e-09
1.5977e-06
1.7016e-09
-3.29499e-09
1.59819e-06
1.18144e-09
-2.27616e-09
8.14987e-10
-1.52658e-09
1.68474e-06
-2.20992e-12
-1.13913e-08
1.68979e-06
-3.49427e-12
-9.20237e-09
1.69342e-06
-5.52495e-12
-7.17235e-09
1.69593e-06
-8.61172e-12
-5.41349e-09
1.69762e-06
-1.31134e-11
-3.96465e-09
1.69873e-06
-1.97158e-11
-2.80083e-09
-2.97993e-11
-1.90914e-09
1.67797e-06
-7.38569e-09
-1.35543e-08
1.68473e-06
-5.924e-09
-1.13936e-08
1.68978e-06
-4.5513e-09
-9.20623e-09
1.6934e-06
-3.37234e-09
-7.17878e-09
1.6959e-06
-2.42667e-09
-5.42421e-09
1.69759e-06
-1.71269e-09
-3.98192e-09
1.69868e-06
-1.19753e-09
-2.82923e-09
-1.95701e-09
1.58668e-06
-1.2177e-08
-1.36123e-08
1.59087e-06
-9.50558e-09
-1.10246e-08
1.59376e-06
-7.15557e-09
-8.59848e-09
1.59568e-06
-5.23625e-09
-6.44898e-09
1.59688e-06
-3.7422e-09
-4.67971e-09
1.59763e-06
-2.62073e-09
-3.33664e-09
-1.80563e-09
-2.34824e-09
1.40805e-06
-1.25724e-08
-1.25749e-08
1.40794e-06
-9.44997e-09
-9.45497e-09
1.40747e-06
-6.92277e-09
-6.9317e-09
1.40692e-06
-4.95704e-09
-4.972e-09
1.4064e-06
-3.47513e-09
-3.50013e-09
1.40595e-06
-2.38813e-09
-2.43037e-09
-1.61136e-09
-1.6829e-09
1.15344e-06
-8.02609e-09
-1.05658e-08
1.14943e-06
-5.92142e-09
-7.39171e-09
1.14625e-06
-4.33546e-09
-5.07317e-09
1.14387e-06
-3.11623e-09
-3.41745e-09
1.14216e-06
-2.16931e-09
-2.29546e-09
1.14096e-06
-1.45807e-09
-1.55267e-09
-9.52232e-10
-1.06381e-09
8.2521e-07
-6.74006e-09
8.18795e-07
-4.69814e-09
8.14073e-07
-3.3107e-09
8.10699e-07
-2.36928e-09
8.08352e-07
-1.67355e-09
8.06763e-07
-1.15679e-09
-7.97215e-10
5.15621e-07
4.36359e-09
-2.17392e-09
5.10863e-07
2.91693e-09
-1.46296e-09
5.07557e-07
1.93268e-09
-9.89557e-10
5.05289e-07
1.26091e-09
-6.60687e-10
5.03752e-07
8.14239e-10
-4.29121e-10
5.02717e-07
5.36038e-10
-2.69335e-10
3.68586e-10
-1.54138e-10
8.69863e-07
7.39419e-09
-4.36153e-09
8.65547e-07
5.07667e-09
-2.91377e-09
8.62577e-07
3.41993e-09
-1.92662e-09
8.60522e-07
2.29232e-09
-1.25043e-09
8.59088e-07
1.53819e-09
-7.97483e-10
8.58068e-07
1.05661e-09
-5.06613e-10
7.51999e-10
-3.14875e-10
1.14943e-06
7.87765e-09
-5.9193e-09
1.14625e-06
5.66796e-09
-4.33497e-09
1.14387e-06
3.9584e-09
-3.11913e-09
1.14217e-06
2.6959e-09
-2.17573e-09
1.14097e-06
1.81974e-09
-1.46908e-09
1.14014e-06
1.23081e-09
-9.5708e-10
8.41e-10
-6.01117e-10
1.35022e-06
5.03252e-09
-7.36245e-09
1.34919e-06
3.7137e-09
-5.60519e-09
1.34817e-06
2.63371e-09
-4.09902e-09
1.3473e-06
1.80446e-09
-2.89216e-09
1.34661e-06
1.21513e-09
-1.9948e-09
1.34609e-06
8.0145e-10
-1.33548e-09
5.15079e-10
-8.60961e-10
1.45263e-06
-4.25425e-12
-7.73104e-09
1.45315e-06
-6.81122e-12
-6.00342e-09
1.45313e-06
-1.09933e-11
-4.50937e-09
1.45285e-06
-1.79256e-11
-3.30417e-09
1.45248e-06
-2.90598e-11
-2.3577e-09
1.45215e-06
-4.67877e-11
-1.61664e-09
-7.51308e-11
-1.05986e-09
1.45125e-06
-6.56048e-09
-9.62367e-09
1.45262e-06
-5.03815e-09
-7.73236e-09
1.45314e-06
-3.72256e-09
-6.00558e-09
1.45311e-06
-2.64784e-09
-4.51283e-09
1.4528e-06
-1.82813e-09
-3.30998e-09
1.45241e-06
-1.25495e-09
-2.36733e-09
1.45204e-06
-8.67473e-10
-1.63383e-09
-1.09252e-09
1.35101e-06
-1.06429e-08
-9.3665e-09
1.35019e-06
-7.87714e-09
-7.36588e-09
1.34915e-06
-5.66674e-09
-5.60964e-09
1.34811e-06
-3.95611e-09
-4.10502e-09
1.3472e-06
-2.69402e-09
-2.90236e-09
1.34645e-06
-1.81968e-09
-2.01503e-09
-1.22977e-09
-1.37739e-09
1.15344e-06
-1.0563e-08
-8.02683e-09
1.14942e-06
-7.38792e-09
-5.92385e-09
1.14622e-06
-5.06702e-09
-4.34016e-09
1.14383e-06
-3.40697e-09
-3.12424e-09
1.14209e-06
-2.27782e-09
-2.18259e-09
1.14085e-06
-1.52331e-09
-1.48172e-09
-1.01431e-09
-9.9401e-10
8.75922e-07
-6.50596e-09
-6.50704e-09
8.69862e-07
-4.35865e-09
-4.36072e-09
8.65545e-07
-2.91012e-09
-2.91333e-09
8.62574e-07
-1.92356e-09
-1.92973e-09
8.60516e-07
-1.2523e-09
-1.26274e-09
8.59068e-07
-8.05647e-10
-8.22697e-10
-5.12301e-10
-5.43028e-10
5.22508e-07
-3.25513e-09
5.15627e-07
-2.17617e-09
5.10875e-07
-1.46845e-09
5.0758e-07
-9.98207e-10
5.0533e-07
-6.7525e-10
5.03825e-07
-4.57398e-10
-3.13707e-10
1.96998e-07
2.17756e-09
1.94066e-07
1.46881e-09
1.92078e-07
9.98585e-10
1.90742e-07
6.757e-10
1.89856e-07
4.5704e-10
1.8927e-07
3.16105e-10
2.30488e-10
5.15626e-07
4.69495e-09
5.10872e-07
3.30869e-09
5.07573e-07
2.37169e-09
5.05316e-07
1.6825e-09
5.03799e-07
1.17664e-09
5.02799e-07
8.09039e-10
5.6936e-10
8.18797e-07
5.18835e-09
8.14076e-07
3.69397e-09
8.107e-07
2.6287e-09
8.08349e-07
1.85852e-09
8.06755e-07
1.30144e-09
8.05715e-07
8.91943e-10
6.04508e-10
1.02629e-06
3.12248e-09
1.02217e-06
2.20986e-09
1.01914e-06
1.5572e-09
1.01702e-06
1.09154e-09
1.01557e-06
7.51321e-10
1.01463e-06
5.00743e-10
3.15003e-10
1.12936e-06
-4.84703e-12
1.12557e-06
-7.59507e-12
1.12263e-06
-1.15799e-11
1.12044e-06
-1.845e-11
1.11886e-06
-3.07568e-11
1.1178e-06
-5.24133e-11
-8.91684e-11
1.13396e-06
-4.30519e-09
1.12935e-06
-3.13053e-09
1.12556e-06
-2.22155e-09
1.12261e-06
-1.57353e-09
1.1204e-06
-1.11661e-09
1.11879e-06
-7.9377e-10
1.11768e-06
-5.78523e-10
1.03158e-06
-7.21644e-09
1.02627e-06
-5.19343e-09
1.02214e-06
-3.69869e-09
1.01909e-06
-2.63012e-09
1.01693e-06
-1.85665e-09
1.01542e-06
-1.29852e-09
-9.03861e-10
8.252e-07
-6.73734e-09
8.18777e-07
-4.69473e-09
8.14044e-07
-3.30577e-09
8.10651e-07
-2.3613e-09
8.08272e-07
-1.65998e-09
8.06625e-07
-1.13345e-09
-7.59887e-10
5.22505e-07
-3.25249e-09
5.15622e-07
-2.17257e-09
5.10866e-07
-1.46308e-09
5.07565e-07
-9.89958e-10
5.05304e-07
-6.61035e-10
5.03778e-07
-4.3087e-10
-2.69794e-10
2.01354e-07
1.97005e-07
1.94073e-07
1.92085e-07
1.90749e-07
1.89861e-07
)
;

boundaryField
{
    inlet
    {
        type            calculated;
        value           nonuniform List<scalar> 0();
    }
    ami1
    {
        type            cyclicAMI;
        value           nonuniform List<scalar> 0();
    }
    walls
    {
        type            calculated;
        value           uniform 0;
    }
    ami2
    {
        type            cyclicAMI;
        value           nonuniform List<scalar> 0();
    }
    outlet
    {
        type            calculated;
        value           nonuniform List<scalar> 0();
    }
    procBoundary3to2
    {
        type            processor;
        value           nonuniform List<scalar> 
110
(
1.88886e-07
5.01999e-07
8.04658e-07
1.01362e-06
1.11696e-06
1.11714e-06
-3.16055e-10
1.01463e-06
8.0573e-07
5.02831e-07
1.89278e-07
5.02146e-07
8.57334e-07
1.13926e-06
1.34536e-06
1.45172e-06
1.45189e-06
-5.15088e-10
1.34608e-06
1.14014e-06
8.58047e-07
5.02747e-07
8.05079e-07
1.13959e-06
1.40532e-06
1.59834e-06
1.69936e-06
1.69943e-06
-8.13503e-10
1.59818e-06
1.40559e-06
1.13994e-06
8.05487e-07
1.01406e-06
1.34575e-06
1.5985e-06
1.77918e-06
1.87358e-06
1.87359e-06
-1.12665e-09
1.77794e-06
1.59808e-06
1.34584e-06
1.01436e-06
1.11715e-06
1.45189e-06
1.69943e-06
1.87359e-06
1.9641e-06
1.9641e-06
-1.30047e-09
1.87169e-06
1.69868e-06
1.45204e-06
1.11768e-06
1.11697e-06
1.45173e-06
1.69936e-06
1.87358e-06
1.9641e-06
1.9641e-06
-1.28536e-09
1.8717e-06
1.69873e-06
1.45215e-06
1.11779e-06
1.01362e-06
1.34536e-06
1.59834e-06
1.77918e-06
1.87359e-06
1.87358e-06
-1.10356e-09
1.77794e-06
1.59819e-06
1.34609e-06
1.01462e-06
8.04657e-07
1.13926e-06
1.40532e-06
1.5985e-06
1.69943e-06
1.69936e-06
-8.38159e-10
1.59808e-06
1.40559e-06
1.14014e-06
8.05726e-07
5.01999e-07
8.57333e-07
1.13959e-06
1.34575e-06
1.45189e-06
1.45172e-06
-6.22622e-10
1.34584e-06
1.13994e-06
8.58045e-07
5.02829e-07
1.88885e-07
5.02145e-07
8.05078e-07
1.01406e-06
1.11714e-06
1.11696e-06
-4.60022e-10
1.01437e-06
8.05487e-07
5.02745e-07
1.89277e-07
)
;
    }
    procBoundary3to4
    {
        type            processor;
        value           nonuniform List<scalar> 
109
(
-2.01349e-07
-5.22501e-07
-8.25199e-07
-1.03158e-06
-1.13396e-06
-1.13396e-06
-1.03159e-06
-8.2521e-07
-5.22505e-07
-2.01349e-07
-5.22504e-07
-8.75922e-07
-1.15344e-06
-1.35102e-06
-1.45125e-06
-1.45126e-06
-1.35103e-06
-1.15345e-06
-8.75923e-07
-5.22502e-07
-8.25209e-07
-1.15345e-06
-1.40805e-06
-1.58668e-06
-1.67797e-06
-1.67798e-06
-1.58668e-06
-1.40805e-06
-1.15344e-06
-8.252e-07
-1.03159e-06
-1.35103e-06
-1.58669e-06
-1.7504e-06
-1.8345e-06
-1.8345e-06
-1.7504e-06
-1.58668e-06
-1.35102e-06
-1.03158e-06
-1.13396e-06
-1.45126e-06
-1.67798e-06
-1.8345e-06
-1.91492e-06
-1.91492e-06
-1.8345e-06
-1.67797e-06
-1.45125e-06
-1.13396e-06
-1.13396e-06
-1.45125e-06
-1.67798e-06
-1.8345e-06
-1.91492e-06
-1.91492e-06
7.17853e-09
-1.8345e-06
7.39503e-09
-1.67798e-06
7.38499e-09
-1.45126e-06
6.55832e-09
-1.13396e-06
4.30015e-09
-1.03158e-06
-1.35102e-06
-1.58668e-06
-1.7504e-06
-1.8345e-06
1.39612e-13
-1.822e-06
-1.74012e-06
-1.58082e-06
-1.35118e-06
-1.03804e-06
-8.25199e-07
-1.15344e-06
-1.40805e-06
-1.58669e-06
-1.67798e-06
1.4018e-12
-1.66931e-06
-1.58081e-06
-1.40725e-06
-1.15807e-06
-8.33712e-07
-5.22502e-07
-8.75922e-07
-1.15345e-06
-1.35103e-06
-1.45125e-06
2.64662e-12
-1.44862e-06
-1.35118e-06
-1.15806e-06
-8.84038e-07
-5.32499e-07
-2.01349e-07
-5.22505e-07
-8.25209e-07
-1.03159e-06
-1.13396e-06
2.78797e-12
-1.13928e-06
-1.03803e-06
-8.33706e-07
-5.32497e-07
-2.07861e-07
)
;
    }
}


// ************************************************************************* //
