/*--------------------------------*- C++ -*----------------------------------*\
| =========                 |                                                 |
| \\      /  F ield         | OpenFOAM: The Open Source CFD Toolbox           |
|  \\    /   O peration     | Version:  2212                                  |
|   \\  /    A nd           | Website:  www.openfoam.com                      |
|    \\/     M anipulation  |                                                 |
\*---------------------------------------------------------------------------*/
FoamFile
{
    version     2.0;
    format      ascii;
    arch        "LSB;label=32;scalar=64";
    class       volScalarField;
    location    "1.6";
    object      nut;
}
// * * * * * * * * * * * * * * * * * * * * * * * * * * * * * * * * * * * * * //

dimensions      [0 2 -1 0 0 0 0];

internalField   nonuniform List<scalar> 
690
(
2.27582e-05
2.19402e-05
2.12198e-05
0.000101955
9.6526e-05
9.17625e-05
0.000169347
0.000161425
0.000154253
2.41291e-05
2.32077e-05
2.23877e-05
2.16653e-05
2.10083e-05
2.041e-05
1.98652e-05
1.93674e-05
1.89078e-05
1.84812e-05
1.80844e-05
1.77155e-05
0.000106312
0.000100922
9.57394e-05
9.1062e-05
8.67106e-05
8.30777e-05
7.9903e-05
7.70343e-05
7.35649e-05
7.00398e-05
6.68083e-05
6.38553e-05
0.000174757
0.00016692
0.000159599
0.000152787
0.000146438
0.000140551
0.000135103
0.00013006
0.000125264
0.00012067
0.000116284
0.000112125
2.33424e-05
2.23951e-05
2.15707e-05
2.08474e-05
2.02058e-05
1.9633e-05
1.9118e-05
1.86514e-05
1.82227e-05
1.78272e-05
1.74611e-05
1.71207e-05
0.000102107
9.64678e-05
9.12991e-05
8.66323e-05
8.25031e-05
7.9233e-05
7.5984e-05
7.28074e-05
6.91827e-05
6.58294e-05
6.27179e-05
5.98378e-05
0.000169213
0.000161417
0.000154105
0.000147318
0.00014105
0.000135297
0.00012995
0.000124952
0.000120166
0.000115604
0.000111269
0.000107158
0.000209895
0.000200882
0.000192518
0.000184743
0.000177511
0.000170776
0.000164484
0.000158597
0.000153083
0.000147886
0.000142956
0.00013828
0.000231895
0.000222239
0.000213336
0.000205073
0.000197373
0.000190174
0.000183429
0.000177096
0.000171141
0.000165528
0.000160227
0.000155214
0.000238886
0.000229002
0.000219918
0.000211501
0.000203659
0.000196325
0.000189445
0.000182979
0.000176892
0.000171152
0.00016573
0.000160604
0.000231891
0.000222274
0.000213371
0.000205097
0.000197382
0.00019017
0.000183414
0.000177074
0.000171115
0.0001655
0.000160199
0.000155185
0.000210174
0.000201192
0.000192851
0.000185091
0.000177862
0.000171127
0.000164841
0.00015896
0.000153438
0.000148239
0.000143328
0.00013865
0.00016961
0.000161521
0.000154334
0.000147775
0.000141721
0.000136148
0.000130978
0.000126118
0.000121484
0.000117081
0.000112886
0.000102985
9.69784e-05
9.20908e-05
8.77853e-05
8.38752e-05
8.07713e-05
7.81142e-05
7.52082e-05
7.15431e-05
6.82099e-05
6.5211e-05
2.27503e-05
2.19362e-05
2.12098e-05
2.05518e-05
1.99529e-05
1.94053e-05
1.89013e-05
1.84356e-05
1.80014e-05
1.75968e-05
1.72203e-05
2.04674e-05
1.96183e-05
1.88849e-05
1.82518e-05
1.77016e-05
1.72195e-05
1.67859e-05
1.63961e-05
1.60416e-05
1.57168e-05
1.54178e-05
1.51406e-05
8.99276e-05
8.43265e-05
7.95073e-05
7.56005e-05
7.25743e-05
6.94966e-05
6.56449e-05
6.21711e-05
5.89372e-05
5.59406e-05
5.31578e-05
5.05647e-05
0.00015221
0.000144452
0.000137443
0.000131137
0.000125448
0.000120211
0.000115212
0.000110509
0.000106065
0.000101833
9.77943e-05
9.39517e-05
0.000190274
0.000181692
0.000173715
0.000166367
0.000159596
0.000153349
0.000147552
0.000142105
0.000136973
0.00013212
0.000127515
0.000123144
0.000210212
0.000201155
0.000192808
0.000185066
0.000177863
0.000171152
0.000164886
0.000159019
0.000153506
0.000148313
0.000143404
0.000138755
0.000216278
0.000207083
0.000198618
0.000190756
0.000183423
0.000176571
0.000170155
0.000164145
0.000158504
0.000153194
0.000148174
0.000143416
0.000209967
0.000201
0.000192595
0.000184774
0.000177512
0.000170761
0.000164463
0.000158579
0.000153076
0.000147889
0.000142968
0.000138299
0.000190296
0.000181721
0.000173719
0.000166345
0.000159553
0.000153295
0.000147498
0.000142058
0.000136934
0.000132088
0.00012749
0.000123101
0.00015277
0.000144375
0.000137564
0.000131609
0.000126204
0.000121252
0.000116522
0.000111974
0.000107601
0.000103393
9.93867e-05
9.18406e-05
8.36908e-05
7.98461e-05
7.65894e-05
7.39007e-05
7.18422e-05
6.8651e-05
6.51768e-05
6.19687e-05
5.89701e-05
5.62402e-05
1.96058e-05
1.89718e-05
1.83822e-05
1.7841e-05
1.73496e-05
1.69029e-05
1.64795e-05
1.60851e-05
1.57193e-05
1.5376e-05
1.50596e-05
1.59256e-05
1.5267e-05
1.47006e-05
1.42446e-05
1.38427e-05
1.34853e-05
1.31771e-05
1.29025e-05
1.26576e-05
1.24366e-05
1.22331e-05
1.20436e-05
6.81456e-05
6.36145e-05
5.97501e-05
5.711e-05
5.36172e-05
5.04755e-05
4.75434e-05
4.4806e-05
4.22654e-05
3.98771e-05
3.77445e-05
3.55153e-05
0.000120505
0.000112872
0.000107009
0.000102227
9.77428e-05
9.34397e-05
8.93065e-05
8.53374e-05
8.14873e-05
7.77707e-05
7.42218e-05
7.07982e-05
0.000152668
0.000144412
0.000137647
0.000131715
0.000126329
0.000121376
0.000116634
0.00011207
0.000107681
0.000103462
9.94342e-05
9.56223e-05
0.000169457
0.000161484
0.000154317
0.000147775
0.000141749
0.000136206
0.000131061
0.000126219
0.000121595
0.000117199
0.000112999
0.000108994
0.000174827
0.000167084
0.000159736
0.000152877
0.000146504
0.000140618
0.000135172
0.000130139
0.000125362
0.000120794
0.000116419
0.000112267
0.00016926
0.000161551
0.000154213
0.000147396
0.000141109
0.000135345
0.000129981
0.000124997
0.00012024
0.000115693
0.000111362
0.000107253
0.000152205
0.000144395
0.000137383
0.000131109
0.000125437
0.000120209
0.000115236
0.000110558
0.000106125
0.000101896
9.78585e-05
9.4009e-05
0.000120463
0.000112901
0.000106933
0.000102142
9.76777e-05
9.34111e-05
8.93037e-05
8.53553e-05
8.15191e-05
7.78095e-05
7.42615e-05
7.12003e-05
6.33858e-05
6.03569e-05
5.85298e-05
5.562e-05
5.23822e-05
4.93832e-05
4.6602e-05
4.39146e-05
4.13759e-05
3.90688e-05
1.51759e-05
1.47382e-05
1.43211e-05
1.39474e-05
1.35803e-05
1.32354e-05
1.29217e-05
1.26298e-05
1.23629e-05
1.21191e-05
1.18982e-05
1.0341e-05
1.00037e-05
9.70608e-06
9.44116e-06
9.20273e-06
9.00771e-06
8.82324e-06
8.66493e-06
8.52133e-06
8.38362e-06
8.2608e-06
8.1561e-06
3.85502e-05
3.34386e-05
3.0915e-05
2.87335e-05
2.67814e-05
2.50594e-05
2.33148e-05
2.17796e-05
2.02063e-05
1.88243e-05
1.76349e-05
1.66334e-05
7.12029e-05
6.34789e-05
6.04554e-05
5.86349e-05
5.56724e-05
5.24102e-05
4.93903e-05
4.65909e-05
4.38844e-05
4.13528e-05
3.89692e-05
3.67456e-05
9.18519e-05
8.41108e-05
8.01872e-05
7.68514e-05
7.41617e-05
7.20323e-05
6.87697e-05
6.52852e-05
6.20637e-05
5.90666e-05
5.62523e-05
5.36778e-05
0.00010281
9.72602e-05
9.23321e-05
8.79516e-05
8.39857e-05
8.08809e-05
7.82187e-05
7.52969e-05
7.16315e-05
6.83173e-05
6.52771e-05
6.25129e-05
0.000106425
0.000101039
9.58446e-05
9.10564e-05
8.66738e-05
8.30179e-05
7.99215e-05
7.70756e-05
7.36255e-05
7.01134e-05
6.68926e-05
6.39591e-05
0.000102135
9.64421e-05
9.12572e-05
8.65829e-05
8.24404e-05
7.91865e-05
7.59605e-05
7.28094e-05
6.91977e-05
6.58551e-05
6.27517e-05
5.98817e-05
8.99097e-05
8.426e-05
7.94322e-05
7.55363e-05
7.25207e-05
6.9457e-05
6.56191e-05
6.2158e-05
5.89339e-05
5.59445e-05
5.31676e-05
5.05958e-05
6.81037e-05
6.35618e-05
5.96905e-05
5.70722e-05
5.35945e-05
5.04619e-05
4.75386e-05
4.48073e-05
4.22691e-05
3.99e-05
3.77281e-05
3.85355e-05
3.34837e-05
3.09188e-05
2.87245e-05
2.67552e-05
2.50357e-05
2.3302e-05
2.17769e-05
2.0207e-05
1.8809e-05
1.76596e-05
1.00814e-05
9.80108e-06
9.55421e-06
9.30751e-06
9.07251e-06
8.88146e-06
8.69339e-06
8.53072e-06
8.38292e-06
8.24103e-06
8.11412e-06
4.7549e-06
4.65761e-06
4.57389e-06
4.47895e-06
4.39494e-06
4.32678e-06
4.26212e-06
4.20329e-06
4.14902e-06
4.09828e-06
4.05292e-06
4.01382e-06
1.00809e-05
9.80773e-06
9.56114e-06
9.31323e-06
9.07863e-06
8.88656e-06
8.69653e-06
8.5332e-06
8.38408e-06
8.24353e-06
8.11253e-06
8.00569e-06
1.5176e-05
1.47411e-05
1.43279e-05
1.39548e-05
1.35894e-05
1.3243e-05
1.29312e-05
1.26374e-05
1.23689e-05
1.21243e-05
1.19017e-05
1.16983e-05
1.96079e-05
1.89733e-05
1.83856e-05
1.78468e-05
1.73552e-05
1.69117e-05
1.64901e-05
1.60956e-05
1.57297e-05
1.53859e-05
1.50691e-05
1.4776e-05
2.27502e-05
2.19316e-05
2.12037e-05
2.05462e-05
1.99488e-05
1.94041e-05
1.89036e-05
1.84408e-05
1.80088e-05
1.76057e-05
1.723e-05
1.68808e-05
2.41286e-05
2.3204e-05
2.23822e-05
2.16499e-05
2.09918e-05
2.03967e-05
1.98571e-05
1.93645e-05
1.89093e-05
1.84859e-05
1.80913e-05
1.77236e-05
2.33419e-05
2.23933e-05
2.15677e-05
2.08426e-05
2.02e-05
1.96273e-05
1.91135e-05
1.86482e-05
1.82209e-05
1.78266e-05
1.74615e-05
1.71219e-05
2.04674e-05
1.96178e-05
1.88836e-05
1.82493e-05
1.76984e-05
1.72156e-05
1.67826e-05
1.63933e-05
1.60393e-05
1.57151e-05
1.54168e-05
1.51399e-05
1.59244e-05
1.52622e-05
1.46949e-05
1.42397e-05
1.3839e-05
1.34822e-05
1.31751e-05
1.2901e-05
1.26565e-05
1.24364e-05
1.22303e-05
1.03394e-05
1.00016e-05
9.70343e-06
9.43868e-06
9.20039e-06
9.00564e-06
8.82162e-06
8.66406e-06
8.52127e-06
8.38196e-06
8.26364e-06
4.7538e-06
4.65586e-06
4.57271e-06
4.47796e-06
4.39405e-06
4.32621e-06
4.26177e-06
4.20305e-06
4.14905e-06
4.09776e-06
4.05346e-06
)
;

boundaryField
{
    inlet
    {
        type            calculated;
        value           nonuniform List<scalar> 0();
    }
    ami1
    {
        type            cyclicAMI;
        value           nonuniform List<scalar> 0();
    }
    walls
    {
        type            nutkWallFunction;
        blending        stepwise;
        value           uniform 0;
    }
    ami2
    {
        type            cyclicAMI;
        value           nonuniform List<scalar> 
61
(
2.43122e-05
0.000107419
0.000174044
2.58221e-05
0.000111274
0.000179337
2.51255e-05
0.000107302
0.000173728
0.00021486
0.000237125
0.000244197
0.000237121
0.00021506
0.000174181
0.000107936
2.43069e-05
2.22038e-05
9.56289e-05
0.000156686
0.000194802
0.000215077
0.000221349
0.000214891
0.000194809
0.000157295
9.67801e-05
2.09126e-05
1.74582e-05
7.47887e-05
0.000125412
0.000157248
0.000174103
0.000179371
0.000173747
0.000156676
0.000125382
7.59362e-05
1.61372e-05
1.1473e-05
4.37956e-05
7.59404e-05
9.67876e-05
0.000107851
0.000111333
0.000107314
9.56173e-05
7.47621e-05
4.37839e-05
1.06775e-05
5.40191e-06
1.06773e-05
1.61373e-05
2.09138e-05
2.43071e-05
2.5822e-05
2.51252e-05
2.2204e-05
1.74574e-05
1.1472e-05
5.401e-06
)
;
    }
    outlet
    {
        type            calculated;
        value           nonuniform List<scalar> 0();
    }
    procBoundary1to0
    {
        type            processor;
        value           nonuniform List<scalar> 
138
(
2.05943e-05
2.05943e-05
1.99783e-05
1.94186e-05
1.89064e-05
1.84354e-05
1.79988e-05
1.75936e-05
1.72173e-05
1.68686e-05
8.76685e-05
8.76685e-05
8.38432e-05
8.08142e-05
7.8085e-05
7.51311e-05
7.14751e-05
6.8162e-05
6.5129e-05
6.2365e-05
0.000210171
0.000201132
0.000147684
0.000192784
0.000147684
0.000141638
0.000136073
0.000130912
0.000126066
0.000121438
0.000117043
0.000112852
0.000108858
0.000216347
0.000207129
0.000198657
0.000190792
0.000183452
0.000176586
0.000170157
0.000164136
0.000158486
0.000153165
0.000148136
0.00014337
0.000216347
0.000207129
0.000198657
0.000190792
0.000183452
0.000176586
0.000170157
0.000164136
0.000158486
0.000153165
0.000148136
0.00014337
0.000238876
0.000229041
0.000219955
0.000211525
0.000203671
0.000196328
0.000189443
0.000182975
0.000176887
0.000171147
0.000165727
0.000160602
0.000246137
0.000236124
0.00022684
0.00021822
0.000210194
0.000202693
0.000195661
0.000189054
0.000182831
0.000176961
0.000171416
0.000166175
0.000238873
0.000229024
0.000219952
0.000211532
0.00020368
0.000196333
0.000189442
0.000182967
0.000176873
0.000171129
0.000165706
0.000160578
0.000216301
0.000207123
0.000198669
0.000190805
0.000183458
0.000176586
0.00017015
0.000164122
0.000158466
0.000153144
0.000148117
0.000143335
0.000174792
0.000167052
0.000159754
0.000152921
0.000146546
0.000140639
0.000135159
0.000130099
0.000125296
0.000120707
0.000116327
0.000106268
0.000100894
9.57832e-05
9.10527e-05
8.66937e-05
8.30611e-05
7.98841e-05
7.70206e-05
7.35462e-05
7.00193e-05
6.68163e-05
2.41349e-05
2.3217e-05
2.2399e-05
2.16676e-05
2.10077e-05
2.04088e-05
1.98647e-05
1.93675e-05
1.89085e-05
1.84821e-05
1.80852e-05
)
;
    }
    procBoundary1to2
    {
        type            processor;
        value           nonuniform List<scalar> 9(1.96089e-05 1.89684e-05 1.83851e-05 9.18049e-05 8.40788e-05 8.01802e-05 0.000152795 0.000144901 0.000137959);
    }
    procBoundary1to8
    {
        type            processor;
        value           nonuniform List<scalar> 
33
(
1.73721e-05
6.11767e-05
0.000108133
1.6803e-05
5.72795e-05
0.000103248
0.00013378
0.000150403
0.000155683
1.48852e-05
4.83037e-05
9.03164e-05
0.000118927
0.000134256
0.000138806
1.18725e-05
3.42879e-05
6.77207e-05
9.19431e-05
0.000105075
0.000108237
8.05262e-06
1.56731e-05
3.47504e-05
5.11418e-05
5.985e-05
6.12912e-05
3.97367e-06
7.90781e-06
1.15117e-05
1.45015e-05
1.65539e-05
1.73798e-05
)
;
    }
    procBoundary1to9
    {
        type            processor;
        value           nonuniform List<scalar> 
30
(
0.000150365
0.000134153
0.000108784
0.000108784
6.2356e-05
1.68697e-05
0.000133769
0.000118859
9.5502e-05
9.5502e-05
5.35246e-05
1.47627e-05
0.000103283
9.0308e-05
7.09057e-05
7.09057e-05
3.67633e-05
1.16899e-05
5.73179e-05
4.8285e-05
3.58665e-05
3.58665e-05
1.67318e-05
8.00495e-06
1.68048e-05
1.48849e-05
1.20406e-05
1.20406e-05
8.15372e-06
4.01246e-06
)
;
    }
}


// ************************************************************************* //
