/*--------------------------------*- C++ -*----------------------------------*\
| =========                 |                                                 |
| \\      /  F ield         | OpenFOAM: The Open Source CFD Toolbox           |
|  \\    /   O peration     | Version:  2212                                  |
|   \\  /    A nd           | Website:  www.openfoam.com                      |
|    \\/     M anipulation  |                                                 |
\*---------------------------------------------------------------------------*/
FoamFile
{
    version     2.0;
    format      ascii;
    arch        "LSB;label=32;scalar=64";
    class       volScalarField;
    location    "1.9";
    object      epsilon;
}
// * * * * * * * * * * * * * * * * * * * * * * * * * * * * * * * * * * * * * //

dimensions      [0 2 -3 0 0 0 0];

internalField   nonuniform List<scalar> 
680
(
0.720648
0.594564
0.50247
0.432627
0.379209
0.336192
0.29968
0.74027
0.565883
0.443896
0.355981
0.29087
0.241326
0.202863
0.649763
0.496993
0.389453
0.311255
0.252931
0.208919
0.175131
0.645375
0.492581
0.384767
0.307007
0.249022
0.204949
0.170952
0.643992
0.492262
0.383982
0.305823
0.247957
0.203973
0.170024
0.644001
0.492275
0.383998
0.305845
0.247985
0.204011
0.170075
0.645397
0.49261
0.384804
0.307059
0.249091
0.205041
0.649784
0.497021
0.389499
0.311313
0.253009
0.209024
0.740275
0.56589
0.443912
0.356005
0.290908
0.241386
0.720648
0.594564
0.50247
0.432628
0.379208
0.336195
0.740275
0.56589
0.443912
0.356005
0.290908
0.241386
0.202984
0.562044
0.41536
0.315937
0.246319
0.196203
0.159193
0.131212
0.618631
0.453959
0.342034
0.26365
0.207311
0.165901
0.134846
0.666464
0.489552
0.368603
0.283614
0.222399
0.177342
0.143544
0.692729
0.509646
0.384027
0.295517
0.231664
0.184612
0.149284
0.692726
0.509644
0.384024
0.295513
0.231659
0.184606
0.149274
0.666459
0.489548
0.368598
0.283607
0.22239
0.177328
0.618628
0.453956
0.34203
0.263645
0.207305
0.165892
0.562044
0.41536
0.315937
0.246319
0.196203
0.159193
0.74027
0.565883
0.443896
0.355981
0.290871
0.241325
0.649784
0.497021
0.389499
0.311314
0.253009
0.209025
0.175277
0.618628
0.453956
0.34203
0.263645
0.207304
0.165892
0.134832
0.725633
0.532153
0.399146
0.305541
0.238216
0.188818
0.151907
0.804589
0.594205
0.447519
0.343212
0.267636
0.211902
0.170124
0.843158
0.625693
0.472852
0.363488
0.283858
0.224911
0.180595
0.843155
0.625691
0.47285
0.363485
0.283854
0.224906
0.180587
0.804586
0.594202
0.447514
0.343207
0.267629
0.211893
0.725633
0.532153
0.399146
0.305542
0.238217
0.18882
0.618631
0.453959
0.342034
0.26365
0.207311
0.165902
0.649763
0.496993
0.389453
0.311255
0.252931
0.20892
0.645397
0.49261
0.384804
0.307059
0.249091
0.205042
0.171076
0.666459
0.489548
0.368598
0.283607
0.22239
0.177329
0.143525
0.804586
0.594202
0.447514
0.343207
0.267629
0.211893
0.170111
0.896486
0.669455
0.50812
0.391654
0.306283
0.242781
0.194884
0.938712
0.705583
0.538335
0.416593
0.326727
0.259498
0.208556
0.938711
0.705582
0.538334
0.416592
0.326726
0.259496
0.208554
0.896486
0.669455
0.508121
0.391654
0.306283
0.242782
0.804589
0.594205
0.447519
0.343213
0.267636
0.211903
0.666464
0.489552
0.368603
0.283614
0.222399
0.177342
0.645375
0.492581
0.384767
0.307007
0.249023
0.204951
0.644001
0.492275
0.383998
0.305845
0.247986
0.204011
0.170075
0.692726
0.509644
0.384024
0.295514
0.231659
0.184606
0.149276
0.843155
0.625691
0.47285
0.363485
0.283854
0.224906
0.180588
0.938711
0.705582
0.538334
0.416591
0.326726
0.259496
0.208554
0.981304
0.742923
0.570208
0.443348
0.348965
0.277885
0.223733
0.981304
0.742923
0.570208
0.443348
0.348965
0.277885
0.223733
0.938712
0.705583
0.538335
0.416593
0.326727
0.259498
0.843158
0.625693
0.472852
0.363488
0.283858
0.224911
0.692729
0.509646
0.384027
0.295516
0.231663
0.184611
0.643992
0.492262
0.383982
0.305823
0.247957
0.203974
0.643992
0.492262
0.383982
0.305823
0.247956
0.203973
0.170024
0.692729
0.509646
0.384027
0.295517
0.231664
0.184612
0.149285
0.843158
0.625693
0.472853
0.363488
0.283858
0.224912
0.180596
0.938712
0.705583
0.538335
0.416593
0.326727
0.259498
0.208556
0.981304
0.742923
0.570208
0.443348
0.348965
0.277885
0.223732
0.981304
0.742923
0.570208
0.443348
0.348965
0.277885
0.223733
0.938711
0.705582
0.538334
0.416591
0.326726
0.259496
0.843155
0.625691
0.472849
0.363484
0.283853
0.224904
0.692726
0.509644
0.384024
0.295513
0.231659
0.184604
0.644001
0.492275
0.383998
0.305845
0.247985
0.204012
0.645375
0.492581
0.384767
0.307007
0.249022
0.204949
0.170952
0.666464
0.489552
0.368603
0.283614
0.2224
0.177342
0.143545
0.804589
0.594205
0.447519
0.343213
0.267636
0.211902
0.170124
0.896486
0.669455
0.508121
0.391654
0.306283
0.242781
0.194884
0.938711
0.705582
0.538334
0.416591
0.326726
0.259496
0.208554
1.26863
0.938712
0.705583
0.538335
0.416592
0.326727
0.259498
0.208556
1.22111
0.896485
0.669454
0.50812
0.391654
0.306283
0.242782
1.11236
0.804586
0.594202
0.447514
0.343207
0.267628
0.211892
0.933537
0.66646
0.489548
0.368598
0.283607
0.22239
0.177328
0.869487
0.645397
0.49261
0.384804
0.307059
0.249091
0.205041
0.649763
0.496993
0.389453
0.311255
0.252931
0.208918
0.175131
0.618631
0.453959
0.342034
0.26365
0.207311
0.165901
0.134846
0.725633
0.532153
0.399146
0.305541
0.238216
0.188818
0.151907
0.804586
0.594202
0.447514
0.343207
0.267628
0.211892
0.17011
0.843155
0.625691
0.472849
0.363484
0.283853
0.224905
0.180587
1.15829
0.843158
0.625693
0.472852
0.363488
0.283858
0.224911
0.180596
1.11236
0.804589
0.594205
0.447519
0.343213
0.267636
0.211903
1.0141
0.725632
0.532153
0.399146
0.305541
0.238217
0.188819
0.869287
0.618628
0.453956
0.34203
0.263645
0.207305
0.165892
0.873579
0.649784
0.497021
0.389499
0.311313
0.253009
0.209024
0.74027
0.565883
0.443896
0.355981
0.29087
0.241326
0.202863
0.562044
0.41536
0.315937
0.246318
0.196203
0.159192
0.131211
0.618628
0.453956
0.34203
0.263645
0.207304
0.165891
0.134831
0.666458
0.489547
0.368598
0.283607
0.222389
0.177329
0.143525
0.692726
0.509644
0.384024
0.295513
0.231659
0.184606
0.149276
0.967837
0.692729
0.509646
0.384027
0.295517
0.231664
0.184612
0.149286
0.933542
0.666463
0.489552
0.368603
0.283614
0.222399
0.177343
0.869289
0.61863
0.453959
0.342034
0.26365
0.207311
0.165902
0.786927
0.562044
0.415359
0.315937
0.246318
0.196203
0.159193
0.998643
0.740275
0.56589
0.443912
0.356005
0.290908
0.241386
0.720648
0.594564
0.50247
0.432627
0.379209
0.336192
0.299679
0.740275
0.565891
0.443912
0.356005
0.290908
0.241386
0.202984
0.649784
0.497021
0.389499
0.311314
0.25301
0.209025
0.175277
0.645397
0.49261
0.384804
0.307059
0.249091
0.205042
0.171076
0.644001
0.492275
0.383998
0.305845
0.247986
0.204012
0.170076
0.866506
0.643991
0.492262
0.383981
0.305823
0.247957
0.203973
0.170025
0.869469
0.645375
0.492581
0.384767
0.307007
0.249022
0.20495
0.873563
0.649763
0.496993
0.389452
0.311255
0.252931
0.208919
0.998639
0.74027
0.565883
0.443896
0.355981
0.29087
0.241325
0.902003
0.720648
0.594564
0.502469
0.432627
0.379208
0.336194
)
;

boundaryField
{
    inlet
    {
        type            fixedValue;
        value           nonuniform List<scalar> 0();
    }
    ami1
    {
        type            cyclicAMI;
        value           nonuniform List<scalar> 0();
    }
    walls
    {
        type            epsilonWallFunction;
        blending        stepwise;
        value           nonuniform List<scalar> 
271
(
0.869487
0.873579
0.998643
0.902003
0.720648
0.74027
0.649763
0.645375
0.643992
0.644001
0.645397
0.649784
0.740275
0.720648
0.594564
0.565883
0.496993
0.492581
0.492262
0.492275
0.49261
0.497021
0.56589
0.594564
0.50247
0.443896
0.389453
0.384767
0.383982
0.383998
0.384804
0.389499
0.443912
0.502469
0.432628
0.355981
0.311255
0.307007
0.305823
0.305845
0.307059
0.311313
0.356005
0.432627
0.379208
0.290871
0.252931
0.249023
0.247957
0.247985
0.249091
0.253009
0.290908
0.379208
0.336195
0.241325
0.20892
0.204951
0.203974
0.204012
0.205041
0.209024
0.241386
0.336194
0.720648
0.74027
0.649763
0.645375
0.643992
0.644001
0.645397
0.649784
0.740275
0.720648
0.594564
0.565883
0.496993
0.492581
0.492262
0.492275
0.49261
0.497021
0.56589
0.594564
0.50247
0.443896
0.389453
0.384767
0.383982
0.383998
0.384804
0.389499
0.443912
0.50247
0.432627
0.355981
0.311255
0.307007
0.305823
0.305845
0.307059
0.311313
0.356005
0.432628
0.379209
0.29087
0.252931
0.249022
0.247957
0.247985
0.249091
0.253009
0.290908
0.379208
0.336192
0.241326
0.208919
0.204949
0.203973
0.204011
0.205041
0.209024
0.241386
0.336195
0.29968
0.202863
0.175131
0.170952
0.170024
0.170075
0.720648
0.740275
0.649784
0.645397
0.644001
0.643992
0.645375
0.649763
0.74027
0.720648
0.594564
0.56589
0.497021
0.49261
0.492275
0.492262
0.492581
0.496993
0.565883
0.594564
0.50247
0.443912
0.389499
0.384804
0.383998
0.383982
0.384767
0.389453
0.443896
0.50247
0.432627
0.356005
0.311314
0.307059
0.305845
0.305823
0.307007
0.311255
0.355981
0.432627
0.379209
0.290908
0.253009
0.249091
0.247986
0.247956
0.249022
0.252931
0.29087
0.379209
0.336192
0.241386
0.209025
0.205042
0.204011
0.203973
0.204949
0.208918
0.241326
0.336192
0.29968
0.202984
0.175277
0.171076
0.170075
0.170024
0.170952
0.175131
0.202863
0.299679
0.866506
0.869469
0.873563
0.998639
0.902003
0.720648
0.740275
0.649784
0.645397
0.644001
0.643991
0.645375
0.649763
0.74027
0.720648
0.594564
0.565891
0.497021
0.49261
0.492275
0.492262
0.492581
0.496993
0.565883
0.594564
0.50247
0.443912
0.389499
0.384804
0.383998
0.383981
0.384767
0.389452
0.443896
0.502469
0.432627
0.356005
0.311314
0.307059
0.305845
0.305823
0.307007
0.311255
0.355981
0.432627
0.379209
0.290908
0.25301
0.249091
0.247986
0.247957
0.249022
0.252931
0.29087
0.379208
0.336192
0.241386
0.209025
0.205042
0.204012
0.203973
0.20495
0.208919
0.241325
0.336194
0.299679
0.202984
0.175277
0.171076
0.170076
0.170025
)
;
    }
    ami2
    {
        type            cyclicAMI;
        value           nonuniform List<scalar> 0();
    }
    outlet
    {
        type            zeroGradient;
    }
    procBoundary3to2
    {
        type            processor;
        value           nonuniform List<scalar> 
110
(
0.269888
0.172912
0.148704
0.144355
0.143447
0.143515
0.171076
0.171076
0.175276
0.202981
0.299677
0.173083
0.109725
0.111145
0.117765
0.122313
0.122297
0.14352
0.14352
0.134831
0.131216
0.202863
0.148913
0.111118
0.123866
0.13833
0.146797
0.146785
0.17011
0.17011
0.151908
0.134851
0.175132
0.144524
0.117731
0.138311
0.158277
0.169484
0.169481
0.194885
0.194885
0.170125
0.143547
0.170954
0.143515
0.122297
0.146785
0.16948
0.182016
0.182016
0.208557
0.208557
0.180595
0.149283
0.170027
0.143447
0.122313
0.146796
0.169484
0.182016
0.182016
0.208554
0.208554
0.180586
0.149271
0.170077
0.144355
0.117765
0.13833
0.158278
0.169481
0.169484
0.194885
0.194885
0.17011
0.14352
0.171076
0.148703
0.111145
0.123866
0.138311
0.146785
0.146796
0.170125
0.170125
0.151908
0.134831
0.175276
0.172912
0.109724
0.111118
0.117731
0.122296
0.122313
0.143547
0.143547
0.134851
0.131215
0.202981
0.269887
0.173082
0.148913
0.144524
0.143516
0.143447
0.170954
0.170954
0.175132
0.202862
0.299676
)
;
    }
    procBoundary3to4
    {
        type            processor;
        value           nonuniform List<scalar> 
109
(
0.902003
0.998639
0.873562
0.869469
0.866506
0.866513
0.869487
0.873579
0.998643
0.902003
0.998643
0.786927
0.869289
0.933541
0.967837
0.967835
0.933538
0.869287
0.786927
0.998639
0.873579
0.869287
1.0141
1.11236
1.15829
1.15828
1.11236
1.0141
0.869289
0.873562
0.869487
0.933539
1.11236
1.22111
1.26863
1.26863
1.22111
1.11236
0.933541
0.869469
0.866513
0.967836
1.15828
1.26863
1.31522
1.31522
1.26863
1.15829
0.967837
0.866506
0.866506
0.967837
1.15829
1.26863
1.31522
1.31522
1.31522
1.26863
1.26863
1.15828
1.15828
0.967835
0.967835
0.866513
0.866513
0.869469
0.933541
1.11236
1.22111
1.26863
1.26863
1.74299
1.6928
1.57142
1.3512
1.22751
0.873563
0.869289
1.0141
1.11236
1.15828
1.15828
1.62326
1.57142
1.45499
1.26609
1.22699
0.998639
0.786927
0.869287
0.933538
0.967835
0.967835
1.39506
1.35121
1.26609
1.14759
1.40266
0.902003
0.998643
0.873579
0.869487
0.866514
0.866514
1.22669
1.22749
1.22698
1.40266
1.18306
)
;
    }
}


// ************************************************************************* //
