/*--------------------------------*- C++ -*----------------------------------*\
| =========                 |                                                 |
| \\      /  F ield         | OpenFOAM: The Open Source CFD Toolbox           |
|  \\    /   O peration     | Version:  2212                                  |
|   \\  /    A nd           | Website:  www.openfoam.com                      |
|    \\/     M anipulation  |                                                 |
\*---------------------------------------------------------------------------*/
FoamFile
{
    version     2.0;
    format      ascii;
    arch        "LSB;label=32;scalar=64";
    class       surfaceScalarField;
    location    "1.5";
    object      phi;
}
// * * * * * * * * * * * * * * * * * * * * * * * * * * * * * * * * * * * * * //

dimensions      [0 3 -1 0 0 0 0];

oriented        oriented;

internalField   nonuniform List<scalar> 
1815
(
7.05437e-08
-3.40864e-08
3.50215e-08
6.96187e-08
-3.402e-08
3.49452e-08
6.8712e-08
-3.39613e-08
3.4868e-08
6.78255e-08
-3.39154e-08
3.4802e-08
6.69624e-08
-3.38966e-08
3.47597e-08
6.61201e-08
-3.38922e-08
3.47345e-08
6.53126e-08
-3.38992e-08
3.47067e-08
6.45221e-08
-3.39027e-08
3.46932e-08
6.37492e-08
-3.39062e-08
3.46791e-08
6.29845e-08
-3.39204e-08
3.46851e-08
-3.39592e-08
3.47076e-08
2.23956e-07
-6.33132e-08
3.17213e-08
2.21477e-07
-6.33034e-08
3.17619e-08
2.19049e-07
-6.33393e-08
3.18068e-08
2.16677e-07
-6.33971e-08
3.18536e-08
2.14363e-07
-6.34551e-08
3.18721e-08
2.12098e-07
-6.35108e-08
3.18842e-08
2.09897e-07
-6.35594e-08
3.18605e-08
2.07713e-07
-6.35741e-08
3.1856e-08
2.05532e-07
-6.35641e-08
3.18388e-08
2.03342e-07
-6.35989e-08
3.18678e-08
-6.37224e-08
3.19195e-08
4.34315e-07
-8.8884e-08
2.95061e-08
4.3032e-07
-8.88606e-08
2.95517e-08
4.26282e-07
-8.88397e-08
2.9538e-08
4.22199e-07
-8.88191e-08
2.95054e-08
4.18072e-07
-8.87905e-08
2.94628e-08
4.13909e-07
-8.87676e-08
2.94191e-08
4.09736e-07
-8.87422e-08
2.93558e-08
4.05539e-07
-8.87163e-08
2.93389e-08
4.01311e-07
-8.86648e-08
2.93289e-08
3.97095e-07
-8.86575e-08
2.92751e-08
-8.87142e-08
2.90982e-08
6.25864e-07
-1.0741e-07
2.43528e-08
6.19829e-07
-1.07263e-07
2.44375e-08
6.13618e-07
-1.0713e-07
2.45011e-08
6.07258e-07
-1.06999e-07
2.45401e-08
6.00779e-07
-1.06868e-07
2.45564e-08
5.94232e-07
-1.06776e-07
2.45559e-08
5.87666e-07
-1.06704e-07
2.45278e-08
5.81112e-07
-1.06668e-07
2.45058e-08
5.74621e-07
-1.06654e-07
2.44798e-08
5.68219e-07
-1.06671e-07
2.44154e-08
-1.06718e-07
2.4294e-08
7.51628e-07
1.81791e-08
7.43968e-07
1.81883e-08
7.36191e-07
1.81725e-08
7.28353e-07
1.81364e-08
7.205e-07
1.80809e-08
7.12671e-07
1.80013e-08
7.04899e-07
1.79061e-08
6.97189e-07
1.78056e-08
6.8955e-07
1.76983e-08
6.81985e-07
1.75841e-08
1.74702e-08
2.10845e-07
-3.01651e-08
6.7704e-08
2.08346e-07
-3.01497e-08
6.75935e-08
2.05881e-07
-3.00844e-08
6.74182e-08
2.03458e-07
-3.0027e-08
6.72523e-08
2.01088e-07
-3.0012e-08
6.71408e-08
1.98775e-07
-3.0006e-08
6.70545e-08
1.96555e-07
-3.00418e-08
6.69679e-08
1.94382e-07
-3.00532e-08
6.69199e-08
1.92281e-07
-3.00912e-08
6.6871e-08
1.90231e-07
-3.00825e-08
6.68183e-08
-3.00399e-08
6.67584e-08
5.29543e-07
-5.58504e-08
5.9822e-08
5.27084e-07
-5.58677e-08
5.99392e-08
5.2457e-07
-5.58732e-08
6.01092e-08
5.21982e-07
-5.58523e-08
6.02675e-08
5.19324e-07
-5.58548e-08
6.03731e-08
5.16597e-07
-5.58447e-08
6.04491e-08
5.13827e-07
-5.58624e-08
6.04515e-08
5.10999e-07
-5.58458e-08
6.0476e-08
5.08118e-07
-5.58368e-08
6.04663e-08
5.0514e-07
-5.57575e-08
6.05204e-08
-5.56423e-08
6.05962e-08
8.20621e-07
-7.8431e-08
5.1993e-08
8.20527e-07
-7.83804e-08
5.21587e-08
8.20262e-07
-7.83423e-08
5.2272e-08
8.19832e-07
-7.82879e-08
5.23714e-08
8.1923e-07
-7.82409e-08
5.24507e-08
8.1844e-07
-7.81559e-08
5.252e-08
8.17476e-07
-7.80912e-08
5.25489e-08
8.16336e-07
-7.7983e-08
5.26159e-08
8.15081e-07
-7.79076e-08
5.26553e-08
8.13674e-07
-7.78092e-08
5.27337e-08
-7.77302e-08
5.27911e-08
1.03909e-06
-9.54345e-08
4.05421e-08
1.03967e-06
-9.52363e-08
4.07075e-08
1.04003e-06
-9.50398e-08
4.08455e-08
1.04016e-06
-9.48398e-08
4.0956e-08
1.04008e-06
-9.46457e-08
4.10404e-08
1.0398e-06
-9.445e-08
4.11334e-08
1.03932e-06
-9.42793e-08
4.11936e-08
1.03867e-06
-9.40971e-08
4.12779e-08
1.03784e-06
-9.39391e-08
4.13374e-08
1.03688e-06
-9.38088e-08
4.13771e-08
-9.37096e-08
4.13552e-08
1.17509e-06
2.73121e-08
1.17516e-06
2.73622e-08
1.17504e-06
2.73895e-08
1.17474e-06
2.73983e-08
1.17429e-06
2.73915e-08
1.1737e-06
2.73748e-08
1.17298e-06
2.73426e-08
1.17216e-06
2.73075e-08
1.17128e-06
2.72474e-08
1.17035e-06
2.71666e-08
2.7096e-08
3.93666e-07
-2.07146e-08
9.32713e-08
3.89095e-07
-2.09741e-08
9.31388e-08
3.84843e-07
-2.12879e-08
9.29583e-08
3.80833e-07
-2.15486e-08
9.28104e-08
3.76995e-07
-2.17136e-08
9.2693e-08
3.7329e-07
-2.18273e-08
9.25862e-08
3.69711e-07
-2.19613e-08
9.25085e-08
3.66225e-07
-2.20263e-08
9.2432e-08
3.62822e-07
-2.21076e-08
9.23821e-08
3.59479e-07
-2.21615e-08
9.23231e-08
-2.22135e-08
9.22523e-08
7.99542e-07
-4.13746e-08
8.1729e-08
7.98402e-07
-4.16316e-08
8.17368e-08
7.97276e-07
-4.18217e-08
8.17687e-08
7.96156e-07
-4.19672e-08
8.18063e-08
7.95013e-07
-4.2049e-08
8.18515e-08
7.93815e-07
-4.21037e-08
8.19231e-08
7.92566e-07
-4.22146e-08
8.19546e-08
7.91229e-07
-4.22431e-08
8.20291e-08
7.8984e-07
-4.23016e-08
8.20495e-08
7.88361e-07
-4.22793e-08
8.21176e-08
-4.22235e-08
8.21893e-08
1.10225e-06
-6.02056e-08
6.83711e-08
1.10467e-06
-6.0359e-08
6.84578e-08
1.10705e-06
-6.04768e-08
6.85524e-08
1.10935e-06
-6.05575e-08
6.86591e-08
1.11156e-06
-6.0591e-08
6.87867e-08
1.11371e-06
-6.06267e-08
6.8892e-08
1.11577e-06
-6.06849e-08
6.8953e-08
1.1178e-06
-6.06938e-08
6.90427e-08
1.1197e-06
-6.06814e-08
6.91295e-08
1.12151e-06
-6.06035e-08
6.92525e-08
-6.05132e-08
6.93976e-08
1.32169e-06
-7.49614e-08
5.12245e-08
1.32567e-06
-7.49597e-08
5.13273e-08
1.32955e-06
-7.49357e-08
5.14323e-08
1.3333e-06
-7.48917e-08
5.15366e-08
1.33694e-06
-7.48291e-08
5.16397e-08
1.34047e-06
-7.47569e-08
5.17337e-08
1.34385e-06
-7.46857e-08
5.18083e-08
1.34715e-06
-7.45957e-08
5.18875e-08
1.35033e-06
-7.44916e-08
5.19682e-08
1.35339e-06
-7.43649e-08
5.20694e-08
-7.4265e-08
5.21239e-08
1.45722e-06
3.16191e-08
1.46142e-06
3.16397e-08
1.4655e-06
3.16581e-08
1.46946e-06
3.16718e-08
1.47331e-06
3.16796e-08
1.47705e-06
3.16801e-08
1.48069e-06
3.1674e-08
1.48425e-06
3.1666e-08
1.48774e-06
3.16513e-08
1.49116e-06
3.16399e-08
3.16173e-08
5.75042e-07
-9.70399e-09
1.10922e-07
5.67693e-07
-1.01756e-08
1.10663e-07
5.60869e-07
-1.064e-08
1.10423e-07
5.54518e-07
-1.10693e-08
1.1023e-07
5.48575e-07
-1.1445e-08
1.10081e-07
5.42964e-07
-1.17654e-08
1.09962e-07
5.37625e-07
-1.20278e-08
1.09876e-07
5.32491e-07
-1.22427e-08
1.09809e-07
5.27521e-07
-1.24146e-08
1.09766e-07
5.22667e-07
-1.25517e-08
1.09729e-07
-1.26887e-08
1.09705e-07
1.01137e-06
-2.36274e-08
9.72812e-08
1.00998e-06
-2.40914e-08
9.70383e-08
1.00879e-06
-2.45126e-08
9.68339e-08
1.00775e-06
-2.4892e-08
9.66654e-08
1.00684e-06
-2.52172e-08
9.65341e-08
1.00604e-06
-2.54847e-08
9.64466e-08
1.00531e-06
-2.5722e-08
9.63798e-08
1.00464e-06
-2.5912e-08
9.63641e-08
1.00401e-06
-2.60883e-08
9.6355e-08
1.00341e-06
-2.62014e-08
9.63659e-08
-2.63114e-08
9.63642e-08
1.31218e-06
-3.77782e-08
7.96112e-08
1.31515e-06
-3.81135e-08
7.95074e-08
1.31817e-06
-3.84095e-08
7.94314e-08
1.32122e-06
-3.86662e-08
7.93835e-08
1.3243e-06
-3.8881e-08
7.93634e-08
1.32742e-06
-3.90687e-08
7.93579e-08
1.33054e-06
-3.92396e-08
7.93518e-08
1.33368e-06
-3.93759e-08
7.93625e-08
1.33682e-06
-3.94837e-08
7.93871e-08
1.33997e-06
-3.95359e-08
7.94426e-08
-3.9551e-08
7.95165e-08
1.5269e-06
-4.96082e-08
5.77154e-08
1.53219e-06
-4.97728e-08
5.77003e-08
1.53742e-06
-4.99119e-08
5.77023e-08
1.5426e-06
-5.00263e-08
5.77183e-08
1.54773e-06
-5.01157e-08
5.77453e-08
1.55281e-06
-5.01847e-08
5.77728e-08
1.55782e-06
-5.02397e-08
5.77967e-08
1.56278e-06
-5.02762e-08
5.78236e-08
1.5677e-06
-5.02922e-08
5.78587e-08
1.5726e-06
-5.02785e-08
5.79123e-08
-5.02648e-08
5.79567e-08
1.65904e-06
3.29345e-08
1.66528e-06
3.291e-08
1.67142e-06
3.28931e-08
1.67746e-06
3.28822e-08
1.68341e-06
3.28754e-08
1.68927e-06
3.28702e-08
1.69506e-06
3.28652e-08
1.70077e-06
3.28615e-08
1.70642e-06
3.28595e-08
1.71203e-06
3.28646e-08
3.2863e-08
7.18411e-07
1.27854e-09
1.19394e-07
7.09188e-07
8.42022e-10
1.19044e-07
7.00444e-07
4.23303e-10
1.18744e-07
6.92145e-07
2.66097e-11
1.18503e-07
6.84257e-07
-3.44595e-10
1.18314e-07
6.7674e-07
-6.89552e-10
1.18169e-07
6.69552e-07
-1.00081e-09
1.18064e-07
6.6264e-07
-1.27409e-09
1.17995e-07
6.55962e-07
-1.50776e-09
1.17953e-07
6.4947e-07
-1.70706e-09
1.17928e-07
-1.89494e-09
1.17922e-07
1.15604e-06
-4.92677e-09
1.05416e-07
1.15425e-06
-5.34757e-09
1.05022e-07
1.15259e-06
-5.74603e-09
1.04663e-07
1.15107e-06
-6.12771e-09
1.04339e-07
1.14969e-06
-6.48834e-09
1.04053e-07
1.14846e-06
-6.82059e-09
1.03815e-07
1.14735e-06
-7.12713e-09
1.03613e-07
1.14637e-06
-7.39941e-09
1.03466e-07
1.14551e-06
-7.64164e-09
1.03353e-07
1.14475e-06
-7.84555e-09
1.03267e-07
-8.05677e-09
1.03194e-07
1.44905e-06
-1.35425e-08
8.50821e-08
1.4522e-06
-1.38641e-08
8.48746e-08
1.45537e-06
-1.41687e-08
8.46852e-08
1.45856e-06
-1.4454e-08
8.45124e-08
1.4618e-06
-1.47154e-08
8.43581e-08
1.46506e-06
-1.49451e-08
8.42215e-08
1.46833e-06
-1.51517e-08
8.41003e-08
1.47163e-06
-1.53339e-08
8.39965e-08
1.47496e-06
-1.54967e-08
8.39117e-08
1.47833e-06
-1.56254e-08
8.38512e-08
-1.57485e-08
8.38065e-08
1.65698e-06
-2.17843e-08
5.99563e-08
1.66289e-06
-2.19702e-08
5.98918e-08
1.66873e-06
-2.21439e-08
5.98374e-08
1.67451e-06
-2.23036e-08
5.97922e-08
1.68023e-06
-2.24475e-08
5.97553e-08
1.68591e-06
-2.25733e-08
5.97214e-08
1.69155e-06
-2.26822e-08
5.96895e-08
1.69715e-06
-2.27744e-08
5.96607e-08
1.70272e-06
-2.28507e-08
5.96378e-08
1.70829e-06
-2.29063e-08
5.96248e-08
-2.29595e-08
5.96142e-08
1.78487e-06
-2.80819e-08
3.18023e-08
1.79217e-06
-2.81389e-08
3.1783e-08
1.79934e-06
-2.81915e-08
3.17685e-08
1.8064e-06
-2.82392e-08
3.17584e-08
1.81336e-06
-2.82814e-08
3.17517e-08
1.82022e-06
-2.83176e-08
3.17472e-08
1.82701e-06
-2.83478e-08
3.17438e-08
1.83373e-06
-2.83722e-08
3.17413e-08
1.84039e-06
-2.83907e-08
3.17397e-08
1.84701e-06
-2.84023e-08
3.17406e-08
-2.84125e-08
3.17398e-08
1.82803e-06
2.06518e-09
1.8357e-06
2.02671e-09
1.84324e-06
1.99049e-09
1.85065e-06
1.95681e-09
1.85795e-06
1.92592e-09
1.86515e-06
1.89792e-09
1.87225e-06
1.87281e-09
1.87929e-06
1.85071e-09
1.88626e-06
1.83172e-09
1.89318e-06
1.81692e-09
1.80204e-09
7.83558e-07
1.05779e-08
1.1808e-07
7.74444e-07
1.03742e-08
1.17784e-07
7.65514e-07
1.01529e-08
1.17521e-07
7.56806e-07
9.91714e-09
1.17294e-07
7.48339e-07
9.68378e-09
1.17097e-07
7.40099e-07
9.45531e-09
1.16953e-07
7.32079e-07
9.23659e-09
1.16848e-07
7.24265e-07
9.03166e-09
1.16778e-07
7.16639e-07
8.8463e-09
1.16732e-07
7.09173e-07
8.68112e-09
1.16714e-07
8.51148e-09
1.16745e-07
1.21486e-06
1.21863e-08
1.04815e-07
1.21379e-06
1.20016e-08
1.04466e-07
1.21267e-06
1.18062e-08
1.04127e-07
1.21153e-06
1.15964e-08
1.03804e-07
1.21038e-06
1.13858e-08
1.03503e-07
1.20923e-06
1.11817e-08
1.03238e-07
1.20809e-06
1.09876e-08
1.03002e-07
1.20698e-06
1.08074e-08
1.02795e-07
1.20592e-06
1.06372e-08
1.02623e-07
1.20491e-06
1.04788e-08
1.02478e-07
1.02939e-08
1.02356e-07
1.50025e-06
9.90586e-09
8.3588e-08
1.50394e-06
9.74914e-09
8.34336e-08
1.50756e-06
9.59092e-09
8.32827e-08
1.51111e-06
9.43211e-09
8.31253e-08
1.51461e-06
9.27676e-09
8.29688e-08
1.51807e-06
9.13138e-09
8.28146e-08
1.52149e-06
8.99682e-09
8.26675e-08
1.52489e-06
8.87419e-09
8.25272e-08
1.52828e-06
8.76068e-09
8.23969e-08
1.53168e-06
8.66285e-09
8.22732e-08
8.55246e-09
8.21548e-08
1.70291e-06
6.1542e-09
5.72826e-08
1.70921e-06
6.04759e-09
5.72894e-08
1.71541e-06
5.94506e-09
5.72884e-08
1.7215e-06
5.84717e-09
5.72807e-08
1.72751e-06
5.75519e-09
5.72667e-08
1.73345e-06
5.67028e-09
5.72469e-08
1.73932e-06
5.59299e-09
5.72237e-08
1.74513e-06
5.5241e-09
5.71967e-08
1.7509e-06
5.4637e-09
5.71656e-08
1.75665e-06
5.41525e-09
5.71281e-08
5.36364e-09
5.70904e-08
1.82804e-06
2.06085e-09
2.80834e-08
1.8357e-06
2.02294e-09
2.81415e-08
1.84323e-06
1.98758e-09
2.81955e-08
1.85064e-06
1.95505e-09
2.82446e-08
1.85793e-06
1.92568e-09
2.82884e-08
1.86512e-06
1.89958e-09
2.83261e-08
1.87223e-06
1.87668e-09
2.8358e-08
1.87925e-06
1.85702e-09
2.83839e-08
1.88621e-06
1.84059e-09
2.84035e-08
1.89312e-06
1.82808e-09
2.8416e-08
1.81507e-09
2.84263e-08
1.87054e-06
-2.05983e-09
1.87864e-06
-2.02054e-09
1.88659e-06
-1.98364e-09
1.8944e-06
-1.94942e-09
1.90209e-06
-1.91813e-09
1.90968e-06
-1.88995e-09
1.91716e-06
-1.86487e-09
1.92456e-06
-1.84306e-09
1.93188e-06
-1.82461e-09
1.93915e-06
-1.81043e-09
-1.79619e-09
7.517e-07
1.81714e-08
1.07401e-07
7.44048e-07
1.81794e-08
1.07256e-07
7.36282e-07
1.81622e-08
1.07125e-07
7.28458e-07
1.81243e-08
1.06994e-07
7.20622e-07
1.80663e-08
1.06866e-07
7.12815e-07
1.79843e-08
1.06776e-07
7.05069e-07
1.7887e-08
1.06707e-07
6.9739e-07
1.77847e-08
1.06672e-07
6.89787e-07
1.76754e-08
1.06659e-07
6.82258e-07
1.75576e-08
1.06686e-07
1.74385e-08
1.06753e-07
1.17511e-06
2.73049e-08
9.54193e-08
1.17518e-06
2.73536e-08
9.52249e-08
1.17506e-06
2.73796e-08
9.50307e-08
1.17477e-06
2.7387e-08
9.48339e-08
1.17431e-06
2.7379e-08
9.46417e-08
1.17373e-06
2.73609e-08
9.44494e-08
1.17301e-06
2.73274e-08
9.42806e-08
1.17219e-06
2.72916e-08
9.4103e-08
1.17131e-06
2.72314e-08
9.39498e-08
1.17038e-06
2.71522e-08
9.38155e-08
2.70831e-08
9.36999e-08
1.45721e-06
3.16132e-08
7.49564e-08
1.46141e-06
3.16333e-08
7.49564e-08
1.46549e-06
3.16513e-08
7.49345e-08
1.46944e-06
3.16648e-08
7.48934e-08
1.47328e-06
3.16728e-08
7.4833e-08
1.47702e-06
3.16736e-08
7.47632e-08
1.48065e-06
3.1668e-08
7.46948e-08
1.4842e-06
3.16611e-08
7.4608e-08
1.48768e-06
3.1648e-08
7.45075e-08
1.49109e-06
3.16389e-08
7.43786e-08
3.16182e-08
7.42708e-08
1.65902e-06
3.2929e-08
4.96098e-08
1.66526e-06
3.29048e-08
4.97753e-08
1.6714e-06
3.28883e-08
4.99159e-08
1.67744e-06
3.2878e-08
5.00322e-08
1.68338e-06
3.28724e-08
5.01236e-08
1.68924e-06
3.2869e-08
5.01946e-08
1.69501e-06
3.2866e-08
5.02519e-08
1.70071e-06
3.28646e-08
5.02908e-08
1.70635e-06
3.28654e-08
5.0309e-08
1.71195e-06
3.28733e-08
5.02961e-08
3.28746e-08
5.02809e-08
1.78486e-06
3.17974e-08
2.17858e-08
1.79215e-06
3.17784e-08
2.19729e-08
1.79932e-06
3.17645e-08
2.21481e-08
1.80638e-06
3.17552e-08
2.23097e-08
1.81333e-06
3.175e-08
2.24557e-08
1.8202e-06
3.17474e-08
2.25837e-08
1.82698e-06
3.17462e-08
2.2695e-08
1.83369e-06
3.1746e-08
2.27898e-08
1.84035e-06
3.1747e-08
2.28685e-08
1.84696e-06
3.17504e-08
2.29261e-08
3.1752e-08
2.29804e-08
1.82803e-06
-6.15493e-09
1.8357e-06
-6.0466e-09
1.84323e-06
-5.94208e-09
1.85064e-06
-5.84202e-09
1.85793e-06
-5.74769e-09
1.86513e-06
-5.66018e-09
1.87223e-06
-5.58007e-09
1.87926e-06
-5.5082e-09
1.88622e-06
-5.44471e-09
1.89314e-06
-5.39337e-09
-5.33901e-09
6.25901e-07
2.43497e-08
8.88761e-08
6.1987e-07
2.44328e-08
8.88547e-08
6.13664e-07
2.44951e-08
8.88351e-08
6.07311e-07
2.45323e-08
8.88146e-08
6.00843e-07
2.45477e-08
8.87865e-08
5.94311e-07
2.45457e-08
8.87633e-08
5.87762e-07
2.45148e-08
8.87413e-08
5.81229e-07
2.44934e-08
8.87106e-08
5.74766e-07
2.44614e-08
8.86613e-08
5.684e-07
2.43868e-08
8.86646e-08
5.62152e-07
2.42696e-08
8.87314e-08
2.41323e-08
8.87878e-08
1.03911e-06
4.05425e-08
7.8415e-08
1.03969e-06
4.07052e-08
7.83673e-08
1.04005e-06
4.08408e-08
7.83314e-08
1.04019e-06
4.0948e-08
7.82802e-08
1.04011e-06
4.10323e-08
7.82337e-08
1.03983e-06
4.11225e-08
7.81528e-08
1.03936e-06
4.11819e-08
7.80831e-08
1.03871e-06
4.12623e-08
7.79864e-08
1.03789e-06
4.13158e-08
7.79177e-08
1.03692e-06
4.13595e-08
7.78121e-08
1.03581e-06
4.13686e-08
7.77088e-08
7.76518e-08
1.32167e-06
5.12232e-08
6.01995e-08
1.32566e-06
5.13241e-08
6.0355e-08
1.32953e-06
5.14274e-08
6.04741e-08
1.33328e-06
5.15297e-08
6.05581e-08
1.33692e-06
5.16322e-08
6.05936e-08
1.34045e-06
5.17256e-08
6.063e-08
1.34384e-06
5.17995e-08
6.06908e-08
1.34713e-06
5.18777e-08
6.07026e-08
1.3503e-06
5.19565e-08
6.06964e-08
1.35336e-06
5.20615e-08
6.06172e-08
5.21257e-08
6.0524e-08
1.52685e-06
5.77099e-08
3.77792e-08
1.53214e-06
5.76945e-08
3.81146e-08
1.53738e-06
5.7696e-08
3.84114e-08
1.54256e-06
5.77114e-08
3.867e-08
1.54769e-06
5.77383e-08
3.88867e-08
1.55277e-06
5.77662e-08
3.90761e-08
1.55778e-06
5.77906e-08
3.9249e-08
1.56274e-06
5.78179e-08
3.93877e-08
1.56765e-06
5.78536e-08
3.94984e-08
1.57255e-06
5.79092e-08
3.95519e-08
5.79577e-08
3.95652e-08
1.65692e-06
5.99498e-08
1.35423e-08
1.66284e-06
5.98855e-08
1.38641e-08
1.66868e-06
5.98313e-08
1.41695e-08
1.67446e-06
5.97863e-08
1.44563e-08
1.68018e-06
5.97496e-08
1.47198e-08
1.68587e-06
5.97165e-08
1.49516e-08
1.69151e-06
5.96855e-08
1.51605e-08
1.69711e-06
5.96578e-08
1.53451e-08
1.70269e-06
5.96359e-08
1.55103e-08
1.70826e-06
5.96243e-08
1.5642e-08
5.96155e-08
1.57667e-08
1.70287e-06
-9.90985e-09
1.70917e-06
-9.75188e-09
1.71537e-06
-9.59214e-09
1.72147e-06
-9.43156e-09
1.72749e-06
-9.27431e-09
1.73343e-06
-9.1267e-09
1.73931e-06
-8.98956e-09
1.74513e-06
-8.86403e-09
1.75091e-06
-8.74726e-09
1.75666e-06
-8.64568e-09
-8.53161e-09
4.34317e-07
2.9509e-08
6.33009e-08
4.30325e-07
2.95511e-08
6.32952e-08
4.26291e-07
2.95344e-08
6.33345e-08
4.22213e-07
2.95008e-08
6.33918e-08
4.18092e-07
2.94578e-08
6.34503e-08
4.13937e-07
2.94135e-08
6.35047e-08
4.09773e-07
2.93525e-08
6.35527e-08
4.05584e-07
2.93303e-08
6.35697e-08
4.0137e-07
2.93114e-08
6.35633e-08
3.97182e-07
2.92583e-08
6.3594e-08
3.93105e-07
2.90884e-08
6.37205e-08
2.8886e-08
6.38609e-08
8.20628e-07
5.19971e-08
5.5839e-08
8.20531e-07
5.21591e-08
5.5857e-08
8.20263e-07
5.22699e-08
5.58632e-08
8.19832e-07
5.23658e-08
5.58468e-08
8.19232e-07
5.24439e-08
5.58472e-08
8.18447e-07
5.25095e-08
5.58416e-08
8.17486e-07
5.25432e-08
5.5854e-08
8.16359e-07
5.25977e-08
5.58459e-08
8.15117e-07
5.26271e-08
5.58438e-08
8.13705e-07
5.27141e-08
5.57683e-08
8.12081e-07
5.27901e-08
5.56317e-08
5.55337e-08
1.1022e-06
6.83702e-08
4.13699e-08
1.10463e-06
6.84544e-08
4.16274e-08
1.10701e-06
6.85472e-08
4.18181e-08
1.10932e-06
6.86506e-08
4.19677e-08
1.11153e-06
6.87765e-08
4.20504e-08
1.11368e-06
6.88813e-08
4.2104e-08
1.11576e-06
6.89406e-08
4.22193e-08
1.11778e-06
6.90278e-08
4.22471e-08
1.11969e-06
6.91092e-08
4.2307e-08
1.12149e-06
6.92355e-08
4.22943e-08
6.93859e-08
4.22379e-08
1.31208e-06
7.96049e-08
2.36234e-08
1.31506e-06
7.95007e-08
2.40868e-08
1.31809e-06
7.9424e-08
2.45084e-08
1.32114e-06
7.93747e-08
2.48898e-08
1.32423e-06
7.93532e-08
2.5217e-08
1.32736e-06
7.9347e-08
2.54866e-08
1.33048e-06
7.93399e-08
2.57258e-08
1.33363e-06
7.93495e-08
2.59178e-08
1.33677e-06
7.93725e-08
2.60959e-08
1.33992e-06
7.94283e-08
2.62125e-08
7.95055e-08
2.63132e-08
1.44895e-06
8.50741e-08
4.92171e-09
1.4521e-06
8.48671e-08
5.34198e-09
1.45528e-06
8.46777e-08
5.74077e-09
1.45848e-06
8.45046e-08
6.12355e-09
1.46172e-06
8.43496e-08
6.48587e-09
1.46498e-06
8.42126e-08
6.82003e-09
1.46827e-06
8.40912e-08
7.1287e-09
1.47157e-06
8.39869e-08
7.40315e-09
1.4749e-06
8.39015e-08
7.64782e-09
1.47828e-06
8.38407e-08
7.85498e-09
8.37967e-08
8.06821e-09
1.50018e-06
-1.21942e-08
1.50388e-06
-1.20088e-08
1.5075e-06
-1.18124e-08
1.51105e-06
-1.16015e-08
1.51456e-06
-1.13895e-08
1.51802e-06
-1.11836e-08
1.52145e-06
-1.09875e-08
1.52486e-06
-1.08045e-08
1.52826e-06
-1.06312e-08
1.53166e-06
-1.04689e-08
-1.02792e-08
2.23962e-07
3.1719e-08
3.40807e-08
2.21483e-07
3.17588e-08
3.4016e-08
2.19056e-07
3.1803e-08
3.39584e-08
2.16687e-07
3.18476e-08
3.39129e-08
2.14376e-07
3.18684e-08
3.38933e-08
2.12112e-07
3.18794e-08
3.38889e-08
2.09912e-07
3.18577e-08
3.38954e-08
2.07732e-07
3.18494e-08
3.39e-08
2.05561e-07
3.18299e-08
3.39049e-08
2.03381e-07
3.18558e-08
3.39182e-08
2.01231e-07
3.19174e-08
3.39524e-08
3.19466e-08
3.39958e-08
5.29562e-07
5.98144e-08
3.0163e-08
5.27098e-07
5.99316e-08
3.01483e-08
5.24579e-07
6.01018e-08
3.00833e-08
5.21989e-07
6.02564e-08
3.00276e-08
5.1933e-07
6.03645e-08
3.00101e-08
5.16607e-07
6.04393e-08
3.00049e-08
5.1384e-07
6.04405e-08
3.00382e-08
5.11017e-07
6.04647e-08
3.00538e-08
5.08145e-07
6.04538e-08
3.00921e-08
5.05191e-07
6.04928e-08
3.00855e-08
5.02128e-07
6.05778e-08
3.0034e-08
2.99958e-08
7.9951e-07
8.17253e-08
2.0706e-08
7.98371e-07
8.17323e-08
2.09663e-08
7.97246e-07
8.17628e-08
2.12819e-08
7.96127e-07
8.17971e-08
2.15462e-08
7.94987e-07
8.18411e-08
2.17134e-08
7.93793e-07
8.19122e-08
2.18257e-08
7.9255e-07
8.19409e-08
2.19618e-08
7.9122e-07
8.20134e-08
2.20276e-08
7.89836e-07
8.20362e-08
2.21091e-08
7.88358e-07
8.20982e-08
2.21667e-08
8.21775e-08
2.22233e-08
1.01128e-06
9.72804e-08
9.68819e-09
1.00991e-06
9.70365e-08
1.01611e-08
1.00872e-06
9.68306e-08
1.06273e-08
1.00769e-06
9.66597e-08
1.10589e-08
1.00678e-06
9.65261e-08
1.14376e-08
1.00598e-06
9.64366e-08
1.17612e-08
1.00526e-06
9.63671e-08
1.20259e-08
1.00459e-06
9.63491e-08
1.22436e-08
1.00397e-06
9.63389e-08
1.24197e-08
1.00337e-06
9.63479e-08
1.256e-08
9.63505e-08
1.26944e-08
1.15596e-06
1.05414e-07
-1.28913e-09
1.15417e-06
1.0502e-07
-8.52577e-10
1.15252e-06
1.04659e-07
-4.33122e-10
1.151e-06
1.04334e-07
-3.51255e-11
1.14963e-06
1.04045e-07
3.37816e-10
1.1484e-06
1.03805e-07
6.84859e-10
1.14729e-06
1.03601e-07
9.98413e-10
1.14632e-06
1.03451e-07
1.2745e-09
1.14546e-06
1.03337e-07
1.51152e-09
1.14469e-06
1.0325e-07
1.71482e-09
1.03178e-07
1.90758e-09
1.21481e-06
-1.05838e-08
1.21374e-06
-1.03801e-08
1.21262e-06
-1.01587e-08
1.21148e-06
-9.92272e-09
1.21033e-06
-9.68863e-09
1.20918e-06
-9.45943e-09
1.20805e-06
-9.23888e-09
1.20694e-06
-9.03227e-09
1.20589e-06
-8.84444e-09
1.20488e-06
-8.67552e-09
-8.50074e-09
7.05508e-08
3.50182e-08
6.9624e-08
3.49429e-08
6.87166e-08
3.48659e-08
6.78308e-08
3.47987e-08
6.69679e-08
3.47561e-08
6.61259e-08
3.47309e-08
6.53181e-08
3.47033e-08
6.4529e-08
3.46891e-08
6.37589e-08
3.4675e-08
6.29973e-08
3.46797e-08
6.22481e-08
3.47015e-08
3.4718e-08
2.1087e-07
6.77067e-08
2.08367e-07
6.75945e-08
2.059e-07
6.74168e-08
2.03477e-07
6.72492e-08
2.01108e-07
6.71356e-08
1.98793e-07
6.70505e-08
1.96572e-07
6.69623e-08
1.94401e-07
6.69144e-08
1.92303e-07
6.68646e-08
1.9026e-07
6.68087e-08
1.88258e-07
6.67371e-08
3.93741e-07
9.32844e-08
3.89153e-07
9.31487e-08
3.84888e-07
9.29644e-08
3.8087e-07
9.28128e-08
3.77027e-07
9.26925e-08
3.7332e-07
9.25829e-08
3.6974e-07
9.25039e-08
3.66257e-07
9.24255e-08
3.62859e-07
9.23717e-08
3.59523e-07
9.23114e-08
9.22379e-08
5.75155e-07
1.10942e-07
5.67787e-07
1.10678e-07
5.60945e-07
1.10433e-07
5.54582e-07
1.10235e-07
5.4863e-07
1.10082e-07
5.43015e-07
1.09959e-07
5.37676e-07
1.09869e-07
5.32546e-07
1.098e-07
5.27585e-07
1.09753e-07
5.22744e-07
1.09712e-07
1.09682e-07
7.18483e-07
1.19409e-07
7.09253e-07
1.19055e-07
7.00503e-07
1.18751e-07
6.92198e-07
1.18505e-07
6.84307e-07
1.18311e-07
6.76787e-07
1.18163e-07
6.69601e-07
1.18054e-07
6.62694e-07
1.17981e-07
6.56023e-07
1.17935e-07
6.49543e-07
1.17907e-07
1.17899e-07
7.83558e-07
7.74447e-07
7.65519e-07
7.56811e-07
7.48343e-07
7.40103e-07
7.32082e-07
7.24268e-07
7.16645e-07
7.09183e-07
)
;

boundaryField
{
    inlet
    {
        type            calculated;
        value           nonuniform List<scalar> 0();
    }
    ami1
    {
        type            cyclicAMI;
        value           nonuniform List<scalar> 0();
    }
    walls
    {
        type            calculated;
        value           nonuniform List<scalar> 
248
(
2.90979e-14
2.43942e-14
1.84387e-14
1.28555e-14
6.40674e-15
2.90979e-14
2.43942e-14
1.84387e-14
1.28555e-14
6.40674e-15
2.90979e-14
2.43942e-14
1.84387e-14
1.28555e-14
6.40674e-15
2.90979e-14
2.43942e-14
1.84387e-14
1.28555e-14
6.40674e-15
2.90979e-14
2.43942e-14
1.84387e-14
1.28555e-14
6.40674e-15
2.90979e-14
2.43942e-14
1.84387e-14
1.28555e-14
6.40674e-15
2.90979e-14
2.43942e-14
1.84387e-14
1.28555e-14
6.40674e-15
2.90979e-14
2.43942e-14
1.84387e-14
1.28555e-14
6.40674e-15
2.90979e-14
2.43942e-14
1.84387e-14
1.28555e-14
6.40674e-15
2.90979e-14
2.43942e-14
1.84387e-14
1.28555e-14
6.40674e-15
2.90979e-14
2.43942e-14
1.84387e-14
1.28555e-14
6.40674e-15
-2.90979e-14
-2.43942e-14
-1.84387e-14
-1.28555e-14
-6.40674e-15
1.03155e-21
-2.90979e-14
-2.43942e-14
-1.84387e-14
-1.28555e-14
-6.40674e-15
1.03155e-21
-2.90979e-14
-2.43942e-14
-1.84387e-14
-1.28555e-14
-6.40674e-15
1.03155e-21
-2.90979e-14
-2.43942e-14
-1.84387e-14
-1.28555e-14
-6.40674e-15
7.67113e-22
-2.90979e-14
-2.43942e-14
-1.84387e-14
-1.28555e-14
-6.40674e-15
1.03104e-21
-2.90979e-14
-2.43942e-14
-1.84387e-14
-1.28555e-14
-6.40674e-15
1.03155e-21
-2.90979e-14
-2.43942e-14
-1.84387e-14
-1.28555e-14
-6.40674e-15
1.03155e-21
-2.90979e-14
-2.43942e-14
-1.84387e-14
-1.28555e-14
-6.40674e-15
1.03155e-21
-2.90979e-14
-2.43942e-14
-1.84387e-14
-1.28555e-14
-6.40674e-15
1.03155e-21
-2.90979e-14
-2.43942e-14
-1.84387e-14
-1.28555e-14
-6.40674e-15
1.03155e-21
-2.90979e-14
-2.43942e-14
-1.84387e-14
-1.28555e-14
-6.40674e-15
7.67113e-22
-2.90979e-14
-2.43942e-14
-2.90979e-14
-2.43942e-14
-1.84387e-14
-1.28555e-14
-6.40674e-15
1.03155e-21
6.40674e-15
1.28555e-14
1.84387e-14
2.43942e-14
2.90979e-14
-2.90979e-14
-2.43942e-14
-1.84387e-14
-1.28555e-14
-6.40674e-15
1.03155e-21
6.40674e-15
1.28555e-14
1.84387e-14
2.43942e-14
2.90979e-14
-2.90979e-14
-2.43942e-14
-1.84387e-14
-1.28555e-14
-6.40674e-15
1.03155e-21
6.40674e-15
1.28555e-14
1.84387e-14
2.43942e-14
2.90979e-14
-2.90979e-14
-2.43942e-14
-1.84387e-14
-1.28555e-14
-6.40674e-15
7.67113e-22
6.40674e-15
1.28555e-14
1.84387e-14
2.43942e-14
2.90979e-14
-2.90979e-14
-2.43942e-14
-1.84387e-14
-1.28555e-14
-6.40674e-15
1.03104e-21
6.40674e-15
1.28555e-14
1.84387e-14
2.43942e-14
2.90979e-14
-2.90979e-14
-2.43942e-14
-1.84387e-14
-1.28555e-14
-6.40674e-15
1.03155e-21
6.40674e-15
1.28555e-14
1.84387e-14
2.43942e-14
2.90979e-14
-2.90979e-14
-2.43942e-14
-1.84387e-14
-1.28555e-14
-6.40674e-15
1.03155e-21
6.40674e-15
1.28555e-14
1.84387e-14
2.43942e-14
2.90979e-14
-2.90979e-14
-2.43942e-14
-1.84387e-14
-1.28555e-14
-6.40674e-15
1.03155e-21
6.40674e-15
1.28555e-14
1.84387e-14
2.43942e-14
2.90979e-14
-2.90979e-14
-2.43942e-14
-1.84387e-14
-1.28555e-14
-6.40674e-15
1.03155e-21
6.40674e-15
1.28555e-14
1.84387e-14
2.43942e-14
2.90979e-14
-2.90979e-14
-2.43942e-14
-1.84387e-14
-1.28555e-14
-6.40674e-15
1.03155e-21
6.40674e-15
1.28555e-14
1.84387e-14
2.43942e-14
2.90979e-14
-2.90979e-14
-2.43942e-14
-1.84387e-14
-1.28555e-14
-6.40674e-15
7.67113e-22
6.40674e-15
1.28555e-14
1.84387e-14
2.43942e-14
2.90979e-14
1.28555e-14
1.84387e-14
2.43942e-14
2.90979e-14
)
;
    }
    ami2
    {
        type            cyclicAMI;
        value           nonuniform List<scalar> 0();
    }
    outlet
    {
        type            calculated;
        value           nonuniform List<scalar> 0();
    }
    procBoundary8to0
    {
        type            processor;
        value           nonuniform List<scalar> 
29
(
-7.14786e-08
-2.2645e-07
-4.3825e-07
-6.3169e-07
-7.59127e-07
-2.13362e-07
-5.31958e-07
-8.20528e-07
-1.03827e-06
-1.17484e-06
-3.98518e-07
-8.00789e-07
-1.09979e-06
-1.31762e-06
-1.4529e-06
-5.82988e-07
-1.01299e-06
-1.30926e-06
-1.52156e-06
-1.65268e-06
-7.28161e-07
-1.15797e-06
-1.4459e-06
-1.65098e-06
-1.77744e-06
-1.82022e-06
-1.69648e-06
-1.82022e-06
-1.86229e-06
)
;
    }
    procBoundary8to1
    {
        type            processor;
        value           nonuniform List<scalar> 
33
(
-7.92821e-07
-1.21587e-06
-1.49647e-06
-7.59192e-07
-1.17485e-06
-1.45289e-06
-1.65266e-06
-1.77743e-06
-1.82021e-06
-6.31726e-07
-1.0383e-06
-1.3176e-06
-1.52151e-06
-1.65092e-06
-1.69644e-06
-4.3825e-07
-8.2054e-07
-1.09974e-06
-1.30916e-06
-1.4458e-06
-1.4964e-06
-2.26461e-07
-5.31981e-07
-8.00757e-07
-1.0129e-06
-1.15788e-06
-1.21582e-06
-7.14883e-08
-2.13396e-07
-3.98613e-07
-5.83124e-07
-7.28239e-07
-7.92818e-07
)
;
    }
    procBoundary8to7
    {
        type            processor;
        value           nonuniform List<scalar> 
68
(
6.22361e-08
2.01186e-07
3.92988e-07
5.61929e-07
6.74512e-07
1.8822e-07
5.02066e-07
8.12069e-07
1.0358e-06
1.16936e-06
3.56198e-07
7.86778e-07
1.12319e-06
1.35638e-06
1.49451e-06
5.17903e-07
1.00286e-06
1.34309e-06
1.57748e-06
1.7176e-06
6.43148e-07
1.14408e-06
1.48174e-06
1.71385e-06
1.85359e-06
1.90006e-06
7.01838e-07
1.20397e-06
1.53507e-06
1.76236e-06
1.89998e-06
1.94636e-06
6.74812e-07
-1.06804e-07
1.16939e-06
-9.36085e-08
1.49443e-06
1.7175e-06
1.85353e-06
1.90001e-06
5.56036e-07
1.03459e-06
4.131e-08
1.35635e-06
1.57743e-06
1.71381e-06
1.76238e-06
3.89146e-07
8.10282e-07
5.28029e-08
1.12318e-06
1.34305e-06
1.48169e-06
1.53506e-06
1.9915e-07
4.98983e-07
6.06294e-08
7.86773e-07
1.00282e-06
1.14403e-06
1.20394e-06
6.15259e-08
1.86305e-07
6.66672e-08
3.56246e-07
5.17994e-07
6.43234e-07
7.01857e-07
)
;
    }
    procBoundary8to9
    {
        type            processor;
        value           nonuniform List<scalar> 
132
(
-1.18091e-07
-1.17792e-07
-1.17525e-07
-1.17297e-07
-1.17097e-07
-1.16948e-07
-1.16838e-07
-1.16764e-07
-1.16713e-07
-1.16689e-07
-1.16716e-07
-1.04827e-07
-1.04476e-07
-1.04134e-07
-1.03809e-07
-1.03503e-07
-1.03234e-07
-1.02994e-07
-1.02782e-07
-1.02606e-07
-1.0246e-07
-1.02343e-07
-8.35918e-08
-8.34364e-08
-8.32837e-08
-8.31238e-08
-8.29645e-08
-8.28073e-08
-8.26573e-08
-8.25143e-08
-8.23823e-08
-8.22591e-08
-8.21422e-08
-5.72816e-08
-5.72876e-08
-5.72855e-08
-5.72762e-08
-5.72602e-08
-5.72385e-08
-5.72134e-08
-5.71849e-08
-5.7153e-08
-5.71154e-08
-5.70784e-08
-6.16014e-09
-6.05309e-09
-5.94973e-09
-5.8506e-09
-5.75695e-09
-5.66992e-09
-5.59009e-09
-5.51834e-09
-5.45493e-09
-5.40405e-09
-5.35012e-09
-3.18015e-08
-3.17817e-08
-3.17668e-08
-3.17559e-08
-3.17486e-08
-3.17435e-08
-3.17399e-08
-3.17376e-08
-3.17367e-08
-3.17387e-08
-3.17389e-08
-2.06406e-09
-2.02521e-09
-1.98852e-09
-1.95425e-09
-1.9227e-09
-1.89403e-09
-1.86834e-09
-1.84582e-09
-1.82666e-09
-1.81178e-09
-1.79682e-09
2.80791e-08
2.81366e-08
2.81903e-08
2.82397e-08
2.8284e-08
2.83228e-08
2.83559e-08
2.8383e-08
2.84039e-08
2.84174e-08
2.84287e-08
5.72781e-08
5.7284e-08
5.72826e-08
5.72746e-08
5.72605e-08
5.72413e-08
5.72188e-08
5.71923e-08
5.71611e-08
5.71234e-08
5.70859e-08
8.35826e-08
8.34277e-08
8.32761e-08
8.31179e-08
8.29604e-08
8.28065e-08
8.26592e-08
8.25187e-08
8.23868e-08
8.22623e-08
8.21433e-08
1.04812e-07
1.04463e-07
1.04122e-07