/*--------------------------------*- C++ -*----------------------------------*\
| =========                 |                                                 |
| \\      /  F ield         | OpenFOAM: The Open Source CFD Toolbox           |
|  \\    /   O peration     | Version:  2212                                  |
|   \\  /    A nd           | Website:  www.openfoam.com                      |
|    \\/     M anipulation  |                                                 |
\*---------------------------------------------------------------------------*/
FoamFile
{
    version     2.0;
    format      ascii;
    arch        "LSB;label=32;scalar=64";
    class       volVectorField;
    location    "1.5";
    object      U;
}
// * * * * * * * * * * * * * * * * * * * * * * * * * * * * * * * * * * * * * //

dimensions      [0 1 -1 0 0 0 0];

internalField   nonuniform List<vector> 
690
(
(0.028103 -2.97251e-05 3.79191e-05)
(0.02774 -2.35506e-05 4.21223e-05)
(0.0273717 -1.50625e-05 4.53538e-05)
(0.0270208 -8.39707e-06 4.80776e-05)
(0.0266711 -3.46256e-06 4.88148e-05)
(0.0263355 -8.41778e-07 4.89241e-05)
(0.0260085 1.56785e-06 4.79922e-05)
(0.0256928 2.77696e-06 4.78124e-05)
(0.0253855 4.16463e-06 4.72484e-05)
(0.0250783 4.32332e-06 4.64454e-05)
(0.0247811 3.46195e-06 4.5247e-05)
(0.046225 -0.000243058 0.000123636)
(0.0457247 -0.000248653 0.000133712)
(0.0452089 -0.000250681 0.000142434)
(0.0447255 -0.000249942 0.00014804)
(0.0442379 -0.000246558 0.00014937)
(0.0437729 -0.000241937 0.000148735)
(0.0433134 -0.000234791 0.000147778)
(0.0428644 -0.000229696 0.000149838)
(0.0424192 -0.000224704 0.000153576)
(0.0419652 -0.000218844 0.000156243)
(0.0415254 -0.000207827 0.000155783)
(0.0634122 -0.000824019 0.000217228)
(0.0628541 -0.000827138 0.000213958)
(0.0622556 -0.000821782 0.000206336)
(0.0616783 -0.000812026 0.000197607)
(0.0610694 -0.000801817 0.000191446)
(0.0604759 -0.000788459 0.000186898)
(0.0598648 -0.000772835 0.000185053)
(0.059256 -0.000756925 0.000187201)
(0.0586486 -0.00074609 0.000194998)
(0.0580234 -0.000717098 0.000191912)
(0.0574272 -0.000652865 0.000172082)
(0.0747067 -0.00116853 2.30463e-05)
(0.0740018 -0.00117472 3.64514e-05)
(0.0732731 -0.00117529 5.09971e-05)
(0.0725263 -0.00117048 6.68871e-05)
(0.0717624 -0.00116178 8.36448e-05)
(0.0709854 -0.00114772 9.84529e-05)
(0.0702104 -0.00113079 0.00011202)
(0.0694212 -0.00111123 0.00012184)
(0.0686561 -0.00109293 0.000130158)
(0.0678782 -0.00107307 0.000136058)
(0.0671319 -0.00104864 0.000140543)
(0.0805079 -0.0014745 -3.56096e-05)
(0.079699 -0.00146608 -8.26797e-07)
(0.0788755 -0.00145308 3.08293e-05)
(0.078042 -0.00143619 6.15184e-05)
(0.0772044 -0.00141621 9.06716e-05)
(0.0763679 -0.00139326 0.000110096)
(0.0755363 -0.00136872 0.000124447)
(0.0747103 -0.00134426 0.000133778)
(0.0738947 -0.00132124 0.000139509)
(0.0730833 -0.00130013 0.00014066)
(0.0722794 -0.00127921 0.000135421)
(0.0435344 -5.82604e-05 0.000146614)
(0.0430359 -5.32339e-05 0.000128319)
(0.0425115 -4.65262e-05 0.000117031)
(0.0420165 -3.75341e-05 0.000107276)
(0.0415166 -3.00619e-05 9.92475e-05)
(0.0410418 -2.40373e-05 9.3146e-05)
(0.0405747 -1.77017e-05 8.52281e-05)
(0.0401244 -1.47812e-05 8.12463e-05)
(0.039689 -1.16222e-05 7.62104e-05)
(0.0392551 -1.09247e-05 7.36132e-05)
(0.0388465 -1.20534e-05 7.38302e-05)
(0.0753945 -6.4035e-05 0.000144986)
(0.0750665 -8.23077e-05 0.000143863)
(0.0746973 -0.000103353 0.000153132)
(0.0743516 -0.000125559 0.0001668)
(0.073962 -0.000139826 0.000173508)
(0.073594 -0.000150674 0.000178845)
(0.0731954 -0.000153239 0.000176742)
(0.0727966 -0.000154172 0.000175229)
(0.0724009 -0.0001521 0.000171763)
(0.0719721 -0.000160498 0.000180519)
(0.0715555 -0.000175368 0.000197928)
(0.0922385 -0.000656371 0.000267635)
(0.0922294 -0.00068634 0.000262242)
(0.092217 -0.000703466 0.000251223)
(0.0921705 -0.00071555 0.000242417)
(0.0921179 -0.000719946 0.000233128)
(0.0920375 -0.000725859 0.0002308)
(0.0919422 -0.000725889 0.000227681)
(0.0918178 -0.000733664 0.000235128)
(0.0916852 -0.00073292 0.000238721)
(0.0915372 -0.000737299 0.000251092)
(0.0913684 -0.000738406 0.000264679)
(0.100638 -0.00113641 -2.47733e-05)
(0.100702 -0.00115799 -1.11091e-05)
(0.10075 -0.00117415 5.57984e-06)
(0.100771 -0.00118429 2.55043e-05)
(0.100776 -0.00118866 4.65845e-05)
(0.100757 -0.00119453 7.05637e-05)
(0.100719 -0.00119412 9.10936e-05)
(0.100667 -0.00120097 0.000114939)
(0.10059 -0.00120325 0.00013677)
(0.100506 -0.00119642 0.000154607)
(0.100405 -0.00118122 0.000167587)
(0.104755 -0.00154895 -0.000156987)
(0.104769 -0.00154945 -0.000114947)
(0.104766 -0.00154588 -7.2716e-05)
(0.104747 -0.00153925 -3.14712e-05)
(0.104713 -0.00153007 7.27905e-06)
(0.104667 -0.00151907 4.32275e-05)
(0.104607 -0.00150536 7.59361e-05)
(0.10454 -0.00149138 0.000106232)
(0.104461 -0.00147285 0.000131904)
(0.104381 -0.00144968 0.000153967)
(0.104296 -0.00143161 0.000171574)
(0.0575615 -0.000179173 0.000756126)
(0.0568909 -0.0001766 0.000685045)
(0.0562339 -0.000163834 0.000584044)
(0.0556528 -0.000156142 0.000502535)
(0.055066 -0.000153645 0.000454313)
(0.0545352 -0.000150563 0.0004245)
(0.0539981 -0.000146797 0.000401189)
(0.0534841 -0.000143926 0.000383603)
(0.0529932 -0.000141489 0.000369887)
(0.0524886 -0.000136747 0.000356126)
(0.0520218 -0.000128767 0.000341455)
(0.0899331 -5.60725e-05 0.000734478)
(0.0897944 -9.05431e-05 0.000694309)
(0.0896759 -0.000126314 0.00067034)
(0.089544 -0.000156737 0.000649842)
(0.0894236 -0.000182236 0.000633991)
(0.0892895 -0.00020435 0.000624475)
(0.0891542 -0.000214703 0.000602854)
(0.0890065 -0.000230789 0.000597788)
(0.0888521 -0.000237671 0.000580455)
(0.0886956 -0.000250267 0.000576203)
(0.088522 -0.00026387 0.000576564)
(0.103589 -0.000490662 0.000784516)
(0.103813 -0.000524879 0.000746527)
(0.104046 -0.000557046 0.000713964)
(0.104261 -0.000587896 0.000688811)
(0.104479 -0.000618849 0.000674373)
(0.104677 -0.000641082 0.000658232)
(0.104879 -0.000654775 0.00063818)
(0.105072 -0.000671377 0.0006281)
(0.105254 -0.000688027 0.000623973)
(0.105433 -0.00070756 0.000629596)
(0.105595 -0.000725865 0.000640848)
(0.110361 -0.000946044 0.000388057)
(0.110698 -0.000972019 0.000375176)
(0.111027 -0.000995578 0.000366806)
(0.111345 -0.00101654 0.000362531)
(0.111655 -0.00103519 0.000362142)
(0.111954 -0.00105159 0.000364553)
(0.112243 -0.00106459 0.000367328)
(0.112524 -0.00107645 0.000373113)
(0.112792 -0.00108749 0.000381301)
(0.113056 -0.00110129 0.000396036)
(0.113305 -0.00110452 0.000406892)
(0.113739 -0.00136394 0.000102301)
(0.114072 -0.00136893 0.000115648)
(0.114396 -0.00137204 0.000131109)
(0.11471 -0.00137323 0.000148106)
(0.115015 -0.00137264 0.000166151)
(0.115311 -0.00137062 0.000184482)
(0.1156 -0.00136746 0.000202441)
(0.115881 -0.0013638 0.000220957)
(0.116156 -0.0013588 0.000239472)
(0.116426 -0.00135391 0.000258349)
(0.11669 -0.00134651 0.000276199)
(0.0687693 -8.50903e-05 0.0012892)
(0.0678624 -8.49632e-05 0.00120542)
(0.0670214 -8.69417e-05 0.00112066)
(0.0662441 -8.92354e-05 0.00104092)
(0.0655143 -8.86271e-05 0.000970741)
(0.0648309 -8.51602e-05 0.000910609)
(0.0641822 -8.41163e-05 0.000862031)
(0.0635596 -8.29045e-05 0.000820852)
(0.0629645 -8.36519e-05 0.000788834)
(0.0623762 -8.29149e-05 0.000761047)
(0.0618156 -8.0693e-05 0.000738752)
(0.0980574 6.32389e-05 0.00135823)
(0.0979094 6.49235e-05 0.0012838)
(0.0977889 6.42222e-05 0.00121532)
(0.0976787 6.06643e-05 0.00115256)
(0.0975889 5.41665e-05 0.00109759)
(0.0975032 4.34723e-05 0.00105172)
(0.0974306 3.0707e-05 0.00101128)
(0.0973639 1.57583e-05 0.000979568)
(0.097299 2.97115e-06 0.000949887)
(0.0972431 -1.0672e-05 0.000928728)
(0.0971829 -2.17682e-05 0.000901442)
(0.109611 -0.000185262 0.00129645)
(0.109856 -0.000193855 0.00123845)
(0.110108 -0.000205268 0.00118607)
(0.110361 -0.000219361 0.0011396)
(0.110619 -0.000236074 0.00110003)
(0.110877 -0.00025423 0.00106548)
(0.111138 -0.000270332 0.00103395)
(0.111401 -0.000286483 0.00100767)
(0.111663 -0.000301766 0.000985441)
(0.111927 -0.000319503 0.000972641)
(0.112188 -0.000339708 0.00096779)
(0.11535 -0.000526744 0.00080325)
(0.115752 -0.000536555 0.000768244)
(0.11615 -0.000547792 0.00073787)
(0.116544 -0.000559949 0.000712125)
(0.116934 -0.000572647 0.000691038)
(0.11732 -0.000584859 0.000673529)
(0.117702 -0.000595628 0.000658444)
(0.118079 -0.000606241 0.000646844)
(0.118453 -0.000616892 0.000638829)
(0.118825 -0.000629022 0.000636506)
(0.119193 -0.000639044 0.000635294)
(0.118242 -0.00085493 0.000370272)
(0.118692 -0.000854557 0.000361295)
(0.119134 -0.000854729 0.000354635)
(0.119568 -0.000855167 0.000350116)
(0.119996 -0.000855604 0.000347691)
(0.120418 -0.00085571 0.000347057)
(0.120833 -0.000855336 0.000347575)
(0.121244 -0.000854779 0.000349476)
(0.121649 -0.000853918 0.000352876)
(0.122052 -0.000853684 0.000358397)
(0.12245 -0.000852248 0.000363843)
(0.0770688 -0.000106626 0.00162038)
(0.0760583 -6.63431e-05 0.00154567)
(0.0751021 -3.33263e-05 0.00147248)
(0.0741958 -9.02438e-06 0.00140334)
(0.0733338 6.46201e-06 0.00133983)
(0.0725137 1.56441e-05 0.00128244)
(0.0717316 2.00066e-05 0.00123144)
(0.0709813 2.13505e-05 0.00118655)
(0.0702589 2.03012e-05 0.0011486)
(0.0695575 1.84981e-05 0.00111674)
(0.0688781 1.52315e-05 0.00109096)
(0.103146 -4.20256e-05 0.00176196)
(0.10298 2.32343e-06 0.00169631)
(0.102826 4.04133e-05 0.00163474)
(0.102684 7.25132e-05 0.00157512)
(0.102555 9.88333e-05 0.00151763)
(0.102439 0.000117744 0.00146277)
(0.102334 0.000132881 0.00141194)
(0.102242 0.000139127 0.00136692)
(0.10216 0.000141309 0.00132721)
(0.102088 0.000141068 0.00129214)
(0.102024 0.000139727 0.00125406)
(0.113144 -0.000108035 0.00163089)
(0.11339 -8.75819e-05 0.0015783)
(0.113636 -7.04241e-05 0.00152806)
(0.113885 -5.64712e-05 0.00148075)
(0.114136 -4.56794e-05 0.00143714)
(0.11439 -3.75666e-05 0.0013987)
(0.114646 -3.1097e-05 0.00136349)
(0.114903 -2.70959e-05 0.00133204)
(0.115162 -2.56096e-05 0.00130344)
(0.115424 -2.75352e-05 0.00128088)
(0.115688 -3.1384e-05 0.00125909)
(0.118107 -0.000244199 0.00106838)
(0.118532 -0.000238993 0.00103371)
(0.118951 -0.000235939 0.00100119)
(0.119366 -0.000234727 0.000971136)
(0.119776 -0.000234955 0.000943909)
(0.120183 -0.000235105 0.000920001)
(0.120587 -0.000234966 0.000899069)
(0.120988 -0.000235101 0.000881058)
(0.121387 -0.000236182 0.000865749)
(0.121785 -0.00023909 0.000854079)
(0.122182 -0.000242133 0.000842987)
(0.120625 -0.000401278 0.00053047)
(0.121124 -0.000397493 0.000515958)
(0.121614 -0.000394771 0.000502683)
(0.122095 -0.000392948 0.000490726)
(0.12257 -0.000391836 0.000480216)
(0.123038 -0.000391143 0.000471221)
(0.1235 -0.000390661 0.000463667)
(0.123957 -0.000390407 0.000457564)
(0.12441 -0.000390439 0.000452907)
(0.12486 -0.000391102 0.000449982)
(0.125306 -0.000391494 0.000447364)
(0.121398 -0.000524872 4.25075e-05)
(0.121913 -0.000515232 4.15716e-05)
(0.122419 -0.000506127 4.06139e-05)
(0.122916 -0.000497642 3.96627e-05)
(0.123405 -0.00048985 3.87669e-05)
(0.123887 -0.000482785 3.79752e-05)
(0.124363 -0.000476454 3.73147e-05)
(0.124833 -0.000470898 3.6805e-05)
(0.125299 -0.000466157 3.6441e-05)
(0.125761 -0.000462499 3.62414e-05)
(0.12622 -0.000458856 3.61279e-05)
(0.081149 -0.000138371 0.00165963)
(0.0802017 -8.30738e-05 0.0016185)
(0.0792719 -3.56409e-05 0.00157412)
(0.0783635 2.76075e-06 0.00152849)
(0.0774791 3.38159e-05 0.00148417)
(0.0766191 5.80591e-05 0.0014418)
(0.0757825 7.5738e-05 0.00140195)
(0.0749677 8.67648e-05 0.00136541)
(0.0741737 9.30517e-05 0.00133332)
(0.0733974 9.56194e-05 0.00130577)
(0.072638 9.281e-05 0.00128202)
(0.105483 -0.000180232 0.00179455)
(0.105392 -0.000122566 0.00176251)
(0.105297 -6.82971e-05 0.00172862)
(0.105198 -1.83501e-05 0.00169171)
(0.105098 2.66275e-05 0.00165473)
(0.104998 6.61759e-05 0.00161842)
(0.104899 9.98858e-05 0.00158356)
(0.104801 0.000127817 0.00155076)
(0.104707 0.000150608 0.00151968)
(0.104616 0.000168888 0.00148983)
(0.104531 0.000183641 0.00145477)
(0.114571 -6.41459e-05 0.00163276)
(0.114857 -3.68272e-05 0.00160651)
(0.115136 -1.06837e-05 0.00157961)
(0.11541 1.44242e-05 0.00155226)
(0.115679 3.81979e-05 0.00152526)
(0.115945 6.11667e-05 0.00149989)
(0.116208 8.25297e-05 0.00147637)
(0.116468 0.000101998 0.001455)
(0.116728 0.000119038 0.00143522)
(0.116987 0.000133581 0.00141829)
(0.117246 0.000146009 0.00139899)
(0.119079 2.24826e-05 0.00106962)
(0.119525 2.89759e-05 0.00105096)
(0.119963 3.52283e-05 0.00103274)
(0.120393 4.11825e-05 0.00101505)
(0.120817 4.68047e-05 0.000998164)
(0.121235 5.2135e-05 0.000982361)
(0.121649 5.71931e-05 0.000967789)
(0.122058 6.19948e-05 0.000954589)
(0.122463 6.64759e-05 0.000942695)
(0.122867 7.06148e-05 0.000932704)
(0.123267 7.43488e-05 0.000922045)
(0.121398 4.23466e-05 0.000524302)
(0.121913 4.13225e-05 0.000514762)
(0.122418 4.02603e-05 0.000505807)
(0.122915 3.9185e-05 0.000497517)
(0.123404 3.81542e-05 0.000489979)
(0.123886 3.72326e-05 0.000483228)
(0.124361 3.64681e-05 0.00047726)
(0.124831 3.58957e-05 0.000472105)
(0.125296 3.55288e-05 0.00046778)
(0.125758 3.53728e-05 0.00046449)
(0.126215 3.53227e-05 0.000461157)
(0.122125 -3.69936e-07 -1.77976e-07)
(0.12266 -4.08616e-07 -1.02126e-07)
(0.123184 -4.36845e-07 -3.74823e-09)
(0.1237 -4.56356e-07 1.20133e-07)
(0.124207 -4.66955e-07 2.71485e-07)
(0.124707 -4.6413e-07 4.47082e-07)
(0.125199 -4.46368e-07 6.36924e-07)
(0.125686 -4.11398e-07 8.29951e-07)
(0.126167 -3.58597e-07 1.01467e-06)
(0.126645 -2.92911e-07 1.17984e-06)
(0.127118 -2.20128e-07 1.31448e-06)
(0.0805151 -3.39754e-05 0.00147303)
(0.079707 4.00126e-07 0.00146445)
(0.0788845 3.1751e-05 0.00145121)
(0.0780524 6.22259e-05 0.001434)
(0.0772164 9.09123e-05 0.00141359)
(0.0763819 0.000109788 0.00139023)
(0.0755528 0.000123646 0.00136534)
(0.0747299 0.000132497 0.00134048)
(0.0739179 0.00013764 0.00131708)
(0.0731104 0.000137767 0.00129538)
(0.07231 0.000130979 0.00127354)
(0.104756 -0.000155062 0.00154751)
(0.10477 -0.000113329 0.0015479)
(0.104768 -7.14305e-05 0.00154423)
(0.104749 -3.05883e-05 0.00153744)
(0.104715 7.70795e-06 0.00152812)
(0.104669 4.3102e-05 0.00151696)
(0.10461 7.52875e-05 0.00150309)
(0.104542 0.000104943 0.0014891)
(0.104464 0.000130107 0.00147058)
(0.104383 0.000152212 0.00144743)
(0.104299 0.000170432 0.0014291)
(0.113739 0.000102907 0.00136295)
(0.114072 0.000116078 0.00136783)
(0.114395 0.000131269 0.00137084)
(0.114709 0.000147904 0.00137195)
(0.115013 0.000165585 0.00137131)
(0.115309 0.000183541 0.00136924)
(0.115597 0.000201106 0.00136607)
(0.115878 0.000219226 0.00136246)
(0.116151 0.000237445 0.0013576)
(0.116421 0.000256443 0.00135295)
(0.116684 0.000274772 0.00134581)
(0.118241 0.00037006 0.000854206)
(0.11869 0.000360963 0.000853839)
(0.119132 0.000354124 0.000854049)
(0.119566 0.000349369 0.000854567)
(0.119994 0.000346689 0.000855152)
(0.120415 0.000345792 0.000855452)
(0.12083 0.000346037 0.000855315)
(0.12124 0.000347677 0.000855041)
(0.121645 0.000350884 0.000854529)
(0.122046 0.000356336 0.000854656)
(0.122443 0.000361872 0.00085359)
(0.120624 0.000530177 0.000400609)
(0.121123 0.00051548 0.000396884)
(0.121612 0.000501993 0.00039426)
(0.122094 0.000489812 0.000392592)
(0.122568 0.000479073 0.000391718)
(0.123036 0.000469836 0.000391328)
(0.123498 0.000462016 0.000391189)
(0.123955 0.000455643 0.000391317)
(0.124407 0.000450741 0.000391763)
(0.124856 0.000447611 0.000392844)
(0.125302 0.000444903 0.000393635)
(0.121397 0.00052416 -4.29141e-05)
(0.121912 0.000514401 -4.18664e-05)
(0.122418 0.000505199 -4.07441e-05)
(0.122915 0.000496644 -3.95714e-05)
(0.123404 0.000488813 -3.8394e-05)
(0.123886 0.00048174 -3.72672e-05)
(0.124361 0.00047543 -3.62544e-05)
(0.124832 0.000469924 -3.54046e-05)
(0.125297 0.000465253 -3.47444e-05)
(0.125759 0.000461652 -3.42979e-05)
(0.126217 0.000458064 -3.39874e-05)
(0.0747109 2.43928e-05 0.00116728)
(0.0740065 3.75157e-05 0.00117338)
(0.073278 5.19367e-05 0.00117383)
(0.0725324 6.78032e-05 0.0011689)
(0.0717689 8.43259e-05 0.00115989)
(0.0709944 9.90173e-05 0.00114566)
(0.07022 0.000112141 0.00112825)
(0.0694344 0.000122262 0.00110873)
(0.0686711 0.000130618 0.00109013)
(0.0678973 0.000134865 0.00106869)
(0.0671535 0.000136313 0.00104174)
(0.0664181 0.000141277 0.00101582)
(0.10064 -2.26589e-05 0.00113602)
(0.100704 -9.33555e-06 0.00115723)
(0.100752 7.08756e-06 0.00117312)
(0.100773 2.6546e-05 0.00118281)
(0.100778 4.75131e-05 0.0011874)
(0.100759 7.10956e-05 0.00119289)
(0.100723 9.1539e-05 0.00119235)
(0.10067 0.000114936 0.0011989)
(0.100595 0.000135954 0.00119987)
(0.100511 0.000154168 0.00119321)
(0.100409 0.000170342 0.00118432)
(0.100295 0.000181475 0.00116492)
(0.11036 0.000388841 0.00094591)
(0.110696 0.000375723 0.000971587)
(0.111025 0.000367086 0.000994888)
(0.111344 0.000362419 0.00101554)
(0.111654 0.000361748 0.00103408)
(0.111952 0.000363866 0.00105036)
(0.112242 0.000366297 0.00106324)
(0.112523 0.000371574 0.00107486)
(0.11279 0.000379244 0.00108553)
(0.113054 0.000394173 0.00109974)
(0.113303 0.000406108 0.00110424)
(0.115346 0.000803057 0.000526229)
(0.115748 0.00076794 0.000535946)
(0.116147 0.000737385 0.000547071)
(0.116541 0.000711374 0.000559118)
(0.116931 0.00069001 0.000571796)
(0.117317 0.000672218 0.000584047)
(0.117699 0.000656821 0.000594866)
(0.118076 0.000644873 0.000605522)
(0.11845 0.000636505 0.000616241)
(0.118822 0.000634015 0.00062876)
(0.11919 0.000633082 0.000639635)
(0.118103 0.00106827 0.000243259)
(0.118528 0.00103347 0.000238095)
(0.118948 0.00100077 0.000235073)
(0.119362 0.000970463 0.000233891)
(0.119773 0.000942944 0.0002342)
(0.12018 0.000918716 0.000234478)
(0.120584 0.000897444 0.000234499)
(0.120986 0.000879077 0.000234811)
(0.121385 0.000863419 0.000236087)
(0.121783 0.000851444 0.000239292)
(0.122179 0.000840163 0.000242721)
(0.119077 0.0010699 -2.32451e-05)
(0.119522 0.00105102 -2.97333e-05)
(0.11996 0.00103253 -3.5962e-05)
(0.120391 0.00101456 -4.18874e-05)
(0.120815 0.000997359 -4.74579e-05)
(0.121234 0.000981215 -5.26817e-05)
(0.121648 0.000966276 -5.7611e-05)
(0.122057 0.00095268 -6.22732e-05)
(0.122463 0.000940373 -6.663e-05)
(0.122867 0.000929989 -7.06169e-05)
(0.123268 0.000918916 -7.4189e-05)
(0.0634124 0.000219372 0.000823229)
(0.0628547 0.000215657 0.000826121)
(0.0622565 0.000207621 0.000820494)
(0.0616802 0.000198953 0.000810738)
(0.0610715 0.000192761 0.000800406)
(0.0604799 0.000188423 0.000787222)
(0.0598679 0.000186366 0.000771155)
(0.0592649 0.000188935 0.000755672)
(0.0586529 0.000196283 0.000744258)
(0.0580349 0.000192848 0.000714293)
(0.0574392 0.000172482 0.000649374)
(0.0568552 0.000152967 0.00058358)
(0.0922393 0.000270679 0.000656528)
(0.0922304 0.000264698 0.000685935)
(0.0922169 0.000253259 0.000702639)
(0.0921708 0.000244099 0.000714346)
(0.0921177 0.000234724 0.000718722)
(0.092038 0.000231761 0.000723996)
(0.0919436 0.000229882 0.000725396)
(0.091818 0.000234907 0.000730481)
(0.0916905 0.00023734 0.000728338)
(0.0915397 0.000251602 0.000734824)
(0.091373 0.00026805 0.000740087)
(0.0911768 0.000277913 0.000734333)
(0.103585 0.00078563 0.000490547)
(0.103809 0.000747341 0.000524301)
(0.104042 0.000714686 0.000556215)
(0.104257 0.00068903 0.000586605)
(0.104476 0.000674345 0.000617359)
(0.104674 0.000658223 0.000639588)
(0.104877 0.000637713 0.000652966)
(0.10507 0.000627558 0.000669412)
(0.105253 0.00062207 0.000684917)
(0.105432 0.000627563 0.000704629)
(0.105594 0.000638671 0.000723369)
(0.109602 0.00129657 0.000184571)
(0.109849 0.00123861 0.00019305)
(0.110101 0.00118615 0.000204287)
(0.110355 0.00113943 0.000218131)
(0.110613 0.00109959 0.000234637)
(0.110871 0.00106479 0.000252673)
(0.111133 0.00103299 0.000268681)
(0.111396 0.00100639 0.000284607)
(0.111658 0.000983743 0.000299719)
(0.111923 0.000970636 0.000317674)
(0.112184 0.000965911 0.000338601)
(0.113136 0.00163111 0.000106884)
(0.113382 0.00157855 8.64764e-05)
(0.113629 0.00152825 6.93106e-05)
(0.113878 0.00148075 5.52963e-05)
(0.11413 0.00143688 4.44259e-05)
(0.114385 0.00139818 3.62709e-05)
(0.11464 0.00136267 2.97603e-05)
(0.114898 0.00133089 2.57072e-05)
(0.115157 0.00130195 2.4166e-05)
(0.115419 0.00127892 2.61686e-05)
(0.115684 0.0012569 3.02797e-05)
(0.114566 0.00163344 6.31065e-05)
(0.114851 0.00160708 3.57952e-05)
(0.115131 0.00158004 9.63664e-06)
(0.115405 0.00155251 -1.55245e-05)
(0.115675 0.00152529 -3.93526e-05)
(0.115941 0.00149967 -6.22896e-05)
(0.116204 0.00147582 -8.36764e-05)
(0.116466 0.00145405 -0.000103132)
(0.116726 0.00143377 -0.00012027)
(0.116986 0.00141624 -0.000134845)
(0.117245 0.00139636 -0.000147222)
(0.0462279 0.00012589 0.000242237)
(0.0457242 0.000135371 0.000247604)
(0.0452114 0.00014372 0.000249467)
(0.0447266 0.000149366 0.00024871)
(0.0442406 0.000150795 0.000245382)
(0.043776 0.000150198 0.000240785)
(0.0433158 0.000149458 0.00023376)
(0.0428686 0.000151119 0.000228284)
(0.0424229 0.000154416 0.000222842)
(0.0419738 0.00015777 0.000217031)
(0.04153 0.000158002 0.000206232)
(0.0410974 0.000155839 0.000190222)
(0.0753971 0.000146154 6.19753e-05)
(0.0750693 0.000145291 8.05059e-05)
(0.0746984 0.000154693 0.0001018)
(0.0743531 0.000167597 0.000123413)
(0.0739626 0.000174985 0.00013823)
(0.0735954 0.0001798 0.000148571)
(0.0731963 0.000178134 0.00015145)
(0.0728004 0.000176196 0.000151942)
(0.0724021 0.000172575 0.000149443)
(0.0719781 0.000179535 0.000156301)
(0.0715624 0.000200101 0.000173752)
(0.0711157 0.000216708 0.000187831)
(0.0899292 0.000734902 5.50417e-05)
(0.0897915 0.00069474 8.91814e-05)
(0.0896719 0.000670686 0.000124675)
(0.089541 0.000649762 0.000154746)
(0.0894202 0.000633983 0.0001802)
(0.0892869 0.000624933 0.00020253)
(0.0891518 0.000602713 0.000212363)
(0.0890051 0.000597639 0.000228414)
(0.088852 0.000581127 0.000235685)
(0.0886941 0.000575301 0.000247065)
(0.0885232 0.00057589 0.000260442)
(0.0980491 0.00135908 -6.37391e-05)
(0.097902 0.00128483 -6.55764e-05)
(0.0977819 0.00121634 -6.50687e-05)
(0.0976723 0.00115338 -6.18144e-05)
(0.097583 0.00109812 -5.55964e-05)
(0.0974978 0.001052 -4.51865e-05)
(0.0974255 0.00101137 -3.26933e-05)
(0.0973594 0.000979408 -1.80286e-05)
(0.097295 0.000949438 -5.3314e-06)
(0.0972392 0.000927785 8.0818e-06)
(0.0971797 0.000902886 2.01891e-05)
(0.103138 0.00176302 4.17404e-05)
(0.102973 0.00169749 -2.71884e-06)
(0.102819 0.00163588 -4.09708e-05)
(0.102677 0.00157613 -7.33264e-05)
(0.102549 0.00151842 -9.9971e-05)
(0.102433 0.00146328 -0.00011915)
(0.102329 0.00141215 -0.000134633)
(0.102237 0.00136684 -0.000141209)
(0.102155 0.00132679 -0.000143569)
(0.102083 0.00129126 -0.000143501)
(0.102019 0.00125278 -0.000142168)
(0.105478 0.00179592 0.000179784)
(0.105388 0.00176375 0.000122027)
(0.105292 0.00172969 6.75672e-05)
(0.105194 0.00169261 1.73593e-05)
(0.105094 0.00165542 -2.79244e-05)
(0.104994 0.00161884 -6.76701e-05)
(0.104895 0.00158365 -0.000101774)
(0.104797 0.00155048 -0.000129841)
(0.104703 0.001519 -0.000152802)
(0.104613 0.00148857 -0.000171325)
(0.104529 0.00145271 -0.000185691)
(0.0281067 3.88028e-05 2.8861e-05)
(0.0277417 4.29104e-05 2.27988e-05)
(0.0273741 4.59819e-05 1.4397e-05)
(0.0270224 4.86136e-05 7.64096e-06)
(0.0266733 4.94207e-05 2.73997e-06)
(0.0263379 4.95335e-05 1.86065e-07)
(0.0260105 4.86868e-05 -2.22165e-06)
(0.0256954 4.84366e-05 -3.46686e-06)
(0.0253881 4.78863e-05 -4.81238e-06)
(0.0250837 4.71707e-05 -5.20457e-06)
(0.0247847 4.63618e-05 -4.48674e-06)
(0.0244943 4.62011e-05 -4.21954e-06)
(0.0435416 0.000146953 5.70677e-05)
(0.0430386 0.000128581 5.20346e-05)
(0.0425171 0.00011732 4.53499e-05)
(0.0420197 0.000107484 3.63523e-05)
(0.0415208 9.9455e-05 2.87182e-05)
(0.0410457 9.34691e-05 2.27595e-05)
(0.040578 8.56828e-05 1.62916e-05)
(0.0401285 8.15296e-05 1.33576e-05)
(0.0396921 7.64412e-05 1.01527e-05)
(0.0392619 7.38296e-05 8.98243e-06)
(0.0388497 7.38993e-05 9.04759e-06)
(0.0384486 7.35899e-05 8.63595e-06)
(0.0575741 0.000758293 0.00017982)
(0.0569 0.000687534 0.000176941)
(0.0562417 0.000586342 0.000163633)
(0.0556585 0.000503898 0.000155478)
(0.055071 0.000454982 0.000152679)
(0.0545393 0.000425007 0.000149574)
(0.0540029 0.000401582 0.000145605)
(0.0534879 0.00038394 0.000142701)
(0.0529981 0.000369926 0.000140078)
(0.0524949 0.000355927 0.000135023)
(0.0520273 0.000340298 0.000125953)
(0.068784 0.00129281 8.73384e-05)
(0.0678746 0.00120871 8.63068e-05)
(0.0670314 0.00112356 8.75363e-05)
(0.0662523 0.00104339 8.93538e-05)
(0.0655213 0.000972692 8.83568e-05)
(0.064837 0.000911926 8.44437e-05)
(0.0641882 0.000862847 8.30583e-05)
(0.0635658 0.000821184 8.15443e-05)
(0.0629715 0.000788442 8.17948e-05)
(0.0623846 0.000760123 8.07868e-05)
(0.0618243 0.000736842 7.81555e-05)
(0.0770768 0.00162235 0.000109227)
(0.0760656 0.00154765 6.82129e-05)
(0.0751087 0.00147433 3.45055e-05)
(0.0742017 0.00140499 9.5039e-06)
(0.0733393 0.0013412 -6.66126e-06)
(0.0725188 0.00128347 -1.64542e-05)
(0.0717366 0.00123211 -2.13507e-05)
(0.0709867 0.0011867 -2.32084e-05)
(0.0702649 0.00114813 -2.26603e-05)
(0.0695646 0.0011156 -2.12631e-05)
(0.0688864 0.00108889 -1.85577e-05)
(0.0811489 0.00166022 0.000139845)
(0.0802019 0.00161917 8.41776e-05)
(0.0792723 0.00157484 3.607e-05)
(0.078364 0.00152923 -2.97829e-06)
(0.0774796 0.00148487 -3.46076e-05)
(0.0766195 0.00144244 -5.94478e-05)
(0.0757828 0.00140234 -7.77277e-05)
(0.074968 0.00136553 -8.9275e-05)
(0.074174 0.00133305 -9.60493e-05)
(0.0733982 0.00130498 -9.90038e-05)
(0.0726395 0.00128057 -9.63646e-05)
)
;

boundaryField
{
    inlet
    {
        type            fixedValue;
        value           nonuniform List<vector> 0();
    }
    ami1
    {
        type            cyclicAMI;
        value           nonuniform List<vector> 0();
    }
    walls
    {
        type            noSlip;
    }
    ami2
    {
        type            cyclicAMI;
        value           nonuniform List<vector> 0();
    }
    outlet
    {
        type            zeroGradient;
    }
    procBoundary8to0
    {
        type            processor;
        value           nonuniform List<vector> 
29
(
(0.0284813 -3.23779e-05 3.59362e-05)
(0.0467522 -0.00023536 0.000116061)
(0.0639991 -0.000811065 0.000217718)
(0.075387 -0.0011551 6.05338e-06)
(0.0812983 -0.00147791 -7.28835e-05)
(0.0440653 -6.09265e-05 0.000172038)
(0.0757511 -4.81503e-05 0.000160602)
(0.0922073 -0.00062371 0.000278804)
(0.100544 -0.00110962 -3.49362e-05)
(0.104722 -0.00154303 -0.000195222)
(0.058296 -0.00016748 0.000804739)
(0.0900776 -1.79223e-05 0.000781449)
(0.103353 -0.000455388 0.000828172)
(0.110016 -0.000919089 0.000406849)
(0.113396 -0.00135765 9.19048e-05)
(0.0697546 -9.22026e-05 0.00137888)
(0.098227 5.64884e-05 0.00144265)
(0.109369 -0.000181332 0.00136127)
(0.114944 -0.000519441 0.000843159)
(0.117783 -0.000856301 0.000381811)
(0.0781373 -0.000157044 0.00169493)
(0.103324 -9.37193e-05 0.00183158)
(0.112898 -0.000132184 0.00168606)
(0.117675 -0.000251959 0.00110492)
(0.120118 -0.000406321 0.00054612)
(0.120873 -0.000534937 4.33909e-05)
(0.118625 1.59308e-05 0.00108873)
(0.120873 4.3321e-05 0.000534322)
(0.12158 -3.17673e-07 -2.40145e-07)
)
;
    }
    procBoundary8to1
    {
        type            processor;
        value           nonuniform List<vector> 
33
(
(0.0821094 -0.000192392 0.00169646)
(0.105567 -0.000239823 0.0018251)
(0.114279 -9.28765e-05 0.00165832)
(0.0813049 -7.0732e-05 0.00147659)
(0.104723 -0.000193191 0.00154166)
(0.113396 9.25791e-05 0.00135674)
(0.117782 0.000381669 0.000855595)
(0.120116 0.000545961 0.00040561)
(0.120872 0.000534369 -4.38905e-05)
(0.0753911 7.79835e-06 0.001154)
(0.100547 -3.25467e-05 0.00110931)
(0.110015 0.000407736 0.000919156)
(0.114939 0.000842989 0.000518956)
(0.11767 0.0011049 0.000250959)
(0.118622 0.00108919 -1.66949e-05)
(0.0639991 0.000220255 0.000810399)
(0.0922091 0.000282273 0.000624233)
(0.103348 0.00082931 0.000455529)
(0.10936 0.00136121 0.000180636)
(0.112889 0.00168624 0.000130835)
(0.114274 0.00165914 9.18214e-05)
(0.0467541 0.000118709 0.000234554)
(0.075755 0.000162636 4.68648e-05)
(0.0900741 0.000781809 1.72411e-05)
(0.0982177 0.00144337 -5.66509e-05)
(0.103316 0.00183265 9.35447e-05)
(0.105562 0.00182666 0.000239444)
(0.0284856 3.69824e-05 3.15327e-05)
(0.0440726 0.000172303 5.96325e-05)
(0.0583111 0.000807493 0.000168882)
(0.0697721 0.00138295 9.55066e-05)
(0.0781459 0.00169689 0.000160329)
(0.0821089 0.00169703 0.000193961)
)
;
    }
    procBoundary8to7
    {
        type            processor;
        value           nonuniform List<vector> 
68
(
(0.024489 3.36579e-06 4.48469e-05)
(0.0410845 -0.000191976 0.000154447)
(0.0568322 -0.00058821 0.000155373)
(0.0663848 -0.00102228 0.000146209)
(0.0714899 -0.00125617 0.000125401)
(0.0384369 -1.22693e-05 7.39374e-05)
(0.0711042 -0.00018515 0.000209709)
(0.0911768 -0.000730446 0.000273352)
(0.100297 -0.00116395 0.000179424)
(0.104204 -0.00141856 0.000190179)
(0.0515393 -0.000122797 0.000327902)
(0.0883383 -0.000271938 0.0005695)
(0.105747 -0.000736554 0.000649224)
(0.113553 -0.0011006 0.00041364)
(0.116951 -0.00134124 0.00029303)
(0.0612401 -8.2243e-05 0.000722022)
(0.0971374 -3.63533e-05 0.000885787)
(0.112449 -0.000356482 0.000960282)
(0.119562 -0.00064647 0.000634442)
(0.122846 -0.000851411 0.000368666)
(0.0682091 1.07418e-05 0.0010663)
(0.10197 0.00013561 0.00122203)
(0.115955 -3.61483e-05 0.00124001)
(0.122578 -0.000244522 0.000833345)
(0.12575 -0.00039204 0.000445234)
(0.126676 -0.000455829 3.61315e-05)
(0.0718872 8.66287e-05 0.00125723)
(0.104452 0.000196142 0.00141908)
(0.117506 0.000156733 0.00138205)
(0.123667 7.77747e-05 0.000912326)
(0.126671 3.53639e-05 0.000458275)
(0.127588 -1.57927e-07 1.40308e-06)
(0.0715248 0.00012112 0.00125121)
(0.0715248 0.00012112 0.00125121)
(0.104206 0.000188411 0.00141315)
(0.104206 0.000188411 0.00141315)
(0.116943 0.000291427 0.00134043)
(0.122839 0.000366665 0.000852816)
(0.125746 0.000442745 0.000394449)
(0.126672 0.000455049 -3.38398e-05)
(0.0657006 0.000150475 0.000993974)
(0.10017 0.000193914 0.00114951)
(0.11355 0.000413061 0.00110081)
(0.11355 0.000413061 0.00110081)
(0.119558 0.000632256 0.000647403)
(0.122575 0.000830381 0.000245347)
(0.123669 0.000908943 -7.75295e-05)
(0.0562824 0.000151809 0.00054584)
(0.0909639 0.000287133 0.000724015)
(0.105746 0.0006473 0.000734867)
(0.105746 0.0006473 0.000734867)