/*--------------------------------*- C++ -*----------------------------------*\
| =========                 |                                                 |
| \\      /  F ield         | OpenFOAM: The Open Source CFD Toolbox           |
|  \\    /   O peration     | Version:  2212                                  |
|   \\  /    A nd           | Website:  www.openfoam.com                      |
|    \\/     M anipulation  |                                                 |
\*---------------------------------------------------------------------------*/
FoamFile
{
    version     2.0;
    format      ascii;
    arch        "LSB;label=32;scalar=64";
    class       surfaceScalarField;
    location    "1.65";
    object      phi;
}
// * * * * * * * * * * * * * * * * * * * * * * * * * * * * * * * * * * * * * //

dimensions      [0 3 -1 0 0 0 0];

oriented        oriented;

internalField   nonuniform List<scalar> 
1763
(
5.41962e-08
-3.40967e-08
5.36152e-08
-3.41334e-08
3.47142e-08
5.30519e-08
-3.41621e-08
3.47252e-08
5.24782e-08
-3.41902e-08
3.47638e-08
5.19123e-08
-3.42461e-08
3.4812e-08
-3.43177e-08
3.48707e-08
1.77382e-07
-6.43425e-08
3.21243e-08
1.75619e-07
-6.44487e-08
3.20776e-08
1.73902e-07
-6.4532e-08
3.20872e-08
1.72171e-07
-6.45908e-08
3.21314e-08
1.7056e-07
-6.47426e-08
3.21074e-08
-6.48037e-08
3.21606e-08
3.47762e-07
3.44282e-07
-8.94691e-08
2.84999e-08
3.40876e-07
-8.9577e-08
2.84512e-08
3.3755e-07
-8.96935e-08
2.84284e-08
3.34369e-07
-8.98351e-08
2.82738e-08
-8.98679e-08
2.80394e-08
4.90504e-07
-1.07504e-07
2.29307e-08
4.8574e-07
-1.07608e-07
2.27955e-08
4.81143e-07
-1.07725e-07
2.26288e-08
4.76779e-07
-1.07825e-07
2.23535e-08
-1.0783e-07
2.19148e-08
5.87654e-07
1.59145e-08
5.82047e-07
-1.17602e-07
1.56006e-08
5.76724e-07
-1.17652e-07
1.52499e-08
5.71719e-07
-1.17637e-07
1.48166e-08
-1.17515e-07
1.42116e-08
6.10345e-07
-1.1841e-07
6.57437e-09
6.04861e-07
-1.18355e-07
6.18702e-09
5.99705e-07
-1.18217e-07
5.73574e-09
-1.17983e-07
5.05484e-09
5.64746e-07
-1.09409e-07
-3.66484e-09
5.59525e-07
-1.0932e-07
-3.8136e-09
5.54553e-07
-1.09124e-07
-4.12124e-09
-1.08918e-07
-4.8044e-09
4.56348e-07
-9.14026e-08
-1.34131e-08
4.51886e-07
-9.13426e-08
-1.35161e-08
4.47735e-07
-9.11959e-08
-1.37766e-08
-9.11411e-08
-1.42533e-08
3.11313e-07
-6.6105e-08
-2.2105e-08
3.08234e-07
-6.60798e-08
-2.21839e-08
3.05402e-07
-6.60077e-08
-2.23567e-08
-6.60359e-08
-2.25296e-08
1.64609e-07
-3.47334e-08
1.62948e-07
-3.47238e-08
-2.9721e-08
1.6132e-07
-3.47495e-08
-2.97023e-08
1.59828e-07
-3.48044e-08
-2.9711e-08
-3.48718e-08
-2.96657e-08
5.36225e-08
-3.4136e-08
5.30466e-08
-3.4148e-08
5.24575e-08
-3.41605e-08
5.18629e-08
-3.42098e-08
-3.42847e-08
1.64647e-07
-2.96861e-08
1.63043e-07
-2.9679e-08
6.60088e-08
1.61454e-07
-2.96411e-08
6.59938e-08
1.60009e-07
-2.96938e-08
6.59502e-08
-2.97006e-08
6.59992e-08
4.61745e-07
4.5804e-07
-5.48935e-08
6.09894e-08
4.54369e-07
-5.48941e-08
6.09735e-08
4.50812e-07
-5.49178e-08
6.09648e-08
4.47375e-07
-5.50545e-08
6.09051e-08
-5.54166e-08
6.07215e-08
7.79314e-07
-7.67236e-08
5.34413e-08
7.76132e-07
-7.66856e-08
5.34253e-08
7.72898e-07
-7.66462e-08
5.33911e-08
7.69615e-07
-7.67176e-08
5.322e-08
-7.70649e-08
5.25427e-08
1.01256e-06
-9.28687e-08
4.13683e-08
1.01021e-06
-9.28007e-08
4.1262e-08
1.0078e-06
-9.27376e-08
4.11312e-08
1.00536e-06
-9.2765e-08
4.08358e-08
-9.2985e-08
4.00343e-08
1.15129e-06
-1.019e-07
2.64955e-08
1.14967e-06
-1.01887e-07
2.6307e-08
1.14799e-06
-1.01866e-07
2.6058e-08
1.14628e-06
-1.01862e-07
2.5626e-08
-1.0196e-07
2.48024e-08
1.19133e-06
-1.03393e-07
9.29903e-09
1.19037e-06
-1.03468e-07
9.10884e-09
1.1894e-06
-1.03502e-07
8.79735e-09
1.18844e-06
-1.03494e-07
8.32844e-09
-1.03481e-07
7.51956e-09
1.13586e-06
-8.96273e-09
1.13517e-06
-9.73885e-08
-9.05543e-09
1.13454e-06
-9.74107e-08
-9.27149e-09
1.13397e-06
-9.74113e-08
-9.63248e-09
-9.72409e-08
-1.043e-08
9.87916e-07
-8.31975e-08
-2.61218e-08
9.86436e-07
-8.31978e-08
-2.62493e-08
9.84913e-07
-8.32133e-08
-2.64512e-08
-8.29715e-08
-2.71275e-08
7.51341e-07
-6.09772e-08
-4.10762e-08
7.48073e-07
-6.09699e-08
-4.11434e-08
7.44711e-07
-6.09425e-08
-4.12656e-08
-6.07794e-08
-4.18576e-08
4.54259e-07
-3.20588e-08
-5.49109e-08
4.50569e-07
-3.20897e-08
-5.48926e-08
4.4699e-07
-3.20918e-08
-5.4982e-08
-3.21802e-08
-5.52927e-08
1.75725e-07
-6.44413e-08
1.73926e-07
-6.44079e-08
1.72108e-07
-6.44324e-08
1.70412e-07
-6.46058e-08
-6.47006e-08
3.11626e-07
-2.2206e-08
9.13043e-08
3.08657e-07
-2.22506e-08
9.12127e-08
3.05911e-07
-2.24073e-08
9.11038e-08
-2.25921e-08
9.10922e-08
7.5512e-07
-4.11718e-08
7.51846e-07
-4.11407e-08
8.31826e-08
7.48502e-07
-4.11639e-08
8.32215e-08
7.45106e-07
-4.13013e-08
8.31951e-08
-4.19427e-08
8.29191e-08
1.13473e-06
-5.90108e-08
7.0867e-08
1.13505e-06
-5.89722e-08
7.09351e-08
1.13524e-06
-5.89289e-08
7.09653e-08
1.1353e-06
-5.9008e-08
7.08663e-08
-5.94776e-08
7.03326e-08
1.38895e-06
-7.28878e-08
5.30664e-08
1.39107e-06
-7.28427e-08
5.30104e-08
1.39317e-06
-7.28158e-08
5.29193e-08
1.39518e-06
-7.28765e-08
5.26972e-08
-7.31464e-08
5.21578e-08
1.53642e-06
-8.13102e-08
3.17179e-08
1.53957e-06
-8.12766e-08
3.15861e-08
1.54268e-06
-8.12504e-08
3.1388e-08
1.54562e-06
-8.12597e-08
3.10659e-08
-8.13783e-08
3.0538e-08
1.58186e-06
-8.39086e-08
8.05896e-09
1.5857e-06
-8.39137e-08
7.90767e-09
1.58948e-06
-8.39103e-08
7.67727e-09
1.59311e-06
-8.38925e-08
7.32809e-09
-8.38926e-08
6.82613e-09
1.52985e-06
-8.07421e-08
-1.61604e-08
1.53389e-06
-8.07453e-08
-1.62625e-08
1.53788e-06
-8.07195e-08
-1.64457e-08
1.54172e-06
-8.06398e-08
-1.67295e-08
-8.04251e-08
-1.71883e-08
1.38268e-06
-7.09007e-08
-3.89211e-08
1.38574e-06
-7.09471e-08
-3.89819e-08
1.38877e-06
-7.09247e-08
-3.90766e-08
1.39175e-06
-7.08047e-08
-3.92655e-08
-7.03245e-08
-3.96614e-08
1.13462e-06
-5.89393e-08
1.13495e-06
-5.34348e-08
-5.89236e-08
1.13522e-06
-5.33797e-08
-5.89536e-08
1.13541e-06
-5.32247e-08
-5.90355e-08
-5.26088e-08
-5.94299e-08
7.75817e-07
-2.85208e-08
-7.66706e-08
7.72656e-07
-2.84923e-08
-7.66184e-08
7.694e-07
-2.83179e-08
-7.66328e-08
-2.81003e-08
-7.69038e-08
3.44464e-07
-8.94375e-08
3.40925e-07
-8.93889e-08
3.37436e-07
-8.94361e-08
3.34119e-07
-8.96067e-08
-8.97071e-08
4.5689e-07
-1.35013e-08
1.09387e-07
4.52457e-07
-1.36125e-08
1.09259e-07
4.48348e-07
-1.38653e-08
1.09078e-07
-1.43289e-08
1.08901e-07
9.88143e-07
-2.62221e-08
9.73704e-08
9.86616e-07
-2.63009e-08
9.74371e-08
9.85029e-07
-2.65096e-08
9.74263e-08
-2.72048e-08
9.72315e-08
1.38244e-06
-3.90248e-08
8.07366e-08
1.38547e-06
-3.9069e-08
8.07471e-08
1.38851e-06
-3.9121e-08
8.07493e-08
1.39145e-06
-3.92716e-08
8.06856e-08
-3.96589e-08
8.04555e-08
1.64033e-06
-4.96483e-08
5.87945e-08
1.6452e-06
-4.9673e-08
5.87428e-08
1.65003e-06
-4.97074e-08
5.86808e-08
1.65471e-06
-4.98091e-08
5.85508e-08
-5.00154e-08
5.83061e-08
1.79021e-06
-5.66934e-08
3.31142e-08
1.79582e-06
-5.67003e-08
3.30009e-08
1.80134e-06
-5.67073e-08
3.28702e-08
1.80666e-06
-5.67342e-08
3.26703e-08
-5.67999e-08
3.23951e-08
1.83847e-06
-5.97616e-08
5.13859e-09
1.84443e-06
-5.97661e-08
5.0209e-09
1.85028e-06
-5.97554e-08
4.87543e-09
1.85593e-06
-5.97222e-08
4.66079e-09
-5.96787e-08
4.43211e-09
1.78233e-06
-2.29933e-08
1.78822e-06
-5.87549e-08
-2.30614e-08
1.79405e-06
-5.87194e-08
-2.31392e-08
1.79978e-06
-5.86634e-08
-2.32619e-08
1.80532e-06
-5.85383e-08
-2.34557e-08
-5.83076e-08
-2.37033e-08
1.64044e-06
-5.3011e-08
-4.96008e-08
1.64536e-06
-5.29741e-08
-4.96434e-08
1.65019e-06
-5.28669e-08
-4.9707e-08
1.65489e-06
-5.26623e-08
-4.98362e-08
-5.21785e-08
-5.00533e-08
1.38899e-06
-4.13303e-08
-7.28575e-08
1.39119e-06
-4.12643e-08
-7.28306e-08
1.39333e-06
-4.11141e-08
-7.28495e-08
1.39538e-06
-4.083e-08
-7.2913e-08
-4.0105e-08
-7.31403e-08
1.01246e-06
-2.29179e-08
-9.28022e-08
1.01009e-06
-2.286e-08
-9.27047e-08
1.00771e-06
-2.26946e-08
-9.2655e-08
1.00532e-06
-2.23944e-08
-9.26804e-08
-2.1963e-08
-9.28576e-08
4.90583e-07
-1.07394e-07
4.85749e-07
-1.07415e-07
4.81106e-07
-1.07488e-07
4.76704e-07
-1.07599e-07
-1.07663e-07
5.70722e-07
-3.62904e-09
1.18409e-07
5.65368e-07
-3.67245e-09
1.18414e-07
5.60111e-07
-3.84969e-09
1.18366e-07
5.55125e-07
-4.16445e-09
1.18228e-07
-4.83881e-09
1.17987e-07
1.13576e-06
-8.99303e-09
1.03397e-07
1.13508e-06
-9.09405e-09
1.03473e-07
1.13446e-06
-9.30943e-09
1.0352e-07
1.13387e-06
-9.67488e-09
1.03524e-07
-1.04788e-08
1.03515e-07
1.52564e-06
-1.6145e-08
8.39369e-08
1.52962e-06
-1.61988e-08
8.39594e-08
1.5336e-06
-1.62877e-08
8.3956e-08
1.53757e-06
-1.64627e-08
8.39397e-08
1.54141e-06
-1.67421e-08
8.39147e-08
-1.72074e-08
8.391e-08
1.78213e-06
-2.30692e-08
5.98153e-08
1.78804e-06
-2.31081e-08
5.9792e-08
1.79389e-06
-2.31579e-08
5.97671e-08
1.79963e-06
-2.32591e-08
5.97383e-08
1.80518e-06
-2.3437e-08
5.96945e-08
-2.36759e-08
5.96432e-08
1.93248e-06
-2.84175e-08
3.18904e-08
1.93907e-06
-2.84305e-08
3.18414e-08
1.94556e-06
-2.84447e-08
3.17944e-08
1.9519e-06
-2.84719e-08
3.17444e-08
1.95797e-06
-2.85178e-08
3.168e-08
-2.85851e-08
3.15991e-08
1.982e-06
-3.18431e-08
1.80021e-09
1.98879e-06
-3.18381e-08
1.75627e-09
1.99548e-06
-3.18251e-08
1.7094e-09
2.00202e-06
-3.1789e-08
1.64939e-09
2.0083e-06
-3.17305e-08
1.59191e-09
-3.16535e-08
1.54774e-09
1.93249e-06
-3.31284e-08
-2.83835e-08
1.93907e-06
-3.30732e-08
-2.84038e-08
1.94555e-06
-3.30125e-08
-2.84369e-08
1.95188e-06
-3.28978e-08
-2.84839e-08
1.95795e-06
-3.27056e-08
-2.85454e-08
-3.24371e-08
-2.86222e-08
1.78452e-06
-3.1757e-08
-5.66598e-08
1.7902e-06
-3.16899e-08
-5.66674e-08
1.79581e-06
-3.15819e-08
-5.66875e-08
1.8013e-06
-3.13743e-08
-5.6719e-08
1.80659e-06
-3.10703e-08
-5.67619e-08
-3.05914e-08
-5.68324e-08
1.53319e-06
-2.66509e-08
-8.12959e-08
1.53643e-06
-2.65108e-08
-8.12733e-08
1.53964e-06
-2.63562e-08
-8.127e-08
1.54277e-06
-2.60694e-08
-8.12826e-08
1.5457e-06
-2.562e-08
-8.12989e-08
-2.48637e-08
-8.13956e-08
1.15293e-06
-1.01831e-07
1.15137e-06
-1.59387e-08
-1.01811e-07
1.14971e-06
-1.56211e-08
-1.01782e-07
1.148e-06
-1.52389e-08
-1.01778e-07
1.14629e-06
-1.47933e-08
-1.01792e-07
-1.4208e-08
-1.01886e-07
5.87778e-07
-1.17443e-07
5.82197e-07
-1.17455e-07
5.76933e-07
-1.17462e-07
5.71983e-07
-1.17443e-07
-1.17363e-07
6.16672e-07
6.95812e-09
1.17556e-07
6.10839e-07
6.58251e-09
1.17664e-07
6.05307e-07
6.19867e-09
1.17699e-07
6.00117e-07
5.75319e-09
1.17665e-07
5.03054e-09
1.17551e-07
1.19114e-06
9.30501e-09
1.01926e-07
1.19023e-06
9.07845e-09
1.01887e-07
1.18927e-06
8.7944e-09
1.01881e-07
1.18831e-06
8.33676e-09
1.019e-07
7.48208e-09
1.01992e-07
1.574e-06
8.20469e-09
1.57789e-06
8.16861e-09
8.13936e-08
1.58174e-06
8.08051e-09
8.1335e-08
1.58558e-06
7.91872e-09
8.12817e-08
1.58936e-06
7.68605e-09
8.12645e-08
1.59299e-06
7.34472e-09
8.12712e-08
6.84195e-09
8.1371e-08
1.82629e-06
5.19585e-09
1.83237e-06
5.17296e-09
5.67363e-08
1.83837e-06
5.14373e-09
5.67273e-08
1.84429e-06
5.06815e-09
5.66974e-08
1.8501e-06
4.92806e-09
5.66854e-08
1.85572e-06
4.71533e-09
5.67017e-08
4.4858e-09
5.67621e-08
1.97504e-06
1.98193e-06
1.7462e-09
2.84216e-08
1.98871e-06
1.75986e-09
2.84426e-08
1.99538e-06
1.75082e-09
2.84406e-08
2.0019e-06
1.70959e-09
2.84499e-08
2.00815e-06
1.66063e-09
2.84859e-08
1.61778e-09
2.8549e-08
2.03158e-06
-1.77203e-09
-1.75942e-09
2.03858e-06
-1.74167e-09
-1.74269e-09
2.04549e-06
-1.71313e-09
-1.73589e-09
2.05222e-06
-1.66582e-09
-1.70817e-09
2.05876e-06
-1.61545e-09
-1.66822e-09
-1.57632e-09
-1.63137e-09
1.98186e-06
-5.17249e-09
-3.18302e-08
1.98864e-06
-5.10316e-09
-3.18217e-08
1.99534e-06
-5.02905e-09
-3.18203e-08
2.00189e-06
-4.89522e-09
-3.18019e-08
2.00817e-06
-4.68634e-09
-3.1758e-08
-4.46046e-09
-3.16895e-08
1.83232e-06
-8.12325e-09
-5.97301e-08
1.83832e-06
-8.03482e-09
-5.97371e-08
1.84427e-06
-7.90189e-09
-5.97611e-08
1.8501e-06
-7.6722e-09
-5.97722e-08
1.85573e-06
-7.33088e-09
-5.97513e-08
-6.83545e-09
-5.97094e-08
1.57793e-06
-9.45635e-09
-8.383e-08
1.58178e-06
-9.29148e-09
-8.38652e-08
1.58563e-06
-9.1118e-09
-8.39068e-08
1.58941e-06
-8.80357e-09
-8.39355e-08
1.59302e-06
-8.30879e-09
-8.39287e-08
-7.4882e-09
-8.39205e-08
1.19233e-06
-7.26115e-09
-1.0321e-07
1.19143e-06
-6.92249e-09
-1.03284e-07
1.19045e-06
-6.52631e-09
-1.03381e-07
1.18942e-06
-6.10976e-09
-1.03443e-07
1.1884e-06
-5.64238e-09
-1.03436e-07
-4.96087e-09
-1.03423e-07
6.22448e-07
-1.18356e-07
6.16419e-07
-1.18336e-07
6.10706e-07
-1.18269e-07
6.05303e-07
-1.18169e-07
6.00244e-07
-1.18026e-07
-1.1782e-07
5.93995e-07
1.62127e-08
1.0742e-07
5.88099e-07
1.59194e-08
1.07532e-07
5.82492e-07
1.55987e-08
1.07673e-07
5.77167e-07
1.52295e-08
1.07794e-07
5.72151e-07
1.48061e-08
1.07875e-07
1.42345e-08
1.07865e-07
1.15289e-06
2.65989e-08
9.30474e-08
1.15131e-06
2.64711e-08
9.29551e-08
1.14963e-06
2.63187e-08
9.28427e-08
1.14791e-06
2.60328e-08
9.27987e-08
1.14619e-06
2.55888e-08
9.28411e-08
2.48386e-08
9.30197e-08
1.53309e-06
3.17187e-08
7.30256e-08
1.53629e-06
3.16558e-08
7.29477e-08
1.53948e-06
3.15528e-08
7.28668e-08
1.54257e-06
3.13527e-08
7.28471e-08
1.54548e-06
3.10552e-08
7.29006e-08
3.05781e-08
7.31427e-08
1.7843e-06
3.30969e-08
4.96636e-08
1.78997e-06
3.30544e-08
4.96589e-08
1.79558e-06
3.30091e-08
4.96337e-08
1.80106e-06
3.29024e-08
4.96591e-08
1.80633e-06
3.27142e-08
4.97671e-08
3.24455e-08
4.99857e-08
1.93217e-06
3.18479e-08
2.30517e-08
1.93873e-06
3.18325e-08
2.31015e-08
1.94521e-06
3.18203e-08
2.31457e-08
1.95154e-06
3.17906e-08
2.32371e-08
1.95759e-06
3.17385e-08
2.34093e-08
3.16649e-08
2.36498e-08
1.98173e-06
2.84395e-08
-5.17348e-09
1.98849e-06
2.84476e-08
-5.11265e-09
1.99517e-06
2.84544e-08
-5.04876e-09
2.0017e-06
2.84794e-08
-4.92648e-09
2.00797e-06
2.85275e-08
-4.72558e-09
2.85972e-08
-4.50031e-09
1.93233e-06
2.30934e-08
-3.31008e-08
1.93888e-06
2.31353e-08
-3.3062e-08
1.94536e-06
2.31736e-08
-3.302e-08
1.95169e-06
2.32653e-08
-3.29175e-08
1.95776e-06
2.34397e-08
-3.27334e-08
2.36801e-08
-3.24662e-08
1.78213e-06
1.61757e-08
-5.8715e-08
1.78802e-06
1.62286e-08
-5.87176e-08
1.79387e-06
1.63014e-08
-5.87411e-08
1.79961e-06
1.6464e-08
-5.87095e-08
1.80514e-06
1.67436e-08
-5.85861e-08
1.72123e-08
-5.83423e-08
1.52575e-06
8.95142e-09
-8.05904e-08
1.52972e-06
9.03854e-09
-8.06481e-08
1.53373e-06
9.10538e-09
-8.0714e-08
1.53768e-06
9.29753e-09
-8.07284e-08
1.54147e-06
9.68909e-09
-8.06569e-08
1.05077e-08
-8.04362e-08
1.13667e-06
3.54948e-09
-9.71675e-08
1.136e-06
3.66432e-09
-9.72407e-08
1.13529e-06
3.78126e-09
-9.73432e-08
1.13456e-06
3.96743e-09
-9.73846e-08
1.13386e-06
4.28437e-09
-9.73302e-08
4.93466e-09
-9.71362e-08
5.75781e-07
-1.09436e-07
5.7046e-07
-1.09351e-07
5.65199e-07
-1.09227e-07
5.60083e-07
-1.09085e-07
5.55263e-07
-1.08921e-07
-1.0877e-07
4.95826e-07
2.29873e-08
8.9425e-08
4.90947e-07
2.28938e-08
8.95171e-08
4.86206e-07
2.27799e-08
8.96343e-08
4.81642e-07
2.25995e-08
8.97584e-08
4.77299e-07
2.23274e-08
8.98909e-08
2.19301e-08
8.99001e-08
1.01498e-06
4.13694e-08
7.68962e-08
1.01268e-06
4.12999e-08
7.68431e-08
1.01029e-06
4.12519e-08
7.67599e-08
1.00786e-06
4.10839e-08
7.6749e-08
1.00542e-06
4.07743e-08
7.68341e-08
4.00379e-08
7.71302e-08
1.38664e-06
5.30149e-08
5.9155e-08
1.3888e-06
5.299e-08
5.90964e-08
1.39093e-06
5.29781e-08
5.9005e-08
1.39299e-06
5.2867e-08
5.90056e-08
1.39491e-06
5.2644e-08
5.91119e-08
5.21405e-08
5.9538e-08
1.63516e-06
5.87526e-08
3.90709e-08
1.64001e-06
5.87426e-08
3.90583e-08
1.64485e-06
5.87487e-08
3.90288e-08
1.64958e-06
5.87031e-08
3.90875e-08
1.65416e-06
5.85752e-08
3.92561e-08
5.83275e-08
3.9652e-08
1.78176e-06
5.97909e-08
1.61767e-08
1.78758e-06
5.97866e-08
1.62315e-08
1.79338e-06
5.97912e-08
1.63054e-08
1.79907e-06
5.97822e-08
1.64679e-08
1.80456e-06
5.97474e-08
1.67497e-08
5.96982e-08
1.72225e-08
1.83207e-06
5.67487e-08
-8.09193e-09
1.83801e-06
5.67372e-08
-8.00826e-09
1.84391e-06
5.67202e-08
-7.87405e-09
1.8497e-06
5.67215e-08
-7.65465e-09
1.85529e-06
5.67471e-08
-7.32009e-09
5.68118e-08
-6.8135e-09
1.78434e-06
4.96903e-08
-3.17025e-08
1.78997e-06
4.96815e-08
-3.16356e-08
1.79555e-06
4.96522e-08
-3.15314e-08
1.80101e-06
4.96768e-08
-3.13324e-08
1.80627e-06
4.9792e-08
-3.10338e-08
5.00137e-08
-3.05478e-08
1.63546e-06
3.9047e-08
-5.29837e-08
1.64035e-06
3.90404e-08
-5.29625e-08
1.64522e-06
3.89984e-08
-5.29577e-08
1.64999e-06
3.90488e-08
-5.28533e-08
1.65458e-06
3.92385e-08
-5.26292e-08
3.96399e-08
-5.21276e-08
1.37958e-06
2.61613e-08
-7.07746e-08
1.38262e-06
2.6165e-08
-7.08125e-08
1.38565e-06
2.61316e-08
-7.08793e-08
1.3886e-06
2.62187e-08
-7.08519e-08
1.39141e-06
2.64845e-08
-7.07134e-08
2.71833e-08
-7.02315e-08
9.91099e-07
1.3473e-08
-8.30782e-08
9.89638e-07
1.34839e-08
-8.30993e-08
9.88082e-07
1.35167e-08
-8.31716e-08
9.86459e-07
1.3636e-08
-8.31794e-08
9.84816e-07
1.39026e-08
-8.31051e-08
1.4347e-08
-8.28298e-08
4.65746e-07
-9.14207e-08
4.6124e-07
-9.13602e-08
4.56814e-07
-9.12847e-08
4.52558e-07
-9.11932e-08
4.48609e-07
-9.107e-08
-9.10553e-08
3.48188e-07
2.85002e-08
6.44312e-08
3.44733e-07
2.84859e-08
6.4486e-08
3.41338e-07
2.84706e-08
6.45588e-08
3.38041e-07
2.84058e-08
6.46489e-08
3.34896e-07
2.82276e-08
6.48082e-08
2.80259e-08
6.48409e-08
7.82606e-07
5.33708e-08
5.50631e-08
7.79518e-07
5.33837e-08
5.50338e-08
7.76367e-07
5.33939e-08
5.49876e-08
7.73185e-07
5.33018e-08
5.50346e-08
7.69954e-07
5.30996e-08
5.51935e-08
5.24792e-08
5.55097e-08
1.13418e-06
7.0784e-08
4.12938e-08
1.13455e-06
7.08256e-08
4.12866e-08
1.1348e-06
7.08877e-08
4.12563e-08
1.13493e-06
7.08573e-08
4.1319e-08
1.13496e-06
7.07276e-08
4.14591e-08
7.02468e-08
4.20658e-08
1.37916e-06
8.06339e-08
2.62395e-08
1.38212e-06
8.06865e-08
2.62445e-08
1.38507e-06
8.07359e-08
2.6223e-08
1.38797e-06
8.07367e-08
2.63114e-08
1.39073e-06
8.06698e-08
2.65532e-08
8.04468e-08
2.72428e-08
1.52533e-06
8.39011e-08
9.0307e-09
1.5292e-06
8.39296e-08
9.11777e-09
1.5331e-06
8.3964e-08
9.18135e-09
1.53695e-06
8.398e-08
9.36673e-09
1.54066e-06
8.39641e-08
9.75364e-09
8.39536e-08
1.05657e-08
1.57769e-06
8.13838e-08
-9.3618e-09
1.58147e-06
8.1353e-08
-9.21452e-09
1.58523e-06
8.13244e-08
-8.99399e-09
1.58893e-06
8.1321e-08
-8.69712e-09
1.59248e-06
8.13356e-08
-8.23538e-09
8.14339e-08
-7.38635e-09
1.53305e-06
7.29999e-08
-2.65507e-08
1.53623e-06
7.29353e-08
-2.63996e-08
1.53939e-06
7.28711e-08
-2.62332e-08
1.54245e-06
7.28655e-08
-2.59426e-08
1.54532e-06
7.29338e-08
-2.54982e-08
7.31788e-08
-2.47439e-08
1.38672e-06
5.90806e-08
-4.13218e-08
1.3889e-06
5.90291e-08
-4.12428e-08
1.39105e-06
5.8951e-08
-4.11877e-08
1.39312e-06
5.89665e-08
-4.10167e-08
1.39503e-06
5.90897e-08
-4.07006e-08
5.95206e-08
-3.99713e-08
1.13425e-06
4.12023e-08
-5.3352e-08
1.13464e-06
4.11912e-08
-5.33569e-08
1.13491e-06
4.11543e-08
-5.33557e-08
1.13506e-06
4.12226e-08
-5.32607e-08
1.1351e-06
4.14021e-08
-5.30595e-08
4.20114e-08
-5.24325e-08
7.57983e-07
2.21152e-08
-6.09165e-08
7.54845e-07
2.21449e-08
-6.09151e-08
7.5163e-07
2.21603e-08
-6.09625e-08
7.48385e-07
2.22313e-08
-6.09432e-08
7.45095e-07
2.24329e-08
-6.08462e-08
2.26214e-08
-6.06629e-08
3.18032e-07
-6.60828e-08
3.14865e-07
-6.60482e-08
3.11768e-07
-6.60274e-08
3.08811e-07
-6.60053e-08
3.06113e-07
-6.59391e-08
-6.5983e-08
1.77736e-07
3.20704e-08
3.4149e-08
1.75975e-07
3.20778e-08
3.41681e-08
1.74217e-07
3.2131e-08
3.41864e-08
1.72485e-07
3.21567e-08
3.42239e-08
1.70898e-07
3.21113e-08
3.42838e-08
3.21622e-08
3.43397e-08
4.62248e-07
6.0963e-08
2.97371e-08
4.58667e-07
6.09638e-08
2.97294e-08
4.551e-07
6.10113e-08
2.96741e-08
4.51639e-07
6.09916e-08
2.96604e-08
4.48293e-07
6.09119e-08
2.97391e-08
6.07146e-08
2.97442e-08
7.58451e-07
8.31259e-08
2.21672e-08
7.55355e-07
8.31472e-08
2.21984e-08
7.52195e-07
8.32129e-08
2.22154e-08
7.49003e-07
8.32206e-08
2.22815e-08
7.45749e-07
8.31719e-08
2.24534e-08
8.28848e-08
2.26435e-08
9.91301e-07
9.72107e-08
1.3551e-08
9.89848e-07
9.72878e-08
1.35569e-08
9.88296e-07
9.73969e-08
1.35911e-08
9.86671e-07
9.74486e-08
1.37078e-08
9.85039e-07
9.7397e-08
1.39607e-08
9.71945e-08
1.43896e-08
1.13665e-06
1.03251e-07
3.64701e-09
1.13596e-06
1.03334e-07
3.76232e-09
1.13521e-06
1.03442e-07
3.87931e-09
1.13446e-06
1.03513e-07
4.06096e-09
1.13373e-06
1.03513e-07
4.36538e-09
1.035e-07
4.99076e-09
1.19232e-06
1.01884e-07
-7.15223e-09
1.1914e-06
1.01875e-07
-6.84178e-09
1.19041e-06
1.01855e-07
-6.41612e-09
1.18936e-06
1.01862e-07
-5.99702e-09
1.1883e-06
1.0189e-07
-5.54966e-09
1.01985e-07
-4.86702e-09
1.15306e-06
9.29362e-08
-1.61466e-08
1.1515e-06
9.28623e-08
-1.58221e-08
1.14982e-06
9.27745e-08
-1.54796e-08
1.14809e-06
9.27492e-08
-1.50928e-08
1.14633e-06
9.2804e-08
-1.46604e-08
9.29919e-08
-1.41002e-08
1.01501e-06
7.67799e-08
-2.2926e-08
1.01272e-06
7.67349e-08
-2.28217e-08
1.01033e-06
7.66711e-08
-2.26983e-08
1.0079e-06
7.6673e-08
-2.25111e-08
1.00547e-06
7.67671e-08
-2.22312e-08
7.70805e-08
-2.18446e-08
7.8246e-07
5.49469e-08
-2.84664e-08
7.79357e-07
5.49247e-08
-2.84444e-08
7.76194e-07
5.48952e-08
-2.84166e-08
7.73003e-07
5.49505e-08
-2.83468e-08
7.69769e-07
5.51114e-08
-2.81703e-08
5.54488e-08
-2.79705e-08
4.619e-07
2.96825e-08
-3.205e-08
4.58293e-07
2.96734e-08
-3.20574e-08
4.54708e-07
2.96232e-08
-3.21053e-08
4.5123e-07
2.96139e-08
-3.21286e-08
4.47871e-07
2.97024e-08
-3.20782e-08
2.97141e-08
-3.21324e-08
1.6655e-07
-3.46921e-08
1.6488e-07
-3.47052e-08
1.63216e-07
-3.47398e-08
1.616e-07
-3.47758e-08
1.60177e-07
-3.48132e-08
-3.48674e-08
5.43387e-08
3.47358e-08
5.37614e-08
3.47454e-08
5.31712e-08
3.47766e-08
5.25882e-08
3.48068e-08
5.20311e-08
3.4841e-08
3.48855e-08
1.6674e-07
6.61493e-08
1.65099e-07
6.61159e-08
1.63455e-07
6.60949e-08
1.6185e-07
6.60715e-08
1.60423e-07
6.60075e-08
6.60343e-08
3.2494e-07
3.21721e-07
9.15207e-08
3.18565e-07
9.14725e-08
3.15453e-07
9.14272e-08
3.12401e-07
9.13619e-08
3.09484e-07
9.127e-08
3.0681e-07
9.11355e-08
9.11146e-08
4.71115e-07
1.09501e-07
4.66675e-07
1.09464e-07
4.62254e-07
1.09404e-07
4.5791e-07
1.09297e-07
4.53725e-07
1.09163e-07
4.49821e-07
1.09e-07
1.08847e-07
5.82112e-07
5.76861e-07
1.18362e-07
5.71655e-07
1.18373e-07
5.66509e-07
1.18323e-07
5.6149e-07
1.18243e-07
5.5674e-07
1.18115e-07
1.17904e-07
6.23428e-07
1.17398e-07
6.17488e-07
1.17472e-07
6.11847e-07
1.17547e-07
6.06514e-07
1.17579e-07
6.0152e-07
1.17559e-07
1.17471e-07
5.94453e-07
1.07338e-07
5.8866e-07
1.07442e-07
5.83161e-07
1.07566e-07
5.77964e-07
1.07683e-07
5.73085e-07
1.07778e-07
1.07795e-07
4.96073e-07
8.93479e-08
4.91252e-07
8.94419e-08
4.86566e-07
8.95531e-08
4.82064e-07
8.96749e-08
4.77794e-07
8.98166e-08
8.98439e-08
3.48226e-07
6.43577e-08
3.44804e-07
6.44196e-08
3.41441e-07
6.44999e-08
3.38173e-07
6.45953e-08
3.35058e-07
6.47617e-08
6.481e-08
1.77687e-07
3.40977e-08
1.75928e-07
3.41213e-08
1.74176e-07
3.41464e-08
1.72451e-07
3.41914e-08
1.70877e-07
3.42582e-08
3.43252e-08
5.43021e-08
5.37182e-08
5.31248e-08
5.25404e-08
5.19854e-08
)
;

boundaryField
{
    inlet
    {
        type            calculated;
        value           nonuniform List<scalar> 0();
    }
    ami1
    {
        type            cyclicAMI;
        value           nonuniform List<scalar> 0();
    }
    walls
    {
        type            calculated;
        value           nonuniform List<scalar> 
244
(
2.90979e-14
2.43942e-14
1.84387e-14
2.90979e-14
2.43942e-14
1.84387e-14
1.28555e-14
6.40674e-15
-2.43942e-14
-2.90979e-14
2.90979e-14
2.43942e-14
1.84387e-14
1.28555e-14
6.40674e-15
-1.5794e-22
-6.40674e-15
-1.28555e-14
-1.84387e-14
-2.43942e-14
-2.90979e-14
2.90979e-14
2.43942e-14
1.84387e-14
1.28555e-14
6.40674e-15
-1.5794e-22
-6.40674e-15
-1.28555e-14
-1.84387e-14
-2.43942e-14
-2.90979e-14
2.90979e-14
2.43942e-14
1.84387e-14
1.28555e-14
6.40674e-15
1.03398e-22
-6.40674e-15
-1.28555e-14
-1.84387e-14
-2.43942e-14
-2.90979e-14
2.90979e-14
2.43942e-14
1.84387e-14
1.28555e-14
6.40674e-15
-1.5794e-22
-6.40674e-15
-1.28555e-14
-1.84387e-14
-2.43942e-14
-2.90979e-14
-1.5794e-22
-6.40674e-15
-1.28555e-14
-1.84387e-14
-2.43942e-14
-2.90979e-14
2.90979e-14
2.43942e-14
1.84387e-14
1.28555e-14
6.40674e-15
-1.5794e-22
-6.40674e-15
-1.28555e-14
-1.84387e-14
-2.43942e-14
-2.90979e-14
2.90979e-14
2.43942e-14
1.84387e-14
1.28555e-14
6.40674e-15
-1.5794e-22
-6.40674e-15
-1.28555e-14
-1.84387e-14
-2.43942e-14
-2.90979e-14
2.90979e-14
2.43942e-14
1.84387e-14
1.28555e-14
6.40674e-15
-1.5794e-22
-6.40674e-15
-1.28555e-14
-1.84387e-14
-2.43942e-14
-2.90979e-14
2.90979e-14
2.43942e-14
1.84387e-14
1.28555e-14
6.40674e-15
1.03398e-22
-6.40674e-15
-1.28555e-14
-1.84387e-14
-2.43942e-14
-2.90979e-14
2.90979e-14
2.43942e-14
1.84387e-14
1.28555e-14
6.40674e-15
-1.5794e-22
-6.40674e-15
-1.28555e-14
-1.84387e-14
-2.43942e-14
-2.90979e-14
-1.84387e-14
-1.84387e-14
-1.28555e-14
-6.40674e-15
-2.90979e-14
-2.43942e-14
-1.84387e-14
-1.28555e-14
-6.40674e-15
-1.5794e-22
6.40674e-15
1.28555e-14
1.84387e-14
2.43942e-14
2.90979e-14
-2.90979e-14
-2.43942e-14
-1.84387e-14
-1.28555e-14
-6.40674e-15
-1.5794e-22
6.40674e-15
1.28555e-14
1.84387e-14
2.43942e-14
2.90979e-14
-2.90979e-14
-2.43942e-14
-1.84387e-14
-1.28555e-14
-6.40674e-15
-1.57859e-22
6.40674e-15
1.28555e-14
1.84387e-14
2.43942e-14
2.90979e-14
-2.90979e-14
-2.43942e-14
-1.84387e-14
-1.28555e-14
-6.40674e-15
-1.57859e-22
6.40674e-15
1.28555e-14
1.84387e-14
2.43942e-14
2.90979e-14
-2.90979e-14
-2.43942e-14
-1.84387e-14
-1.28555e-14
-6.40674e-15
-4.24802e-22
6.40674e-15
1.28555e-14
1.84387e-14
2.43942e-14
2.90979e-14
-2.90979e-14
-2.43942e-14
-1.84387e-14
-1.28555e-14
-6.40674e-15
-1.58457e-22
6.40674e-15
1.28555e-14
1.84387e-14
2.43942e-14
2.90979e-14
-2.90979e-14
6.40674e-15
1.28555e-14
1.84387e-14
2.43942e-14
2.90979e-14
-2.90979e-14
-2.43942e-14
-6.40674e-15
-1.5794e-22
6.40674e-15
1.28555e-14
1.84387e-14
2.43942e-14
2.90979e-14
-2.90979e-14
-2.43942e-14
-1.84387e-14
-1.28555e-14
-6.40674e-15
-1.57859e-22
6.40674e-15
1.28555e-14
1.84387e-14
2.43942e-14
2.90979e-14
-2.90979e-14
-2.43942e-14
-1.84387e-14
-1.28555e-14
-6.40674e-15
-1.57859e-22
6.40674e-15
1.28555e-14
1.84387e-14
2.43942e-14
2.90979e-14
-2.90979e-14
-2.43942e-14
-1.84387e-14
-1.28555e-14
-6.40674e-15
-4.24802e-22
6.40674e-15
1.28555e-14
1.84387e-14
2.43942e-14
2.90979e-14
-2.90979e-14
-2.43942e-14
-1.84387e-14
-1.28555e-14
-6.40674e-15
-1.58457e-22
6.40674e-15
1.28555e-14
1.84387e-14
2.43942e-14
2.90979e-14
)
;
    }
    ami2
    {
        type            cyclicAMI;
        value           nonuniform List<scalar> 0();
    }
    outlet
    {
        type            calculated;
        value           nonuniform List<scalar> 
121
(
5.13592e-08
1.68885e-07
3.31394e-07
4.72826e-07
5.67192e-07
5.95118e-07
5.50292e-07
4.44211e-07
3.02827e-07
1.58329e-07
5.12758e-08
1.58581e-07
4.4453e-07
7.66759e-07
1.00316e-06
1.14466e-06
1.18749e-06
1.13335e-06
9.83518e-07
7.41847e-07
4.44018e-07
1.68648e-07
3.0341e-07
7.42259e-07
1.13505e-06
1.39672e-06
1.54812e-06
1.59632e-06
1.54501e-06
1.39418e-06
1.13526e-06
7.66502e-07
3.31025e-07
4.44868e-07
9.83593e-07
1.39378e-06
1.65892e-06
1.81159e-06
1.86121e-06
1.81046e-06
1.65915e-06
1.39701e-06
1.00313e-06
4.72697e-07
5.50879e-07
1.13323e-06
1.54468e-06
1.81031e-06
1.96368e-06
2.01426e-06
1.96365e-06
1.81152e-06
1.54823e-06
1.14466e-06
5.67476e-07
5.95522e-07
1.18738e-06
1.59617e-06
1.86096e-06
2.01406e-06
2.06513e-06
2.01413e-06
1.86098e-06
1.5962e-06
1.18741e-06
5.9574e-07
5.67602e-07
1.14455e-06
1.54797e-06
1.81124e-06
1.96327e-06
2.0139e-06
1.96345e-06
1.81024e-06
1.54469e-06
1.13315e-06
5.51147e-07
4.73334e-07
1.0032e-06
1.39641e-06
1.65831e-06
1.80962e-06
1.86049e-06
1.81115e-06
1.65874e-06
1.39366e-06
9.83346e-07
4.45242e-07
3.3193e-07
7.67121e-07
1.13466e-06
1.39294e-06
1.54381e-06
1.59557e-06
1.54777e-06
1.39653e-06
1.13481e-06
7.42318e-07
3.03662e-07
1.69237e-07
4.45506e-07
7.43001e-07
9.83582e-07
1.133e-06
1.1873e-06
1.14468e-06
1.00326e-06
7.66939e-07
4.45075e-07
1.58775e-07
5.14854e-08
1.59018e-07
3.04373e-07
4.46479e-07
5.52673e-07
5.97087e-07
5.6866e-07
4.739e-07
3.32121e-07
1.69229e-07
5.14433e-08
)
;
    }
    procBoundary6to5
    {
        type            processor;
        value           nonuniform List<scalar> 
177
(
-5.48312e-08
3.47313e-08
-1.79261e-07
-3.51328e-07
-8.93718e-08
2.85955e-08
-4.954e-07
-5.93531e-07
-1.17541e-07
-6.16112e-07
-6.91789e-09
-5.70083e-07
3.63683e-09
-4.60941e-07
-3.14506e-07
6.61158e-08
-1.66351e-07
-2.96409e-08
-5.422e-08
-1.66323e-07
2.96288e-08
6.60759e-08
-4.65427e-07
-5.48766e-08
6.1054e-08
-7.82426e-07
-1.01485e-06
-1.15284e-06
-1.19222e-06
-1.13654e-06
-9.73879e-08
-9.89398e-07
2.59697e-08
-7.54591e-07
4.10581e-08
-4.57988e-07
3.21093e-08
-1.77529e-07
-3.14715e-07
2.21275e-08
-7.58244e-07
8.31578e-08
-1.13432e-06
-1.38677e-06
-1.53322e-06
-1.57802e-06
-1.52582e-06
1.60278e-08
-1.37957e-06
-1.13416e-06
-5.34755e-08
-7.78972e-07
2.85093e-08
7.66869e-08
-3.47978e-07
-4.61472e-07
-1.09413e-07
-9.8961e-07
2.60816e-08
-9.73335e-08
-1.37937e-06
-8.07185e-08
-1.63543e-06
-5.88763e-08
-1.78456e-06
-3.3249e-08
-1.83249e-06
5.97609e-08
-5.27428e-09
-1.77631e-06
-5.88182e-08
-1.63551e-06
4.95339e-08
-1.38675e-06
7.28706e-08
-1.01476e-06
9.28632e-08
-4.95544e-07
-5.76089e-07
-1.13646e-06
8.85107e-09
-1.52156e-06
-8.38828e-08
-1.77615e-06
-5.98229e-08
-1.92577e-06
-3.19215e-08
-1.9751e-06
-1.92582e-06
-1.77876e-06
-1.52987e-06
-1.15438e-06
-1.62322e-08
-5.93668e-07
1.17409e-07
-6.22777e-07
-1.17437e-07
-9.67413e-09
-1.19201e-06
-9.51919e-09
-1.01959e-07
-1.57007e-06
8.14278e-08
-1.82018e-06
5.67157e-08
-1.96804e-06
1.74139e-09
2.83772e-08
-2.0245e-06
-1.97502e-06
-1.8263e-06
-1.57407e-06
-1.19315e-06
-6.28762e-07
-6.00191e-07
-1.15436e-06
-1.52984e-06
-1.77861e-06
-1.92555e-06
-1.97491e-06
-1.92571e-06
-1.77623e-06
-1.52176e-06
-1.13731e-06
-5.81152e-07
-5.00818e-07
-1.01721e-06
-1.38441e-06
-1.63031e-06
-1.77592e-06
-1.8261e-06
-1.77868e-06
-1.63055e-06
-1.37651e-06
-9.925e-07
-4.70288e-07
-3.51694e-07
-7.85644e-07
-1.13373e-06
-1.37618e-06
-1.52145e-06
-1.5739e-06
-1.52982e-06
-1.38446e-06
-1.1338e-06
-7.61058e-07
-3.21255e-07
-1.79524e-07
-4.65815e-07
-2.21369e-08
-7.61487e-07
-2.20997e-08
-9.92698e-07
-1.35452e-08
-1.1373e-06
-3.47178e-09
-1.19316e-06
-1.15452e-06
-1.01725e-06
-7.85513e-07
-4.65502e-07
-1.68258e-07
-5.49256e-08
-6.62413e-08
-1.68417e-07
-6.62029e-08
-3.28157e-07
9.15957e-08
-4.7555e-07
-5.87454e-07
1.18314e-07
-6.29617e-07
-6.00539e-07
-5.01009e-07
-3.51703e-07
-1.79478e-07
-5.48965e-08
)
;
    }
}


// ************************************************************************* //
