/*--------------------------------*- C++ -*----------------------------------*\
| =========                 |                                                 |
| \\      /  F ield         | OpenFOAM: The Open Source CFD Toolbox           |
|  \\    /   O peration     | Version:  2212                                  |
|   \\  /    A nd           | Website:  www.openfoam.com                      |
|    \\/     M anipulation  |                                                 |
\*---------------------------------------------------------------------------*/
FoamFile
{
    version     2.0;
    format      ascii;
    arch        "LSB;label=32;scalar=64";
    class       volVectorField;
    location    "1.65";
    object      U;
}
// * * * * * * * * * * * * * * * * * * * * * * * * * * * * * * * * * * * * * //

dimensions      [0 1 -1 0 0 0 0];

internalField   nonuniform List<vector> 
678
(
(0.021573 1.26565e-06 4.9661e-05)
(0.0213321 1.03506e-07 4.62312e-05)
(0.0211102 -1.99638e-06 4.28265e-05)
(0.0208778 -5.94094e-06 3.98246e-05)
(0.0206867 -7.37659e-06 2.97442e-05)
(0.0203284 -1.65798e-05 2.03515e-05)
(0.0366049 -0.000165276 0.0001045)
(0.0362277 -0.000156709 9.16817e-05)
(0.0358746 -0.000152375 8.17861e-05)
(0.0355143 -0.000153691 7.27734e-05)
(0.0352063 -0.000143701 5.6716e-05)
(0.0346703 -0.000150502 3.95995e-05)
(0.0508177 -0.00040808 5.64219e-05)
(0.0502949 -0.000397454 4.38252e-05)
(0.0497936 -0.000382736 3.24056e-05)
(0.0492956 -0.000366124 2.2934e-05)
(0.0488756 -0.000335673 8.94141e-06)
(0.0481734 -0.000314178 6.59129e-06)
(0.0585571 -0.000654401 -3.78488e-05)
(0.0579829 -0.000622161 -4.41027e-05)
(0.0574177 -0.000579175 -5.1728e-05)
(0.0569428 -0.000526223 -5.71118e-05)
(0.0561732 -0.00047045 -4.45089e-05)
(0.0629301 -0.000893138 -0.000117503)
(0.062319 -0.000817474 -0.000120884)
(0.06173 -0.000741014 -0.000122684)
(0.0612362 -0.000661749 -0.000115372)
(0.0604477 -0.000569251 -8.90678e-05)
(0.0631267 -0.000818895 -0.000183195)
(0.0625477 -0.000739922 -0.00017543)
(0.0620426 -0.000661995 -0.000158382)
(0.0612736 -0.000559624 -0.000120722)
(0.0604654 -0.000609842 -0.000180601)
(0.0599005 -0.000589405 -0.000168801)
(0.0593947 -0.000548222 -0.000141522)
(0.0586467 -0.000463682 -0.000104379)
(0.0544809 -0.000435883 -9.86243e-05)
(0.0539359 -0.000424845 -8.8783e-05)
(0.0534625 -0.000383067 -6.52855e-05)
(0.0527737 -0.000318405 -5.15907e-05)
(0.0454785 -0.000267785 -5.89638e-05)
(0.0450156 -0.000254681 -5.21328e-05)
(0.0446197 -0.000217232 -3.9309e-05)
(0.0440208 -0.000189674 -4.30654e-05)
(0.0339755 -9.79617e-05 2.53876e-05)
(0.0336162 -9.30253e-05 2.59179e-05)
(0.0332715 -9.01926e-05 2.05476e-05)
(0.0329856 -8.068e-05 5.97833e-06)
(0.0325034 -8.51788e-05 -1.58374e-05)
(0.0213414 -4.62552e-05 1.40033e-07)
(0.0211097 -4.43833e-05 -1.36748e-08)
(0.020872 -4.30166e-05 -3.37717e-06)
(0.0206749 -3.41634e-05 -5.23896e-06)
(0.0202954 -2.54103e-05 -1.50991e-05)
(0.0339653 3.21058e-05 9.34002e-05)
(0.0336326 3.143e-05 9.01985e-05)
(0.0332994 2.23267e-05 9.22617e-05)
(0.0330177 6.71268e-06 8.34574e-05)
(0.0325551 -1.49096e-05 8.47813e-05)
(0.0658757 -0.000263817 0.0002803)
(0.0653341 -0.00026438 0.000281088)
(0.0648059 -0.000267139 0.000283602)
(0.0642805 -0.000270544 0.000280508)
(0.0638487 -0.000270708 0.000264942)
(0.0631535 -0.000274263 0.000231818)
(0.0877661 -0.000783008 0.000302204)
(0.0874135 -0.000779609 0.000306453)
(0.087041 -0.000779711 0.000311264)
(0.0867278 -0.000757637 0.000299538)
(0.08618 -0.000682833 0.000255988)
(0.0982101 -0.00110545 0.00015491)
(0.0979871 -0.00108993 0.00016961)
(0.0977524 -0.00107797 0.000183884)
(0.0975428 -0.00103782 0.000188204)
(0.0971889 -0.000934453 0.000173089)
(0.102709 -0.00130492 8.32486e-05)
(0.102569 -0.00127833 9.54412e-05)
(0.102421 -0.00124668 0.000108265)
(0.102283 -0.00118531 0.000118283)
(0.102049 -0.0010787 0.000114782)
(0.103433 -0.00129143 1.03554e-05)
(0.103356 -0.00126864 6.76071e-06)
(0.103269 -0.00122657 6.40424e-06)
(0.103195 -0.00116217 1.09572e-05)
(0.103062 -0.00105742 1.23053e-05)
(0.10129 -0.00108548 -0.000146475)
(0.101232 -0.00107827 -0.000160242)
(0.101172 -0.00105177 -0.000165996)
(0.101124 -0.00100213 -0.000163836)
(0.10104 -0.000890757 -0.000150164)
(0.095783 -0.000846103 -0.000343064)
(0.0956394 -0.000829559 -0.000345578)
(0.0955151 -0.000806999 -0.000347763)
(0.0952858 -0.0007289 -0.000324232)
(0.0846268 -0.000620017 -0.000438504)
(0.0842602 -0.000611132 -0.00043927)
(0.0839301 -0.000605514 -0.000443942)
(0.0833799 -0.000556056 -0.00042092)
(0.064798 -0.000270698 -0.000255369)
(0.0642578 -0.00027468 -0.000261772)
(0.0637967 -0.000270394 -0.00026892)
(0.0630807 -0.000244837 -0.000276595)
(0.0362653 -9.14637e-05 -0.000158791)
(0.0358862 -9.18697e-05 -0.000157672)
(0.0355064 -8.81325e-05 -0.000155983)
(0.0351848 -7.24294e-05 -0.000142476)
(0.0346216 -5.25789e-05 -0.000148687)
(0.0455156 -4.14587e-05 0.000253763)
(0.0450715 -3.23186e-05 0.000236666)
(0.0446937 -2.54157e-05 0.000205068)
(0.0441056 -3.46107e-05 0.000184735)
(0.0850543 -0.000432085 0.000616835)
(0.0846899 -0.000437306 0.000617725)
(0.0843037 -0.000442971 0.000618188)
(0.0839815 -0.000440585 0.000604399)
(0.0834263 -0.000411691 0.000544559)
(0.106739 -0.000989404 0.000698234)
(0.106776 -0.000995257 0.000704471)
(0.106801 -0.000999114 0.000710033)
(0.10681 -0.000981365 0.000696616)
(0.106787 -0.000890263 0.000623612)
(0.116065 -0.00125641 0.000437316)
(0.116244 -0.00124556 0.000444227)
(0.116424 -0.00122661 0.000450188)
(0.116576 -0.00118651 0.000447778)
(0.116795 -0.0010866 0.000420108)
(0.119973 -0.00136663 0.000241049)
(0.12022 -0.00134657 0.000251111)
(0.120469 -0.00131292 0.000260494)
(0.120683 -0.00125776 0.000264487)
(0.12099 -0.00115929 0.000252708)
(0.120808 -0.00132422 7.78619e-06)
(0.121102 -0.00130121 1.21236e-05)
(0.121395 -0.00126219 1.6644e-05)
(0.121656 -0.00120169 2.14632e-05)
(0.122029 -0.00110433 2.01003e-05)
(0.119426 -0.00114445 -0.000317374)
(0.119743 -0.00112986 -0.000319746)
(0.120059 -0.00110145 -0.00031773)
(0.120339 -0.00105599 -0.000311218)
(0.120738 -0.000966502 -0.000297435)
(0.115495 -0.000938215 -0.000711666)
(0.115759 -0.000933856 -0.00071416)
(0.116017 -0.000919245 -0.00071066)
(0.116245 -0.000887292 -0.000697305)
(0.116571 -0.000811105 -0.000651652)
(0.10672 -0.000706841 -0.000992243)
(0.106767 -0.000719063 -0.00100162)
(0.106793 -0.000717092 -0.000996691)
(0.106818 -0.000699337 -0.000974931)
(0.106808 -0.000634279 -0.000894322)
(0.0873709 -0.000306604 -0.000772991)
(0.0870193 -0.000315005 -0.000770077)
(0.0866985 -0.000312709 -0.000755199)
(0.0861511 -0.000280029 -0.00069316)
(0.0503345 -4.64084e-05 -0.000393224)
(0.0498097 -5.68096e-05 -0.000396544)
(0.0492914 -5.75311e-05 -0.000384668)
(0.0488435 -4.15297e-05 -0.00034613)
(0.0481199 -3.22563e-05 -0.000315186)
(0.054544 -9.039e-05 0.000431097)
(0.0539998 -7.37046e-05 0.000410399)
(0.0535388 -5.38402e-05 0.000368779)
(0.0528517 -4.6173e-05 0.000310595)
(0.0958064 -0.000335117 0.00083057)
(0.0956605 -0.000346355 0.000823986)
(0.095526 -0.000347141 0.000797046)
(0.095293 -0.000319511 0.000711582)
(0.115479 -0.000705288 0.000923914)
(0.115738 -0.000711775 0.000920017)
(0.115997 -0.000713761 0.000907687)
(0.11622 -0.000704983 0.000880226)
(0.116542 -0.000658948 0.000806459)
(0.123951 -0.00087351 0.000597484)
(0.124322 -0.00086695 0.000592595)
(0.124692 -0.000858804 0.000587827)
(0.125023 -0.000838501 0.000574455)
(0.125494 -0.000789548 0.000544657)
(0.127633 -0.000934234 0.000308261)
(0.128036 -0.000917844 0.000308665)
(0.128436 -0.000898025 0.000308598)
(0.128796 -0.000865399 0.000303954)
(0.129302 -0.000812262 0.000292254)
(0.128592 -0.000878451 -3.39261e-05)
(0.129011 -0.000859919 -3.31291e-05)
(0.129427 -0.000837067 -3.19562e-05)
(0.129803 -0.000801898 -2.95182e-05)
(0.13033 -0.000751972 -2.76569e-05)
(0.127052 -0.0007718 -0.000433461)
(0.127483 -0.000761565 -0.000433681)
(0.127903 -0.000748836 -0.000432388)
(0.128317 -0.000727428 -0.000426535)
(0.128692 -0.000694898 -0.000414379)
(0.129218 -0.000650488 -0.000395985)
(0.123957 -0.000608366 -0.000869034)
(0.124333 -0.000600751 -0.000863296)
(0.124704 -0.00059091 -0.000854266)
(0.125036 -0.000572829 -0.000832956)
(0.12551 -0.00054082 -0.00078611)
(0.116065 -0.000445177 -0.00124899)
(0.116254 -0.000448225 -0.00123978)
(0.116432 -0.000446729 -0.00121758)
(0.116595 -0.00044375 -0.00118349)
(0.116815 -0.000420967 -0.00109458)
(0.0981987 -0.000161881 -0.00109715)
(0.0979775 -0.000181667 -0.00109582)
(0.0977428 -0.00019602 -0.00108117)
(0.0975363 -0.000202391 -0.00103805)
(0.0971862 -0.000193159 -0.000947184)
(0.0585718 2.61146e-05 -0.0006563)
(0.0579836 1.33917e-05 -0.000629536)
(0.0574223 9.99332e-06 -0.000588466)
(0.0569293 1.6792e-05 -0.000531633)
(0.0561578 1.37356e-05 -0.000468432)
(0.0611067 -0.000180144 0.000624756)
(0.0605332 -0.000180006 0.000612388)
(0.0599647 -0.000166409 0.000587244)
(0.0594566 -0.000139809 0.00054307)
(0.0587091 -0.000103771 0.000458686)
(0.101283 -0.000144066 0.00107963)
(0.101227 -0.000160887 0.00107029)
(0.101165 -0.000170146 0.00104384)
(0.101116 -0.000169089 0.000994405)
(0.101029 -0.000155265 0.000883843)
(0.119089 -0.000313929 0.00114843)
(0.119411 -0.000323934 0.00114499)
(0.119722 -0.000325937 0.0011294)
(0.120035 -0.000323596 0.00109817)
(0.120314 -0.000316142 0.0010507)
(0.120712 -0.000299926 0.000958624)
(0.127041 -0.000441861 0.000759202)
(0.12747 -0.000438955 0.000750844)
(0.12789 -0.000433851 0.000742372)
(0.128306 -0.000425891 0.000725301)
(0.128682 -0.000412294 0.000695932)
(0.129208 -0.000392453 0.000653146)
(0.130643 -0.000494555 0.000382054)
(0.131097 -0.000485841 0.000380144)
(0.131541 -0.000474555 0.000377538)
(0.131976 -0.000460618 0.000371042)
(0.132377 -0.000442013 0.000359133)
(0.132911 -0.000418768 0.000342289)
(0.131672 -0.000459763 -3.41572e-05)
(0.132131 -0.000451097 -3.41254e-05)
(0.132579 -0.000440491 -3.38118e-05)
(0.13302 -0.000425781 -3.2557e-05)
(0.133429 -0.000408025 -3.07139e-05)
(0.133972 -0.000396737 -2.94599e-05)
(0.130646 -0.000390969 -0.000483709)
(0.131098 -0.000386089 -0.000480478)
(0.13154 -0.000379077 -0.000475431)
(0.131975 -0.00036894 -0.000465134)
(0.132376 -0.00035458 -0.000448526)
(0.13291 -0.000336387 -0.000426318)
(0.12722 -0.000315152 -0.000939449)
(0.127632 -0.000314983 -0.000929852)
(0.128035 -0.000312356 -0.000920166)
(0.128434 -0.000307603 -0.000900085)
(0.128793 -0.000299626 -0.000866587)
(0.129296 -0.000286564 -0.00081433)
(0.119714 -0.000237971 -0.00137678)
(0.119972 -0.000246766 -0.00136596)
(0.120224 -0.000252631 -0.00134461)
(0.120473 -0.000256702 -0.00130783)
(0.120693 -0.00025963 -0.00125731)
(0.120996 -0.000250589 -0.00117027)
(0.102848 -8.23362e-05 -0.00132717)
(0.102717 -9.62728e-05 -0.00130927)
(0.102579 -0.000110592 -0.00129269)
(0.102419 -0.000121628 -0.00125421)
(0.102284 -0.000130293 -0.00118642)
(0.102048 -0.000127867 -0.00108818)
(0.0629431 0.000100337 -0.000898405)
(0.0623319 9.33837e-05 -0.000816261)
(0.0617565 8.76864e-05 -0.000733593)
(0.0612554 8.08426e-05 -0.000652037)
(0.060478 6.21982e-05 -0.000558159)
(0.0637962 -0.000189096 0.000918099)
(0.0631832 -0.000188403 0.000826809)
(0.0625906 -0.000180162 0.000744008)
(0.0620924 -0.000161848 0.000663706)
(0.0613152 -0.000124264 0.000560141)
(0.103418 8.44916e-06 0.00128605)
(0.103342 7.00316e-06 0.00125894)
(0.103258 4.8597e-06 0.0012265)
(0.103181 6.88222e-06 0.00116546)
(0.103053 8.25246e-06 0.00104651)
(0.1202 -8.09961e-07 0.00134672)
(0.1205 -1.66529e-06 0.00134681)
(0.1208 2.35574e-06 0.00133305)
(0.121092 8.8381e-06 0.00130328)
(0.121388 1.38628e-05 0.001262)
(0.121646 1.9004e-05 0.00120265)
(0.122018 1.87757e-05 0.00110605)
(0.127731 -4.26351e-05 0.000894173)
(0.128161 -4.26631e-05 0.000887951)
(0.128585 -3.98458e-05 0.000880283)
(0.129001 -3.51821e-05 0.000865919)
(0.129415 -3.05419e-05 0.000841604)
(0.129791 -2.57126e-05 0.000805425)
(0.130313 -2.23181e-05 0.000755199)
(0.131204 -3.64275e-05 0.000448876)
(0.13167 -3.67678e-05 0.000448095)
(0.132126 -3.4822e-05 0.000448196)
(0.132572 -3.15052e-05 0.000444219)
(0.133013 -2.82071e-05 0.000433537)
(0.13342 -2.5346e-05 0.00041811)
(0.13396 -2.36481e-05 0.000407539)
(0.132699 -1.82293e-06 -2.44851e-06)
(0.133162 -2.11707e-07 6.56185e-08)
(0.133616 2.04581e-06 2.06376e-06)
(0.134066 3.891e-06 3.06151e-06)
(0.134472 4.68446e-06 3.33538e-06)
(0.135045 4.87693e-06 3.0872e-06)
(0.131666 3.1912e-05 -0.000451297)
(0.132121 3.22551e-05 -0.000445673)
(0.132569 3.34056e-05 -0.000439391)
(0.133011 3.40946e-05 -0.00042765)
(0.13342 3.40289e-05 -0.000411668)
(0.133963 3.40142e-05 -0.000401347)
(0.128158 3.31602e-05 -0.000885643)
(0.128581 3.30586e-05 -0.0008732)
(0.128999 3.44618e-05 -0.000861281)
(0.129414 3.49163e-05 -0.000839064)
(0.129791 3.31559e-05 -0.000803675)
(0.130314 3.11276e-05 -0.000753712)
(0.120507 -1.30033e-05 -0.00133714)
(0.120802 -1.2961e-05 -0.00132365)
(0.121095 -1.18826e-05 -0.00129823)
(0.12139 -1.19095e-05 -0.00125746)
(0.121652 -1.52529e-05 -0.00119889)
(0.122019 -1.53919e-05 -0.00110397)
(0.103516 -2.76499e-05 -0.00131515)
(0.103444 -2.46191e-05 -0.00129278)
(0.103366 -1.9165e-05 -0.00127331)
(0.103271 -1.58144e-05 -0.00123345)
(0.103193 -1.91056e-05 -0.00116169)
(0.103055 -2.00066e-05 -0.00105123)
(0.0644038 0.000182455 -0.00100529)
(0.0637653 0.000174385 -0.000914058)
(0.0631613 0.000161883 -0.000811354)
(0.0625921 0.000147633 -0.000720146)
(0.0620922 0.00012858 -0.000638773)
(0.0613376 9.52863e-05 -0.000538605)
(0.0636256 -0.000109593 0.000982283)
(0.0629778 -0.00011987 0.000897599)
(0.062366 -0.000130653 0.000815474)
(0.0617845 -0.000132383 0.00073665)
(0.061278 -0.000122243 0.000660039)
(0.0604914 -9.52129e-05 0.000570075)
(0.102847 5.98407e-05 0.00131874)
(0.102713 7.41841e-05 0.00130233)
(0.102572 9.0827e-05 0.00128573)
(0.10241 0.000103525 0.00124736)
(0.102275 0.000111856 0.0011811)
(0.102039 0.000109841 0.00108408)
(0.11971 0.000222375 0.00137227)
(0.119963 0.000236201 0.00136249)
(0.120212 0.000250403 0.0013411)
(0.120459 0.000259838 0.00130464)
(0.120677 0.000263993 0.00125443)
(0.120976 0.000253629 0.00116714)
(0.127209 0.00030606 0.000931761)
(0.127617 0.000308542 0.000924497)
(0.128018 0.000312511 0.00091789)
(0.128417 0.000313032 0.000899687)
(0.128776 0.000308169 0.000867178)
(0.129276 0.000296015 0.000815108)
(0.130627 0.000388228 0.000482678)
(0.131075 0.000383595 0.000478558)
(0.131516 0.000379691 0.000474367)
(0.131951 0.000372787 0.00046533)
(0.132352 0.000360728 0.000449752)
(0.132884 0.000343899 0.000428118)
(0.131658 0.000452526 3.64405e-05)
(0.132112 0.000447834 3.55992e-05)
(0.132558 0.000442889 3.49502e-05)
(0.132999 0.000432692 3.39961e-05)
(0.133407 0.000417884 3.2753e-05)
(0.133949 0.000407924 3.18549e-05)
(0.130638 0.000481425 -0.000381081)
(0.131086 0.000478895 -0.000378698)
(0.131526 0.000476013 -0.000376027)
(0.131961 0.000467957 -0.000369118)
(0.132363 0.000453051 -0.000356561)
(0.132896 0.000431636 -0.000339262)
(0.127046 0.000425911 -0.000756073)
(0.127468 0.000427396 -0.000747509)
(0.127887 0.000430733 -0.000741057)
(0.128304 0.000429421 -0.000725594)
(0.128681 0.000419713 -0.000696454)
(0.129203 0.00040155 -0.00065302)
(0.119108 0.00029949 -0.00114726)
(0.119418 0.000308392 -0.00113951)
(0.11973 0.000315745 -0.00112382)
(0.120042 0.000319096 -0.00109408)
(0.120323 0.000314737 -0.00104754)
(0.120714 0.000299699 -0.000955885)
(0.101365 0.000117117 -0.0010921)
(0.101306 0.000130311 -0.00107803)
(0.101248 0.000147412 -0.00107496)
(0.101177 0.000157141 -0.00105314)
(0.101121 0.000153719 -0.000995958)
(0.101022 0.000139278 -0.000881075)
(0.0616456 0.000179431 -0.000657125)
(0.0610755 0.000171314 -0.000628044)
(0.06051 0.000155737 -0.000596204)
(0.0599579 0.000135174 -0.000560327)
(0.059461 0.000109189 -0.000516403)
(0.0587378 7.7734e-05 -0.000439372)
(0.0591983 -3.87923e-05 0.000680705)
(0.0586077 -4.49166e-05 0.000653363)
(0.0580364 -5.43032e-05 0.000615093)
(0.0574843 -6.20289e-05 0.000571887)
(0.0569971 -6.54558e-05 0.000523344)
(0.0562336 -5.04983e-05 0.000471276)
(0.0984415 0.000125788 0.00110782)
(0.0982238 0.0001407 0.0010981)
(0.0979987 0.000159688 0.00109774)
(0.0977587 0.000171623 0.00107836)
(0.0975474 0.000175336 0.00103109)
(0.0971927 0.000166492 0.000938525)
(0.115869 0.000417211 0.00125278)
(0.116053 0.000427679 0.00124666)
(0.116233 0.000439713 0.00123856)
(0.116406 0.000446169 0.00121491)
(0.116562 0.000445597 0.00117766)
(0.116768 0.000420238 0.00108584)
(0.123561 0.000595308 0.000866564)
(0.123929 0.000595784 0.000864567)
(0.124295 0.000600492 0.000866445)
(0.12466 0.000597966 0.000858642)
(0.124988 0.000582798 0.000836011)
(0.125447 0.000549598 0.000786277)
(0.127022 0.00075808 0.000433026)
(0.12744 0.000749946 0.000432743)
(0.127854 0.000743914 0.000433691)
(0.128267 0.000729357 0.000430156)
(0.128641 0.000700912 0.000419021)
(0.129159 0.000657201 0.000399901)
(0.128143 0.000883753 4.25903e-05)
(0.128561 0.000872538 4.05907e-05)
(0.128975 0.000861809 3.88652e-05)
(0.129387 0.000841495 3.66619e-05)
(0.129761 0.000807613 3.32157e-05)
(0.130281 0.000757738 3.02609e-05)
(0.127213 0.000933499 -0.00030126)
(0.127618 0.000925815 -0.000304235)
(0.128017 0.000918874 -0.000308165)
(0.128414 0.00090096 -0.000308423)
(0.128772 0.000868953 -0.000302905)
(0.12927 0.000816941 -0.000290361)
(0.123581 0.000863929 -0.000594476)
(0.123953 0.000863378 -0.000594857)
(0.124322 0.000866761 -0.000599337)
(0.124689 0.000860157 -0.00059631)
(0.125019 0.000838101 -0.000580071)
(0.12548 0.000788701 -0.000546667)
(0.115243 0.000689263 -0.000922715)
(0.115498 0.00069673 -0.00092305)
(0.115754 0.000706719 -0.000925754)
(0.116002 0.000708071 -0.000914307)
(0.116227 0.000696256 -0.000883466)
(0.116531 0.00065172 -0.000810244)
(0.096088 0.000315283 -0.000852132)
(0.0959511 0.000325271 -0.000850277)
(0.0958052 0.000339624 -0.000858725)
(0.0956484 0.000344094 -0.000849419)
(0.0955075 0.000335643 -0.000809148)
(0.0952691 0.000307872 -0.00072061)
(0.0555983 0.000102544 -0.000431987)
(0.0550589 9.13443e-05 -0.000430467)
(0.0545264 7.69604e-05 -0.000415894)
(0.054013 6.04164e-05 -0.000391891)
(0.0535548 4.16826e-05 -0.000354265)
(0.0528961 3.56955e-05 -0.000302601)
(0.0508666 4.26076e-05 0.000406017)
(0.0503559 3.43043e-05 0.000396962)
(0.0498623 2.41922e-05 0.000382374)
(0.0493701 1.26308e-05 0.000364115)
(0.0489462 -1.94499e-06 0.00033409)
(0.0482514 -7.92878e-07 0.000315271)
(0.0881314 0.000275731 0.000779227)
(0.0877882 0.000283396 0.000780592)
(0.0874356 0.000291905 0.00078427)
(0.0870787 0.000291112 0.000776128)
(0.0867567 0.000276945 0.00074909)
(0.0862206 0.000240885 0.000680631)
(0.106684 0.000674843 0.000980471)
(0.106727 0.000683427 0.000984631)
(0.106757 0.000695655 0.00099244)
(0.106771 0.000692856 0.00098345)
(0.106781 0.000673665 0.000957699)
(0.106751 0.000609406 0.000876675)
(0.115212 0.00091364 0.000692824)
(0.115461 0.000915146 0.000700028)
(0.115708 0.000914455 0.000706741)
(0.115952 0.000900807 0.000705694)
(0.116173 0.000874928 0.00069616)
(0.116471 0.00080399 0.000652113)
(0.119079 0.00114142 0.000308196)
(0.119382 0.00113283 0.000315759)
(0.119684 0.00111731 0.000322341)
(0.119989 0.00108759 0.00032437)
(0.120263 0.00104013 0.0003186)
(0.120646 0.000948646 0.00030257)
(0.120492 0.00132758 -2.68812e-06)
(0.120781 0.00131451 -3.77018e-06)
(0.121067 0.00128902 -4.74062e-06)
(0.121358 0.00124941 -6.08846e-06)
(0.121612 0.0011911 -9.9919e-06)
(0.121973 0.0010943 -1.05193e-05)
(0.119708 0.00136555 -0.00022599)
(0.119958 0.00135392 -0.000236208)
(0.120206 0.00133212 -0.000246586)
(0.12045 0.00129566 -0.000253791)
(0.120667 0.00124513 -0.0002568)
(0.120961 0.00115629 -0.000246686)
(0.115875 0.00124592 -0.000423443)
(0.116061 0.0012395 -0.000433064)
(0.116243 0.0012324 -0.000444005)
(0.116417 0.00120963 -0.00044889)
(0.116573 0.001171 -0.000445701)
(0.116778 0.00107953 -0.000419473)
(0.106692 0.000977862 -0.000692148)
(0.106735 0.000980734 -0.000699694)
(0.106765 0.000987605 -0.000710421)
(0.106783 0.000978053 -0.000705881)
(0.106794 0.000952219 -0.00068468)
(0.106764 0.000871569 -0.000618673)
(0.0853665 0.000428866 -0.000621745)
(0.0850184 0.000426932 -0.000620865)
(0.0846586 0.000434105 -0.000627296)
(0.0842952 0.000434252 -0.000622288)
(0.0839668 0.000425068 -0.000600129)
(0.0834329 0.000397053 -0.000539277)
(0.0464615 6.03647e-05 -0.00026859)
(0.0459937 5.07165e-05 -0.00026437)
(0.0455399 4.2723e-05 -0.000253076)
(0.0450978 3.50072e-05 -0.000236789)
(0.0447157 2.46282e-05 -0.000204793)
(0.0441422 3.18262e-05 -0.000184131)
(0.0366677 8.88949e-05 0.000162071)
(0.0363 8.16524e-05 0.00015962)
(0.0359448 7.36508e-05 0.00015876)
(0.0355799 6.15023e-05 0.000157468)
(0.0352719 4.48954e-05 0.000145924)
(0.0347425 3.20584e-05 0.000152659)
(0.0659259 0.000255651 0.000259547)
(0.0654096 0.000258154 0.000264215)
(0.0649063 0.000265492 0.000277547)
(0.0643975 0.000260545 0.000282889)
(0.0639685 0.000242295 0.000280097)
(0.0632922 0.000213615 0.000280951)
(0.085416 0.000604619 0.000440999)
(0.0850731 0.000601623 0.000438929)
(0.0847188 0.00060607 0.000445006)
(0.0843623 0.000601837 0.000444902)
(0.0840376 0.000587709 0.000440843)
(0.0835097 0.000526126 0.00040964)
(0.0961067 0.000836008 0.000322892)
(0.0959706 0.000833111 0.000333627)
(0.0958272 0.000841234 0.000348306)
(0.0956686 0.000833212 0.000353188)
(0.0955276 0.000795209 0.000345035)
(0.095292 0.000707288 0.000315733)
(0.101363 0.00107476 0.000122776)
(0.101303 0.00106129 0.000136866)
(0.101243 0.00105829 0.000155458)
(0.101169 0.0010375 0.000167416)
(0.101111 0.000982412 0.000164813)
(0.101008 0.000869165 0.000149807)
(0.103515 0.00129711 -2.15013e-05)
(0.103442 0.00127901 -1.74232e-05)
(0.103361 0.00124882 -1.23263e-05)
(0.10327 0.00121079 -7.44446e-06)
(0.103185 0.00114724 -8.20376e-06)
(0.103045 0.00103031 -9.31065e-06)
(0.102861 0.00131096 -7.76096e-05)
(0.102729 0.00129042 -8.80186e-05)
(0.102589 0.00127087 -0.000100751)
(0.102428 0.00123143 -0.000110846)
(0.10229 0.00116479 -0.000117505)
(0.10205 0.00106787 -0.00011435)
(0.0984453 0.00109814 -0.000144484)
(0.0982279 0.00108646 -0.000157834)
(0.0980013 0.0010837 -0.000174902)
(0.0977636 0.00106322 -0.000185181)
(0.097552 0.00101558 -0.000187273)
(0.0971981 0.00092519 -0.000176474)
(0.0881158 0.000770283 -0.000299832)
(0.0877715 0.000770816 -0.000306717)
(0.0874161 0.000771785 -0.000312337)
(0.0870591 0.000763116 -0.000309661)
(0.0867355 0.000737141 -0.000294563)
(0.0862002 0.000668197 -0.000254518)
(0.0658776 0.000245375 -0.00028111)
(0.065359 0.000249883 -0.000283392)
(0.0648512 0.000262762 -0.000289252)
(0.064341 0.000268746 -0.0002832)
(0.0639099 0.000266804 -0.000263316)
(0.063231 0.00026969 -0.000230234)
(0.0343621 -3.69297e-05 -9.72197e-05)
(0.0340129 -3.58282e-05 -9.65394e-05)
(0.0336766 -2.86875e-05 -9.73596e-05)
(0.0333329 -1.97028e-05 -9.63163e-05)
(0.0330474 -6.93753e-06 -8.39377e-05)
(0.0325948 1.35753e-05 -8.43756e-05)
(0.0216206 4.25725e-05 6.43409e-07)
(0.0213917 4.07198e-05 2.57717e-06)
(0.0211638 3.78559e-05 4.90752e-06)
(0.0209224 3.34247e-05 7.87357e-06)
(0.0207301 2.23697e-05 9.41424e-06)
(0.0203783 1.54163e-05 1.90786e-05)
(0.0343984 8.90541e-05 -1.85933e-05)
(0.034055 8.7916e-05 -1.8035e-05)
(0.033724 8.90018e-05 -1.15411e-05)
(0.0333835 8.88086e-05 -3.38821e-06)
(0.0330985 7.78739e-05 7.73541e-06)
(0.0326448 7.85226e-05 2.32007e-05)
(0.0474662 0.000251472 9.66976e-05)
(0.0470105 0.00025748 8.46266e-05)
(0.0465363 0.000259968 7.39228e-05)
(0.0460737 0.000255806 6.52878e-05)
(0.0456308 0.000244846 5.79748e-05)
(0.0451913 0.000229237 5.00292e-05)
(0.0448154 0.000198871 3.8809e-05)
(0.0442455 0.000179676 4.37731e-05)
(0.056246 0.000412423 0.000117578)
(0.0557027 0.000420412 0.000110495)
(0.0551738 0.000419787 0.000102905)
(0.0546526 0.000405146 9.07087e-05)
(0.0541475 0.000380912 7.446e-05)
(0.053697 0.000344423 5.42467e-05)
(0.0530431 0.000296328 4.66417e-05)
(0.0623272 0.000688546 0.000182009)
(0.0617538 0.000644242 0.000181478)
(0.0611964 0.0006142 0.000178007)
(0.0606445 0.000581592 0.000165302)
(0.0601027 0.000545414 0.000147049)
(0.0596155 0.000502583 0.000122415)
(0.0589004 0.000429908 9.14173e-05)
(0.0644989 0.00099212 0.000182063)
(0.0638699 0.000906077 0.000179103)
(0.0632802 0.000801856 0.000170618)
(0.0627067 0.000708028 0.000159011)
(0.0622251 0.000625355 0.000141731)
(0.0614763 0.000527953 0.000108452)
(0.0636677 0.000974154 9.74974e-05)
(0.0630319 0.000885209 0.000103413)
(0.0624317 0.000798323 0.000108576)
(0.0618629 0.00071357 0.000108423)
(0.0613691 0.000633632 0.000100432)
(0.0606042 0.000544832 7.85239e-05)
(0.0592241 0.000670225 2.18211e-05)
(0.0586405 0.000641437 2.63739e-05)
(0.0580758 0.000601848 3.34481e-05)
(0.0575305 0.000556901 4.0072e-05)
(0.0570507 0.00050632 4.48768e-05)
(0.0563008 0.000454436 3.38819e-05)
(0.0508698 0.000396879 -6.07426e-05)
(0.0503634 0.000386629 -5.20749e-05)
(0.0498759 0.000371089 -4.19933e-05)
(0.0493862 0.000352037 -3.03635e-05)
(0.0489679 0.00032146 -1.49889e-05)
(0.0482792 0.00030317 -1.29133e-05)
(0.0366575 0.000156762 -0.000107514)
(0.0362901 0.000154007 -9.88156e-05)
(0.0359357 0.000152253 -8.88899e-05)
(0.0355721 0.000149981 -7.50851e-05)
(0.0352661 0.000137345 -5.64414e-05)
(0.0347409 0.000144836 -4.04853e-05)
(0.0216074 -3.70891e-06 -5.14425e-05)
(0.0213757 -1.46818e-06 -4.93425e-05)
(0.0211458 1.5061e-06 -4.59949e-05)
(0.0209035 5.0669e-06 -4.07418e-05)
(0.0207117 6.54029e-06 -2.96859e-05)
(0.0203617 1.55927e-05 -2.08207e-05)
)
;

boundaryField
{
    inlet
    {
        type            fixedValue;
        value           nonuniform List<vector> 0();
    }
    ami1
    {
        type            cyclicAMI;
        value           nonuniform List<vector> 0();
    }
    walls
    {
        type            noSlip;
    }
    ami2
    {
        type            cyclicAMI;
        value           nonuniform List<vector> 0();
    }
    outlet
    {
        type            zeroGradient;
    }
    procBoundary6to5
    {
        type            processor;
        value           nonuniform List<vector> 
177
(
(0.021835 2.40404e-06 5.16974e-05)
(0.0343285 2.35411e-05 0.000100275)
(0.0370018 -0.000168147 0.000112789)
(0.0513304 -0.000413947 6.35136e-05)
(0.0591608 -0.000678287 -3.24132e-05)
(0.0881228 -0.000798786 0.000305815)
(0.0591608 -0.000678287 -3.24132e-05)
(0.0635868 -0.000977082 -0.000111765)
(0.0637352 -0.00090794 -0.000187515)
(0.0637352 -0.00090794 -0.000187515)
(0.0637352 -0.00090794 -0.000187515)
(0.0610388 -0.000622238 -0.000180458)
(0.0610388 -0.000622238 -0.000180458)
(0.0550449 -0.000430054 -0.000100592)
(0.0459629 -0.000268195 -6.31453e-05)
(0.0459629 -0.000268195 -6.31453e-05)
(0.0343375 -0.000100609 2.2359e-05)
(0.0653384 -0.00028103 -0.000268031)
(0.0215857 -4.91799e-05 1.42752e-07)
(0.0343285 2.35411e-05 0.000100275)
(0.0343285 2.35411e-05 0.000100275)
(0.0459767 -5.98295e-05 0.000269271)
(0.0663768 -0.00026547 0.00028233)
(0.0881228 -0.000798786 0.000305815)
(0.085401 -0.00044827 0.000635058)
(0.0881228 -0.000798786 0.000305815)
(0.0984338 -0.00113466 0.000146992)
(0.102843 -0.00134356 7.46666e-05)
(0.103507 -0.00133356 1.26724e-05)
(0.101357 -0.00111668 -0.000137284)
(0.0959193 -0.000879064 -0.000350083)
(0.0959193 -0.000879064 -0.000350083)
(0.0959193 -0.000879064 -0.000350083)
(0.0849925 -0.000638661 -0.000449603)
(0.0849925 -0.000638661 -0.000449603)
(0.0653384 -0.00028103 -0.000268031)
(0.0653384 -0.00028103 -0.000268031)
(0.0366358 -9.85133e-05 -0.000162176)
(0.0459767 -5.98295e-05 0.000269271)
(0.0459767 -5.98295e-05 0.000269271)
(0.085401 -0.00044827 0.000635058)
(0.0959421 -0.000336643 0.000865096)
(0.106694 -0.000997109 0.000702666)
(0.115873 -0.00127597 0.000434451)
(0.119715 -0.00139149 0.00023229)
(0.120507 -0.00135278 3.12288e-06)
(0.119102 -0.00116723 -0.00031423)
(0.119102 -0.00116723 -0.00031423)
(0.115233 -0.000948644 -0.000711652)
(0.106682 -0.000710948 -0.00100372)
(0.0877242 -0.00030554 -0.000788218)
(0.0877242 -0.00030554 -0.000788218)
(0.0877242 -0.00030554 -0.000788218)
(0.0877242 -0.00030554 -0.000788218)
(0.0508447 -4.62968e-05 -0.00039562)
(0.0551047 -0.000102015 0.000434469)
(0.0551047 -0.000102015 0.000434469)
(0.0959421 -0.000336643 0.000865096)
(0.0959421 -0.000336643 0.000865096)
(0.0959421 -0.000336643 0.000865096)
(0.115216 -0.000705788 0.000937137)
(0.115216 -0.000705788 0.000937137)
(0.123571 -0.000888999 0.000610257)
(0.123571 -0.000888999 0.000610257)
(0.127221 -0.000957985 0.000310604)
(0.127221 -0.000957985 0.000310604)
(0.128165 -0.000902668 -3.63607e-05)
(0.128165 -0.000902668 -3.63607e-05)
(0.128165 -0.000902668 -3.63607e-05)
(0.126622 -0.000782193 -0.000433022)
(0.123574 -0.000619096 -0.000883032)
(0.123574 -0.000619096 -0.000883032)
(0.123574 -0.000619096 -0.000883032)
(0.115867 -0.000442294 -0.00126902)
(0.115867 -0.000442294 -0.00126902)
(0.0984235 -0.000150374 -0.00112529)
(0.0984235 -0.000150374 -0.00112529)
(0.0591791 3.40418e-05 -0.000676649)
(0.061693 -0.000177462 0.00064248)
(0.101345 -0.000132491 0.00111149)
(0.101345 -0.000132491 0.00111149)
(0.118776 -0.000300972 0.00115874)
(0.118776 -0.000300972 0.00115874)
(0.126611 -0.000440488 0.000772797)
(0.126611 -0.000440488 0.000772797)
(0.130184 -0.000498068 0.000385927)
(0.130184 -0.000498068 0.000385927)
(0.131207 -0.000466273 -3.47404e-05)
(0.130187 -0.000393829 -0.000488231)
(0.126806 -0.00031111 -0.000954511)
(0.119452 -0.000225085 -0.00139167)
(0.102979 -7.17054e-05 -0.00135203)
(0.0635913 0.000104319 -0.000982843)
(0.0635913 0.000104319 -0.000982843)
(0.0635913 0.000104319 -0.000982843)
(0.0644483 -0.000184705 0.00099342)
(0.0644483 -0.000184705 0.00099342)
(0.103569 1.11491e-05 0.00135425)
(0.103486 9.49647e-06 0.001321)
(0.103486 9.49647e-06 0.001321)
(0.103486 9.49647e-06 0.001321)
(0.119906 -7.86747e-07 0.00135588)
(0.11945 0.000212619 0.0013875)
(0.127302 -4.3016e-05 0.000906488)
(0.126797 0.000305805 0.00094808)
(0.130736 -3.57271e-05 0.000455327)
(0.13223 -1.86409e-06 -3.28174e-06)
(0.130172 0.000393808 0.000489542)
(0.13223 -1.86409e-06 -3.28174e-06)
(0.131203 3.3036e-05 -0.000459189)
(0.127732 3.64771e-05 -0.000906029)
(0.120207 -9.52072e-06 -0.00135624)
(0.103587 -2.57977e-05 -0.00134738)
(0.0650768 0.000180922 -0.00105032)
(0.064312 -0.00010671 0.00104377)
(0.102975 5.18037e-05 0.00134735)