/*--------------------------------*- C++ -*----------------------------------*\
| =========                 |                                                 |
| \\      /  F ield         | OpenFOAM: The Open Source CFD Toolbox           |
|  \\    /   O peration     | Version:  2212                                  |
|   \\  /    A nd           | Website:  www.openfoam.com                      |
|    \\/     M anipulation  |                                                 |
\*---------------------------------------------------------------------------*/
FoamFile
{
    version     2.0;
    format      ascii;
    arch        "LSB;label=32;scalar=64";
    class       volScalarField;
    location    "1.65";
    object      epsilon;
}
// * * * * * * * * * * * * * * * * * * * * * * * * * * * * * * * * * * * * * //

dimensions      [0 2 -3 0 0 0 0];

internalField   nonuniform List<scalar> 
680
(
0.72065
0.594564
0.502468
0.432621
0.379196
0.33616
0.299604
0.740276
0.56589
0.443907
0.355995
0.290889
0.24135
0.20292
0.649776
0.49701
0.389479
0.311288
0.252974
0.208976
0.175206
0.645389
0.492599
0.384791
0.307039
0.249064
0.205005
0.171025
0.644002
0.492275
0.383997
0.305844
0.247983
0.204007
0.170068
0.644003
0.492276
0.383998
0.305845
0.247984
0.204007
0.170066
0.645392
0.492601
0.384793
0.307041
0.249066
0.205004
0.649778
0.497011
0.389481
0.311289
0.252975
0.208974
0.740276
0.56589
0.443907
0.355995
0.290888
0.24135
0.720649
0.594563
0.502467
0.432622
0.379192
0.336162
0.740276
0.56589
0.443907
0.355996
0.290889
0.24135
0.202914
0.562044
0.41536
0.315937
0.246319
0.196203
0.159193
0.131212
0.618631
0.453959
0.342034
0.26365
0.207311
0.165901
0.134846
0.666464
0.489552
0.368603
0.283614
0.222399
0.177342
0.143544
0.692729
0.509646
0.384027
0.295517
0.231664
0.184612
0.149284
0.692726
0.509644
0.384024
0.295513
0.231659
0.184606
0.149274
0.666459
0.489548
0.368598
0.283607
0.22239
0.177328
0.618628
0.453956
0.34203
0.263645
0.207305
0.165892
0.562044
0.41536
0.315937
0.246319
0.196203
0.159193
0.740275
0.565889
0.443906
0.355994
0.290888
0.24135
0.649778
0.497012
0.389481
0.31129
0.252976
0.208977
0.175205
0.618628
0.453956
0.34203
0.263645
0.207304
0.165892
0.134832
0.725633
0.532153
0.399146
0.305541
0.238216
0.188818
0.151907
0.804589
0.594205
0.447519
0.343212
0.267636
0.211902
0.170124
0.843158
0.625693
0.472852
0.363488
0.283858
0.224911
0.180595
0.843155
0.625691
0.47285
0.363485
0.283854
0.224906
0.180587
0.804586
0.594202
0.447514
0.343207
0.267629
0.211893
0.725633
0.532153
0.399146
0.305542
0.238217
0.18882
0.618631
0.453959
0.342034
0.26365
0.207311
0.165902
0.649776
0.497009
0.389479
0.311288
0.252974
0.208975
0.645392
0.492601
0.384793
0.307041
0.249066
0.205006
0.171023
0.666459
0.489548
0.368598
0.283607
0.22239
0.177329
0.143525
0.804586
0.594202
0.447514
0.343207
0.267629
0.211893
0.170111
0.896486
0.669455
0.50812
0.391654
0.306283
0.242781
0.194884
0.938712
0.705583
0.538335
0.416593
0.326727
0.259498
0.208556
0.938711
0.705582
0.538334
0.416592
0.326726
0.259496
0.208554
0.896486
0.669455
0.508121
0.391654
0.306283
0.242782
0.804589
0.594205
0.447519
0.343213
0.267636
0.211903
0.666464
0.489552
0.368603
0.283614
0.222399
0.177342
0.645389
0.492599
0.38479
0.307039
0.249064
0.205005
0.644003
0.492276
0.383998
0.305845
0.247984
0.204007
0.170067
0.692726
0.509644
0.384024
0.295514
0.231659
0.184606
0.149276
0.843155
0.625691
0.47285
0.363485
0.283854
0.224906
0.180588
0.938711
0.705582
0.538334
0.416591
0.326726
0.259496
0.208554
0.981304
0.742923
0.570208
0.443348
0.348965
0.277885
0.223733
0.981304
0.742923
0.570208
0.443348
0.348965
0.277885
0.223733
0.938712
0.705583
0.538335
0.416593
0.326727
0.259498
0.843158
0.625693
0.472852
0.363488
0.283858
0.224911
0.692729
0.509646
0.384027
0.295516
0.231663
0.184611
0.644001
0.492275
0.383997
0.305844
0.247983
0.204007
0.644002
0.492275
0.383997
0.305844
0.247983
0.204007
0.170068
0.692729
0.509646
0.384027
0.295517
0.231664
0.184612
0.149285
0.843158
0.625693
0.472853
0.363488
0.283858
0.224912
0.180596
0.938712
0.705583
0.538335
0.416593
0.326727
0.259498
0.208556
0.981304
0.742923
0.570208
0.443348
0.348965
0.277885
0.223732
0.981304
0.742923
0.570208
0.443348
0.348965
0.277885
0.223733
0.938711
0.705582
0.538334
0.416591
0.326726
0.259496
0.843155
0.625691
0.472849
0.363484
0.283853
0.224904
0.692726
0.509644
0.384024
0.295513
0.231659
0.184604
0.644002
0.492275
0.383998
0.305844
0.247983
0.204007
0.645389
0.492599
0.38479
0.307039
0.249064
0.205004
0.171025
0.666464
0.489552
0.368603
0.283614
0.2224
0.177342
0.143545
0.804589
0.594205
0.447519
0.343213
0.267636
0.211902
0.170124
0.896486
0.669455
0.508121
0.391654
0.306283
0.242781
0.194884
0.938711
0.705582
0.538334
0.416591
0.326726
0.259496
0.208554
1.26863
0.938712
0.705583
0.538335
0.416592
0.326727
0.259498
0.208556
1.22111
0.896485
0.669454
0.50812
0.391654
0.306283
0.242782
1.11236
0.804586
0.594202
0.447514
0.343207
0.267628
0.211892
0.933537
0.66646
0.489548
0.368598
0.283607
0.22239
0.177328
0.869483
0.645391
0.492601
0.384792
0.307041
0.249065
0.205004
0.649776
0.497009
0.389479
0.311287
0.252973
0.208975
0.175205
0.618631
0.453959
0.342034
0.26365
0.207311
0.165901
0.134846
0.725633
0.532153
0.399146
0.305541
0.238216
0.188818
0.151907
0.804586
0.594202
0.447514
0.343207
0.267628
0.211892
0.17011
0.843155
0.625691
0.472849
0.363484
0.283853
0.224905
0.180587
1.15829
0.843158
0.625693
0.472852
0.363488
0.283858
0.224911
0.180596
1.11236
0.804589
0.594205
0.447519
0.343213
0.267636
0.211903
1.0141
0.725632
0.532153
0.399146
0.305541
0.238217
0.188819
0.869287
0.618628
0.453956
0.34203
0.263645
0.207305
0.165892
0.873574
0.649777
0.497011
0.389481
0.311289
0.252975
0.208974
0.740275
0.565889
0.443906
0.355994
0.290888
0.241349
0.202919
0.562044
0.41536
0.315937
0.246318
0.196203
0.159192
0.131211
0.618628
0.453956
0.34203
0.263645
0.207304
0.165891
0.134831
0.666458
0.489547
0.368598
0.283607
0.222389
0.177329
0.143525
0.692726
0.509644
0.384024
0.295513
0.231659
0.184606
0.149276
0.967837
0.692729
0.509646
0.384027
0.295517
0.231664
0.184612
0.149286
0.933542
0.666463
0.489552
0.368603
0.283614
0.222399
0.177343
0.869289
0.61863
0.453959
0.342034
0.26365
0.207311
0.165902
0.786927
0.562044
0.415359
0.315937
0.246318
0.196203
0.159193
0.998644
0.740276
0.56589
0.443907
0.355995
0.290888
0.24135
0.720649
0.594563
0.502468
0.43262
0.379195
0.336158
0.299602
0.740275
0.56589
0.443907
0.355995
0.290888
0.241348
0.202912
0.649778
0.497011
0.389481
0.31129
0.252976
0.208976
0.175204
0.645392
0.492601
0.384793
0.307041
0.249066
0.205005
0.171023
0.644003
0.492276
0.383998
0.305845
0.247984
0.204007
0.170067
0.866514
0.644001
0.492275
0.383997
0.305844
0.247983
0.204007
0.170068
0.869481
0.645389
0.492599
0.38479
0.307039
0.249064
0.205004
0.873573
0.649776
0.49701
0.389479
0.311287
0.252973
0.208975
0.998644
0.740275
0.565889
0.443906
0.355994
0.290888
0.24135
0.902004
0.720649
0.594564
0.502468
0.432622
0.379192
0.336163
)
;

boundaryField
{
    inlet
    {
        type            fixedValue;
        value           nonuniform List<scalar> 0();
    }
    ami1
    {
        type            cyclicAMI;
        value           nonuniform List<scalar> 0();
    }
    walls
    {
        type            epsilonWallFunction;
        blending        stepwise;
        value           nonuniform List<scalar> 
271
(
0.869483
0.873574
0.998644
0.902004
0.720649
0.740275
0.649776
0.645389
0.644001
0.644002
0.645391
0.649777
0.740276
0.720649
0.594563
0.565889
0.497009
0.492599
0.492275
0.492275
0.492601
0.497011
0.56589
0.594564
0.502467
0.443906
0.389479
0.38479
0.383997
0.383998
0.384792
0.389481
0.443907
0.502468
0.432622
0.355994
0.311288
0.307039
0.305844
0.305844
0.307041
0.311289
0.355995
0.432622
0.379192
0.290888
0.252974
0.249064
0.247983
0.247983
0.249065
0.252975
0.290888
0.379192
0.336162
0.24135
0.208975
0.205005
0.204007
0.204007
0.205004
0.208974
0.24135
0.336163
0.72065
0.740276
0.649776
0.645389
0.644002
0.644003
0.645392
0.649778
0.740276
0.720649
0.594564
0.56589
0.49701
0.492599
0.492275
0.492276
0.492601
0.497011
0.56589
0.594563
0.502468
0.443907
0.389479
0.384791
0.383997
0.383998
0.384793
0.389481
0.443907
0.502467
0.432621
0.355995
0.311288
0.307039
0.305844
0.305845
0.307041
0.311289
0.355995
0.432622
0.379196
0.290889
0.252974
0.249064
0.247983
0.247984
0.249066
0.252975
0.290888
0.379192
0.33616
0.24135
0.208976
0.205005
0.204007
0.204007
0.205004
0.208974
0.24135
0.336162
0.299604
0.20292
0.175206
0.171025
0.170068
0.170066
0.72065
0.740276
0.649778
0.645392
0.644003
0.644002
0.645389
0.649776
0.740275
0.720649
0.594564
0.56589
0.497012
0.492601
0.492276
0.492275
0.492599
0.497009
0.565889
0.594563
0.502468
0.443907
0.389481
0.384793
0.383998
0.383997
0.38479
0.389479
0.443906
0.502468
0.432621
0.355996
0.31129
0.307041
0.305845
0.305844
0.307039
0.311287
0.355994
0.43262
0.379196
0.290889
0.252976
0.249066
0.247984
0.247983
0.249064
0.252973
0.290888
0.379195
0.33616
0.24135
0.208977
0.205006
0.204007
0.204007
0.205004
0.208975
0.241349
0.336158
0.299604
0.202914
0.175205
0.171023
0.170067
0.170068
0.171025
0.175205
0.202919
0.299602
0.866514
0.869481
0.873573
0.998644
0.902004
0.720649
0.740275
0.649778
0.645392
0.644003
0.644001
0.645389
0.649776
0.740275
0.720649
0.594563
0.56589
0.497011
0.492601
0.492276
0.492275
0.492599
0.49701
0.565889
0.594564
0.502468
0.443907
0.389481
0.384793
0.383998
0.383997
0.38479
0.389479
0.443906
0.502468
0.43262
0.355995
0.31129
0.307041
0.305845
0.305844
0.307039
0.311287
0.355994
0.432622
0.379195
0.290888
0.252976
0.249066
0.247984
0.247983
0.249064
0.252973
0.290888
0.379192
0.336158
0.241348
0.208976
0.205005
0.204007
0.204007
0.205004
0.208975
0.24135
0.336163
0.299602
0.202912
0.175204
0.171023
0.170067
0.170068
)
;
    }
    ami2
    {
        type            cyclicAMI;
        value           nonuniform List<scalar> 0();
    }
    outlet
    {
        type            zeroGradient;
    }
    procBoundary3to2
    {
        type            processor;
        value           nonuniform List<scalar> 
110
(
0.269755
0.172985
0.148808
0.144453
0.143504
0.1435
0.171023
0.171023
0.175203
0.202906
0.299598
0.172972
0.109725
0.111145
0.117765
0.122313
0.122297
0.14352
0.14352
0.134831
0.131216
0.202915
0.148803
0.111118
0.123866
0.13833
0.146797
0.146785
0.17011
0.17011
0.151908
0.134851
0.175205
0.144447
0.117731
0.138311
0.158277
0.169484
0.169481
0.194885
0.194885
0.170125
0.143547
0.171025
0.143501
0.122297
0.146785
0.16948
0.182016
0.182016
0.208557
0.208557
0.180595
0.149283
0.170069
0.143504
0.122313
0.146796
0.169484
0.182016
0.182016
0.208554
0.208554
0.180586
0.149271
0.170067
0.144453
0.117765
0.13833
0.158278
0.169481
0.169484
0.194885
0.194885
0.17011
0.14352
0.171022
0.148807
0.111145
0.123866
0.138311
0.146785
0.146796
0.170125
0.170125
0.151908
0.134831
0.175203
0.172984
0.109724
0.111118
0.117731
0.122296
0.122313
0.143547
0.143547
0.134851
0.131215
0.202906
0.269752
0.17297
0.148802
0.144447
0.143501
0.143504
0.171025
0.171025
0.175205
0.202915
0.299598
)
;
    }
    procBoundary3to4
    {
        type            processor;
        value           nonuniform List<scalar> 
109
(
0.902005
0.998645
0.873573
0.869481
0.866514
0.866515
0.869483
0.873575
0.998645
0.902004
0.998646
0.786927
0.869289
0.933541
0.967837
0.967835
0.933538
0.869287
0.786927
0.998645
0.873575
0.869287
1.0141
1.11236
1.15829
1.15828
1.11236
1.0141
0.869289
0.873573
0.869483
0.933539
1.11236
1.22111
1.26863
1.26863
1.22111
1.11236
0.933541
0.869481
0.866515
0.967836
1.15828
1.26863
1.31522
1.31522
1.26863
1.15829
0.967837
0.866514
0.866514
0.967837
1.15829
1.26863
1.31522
1.31522
1.31522
1.26863
1.26863
1.15828
1.15828
0.967835
0.967835
0.866515
0.866515
0.869481
0.933541
1.11236
1.22111
1.26863
1.26863
1.74299
1.6928
1.57142
1.3512
1.22751
0.873573
0.869289
1.0141
1.11236
1.15828
1.15828
1.62326
1.57142
1.45499
1.26609
1.22699
0.998645
0.786927
0.869287
0.933538
0.967835
0.967835
1.39506
1.35121
1.26609
1.14759
1.40266
0.902004
0.998645
0.873575
0.869482
0.866515
0.866515
1.2267
1.2275
1.22699
1.40266
1.18306
)
;
    }
}


// ************************************************************************* //
