/*--------------------------------*- C++ -*----------------------------------*\
| =========                 |                                                 |
| \\      /  F ield         | OpenFOAM: The Open Source CFD Toolbox           |
|  \\    /   O peration     | Version:  2212                                  |
|   \\  /    A nd           | Website:  www.openfoam.com                      |
|    \\/     M anipulation  |                                                 |
\*---------------------------------------------------------------------------*/
FoamFile
{
    version     2.0;
    format      ascii;
    arch        "LSB;label=32;scalar=64";
    class       volScalarField;
    location    "2.6";
    object      epsilon;
}
// * * * * * * * * * * * * * * * * * * * * * * * * * * * * * * * * * * * * * //

dimensions      [0 2 -3 0 0 0 0];

internalField   nonuniform List<scalar> 
680
(
0.720675
0.594604
0.502524
0.43271
0.379327
0.336382
0.299996
0.740302
0.565923
0.443952
0.356057
0.290978
0.241481
0.203096
0.649794
0.497032
0.389508
0.311325
0.253023
0.209042
0.175299
0.645394
0.492604
0.384796
0.307045
0.249072
0.205013
0.171033
0.643986
0.492255
0.38397
0.305804
0.24793
0.203934
0.169964
0.643977
0.492243
0.383954
0.305781
0.2479
0.203894
0.169912
0.645373
0.492577
0.38476
0.306995
0.249005
0.204926
0.649773
0.497005
0.389465
0.311271
0.252952
0.20895
0.740296
0.565916
0.443937
0.356035
0.290944
0.241429
0.720675
0.594604
0.502524
0.432708
0.379329
0.336375
0.740296
0.565916
0.443938
0.356035
0.290945
0.241432
0.203006
0.562048
0.415366
0.315946
0.24633
0.19622
0.159216
0.131245
0.618629
0.453957
0.342031
0.263647
0.207307
0.165897
0.134839
0.666457
0.489543
0.368592
0.2836
0.222382
0.177321
0.14352
0.692723
0.509637
0.384016
0.295503
0.231647
0.184592
0.149262
0.692726
0.509643
0.384023
0.295512
0.231657
0.184604
0.149273
0.666464
0.489554
0.368606
0.283618
0.222403
0.177345
0.618633
0.453965
0.342042
0.26366
0.207324
0.165916
0.562047
0.415366
0.315946
0.24633
0.19622
0.159216
0.740301
0.565922
0.443951
0.356056
0.290976
0.241479
0.649774
0.497006
0.389465
0.311271
0.252952
0.208948
0.175174
0.618634
0.453965
0.342042
0.26366
0.207324
0.165917
0.134864
0.725634
0.532156
0.399149
0.305546
0.238222
0.188824
0.151913
0.804587
0.594203
0.447515
0.343208
0.26763
0.211895
0.170116
0.843156
0.62569
0.472848
0.363482
0.283851
0.224903
0.180587
0.843156
0.625692
0.472851
0.363486
0.283855
0.224908
0.180589
0.804588
0.594206
0.44752
0.343214
0.267637
0.211901
0.725634
0.532155
0.399149
0.305546
0.238222
0.188824
0.618629
0.453957
0.342031
0.263647
0.207308
0.165898
0.649793
0.497031
0.389507
0.311324
0.253022
0.20904
0.645373
0.492577
0.38476
0.306995
0.249005
0.204924
0.170916
0.666464
0.489554
0.368606
0.283618
0.222404
0.177348
0.143549
0.804589
0.594206
0.44752
0.343214
0.267637
0.211903
0.170122
0.896487
0.669456
0.508122
0.391656
0.306285
0.242784
0.194886
0.938712
0.705583
0.538335
0.416593
0.326728
0.259498
0.208556
0.938712
0.705584
0.538336
0.416594
0.326728
0.259499
0.208557
0.896486
0.669456
0.508122
0.391656
0.306285
0.242784
0.804587
0.594203
0.447515
0.343208
0.267631
0.211897
0.666457
0.489543
0.368592
0.283601
0.222383
0.177323
0.645394
0.492604
0.384796
0.307045
0.249071
0.20501
0.643977
0.492243
0.383954
0.305781
0.2479
0.203893
0.16991
0.692726
0.509643
0.384023
0.295512
0.231658
0.184605
0.149276
0.843157
0.625692
0.472851
0.363486
0.283856
0.224909
0.180591
0.938712
0.705584
0.538336
0.416594
0.326729
0.259499
0.208557
0.981305
0.742925
0.57021
0.44335
0.348968
0.277888
0.223735
0.981305
0.742924
0.57021
0.44335
0.348968
0.277888
0.223735
0.938712
0.705583
0.538335
0.416593
0.326728
0.259499
0.843156
0.62569
0.472848
0.363483
0.283852
0.224905
0.692723
0.509637
0.384016
0.295503
0.231647
0.184593
0.643986
0.492255
0.38397
0.305804
0.247929
0.203932
0.643987
0.492255
0.383971
0.305804
0.24793
0.203934
0.169963
0.692723
0.509638
0.384016
0.295504
0.231648
0.184592
0.149263
0.843156
0.62569
0.472848
0.363483
0.283852
0.224904
0.180587
0.938712
0.705584
0.538335
0.416593
0.326728
0.259498
0.208556
0.981305
0.742925
0.57021
0.44335
0.348968
0.277888
0.223735
0.981305
0.742924
0.57021
0.44335
0.348968
0.277888
0.223735
0.938712
0.705584
0.538336
0.416594
0.326728
0.259499
0.843156
0.625692
0.472851
0.363486
0.283855
0.224907
0.692726
0.509643
0.384023
0.295511
0.231657
0.184603
0.643977
0.492243
0.383954
0.305781
0.2479
0.203894
0.645394
0.492604
0.384796
0.307045
0.249072
0.205013
0.171033
0.666457
0.489543
0.368592
0.2836
0.222382
0.177321
0.14352
0.804587
0.594203
0.447515
0.343208
0.26763
0.211895
0.170115
0.896487
0.669456
0.508122
0.391656
0.306285
0.242783
0.194886
0.938712
0.705584
0.538336
0.416594
0.326728
0.259499
0.208557
1.26863
0.938712
0.705583
0.538335
0.416593
0.326728
0.259499
0.208557
1.22111
0.896487
0.669456
0.508122
0.391656
0.306285
0.242784
1.11236
0.804589
0.594206
0.44752
0.343214
0.267637
0.211901
0.933542
0.666465
0.489554
0.368606
0.283618
0.222403
0.177345
0.869469
0.645373
0.492577
0.38476
0.306995
0.249006
0.204926
0.649794
0.497032
0.389508
0.311325
0.253024
0.209043
0.1753
0.618629
0.453957
0.342031
0.263646
0.207307
0.165896
0.134838
0.725634
0.532155
0.399149
0.305545
0.238221
0.188823
0.151912
0.804588
0.594206
0.447519
0.343213
0.267637
0.211902
0.170121
0.843156
0.625692
0.472851
0.363486
0.283856
0.224908
0.180591
1.15828
0.843155
0.62569
0.472848
0.363483
0.283852
0.224904
0.180588
1.11236
0.804587
0.594202
0.447515
0.343208
0.267631
0.211897
1.0141
0.725634
0.532155
0.399149
0.305545
0.238221
0.188824
0.869291
0.618635
0.453965
0.342042
0.26366
0.207324
0.165916
0.873572
0.649773
0.497005
0.389464
0.311271
0.252952
0.20895
0.740302
0.565923
0.443952
0.356057
0.290979
0.241483
0.203097
0.562048
0.415366
0.315946
0.24633
0.196219
0.159215
0.131244
0.618633
0.453965
0.342042
0.26366
0.207324
0.165917
0.134863
0.666464
0.489554
0.368606
0.283618
0.222404
0.177348
0.143549
0.692726
0.509643
0.384023
0.295512
0.231658
0.184605
0.149277
0.967832
0.692722
0.509637
0.384016
0.295504
0.231648
0.184593
0.149264
0.933536
0.666456
0.489543
0.368592
0.2836
0.222382
0.177323
0.869287
0.618628
0.453957
0.342031
0.263646
0.207307
0.165896
0.78693
0.562048
0.415366
0.315946
0.24633
0.19622
0.159216
0.998662
0.740296
0.565916
0.443938
0.356036
0.290946
0.241431
0.720675
0.594605
0.502524
0.432711
0.379328
0.336383
0.299998
0.740297
0.565917
0.443938
0.356036
0.290946
0.241434
0.203009
0.649774
0.497006
0.389465
0.311271
0.252952
0.208948
0.175175
0.645373
0.492577
0.38476
0.306995
0.249005
0.204924
0.170916
0.643977
0.492243
0.383954
0.305781
0.2479
0.203893
0.16991
0.866503
0.643987
0.492255
0.383971
0.305804
0.24793
0.203933
0.169962
0.869486
0.645395
0.492605
0.384797
0.307046
0.249072
0.205012
0.873588
0.649794
0.497033
0.389509
0.311326
0.253024
0.209042
0.998665
0.740301
0.565923
0.443952
0.356057
0.290978
0.241482
0.902023
0.720675
0.594604
0.502525
0.432709
0.37933
0.336377
)
;

boundaryField
{
    inlet
    {
        type            fixedValue;
        value           nonuniform List<scalar> 0();
    }
    ami1
    {
        type            cyclicAMI;
        value           nonuniform List<scalar> 0();
    }
    walls
    {
        type            epsilonWallFunction;
        blending        stepwise;
        value           nonuniform List<scalar> 
271
(
0.869469
0.873572
0.998662
0.902023
0.720675
0.740301
0.649793
0.645394
0.643986
0.643977
0.645373
0.649773
0.740296
0.720675
0.594604
0.565922
0.497031
0.492604
0.492255
0.492243
0.492577
0.497005
0.565916
0.594604
0.502524
0.443951
0.389507
0.384796
0.38397
0.383954
0.38476
0.389464
0.443938
0.502525
0.432708
0.356056
0.311324
0.307045
0.305804
0.305781
0.306995
0.311271
0.356036
0.432709
0.379329
0.290976
0.253022
0.249071
0.247929
0.2479
0.249006
0.252952
0.290946
0.37933
0.336375
0.241479
0.20904
0.20501
0.203932
0.203894
0.204926
0.20895
0.241431
0.336377
0.720675
0.740302
0.649794
0.645394
0.643986
0.643977
0.645373
0.649773
0.740296
0.720675
0.594604
0.565923
0.497032
0.492604
0.492255
0.492243
0.492577
0.497005
0.565916
0.594604
0.502524
0.443952
0.389508
0.384796
0.38397
0.383954
0.38476
0.389465
0.443937
0.502524
0.43271
0.356057
0.311325
0.307045
0.305804
0.305781
0.306995
0.311271
0.356035
0.432708
0.379327
0.290978
0.253023
0.249072
0.24793
0.2479
0.249005
0.252952
0.290944
0.379329
0.336382
0.241481
0.209042
0.205013
0.203934
0.203894
0.204926
0.20895
0.241429
0.336375
0.299996
0.203096
0.175299
0.171033
0.169964
0.169912
0.720675
0.740296
0.649774
0.645373
0.643977
0.643987
0.645394
0.649794
0.740302
0.720675
0.594604
0.565916
0.497006
0.492577
0.492243
0.492255
0.492604
0.497032
0.565923
0.594605
0.502524
0.443938
0.389465
0.38476
0.383954
0.383971
0.384796
0.389508
0.443952
0.502524
0.43271
0.356035
0.311271
0.306995
0.305781
0.305804
0.307045
0.311325
0.356057
0.432711
0.379327
0.290945
0.252952
0.249005
0.2479
0.24793
0.249072
0.253024
0.290979
0.379328
0.336382
0.241432
0.208948
0.204924
0.203893
0.203934
0.205013
0.209043
0.241483
0.336383
0.299996
0.203006
0.175174
0.170916
0.16991
0.169963
0.171033
0.1753
0.203097
0.299998
0.866503
0.869486
0.873588
0.998665
0.902023
0.720675
0.740297
0.649774
0.645373
0.643977
0.643987
0.645395
0.649794
0.740301
0.720675
0.594605
0.565917
0.497006
0.492577
0.492243
0.492255
0.492605
0.497033
0.565923
0.594604
0.502524
0.443938
0.389465
0.38476
0.383954
0.383971
0.384797
0.389509
0.443952
0.502525
0.432711
0.356036
0.311271
0.306995
0.305781
0.305804
0.307046
0.311326
0.356057
0.432709
0.379328
0.290946
0.252952
0.249005
0.2479
0.24793
0.249072
0.253024
0.290978
0.37933
0.336383
0.241434
0.208948
0.204924
0.203893
0.203933
0.205012
0.209042
0.241482
0.336377
0.299998
0.203009
0.175175
0.170916
0.16991
0.169962
)
;
    }
    ami2
    {
        type            cyclicAMI;
        value           nonuniform List<scalar> 0();
    }
    outlet
    {
        type            zeroGradient;
    }
    procBoundary3to2
    {
        type            processor;
        value           nonuniform List<scalar> 
110
(
0.270395
0.173248
0.148941
0.144458
0.143353
0.143282
0.170919
0.170919
0.175178
0.203013
0.3
0.17313
0.109752
0.111132
0.11774
0.122295
0.122305
0.143543
0.143543
0.134855
0.131236
0.203097
0.148772
0.111149
0.123869
0.13832
0.146789
0.14679
0.17012
0.17012
0.151911
0.134841
0.175295
0.144304
0.117759
0.138323
0.158279
0.169484
0.169483
0.194886
0.194886
0.170117
0.143526
0.171028
0.143281
0.122305
0.14679
0.169483
0.182018
0.182018
0.208556
0.208556
0.180589
0.149268
0.16996
0.143353
0.122295
0.146789
0.169484
0.182018
0.182018
0.208556
0.208556
0.18059
0.149276
0.169911
0.144458
0.11774
0.138321
0.158279
0.169483
0.169483
0.194886
0.194886
0.17012
0.143542
0.17092
0.148941
0.111132
0.123869
0.138322
0.14679
0.146789
0.170118
0.170118
0.151912
0.134855
0.175178
0.173249
0.109752
0.111149
0.117758
0.122305
0.122295
0.143527
0.143527
0.134841
0.131236
0.203016
0.270397
0.173132
0.148773
0.144304
0.143281
0.143352
0.171029
0.171029
0.175297
0.2031
0.300004
)
;
    }
    procBoundary3to4
    {
        type            processor;
        value           nonuniform List<scalar> 
109
(
0.902022
0.998664
0.873588
0.869486
0.866504
0.866496
0.869468
0.873571
0.998659
0.902022
0.99866
0.786931
0.869288
0.933536
0.967831
0.967834
0.933542
0.869292
0.786931
0.998664
0.873571
0.869292
1.0141
1.11236
1.15828
1.15828
1.11236
1.0141
0.869288
0.873587
0.869468
0.933542
1.11236
1.22111
1.26863
1.26863
1.22111
1.11236
0.933536
0.869486
0.866496
0.967834
1.15828
1.26863
1.31522
1.31522
1.26863
1.15828
0.967831
0.866504
0.866504
0.967831
1.15828
1.26863
1.31522
1.31522
1.31522
1.26863
1.26863
1.15828
1.15828
0.967834
0.967834
0.866496
0.866496
0.869486
0.933535
1.11236
1.22111
1.26863
1.26863
1.74299
1.6928
1.57142
1.35121
1.22749
0.873588
0.869287
1.0141
1.11236
1.15828
1.15828
1.62326
1.57142
1.45499
1.2661
1.22699
0.998664
0.786931
0.869292
0.933542
0.967835
0.967835
1.39506
1.3512
1.26609
1.14759
1.40268
0.902022
0.99866
0.873571
0.869468
0.866496
0.866496
1.22669
1.22751
1.227
1.40268
1.18308
)
;
    }
}


// ************************************************************************* //
