/*--------------------------------*- C++ -*----------------------------------*\
| =========                 |                                                 |
| \\      /  F ield         | OpenFOAM: The Open Source CFD Toolbox           |
|  \\    /   O peration     | Version:  2212                                  |
|   \\  /    A nd           | Website:  www.openfoam.com                      |
|    \\/     M anipulation  |                                                 |
\*---------------------------------------------------------------------------*/
FoamFile
{
    version     2.0;
    format      ascii;
    arch        "LSB;label=32;scalar=64";
    class       volScalarField;
    location    "2.6";
    object      p;
}
// * * * * * * * * * * * * * * * * * * * * * * * * * * * * * * * * * * * * * //

dimensions      [0 2 -2 0 0 0 0];

internalField   nonuniform List<scalar> 
680
(
0.00708857
0.00692731
0.0067677
0.00660981
0.00645338
0.00629707
0.00613958
0.00713641
0.00696174
0.00679397
0.00663054
0.00646948
0.00630878
0.00614713
0.0071268
0.00694805
0.00677897
0.00661454
0.00645242
0.00629178
0.00613167
0.00709113
0.00692308
0.00676529
0.00660904
0.0064528
0.00629713
0.00614228
0.00707315
0.00690237
0.00674566
0.00659579
0.00644593
0.00629533
0.00614591
0.00707354
0.00690303
0.00674675
0.00659758
0.0064489
0.00630023
0.00615399
0.00709205
0.00692461
0.0067678
0.00661316
0.00645953
0.00630808
0.00712772
0.00694955
0.00678145
0.00661863
0.00645907
0.00630251
0.00713691
0.00696257
0.00679535
0.00663278
0.00647315
0.006315
0.00708857
0.00692731
0.0067677
0.00660982
0.00645339
0.00629707
0.00713691
0.00696257
0.00679536
0.00663278
0.00647315
0.006315
0.00615774
0.00726717
0.00706245
0.00687385
0.00669583
0.00652446
0.00635649
0.00619001
0.00726304
0.00705013
0.00685506
0.00667096
0.00649438
0.00632302
0.00615462
0.00722841
0.00702518
0.00683825
0.00666054
0.00648896
0.00632212
0.00615846
0.00720649
0.00700583
0.00681872
0.00664266
0.00647443
0.0063125
0.00615529
0.00720701
0.00700663
0.00682004
0.00664487
0.00647815
0.00631836
0.00616392
0.00722934
0.00702672
0.00684089
0.00666504
0.00649626
0.00633313
0.00726374
0.00705132
0.00685699
0.00667398
0.00649907
0.00633036
0.00726717
0.00706246
0.00687386
0.00669584
0.00652447
0.00635651
0.00713642
0.00696174
0.00679398
0.00663055
0.00646949
0.0063088
0.00712772
0.00694955
0.00678145
0.00661863
0.00645906
0.0063025
0.00614905
0.00726374
0.00705132
0.00685699
0.00667397
0.00649905
0.00633033
0.00616613
0.0072414
0.00702345
0.00682308
0.00663531
0.00645692
0.00628515
0.00611782
0.00718472
0.0069835
0.0067909
0.00660802
0.00643297
0.0062637
0.00609874
0.0071439
0.00695779
0.00677438
0.00659518
0.00642115
0.0062527
0.00608983
0.00714429
0.00695837
0.00677527
0.00659653
0.00642317
0.00625564
0.00609418
0.00718526
0.00698434
0.00679223
0.00661015
0.00643629
0.00626871
0.00724141
0.00702346
0.00682309
0.00663532
0.00645693
0.00628517
0.00726305
0.00705014
0.00685507
0.00667097
0.0064944
0.00632304
0.00712681
0.00694806
0.00677898
0.00661456
0.00645244
0.0062918
0.00709205
0.00692462
0.00676781
0.00661315
0.00645952
0.00630807
0.00616018
0.00722934
0.00702672
0.00684088
0.00666503
0.00649624
0.00633311
0.00617488
0.00718526
0.00698433
0.00679222
0.00661014
0.00643628
0.00626869
0.00610622
0.00710789
0.0069239
0.00674351
0.00656835
0.00639825
0.00623258
0.00607074
0.00706694
0.00689279
0.0067192
0.00654801
0.00638008
0.00621575
0.006055
0.00706707
0.00689298
0.00671946
0.00654836
0.00638057
0.00621643
0.00605599
0.00710789
0.00692391
0.00674352
0.00656836
0.00639826
0.00623259
0.00718472
0.00698351
0.00679091
0.00660803
0.00643298
0.00626371
0.00722842
0.00702519
0.00683826
0.00666055
0.00648898
0.00632214
0.00709114
0.00692309
0.0067653
0.00660905
0.00645282
0.00629715
0.00707354
0.00690303
0.00674674
0.00659758
0.00644889
0.00630021
0.00615397
0.00720701
0.00700663
0.00682003
0.00664486
0.00647813
0.00631834
0.00616391
0.00714429
0.00695837
0.00677527
0.00659652
0.00642317
0.00625563
0.00609417
0.00706707
0.00689298
0.00671946
0.00654836
0.00638056
0.00621643
0.00605598
0.00702797
0.00686145
0.00669308
0.00652523
0.00635931
0.00619609
0.00603587
0.00702797
0.00686145
0.00669308
0.00652523
0.00635931
0.00619609
0.00603587
0.00706694
0.00689279
0.00671921
0.00654801
0.00638009
0.00621575
0.0071439
0.0069578
0.00677439
0.00659519
0.00642116
0.00625271
0.0072065
0.00700584
0.00681873
0.00664267
0.00647444
0.00631251
0.00707315
0.00690238
0.00674567
0.0065958
0.00644594
0.00629533
0.00707315
0.00690237
0.00674566
0.00659579
0.00644592
0.00629531
0.0061459
0.00720649
0.00700583
0.00681872
0.00664265
0.00647443
0.00631249
0.00615528
0.0071439
0.00695779
0.00677438
0.00659518
0.00642115
0.00625269
0.00608983
0.00706694
0.00689279
0.0067192
0.00654801
0.00638008
0.00621574
0.00605499
0.00702797
0.00686145
0.00669308
0.00652523
0.00635931
0.00619609
0.00603587
0.00702797
0.00686145
0.00669308
0.00652523
0.00635931
0.00619609
0.00603587
0.00706708
0.00689298
0.00671946
0.00654836
0.00638057
0.00621643
0.00714429
0.00695838
0.00677528
0.00659653
0.00642318
0.00625564
0.00720701
0.00700663
0.00682004
0.00664487
0.00647814
0.00631836
0.00707354
0.00690303
0.00674675
0.00659759
0.0064489
0.00630022
0.00709114
0.00692309
0.00676529
0.00660903
0.0064528
0.00629713
0.00614227
0.00722842
0.00702519
0.00683825
0.00666054
0.00648896
0.00632212
0.00615846
0.00718472
0.00698351
0.00679091
0.00660802
0.00643297
0.0062637
0.00609875
0.00710789
0.00692391
0.00674352
0.00656836
0.00639826
0.00623259
0.00607075
0.00706708
0.00689298
0.00671946
0.00654836
0.00638057
0.00621643
0.00605599
0.00723836
0.00706694
0.00689279
0.0067192
0.00654801
0.00638008
0.00621575
0.006055
0.00729237
0.00710789
0.0069239
0.00674351
0.00656836
0.00639826
0.00623259
0.00739202
0.00718526
0.00698434
0.00679223
0.00661015
0.00643628
0.0062687
0.00745548
0.00722934
0.00702672
0.00684088
0.00666503
0.00649625
0.00633312
0.00728061
0.00709205
0.00692462
0.00676781
0.00661316
0.00645953
0.00630807
0.00712681
0.00694806
0.00677898
0.00661455
0.00645242
0.00629178
0.00613167
0.00726305
0.00705014
0.00685507
0.00667096
0.00649438
0.00632302
0.00615462
0.00724141
0.00702346
0.00682309
0.00663532
0.00645692
0.00628516
0.00611783
0.00718526
0.00698434
0.00679223
0.00661015
0.00643629
0.0062687
0.00610624
0.00714429
0.00695838
0.00677528
0.00659653
0.00642317
0.00625564
0.00609419
0.00733188
0.0071439
0.00695779
0.00677438
0.00659518
0.00642116
0.0062527
0.00608984
0.00739167
0.00718472
0.00698351
0.00679091
0.00660802
0.00643297
0.0062637
0.00748306
0.0072414
0.00702346
0.00682308
0.00663531
0.00645692
0.00628515
0.00750409
0.00726374
0.00705132
0.00685699
0.00667397
0.00649906
0.00633034
0.00732048
0.00712772
0.00694955
0.00678145
0.00661863
0.00645906
0.0063025
0.00713642
0.00696174
0.00679398
0.00663054
0.00646948
0.00630878
0.00614713
0.00726718
0.00706246
0.00687386
0.00669583
0.00652446
0.00635649
0.00619002
0.00726375
0.00705133
0.00685699
0.00667398
0.00649906
0.00633034
0.00616614
0.00722934
0.00702673
0.00684089
0.00666503
0.00649625
0.00633312
0.00617489
0.00720702
0.00700664
0.00682004
0.00664487
0.00647814
0.00631835
0.00616392
0.00741961
0.0072065
0.00700584
0.00681873
0.00664266
0.00647443
0.0063125
0.00615529
0.00745491
0.00722842
0.00702519
0.00683825
0.00666054
0.00648897
0.00632212
0.00750369
0.00726304
0.00705014
0.00685506
0.00667096
0.00649438
0.00632302
0.00749491
0.00726717
0.00706245
0.00687385
0.00669583
0.00652445
0.00635648
0.00732309
0.00713691
0.00696257
0.00679535
0.00663278
0.00647314
0.00631499
0.00708857
0.00692731
0.0067677
0.00660981
0.00645338
0.00629707
0.00613958
0.00713691
0.00696257
0.00679536
0.00663278
0.00647315
0.006315
0.00615773
0.00712773
0.00694956
0.00678145
0.00661863
0.00645907
0.0063025
0.00614904
0.00709206
0.00692462
0.00676781
0.00661316
0.00645953
0.00630807
0.00616019
0.00707355
0.00690304
0.00674675
0.00659759
0.0064489
0.00630022
0.00615397
0.00726381
0.00707315
0.00690238
0.00674567
0.0065958
0.00644593
0.00629532
0.00614591
0.00728008
0.00709114
0.00692309
0.0067653
0.00660904
0.00645281
0.00629713
0.00731993
0.0071268
0.00694805
0.00677898
0.00661455
0.00645242
0.00629178
0.0073228
0.00713642
0.00696174
0.00679397
0.00663054
0.00646948
0.00630877
0.00725507
0.00708857
0.00692731
0.0067677
0.00660981
0.00645338
0.00629705
)
;

boundaryField
{
    inlet
    {
        type            zeroGradient;
    }
    ami1
    {
        type            cyclicAMI;
        value           nonuniform List<scalar> 0();
    }
    walls
    {
        type            zeroGradient;
    }
    ami2
    {
        type            cyclicAMI;
        value           nonuniform List<scalar> 0();
    }
    outlet
    {
        type            fixedValue;
        value           nonuniform List<scalar> 0();
    }
    procBoundary3to2
    {
        type            processor;
        value           nonuniform List<scalar> 
110
(
0.00598072
0.005984
0.00597039
0.00598799
0.00599968
0.00601343
0.00616021
0.00616021
0.00614908
0.00615777
0.0061396
0.00600146
0.00602389
0.00598704
0.0059965
0.00600189
0.00601512
0.0061749
0.0061749
0.00616616
0.00619005
0.00614716
0.00599886
0.00600485
0.00595333
0.00593693
0.00593254
0.00593902
0.00610623
0.00610623
0.00611783
0.00615464
0.0061317
0.00601787
0.00602203
0.00594812
0.00591214
0.00589764
0.00589904
0.00607076
0.00607076
0.00609877
0.00615849
0.00614229
0.0060134
0.0060151
0.00593901
0.00589903
0.0058786
0.0058786
0.006055
0.006055
0.00608985
0.00615531
0.00614592
0.00599966
0.00600188
0.00593254
0.00589764
0.0058786
0.0058786
0.00605599
0.00605599
0.00609419
0.00616392
0.00615398
0.00598798
0.0059965
0.00593694
0.00591215
0.00589904
0.00589764
0.00607075
0.00607075
0.00610622
0.00617488
0.0061602
0.00597038
0.00598705
0.00595335
0.00594814
0.00593902
0.00593255
0.00609875
0.00609875
0.00611781
0.00616613
0.00614906
0.005984
0.00602389
0.00600486
0.00602204
0.00601512
0.00600189
0.00615846
0.00615846
0.00615461
0.00619001
0.00615774
0.00598071
0.00600145
0.00599885
0.00601787
0.0060134
0.00599967
0.00614227
0.00614227
0.00613167
0.00614713
0.00613957
)
;
    }
    procBoundary3to4
    {
        type            processor;
        value           nonuniform List<scalar> 
109
(
0.00725507
0.0073228
0.00731992
0.00728007
0.0072638
0.00726404
0.00728061
0.00732048
0.00732309
0.00725507
0.00732309
0.00749491
0.00750368
0.0074549
0.0074196
0.00741994
0.00745548
0.00750409
0.00749491
0.00732281
0.00732048
0.00750409
0.00748306
0.00739166
0.00733187
0.00733215
0.00739202
0.00748306
0.00750369
0.00731993
0.00728061
0.00745548
0.00739202
0.00729236
0.00723835
0.00723845
0.00729237
0.00739167
0.0074549
0.00728008
0.00726404
0.00741994
0.00733215
0.00723845
0.00718896
0.00718896
0.00723836
0.00733188
0.00741961
0.00726381
0.00726381
0.0074196
0.00733188
0.00723836
0.00718896
0.00718896
0.00718896
0.00723845
0.00723845
0.00733215
0.00733215
0.00741994
0.00741994
0.00726404
0.00726404
0.00728008
0.0074549
0.00739167
0.00729237
0.00723845
0.00723845
0.00740124
0.00747256
0.00760261
0.00770634
0.00750009
0.00731993
0.00750369
0.00748307
0.00739202
0.00733215
0.00733215
0.00751812
0.00760235
0.00774148
0.00778259
0.00753604
0.00732281
0.00749492
0.0075041
0.00745548
0.00741995
0.00741995
0.0076424
0.00770597
0.00778235
0.00775386
0.00753425
0.00725507
0.0073231
0.00732049
0.00728062
0.00726405
0.00726405
0.00748536
0.00749978
0.00753571
0.00753408
0.00744175
)
;
    }
}


// ************************************************************************* //
