/*--------------------------------*- C++ -*----------------------------------*\
| =========                 |                                                 |
| \\      /  F ield         | OpenFOAM: The Open Source CFD Toolbox           |
|  \\    /   O peration     | Version:  2212                                  |
|   \\  /    A nd           | Website:  www.openfoam.com                      |
|    \\/     M anipulation  |                                                 |
\*---------------------------------------------------------------------------*/
FoamFile
{
    version     2.0;
    format      ascii;
    arch        "LSB;label=32;scalar=64";
    class       volVectorField;
    location    "2.6";
    object      U;
}
// * * * * * * * * * * * * * * * * * * * * * * * * * * * * * * * * * * * * * //

dimensions      [0 1 -1 0 0 0 0];

internalField   nonuniform List<vector> 
680
(
(0.0566869 0.000325151 0.000321845)
(0.0545532 0.000255021 0.000249625)
(0.0527029 0.000205906 0.00019708)
(0.0510683 0.00017199 0.0001572)
(0.0496129 0.000149449 0.000125205)
(0.0483059 0.000134108 9.62615e-05)
(0.0471217 0.000125319 6.62141e-05)
(0.0775696 0.00104181 0.000691126)
(0.0755621 0.000945013 0.000558853)
(0.0737583 0.000869587 0.000477132)
(0.0721136 0.000799576 0.000427521)
(0.0706009 0.000730316 0.000396305)
(0.069203 0.000668318 0.000378369)
(0.0679086 0.000618373 0.000371164)
(0.0898592 0.00170473 0.00115906)
(0.0884636 0.0016037 0.00106839)
(0.0871729 0.00149249 0.000995917)
(0.0859815 0.00138072 0.000946965)
(0.0848772 0.00127431 0.000917575)
(0.0838449 0.00117128 0.000902536)
(0.0828781 0.00106487 0.000896117)
(0.0952013 0.00137362 0.00137218)
(0.0945748 0.0013243 0.0012859)
(0.0939332 0.00124727 0.00123117)
(0.0933102 0.00114826 0.00119459)
(0.0927053 0.00103735 0.00117257)
(0.092111 0.000920194 0.00116342)
(0.0915233 0.000794757 0.00116493)
(0.096831 0.000436805 0.00138874)
(0.0965301 0.000426789 0.00127044)
(0.0962741 0.000412472 0.00120037)
(0.0959972 0.000384657 0.00117415)
(0.0956989 0.000343336 0.00117416)
(0.0953756 0.000289643 0.00118723)
(0.0950118 0.000221445 0.00121245)
(0.0968279 -0.000442812 0.00138953)
(0.0965249 -0.000436889 0.0012719)
(0.0962652 -0.000429311 0.00120294)
(0.0959819 -0.0004126 0.00117848)
(0.0956729 -0.00038948 0.00118136)
(0.095331 -0.000365901 0.00119991)
(0.0949338 -0.000349286 0.00123722)
(0.0951943 -0.00137662 0.00137309)
(0.0945628 -0.00132935 0.00128786)
(0.0939126 -0.00125526 0.00123533)
(0.0932756 -0.00116074 0.00120226)
(0.092647 -0.00105684 0.00118681)
(0.0920129 -0.000951837 0.00118788)
(0.0898525 -0.00170303 0.0011609)
(0.088452 -0.00160081 0.00107138)
(0.0871536 -0.00148766 0.00100087)
(0.0859493 -0.00137264 0.000954848)
(0.0848232 -0.00126108 0.000931221)
(0.0837551 -0.0011503 0.000926191)
(0.0775667 -0.00103789 0.000693287)
(0.0755571 -0.000938315 0.000562417)
(0.0737498 -0.000858182 0.000483076)
(0.0720984 -0.000780215 0.000438816)
(0.0705739 -0.000698364 0.000415534)
(0.0691566 -0.000616664 0.000403616)
(0.0566869 -0.000321853 0.000325146)
(0.0545531 -0.000249636 0.000255015)
(0.0527029 -0.000197091 0.000205896)
(0.0510682 -0.000157216 0.000171978)
(0.0496127 -0.00012522 0.000149426)
(0.0483056 -9.6291e-05 0.000134102)
(0.0775668 0.000693283 0.00103787)
(0.0755572 0.000562413 0.000938289)
(0.0737499 0.000483072 0.000858148)
(0.0720985 0.000438818 0.00078017)
(0.0705741 0.000415537 0.000698305)
(0.0691569 0.00040361 0.000616584)
(0.0678335 0.000399818 0.000532593)
(0.0931657 0.00107198 0.00106801)
(0.09208 0.000857063 0.000850297)
(0.0911202 0.000706987 0.000695418)
(0.0902716 0.000598838 0.000578313)
(0.0895111 0.000519863 0.000486513)
(0.0888215 0.000464808 0.000414809)
(0.088204 0.000426819 0.000351523)
(0.0991867 0.00166542 0.00157443)
(0.0986941 0.00146214 0.00138806)
(0.0982504 0.00129512 0.00124733)
(0.0978633 0.00115683 0.00114261)
(0.0975307 0.00104205 0.00106603)
(0.0972501 0.000944645 0.00100714)
(0.0970214 0.00085718 0.000956773)
(0.102279 0.00145793 0.00196492)
(0.102283 0.00130123 0.00180295)
(0.102277 0.00115009 0.00165433)
(0.102274 0.00101741 0.00154664)
(0.10228 0.00090116 0.00147171)
(0.102297 0.00079406 0.00142033)
(0.102325 0.000686846 0.00138713)
(0.103428 0.000546263 0.00204554)
(0.10368 0.00049883 0.00193758)
(0.103897 0.000452487 0.00183418)
(0.104093 0.000402847 0.00173967)
(0.104279 0.000349624 0.0016598)
(0.104454 0.000294558 0.00161199)
(0.104611 0.000232666 0.00159891)
(0.103425 -0.000550894 0.00204679)
(0.103676 -0.000506617 0.0019395)
(0.103891 -0.000465737 0.00183731)
(0.104082 -0.000425027 0.0017447)
(0.104261 -0.000386278 0.00166862)
(0.104424 -0.000353195 0.00162803)
(0.10456 -0.000325698 0.00162603)
(0.102274 -0.00145907 0.00196781)
(0.102274 -0.00130297 0.00180731)
(0.102264 -0.00115326 0.00166134)
(0.102251 -0.00102266 0.00155886)
(0.102242 -0.000909683 0.00149257)
(0.102233 -0.000805557 0.00145578)
(0.0991829 -0.00166285 0.00157793)
(0.0986876 -0.00145771 0.001394)
(0.0982392 -0.00128747 0.00125721)
(0.0978446 -0.00114452 0.00115917)
(0.0974996 -0.00102146 0.00109336)
(0.0972006 -0.000909434 0.00105191)
(0.0931657 -0.00106801 0.00107199)
(0.09208 -0.000850308 0.000857075)
(0.0911201 -0.000695431 0.000707001)
(0.0902715 -0.000578331 0.000598854)
(0.0895109 -0.000486542 0.000519891)
(0.0888211 -0.000414938 0.000464946)
(0.0775695 -0.000691124 0.00104181)
(0.075562 -0.00055885 0.000945017)
(0.0737582 -0.000477129 0.000869593)
(0.0721134 -0.000427513 0.000799582)
(0.0706007 -0.000396294 0.000730323)
(0.0692026 -0.00037834 0.00066833)
(0.0898525 0.0011609 0.00170301)
(0.0884521 0.00107138 0.00160078)
(0.0871537 0.00100087 0.00148762)
(0.0859494 0.000954849 0.00137259)
(0.0848234 0.000931217 0.00126101)
(0.0837554 0.000926194 0.00115023)
(0.0827297 0.000936833 0.00103237)
(0.0991829 0.00157792 0.00166283)
(0.0986877 0.00139398 0.00145768)
(0.0982393 0.00125719 0.00128743)
(0.0978447 0.00115914 0.00114447)
(0.0974997 0.0010933 0.00102138)
(0.0972008 0.00105179 0.000909294)
(0.0969457 0.00102918 0.000797858)
(0.102716 0.00187081 0.0018672)
(0.102743 0.00167403 0.00166813)
(0.102758 0.00150968 0.00150003)
(0.102781 0.00137452 0.00135885)
(0.10282 0.00126463 0.00123935)
(0.102881 0.00117631 0.00113577)
(0.102968 0.00110545 0.00104098)
(0.104392 0.00149095 0.00205169)
(0.10482 0.00134411 0.00190383)
(0.1052 0.00120823 0.00176413)
(0.105546 0.00108776 0.00164139)
(0.105871 0.000982717 0.00153708)
(0.106188 0.000889898 0.00145021)
(0.106502 0.000804787 0.00137815)
(0.105007 0.000557608 0.00207981)
(0.105643 0.0005075 0.00198177)
(0.106217 0.000457782 0.00187578)
(0.106739 0.000410851 0.00177405)
(0.107221 0.000366968 0.00168503)
(0.107673 0.000325113 0.00161528)
(0.108106 0.000282605 0.00156739)
(0.105006 -0.000559935 0.0020812)
(0.10564 -0.000511279 0.00198395)
(0.106212 -0.000463974 0.00187931)
(0.106733 -0.000420888 0.00177995)
(0.107212 -0.000382891 0.00169498)
(0.107658 -0.000349563 0.00163179)
(0.108085 -0.000319318 0.00159357)
(0.104389 -0.00149009 0.0020551)
(0.104816 -0.0013427 0.00190914)
(0.105193 -0.00120612 0.0017725)
(0.105535 -0.00108455 0.00165502)
(0.105855 -0.000977748 0.00155915)
(0.106162 -0.000881548 0.00148623)
(0.102716 -0.00186722 0.00187084)
(0.102743 -0.00166815 0.00167407)
(0.102758 -0.00150006 0.00150974)
(0.102781 -0.00135888 0.0013746)
(0.102819 -0.0012394 0.00126473)
(0.102881 -0.00113584 0.00117645)
(0.0991866 -0.00157443 0.00166545)
(0.098694 -0.00138806 0.00146218)
(0.0982503 -0.00124734 0.00129517)
(0.0978632 -0.00114261 0.0011569)
(0.0975305 -0.00106602 0.00104213)
(0.0972499 -0.00100712 0.000944751)
(0.0898592 -0.00115906 0.00170476)
(0.0884635 -0.00106839 0.00160374)
(0.0871728 -0.000995915 0.00149254)
(0.0859813 -0.00094696 0.00138078)
(0.0848769 -0.00091756 0.00127439)
(0.0838445 -0.000902494 0.00117137)
(0.0951944 0.00137309 0.00137659)
(0.0945628 0.00128785 0.00132931)
(0.0939127 0.00123532 0.00125521)
(0.0932757 0.00120225 0.00116067)
(0.0926471 0.00118679 0.00105675)
(0.0920131 0.00118784 0.000951714)
(0.0913577 0.0012066 0.000846763)
(0.102274 0.00196779 0.00145904)
(0.102274 0.00180728 0.00130293)
(0.102264 0.00166131 0.00115321)
(0.102251 0.00155881 0.00102259)
(0.102242 0.00149249 0.000909575)
(0.102233 0.00145565 0.000805402)
(0.102223 0.00144729 0.000702557)
(0.104389 0.00205506 0.00149007)
(0.104816 0.00190909 0.00134267)
(0.105193 0.00177244 0.00120608)
(0.105535 0.00165494 0.00108449)
(0.105855 0.00155904 0.000977668)
(0.106162 0.00148608 0.000881441)
(0.106463 0.00143631 0.000790873)
(0.105224 0.00152693 0.00152513)
(0.105939 0.00142783 0.00142499)
(0.106594 0.00132366 0.00131918)
(0.107199 0.00122507 0.00121796)
(0.107764 0.00113728 0.00112601)
(0.108297 0.00106214 0.00104431)
(0.108807 0.000999821 0.000971943)
(0.105516 0.000557505 0.00150827)
(0.106367 0.000523734 0.00144474)
(0.107164 0.000486416 0.00136882)
(0.107907 0.000449811 0.00128923)
(0.1086 0.000416267 0.00121272)
(0.109252 0.000386645 0.00114412)
(0.10987 0.000360496 0.00108693)
(0.105515 -0.000557616 0.00150923)
(0.106366 -0.000523981 0.00144622)
(0.107163 -0.000486867 0.00137114)
(0.107905 -0.000450492 0.00129289)
(0.108598 -0.000417109 0.00121845)
(0.109248 -0.000387407 0.00115303)
(0.109866 -0.000360917 0.00110068)
(0.105224 -0.00152514 0.00152698)
(0.105939 -0.00142501 0.00142789)
(0.106594 -0.00131922 0.00132374)
(0.107199 -0.00121801 0.00122518)
(0.107764 -0.00112606 0.00113742)
(0.108297 -0.00104439 0.00106231)
(0.104392 -0.0020517 0.00149101)
(0.10482 -0.00190384 0.00134418)
(0.1052 -0.00176415 0.00120832)
(0.105545 -0.00164141 0.00108787)
(0.105871 -0.00153712 0.000982857)
(0.106188 -0.00145026 0.000890078)
(0.102279 -0.00196493 0.00145798)
(0.102283 -0.00180296 0.0013013)
(0.102277 -0.00165434 0.00115018)
(0.102274 -0.00154665 0.00101753)
(0.10228 -0.0014717 0.000901304)
(0.102297 -0.0014203 0.000794245)
(0.0952013 -0.00137218 0.00137368)
(0.0945748 -0.0012859 0.00132437)
(0.0939331 -0.00123117 0.00124737)
(0.0933101 -0.00119459 0.00114839)
(0.0927051 -0.00117257 0.00103752)
(0.0921108 -0.00116341 0.00092042)
(0.0968279 0.00138952 0.000442781)
(0.0965249 0.00127189 0.000436848)
(0.0962652 0.00120293 0.000429257)
(0.095982 0.00117846 0.00041253)
(0.095673 0.00118133 0.000389389)
(0.0953311 0.00119987 0.000365776)
(0.094934 0.00123711 0.000349093)
(0.103425 0.00204677 0.000550862)
(0.103676 0.00193947 0.000506572)
(0.103891 0.00183727 0.000465677)
(0.104082 0.00174464 0.000424944)
(0.104261 0.00166854 0.000386165)
(0.104424 0.0016279 0.000353041)
(0.10456 0.00162587 0.000325513)
(0.105006 0.00208116 0.000559909)
(0.10564 0.0019839 0.000511243)
(0.106212 0.00187925 0.000463925)
(0.106733 0.00177987 0.000420821)
(0.107212 0.00169487 0.000382799)
(0.107658 0.00163165 0.000349442)
(0.108085 0.0015934 0.000319172)
(0.105515 0.00150919 0.000557596)
(0.106366 0.00144616 0.000523954)
(0.107163 0.00137107 0.00048683)
(0.107905 0.00129279 0.000450443)
(0.108598 0.00121834 0.000417043)
(0.109248 0.00115288 0.00038732)
(0.109866 0.00110051 0.000360804)
(0.105676 0.000546136 0.000545854)
(0.106626 0.000523974 0.00052355)
(0.107529 0.000497011 0.00049637)
(0.108382 0.000468674 0.000467691)
(0.109184 0.000441407 0.000439876)
(0.109941 0.000416859 0.00041447)
(0.110657 0.000396088 0.000392413)
(0.105676 -0.000545864 0.000546193)
(0.106626 -0.000523564 0.000524045)
(0.107529 -0.00049639 0.000497099)
(0.108382 -0.000467717 0.000468782)
(0.109184 -0.000439911 0.000441538)
(0.109941 -0.000414517 0.000417018)
(0.110657 -0.000392476 0.000396276)
(0.105516 -0.00150829 0.000557571)
(0.106367 -0.00144475 0.000523816)
(0.107164 -0.00136884 0.000486519)
(0.107907 -0.00128926 0.000449939)
(0.1086 -0.00121276 0.000416426)
(0.109251 -0.00114417 0.000386839)
(0.105007 -0.00207982 0.000557679)
(0.105643 -0.00198178 0.00050759)
(0.106216 -0.00187579 0.000457897)
(0.106739 -0.00177406 0.000410997)
(0.107221 -0.00168504 0.000367151)
(0.107673 -0.0016153 0.000325345)
(0.103428 -0.00204555 0.000546336)
(0.10368 -0.00193759 0.000498926)
(0.103897 -0.00183419 0.000452613)
(0.104093 -0.00173967 0.000403009)
(0.104279 -0.00165979 0.000349831)
(0.104454 -0.00161195 0.000294824)
(0.0968309 -0.00138874 0.000436869)
(0.0965301 -0.00127045 0.000426877)
(0.0962741 -0.00120038 0.00041259)
(0.0959971 -0.00117417 0.000384816)
(0.0956988 -0.00117418 0.000343549)
(0.0953755 -0.00118724 0.000289922)
(0.096831 0.00138873 -0.000436833)
(0.0965301 0.00127044 -0.000426827)
(0.0962741 0.00120036 -0.000412524)
(0.0959972 0.00117414 -0.000384728)
(0.0956989 0.00117414 -0.000343435)
(0.0953757 0.00118719 -0.000289781)
(0.0950119 0.00121237 -0.000221633)
(0.103428 0.00204552 -0.000546293)
(0.10368 0.00193755 -0.00049887)
(0.103897 0.00183414 -0.000452542)
(0.104093 0.00173962 -0.000402922)
(0.104279 0.00165972 -0.000349727)
(0.104454 0.00161188 -0.000294698)
(0.104611 0.00159875 -0.000232854)
(0.105007 0.00207978 -0.000557634)
(0.105643 0.00198173 -0.000507535)
(0.106217 0.00187573 -0.00045783)
(0.106739 0.00177398 -0.000410916)
(0.107221 0.00168494 -0.000367055)
(0.107673 0.00161516 -0.000325228)
(0.108106 0.00156724 -0.000282754)
(0.105516 0.00150824 -0.000557523)
(0.106367 0.00144469 -0.000523759)
(0.107164 0.00136876 -0.000486449)
(0.107907 0.00128916 -0.000449855)
(0.1086 0.00121264 -0.000416326)
(0.109252 0.00114402 -0.00038672)
(0.10987 0.0010868 -0.000360593)
(0.105676 0.00054581 -0.000546143)
(0.106626 0.000523496 -0.000523983)
(0.107529 0.000496303 -0.000497024)
(0.108382 0.000467609 -0.000468693)
(0.109184 0.000439779 -0.000441432)
(0.109941 0.000414355 -0.000416894)
(0.110657 0.000392278 -0.000396135)
(0.105676 -0.000546191 -0.000545801)
(0.106626 -0.000524043 -0.000523486)
(0.107529 -0.000497097 -0.000496292)
(0.108382 -0.000468781 -0.000467597)
(0.109184 -0.000441539 -0.000439764)
(0.109941 -0.000417021 -0.000414338)
(0.110657 -0.000396283 -0.00039226)
(0.105515 -0.00150924 -0.000557543)
(0.106366 -0.00144623 -0.000523889)
(0.107163 -0.00137115 -0.000486751)
(0.107905 -0.00129289 -0.000450347)
(0.108598 -0.00121846 -0.000416928)
(0.109248 -0.00115304 -0.000387182)
(0.105006 -0.0020812 -0.000559856)
(0.10564 -0.00198395 -0.000511178)
(0.106212 -0.00187932 -0.000463844)
(0.106733 -0.00177995 -0.000420722)
(0.107212 -0.00169497 -0.00038268)
(0.107658 -0.00163177 -0.000349294)
(0.103425 -0.00204679 -0.000550811)
(0.103676 -0.0019395 -0.000506509)
(0.103891 -0.00183732 -0.000465596)
(0.104082 -0.00174469 -0.00042484)
(0.104261 -0.00166861 -0.000386036)
(0.104424 -0.00162798 -0.00035288)
(0.0968279 -0.00138953 -0.000442742)
(0.0965249 -0.0012719 -0.000436793)
(0.0962652 -0.00120294 -0.00042918)
(0.0959819 -0.00117847 -0.000412425)
(0.0956729 -0.00118134 -0.000389248)
(0.095331 -0.00119988 -0.000365598)
(0.0952013 0.00137217 -0.00137365)
(0.0945748 0.00128589 -0.00132433)
(0.0939332 0.00123115 -0.00124732)
(0.0933102 0.00119456 -0.00114832)
(0.0927053 0.00117252 -0.00103743)
(0.092111 0.00116335 -0.000920307)
(0.0915233 0.00116483 -0.000794914)
(0.102279 0.00196491 -0.00145795)
(0.102283 0.00180293 -0.00130125)
(0.102277 0.0016543 -0.00115013)
(0.102274 0.0015466 -0.00101747)
(0.10228 0.00147165 -0.000901238)
(0.102297 0.00142024 -0.000794168)
(0.102325 0.00138701 -0.000686996)
(0.104392 0.00205167 -0.00149097)
(0.10482 0.0019038 -0.00134414)
(0.1052 0.00176409 -0.00120827)
(0.105546 0.00164134 -0.00108781)
(0.105871 0.00153702 -0.000982787)
(0.106188 0.00145014 -0.000889994)
(0.106502 0.00137806 -0.000804913)
(0.105224 0.0015251 -0.00152694)
(0.105939 0.00142496 -0.00142784)
(0.106594 0.00131914 -0.00132368)
(0.107199 0.00121792 -0.0012251)
(0.107764 0.00112595 -0.00113733)
(0.108297 0.00104424 -0.0010622)
(0.108807 0.000971868 -0.000999901)
(0.105515 0.000557566 -0.00150919)
(0.106366 0.000523917 -0.00144617)
(0.107163 0.000486787 -0.00137107)
(0.107905 0.000450393 -0.0012928)
(0.108598 0.000416986 -0.00121835)
(0.109248 0.000387255 -0.0011529)
(0.109866 0.000360732 -0.00110054)
(0.104617 -0.000582251 -0.0015491)
(0.105516 -0.000557557 -0.00150822)
(0.106367 -0.000523799 -0.00144468)
(0.107164 -0.000486496 -0.00136874)
(0.107907 -0.00044991 -0.00128914)
(0.1086 -0.000416388 -0.00121261)
(0.109252 -0.00038679 -0.00114398)
(0.10987 -0.00036067 -0.00108677)
(0.104446 -0.00160501 -0.00160379)
(0.105224 -0.00152698 -0.00152507)
(0.105939 -0.00142789 -0.00142492)
(0.106594 -0.00132373 -0.0013191)
(0.107199 -0.00122516 -0.00121786)
(0.107764 -0.0011374 -0.00112588)
(0.108297 -0.00106228 -0.00104415)
(0.103893 -0.0021871 -0.00163322)
(0.104389 -0.0020551 -0.00149002)
(0.104816 -0.00190914 -0.0013426)
(0.105193 -0.0017725 -0.001206)
(0.105535 -0.00165501 -0.00108439)
(0.105855 -0.00155914 -0.000977538)
(0.106162 -0.0014862 -0.000881277)
(0.102251 -0.0021179 -0.00160728)
(0.102274 -0.00196781 -0.00145899)
(0.102274 -0.00180732 -0.00130287)
(0.102264 -0.00166136 -0.00115312)
(0.102251 -0.00155887 -0.00102248)
(0.102242 -0.00149257 -0.000909454)
(0.102233 -0.00145575 -0.000805261)
(0.0958635 -0.00149889 -0.00140875)
(0.0951943 -0.0013731 -0.00137654)
(0.0945628 -0.00128787 -0.00132925)
(0.0939127 -0.00123534 -0.00125512)
(0.0932757 -0.00120227 -0.00116056)
(0.0926471 -0.00118681 -0.0010566)
(0.092013 -0.00118786 -0.000951519)
(0.0898592 0.00115905 -0.00170474)
(0.0884636 0.00106838 -0.00160372)
(0.0871729 0.000995896 -0.00149251)
(0.0859815 0.000946932 -0.00138074)
(0.0848772 0.000917527 -0.00127434)
(0.0838448 0.000902464 -0.00117133)
(0.0828781 0.000896015 -0.00106494)
(0.0991867 0.00157442 -0.00166543)
(0.0986941 0.00138804 -0.00146216)
(0.0982504 0.00124731 -0.00129514)
(0.0978633 0.00114258 -0.00115686)
(0.0975307 0.00106599 -0.00104209)
(0.09725 0.00100708 -0.000944709)
(0.0970212 0.00095668 -0.000857259)
(0.102716 0.00186719 -0.00187082)
(0.102743 0.00166811 -0.00167404)
(0.102758 0.00150001 -0.0015097)
(0.102781 0.00135882 -0.00137455)
(0.10282 0.00123932 -0.00126467)
(0.102881 0.00113573 -0.00117636)
(0.102968 0.00104094 -0.00110551)
(0.104389 0.00149006 -0.00205507)
(0.104816 0.00134265 -0.0019091)
(0.105193 0.00120606 -0.00177245)
(0.105535 0.00108447 -0.00165495)
(0.105855 0.000977647 -0.00155906)
(0.106162 0.000881423 -0.00148611)
(0.106463 0.000790862 -0.00143635)
(0.105006 0.000559891 -0.00208116)
(0.10564 0.000511222 -0.0019839)
(0.106212 0.000463902 -0.00187925)
(0.106733 0.000420798 -0.00177987)
(0.107212 0.000382779 -0.00169487)
(0.107658 0.000349428 -0.00163165)
(0.108085 0.000319165 -0.0015934)
(0.104298 -0.000603528 -0.0021534)
(0.105007 -0.000557657 -0.00207977)
(0.105643 -0.000507561 -0.00198172)
(0.106217 -0.000457857 -0.00187571)
(0.106739 -0.000410943 -0.00177396)
(0.107221 -0.000367078 -0.00168491)
(0.107673 -0.000325245 -0.00161512)
(0.108106 -0.000282764 -0.0015672)
(0.103895 -0.00163386 -0.00218497)
(0.104392 -0.001491 -0.00205164)
(0.10482 -0.00134417 -0.00190377)
(0.1052 -0.0012083 -0.00176406)
(0.105546 -0.00108784 -0.00164129)
(0.105871 -0.000982822 -0.00153695)
(0.106188 -0.000890024 -0.00145005)
(0.102646 -0.00209366 -0.00209135)
(0.102716 -0.00187084 -0.00186715)
(0.102743 -0.00167407 -0.00166806)
(0.102758 -0.00150974 -0.00149995)
(0.102781 -0.0013746 -0.00135875)
(0.10282 -0.00126472 -0.00123923)
(0.102881 -0.00117642 -0.00113561)
(0.0997085 -0.00182462 -0.00191482)
(0.0991829 -0.00157794 -0.00166278)
(0.0986877 -0.00139402 -0.00145762)
(0.0982393 -0.00125724 -0.00128736)
(0.0978447 -0.0011592 -0.00114438)
(0.0974997 -0.00109339 -0.00102128)
(0.0972008 -0.00105192 -0.000909189)
(0.0913634 -0.00127173 -0.00179999)
(0.0898525 -0.00116092 -0.00170297)
(0.0884521 -0.0010714 -0.00160073)
(0.0871537 -0.0010009 -0.00148755)
(0.0859495 -0.000954882 -0.0013725)
(0.0848234 -0.000931256 -0.00126089)
(0.0837554 -0.00092622 -0.00115005)
(0.0775696 0.000691121 -0.00104181)
(0.0755621 0.000558843 -0.000945008)
(0.0737583 0.000477118 -0.000869582)
(0.0721136 0.000427501 -0.000799571)
(0.0706009 0.000396276 -0.000730312)
(0.069203 0.000378325 -0.000668314)
(0.0679086 0.000371109 -0.000618365)
(0.0931657 0.001068 -0.00107198)
(0.09208 0.000850293 -0.000857066)
(0.0911202 0.000695412 -0.000706992)
(0.0902716 0.000578307 -0.000598847)
(0.0895111 0.000486507 -0.000519877)
(0.0888214 0.000414801 -0.000464827)
(0.0882039 0.00035151 -0.000426829)
(0.0991829 0.00166282 -0.00157792)
(0.0986877 0.00145768 -0.00139399)
(0.0982393 0.00128742 -0.00125719)
(0.0978447 0.00114446 -0.00115913)
(0.0974997 0.00102137 -0.0010933)
(0.0972007 0.000909288 -0.00105178)
(0.0969456 0.000797859 -0.00102918)
(0.102274 0.00145904 -0.00196779)
(0.102274 0.00130292 -0.00180728)
(0.102264 0.0011532 -0.00166131)
(0.102251 0.00102258 -0.00155881)
(0.102242 0.000909576 -0.00149248)
(0.102233 0.000805412 -0.00145564)
(0.102223 0.000702585 -0.00144728)
(0.103425 0.000550852 -0.00204676)
(0.103676 0.000506561 -0.00193946)
(0.103891 0.000465666 -0.00183727)
(0.104082 0.000424938 -0.00174463)
(0.104261 0.000386167 -0.00166853)
(0.104424 0.000353056 -0.00162789)
(0.10456 0.000325546 -0.00162585)
(0.103124 -0.000592983 -0.00213471)
(0.103428 -0.000546308 -0.00204551)
(0.10368 -0.000498886 -0.00193754)
(0.103897 -0.000452557 -0.00183413)
(0.104093 -0.000402934 -0.0017396)
(0.104279 -0.000349729 -0.0016597)
(0.104454 -0.000294681 -0.00161184)
(0.104611 -0.000232819 -0.00159872)
(0.102254 -0.0016067 -0.00211598)
(0.102279 -0.00145797 -0.00196489)
(0.102283 -0.00130128 -0.00180291)
(0.102277 -0.00115015 -0.00165427)
(0.102274 -0.00101749 -0.00154656)
(0.10228 -0.000901246 -0.00147159)
(0.102297 -0.000794154 -0.00142015)
(0.0997107 -0.00191658 -0.00182258)
(0.0991867 -0.00166545 -0.00157439)
(0.0986941 -0.00146219 -0.001388)
(0.0982504 -0.00129518 -0.00124726)
(0.0978633 -0.0011569 -0.00114252)
(0.0975307 -0.00104212 -0.0010659)
(0.0972501 -0.000944718 -0.00100695)
(0.0943939 -0.0013836 -0.00138117)
(0.0931657 -0.001072 -0.00106796)
(0.0920801 -0.000857099 -0.000850245)
(0.0911203 -0.000707033 -0.000695354)
(0.0902716 -0.000598898 -0.000578231)
(0.0895111 -0.000519942 -0.000486418)
(0.0888215 -0.000464992 -0.00041479)
(0.0798652 -0.000897752 -0.00117779)
(0.0775668 -0.000693302 -0.00103784)
(0.0755572 -0.000562437 -0.000938251)
(0.0737499 -0.000483102 -0.000858098)
(0.0720986 -0.000438851 -0.000780105)
(0.0705741 -0.000415576 -0.000698222)
(0.069157 -0.000403652 -0.000616498)
(0.0566869 0.000321848 -0.000325149)
(0.0545532 0.000249628 -0.000255019)
(0.0527029 0.000197082 -0.000205903)
(0.0510683 0.000157201 -0.000171987)
(0.0496129 0.000125204 -0.000149445)
(0.0483059 9.62588e-05 -0.000134105)
(0.0471217 6.62093e-05 -0.000125312)
(0.0775668 0.00103788 -0.000693284)
(0.0755572 0.000938299 -0.000562414)
(0.0737499 0.000858159 -0.000483072)
(0.0720986 0.000780185 -0.000438815)
(0.0705741 0.000698323 -0.000415531)
(0.069157 0.000616605 -0.000403601)
(0.0678336 0.000532622 -0.000399793)
(0.0898525 0.00170301 -0.0011609)
(0.0884521 0.00160078 -0.00107137)
(0.0871537 0.00148762 -0.00100086)
(0.0859495 0.00137259 -0.000954837)
(0.0848234 0.00126101 -0.000931197)
(0.0837554 0.00115024 -0.000926163)
(0.0827297 0.00103239 -0.000936789)
(0.0951944 0.00137659 -0.00137309)
(0.0945628 0.00132931 -0.00128785)
(0.0939127 0.00125521 -0.00123532)
(0.0932757 0.00116068 -0.00120224)
(0.0926472 0.00105676 -0.00118678)
(0.0920131 0.000951735 -0.00118782)
(0.0913577 0.000846803 -0.00120657)
(0.0968279 0.000442779 -0.00138952)
(0.0965249 0.000436845 -0.00127188)
(0.0962652 0.000429256 -0.00120292)
(0.095982 0.000412533 -0.00117846)
(0.095673 0.000389399 -0.00118133)
(0.0953312 0.0003658 -0.00119986)
(0.0949341 0.00034914 -0.0012371)
(0.0971811 -0.000449655 -0.00154734)
(0.096831 -0.00043684 -0.00138873)
(0.0965302 -0.000426835 -0.00127043)
(0.0962742 -0.000412531 -0.00120035)
(0.0959973 -0.000384732 -0.00117413)
(0.095699 -0.000343433 -0.00117413)
(0.0953758 -0.000289765 -0.00118719)
(0.095012 -0.000221585 -0.00121236)
(0.0958676 -0.00140699 -0.00149833)
(0.0952013 -0.00137367 -0.00137216)
(0.0945749 -0.00132435 -0.00128587)
(0.0939332 -0.00124734 -0.00123113)
(0.0933103 -0.00114834 -0.00119454)
(0.0927054 -0.00103744 -0.0011725)
(0.0921112 -0.000920307 -0.00116332)
(0.0913672 -0.00180109 -0.0012706)
(0.0898592 -0.00170477 -0.00115903)
(0.0884636 -0.00160374 -0.00106835)
(0.0871729 -0.00149254 -0.000995866)
(0.0859816 -0.00138077 -0.0009469)
(0.0848772 -0.00127436 -0.000917482)
(0.083845 -0.00117131 -0.00090239)
(0.0798668 -0.00118012 -0.000896355)
(0.0775696 -0.00104184 -0.000691096)
(0.0755621 -0.000945044 -0.000558815)
(0.0737584 -0.000869623 -0.000477085)
(0.0721136 -0.000799612 -0.000427455)
(0.070601 -0.000730353 -0.00039622)
(0.069203 -0.000668367 -0.000378264)
(0.0592221 -0.000427055 -0.000425044)
(0.056687 -0.00032518 -0.000321812)
(0.0545532 -0.000255057 -0.000249586)
(0.052703 -0.000205946 -0.000197033)
(0.0510684 -0.000172037 -0.000157144)
(0.049613 -0.000149495 -0.000125131)
(0.0483059 -0.000134177 -9.61865e-05)
)
;

boundaryField
{
    inlet
    {
        type            fixedValue;
        value           nonuniform List<vector> 0();
    }
    ami1
    {
        type            cyclicAMI;
        value           nonuniform List<vector> 0();
    }
    walls
    {
        type            noSlip;
    }
    ami2
    {
        type            cyclicAMI;
        value           nonuniform List<vector> 0();
    }
    outlet
    {
        type            zeroGradient;
    }
    procBoundary3to2
    {
        type            processor;
        value           nonuniform List<vector> 
110
(
(0.0460562 0.00012404 2.86557e-05)
(0.0667196 0.000575553 0.000363336)
(0.0819803 0.000946314 0.000891713)
(0.0909392 0.000652515 0.00117346)
(0.094596 0.000135824 0.00125747)
(0.094462 -0.00034966 0.00130471)
(0.0913575 -0.000846967 0.00120669)
(0.0913575 -0.000846967 0.00120669)
(0.0827295 -0.00103249 0.000936874)
(0.0678333 -0.000532706 0.000399857)
(0.0471214 -6.62087e-05 0.000125302)
(0.0665961 0.000409294 0.00043174)
(0.0876624 0.00040036 0.000276693)
(0.0968469 0.000770189 0.000907752)
(0.102368 0.000567882 0.00136779)
(0.10475 0.000156943 0.00161037)
(0.104672 -0.000304914 0.00165337)
(0.102223 -0.000702695 0.00144739)
(0.102223 -0.000702695 0.00144739)
(0.0969453 -0.000797909 0.0010292)
(0.0882035 -0.000351551 0.000426852)
(0.0679083 -0.00037119 0.000618484)
(0.0817336 0.00096368 0.000896789)
(0.096731 0.0010263 0.000677634)
(0.103083 0.00104768 0.000946772)
(0.10682 0.000724124 0.001317)
(0.108526 0.000237023 0.00154072)
(0.108495 -0.000292434 0.00158148)
(0.106463 -0.000790992 0.00143646)
(0.106463 -0.000790992 0.00143646)
(0.102968 -0.00104106 0.0011056)
(0.097021 -0.000956803 0.000857368)
(0.0828777 -0.000896108 0.00106506)
(0.0906593 0.00124863 0.000735207)
(0.102208 0.00147021 0.000594033)
(0.106761 0.00140956 0.000703691)
(0.109301 0.000949852 0.0009072)
(0.110463 0.00033582 0.00104426)
(0.110458 -0.0003363 0.00106546)
(0.108807 -0.000972051 0.00100002)
(0.108807 -0.000972051 0.00100002)
(0.106502 -0.00137823 0.000805014)
(0.102325 -0.00138718 0.000687136)
(0.0915229 -0.00116493 0.000795064)
(0.0944622 0.00130453 0.000349385)
(0.104672 0.00165315 0.000304689)
(0.108495 0.00158126 0.00029225)
(0.110458 0.00106526 0.000336157)
(0.111342 0.000379718 0.000374298)
(0.111342 -0.000374383 0.00037994)
(0.10987 -0.001087 0.000360733)
(0.10987 -0.001087 0.000360733)
(0.108106 -0.00156743 0.000282906)
(0.104611 -0.00159891 0.000233031)
(0.0950116 -0.00121243 0.000221793)
(0.0945962 0.00125732 -0.000136058)
(0.10475 0.00161016 -0.000157184)
(0.108526 0.00154054 -0.000237219)
(0.110463 0.00104411 -0.000335947)
(0.111342 0.000374141 -0.000379781)
(0.111342 -0.000379953 -0.000374124)
(0.109866 -0.00110069 -0.000360639)
(0.109866 -0.00110069 -0.000360639)
(0.108085 -0.00159353 -0.000318976)
(0.10456 -0.00162595 -0.000325291)
(0.0949339 -0.00123714 -0.000348887)
(0.0909393 0.00117331 -0.000652743)
(0.102368 0.00136761 -0.000568094)
(0.10682 0.00131688 -0.000724294)
(0.109301 0.000907118 -0.00094996)
(0.110458 0.000336079 -0.0010653)
(0.110463 -0.000336029 -0.00104407)
(0.108807 -0.000999982 -0.000971749)
(0.108807 -0.000999982 -0.000971749)
(0.106463 -0.00143641 -0.000790643)
(0.102223 -0.00144732 -0.000702306)
(0.0913577 -0.00120664 -0.000846551)
(0.0819802 0.000891572 -0.000946421)
(0.0968467 0.000907635 -0.000770305)
(0.103083 0.00094674 -0.00104778)
(0.106761 0.000703696 -0.00140962)
(0.108495 0.000292257 -0.00158127)
(0.108526 -0.000237217 -0.00154049)
(0.106502 -0.000804939 -0.00137796)
(0.106502 -0.000804939 -0.00137796)
(0.102968 -0.00110555 -0.00104075)
(0.0969456 -0.00102918 -0.00079758)
(0.0827299 -0.000936881 -0.00103216)
(0.0667197 0.000363258 -0.000575546)
(0.0876622 0.000276677 -0.000400378)
(0.0967308 0.000677654 -0.00102631)
(0.102208 0.00059409 -0.00147021)
(0.104672 0.00030475 -0.00165314)
(0.10475 -0.000157127 -0.00161013)
(0.102325 -0.000686999 -0.00138697)
(0.102325 -0.000686999 -0.00138697)
(0.0970214 -0.00085731 -0.000956567)
(0.088204 -0.00042689 -0.000351357)
(0.0678338 -0.000399881 -0.000532492)
(0.0460562 2.86501e-05 -0.000124035)
(0.0665961 0.000431773 -0.000409249)
(0.0817336 0.000896823 -0.000963621)
(0.0906594 0.000735273 -0.0012486)
(0.0944623 0.000349467 -0.00130452)
(0.0945963 -0.000135957 -0.0012573)
(0.0915234 -0.000794898 -0.0011648)
(0.0915234 -0.000794898 -0.0011648)
(0.0828783 -0.00106496 -0.000895963)
(0.0679089 -0.000618514 -0.000371098)
(0.0471219 -0.000125383 -6.60849e-05)
)
;
    }
    procBoundary3to4
    {
        type            processor;
        value           nonuniform List<vector> 
109
(
(0.0592221 0.000427033 0.000425069)
(0.0798668 0.0011801 0.00089638)
(0.0913672 0.00180107 0.00127062)
(0.0958676 0.00140696 0.00149834)
(0.0971811 0.000449628 0.00154735)
(0.0971793 -0.00045317 0.00154781)
(0.0958635 -0.0014088 0.00149888)
(0.0913633 -0.00180003 0.00127171)
(0.0798652 -0.00117783 0.000897741)
(0.0592221 -0.000425075 0.00042703)
(0.0798652 0.000897736 0.00117782)
(0.0943939 0.00138357 0.00138121)
(0.0997107 0.00191655 0.00182261)
(0.102254 0.00160666 0.00211601)
(0.103124 0.000592949 0.00213473)
(0.103122 -0.000595783 0.00213554)
(0.102251 -0.00160734 0.00211789)
(0.0997085 -0.00191487 0.00182462)
(0.0943939 -0.00138121 0.00138358)
(0.0798667 -0.000896377 0.0011801)