/*--------------------------------*- C++ -*----------------------------------*\
| =========                 |                                                 |
| \\      /  F ield         | OpenFOAM: The Open Source CFD Toolbox           |
|  \\    /   O peration     | Version:  2212                                  |
|   \\  /    A nd           | Website:  www.openfoam.com                      |
|    \\/     M anipulation  |                                                 |
\*---------------------------------------------------------------------------*/
FoamFile
{
    version     2.0;
    format      ascii;
    arch        "LSB;label=32;scalar=64";
    class       volScalarField;
    location    "2.95";
    object      epsilon;
}
// * * * * * * * * * * * * * * * * * * * * * * * * * * * * * * * * * * * * * //

dimensions      [0 2 -3 0 0 0 0];

internalField   nonuniform List<scalar> 
6840
(
90.5034
12.1248
4.38869
2.46658
1.63315
1.18306
0.902
0.720644
0.594559
0.50246
0.432613
0.379187
0.336164
0.299622
0.269805
0.245542
0.225604
0.209151
0.196914
0.183274
58.5856
14.5696
6.08946
3.33294
2.08216
1.40266
0.998639
0.740271
0.565883
0.443902
0.355992
0.290891
0.241361
0.202952
0.17305
0.149764
0.131314
0.116603
0.105229
0.0968272
45.0226
13.4729
5.73075
3.07323
1.86023
1.22699
0.873578
0.649783
0.497019
0.389497
0.31131
0.253005
0.20902
0.175275
0.148918
0.12803
0.111338
0.0978935
0.0870493
0.078488
38.7028
13.0541
5.74337
3.08734
1.88067
1.22751
0.869487
0.645398
0.492609
0.384803
0.307058
0.249089
0.205039
0.171074
0.144525
0.123507
0.106679
0.0930663
0.0819721
0.0730272
36.0571
12.8529
5.76645
3.10212
1.89476
1.2267
0.866515
0.644002
0.492275
0.383998
0.305844
0.247984
0.204008
0.170067
0.143499
0.122436
0.105535
0.0918325
0.0806755
0.0720397
36.0571
12.8529
5.76645
3.10212
1.89476
1.2267
0.866508
0.643992
0.492263
0.383981
0.30582
0.247951
0.203963
0.170004
0.14341
0.122314
0.105368
0.0916101
0.0804251
0.072188
38.7028
13.0541
5.74336
3.08733
1.88066
1.2275
0.86947
0.645375
0.49258
0.384765
0.307002
0.249015
0.204936
0.170926
0.144316
0.123213
0.106261
0.092479
0.0812377
0.0731129
45.0226
13.4729
5.73075
3.07322
1.86022
1.22698
0.873563
0.649762
0.496991
0.389448
0.311247
0.25292
0.208903
0.175106
0.148666
0.127661
0.110787
0.0970627
0.0858421
0.0770457
58.5856
14.5696
6.08946
3.33294
2.08216
1.40265
0.998636
0.740265
0.565876
0.443885
0.355966
0.290849
0.241295
0.202812
0.17284
0.149435
0.130748
0.115572
0.103352
0.0937799
90.5034
12.1248
4.38869
2.46658
1.63315
1.18306
0.902
0.720646
0.594559
0.502462
0.432612
0.379192
0.336161
0.299631
0.269806
0.245545
0.225608
0.209159
0.196925
0.183297
58.5856
14.5696
6.08946
3.33294
2.08216
1.40265
0.998635
0.740265
0.565875
0.443884
0.355964
0.290847
0.241293
0.202807
0.172838
0.149433
0.130744
0.115566
0.103344
0.0937679
16.5373
9.49239
5.0127
2.8606
1.75746
1.14759
0.786933
0.562051
0.415369
0.31595
0.246335
0.196226
0.159223
0.131253
0.109773
0.0931974
0.0801547
0.0696398
0.0606731
0.0565686
13.6679
8.73671
5.07741
3.05388
1.92224
1.2661
0.869294
0.618635
0.453966
0.342043
0.263662
0.207326
0.165919
0.134866
0.111155
0.0927044
0.0781829
0.0666435
0.0571706
0.0501503
12.9054
8.33993
5.07879
3.15547
2.02775
1.35121
0.933543
0.666463
0.489553
0.368605
0.283616
0.222402
0.177344
0.143545
0.117754
0.0977843
0.0820985
0.0696296
0.0596006
0.0513492
12.6882
8.1544
5.07113
3.20039
2.07939
1.39506
0.967834
0.692724
0.509641
0.38402
0.295508
0.231653
0.184599
0.149269
0.122292
0.101389
0.0849701
0.0719154
0.0614261
0.052954
12.6882
8.1544
5.07113
3.20038
2.07939
1.39506
0.967831
0.692722
0.509636
0.384015
0.295501
0.231645
0.184588
0.149257
0.122284
0.101374
0.0849509
0.0718933
0.0614019
0.0529248
12.9054
8.33993
5.07879
3.15547
2.02775
1.3512
0.933536
0.666458
0.489544
0.368593
0.283601
0.222383
0.177323
0.143528
0.117735
0.0977527
0.0820611
0.069591
0.0595629
0.0513302
13.6679
8.73671
5.07741
3.05388
1.92223
1.26609
0.869289
0.618631
0.453959
0.342034
0.26365
0.207311
0.165901
0.13485
0.11114
0.0926801
0.0781563
0.066621
0.0571697
0.0501718
16.5373
9.49239
5.0127
2.8606
1.75746
1.14759
0.786932
0.562051
0.415369
0.315949
0.246334
0.196225
0.159222
0.131251
0.109775
0.0931964
0.0801523
0.0696378
0.0606694
0.0565643
58.5856
14.5696
6.08946
3.33295
2.08216
1.40266
0.99864
0.740272
0.565884
0.443903
0.355993
0.290892
0.241363
0.202959
0.173052
0.149765
0.131315
0.116605
0.105232
0.0968351
45.0226
13.4729
5.73075
3.07322
1.86022
1.22698
0.873562
0.649761
0.49699
0.389447
0.311247
0.252919
0.208902
0.175107
0.148664
0.127658
0.110785
0.0970591
0.0858374
0.07704
13.6679
8.73671
5.07741
3.05388
1.92223
1.26609
0.869289
0.618631
0.45396
0.342034
0.263651
0.207312
0.165902
0.134846
0.111144
0.0926823
0.0781587
0.0666242
0.0571706
0.0501693
11.8601
7.76395
4.99734
3.24076
2.14419
1.45499
1.0141
0.725635
0.532157
0.399151
0.305548
0.238224
0.188827
0.151916
0.123874
0.102241
0.085325
0.0719355
0.0611987
0.0526494
11.6229
7.60535
5.0103
3.34209
2.26848
1.57142
1.11236
0.804589
0.594206
0.44752
0.343214
0.267637
0.211904
0.170124
0.138326
0.113789
0.094606
0.0794327
0.0673007
0.0575338
11.5726
7.56718
5.02065
3.38344
2.32103
1.62326
1.15828
0.843156
0.625691
0.47285
0.363485
0.283854
0.224907
0.18059
0.146789
0.120665
0.100222
0.0840421
0.0710976
0.0606013
11.5726
7.56718
5.02065
3.38344
2.32103
1.62326
1.15828
0.843155
0.625689
0.472847
0.363481
0.28385
0.224902
0.180584
0.146784
0.120657
0.100213
0.0840312
0.0710894
0.0606148
11.6229
7.60535
5.0103
3.34209
2.26848
1.57142
1.11236
0.804587
0.594203
0.447515
0.343208
0.26763
0.211895
0.170116
0.138317
0.113775
0.094589
0.0794137
0.0672832
0.0575221
11.8601
7.76395
4.99734
3.24076
2.14419
1.45499
1.0141
0.725635
0.532157
0.39915
0.305547
0.238223
0.188826
0.151915
0.123875
0.102241
0.0853235
0.0719335
0.0611963
0.0526476
13.6679
8.73671
5.07741
3.05388
1.92224
1.2661
0.869293
0.618635
0.453966
0.342043
0.263661
0.207325
0.165918
0.13486
0.111161
0.0927057
0.0781826
0.0666427
0.0571695
0.0501474
45.0226
13.4729
5.73075
3.07323
1.86023
1.22699
0.873578
0.649784
0.49702
0.389497
0.311311
0.253006
0.209022
0.175278
0.148917
0.128029
0.111337
0.0978932
0.0870495
0.0784879
38.7028
13.0541
5.74336
3.08733
1.88066
1.2275
0.86947
0.645374
0.49258
0.384765
0.307002
0.249015
0.204936
0.170928
0.144314
0.123211
0.106259
0.0924767
0.0812347
0.0731096
12.9054
8.33993
5.07879
3.15547
2.02775
1.3512
0.933536
0.666458
0.489544
0.368593
0.283602
0.222383
0.177322
0.14352
0.117741
0.0977551
0.0820624
0.0695923
0.0595642
0.0513314
11.6229
7.60535
5.0103
3.34209
2.26848
1.57142
1.11236
0.804587
0.594203
0.447516
0.343209
0.267631
0.211895
0.170115
0.138319
0.113776
0.0945896
0.0794145
0.067284
0.0575239
11.4933
7.5119
5.02843
3.434
2.3892
1.6928
1.22111
0.896487
0.669456
0.508123
0.391656
0.306286
0.242785
0.194887
0.15828
0.129954
0.107779
0.0902297
0.0761942
0.0648171
11.4757
7.50136
5.04297
3.47002
2.43665
1.74299
1.26863
0.938712
0.705584
0.538336
0.416594
0.326729
0.2595
0.208558
0.169485
0.139169
0.11539
0.0965447
0.0814468
0.0691231
11.4757
7.50136
5.04297
3.47002
2.43665
1.74299
1.26863
0.938712
0.705583
0.538335
0.416593
0.326728
0.259498
0.208556
0.169484
0.139168
0.115388
0.096542
0.0814431
0.0691158
11.4933
7.5119
5.02843
3.434
2.3892
1.6928
1.22111
0.896487
0.669456
0.508122
0.391656
0.306286
0.242784
0.194887
0.15828
0.129954
0.107779
0.0902294
0.0761939
0.064817
11.6229
7.60535
5.0103
3.34209
2.26848
1.57142
1.11236
0.804589
0.594206
0.44752
0.343214
0.267637
0.211903
0.170123
0.138328
0.113789
0.0946051
0.0794315
0.0672994
0.0575313
12.9054
8.33993
5.07879
3.15547
2.02775
1.35121
0.933543
0.666463
0.489553
0.368605
0.283616
0.222401
0.177343
0.143539
0.11776
0.097786
0.0820989
0.0696297
0.0596005
0.0513491
38.7028
13.0541
5.74337
3.08734
1.88067
1.22751
0.869487
0.645398
0.49261
0.384804
0.307058
0.24909
0.20504
0.171076
0.144525
0.123507
0.106679
0.0930663
0.081972
0.0730277
36.0571
12.8529
5.76645
3.10212
1.89476
1.2267
0.866507
0.643992
0.492262
0.383981
0.30582
0.247951
0.203963
0.170005
0.14341
0.122314
0.105368
0.0916099
0.0804245
0.072187
12.6882
8.1544
5.07113
3.20038
2.07939
1.39506
0.967831
0.692722
0.509636
0.384015
0.295501
0.231644
0.184588
0.149256
0.122286
0.101375
0.0849504
0.0718923
0.0614008
0.0529239
11.5726
7.56718
5.02065
3.38344
2.32103
1.62326
1.15828
0.843155
0.625689
0.472847
0.363481
0.28385
0.224901
0.180584
0.146785
0.120658
0.100213
0.084031
0.0710892
0.0606152
11.4757
7.50136
5.04297
3.47002
2.43665
1.74299
1.26863
0.938712
0.705583
0.538335
0.416593
0.326728
0.259498
0.208556
0.169484
0.139168
0.115388
0.0965421
0.0814431
0.0691164
11.4647
7.49683
5.0577
3.50272
2.48038
1.79068
1.31522
0.981305
0.742925
0.57021
0.443351
0.348968
0.277889
0.223736
0.18202
0.149545
0.124007
0.103728
0.0874451
0.0740801
11.4647
7.49683
5.0577
3.50272
2.48038
1.79068
1.31522
0.981305
0.742925
0.57021
0.443351
0.348968
0.277889
0.223736
0.18202
0.149545
0.124007
0.103728
0.087445
0.0740805
11.4757
7.50136
5.04297
3.47002
2.43665
1.74299
1.26863
0.938712
0.705584
0.538336
0.416594
0.326729
0.259499
0.208558
0.169485
0.139169
0.11539
0.0965447
0.0814469
0.0691265
11.5726
7.56718
5.02065
3.38344
2.32103
1.62326
1.15828
0.843156
0.625691
0.47285
0.363485
0.283854
0.224907
0.180589
0.14679
0.120665
0.100222
0.0840418
0.0710975
0.0606026
12.6882
8.1544
5.07113
3.20039
2.07939
1.39506
0.967834
0.692724
0.509641
0.38402
0.295508
0.231653
0.184599
0.149266
0.122293
0.10139
0.0849704
0.0719156
0.0614264
0.0529543
36.0571
12.8529
5.76645
3.10212
1.89476
1.2267
0.866515
0.644002
0.492276
0.383998
0.305845
0.247984
0.204007
0.170066
0.143502
0.122438
0.105537
0.0918341
0.0806777
0.0720511
36.0571
12.8529
5.76645
3.10212
1.89476
1.2267
0.866515
0.644002
0.492275
0.383998
0.305844
0.247984
0.204008
0.170067
0.1435
0.122436
0.105536
0.0918337
0.0806773
0.0720395
12.6882
8.1544
5.07113
3.20039
2.07939
1.39506
0.967834
0.692724
0.509641
0.38402
0.295508
0.231653
0.184598
0.149267
0.122293
0.101389
0.0849689
0.0719135
0.0614236
0.0529515
11.5726
7.56718
5.02065
3.38344
2.32103
1.62326
1.15828
0.843156
0.625691
0.47285
0.363485
0.283854
0.224906
0.18059
0.14679
0.120665
0.100222
0.0840413
0.0710968
0.0606017
11.4757
7.50136
5.04297
3.47002
2.43665
1.74299
1.26863
0.938712
0.705584
0.538336
0.416594
0.326729
0.2595
0.208558
0.169485
0.139169
0.11539
0.0965446
0.0814467
0.0691227
11.4647
7.49683
5.0577
3.50272
2.48038
1.79068
1.31522
0.981305
0.742925
0.57021
0.443351
0.348968
0.277889
0.223736
0.18202
0.149545
0.124007
0.103728
0.0874451
0.074081
11.4647
7.49683
5.0577
3.50272
2.48038
1.79068
1.31522
0.981305
0.742925
0.57021
0.443351
0.348968
0.277889
0.223736
0.18202
0.149545
0.124007
0.103728
0.0874449
0.0740805
11.4757
7.50136
5.04297
3.47002
2.43665
1.74299
1.26863
0.938712
0.705583
0.538335
0.416593
0.326728
0.259498
0.208556
0.169484
0.139168
0.115388
0.0965423
0.0814435
0.0691193
11.5726
7.56718
5.02065
3.38344
2.32103
1.62326
1.15828
0.843155
0.625689
0.472847
0.363481
0.28385
0.224902
0.180585
0.146783
0.120657
0.100213
0.084032
0.0710905
0.0606179
12.6882
8.1544
5.07113
3.20038
2.07939
1.39506
0.967831
0.692722
0.509636
0.384015
0.295502
0.231645
0.184589
0.14926
0.12228
0.101373
0.0849505
0.0718931
0.061402
0.0529255
36.0571
12.8529
5.76645
3.10212
1.89476
1.2267
0.866508
0.643992
0.492263
0.383982
0.30582
0.247951
0.203962
0.170002
0.143414
0.122317
0.105371
0.0916126
0.0804272
0.0721903
38.7028
13.0541
5.74337
3.08734
1.88067
1.22751
0.869487
0.645398
0.492609
0.384803
0.307058
0.249089
0.20504
0.171075
0.144525
0.123508
0.10668
0.0930682
0.0819749
0.0730286
12.9054
8.33993
5.07879
3.15547
2.02775
1.35121
0.933543
0.666463
0.489553
0.368605
0.283616
0.222401
0.177344
0.143545
0.117754
0.0977837
0.0820975
0.0696283
0.0595989
0.0513486
11.6229
7.60535
5.0103
3.34209
2.26848
1.57142
1.11236
0.804589
0.594206
0.44752
0.343214
0.267637
0.211903
0.170124
0.138326
0.113788
0.0946054
0.079432
0.0673
0.057533
11.4933
7.5119
5.02843
3.434
2.3892
1.6928
1.22111
0.896487
0.669456
0.508122
0.391656
0.306286
0.242785
0.194887
0.15828
0.129954
0.107779
0.0902297
0.076194
0.0648159
11.4757
7.50136
5.04297
3.47002
2.43665
1.74299
1.26863
0.938712
0.705583
0.538335
0.416593
0.326728
0.259499
0.208556
0.169484
0.139168
0.115388
0.0965422
0.0814432
0.0691174
11.4757
7.50136
5.04297
3.47002
2.43665
1.74299
1.26863
0.938712
0.705584
0.538336
0.416594
0.326729
0.2595
0.208558
0.169485
0.13917
0.115391
0.0965448
0.0814466
0.0691231
11.4933
7.5119
5.02843
3.434
2.3892
1.6928
1.22111
0.896487
0.669456
0.508122
0.391656
0.306286
0.242784
0.194887
0.15828
0.129954
0.107779
0.0902297
0.0761941
0.064817
11.6229
7.60535
5.0103
3.34209
2.26848
1.57142
1.11236
0.804587
0.594203
0.447516
0.343209
0.267631
0.211896
0.170116
0.138317
0.113776
0.0945898
0.0794148
0.0672842
0.0575225
12.9054
8.33993
5.07879
3.15547
2.02775
1.3512
0.933537
0.666457
0.489544
0.368593
0.283601
0.222383
0.177323
0.143527
0.117734
0.0977526
0.082061
0.0695909
0.0595629
0.0513287
38.7028
13.0541
5.74336
3.08733
1.88066
1.2275
0.86947
0.645375
0.492581
0.384766
0.307002
0.249015
0.204936
0.170926
0.144317
0.123214
0.106262
0.0924805
0.0812389
0.0731152
45.0226
13.4729
5.73075
3.07323
1.86023
1.22699
0.873578
0.649783
0.497019
0.389497
0.31131
0.253005
0.209021
0.175275
0.148919
0.128031
0.111339
0.0978956
0.0870518
0.0784912
13.6679
8.73671
5.07741
3.05388
1.92224
1.2661
0.869294
0.618635
0.453966
0.342043
0.263662
0.207326
0.165919
0.134866
0.111154
0.0927038
0.0781825
0.066643
0.0571734
0.0501505
11.8601
7.76395
4.99734
3.24076
2.14419
1.45499
1.0141
0.725635
0.532157
0.399151
0.305548
0.238224
0.188827
0.151917
0.123873
0.102241
0.0853248
0.0719354
0.0611983
0.0526474
11.6229
7.60535
5.0103
3.34209
2.26848
1.57142
1.11236
0.804587
0.594203
0.447516
0.343209
0.267631
0.211896
0.170115
0.138318
0.113776
0.0945899
0.0794151
0.0672845
0.0575229
11.5726
7.56718
5.02065
3.38344
2.32103
1.62326
1.15828
0.843155
0.625689
0.472847
0.363482
0.28385
0.224902
0.180585
0.146785
0.120658
0.100213
0.084032
0.0710904
0.0606157
11.5726
7.56718
5.02065
3.38344
2.32103
1.62326
1.15828
0.843156
0.625691
0.47285
0.363485
0.283854
0.224907
0.18059
0.14679
0.120666
0.100222
0.0840418
0.0710974
0.0606008
11.6229
7.60535
5.0103
3.34209
2.26848
1.57142
1.11236
0.804589
0.594206
0.44752
0.343214
0.267637
0.211903
0.170123
0.138328
0.113789
0.0946052
0.0794316
0.0672994
0.0575319
11.8601
7.76395
4.99734
3.24076
2.14419
1.45499
1.0141
0.725635
0.532157
0.399151
0.305547
0.238224
0.188826
0.151915
0.123875
0.102241
0.0853243
0.0719343
0.0611972
0.0526451
13.6679
8.73671
5.07741
3.05388
1.92223
1.26609
0.86929
0.618631
0.453959
0.342034
0.26365
0.207311
0.165902
0.13485
0.11114
0.0926803
0.0781566
0.0666214
0.0571713
0.0501336
45.0226
13.4729
5.73075
3.07322
1.86022
1.22698
0.873562
0.649762
0.496991
0.389448
0.311248
0.252921
0.208903
0.175107
0.148666
0.127661
0.110788
0.0970633
0.0858425
0.0770507
58.5856
14.5696
6.08946
3.33295
2.08216
1.40266
0.998639
0.740271
0.565883
0.443902
0.355992
0.290891
0.241362
0.202952
0.173051
0.149765
0.131316
0.116605
0.105233
0.0968322
16.5373
9.49239
5.0127
2.8606
1.75746
1.14759
0.786933
0.562051
0.415369
0.31595
0.246335
0.196226
0.159224
0.131254
0.109773
0.0931981
0.0801561
0.0696419
0.0606764
0.0565704
13.6679
8.73671
5.07741
3.05388
1.92223
1.26609
0.869289
0.618631
0.45396
0.342034
0.263651
0.207312
0.165903
0.134847
0.111144
0.0926828
0.0781595
0.0666254
0.0571716
0.0501726
12.9054
8.33993
5.07879
3.15547
2.02775
1.3512
0.933536
0.666458
0.489545
0.368593
0.283602
0.222384
0.177323
0.143521
0.117742
0.0977554
0.0820627
0.0695926
0.0595645
0.0513319
12.6882
8.1544
5.07113
3.20038
2.07939
1.39506
0.967831
0.692722
0.509636
0.384015
0.295501
0.231644
0.184588
0.149255
0.122286
0.101375
0.0849505
0.0718923
0.0614009
0.0529238
12.6882
8.1544
5.07113
3.20039
2.07939
1.39506
0.967834
0.692725
0.509641
0.38402
0.295508
0.231653
0.184598
0.149267
0.122294
0.101389
0.0849688
0.0719134
0.0614236
0.0529509
12.9054
8.33993
5.07879
3.15547
2.02775
1.35121
0.933541
0.666464
0.489554
0.368605
0.283616
0.222401
0.177343
0.143539
0.11776
0.0977854
0.082098
0.0696286
0.0595991
0.0513488
13.6679
8.73671
5.07741
3.05388
1.92224
1.2661
0.869293
0.618636
0.453966
0.342043
0.263662
0.207326
0.165919
0.134859
0.111161
0.0927062
0.0781834
0.0666434
0.0571736
0.050148
16.5373
9.49239
5.0127
2.8606
1.75746
1.14759
0.786933
0.562051
0.41537
0.31595
0.246335
0.196226
0.159223
0.131251
0.109776
0.0931981
0.0801547
0.0696404
0.0606739
0.0565625
58.5856
14.5696
6.08946
3.33294
2.08216
1.40266
0.998637
0.740265
0.565875
0.443884
0.355965
0.290848
0.241294
0.202812
0.17284
0.149434
0.130746
0.115569
0.103347
0.0937769
90.5034
12.1248
4.38869
2.46658
1.63315
1.18306
0.902
0.720645
0.594559
0.50246
0.432613
0.379187
0.336164
0.299622
0.269806
0.245543
0.225605
0.209153
0.196918
0.18328
58.5856
14.5696
6.08946
3.33294
2.08216
1.40265
0.998635
0.740265
0.565875
0.443884
0.355964
0.290847
0.241292
0.202806
0.172838
0.149432
0.130743
0.115564
0.10334
0.0937631
45.0226
13.4729
5.73075
3.07322
1.86022
1.22698
0.873562
0.649761
0.49699
0.389447
0.311247
0.252919
0.208902
0.175106
0.148664
0.127658
0.110784
0.097058
0.0858359
0.0770367
38.7028
13.0541
5.74336
3.08733
1.88066
1.2275
0.86947
0.645374
0.49258
0.384765
0.307002
0.249015
0.204936
0.170928
0.144313
0.123211
0.106259
0.0924764
0.0812339
0.0731096
36.0571
12.8529
5.76645
3.10212
1.89476
1.2267
0.866508
0.643992
0.492263
0.383981
0.30582
0.247952
0.203964
0.170005
0.14341
0.122314
0.105368
0.0916105
0.0804253
0.0721895
36.0571
12.8529
5.76645
3.10212
1.89476
1.2267
0.866515
0.644002
0.492276
0.383998
0.305845
0.247984
0.204008
0.170068
0.1435
0.122437
0.105536
0.0918345
0.0806785
0.0720446
38.7028
13.0541
5.74337
3.08734
1.88067
1.22751
0.869488
0.645398
0.49261
0.384804
0.307058
0.24909
0.20504
0.171077
0.144525
0.123508
0.10668
0.0930682
0.0819752
0.0730317
45.0226
13.4729
5.73075
3.07323
1.86023
1.22699
0.873579
0.649783
0.497019
0.389497
0.31131
0.253005
0.209022
0.175278
0.148917
0.12803
0.111338
0.0978946
0.0870512
0.0784915
58.5856
14.5696
6.08946
3.33295
2.08216
1.40266
0.998641
0.740271
0.565883
0.443902
0.355993
0.290892
0.241362
0.202959
0.173051
0.149764
0.131315
0.116605
0.105231
0.0968338
90.5034
12.1248
4.38869
2.46658
1.63315
1.18306
0.902001
0.720645
0.594559
0.502462
0.432612
0.379192
0.33616
0.299631
0.269806
0.245543
0.225606
0.209156
0.196921
0.183285
0.256505
0.220933
0.192169
0.175351
0.164713
0.15739
0.151462
0.146076
0.14122
0.13717
0.133429
0.130053
0.126478
0.123004
0.119806
0.116694
0.113861
0.111115
0.10857
0.10615
0.103773
0.101494
0.0993746
0.0972411
0.095405
0.093577
0.0918351
0.0901505
0.0885628
0.086962
0.085517
0.0840946
0.0827508
0.0814738
0.0802333
0.0790652
0.0779889
0.0769447
0.0760937
0.074581
0.100231
0.0876984
0.0790277
0.0732944
0.0689294
0.0655259
0.062547
0.0597736
0.0571298
0.0548975
0.0528792
0.0511823
0.0494505
0.0478429
0.0463046
0.0448338
0.0435066
0.0422715
0.0411311
0.0400739
0.0390561
0.0380831
0.0371845
0.0363224
0.0355454
0.0348238
0.0341312
0.0334677
0.0328295
0.0322056
0.0316153
0.0310521
0.0305161
0.0300045
0.0295184
0.029058
0.0286239
0.0282104
0.0278288
0.0274
0.0868267
0.0723704
0.0635829
0.0577386
0.0534474
0.0498797
0.046848
0.0442457
0.0419733
0.0399236
0.0381013
0.0364706
0.0350279
0.0337987
0.0325071
0.0313238
0.0302776
0.0293169
0.0284372
0.027605
0.0268157
0.0260263
0.025293
0.0246401
0.024057
0.0235089
0.0229801
0.0224749
0.0219939
0.0215328
0.0210945
0.0206708
0.0202717
0.0198926
0.019536
0.0192
0.0188819
0.0185768
0.0182887
0.0179936
0.0735289
0.0641917
0.0573699
0.0520382
0.0477349
0.0441638
0.041115
0.0384725
0.0361562
0.0341106
0.0322906
0.030656
0.0291606
0.0278561
0.0266779
0.0256024
0.0246189
0.0237294
0.0228965
0.0220624
0.021304
0.02063
0.0199883
0.0193897
0.0188382
0.0183298
0.0178538
0.0174103
0.0169877
0.0165909
0.0162176
0.0158502
0.0155072
0.0151843
0.0148855
0.0146066
0.0143417
0.0140909
0.0138514
0.0136063
0.0674982
0.0604467
0.0545582
0.0496072
0.0454105
0.0418247
0.0387579
0.0360952
0.0337459
0.0316616
0.0298033
0.0281339
0.0266153
0.0252877
0.0240881
0.0230059
0.0220324
0.0211415
0.0203225
0.0195733
0.0188848
0.0182643
0.0176264
0.0170467
0.0165241
0.0160379
0.0155894
0.0151716
0.0147795
0.0144183
0.0140833
0.013749
0.0134466
0.013155
0.012884
0.0126278
0.0123866
0.0121589
0.0119456
0.0117483
0.0670682
0.0603122
0.0544826
0.0494718
0.0451674
0.0414532
0.0382448
0.0354692
0.0330228
0.0308462
0.0289087
0.0271776
0.0256159
0.0242458
0.0230148
0.0219068
0.0209077
0.0200116
0.0192056
0.0184734
0.0178072
0.0172016
0.0166341
0.0161514
0.0156322
0.015128
0.0146746
0.0142654
0.0138928
0.013555
0.0132374
0.0129443
0.0126588
0.0123764
0.0121055
0.0118718
0.0116467
0.0114422
0.0112478
0.0110642
0.0717911
0.0636276
0.0568781
0.0512524
0.04647
0.0423772
0.0388768
0.0358647
0.0332482
0.0309636
0.0289619
0.0272001
0.0256353
0.0242652
0.0230427
0.0219482
0.0209662
0.020083
0.0192897
0.0185742
0.0179304
0.0173321
0.0167703
0.016276
0.0157486
0.0152588
0.0148233
0.0144276
0.0140623
0.0137172
0.0133969
0.013105
0.0128141
0.0125346
0.012289
0.0120628
0.0118519
0.011642
0.0114407
0.0112506
0.0790092
0.0685848
0.0602945
0.0539131
0.0485641
0.0441106
0.0404134
0.0373173
0.0346904
0.0324257
0.0304607
0.0287389
0.0272023
0.0258463
0.0246329
0.0235435
0.0225677
0.0216877
0.0208902
0.0201618
0.0195194
0.0188718
0.0182747
0.0177163
0.0172183
0.0167427
0.016308
0.0159026
0.015497
0.0151077
0.0147665
0.0144666
0.0141815
0.0139032
0.0136385
0.0133872
0.0131489
0.0129156
0.0126933
0.0124804
0.0912614
0.0778138
0.0669643
0.0590879
0.0532924
0.0487496
0.0451086
0.0421363
0.039569
0.0373333
0.0353845
0.0336482
0.0321381
0.0307615
0.0295303
0.0282909
0.0271878
0.0262386
0.0253555
0.0245499
0.023801
0.0230925
0.0224471
0.0218029
0.021224
0.020673
0.0201719
0.0197017
0.0192698
0.0188564
0.0184784
0.0181219
0.0177858
0.0174642
0.0171609
0.0168745
0.0165957
0.0163212
0.0160622
0.015807
0.117785
0.101028
0.0868167
0.0768557
0.0700495
0.065223
0.0614674
0.0581826
0.0552575
0.0527621
0.0506984
0.048824
0.0470616
0.0451546
0.0435061
0.0419933
0.0406097
0.0393459
0.0381693
0.0370842
0.0360626
0.035113
0.0342454
0.0333841
0.0326255
0.0319151
0.0312477
0.0306145
0.0300151
0.0294315
0.028895
0.0283866
0.0279051
0.0274479
0.0270141
0.0266052
0.0262074
0.0258307
0.0254926
0.025117
0.256503
0.220897
0.192257
0.175295
0.164793
0.15776
0.151959
0.146522
0.141562
0.137218
0.133578
0.129919
0.126313
0.122811
0.119584
0.116542
0.113705
0.110997
0.108462
0.106034
0.103681
0.101406
0.0993205
0.0971913
0.095377
0.0935423
0.0918247
0.0901516
0.0885813
0.0870097
0.0855691
0.0841562
0.0828247
0.0815533
0.0803393
0.0791984
0.0780921
0.0770509
0.0761844
0.0746595
0.117805
0.101027
0.0867099
0.076908
0.0700357
0.0650463
0.0612016
0.0579336
0.0550454
0.0526872
0.0505871
0.0488559
0.0471409
0.0452531
0.0436254
0.042082
0.0407092
0.0394209
0.0382442
0.0371508
0.0361236
0.0351658
0.03429
0.0334125
0.0326459
0.0319329
0.0312601
0.0306211
0.0300159
0.0294182
0.0288768
0.0283651
0.0278811
0.027418
0.0269752
0.0265586
0.0261645
0.0257912
0.0254573
0.0250852
0.0611293
0.052836
0.0445183
0.038514
0.0354675
0.0319596
0.0295198
0.0275846
0.025939
0.0245019
0.0232227
0.0218951
0.0212734
0.0200695
0.0190316
0.0182186
0.0174132
0.0167311
0.0160967
0.0155047
0.0149521
0.0144852
0.0140002
0.0138457
0.0133968
0.0130272
0.0127034
0.0124091
0.012086
0.0119576
0.0116248
0.011361
0.011122
0.0108587
0.0107379
0.0104675
0.0102636
0.01006
0.00986459
0.00962979
0.0496587
0.0431673
0.0367666
0.0320906
0.028725
0.0261289
0.0239534
0.0220662
0.0204275
0.0190136
0.017723
0.0166888
0.0156171
0.014906
0.0139072
0.0133658
0.0125746
0.0121318
0.0115047
0.011109
0.0106589
0.0101599
0.00983912
0.00946188
0.00921661
0.00886026
0.00859832
0.00835841
0.00807697
0.00792247
0.00766288
0.00749028
0.00725575
0.00711933
0.0069199
0.00675384
0.00658546
0.00648581
0.00629341
0.00613803
0.0468966
0.0412425
0.0356572
0.0312133
0.0275257
0.0245482
0.0223442
0.0204976
0.0188655
0.0174263
0.0161568
0.0150388
0.0140749
0.0131665
0.0123668
0.0116679
0.0110339
0.010462
0.00996852
0.00944578
0.00910083
0.00857151
0.00828001
0.00786707
0.00765562
0.00730426
0.00711764
0.00681496
0.00664146
0.00639005
0.00624345
0.00607153
0.00585341
0.00574388
0.00555644
0.00542
0.00530576
0.00521411
0.00502832
0.00489649
0.0464329
0.0404381
0.0354221
0.0312311
0.0277295
0.0247657
0.0220135
0.0198867
0.0182789
0.0168414
0.0155565
0.0144132
0.0134108
0.0124933
0.0116822
0.0109604
0.0103149
0.00973552
0.0092137
0.00874056
0.00831351
0.00792402
0.00757258
0.0072583
0.00694784
0.00668474
0.00640888
0.00618796
0.005952
0.00576246
0.00558114
0.00544557
0.0052303
0.00512231
0.00494027
0.00482128
0.00472282
0.00461693
0.00446792
0.00433703
0.0455402
0.0400163
0.0352504
0.0311735
0.0277075
0.0247591
0.0221322
0.0197511
0.0179745
0.0165726
0.0152972
0.0141503
0.0131308
0.0122087
0.0113894
0.0106603
0.0100088
0.00942487
0.00889994
0.00842687
0.00799933
0.0076125
0.00726538
0.00695586
0.0066514
0.00637557
0.00611688
0.00589341
0.00567034
0.00548295
0.00530549
0.00513973
0.00498793
0.00485053
0.00470824
0.00457874
0.00447014
0.00435365
0.00422332
0.00408941
0.0464706
0.0402502
0.0352289
0.0310292
0.0275144
0.0245241
0.0217971
0.0195623
0.0179075
0.0164807
0.0152001
0.0140595
0.0130531
0.0121463
0.011343
0.010627
0.00998617
0.00941033
0.00889186
0.00842276
0.00799913
0.00761499
0.00726803
0.00696455
0.00666177
0.00639784
0.00612789
0.00592006
0.00564365
0.00551472
0.00527509
0.00512598
0.00497885
0.00483612
0.00468168
0.00455844
0.0044431
0.00432514
0.00419632
0.00406576
0.0500637
0.0415663
0.0355506
0.0308141
0.0271304
0.0240917
0.0216914
0.0198294
0.0182035
0.0167801
0.0155287
0.0144332
0.013459
0.0125802
0.011799
0.0110972
0.0104686
0.00989107
0.00938113
0.00890105
0.00847862
0.00808822
0.00771037
0.00748416
0.00706004
0.00684342
0.00649382
0.00632913
0.006027
0.00593392
0.00564736
0.00550803
0.00534004
0.00520929
0.00499155
0.00487731
0.00472904
0.00461133
0.0044854
0.00434614
0.053586
0.0430744
0.0363385
0.0317527
0.0281908
0.0254627
0.0232081
0.0213132
0.0196912
0.0182972
0.0170662
0.0160537
0.0150037
0.0141184
0.013318
0.0125567
0.0119973
0.0112273
0.0108188
0.0101891
0.00986197
0.00933049
0.00901101
0.00865567
0.00833974
0.00810348
0.0077438
0.00757749
0.00725968
0.00717323
0.00687051
0.0067109
0.00650736
0.00637371
0.00616018
0.00600412
0.00588732
0.00569136
0.00556799
0.00542758
0.0611453
0.0528704
0.044548
0.038823
0.0347312
0.031693
0.0293776
0.0274984
0.0258787
0.0245093
0.0230533
0.0224364
0.0210888
0.0200603
0.0190872
0.0182639
0.017476
0.0167904
0.0161559
0.0155719
0.0150026
0.0145431
0.014047
0.0138915
0.0134177
0.0130752
0.0127288
0.012453
0.0121259
0.0119792
0.0116543
0.0113956
0.0111484
0.0109176
0.010693
0.0104434
0.0103466
0.0100817
0.00990465
0.00967605
0.100232
0.0877404
0.0790882
0.0732593
0.0690524
0.0657012
0.0627702
0.059973
0.0573107
0.0549477
0.0530176
0.051154
0.0494114
0.0477974
0.0462446
0.044781
0.0434626
0.0422332
0.0411085
0.0400461
0.0390375
0.0380642
0.0371728
0.0363104
0.0355394
0.0348176
0.034127
0.0334674
0.0328329
0.0322162
0.0316319
0.0310729
0.0305402
0.030034
0.0295545
0.029099
0.0286661
0.0282495
0.0278657
0.0274331
0.0912514
0.0778118
0.0668383
0.059274
0.0533591
0.0487455
0.0450619
0.0420691
0.0395219
0.0373158
0.0353815
0.0336823
0.0321762
0.0308003
0.0295916
0.028336
0.0272618
0.0262807
0.0254178
0.0245967
0.0238462
0.023139
0.0224895
0.0218391
0.0212452
0.0206914
0.0201852
0.019711
0.0192741
0.0188513
0.0184679
0.0181071
0.0177676
0.0174424
0.0171377
0.0168471
0.0165641
0.0162875
0.0160284
0.0157735
0.0536232
0.0429108
0.0363332
0.0319097
0.0281687
0.0253997
0.0231419
0.0212535
0.0196408
0.0182602
0.0170241
0.015945
0.0150329
0.0141597
0.0132074
0.0126282
0.011766
0.0113215
0.0106304
0.0102574
0.00975003
0.00929277
0.00897425
0.00862087
0.00837846
0.00802647
0.00772477
0.0075493
0.00723952
0.00716689
0.00685848
0.00669908
0.0064916
0.0063648
0.00612715
0.00603695
0.00583555
0.00570906
0.00556241
0.00542267
0.0455517
0.0395602
0.0344062
0.0300978
0.0265277
0.02361
0.0211879
0.0191471
0.0174068
0.0159097
0.014608
0.0134695
0.0124974
0.0115932
0.0107897
0.0100657
0.00938613
0.00879974
0.00829976
0.00789617
0.00749718
0.00709346
0.00676873
0.00640248
0.00615274
0.00586049
0.00557935
0.00539834
0.00514752
0.00502927
0.00480972
0.00467437
0.00448219
0.00438593
0.00419624
0.00410655
0.00400892
0.00392811
0.00375914
0.00364399
0.0479524
0.0415691
0.0361826
0.0316585
0.0278771
0.0247114
0.022055
0.0198035
0.0178766
0.0162149
0.0147734
0.0135141
0.0124146
0.0114365
0.0105719
0.00980223
0.00911688
0.00849811
0.00794752
0.00745429
0.00701385
0.00660424
0.00621797
0.00582026
0.00556906
0.00532584
0.00510196
0.00485902
0.0046812
0.00445111
0.00430377
0.00414131
0.00399237
0.00389796
0.00370227
0.00364363
0.00355684
0.00346024
0.00334968
0.00324011
0.0494944
0.0430245
0.0375502
0.0329293
0.0290282
0.025718
0.0228882
0.0204784
0.0184292
0.0166651
0.0151343
0.0137986
0.0126245
0.0115948
0.0106843
0.00987618
0.00915673
0.00851352
0.00793674
0.00741824
0.00695021
0.00653124
0.00613759
0.00579597
0.00547976
0.00519912
0.00489686
0.00464393
0.00447287
0.00433252
0.0041629
0.00400907
0.00386857
0.00374822
0.00359663
0.00352776
0.00343698
0.00333471
0.00322937
0.00312877
0.0502349
0.0436075
0.0380628
0.0333905
0.0294362
0.0260743
0.0231959
0.0207194
0.0186071
0.0168011
0.0152398
0.0138794
0.0126847
0.0116371
0.0107118
0.0098913
0.00916051
0.00850753
0.00792294
0.00739825
0.00692547
0.00650176
0.00610774
0.00577041
0.00545175
0.00515931
0.0048898
0.00464785
0.00437637
0.00425231
0.00409798
0.00395267
0.00381655
0.00369751
0.00355709
0.00349589
0.00340393
0.00329997
0.00319292
0.00308952
0.0499832
0.0431396
0.0375347
0.0328676
0.0289444
0.0256189
0.0227794
0.0203562
0.0182925
0.0165224
0.0149942
0.0136657
0.0125021
0.0114804
0.010579
0.00977962
0.00906833
0.00843236
0.0078611
0.00734837
0.00688534
0.00646915
0.00608184
0.00575109
0.00543174
0.00513998
0.00488148
0.00462388
0.00438938
0.00427032
0.00410412