/*--------------------------------*- C++ -*----------------------------------*\
| =========                 |                                                 |
| \\      /  F ield         | OpenFOAM: The Open Source CFD Toolbox           |
|  \\    /   O peration     | Version:  2212                                  |
|   \\  /    A nd           | Website:  www.openfoam.com                      |
|    \\/     M anipulation  |                                                 |
\*---------------------------------------------------------------------------*/
FoamFile
{
    version     2.0;
    format      ascii;
    arch        "LSB;label=32;scalar=64";
    class       volScalarField;
    location    "2.95";
    object      k;
}
// * * * * * * * * * * * * * * * * * * * * * * * * * * * * * * * * * * * * * //

dimensions      [0 2 -2 0 0 0 0];

internalField   nonuniform List<scalar> 
6840
(
0.213564
0.055916
0.0283994
0.0193411
0.0146927
0.011851
0.0098906
0.00851593
0.00749114
0.00669604
0.00606013
0.00555029
0.00512203
0.00474368
0.00442335
0.00415372
0.00392517
0.00373091
0.00358
0.00340771
0.264759
0.104702
0.0585298
0.039163
0.0286198
0.0219934
0.017536
0.0143632
0.0120081
0.0102136
0.00881618
0.00770558
0.00680392
0.00606137
0.00545019
0.00494933
0.00453351
0.00418724
0.0039078
0.00369153
0.283364
0.126774
0.071702
0.0473282
0.0338663
0.0256617
0.0204609
0.0167971
0.0140488
0.0119415
0.0102845
0.0089565
0.00788574
0.00701227
0.00629028
0.00568721
0.00518115
0.00475463
0.00439559
0.00410135
0.292299
0.141633
0.0819302
0.0541654
0.0389231
0.0292875
0.0232724
0.0190788
0.0159343
0.0135153
0.0116273
0.0101135
0.0088829
0.00787261
0.0070354
0.00633553
0.00574598
0.00524597
0.00482003
0.00446245
0.295943
0.148782
0.0871941
0.057675
0.0415194
0.0310723
0.0246452
0.0202212
0.0169052
0.0143252
0.0123088
0.0107028
0.00939685
0.00832339
0.00743233
0.00668604
0.00605575
0.00551961
0.00506273
0.00469144
0.295943
0.148782
0.0871941
0.0576749
0.0415194
0.0310723
0.0246451
0.020221
0.0169049
0.0143248
0.0123082
0.010702
0.00939558
0.00832147
0.00742944
0.00668188
0.00604982
0.0055114
0.00505338
0.00469954
0.292299
0.141633
0.0819301
0.0541653
0.038923
0.0292873
0.0232721
0.0190784
0.0159338
0.0135144
0.011626
0.0101116
0.00888009
0.00786832
0.00702899
0.00632608
0.00573195
0.00522544
0.0047937
0.00446889
0.283364
0.126774
0.0717019
0.0473281
0.0338662
0.0256615
0.0204607
0.0167968
0.0140483
0.0119405
0.0102832
0.00895463
0.00788296
0.00700802
0.00628355
0.00567687
0.00516506
0.00472943
0.00435824
0.0040582
0.264759
0.104702
0.0585298
0.039163
0.0286198
0.0219933
0.0175359
0.0143631
0.012008
0.0102134
0.00881578
0.00770487
0.00680275
0.00605871
0.00544599
0.00494243
0.00452117
0.00416404
0.00386496
0.003624
0.213564
0.055916
0.0283994
0.0193411
0.0146927
0.011851
0.00989061
0.00851594
0.00749114
0.00669606
0.00606013
0.00555034
0.005122
0.00474377
0.00442336
0.00415375
0.00392523
0.00373101
0.00358015
0.00340802
0.264759
0.104702
0.0585298
0.039163
0.0286198
0.0219933
0.0175359
0.0143631
0.012008
0.0102134
0.00881575
0.00770485
0.0068027
0.00605862
0.00544594
0.00494237
0.00452107
0.00416388
0.00386473
0.00362368
0.311746
0.197541
0.130357
0.0911456
0.0668021
0.0508109
0.0397942
0.0319119
0.0260939
0.0216868
0.0182759
0.0155876
0.0134397
0.0116964
0.0102645
0.00907566
0.00807851
0.00723423
0.00652863
0.00587785
0.31754
0.217754
0.151085
0.108549
0.0807155
0.0618726
0.0486773
0.0391417
0.0320586
0.0266715
0.02249
0.0191873
0.016539
0.014387
0.0126179
0.0111497
0.00992065
0.00888301
0.00800402
0.00725465
0.319723
0.227073
0.162232
0.118772
0.0893612
0.0689929
0.0545308
0.0439847
0.0361002
0.0300753
0.025383
0.0216664
0.0186795
0.0162478
0.0142458
0.0125808
0.0111839
0.0100024
0.00899537
0.00813433
0.320484
0.23086
0.167176
0.123531
0.093516
0.0724827
0.0574409
0.0464215
0.0381542
0.0318178
0.0268717
0.0229479
0.0197898
0.0172154
0.0150932
0.0133263
0.0118417
0.010584
0.00951017
0.00858823
0.320484
0.23086
0.167176
0.123531
0.0935159
0.0724825
0.0574406
0.0464212
0.0381537
0.0318172
0.0268708
0.0229465
0.0197878
0.0172125
0.015089
0.0133204
0.0118337
0.010573
0.00949527
0.00857124
0.319723
0.227073
0.162232
0.118772
0.0893609
0.0689926
0.0545303
0.043984
0.0360992
0.0300739
0.025381
0.0216635
0.0186752
0.0162416
0.0142369
0.0125682
0.0111658
0.00997661
0.00895909
0.00808651
0.31754
0.217754
0.151085
0.108549
0.0807154
0.0618723
0.048677
0.0391412
0.0320578
0.0266704
0.0224885
0.019185
0.0165357
0.014382
0.0126105
0.011139
0.00990471
0.00885892
0.00796828
0.00717954
0.311746
0.197541
0.130357
0.0911456
0.0668021
0.0508109
0.0397942
0.0319119
0.0260939
0.0216869
0.018276
0.0155877
0.0134398
0.0116966
0.0102646
0.00907572
0.00807866
0.00723447
0.00652899
0.00587849
0.264759
0.104702
0.0585298
0.039163
0.0286198
0.0219934
0.017536
0.0143632
0.0120081
0.0102136
0.00881622
0.0077056
0.00680396
0.00606151
0.00545022
0.00494934
0.00453354
0.00418731
0.00390792
0.00369179
0.283364
0.126774
0.0717019
0.0473281
0.0338662
0.0256615
0.0204606
0.0167968
0.0140482
0.0119405
0.0102832
0.0089546
0.00788294
0.00700804
0.00628349
0.00567679
0.00516496
0.00472931
0.00435808
0.00405802
0.31754
0.217754
0.151085
0.108549
0.0807154
0.0618723
0.0486769
0.0391412
0.0320578
0.0266704
0.0224884
0.019185
0.0165356
0.014382
0.0126105
0.0111389
0.00990454
0.00885866
0.00796794
0.00717926
0.322005
0.239026
0.177588
0.133616
0.102323
0.0798668
0.0635103
0.0513818
0.0422213
0.0351789
0.0296751
0.0253085
0.021797
0.0189382
0.0165849
0.0146281
0.0129864
0.0115971
0.0104097
0.00936247
0.323293
0.245617
0.187499
0.144537
0.112864
0.0894039
0.0718633
0.0585865
0.0483996
0.0404744
0.0342249
0.0292336
0.0251996
0.0219035
0.0191831
0.0169169
0.015013
0.0134003
0.0120215
0.0108225
0.323714
0.247819
0.191099
0.14881
0.117249
0.0935708
0.0756574
0.0619607
0.0513629
0.0430615
0.0364796
0.0311999
0.0269183
0.0234104
0.020509
0.018088
0.0160513
0.0143238
0.0128447
0.0115587
0.323714
0.247819
0.191099
0.14881
0.117249
0.0935707
0.0756573
0.0619605
0.0513626
0.0430611
0.036479
0.0311992
0.0269173
0.0234089
0.0205069
0.0180852
0.0160475
0.0143184
0.0128359
0.0115352
0.323293
0.245617
0.187499
0.144536
0.112864
0.0894038
0.0718631
0.0585862
0.0483992
0.0404737
0.034224
0.0292324
0.0251979
0.021901
0.0191796
0.016912
0.0150063
0.0133907
0.0120056
0.0107793
0.322005
0.239026
0.177588
0.133616
0.102323
0.0798668
0.0635104
0.0513818
0.0422213
0.035179
0.0296751
0.0253086
0.021797
0.0189383
0.0165849
0.0146282
0.0129865
0.0115972
0.0104099
0.00936281
0.31754
0.217754
0.151085
0.108549
0.0807156
0.0618726
0.0486773
0.0391418
0.0320586
0.0266715
0.0224901
0.0191873
0.0165391
0.0143872
0.0126179
0.0111497
0.00992068
0.00888311
0.00800424
0.00725497
0.283364
0.126774
0.071702
0.0473282
0.0338663
0.0256617
0.0204609
0.0167971
0.0140488
0.0119415
0.0102845
0.00895653
0.00788579
0.00701236
0.00629025
0.00568718
0.00518113
0.00475463
0.00439561
0.00410138
0.292299
0.141633
0.0819301
0.0541653
0.038923
0.0292873
0.0232721
0.0190784
0.0159337
0.0135144
0.011626
0.0101116
0.00888011
0.00786839
0.00702892
0.00632601
0.00573188
0.00522536
0.00479358
0.00446874
0.319723
0.227073
0.162232
0.118772
0.0893609
0.0689925
0.0545303
0.043984
0.0360992
0.0300739
0.0253809
0.0216635
0.0186753
0.0162418
0.0142368
0.0125681
0.0111657
0.00997647
0.00895892
0.00808636
0.323293
0.245617
0.187499
0.144536
0.112864
0.0894037
0.0718631
0.0585862
0.0483992
0.0404737
0.034224
0.0292323
0.0251978
0.021901
0.0191795
0.016912
0.0150062
0.0133906
0.0120056
0.0107792
0.324288
0.250862
0.19613
0.154888
0.123591
0.09968
0.0812741
0.0669838
0.0557847
0.0469223
0.0398394
0.0341236
0.0294673
0.0256399
0.0224668
0.0198147
0.0175809
0.0156838
0.0140548
0.012618
0.32459
0.252403
0.19891
0.158543
0.12769
0.103871
0.0853201
0.0707499
0.05921
0.0499928
0.0425685
0.0365384
0.0316006
0.0275251
0.0241354
0.0212954
0.0188984
0.0168593
0.0151045
0.0135522
0.32459
0.252403
0.19891
0.158543
0.12769
0.103871
0.0853201
0.0707499
0.0592099
0.0499927
0.0425684
0.0365382
0.0316004
0.0275247
0.0241349
0.0212947
0.0188975
0.016858
0.0151021
0.0135452
0.324288
0.250862
0.19613
0.154888
0.123591
0.09968
0.0812741
0.0669838
0.0557847
0.0469223
0.0398395
0.0341236
0.0294673
0.0256399
0.0224668
0.0198148
0.0175809
0.0156839
0.0140549
0.0126182
0.323293
0.245617
0.187499
0.144537
0.112864
0.0894039
0.0718633
0.0585865
0.0483996
0.0404744
0.0342249
0.0292337
0.0251997
0.0219036
0.0191831
0.016917
0.0150131
0.0134004
0.0120217
0.0108228
0.319723
0.227073
0.162232
0.118772
0.0893612
0.0689929
0.0545308
0.0439847
0.0361002
0.0300753
0.025383
0.0216664
0.0186795
0.016248
0.0142459
0.0125808
0.0111839
0.0100024
0.00899543
0.00813426
0.292299
0.141633
0.0819302
0.0541654
0.0389231
0.0292875
0.0232724
0.0190788
0.0159344
0.0135153
0.0116273
0.0101135
0.00888292
0.00787268
0.00703538
0.00633552
0.00574598
0.00524597
0.00482002
0.00446246
0.295943
0.148782
0.0871941
0.0576749
0.0415194
0.0310723
0.0246451
0.020221
0.0169049
0.0143248
0.0123082
0.010702
0.00939558
0.0083215
0.00742944
0.00668188
0.00604981
0.00551139
0.00505337
0.0046995
0.320484
0.23086
0.167176
0.123531
0.0935159
0.0724825
0.0574406
0.0464212
0.0381537
0.0318171
0.0268708
0.0229465
0.0197878
0.0172126
0.015089
0.0133204
0.0118336
0.010573
0.00949528
0.00857132
0.323714
0.247819
0.191099
0.14881
0.117249
0.0935707
0.0756573
0.0619605
0.0513626
0.0430611
0.036479
0.0311992
0.0269173
0.0234089
0.0205069
0.0180852
0.0160475
0.0143184
0.0128359
0.0115353
0.32459
0.252403
0.19891
0.158543
0.12769
0.103871
0.0853201
0.0707499
0.0592099
0.0499926
0.0425684
0.0365382
0.0316003
0.0275247
0.0241349
0.0212947
0.0188974
0.016858
0.015102
0.0135452
0.324844
0.253685
0.20131
0.161836
0.131535
0.107943
0.0893701
0.0746126
0.0627921
0.0532536
0.0455015
0.0391575
0.0339304
0.0295946
0.0259742
0.0229315
0.020357
0.0181615
0.0162638
0.0145609
0.324844
0.253685
0.20131
0.161836
0.131535
0.107943
0.0893701
0.0746126
0.0627922
0.0532536
0.0455015
0.0391575
0.0339304
0.0295946
0.0259742
0.0229315
0.020357
0.0181615
0.0162638
0.0145609
0.32459
0.252403
0.19891
0.158543
0.12769
0.103871
0.0853201
0.07075
0.05921
0.0499928
0.0425685
0.0365385
0.0316006
0.0275251
0.0241354
0.0212954
0.0188984
0.0168594
0.0151046
0.0135522
0.323714
0.247819
0.191099
0.14881
0.117249
0.0935708
0.0756574
0.0619607
0.0513629
0.0430615
0.0364796
0.0312
0.0269183
0.0234104
0.020509
0.0180881
0.0160513
0.0143238
0.0128448
0.0115585
0.320484
0.23086
0.167176
0.123531
0.093516
0.0724827
0.0574409
0.0464216
0.0381542
0.0318178
0.0268717
0.0229479
0.0197897
0.0172154
0.0150933
0.0133263
0.0118418
0.0105841
0.00951014
0.00858782
0.295943
0.148782
0.0871941
0.057675
0.0415194
0.0310723
0.0246452
0.0202212
0.0169052
0.0143252
0.0123088
0.0107028
0.00939683
0.00832338
0.00743239
0.0066861
0.00605581
0.00551966
0.00506281
0.00469174
0.295943
0.148782
0.0871941
0.057675
0.0415194
0.0310723
0.0246452
0.0202212
0.0169052
0.0143252
0.0123088
0.0107028
0.00939686
0.00832341
0.00743234
0.00668605
0.00605578
0.00551966
0.00506281
0.00469148
0.320484
0.23086
0.167176
0.123531
0.093516
0.0724826
0.0574409
0.0464215
0.0381542
0.0318178
0.0268717
0.0229479
0.0197898
0.0172155
0.0150932
0.0133263
0.0118418
0.0105841
0.00951032
0.00858841
0.323714
0.247819
0.191099
0.14881
0.117249
0.0935708
0.0756574
0.0619607
0.0513629
0.0430615
0.0364795
0.0311999
0.0269183
0.0234104
0.020509
0.0180881
0.0160513
0.0143238
0.0128447
0.0115586
0.32459
0.252403
0.19891
0.158543
0.12769
0.103871
0.0853201
0.0707499
0.05921
0.0499928
0.0425685
0.0365384
0.0316006
0.0275251
0.0241354
0.0212954
0.0188984
0.0168594
0.0151046
0.0135522
0.324844
0.253685
0.20131
0.161836
0.131535
0.107943
0.0893701
0.0746126
0.0627922
0.0532536
0.0455015
0.0391575
0.0339304
0.0295946
0.0259742
0.0229315
0.020357
0.0181615
0.0162638
0.0145608
0.324844
0.253685
0.20131
0.161836
0.131535
0.107943
0.0893701
0.0746126
0.0627922
0.0532536
0.0455015
0.0391575
0.0339304
0.0295946
0.0259742
0.0229315
0.020357
0.0181615
0.0162638
0.0145608
0.32459
0.252403
0.19891
0.158543
0.12769
0.103871
0.0853201
0.0707499
0.0592099
0.0499927
0.0425684
0.0365382
0.0316003
0.0275247
0.0241349
0.0212947
0.0188975
0.016858
0.0151021
0.0135448
0.323714
0.247819
0.191099
0.14881
0.117249
0.0935707
0.0756573
0.0619605
0.0513626
0.0430611
0.036479
0.0311992
0.0269172
0.0234089
0.0205069
0.0180853
0.0160475
0.0143184
0.0128358
0.0115347
0.320484
0.23086
0.167176
0.123531
0.0935159
0.0724825
0.0574406
0.0464212
0.0381537
0.0318172
0.0268708
0.0229465
0.0197878
0.0172125
0.0150892
0.0133206
0.0118338
0.010573
0.0094952
0.00857073
0.295943
0.148782
0.0871941
0.0576749
0.0415194
0.0310723
0.0246451
0.020221
0.0169049
0.0143248
0.0123082
0.010702
0.00939554
0.00832142
0.00742956
0.006682
0.00604993
0.0055115
0.00505347
0.00469967
0.292299
0.141633
0.0819302
0.0541654
0.0389231
0.0292875
0.0232724
0.0190788
0.0159343
0.0135153
0.0116273
0.0101135
0.00888291
0.00787263
0.00703541
0.00633556
0.00574602
0.00524604
0.00482014
0.00446254
0.319723
0.227073
0.162232
0.118772
0.0893611
0.0689929
0.0545307
0.0439847
0.0361002
0.0300753
0.025383
0.0216664
0.0186795
0.0162479
0.0142459
0.0125809
0.0111839
0.0100025
0.00899558
0.00813458
0.323293
0.245617
0.187499
0.144537
0.112864
0.0894039
0.0718633
0.0585865
0.0483996
0.0404744
0.0342249
0.0292336
0.0251997
0.0219036
0.0191831
0.016917
0.0150131
0.0134004
0.0120216
0.0108228
0.324288
0.250862
0.19613
0.154888
0.123591
0.09968
0.0812741
0.0669838
0.0557847
0.0469223
0.0398394
0.0341236
0.0294673
0.0256399
0.0224668
0.0198148
0.0175809
0.0156839
0.014055
0.0126181
0.32459
0.252403
0.19891
0.158543
0.12769
0.103871
0.0853201
0.0707499
0.0592099
0.0499927
0.0425684
0.0365382
0.0316004
0.0275247
0.0241349
0.0212947
0.0188975
0.016858
0.0151021
0.013545
0.32459
0.252403
0.19891
0.158543
0.12769
0.103871
0.0853201
0.07075
0.05921
0.0499928
0.0425685
0.0365385
0.0316006
0.0275251
0.0241354
0.0212954
0.0188984
0.0168594
0.0151046
0.0135521
0.324288
0.250862
0.19613
0.154888
0.123591
0.09968
0.0812741
0.0669838
0.0557847
0.0469223
0.0398395
0.0341236
0.0294673
0.0256399
0.0224668
0.0198148
0.0175809
0.0156839
0.0140549
0.0126178
0.323293
0.245617
0.187499
0.144536
0.112864
0.0894038
0.0718631
0.0585862
0.0483992
0.0404737
0.034224
0.0292324
0.0251979
0.021901
0.0191796
0.016912
0.0150062
0.0133906
0.0120054
0.0107787
0.319723
0.227073
0.162232
0.118772
0.0893609
0.0689926
0.0545303
0.043984
0.0360992
0.0300739
0.025381
0.0216635
0.0186753
0.0162417
0.014237
0.0125682
0.0111658
0.00997661
0.00895901
0.00808645
0.292299
0.141633
0.0819301
0.0541653
0.038923
0.0292873
0.0232721
0.0190784
0.0159338
0.0135145
0.011626
0.0101116
0.0088801
0.00786833
0.00702903
0.00632613
0.005732
0.0052255
0.00479375
0.00446895
0.283364
0.126774
0.071702
0.0473282
0.0338663
0.0256617
0.0204609
0.0167971
0.0140488
0.0119415
0.0102845
0.00895651
0.00788575
0.00701229
0.00629029
0.00568724
0.00518119
0.0047547
0.00439567
0.00410151
0.31754
0.217754
0.151085
0.108549
0.0807155
0.0618725
0.0486773
0.0391417
0.0320586
0.0266715
0.02249
0.0191873
0.016539
0.014387
0.012618
0.0111498
0.00992074
0.00888316
0.00800422
0.00725498
0.322005
0.239026
0.177588
0.133616
0.102323
0.0798668
0.0635103
0.0513818
0.0422213
0.0351789
0.0296751
0.0253085
0.021797
0.0189382
0.0165849
0.0146282
0.0129865
0.0115972
0.0104098
0.0093627
0.323293
0.245617
0.187499
0.144536
0.112864
0.0894038
0.0718631
0.0585862
0.0483992
0.0404737
0.034224
0.0292323
0.0251979
0.021901
0.0191795
0.016912
0.0150062
0.0133906
0.0120055
0.0107791
0.323714
0.247819
0.191099
0.14881
0.117249
0.0935707
0.0756573
0.0619605
0.0513626
0.0430611
0.036479
0.0311992
0.0269173
0.0234089
0.0205069
0.0180852
0.0160474
0.0143184
0.0128358
0.011535
0.323714
0.247819
0.191099
0.14881
0.117249
0.0935708
0.0756574
0.0619607
0.0513629
0.0430615
0.0364796
0.0312
0.0269183
0.0234104
0.020509
0.018088
0.0160513
0.0143238
0.0128447
0.0115586
0.323293
0.245617
0.187499
0.144537
0.112864
0.0894039
0.0718633
0.0585865
0.0483996
0.0404744
0.0342249
0.0292336
0.0251997
0.0219036
0.0191831
0.0169169
0.0150131
0.0134004
0.0120215
0.0108226
0.322005
0.239026
0.177588
0.133616
0.102323
0.0798668
0.0635104
0.0513818
0.0422213
0.0351789
0.0296751
0.0253085
0.021797
0.0189382
0.0165849
0.0146282
0.0129865
0.0115972
0.0104098
0.00936252
0.31754
0.217754
0.151085
0.108549
0.0807154
0.0618723
0.0486769
0.0391412
0.0320578
0.0266704
0.0224885
0.019185
0.0165357
0.014382
0.0126105
0.011139
0.0099047
0.0088589
0.00796819
0.00718002
0.283364
0.126774
0.0717019
0.0473281
0.0338662
0.0256615
0.0204607
0.0167968
0.0140483
0.0119405
0.0102832
0.00895463
0.00788297
0.00700802
0.00628356
0.00567689
0.00516508
0.00472946
0.00435827
0.00405842
0.264759
0.104702
0.0585298
0.039163
0.0286198
0.0219934
0.017536
0.0143632
0.0120081
0.0102136
0.00881619
0.00770557
0.00680392
0.00606136
0.0054502
0.00494935
0.00453354
0.0041873
0.00390789
0.00369169
0.311746
0.197541
0.130357
0.0911456
0.0668021
0.0508109
0.0397942
0.0319119
0.0260939
0.0216868
0.0182759
0.0155876
0.0134397
0.0116963
0.0102646
0.00907568
0.00807853
0.00723425
0.00652866
0.00587801
0.31754
0.217754
0.151085
0.108549
0.0807154
0.0618723
0.0486769
0.0391412
0.0320578
0.0266704
0.0224884
0.019185
0.0165356
0.014382
0.0126105
0.0111389
0.00990453
0.00885864
0.00796796
0.00717916
0.319723
0.227073
0.162232
0.118772
0.0893609
0.0689926
0.0545303
0.043984
0.0360992
0.0300739
0.0253809
0.0216635
0.0186753
0.0162418
0.0142368
0.012568
0.0111656
0.00997641
0.00895877
0.00808611
0.320484
0.23086
0.167176
0.123531
0.0935159
0.0724825
0.0574406
0.0464212
0.0381537
0.0318171
0.0268708
0.0229465
0.0197878
0.0172126
0.015089
0.0133204
0.0118336
0.0105729
0.00949512
0.00857116
0.320484
0.23086
0.167176
0.123531
0.093516
0.0724827
0.0574409
0.0464216
0.0381542
0.0318178
0.0268717
0.0229479
0.0197898
0.0172155
0.0150932
0.0133263
0.0118417
0.0105841
0.00951024
0.00858844
0.319723
0.227073
0.162232
0.118772
0.0893612
0.0689929
0.0545308
0.0439847
0.0361002
0.0300753
0.025383
0.0216664
0.0186795
0.0162479
0.0142458
0.0125808
0.0111839
0.0100025
0.00899556
0.00813466
0.31754
0.217754
0.151085
0.108549
0.0807156
0.0618726
0.0486773
0.0391417
0.0320586
0.0266715
0.0224901
0.0191873
0.016539
0.0143871
0.0126179
0.0111497
0.00992068
0.00888312
0.00800423
0.00725522
0.311746
0.197541
0.130357
0.0911456
0.0668021
0.050811
0.0397942
0.0319119
0.0260939
0.0216868
0.018276
0.0155877
0.0134398
0.0116965
0.0102645
0.00907568
0.00807859
0.00723438
0.00652874
0.00587869
0.264759
0.104702
0.0585298
0.039163
0.0286198
0.0219933
0.0175359
0.0143631
0.012008
0.0102134
0.00881577
0.00770486
0.00680273
0.0060587
0.00544598
0.00494241
0.00452113
0.00416397
0.00386483
0.00362399
0.213564
0.055916
0.0283994
0.0193411
0.0146927
0.011851
0.0098906
0.00851593
0.00749114
0.00669604
0.00606013
0.00555029
0.00512203
0.00474367
0.00442335
0.00415372
0.00392518
0.00373093
0.00358005
0.00340778
0.264759
0.104702
0.0585298
0.039163
0.0286198
0.0219933
0.0175359
0.0143631
0.012008
0.0102134
0.00881575
0.00770484
0.00680269
0.0060586
0.00544593
0.00494236
0.00452104
0.00416381
0.00386462
0.00362351
0.283364
0.126774
0.0717019
0.0473281
0.0338662
0.0256615
0.0204606
0.0167968
0.0140482
0.0119405
0.0102832
0.0089546
0.00788293
0.00700803
0.00628348
0.00567677
0.00516494
0.00472927
0.00435802
0.0040579
0.292299
0.141633
0.0819301
0.0541653
0.038923
0.0292873
0.0232721
0.0190784
0.0159337
0.0135144
0.011626
0.0101116
0.00888011
0.00786839
0.0070289
0.006326
0.00573187
0.00522535
0.00479356
0.00446877
0.295943
0.148782
0.0871941
0.0576749
0.0415194
0.0310723
0.0246451
0.020221
0.0169049
0.0143248
0.0123082
0.010702
0.00939559
0.00832151
0.00742944
0.00668189
0.00604983
0.00551142
0.0050534
0.00469962
0.295943
0.148782
0.0871941
0.057675
0.0415194
0.0310723
0.0246452
0.0202212
0.0169052
0.0143252
0.0123088
0.0107028
0.00939687
0.00832343
0.00743235
0.00668607
0.0060558
0.00551969
0.00506286
0.00469165
0.292299
0.141633
0.0819302
0.0541654
0.0389231
0.0292875
0.0232724
0.0190788
0.0159343
0.0135153
0.0116273
0.0101135
0.00888294
0.00787268
0.00703539
0.00633554
0.00574602
0.00524603
0.00482014
0.00446262
0.283364
0.126774
0.071702
0.0473282
0.0338663
0.0256617
0.0204609
0.0167971
0.0140488
0.0119415
0.0102845
0.00895652
0.00788579
0.00701236
0.00629026
0.0056872
0.00518115
0.00475466
0.00439565
0.00410155
0.264759
0.104702
0.0585298
0.039163
0.0286198
0.0219934
0.017536
0.0143632
0.0120081
0.0102136
0.00881621
0.00770559
0.00680393
0.0060615
0.00545021
0.00494933
0.00453353
0.00418729
0.00390787
0.00369181
0.213564
0.055916
0.0283994
0.0193411
0.0146927
0.011851
0.00989061
0.00851594
0.00749113
0.00669606
0.00606012
0.00555034
0.00512199
0.00474376
0.00442335
0.00415373
0.0039252
0.00373097
0.0035801
0.00340789
0.00372285
0.00338642
0.00310058
0.00292345
0.00280683
0.00272566
0.00265865
0.00259651
0.00253908
0.00249043
0.00244515
0.00240416
0.00236037
0.00231721
0.00227707
0.0022376
0.0022013
0.0021658
0.0021326
0.00210084
0.00206943
0.00203891
0.00201026
0.00198116
0.00195594
0.00193064
0.00190639
0.00188277
0.00186037
0.00183762
0.00181706
0.00179667
0.00177733
0.00175887
0.00174083
0.00172388
0.00170817
0.0016929
0.00168043
0.00165818
0.00338238
0.00307443
0.00286793
0.00272677
0.00261704
0.0025312
0.00245529
0.00238258
0.00231178
0.00225077
0.00219507
0.00214798
0.00209943
0.00205385
0.00200973
0.001967
0.00192795
0.00189124
0.00185701
0.00182498
0.00179403
0.00176405
0.00173608
0.00170893
0.00168429
0.00166127
0.00163903
0.00161757
0.00159676
0.0015763
0.00155685
0.00153821
0.00152036
0.00150324
0.00148688
0.00147134
0.00145664
0.00144259
0.00142959
0.00141491
0.00386674
0.00347149
0.00318877
0.0029913
0.00284032
0.00271314
0.00260253
0.00250548
0.00241913
0.00233975
0.00226785
0.00220251
0.00214377
0.00209326
0.00203953
0.00198964
0.00194496
0.0019035
0.00186509
0.00182837
0.00179326
0.00175782
0.00172478
0.00169463
0.00166772
0.00164228
0.00161753
0.0015937
0.00157084
0.00154876
0.00152766
0.0015071
0.00148761
0.001469
0.00145137
0.00143468
0.00141882
0.00140351
0.001389
0.00137407
0.00403036
0.00369928
0.00343772
0.0032243
0.00304376
0.00289036
0.00275583
0.00263629
0.00252913
0.00243254
0.00234495
0.00226488
0.00219037
0.00212444
0.00206392
0.00200791
0.00195598
0.00190849
0.00186325
0.00181755
0.00177559
0.00173782
0.00170151
0.00166723
0.00163539
0.00160577
0.0015778
0.00155152
0.00152631
0.00150241
0.00147981
0.00145743
0.0014362
0.00141629
0.00139761
0.00138006
0.00136344
0.00134744
0.00133223
0.00131649
0.00412435
0.00383951
0.00358972
0.00337095
0.00317881
0.0030094
0.00286034
0.00272755
0.00260757
0.00249875
0.0023997
0.00230897
0.0022249
0.00215006
0.00208132
0.00201842
0.00196086
0.00190744
0.00185767
0.00181156
0.00176874
0.0017295
0.00168886
0.0016515
0.00161752
0.00158561
0.00155587
0.00152795
0.00150151
0.00147689
0.00145387
0.00143108
0.00140947
0.00138947
0.00137018
0.00135205
0.00133474
0.00131834
0.00130293
0.00128859
0.00423678
0.00394171
0.00368063
0.00345004
0.00324602
0.00306488
0.00290411
0.0027614
0.00263251
0.00251521
0.0024085
0.00231117
0.00222161
0.00214146
0.00206816
0.00200105
0.00193958
0.00188369
0.00183261
0.00178559
0.00174226
0.00170245
0.00166462
0.00163206
0.00159687
0.00156239
0.00153102
0.00150239
0.00147616
0.00145205
0.00142925
0.00140803
0.0013874
0.00136616
0.00134705
0.00132885
0.00131263
0.00129688
0.00128221
0.00126828
0.00430587
0.00397457
0.00368864
0.00344159
0.00322418
0.00303198
0.00286264
0.00271279
0.00257927
0.00245981
0.00235271
0.00225636
0.00216903
0.00209096
0.00202004
0.00195547
0.0018966
0.00184287
0.00179396
0.00174924
0.00170847
0.00167025
0.00163383
0.00160151
0.00156681
0.0015342
0.00150485
0.00147788
0.00145286
0.00142883
0.00140639
0.0013859
0.00136492
0.00134555
0.00132729
0.00131121
0.00129578
0.00128046
0.00126569
0.00125167
0.00422884
0.00385821
0.00354278
0.00329204
0.00307183
0.00288139
0.00271872
0.00257854
0.00245664
0.00234905
0.00225358
0.002168
0.00209017
0.00202016
0.00195647
0.00189835
0.0018455
0.00179717
0.00175282
0.00171184
0.00167521
0.00163817
0.0016034
0.00157053
0.00154102
0.00151248
0.0014861
0.00146124
0.00143623
0.00141187
0.00139026
0.00137121
0.00135308
0.00133526
0.00131819
0.0013019
0.00128633
0.00127106
0.00125645
0.00124239
0.00401539
0.00363045
0.00328357
0.00302988
0.00282943
0.00266668
0.00253287
0.00242169
0.00232332
0.00223558
0.00215749
0.0020865
0.00202378
0.00196581
0.00191346
0.00185957
0.00181078
0.00176832
0.00172843
0.00169167
0.0016571
0.00162413
0.00159375
0.00156309
0.00153539
0.00150852
0.00148383
0.00146047
0.00143885
0.00141793
0.00139873
0.00138053
0.00136328
0.00134668
0.00133095
0.00131601
0.0013014
0.00128698
0.00127335
0.00125986
0.00370202
0.00334836
0.0030325
0.00280284
0.0026386
0.00251821
0.00242244
0.00233752
0.00225892
0.00219079
0.00213364
0.00208111
0.00203151
0.00197694
0.00192854
0.00188352
0.00184184
0.0018034
0.00176724
0.00173365
0.00170173
0.00167172
0.00164399
0.00161613
0.00159134
0.00156794
0.00154576
0.00152455
0.00150433
0.00148446
0.00146616
0.00144874
0.00143215
0.00141634
0.00140128
0.00138701
0.00137314
0.00135996
0.0013481
0.00133486
0.00372261
0.00338577
0.00310132
0.00292264
0.00280798
0.00272979
0.00266416
0.0026017
0.00254317
0.00249133
0.00244709
0.0024026
0.00235836
0.00231477
0.00227401
0.00223528
0.00219881
0.00216374
0.00213065
0.00209879
0.00206767
0.00203721
0.00200905
0.00198006
0.00195515
0.00192977
0.00190586
0.0018824
0.00186025
0.00183793
0.00181746
0.00179724
0.00177812
0.00175978
0.00174222
0.00172566
0.00170957
0.00169437
0.00168167
0.00165926
0.00370239
0.00334879
0.0030304
0.00280464
0.00263804
0.00251376
0.00241613
0.00233075
0.00225319
0.00218832
0.00213023
0.00208198
0.00203367
0.00197944
0.00193207
0.00188647
0.00184534
0.00180629
0.00177021
0.00173636
0.00170429
0.00167404
0.001646
0.0016176
0.00159251
0.001569
0.00154663
0.00152521
0.0015048
0.00148443
0.00146594
0.00144837
0.00143166
0.00141559
0.00140012
0.00138556
0.00137178
0.00135869
0.00134695
0.00133382
0.00449753
0.00388234
0.00350297
0.00325816
0.00303148
0.00286013
0.00270098
0.00254008
0.00238602
0.00226149
0.00214243
0.00204739
0.00193318
0.00182529
0.00173817
0.00165188
0.00157955
0.00150952
0.00144718
0.00139008
0.00133075
0.00127497
0.00122925
0.00117716
0.00113712
0.00110015
0.00106556
0.00103242
0.00100237
0.000967968
0.000941514
0.000916859
0.000894268
0.000873437
0.000851358
0.000833257
0.000816719
0.000801565
0.000788122
0.000776615
0.00588702
0.00530293
0.00481987
0.00442321
0.00408223
0.00378472
0.00352148
0.00328746
0.00307919
0.00289031
0.0027212
0.00256625
0.00242621
0.00229492
0.00218273
0.0020735
0.00197977
0.00188902
0.00180919
0.0017334
0.00166043
0.00159559
0.00153399
0.00147501
0.0014178
0.00136773
0.00132071
0.00127537
0.00123599
0.00119455
0.00115887
0.00112284
0.00109172
0.00106
0.00103202
0.00100411
0.000979231
0.000953536
0.00093032
0.000901067
0.00682486
0.00616861
0.00561009
0.00513337
0.00472351
0.00436721
0.00405173
0.00377028
0.00351818
0.00329191
0.00308864
0.00290574
0.00273897
0.00258876
0.00245267
0.00232844
0.00221499
0.00211148
0.00201569
0.0019295
0.00184675
0.00177411
0.00170263
0.00163935
0.00157795
0.00152406
0.00147115
0.00142418
0.00137758
0.00133461
0.00129356
0.00125318
0.00121781
0.00118197
0.00115002
0.0011189
0.00108902
0.00105885
0.00103117
0.000996857
0.00729732
0.00662006
0.0060326
0.00552137
0.00507457
0.00468192
0.00433935
0.00403706
0.00376513
0.00351983
0.00329886
0.00309944
0.00291925
0.00275592
0.00260774
0.00247289
0.00234993
0.00223753
0.00213449
0.00203965
0.00195342
0.00186858
0.00178854
0.00171936
0.00165966
0.00160247
0.00154955
0.0014975
0.00144738
0.00140043
0.00135715
0.00131493
0.00127755
0.00123989
0.00120488
0.00117101
0.00113751
0.00110486
0.00107364
0.00103562
0.00748061
0.00678786
0.00618346
0.00565608
0.00519485
0.00478971
0.00443406
0.00412367
0.00384754
0.00359794
0.0033725
0.00316888
0.00298512
0.00281844
0.00266708
0.00252926
0.0024034
0.0022882
0.00218252
0.00208524
0.00199577
0.00191255
0.00183637
0.00175991
0.0016866
0.00162101
0.00156626
0.00151638
0.00146955
0.00142477
0.00138171
0.00134239
0.00130368
0.00126282
0.00122305
0.00118599
0.00114989
0.00111572
0.00108251
0.00104244
0.00728391
0.00660369
0.00601166
0.00549724
0.00504934
0.00465783
0.00431752
0.00401982
0.00375362
0.0035139
0.00329799
0.00310318
0.00292634
0.00276631
0.00262063
0.0024876
0.00236555
0.00225343
0.00215016
0.00205488
0.00196693
0.0018849
0.00180953
0.00173639
0.00166964
0.00160606
0.00154749
0.00149085
0.0014412
0.0013909
0.0013457
0.0013022
0.00126086
0.00122075
0.00118292
0.00114701
0.00111184
0.00107844
0.00104555
0.00100519
0.00671255
0.00605173
0.00549691
0.0050296
0.00462957
0.00428497
0.00398485
0.0037181
0.003479
0.00326365
0.00306949
0.00289239
0.00272949
0.00258237
0.00244731
0.00232341
0.00220871
0.00210363
0.002006
0.00191617
0.00183285
0.00175392
0.00168244
0.00160898
0.00154648
0.0014839
0.00142942
0.00137413
0.001326
0.00127478
0.00123154
0.00118823
0.00114845
0.00110818
0.00107374
0.00103946
0.00100648
0.000974386
0.000942929
0.000905471
0.00577786
0.00515043
0.00466429
0.00427453
0.00395357
0.00367964
0.00343969
0.0032207
0.00302073
0.00283833
0.00267418
0.00251432
0.00237269
0.00224141
0.00211989
0.00201027
0.00190394
0.00181426
0.00172447
0.00164803
0.00157143
0.00150199
0.00144
0.00137529
0.00132054
0.00126525
0.00121914
0.00117141
0.0011317
0.00108697
0.00105128
0.00101535
0.000983905
0.000951852
0.000924341
0.000898773
0.000871407
0.000845563
0.000822187
0.000802786
0.00449696
0.00387991
0.00350368
0.00325007
0.00305202
0.00287964
0.00271961
0.00255819
0.00239827
0.00226553
0.00215715
0.00203906
0.00192613
0.00182061
0.00173017
0.00164534
0.00157068
0.00150173
0.00143942
0.00138225
0.0013228
0.00126766
0.00122321
0.00117238
0.00113368
0.00109623
0.00106229
0.0010292
0.000999459
0.000966372
0.000940263
0.000915826
0.000893627
0.000872599
0.000853457
0.000836349
0.00081769
0.000802712
0.000788554
0.000776336
0.003382
0.003075
0.00286914
0.0027262
0.00262053
0.00253591
0.0024605
0.00238791
0.00231644
0.00225237
0.00219901
0.00214726