/*--------------------------------*- C++ -*----------------------------------*\
| =========                 |                                                 |
| \\      /  F ield         | OpenFOAM: The Open Source CFD Toolbox           |
|  \\    /   O peration     | Version:  2212                                  |
|   \\  /    A nd           | Website:  www.openfoam.com                      |
|    \\/     M anipulation  |                                                 |
\*---------------------------------------------------------------------------*/
FoamFile
{
    version     2.0;
    format      ascii;
    arch        "LSB;label=32;scalar=64";
    class       volScalarField;
    location    "2.95";
    object      nut;
}
// * * * * * * * * * * * * * * * * * * * * * * * * * * * * * * * * * * * * * //

dimensions      [0 2 -1 0 0 0 0];

internalField   nonuniform List<scalar> 
6840
(
4.5356e-05
2.3208e-05
1.65396e-05
1.36493e-05
1.18966e-05
1.06843e-05
9.76071e-06
9.05703e-06
8.4946e-06
8.03114e-06
7.64024e-06
7.31174e-06
7.02385e-06
6.75925e-06
6.5267e-06
6.32398e-06
6.1463e-06
5.9898e-06
5.85777e-06
5.70254e-06
0.000107685
6.77183e-05
5.06311e-05
4.14158e-05
3.54048e-05
3.10366e-05
2.77136e-05
2.50815e-05
2.29332e-05
2.11503e-05
1.96501e-05
1.83706e-05
1.72621e-05
1.62926e-05
1.54488e-05
1.47206e-05
1.40864e-05
1.35329e-05
1.30609e-05
1.26665e-05
0.000160509
0.00010736
8.07408e-05
6.55975e-05
5.54896e-05
4.83025e-05
4.3131e-05
3.90791e-05
3.57392e-05
3.29499e-05
3.05785e-05
2.85359e-05
2.67756e-05
2.52488e-05
2.39131e-05
2.27368e-05
2.16996e-05
2.07837e-05
1.99762e-05
1.92882e-05
0.000198681
0.0001383
0.000105187
8.55269e-05
7.25012e-05
6.28902e-05
5.60612e-05
5.07594e-05
4.63883e-05
4.27222e-05
3.96259e-05
3.69564e-05
3.4635e-05
3.26058e-05
3.08231e-05
2.92494e-05
2.78544e-05
2.66135e-05
2.55079e-05
2.45417e-05
0.000218609
0.000155003
0.000118661
9.65069e-05
8.18824e-05
7.08356e-05
6.30857e-05
5.71437e-05
5.22487e-05
4.80968e-05
4.45835e-05
4.15735e-05
3.89548e-05
3.66626e-05
3.46451e-05
3.28603e-05
3.12739e-05
2.98581e-05
2.85937e-05
2.74969e-05
0.000218609
0.000155003
0.000118661
9.65069e-05
8.18823e-05
7.08356e-05
6.30856e-05
5.71435e-05
5.22484e-05
4.80963e-05
4.45827e-05
4.15722e-05
3.89527e-05
3.66592e-05
3.46397e-05
3.28522e-05
3.12621e-05
2.98416e-05
2.85769e-05
2.75352e-05
0.000198681
0.0001383
0.000105187
8.55269e-05
7.25012e-05
6.289e-05
5.60609e-05
5.0759e-05
4.63876e-05
4.27211e-05
3.96241e-05
3.69537e-05
3.46306e-05
3.25985e-05
3.08117e-05
2.92318e-05
2.78275e-05
2.65733e-05
2.54581e-05
2.45837e-05
0.000160509
0.00010736
8.07408e-05
6.55975e-05
5.54895e-05
4.83024e-05
4.31308e-05
3.90788e-05
3.57387e-05
3.29489e-05
3.05769e-05
2.85334e-05
2.67717e-05
2.52424e-05
2.39024e-05
2.27197e-05
2.16722e-05
2.074e-05
1.99143e-05
1.92381e-05
0.000107685
6.77183e-05
5.06311e-05
4.14158e-05
3.54048e-05
3.10366e-05
2.77136e-05
2.50814e-05
2.29331e-05
2.11501e-05
1.96497e-05
1.83699e-05
1.72609e-05
1.62895e-05
1.54437e-05
1.4712e-05
1.40705e-05
1.35027e-05
1.30081e-05
1.2604e-05
4.5356e-05
2.3208e-05
1.65396e-05
1.36493e-05
1.18966e-05
1.06844e-05
9.76071e-06
9.05703e-06
8.4946e-06
8.03115e-06
7.64024e-06
7.31177e-06
7.02385e-06
6.75931e-06
6.52673e-06
6.32402e-06
6.14637e-06
5.98989e-06
5.85793e-06
5.70284e-06
0.000107685
6.77183e-05
5.06311e-05
4.14158e-05
3.54048e-05
3.10366e-05
2.77136e-05
2.50814e-05
2.29331e-05
2.115e-05
1.96497e-05
1.83698e-05
1.72608e-05
1.62894e-05
1.54436e-05
1.47119e-05
1.40703e-05
1.35023e-05
1.30076e-05
1.26034e-05
0.000528907
0.000369984
0.000305096
0.00026137
0.000228527
0.000202474
0.000181111
0.000163069
0.000147532
0.000133973
0.000122032
0.000111441
0.000102098
9.38071e-05
8.63825e-05
7.95417e-05
7.32785e-05
6.76347e-05
6.32252e-05
5.49673e-05
0.000663952
0.000488458
0.000404619
0.000347248
0.000305035
0.000272127
0.000245318
0.000222889
0.000203755
0.000187179
0.000172654
0.000159815
0.000148376
0.000138127
0.000128911
0.000120689
0.000113295
0.000106563
0.000100852
9.44501e-05
0.00071288
0.000556432
0.000466397
0.000402355
0.000354426
0.000317051
0.000286676
0.000261258
0.000239586
0.000220852
0.000204454
0.000189967
0.000177074
0.000165518
0.00015511
0.000145677
0.000137117
0.000129317
0.000122188
0.000115972
0.000728543
0.000588231
0.000496002
0.000429132
0.00037851
0.000338936
0.00030682
0.000279976
0.000257077
0.000237262
0.00021992
0.000204593
0.00019094
0.000178694
0.000167652
0.00015764
0.000148527
0.000140192
0.000132515
0.000125358
0.000728543
0.000588231
0.000496002
0.000429132
0.00037851
0.000338935
0.000306819
0.000279973
0.000257073
0.000237256
0.000219909
0.000204576
0.000190913
0.000178647
0.000167569
0.000157525
0.000148358
0.000139942
0.000132153
0.000124931
0.00071288
0.000556432
0.000466397
0.000402354
0.000354425
0.000317049
0.000286673
0.000261252
0.000239577
0.000220839
0.000204433
0.000189932
0.000177015
0.000165412
0.000154942
0.000145431
0.000136736
0.000128723
0.000121281
0.000114655
0.000663952
0.000488458
0.000404618
0.000347247
0.000305034
0.000272126
0.000245316
0.000222884
0.000203748
0.000187168
0.000172637
0.000159788
0.000148333
0.000138048
0.000128777
0.000120489
0.00011297
0.000106021
9.99553e-05
9.24647e-05
0.000528907
0.000369984
0.000305096
0.00026137
0.000228527
0.000202474
0.000181111
0.000163069
0.000147532
0.000133973
0.000122033
0.000111442
0.0001021
9.38117e-05
8.63816e-05
7.95437e-05
7.32833e-05
6.76411e-05
6.32361e-05
5.49833e-05
0.000107685
6.77183e-05
5.06311e-05
4.14159e-05
3.54048e-05
3.10366e-05
2.77136e-05
2.50815e-05
2.29332e-05
2.11503e-05
1.96501e-05
1.83706e-05
1.72621e-05
1.62928e-05
1.54488e-05
1.47207e-05
1.40865e-05
1.35331e-05
1.30612e-05
1.26673e-05
0.000160509
0.00010736
8.07408e-05
6.55975e-05
5.54895e-05
4.83024e-05
4.31308e-05
3.90788e-05
3.57387e-05
3.29488e-05
3.05769e-05
2.85334e-05
2.67717e-05
2.52425e-05
2.39022e-05
2.27195e-05
2.1672e-05
2.07397e-05
1.99139e-05
1.92378e-05
0.000663952
0.000488458
0.000404618
0.000347247
0.000305034
0.000272126
0.000245315
0.000222884
0.000203748
0.000187168
0.000172636
0.000159787
0.000148331
0.000138052
0.000128771
0.000120483
0.000112962
0.00010601
9.99452e-05
9.24621e-05
0.000786827
0.000662293
0.000567974
0.000495805
0.000439463
0.000394561
0.000357972
0.000327449
0.000301485
0.000279043
0.000259387
0.000241986
0.000226449
0.000212478
0.000199843
0.000188363
0.000177887
0.000168266
0.00015936
0.000149841
0.000809324
0.000713906
0.000631505
0.000562574
0.000505377
0.000457786
0.000417841
0.00038394
0.000354805
0.000329451
0.000307158
0.000287383
0.000269707
0.000253807
0.000239428
0.000226353
0.000214418
0.000203457
0.00019326
0.000183221
0.000814958
0.000730426
0.000654634
0.000589044
0.000533068
0.000485439
0.000444765
0.000409795
0.000379474
0.000352937
0.0003295
0.000308642
0.000289959
0.000273127
0.00025789
0.00024403
0.000231365
0.000219716
0.000208852
0.000198416
0.000814958
0.000730426
0.000654634
0.000589044
0.000533067
0.000485439
0.000444763
0.000409793
0.000379471
0.000352932
0.000329493
0.000308631
0.000289943
0.000273101
0.000257847
0.00024397
0.000231278
0.00021958
0.00020859
0.000197568
0.000809324
0.000713905
0.000631504
0.000562573
0.000505377
0.000457785
0.00041784
0.000383937
0.0003548
0.000329444
0.000307147
0.000287366
0.00026968
0.000253761
0.000239355
0.00022625
0.000214263
0.000203213
0.000192798
0.000181796
0.000786827
0.000662293
0.000567974
0.000495805
0.000439463
0.000394561
0.000357973
0.000327449
0.000301485
0.000279043
0.000259388
0.000241988
0.000226452
0.000212481
0.000199842
0.000188365
0.000177893
0.000168275
0.000159371
0.000149857
0.000663952
0.000488458
0.000404619
0.000347248
0.000305035
0.000272127
0.000245318
0.000222889
0.000203756
0.000187179
0.000172654
0.000159816
0.000148379
0.000138137
0.000128904
0.000120687
0.000113296
0.000106566
0.00010086
9.44637e-05
0.000160509
0.00010736
8.07408e-05
6.55975e-05
5.54896e-05
4.83025e-05
4.3131e-05
3.90791e-05
3.57393e-05
3.295e-05
3.05785e-05
2.85359e-05
2.67757e-05
2.5249e-05
2.3913e-05
2.27367e-05
2.16996e-05
2.07837e-05
1.99763e-05
1.92885e-05
0.000198681
0.0001383
0.000105187
8.55269e-05
7.25012e-05
6.289e-05
5.60609e-05
5.0759e-05
4.63876e-05
4.27211e-05
3.96241e-05
3.69537e-05
3.46306e-05
3.25987e-05
3.08115e-05
2.92316e-05
2.78273e-05
2.65731e-05
2.54578e-05
2.45832e-05
0.00071288
0.000556432
0.000466397
0.000402354
0.000354425
0.000317049
0.000286673
0.000261252
0.000239577
0.000220838
0.000204432
0.000189932
0.000177016
0.000165423
0.000154932
0.000145425
0.000136731
0.000128717
0.000121274
0.000114648
0.000809324
0.000713905
0.000631504
0.000562573
0.000505377
0.000457785
0.000417839
0.000383937
0.0003548
0.000329443
0.000307147
0.000287365
0.000269679
0.000253763
0.000239352
0.000226247
0.00021426
0.000203209
0.000192795
0.000181787
0.000823497
0.000753987
0.000688491
0.000628748
0.000575387
0.000528266
0.000486845
0.000450441
0.000418361
0.000389971
0.000364723
0.000342156
0.000321885
0.000303592
0.00028701
0.000271913
0.000258101
0.000245357
0.00023333
0.00022107
0.000826292
0.000764347
0.000706102
0.000651937
0.000602231
0.000557104
0.000516428
0.000479913
0.000447182
0.000417834
0.000391478
0.000367752
0.000346336
0.000326944
0.00030933
0.000293271
0.000278562
0.000264968
0.000252106
0.000239133
0.000826292
0.000764347
0.000706102
0.000651937
0.00060223
0.000557104
0.000516428
0.000479912
0.000447181
0.000417832
0.000391476
0.000367749
0.000346331
0.000326938
0.000309318
0.000293255
0.00027854
0.000264934
0.000252036
0.000238909
0.000823497
0.000753987
0.000688491
0.000628748
0.000575387
0.000528266
0.000486845
0.000450441
0.000418361
0.000389971
0.000364724
0.000342157
0.000321887
0.000303593
0.00028701
0.000271914
0.000258102
0.00024536
0.000233335
0.00022108
0.000809324
0.000713906
0.000631505
0.000562574
0.000505377
0.000457786
0.000417842
0.000383941
0.000354805
0.000329452
0.000307159
0.000287384
0.00026971
0.000253811
0.000239426
0.000226354
0.000214422
0.000203463
0.000193268
0.000183237
0.00071288
0.000556432
0.000466397
0.000402355
0.000354426
0.000317051
0.000286676
0.000261259
0.000239586
0.000220852
0.000204455
0.000189968
0.000177075
0.000165528
0.000155103
0.000145675
0.000137117
0.000129318
0.00012219
0.00011597
0.000198681
0.0001383
0.000105187
8.55269e-05
7.25013e-05
6.28902e-05
5.60612e-05
5.07595e-05
4.63883e-05
4.27222e-05
3.9626e-05
3.69565e-05
3.46351e-05
3.2606e-05
3.08231e-05
2.92493e-05
2.78544e-05
2.66135e-05
2.55079e-05
2.45416e-05
0.000218609
0.000155003
0.000118661
9.65069e-05
8.18823e-05
7.08356e-05
6.30856e-05
5.71435e-05
5.22484e-05
4.80963e-05
4.45827e-05
4.15722e-05
3.89527e-05
3.66593e-05
3.46397e-05
3.28522e-05
3.12621e-05
2.98417e-05
2.8577e-05
2.75351e-05
0.000728543
0.000588231
0.000496002
0.000429132
0.00037851
0.000338935
0.000306819
0.000279973
0.000257073
0.000237256
0.000219909
0.000204576
0.000190913
0.000178651
0.000167567
0.000157524
0.000148359
0.000139944
0.000132155
0.000124936
0.000814958
0.000730426
0.000654634
0.000589044
0.000533067
0.000485439
0.000444763
0.000409793
0.00037947
0.000352932
0.000329493
0.000308631
0.000289942
0.000273102
0.000257845
0.000243969
0.000231277
0.00021958
0.00020859
0.000197568
0.000826292
0.000764347
0.000706102
0.000651937
0.00060223
0.000557104
0.000516428
0.000479912
0.000447181
0.000417832
0.000391475
0.000367749
0.000346331
0.000326937
0.000309318
0.000293255
0.00027854
0.000264933
0.000252034
0.000238908
0.000828382
0.0007726
0.000721138
0.00067296
0.000627782
0.00058562
0.000546547
0.000510579
0.000477649
0.000447615
0.000420287
0.000395446
0.000372863
0.000352315
0.000333587
0.000316472
0.000300762
0.000286187
0.00027224
0.000257584
0.000828382
0.0007726
0.000721138
0.00067296
0.000627782
0.00058562
0.000546547
0.000510579
0.000477649
0.000447615
0.000420287
0.000395446
0.000372863
0.000352316
0.000333587
0.000316472
0.000300762
0.000286187
0.000272241
0.000257583
0.000826292
0.000764347
0.000706102
0.000651937
0.000602231
0.000557104
0.000516428
0.000479913
0.000447182
0.000417834
0.000391478
0.000367753
0.000346336
0.000326945
0.00030933
0.000293271
0.000278563
0.00026497
0.000252109
0.000239121
0.000814958
0.000730426
0.000654634
0.000589044
0.000533068
0.000485439
0.000444765
0.000409796
0.000379474
0.000352937
0.0003295
0.000308642
0.000289959
0.000273129
0.000257891
0.000244031
0.000231367
0.000219718
0.000208853
0.000198407
0.000728543
0.000588231
0.000496002
0.000429132
0.00037851
0.000338936
0.00030682
0.000279977
0.000257077
0.000237263
0.00021992
0.000204593
0.000190939
0.000178697
0.000167652
0.000157642
0.000148528
0.000140192
0.000132514
0.000125345
0.000218609
0.000155003
0.000118661
9.65069e-05
8.18824e-05
7.08356e-05
6.30857e-05
5.71437e-05
5.22487e-05
4.80968e-05
4.45836e-05
4.15735e-05
3.89548e-05
3.66627e-05
3.46452e-05
3.28604e-05
3.1274e-05
2.98582e-05
2.85938e-05
2.7496e-05
0.000218609
0.000155003
0.000118661
9.65069e-05
8.18824e-05
7.08356e-05
6.30857e-05
5.71437e-05
5.22487e-05
4.80968e-05
4.45835e-05
4.15735e-05
3.89548e-05
3.66627e-05
3.46451e-05
3.28603e-05
3.12739e-05
2.98583e-05
2.8594e-05
2.74973e-05
0.000728543
0.000588231
0.000496002
0.000429132
0.00037851
0.000338936
0.00030682
0.000279976
0.000257077
0.000237262
0.00021992
0.000204593
0.000190941
0.000178696
0.000167651
0.000157641
0.00014853
0.000140198
0.000132525
0.000125369
0.000814958
0.000730426
0.000654634
0.000589044
0.000533068
0.000485439
0.000444765
0.000409795
0.000379474
0.000352937
0.0003295
0.000308642
0.000289959
0.000273128
0.00025789
0.00024403
0.000231367
0.000219719
0.000208854
0.000198413
0.000826292
0.000764347
0.000706102
0.000651937
0.000602231
0.000557104
0.000516428
0.000479913
0.000447182
0.000417834
0.000391478
0.000367752
0.000346336
0.000326945
0.00030933
0.000293271
0.000278563
0.00026497
0.000252108
0.000239135
0.000828382
0.0007726
0.000721138
0.00067296
0.000627782
0.00058562
0.000546547
0.000510579
0.000477649
0.000447615
0.000420287
0.000395446
0.000372863
0.000352315
0.000333587
0.000316472
0.000300762
0.000286187
0.000272241
0.000257578
0.000828382
0.0007726
0.000721138
0.00067296
0.000627782
0.00058562
0.000546547
0.000510579
0.000477649
0.000447615
0.000420287
0.000395446
0.000372863
0.000352316
0.000333587
0.000316472
0.000300762
0.000286188
0.000272241
0.000257578
0.000826292
0.000764347
0.000706102
0.000651937
0.00060223
0.000557104
0.000516428
0.000479912
0.000447181
0.000417833
0.000391476
0.000367749
0.000346331
0.000326937
0.000309319
0.000293256
0.00027854
0.000264934
0.000252035
0.000238886
0.000814958
0.000730426
0.000654634
0.000589044
0.000533067
0.000485439
0.000444763
0.000409793
0.000379471
0.000352933
0.000329493
0.000308631
0.000289941
0.0002731
0.00025785
0.000243971
0.000231277
0.000219577
0.000208583
0.000197538
0.000728543
0.000588231
0.000496002
0.000429132
0.00037851
0.000338935
0.000306818
0.000279973
0.000257073
0.000237256
0.00021991
0.000204576
0.00019091
0.000178643
0.000167578
0.000157531
0.000148362
0.000139944
0.00013215
0.000124915
0.000218609
0.000155003
0.000118661
9.65069e-05
8.18823e-05
7.08356e-05
6.30856e-05
5.71435e-05
5.22484e-05
4.80963e-05
4.45827e-05
4.15722e-05
3.89526e-05
3.66592e-05
3.464e-05
3.28525e-05
3.12623e-05
2.98419e-05
2.85772e-05
2.75359e-05
0.000198681
0.0001383
0.000105187
8.55269e-05
7.25012e-05
6.28902e-05
5.60612e-05
5.07594e-05
4.63883e-05
4.27222e-05
3.96259e-05
3.69564e-05
3.4635e-05
3.26059e-05
3.08232e-05
2.92494e-05
2.78545e-05
2.66136e-05
2.55082e-05
2.45423e-05
0.00071288
0.000556432
0.000466397
0.000402355
0.000354426
0.000317051
0.000286676
0.000261258
0.000239586
0.000220852
0.000204454
0.000189968
0.000177075
0.000165519
0.000155111
0.000145679
0.000137121
0.000129323
0.000122197
0.00011598
0.000809324
0.000713906
0.000631505
0.000562574
0.000505377
0.000457786
0.000417841
0.00038394
0.000354805
0.000329451
0.000307159
0.000287383
0.000269708
0.000253808
0.000239429
0.000226355
0.000214421
0.000203461
0.000193265
0.000183232
0.000823497
0.000753987
0.000688491
0.000628748
0.000575387
0.000528266
0.000486845
0.000450441
0.000418361
0.000389971
0.000364724
0.000342156
0.000321885
0.000303592
0.000287011
0.000271914
0.000258102
0.000245359
0.000233336
0.000221079
0.000826292
0.000764347
0.000706102
0.000651937
0.00060223
0.000557104
0.000516428
0.000479912
0.000447181
0.000417832
0.000391475
0.000367749
0.000346331
0.000326937
0.000309319
0.000293256
0.00027854
0.000264934
0.000252036
0.000238899
0.000826292
0.000764347
0.000706102
0.000651937
0.000602231
0.000557104
0.000516428
0.000479913
0.000447182
0.000417834
0.000391478
0.000367752
0.000346336
0.000326945
0.00030933
0.000293271
0.000278562
0.000264969
0.000252109
0.00023913
0.000823497
0.000753987
0.000688491
0.000628748
0.000575387
0.000528266
0.000486845
0.000450441
0.000418361
0.000389971
0.000364724
0.000342157
0.000321886
0.000303593
0.00028701
0.000271914
0.000258102
0.000245358
0.000233333
0.000221065
0.000809324
0.000713905
0.000631504
0.000562573
0.000505377
0.000457785
0.000417839
0.000383937
0.0003548
0.000329444
0.000307147
0.000287365
0.000269679
0.000253761
0.000239356
0.000226249
0.00021426
0.000203208
0.000192791
0.000181777
0.00071288
0.000556432
0.000466397
0.000402354
0.000354425
0.000317049
0.000286673
0.000261252
0.000239577
0.000220839
0.000204433
0.000189932
0.000177015
0.000165413
0.000154944
0.000145433
0.000136737
0.000128723
0.000121279
0.000114656
0.000198681
0.0001383
0.000105187
8.55269e-05
7.25012e-05
6.289e-05
5.60609e-05
5.0759e-05
4.63876e-05
4.27211e-05
3.96242e-05
3.69537e-05
3.46306e-05
3.25986e-05
3.08118e-05
2.92319e-05
2.78276e-05
2.65735e-05
2.54582e-05
2.45836e-05
0.000160509
0.00010736
8.07408e-05
6.55975e-05
5.54896e-05
4.83025e-05
4.3131e-05
3.90791e-05
3.57392e-05
3.29499e-05
3.05785e-05
2.85359e-05
2.67756e-05
2.52488e-05
2.39131e-05
2.27368e-05
2.16997e-05
2.07838e-05
1.99763e-05
1.9289e-05
0.000663952
0.000488458
0.000404619
0.000347248
0.000305035
0.000272127
0.000245318
0.000222889
0.000203755
0.000187179
0.000172654
0.000159815
0.000148376
0.000138127
0.000128912
0.000120691
0.000113298
0.000106567
0.000100853
9.44582e-05
0.000786827
0.000662293
0.000567974
0.000495805
0.000439463
0.000394561
0.000357972
0.000327449
0.000301485
0.000279043
0.000259387
0.000241986
0.000226449
0.000212478
0.000199845
0.000188365
0.000177889
0.000168268
0.000159364
0.000149854
0.000809324
0.000713905
0.000631504
0.000562573
0.000505377
0.000457785
0.000417839
0.000383937
0.0003548
0.000329443
0.000307147
0.000287365
0.000269679
0.000253762
0.000239353
0.000226248
0.000214259
0.000203207
0.000192793
0.000181788
0.000814958
0.000730426
0.000654634
0.000589044
0.000533067
0.000485439
0.000444763
0.000409793
0.00037947
0.000352932
0.000329493
0.000308631
0.000289942
0.000273101
0.000257845
0.000243969
0.000231275
0.000219576
0.000208583
0.000197558
0.000814958
0.000730426
0.000654634
0.000589044
0.000533068
0.000485439
0.000444765
0.000409795
0.000379474
0.000352937
0.0003295
0.000308642
0.000289959
0.000273129
0.000257889
0.000244029
0.000231365
0.000219716
0.000208852
0.000198417
0.000809324
0.000713906
0.000631505
0.000562574
0.000505377
0.000457786
0.000417842
0.00038394
0.000354805
0.000329451
0.000307159
0.000287384
0.00026971
0.000253811
0.000239425
0.000226353
0.000214421
0.000203461
0.000193264
0.00018323
0.000786827
0.000662293
0.000567974
0.000495805
0.000439463
0.000394561
0.000357973
0.000327449
0.000301485
0.000279043
0.000259387
0.000241987
0.000226451
0.000212481
0.000199841
0.000188363
0.00017789
0.000168271
0.000159366
0.000149855
0.000663952
0.000488458
0.000404618
0.000347247
0.000305034
0.000272126
0.000245315
0.000222884
0.000203748
0.000187168
0.000172637
0.000159788
0.000148332
0.000138048
0.000128777
0.000120489
0.000112969
0.00010602
9.99501e-05
9.25476e-05
0.000160509
0.00010736
8.07408e-05
6.55975e-05
5.54895e-05
4.83024e-05
4.31308e-05
3.90788e-05
3.57387e-05
3.29489e-05
3.05769e-05
2.85334e-05
2.67717e-05
2.52424e-05
2.39024e-05
2.27198e-05
2.16722e-05
2.074e-05
1.99144e-05
1.92389e-05
0.000107685
6.77183e-05
5.06311e-05
4.14159e-05
3.54048e-05
3.10366e-05
2.77136e-05
2.50815e-05
2.29332e-05
2.11503e-05
1.96501e-05
1.83706e-05
1.72621e-05
1.62926e-05
1.54488e-05
1.47207e-05
1.40864e-05
1.35329e-05
1.3061e-05
1.2667e-05
0.000528907
0.000369984
0.000305096
0.00026137
0.000228527
0.000202474
0.000181111
0.000163069
0.000147532
0.000133973
0.000122032
0.000111441
0.000102097
9.38061e-05
8.63828e-05
7.95415e-05
7.32776e-05
6.76331e-05
6.32224e-05
5.49684e-05
0.000663952
0.000488458
0.000404618
0.000347247
0.000305034
0.000272126
0.000245315
0.000222884
0.000203748
0.000187168
0.000172636
0.000159786
0.00014833
0.000138051
0.000128771
0.000120483
0.000112961
0.000106008
9.99438e-05
9.24535e-05
0.00071288
0.000556432
0.000466397
0.000402354
0.000354425
0.000317049
0.000286673
0.000261252
0.000239577
0.000220838
0.000204432
0.000189931
0.000177016
0.000165422
0.000154932
0.000145424
0.00013673
0.000128715
0.000121269
0.000114639
0.000728543
0.000588231
0.000496002
0.000429132
0.00037851
0.000338935
0.000306819
0.000279973
0.000257073
0.000237256
0.000219909
0.000204576
0.000190913
0.000178651
0.000167566
0.000157524
0.000148358
0.000139942
0.00013215
0.000124931
0.000728543
0.000588231
0.000496002
0.000429132
0.00037851
0.000338936
0.00030682
0.000279976
0.000257077
0.000237263
0.00021992
0.000204593
0.000190941
0.000178698
0.00016765
0.000157641
0.00014853
0.000140197
0.000132523
0.000125371
0.00071288
0.000556432
0.000466397
0.000402355
0.000354426
0.000317051
0.000286677
0.000261258
0.000239586
0.000220852
0.000204454
0.000189968
0.000177076
0.000165528
0.000155103
0.000145675
0.000137119
0.000129322
0.000122197
0.000115982
0.000663952
0.000488458
0.000404619
0.000347248
0.000305035
0.000272127
0.000245318
0.000222888
0.000203755
0.000187179
0.000172654
0.000159815
0.000148378
0.000138137
0.000128903
0.000120686
0.000113295
0.000106565
0.000100852
9.44693e-05
0.000528907
0.000369984
0.000305096
0.00026137
0.000228527
0.000202474
0.000181111
0.000163069
0.000147532
0.000133973
0.000122033
0.000111442
0.000102099
9.38113e-05
8.63805e-05
7.95415e-05
7.32798e-05
6.76368e-05
6.32265e-05
5.49889e-05
0.000107685
6.77183e-05
5.06311e-05
4.14158e-05
3.54048e-05
3.10366e-05
2.77136e-05
2.50814e-05
2.29331e-05
2.11501e-05
1.96497e-05
1.83699e-05
1.72609e-05
1.62895e-05
1.54437e-05
1.4712e-05
1.40704e-05
1.35025e-05
1.30079e-05
1.26043e-05
4.5356e-05
2.3208e-05
1.65396e-05
1.36493e-05
1.18966e-05
1.06843e-05
9.76071e-06
9.05703e-06
8.4946e-06
8.03114e-06
7.64024e-06
7.31173e-06
7.02385e-06
6.75925e-06
6.5267e-06
6.32398e-06
6.1463e-06
5.9898e-06
5.85781e-06
5.70256e-06
0.000107685
6.77183e-05
5.0631e-05
4.14158e-05
3.54048e-05
3.10366e-05
2.77136e-05
2.50814e-05
2.29331e-05
2.115e-05
1.96497e-05
1.83698e-05
1.72608e-05
1.62894e-05
1.54435e-05
1.47118e-05
1.40702e-05
1.35022e-05
1.30073e-05
1.26028e-05
0.000160509
0.00010736
8.07408e-05
6.55975e-05
5.54895e-05
4.83024e-05
4.31308e-05
3.90788e-05
3.57387e-05
3.29488e-05
3.05769e-05
2.85334e-05
2.67717e-05
2.52425e-05
2.39022e-05
2.27195e-05
2.16719e-05
2.07396e-05
1.99137e-05
1.92375e-05
0.000198681
0.0001383
0.000105187
8.55269e-05
7.25012e-05
6.289e-05
5.60609e-05
5.0759e-05
4.63876e-05
4.27211e-05
3.96241e-05
3.69537e-05
3.46306e-05
3.25987e-05
3.08114e-05
2.92316e-05
2.78273e-05
2.65731e-05
2.54578e-05
2.45835e-05
0.000218609
0.000155003
0.000118661
9.65069e-05
8.18823e-05
7.08356e-05
6.30856e-05
5.71435e-05
5.22484e-05
4.80963e-05
4.45827e-05
4.15722e-05
3.89527e-05
3.66594e-05
3.46397e-05
3.28523e-05
3.12621e-05
2.98417e-05
2.85771e-05
2.75355e-05
0.000218609
0.000155003
0.000118661
9.65069e-05
8.18824e-05
7.08356e-05
6.30857e-05
5.71437e-05
5.22487e-05
4.80968e-05
4.45836e-05
4.15736e-05
3.89548e-05
3.66627e-05
3.46452e-05
3.28604e-05
3.1274e-05
2.98583e-05
2.85941e-05
2.74974e-05
0.000198681
0.0001383
0.000105187
8.55269e-05
7.25012e-05
6.28902e-05
5.60612e-05
5.07594e-05
4.63883e-05
4.27222e-05
3.96259e-05
3.69564e-05
3.46351e-05
3.2606e-05
3.08231e-05
2.92493e-05
2.78544e-05
2.66136e-05
2.55082e-05
2.45421e-05
0.000160509
0.00010736
8.07408e-05
6.55975e-05
5.54896e-05
4.83025e-05
4.3131e-05
3.90791e-05
3.57392e-05
3.29499e-05
3.05785e-05
2.85359e-05
2.67757e-05
2.5249e-05
2.3913e-05
2.27367e-05
2.16996e-05
2.07837e-05
1.99763e-05
1.92893e-05
0.000107685
6.77183e-05
5.06311e-05
4.14159e-05
3.54048e-05
3.10366e-05
2.77136e-05
2.50815e-05
2.29332e-05
2.11503e-05
1.96501e-05
1.83706e-05
1.72621e-05
1.62928e-05
1.54488e-05
1.47206e-05
1.40864e-05
1.3533e-05
1.30611e-05
1.26676e-05
4.5356e-05
2.3208e-05
1.65396e-05
1.36493e-05
1.18966e-05
1.06844e-05
9.76071e-06
9.05703e-06
8.4946e-06
8.03115e-06
7.64023e-06
7.31176e-06
7.02384e-06
6.7593e-06
6.52672e-06
6.324e-06
6.14634e-06
5.98986e-06
5.8579e-06
5.7028e-06
4.86294e-06
4.67158e-06
4.50241e-06
4.38658e-06
4.30475e-06
4.24821e-06
4.20012e-06
4.15376e-06
4.10866e-06
4.06943e-06
4.03277e-06
3.99989e-06
3.96448e-06
3.92876e-06
3.89508e-06
3.8615e-06
3.83022e-06
3.79932e-06
3.77011e-06
3.74202e-06
3.71415e-06
3.68637e-06
3.65992e-06
3.63271e-06
3.60896e-06
3.58491e-06
3.5617e-06
3.53891e-06
3.51715e-06
3.49482e-06
3.47481e-06
3.45471e-06
3.43563e-06
3.41736e-06
3.39937e-06
3.38278e-06
3.36724e-06
3.35219e-06
3.3399e-06
3.318e-06
1.02727e-05
9.70018e-06
9.36697e-06
9.12995e-06
8.9425e-06
8.80002e-06
8.67444e-06
8.54732e-06
8.41927e-06
8.30522e-06
8.20074e-06
8.11306e-06
8.02187e-06
7.93529e-06
7.85042e-06
7.76682e-06
7.68916e-06
7.61533e-06
7.54575e-06
7.47997e-06
7.41671e-06
7.35413e-06
7.2949e-06
7.23631e-06
7.18274e-06
7.13263e-06
7.08374e-06
7.03625e-06
6.9897e-06
6.94367e-06
6.89985e-06
6.85773e-06
6.81717e-06
6.77816e-06
6.74068e-06
6.70505e-06
6.67144e-06
6.63927e-06
6.60952e-06
6.57586e-06
1.54981e-05
1.49869e-05
1.43929e-05
1.39475e-05
1.35847e-05
1.3282e-05
1.30119e-05
1.27689e-05
1.25484e-05
1.23411e-05
1.21488e-05
1.19711e-05
1.18083e-05
1.16677e-05
1.15166e-05
1.13741e-05
1.12446e-05
1.11232e-05
1.10091e-05
1.08989e-05
1.0793e-05
1.06851e-05
1.05854e-05
1.04894e-05
1.04052e-05
1.03253e-05
1.02469e-05
1.01708e-05
1.00972e-05
1.00256e-05
9.95691e-06
9.88937e-06
9.82491e-06
9.76323e-06
9.70433e-06
9.64839e-06
9.59508e-06
9.54337e-06
9.49434e-06
9.44364e-06
1.98826e-05
1.91866e-05
1.85396e-05
1.79801e-05
1.74674e-05
1.70247e-05
1.66244e-05
1.62585e-05
1.59222e-05
1.56125e-05
1.53262e-05
1.50597e-05
1.48075e-05
1.45819e-05
1.43706e-05
1.41726e-05
1.39863e-05
1.38146e-05
1.36463e-05
1.3476e-05
1.33188e-05
1.31751e-05
1.30358e-05
1.29022e-05
1.27775e-05
1.26605e-05
1.25491e-05
1.24437e-05
1.23423e-05
1.22447e-05
1.21526e-05
1.20611e-05
1.19713e-05
1.18892e-05
1.18101e-05
1.17351e-05
1.16658e-05
1.15964e-05
1.15321e-05
1.14641e-05
2.2681e-05
2.19494e-05
2.12571e-05
2.06159e-05
2.00269e-05
1.94881e-05
1.89984e-05
1.85497e-05
1.8134e-05
1.77482e-05
1.73897e-05
1.70549e-05
1.67391e-05
1.64526e-05
1.61851e-05
1.59377e-05
1.57063e-05
1.54884e-05
1.52829e-05
1.50899e-05
1.49094e-05
1.47394e-05
1.45634e-05
1.43999e-05
1.42503e-05
1.41087e-05
1.39754e-05
1.38493e-05
1.3729e-05
1.36153e-05
1.35079e-05
1.34059e-05
1.32968e-05
1.32085e-05
1.31143e-05
1.30287e-05
1.29445e-05
1.28649e-05
1.27902e-05
1.27202e-05
2.40879e-05
2.3185e-05
2.23784e-05
2.16537e-05
2.09952e-05
2.03945e-05
1.98471e-05
1.93487e-05
1.88873e-05
1.84582e-05
1.80596e-05
1.76887e-05
1.73409e-05
1.70225e-05
1.67264e-05
1.64506e-05
1.6194e-05
1.59581e-05
1.57383e-05
1.55331e-05
1.53417e-05
1.51643e-05
1.49926e-05
1.48424e-05
1.46812e-05
1.45224e-05
1.43761e-05
1.42405e-05
1.41163e-05
1.39994e-05
1.38885e-05
1.37844e-05
1.36852e-05
1.35723e-05
1.34904e-05
1.33868e-05
1.33146e-05
1.32291e-05
1.3155e-05
1.30843e-05
2.3243e-05
2.23449e-05
2.15293e-05
2.07992e-05
2.0133e-05
1.95237e-05
1.89709e-05
1.84675e-05
1.80081e-05
1.75871e-05
1.72009e-05
1.68457e-05
1.65172e-05
1.62163e-05
1.59379e-05
1.568e-05
1.54409e-05
1.52196e-05
1.50156e-05
1.48262e-05
1.46511e-05
1.44861e-05
1.43257e-05
1.41824e-05
1.40292e-05
1.38832e-05
1.37494e-05
1.36248e-05
1.35092e-05
1.33948e-05
1.32876e-05
1.31907e-05
1.30849e-05
1.29997e-05
1.2902e-05
1.28275e-05
1.27502e-05
1.2675e-05
1.26022e-05
1.25328e-05
2.03708e-05
1.95338e-05
1.8735e-05
1.80917e-05
1.74873e-05
1.69396e-05
1.64607e-05
1.60354e-05
1.56573e-05
1.53157e-05
1.50055e-05
1.47195e-05
1.44544e-05
1.42107e-05
1.39853e-05
1.3776e-05
1.35826e-05
1.34032e-05
1.32365e-05
1.3081e-05
1.29395e-05
1.27981e-05
1.26613e-05
1.25303e-05
1.24128e-05
1.2297e-05
1.21882e-05
1.20842e-05
1.19796e-05
1.1875e-05
1.17802e-05
1.16972e-05
1.16189e-05
1.15414e-05
1.14666e-05
1.13948e-05
1.13255e-05
1.1258e-05
1.11932e-05
1.11308e-05
1.59005e-05
1.52443e-05
1.44908e-05
1.39828e-05
1.35199e-05
1.31284e-05
1.28e-05
1.25263e-05
1.22774e-05
1.20483e-05
1.18393e-05
1.16444e-05
1.14697e-05
1.13062e-05
1.11586e-05
1.10007e-05
1.08543e-05
1.07256e-05
1.06042e-05
1.04911e-05
1.03835e-05
1.02805e-05
1.01841e-05
1.00854e-05
9.99662e-06
9.90704e-06
9.82339e-06
9.74367e-06
9.66929e-06
9.59608e-06
9.52899e-06
9.46517e-06
9.40455e-06
9.34595e-06
9.29018e-06
9.23701e-06
9.18476e-06
9.13349e-06
9.08513e-06
9.03725e-06
1.0472e-05
9.98769e-06
9.53324e-06
9.19949e-06
8.94509e-06
8.75038e-06
8.59216e-06
8.45199e-06
8.31102e-06
8.18695e-06
8.08147e-06
7.98363e-06
7.89247e-06
7.78979e-06
7.69398e-06
7.60331e-06
7.51821e-06
7.43918e-06
7.36408e-06
7.29414e-06
7.22712e-06
7.16315e-06
7.10292e-06
7.04135e-06
6.98574e-06
6.93279e-06
6.88189e-06
6.83275e-06
6.78562e-06
6.73856e-06
6.69548e-06
6.6544e-06
6.61511e-06
6.57758e-06
6.54191e-06
6.5078e-06
6.47514e-06
6.44408e-06
6.41613e-06
6.3848e-06
4.86235e-06
4.67054e-06
4.5025e-06
4.38554e-06
4.30617e-06
4.25113e-06
4.20375e-06
4.15773e-06
4.11194e-06
4.07092e-06
4.03465e-06
3.99883e-06
3.96291e-06
3.92664e-06
3.89184e-06
3.85857e-06
3.82682e-06
3.79614e-06
3.76694e-06
3.73883e-06
3.71112e-06
3.68343e-06
3.65752e-06
3.63054e-06
3.60712e-06
3.583e-06
3.56012e-06
3.53747e-06
3.51597e-06
3.49408e-06
3.47421e-06
3.45437e-06
3.4356e-06
3.41759e-06
3.40034e-06
3.38404e-06
3.36827e-06
3.35336e-06
3.34086e-06
3.31882e-06
1.04723e-05
9.99034e-06
9.53179e-06
9.20502e-06
8.94308e-06
8.74314e-06
8.58459e-06