/*--------------------------------*- C++ -*----------------------------------*\
| =========                 |                                                 |
| \\      /  F ield         | OpenFOAM: The Open Source CFD Toolbox           |
|  \\    /   O peration     | Version:  2212                                  |
|   \\  /    A nd           | Website:  www.openfoam.com                      |
|    \\/     M anipulation  |                                                 |
\*---------------------------------------------------------------------------*/
FoamFile
{
    version     2.0;
    format      ascii;
    arch        "LSB;label=32;scalar=64";
    class       volScalarField;
    location    "2.95";
    object      p;
}
// * * * * * * * * * * * * * * * * * * * * * * * * * * * * * * * * * * * * * //

dimensions      [0 2 -2 0 0 0 0];

internalField   nonuniform List<scalar> 
6840
(
0.0178074
0.010693
0.00840157
0.00786375
0.00758941
0.00736724
0.00718067
0.00701433
0.0068533
0.00669406
0.00653673
0.0063812
0.00622653
0.00607174
0.00591694
0.00576262
0.00560956
0.00545716
0.00529822
0.00508416
0.0106286
0.00989477
0.00880188
0.00813592
0.00773334
0.00745963
0.00724848
0.00706228
0.0068879
0.0067206
0.0065579
0.00639803
0.00623941
0.00608106
0.00592275
0.00576482
0.00560485
0.0054354
0.00523548
0.00495654
0.0102803
0.00942882
0.00866456
0.00810543
0.00772926
0.0074612
0.00724548
0.00705246
0.00687387
0.00670505
0.00654107
0.00637962
0.00622002
0.00606168
0.00590354
0.00574372
0.00557981
0.00540828
0.00522703
0.00502992
0.00987103
0.0091083
0.00848953
0.0080382
0.0076942
0.00742512
0.0072054
0.00701641
0.00684827
0.00669033
0.00653384
0.00637722
0.00622095
0.00606527
0.00590988
0.00575432
0.00559821
0.00544188
0.00528817
0.00513857
0.00973681
0.00899563
0.00840745
0.00799931
0.00767732
0.00741054
0.00718889
0.00699803
0.00682692
0.00666963
0.0065188
0.00636737
0.0062143
0.00606105
0.00590863
0.00575757
0.00560823
0.0054611
0.00531704
0.00517949
0.00973682
0.00899564
0.00840747
0.00799934
0.00767738
0.00741062
0.00718902
0.00699826
0.00682731
0.00667027
0.00651983
0.00636906
0.00621705
0.00606548
0.00591562
0.00576835
0.00562457
0.00548474
0.00534614
0.00521106
0.00987106
0.00910834
0.00848958
0.00803827
0.0076943
0.0074253
0.00720572
0.00701698
0.00684924
0.00669194
0.0065365
0.00638154
0.00622789
0.00607635
0.00592762
0.00578272
0.00564314
0.00551019
0.00538163
0.00525689
0.0102804
0.00942885
0.00866459
0.00810547
0.00772935
0.00746139
0.00724582
0.00705304
0.00687485
0.00670673
0.00654393
0.00638436
0.00622777
0.00607442
0.00592469
0.00577926
0.00564033
0.0055104
0.0053944
0.00530232
0.0106286
0.00989477
0.00880189
0.00813593
0.00773337
0.0074597
0.00724862
0.00706254
0.00688837
0.00672143
0.00655928
0.00640035
0.00624344
0.00608836
0.00593584
0.00578754
0.00564359
0.00550461
0.00537604
0.00526773
0.0178074
0.010693
0.00840155
0.00786374
0.0075894
0.00736722
0.00718065
0.00701431
0.00685328
0.00669403
0.0065367
0.00638116
0.00622648
0.00607169
0.00591688
0.00576253
0.00560945
0.00545703
0.00529807
0.00508392
0.0106286
0.00989479
0.0088019
0.00813595
0.00773339
0.00745972
0.00724864
0.00706256
0.00688839
0.00672146
0.00655931
0.00640039
0.00624349
0.00608841
0.00593591
0.00578764
0.00564371
0.00550475
0.00537621
0.00526796
0.00991205
0.00988035
0.00915214
0.00844166
0.00799535
0.00767946
0.00742066
0.00719314
0.00698878
0.00680075
0.00662359
0.00645367
0.00628824
0.0061257
0.00596576
0.00580801
0.00565273
0.00550058
0.00536194
0.00526082
0.00898656
0.00911275
0.00880988
0.00839368
0.00802655
0.00770793
0.00742939
0.00718896
0.00697636
0.00678179
0.00659848
0.00642312
0.00625369
0.00608825
0.00592523
0.00576327
0.00560145
0.00543905
0.00527636
0.00512176
0.00856816
0.00861167
0.0084461
0.00818316
0.00790278
0.00763143
0.00738038
0.00715395
0.00695076
0.00676386
0.00658633
0.00641497
0.00624838
0.00608535
0.00592457
0.00576504
0.00560611
0.00544767
0.00528946
0.00513521
0.00835217
0.008374
0.00824679
0.00802926
0.00779682
0.00756763
0.00734476
0.00713152
0.00693061
0.00674306
0.00656626
0.00639677
0.0062329
0.00607323
0.00591627
0.00576179
0.00561013
0.00546158
0.00531708
0.00517675
0.0083522
0.00837403
0.00824683
0.00802934
0.00779693
0.00756778
0.00734499
0.00713186
0.0069311
0.00674387
0.00656769
0.00639917
0.00623668
0.00607911
0.00592527
0.00577487
0.00562868
0.00548809
0.00535407
0.0052224
0.00856822
0.00861173
0.00844618
0.00818328
0.00790295
0.00763167
0.00738076
0.00715453
0.00695173
0.00676572
0.00658978
0.00642067
0.0062568
0.00609756
0.00594315
0.00579403
0.00565062
0.00551418
0.00538556
0.00526063
0.00898658
0.00911278
0.00880993
0.00839374
0.00802664
0.00770808
0.00742966
0.00718945
0.00697726
0.00678332
0.00660092
0.00642698
0.00625985
0.00609834
0.00594186
0.00579031
0.00564485
0.00550737
0.0053818
0.00527776
0.00991203
0.00988033
0.00915213
0.00844165
0.00799533
0.00767945
0.00742064
0.00719312
0.00698876
0.00680073
0.00662356
0.00645364
0.0062882
0.00612565
0.0059657
0.00580793
0.00565263
0.00550046
0.0053618
0.00526065
0.0106286
0.00989476
0.00880187
0.00813591
0.00773332
0.00745961
0.00724846
0.00706226
0.00688788
0.00672058
0.00655787
0.006398
0.00623937
0.00608101
0.00592269
0.00576474
0.00560475
0.00543528
0.00523533
0.00495635
0.0102804
0.00942886
0.0086646
0.00810549
0.00772937
0.0074614
0.00724584
0.00705306
0.00687487
0.00670676
0.00654396
0.00638439
0.00622781
0.00607447
0.00592475
0.00577934
0.00564043
0.00551052
0.00539454
0.00530251
0.0089866
0.0091128
0.00880994
0.00839376
0.00802666
0.00770809
0.00742968
0.00718947
0.00697728
0.00678334
0.00660094
0.006427
0.00625988
0.00609838
0.00594191
0.00579037
0.00564492
0.00550745
0.00538189
0.00527783
0.00841709
0.00851807
0.00840653
0.00818109
0.00792538
0.00766703
0.00740873
0.00716728
0.00694965
0.00674976
0.00656269
0.0063854
0.00621541
0.00605077
0.00589032
0.00573324
0.00557889
0.00542753
0.00527986
0.00513485
0.00804907
0.00811713
0.00806475
0.00791778
0.00773293
0.00752783
0.00731721
0.00711036
0.00690933
0.00671701
0.00653455
0.00636013
0.00619179
0.00602811
0.00586804
0.00571066
0.00555506
0.00540037
0.00524621
0.00509027
0.00786598
0.00793042
0.00790095
0.0077761
0.00761707
0.00744337
0.00725707
0.00706903
0.00688285
0.00669936
0.00652013
0.00634613
0.00617775
0.00601427
0.00585499
0.0056996
0.0055471
0.00539626
0.00524635
0.00509427
0.007866
0.00793044
0.00790098
0.00777616
0.00761719
0.00744355
0.00725729
0.00706931
0.00688325
0.00669998
0.00652107
0.00634753
0.00617973
0.00601713
0.00585935
0.00570594
0.00555564
0.00540819
0.00526434
0.00511762
0.0080491
0.00811717
0.00806481
0.00791789
0.00773309
0.00752803
0.00731745
0.00711073
0.00690988
0.00671793
0.00653609
0.00636255
0.00619537
0.00603338
0.00587585
0.00572168
0.00557035
0.00542311
0.00528103
0.00513556
0.00841708
0.00851806
0.00840651
0.00818107
0.00792536
0.00766701
0.00740872
0.00716726
0.00694963
0.00674974
0.00656267
0.00638538
0.00621538
0.00605074
0.00589029
0.00573321
0.00557885
0.0054275
0.00527983
0.00513486
0.00898655
0.00911274
0.00880987
0.00839367
0.00802654
0.00770792
0.00742938
0.00718894
0.00697635
0.00678177
0.00659846
0.00642309
0.00625366
0.00608821
0.00592518
0.00576321
0.00560139
0.00543898
0.00527628
0.00512166
0.0102803
0.00942881
0.00866454
0.00810541
0.00772924
0.00746118
0.00724546
0.00705244
0.00687385
0.00670503
0.00654104
0.00637959
0.00621998
0.00606165
0.00590349
0.00574365
0.00557972
0.00540818
0.0052269
0.00502975
0.00987108
0.00910835
0.00848959
0.00803828
0.00769432
0.00742531
0.00720573
0.007017
0.00684926
0.00669197
0.00653652
0.00638156
0.00622791
0.00607638
0.00592767
0.00578277
0.00564321
0.00551028
0.00538174
0.00525702
0.00856823
0.00861174
0.0084462
0.0081833
0.00790297
0.00763169
0.00738078
0.00715455
0.00695175
0.00676574
0.00658981
0.0064207
0.00625683
0.00609759
0.00594318
0.00579407
0.00565067
0.00551424
0.00538563
0.00526066
0.00804911
0.00811718
0.00806482
0.0079179
0.0077331
0.00752804
0.00731747
0.00711074
0.0069099
0.00671794
0.00653611
0.00636257
0.00619539
0.0060334
0.00587587
0.00572169
0.00557037
0.00542312
0.00528105
0.00513554
0.00775119
0.00781034
0.00779841
0.00770304
0.00756344
0.00739798
0.00721784
0.00703344
0.00684957
0.00666935
0.00649442
0.00632465
0.00615945
0.00599822
0.0058404
0.00568532
0.00553233
0.00538112
0.00523222
0.00507957
0.00760006
0.00766295
0.00766672
0.00759307
0.00747294
0.00732655
0.00716364
0.0069922
0.00681804
0.00664447
0.00647334
0.00630552
0.00614132
0.00598061
0.00582309
0.00566844
0.00551608
0.0053659
0.00521912
0.0050694
0.00760006
0.00766296
0.00766673
0.00759308
0.00747297
0.00732659
0.00716371
0.00699231
0.00681819
0.00664467
0.0064736
0.00630587
0.00614181
0.00598134
0.00582423
0.00567001
0.00551795
0.00536782
0.00522072
0.00506994
0.00775118
0.00781033
0.0077984
0.00770303
0.00756342
0.00739797
0.00721783
0.00703343
0.00684956
0.00666934
0.0064944
0.00632463
0.00615943
0.0059982
0.00584039
0.00568531
0.00553232
0.00538111
0.00523221
0.00507957
0.00804905
0.00811712
0.00806474
0.00791777
0.00773291
0.00752782
0.00731719
0.00711035
0.00690931
0.00671699
0.00653453
0.00636012
0.00619177
0.00602808
0.00586801
0.00571064
0.00555503
0.00540034
0.00524618
0.00509025
0.00856815
0.00861166
0.00844608
0.00818315
0.00790276
0.00763141
0.00738037
0.00715393
0.00695074
0.00676384
0.00658631
0.00641495
0.00624835
0.00608531
0.00592453
0.00576499
0.00560605
0.0054476
0.00528939
0.00513515
0.00987102
0.00910829
0.00848952
0.00803819
0.00769419
0.00742511
0.00720539
0.0070164
0.00684825
0.00669031
0.00653382
0.00637719
0.00622092
0.00606524
0.00590984
0.00575425
0.00559812
0.00544176
0.00528802
0.00513837
0.00973683
0.00899565
0.00840748
0.00799936
0.00767739
0.00741064
0.00718904
0.00699828
0.00682733
0.00667029
0.00651985
0.00636908
0.00621708
0.0060655
0.00591565
0.00576838
0.0056246
0.00548479
0.0053462
0.00521112
0.00835221
0.00837404
0.00824685
0.00802935
0.00779695
0.0075678
0.00734501
0.00713188
0.00693112
0.00674389
0.00656772
0.00639919
0.00623671
0.00607913
0.00592529
0.0057749
0.00562872
0.00548813
0.00535412
0.00522244
0.00786602
0.00793045
0.00790099
0.00777618
0.00761721
0.00744356
0.0072573
0.00706933
0.00688327
0.0067
0.00652109
0.00634755
0.00617975
0.00601715
0.00585936
0.00570596
0.00555566
0.00540821
0.00526436
0.00511763
0.00760007
0.00766297
0.00766674
0.0075931
0.00747298
0.0073266
0.00716373
0.00699232
0.0068182
0.00664468
0.00647361
0.00630588
0.00614182
0.00598135
0.00582423
0.00567002
0.00551795
0.00536782
0.00522072
0.00506992
0.00745725
0.00752677
0.00754889
0.00749635
0.0073951
0.00726416
0.00711423
0.00695324
0.00678673
0.0066184
0.00645062
0.00628482
0.00612177
0.00596177
0.00580485
0.00565077
0.00549906
0.00534997
0.00520522
0.00505927
0.00745725
0.00752676
0.00754889
0.00749634
0.00739509
0.00726415
0.00711423
0.00695323
0.00678672
0.00661839
0.00645062
0.00628482
0.00612176
0.00596176
0.00580484
0.00565077
0.00549906
0.00534997
0.00520522
0.00505927
0.00760005
0.00766295
0.00766671
0.00759306
0.00747293
0.00732654
0.00716363
0.00699219
0.00681803
0.00664446
0.00647333
0.00630551
0.00614131
0.0059806
0.00582308
0.00566843
0.00551607
0.00536589
0.00521911
0.0050694
0.00786597
0.00793041
0.00790094
0.00777609
0.00761705
0.00744336
0.00725706
0.00706902
0.00688284
0.00669935
0.00652011
0.00634611
0.00617773
0.00601425
0.00585497
0.00569958
0.00554709
0.00539625
0.00524637
0.00509437
0.00835216
0.00837399
0.00824678
0.00802925
0.0077968
0.00756761
0.00734474
0.0071315
0.0069306
0.00674304
0.00656625
0.00639675
0.00623287
0.0060732
0.00591624
0.00576175
0.00561007
0.00546152
0.00531703
0.00517679
0.0097368
0.00899562
0.00840744
0.0079993
0.00767731
0.00741052
0.00718887
0.00699802
0.0068269
0.00666962
0.00651878
0.00636735
0.00621427
0.00606101
0.00590859
0.00575751
0.00560813
0.00546096
0.00531681
0.00517913
0.00973683
0.00899564
0.00840746
0.00799932
0.00767734
0.00741055
0.00718891
0.00699805
0.00682694
0.00666966
0.00651882
0.0063674
0.00621432
0.00606107
0.00590866
0.00575759
0.00560824
0.00546111
0.00531705
0.00517949
0.00835219
0.00837402
0.00824681
0.00802928
0.00779683
0.00756764
0.00734478
0.00713154
0.00693064
0.00674308
0.00656629
0.00639679
0.00623292
0.00607326
0.0059163
0.00576182
0.00561015
0.00546161
0.00531711
0.0051768
0.007866
0.00793043
0.00790097
0.00777611
0.00761708
0.00744338
0.00725709
0.00706905
0.00688287
0.00669938
0.00652015
0.00634615
0.00617777
0.00601429
0.00585501
0.00569962
0.00554713
0.00539628
0.00524637
0.0050943
0.00760006
0.00766296
0.00766672
0.00759308
0.00747295
0.00732656
0.00716365
0.00699221
0.00681805
0.00664449
0.00647335
0.00630553
0.00614133
0.00598062
0.0058231
0.00566845
0.00551608
0.0053659
0.00521911
0.00506939
0.00745725
0.00752677
0.0075489
0.00749635
0.0073951
0.00726416
0.00711423
0.00695324
0.00678673
0.0066184
0.00645062
0.00628483
0.00612177
0.00596177
0.00580484
0.00565077
0.00549906
0.00534996
0.00520522
0.00505925
0.00745725
0.00752677
0.00754889
0.00749635
0.00739509
0.00726415
0.00711423
0.00695323
0.00678672
0.0066184
0.00645062
0.00628482
0.00612176
0.00596176
0.00580484
0.00565076
0.00549905
0.00534995
0.0052052
0.00505924
0.00760006
0.00766296
0.00766673
0.00759308
0.00747297
0.00732659
0.00716371
0.0069923
0.00681818
0.00664466
0.00647359
0.00630586
0.0061418
0.00598133
0.00582421
0.00566999
0.00551792
0.00536778
0.00522067
0.00506988
0.007866
0.00793043
0.00790097
0.00777616
0.00761719
0.00744354
0.00725728
0.0070693
0.00688324
0.00669997
0.00652106
0.00634752
0.00617972
0.00601712
0.00585934
0.00570592
0.00555561
0.00540816
0.00526435
0.00511772
0.00835219
0.00837402
0.00824682
0.00802933
0.00779692
0.00756777
0.00734498
0.00713185
0.00693109
0.00674386
0.00656768
0.00639915
0.00623666
0.00607909
0.00592525
0.00577485
0.00562866
0.00548807
0.00535407
0.00522245
0.00973681
0.00899563
0.00840746
0.00799933
0.00767737
0.00741061
0.00718901
0.00699825
0.00682729
0.00667025
0.00651981
0.00636904
0.00621703
0.00606545
0.00591559
0.00576831
0.00562451
0.00548465
0.00534602
0.00521085
0.00987105
0.00910832
0.00848955
0.00803822
0.00769422
0.00742514
0.00720542
0.00701643
0.00684829
0.00669036
0.00653387
0.00637724
0.00622098
0.0060653
0.00590991
0.00575433
0.00559822
0.00544188
0.00528817
0.00513854
0.00856817
0.00861168
0.00844611
0.00818318
0.00790279
0.00763144
0.0073804
0.00715397
0.00695078
0.00676389
0.00658635
0.006415
0.0062484
0.00608538
0.0059246
0.00576506
0.00560613
0.00544768
0.00528948
0.00513524
0.00804908
0.00811714
0.00806476
0.0079178
0.00773294
0.00752785
0.00731722
0.00711038
0.00690934
0.00671702
0.00653457
0.00636015
0.00619181
0.00602813
0.00586806
0.00571068
0.00555507
0.00540038
0.00524621
0.00509027
0.0077512
0.00781035
0.00779842
0.00770304
0.00756344
0.00739799
0.00721785
0.00703345
0.00684958
0.00666936
0.00649443
0.00632465
0.00615945
0.00599822
0.0058404
0.00568532
0.00553232
0.0053811
0.00523218
0.0050795
0.00760007
0.00766297
0.00766674
0.00759309
0.00747298
0.0073266
0.00716372
0.00699232
0.0068182
0.00664468
0.00647361
0.00630588
0.00614181
0.00598134
0.00582423
0.00567001
0.00551794
0.0053678
0.00522069
0.0050699
0.00760006
0.00766295
0.00766672
0.00759307
0.00747294
0.00732655
0.00716364
0.0069922
0.00681804
0.00664447
0.00647334
0.00630552
0.00614131
0.0059806
0.00582308
0.00566842
0.00551605
0.00536587
0.00521907
0.00506934
0.00775119
0.00781033
0.00779841
0.00770303
0.00756343
0.00739797
0.00721783
0.00703343
0.00684956
0.00666934
0.0064944
0.00632463
0.00615943
0.00599819
0.00584037
0.00568529
0.00553228
0.00538105
0.00523212
0.00507942
0.0080491
0.00811716
0.00806481
0.00791788
0.00773308
0.00752802
0.00731745
0.00711072
0.00690988
0.00671792
0.00653608
0.00636254
0.00619536
0.00603337
0.00587584
0.00572165
0.00557031
0.00542305
0.00528096
0.00513539
0.00856821
0.00861172
0.00844618
0.00818328
0.00790295
0.00763166
0.00738075
0.00715452
0.00695172
0.00676571
0.00658977
0.00642066
0.00625679
0.00609755
0.00594314
0.00579403
0.00565062
0.00551419
0.00538558
0.00526056
0.00987106
0.00910833
0.00848957
0.00803826
0.0076943
0.00742529
0.00720571
0.00701697
0.00684923
0.00669193
0.00653649
0.00638152
0.00622787
0.00607633
0.00592761
0.00578271
0.00564314
0.0055102
0.00538165
0.00525691
0.0102803
0.00942884
0.00866457
0.00810544
0.00772928
0.00746122
0.0072455
0.00705248
0.00687389
0.00670508
0.00654109
0.00637964
0.00622004
0.00606171
0.00590356
0.00574374
0.00557982
0.00540828
0.00522702
0.00502988
0.00898658
0.00911277
0.00880989
0.0083937
0.00802657
0.00770795
0.00742941
0.00718898
0.00697638
0.00678181
0.0065985
0.00642314
0.00625371
0.00608827
0.00592525
0.00576328
0.00560146
0.00543905
0.00527636
0.00512177
0.0084171
0.00851808
0.00840654
0.0081811
0.00792539
0.00766704
0.00740875
0.00716729
0.00694966
0.00674977
0.00656271
0.00638541
0.00621542
0.00605078
0.00589034
0.00573326
0.00557889
0.00542753
0.00527986
0.00513486
0.00804912
0.00811718
0.00806483
0.0079179
0.00773311
0.00752805
0.00731748
0.00711075
0.00690991
0.00671795
0.00653611
0.00636257
0.00619539
0.0060334
0.00587586
0.00572168
0.00557035
0.00542309
0.005281
0.00513545
0.00786601
0.00793045
0.00790099
0.00777618
0.0076172
0.00744356
0.0072573
0.00706932
0.00688326
0.00669999
0.00652108
0.00634754
0.00617974
0.00601713
0.00585934
0.00570593
0.00555563
0.00540818
0.00526432
0.00511759
0.00786599
0.00793042
0.00790096
0.0077761
0.00761707
0.00744337
0.00725707
0.00706903
0.00688285
0.00669936
0.00652012
0.00634613
0.00617774
0.00601425
0.00585497
0.00569959
0.00554708
0.00539623
0.00524631
0.00509423
0.00804906
0.00811713
0.00806475
0.00791778
0.00773292
0.00752783
0.0073172
0.00711036
0.00690932
0.006717
0.00653454
0.00636012
0.00619178
0.00602808
0.00586801
0.00571063
0.00555502
0.00540033
0.00524614
0.00509015
0.00841708
0.00851806
0.00840652
0.00818108
0.00792536
0.00766702
0.00740872
0.00716727
0.00694963
0.00674974
0.00656267
0.00638538
0.00621538
0.00605074
0.00589029
0.00573321
0.00557886
0.0054275
0.00527982
0.0051347
0.00898658
0.00911278
0.00880993
0.00839374
0.00802664
0.00770807
0.00742966
0.00718945
0.00697726
0.00678332
0.00660091
0.00642697
0.00625984
0.00609833
0.00594186
0.00579032
0.00564488
0.00550743
0.00538188
0.00527779
0.0102803
0.00942884
0.00866459
0.00810547
0.00772934
0.00746138
0.00724581
0.00705304
0.00687484
0.00670673
0.00654392
0.00638435
0.00622776
0.00607442
0.00592469
0.00577927
0.00564036
0.00551044
0.00539444
0.00530244
0.0106286
0.00989479
0.0088019
0.00813594
0.00773335
0.00745965
0.0072485
0.0070623
0.00688792
0.00672063
0.00655793
0.00639806
0.00623944
0.00608108
0.00592277
0.00576484
0.00560486
0.0054354
0.00523545
0.00495649
0.00991206
0.00988036
0.00915215
0.00844167
0.00799536
0.00767948
0.00742067
0.00719315
0.0069888
0.00680077
0.0066236
0.00645369
0.00628825
0.00612571
0.00596577
0.00580802
0.00565274
0.00550058
0.00536193
0.00526082
0.0089866
0.0091128
0.00880995
0.00839377
0.00802667
0.0077081
0.00742969
0.00718948
0.00697729
0.00678335
0.00660095
0.00642701
0.00625989
0.00609839
0.00594192
0.00579037
0.00564492
0.00550745
0.0053819
0.00527786
0.00856823
0.00861175
0.0084462
0.0081833
0.00790297
0.00763169
0.00738078
0.00715455
0.00695175
0.00676574
0.0065898
0.00642069
0.00625683
0.00609758
0.00594318
0.00579406
0.00565066
0.00551422
0.0053856
0.00526062
0.00835221
0.00837404
0.00824684
0.00802935
0.00779694
0.00756779
0.007345
0.00713187
0.00693111
0.00674388
0.0065677
0.00639918
0.00623669
0.00607911
0.00592527
0.00577487
0.00562869
0.0054881
0.00535407
0.00522237
0.00835218
0.00837401
0.0082468
0.00802927
0.00779682
0.00756763
0.00734476
0.00713152
0.00693062
0.00674306
0.00656626
0.00639677
0.00623289
0.00607322
0.00591626
0.00576178
0.00561011
0.00546156
0.00531704
0.00517671
0.00856816
0.00861167
0.00844609
0.00818316
0.00790278
0.00763142
0.00738038
0.00715394
0.00695076
0.00676386
0.00658632
0.00641496
0.00624836
0.00608533
0.00592454
0.00576501
0.00560608
0.00544763
0.00528939
0.00513509
0.00898655
0.00911274
0.00880987
0.00839367
0.00802655
0.00770792
0.00742939
0.00718895
0.00697635
0.00678178
0.00659846
0.0064231
0.00625367
0.00608822
0.0059252
0.00576323
0.00560142
0.00543902
0.00527632
0.00512167
0.00991203
0.00988034
0.00915213
0.00844165
0.00799533
0.00767945
0.00742064
0.00719312
0.00698876
0.00680073
0.00662356
0.00645364
0.0062882
0.00612566
0.00596571
0.00580797
0.00565268
0.00550055
0.00536191
0.00526092
0.0106286
0.00989477
0.00880189
0.00813593
0.00773337
0.0074597
0.00724862
0.00706254
0.00688837
0.00672143
0.00655928
0.00640035
0.00624344
0.00608836
0.00593586
0.00578757
0.00564363
0.00550467
0.00537612
0.00526793
0.0178074
0.010693
0.00840158
0.00786377
0.00758942
0.00736725
0.00718068
0.00701434
0.00685332
0.00669408
0.00653675
0.00638121
0.00622655
0.00607176
0.00591695
0.00576263
0.00560956
0.00545715
0.00529818
0.00508409
0.0106286
0.0098948
0.00880191
0.00813596
0.0077334
0.00745973
0.00724865
0.00706257
0.0068884
0.00672147
0.00655933
0.0064004
0.0062435
0.00608842
0.00593592
0.00578764
0.0056437
0.00550473
0.00537619
0.00526793
0.0102804
0.00942887
0.00866461
0.0081055
0.00772937
0.00746141
0.00724584
0.00705307
0.00687488
0.00670676
0.00654396
0.00638439
0.00622781
0.00607447
0.00592475
0.00577933
0.00564042
0.00551051
0.00539454
0.00530252
0.00987108
0.00910835
0.0084896
0.00803828
0.00769432
0.00742531
0.00720574
0.007017
0.00684926
0.00669197
0.00653652
0.00638156
0.00622791
0.00607638
0.00592766
0.00578276
0.0056432
0.00551027
0.00538174
0.00525702
0.00973683
0.00899565
0.00840748
0.00799935
0.00767739
0.00741063
0.00718903
0.00699828
0.00682732
0.00667028
0.00651984
0.00636907
0.00621706
0.00606549
0.00591563
0.00576836
0.00562458
0.00548476
0.00534617
0.00521108
0.00973682
0.00899563
0.00840745
0.00799931
0.00767733
0.00741054
0.00718889
0.00699804
0.00682692
0.00666964
0.0065188
0.00636737
0.00621429
0.00606104
0.00590863
0.00575756
0.00560821
0.00546108
0.00531701
0.00517944
0.00987103
0.0091083
0.00848953
0.0080382
0.0076942
0.00742512
0.0072054
0.00701641
0.00684827
0.00669033
0.00653383
0.0063772
0.00622094
0.00606526
0.00590987
0.00575429
0.00559818
0.00544186
0.00528816
0.00513857
0.0102803
0.00942882
0.00866455
0.00810542
0.00772925
0.00746119
0.00724547
0.00705245
0.00687386
0.00670504
0.00654105
0.00637959
0.00621999
0.00606166
0.00590352
0.00574369
0.00557978
0.00540828
0.00522708
0.00503008
0.0106286
0.00989476
0.00880187
0.00813591
0.00773333
0.00745962
0.00724847
0.00706227
0.00688789
0.00672059
0.00655788
0.006398
0.00623937
0.00608103
0.00592272
0.00576478
0.00560482
0.00543538
0.00523547
0.00495665
0.0178074
0.010693
0.00840155
0.00786374
0.0075894
0.00736722
0.00718065
0.00701431
0.00685328
0.00669404
0.0065367
0.00638116
0.00622648
0.0060717
0.0059169
0.00576256
0.0056095
0.00545711
0.00529814
0.00508409
0.00534832
0.00485997
0.00455562
0.00442334
0.00430527
0.00416989
0.00403452
0.003901
0.00376612
0.00363059
0.00349575
0.00336335
0.00323222
0.00309935
0.00296831
0.00283869
0.00270987
0.0025828
0.00245694
0.00233293
0.00220997
0.00208807
0.0019684
0.00184943
0.00172991
0.00161162
0.00149529
0.00137995
0.00126605
0.00115272
0.00103947
0.000927596
0.000816791
0.000706803
0.000597218
0.000488214
0.000379932
0.000271334
0.000164117
5.08049e-05
0.00518999
0.0048479
0.00460185
0.00446827
0.00434054
0.00419922
0.00405875
0.0039198
0.00377996
0.00364016
0.00350147
0.00336587
0.00323166
0.00309599
0.00296247
0.00283127
0.00270165
0.00257407
0.00244793
0.00232371
0.00220073
0.00207932
0.00196057
0.00184236
0.00172325
0.00160511
0.0014888
0.00137356
0.00125977
0.00114662
0.00103381
0.00092243
0.000812126
0.00070266
0.000593511
0.000484874
0.00037703
0.000269069
0.000161892
5.01855e-05
0.00503759
0.00485727
0.00465063
0.00448989
0.00434907
0.00420576
0.00406046
0.0039162
0.00377358
0.00363269
0.00349378
0.00335658
0.00322071
0.00308553
0.00295245
0.00282179
0.00269291
0.0025658
0.00244001
0.0023159
0.00219236
0.00207059
0.00195108
0.00183263
0.00171448
0.00159703
0.00148115
0.00136623
0.00125259
0.00113985
0.00102812
0.000917636
0.000808103
0.000699102
0.000590336
0.000482363
0.000375141
0.000267677
0.000161123
4.97938e-05
0.00496455
0.00483088
0.00465827
0.00450076
0.00435579
0.00421168
0.00406724
0.00392394
0.00378213
0.00364175
0.00350306
0.00336615
0.00323092
0.00309672
0.00296399
0.00283326
0.00270418
0.00257659
0.0024502
0.00232529
0.00220109
0.00207763
0.00195525
0.0018344
0.00171519
0.00159735
0.00148098
0.00136593
0.00125223
0.0011395
0.00102786
0.000916649
0.000806496
0.000697309
0.000588698
0.000481144
0.000374243
0.000266962
0.000160689
4.93303e-05
0.00496464
0.00482241
0.00466206
0.00450273
0.00435009
0.00420166
0.00405612
0.00391407
0.00377468
0.00363661
0.00349968
0.00336424
0.00323014
0.00309726
0.00296576
0.00283595
0.00270746
0.00258013
0.00245399
0.00232917
0.00220564
0.00208329
0.00196183
0.00184122
0.00172182
0.00160379
0.00148728
0.00137226
0.00125839
0.00114533
0.00103272
0.000920296
0.000809118
0.000699424
0.000590608
0.00048279
0.000375342
0.000267532
0.000160911
4.92631e-05
0.00499845
0.00483501
0.00466611
0.00450217
0.00434638
0.00419672
0.00405102
0.00390932
0.00377108
0.00363442
0.00349851
0.00336357
0.00322982
0.00309736
0.00296649
0.00283693
0.00270868
0.00258169
0.00245595
0.00233146
0.00220823
0.0020862
0.00196543
0.00184566
0.00172656
0.00160818
0.00149102
0.00137529
0.00126101
0.00114791
0.00103554
0.000924128
0.000813921
0.000704505
0.000595468
0.00048696
0.000378649
0.000270034
0.000162565
5.02588e-05
0.00506541
0.00487746
0.00468171
0.00450647
0.00434681
0.0041945
0.00404716
0.00390485
0.00376636
0.00362957
0.0034939
0.00335955
0.00322634
0.00309432
0.00296391
0.00283507
0.00270745
0.00258098
0.00245573
0.00233173
0.00220896
0.00208732
0.00196688
0.00184712
0.00172782
0.00160949
0.00149271
0.00137719
0.00126324
0.00115036
0.00103797
0.000926892
0.000816639
0.0007069
0.000597917
0.000489667
0.000381473
0.00027293
0.000165009
5.19045e-05
0.00516194
0.00493681
0.00469749
0.00450145
0.00433417
0.00417971
0.004033
0.00389212
0.00375485
0.00361941
0.00348552
0.00335294
0.00322095
0.0030893
0.00295878
0.0028303
0.00270326
0.00257748
0.00245285
0.00232931
0.002207
0.00208569
0.00196591
0.00184645
0.00172797
0.00161119
0.00149569
0.00138106
0.00126748
0.00115441
0.00104155
0.000930243
0.000819826
0.000709794
0.0006006
0.000492335
0.0003839
0.000275054
0.00016649
5.29138e-05
0.00527984
0.00496747
0.00466575
0.00445882
0.00429451
0.00414466
0.00400352
0.00386851
0.00373653
0.00360552
0.0034755
0.00334524
0.0032147
0.00308644
0.00295956
0.00283279
0.00270569
0.00257967
0.00245502
0.00233133
0.00220885
0.00208704
0.00196707
0.00184791
0.00173013
0.00161365
0.00149803
0.00138308
0.00126912
0.00115564
0.00104227
0.00093044
0.000819702
0.000709447
0.000599676
0.000491089
0.000382522
0.000273484
0.00016487
5.22062e-05
0.00537381
0.00491746
0.00455587
0.00438591
0.00426327
0.00413483
0.00400602
0.00387874
0.00374997
0.00361893
0.00348959
0.00336027
0.00322959
0.00310163
0.00297477
0.002847
0.0027189
0.00259198
0.00246653
0.00234248
0.00221977
0.00209745
0.00197685
0.00185682
0.00173705
0.00161909
0.00150258
0.00138709
0.00127286
0.00115916
0.00104547
0.000933155
0.000821945
0.000711362
0.000601245
0.000492318
0.000383521
0.000274195
0.00016547
5.23733e-05
0.00534848
0.00485998
0.00455517
0.0044215
0.00430367
0.00417068
0.00403568
0.00390199
0.00376725
0.00363103
0.00349745
0.00336465
0.00323078
0.00309903
0.00296859
0.00283898
0.00271004
0.00258267
0.00245694
0.00233271
0.00220995
0.00208798
0.00196818
0.00184894
0.00172931
0.00161134
0.00149486
0.00137953
0.00126547
0.00115207
0.00103889
0.000927089
0.000816377
0.00070634
0.000596727
0.00048822
0.000379899
0.000271089
0.000164135
5.07572e-05
0.00537366
0.00491748
0.00455621
0.00438815
0.00426544
0.00413425
0.00400475
0.0038775
0.0037486
0.00361821
0.00348753
0.00335876
0.00323064
0.00310135
0.00297393
0.00284631
0.00271848
0.00259195
0.00246645
0.00234264
0.00221974
0.00209762
0.0019772
0.00185744
0.00173759
0.00161924
0.0015029
0.00138751
0.00127353
0.00115996
0.00104619
0.000933764
0.000822446
0.000711943
0.000601892
0.000492417
0.000383491
0.000274316
0.000165345
5.23076e-05
0.00510426
0.00483506
0.00461501
0.00445779
0.00431584
0.00417713
0.00404198
0.00390835
0.00377464
0.0036407
0.00350724
0.00337462
0.0032426
0.00311003
0.00297883
0.00284891
0.00272026
0.00259334
0.00246761
0.00234359
0.0022199
0.00209781
0.00197741
0.00185802
0.00173874
0.00161983
0.00150304
0.00138727
0.00127293
0.00115932
0.00104586
0.000933535
0.000822275
0.000711623
0.000601557
0.000492504
0.000383969
0.000275095
0.000166839
5.31063e-05
0.00493977
0.00476624
0.00461682
0.00446354
0.00431716
0.00417711
0.00403806
0.00390003
0.00376381
0.00362872
0.00349435
0.00335995
0.00322634
0.00309514
0.0029649
0.00283547
0.00270743
0.00258083
0.00245563
0.00233127
0.00220752
0.00208489
0.0019631
0.00184312
0.00172521
0.001608
0.00149189
0.00137689
0.0012628
0.00114971
0.00103772
0.000926151
0.000815502
0.000705443
0.000596265
0.000488446
0.000380751
0.000272365
0.000165054
5.24975e-05
0.00490781
0.00475838
0.00461603
0.0044684
0.00432443
0.00418369
0.00404437
0.00390679
0.00377055
0.00363508
0.00350027
0.00336633
0.00323349
0.0031021
0.00297143
0.00284159
0.00271307
0.00258583
0.00246001
0.00233512
0.00221171
0.00208907
0.00196701
0.00184661
0.0017282
0.00161089
0.00149421
0.00137886
0.00126443
0.00115089
0.0010381
0.000925832
0.000814722
0.000704582
0.000595767
0.000487901
0.000379747
0.000271498
0.000164256
5.25996e-05
0.00495559
0.00479148
0.00463765
0.00448846
0.00434181
0.00419758
0.00405532
0.00391494
0.00377635
0.0036394
0.00350389
0.00336961
0.00323664
0.00310499
0.00297438
0.00284486
0.00271656
0.0025894
0.00246346
0.00233859
0.00221491
0.00209215
0.00197046
0.00185019
0.0017312
0.00161322
0.00149639
0.00138117
0.00126719
0.00115373
0.00104058
0.000928527
0.000817464
0.000707179
0.00059801
0.000489168
0.000379969
0.000271064
0.000163296
5.27287e-05
0.00497237
0.00481176
0.00466369
0.0045141
0.00436439
0.00421734
0.00407281
0.00392983
0.00378841
0.0036492
0.00351209
0.00337655
0.00324236
0.00310961
0.0029782
0.00284801
0.00271911
0.00259151
0.00246521