/*--------------------------------*- C++ -*----------------------------------*\
| =========                 |                                                 |
| \\      /  F ield         | OpenFOAM: The Open Source CFD Toolbox           |
|  \\    /   O peration     | Version:  2212                                  |
|   \\  /    A nd           | Website:  www.openfoam.com                      |
|    \\/     M anipulation  |                                                 |
\*---------------------------------------------------------------------------*/
FoamFile
{
    version     2.0;
    format      ascii;
    arch        "LSB;label=32;scalar=64";
    class       surfaceScalarField;
    location    "2.95";
    object      phi;
}
// * * * * * * * * * * * * * * * * * * * * * * * * * * * * * * * * * * * * * //

dimensions      [0 3 -1 0 0 0 0];

oriented        oriented;

internalField   nonuniform List<scalar> 
19019
(
3.32249e-07
1.09683e-09
1.09684e-09
2.7919e-07
2.65297e-08
2.65295e-08
2.49217e-07
1.49867e-08
1.49863e-08
2.29253e-07
9.98264e-09
9.98199e-09
2.14832e-07
7.21132e-09
7.20953e-09
2.03194e-07
5.82036e-09
5.81764e-09
1.93763e-07
4.71835e-09
4.71261e-09
1.85989e-07
3.89192e-09
3.88152e-09
1.7933e-07
3.33845e-09
3.3202e-09
1.73486e-07
2.93823e-09
2.9064e-09
1.68288e-07
2.62531e-09
2.57262e-09
1.63624e-07
2.37587e-09
2.28819e-09
1.59393e-07
2.19051e-09
2.04055e-09
1.55512e-07
2.07457e-09
1.80559e-09
1.51959e-07
2.01602e-09
1.53805e-09
1.48743e-07
1.9907e-09
1.22482e-09
1.45917e-07
2.00949e-09
8.16818e-10
1.43749e-07
2.02872e-09
1.3996e-10
1.42593e-07
2.65298e-09
-1.49723e-09
-2.04562e-09
-1.01282e-08
6.3138e-07
3.58767e-09
7.40285e-09
6.14563e-07
2.26463e-08
2.07003e-08
5.86444e-07
2.43767e-08
1.87292e-08
5.61723e-07
1.88561e-08
1.58471e-08
5.39613e-07
1.55719e-08
1.37494e-08
5.20631e-07
1.35142e-08
1.12888e-08
5.04682e-07
1.19584e-08
8.70852e-09
4.90924e-07
1.08105e-08
6.83924e-09
4.78695e-07
9.96523e-09
5.6021e-09
4.67602e-07
9.26759e-09
4.7635e-09
4.57412e-07
8.66345e-09
4.15217e-09
4.47979e-07
8.13283e-09
3.67568e-09
4.39191e-07
7.67068e-09
3.3077e-09
4.30953e-07
7.28107e-09
3.03196e-09
4.23206e-07
6.96678e-09
2.79673e-09
4.16101e-07
6.6736e-09
2.42143e-09
4.09974e-07
6.30284e-09
1.834e-09
4.0598e-07
5.37817e-09
6.44561e-10
4.06556e-07
3.8678e-09
-1.79022e-09
-8.04243e-10
-1.13718e-08
8.90375e-07
2.85273e-09
6.33232e-09
8.82486e-07
1.34091e-08
1.71257e-08
8.70359e-07
1.78682e-08
1.86354e-08
8.55112e-07
1.69568e-08
1.71464e-08
8.39983e-07
1.5342e-08
1.5359e-08
8.25537e-07
1.4172e-08
1.37879e-08
8.11774e-07
1.33824e-08
1.23394e-08
7.98788e-07
1.26799e-08
1.11162e-08
7.8673e-07
1.18935e-08
1.01294e-08
7.75614e-07
1.10518e-08
9.33186e-09
7.65308e-07
1.02494e-08
8.71974e-09
7.55675e-07
9.50645e-09
8.2598e-09
7.46612e-07
8.83015e-09
7.90357e-09
7.38082e-07
8.20747e-09
7.6035e-09
7.30138e-07
7.59873e-09
7.31205e-09
7.22958e-07
6.90723e-09
6.94663e-09
7.1692e-07
5.97862e-09
6.36268e-09
7.12345e-07
4.59138e-09
5.36201e-09
7.09689e-07
2.66672e-09
3.85744e-09
-1.04729e-09
1.14695e-09
1.07432e-06
1.06489e-09
5.56887e-09
1.06824e-06
5.58688e-09
1.39002e-08
1.06138e-06
8.46463e-09
1.62614e-08
1.05339e-06
9.04076e-09
1.59078e-08
1.04511e-06
8.61888e-09
1.49995e-08
1.03723e-06
8.12149e-09
1.39291e-08
1.02986e-06
7.78728e-09
1.29709e-08
1.02288e-06
7.55434e-09
1.2105e-08
1.01607e-06
7.36693e-09
1.13293e-08
1.00938e-06
7.07987e-09
1.06655e-08
1.00284e-06
6.63647e-09
1.0154e-08
9.9645e-07
6.13255e-09
9.76384e-09
9.90194e-07
5.62737e-09
9.45917e-09
9.8407e-07
5.11392e-09
9.21672e-09
9.78096e-07
4.57464e-09
8.99841e-09
9.72295e-07
3.95068e-09
8.75786e-09
9.66707e-07
3.13547e-09
8.43144e-09
9.61318e-07
2.01235e-09
7.96778e-09
9.56126e-07
4.47662e-10
7.41123e-09
-1.30553e-09
7.24558e-09
1.16914e-06
-7.39877e-14
4.90654e-09
1.16312e-06
-3.84227e-13
1.16084e-08
1.15731e-06
-9.67826e-13
1.42753e-08
1.15202e-06
-1.79007e-12
1.4333e-08
1.14692e-06
-3.14983e-12
1.37285e-08
1.14208e-06
-5.64659e-12
1.29657e-08
1.13778e-06
-1.02139e-11
1.20951e-08
1.13405e-06
-1.77265e-11
1.12988e-08
1.13082e-06
-3.04396e-11
1.06345e-08
1.12778e-06
-5.13766e-11
1.01641e-08
1.12465e-06
-8.56729e-11
9.85361e-09
1.1213e-06
-1.41665e-10
9.62209e-09
1.1177e-06
-2.33371e-10
9.46225e-09
1.11382e-06
-3.83121e-10
9.37892e-09
1.10964e-06
-6.12617e-10
9.36668e-09
1.10516e-06
-9.67527e-10
9.39788e-09
1.10036e-06
-1.51528e-09
9.44929e-09
1.09521e-06
-2.35165e-09
9.51359e-09
1.08945e-06
-3.40491e-09
9.61413e-09
-5.16276e-09
1.00098e-08
1.16914e-06
-1.06507e-09
4.90657e-09
1.16312e-06
-5.58753e-09
1.16085e-08
1.15731e-06
-8.46587e-09
1.42754e-08
1.15202e-06
-9.0429e-09
1.43334e-08
1.14691e-06
-8.62314e-09
1.37299e-08
1.14206e-06
-8.12985e-09
1.29688e-08
1.13776e-06
-7.80287e-09
1.20998e-08
1.13402e-06
-7.58184e-09
1.13067e-08
1.13075e-06
-7.41583e-09
1.06483e-08
1.12768e-06
-7.16224e-09
1.01877e-08
1.12447e-06
-6.77175e-09
9.89259e-09
1.12099e-06
-6.3536e-09
9.6872e-09
1.11718e-06
-5.99151e-09
9.57278e-09
1.11295e-06
-5.72097e-09
9.56253e-09
1.10825e-06
-5.57431e-09
9.66109e-09
1.10302e-06
-5.59997e-09
9.87001e-09
1.09716e-06
-5.84873e-09
1.01934e-08
1.0906e-06
-6.43345e-09
1.06355e-08
1.08338e-06
-7.28585e-09
1.11009e-08
-9.50787e-09
1.11994e-08
1.07432e-06
-2.85268e-09
5.56886e-09
1.06824e-06
-1.34089e-08
1.39002e-08
1.06138e-06
-1.7868e-08
1.6262e-08
1.05338e-06
-1.69565e-08
1.59096e-08
1.0451e-06
-1.53422e-08
1.50032e-08
1.0372e-06
-1.41733e-08
1.39348e-08
1.02981e-06
-1.33856e-08
1.29794e-08
1.02279e-06
-1.26852e-08
1.2119e-08
1.01593e-06
-1.19037e-08
1.13529e-08
1.00913e-06
-1.10699e-08
1.07062e-08
1.00241e-06
-1.02796e-08
1.02247e-08
9.95732e-07
-9.55889e-09
9.88529e-09
9.89002e-07
-8.92776e-09
9.66601e-09
9.82114e-07
-8.39703e-09
9.56467e-09
9.7492e-07
-7.9688e-09
9.58772e-09
9.67211e-07
-7.65075e-09
9.75988e-09
9.58723e-07
-7.50174e-09
1.01405e-08
9.49154e-07
-7.64553e-09
1.07811e-08
9.38583e-07
-8.29901e-09
1.1584e-08
-1.06567e-08
1.16778e-08
8.90374e-07
-3.58758e-09
6.33239e-09
8.82485e-07
-2.26458e-08
1.71262e-08
8.70356e-07
-2.4376e-08
1.86369e-08
8.55106e-07
-1.8855e-08
1.71488e-08
8.39971e-07
-1.55693e-08
1.53625e-08
8.25515e-07
-1.351e-08
1.37925e-08
8.11733e-07
-1.19511e-08
1.23469e-08
7.98717e-07
-1.07986e-08
1.11296e-08
7.86607e-07
-9.94529e-09
1.01512e-08
7.75403e-07
-9.23322e-09
9.36738e-09
7.64949e-07
-8.60413e-09
8.7791e-09
7.55064e-07
-8.03687e-09
8.36259e-09
7.45578e-07
-7.52373e-09
8.08201e-09
7.36332e-07
-7.05899e-09
7.90756e-09
7.2716e-07
-6.63124e-09
7.83467e-09
7.17774e-07
-6.16837e-09
7.90402e-09
7.07758e-07
-5.66533e-09
8.17965e-09
6.96458e-07
-5.1047e-09
8.75815e-09
6.83046e-07
-4.38816e-09
9.50152e-09
-4.9928e-09
1.03916e-08
6.3138e-07
-1.09684e-09
7.40293e-09
6.14563e-07
-2.65295e-08
2.07007e-08
5.86443e-07
-1.49863e-08
1.87299e-08
5.61722e-07
-9.98197e-09
1.58486e-08
5.3961e-07
-7.2095e-09
1.37514e-08
5.20625e-07
-5.8176e-09
1.12928e-08
5.04672e-07
-4.71256e-09
8.71489e-09
4.90905e-07
-3.88146e-09
6.8497e-09
4.7866e-07
-3.32012e-09
5.61983e-09
4.67538e-07
-2.9063e-09
4.79428e-09
4.57294e-07
-2.57247e-09
4.21255e-09
4.47764e-07
-2.28801e-09
3.78161e-09
4.38805e-07
-2.04029e-09
3.47502e-09
4.30285e-07
-1.80526e-09
3.26707e-09
4.22052e-07
-1.53775e-09
3.13921e-09
4.14048e-07
-1.22458e-09
3.06034e-09
4.06116e-07
-8.16366e-10
3.08292e-09
3.97948e-07
-1.39112e-10
3.20214e-09
3.8935e-07
1.4991e-09
2.71086e-09
1.01319e-08
2.25805e-09
3.32249e-07
1.09683e-09
2.7919e-07
2.65297e-08
2.49217e-07
1.49867e-08
2.29253e-07
9.98265e-09
2.14832e-07
7.21133e-09
2.03194e-07
5.82038e-09
1.93763e-07
4.71838e-09
1.85989e-07
3.89195e-09
1.79331e-07
3.33848e-09
1.73486e-07
2.93825e-09
1.68288e-07
2.62533e-09
1.63624e-07
2.37591e-09
1.59393e-07
2.19062e-09
1.55514e-07
2.07457e-09
1.5196e-07
2.01584e-09
1.48745e-07
1.9905e-09
1.45919e-07
2.00922e-09
1.43752e-07
2.02847e-09
1.42599e-07
2.65233e-09
-2.04816e-09
6.3138e-07
7.40293e-09
3.58758e-09
6.14563e-07
2.07007e-08
2.26458e-08
5.86443e-07
1.87299e-08
2.43761e-08
5.61722e-07
1.58486e-08
1.88551e-08
5.3961e-07
1.37514e-08
1.55694e-08
5.20625e-07
1.12928e-08
1.35101e-08
5.04671e-07
8.71489e-09
1.19513e-08
4.90904e-07
6.84971e-09
1.07988e-08
4.78659e-07
5.61984e-09
9.94555e-09
4.67538e-07
4.79429e-09
9.23356e-09
4.57293e-07
4.21255e-09
8.6046e-09
4.47762e-07
3.78156e-09
8.03754e-09
4.38803e-07
3.47492e-09
7.52464e-09
4.30282e-07
3.26725e-09
7.05975e-09
4.22048e-07
3.13958e-09
6.63197e-09
4.14043e-07
3.06064e-09
6.1697e-09
4.06109e-07
3.08346e-09
5.66748e-09
3.97937e-07
3.20337e-09
5.10819e-09
3.89332e-07
2.71378e-09
4.394e-09
2.263e-09
4.99965e-09
9.23616e-07
7.03404e-09
7.0339e-09
9.25317e-07
1.98505e-08
1.985e-08
9.17181e-07
2.27981e-08
2.27971e-08
9.04269e-07
2.23047e-08
2.23027e-08
8.90524e-07
2.06247e-08
2.06215e-08
8.77392e-07
1.78597e-08
1.78537e-08
8.6541e-07
1.47074e-08
1.46976e-08
8.54712e-07
1.22015e-08
1.21857e-08
8.45238e-07
1.03616e-08
1.03338e-08
8.36839e-07
9.00323e-09
8.95417e-09
8.29319e-07
7.9846e-09
7.89962e-09
8.22482e-07
7.21775e-09
7.07644e-09
8.16196e-07
6.6481e-09
6.42091e-09
8.10414e-07
6.22118e-09
5.8602e-09
8.05123e-07
5.90213e-09
5.32461e-09
8.00228e-07
5.65573e-09
4.72144e-09
7.95655e-07
5.47893e-09
4.01221e-09
7.91087e-07
5.3425e-09
3.07265e-09
7.85776e-07
4.83504e-09
1.39969e-09
3.00839e-09
-1.72057e-09
1.1589e-06
5.28161e-09
6.10256e-09
1.1657e-06
1.39995e-08
1.61828e-08
1.16844e-06
1.79795e-08
2.07062e-08
1.16661e-06
1.91813e-08
2.21041e-08
1.16221e-06
1.88797e-08
2.15044e-08
1.15654e-06
1.75511e-08
1.97681e-08
1.15047e-06
1.56938e-08
1.74224e-08
1.14456e-06
1.38985e-08
1.53243e-08
1.13913e-06
1.23041e-08
1.36204e-08
1.13429e-06
1.09163e-08
1.22534e-08
1.13006e-06
9.77469e-09
1.1162e-08
1.1264e-06
8.84956e-09
1.02927e-08
1.12327e-06
8.09239e-09
9.58508e-09
1.12066e-06
7.45888e-09
8.97597e-09
1.11857e-06
6.89646e-09
8.4103e-09
1.11699e-06
6.35905e-09
7.82355e-09
1.11592e-06
5.78511e-09
7.11987e-09
1.1153e-06
5.11089e-09
6.21931e-09
1.11483e-06
4.17572e-09
4.98961e-09
2.62697e-09
3.60806e-09
1.32763e-06
2.71838e-09
4.93108e-09
1.33539e-06
7.12132e-09
1.30089e-08
1.34287e-06
9.55428e-09
1.72156e-08
1.34848e-06
1.05791e-08
1.88987e-08
1.35198e-06
1.08765e-08
1.94997e-08
1.35376e-06
1.05821e-08
1.91129e-08
1.35444e-06
9.89386e-09
1.80972e-08
1.35459e-06
9.04869e-09
1.68058e-08
1.35457e-06
8.19678e-09
1.54554e-08
1.35454e-06
7.39501e-09
1.42187e-08
1.35457e-06
6.67743e-09
1.32213e-08
1.35472e-06
6.03754e-09
1.24269e-08
1.35501e-06
5.4655e-09
1.17881e-08
1.35548e-06
4.94049e-09
1.12643e-08
1.35616e-06
4.40629e-09
1.08131e-08
1.35706e-06
3.82337e-09
1.03884e-08
1.3582e-06
3.13858e-09
9.94508e-09
1.35954e-06
2.29322e-09
9.44717e-09
1.36101e-06
1.20772e-09
8.90008e-09
-1.0245e-10
8.58621e-09
1.41518e-06
-1.62818e-13
4.19288e-09
1.42279e-06
-4.78346e-13
1.11159e-08
1.43152e-06
-8.26259e-13
1.50986e-08
1.43981e-06
-1.59004e-12
1.66291e-08
1.44714e-06
-3.08601e-12
1.72743e-08
1.45319e-06
-5.54964e-12
1.75075e-08
1.45804e-06
-9.25699e-12
1.71492e-08
1.46197e-06
-1.52617e-11
1.64306e-08
1.46529e-06
-2.58889e-11
1.55388e-08
1.46824e-06
-4.57313e-11
1.46485e-08
1.47103e-06
-7.9711e-11
1.38214e-08
1.47373e-06
-1.33625e-10
1.30958e-08
1.47633e-06
-2.13715e-10
1.25424e-08
1.47881e-06
-3.35158e-10
1.21691e-08
1.48119e-06
-5.25342e-10
1.19222e-08
1.48347e-06
-8.14919e-10
1.17534e-08
1.48565e-06
-1.24154e-09
1.16478e-08
1.4877e-06
-1.85304e-09
1.16169e-08
1.48951e-06
-2.66251e-09
1.16746e-08
-3.50833e-09
1.18961e-08
1.41518e-06
-2.71856e-09
4.19298e-09
1.42279e-06
-7.12181e-09
1.11162e-08
1.43152e-06
-9.55518e-09
1.5099e-08
1.4398e-06
-1.05809e-08
1.66302e-08
1.44713e-06
-1.08802e-08
1.72768e-08
1.45317e-06
-1.05886e-08
1.75119e-08
1.45801e-06
-9.90493e-09
1.71563e-08
1.46193e-06
-9.06743e-09
1.64415e-08
1.46523e-06
-8.22903e-09
1.55553e-08
1.46815e-06
-7.45608e-09
1.46755e-08
1.47088e-06
-6.78755e-09
1.38674e-08
1.47348e-06
-6.22018e-09
1.31757e-08
1.47591e-06
-5.7463e-09
1.26789e-08
1.47811e-06
-5.37014e-09
1.23935e-08
1.48007e-06
-5.09753e-09
1.22751e-08
1.48178e-06
-4.94339e-09
1.22832e-08
1.48323e-06
-4.92683e-09
1.24307e-08
1.48435e-06
-5.09827e-09
1.27615e-08
1.48498e-06
-5.40369e-09
1.32106e-08
-5.54316e-09
1.34203e-08
1.32762e-06
-5.28148e-09
4.93129e-09
1.33539e-06
-1.39992e-08
1.30095e-08
1.34286e-06
-1.79791e-08
1.72171e-08
1.34847e-06
-1.91807e-08
1.89022e-08
1.35196e-06
-1.88788e-08
1.95061e-08
1.35374e-06
-1.75492e-08
1.91228e-08
1.35439e-06
-1.56917e-08
1.81127e-08
1.35451e-06
-1.38972e-08
1.68302e-08
1.35444e-06
-1.23017e-08
1.54929e-08
1.35432e-06
-1.09117e-08
1.428e-08
1.3542e-06
-9.76635e-09
1.33273e-08
1.35409e-06
-8.83219e-09
1.26047e-08
1.354e-06
-8.06199e-09
1.20781e-08
1.35387e-06
-7.41445e-09
1.17327e-08
1.35364e-06
-6.85225e-09
1.1571e-08
1.3532e-06
-6.35949e-09
1.16168e-08
1.35244e-06
-5.93344e-09
1.1907e-08
1.3513e-06
-5.58288e-09
1.24029e-08
1.34959e-06
-5.12594e-09
1.30222e-08
-4.31259e-09
1.30399e-08
1.1589e-06
-7.03389e-09
6.10283e-09
1.16569e-06
-1.985e-08
1.61838e-08
1.16844e-06
-2.2797e-08
2.07086e-08
1.1666e-06
-2.23027e-08
2.2108e-08
1.1622e-06
-2.06214e-08
2.15102e-08
1.15652e-06
-1.78536e-08
1.97761e-08
1.15044e-06
-1.46974e-08
1.74356e-08
1.14451e-06
-1.21855e-08
1.53473e-08
1.13903e-06
-1.03335e-08
1.366e-08
1.13412e-06
-8.95386e-09
1.23192e-08
1.12976e-06
-7.89924e-09
1.12712e-08
1.1259e-06
-7.07599e-09
1.04719e-08
1.12246e-06
-6.4203e-09
9.87968e-09
1.11935e-06
-5.85924e-09
9.45913e-09
1.11645e-06
-5.32342e-09
9.20076e-09
1.11359e-06
-4.72012e-09
9.13302e-09
1.11055e-06
-4.0104e-09
9.29085e-09
1.1071e-06
-3.07e-09
9.69396e-09
1.1028e-06
-1.39538e-09
1.00782e-08
1.72706e-09
9.87283e-09
9.23616e-07
-7.40285e-09
7.03404e-09
9.25317e-07
-2.07003e-08
1.98505e-08
9.17181e-07
-1.87292e-08
2.2798e-08
9.04269e-07
-1.58471e-08
2.23046e-08
8.90524e-07
-1.37494e-08
2.06246e-08
8.77392e-07
-1.12888e-08
1.78597e-08
8.65411e-07
-8.70846e-09
1.47074e-08
8.54712e-07
-6.83916e-09
1.22015e-08
8.45239e-07
-5.60199e-09
1.03615e-08
8.3684e-07
-4.76335e-09
9.00317e-09
8.2932e-07
-4.15196e-09
7.98453e-09
8.22484e-07
-3.67543e-09
7.21776e-09
8.16198e-07
-3.30752e-09
6.64826e-09
8.10416e-07
-3.03149e-09
6.2206e-09
8.05127e-07
-2.79587e-09
5.90103e-09
8.00233e-07
-2.42051e-09
5.655e-09
7.9566e-07
-1.83284e-09
5.47799e-09
7.91094e-07
-6.42891e-10
5.34111e-09
7.85784e-07
1.79293e-09
4.83288e-09
1.13755e-08
3.00405e-09
6.3138e-07
3.58767e-09
6.14563e-07
2.26463e-08
5.86444e-07
2.43767e-08
5.61723e-07
1.88561e-08
5.39613e-07
1.55719e-08
5.20631e-07
1.35142e-08
5.04682e-07
1.19584e-08
4.90924e-07
1.08105e-08
4.78696e-07
9.96519e-09
4.67603e-07
9.26752e-09
4.57413e-07
8.66335e-09
4.47981e-07
8.13268e-09
4.39193e-07
7.67055e-09
4.30955e-07
7.28097e-09
4.23209e-07
6.96651e-09
4.16106e-07
6.67305e-09
4.0998e-07
6.30198e-09
4.05989e-07
5.37691e-09
4.06569e-07
3.86601e-09
-8.06409e-10
8.90374e-07
6.33239e-09
2.85269e-09
8.82485e-07
1.71262e-08
1.3409e-08
8.70356e-07
1.86369e-08
1.78681e-08
8.55106e-07
1.71488e-08
1.69566e-08
8.3997e-07
1.53625e-08
1.53423e-08
8.25514e-07
1.37925e-08
1.41735e-08
8.11733e-07
1.23469e-08
1.33858e-08
7.98716e-07
1.11297e-08
1.26855e-08
7.86606e-07
1.01513e-08
1.19042e-08
7.75402e-07
9.36747e-09
1.10704e-08
7.64947e-07
8.77923e-09
1.02803e-08
7.55062e-07
8.36282e-09
9.55975e-09
7.45575e-07
8.08251e-09
8.92884e-09
7.36329e-07
7.90799e-09
8.39831e-09
7.27155e-07
7.83502e-09
7.97042e-09
7.17767e-07
7.90495e-09
7.65304e-09
7.07748e-07
8.1814e-09
7.50505e-09
6.96444e-07
8.7614e-09
7.65018e-09
6.83024e-07
9.50763e-09
8.30564e-09
1.03996e-08
1.06656e-08
1.1589e-06
6.10283e-09
5.28149e-09
1.16569e-06
1.61839e-08
1.39993e-08
1.16844e-06
2.07086e-08
1.79792e-08
1.1666e-06
2.2108e-08
1.91808e-08
1.1622e-06
2.15102e-08
1.88789e-08
1.15652e-06
1.97761e-08
1.75494e-08
1.15044e-06
1.74357e-08
1.56919e-08
1.14451e-06
1.53474e-08
1.38975e-08
1.13903e-06
1.36601e-08
1.23021e-08
1.13412e-06
1.23194e-08
1.09121e-08
1.12976e-06
1.12714e-08
9.76691e-09
1.12589e-06
1.04722e-08
8.83291e-09
1.12245e-06
9.88021e-09
8.06309e-09
1.11935e-06
9.45976e-09
7.41561e-09
1.11645e-06
9.20139e-09
6.85345e-09
1.11358e-06
9.13397e-09
6.36123e-09
1.11055e-06
9.29224e-09
5.93582e-09
1.1071e-06
9.69628e-09
5.58633e-09
1.10279e-06
1.00822e-08
5.13104e-09
9.87773e-09
4.31889e-09
1.37712e-06
4.57766e-09
4.57739e-09
1.38565e-06
1.19181e-08
1.19174e-08
1.39417e-06
1.64489e-08
1.64475e-08
1.40126e-06
1.85637e-08
1.85613e-08
1.40641e-06
1.89346e-08
1.89306e-08
1.4095e-06
1.82282e-08
1.82221e-08
1.41092e-06
1.67258e-08
1.67157e-08
1.41149e-06
1.50583e-08
1.50424e-08
1.41175e-06
1.35238e-08
1.34979e-08
1.41196e-06
1.22008e-08
1.21595e-08
1.41229e-06
1.10842e-08
1.10179e-08
1.41284e-06
1.01628e-08
1.00559e-08
1.41364e-06
9.41697e-09
9.24378e-09
1.41471e-06
8.82393e-09
8.54497e-09
1.41602e-06
8.36642e-09
7.92827e-09
1.41757e-06
8.04274e-09
7.36953e-09
1.41931e-06
7.84652e-09
6.82732e-09
1.42122e-06
7.75334e-09
6.25115e-09
1.4231e-06
7.62184e-09
5.56374e-09
7.17659e-09
4.79939e-09
1.53312e-06
2.36627e-09
3.6493e-09
1.54218e-06
6.23951e-09
9.63386e-09
1.55328e-06
8.87458e-09
1.36918e-08
1.56445e-06
1.03492e-08
1.59366e-08
1.57507e-06
1.09032e-08
1.69117e-08
1.58471e-06
1.07602e-08
1.69452e-08
1.593e-06
1.01519e-08
1.63762e-08
1.60008e-06
9.34442e-09
1.54452e-08
1.60623e-06
8.48033e-09
1.43433e-08
1.61173e-06
7.66939e-09
1.32487e-08
1.61683e-06
6.95844e-09
1.22552e-08
1.62168e-06
6.3497e-09
1.13887e-08
1.62641e-06
5.82687e-09
1.06474e-08
1.63111e-06
5.37372e-09
1.00142e-08
1.63585e-06
4.9675e-09
9.46952e-09
1.6407e-06
4.59747e-09
8.9877e-09
1.64571e-06
4.24131e-09
8.5391e-09
1.65096e-06
3.87357e-09
8.07952e-09
1.65645e-06
3.43923e-09
7.58524e-09
2.88389e-09
7.18356e-09
1.61424e-06
-1.11101e-13
3.0928e-09
1.62332e-06
-2.64847e-13
8.27395e-09
1.63534e-06
-4.76497e-13
1.1957e-08
1.6482e-06
-8.93188e-13
1.41141e-08
1.66118e-06
-1.67846e-12
1.51994e-08
1.67387e-06
-2.83191e-12
1.55813e-08
1.68575e-06
-4.78808e-12
1.5427e-08
1.69658e-06
-7.77356e-12
1.49538e-08
1.70633e-06
-1.30791e-11
1.42773e-08
1.71518e-06
-2.24544e-11
1.34986e-08
1.72329e-06
-3.77465e-11
1.2706e-08
1.73083e-06
-6.0869e-11
1.19648e-08
1.73797e-06
-9.38033e-11
1.13196e-08
1.74487e-06
-1.42217e-10
1.07885e-08
1.75161e-06
-2.18809e-10
1.03673e-08
1.75824e-06
-3.34651e-10
1.00505e-08
1.76482e-06
-5.06079e-10
9.81526e-09
1.77142e-06
-7.40885e-10
9.63518e-09
1.77811e-06
-1.04669e-09
9.46762e-09
-1.38137e-09
9.3509e-09
1.61424e-06
-2.36633e-09
3.09294e-09
1.62332e-06
-6.23962e-09
8.27435e-09
1.63534e-06
-8.87478e-09
1.19578e-08
1.6482e-06
-1.03496e-08
1.41157e-08
1.66117e-06
-1.09037e-08
1.52025e-08
1.67386e-06
-1.0761e-08
1.55861e-08
1.68573e-06
-1.01537e-08
1.54339e-08
1.69655e-06
-9.34796e-09
1.49638e-08
1.70628e-06
-8.48683e-09
1.42926e-08
1.7151e-06
-7.6829e-09
1.35229e-08
1.72317e-06
-6.98452e-09
1.27454e-08
1.73065e-06
-6.39403e-09
1.20289e-08
1.7377e-06
-5.89417e-09
1.1423e-08
1.74447e-06
-5.47215e-09
1.09526e-08
1.75103e-06
-5.11997e-09
1.06231e-08
1.75738e-06
-4.83814e-09
1.04302e-08
1.76358e-06
-4.62889e-09
1.03599e-08
1.76967e-06
-4.47309e-09
1.04012e-08
1.77569e-06
-4.34557e-09
1.0486e-08
-4.16169e-09
1.04883e-08
1.53312e-06
-4.57738e-09
3.64963e-09
1.54218e-06
-1.19173e-08
9.63482e-09
1.55327e-06
-1.64474e-08
1.36936e-08
1.56445e-06
-1.85612e-08
1.594e-08
1.57506e-06
-1.89305e-08
1.69174e-08
1.58469e-06
-1.82219e-08
1.69542e-08
1.59298e-06
-1.67154e-08
1.63898e-08
1.60003e-06
-1.50421e-08
1.5467e-08
1.60616e-06
-1.34975e-08
1.43768e-08
1.61162e-06
-1.2159e-08
1.33009e-08
1.61664e-06
-1.10173e-08
1.23385e-08
1.62138e-06
-1.00552e-08
1.15228e-08
1.62594e-06
-9.24284e-09
1.08645e-08
1.63038e-06
-8.54363e-09
1.03632e-08
1.63474e-06
-7.92659e-09
1.00163e-08
1.63907e-06
-7.36762e-09
9.82095e-09
1.64339e-06
-6.82507e-09
9.78066e-09
1.6477e-06
-6.24836e-09
9.86909e-09
1.65194e-06
-5.56038e-09
9.99701e-09
-4.79552e-09
9.911e-09
1.37712e-06
-6.10256e-09
4.57765e-09
1.38565e-06
-1.61828e-08
1.19181e-08
1.39417e-06
-2.07062e-08
1.64489e-08
1.40126e-06
-2.21041e-08
1.85637e-08
1.40641e-06
-2.15043e-08
1.89346e-08
1.4095e-06
-1.9768e-08
1.82281e-08
1.41092e-06
-1.74223e-08
1.67256e-08
1.41149e-06
-1.53241e-08
1.50581e-08
1.41175e-06
-1.36202e-08
1.35236e-08
1.41196e-06
-1.2253e-08
1.22006e-08
1.41229e-06
-1.11616e-08
1.1084e-08
1.41284e-06
-1.02922e-08
1.01625e-08
1.41364e-06
-9.58449e-09
9.41655e-09
1.41471e-06
-8.97463e-09
8.82327e-09
1.41603e-06
-8.40835e-09
8.36563e-09
1.41757e-06
-7.8216e-09
8.04197e-09
1.41931e-06
-7.11752e-09
7.84572e-09
1.42122e-06
-6.21626e-09
7.75242e-09
1.4231e-06
-4.98556e-09
7.62074e-09
-3.60233e-09
7.17585e-09
1.1589e-06
-6.33232e-09
5.2816e-09
1.1657e-06
-1.71257e-08
1.39995e-08
1.16844e-06
-1.86354e-08
1.79794e-08
1.16661e-06
-1.71464e-08
1.91813e-08
1.16221e-06
-1.5359e-08
1.88796e-08
1.15654e-06
-1.37878e-08
1.7551e-08
1.15047e-06
-1.23393e-08
1.56937e-08
1.14456e-06
-1.11161e-08
1.38984e-08
1.13913e-06
-1.01293e-08
1.2304e-08
1.13429e-06
-9.33163e-09
1.09161e-08
1.13006e-06
-8.71942e-09
9.7745e-09
1.1264e-06
-8.25938e-09
8.84939e-09
1.12327e-06
-7.9031e-09
8.09236e-09
1.12066e-06
-7.60272e-09
7.45829e-09
1.11857e-06
-7.31082e-09
6.89543e-09
1.11699e-06
-6.94504e-09
6.35829e-09
1.11593e-06
-6.36048e-09
5.78429e-09
1.1153e-06
-5.35885e-09
5.1098e-09
1.11483e-06
-3.85303e-09
4.17415e-09
-1.14279e-09
2.62518e-09
8.90375e-07
2.85273e-09
8.82486e-07
1.34091e-08
8.70359e-07
1.78682e-08
8.55112e-07
1.69568e-08
8.39983e-07
1.5342e-08
8.25537e-07
1.41719e-08
8.11774e-07
1.33824e-08
7.98789e-07
1.26798e-08
7.86731e-07
1.18934e-08
7.75615e-07
1.10517e-08
7.6531e-07
1.02492e-08
7.55677e-07
9.50624e-09
7.46614e-07
8.82994e-09
7.38085e-07
8.20746e-09
7.30142e-07
7.59883e-09
7.22963e-07
6.90719e-09
7.16926e-07
5.97838e-09
7.12353e-07
4.59097e-09
7.097e-07
2.66635e-09
-1.04649e-09
1.07432e-06
5.56886e-09
1.06508e-09
1.06824e-06
1.39002e-08
5.58757e-09
1.06138e-06
1.6262e-08
8.46596e-09
1.05338e-06
1.59097e-08
9.04303e-09
1.0451e-06
1.50033e-08
8.62333e-09
1.0372e-06
1.39349e-08
8.1301e-09
1.02981e-06
1.29795e-08
7.80318e-09
1.02279e-06
1.21191e-08
7.58224e-09
1.01593e-06
1.13531e-08
7.41632e-09
1.00913e-06
1.07063e-08
7.16285e-09
1.00241e-06
1.02249e-08
6.7725e-09
9.9573e-07
9.8856e-09
6.3545e-09
9.89e-07
9.66651e-09
5.99261e-09
9.8211e-07
9.56524e-09
5.72246e-09
9.74916e-07
9.58847e-09
5.57631e-09
9.67205e-07
9.7612e-09
5.6026e-09
9.58715e-07
1.01426e-08
5.85218e-09
9.49142e-07
1.07842e-08
6.438e-09
9.38567e-07
1.1589e-08
7.29183e-09
1.16851e-08
9.51567e-09
1.32762e-06
4.93129e-09
2.71858e-09
1.33539e-06
1.30096e-08
7.12186e-09
1.34286e-06
1.72171e-08
9.55526e-09
1.34847e-06
1.89023e-08
1.0581e-08
1.35196e-06
1.95062e-08
1.08803e-08
1.35374e-06
1.91229e-08
1.05888e-08
1.35439e-06
1.81128e-08
9.90522e-09
1.35451e-06
1.68304e-08
9.0678e-09
1.35444e-06
1.5493e-08
8.22949e-09
1.35432e-06
1.42803e-08
7.45666e-09
1.3542e-06
1.33276e-08
6.78828e-09
1.35409e-06
1.26052e-08
6.22111e-09
1.35399e-06
1.20788e-08
5.74753e-09
1.35387e-06
1.17333e-08
5.37143e-09
1.35364e-06
1.15716e-08
5.09895e-09
1.3532e-06
1.1618e-08
4.94534e-09
1.35244e-06
1.19088e-08
4.92933e-09
1.3513e-06
1.24053e-08
5.10139e-09
1.34959e-06
1.30253e-08
5.40741e-09
1.30427e-08
5.54662e-09
1.53312e-06
3.64964e-09
2.36635e-09
1.54218e-06
9.63485e-09
6.23967e-09
1.55327e-06
1.36937e-08
8.87487e-09
1.56445e-06
1.59401e-08
1.03498e-08
1.57506e-06
1.69175e-08
1.09039e-08
1.58469e-06
1.69543e-08
1.07613e-08
1.59298e-06
1.639e-08
1.0154e-08
1.60003e-06
1.54672e-08
9.34833e-09
1.60616e-06
1.43771e-08
8.48729e-09
1.61161e-06
1.33012e-08
7.68347e-09
1.61664e-06
1.23389e-08
6.98523e-09
1.62138e-06
1.15233e-08
6.39492e-09
1.62594e-06
1.08651e-08
5.89526e-09
1.63038e-06
1.03638e-08
5.47343e-09
1.63474e-06
1.0017e-08
5.12145e-09
1.63907e-06
9.82177e-09
4.83989e-09
1.64339e-06
9.78159e-09
4.63091e-09
1.6477e-06
9.87005e-09
4.47532e-09
1.65195e-06
9.99777e-09
4.34777e-09
9.91055e-09
4.16319e-09
1.68027e-06
1.89131e-09
1.89115e-09
1.68934e-06
5.10008e-09
5.0996e-09
1.70179e-06
7.46558e-09
7.46465e-09
1.71578e-06
8.94826e-09
8.94673e-09
1.73022e-06
9.69648e-09
9.694e-09
1.74439e-06
9.86624e-09
9.86228e-09
1.75784e-06
9.66022e-09
9.6542e-09
1.77034e-06
9.21094e-09
9.202e-09
1.78181e-06
8.6308e-09
8.61779e-09
1.79235e-06
8.01416e-09
7.99504e-09
1.80212e-06
7.42713e-09
7.39811e-09
1.81127e-06
6.90409e-09
6.85843e-09
1.81994e-06
6.45884e-09
6.38516e-09
1.82825e-06
6.09388e-09
5.97529e-09
1.83631e-06
5.80483e-09
5.62073e-09
1.84422e-06
5.58005e-09
5.31353e-09
1.85209e-06
5.40837e-09
5.04587e-09
1.85998e-06
5.27099e-09
4.78863e-09
1.86791e-06
5.12241e-09
4.52519e-09
4.91095e-09
4.28643e-09
1.7569e-06
4.70146e-15
1.61325e-09
1.76589e-06
5.77704e-14
4.38418e-09
1.77878e-06
1.25293e-13
6.53185e-09
1.79389e-06
2.11458e-13
7.95112e-09
1.81003e-06
3.40028e-13
8.75567e-09
1.82639e-06
5.30893e-13
9.08549e-09
1.84241e-06
7.43088e-13
9.07167e-09
1.85774e-06
7.50429e-13
8.83514e-09
1.87218e-06
4.71501e-13
8.46077e-09
1.88568e-06
-1.17332e-13
8.01443e-09
1.89827e-06
-7.80128e-13
7.54703e-09
1.91004e-06
-9.1395e-13
7.09508e-09
1.92114e-06
4.72817e-13
6.6819e-09
1.9317e-06
4.0285e-12
6.31965e-09
1.94185e-06
8.64315e-12
6.01248e-09
1.95171e-06
9.6719e-12
5.76131e-09
1.96137e-06
2.97231e-12
5.55672e-09
1.97092e-06
-1.39297e-11
5.3776e-09
1.98035e-06
-3.80322e-11
5.19098e-09
-6.38189e-11
5.05323e-09
1.7569e-06
-1.89113e-09
1.61336e-09
1.76589e-06
-5.09954e-09
4.3845e-09
1.77878e-06
-7.46456e-09
6.53249e-09
1.79389e-06
-8.94658e-09
7.95224e-09
1.81003e-06
-9.6938e-09
8.75751e-09
1.82639e-06
-9.86203e-09
9.08832e-09
1.8424e-06
-9.65387e-09
9.0758e-09
1.85773e-06
-9.20158e-09
8.84112e-09
1.87217e-06
-8.61727e-09
8.46963e-09
1.88566e-06
-7.99441e-09
8.02779e-09
1.89823e-06
-7.39734e-09
7.5675e-09
1.90999e-06
-6.85749e-09
7.1267e-09
1.92107e-06
-6.38402e-09
6.73092e-09
1.9316e-06
-5.9739e-09
6.39544e-09
1.94172e-06
-5.61905e-09
6.12826e-09
1.95154e-06
-5.31153e-09
5.93113e-09
1.96116e-06
-5.04355e-09
5.79321e-09
1.97064e-06
-4.78603e-09
5.69166e-09
1.98003e-06
-4.52241e-09
5.57801e-09
-4.28382e-09
5.46683e-09
1.68027e-06
-3.64928e-09
1.89129e-09
1.68934e-06
-9.63381e-09
5.10004e-09
1.70179e-06
-1.36917e-08
7.4655e-09
1.71578e-06
-1.59365e-08
8.94815e-09
1.73022e-06
-1.69115e-08
9.69633e-09
1.74439e-06
-1.6945e-08
9.86605e-09
1.75784e-06
-1.6376e-08
9.65998e-09
1.77034e-06
-1.54449e-08
9.21066e-09
1.78181e-06
-1.43428e-08
8.63048e-09
1.79235e-06
-1.32482e-08
8.01378e-09
1.80212e-06
-1.22545e-08
7.4267e-09
1.81127e-06
-1.1388e-08
6.9036e-09
1.81994e-06
-1.06464e-08
6.45829e-09
1.82825e-06
-1.00128e-08
6.09327e-09
1.83631e-06
-9.46775e-09
5.80421e-09
1.84422e-06
-8.98564e-09
5.57947e-09
1.85209e-06
-8.53668e-09
5.40787e-09
1.85998e-06
-8.07667e-09
5.27073e-09
1.86791e-06
-7.58207e-09
5.12278e-09
-7.18042e-09
4.91271e-09
1.53312e-06
-4.93107e-09
2.36626e-09
1.54218e-06
-1.30089e-08
6.23948e-09
1.55328e-06
-1.72156e-08
8.87452e-09
1.56445e-06
-1.88986e-08
1.03491e-08
1.57507e-06
-1.94996e-08
1.0903e-08
1.58471e-06
-1.91127e-08
1.076e-08
1.593e-06
-1.8097e-08
1.01518e-08
1.60008e-06
-1.68056e-08
9.34419e-09
1.60623e-06
-1.54551e-08
8.48007e-09
1.61174e-06
-1.42184e-08
7.66908e-09
1.61683e-06
-1.32208e-08
6.9581e-09
1.62168e-06
-1.24263e-08
6.34932e-09
1.62641e-06
-1.17874e-08
5.82644e-09
1.63111e-06
-1.1263e-08
5.3731e-09
1.63585e-06
-1.08112e-08
4.96677e-09
1.6407e-06
-1.03863e-08
4.59677e-09
1.64571e-06
-9.94239e-09
4.24069e-09
1.65096e-06
-9.44364e-09
3.873e-09
1.65645e-06
-8.8958e-09
3.4387e-09
-8.58315e-09
2.88398e-09
1.32763e-06
-5.56887e-09
2.71837e-09
1.33539e-06
-1.39002e-08
7.1213e-09
1.34287e-06
-1.62614e-08
9.55424e-09
1.34848e-06
-1.59077e-08
1.0579e-08
1.35198e-06
-1.49995e-08
1.08764e-08
1.35377e-06
-1.3929e-08
1.0582e-08
1.35444e-06
-1.29708e-08
9.8937e-09
1.35459e-06
-1.21049e-08
9.04849e-09
1.35457e-06
-1.13291e-08
8.19655e-09
1.35454e-06
-1.06653e-08
7.39473e-09
1.35457e-06
-1.01537e-08
6.67712e-09
1.35472e-06
-9.76341e-09
6.0372e-09
1.35502e-06
-9.45865e-09
5.4652e-09
1.35549e-06
-9.21597e-09
4.93993e-09
1.35616e-06
-8.99729e-09
4.40546e-09
1.35707e-06
-8.75621e-09
3.82259e-09
1.3582e-06
-8.42885e-09
3.13774e-09
1.35954e-06
-7.96383e-09
2.29215e-09
1.36102e-06
-7.40569e-09
1.20598e-09
-7.23993e-09
-1.04172e-10
1.07432e-06
1.06488e-09
1.06824e-06
5.58686e-09
1.06138e-06
8.4646e-09
1.05339e-06
9.0407e-09
1.04511e-06
8.6188e-09
1.03723e-06
8.12139e-09
1.02986e-06
7.78716e-09
1.02288e-06
7.55418e-09
1.01608e-06
7.36674e-09
1.00938e-06
7.07964e-09
1.00284e-06
6.6362e-09
9.96452e-07
6.13223e-09
9.90196e-07
5.62705e-09
9.84074e-07
5.11375e-09
9.78101e-07
4.57464e-09
9.72301e-07
3.95069e-09
9.66715e-07
3.13537e-09
9.6133e-07
2.01244e-09
9.56142e-07
4.48252e-10
-1.30286e-09
1.16914e-06
4.90657e-09
7.84212e-14
1.16312e-06
1.16085e-08
4.27496e-13
1.15731e-06
1.42754e-08
1.07606e-12
1.15202e-06
1.43334e-08
1.94158e-12
1.14691e-06
1.373e-08
3.35151e-12
1.14206e-06
1.29689e-08
5.90775e-12
1.13776e-06
1.20999e-08
1.05447e-11
1.13401e-06
1.13069e-08
1.81413e-11
1.13075e-06
1.06485e-08
3.09539e-11
1.12767e-06
1.01879e-08
5.20076e-11
1.12447e-06
9.8928e-09
8.64418e-11
1.12099e-06
9.68746e-09
1.42595e-10
1.11718e-06
9.57312e-09
2.34503e-10
1.11295e-06
9.56301e-09
3.84538e-10
1.10825e-06
9.66176e-09
6.14441e-10
1.10301e-06
9.87093e-09
9.69879e-10
1.09715e-06
1.01946e-08
1.51829e-09
1.0906e-06
1.06371e-08
2.35558e-09
1.08338e-06
1.11029e-08
3.40991e-09
1.12011e-08
5.16886e-09
1.41518e-06
4.19298e-09
1.79968e-13
1.42279e-06
1.11162e-08
5.39163e-13
1.43152e-06
1.50991e-08
9.24043e-13
1.4398e-06
1.66302e-08
1.72763e-12
1.44713e-06
1.72769e-08
3.27337e-12
1.45317e-06
1.7512e-08
5.79835e-12
1.45801e-06
1.71564e-08
9.57566e-12
1.46193e-06
1.64417e-08
1.56638e-11
1.46523e-06
1.55555e-08
2.63915e-11
1.46815e-06
1.46758e-08
4.63558e-11
1.47088e-06
1.38677e-08
8.04916e-11
1.47348e-06
1.31761e-08
1.34598e-10
1.4759e-06
1.26795e-08
2.14901e-10
1.47811e-06
1.23942e-08
3.36536e-10
1.48007e-06
1.22759e-08
5.26944e-10
1.48178e-06
1.22843e-08
8.16871e-10
1.48323e-06
1.24321e-08
1.24386e-09
1.48435e-06
1.27632e-08
1.85571e-09
1.48498e-06
1.32126e-08
2.66531e-09
1.34215e-08
3.51031e-09
1.61424e-06
3.09295e-09
1.32563e-13
1.62332e-06
8.27439e-09
3.26456e-13
1.63534e-06
1.19579e-08
5.74402e-13
1.6482e-06
1.41158e-08
1.03211e-12
1.66117e-06
1.52026e-08