/*--------------------------------*- C++ -*----------------------------------*\
| =========                 |                                                 |
| \\      /  F ield         | OpenFOAM: The Open Source CFD Toolbox           |
|  \\    /   O peration     | Version:  2212                                  |
|   \\  /    A nd           | Website:  www.openfoam.com                      |
|    \\/     M anipulation  |                                                 |
\*---------------------------------------------------------------------------*/
FoamFile
{
    version     2.0;
    format      ascii;
    arch        "LSB;label=32;scalar=64";
    class       volVectorField;
    location    "2.95";
    object      U;
}
// * * * * * * * * * * * * * * * * * * * * * * * * * * * * * * * * * * * * * //

dimensions      [0 1 -1 0 0 0 0];

internalField   nonuniform List<vector> 
6840
(
(0.0956456 -0.00836005 -0.00836005)
(0.0904938 0.00152206 0.00152199)
(0.0790682 0.00242982 0.0024297)
(0.071301 0.00148788 0.00148761)
(0.0661791 0.00083074 0.00083019)
(0.0623221 0.000564116 0.000563214)
(0.0592199 0.000427274 0.000425205)
(0.0566834 0.000325587 0.000321958)
(0.0545474 0.000255785 0.000249806)
(0.0526934 0.00020716 0.000197298)
(0.0510528 0.000174132 0.000157228)
(0.049587 0.000153295 0.000124964)
(0.0482637 0.00014104 9.55564e-05)
(0.0470543 0.000136458 6.56075e-05)
(0.0459425 0.000139934 2.8926e-05)
(0.0449281 0.000156298 4.46014e-06)
(0.0440234 0.000202961 -5.99527e-05)
(0.0432581 0.000276509 -0.000189433)
(0.0428486 0.000385045 -0.000429196)
(0.041436 -0.000358286 -0.00180626)
(0.0999088 0.001297 0.000712546)
(0.0969668 0.00365597 0.0027472)
(0.0935345 0.00264035 0.00211803)
(0.0895891 0.0018207 0.0016204)
(0.0858317 0.00152933 0.00139028)
(0.0825894 0.00135215 0.00116057)
(0.0798642 0.00118087 0.000896155)
(0.0775653 0.00104318 0.000690619)
(0.0755549 0.000947382 0.000557957)
(0.0737463 0.000873565 0.000475548)
(0.0720937 0.000806728 0.000424487)
(0.0705681 0.000742665 0.000391075)
(0.0691503 0.000687863 0.000367891)
(0.0678251 0.000648287 0.000354346)
(0.0665795 0.00062656 0.000345973)
(0.0654184 0.000615824 0.000306797)
(0.0643822 0.000614458 0.000230146)
(0.0635595 0.000583907 4.48909e-05)
(0.0632394 0.000643923 -0.000138066)
(0.0612559 0.000362526 -0.000615094)
(0.099413 0.000345251 0.000270227)
(0.0988664 0.00201915 0.00187485)
(0.0979216 0.00257334 0.00218883)
(0.0963661 0.00238025 0.0019081)
(0.0946338 0.00211475 0.00162623)
(0.0929731 0.00192783 0.0014179)
(0.0913658 0.00180323 0.00126995)
(0.089857 0.00170839 0.00115795)
(0.0884599 0.0016098 0.00106656)
(0.0871671 0.00150259 0.000992866)
(0.0859723 0.00139733 0.000941744)
(0.0848626 0.00130161 0.000909194)
(0.0838218 0.00121614 0.00088931)
(0.0828412 0.00113788 0.000876062)
(0.0819203 0.00106336 0.000863168)
(0.0810701 0.000987352 0.000840255)
(0.0803214 0.000895075 0.000792122)
(0.0797179 0.000757043 0.000691786)
(0.0793121 0.000543032 0.000535446)
(0.0786017 -0.000138259 0.00022991)
(0.0995405 0.000245044 0.000321898)
(0.0992576 0.00105562 0.00154092)
(0.098849 0.00150236 0.00211438)
(0.0981252 0.00157946 0.00209149)
(0.0973377 0.00151477 0.0018859)
(0.0965866 0.00144621 0.00166549)
(0.0958683 0.00140966 0.00149745)
(0.0952027 0.00137811 0.00137066)
(0.0945774 0.00133156 0.00128327)
(0.0939379 0.00125929 0.00122647)
(0.0933185 0.00116782 0.00118723)
(0.0927192 0.00106894 0.00116128)
(0.0921338 0.000971134 0.00114502)
(0.09156 0.000875385 0.00113617)
(0.0909985 0.000778968 0.00112892)
(0.0904514 0.000671049 0.0011175)
(0.0899202 0.000532883 0.00109408)
(0.089407 0.000338972 0.00105454)
(0.0889243 6.04818e-05 0.00100509)
(0.088482 -0.000307151 0.00105109)
(0.0993802 3.37656e-05 5.89679e-05)
(0.0992678 0.000274334 0.00120002)
(0.0989806 0.000432234 0.00188842)
(0.098475 0.000483194 0.0020063)
(0.0979963 0.000478333 0.00191434)
(0.0975724 0.00046453 0.00173416)
(0.0971838 0.000450969 0.00154639)
(0.0968358 0.00043899 0.00138712)
(0.0965385 0.000430379 0.00126763)
(0.0962885 0.000418503 0.00119551)
(0.0960217 0.000394828 0.0011659)
(0.0957399 0.00036053 0.00116038)
(0.0954442 0.000318771 0.00116395)
(0.0951269 0.000269231 0.00117135)
(0.0947836 0.00021237 0.0011842)
(0.0944147 0.000143124 0.00120286)
(0.0940195 4.87398e-05 0.00122533)
(0.0935966 -8.43789e-05 0.00125027)
(0.0931319 -0.000255276 0.00128445)
(0.0926502 -0.000476167 0.00137996)
(0.0993802 -3.37882e-05 5.90025e-05)
(0.0992678 -0.000274448 0.00120005)
(0.0989805 -0.000432491 0.00188843)
(0.0984749 -0.000483654 0.00200635)
(0.097996 -0.000479152 0.00191448)
(0.0975717 -0.00046603 0.00173447)
(0.0971824 -0.000453727 0.00154685)
(0.0968334 -0.000443814 0.00138791)
(0.0965344 -0.000438669 0.00126915)
(0.0962816 -0.000432531 0.00119829)
(0.0960099 -0.000418261 0.00117062)
(0.0957201 -0.000399189 0.00116819)
(0.0954106 -0.000382208 0.00117698)
(0.0950704 -0.000373286 0.00119301)
(0.0946913 -0.000379231 0.00121924)
(0.094269 -0.000408552 0.00126029)
(0.0937995 -0.000468169 0.0013172)
(0.09328 -0.000573565 0.00138696)
(0.0926668 -0.00071551 0.00146398)
(0.0919414 -0.00102413 0.00148411)
(0.0995405 -0.00024505 0.000321897)
(0.0992576 -0.00105566 0.00154091)
(0.0988489 -0.00150243 0.00211446)
(0.0981247 -0.00157958 0.00209165)
(0.0973367 -0.00151513 0.00188616)
(0.0965847 -0.00144702 0.00166589)
(0.095865 -0.00141117 0.00149791)
(0.0951969 -0.0013807 0.00137144)
(0.0945672 -0.00133632 0.00128502)
(0.0939204 -0.00126707 0.00123053)
(0.0932887 -0.00118002 0.0011954)
(0.0926687 -0.00108851 0.00117617)
(0.0920493 -0.00100422 0.00116955)
(0.0914203 -0.000933362 0.00117495)
(0.0907703 -0.000879297 0.00119381)
(0.0900842 -0.000845721 0.00122988)
(0.0893404 -0.000838874 0.00129114)
(0.0885193 -0.000872714 0.00139234)
(0.0875593 -0.000943902 0.0015254)
(0.0863982 -0.00128665 0.0015438)
(0.099413 -0.000345236 0.000270232)
(0.0988664 -0.00201907 0.00187491)
(0.0979214 -0.00257319 0.00218904)
(0.0963656 -0.00237996 0.00190844)
(0.0946329 -0.00211431 0.00162671)
(0.0929713 -0.00192713 0.00141859)
(0.0913625 -0.00180222 0.00127109)
(0.0898511 -0.00170679 0.00115987)
(0.0884496 -0.00160716 0.00106965)
(0.0871495 -0.00149827 0.000997922)
(0.0859422 -0.00139023 0.00094966)
(0.084811 -0.00129032 0.000922923)
(0.0837344 -0.00119923 0.000913235)
(0.0826931 -0.00111456 0.000917131)
(0.0816694 -0.00103451 0.000934148)
(0.0806406 -0.000959324 0.000969544)
(0.0795727 -0.000888408 0.00103477)
(0.078393 -0.000827549 0.00114988)
(0.077031 -0.000812293 0.00130892)
(0.0754693 -0.000934962 0.00159493)
(0.0999088 -0.00129699 0.000712562)
(0.0969668 -0.00365586 0.00274728)
(0.0935344 -0.00264018 0.00211819)
(0.0895889 -0.0018204 0.00162073)
(0.0858314 -0.00152868 0.00139076)
(0.0825888 -0.00135114 0.00116143)
(0.079863 -0.00117905 0.000897564)
(0.0775631 -0.00104007 0.000692907)
(0.0755508 -0.000942016 0.000561802)
(0.0737392 -0.00086421 0.000482093)
(0.0720804 -0.000790374 0.000437302)
(0.0705434 -0.000715189 0.000413651)
(0.0691053 -0.000643477 0.000402504)
(0.0677464 -0.000577032 0.000399138)
(0.066445 -0.000508766 0.000404802)
(0.0651838 -0.000406086 0.00042055)
(0.0639465 -0.000273913 0.000458723)
(0.0626903 -9.89621e-05 0.000532056)
(0.0613708 0.000195385 0.000608153)
(0.0599355 0.000640316 0.00114303)
(0.0956456 0.00836005 -0.00836004)
(0.0904938 -0.00152199 0.00152206)
(0.0790682 -0.0024297 0.00242982)
(0.071301 -0.0014876 0.00148789)
(0.0661792 -0.000830184 0.000830747)
(0.0623221 -0.000563205 0.000564124)
(0.05922 -0.000425192 0.000427286)
(0.0566835 -0.000321942 0.0003256)
(0.0545475 -0.000249789 0.000255799)
(0.0526935 -0.000197277 0.000207173)
(0.0510529 -0.000157205 0.000174144)
(0.0495872 -0.000124936 0.000153305)
(0.0482639 -9.55267e-05 0.000141044)
(0.0470546 -6.55713e-05 0.000136434)
(0.0459428 -2.88953e-05 0.000139886)
(0.0449286 -4.45675e-06 0.00015627)
(0.0440241 5.99778e-05 0.000202934)
(0.0432589 0.000189468 0.000276491)
(0.0428499 0.000429236 0.00038496)
(0.041438 0.00180654 -0.000358624)
(0.0999088 0.000712562 0.00129699)
(0.0969668 0.00274728 0.00365587)
(0.0935344 0.00211819 0.00264019)
(0.0895889 0.00162073 0.00182041)
(0.0858314 0.00139075 0.00152869)
(0.0825888 0.00116143 0.00135116)
(0.079863 0.00089756 0.00117907)
(0.077563 0.000692904 0.00104009)
(0.0755508 0.0005618 0.00094205)
(0.0737391 0.000482093 0.000864252)
(0.0720803 0.000437306 0.000790427)
(0.0705432 0.000413661 0.000715256)
(0.069105 0.000402533 0.000643556)
(0.0677459 0.000399176 0.000577097)
(0.0664445 0.000404852 0.00050882)
(0.0651832 0.000420631 0.00040617)
(0.0639455 0.00045885 0.000274051)
(0.0626889 0.000532293 9.91936e-05)
(0.0613687 0.000608652 -0.000194993)
(0.0599317 0.00114351 -0.000639801)
(0.100226 0.000720831 0.000720807)
(0.09996 0.0019828 0.00198269)
(0.0997822 0.00245205 0.00245177)
(0.0987879 0.00242 0.00241951)
(0.0972751 0.00220139 0.00220062)
(0.095774 0.00181235 0.00181098)
(0.0943914 0.00138378 0.00138153)
(0.0931614 0.0010725 0.00106869)
(0.0920727 0.000858049 0.000851446)
(0.0911077 0.000708695 0.000697135)
(0.0902507 0.000602027 0.000580854)
(0.0894775 0.000525401 0.000490027)
(0.0887675 0.000474348 0.000418589)
(0.0881133 0.000442666 0.000358059)
(0.0875147 0.000427567 0.000295014)
(0.0869657 0.000433622 0.000205549)
(0.0864534 0.000467728 8.04821e-05)
(0.0859551 0.000532699 -0.000116585)
(0.0854344 0.000535068 -0.00050824)
(0.0852825 0.000303208 -0.0013581)
(0.10014 0.000775045 0.000869235)
(0.100454 0.0019625 0.00196351)
(0.100911 0.00242772 0.00233436)
(0.100978 0.00252694 0.002441)
(0.100694 0.00242683 0.00233634)
(0.100224 0.00219843 0.00211187)
(0.0997088 0.00191823 0.00182229)
(0.0991835 0.00166823 0.00157385)
(0.0986889 0.00146688 0.001387)
(0.0982421 0.00130302 0.00124545)
(0.0978499 0.00116951 0.00113925)
(0.0975092 0.0010622 0.00106023)
(0.0972165 0.000976933 0.000998149)
(0.0969686 0.000909762 0.000943472)
(0.0967652 0.000858017 0.000888882)
(0.0966063 0.000816556 0.000825197)
(0.0964919 0.000780643 0.000734261)
(0.096421 0.000748449 0.000599237)
(0.0963691 0.00070048 0.000403676)
(0.0964465 0.000551384 0.000174913)
(0.100093 0.000445947 0.000763195)
(0.100504 0.00119455 0.001749)
(0.101105 0.00158693 0.00212949)
(0.101635 0.0017406 0.00223449)
(0.101979 0.00178256 0.00228665)
(0.102172 0.00172952 0.0022353)
(0.102254 0.00160887 0.00211497)
(0.102279 0.00146154 0.00196321)
(0.102282 0.00130712 0.00180012)
(0.102277 0.00115951 0.00164955)
(0.102274 0.00103298 0.00153853)
(0.102279 0.000926148 0.00145825)
(0.102296 0.000833334 0.00139841)
(0.102325 0.000750516 0.00135239)
(0.102367 0.00066956 0.00131443)
(0.102426 0.000586731 0.00127817)
(0.102503 0.000495094 0.00123705)
(0.102597 0.000384773 0.00118549)
(0.102699 0.000242623 0.00112968)
(0.102881 5.4141e-05 0.00111265)
(0.100087 0.000144381 0.000707012)
(0.100477 0.000390479 0.00161777)
(0.101066 0.000541089 0.00203463)
(0.101695 0.000610092 0.00211754)
(0.102269 0.000635851 0.00214986)
(0.102743 0.000626466 0.00217919)
(0.103125 0.000594196 0.00213322)
(0.10343 0.000548254 0.00204301)
(0.103684 0.000501974 0.00193319)
(0.103904 0.000457485 0.00182654)
(0.104104 0.000411233 0.0017271)
(0.104297 0.000363589 0.00163856)
(0.104486 0.000317194 0.00157515)
(0.104665 0.000270223 0.00153899)
(0.104836 0.000216742 0.00152134)
(0.105001 0.00015237 0.00151265)
(0.10516 7.18747e-05 0.00151049)
(0.105309 -3.05821e-05 0.00151662)
(0.10545 -0.000161381 0.00153408)
(0.105686 -0.000304591 0.00157587)
(0.100087 -0.000144421 0.000707017)
(0.100477 -0.000390598 0.00161778)
(0.101066 -0.000541295 0.00203462)
(0.101694 -0.00061047 0.0021176)
(0.102269 -0.000636591 0.00215012)
(0.102742 -0.000627818 0.00217968)
(0.103124 -0.000596452 0.00213399)
(0.103428 -0.000552002 0.00204421)
(0.10368 -0.000508447 0.001935)
(0.103898 -0.000469051 0.00182945)
(0.104095 -0.000431474 0.00173197)
(0.104284 -0.000397411 0.0016471)
(0.104463 -0.000370874 0.00159009)
(0.104628 -0.000353727 0.00156385)
(0.104774 -0.000347489 0.00156048)
(0.104904 -0.00035693 0.00157231)
(0.105016 -0.000386524 0.00160041)
(0.105109 -0.000441561 0.00165194)
(0.105183 -0.000519657 0.00171623)
(0.105379 -0.000599369 0.00172736)
(0.100093 -0.000445946 0.000763204)
(0.100504 -0.00119455 0.00174903)
(0.101105 -0.00158693 0.00212962)
(0.101634 -0.00174065 0.00223493)
(0.101979 -0.00178268 0.00228753)
(0.102171 -0.00172973 0.00223658)
(0.102251 -0.00160936 0.0021169)
(0.102274 -0.00146248 0.00196614)
(0.102274 -0.00130865 0.0018045)
(0.102265 -0.00116282 0.00165655)
(0.102253 -0.00103905 0.00155077)
(0.102244 -0.000935777 0.001479)
(0.102236 -0.000847073 0.00143302)
(0.102229 -0.000771682 0.00140953)
(0.102217 -0.000708113 0.00140837)
(0.102194 -0.000654349 0.00143278)
(0.102149 -0.000611612 0.0014892)
(0.10208 -0.00058888 0.00157301)
(0.101986 -0.000578803 0.00167601)
(0.102084 -0.000552566 0.00165144)
(0.10014 -0.000775015 0.00086927)
(0.100454 -0.00196241 0.00196367)
(0.100911 -0.00242755 0.00233475)
(0.100978 -0.00252658 0.00244166)
(0.100693 -0.00242621 0.0023373)
(0.100223 -0.00219736 0.00211313)
(0.0997068 -0.00191657 0.00182427)
(0.09918 -0.00166581 0.00157738)
(0.0986827 -0.00146275 0.00139308)
(0.0982311 -0.00129568 0.00125563)
(0.0978305 -0.00115736 0.00115637)
(0.0974761 -0.00104185 0.00108868)
(0.0971619 -0.00094341 0.0010453)
(0.0968808 -0.000854123 0.00102102)
(0.0966242 -0.000767577 0.00101603)
(0.0963784 -0.000680469 0.00103775)
(0.096127 -0.000586038 0.0010934)
(0.0958499 -0.00047475 0.00119076)
(0.0955192 -0.000314727 0.00128659)
(0.0955212 -9.93582e-05 0.00125185)
(0.100226 -0.000720807 0.000720831)
(0.09996 -0.00198269 0.00198281)
(0.0997822 -0.00245177 0.00245206)
(0.0987879 -0.0024195 0.00242)
(0.0972751 -0.00220061 0.00220139)
(0.095774 -0.00181097 0.00181236)
(0.0943914 -0.00138151 0.00138378)
(0.0931615 -0.00106867 0.00107251)
(0.0920728 -0.000851421 0.000858052)
(0.0911078 -0.000697105 0.000708699)
(0.0902508 -0.000580818 0.000602033)
(0.0894777 -0.000489997 0.000525417)
(0.0887677 -0.000418576 0.000474374)
(0.0881135 -0.000357963 0.000442599)
(0.0875151 -0.000294858 0.000427452)
(0.0869661 -0.000205449 0.000433573)
(0.0864539 -8.03654e-05 0.000467668)
(0.0859558 0.000116736 0.000532597)
(0.0854353 0.000508456 0.000534886)
(0.0852834 0.00135863 0.000302678)
(0.0999088 -0.000712545 0.001297)
(0.0969668 -0.0027472 0.00365598)
(0.0935345 -0.00211803 0.00264035)
(0.0895891 -0.0016204 0.0018207)
(0.0858317 -0.00139028 0.00152933)
(0.0825894 -0.00116057 0.00135215)
(0.0798642 -0.000896148 0.00118088)
(0.0775653 -0.00069061 0.00104318)
(0.075555 -0.000557944 0.000947385)
(0.0737465 -0.000475529 0.000873565)
(0.0720939 -0.000424458 0.000806726)
(0.0705683 -0.000391038 0.000742661)
(0.0691506 -0.000367858 0.000687868)
(0.0678256 -0.000354323 0.000648275)
(0.0665799 -0.000345918 0.000626501)
(0.065419 -0.000306686 0.000615743)
(0.064383 -0.000229993 0.000614367)
(0.0635606 -4.46776e-05 0.000583821)
(0.063241 0.00013835 0.000643823)
(0.061258 0.000615471 0.000362444)
(0.099413 0.000270232 0.000345236)
(0.0988664 0.00187491 0.00201907)
(0.0979214 0.00218904 0.0025732)
(0.0963656 0.00190844 0.00237998)
(0.0946329 0.00162671 0.00211433)
(0.0929713 0.00141859 0.00192715)
(0.0913625 0.00127109 0.00180225)
(0.089851 0.00115987 0.00170683)
(0.0884495 0.00106965 0.00160722)
(0.0871494 0.000997928 0.00149834)
(0.0859421 0.000949673 0.00139031)
(0.0848108 0.000922953 0.00129044)
(0.0837341 0.000913288 0.00119939)
(0.0826927 0.000917188 0.00111471)
(0.0816689 0.000934213 0.00103466)
(0.0806399 0.000969671 0.000959551)
(0.0795718 0.00103502 0.000888757)
(0.0783917 0.00115031 0.000828081)
(0.077029 0.00130969 0.000813081)
(0.0754662 0.00159573 0.000935862)
(0.10014 0.00086927 0.000775016)
(0.100454 0.00196367 0.00196242)
(0.100911 0.00233475 0.00242756)
(0.100978 0.00244166 0.00252659)
(0.100693 0.0023373 0.00242622)
(0.100223 0.00211313 0.00219738)
(0.0997068 0.00182427 0.0019166)
(0.09918 0.00157738 0.00166584)
(0.0986827 0.00139309 0.00146279)
(0.098231 0.00125564 0.00129573)
(0.0978304 0.00115639 0.00115743)
(0.097476 0.0010887 0.00104193)
(0.0971617 0.00104538 0.00094354)
(0.0968806 0.00102108 0.000854253)
(0.0966239 0.00101606 0.000767697)
(0.0963781 0.00103785 0.000680652)
(0.0961267 0.00109356 0.000586292)
(0.0958495 0.00119107 0.000475139)
(0.0955189 0.00128722 0.000315354)
(0.0955211 0.00125265 0.0001002)
(0.10006 0.000641443 0.000641393)
(0.100501 0.00164521 0.00164505)
(0.101149 0.00221274 0.00221242)
(0.101738 0.00244056 0.00244)
(0.102204 0.00244281 0.00244191)
(0.102501 0.00231479 0.0023134)
(0.102644 0.00209463 0.00209231)
(0.102713 0.00187238 0.00186868)
(0.102738 0.00167651 0.00167044)
(0.10275 0.00151361 0.0015036)
(0.102767 0.0013807 0.00136429)
(0.102798 0.00127446 0.00124777)
(0.102846 0.00119241 0.00114922)
(0.102914 0.00113252 0.00106284)
(0.103001 0.0010941 0.000982405)
(0.103106 0.00107849 0.000901056)
(0.103225 0.00108866 0.000810479)
(0.103358 0.00112282 0.000704836)
(0.103506 0.00115809 0.000571756)
(0.103807 0.00114352 0.000432969)
(0.100046 0.000395754 0.000540236)
(0.10048 0.00104497 0.00138407)
(0.101154 0.00147557 0.00192292)
(0.101913 0.00170559 0.00219245)
(0.102632 0.00178066 0.00229385)
(0.103301 0.00174576 0.00227787)
(0.103894 0.00163567 0.00218499)
(0.10439 0.00149384 0.00205148)
(0.104818 0.00134868 0.00190336)
(0.105196 0.00121536 0.00176316)
(0.10554 0.00109892 0.00163931)
(0.105862 0.00100013 0.00153308)
(0.106174 0.000916875 0.00144354)
(0.106481 0.000846932 0.0013677)
(0.106788 0.000787867 0.00130233)
(0.107101 0.00073923 0.00124263)
(0.107422 0.000698784 0.00118405)
(0.107756 0.000663061 0.00112311)
(0.10811 0.000621827 0.00105849)
(0.108532 0.000559208 0.00101525)
(0.100039 0.000131338 0.000478764)
(0.100448 0.000350512 0.00123476)
(0.101114 0.000505108 0.00174645)
(0.101909 0.000597238 0.00202674)
(0.102729 0.000638647 0.00215192)
(0.10353 0.00063834 0.00218611)
(0.104299 0.000604624 0.00215273)
(0.105009 0.000559379 0.00207855)
(0.105645 0.000510229 0.00197951)
(0.106219 0.000461938 0.00187166)
(0.106743 0.00041716 0.0017666)
(0.107227 0.000376518 0.00167168)
(0.10768 0.000339542 0.00159217)
(0.108114 0.000304855 0.00153003)
(0.108536 0.00026978 0.0014831)
(0.108951 0.000233347 0.00144943)
(0.10936 0.00019307 0.00142606)
(0.109768 0.000146292 0.00141184)
(0.110182 8.97831e-05 0.00140357)
(0.110646 2.65301e-05 0.00140596)
(0.100039 -0.000131362 0.00047878)
(0.100448 -0.000350576 0.00123481)
(0.101114 -0.000505222 0.00174654)
(0.101909 -0.000597435 0.00202692)
(0.102728 -0.000638998 0.00215228)
(0.103529 -0.000638934 0.0021867)
(0.104298 -0.000605674 0.00215363)
(0.105007 -0.000561131 0.00207989)
(0.105642 -0.000513215 0.00198157)
(0.106215 -0.000467103 0.00187495)
(0.106737 -0.000425914 0.00177207)
(0.107218 -0.000390725 0.00168092)
(0.107667 -0.000361558 0.00160762)
(0.108094 -0.000338289 0.00155524)
(0.108507 -0.000321047 0.0015228)
(0.108908 -0.000311634 0.00150818)
(0.109296 -0.000312179 0.00151069)
(0.109676 -0.000321485 0.00153117)
(0.11006 -0.00033652 0.00155968)
(0.110511 -0.000351877 0.00157386)
(0.100046 -0.000395734 0.000540279)
(0.10048 -0.00104491 0.00138421)
(0.101154 -0.00147546 0.00192318)
(0.101913 -0.00170544 0.00219294)
(0.102631 -0.0017804 0.00229468)
(0.103301 -0.00174531 0.00227924)
(0.103893 -0.00163494 0.00218712)
(0.104388 -0.00149272 0.00205496)
(0.104814 -0.00134689 0.00190874)
(0.10519 -0.00121282 0.00177155)
(0.10553 -0.00109531 0.00165285)
(0.105847 -0.000994596 0.00155514)
(0.10615 -0.000907593 0.0014797)
(0.106443 -0.000831428 0.00142655)
(0.106731 -0.000764412 0.0013958)
(0.107013 -0.000705872 0.00138875)
(0.107295 -0.000653264 0.00140802)
(0.107578 -0.000601655 0.0014479)
(0.10787 -0.000549291 0.00149349)
(0.108262 -0.000490044 0.00150367)
(0.10006 -0.000641392 0.000641442)
(0.100501 -0.00164504 0.00164521)
(0.101149 -0.00221241 0.00221274)
(0.101738 -0.00243999 0.00244056)
(0.102204 -0.0024419 0.0024428)
(0.102501 -0.00231338 0.00231478)
(0.102644 -0.00209229 0.00209462)
(0.102713 -0.00186865 0.00187237)
(0.102738 -0.0016704 0.00167649)
(0.10275 -0.00150355 0.00151359)
(0.102767 -0.00136423 0.00138067)
(0.102798 -0.0012477 0.00127443)
(0.102847 -0.00114912 0.00119236)
(0.102914 -0.00106268 0.00113244)
(0.103002 -0.000982203 0.001094)
(0.103106 -0.000900828 0.0010784)
(0.103225 -0.000810203 0.00108854)
(0.103358 -0.000704477 0.00112267)
(0.103505 -0.000571276 0.0011579)
(0.103806 -0.000432277 0.00114331)
(0.10014 -0.000869234 0.000775045)
(0.100454 -0.0019635 0.0019625)
(0.100911 -0.00233435 0.00242772)
(0.100978 -0.002441 0.00252694)
(0.100694 -0.00233633 0.00242682)
(0.100224 -0.00211186 0.00219843)
(0.0997088 -0.00182228 0.00191822)
(0.0991836 -0.00157383 0.00166822)
(0.098689 -0.00138697 0.00146687)
(0.0982422 -0.00124542 0.00130301)
(0.09785 -0.0011392 0.00116949)
(0.0975094 -0.00106018 0.00106219)
(0.0972167 -0.000998108 0.000976943)
(0.0969687 -0.00094332 0.000909691)
(0.0967655 -0.000888635 0.000857882)
(0.0966066 -0.000824968 0.000816465)
(0.0964922 -0.000733985 0.000780551)
(0.0964213 -0.00059887 0.000748331)
(0.0963694 -0.000403179 0.000700305)
(0.0964467 -0.000174267 0.000551139)
(0.099413 -0.000270227 0.000345251)
(0.0988664 -0.00187484 0.00201915)
(0.0979216 -0.00218883 0.00257334)
(0.0963661 -0.0019081 0.00238025)
(0.0946339 -0.00162622 0.00211475)
(0.0929732 -0.00141789 0.00192783)
(0.0913659 -0.00126995 0.00180323)
(0.089857 -0.00115794 0.00170839)
(0.08846 -0.00106655 0.00160979)
(0.0871672 -0.000992844 0.00150258)
(0.0859725 -0.000941714 0.00139731)
(0.0848628 -0.000909152 0.00130159)
(0.0838221 -0.000889252 0.00121611)
(0.0828415 -0.000876002 0.00113787)
(0.0819206 -0.000863088 0.00106335)
(0.0810706 -0.000840111 0.000987334)
(0.080322 -0.000791889 0.000895046)
(0.0797187 -0.000691416 0.00075701)
(0.0793132 -0.000534893 0.000543008)
(0.078603 -0.000229201 -0.000138229)
(0.0995405 0.000321898 0.000245051)
(0.0992576 0.00154091 0.00105566)
(0.0988489 0.00211446 0.00150244)
(0.0981247 0.00209165 0.0015796)
(0.0973367 0.00188616 0.00151515)
(0.0965847 0.00166589 0.00144705)
(0.0958649 0.00149791 0.00141121)
(0.0951968 0.00137145 0.00138075)
(0.0945672 0.00128503 0.00133638)
(0.0939203 0.00123054 0.00126715)
(0.0932886 0.00119542 0.00118013)
(0.0926685 0.0011762 0.00108864)
(0.0920491 0.0011696 0.00100438)
(0.0914201 0.00117502 0.000933554)
(0.0907699 0.00119391 0.000879557)
(0.0900837 0.00123004 0.000846079)
(0.0893398 0.00129139 0.000839354)
(0.0885184 0.00139274 0.000873325)
(0.087558 0.00152606 0.000944686)
(0.0863962 0.00154478 0.00128785)
(0.100093 0.000763204 0.000445948)
(0.100504 0.00174903 0.00119455)
(0.101105 0.00212962 0.00158694)
(0.101634 0.00223494 0.00174067)
(0.101979 0.00228754 0.0017827)
(0.102171 0.00223658 0.00172975)
(0.102251 0.00211691 0.00160939)
(0.102274 0.00196615 0.00146252)
(0.102274 0.00180451 0.00130871)
(0.102265 0.00165657 0.00116289)
(0.102253 0.00155079 0.00103914)
(0.102244 0.00147905 0.000935885)
(0.102236 0.0014331 0.00084722)
(0.102229 0.00140958 0.000771827)
(0.102217 0.00140841 0.000708269)
(0.102194 0.00143292 0.000654582)
(0.102149 0.00148942 0.000611921)
(0.10208 0.00157333 0.000589286)
(0.101986 0.00167652 0.00057932)
(0.102085 0.00165203 0.000553151)
(0.100046 0.00054028 0.000395736)
(0.10048 0.00138421 0.00104492)
(0.101154 0.00192319 0.00147547)
(0.101913 0.00219295 0.00170546)
(0.102631 0.00229469 0.00178042)
(0.103301 0.00227925 0.00174534)
(0.103893 0.00218713 0.00163497)
(0.104388 0.00205498 0.00149276)
(0.104814 0.00190876 0.00134694)
(0.10519 0.00177158 0.00121289)
(0.10553 0.00165289 0.00109539)
(0.105847 0.00155519 0.000994695)
(0.10615 0.00147977 0.000907719)
(0.106443 0.00142663 0.000831582)
(0.106731 0.00139589 0.000764595)
(0.107013 0.00138886 0.000706092)
(0.107295 0.00140816 0.000653522)
(0.107578 0.00144807 0.000601955)
(0.10787 0.00149366 0.000549615)
(0.108263 0.00150373 0.00049033)
(0.100036 0.000323181 0.000323145)
(0.100429 0.000868785 0.000868679)
(0.10108 0.0012626 0.0012624)
(0.101891 0.00150472 0.00150437)
(0.102756 0.00162213 0.00162157)
(0.103616 0.00164358 0.00164272)
(0.104446 0.00160588 0.00160459)
(0.105223 0.0015282 0.0015262)
(0.105937 0.00142964 0.00142657)
(0.106592 0.00132627 0.0013215)
(0.107196 0.00122882 0.00122134)
(0.107758 0.0011427 0.00113089)
(0.108287 0.00106998 0.00105137)
(0.108792 0.00101123 0.000982182)
(0.109278 0.000966295 0.000921988)
(0.109753 0.000934337 0.000869406)
(0.110222 0.000914183 0.000822392)
(0.110691 0.000904179 0.000774841)
(0.11117 0.000896288 0.000724851)
(0.111708 0.000875773 0.000681105)
(0.100031 0.000107093 0.000281381)
(0.100395 0.000293093 0.00076863)
(0.101024 0.000434167 0.00113307)
(0.101844 0.000526373 0.00136919)
(0.102751 0.000576579 0.00150141)
(0.103689 0.000592095 0.00155417)
(0.104618 0.00058286 0.00154914)
(0.105516 0.00055844 0.00150816)
(0.106367 0.000525059 0.0014444)
(0.107165 0.000488262 0.00136807)
(0.107907 0.000452359 0.00128778)
(0.108601 0.000419807 0.00121001)
(0.109251 0.000391694 0.00113911)
(0.109866 0.000368116 0.00107735)
(0.110455 0.000348322 0.00102566)
(0.111024 0.000330559 0.000984543)
(0.111579 0.000313713 0.000952389)
(0.112125 0.000296374 0.000925752)
(0.112675 0.000277172 0.0009003)
(0.113268 0.000257182 0.00087915)
(0.100031 -0.000107087 0.000281397)
(0.100395 -0.000293073 0.00076868)
(0.101024 -0.000434127 0.00113317)
(0.101843 -0.000526309 0.00136938)
(0.102751 -0.000576478 0.00150173)
(0.103689 -0.000591933 0.00155466)
(0.104618 -0.000582622 0.00154983)
(0.105516 -0.000558173 0.00150915)
(0.106367 -0.000524826 0.00144589)
(0.107163 -0.000488119 0.00137038)
(0.107906 -0.000452303 0.00129139)
(0.108598 -0.000419687 0.00121566)
(0.109247 -0.000391096 0.00114789)
(0.109861 -0.000366408 0.00109088)
(0.110449 -0.000345047 0.0010464)
(0.111016 -0.00032653 0.00101535)
(0.111569 -0.000310877 0.000996147)
(0.112111 -0.000297219 0.000985913)
(0.112658 -0.000283929 0.000978275)
(0.113248 -0.000271391 0.000966142)
(0.100036 -0.000323143 0.000323179)
(0.100429 -0.000868673 0.000868781)
(0.10108 -0.00126239 0.00126259)
(0.101891 -0.00150436 0.00150471)
(0.102756 -0.00162155 0.00162211)
(0.103616 -0.00164269 0.00164356)
(0.104446 -0.00160456 0.00160585)
(0.105223 -0.00152616 0.00152817)
(0.105937 -0.00142651 0.00142961)
(0.106592 -0.00132144 0.00132623)
(0.107196 -0.00122126 0.00122878)
(0.107758 -0.00113079 0.00114264)
(0.108287 -0.00105124 0.00106992)
(0.108792 -0.000982017 0.00101116)
(0.109278 -0.000921785 0.000966224)
(0.109753 -0.000869165 0.000934267)
(0.110222 -0.000822111 0.000914118)
(0.110691 -0.000774525 0.000904131)
(0.11117 -0.000724515 0.000896293)
(0.111708 -0.000680807 0.000875943)
(0.100046 -0.000540235 0.000395753)
(0.10048 -0.00138407 0.00104497)
(0.101154 -0.00192291 0.00147556)
(0.101913 -0.00219244 0.00170558)
(0.102632 -0.00229383 0.00178065)
(0.103302 -0.00227785 0.00174574)
(0.103894 -0.00218496 0.00163565)
(0.10439 -0.00205144 0.00149382)
(0.104818 -0.00190332 0.00134866)
(0.105196 -0.00176311 0.00121533)
(0.10554 -0.00163924 0.00109889)
(0.105862 -0.00153299 0.00100009)
(0.106174 -0.00144342 0.000916831)
(0.106481 -0.00136754 0.000846866)
(0.106788 -0.00130211 0.000787791)
(0.107101 -0.00124237 0.000739161)
(0.107422 -0.00118374 0.000698727)
(0.107756 -0.00112272 0.000663009)
(0.10811 -0.00105804 0.00062177)
(0.108532 -0.00101476 0.000559195)
(0.100093 -0.000763194 0.000445946)
(0.100504 -0.001749 0.00119455)
(0.101105 -0.00212949 0.00158692)
(0.101635 -0.00223448 0.0017406)
(0.101979 -0.00228664 0.00178255)
(0.102172 -0.00223528 0.0017295)
(0.102254 -0.00211495 0.00160885)
(0.102279 -0.00196319 0.00146152)
(0.102282 -0.00180009 0.0013071)
(0.102277 -0.00164951 0.00115948)
(0.102274 -0.00153848 0.00103295)
(0.10228 -0.00145819 0.000926116)
(0.102296 -0.00139835 0.000833314)
(0.102325 -0.00135225 0.000750454)
(0.102367 -0.0013142 0.000669464)
(0.102427 -0.00127791 0.000586661)
(0.102503 -0.00123669 0.000495031)
(0.102598 -0.00118497 0.000384698)
(0.102699 -0.00112901 0.000242496)
(0.102882 -0.00111229 5.39583e-05)
(0.0995405 -0.000321898 0.000245043)
(0.0992576 -0.00154092 0.00105562)
(0.098849 -0.00211437 0.00150236)
(0.0981252 -0.00209148 0.00157945)
(0.0973377 -0.00188589 0.00151476)
(0.0965866 -0.00166548 0.0014462)
(0.0958684 -0.00149745 0.00140965)
(0.0952027 -0.00137065 0.0013781)
(0.0945775 -0.00128326 0.00133154)
(0.093938 -0.00122645 0.00125926)
(0.0933187 -0.0011872 0.00116778)
(0.0927193 -0.00116124 0.00106891)
(0.092134 -0.00114496 0.000971101)
(0.0915603 -0.0011361 0.000875383)
(0.0909988 -0.00112882 0.000778997)
(0.0904519 -0.00111732 0.000671092)
(0.0899208 -0.00109377 0.000532936)
(0.0894079 -0.00105404 0.000339084)
(0.0889256 -0.00100436 6.07543e-05)
(0.0884836 -0.00105017 -0.000306401)
(0.0993802 5.9002e-05 3.37894e-05)
(0.0992678 0.00120005 0.000274454)
(0.0989805 0.00188843 0.000432505)
(0.0984749 0.00200635 0.000483675)
(0.097996 0.00191448 0.00047918)
(0.0975717 0.00173448 0.000466066)
(0.0971824 0.00154686 0.000453772)
(0.0968333 0.00138792 0.00044387)
(0.0965343 0.00126916 0.000438739)
(0.0962815 0.0011983 0.000432617)
(0.0960099 0.00117064 0.000418366)
(0.0957199 0.00116822 0.000399316)
(0.0954105 0.00117701 0.000382361)
(0.0950702 0.00119306 0.000373487)
(0.094691 0.00121932 0.000379499)
(0.0942687 0.00126041 0.000408902)
(0.0937992 0.00131733 0.000468612)
(0.0932796 0.00138713 0.000574149)
(0.0926663 0.00146421 0.000716264)
(0.091941 0.00148427 0.00102498)
(0.100087 0.000707017 0.000144423)
(0.100477 0.00161778 0.000390606)
(0.101066 0.00203463 0.000541307)
(0.101694 0.00211761 0.000610487)
(0.102269 0.00215013 0.000636614)
(0.102742 0.0021797 0.000627849)
(0.103124 0.00213401 0.000596492)
(0.103428 0.00204423 0.000552053)
(0.10368 0.00193502 0.000508511)
(0.103898 0.00182948 0.000469131)
(0.104095 0.00173201 0.000431575)
(0.104284 0.00164715 0.000397537)
(0.104463 0.00159016 0.000371029)
(0.104628 0.00156392 0.000353908)
(0.104774 0.00156056 0.000347696)
(0.104904 0.00157243 0.000357185)
(0.105016 0.00160058 0.000386833)
(0.105109 0.00165217 0.000441921)
(0.105183 0.00171652 0.000520042)
(0.105379 0.00172758 0.000599662)
(0.100039 0.000478781 0.000131365)
(0.100448 0.00123482 0.000350583)
(0.101114 0.00174655 0.000505234)