/*--------------------------------*- C++ -*----------------------------------*\
| =========                 |                                                 |
| \\      /  F ield         | OpenFOAM: The Open Source CFD Toolbox           |
|  \\    /   O peration     | Version:  2212                                  |
|   \\  /    A nd           | Website:  www.openfoam.com                      |
|    \\/     M anipulation  |                                                 |
\*---------------------------------------------------------------------------*/
FoamFile
{
    version     2.0;
    format      ascii;
    arch        "LSB;label=32;scalar=64";
    class       surfaceVectorField;
    location    "2.95";
    object      Uf;
}
// * * * * * * * * * * * * * * * * * * * * * * * * * * * * * * * * * * * * * //

dimensions      [0 1 -1 0 0 0 0];

internalField   nonuniform List<vector> 
19019
(
(0.0993441 -0.00341899 -0.00341903)
(0.0973536 0.00106248 -0.00148428)
(0.0973536 -0.00148427 0.00106247)
(0.0834791 0.00197594 0.00197585)
(0.0930872 0.00326904 0.00253344)
(0.0930872 0.00253351 0.00326895)
(0.074517 0.00195885 0.00195865)
(0.084864 0.00163593 0.00179231)
(0.0848639 0.00179244 0.00163578)
(0.0685475 0.00115931 0.0011589)
(0.0786279 0.00107368 0.00122128)
(0.0786279 0.00122157 0.0010734)
(0.0642356 0.000697428 0.000696702)
(0.0740527 0.000785693 0.000864964)
(0.0740526 0.000865465 0.00078508)
(0.0607558 0.000495695 0.000494209)
(0.070442 0.000651106 0.000669059)
(0.0704417 0.000669914 0.000650121)
(0.0579359 0.00037643 0.000373581)
(0.0674908 0.000547857 0.00050806)
(0.0674903 0.000509813 0.000545807)
(0.0556116 0.000290686 0.000285882)
(0.0650495 0.000470826 0.00038664)
(0.0650486 0.00038962 0.000467226)
(0.0536206 0.000231473 0.000223552)
(0.0629638 0.000418528 0.000306538)
(0.0629622 0.000311428 0.000412408)
(0.051873 0.000190646 0.000177263)
(0.0611281 0.000378258 0.000252817)
(0.0611251 0.0002609 0.000367846)
(0.0503188 0.000163714 0.000141096)
(0.0594826 0.000344016 0.000215539)
(0.0594772 0.000230077 0.000326102)
(0.0489242 0.000147168 0.00011026)
(0.0579929 0.000315271 0.000188306)
(0.0579829 0.000213066 0.000285132)
(0.0476591 0.000138749 8.05819e-05)
(0.0566317 0.0002948 0.000166546)
(0.0566136 0.000205147 0.000245437)
(0.0464989 0.000138196 4.72667e-05)
(0.0553759 0.000284774 0.000148174)
(0.0553442 0.000203197 0.00020453)
(0.0454363 0.000148116 1.66931e-05)
(0.0542105 0.000286308 0.000127593)
(0.0541564 0.000207084 0.000154384)
(0.0444749 0.00017963 -2.77463e-05)
(0.0531373 0.000297542 0.000100576)
(0.0530431 0.000219002 9.13771e-05)
(0.0436298 0.000239735 -0.000124693)
(0.05218 0.000337191 3.83962e-05)
(0.052005 0.000259351 -5.1824e-06)
(0.0429815 0.000330777 -0.000309315)
(0.0513916 0.000413942 -8.72223e-05)
(0.0510428 0.000325735 -0.000165047)
(0.042636 1.33796e-05 -0.00111773)
(0.051018 0.000614375 -0.000239253)
(0.0502684 0.000383409 -0.00049168)
(0.0493766 0.000287836 -0.0011205)
(0.0488461 -2.45709e-05 -0.0017981)
(0.0984572 0.00247649 0.00172987)
(0.0996871 0.000439247 0.000345478)
(0.100049 0.00105639 0.000750962)
(0.0958348 0.00314816 0.00243261)
(0.0978161 0.00273288 0.00228225)
(0.0982936 0.00280928 0.00216143)
(0.0914499 0.00223052 0.00186921)
(0.095496 0.00300187 0.00230303)
(0.0963039 0.00244277 0.00199773)
(0.0875949 0.00167502 0.00150534)
(0.0926191 0.00229964 0.00183864)
(0.0936666 0.00198095 0.00172688)
(0.0841471 0.00144074 0.00127543)
(0.0897672 0.00189241 0.00153547)
(0.0909042 0.00172012 0.0014977)
(0.0811869 0.00126651 0.00102836)
(0.087232 0.00165733 0.00129434)
(0.0884337 0.00145513 0.00121144)
(0.0786999 0.00111203 0.000793387)
(0.0850065 0.00149341 0.00107671)
(0.0863036 0.00118441 0.000908213)
(0.0765545 0.000995281 0.000624288)
(0.0830609 0.00137386 0.000912592)
(0.0844785 0.000984656 0.000690089)
(0.0746476 0.000910473 0.000516753)
(0.0813247 0.00128237 0.00080056)
(0.0828767 0.000848035 0.000547608)
(0.0729177 0.000840147 0.000450017)
(0.0797468 0.00120036 0.000724686)
(0.0814421 0.000749362 0.000453607)
(0.0713287 0.000774697 0.000407781)
(0.0782988 0.00112265 0.000676069)
(0.0801421 0.000670918 0.000387852)
(0.0698577 0.000715264 0.000379483)
(0.0769591 0.00104979 0.000645138)
(0.07895 0.000605328 0.000338491)
(0.0684874 0.000668075 0.000361119)
(0.0757099 0.000983874 0.000624449)
(0.077846 0.000554894 0.000300279)
(0.0672027 0.000637423 0.00035016)
(0.0745388 0.000926768 0.000610944)
(0.0768182 0.000520622 0.000270149)
(0.0659945 0.000621192 0.000326385)
(0.0734384 0.000880629 0.000600234)
(0.0758594 0.000502718 0.000239622)
(0.0648867 0.000615141 0.000268472)
(0.0724163 0.000845446 0.000570185)
(0.0749696 0.000500149 0.000179859)
(0.0639312 0.000599182 0.000137519)
(0.0715086 0.000810079 0.000508887)
(0.0741656 0.000513337 7.89967e-05)
(0.0633085 0.000613915 -4.65876e-05)
(0.0707839 0.000721254 0.000357596)
(0.0734867 0.000522464 -0.000117756)
(0.0633983 0.000503224 -0.00037658)
(0.0704255 0.000561319 0.000148374)
(0.0730777 0.000508656 -0.000506686)
(0.0690112 -1.26424e-05 -0.000296545)
(0.0719061 -3.93271e-05 -0.00182722)
(0.0993753 0.0011822 0.00107254)
(0.099473 0.000349776 0.000307057)
(0.0997475 0.000611004 0.000779867)
(0.0984948 0.00229625 0.00203184)
(0.0990504 0.0015769 0.00172044)
(0.0995971 0.00201841 0.00200282)
(0.0971413 0.0024768 0.00204847)
(0.0983578 0.00213131 0.00216877)
(0.0992973 0.00246174 0.00210228)
(0.0954396 0.0022475 0.00176716)
(0.0971935 0.00203615 0.00200225)
(0.0984883 0.00237485 0.0019024)
(0.093751 0.00202129 0.00152206)
(0.0959056 0.00185619 0.0017541)
(0.0974223 0.00218147 0.00168835)
(0.0921387 0.00186553 0.00134392)
(0.0946728 0.00173357 0.00154218)
(0.0963097 0.00198566 0.00150769)
(0.0906026 0.00175581 0.00121395)
(0.0934836 0.00165411 0.00138569)
(0.0952048 0.00180316 0.00134172)
(0.0891532 0.0016591 0.00111226)
(0.0923714 0.00157907 0.00126431)
(0.0941485 0.00164715 0.00120211)
(0.0878075 0.0015562 0.00102971)
(0.0913373 0.001485 0.00116996)
(0.0931667 0.00150891 0.00109309)
(0.0865668 0.00144996 0.000967305)
(0.0903518 0.0013768 0.00109999)
(0.0922632 0.00138181 0.00100943)
(0.0854166 0.00134947 0.000925469)
(0.0894277 0.00126904 0.00105228)
(0.0914377 0.00126844 0.000949818)
(0.0843414 0.00125888 0.000899252)
(0.088558 0.00116603 0.00102143)
(0.0906818 0.00117108 0.000908567)
(0.0833298 0.00117701 0.000882686)
(0.0877314 0.00107014 0.00100213)
(0.0899853 0.00108844 0.000878715)
(0.0823778 0.00110062 0.000869615)
(0.0869421 0.000980441 0.000990166)
(0.0893418 0.00101748 0.000853964)
(0.0814912 0.00102536 0.000851712)
(0.0861903 0.000892577 0.000979191)
(0.0887511 0.000955216 0.00082799)
(0.0806898 0.000941213 0.000816189)
(0.0854827 0.00079441 0.000959949)
(0.088219 0.000896146 0.000789903)
(0.0800159 0.000826059 0.000741954)
(0.0848362 0.000666023 0.000919917)
(0.0877621 0.000829487 0.000720983)
(0.0795052 0.000650037 0.000613616)
(0.0842752 0.000478485 0.000842546)
(0.0874037 0.000737734 0.000596348)
(0.0792088 0.000202386 0.000382678)
(0.0838333 0.000218883 0.000732782)
(0.0871607 0.000596613 0.000409872)
(0.083249 -0.000300294 0.000596128)
(0.0868129 0.000156778 0.000127859)
(0.0996493 0.000650333 0.000931407)
(0.0994625 0.000129382 0.000192509)
(0.0997993 0.000375142 0.000741354)
(0.0990855 0.00127899 0.00182765)
(0.0992626 0.000636899 0.00137061)
(0.0998409 0.00115044 0.00181419)
(0.0984494 0.00154091 0.00210293)
(0.098913 0.000973453 0.00200349)
(0.0999048 0.00153662 0.00209005)
(0.0977081 0.00154712 0.00198869)
(0.0982953 0.00105009 0.0020505)
(0.0997676 0.0016319 0.00202279)
(0.0969404 0.00148049 0.00177569)
(0.0976581 0.00100753 0.00189937)
(0.09951 0.0016099 0.00189524)
(0.0962096 0.00142794 0.00158147)
(0.0970661 0.00096006 0.00169789)
(0.0992006 0.0015481 0.001751)
(0.0955255 0.00139389 0.00143405)
(0.0965082 0.000933094 0.00152007)
(0.0988566 0.0014755 0.0016248)
(0.0948781 0.00135484 0.00132696)
(0.095997 0.000916393 0.00137809)
(0.0985142 0.00139436 0.00151339)
(0.0942471 0.00129542 0.00125487)
(0.0955313 0.000901477 0.00127662)
(0.0981831 0.00130179 0.00141695)
(0.0936262 0.00121355 0.00120685)
(0.0950812 0.000867909 0.00121345)
(0.0978404 0.00119804 0.00133859)
(0.0930195 0.00111838 0.00117426)
(0.0946334 0.000808748 0.00117882)
(0.0975095 0.00109299 0.00128245)
(0.0924268 0.00102004 0.00115315)
(0.0941885 0.000738832 0.00116252)
(0.0971933 0.00099243 0.0012431)
(0.0918465 0.000923259 0.00114059)
(0.093744 0.000667622 0.00115583)
(0.0968897 0.000898408 0.00121499)
(0.0912785 0.000827176 0.00113254)
(0.0932949 0.000594562 0.00115491)
(0.0965978 0.000809765 0.00119497)
(0.0907243 0.000725008 0.00112321)
(0.0928396 0.00051742 0.00115744)
(0.0963188 0.000721436 0.00117838)
(0.0901862 0.000601966 0.00110579)
(0.0923792 0.000428135 0.00116063)
(0.0960556 0.000626013 0.00115978)
(0.0896679 0.000435927 0.00107431)
(0.0919141 0.000312083 0.00115963)
(0.0958087 0.00051032 0.0011322)
(0.0891681 0.000199727 0.00102981)
(0.0914448 0.000152917 0.00115205)
(0.09558 0.000356249 0.00109129)
(0.0886865 -0.000123335 0.00102809)
(0.0909709 -6.90881e-05 0.00114376)
(0.0953706 0.000142943 0.00104699)
(0.0905095 -0.000327571 0.00121823)
(0.0952209 -0.000139591 0.00107091)
(0.0996725 0.00015405 0.000629494)
(0.0993802 -1.03974e-08 5.89852e-05)
(0.0997132 0.000103918 0.000687945)
(0.0991592 0.000353284 0.00154422)
(0.0992678 -5.39948e-08 0.00120003)
(0.0998377 0.000341622 0.00162228)
(0.0986639 0.000457714 0.00194736)
(0.0989805 -1.36007e-07 0.00188843)
(0.0999632 0.000485426 0.00199134)
(0.0982129 0.000480763 0.00196032)
(0.0984749 -2.51556e-07 0.00200632)
(0.0999922 0.000539527 0.00199648)
(0.0977775 0.000471431 0.00182425)
(0.0979962 -4.4264e-07 0.00191441)
(0.10001 0.000546173 0.00191064)
(0.097365 0.00045775 0.00164028)
(0.0975721 -7.93505e-07 0.00173432)
(0.100009 0.000533023 0.00180353)
(0.0969986 0.00044498 0.00146676)
(0.0971831 -1.43534e-06 0.00154662)
(0.0999836 0.000510595 0.00168167)
(0.0966809 0.000434685 0.00132738)
(0.0968346 -2.49108e-06 0.00138751)
(0.0999432 0.000483483 0.0015706)
(0.0964049 0.000424441 0.00123157)
(0.0965364 -4.27762e-06 0.00126839)
(0.0999055 0.000458369 0.00147807)
(0.0961464 0.000406665 0.00118071)
(0.096285 -7.21986e-06 0.0011969)
(0.099877 0.000432424 0.00141301)
(0.0958794 0.000377679 0.00116314)
(0.0960158 -1.20395e-05 0.00116826)
(0.0998302 0.00039925 0.00137096)
(0.095594 0.00033965 0.00116216)
(0.09573 -1.99079e-05 0.00116429)
(0.0997724 0.000359449 0.00134044)
(0.0952869 0.000294001 0.00116765)
(0.0954274 -3.27952e-05 0.00117047)
(0.0997049 0.000315941 0.00132026)
(0.094956 0.000240801 0.00117778)
(0.0950986 -5.38394e-05 0.00118218)
(0.0996219 0.000267836 0.00131116)
(0.0945997 0.000177747 0.00119353)
(0.0947374 -8.609e-05 0.00120172)
(0.0995208 0.000212727 0.0013125)
(0.0942178 9.59321e-05 0.0012141)
(0.0943418 -0.000135965 0.00123158)
(0.0994036 0.00014591 0.00132063)
(0.0938087 -1.78196e-05 0.0012378)
(0.0939095 -0.00021294 0.00127127)
(0.0992692 5.81425e-05 0.00133279)
(0.0933697 -0.000169828 0.00126736)
(0.0934383 -0.000330474 0.00131861)
(0.0991161 -6.0548e-05 0.00134849)
(0.0928785 -0.000365722 0.0013322)
(0.0928994 -0.000478486 0.00137421)
(0.0989368 -0.00021275 0.00137119)
(0.0922958 -0.000725513 0.00143203)
(0.0987932 -0.000397256 0.00143741)
(0.0996725 -0.000154118 0.000629524)
(0.0994625 -0.000129406 0.000192526)
(0.0997132 -0.000103947 0.000687947)
(0.0991592 -0.00035347 0.00154424)
(0.0992625 -0.00063699 0.00137062)
(0.0998377 -0.000341738 0.00162229)
(0.0986638 -0.000458073 0.00194739)
(0.0989129 -0.000973623 0.00200354)
(0.0999631 -0.000485659 0.00199133)
(0.0982126 -0.000481403 0.00196041)
(0.098295 -0.00105038 0.00205061)
(0.099992 -0.000539947 0.00199651)
(0.097777 -0.000472591 0.00182447)
(0.0976574 -0.00100811 0.00189957)
(0.10001 -0.000546953 0.0019108)
(0.097364 -0.000459879 0.00164066)
(0.0970648 -0.00096121 0.00169824)
(0.100008 -0.000534451 0.00180388)
(0.0969968 -0.00044877 0.00146738)
(0.0965058 -0.000935261 0.00152053)
(0.0999823 -0.000513112 0.0016822)
(0.0966777 -0.000441241 0.00132853)
(0.0959929 -0.00092022 0.0013789)
(0.0999409 -0.000487794 0.00157148)
(0.0963995 -0.0004356 0.00123372)
(0.0955241 -0.00090825 0.00127829)
(0.0999018 -0.000465797 0.00147961)
(0.0961372 -0.000425396 0.00118445)
(0.0950689 -0.000879241 0.00121695)
(0.0998709 -0.00044528 0.00141563)
(0.0958638 -0.000408725 0.00116941)
(0.0946123 -0.00082726 0.00118541)
(0.0998202 -0.000421151 0.00137525)
(0.0955675 -0.000390698 0.00117259)
(0.0941529 -0.000768984 0.00117412)
(0.0997557 -0.000395775 0.00134762)
(0.0952423 -0.000377747 0.001185)
(0.0936843 -0.000717287 0.00117498)
(0.0996766 -0.000374692 0.00133262)
(0.0948822 -0.000376259 0.00120612)
(0.0931958 -0.000677495 0.00118566)
(0.0995742 -0.00036207 0.00133187)
(0.0944815 -0.000393892 0.00123977)
(0.0926775 -0.00065397 0.00120826)
(0.0994428 -0.000362365 0.00134579)
(0.094035 -0.000438361 0.00128875)
(0.0921197 -0.000653125 0.001247)
(0.0992805 -0.000382381 0.00137422)
(0.0935354 -0.000520867 0.00135208)
(0.0915094 -0.000681661 0.0013065)
(0.0990854 -0.000427843 0.00141741)
(0.0929767 -0.000644537 0.00142547)
(0.0908349 -0.000754942 0.00139294)
(0.0988544 -0.000509329 0.00147538)
(0.0923611 -0.000869818 0.00147404)
(0.0900436 -0.00086407 0.00149916)
(0.0985649 -0.00062055 0.00153498)
(0.0890945 -0.00117863 0.00151705)
(0.0982738 -0.000820567 0.00153777)
(0.0996493 -0.000650353 0.000931405)
(0.099473 -0.000349769 0.000307059)
(0.0997993 -0.000375144 0.000741352)
(0.0990854 -0.00127904 0.00182769)
(0.0990504 -0.00157687 0.00172047)
(0.0998409 -0.00115046 0.00181419)
(0.0984491 -0.001541 0.00210305)
(0.0983576 -0.00213125 0.00216892)
(0.0999047 -0.00153665 0.00209013)
(0.0977074 -0.00154735 0.0019889)
(0.097193 -0.00203604 0.0020025)
(0.0997672 -0.00163198 0.00202304)
(0.096939 -0.00148107 0.00177602)
(0.0959047 -0.00185612 0.00175447)
(0.0995091 -0.00161014 0.00189573)
(0.0962071 -0.00142909 0.0015819)
(0.0946709 -0.00173364 0.00154275)
(0.0991989 -0.00154862 0.00175174)
(0.095521 -0.00139593 0.00143467)
(0.0934803 -0.00165437 0.00138653)
(0.0988536 -0.00147652 0.00162585)
(0.0948702 -0.00135851 0.00132823)
(0.0923655 -0.00157952 0.00126572)
(0.0985089 -0.00139616 0.00151511)
(0.0942334 -0.00130169 0.00125777)
(0.091327 -0.00148592 0.00117244)
(0.0981741 -0.00130502 0.00141982)
(0.0936028 -0.00122355 0.00121296)
(0.0903342 -0.00137836 0.00110462)
(0.0978255 -0.00120365 0.00134352)
(0.0929798 -0.00113427 0.00118579)
(0.0893977 -0.00127155 0.00106044)
(0.0974841 -0.00110209 0.00129113)
(0.0923602 -0.00104637 0.00117286)
(0.0885069 -0.00117031 0.00103596)
(0.0971501 -0.00100692 0.0012582)
(0.091736 -0.000968793 0.00117225)
(0.0876454 -0.00107867 0.0010268)
(0.0968168 -0.000921878 0.00124091)
(0.091097 -0.00090633 0.00118438)
(0.086798 -0.000998736 0.00103098)
(0.0964786 -0.000849859 0.00123847)
(0.0904298 -0.000862509 0.00121184)
(0.0859501 -0.000930727 0.00104882)
(0.0961274 -0.000791964 0.00125161)
(0.0897147 -0.000842297 0.00126051)
(0.0850824 -0.000874789 0.00108445)
(0.0957516 -0.000749197 0.00128374)
(0.0889274 -0.000855794 0.00134174)
(0.084167 -0.000837084 0.00114856)
(0.0953349 -0.000725558 0.00134276)
(0.0880398 -0.000908308 0.00145887)
(0.083156 -0.00083151 0.00125973)
(0.0948655 -0.00073264 0.00143415)
(0.0870593 -0.00111528 0.0015346)
(0.081983 -0.00089108 0.00141484)
(0.0943107 -0.000764385 0.00154482)
(0.0806098 -0.00119811 0.00159458)
(0.0937391 -0.00093222 0.00152995)
(0.0993753 -0.00118215 0.00107257)
(0.0996871 -0.000439228 0.000345487)
(0.0997475 -0.000610981 0.000779885)
(0.0984947 -0.00229613 0.00203197)
(0.0978161 -0.00273277 0.00228232)
(0.099597 -0.00201832 0.00200292)
(0.097141 -0.00247658 0.00204874)
(0.0954958 -0.00300169 0.00230321)
(0.0992971 -0.00246157 0.00210255)
(0.0954389 -0.00224714 0.00176758)
(0.0926188 -0.00229933 0.00183897)
(0.0984879 -0.00237452 0.00190285)
(0.0937496 -0.00202072 0.00152265)
(0.0897665 -0.00189183 0.00153594)
(0.0974215 -0.00218094 0.00168903)
(0.0921362 -0.00186467 0.00134484)
(0.0872308 -0.00165636 0.00129509)
(0.0963082 -0.00198479 0.00150865)
(0.0905981 -0.0017545 0.00121548)
(0.0850044 -0.00149177 0.00107793)
(0.0952021 -0.00180185 0.00134323)
(0.0891453 -0.00165698 0.00111476)
(0.0830571 -0.00137116 0.000914614)
(0.0941437 -0.00164515 0.00120472)
(0.0877937 -0.00155272 0.00103379)
(0.0813179 -0.00127786 0.000803923)
(0.0931583 -0.00150553 0.00109737)
(0.0865432 -0.00144425 0.000973791)
(0.0797349 -0.00119265 0.000730327)
(0.0922486 -0.00137599 0.00101649)
(0.0853764 -0.00134028 0.000936291)
(0.078278 -0.00110918 0.000686202)
(0.0914125 -0.0012589 0.000961563)
(0.0842732 -0.00124478 0.000918079)
(0.0769224 -0.00102745 0.000662935)
(0.0906387 -0.00115549 0.000928634)
(0.0832144 -0.0011569 0.000915183)
(0.075646 -0.00094907 0.000653224)
(0.0899129 -0.00106376 0.000912866)
(0.0821825 -0.00107454 0.00092564)
(0.0744291 -0.000874659 0.000653176)
(0.0892214 -0.00097908 0.000911092)
(0.0811588 -0.000996916 0.000951846)
(0.0732518 -0.000801837 0.000664196)
(0.0885507 -0.000897704 0.000923712)
(0.0801112 -0.000923866 0.00100216)
(0.0720945 -0.000717214 0.000690987)
(0.0878822 -0.000818324 0.00095726)
(0.0789933 -0.000857978 0.00109233)
(0.070933 -0.000616357 0.000742795)
(0.08719 -0.00073782 0.00102232)
(0.0777322 -0.000819921 0.0012294)
(0.069711 -0.000490781 0.000834165)
(0.0864256 -0.000655081 0.00113382)
(0.0762352 -0.000873627 0.00145193)
(0.0683725 -0.000330298 0.000950902)
(0.0855382 -0.000574878 0.00126951)
(0.0668807 -0.000244965 0.00141596)
(0.084696 -0.000543531 0.0014132)
(0.0984572 -0.00247643 0.00172992)
(0.0973536 -0.00106247 -0.00148427)
(0.100049 -0.00105637 0.000750982)
(0.0958347 -0.00314802 0.00243274)
(0.0930872 -0.00326895 0.00253351)
(0.0982936 -0.00280917 0.00216154)
(0.0914498 -0.00223029 0.00186946)
(0.0848639 -0.00163578 0.00179244)
(0.0963038 -0.00244255 0.00199795)
(0.0875947 -0.00167454 0.00150574)
(0.0786279 -0.00107339 0.00122157)
(0.0936665 -0.00198057 0.00172728)
(0.0841467 -0.00143991 0.00127609)
(0.0740526 -0.000785072 0.000865471)
(0.090904 -0.00171942 0.00149832)
(0.0811861 -0.00126509 0.0010295)
(0.0704417 -0.00065011 0.000669921)
(0.0884334 -0.00145398 0.00121258)
(0.0786983 -0.00110956 0.000795235)
(0.0674904 -0.000545793 0.000509823)
(0.086303 -0.00118243 0.00091009)
(0.0765515 -0.000991042 0.000627355)
(0.0650487 -0.000467207 0.00038963)
(0.0844773 -0.000981292 0.000693218)
(0.074642 -0.000903113 0.000521948)
(0.0629622 -0.000412387 0.000311439)
(0.0828745 -0.000842227 0.000552954)
(0.0729078 -0.000827292 0.000459698)
(0.0611253 -0.000367821 0.00026091)
(0.0814381 -0.000739241 0.000462903)
(0.0713103 -0.000752781 0.000425477)
(0.0594773 -0.000326072 0.000230085)
(0.0801347 -0.000652822 0.00040534)
(0.0698241 -0.000679333 0.000408078)
(0.0579831 -0.000285096 0.000213072)
(0.0789363 -0.000575097 0.00036853)
(0.0684272 -0.000610255 0.000400821)
(0.0566138 -0.000245394 0.000205142)
(0.077821 -0.000506961 0.000347803)
(0.0670984 -0.000542899 0.00040197)
(0.0553445 -0.000204486 0.000203169)
(0.0767745 -0.00044649 0.000339809)
(0.0658146 -0.000457426 0.000412676)
(0.0541568 -0.000154355 0.000207041)
(0.0757846 -0.000384437 0.000345475)
(0.0645665 -0.00034 0.000439636)
(0.0530436 -9.13573e-05 0.000218961)
(0.0748392 -0.000293731 0.000371276)
(0.0633296 -0.000186438 0.000495389)
(0.0520058 5.23139e-06 0.000259297)
(0.0739233 -0.000172695 0.00042643)
(0.0620559 4.82113e-05 0.000570104)
(0.0510439 0.000165143 0.00032564)
(0.0730031 1.86911e-06 0.000520027)
(0.0607152 0.00041785 0.000875591)
(0.0502701 0.000491866 0.000383155)
(0.0720378 0.000331977 0.000580803)
(0.0488488 0.00179852 -2.49926e-05)
(0.0711714 0.000957463 0.000773481)
(0.0993441 0.00341903 -0.00341899)
(0.0973536 0.00148428 0.00106248)
(0.0834791 -0.00197584 0.00197594)
(0.0930872 -0.00253344 0.00326904)
(0.0745171 -0.00195865 0.00195885)
(0.084864 -0.00179231 0.00163593)
(0.0685475 -0.00115889 0.00115932)
(0.078628 -0.00122127 0.00107369)
(0.0642356 -0.000696694 0.000697435)
(0.0740528 -0.000864959 0.000785698)
(0.0607558 -0.000494198 0.000495705)
(0.070442 -0.000669053 0.000651113)
(0.0579359 -0.000373567 0.000376443)
(0.0674908 -0.000508051 0.000547867)
(0.0556116 -0.000285866 0.0002907)
(0.0650496 -0.000386628 0.000470837)
(0.0536207 -0.000223533 0.000231486)
(0.0629639 -0.000306524 0.00041854)
(0.0518731 -0.000177241 0.000190659)
(0.0611282 -0.0002528 0.000378272)
(0.0503189 -0.00014107 0.000163725)
(0.0594827 -0.000215519 0.000344032)
(0.0489244 -0.000110231 0.000147175)
(0.0579931 -0.000188284 0.000315291)
(0.0476593 -8.0549e-05 0.000138739)
(0.0566319 -0.000166529 0.000294829)
(0.0464993 -4.72333e-05 0.00013816)
(0.0553763 -0.000148159 0.000284783)
(0.0454367 -1.6676e-05 0.000148078)
(0.0542108 -0.000127571 0.000286288)
(0.0444754 2.77605e-05 0.000179602)
(0.0531378 -0.000100547 0.000297523)
(0.0436305 0.000124723 0.000239713)
(0.0521807 -3.83412e-05 0.000337175)
(0.0429824 0.000309352 0.000330726)
(0.0513926 8.7301e-05 0.000413943)
(0.0426377 0.00111789 1.31683e-05)
(0.0510194 0.000239366 0.000614325)
(0.0493787 0.00112083 0.000287577)
(0.0984572 0.00172992 0.00247643)
(0.100049 0.000750981 0.00105637)
(0.0996871 0.000345487 0.000439229)
(0.0958347 0.00243274 0.00314803)
(0.0982936 0.00216154 0.00280918)
(0.0978161 0.00228232 0.00273278)
(0.0914498 0.00186946 0.0022303)
(0.0963038 0.00199794 0.00244255)
(0.0954958 0.0023032 0.0030017)
(0.0875947 0.00150574 0.00167455)
(0.0936665 0.00172728 0.00198058)
(0.0926188 0.00183897 0.00229934)
(0.0841466 0.00127609 0.00143992)
(0.090904 0.00149832 0.00171943)
(0.0897665 0.00153593 0.00189184)
(0.0811861 0.00102949 0.00126511)
(0.0884333 0.00121257 0.00145399)
(0.0872308 0.00129509 0.00165638)
(0.0786983 0.000795232 0.00110958)
(0.0863029 0.000910083 0.00118245)
(0.0850044 0.00107792 0.00149179)
(0.0765514 0.000627352 0.000991072)
(0.0844773 0.000693209 0.000981314)
(0.083057 0.000914612 0.00137119)
(0.0746419 0.000521947 0.000903151)
(0.0828744 0.000552944 0.000842254)
(0.0813178 0.000803922 0.0012779)
(0.0729076 0.0004597 0.00082734)
(0.081438 0.000462892 0.000739273)
(0.0797348 0.00073033 0.0011927)
(0.0713101 0.000425484 0.000752841)
(0.0801346 0.000405324 0.000652861)
(0.0782779 0.000686212 0.00110925)
(0.0698239 0.000408097 0.000679406)
(0.0789361 0.000368504 0.000575137)
(0.0769222 0.000662958 0.00102754)
(0.0684268 0.000400855 0.000610326)
(0.0778208 0.000347772 0.000506996)
(0.0756457 0.00065327 0.000949197)
(0.067098 0.000402014 0.000542958)
(0.0767741 0.000339814 0.000446549)
(0.0744287 0.000653224 0.000874762)
(0.065814 0.000412741 0.000457495)
(0.0757842 0.000345503 0.000384515)
(0.0732513 0.000664251 0.000801932)
(0.0645657 0.000439741 0.000340111)
(0.0748386 0.000371294 0.000293802)
(0.0720939 0.000691097 0.000717383)
(0.0633284 0.000495571 0.000186622)
(0.0739225 0.000426473 0.0001728)
(0.070932 0.000742988 0.000616626)
(0.0620542 0.000570472 -4.78996e-05)
(0.073002 0.000520152 -1.6955e-06)
(0.0697096 0.000834509 0.000491204)
(0.0607123 0.00087608 -0.000417397)
(0.0720362 0.000581146 -0.00033167)
(0.0683704 0.000951565 0.000330974)
(0.0711689 0.000774051 -0.000956916)
(0.0668772 0.00141664 0.000245795)
(0.10008 0.00135182 0.00135175)
(0.100186 0.000798787 0.000804941)
(0.100186 0.00080497 0.000798759)
(0.100264 0.00221743 0.00221723)
(0.100189 0.00231196 0.00207143)
(0.100189 0.00207156 0.00231184)
(0.0993826 0.00243603 0.00243564)
(0.100306 0.00263392 0.00245297)
(0.100306 0.0024533 0.00263368)
(0.0979835 0.00231069 0.00231006)
(0.0998047 0.0025608 0.00245577)
(0.0998046 0.00245634 0.00256036)
(0.0964942 0.00200687 0.0020058)
(0.0988623 0.00236508 0.00228065)
(0.098862 0.00228151 0.00236437)
(0.0950712 0.00159807 0.00159625)
(0.0978401 0.00205014 0.00196755)
(0.0978396 0.00196887 0.00204888)
(0.0937729 0.00122814 0.00122511)
(0.0968601 0.00169304 0.00160379)
(0.0968592 0.00160589 0.00169098)
(0.0926137 0.000965276 0.000960067)
(0.0959573 0.00140758 0.00132009)
(0.0959557 0.00132371 0.00140422)
(0.0915872 0.000783372 0.00077429)
(0.0951444 0.0011967 0.00111623)
(0.0951415 0.00112247 0.00119083)
(0.090677 0.000655361 0.000638995)
(0.09442 0.00104043 0.000967796)
(0.0944148 0.000978516 0.00103015)
(0.0898623 0.000563714 0.000535441)
(0.0937788 0.000923168 0.000856733)
(0.0937697 0.000875749 0.00090523)
(0.0891214 0.000499875 0.000454308)
(0.0932064 0.000835153 0.000772211)
(0.093191 0.000803949 0.000805289)
(0.0884403 0.000458507 0.000388324)
(0.0926901 0.000770797 0.000705863)
(0.0926647 0.0007569 0.000722781)
(0.0878137 0.000435116 0.000326536)
(0.0922245 0.000724725 0.000648652)
(0.0921837 0.000728608 0.000648761)
(0.0872405 0.000430594 0.000250282)
(0.0918095 0.00069483 0.000590172)
(0.0917439 0.00071778 0.000573386)
(0.08671 0.000450675 0.000143016)
(0.0914415 0.000680894 0.000513273)
(0.0913356 0.000730096 0.000481431)
(0.0862145 0.000500213 -1.80516e-05)
(0.0911139 0.000686175 0.000405114)
(0.0909444 0.000772669 0.000365205)
(0.0857196 0.000533884 -0.000312413)
(0.0908141 0.000714042 0.000239161)
(0.0905488 0.000851784 0.000204684)
(0.0851441 0.000419138 -0.000933172)
(0.0905111 0.000723804 -5.25815e-05)
(0.0901164 0.000904502 -5.57152e-05)
(0.0904656 0.000611292 -0.000590749)
(0.090036 0.000801069 -0.000483201)
(0.100171 0.00136877 0.00141637)
(0.100118 0.000577449 0.00081129)
(0.100102 0.000699806 0.000700675)
(0.100759 0.00219511 0.00214893)
(0.100478 0.00158299 0.00185871)
(0.100477 0.00182269 0.0018646)
(0.100996 0.00247733 0.00238768)
(0.101004 0.00205902 0.00224237)
(0.101024 0.00234709 0.00238284)
(0.100838 0.00247688 0.00238867)
(0.101292 0.00220394 0.00235175)
(0.101337 0.00250651 0.00254352)
(0.100457 0.00231263 0.0022241)
(0.101309 0.00216808 0.00232146)
(0.101408 0.00245137 0.00247196)
(0.0999669 0.00205833 0.00196708)
(0.101156 0.00201198 0.00217773)
(0.101301 0.0022659 0.0022699)
(0.0994423 0.00179323 0.00169807)
(0.100926 0.00179554 0.00196688)
(0.101097 0.00201112 0.00199776)
(0.0989319 0.00156756 0.00148042)
(0.100664 0.00158632 0.00176319)
(0.100853 0.00177331 0.00175631)
(0.0984622 0.00138495 0.00131622)
(0.100408 0.00139978 0.00158634)
(0.100604 0.00157403 0.00156145)
(0.0980443 0.00123626 0.00119235)
(0.100172 0.00123619 0.00143912)
(0.100374 0.00141022 0.00140588)
(0.0976785 0.00111585 0.00109974)
(0.0999665 0.00109958 0.00132946)
(0.100175 0.00127664 0.00128225)
(0.0973617 0.00101956 0.00102919)
(0.0997916 0.000987376 0.00124892)
(0.10001 0.00116952 0.00118391)
(0.0970916 0.000943347 0.000970811)
(0.0996469 0.00089478 0.00118724)
(0.0998791 0.00108551 0.00110323)
(0.0968659 0.00088389 0.000916177)
(0.0995313 0.000817209 0.00113619)
(0.0997805 0.0010215 0.00103214)
(0.0966851 0.000837287 0.00085704)
(0.0994454 0.000748669 0.00108905)
(0.0997145 0.000975675 0.000963415)
(0.0965485 0.000798599 0.000779729)
(0.0993909 0.000684269 0.00103792)
(0.0996801 0.000945895 0.000888612)
(0.0964566 0.000764546 0.000666749)
(0.0993678 0.000617859 0.000970128)
(0.0996763 0.000931158 0.000794743)
(0.0964025 0.000724464 0.000501456)
(0.0993761 0.000542799 0.000874055)
(0.0997019 0.000929853 0.00067113)
(0.0963616 0.000625932 0.000289294)
(0.0993976 0.000438242 0.000743286)
(0.0997442 0.00092098 0.000503745)
(0.0995254 0.00024974 0.000612137)
(0.0999275 0.000838006 0.000330163)
(0.100242 0.00082025 0.0012561)
(0.10009 0.000294356 0.000735342)
(0.100071 0.000415717 0.000602759)
(0.100828 0.00139074 0.00193925)
(0.100491 0.000792051 0.00168398)
(0.100492 0.00112455 0.00158694)
(0.101392 0.00166376 0.00218199)
(0.101086 0.00107785 0.0020833)
(0.101128 0.00154108 0.00209397)
(0.101816 0.00176158 0.00226057)
(0.101664 0.00120452 0.00217873)
(0.101768 0.00173311 0.00229388)
(0.102081 0.00175604 0.00226098)
(0.102121 0.00124 0.0022213)
(0.102291 0.00179053 0.00236656)
(0.102215 0.00166919 0.00217513)
(0.102452 0.00120231 0.00220894)
(0.102711 0.00174483 0.0023208)
(0.102266 0.00153521 0.00203909)
(0.102681 0.00111899 0.00212452)
(0.103037 0.00162769 0.0022003)
(0.102277 0.00138433 0.00188166)
(0.102843 0.00101826 0.00200264)
(0.103287 0.00148177 0.00204675)
(0.102276 0.00123332 0.00172483)
(0.102968 0.000917932 0.00186574)
(0.103493 0.00133121 0.00188594)
(0.102274 0.00109625 0.00159404)
(0.103073 0.000823509 0.00173692)
(0.103671 0.00119026 0.00173903)
(0.102276 0.000979566 0.00149839)
(0.10317 0.00073813 0.00163172)
(0.103833 0.00106851 0.00162148)
(0.102287 0.000879741 0.00142833)
(0.103268 0.000661168 0.00154748)
(0.10399 0.000965483 0.00152856)
(0.10231 0.000791925 0.0013754)
(0.103369 0.000591181 0.0014859)
(0.104147 0.000877227 0.00145447)
(0.102345 0.000710038 0.00133341)
(0.103471 0.000525628 0.00144468)
(0.104309 0.000800556 0.00139422)
(0.102396 0.000628145 0.0012963)
(0.103576 0.000457727 0.00141663)
(0.104478 0.000730012 0.00134283)
(0.102465 0.000540913 0.00125761)
(0.103688 0.000382964 0.00139379)
(0.104658 0.000663406 0.0012945)
(0.10255 0.000439934 0.00121127)
(0.103804 0.000294736 0.00137158)
(0.104851 0.000596063 0.00124378)
(0.102651 0.000313698 0.00115759)
(0.103926 0.000185484 0.00134804)
(0.10506 0.000521241 0.00118673)
(0.102763 0.000148382 0.00112117)
(0.104046 4.43432e-05 0.00132772)
(0.105282 0.000427123 0.00112543)
(0.104255 -0.000129093 0.00133888)
(0.105579 0.000299078 0.00109885)
(0.100243 0.00026743 0.00116239)
(0.100087 -2.11592e-08 0.000707015)
(0.100064 0.000135824 0.000537323)
(0.100782 0.000465784 0.0018262)
(0.100477 -6.21638e-08 0.00161778)
(0.100463 0.000370934 0.00142411)
(0.101401 0.000575591 0.00207609)
(0.101066 -1.07377e-07 0.00203463)
(0.101089 0.000525256 0.00193352)
(0.101988 0.000622972 0.0021337)
(0.101694 -2.06635e-07 0.00211757)
(0.101798 0.000606012 0.00212847)
(0.102507 0.000631159 0.00216453)
(0.102269 -4.01045e-07 0.00214999)
(0.10249 0.000639479 0.00221068)
(0.102936 0.000610331 0.00215621)
(0.102742 -7.21207e-07 0.00217944)
(0.10312 0.000634396 0.00224104)
(0.103279 0.000571225 0.00208811)
(0.103125 -1.203e-06 0.00213361)
(0.103688 0.000601236 0.00219595)
(0.103558 0.000525114 0.0019881)
(0.103429 -1.98335e-06 0.00204361)
(0.104187 0.000555295 0.00210472)
(0.103793 0.00047973 0.00187987)
(0.103682 -3.36441e-06 0.00193409)
(0.104624 0.000507299 0.00199116)