/*--------------------------------*- C++ -*----------------------------------*\
| =========                 |                                                 |
| \\      /  F ield         | OpenFOAM: The Open Source CFD Toolbox           |
|  \\    /   O peration     | Version:  2212                                  |
|   \\  /    A nd           | Website:  www.openfoam.com                      |
|    \\/     M anipulation  |                                                 |
\*---------------------------------------------------------------------------*/
FoamFile
{
    version     2.0;
    format      ascii;
    arch        "LSB;label=32;scalar=64";
    class       volScalarField;
    location    "2.3";
    object      epsilon;
}
// * * * * * * * * * * * * * * * * * * * * * * * * * * * * * * * * * * * * * //

dimensions      [0 2 -3 0 0 0 0];

internalField   nonuniform List<scalar> 
690
(
0.0714773
0.0601656
0.0531467
0.0461294
0.0404141
0.0353943
0.0493522
0.0429662
0.0375181
0.0706316
0.0600136
0.0529556
0.0475932
0.043284
0.039735
0.0367571
0.0342208
0.0320044
0.0300399
0.0282913
0.0267315
0.0457534
0.0402103
0.0353768
0.031264
0.027772
0.0247703
0.0221145
0.0197811
0.0180315
0.0166113
0.015323
0.0141673
0.0503279
0.0437007
0.0381215
0.0334245
0.0294506
0.0260736
0.0231878
0.0207128
0.0186028
0.0167967
0.0152351
0.0138747
0.0693059
0.060617
0.0541364
0.0489925
0.04477
0.0412437
0.03825
0.0356609
0.033387
0.0313766
0.02959
0.0280003
0.0459896
0.0402757
0.0354217
0.0313139
0.0278503
0.0247465
0.0221221
0.0200437
0.0183881
0.0169155
0.0156118
0.0144535
0.0500716
0.0432246
0.037611
0.032944
0.0290264
0.025703
0.0228766
0.0204706
0.0184218
0.0166573
0.015127
0.0137919
0.0557373
0.0481467
0.0418435
0.036574
0.0321409
0.0283894
0.0251973
0.0224676
0.0201221
0.0180998
0.0163482
0.0148239
0.0601752
0.0519486
0.0451163
0.0394036
0.0345979
0.0305318
0.0270723
0.0241136
0.0215706
0.0193748
0.0174703
0.0158119
0.0621647
0.0534935
0.0463756
0.0404623
0.0355051
0.0313187
0.0277604
0.0247185
0.0221043
0.0198467
0.0178883
0.016183
0.0601784
0.051958
0.0451211
0.0394047
0.0345974
0.0305307
0.0270712
0.0241126
0.0215697
0.0193738
0.0174693
0.0158111
0.0559015
0.0482239
0.041882
0.0365915
0.0321456
0.0283852
0.0251869
0.0224538
0.0201082
0.0180855
0.0163333
0.014808
0.0493839
0.0429749
0.037528
0.0328999
0.0289746
0.0256358
0.0227863
0.0203585
0.0182947
0.0165233
0.0149936
0.046254
0.040383
0.0353725
0.0311394
0.0275886
0.0245395
0.0218247
0.0195826
0.0179409
0.0165154
0.0152277
0.0714345
0.0601327
0.0531257
0.047829
0.0435441
0.0399936
0.0370056
0.0344445
0.0321971
0.0302107
0.0284532
0.0719671
0.0647757
0.0586007
0.0533816
0.0489508
0.0451668
0.041913
0.0391001
0.0366515
0.034505
0.0326108
0.0309367
0.050192
0.0419416
0.0361175
0.0314704
0.0278126
0.0249206
0.0226709
0.0207187
0.0190306
0.0175596
0.0162705
0.0151251
0.0478136
0.0414106
0.0360786
0.0316019
0.0278494
0.0247014
0.0220537
0.0198026
0.0178753
0.0162137
0.0147729
0.0135167
0.0520996
0.0450479
0.0391892
0.0342783
0.0301431
0.0266426
0.0236708
0.0211393
0.0189705
0.0171025
0.015485
0.0140772
0.0558971
0.048227
0.0418851
0.0365938
0.0321469
0.028386
0.0251874
0.0224542
0.0201085
0.0180858
0.0163334
0.0148084
0.0572024
0.0493631
0.0428584
0.0374322
0.0328759
0.0290247
0.0257493
0.0229482
0.0205417
0.0184652
0.0166656
0.0150997
0.0557409
0.0481375
0.0418321
0.036564
0.0321329
0.0283832
0.0251923
0.0224634
0.0201179
0.0180954
0.0163438
0.0148193
0.0521034
0.0450337
0.0391782
0.034271
0.0301384
0.0266388
0.0236668
0.0211351
0.0189663
0.0170985
0.0154816
0.0140719
0.0476213
0.041241
0.0359501
0.0314687
0.0276966
0.0245064
0.0218282
0.0195774
0.0176629
0.0160203
0.0145983
0.0454561
0.0400841
0.0350402
0.0307431
0.0272211
0.0240232
0.021647
0.0198596
0.0182586
0.0168413
0.015583
0.070338
0.0623337
0.0557641
0.0503946
0.0459478
0.0422637
0.039153
0.0364707
0.034138
0.0320946
0.0302933
0.0936258
0.0802873
0.0703548
0.0626349
0.0569521
0.052585
0.0489061
0.0458187
0.043177
0.0408841
0.0388883
0.0371347
0.0546489
0.0433818
0.0375938
0.0331037
0.029583
0.0267586
0.0244289
0.0224663
0.0207987
0.019355
0.0181166
0.016863
0.0457613
0.0395026
0.0344455
0.0301457
0.0266072
0.0236953
0.0212656
0.0192174
0.0174719
0.0159689
0.014668
0.0135287
0.047605
0.0412778
0.0359638
0.0314738
0.0277016
0.0245118
0.0218358
0.0195856
0.0176711
0.0160281
0.0146036
0.0133621
0.0493627
0.0429761
0.0375216
0.0328935
0.0289711
0.0256367
0.0227902
0.0203636
0.0183006
0.0165295
0.014999
0.013669
0.0503279
0.0437153
0.0381297
0.0334252
0.0294524
0.0260781
0.0231926
0.0207166
0.0186073
0.0168006
0.0152371
0.0138751
0.050086
0.0432392
0.037618
0.0329453
0.0290258
0.0257013
0.022875
0.0204705
0.0184206
0.0166548
0.0151238
0.013788
0.0478325
0.0413242
0.0360103
0.03156
0.0278263
0.0246854
0.0220385
0.01979
0.0178647
0.016205
0.014766
0.0135064
0.0457602
0.0393383
0.0343415
0.0300776
0.0265493
0.0236526
0.0212344
0.0191943
0.0174542
0.0159557
0.0146577
0.0507505
0.0417313
0.0364375
0.0314314
0.0280326
0.0255455
0.0233883
0.0215339
0.0199103
0.0184972
0.0172503
0.0848158
0.0733671
0.0645843
0.0576806
0.0522802
0.0480393
0.0446503
0.0418092
0.0393802
0.0372673
0.0354144
0.140527
0.115805
0.0971538
0.0846353
0.0761535
0.0703056
0.0658397
0.0621113
0.0590378
0.0564187
0.0540558
0.0519963
0.0642686
0.0533893
0.0468438
0.0415599
0.037273
0.034063
0.0313926
0.0292722
0.0273272
0.0257122
0.0243422
0.0230843
0.0507981
0.0419272
0.0366189
0.0316016
0.0281858
0.0256508
0.0234608
0.0215823
0.0199441
0.0185205
0.0172934
0.0161595
0.0455032
0.0401491
0.0350527
0.0307597
0.0272381
0.0240296
0.0216709
0.0198793
0.0182755
0.0168555
0.0156023
0.0144875
0.0461807
0.0403179
0.0353006
0.0310841
0.027553
0.0245269
0.0218212
0.0195831
0.0179457
0.0165233
0.0152395
0.014091
0.0457578
0.04019
0.035351
0.0312353
0.0277539
0.0247733
0.0221265
0.0197806
0.018031
0.0166143
0.0153276
0.0141714
0.0459874
0.0402807
0.0354258
0.031316
0.0278528
0.0247488
0.0221266
0.0200469
0.0183907
0.0169179
0.0156139
0.0144548
0.0501775
0.0419319
0.0361125
0.0314648
0.0278087
0.0249197
0.0226713
0.0207197
0.0190319
0.0175609
0.0162694
0.0151215
0.0546131
0.0433679
0.0375715
0.033087
0.0295736
0.0267551
0.024429
0.0224682
0.0208012
0.0193622
0.018061
0.064184
0.053435
0.046823
0.0415502
0.0372536
0.0340471
0.0313776
0.0292644
0.0273071
0.0257334
0.024306
0.135344
0.112298
0.0927611
0.0798597
0.0714399
0.0657996
0.061658
0.0582238
0.0554474
0.0530203
0.0508977
0.384627
0.301877
0.237329
0.201838
0.181186
0.16834
0.159115
0.151587
0.145458
0.140309
0.135867
0.131868
0.135323
0.112292
0.0927412
0.0798005
0.0713496
0.0656843
0.061532
0.0581047
0.0553449
0.0529333
0.0508356
0.0490516
0.0848103
0.0733961
0.0645958
0.057633
0.0521817
0.0479123
0.0445116
0.0416825
0.039267
0.0371689
0.0353294
0.0337237
0.0703336
0.0623638
0.0557871
0.0503934
0.0459199
0.0422165
0.0390918
0.036404
0.0340714
0.0320302
0.0302302
0.0286357
0.0714375
0.0601346
0.0531378
0.0478408
0.0435493
0.0399888
0.0369909
0.0344222
0.0321692
0.0301786
0.0284155
0.0268509
0.0706304
0.0600223
0.0529667
0.0475951
0.0432814
0.0397285
0.0367464
0.0342074
0.0319882
0.0300209
0.0282698
0.0267086
0.0693082
0.0606111
0.0541338
0.0489931
0.0447727
0.0412477
0.038254
0.0356644
0.0333898
0.0313784
0.0295908
0.0280005
0.0719728
0.0647992
0.0586267
0.053407
0.0489739
0.0451872
0.0419307
0.0391154
0.0366644
0.0345164
0.0326208
0.0309498
0.0936381
0.0803222
0.0703883
0.0626751
0.0569989
0.0526199
0.0489285
0.0458357
0.0431932
0.0408944
0.0389096
0.140538
0.115812
0.0972025
0.0846712
0.0762031
0.0703581
0.0658935
0.0621621
0.0590692
0.0564575
0.0540567
0.384669
0.301978
0.237417
0.201931
0.181305
0.168473
0.159258
0.151728
0.145584
0.140433
0.135973
)
;

boundaryField
{
    inlet
    {
        type            fixedValue;
        value           nonuniform List<scalar> 0();
    }
    ami1
    {
        type            cyclicAMI;
        value           nonuniform List<scalar> 0();
    }
    walls
    {
        type            epsilonWallFunction;
        blending        stepwise;
        value           nonuniform List<scalar> 
259
(
0.0714345
0.070338
0.0848158
0.135344
0.384669
0.0601327
0.0623337
0.0733671
0.112298
0.301978
0.0531257
0.0557641
0.0645843
0.0927611
0.237417
0.047829
0.0503946
0.0576806
0.0798597
0.201931
0.0435441
0.0459478
0.0522802
0.0714399
0.181305
0.0399936
0.0422637
0.0480393
0.0657996
0.168473
0.0370056
0.039153
0.0446503
0.061658
0.159258
0.0344445
0.0364707
0.0418092
0.0582238
0.151728
0.0321971
0.034138
0.0393802
0.0554474
0.145584
0.0302107
0.0320946
0.0372673
0.0530203
0.140433
0.0284532
0.0302933
0.0354144
0.0508977
0.135973
0.384627
0.135323
0.0848103
0.0703336
0.0714375
0.0706304
0.0693082
0.0719728
0.0936381
0.140538
0.384669
0.301877
0.112292
0.0733961
0.0623638
0.0601346
0.0600223
0.0606111
0.0647992
0.0803222
0.115812
0.301978
0.237329
0.0927412
0.0645958
0.0557871
0.0531378
0.0529667
0.0541338
0.0586267
0.0703883
0.0972025
0.237417
0.201838
0.0798005
0.057633
0.0503934
0.0478408
0.0475951
0.0489931
0.053407
0.0626751
0.0846712
0.201931
0.181186
0.0713496
0.0521817
0.0459199
0.0435493
0.0432814
0.0447727
0.0489739
0.0569989
0.0762031
0.181305
0.16834
0.0656843
0.0479123
0.0422165
0.0399888
0.0397285
0.0412477
0.0451872
0.0526199
0.0703581
0.168473
0.159115
0.061532
0.0445116
0.0390918
0.0369909
0.0367464
0.038254
0.0419307
0.0489285
0.0658935
0.159258
0.151587
0.0581047
0.0416825
0.036404
0.0344222
0.0342074
0.0356644
0.0391154
0.0458357
0.0621621
0.151728
0.145458
0.0553449
0.039267
0.0340714
0.0321692
0.0319882
0.0333898
0.0366644
0.0431932
0.0590692
0.145584
0.140309
0.0529333
0.0371689
0.0320302
0.0301786
0.0300209
0.0313784
0.0345164
0.0408944
0.0564575
0.140433
0.135867
0.0508356
0.0353294
0.0302302
0.0284155
0.0282698
0.0295908
0.0326208
0.0389096
0.0540567
0.135973
0.131868
0.0490516
0.0337237
0.0286357
0.0268509
0.0267086
0.0280005
0.0309498
0.0714773
0.0706316
0.0693059
0.0719671
0.0936258
0.140527
0.384627
0.0601656
0.0600136
0.060617
0.0647757
0.0802873
0.115805
0.301877
0.0531467
0.0529556
0.0541364
0.0586007
0.0703548
0.0971538
0.237329
0.0475932
0.0489925
0.0533816
0.0626349
0.0846353
0.201838
0.043284
0.04477
0.0489508
0.0569521
0.0761535
0.181186
0.039735
0.0412437
0.0451668
0.052585
0.0703056
0.16834
0.0367571
0.03825
0.041913
0.0489061
0.0658397
0.159115
0.0342208
0.0356609
0.0391001
0.0458187
0.0621113
0.151587
0.0320044
0.033387
0.0366515
0.043177
0.0590378
0.145458
0.0300399
0.0313766
0.034505
0.0408841
0.0564187
0.140309
0.0282913
0.02959
0.0326108
0.0388883
0.0540558
0.135867
0.0267315
0.0280003
0.0309367
0.0371347
0.0519963
0.131868
)
;
    }
    ami2
    {
        type            cyclicAMI;
        value           nonuniform List<scalar> 
61
(
0.0815307
0.0485566
0.0533708
0.082303
0.0489443
0.0543353
0.0753198
0.048641
0.0539419
0.0605937
0.0650468
0.0676171
0.0650488
0.0607511
0.0533842
0.048614
0.0815103
0.0748691
0.0525227
0.0516357
0.0564042
0.0607486
0.0616503
0.0605961
0.0564071
0.0514898
0.048874
0.0765178
0.0836179
0.0602661
0.0494285
0.0514812
0.0533748
0.0543342
0.0539491
0.0516468
0.0494298
0.057651
0.080227
0.106214
0.0677482
0.0576745
0.0488989
0.0485809
0.0489436
0.0486382
0.0525166
0.0602491
0.067707
0.103881
0.22794
0.10387
0.0802238
0.0765138
0.0815111
0.0823024
0.0753223
0.0748745
0.0836252
0.10622
0.227962
)
;
    }
    outlet
    {
        type            zeroGradient;
    }
    procBoundary1to0
    {
        type            processor;
        value           nonuniform List<scalar> 
138
(
0.04786
0.04786
0.0435667
0.0400105
0.0370197
0.0344561
0.0322069
0.0302187
0.0284569
0.0268915
0.0312401
0.0312401
0.0276209
0.0245468
0.021817
0.0195874
0.0179473
0.0165215
0.0152375
0.0140902
0.0559419
0.0482501
0.0329484
0.0418962
0.0329484
0.0289917
0.025642
0.0227909
0.0203638
0.0182997
0.0165288
0.0149998
0.0136714
0.0572354
0.0493699
0.0428611
0.0374344
0.032878
0.0290267
0.0257514
0.0229505
0.0205441
0.0184678
0.0166687
0.0151032
0.0572354
0.0493699
0.0428611
0.0374344
0.032878
0.0290267
0.0257514
0.0229505
0.0205441
0.0184678
0.0166687
0.0151032
0.0621731
0.0534969
0.0463771
0.040463
0.0355056
0.031319
0.0277606
0.0247186
0.0221043
0.0198468
0.0178884
0.016183
0.0635529
0.0548317
0.0475913
0.0415421
0.0364567
0.0321559
0.0284981
0.0253701
0.0226813
0.020359
0.018344
0.0165892
0.0621723
0.0534968
0.0463759
0.040461
0.0355031
0.0313167
0.0277586
0.0247169
0.022103
0.0198456
0.0178874
0.0161823
0.0571927
0.0493533
0.0428511
0.0374267
0.0328715
0.0290213
0.0257468
0.0229464
0.0205405
0.0184645
0.0166655
0.0151005
0.0503709
0.0437643
0.0381645
0.0334443
0.0294596
0.0260776
0.0231886
0.0207116
0.018602
0.0167955
0.0152324
0.0457599
0.0402266
0.0353954
0.0312739
0.0277806
0.0247792
0.0221232
0.019784
0.0180336
0.0166132
0.0153222
0.0706387
0.0600453
0.0529812
0.0475995
0.0432804
0.0397284
0.036751
0.0342159
0.0320007
0.0300376
0.0282939
)
;
    }
    procBoundary1to2
    {
        type            processor;
        value           nonuniform List<scalar> 9(0.0703373 0.0623684 0.0557987 0.0455535 0.0401686 0.0350556 0.0476535 0.0412677 0.0359304);
    }
    procBoundary1to8
    {
        type            processor;
        value           nonuniform List<scalar> 
33
(
0.0253402
0.0131411
0.0126827
0.0265924
0.0134236
0.012621
0.0134953
0.0143667
0.0146977
0.0294857
0.0141064
0.0124098
0.0128463
0.0134778
0.0137358
0.0357001
0.0160955
0.0125186
0.0122591
0.0124966
0.0126784
0.0501949
0.0220398
0.0152395
0.0134942
0.0130679
0.0131424
0.128054
0.0471456
0.0322931
0.0272338
0.0254641
0.0253199
)
;
    }
    procBoundary1to9
    {
        type            processor;
        value           nonuniform List<scalar> 
30
(
0.0143676
0.0134803
0.0136561
0.0136561
0.0140795
0.0268989
0.0134931
0.0128456
0.0133421
0.0133421
0.0144636
0.0287121
0.0126169
0.0124066
0.0135054
0.0135054
0.0161642
0.0338272
0.0134225
0.014101
0.0169322
0.0169322
0.0230941
0.0491756
0.0265944
0.0294962
0.0371949
0.0371949
0.0520964
0.132069
)
;
    }
}


// ************************************************************************* //
