/*--------------------------------*- C++ -*----------------------------------*\
| =========                 |                                                 |
| \\      /  F ield         | OpenFOAM: The Open Source CFD Toolbox           |
|  \\    /   O peration     | Version:  2212                                  |
|   \\  /    A nd           | Website:  www.openfoam.com                      |
|    \\/     M anipulation  |                                                 |
\*---------------------------------------------------------------------------*/
FoamFile
{
    version     2.0;
    format      ascii;
    arch        "LSB;label=32;scalar=64";
    class       volScalarField;
    location    "2.3";
    object      nut;
}
// * * * * * * * * * * * * * * * * * * * * * * * * * * * * * * * * * * * * * //

dimensions      [0 2 -1 0 0 0 0];

internalField   nonuniform List<scalar> 
690
(
2.32103e-05
2.19254e-05
2.10252e-05
0.000102973
9.78333e-05
9.30883e-05
0.000171641
0.000162479
0.000154675
2.42099e-05
2.29229e-05
2.20229e-05
2.12548e-05
2.05945e-05
2.00176e-05
1.95061e-05
1.90476e-05
1.86276e-05
1.82385e-05
1.78774e-05
1.75424e-05
0.000112422
0.000104887
9.8745e-05
9.34532e-05
8.87383e-05
8.45964e-05
8.12472e-05
7.8576e-05
7.50414e-05
7.12433e-05
6.78748e-05
6.48343e-05
0.000176615
0.000168373
0.000160786
0.00015378
0.000147333
0.000141397
0.000135942
0.00013092
0.00012615
0.000121574
0.000117211
0.000113065
2.33773e-05
2.2033e-05
2.11466e-05
2.04224e-05
1.98059e-05
1.92678e-05
1.87913e-05
1.83612e-05
1.7967e-05
1.76037e-05
1.72676e-05
1.69567e-05
0.00010338
9.79023e-05
9.25569e-05
8.7645e-05
8.31486e-05
7.96642e-05
7.65382e-05
7.30961e-05
6.93306e-05
6.5924e-05
6.28065e-05
5.9961e-05
0.000169704
0.000161478
0.000154022
0.000147197
0.000140923
0.000135192
0.000129901
0.000124942
0.0001202
0.000115707
0.000111442
0.000107392
0.000211429
0.000201839
0.0001932
0.000185292
0.000177991
0.000171218
0.000164915
0.00015903
0.00015352
0.000148321
0.000143395
0.000138713
0.000232858
0.000223952
0.00021519
0.000206843
0.000198989
0.000191627
0.000184732
0.00017827
0.000172204
0.000166496
0.000161112
0.000156007
0.000242989
0.000232418
0.000222863
0.000214072
0.000205914
0.000198307
0.000191194
0.00018453
0.000178274
0.00017239
0.000166842
0.000161583
0.000232844
0.000223898
0.00021515
0.000206822
0.00019898
0.000191626
0.000184736
0.000178278
0.000172217
0.000166514
0.000161135
0.000156036
0.000212031
0.000202306
0.000193575
0.000185624
0.000178314
0.00017156
0.000165293
0.000159448
0.000153967
0.000148807
0.000143928
0.000139312
0.000171492
0.000162416
0.000154592
0.000147718
0.000141556
0.000135989
0.000130929
0.000126229
0.000121743
0.000117472
0.000113381
0.000102672
9.78895e-05
9.31226e-05
8.87082e-05
8.46333e-05
8.11181e-05
7.84971e-05
7.59554e-05
7.23743e-05
6.89618e-05
6.59085e-05
2.32085e-05
2.19236e-05
2.10244e-05
2.03053e-05
1.96812e-05
1.91306e-05
1.864e-05
1.81974e-05
1.77905e-05
1.74147e-05
1.70679e-05
1.97336e-05
1.90955e-05
1.84906e-05
1.79419e-05
1.74451e-05
1.69951e-05
1.65869e-05
1.62167e-05
1.58799e-05
1.55721e-05
1.52892e-05
1.50293e-05
8.36341e-05
7.98879e-05
7.60723e-05
7.29379e-05
6.98847e-05
6.674e-05
6.3263e-05
6.01114e-05
5.71792e-05
5.44495e-05
5.18969e-05
4.95395e-05
0.000143507
0.000138294
0.000132671
0.00012726
0.000122151
0.000117325
0.000112721
0.000108366
0.000104219
0.000100262
9.64748e-05
9.28412e-05
0.000188123
0.000179571
0.000171744
0.000164601
0.000158046
0.000152017
0.000146416
0.000141157
0.000136201
0.000131507
0.000127047
0.000122794
0.000212032
0.000202284
0.000193555
0.000185607
0.0001783
0.000171545
0.000165275
0.000159424
0.000153937
0.000148772
0.00014389
0.000139258
0.000216282
0.000207857
0.000199687
0.000191898
0.000184544
0.000177638
0.000171168
0.00016511
0.000159428
0.000154081
0.00014903
0.000144235
0.000211387
0.000201846
0.000193222
0.000185315
0.000178011
0.000171236
0.000164933
0.000159053
0.000153553
0.000148366
0.000143453
0.000138787
0.000188097
0.000179594
0.000171759
0.00016461
0.000158055
0.000152035
0.00014645
0.000141208
0.000136266
0.000131584
0.000127128
0.000122922
0.000144896
0.000139357
0.000133461
0.000128017
0.000123008
0.000118449
0.000114142
0.000109973
0.000105959
0.000102089
9.83553e-05
9.26851e-05
8.46169e-05
7.93793e-05
7.54376e-05
7.20448e-05
6.99949e-05
6.72634e-05
6.3884e-05
6.08734e-05
5.81148e-05
5.55177e-05
1.96776e-05
1.90292e-05
1.83756e-05
1.77705e-05
1.72211e-05
1.67344e-05
1.63015e-05
1.5913e-05
1.55616e-05
1.5242e-05
1.49496e-05
1.61281e-05
1.53775e-05
1.47052e-05
1.41921e-05
1.37789e-05
1.34234e-05
1.31069e-05
1.28285e-05
1.25793e-05
1.23586e-05
1.21621e-05
1.19819e-05
4.95446e-05
5.24403e-05
5.08557e-05
4.89642e-05
4.69815e-05
4.50159e-05
4.30733e-05
4.11906e-05
3.92992e-05
3.74501e-05
3.55807e-05
3.42005e-05
0.00011269
0.000105641
9.98073e-05
9.53296e-05
9.1404e-05
8.77473e-05
8.42862e-05
8.09599e-05
7.77414e-05
7.46187e-05
7.15587e-05
6.85779e-05
0.000144968
0.000139245
0.000133411
0.000127984
0.000122955
0.000118368
0.00011402
0.000109821
0.000105783
0.000101899
9.81862e-05
9.46094e-05
0.00017156
0.000162397
0.0001546
0.000147725
0.000141544
0.000135944
0.000130851
0.000126125
0.000121616
0.00011733
0.000113239
0.000109318
0.000176593
0.00016826
0.000160684
0.000153705
0.000147252
0.0001413
0.000135842
0.000130827
0.000126054
0.000121486
0.000117144
0.00011302
0.000169645
0.000161415
0.000153973
0.000147163
0.000140894
0.00013517
0.000129882
0.000124918
0.000120189
0.000115712
0.000111461
0.00010743
0.000143438
0.000138563
0.00013292
0.00012744
0.000122271
0.000117427
0.000112834
0.000108478
0.000104332
0.000100374
9.65783e-05
9.30007e-05
0.000112669
0.000106077
0.000100141
9.56041e-05
9.16903e-05
8.80168e-05
8.45413e-05
8.12026e-05
7.79734e-05
7.48391e-05
7.17302e-05
5.40393e-05
5.4958e-05
5.22002e-05
5.13379e-05
4.95313e-05
4.71213e-05
4.49147e-05
4.28341e-05
4.0853e-05
3.89123e-05
3.69514e-05
1.6229e-05
1.52952e-05
1.45678e-05
1.3979e-05
1.34977e-05
1.30984e-05
1.27633e-05
1.24837e-05
1.22354e-05
1.20134e-05
1.18098e-05
1.12735e-05
1.05963e-05
9.96143e-06
9.5076e-06
9.18467e-06
8.9394e-06
8.7438e-06
8.57908e-06
8.4444e-06
8.32531e-06
8.2132e-06
8.11131e-06
2.51105e-05
2.43854e-05
2.24043e-05
2.17358e-05
2.11692e-05
2.02649e-05
1.93889e-05
1.83986e-05
1.77215e-05
1.69769e-05
1.61064e-05
1.53849e-05
5.39808e-05
5.46289e-05
5.18193e-05
5.08598e-05
4.9003e-05
4.66457e-05
4.44829e-05
4.24481e-05
4.05048e-05
3.85952e-05
3.66805e-05
3.48834e-05
9.25889e-05
8.44524e-05
7.93156e-05
7.53394e-05
7.19039e-05
6.98437e-05
6.70135e-05
6.36151e-05
6.05957e-05
5.78315e-05
5.52655e-05
5.28349e-05
0.00010288
9.81175e-05
9.3377e-05
8.89123e-05
8.47598e-05
8.1138e-05
7.84488e-05
7.58591e-05
7.22357e-05
6.87896e-05
6.57248e-05
6.29242e-05
0.00011242
0.000104943
9.88214e-05
9.3504e-05
8.87483e-05
8.45257e-05
8.11279e-05
7.8498e-05
7.49634e-05
7.11504e-05
6.77753e-05
6.47381e-05
0.000103386
9.78593e-05
9.25212e-05
8.762e-05
8.31269e-05
7.96455e-05
7.65109e-05
7.30725e-05
6.931e-05
6.59042e-05
6.27884e-05
5.9948e-05
8.36496e-05
7.99317e-05
7.61306e-05
7.3011e-05
6.99594e-05
6.68066e-05
6.33227e-05
6.01649e-05
5.72275e-05
5.44937e-05
5.19425e-05
4.96088e-05
4.95894e-05
5.25153e-05
5.09787e-05
4.90972e-05
4.71043e-05
4.51219e-05
4.3167e-05
4.12735e-05
3.93782e-05
3.75045e-05
3.5765e-05
2.51594e-05
2.43872e-05
2.24579e-05
2.18367e-05
2.12808e-05
2.03848e-05
1.95247e-05
1.8511e-05
1.78358e-05
1.70597e-05
1.617e-05
1.13679e-05
1.06782e-05
9.96199e-06
9.44227e-06
9.07161e-06
8.79932e-06
8.5915e-06
8.42143e-06
8.28979e-06
8.17037e-06
8.05956e-06
5.76513e-06
5.3123e-06
4.88564e-06
4.62423e-06
4.45356e-06
4.33954e-06
4.25426e-06
4.18461e-06
4.1294e-06
4.08276e-06
4.04037e-06
4.00062e-06
1.1367e-05
1.06752e-05
9.96102e-06
9.43767e-06
9.06614e-06
8.79251e-06
8.5833e-06
8.41386e-06
8.28133e-06
8.16297e-06
8.05492e-06
7.95999e-06
1.62284e-05
1.52959e-05
1.45692e-05
1.3977e-05
1.34916e-05
1.3089e-05
1.27517e-05
1.24696e-05
1.22211e-05
1.19997e-05
1.17974e-05
1.1616e-05
1.96785e-05
1.90359e-05
1.83822e-05
1.77746e-05
1.72215e-05
1.6731e-05
1.62944e-05
1.59028e-05
1.55495e-05
1.5229e-05
1.49363e-05
1.46679e-05
2.3209e-05
2.19252e-05
2.10277e-05
2.0309e-05
1.96841e-05
1.91315e-05
1.86385e-05
1.81934e-05
1.77844e-05
1.7407e-05
1.70588e-05
1.67381e-05
2.42105e-05
2.29243e-05
2.20249e-05
2.12562e-05
2.05947e-05
2.00163e-05
1.95035e-05
1.9044e-05
1.86232e-05
1.82334e-05
1.78718e-05
1.75364e-05
2.33777e-05
2.2031e-05
2.11449e-05
2.04213e-05
1.98052e-05
1.92673e-05
1.87907e-05
1.83606e-05
1.79663e-05
1.76029e-05
1.72667e-05
1.69557e-05
1.97338e-05
1.90971e-05
1.84935e-05
1.79453e-05
1.74486e-05
1.69984e-05
1.65899e-05
1.62194e-05
1.58822e-05
1.5574e-05
1.52908e-05
1.50315e-05
1.6129e-05
1.53803e-05
1.47086e-05
1.41971e-05
1.37835e-05
1.34278e-05
1.3111e-05
1.28318e-05
1.25826e-05
1.23614e-05
1.2166e-05
1.1274e-05
1.05985e-05
9.96254e-06
9.51262e-06
9.18901e-06
8.94507e-06
8.7494e-06
8.5834e-06
8.44855e-06
8.32985e-06
8.21414e-06
5.76543e-06
5.31319e-06
4.88659e-06
4.62573e-06
4.45553e-06
4.34196e-06
4.25682e-06
4.18711e-06
4.1318e-06
4.0848e-06
4.04193e-06
)
;

boundaryField
{
    inlet
    {
        type            calculated;
        value           nonuniform List<scalar> 0();
    }
    ami1
    {
        type            cyclicAMI;
        value           nonuniform List<scalar> 0();
    }
    walls
    {
        type            nutkWallFunction;
        blending        stepwise;
        value           uniform 0;
    }
    ami2
    {
        type            cyclicAMI;
        value           nonuniform List<scalar> 
61
(
3.0129e-05
0.000107592
0.000176428
3.08211e-05
0.000118264
0.000180959
2.91481e-05
0.000107343
0.000175616
0.000216107
0.000237399
0.000248822
0.00023739
0.000217147
0.000176362
0.00010746
3.01352e-05
2.04535e-05
9.37315e-05
0.000145699
0.000192801
0.000217151
0.000221402
0.000216083
0.000192781
0.000147524
9.86727e-05
2.10022e-05
2.04093e-05
5.37585e-05
0.000117756
0.000147565
0.000176393
0.000180953
0.000175587
0.000145658
0.000117736
5.77043e-05
1.90228e-05
1.91921e-05
2.62566e-05
5.76776e-05
9.86235e-05
0.000107552
0.000118275
0.000107354
9.37374e-05
5.37781e-05
2.62799e-05
1.8357e-05
1.65512e-05
1.8357e-05
1.90225e-05
2.10018e-05
3.01313e-05
3.08254e-05
2.9152e-05
2.04539e-05
2.04099e-05
1.91921e-05
1.65502e-05
)
;
    }
    outlet
    {
        type            calculated;
        value           nonuniform List<scalar> 0();
    }
    procBoundary1to0
    {
        type            processor;
        value           nonuniform List<scalar> 
138
(
2.03055e-05
2.03055e-05
1.96834e-05
1.91335e-05
1.8643e-05
1.81997e-05
1.77921e-05
1.74156e-05
1.70679e-05
1.6747e-05
8.85546e-05
8.85546e-05
8.45962e-05
8.11217e-05
7.85397e-05
7.59361e-05
7.23342e-05
6.89093e-05
6.58471e-05
6.30386e-05
0.000211829
0.00020216
0.000147529
0.000193489
0.000147529
0.000141488
0.000135963
0.000130898
0.000126181
0.000121684
0.000117396
0.000113291
0.000109352
0.000216139
0.000207814
0.000199669
0.000191891
0.000184544
0.00017764
0.000171168
0.000165106
0.000159419
0.000154063
0.000149001
0.000144193
0.000216139
0.000207814
0.000199669
0.000191891
0.000184544
0.00017764
0.000171168
0.000165106
0.000159419
0.000154063
0.000149001
0.000144193
0.00024296
0.000232395
0.000222847
0.000214061
0.000205908
0.000198305
0.000191195
0.000184532
0.000178278
0.000172394
0.000166845
0.000161585
0.000249189
0.000239532
0.000230147
0.000221259
0.000212917
0.000205105
0.000197788
0.000190927
0.000184483
0.000178422
0.000172707
0.000167288
0.000242962
0.000232403
0.000222861
0.00021408
0.000205928
0.000198325
0.000191215
0.000184552
0.000178298
0.000172415
0.000166869
0.00016161
0.000216328
0.00020792
0.000199744
0.000191949
0.000184591
0.000177682
0.000171209
0.00016515
0.000159465
0.000154116
0.000149061
0.000144256
0.000176415
0.000168037
0.000160511
0.000153606
0.000147223
0.000141326
0.000135904
0.00013091
0.000126151
0.00012159
0.00011725
0.000112496
0.000104913
9.87378e-05
9.34134e-05
8.86832e-05
8.45355e-05
8.11871e-05
7.85436e-05
7.50204e-05
7.12317e-05
6.78865e-05
2.42126e-05
2.29276e-05
2.20265e-05
2.12564e-05
2.05945e-05
2.00163e-05
1.95045e-05
1.90461e-05
1.86263e-05
1.82375e-05
1.78772e-05
)
;
    }
    procBoundary1to2
    {
        type            processor;
        value           nonuniform List<scalar> 9(1.96788e-05 1.9036e-05 1.83816e-05 9.25159e-05 8.44422e-05 7.9351e-05 0.000144798 0.000139285 0.000133575);
    }
    procBoundary1to8
    {
        type            processor;
        value           nonuniform List<scalar> 
33
(
1.72316e-05
6.2022e-05
0.000109118
1.66706e-05
5.73266e-05
0.000103521
0.000134194
0.000151088
0.000156498
1.47937e-05
4.73827e-05
8.94065e-05
0.000118736
0.000134821
0.000139602
1.18303e-05
3.20977e-05
6.58458e-05
9.13913e-05
0.000105701
0.000109128
8.02018e-06
1.44642e-05
3.31158e-05
5.07454e-05
6.04454e-05
6.19591e-05
3.96212e-06
7.85615e-06
1.14508e-05
1.4424e-05
1.64438e-05
1.72263e-05
)
;
    }
    procBoundary1to9
    {
        type            processor;
        value           nonuniform List<scalar> 
30
(
0.000151095
0.000134846
0.000109575
0.000109575
6.32045e-05
1.67493e-05
0.00013425
0.000118826
9.49993e-05
9.49993e-05
5.32922e-05
1.46839e-05
0.000103573
8.95261e-05
6.89616e-05
6.89616e-05
3.52529e-05
1.16316e-05
5.73322e-05
4.74661e-05
3.41569e-05
3.41569e-05
1.55265e-05
7.9688e-06
1.66701e-05
1.47955e-05
1.19886e-05
1.19886e-05
8.11842e-06
4.00353e-06
)
;
    }
}


// ************************************************************************* //
