/*--------------------------------*- C++ -*----------------------------------*\
| =========                 |                                                 |
| \\      /  F ield         | OpenFOAM: The Open Source CFD Toolbox           |
|  \\    /   O peration     | Version:  2212                                  |
|   \\  /    A nd           | Website:  www.openfoam.com                      |
|    \\/     M anipulation  |                                                 |
\*---------------------------------------------------------------------------*/
FoamFile
{
    version     2.0;
    format      ascii;
    arch        "LSB;label=32;scalar=64";
    class       volVectorField;
    location    "2.3";
    object      U;
}
// * * * * * * * * * * * * * * * * * * * * * * * * * * * * * * * * * * * * * //

dimensions      [0 1 -1 0 0 0 0];

internalField   nonuniform List<vector> 
690
(
(0.0744618 0.00122736 -0.00319918)
(0.0758487 0.000361761 -0.00275843)
(0.0771662 -0.000210729 -0.00219044)
(0.0997614 -0.00118865 -0.00081476)
(0.0999845 -0.00147203 -0.000915042)
(0.100269 -0.00159606 -0.000839486)
(0.108779 -0.00153044 -7.34395e-05)
(0.109093 -0.00155143 -0.000170109)
(0.109444 -0.00159298 -0.000167303)
(0.075047 0.00224637 -0.00262588)
(0.0765581 0.00167509 -0.00197896)
(0.0780385 0.00110612 -0.00139581)
(0.0793442 0.000669475 -0.000965192)
(0.0802761 0.00033954 -0.000615465)
(0.0808327 8.84612e-05 -0.000324605)
(0.0810983 -0.000104869 -8.47465e-05)
(0.0811482 -0.000258185 0.000113537)
(0.0810229 -0.000381614 0.000277871)
(0.0807577 -0.000482665 0.00042625)
(0.0803829 -0.000564667 0.00054634)
(0.0799232 -0.00062264 0.000631421)
(0.100478 -1.06087e-05 7.11388e-06)
(0.100571 8.24687e-06 3.32511e-05)
(0.100841 -7.31278e-05 0.000100154)
(0.101352 -0.000183037 0.000172092)
(0.101911 -0.000294962 0.000250543)
(0.102414 -0.000399461 0.000336704)
(0.102848 -0.000491101 0.000428866)
(0.103209 -0.000557734 0.000510737)
(0.103506 -0.00059827 0.000575543)
(0.103747 -0.000629874 0.00063626)
(0.103941 -0.000660523 0.000698637)
(0.104094 -0.000688211 0.000758388)
(0.109065 -0.000487596 0.000566141)
(0.10948 -0.000449225 0.000504906)
(0.109874 -0.000466344 0.000504527)
(0.110362 -0.000502407 0.000527249)
(0.11088 -0.000543462 0.000558583)
(0.111383 -0.000585517 0.000596768)
(0.111861 -0.000624051 0.000638325)
(0.112312 -0.000654669 0.000678715)
(0.112733 -0.000677128 0.000715519)
(0.113125 -0.000693921 0.000749385)
(0.113492 -0.00070744 0.000781317)
(0.113839 -0.000718843 0.000811288)
(0.0773781 0.00234827 -0.000514486)
(0.0785887 0.00216111 5.77869e-05)
(0.0797821 0.00177799 0.000289444)
(0.0806944 0.00134048 0.00035066)
(0.0812449 0.000924396 0.000383145)
(0.0815121 0.000558718 0.000416371)
(0.0815668 0.000262569 0.000459486)
(0.0814517 2.73643e-05 0.000510981)
(0.0812007 -0.000159794 0.00056467)
(0.0808482 -0.000307064 0.000620244)
(0.080412 -0.000431865 0.000676798)
(0.0799066 -0.000527754 0.000726811)
(0.100907 0.000835311 0.00116251)
(0.10127 0.00095324 0.00142377)
(0.101635 0.000904818 0.00149899)
(0.102108 0.000763724 0.00146065)
(0.102558 0.000580466 0.00139236)
(0.10294 0.000381813 0.00131867)
(0.10326 0.000203066 0.00124134)
(0.103525 4.55432e-05 0.00116727)
(0.103743 -9.1529e-05 0.00110751)
(0.103921 -0.000211406 0.00106654)
(0.104064 -0.000315074 0.00104164)
(0.104178 -0.000403964 0.00102926)
(0.109184 0.000163618 0.00144053)
(0.109572 0.000264784 0.00151506)
(0.109983 0.000280906 0.00156275)
(0.110465 0.000247262 0.0015558)
(0.110951 0.000183368 0.00151402)
(0.111405 0.000101859 0.00145737)
(0.111828 1.43785e-05 0.00139444)
(0.112223 -7.03905e-05 0.00133219)
(0.112592 -0.00014815 0.00127647)
(0.112937 -0.000218349 0.00122985)
(0.113264 -0.000281533 0.00119245)
(0.113577 -0.000337925 0.00116358)
(0.112873 -6.92769e-05 0.00137689)
(0.113387 -4.33046e-05 0.00140532)
(0.113871 -3.38431e-05 0.00141907)
(0.114397 -3.61438e-05 0.00140677)
(0.11493 -4.70902e-05 0.00137285)
(0.115445 -6.42239e-05 0.00132554)
(0.115938 -8.46064e-05 0.00127056)
(0.116411 -0.000105627 0.00121235)
(0.116866 -0.000125889 0.00115521)
(0.117302 -0.000145101 0.00110228)
(0.117724 -0.000163265 0.00105527)
(0.118135 -0.000180282 0.0010147)
(0.114492 5.2283e-05 0.000953705)
(0.115107 5.32781e-05 0.000940959)
(0.115655 5.05504e-05 0.000933916)
(0.116223 4.90734e-05 0.000928856)
(0.116795 4.90969e-05 0.000917074)
(0.117352 4.99433e-05 0.000898008)
(0.117895 5.09603e-05 0.000872653)
(0.118422 5.17315e-05 0.00084281)
(0.118935 5.20343e-05 0.000810791)
(0.119433 5.19285e-05 0.000778908)
(0.119917 5.1483e-05 0.000748719)
(0.120388 5.07265e-05 0.000721039)
(0.11514 0.000420631 0.00038628)
(0.115707 0.000416356 0.000380186)
(0.116236 0.000418866 0.000382442)
(0.116796 0.000418698 0.000382343)
(0.117367 0.000416449 0.000380071)
(0.117933 0.00041154 0.000375002)
(0.11849 0.000405206 0.000368231)
(0.119037 0.000397912 0.000360227)
(0.119571 0.000389994 0.00035138)
(0.120092 0.000381999 0.000342271)
(0.120598 0.000374393 0.000333417)
(0.121093 0.000367365 0.000325118)
(0.114492 0.000953486 -5.26478e-05)
(0.115107 0.000940931 -5.38429e-05)
(0.115655 0.000934082 -5.14028e-05)
(0.116223 0.000929158 -5.02897e-05)
(0.116795 0.000917454 -5.06597e-05)
(0.117352 0.000898401 -5.17875e-05)
(0.117894 0.00087299 -5.29853e-05)
(0.118422 0.000843037 -5.38404e-05)
(0.118935 0.000810897 -5.4167e-05)
(0.119432 0.000778925 -5.40666e-05)
(0.119916 0.000748698 -5.36484e-05)
(0.120387 0.000720905 -5.2921e-05)
(0.112812 0.00136544 -0.000226187)
(0.113299 0.00139871 -0.000200262)
(0.113761 0.00141655 -0.000190706)
(0.114263 0.00140836 -0.000196593)
(0.114777 0.00137777 -0.000212141)
(0.115276 0.00133184 -0.000233132)
(0.115755 0.0012758 -0.000255846)
(0.116216 0.00121418 -0.00027689)
(0.116657 0.00115041 -0.000294812)
(0.11708 0.00108945 -0.000310374)
(0.11749 0.0010339 -0.000324129)
(0.117889 0.000984227 -0.000336088)
(0.108781 0.00153008 7.39284e-05)
(0.109095 0.00155159 0.000170269)
(0.109448 0.00159297 0.00016622)
(0.10988 0.00159788 0.000107811)
(0.110323 0.00156604 2.27457e-05)
(0.110735 0.00150948 -7.47979e-05)
(0.111113 0.00143701 -0.000174587)
(0.11146 0.00135757 -0.00026841)
(0.11178 0.00127997 -0.00034808)
(0.112078 0.00120925 -0.000419273)
(0.11236 0.0011472 -0.000481954)
(0.0997632 0.00118835 0.000814551)
(0.0999857 0.00147442 0.000912854)
(0.10027 0.00159906 0.000836407)
(0.100685 0.0015958 0.000668888)
(0.101079 0.00153324 0.00046494)
(0.101385 0.00144753 0.0002497)
(0.101605 0.0013493 4.5212e-05)
(0.10176 0.00123786 -0.000126198)
(0.10187 0.00113102 -0.000264892)
(0.101947 0.00104614 -0.000386749)
(0.102001 0.000982891 -0.000494097)
(0.0744602 -0.00123022 0.00319919)
(0.0758506 -0.000365577 0.0027581)
(0.0771689 0.000208102 0.00218971)
(0.0781108 0.000471219 0.0015838)
(0.0785846 0.000579717 0.00103627)
(0.0786918 0.000623662 0.000591782)
(0.0785594 0.000643718 0.000242344)
(0.0782657 0.000657763 -2.78979e-05)
(0.07785 0.000667002 -0.00024174)
(0.0773525 0.000673797 -0.000424844)
(0.0767984 0.000680878 -0.000534541)
(0.0809403 0.00265418 0.00169147)
(0.0813584 0.00234732 0.00236741)
(0.0813687 0.00184347 0.00218383)
(0.0809259 0.00132925 0.0017866)
(0.0802309 0.000870041 0.00146371)
(0.0794783 0.000493542 0.00119945)
(0.0787208 0.000200074 0.00100677)
(0.0779775 -2.2245e-05 0.00088291)
(0.0772515 -0.000191165 0.000810181)
(0.0765423 -0.000317376 0.00077199)
(0.0758439 -0.000421924 0.000754566)
(0.0751492 -0.000491099 0.000754841)
(0.101105 0.00122108 0.00250855)
(0.101456 0.00126285 0.00295585)
(0.10179 0.00116677 0.00295467)
(0.101987 0.000996502 0.00271908)
(0.102025 0.000802214 0.00242817)
(0.101969 0.000606988 0.00214652)
(0.101875 0.000420904 0.00188231)
(0.101767 0.000251914 0.00166118)
(0.101658 0.000104052 0.00149082)
(0.101559 -2.40452e-05 0.00135633)
(0.101473 -0.00013457 0.00125293)
(0.101394 -0.000229251 0.0011754)
(0.107833 0.000527866 0.00252336)
(0.108442 0.000575362 0.00276512)
(0.108941 0.000569561 0.00279099)
(0.109406 0.000523166 0.00266284)
(0.109774 0.00045113 0.00247107)
(0.110052 0.000368598 0.00226158)
(0.110271 0.000282681 0.00206236)
(0.110453 0.000199029 0.00187854)
(0.110619 0.000121361 0.00171965)
(0.110781 5.02097e-05 0.00158621)
(0.110946 -1.44673e-05 0.00147692)
(0.111118 -7.28178e-05 0.00138888)
(0.111278 0.000121186 0.00208463)
(0.111769 0.000142732 0.00216304)
(0.112239 0.000153741 0.00220022)
(0.112738 0.000159635 0.00216593)
(0.113211 0.000162062 0.00207776)
(0.113635 0.000160631 0.00195873)
(0.114018 0.000156808 0.00182669)
(0.114371 0.000150149 0.00169369)
(0.114702 0.000141713 0.00156859)
(0.115019 0.000132438 0.00145586)
(0.115329 0.000122733 0.00135716)
(0.115637 0.00011285 0.00127276)
(0.112813 0.000226421 0.00136546)
(0.1133 0.000200546 0.00139829)
(0.113761 0.000190736 0.00141593)
(0.114264 0.000196162 0.00140763)
(0.114778 0.000211212 0.001377)
(0.115278 0.00023179 0.00133111)
(0.115758 0.000254236 0.00127524)
(0.116219 0.000275139 0.0012139)
(0.116661 0.000292994 0.00115043)
(0.117085 0.000308527 0.00108965)
(0.117495 0.000322237 0.00103406)
(0.117895 0.000334224 0.000984564)
(0.113148 0.000663823 0.000632139)
(0.113705 0.00064568 0.000603165)
(0.114205 0.000646519 0.00059883)
(0.11474 0.000651215 0.000601281)
(0.115288 0.000653723 0.000603513)
(0.115825 0.000655138 0.000604907)
(0.116346 0.000655827 0.000604716)
(0.116853 0.000654859 0.000601681)
(0.117342 0.000652226 0.000595629)
(0.117813 0.000649215 0.000588026)
(0.118268 0.000646982 0.000580274)
(0.118709 0.000645783 0.000573002)
(0.112873 0.00137705 6.84337e-05)
(0.113387 0.00140599 4.2061e-05)
(0.113871 0.00141996 3.22605e-05)
(0.114397 0.00140768 3.42417e-05)
(0.11493 0.00137368 4.48806e-05)
(0.115445 0.0013262 6.17965e-05)
(0.115938 0.001271 8.21146e-05)
(0.116411 0.00121251 0.000103223)
(0.116865 0.00115513 0.000123639)
(0.117301 0.00110207 0.000142988)
(0.117723 0.00105511 0.000161196)
(0.118134 0.00101452 0.000178254)
(0.111277 0.00208518 -0.00012167)
(0.111767 0.00216444 -0.000143528)
(0.112237 0.00220169 -0.00015486)
(0.112736 0.00216716 -0.000161143)
(0.113208 0.00207862 -0.000163916)
(0.113631 0.00195915 -0.000162679)
(0.114013 0.00182667 -0.000158939)
(0.114365 0.00169316 -0.00015217)
(0.114695 0.00156764 -0.000143563)
(0.115012 0.00145475 -0.00013416)
(0.115321 0.00135647 -0.000124528)
(0.115628 0.00127236 -0.000114611)
(0.107282 0.00259851 0.000169446)
(0.107837 0.00284762 0.000175836)
(0.108283 0.00287005 0.000147157)
(0.10868 0.002731 8.96716e-05)
(0.108983 0.00252205 1.72373e-05)
(0.109194 0.00229231 -5.81302e-05)
(0.109347 0.00206565 -0.00012857)
(0.10947 0.00185991 -0.000190448)
(0.10958 0.00168279 -0.000243435)
(0.109692 0.00153355 -0.000288287)
(0.109814 0.00141138 -0.000326536)
(0.0995716 0.00272893 0.000941982)
(0.0995727 0.0031451 0.000963453)
(0.099698 0.00313861 0.000841735)
(0.0997135 0.00287942 0.000639363)
(0.0995767 0.00254095 0.000411647)
(0.0993378 0.00219386 0.000197354)
(0.099068 0.00186115 2.06798e-05)
(0.0988075 0.00158065 -0.000124246)
(0.0985683 0.00136584 -0.000246487)
(0.0983587 0.00120323 -0.000348248)
(0.0981803 0.00108278 -0.00043128)
(0.0753705 0.00151567 0.00289353)
(0.0760705 0.00237384 0.00251897)
(0.076269 0.00227126 0.00192062)
(0.0757876 0.00185153 0.00123737)
(0.0749217 0.00146161 0.000669405)
(0.0739618 0.00116625 0.000254504)
(0.0730103 0.000957568 -4.30008e-05)
(0.0720895 0.000815276 -0.000255037)
(0.071218 0.000720191 -0.000416392)
(0.070398 0.00066579 -0.000518047)
(0.0696182 0.000635778 -0.000575892)
(0.082943 0.00235803 0.00411302)
(0.0804663 0.00189592 0.00435365)
(0.0776735 0.00124988 0.00337021)
(0.074743 0.000700065 0.0024342)
(0.0722613 0.000341947 0.00180454)
(0.0703843 0.000116578 0.00136597)
(0.0689313 -3.21419e-05 0.00105624)
(0.0677561 -0.000134898 0.000865435)
(0.0667692 -0.000210964 0.000754437)
(0.0659098 -0.0002579 0.000696114)
(0.0651288 -0.000297312 0.000666216)
(0.0644161 -0.000329886 0.000656701)
(0.0967603 0.00120361 0.00406495)
(0.0982072 0.00114168 0.00459053)
(0.0985976 0.000983131 0.00406361)
(0.0982768 0.00080216 0.00332574)
(0.0976096 0.000630884 0.00273911)
(0.0968701 0.000481784 0.00227668)
(0.096167 0.000357387 0.00189738)
(0.095544 0.000253952 0.00160579)
(0.0950091 0.000163733 0.00139318)
(0.0945598 9.11435e-05 0.00123587)
(0.0941871 2.47592e-05 0.0011254)
(0.0938641 -3.3223e-05 0.00102999)
(0.10503 0.000255771 0.00342049)
(0.105368 0.000335377 0.00375919)
(0.105717 0.000366738 0.00362844)
(0.105888 0.000366791 0.00328552)
(0.105854 0.000347398 0.00289948)
(0.105701 0.000319475 0.00253473)
(0.105504 0.000289882 0.0022168)
(0.105309 0.000261864 0.00195474)
(0.105141 0.000235855 0.00174542)
(0.105016 0.000212402 0.00157769)
(0.104938 0.00018964 0.00144085)
(0.104896 0.000167451 0.00133249)
(0.107284 -0.000169004 0.00259789)
(0.107841 -0.00017516 0.00284597)
(0.108287 -0.000146339 0.00286875)
(0.108687 -8.92474e-05 0.00273008)
(0.108992 -1.73929e-05 0.00252178)
(0.109205 5.74578e-05 0.00229289)
(0.10936 0.000127585 0.00206711)
(0.109485 0.00018939 0.00186223)
(0.109597 0.000242466 0.00168577)
(0.10971 0.000287538 0.00153679)
(0.109832 0.000325349 0.00141288)
(0.109968 0.000357091 0.00131217)
(0.10878 -7.29702e-05 0.00153024)
(0.109095 -0.000168946 0.001551)
(0.109448 -0.000164785 0.00159231)
(0.109881 -0.000106686 0.0015972)
(0.110325 -2.21632e-05 0.00156542)
(0.110739 7.48145e-05 0.00150906)
(0.111118 0.000174184 0.00143697)
(0.111466 0.000267772 0.00135808)
(0.111788 0.000347249 0.00128104)
(0.112087 0.000418382 0.00121071)
(0.11237 0.000480871 0.00114819)
(0.112644 0.000535081 0.00109433)
(0.109066 0.00056595 0.000487003)
(0.109481 0.000504998 0.000448445)
(0.109876 0.000505305 0.000465438)
(0.110365 0.000528571 0.000501103)
(0.110883 0.000560165 0.000541281)
(0.111386 0.000598279 0.000582666)
(0.111865 0.000639528 0.000621089)
(0.112316 0.000679456 0.000652006)
(0.112739 0.000715809 0.000674973)
(0.113132 0.000749411 0.000692266)
(0.113499 0.000781277 0.000706133)
(0.113847 0.000811419 0.000717697)
(0.109184 0.00144031 -0.000164701)
(0.109573 0.00151545 -0.000266353)
(0.109984 0.00156359 -0.00028272)
(0.110465 0.00155686 -0.000249243)
(0.110951 0.00151517 -0.00018553)
(0.111405 0.00145846 -0.000104124)
(0.111828 0.00139531 -1.65824e-05)
(0.112223 0.00133274 6.84211e-05)
(0.112592 0.00127678 0.000146456)
(0.112937 0.00123004 0.000216803)
(0.113264 0.0011927 0.000279956)
(0.113577 0.00116402 0.000336256)
(0.107833 0.00252395 -0.000528986)
(0.10844 0.00276686 -0.000577076)
(0.108939 0.00279209 -0.000571859)
(0.109402 0.00266317 -0.000525761)
(0.109769 0.00247093 -0.000453728)
(0.110046 0.00226112 -0.000370836)
(0.110264 0.00206188 -0.000284444)
(0.110446 0.00187768 -0.000200344)
(0.110611 0.00171853 -0.00012235)
(0.110773 0.00158518 -5.11479e-05)
(0.110938 0.00147655 1.32592e-05)
(0.111109 0.00138971 7.11685e-05)
(0.105028 0.00342135 -0.000256395)
(0.105362 0.00376019 -0.00033631)
(0.105709 0.00362762 -0.000367666)
(0.105876 0.00328385 -0.000367809)
(0.105839 0.00289732 -0.000348404)
(0.105684 0.00253211 -0.000320297)
(0.105486 0.00221388 -0.000290443)
(0.10529 0.00195161 -0.000262167)
(0.105122 0.00174207 -0.000235956)
(0.104997 0.00157416 -0.000212389)
(0.104918 0.00143916 -0.000190118)
(0.0953413 0.00439453 0.000458491)
(0.0965565 0.00481764 0.000242168)
(0.0967787 0.00423182 9.19396e-05)
(0.0962508 0.00342038 -1.46772e-05)
(0.0953765 0.00268644 -8.69767e-05)
(0.094463 0.00211325 -0.000147871)
(0.0936258 0.00169455 -0.000201876)
(0.0929004 0.00139949 -0.000248089)
(0.0922876 0.00119329 -0.000285714)
(0.091778 0.00104046 -0.000313916)
(0.0913565 0.000927846 -0.000332269)
(0.0776119 0.00448976 0.00197136)
(0.0749414 0.00466233 0.00134673)
(0.0719697 0.00354861 0.000661485)
(0.0688878 0.00244242 0.000220433)
(0.0662897 0.00166253 -3.91583e-05)
(0.0643192 0.00111481 -0.000180293)
(0.0628276 0.00077878 -0.000289594)
(0.0616378 0.0005941 -0.000369802)
(0.0606426 0.000500184 -0.000411388)
(0.0597776 0.000459522 -0.000431209)
(0.0589925 0.000444476 -0.000441828)
(0.0735704 0.00108244 0.00418857)
(0.0666112 0.000860284 0.00424089)
(0.0611237 0.000474746 0.00276819)
(0.0567957 0.000273465 0.00172189)
(0.0539874 0.000195252 0.00108262)
(0.052231 0.000137532 0.000695272)
(0.0509856 8.38874e-05 0.000516925)
(0.0499661 3.99942e-05 0.000433747)
(0.0491104 4.90399e-06 0.000388135)
(0.0483588 -1.70371e-05 0.000360087)
(0.0476665 -2.91961e-05 0.000340436)
(0.0470386 -3.74806e-05 0.000327285)
(0.0896144 0.000572122 0.00619659)
(0.0896824 0.000600175 0.00586813)
(0.0882982 0.000552883 0.00417365)
(0.0861195 0.000499763 0.00271284)
(0.0840299 0.000442478 0.00186925)
(0.0823253 0.000384076 0.00137619)
(0.0809582 0.000331752 0.00106331)
(0.0798484 0.000287221 0.000865729)
(0.0789188 0.000253184 0.00073887)
(0.0781267 0.000227956 0.000636426)
(0.0774318 0.000201896 0.000557725)
(0.0768191 0.000177929 0.000489992)
(0.0953399 -0.0004597 0.00439332)
(0.0965572 -0.000244444 0.00481668)
(0.0967856 -9.39941e-05 0.00423189)
(0.0962641 1.29845e-05 0.00342038)
(0.0953941 8.6393e-05 0.00268786)
(0.0944825 0.00014855 0.00211665)
(0.0936445 0.000203348 0.00169901)
(0.0929166 0.000249976 0.00140437)
(0.0923007 0.000287739 0.00119805)
(0.0917879 0.000315935 0.00104586)
(0.0913643 0.000333393 0.000930082)
(0.0910069 0.000341726 0.000842376)
(0.0995728 -0.000941906 0.00272975)
(0.0995761 -0.000962528 0.00314678)
(0.0997039 -0.000840056 0.00314063)
(0.099723 -0.000638221 0.00288067)
(0.09959 -0.000410882 0.00254241)
(0.0993537 -0.000197158 0.00219511)
(0.0990859 -2.09248e-05 0.00186218)
(0.0988261 0.000124272 0.00158239)
(0.0985865 0.000246868 0.00136817)
(0.0983763 0.000349118 0.0012062)
(0.0981971 0.000431194 0.00108288)
(0.0980446 0.000496233 0.00099078)
(0.0997621 -0.000812977 0.0011915)
(0.0999843 -0.000911136 0.00147706)
(0.100269 -0.000834866 0.00160096)
(0.100685 -0.000667943 0.00159668)
(0.101081 -0.000464727 0.00153332)
(0.101388 -0.000250072 0.00144731)
(0.10161 -4.57172e-05 0.00134935)
(0.101767 0.00012575 0.00123834)
(0.101878 0.000264547 0.00113194)
(0.101957 0.000386651 0.00104753)
(0.102011 0.00049382 0.000983723)
(0.102045 0.000585348 0.000935299)
(0.100478 7.17509e-06 1.10676e-05)
(0.10057 3.36758e-05 -6.59795e-06)
(0.100841 0.000100703 7.51713e-05)
(0.101352 0.00017284 0.000185034)
(0.101911 0.000251333 0.000296101)
(0.102415 0.000337303 0.000399435)
(0.102851 0.000429755 0.000490687)
(0.103213 0.000511783 0.000557287)
(0.10351 0.000576088 0.000597445)
(0.103753 0.000636452 0.000628815)
(0.103948 0.000698812 0.000659448)
(0.104102 0.000759003 0.000687224)
(0.100907 0.0011613 -0.000835781)
(0.101271 0.00142223 -0.000953561)
(0.101636 0.00149789 -0.000904716)
(0.102108 0.00146016 -0.000763376)
(0.102558 0.00139242 -0.000580149)
(0.10294 0.00131909 -0.000381709)
(0.10326 0.00124197 -0.000203268)
(0.103525 0.00116795 -4.57785e-05)
(0.103744 0.00110806 9.12429e-05)
(0.103922 0.00106694 0.000210866)
(0.104066 0.00104193 0.000314271)
(0.10418 0.00102998 0.000402684)
(0.101106 0.00250734 -0.00122139)
(0.101456 0.00295419 -0.00126312)
(0.10179 0.00295295 -0.00116715)
(0.101987 0.00271752 -0.000996986)
(0.102023 0.002427 -0.000802768)
(0.101967 0.00214551 -0.000607586)
(0.101873 0.00188181 -0.000421377)
(0.101764 0.00166103 -0.000252274)
(0.101656 0.00149068 -0.00010437)
(0.101557 0.00135636 2.35358e-05)
(0.10147 0.00125301 0.000133719)
(0.101393 0.00117645 0.00022776)
(0.0967609 0.00406356 -0.00120348)
(0.0982087 0.00458734 -0.00114117)
(0.0985972 0.00405837 -0.000982557)
(0.0982748 0.00331882 -0.000801608)
(0.0976068 0.00273249 -0.00063027)
(0.0968668 0.00227253 -0.000481233)
(0.0961638 0.00189603 -0.000356979)
(0.0955413 0.00160558 -0.00025379)
(0.0950069 0.00139293 -0.000163774)
(0.0945585 0.00123785 -9.14782e-05)
(0.0941831 0.00112303 -2.54556e-05)
(0.0896172 0.00619502 -0.000571961)
(0.0896913 0.00586624 -0.00060003)
(0.0883098 0.004172 -0.000552618)
(0.0861354 0.00271075 -0.000498955)
(0.08405 0.00186852 -0.000441193)
(0.0823465 0.00137645 -0.000382457)
(0.08098 0.00106333 -0.00033005)
(0.0798707 0.000864988 -0.000285764)
(0.0789423 0.000737052 -0.000251922)
(0.0781509 0.000634087 -0.000227176)
(0.077461 0.000558184 -0.000201782)
(0.0724521 0.00476397 0.000450969)
(0.0649572 0.0045258 4.29406e-05)
(0.0588218 0.00262904 -0.000228203)
(0.0540222 0.00102441 -0.000236099)
(0.0510406 0.000304185 -0.000205703)
(0.0492544 0.000160989 -0.0002094)
(0.0480124 0.000115477 -0.0002254)
(0.0470147 9.76558e-05 -0.000233194)
(0.0461961 8.83442e-05 -0.00023167)
(0.0454861 8.13239e-05 -0.000231272)
(0.0448351 7.7532e-05 -0.000226104)
(0.0600611 0.000412029 0.00466006)
(0.0455421 0.000131897 0.00155345)
(0.0396851 0.00013573 0.000387803)
(0.0359922 0.000147756 5.37416e-05)
(0.0338379 0.000139519 4.27959e-05)
(0.0325342 0.000126214 4.6635e-05)
(0.0315866 0.000111994 4.2392e-05)
(0.0308151 0.000101171 3.77742e-05)
(0.0301771 9.01283e-05 3.56817e-05)
(0.0296263 8.20114e-05 3.45195e-05)
(0.0291266 7.63677e-05 3.44983e-05)
(0.0286749 7.1404e-05 3.43623e-05)
(0.0724465 -0.000451262 0.00476398)
(0.064951 -4.33436e-05 0.00452537)
(0.0588108 0.00022829 0.00262907)
(0.0540053 0.000236731 0.00102398)
(0.051017 0.000206839 0.000303933)
(0.0492239 0.000210622 0.000160892)
(0.0479779 0.000226438 0.000115312)
(0.046979 0.00023397 9.74102e-05)
(0.046161 0.000232401 8.82464e-05)
(0.0454523 0.000231821 8.18869e-05)
(0.0448021 0.000226548 7.83944e-05)
(0.0442135 0.000216364 7.58019e-05)
(0.0776045 -0.00197134 0.00449412)
(0.0749254 -0.00134613 0.00466901)
(0.071944 -0.000659969 0.00355803)
(0.0688504 -0.000218473 0.00245184)
(0.0662412 4.09095e-05 0.00167001)
(0.0642647 0.000181443 0.00111845)
(0.0627705 0.000290433 0.000778313)
(0.0615812 0.000370549 0.000590887)
(0.060588 0.000412279 0.000495885)
(0.0597245 0.000432202 0.000456115)
(0.0589425 0.000442874 0.000442802)
(0.0582175 0.00044288 0.000444635)
(0.075364 -0.00289434 0.00152193)
(0.0760594 -0.00251943 0.00238468)
(0.0762545 -0.00192064 0.0022839)
(0.0757684 -0.00123684 0.00186396)
(0.0748977 -0.000668574 0.00147173)
(0.0739341 -0.000253296 0.00117246)
(0.0729784 4.46509e-05 0.000959635)
(0.0720545 0.000257042 0.00081404)
(0.0711808 0.000418953 0.000717279)
(0.0703584 0.000520674 0.000662758)
(0.0695787 0.000578424 0.00063392)
(0.068831 0.000614432 0.000619711)
(0.074462 -0.00320088 -0.00122664)
(0.0758528 -0.00275983 -0.000358914)
(0.077171 -0.00219119 0.000216668)
(0.0781116 -0.00158474 0.000480442)
(0.0785837 -0.00103647 0.000588313)
(0.0786885 -0.000591115 0.000630754)
(0.0785533 -0.000240912 0.000648997)
(0.0782562 2.99408e-05 0.000661282)
(0.077837 0.000244491 0.000669222)
(0.0773356 0.000428022 0.000675553)
(0.0767785 0.000537528 0.000683144)
(0.0761845 0.000609924 0.000688736)
(0.0750481 -0.00262645 -0.00224682)
(0.0765602 -0.00197939 -0.00167564)
(0.078041 -0.00139632 -0.00110574)
(0.0793473 -0.000965791 -0.000667061)
(0.08028 -0.000615886 -0.000334506)
(0.0808369 -0.000324329 -8.17928e-05)
(0.0811018 -8.34177e-05 0.00011132)
(0.0811503 0.000115782 0.000263198)
(0.0810225 0.000280746 0.000385057)
(0.0807541 0.000430173 0.00048545)
(0.0803761 0.000549918 0.000566348)
(0.0799137 0.000634545 0.000623643)
(0.0773792 -0.000515129 -0.00234831)
(0.0785893 5.68958e-05 -0.00216105)
(0.0797823 0.000288341 -0.00177768)
(0.0806946 0.000349317 -0.00133961)
(0.0812454 0.000381715 -0.000922456)
(0.0815133 0.000415205 -0.000556024)
(0.0815687 0.000458978 -0.000259747)
(0.081454 0.000511181 -2.49109e-05)
(0.0812029 0.000565322 0.000161826)
(0.08085 0.000621198 0.000308916)
(0.0804131 0.000677783 0.000433061)
(0.0799067 0.000727421 0.000528428)
(0.0809425 0.00169023 -0.00265349)
(0.0813611 0.00236562 -0.00234637)
(0.0813718 0.00218173 -0.00184262)
(0.0809294 0.00178482 -0.00132856)
(0.0802348 0.00146248 -0.000869326)
(0.0794827 0.00119877 -0.000492923)
(0.078726 0.00100654 -0.00019954)
(0.0779834 0.000883052 2.26751e-05)
(0.0772582 0.000810452 0.000191487)
(0.0765495 0.000771583 0.000317672)
(0.0758516 0.000753897 0.000422011)
(0.0751564 0.000751213 0.000490545)
(0.0829461 0.0041117 -0.00235727)
(0.0804703 0.00435075 -0.00189478)
(0.0776794 0.00336588 -0.00124844)
(0.0747511 0.00242945 -0.000698581)
(0.0722711 0.00179987 -0.00034068)
(0.070395 0.00136266 -0.000115716)
(0.0689424 0.00105487 3.25397e-05)
(0.067767 0.000865775 0.000134817)
(0.0667808 0.000755731 0.000210494)
(0.0659208 0.000696312 0.000256992)
(0.0651459 0.000665768 0.00029679)
(0.0735741 0.00418837 -0.00108226)
(0.0666158 0.00424001 -0.000859235)
(0.0611333 0.00276582 -0.000472719)
(0.0568108 0.00171822 -0.000270802)
(0.054008 0.00107873 -0.000192688)
(0.0522566 0.000692069 -0.000135576)
(0.0510132 0.000515327 -8.2764e-05)
(0.0499936 0.000433633 -3.97582e-05)
(0.0491366 0.00038901 -5.29329e-06)
(0.0483832 0.000361057 1.59792e-05)
(0.0476912 0.000340284 2.83641e-05)
(0.0600643 0.00465993 -0.000411985)
(0.0455467 0.00155281 -0.000131431)
(0.039691 0.000388733 -0.000134968)
(0.0360025 5.35596e-05 -0.000146508)
(0.0338527 4.26558e-05 -0.000138079)
(0.0325526 4.65466e-05 -0.000124957)
(0.0316073 4.23693e-05 -0.000111111)
(0.0308363 3.77853e-05 -0.000100755)
(0.0301981 3.56895e-05 -9.00407e-05)
(0.0296465 3.44955e-05 -8.2128e-05)
(0.0291461 3.44199e-05 -7.65646e-05)
)
;

boundaryField
{
    inlet
    {
        type            fixedValue;
        value           nonuniform List<vector> 0();
    }
    ami1
    {
        type            cyclicAMI;
        value           nonuniform List<vector> 0();
    }
    walls
    {
        type            noSlip;
    }
    ami2
    {
        type            cyclicAMI;
        value           nonuniform List<vector> 
61
(
(0.0735119 0.00131316 -0.00284324)
(0.0994653 -0.0010226 -0.00071915)
(0.108559 -0.00153001 1.28114e-05)
(0.0739021 0.00194661 -0.00229684)
(0.10036 -1.86472e-05 2.31761e-06)
(0.108726 -0.000517832 0.000632929)
(0.0767219 0.00203009 -0.000591774)
(0.100623 0.000735515 0.00103783)
(0.108937 7.2589e-05 0.00141418)
(0.112522 -8.64855e-05 0.00137126)
(0.114052 5.28873e-05 0.000964605)
(0.114788 0.000422573 0.000389358)
(0.114052 0.000964352 -5.31987e-05)
(0.11249 0.00134367 -0.000237639)
(0.108561 0.00152943 -1.24099e-05)
(0.0994665 0.00102182 0.00071922)
(0.0735118 -0.00131496 0.00284288)
(0.0808715 0.00250627 0.00107073)
(0.100989 0.0010845 0.00217922)
(0.107342 0.000475393 0.00241537)
(0.110951 0.000106708 0.00203833)
(0.11249 0.000237754 0.00134387)
(0.112748 0.000680675 0.000659403)
(0.112522 0.00137122 8.58179e-05)
(0.11095 0.00203845 -0.000107045)
(0.106827 0.00246536 0.000149492)
(0.0997219 0.00233273 0.000865981)
(0.0747767 0.000754999 0.00272626)
(0.0849316 0.00217924 0.00290373)
(0.095604 0.00110632 0.00337809)
(0.104987 0.000205712 0.00313038)
(0.106828 -0.000149218 0.00246542)
(0.10856 1.30973e-05 0.0015299)
(0.108726 0.000632738 0.00051739)
(0.108937 0.00141388 -7.33775e-05)
(0.107341 0.00241531 -0.000476206)
(0.104986 0.00313036 -0.000206085)
(0.0943097 0.00362919 0.0005494)
(0.0794941 0.00310437 0.00195202)
(0.0815064 0.0011361 0.00347336)
(0.089278 0.000485462 0.00484346)
(0.0943083 -0.00054998 0.00362907)
(0.0997224 -0.000865835 0.00233383)
(0.0994659 -0.000718301 0.00102429)
(0.100361 2.20398e-06 1.88446e-05)
(0.100623 0.00103692 -0.000735873)
(0.100989 0.00217818 -0.0010848)
(0.0956048 0.00337696 -0.0011062)
(0.0892802 0.00484257 -0.000485322)
(0.0794708 0.0038385 0.000718594)
(0.0744535 0.000375103 0.00407321)
(0.0794666 -0.000718738 0.00383904)
(0.0794884 -0.00195223 0.00310744)
(0.0747719 -0.00272731 0.000758955)
(0.0735124 -0.00284439 -0.00131264)
(0.0739031 -0.00229718 -0.0019467)
(0.076723 -0.000592087 -0.00202987)
(0.0808735 0.0010698 -0.00250581)
(0.084934 0.00290264 -0.00217869)
(0.0815091 0.00347286 -0.00113581)
(0.0744559 0.00407304 -0.000375026)
)
;
    }
    outlet
    {
        type            zeroGradient;
    }
    procBoundary1to0
    {
        type            processor;
        value           nonuniform List<vector> 
138
(
(0.0781053 -0.000470165 -0.00158595)
(0.0781053 -0.000470165 -0.00158595)
(0.0785778 -0.000574796 -0.00103926)
(0.0786836 -0.000617643 -0.000595731)
(0.0785519 -0.000639796 -0.00024686)
(0.07826 -0.000657165 2.3554e-05)
(0.077847 -0.00066936 0.000237805)
(0.0773516 -0.000677819 0.000421798)
(0.0767992 -0.000685996 0.000532659)
(0.0762082 -0.00069121 0.000606178)
(0.100684 -0.00159304 -0.000672902)
(0.100684 -0.00159304 -0.000672902)
(0.101078 -0.00153278 -0.000468266)
(0.101382 -0.00144908 -0.000252065)
(0.101601 -0.00135198 -4.66731e-05)
(0.101755 -0.00124107 0.000125477)
(0.101864 -0.00113473 0.000265136)
(0.101942 -0.0010501 0.00038759)
(0.101995 -0.000985674 0.00049462)
(0.102029 -0.000936909 0.000585742)
(0.112811 -0.00136613 0.000226344)
(0.113298 -0.00139971 0.000200367)
(0.109876 -0.0015992 -0.000109903)
(0.113759 -0.0014183 0.000190511)
(0.109876 -0.0015992 -0.000109903)
(0.110319 -0.00156937 -2.46658e-05)
(0.110732 -0.00151358 7.33716e-05)
(0.111109 -0.00144092 0.000173826)
(0.111456 -0.00136089 0.000268291)
(0.111776 -0.00128255 0.000348704)
(0.112073 -0.00121109 0.000419948)
(0.112354 -0.00114791 0.000482413)
(0.112626 -0.00109411 0.000536372)
(0.113147 -0.000632776 0.000663823)
(0.113704 -0.000604299 0.000645563)
(0.114203 -0.000600483 0.000646229)
(0.114739 -0.000603525 0.000650823)
(0.115286 -0.00060636 0.000653367)
(0.115823 -0.000608124 0.000654938)
(0.116344 -0.000607948 0.000655816)
(0.116851 -0.000604652 0.000655034)
(0.117339 -0.000598242 0.000652557)
(0.11781 -0.000590294 0.000649625)
(0.118264 -0.000582301 0.000647361)
(0.118704 -0.000574951 0.000646087)
(0.113147 -0.000632776 0.000663823)
(0.113704 -0.000604299 0.000645563)
(0.114203 -0.000600483 0.000646229)
(0.114739 -0.000603525 0.000650823)
(0.115286 -0.00060636 0.000653367)
(0.115823 -0.000608124 0.000654938)
(0.116344 -0.000607948 0.000655816)
(0.116851 -0.000604652 0.000655034)
(0.117339 -0.000598242 0.000652557)
(0.11781 -0.000590294 0.000649625)
(0.118264 -0.000582301 0.000647361)
(0.118704 -0.000574951 0.000646087)
(0.11514 -0.000386852 0.000420995)
(0.115707 -0.000381066 0.00041674)
(0.116235 -0.000383782 0.000419299)
(0.116795 -0.000384162 0.000419164)
(0.117366 -0.000382258 0.000416883)
(0.117933 -0.000377449 0.000411973)