/*--------------------------------*- C++ -*----------------------------------*\
| =========                 |                                                 |
| \\      /  F ield         | OpenFOAM: The Open Source CFD Toolbox           |
|  \\    /   O peration     | Version:  2212                                  |
|   \\  /    A nd           | Website:  www.openfoam.com                      |
|    \\/     M anipulation  |                                                 |
\*---------------------------------------------------------------------------*/
FoamFile
{
    version     2.0;
    format      ascii;
    arch        "LSB;label=32;scalar=64";
    class       volScalarField;
    location    "2.55";
    object      k;
}
// * * * * * * * * * * * * * * * * * * * * * * * * * * * * * * * * * * * * * //

dimensions      [0 2 -2 0 0 0 0];

internalField   nonuniform List<scalar> 
690
(
0.00234057
0.00229702
0.00225455
0.00221629
0.00217879
0.00214461
0.0021121
0.0020809
0.0020517
0.00202442
0.00199928
0.00208067
0.00203441
0.00198889
0.00194781
0.00190903
0.00187346
0.00184041
0.00180896
0.00177925
0.00175149
0.00172608
0.00213738
0.00208303
0.00203022
0.00198352
0.00193977
0.00190005
0.00186246
0.00182656
0.00179099
0.00175592
0.001724
0.00217793
0.0021136
0.00205489
0.00200066
0.00195027
0.00190457
0.00186072
0.00181581
0.00177516
0.00173805
0.00170254
0.00220524
0.00213415
0.0020688
0.00200858
0.00195326
0.00190237
0.00185478
0.00181061
0.00176921
0.00173216
0.00169233
0.00199853
0.00194923
0.00190126
0.00185785
0.00181623
0.00177859
0.00174369
0.00171113
0.00168144
0.00165477
0.00163049
0.00181248
0.00171971
0.00162529
0.00154977
0.00147372
0.00141055
0.00135276
0.00129318
0.00124115
0.00119893
0.0011654
0.00237299
0.00225514
0.00213911
0.00204058
0.00194362
0.00186033
0.00178009
0.00170543
0.00163704
0.00156848
0.00151028
0.00272267
0.00257538
0.00244113
0.00231894
0.00220698
0.00210406
0.00201099
0.00192221
0.00184446
0.0017679
0.00170039
0.00292327
0.00276088
0.00261336
0.00247899
0.00235629
0.00224393
0.00214097
0.00204581
0.00195929
0.00187469
0.00179407
0.00201036
0.00195448
0.00190114
0.00184946
0.00180211
0.00176047
0.00172103
0.00168461
0.0016513
0.00161817
0.00158805
0.002319
0.00219308
0.00207032
0.00196431
0.00185849
0.00176998
0.00168297
0.00160558
0.00153361
0.00146262
0.00140179
0.0030084
0.00283686
0.00267861
0.00253423
0.00240034
0.00227863
0.00216582
0.00206078
0.00196369
0.0018724
0.00178874
0.00351213
0.00330779
0.00312097
0.00294989
0.0027927
0.00264805
0.00251493
0.00239165
0.00227783
0.00217131
0.00207333
0.00381354
0.00358925
0.00338463
0.00319749
0.0030259
0.00286817
0.00272292
0.00258878
0.0024649
0.00234926
0.00224163
0.00207983
0.00201241
0.00195103
0.00189463
0.00184338
0.00179648
0.00175314
0.00171295
0.00167663
0.00164021
0.00160459
0.00272521
0.0025785
0.00244334
0.00231948
0.00220482
0.00209957
0.00200223
0.00191207
0.00182875
0.00175
0.00167606
0.00351138
0.00330992
0.00312548
0.00295635
0.00280067
0.00265734
0.00252513
0.00240276
0.00228931
0.00218366
0.002085
0.00411501
0.00387287
0.00365178
0.00344935
0.00326349
0.00309245
0.00293474
0.00278898
0.00265403
0.00252863
0.00241216
0.00448945
0.00422228
0.00397853
0.00375556
0.00355106
0.00336304
0.00318977
0.00302975
0.00288167
0.00274422
0.00261665
0.002152
0.00207883
0.00201197
0.00195068
0.00189449
0.00184289
0.00179542
0.00175197
0.00171236
0.00167518
0.00163986
0.00294161
0.002781
0.00263452
0.00250056
0.0023777
0.00226482
0.00216083
0.00206478
0.00197595
0.00189356
0.00181605
0.00381967
0.00359787
0.00339541
0.00321011
0.00304005
0.00288361
0.0027394
0.00260614
0.00248278
0.0023682
0.0022617
0.00449214
0.00422566
0.00398255
0.00376015
0.00355616
0.00336859
0.00319574
0.00303608
0.00288829
0.00275113
0.00262382
0.00491524
0.00462097
0.00435254
0.00410702
0.00388189
0.00367496
0.0034843
0.00330826
0.00314537
0.00299429
0.0028541
0.00506039
0.00475676
0.00447979
0.00422648
0.00399421
0.00378074
0.00358408
0.00340251
0.00323451
0.00307871
0.00293415
0.00219769
0.00212296
0.0020544
0.00199138
0.00193345
0.00188012
0.00183103
0.0017862
0.00174462
0.00170614
0.00166954
0.00300113
0.00283368
0.00268162
0.00254312
0.0024166
0.00230068
0.00219422
0.00209618
0.00200588
0.00192201
0.00184473
0.00391865
0.00368839
0.00347843
0.0032865
0.00311058
0.00294896
0.00280013
0.00266275
0.00253575
0.00241784
0.00230856
0.00461785
0.00434254
0.00409144
0.0038618
0.00365125
0.00345774
0.00327946
0.00311486
0.00296258
0.00282132
0.00269028
0.00506032
0.00475671
0.00447976
0.00422647
0.00399424
0.00378081
0.00358419
0.00340268
0.00323474
0.00307902
0.00293453
0.00521299
0.00489967
0.00461386
0.00435245
0.00411278
0.00389251
0.0036896
0.00350228
0.00332898
0.00316829
0.0030192
0.0022055
0.00213432
0.00206888
0.00200856
0.00195318
0.00190218
0.00185449
0.00181025
0.00176878
0.00173174
0.00169192
0.00292345
0.00276084
0.00261313
0.00247865
0.00235586
0.00224347
0.0021405
0.00204537
0.00195891
0.0018744
0.00179388
0.00381337
0.00358903
0.00338439
0.00319725
0.00302567
0.00286801
0.00272284
0.00258881
0.00246506
0.0023496
0.0022421
0.00448927
0.00422211
0.0039784
0.00375547
0.00355104
0.0033631
0.00318993
0.00303001
0.00288206
0.00274475
0.00261731
0.00491514
0.00462089
0.00435248
0.004107
0.00388191
0.00367502
0.00348442
0.00330843
0.00314561
0.00299459
0.00285447
0.00506028
0.00475668
0.00447975
0.00422648
0.00399426
0.00378083
0.00358422
0.0034027
0.00323476
0.00307902
0.00293453
0.0021781
0.00211379
0.0020551
0.00200086
0.00195047
0.00190468
0.00186091
0.001816
0.00177533
0.00173814
0.00170282
0.00166918
0.00272304
0.00257584
0.00244159
0.00231952
0.00220749
0.00210488
0.00201159
0.00192324
0.00184532
0.0017688
0.00170113
0.00163541
0.00351198
0.00330778
0.0031211
0.00295018
0.00279314
0.00264867
0.00251568
0.0023926
0.00227893
0.00217253
0.00207469
0.00411482
0.00387276
0.00365176
0.00344944
0.0032637
0.00309278
0.0029352
0.00278957
0.00265476
0.00252949
0.00241316
0.00449207
0.00422562
0.00398254
0.00376019
0.00355626
0.00336876
0.00319597
0.00303637
0.00288865
0.00275155
0.0026243
0.00461775
0.00434249
0.00409144
0.00386184
0.00365132
0.00345783
0.00327956
0.00311496
0.00296267
0.00282139
0.00269033
0.00213695
0.00208336
0.00203062
0.00198401
0.00194027
0.00190061
0.00186296
0.00182724
0.00179172
0.00175662
0.00172472
0.00169556
0.00237377
0.00225655
0.00214096
0.00204286
0.00194602
0.00186318
0.00178238
0.00170924
0.00163904
0.00157137
0.00151326
0.00145452
0.00300804
0.00283703
0.00267927
0.00253536
0.00240181
0.00228049
0.0021678
0.00206315
0.00196604
0.00187472
0.0017913
0.00351068
0.00330944
0.00312525
0.00295638
0.00280095
0.00265786
0.00252586
0.00240368
0.0022904
0.00218486
0.00208635
0.00381906
0.00359737
0.00339503
0.00320985
0.00303992
0.00288361
0.00273951
0.00260637
0.00248311
0.00236862
0.00226221
0.00391795
0.00368787
0.00347806
0.00328624
0.00311042
0.00294888
0.0028001
0.00266277
0.00253579
0.00241789
0.00230863
0.00208095
0.00203539
0.00199025
0.0019493
0.00191057
0.00187499
0.00184177
0.00181036
0.0017804
0.00175236
0.00172694
0.00170299
0.00181692
0.00172455
0.00163128
0.00155546
0.00147989
0.00141606
0.00135785
0.00129857
0.00124466
0.00120106
0.00116642
0.00113362
0.0023177
0.00219276
0.0020711
0.00196586
0.0018607
0.00177256
0.00168576
0.00160833
0.00153641
0.00146466
0.00140392
0.00272288
0.0025765
0.00244176
0.00231834
0.0022041
0.00209922
0.0020022
0.0019123
0.00182916
0.00175064
0.00167663
0.00293961
0.0027791
0.00263278
0.00249902
0.00237639
0.00226373
0.00215995
0.00206411
0.00197546
0.00189322
0.00181588
0.00299918
0.00283197
0.00268015
0.00254186
0.00241552
0.00229978
0.00219347
0.00209557
0.00200537
0.00192158
0.00184436
0.00234182
0.00229859
0.00225638
0.00221812
0.00218065
0.00214633
0.00211363
0.00208241
0.00205286
0.00202533
0.00199996
0.00197549
0.00199879
0.00194986
0.00190251
0.00185927
0.0018178
0.00178009
0.00174506
0.00171237
0.00168242
0.00165538
0.00163098
0.00160828
0.00200878
0.0019531
0.00190064
0.0018491
0.00180192
0.00176041
0.00172112
0.00168469
0.00165135
0.00161841
0.00158818
0.00207793
0.00201067
0.00194946
0.00189331
0.00184224
0.00179555
0.00175239
0.00171234
0.00167603
0.00163998
0.00160438
0.00215053
0.00207735
0.00201053
0.00194934
0.00189324
0.00184177
0.00179442
0.00175106
0.00171153
0.00167449
0.00163928
0.0021966
0.0021218
0.00205323
0.00199026
0.00193244
0.00187922
0.0018302
0.00178547
0.00174396
0.00170555
0.00166902
)
;

boundaryField
{
    inlet
    {
        type            fixedValue;
        value           nonuniform List<scalar> 0();
    }
    ami1
    {
        type            cyclicAMI;
        value           nonuniform List<scalar> 0();
    }
    walls
    {
        type            kqRWallFunction;
        value           nonuniform List<scalar> 
248
(
0.00234057
0.00208067
0.00213738
0.00217793
0.00220524
0.00229702
0.00203441
0.00208303
0.0021136
0.00213415
0.00225455
0.00198889
0.00203022
0.00205489
0.0020688
0.00221629
0.00194781
0.00198352
0.00200066
0.00200858
0.00217879
0.00190903
0.00193977
0.00195027
0.00195326
0.00214461
0.00187346
0.00190005
0.00190457
0.00190237
0.0021121
0.00184041
0.00186246
0.00186072
0.00185478
0.0020809
0.00180896
0.00182656
0.00181581
0.00181061
0.0020517
0.00177925
0.00179099
0.00177516
0.00176921
0.00202442
0.00175149
0.00175592
0.00173805
0.00173216
0.00199928
0.00172608
0.001724
0.00170254
0.00169233
0.00234182
0.00199879
0.00200878
0.00207793
0.00215053
0.0021966
0.00229859
0.00194986
0.0019531
0.00201067
0.00207735
0.0021218
0.00225638
0.00190251
0.00190064
0.00194946
0.00201053
0.00205323
0.00221812
0.00185927
0.0018491
0.00189331
0.00194934
0.00199026
0.00218065
0.0018178
0.00180192
0.00184224
0.00189324
0.00193244
0.00214633
0.00178009
0.00176041
0.00179555
0.00184177
0.00187922
0.00211363
0.00174506
0.00172112
0.00175239
0.00179442
0.0018302
0.00208241
0.00171237
0.00168469
0.00171234
0.00175106
0.00178547
0.00205286
0.00168242
0.00165135
0.00167603
0.00171153
0.00174396
0.00202533
0.00165538
0.00161841
0.00163998
0.00167449
0.00170555
0.00199996
0.00163098
0.00158818
0.00160438
0.00163928
0.00166902
0.00197549
0.00160828
0.00234057
0.00199853
0.00201036
0.00207983
0.002152
0.00219769
0.0022055
0.0021781
0.00213695
0.00208095
0.00234182
0.00229702
0.00194923
0.00195448
0.00201241
0.00207883
0.00212296
0.00213432
0.00211379
0.00208336
0.00203539
0.00229859
0.00225455
0.00190126
0.00190114
0.00195103
0.00201197
0.0020544
0.00206888
0.0020551
0.00203062
0.00199025
0.00225638
0.00221629
0.00185785
0.00184946
0.00189463
0.00195068
0.00199138
0.00200856
0.00200086
0.00198401
0.0019493
0.00221812
0.00217879
0.00181623
0.00180211
0.00184338
0.00189449
0.00193345
0.00195318
0.00195047
0.00194027
0.00191057
0.00218065
0.00214461
0.00177859
0.00176047
0.00179648
0.00184289
0.00188012
0.00190218
0.00190468
0.00190061
0.00187499
0.00214633
0.0021121
0.00174369
0.00172103
0.00175314
0.00179542
0.00183103
0.00185449
0.00186091
0.00186296
0.00184177
0.00211363
0.0020809
0.00171113
0.00168461
0.00171295
0.00175197
0.0017862
0.00181025
0.001816
0.00182724
0.00181036
0.00208241
0.0020517
0.00168144
0.0016513
0.00167663
0.00171236
0.00174462
0.00176878
0.00177533
0.00179172
0.0017804
0.00205286
0.00202442
0.00165477
0.00161817
0.00164021
0.00167518
0.00170614
0.00173174
0.00173814
0.00175662
0.00175236
0.00202533
0.00199928
0.00163049
0.00158805
0.00160459
0.00163986
0.00166954
0.00169192
0.00170282
0.00172472
0.00172694
0.00199996
0.00166918
0.00169556
0.00170299
0.00197549
)
;
    }
    ami2
    {
        type            cyclicAMI;
        value           nonuniform List<scalar> 0();
    }
    outlet
    {
        type            zeroGradient;
    }
    procBoundary8to0
    {
        type            processor;
        value           nonuniform List<scalar> 
29
(
0.00238568
0.00212921
0.0021947
0.00224755
0.00228253
0.00205151
0.00191953
0.00251307
0.00288559
0.00310241
0.00207289
0.00245765
0.0031966
0.00373729
0.00406031
0.00215426
0.00288344
0.00373159
0.00438115
0.00478329
0.00223291
0.00311629
0.00406238
0.00478486
0.00523875
0.00539418
0.00492042
0.0053941
0.00555744
)
;
    }
    procBoundary8to1
    {
        type            processor;
        value           nonuniform List<scalar> 
33
(
0.00227985
0.00318481
0.00417123
0.00228288
0.00310274
0.00406007
0.00478308
0.00523865
0.00539408
0.00224769
0.00288595
0.00373694
0.00438091
0.00478482
0.00492031
0.00219412
0.00251377
0.00319587
0.00373079
0.00406177
0.00417044
0.00212891
0.00192303
0.00245608
0.00288102
0.00311429
0.00318269
0.00238619
0.00205106
0.00207093
0.00215226
0.00223157
0.00227908
)
;
    }
    procBoundary8to7
    {
        type            processor;
        value           nonuniform List<scalar> 
68
(
0.00197572
0.00170303
0.00169518
0.00166928
0.00165601
0.00160891
0.00113602
0.00145329
0.00163404
0.00172632
0.00156101
0.0013481
0.00171238
0.00198235
0.00214163
0.00157411
0.00160718
0.00199413
0.00230365
0.00249746
0.00160677
0.00174473
0.0021629
0.00250506
0.00272313
0.0027991
0.00163807
0.00176851
0.00220644
0.00256793
0.00279956
0.0028799
0.0016557
0.0016557
0.00172594
0.00172594
0.00214238
0.00249828
0.00272357
0.00279953
0.0016382
0.00157815
0.00198383
0.00198383
0.00230469
0.00250554
0.0025679
0.00166974
0.00140615
0.00171455
0.00171455
0.00199539
0.00216336
0.00220637
0.00168136
0.00110615
0.00134948
0.00134948
0.00160875
0.00174469
0.00176806
0.00195297
0.00158767
0.00156101
0.00156101
0.00157394
0.00160634
0.00163768
)
;
    }
    procBoundary8to9
    {
        type            processor;
        value           nonuniform List<scalar> 
132
(
0.00219777
0.00212314
0.00205471
0.00199182
0.00193399
0.00188076
0.00183171
0.00178694
0.00174538
0.00170692
0.00167024
0.00300083
0.00283378
0.00268207
0.00254385
0.00241756
0.0023018
0.00219545
0.00209746
0.00200715
0.00192325
0.00184584
0.00391858
0.0036885
0.00347869
0.00328688
0.00311104
0.00294947
0.00280065
0.00266325
0.00253618
0.00241817
0.0023088
0.0046179
0.00434261
0.00409151
0.00386188
0.00365132
0.00345777
0.00327945
0.00311478
0.00296241
0.00282103
0.00268988
0.0046179
0.00434261
0.00409151
0.00386188
0.00365132
0.00345777
0.00327945
0.00311478
0.00296241
0.00282103
0.00268988
0.00491523
0.00462096
0.00435253
0.00410703
0.00388191
0.00367499
0.00348435
0.00330832
0.00314544
0.00299435
0.00285416
0.00506043
0.00475681
0.00447985
0.00422656
0.00399432
0.00378088
0.00358425
0.00340271
0.00323475
0.00307899
0.00293447
0.00491527
0.00462102
0.00435262
0.00410714
0.00388205
0.00367515
0.00348453
0.00330851
0.00314564
0.00299457
0.00285439
0.00448944
0.00422233
0.00397865
0.00375575
0.00355132
0.00336337
0.00319017
0.00303021
0.0028822
0.00274481
0.00261729
0.00381339
0.00358917
0.00338463
0.00319755
0.00302602
0.00286837
0.00272318
0.00258914
0.00246531
0.00234978
0.00224219
0.00292283
0.00276038
0.00261284
0.00247845
0.00235575
0.00224346
0.00214044
0.00204552
0.00195886
0.00187445
0.00179353
0.00220513
0.00213392
0.00206849
0.0020082
0.00195281
0.00190183
0.00185419
0.00180997
0.00176857
0.00173158
0.00169179
)
;
    }
}


// ************************************************************************* //
