/*--------------------------------*- C++ -*----------------------------------*\
| =========                 |                                                 |
| \\      /  F ield         | OpenFOAM: The Open Source CFD Toolbox           |
|  \\    /   O peration     | Version:  2212                                  |
|   \\  /    A nd           | Website:  www.openfoam.com                      |
|    \\/     M anipulation  |                                                 |
\*---------------------------------------------------------------------------*/
FoamFile
{
    version     2.0;
    format      ascii;
    arch        "LSB;label=32;scalar=64";
    class       volScalarField;
    location    "0.9";
    object      nut;
}
// * * * * * * * * * * * * * * * * * * * * * * * * * * * * * * * * * * * * * //

dimensions      [0 2 -1 0 0 0 0];

internalField   nonuniform List<scalar> 
680
(
6.53264e-06
6.33415e-06
6.16333e-06
6.02164e-06
5.93934e-06
5.84859e-06
1.54556e-05
1.47321e-05
1.41058e-05
1.35691e-05
1.31442e-05
1.2841e-05
2.3915e-05
2.27404e-05
2.1707e-05
2.07989e-05
2.00073e-05
1.9343e-05
3.0818e-05
2.92417e-05
2.78433e-05
2.65981e-05
2.54883e-05
2.45327e-05
3.46311e-05
3.28386e-05
3.12402e-05
2.98065e-05
2.85243e-05
2.75009e-05
3.46264e-05
3.28306e-05
3.12269e-05
2.97839e-05
2.84819e-05
2.73683e-05
3.25973e-05
3.08092e-05
2.92271e-05
2.7819e-05
2.65574e-05
2.5428e-05
2.45359e-05
2.52459e-05
2.3908e-05
2.2729e-05
2.1688e-05
2.07672e-05
1.99609e-05
1.93148e-05
1.62952e-05
1.54529e-05
1.47272e-05
1.40964e-05
1.35502e-05
1.31051e-05
1.27894e-05
6.76275e-06
6.53264e-06
6.33414e-06
6.16333e-06
6.02163e-06
5.93932e-06
5.8486e-06
1.54529e-05
1.47272e-05
1.40964e-05
1.35502e-05
1.31051e-05
1.27893e-05
8.6455e-05
7.96549e-05
7.34577e-05
6.79531e-05
6.37465e-05
5.49661e-05
0.000128896
0.000120681
0.00011329
0.000106585
0.000100953
9.44505e-05
0.000154993
0.000145509
0.000136867
0.000128945
0.000121652
0.000115149
0.000167478
0.000157371
0.000148109
0.000139549
0.000131561
0.000123783
0.000167457
0.000157336
0.000148048
0.000139442
0.00013137
0.000123435
0.000165428
0.000154954
0.000145443
0.000136753
0.000128749
0.000121308
0.000114381
0.00013811
0.000128869
0.000120634
0.000113206
0.000106431
0.000100646
9.48257e-05
9.38551e-05
8.64552e-05
7.9655e-05
7.34578e-05
6.79532e-05
6.37466e-05
5.49652e-05
1.6297e-05
1.54556e-05
1.47321e-05
1.41058e-05
1.35691e-05
1.31442e-05
1.2841e-05
2.39081e-05
2.27291e-05
2.16881e-05
2.07672e-05
1.99608e-05
1.93145e-05
0.000128868
0.000120634
0.000113206
0.000106431
0.000100646
9.48286e-05
0.000199896
0.000188447
0.000178017
0.000168465
0.000159626
0.000149864
0.000239406
0.000226324
0.000214374
0.000203387
0.000193126
0.000182887
0.00025783
0.000243939
0.000231225
0.000219495
0.00020844
0.000197134
0.000257824
0.000243929
0.00023121
0.000219475
0.000208439
0.000197342
0.00025379
0.000239395
0.000226307
0.000214347
0.000203339
0.000193031
0.000182564
0.000212516
0.000199896
0.000188447
0.000178017
0.000168466
0.000159626
0.000149864
0.000138126
0.000128896
0.000120681
0.00011329
0.000106585
0.000100953
9.44475e-05
2.52502e-05
2.3915e-05
2.27404e-05
2.1707e-05
2.07989e-05
2.00072e-05
1.93422e-05
3.08092e-05
2.92272e-05
2.7819e-05
2.65575e-05
2.5428e-05
2.45356e-05
0.000154953
0.000145443
0.000136753
0.000128749
0.000121308
0.00011438
0.000239395
0.000226307
0.000214346
0.000203339
0.000193031
0.000182563
0.000287021
0.00027193
0.000258125
0.00024539
0.000233381
0.000221235
0.000309318
0.000293254
0.000278538
0.000264922
0.000251957
0.000238412
0.000309316
0.000293253
0.000278537
0.000264931
0.000252028
0.000238838
0.0003036
0.000287021
0.00027193
0.000258125
0.000245391
0.000233381
0.000221236
0.000253797
0.000239406
0.000226324
0.000214375
0.000203387
0.000193126
0.000182884
0.000165451
0.000154992
0.000145508
0.000136866
0.000128944
0.000121651
0.000115148
3.26027e-05
3.08181e-05
2.92418e-05
2.78433e-05
2.65982e-05
2.54884e-05
2.45335e-05
3.46264e-05
3.28306e-05
3.12269e-05
2.97838e-05
2.84819e-05
2.73682e-05
0.000167457
0.000157336
0.000148048
0.000139442
0.000131371
0.000123436
0.000257824
0.000243929
0.000231211
0.000219476
0.000208439
0.000197338
0.000309316
0.000293253
0.000278537
0.000264931
0.000252027
0.000238836
0.000333586
0.000316476
0.000300778
0.000286239
0.000272422
0.000258373
0.000333586
0.000316476
0.000300778
0.000286239
0.000272422
0.000258373
0.000326936
0.000309318
0.000293254
0.000278538
0.000264922
0.000251957
0.000238411
0.000273089
0.00025783
0.000243939
0.000231225
0.000219495
0.000208439
0.00019713
0.000178584
0.000167477
0.000157371
0.000148109
0.000139549
0.00013156
0.000123783
3.66537e-05
3.46312e-05
3.28386e-05
3.12403e-05
2.98065e-05
2.85244e-05
2.7501e-05
3.46311e-05
3.28386e-05
3.12402e-05
2.98065e-05
2.85243e-05
2.75009e-05
0.000167478
0.000157371
0.00014811
0.00013955
0.000131561
0.000123785
0.00025783
0.000243939
0.000231226
0.000219495
0.00020844
0.000197132
0.000309318
0.000293254
0.000278538
0.000264922
0.000251957
0.000238412
0.000333586
0.000316476
0.000300778
0.000286239
0.000272422
0.000258373
0.000333586
0.000316476
0.000300778
0.000286239
0.000272422
0.000258373
0.000326935
0.000309316
0.000293253
0.000278537
0.000264931
0.000252028
0.000238837
0.000273085
0.000257824
0.000243929
0.00023121
0.000219475
0.000208438
0.000197337
0.000178572
0.000167457
0.000157336
0.000148048
0.000139442
0.00013137
0.000123436
3.66508e-05
3.46264e-05
3.28306e-05
3.12268e-05
2.97838e-05
2.84819e-05
2.73683e-05
3.0818e-05
2.92417e-05
2.78433e-05
2.65982e-05
2.54884e-05
2.45333e-05
0.000154993
0.000145509
0.000136867
0.000128945
0.000121652
0.000115149
0.000239407
0.000226324
0.000214375
0.000203387
0.000193125
0.000182884
0.000287021
0.00027193
0.000258125
0.00024539
0.000233381
0.000221235
0.000309316
0.000293253
0.000278537
0.000264931
0.000252027
0.000238837
0.000309318
0.000293254
0.000278538
0.000264922
0.000251957
0.000238411
0.0003036
0.000287021
0.00027193
0.000258125
0.00024539
0.000233381
0.000221237
0.00025379
0.000239395
0.000226307
0.000214346
0.000203339
0.00019303
0.000182563
0.000165427
0.000154954
0.000145443
0.000136753
0.000128749
0.000121308
0.000114381
3.25973e-05
3.08092e-05
2.92271e-05
2.78189e-05
2.65574e-05
2.5428e-05
2.45356e-05
2.3915e-05
2.27404e-05
2.1707e-05
2.07989e-05
2.00073e-05
1.93422e-05
0.000128896
0.000120681
0.00011329
0.000106585
0.000100953
9.44474e-05
0.000199896
0.000188447
0.000178016
0.000168465
0.000159625
0.000149863
0.000239395
0.000226307
0.000214346
0.000203339
0.00019303
0.000182563
0.000257824
0.000243929
0.00023121
0.000219475
0.000208438
0.000197338
0.00025783
0.000243939
0.000231226
0.000219495
0.000208439
0.000197129
0.000253797
0.000239406
0.000226324
0.000214374
0.000203386
0.000193125
0.000182882
0.000212516
0.000199896
0.000188447
0.000178017
0.000168465
0.000159625
0.000149862
0.00013811
0.000128869
0.000120634
0.000113206
0.000106431
0.000100647
9.48285e-05
2.52459e-05
2.3908e-05
2.2729e-05
2.1688e-05
2.07671e-05
1.99608e-05
1.93143e-05
1.54556e-05
1.47321e-05
1.41058e-05
1.35692e-05
1.31442e-05
1.28411e-05
8.64551e-05
7.9655e-05
7.34578e-05
6.79532e-05
6.37465e-05
5.4966e-05
0.000128868
0.000120634
0.000113206
0.000106431
0.000100646
9.48284e-05
0.000154953
0.000145443
0.000136753
0.000128749
0.000121308
0.00011438
0.000167457
0.000157336
0.000148048
0.000139442
0.000131371
0.000123436
0.000167478
0.000157371
0.000148109
0.00013955
0.000131561
0.000123784
0.000165451
0.000154992
0.000145508
0.000136866
0.000128944
0.000121651
0.000115149
0.000138126
0.000128896
0.000120681
0.00011329
0.000106585
0.000100953
9.44445e-05
9.38551e-05
8.64552e-05
7.9655e-05
7.34578e-05
6.79531e-05
6.37466e-05
5.49654e-05
1.62952e-05
1.54529e-05
1.47272e-05
1.40964e-05
1.35502e-05
1.31051e-05
1.27892e-05
6.53264e-06
6.33415e-06
6.16333e-06
6.02164e-06
5.93933e-06
5.8486e-06
1.54529e-05
1.47272e-05
1.40964e-05
1.35503e-05
1.31051e-05
1.27893e-05
2.39081e-05
2.27291e-05
2.16881e-05
2.07672e-05
1.99608e-05
1.93144e-05
3.08092e-05
2.92272e-05
2.7819e-05
2.65574e-05
2.5428e-05
2.45356e-05
3.46264e-05
3.28306e-05
3.12268e-05
2.97838e-05
2.84819e-05
2.73682e-05
3.46311e-05
3.28386e-05
3.12402e-05
2.98065e-05
2.85243e-05
2.75009e-05
3.26027e-05
3.0818e-05
2.92418e-05
2.78433e-05
2.65982e-05
2.54884e-05
2.45335e-05
2.52502e-05
2.3915e-05
2.27405e-05
2.17071e-05
2.07989e-05
2.00073e-05
1.93422e-05
1.6297e-05
1.54556e-05
1.47321e-05
1.41058e-05
1.35691e-05
1.31442e-05
1.28412e-05
6.76275e-06
6.53264e-06
6.33414e-06
6.16332e-06
6.02163e-06
5.93931e-06
5.84861e-06
5.67336e-06
5.24427e-06
4.8343e-06
4.57934e-06
1.09005e-05
1.02822e-05
9.74359e-06
9.33181e-06
1.55141e-05
1.49864e-05
1.44884e-05
1.14007e-05
1.07057e-05
1.00221e-05
9.47089e-06
2.51162e-05
2.29782e-05
2.17484e-05
2.17096e-05
5.34611e-05
5.3323e-05
5.22056e-05
1.65461e-05
1.55861e-05
1.48034e-05
4.83962e-05
4.98487e-05
4.92563e-05
0.000110828
0.000103702
9.85335e-05
2.01908e-05
1.9363e-05
1.86318e-05
8.50832e-05
8.06496e-05
7.68788e-05
0.000142299
0.000137352
0.000132081
)
;

boundaryField
{
    inlet
    {
        type            calculated;
        value           nonuniform List<scalar> 0();
    }
    ami1
    {
        type            cyclicAMI;
        value           nonuniform List<scalar> 
100
(
1.46034e-05
1.82839e-05
2.05318e-05
2.66129e-05
2.89654e-05
2.62006e-05
2.64244e-05
1.94107e-05
1.67043e-05
1.46033e-05
1.67043e-05
4.48206e-05
9.02499e-05
0.000109423
0.000117347
0.000118325
0.0001065
9.11078e-05
4.48193e-05
1.82835e-05
1.94111e-05
9.112e-05
0.000139
0.000176313
0.000189391
0.000190423
0.000175156
0.000138993
9.02292e-05
2.05309e-05
2.64272e-05
0.000106513
0.000175158
0.000213892
0.000229852
0.000230867
0.000213891
0.000176307
0.000109385
2.66117e-05
2.62012e-05
0.000118325
0.000190422
0.000230866
0.000250317
0.000250317
0.000229847
0.000189383
0.000117338
2.89654e-05
2.89651e-05
0.00011734
0.000189385
0.000229847
0.000250317
0.000250317
0.000230863
0.00019042
0.000118323
2.62011e-05
2.66118e-05
0.000109387
0.000176308
0.00021389
0.000230864
0.000229847
0.000213888
0.000175158
0.000106513
2.6427e-05
2.0531e-05
9.02301e-05
0.000138996
0.000175158
0.000190422
0.000189384
0.000176309
0.000138996
9.11192e-05
1.9411e-05
1.82836e-05
4.48204e-05
9.11205e-05
0.000106514
0.000118326
0.000117339
0.000109386
9.02293e-05
4.48199e-05
1.67043e-05
1.46035e-05
1.67044e-05
1.94111e-05
2.64271e-05
2.6201e-05
2.8965e-05
2.66118e-05
2.05311e-05
1.82838e-05
1.46035e-05
)
;
    }
    walls
    {
        type            nutkWallFunction;
        blending        stepwise;
        value           uniform 0;
    }
    ami2
    {
        type            cyclicAMI;
        value           nonuniform List<scalar> 
12
(
1.62072e-05
1.74705e-05
1.77298e-05
1.94245e-05
2.60417e-05
5.93958e-05
2.117e-05
5.2558e-05
0.000116716
2.13244e-05
9.30609e-05
0.000144482
)
;
    }
    outlet
    {
        type            calculated;
        value           nonuniform List<scalar> 0();
    }
    procBoundary2to0
    {
        type            processor;
        value           nonuniform List<scalar> 
28
(
4.4212e-06
9.06565e-06
1.40342e-05
2.00541e-05
1.91415e-05
1.40342e-05
1.84327e-05
9.08847e-06
1.41329e-05
2.18932e-05
5.16021e-05
4.93208e-05
8.94126e-05
8.37192e-05
5.16021e-05
7.90109e-05
1.41329e-05
4.93208e-05
0.000145753
0.000139591
9.46791e-05
0.000133562
1.79696e-05
7.38695e-05
0.000187727
0.000179054
0.000127041
0.000171273
)
;
    }
    procBoundary2to1
    {
        type            processor;
        value           nonuniform List<scalar> 9(2.26024e-05 2.18523e-05 2.11051e-05 0.000105003 9.88586e-05 9.3531e-05 0.000170434 0.000161725 0.000154135);
    }
    procBoundary2to3
    {
        type            processor;
        value           nonuniform List<scalar> 
110
(
6.76275e-06
1.6297e-05
2.52502e-05
3.26027e-05
3.66537e-05
3.66508e-05
3.66508e-05
3.46297e-05
2.67738e-05
1.72645e-05
7.02575e-06
1.62952e-05
9.38553e-05
0.000138126
0.00016545
0.000178584
0.000178572
0.000178572
0.000177019
0.000148368
0.000102131
1.72653e-05
2.52459e-05
0.000138111
0.000212516
0.000253797
0.000273089
0.000273085
0.000273085
0.000269698
0.000226476
0.000148378
2.67765e-05
3.25973e-05
0.000165428
0.00025379
0.0003036
0.000326936
0.000326935
0.000326935
0.000321891
0.000269702
0.000177032
3.46331e-05
3.66508e-05
0.000178573
0.000273085
0.000326935
0.000352314
0.000352314
0.000352314
0.00034633
0.000289933
0.00019087
3.89491e-05
3.66537e-05
0.000178584
0.000273089
0.000326936
0.000352314
0.000352313
0.000352313
0.000346329
0.000289931
0.000190863
3.89473e-05
3.26027e-05
0.00016545
0.000253797
0.0003036
0.000326935
0.000326936
0.000326936
0.000321891
0.000269698
0.000177019
3.46297e-05
2.52502e-05
0.000138126
0.000212516
0.00025379
0.000273085
0.000273089
0.000273089
0.000269702
0.000226476
0.000148368
2.67738e-05
1.6297e-05
9.38553e-05
0.000138111
0.000165428
0.000178573
0.000178584
0.000178584
0.000177032
0.000148378
0.000102131
1.72645e-05
6.76275e-06
1.62952e-05
2.52459e-05
3.25973e-05
3.66508e-05
3.66537e-05
3.66537e-05
3.46331e-05
2.67765e-05
1.72653e-05
7.02574e-06
)
;
    }
}


// ************************************************************************* //
