/*--------------------------------*- C++ -*----------------------------------*\
| =========                 |                                                 |
| \\      /  F ield         | OpenFOAM: The Open Source CFD Toolbox           |
|  \\    /   O peration     | Version:  2212                                  |
|   \\  /    A nd           | Website:  www.openfoam.com                      |
|    \\/     M anipulation  |                                                 |
\*---------------------------------------------------------------------------*/
FoamFile
{
    version     2.0;
    format      ascii;
    arch        "LSB;label=32;scalar=64";
    class       volVectorField;
    location    "2.5";
    object      U;
}
// * * * * * * * * * * * * * * * * * * * * * * * * * * * * * * * * * * * * * //

dimensions      [0 1 -1 0 0 0 0];

internalField   nonuniform List<vector> 
680
(
(0.0956456 -0.00836005 -0.00836005)
(0.0904939 0.00152204 0.00152199)
(0.0790684 0.00242975 0.00242964)
(0.0713015 0.0014878 0.00148761)
(0.0661801 0.000830576 0.000830244)
(0.0623237 0.000563712 0.000563185)
(0.0592226 0.000426523 0.000425487)
(0.0999088 0.001297 0.000712553)
(0.0969669 0.00365589 0.00274723)
(0.0935347 0.00264023 0.00211809)
(0.0895896 0.00182042 0.00162044)
(0.0858329 0.00152875 0.0013904)
(0.0825913 0.00135118 0.00116097)
(0.0798672 0.00117942 0.00089676)
(0.099413 0.000345222 0.000270228)
(0.0988664 0.00201898 0.00187488)
(0.0979217 0.002573 0.00218894)
(0.0963663 0.00237963 0.00190825)
(0.0946344 0.00211371 0.00162649)
(0.0929738 0.00192612 0.00141849)
(0.0913668 0.00180026 0.00127102)
(0.0995405 0.00024501 0.000321898)
(0.0992576 0.00105545 0.00154093)
(0.098849 0.00150199 0.00211446)
(0.0981251 0.00157881 0.00209167)
(0.0973373 0.00151373 0.00188629)
(0.0965857 0.00144445 0.00166621)
(0.0958666 0.00140667 0.00149865)
(0.0993801 3.37498e-05 5.89204e-05)
(0.0992677 0.00027425 0.0012)
(0.0989804 0.000432079 0.00188849)
(0.0984746 0.000482945 0.00200652)
(0.0979954 0.000477941 0.00191479)
(0.0975704 0.000463935 0.00173493)
(0.09718 0.000450064 0.00154765)
(0.0993802 -3.37745e-05 5.89585e-05)
(0.0992677 -0.000274377 0.00120003)
(0.0989803 -0.000432344 0.00188851)
(0.0984744 -0.0004834 0.00200656)
(0.0979951 -0.000478704 0.00191488)
(0.0975698 -0.000465228 0.0017351)
(0.097179 -0.000452259 0.0015479)
(0.0995405 -0.000245021 0.0003219)
(0.0992576 -0.00105551 0.00154094)
(0.0988489 -0.0015021 0.00211452)
(0.0981247 -0.00157901 0.00209177)
(0.0973366 -0.00151411 0.00188644)
(0.0965843 -0.00144514 0.00166643)
(0.0958641 -0.00140782 0.00149895)
(0.099413 -0.000345211 0.000270232)
(0.0988664 -0.00201894 0.00187491)
(0.0979215 -0.00257291 0.00218904)
(0.096366 -0.00237949 0.00190842)
(0.0946336 -0.00211349 0.00162673)
(0.0929725 -0.00192575 0.00141884)
(0.0913644 -0.0017997 0.00127159)
(0.0999088 -0.00129699 0.000712559)
(0.0969669 -0.00365581 0.00274727)
(0.0935346 -0.00264008 0.00211817)
(0.0895894 -0.00182017 0.0016206)
(0.0858325 -0.00152827 0.00139062)
(0.0825907 -0.00135043 0.00116139)
(0.0798661 -0.00117801 0.000897489)
(0.0956456 0.00836005 -0.00836005)
(0.0904939 -0.00152199 0.00152204)
(0.0790684 -0.00242964 0.00242975)
(0.0713015 -0.00148761 0.0014878)
(0.0661801 -0.000830249 0.000830573)
(0.0623237 -0.000563191 0.000563711)
(0.0592225 -0.000425494 0.000426521)
(0.0999088 0.000712559 0.00129699)
(0.0969669 0.00274726 0.0036558)
(0.0935346 0.00211817 0.00264007)
(0.0895894 0.0016206 0.00182015)
(0.0858325 0.00139061 0.00152826)
(0.0825907 0.00116139 0.00135041)
(0.0798662 0.000897482 0.001178)
(0.100226 0.000720815 0.000720795)
(0.0999601 0.00198271 0.00198264)
(0.0997824 0.00245186 0.00245169)
(0.0987885 0.00241964 0.00241934)
(0.0972761 0.00220089 0.00220042)
(0.0957757 0.00181185 0.00181102)
(0.0943946 0.00138302 0.00138169)
(0.10014 0.000775 0.000869236)
(0.100454 0.00196233 0.00196351)
(0.100911 0.00242738 0.00233439)
(0.100979 0.00252636 0.0024411)
(0.100695 0.00242595 0.00233659)
(0.100225 0.00219696 0.00211236)
(0.0997107 0.00191574 0.00182313)
(0.100093 0.000445888 0.000763198)
(0.100504 0.00119435 0.00174902)
(0.101105 0.00158655 0.00212955)
(0.101635 0.00173999 0.0022347)
(0.101979 0.00178156 0.00228724)
(0.102172 0.00172788 0.00223633)
(0.102254 0.00160624 0.00211665)
(0.100087 0.000144351 0.000707011)
(0.100477 0.000390385 0.00161777)
(0.101066 0.000540916 0.00203464)
(0.101694 0.000609828 0.00211768)
(0.102269 0.000635454 0.00215046)
(0.102742 0.000625871 0.00218045)
(0.103123 0.000593262 0.00213523)
(0.100087 -0.000144393 0.000707016)
(0.100477 -0.000390509 0.00161779)
(0.101065 -0.000541133 0.00203465)
(0.101694 -0.000610198 0.00211772)
(0.102268 -0.000636098 0.00215062)
(0.102741 -0.000626952 0.00218074)
(0.103122 -0.000594993 0.00213568)
(0.100093 -0.000445895 0.000763208)
(0.100504 -0.00119438 0.00174904)
(0.101105 -0.0015866 0.00212963)
(0.101634 -0.00174011 0.00223495)
(0.101979 -0.00178175 0.00228771)
(0.102171 -0.00172816 0.002237)
(0.102252 -0.0016067 0.00211766)
(0.10014 -0.00077498 0.000869259)
(0.100454 -0.00196228 0.0019636)
(0.100911 -0.00242728 0.00233459)
(0.100978 -0.00252616 0.00244144)
(0.100694 -0.00242561 0.0023371)
(0.100225 -0.00219638 0.00211306)
(0.0997094 -0.00191482 0.00182423)
(0.100226 -0.000720796 0.000720815)
(0.0999601 -0.00198264 0.00198272)
(0.0997824 -0.00245169 0.00245186)
(0.0987885 -0.00241934 0.00241964)
(0.0972761 -0.00220043 0.0022009)
(0.0957757 -0.00181102 0.00181186)
(0.0943945 -0.00138169 0.00138304)
(0.0999088 -0.000712552 0.001297)
(0.0969669 -0.00274723 0.00365589)
(0.0935347 -0.00211809 0.00264022)
(0.0895896 -0.00162044 0.00182042)
(0.0858328 -0.00139039 0.00152874)
(0.0825913 -0.00116097 0.00135118)
(0.0798671 -0.000896756 0.00117942)
(0.099413 0.000270232 0.000345209)
(0.0988664 0.00187491 0.00201893)
(0.0979215 0.00218904 0.0025729)
(0.096366 0.00190842 0.00237948)
(0.0946336 0.00162673 0.00211347)
(0.0929725 0.00141883 0.00192573)
(0.0913644 0.00127159 0.00179968)
(0.10014 0.00086926 0.000774979)
(0.100454 0.0019636 0.00196228)
(0.100911 0.00233459 0.00242728)
(0.100978 0.00244143 0.00252616)
(0.100694 0.0023371 0.0024256)
(0.100225 0.00211305 0.00219637)
(0.0997094 0.00182422 0.0019148)
(0.10006 0.000641392 0.00064136)
(0.100502 0.00164503 0.00164494)
(0.101149 0.00221237 0.0022122)
(0.101738 0.00243993 0.00243965)
(0.102205 0.00244201 0.00244155)
(0.102502 0.00231373 0.00231301)
(0.102647 0.00209286 0.00209166)
(0.100046 0.000395684 0.000540224)
(0.10048 0.00104476 0.00138404)
(0.101154 0.00147518 0.00192288)
(0.101913 0.00170495 0.00219243)
(0.102632 0.00177963 0.00229391)
(0.103302 0.00174418 0.00227808)
(0.103895 0.00163323 0.00218544)
(0.100039 0.000131301 0.000478762)
(0.100448 0.000350408 0.00123477)
(0.101114 0.000504923 0.00174647)
(0.101909 0.000596931 0.00202684)
(0.102728 0.000638192 0.00215217)
(0.103529 0.000637638 0.00218665)
(0.104297 0.000603542 0.00215374)
(0.100039 -0.00013133 0.000478774)
(0.100448 -0.000350485 0.0012348)
(0.101114 -0.00050506 0.00174654)
(0.101909 -0.000597156 0.00202695)
(0.102728 -0.000638555 0.00215237)
(0.103528 -0.000638207 0.00218696)
(0.104297 -0.000604457 0.00215423)
(0.100046 -0.000395678 0.000540253)
(0.10048 -0.00104475 0.00138413)
(0.101154 -0.00147516 0.00192303)
(0.101913 -0.00170492 0.0021927)
(0.102632 -0.00177957 0.00229436)
(0.103301 -0.00174407 0.00227879)
(0.103894 -0.00163301 0.00218657)
(0.10006 -0.000641361 0.000641392)
(0.100502 -0.00164494 0.00164503)
(0.101149 -0.00221221 0.00221238)
(0.101738 -0.00243965 0.00243994)
(0.102205 -0.00244156 0.00244203)
(0.102502 -0.00231301 0.00231375)
(0.102647 -0.00209167 0.00209289)
(0.10014 -0.000869236 0.000774999)
(0.100454 -0.00196351 0.00196234)
(0.100911 -0.00233439 0.00242738)
(0.100979 -0.0024411 0.00252637)
(0.100695 -0.00233659 0.00242596)
(0.100225 -0.00211236 0.00219698)
(0.0997106 -0.00182313 0.00191576)
(0.099413 -0.000270228 0.00034522)
(0.0988664 -0.00187488 0.00201898)
(0.0979217 -0.00218894 0.002573)
(0.0963663 -0.00190825 0.00237963)
(0.0946343 -0.00162649 0.00211372)
(0.0929738 -0.00141849 0.00192613)
(0.0913667 -0.00127102 0.00180027)
(0.0995405 0.0003219 0.000245019)
(0.0992576 0.00154094 0.0010555)
(0.0988489 0.00211452 0.00150209)
(0.0981247 0.00209177 0.001579)
(0.0973366 0.00188643 0.0015141)
(0.0965843 0.00166643 0.00144512)
(0.0958641 0.00149895 0.00140779)
(0.100093 0.000763208 0.000445893)
(0.100504 0.00174904 0.00119437)
(0.101105 0.00212962 0.0015866)
(0.101634 0.00223494 0.0017401)
(0.101979 0.0022877 0.00178174)
(0.102171 0.00223698 0.00172815)
(0.102252 0.00211765 0.00160668)
(0.100046 0.000540253 0.000395677)
(0.10048 0.00138412 0.00104475)
(0.101154 0.00192302 0.00147516)
(0.101913 0.00219268 0.00170492)
(0.102632 0.00229434 0.00177957)
(0.103301 0.00227877 0.00174406)
(0.103894 0.00218653 0.001633)
(0.100036 0.000323134 0.000323115)
(0.100429 0.000868642 0.000868595)
(0.10108 0.00126234 0.00126225)
(0.101891 0.00150427 0.00150414)
(0.102756 0.00162141 0.00162119)
(0.103616 0.00164255 0.0016422)
(0.104446 0.00160445 0.0016039)
(0.100031 0.000107064 0.000281369)
(0.100395 0.000293009 0.000768596)
(0.101024 0.000434016 0.00113301)
(0.101843 0.000526127 0.00136913)
(0.102751 0.000576201 0.00150134)
(0.103688 0.000591533 0.00155415)
(0.104617 0.000582039 0.00154921)
(0.100031 -0.00010707 0.000281379)
(0.100395 -0.000293027 0.000768624)
(0.101024 -0.000434046 0.00113307)
(0.101843 -0.000526174 0.00136922)
(0.102751 -0.000576267 0.00150149)
(0.103688 -0.000591621 0.00155437)
(0.104617 -0.000582156 0.00154954)
(0.100036 -0.000323117 0.000323135)
(0.100429 -0.000868598 0.000868648)
(0.10108 -0.00126226 0.00126235)
(0.101891 -0.00150414 0.00150429)
(0.102756 -0.00162119 0.00162144)
(0.103616 -0.00164221 0.00164259)
(0.104446 -0.00160391 0.00160449)
(0.100046 -0.000540225 0.000395685)
(0.10048 -0.00138404 0.00104477)
(0.101154 -0.00192288 0.00147519)
(0.101913 -0.00219243 0.00170496)
(0.102632 -0.00229392 0.00177965)
(0.103302 -0.00227808 0.00174421)
(0.103895 -0.00218545 0.00163327)
(0.100093 -0.000763199 0.000445888)
(0.100504 -0.00174902 0.00119436)
(0.101105 -0.00212955 0.00158656)
(0.101635 -0.0022347 0.00174001)
(0.101979 -0.00228724 0.00178158)
(0.102172 -0.00223633 0.00172791)
(0.102254 -0.00211666 0.00160628)
(0.0995405 -0.000321898 0.000245009)
(0.0992576 -0.00154093 0.00105545)
(0.098849 -0.00211446 0.00150199)
(0.098125 -0.00209167 0.00157882)
(0.0973373 -0.00188629 0.00151374)
(0.0965857 -0.00166621 0.00144448)
(0.0958665 -0.00149865 0.00140671)
(0.0993802 5.89571e-05 3.37736e-05)
(0.0992677 0.00120003 0.000274373)
(0.0989803 0.00188851 0.000432336)
(0.0984744 0.00200656 0.000483388)
(0.0979951 0.00191487 0.000478689)
(0.0975698 0.00173509 0.000465208)
(0.097179 0.00154789 0.000452233)
(0.100087 0.000707016 0.000144391)
(0.100477 0.00161779 0.000390504)
(0.101065 0.00203465 0.000541126)
(0.101694 0.00211772 0.000610188)
(0.102268 0.00215061 0.000636084)
(0.102741 0.00218072 0.000626933)
(0.103122 0.00213565 0.000594969)
(0.100039 0.000478774 0.000131328)
(0.100448 0.0012348 0.000350481)
(0.101114 0.00174653 0.000505054)
(0.101909 0.00202693 0.000597148)
(0.102728 0.00215235 0.000638544)
(0.103528 0.00218693 0.000638192)
(0.104297 0.00215419 0.000604438)
(0.100031 0.000281378 0.000107068)
(0.100395 0.000768619 0.000293023)
(0.101024 0.00113305 0.000434041)
(0.101843 0.0013692 0.000526168)
(0.102751 0.00150147 0.000576259)
(0.103688 0.00155434 0.00059161)
(0.104617 0.00154949 0.000582141)
(0.100048 7.31354e-05 7.31347e-05)
(0.100365 0.000251013 0.000251012)
(0.10096 0.000386307 0.000386304)
(0.101771 0.000477836 0.000477831)
(0.102702 0.000532016 0.000532004)
(0.10369 0.000556538 0.000556513)
(0.104691 0.00055883 0.000558785)
(0.100048 -7.31364e-05 7.31376e-05)
(0.100365 -0.000251015 0.000251022)
(0.10096 -0.000386308 0.000386321)
(0.101771 -0.000477835 0.000477859)
(0.102702 -0.00053201 0.000532048)
(0.10369 -0.00055652 0.00055658)
(0.104691 -0.000558794 0.000558883)
(0.100031 -0.00028137 0.000107066)
(0.100395 -0.000768599 0.000293016)
(0.101024 -0.00113302 0.000434031)
(0.101843 -0.00136913 0.000526151)
(0.102751 -0.00150135 0.000576234)
(0.103688 -0.00155415 0.000591577)
(0.104617 -0.00154922 0.000582095)
(0.100039 -0.000478763 0.000131303)
(0.100448 -0.00123477 0.000350415)
(0.101114 -0.00174648 0.000504937)
(0.101909 -0.00202684 0.000596955)
(0.102728 -0.00215218 0.000638224)
(0.103529 -0.00218665 0.000637681)
(0.104297 -0.00215375 0.000603599)
(0.100087 -0.000707011 0.000144352)
(0.100477 -0.00161778 0.00039039)
(0.101066 -0.00203464 0.000540928)
(0.101694 -0.00211768 0.000609848)
(0.102269 -0.00215047 0.000635484)
(0.102742 -0.00218046 0.000625913)
(0.103123 -0.00213524 0.000593317)
(0.0993801 -5.89208e-05 3.37495e-05)
(0.0992677 -0.0012 0.000274251)
(0.0989804 -0.00188849 0.000432083)
(0.0984746 -0.00200652 0.000482957)
(0.0979954 -0.00191479 0.000477961)
(0.0975704 -0.00173494 0.000463965)
(0.09718 -0.00154765 0.000450107)
(0.0993801 5.89217e-05 -3.37504e-05)
(0.0992677 0.0012 -0.000274253)
(0.0989804 0.00188849 -0.000432085)
(0.0984746 0.00200652 -0.000482956)
(0.0979954 0.00191478 -0.000477956)
(0.0975705 0.00173493 -0.000463954)
(0.0971801 0.00154764 -0.000450089)
(0.100087 0.000707011 -0.000144352)
(0.100477 0.00161777 -0.000390389)
(0.101066 0.00203464 -0.000540923)
(0.101694 0.00211767 -0.000609839)
(0.102269 0.00215045 -0.000635468)
(0.102742 0.00218043 -0.00062589)
(0.103123 0.00213521 -0.000593286)
(0.100039 0.000478762 -0.000131303)
(0.100448 0.00123476 -0.000350412)
(0.101114 0.00174647 -0.000504929)
(0.101909 0.00202683 -0.00059694)
(0.102728 0.00215216 -0.000638203)
(0.103529 0.00218662 -0.000637653)
(0.104297 0.00215371 -0.000603563)
(0.100031 0.000281368 -0.000107066)
(0.100395 0.000768591 -0.000293012)
(0.101024 0.001133 -0.00043402)
(0.101843 0.00136911 -0.000526134)
(0.102751 0.00150132 -0.000576209)
(0.103688 0.00155411 -0.000591545)
(0.104617 0.00154917 -0.000582054)
(0.100048 7.31342e-05 -7.31374e-05)
(0.100365 0.000251007 -0.000251017)
(0.10096 0.000386291 -0.000386309)
(0.101771 0.000477812 -0.00047784)
(0.102702 0.000531977 -0.000532021)
(0.10369 0.000556477 -0.000556544)
(0.104691 0.000558738 -0.000558839)
(0.100048 -7.31388e-05 -7.31347e-05)
(0.100365 -0.000251024 -0.000251007)
(0.10096 -0.000386322 -0.000386292)
(0.101771 -0.00047786 -0.000477811)
(0.102702 -0.000532049 -0.000531977)
(0.10369 -0.000556582 -0.000556477)
(0.104691 -0.000558887 -0.000558738)
(0.100031 -0.00028138 -0.000107068)
(0.100395 -0.000768626 -0.000293018)
(0.101024 -0.00113307 -0.00043403)
(0.101843 -0.00136922 -0.000526149)
(0.102751 -0.0015015 -0.000576232)
(0.103688 -0.00155438 -0.000591574)
(0.104617 -0.00154954 -0.000582096)
(0.100039 -0.000478775 -0.000131328)
(0.100448 -0.0012348 -0.000350477)
(0.101114 -0.00174654 -0.000505044)
(0.101909 -0.00202695 -0.000597131)
(0.102728 -0.00215237 -0.00063852)
(0.103528 -0.00218697 -0.000638159)
(0.104297 -0.00215423 -0.000604395)
(0.100087 -0.000707016 -0.000144391)
(0.100477 -0.00161779 -0.000390502)
(0.101065 -0.00203465 -0.000541119)
(0.101694 -0.00211773 -0.000610176)
(0.102268 -0.00215062 -0.000636065)
(0.102741 -0.00218074 -0.000626906)
(0.103122 -0.00213568 -0.000594931)
(0.0993802 -5.89577e-05 -3.37743e-05)
(0.0992677 -0.00120003 -0.000274375)
(0.0989803 -0.00188851 -0.000432337)
(0.0984744 -0.00200656 -0.000483385)
(0.0979951 -0.00191488 -0.000478681)
(0.0975698 -0.0017351 -0.000465194)
(0.097179 -0.0015479 -0.000452211)
(0.0995405 0.000321898 -0.00024501)
(0.0992576 0.00154093 -0.00105545)
(0.098849 0.00211446 -0.00150199)
(0.0981251 0.00209167 -0.00157882)
(0.0973373 0.00188629 -0.00151374)
(0.0965857 0.0016662 -0.00144447)
(0.0958666 0.00149864 -0.0014067)
(0.100093 0.000763198 -0.000445889)
(0.100504 0.00174901 -0.00119436)
(0.101105 0.00212954 -0.00158656)
(0.101635 0.00223469 -0.00174)
(0.101979 0.00228723 -0.00178157)
(0.102172 0.00223631 -0.0017279)
(0.102254 0.00211663 -0.00160626)
(0.100046 0.000540224 -0.000395685)
(0.10048 0.00138404 -0.00104477)
(0.101154 0.00192287 -0.00147519)
(0.101913 0.00219242 -0.00170495)
(0.102632 0.0022939 -0.00177964)
(0.103302 0.00227806 -0.00174419)
(0.103895 0.00218541 -0.00163324)
(0.100036 0.000323114 -0.000323135)
(0.100429 0.000868591 -0.000868645)
(0.10108 0.00126224 -0.00126234)
(0.101891 0.00150412 -0.00150428)
(0.102756 0.00162117 -0.00162142)
(0.103616 0.00164217 -0.00164256)
(0.104446 0.00160386 -0.00160446)
(0.100031 0.000107068 -0.000281379)
(0.100395 0.000293018 -0.00076862)
(0.101024 0.000434031 -0.00113306)
(0.101843 0.000526152 -0.0013692)
(0.102751 0.000576237 -0.00150147)
(0.103688 0.00059158 -0.00155434)
(0.104617 0.000582103 -0.0015495)
(0.100031 -0.000107067 -0.000281369)
(0.100395 -0.000293017 -0.000768592)
(0.101024 -0.000434031 -0.001133)
(0.101843 -0.000526149 -0.00136911)
(0.102751 -0.000576232 -0.00150132)
(0.103688 -0.000591575 -0.00155411)
(0.100036 -0.000323136 -0.000323115)
(0.100429 -0.00086865 -0.00086859)
(0.10108 -0.00126235 -0.00126224)
(0.101891 -0.00150429 -0.00150412)
(0.102756 -0.00162144 -0.00162116)
(0.103616 -0.00164259 -0.00164216)
(0.100046 -0.000540254 -0.000395676)
(0.10048 -0.00138413 -0.00104474)
(0.101154 -0.00192303 -0.00147515)
(0.101913 -0.0021927 -0.0017049)
(0.102632 -0.00229436 -0.00177954)
(0.103301 -0.0022788 -0.00174402)
(0.100093 -0.000763208 -0.000445893)
(0.100504 -0.00174904 -0.00119437)
(0.101105 -0.00212963 -0.00158659)
(0.101634 -0.00223495 -0.00174009)
(0.101979 -0.00228771 -0.00178172)
(0.102171 -0.002237 -0.00172812)
(0.0995405 -0.0003219 -0.000245021)
(0.0992576 -0.00154094 -0.0010555)
(0.0988489 -0.00211453 -0.0015021)
(0.0981247 -0.00209177 -0.001579)
(0.0973366 -0.00188644 -0.00151409)
(0.0965843 -0.00166644 -0.0014451)
(0.099413 0.000270228 -0.000345222)
(0.0988664 0.00187488 -0.00201898)
(0.0979217 0.00218894 -0.002573)
(0.0963663 0.00190825 -0.00237964)
(0.0946344 0.00162649 -0.00211372)
(0.0929738 0.00141848 -0.00192613)
(0.0913668 0.00127101 -0.00180028)
(0.10014 0.000869235 -0.000775001)
(0.100454 0.00196351 -0.00196234)
(0.100911 0.00233439 -0.00242738)
(0.100979 0.00244109 -0.00252636)
(0.100695 0.00233659 -0.00242595)
(0.100225 0.00211235 -0.00219697)
(0.0997107 0.00182311 -0.00191575)
(0.10006 0.00064136 -0.000641392)
(0.100502 0.00164493 -0.00164503)
(0.101149 0.0022122 -0.00221237)
(0.101738 0.00243964 -0.00243993)
(0.102205 0.00244154 -0.00244202)
(0.102502 0.00231299 -0.00231374)
(0.102647 0.00209164 -0.00209288)
(0.100046 0.000395676 -0.000540253)
(0.10048 0.00104474 -0.00138412)
(0.101154 0.00147515 -0.00192302)
(0.101913 0.00170491 -0.00219269)
(0.102632 0.00177955 -0.00229434)
(0.103301 0.00174404 -0.00227877)
(0.103894 0.00163297 -0.00218654)
(0.100039 0.000131328 -0.000478774)
(0.100448 0.000350478 -0.0012348)
(0.101114 0.000505046 -0.00174653)
(0.101909 0.000597136 -0.00202693)
(0.102728 0.000638527 -0.00215235)
(0.103528 0.000638169 -0.00218694)
(0.104297 0.000604409 -0.00215419)
(0.100039 -0.000131304 -0.000478762)
(0.100448 -0.000350416 -0.00123476)
(0.101114 -0.000504936 -0.00174647)
(0.101909 -0.000596952 -0.00202683)
(0.102728 -0.000638221 -0.00215215)
(0.103529 -0.000637677 -0.00218662)
(0.100046 -0.000395685 -0.000540224)
(0.10048 -0.00104477 -0.00138404)
(0.101154 -0.00147519 -0.00192287)
(0.101913 -0.00170496 -0.00219241)
(0.102632 -0.00177965 -0.00229389)
(0.103302 -0.00174421 -0.00227805)
(0.10006 -0.000641393 -0.00064136)
(0.100502 -0.00164503 -0.00164493)
(0.101149 -0.00221238 -0.00221219)
(0.101738 -0.00243994 -0.00243963)
(0.102205 -0.00244203 -0.00244153)
(0.102502 -0.00231376 -0.00231298)
(0.10014 -0.00086926 -0.000774979)
(0.100454 -0.0019636 -0.00196228)
(0.100911 -0.0023346 -0.00242727)
(0.100978 -0.00244144 -0.00252614)
(0.100694 -0.00233711 -0.00242558)
(0.100225 -0.00211307 -0.00219634)
(0.099413 -0.000270232 -0.000345211)
(0.0988664 -0.00187491 -0.00201893)
(0.0979215 -0.00218904 -0.0025729)
(0.096366 -0.00190843 -0.00237947)
(0.0946336 -0.00162674 -0.00211346)
(0.0929725 -0.00141885 -0.00192571)
(0.0999088 0.000712552 -0.001297)
(0.0969669 0.00274723 -0.0036559)
(0.0935347 0.00211809 -0.00264023)
(0.0895896 0.00162044 -0.00182042)
(0.0858329 0.00139039 -0.00152875)
(0.0825913 0.00116097 -0.00135118)
(0.0798672 0.00089675 -0.00117943)
(0.100226 0.000720795 -0.000720815)
(0.0999601 0.00198264 -0.00198271)
(0.0997824 0.00245169 -0.00245186)
(0.0987885 0.00241934 -0.00241964)
(0.0972761 0.00220042 -0.0022009)
(0.0957757 0.00181101 -0.00181185)
(0.0943946 0.00138167 -0.00138303)
(0.10014 0.000774979 -0.00086926)
(0.100454 0.00196228 -0.0019636)
(0.100911 0.00242727 -0.00233459)
(0.100978 0.00252615 -0.00244143)
(0.100694 0.0024256 -0.0023371)
(0.100225 0.00219636 -0.00211306)
(0.0997094 0.00191479 -0.00182423)
(0.100093 0.000445893 -0.000763208)
(0.100504 0.00119437 -0.00174904)
(0.101105 0.00158659 -0.00212962)
(0.101634 0.0017401 -0.00223494)
(0.101979 0.00178173 -0.0022877)
(0.102171 0.00172813 -0.00223698)
(0.102252 0.00160666 -0.00211765)
(0.100087 0.000144391 -0.000707016)
(0.100477 0.000390502 -0.00161779)
(0.101065 0.000541121 -0.00203465)
(0.101694 0.00061018 -0.00211772)
(0.102268 0.000636073 -0.00215061)
(0.102741 0.000626918 -0.00218072)
(0.103122 0.000594948 -0.00213565)
(0.100087 -0.000144352 -0.000707011)
(0.100477 -0.000390391 -0.00161777)
(0.101066 -0.000540928 -0.00203464)
(0.101694 -0.000609847 -0.00211767)
(0.102269 -0.00063548 -0.00215045)
(0.102742 -0.000625907 -0.00218043)
(0.100093 -0.000445888 -0.000763198)
(0.100504 -0.00119436 -0.00174901)
(0.101105 -0.00158656 -0.00212954)
(0.101635 -0.00174001 -0.00223469)
(0.101979 -0.00178158 -0.00228722)
(0.102172 -0.00172792 -0.0022363)
(0.10014 -0.000775 -0.000869235)
(0.100454 -0.00196234 -0.0019635)
(0.100911 -0.00242739 -0.00233438)
(0.100979 -0.00252637 -0.00244108)
(0.100695 -0.00242597 -0.00233657)
(0.100225 -0.00219699 -0.00211233)
(0.100226 -0.000720816 -0.000720795)
(0.0999601 -0.00198272 -0.00198264)
(0.0997824 -0.00245187 -0.00245168)
(0.0987885 -0.00241965 -0.00241933)
(0.0972761 -0.00220091 -0.0022004)
(0.0957757 -0.00181187 -0.001811)
(0.0999088 -0.000712559 -0.00129699)
(0.0969669 -0.00274727 -0.0036558)
(0.0935346 -0.00211817 -0.00264008)
(0.0895894 -0.00162061 -0.00182015)
(0.0858325 -0.00139063 -0.00152825)
(0.0825907 -0.0011614 -0.0013504)
(0.0956456 -0.00836005 0.00836005)
(0.0904939 0.00152199 -0.00152204)
(0.0790684 0.00242964 -0.00242974)
(0.0713015 0.00148761 -0.00148781)
(0.0661801 0.000830242 -0.000830579)
(0.0623237 0.000563182 -0.000563718)
(0.0592226 0.000425481 -0.000426531)
(0.0999088 0.00129699 -0.000712558)
(0.0969669 0.0036558 -0.00274727)
(0.0935346 0.00264007 -0.00211817)
(0.0895894 0.00182016 -0.0016206)
(0.0858325 0.00152825 -0.00139062)
(0.0825907 0.00135041 -0.00116139)
(0.0798662 0.00117799 -0.000897487)
(0.099413 0.000345209 -0.000270232)
(0.0988664 0.00201893 -0.00187491)
(0.0979215 0.0025729 -0.00218904)
(0.096366 0.00237948 -0.00190842)
(0.0946336 0.00211347 -0.00162673)
(0.0929725 0.00192572 -0.00141883)
(0.0913644 0.00179967 -0.00127159)
(0.0995405 0.00024502 -0.0003219)
(0.0992576 0.0010555 -0.00154094)
(0.0988489 0.00150209 -0.00211452)
(0.0981247 0.001579 -0.00209177)
(0.0973366 0.00151409 -0.00188643)
(0.0965843 0.00144511 -0.00166643)
(0.0958641 0.00140778 -0.00149895)
(0.0993802 3.37737e-05 -5.89583e-05)
(0.0992677 0.000274374 -0.00120003)
(0.0989803 0.000432335 -0.00188851)
(0.0984744 0.000483386 -0.00200656)
(0.0979951 0.000478684 -0.00191487)
(0.0975699 0.000465201 -0.00173509)
(0.097179 0.000452224 -0.00154789)
(0.0993801 -3.37498e-05 -5.89189e-05)
(0.0992677 -0.000274252 -0.0012)
(0.0989804 -0.000432087 -0.00188849)
(0.0984746 -0.000482958 -0.00200652)
(0.0979954 -0.000477961 -0.00191478)
(0.0975705 -0.000463961 -0.00173493)
(0.0995405 -0.000245009 -0.000321898)
(0.0992576 -0.00105545 -0.00154093)
(0.098849 -0.00150199 -0.00211446)
(0.0981251 -0.00157882 -0.00209166)
(0.0973373 -0.00151375 -0.00188628)
(0.0965857 -0.00144448 -0.00166619)
(0.099413 -0.000345221 -0.000270227)
(0.0988664 -0.00201898 -0.00187487)
(0.0979217 -0.002573 -0.00218894)
(0.0963663 -0.00237964 -0.00190824)
(0.0946344 -0.00211372 -0.00162648)
(0.0929738 -0.00192614 -0.00141847)
(0.0999088 -0.001297 -0.000712552)
(0.0969669 -0.00365589 -0.00274722)
(0.0935347 -0.00264023 -0.00211808)
(0.0895896 -0.00182042 -0.00162043)
(0.0858329 -0.00152876 -0.00139038)
(0.0825913 -0.00135119 -0.00116095)
(0.0956456 0.00836005 0.00836005)
(0.0904939 -0.00152204 -0.00152199)
(0.0790684 -0.00242975 -0.00242964)
(0.0713015 -0.00148781 -0.0014876)
(0.0661801 -0.000830586 -0.000830234)
(0.0623237 -0.000563728 -0.000563171)
)
;

boundaryField
{
    inlet
    {
        type            fixedValue;
        value           uniform (0.1 0 0);
    }
    ami1
    {
        type            cyclicAMI;
        value           nonuniform List<vector> 0();
    }
    walls
    {
        type            noSlip;
    }
    ami2
    {
        type            cyclicAMI;
        value           nonuniform List<vector> 0();
    }
    outlet
    {
        type            zeroGradient;
    }
    procBoundary4to3
    {
        type            processor;
        value           nonuniform List<vector> 
109
(
(0.0566877 0.00032427 0.000322577)
(0.0775701 0.00104065 0.000691752)
(0.0898584 0.0017034 0.00115972)
(0.0951995 0.00137315 0.00137268)
(0.0968291 0.000437581 0.00138924)
(0.0968273 -0.00044124 0.00138966)
(0.0951952 -0.00137498 0.00137321)
(0.0898543 -0.00170246 0.00116069)
(0.0775683 -0.00103821 0.000692893)
(0.0566876 -0.000322584 0.000324267)
(0.0775683 0.000692886 0.00103818)
(0.0931669 0.00107097 0.00106874)
(0.0991867 0.00166412 0.00157532)
(0.102278 0.00145724 0.00196591)
(0.103427 0.000546797 0.00204634)
(0.103425 -0.000549578 0.00204702)
(0.102275 -0.00145797 0.00196747)
(0.0991845 -0.00166269 0.00157724)
(0.0931668 -0.00106874 0.00107098)
(0.0775701 -0.000691747 0.00104065)
(0.0898544 0.00116069 0.00170244)
(0.0991845 0.00157722 0.00166268)
(0.102717 0.00186957 0.00186764)
(0.104391 0.00149001 0.00205244)
(0.105007 0.000557701 0.00208032)
(0.105006 -0.000559128 0.00208107)
(0.10439 -0.00148966 0.00205427)
(0.102716 -0.00186765 0.0018696)
(0.0991866 -0.00157532 0.00166415)
(0.0898583 -0.00115972 0.00170343)
(0.0951953 0.0013732 0.00137495)
(0.102275 0.00196744 0.00145795)
(0.10439 0.00205422 0.00148964)
(0.105224 0.00152612 0.00152524)
(0.105515 0.000557264 0.00150841)
(0.105515 -0.000557445 0.0015089)
(0.105224 -0.00152525 0.00152618)
(0.104391 -0.00205245 0.00149007)
(0.102278 -0.00196592 0.00145729)
(0.0951994 -0.00137268 0.0013732)
(0.0968273 0.00138965 0.000441208)
(0.103425 0.00204699 0.000549547)
(0.105006 0.00208103 0.000559103)
(0.105515 0.00150884 0.000557426)
(0.105676 0.00054594 0.000545863)
(0.105676 -0.000545876 0.000546007)
(0.105515 -0.00150842 0.000557335)
(0.105007 -0.00208033 0.000557773)
(0.103427 -0.00204634 0.000546868)
(0.0968291 -0.00138924 0.00043764)
(0.0968291 0.00138923 -0.000437613)
(0.103427 0.00204631 -0.000546827)
(0.105007 0.00208028 -0.000557727)
(0.105515 0.00150836 -0.000557284)
(0.105676 0.000545805 -0.000545952)
(0.105676 -0.000546012 -0.000545805)
(0.104617 -0.000582093 -0.00154917)
(0.105515 -0.00150891 -0.000557368)
(0.104446 -0.00160449 -0.00160385)
(0.105006 -0.00208108 -0.000559048)
(0.103894 -0.00218657 -0.00163295)
(0.103425 -0.00204702 -0.000549497)
(0.102252 -0.00211767 -0.00160664)
(0.0968273 -0.00138966 -0.000441176)
(0.0958641 -0.00149896 -0.00140777)
(0.0951995 0.00137267 -0.00137319)
(0.102278 0.00196589 -0.00145726)
(0.104391 0.0020524 -0.00149004)
(0.105224 0.0015252 -0.00152614)
(0.105515 0.000557378 -0.00150885)
(0.104617 -0.000582093 -0.00154917)
(0.104617 -0.000582093 -0.00154917)
(0.104446 -0.00160449 -0.00160385)
(0.103894 -0.00218657 -0.00163295)
(0.102252 -0.00211767 -0.00160664)
(0.0958641 -0.00149896 -0.00140777)
(0.0898584 0.0011597 -0.00170342)
(0.0991867 0.0015753 -0.00166413)
(0.102717 0.00186761 -0.00186958)
(0.10439 0.00148961 -0.00205423)
(0.105006 0.000559066 -0.00208103)
(0.104297 -0.000603592 -0.00215371)
(0.104297 -0.000603592 -0.00215371)
(0.103895 -0.00163327 -0.0021854)
(0.102647 -0.0020929 -0.00209162)
(0.0997094 -0.00182425 -0.00191477)
(0.0913644 -0.00127161 -0.00179965)
(0.0775701 0.000691738 -0.00104066)
(0.0931669 0.00106872 -0.00107098)
(0.0991845 0.00166265 -0.00157723)
(0.102275 0.00145792 -0.00196745)
(0.103425 0.000549521 -0.00204699)
(0.103123 -0.000593308 -0.00213521)
(0.103123 -0.000593308 -0.00213521)
(0.102254 -0.00160628 -0.00211662)
(0.0997107 -0.00191577 -0.0018231)
(0.0943946 -0.00138305 -0.00138165)
(0.0798662 -0.000897503 -0.00117798)
(0.0566877 0.000322567 -0.00032428)
(0.0775684 0.00103818 -0.000692892)
(0.0898544 0.00170243 -0.00116069)
(0.0951953 0.00137494 -0.0013732)
(0.0968273 0.000441196 -0.00138965)
(0.0971801 -0.000450098 -0.00154764)
(0.0971801 -0.000450098 -0.00154764)
(0.0958666 -0.00140671 -0.00149864)
(0.0913668 -0.00180029 -0.00127099)
(0.0798672 -0.00117944 -0.000896733)
(0.0592226 -0.000426549 -0.000425463)
)
;
    }
}


// ************************************************************************* //
