/*--------------------------------*- C++ -*----------------------------------*\
| =========                 |                                                 |
| \\      /  F ield         | OpenFOAM: The Open Source CFD Toolbox           |
|  \\    /   O peration     | Version:  2212                                  |
|   \\  /    A nd           | Website:  www.openfoam.com                      |
|    \\/     M anipulation  |                                                 |
\*---------------------------------------------------------------------------*/
FoamFile
{
    version     2.0;
    format      ascii;
    arch        "LSB;label=32;scalar=64";
    class       volScalarField;
    location    "3";
    object      p;
}
// * * * * * * * * * * * * * * * * * * * * * * * * * * * * * * * * * * * * * //

dimensions      [0 2 -2 0 0 0 0];

internalField   nonuniform List<scalar> 
680
(
0.0177977
0.0106833
0.00839185
0.00785404
0.00757969
0.00735751
0.00717094
0.0106189
0.00988507
0.00879218
0.00812621
0.00772363
0.00744992
0.00723878
0.0102706
0.00941912
0.00865485
0.00809572
0.00771956
0.00745151
0.0072358
0.00986133
0.0090986
0.00847983
0.00802849
0.0076845
0.00741542
0.00719571
0.0097271
0.00898591
0.00839773
0.00798959
0.0076676
0.00740081
0.00717915
0.0097271
0.00898592
0.00839774
0.00798961
0.00766763
0.00740086
0.00717923
0.00986134
0.00909862
0.00847985
0.00802853
0.00768456
0.00741552
0.00719591
0.0102706
0.00941913
0.00865487
0.00809575
0.00771961
0.00745162
0.00723602
0.0106189
0.00988506
0.00879218
0.00812621
0.00772365
0.00744996
0.00723886
0.0177977
0.0106833
0.00839185
0.00785403
0.00757968
0.0073575
0.00717093
0.0106189
0.00988507
0.00879218
0.00812622
0.00772366
0.00744997
0.00723887
0.00990234
0.00987064
0.00914243
0.00843195
0.00798563
0.00766974
0.00741094
0.00897686
0.00910305
0.00880018
0.00838398
0.00801686
0.00769824
0.00741972
0.00855846
0.00860197
0.0084364
0.00817347
0.00789309
0.00762174
0.00737071
0.00834247
0.00836429
0.00823708
0.00801955
0.0077871
0.00755791
0.00733504
0.00834248
0.00836431
0.00823711
0.00801961
0.00778718
0.00755801
0.0073352
0.0085585
0.00860201
0.00843646
0.00817355
0.00789321
0.0076219
0.00737096
0.00897687
0.00910307
0.00880021
0.00838402
0.00801691
0.00769834
0.0074199
0.00990233
0.00987063
0.00914242
0.00843194
0.00798562
0.00766973
0.00741093
0.0106189
0.00988506
0.00879217
0.00812621
0.00772362
0.00744992
0.00723877
0.0102706
0.00941914
0.00865488
0.00809576
0.00771962
0.00745163
0.00723603
0.00897688
0.00910308
0.00880022
0.00838403
0.00801692
0.00769835
0.00741991
0.00840738
0.00850836
0.00839682
0.00817138
0.00791566
0.00765732
0.00739902
0.00803937
0.00810743
0.00805505
0.00790809
0.00772324
0.00751815
0.00730753
0.00785628
0.00792072
0.00789125
0.00776639
0.00760736
0.00743366
0.00724736
0.00785629
0.00792072
0.00789126
0.00776644
0.00760746
0.0074338
0.00724752
0.00803939
0.00810745
0.00805509
0.00790816
0.00772336
0.00751829
0.0073077
0.00840738
0.00850835
0.00839681
0.00817137
0.00791566
0.00765731
0.00739901
0.00897685
0.00910304
0.00880017
0.00838397
0.00801685
0.00769823
0.00741971
0.0102706
0.00941911
0.00865485
0.00809572
0.00771955
0.0074515
0.00723579
0.00986135
0.00909863
0.00847986
0.00802854
0.00768457
0.00741554
0.00719592
0.00855851
0.00860202
0.00843647
0.00817356
0.00789322
0.00762192
0.00737097
0.0080394
0.00810746
0.0080551
0.00790817
0.00772337
0.0075183
0.00730771
0.00774149
0.00780064
0.00778871
0.00769333
0.00755373
0.00738828
0.00720814
0.00759036
0.00765326
0.00765702
0.00758337
0.00746325
0.00731685
0.00715395
0.00759037
0.00765326
0.00765703
0.00758338
0.00746327
0.00731688
0.007154
0.00774149
0.00780063
0.0077887
0.00769333
0.00755372
0.00738827
0.00720814
0.00803936
0.00810742
0.00805505
0.00790808
0.00772323
0.00751814
0.00730752
0.00855845
0.00860196
0.00843639
0.00817346
0.00789308
0.00762173
0.0073707
0.00986132
0.00909859
0.00847982
0.00802849
0.00768449
0.00741541
0.0071957
0.00972711
0.00898593
0.00839775
0.00798962
0.00766765
0.00740087
0.00717925
0.00834249
0.00836432
0.00823712
0.00801962
0.0077872
0.00755803
0.00733521
0.0078563
0.00792073
0.00789127
0.00776645
0.00760747
0.00743381
0.00724753
0.00759037
0.00765327
0.00765703
0.00758339
0.00746327
0.00731689
0.00715401
0.00744756
0.00751707
0.0075392
0.00748665
0.0073854
0.00725447
0.00710455
0.00744756
0.00751707
0.00753919
0.00748665
0.0073854
0.00725447
0.00710454
0.00759036
0.00765325
0.00765701
0.00758336
0.00746324
0.00731685
0.00715394
0.00785628
0.00792071
0.00789124
0.00776639
0.00760736
0.00743366
0.00724735
0.00834246
0.00836429
0.00823708
0.00801955
0.0077871
0.0075579
0.00733503
0.00972709
0.00898591
0.00839773
0.00798959
0.0076676
0.0074008
0.00717914
0.00972711
0.00898592
0.00839774
0.0079896
0.00766762
0.00740082
0.00717916
0.00834248
0.0083643
0.0082371
0.00801956
0.00778712
0.00755792
0.00733505
0.00785629
0.00792072
0.00789126
0.0077664
0.00760737
0.00743368
0.00724738
0.00759037
0.00765326
0.00765702
0.00758338
0.00746325
0.00731686
0.00715396
0.00744756
0.00751708
0.0075392
0.00748666
0.00738541
0.00725447
0.00710455
0.00744756
0.00751707
0.0075392
0.00748665
0.0073854
0.00725447
0.00710455
0.00759037
0.00765326
0.00765703
0.00758338
0.00746326
0.00731688
0.007154
0.00785629
0.00792072
0.00789126
0.00776644
0.00760746
0.00743379
0.00724751
0.00834248
0.00836431
0.0082371
0.0080196
0.00778718
0.00755801
0.00733519
0.00972709
0.00898591
0.00839774
0.00798961
0.00766763
0.00740085
0.00717923
0.00986134
0.00909861
0.00847984
0.00802851
0.00768451
0.00741544
0.00719573
0.00855847
0.00860198
0.00843641
0.00817348
0.0078931
0.00762176
0.00737073
0.00803938
0.00810744
0.00805506
0.0079081
0.00772325
0.00751816
0.00730755
0.0077415
0.00780064
0.00778872
0.00769334
0.00755374
0.00738829
0.00720815
0.00759037
0.00765327
0.00765704
0.00758339
0.00746327
0.00731689
0.00715401
0.00759036
0.00765326
0.00765702
0.00758337
0.00746325
0.00731685
0.00774149
0.00780064
0.00778871
0.00769333
0.00755373
0.00738827
0.00803939
0.00810746
0.00805509
0.00790816
0.00772336
0.00751829
0.0085585
0.00860201
0.00843645
0.00817355
0.0078932
0.0076219
0.00986134
0.00909861
0.00847985
0.00802853
0.00768455
0.00741552
0.0102706
0.00941913
0.00865487
0.00809574
0.00771957
0.00745152
0.00723582
0.00897687
0.00910306
0.00880019
0.00838399
0.00801687
0.00769826
0.00741974
0.00840739
0.00850837
0.00839683
0.00817139
0.00791568
0.00765733
0.00739904
0.0080394
0.00810747
0.00805511
0.00790818
0.00772337
0.00751831
0.00730772
0.0078563
0.00792073
0.00789127
0.00776645
0.00760747
0.00743381
0.00724753
0.00785629
0.00792072
0.00789125
0.0077664
0.00760737
0.00743367
0.00803937
0.00810743
0.00805505
0.00790809
0.00772324
0.00751815
0.00840738
0.00850836
0.00839681
0.00817137
0.00791566
0.00765731
0.00897687
0.00910307
0.00880021
0.00838402
0.00801691
0.00769834
0.0102706
0.00941913
0.00865487
0.00809575
0.00771961
0.00745162
0.0106189
0.00988508
0.00879219
0.00812623
0.00772365
0.00744994
0.0072388
0.00990235
0.00987065
0.00914244
0.00843196
0.00798565
0.00766976
0.00741095
0.00897689
0.00910308
0.00880023
0.00838404
0.00801693
0.00769836
0.00741992
0.00855851
0.00860202
0.00843647
0.00817356
0.00789322
0.00762192
0.00737098
0.00834249
0.00836432
0.00823712
0.00801962
0.0077872
0.00755803
0.00733521
0.00834247
0.0083643
0.00823709
0.00801956
0.00778711
0.00755792
0.00855846
0.00860197
0.0084364
0.00817347
0.00789309
0.00762174
0.00897686
0.00910305
0.00880018
0.00838398
0.00801685
0.00769824
0.00990233
0.00987063
0.00914243
0.00843194
0.00798563
0.00766974
0.0106189
0.00988507
0.00879218
0.00812622
0.00772365
0.00744996
0.0177977
0.0106833
0.00839187
0.00785405
0.00757971
0.00735753
0.00717096
0.0106189
0.00988508
0.0087922
0.00812623
0.00772367
0.00744999
0.00723889
0.0102707
0.00941915
0.00865489
0.00809577
0.00771963
0.00745164
0.00723604
0.00986136
0.00909863
0.00847987
0.00802855
0.00768457
0.00741554
0.00719593
0.00972711
0.00898593
0.00839775
0.00798962
0.00766765
0.00740087
0.00717925
0.0097271
0.00898592
0.00839774
0.0079896
0.00766761
0.00740082
0.00986133
0.0090986
0.00847983
0.0080285
0.0076845
0.00741542
0.0102706
0.00941911
0.00865485
0.00809572
0.00771955
0.0074515
0.0106189
0.00988506
0.00879217
0.00812621
0.00772363
0.00744992
0.0177977
0.0106833
0.00839185
0.00785403
0.00757968
0.00735751
)
;

boundaryField
{
    inlet
    {
        type            zeroGradient;
    }
    ami1
    {
        type            cyclicAMI;
        value           nonuniform List<scalar> 0();
    }
    walls
    {
        type            zeroGradient;
    }
    ami2
    {
        type            cyclicAMI;
        value           nonuniform List<scalar> 0();
    }
    outlet
    {
        type            fixedValue;
        value           nonuniform List<scalar> 0();
    }
    procBoundary4to3
    {
        type            processor;
        value           nonuniform List<scalar> 
109
(
0.00700459
0.0070526
0.00704281
0.00700674
0.00698828
0.00698843
0.0070071
0.00704319
0.00705275
0.00700458
0.00705276
0.00718341
0.00717931
0.0071443
0.00712179
0.00712203
0.00714467
0.00717965
0.0071834
0.00705259
0.00704321
0.00717966
0.00715757
0.0071007
0.00705932
0.00705952
0.00710094
0.00715756
0.0071793
0.0070428
0.00700712
0.00714469
0.00710096
0.00702375
0.00698252
0.00698259
0.00702374
0.00710069
0.00714429
0.00700673
0.00698845
0.00712204
0.00705953
0.00698261
0.00694357
0.00694356
0.00698251
0.00705931
0.00712178
0.00698828
0.0069883
0.00712181
0.00705934
0.00698253
0.00694357
0.00694357
0.00715395
0.00698259
0.00720814
0.00705951
0.0073077
0.00712202
0.00737095
0.00698843
0.0071959
0.00700676
0.00714432
0.00710072
0.00702376
0.00698261
0.00715395
0.00715395
0.00720814
0.0073077
0.00737095
0.0071959
0.00704284
0.00717933
0.00715759
0.00710097
0.00705953
0.00724737
0.00724737
0.00730753
0.00739902
0.0074199
0.00723602
0.00705262
0.00718343
0.00717968
0.00714469
0.00712204
0.00733504
0.00733504
0.00737071
0.00741972
0.00741093
0.00723886
0.00700461
0.00705278
0.00704322
0.00700713
0.00698845
0.00717916
0.00717916
0.00719571
0.0072358
0.00723878
0.00717093
)
;
    }
}


// ************************************************************************* //
