/*--------------------------------*- C++ -*----------------------------------*\
| =========                 |                                                 |
| \\      /  F ield         | OpenFOAM: The Open Source CFD Toolbox           |
|  \\    /   O peration     | Version:  2212                                  |
|   \\  /    A nd           | Website:  www.openfoam.com                      |
|    \\/     M anipulation  |                                                 |
\*---------------------------------------------------------------------------*/
FoamFile
{
    version     2.0;
    format      ascii;
    arch        "LSB;label=32;scalar=64";
    class       surfaceScalarField;
    location    "3";
    object      phi;
}
// * * * * * * * * * * * * * * * * * * * * * * * * * * * * * * * * * * * * * //

dimensions      [0 3 -1 0 0 0 0];

oriented        oriented;

internalField   nonuniform List<scalar> 
1800
(
3.32249e-07
1.09682e-09
1.09686e-09
2.7919e-07
2.65297e-08
2.65295e-08
2.49217e-07
1.49866e-08
1.49865e-08
2.29252e-07
9.98249e-09
9.98218e-09
2.14831e-07
7.21103e-09
7.20989e-09
2.03193e-07
5.81996e-09
5.81823e-09
4.71756e-09
4.71368e-09
6.3138e-07
3.58766e-09
7.40286e-09
6.14563e-07
2.26463e-08
2.07003e-08
5.86444e-07
2.43766e-08
1.87292e-08
5.61723e-07
1.88561e-08
1.58473e-08
5.39613e-07
1.55717e-08
1.37496e-08
5.20629e-07
1.3514e-08
1.12892e-08
1.19579e-08
8.70921e-09
8.90375e-07
2.85273e-09
6.33232e-09
8.82486e-07
1.34091e-08
1.71257e-08
8.70359e-07
1.78683e-08
1.86355e-08
8.55111e-07
1.6957e-08
1.71466e-08
8.39981e-07
1.53424e-08
1.53593e-08
8.25534e-07
1.41727e-08
1.37882e-08
1.33837e-08
1.23398e-08
1.07432e-06
1.06493e-09
5.56885e-09
1.06824e-06
5.58703e-09
1.39001e-08
1.06138e-06
8.46491e-09
1.62614e-08
1.05339e-06
9.04124e-09
1.59078e-08
1.04511e-06
8.61976e-09
1.49996e-08
1.03723e-06
8.12308e-09
1.39293e-08
7.79008e-09
1.29711e-08
1.16914e-06
-4.42752e-14
4.90652e-09
1.16312e-06
-2.51668e-13
1.16084e-08
1.15731e-06
-6.7589e-13
1.42752e-08
1.15202e-06
-1.26351e-12
1.43328e-08
1.14692e-06
-2.24354e-12
1.37282e-08
1.14208e-06
-4.0823e-12
1.29654e-08
-7.51396e-12
1.20946e-08
1.16914e-06
-1.06505e-09
4.90654e-09
1.16312e-06
-5.58748e-09
1.16084e-08
1.15731e-06
-8.46577e-09
1.42752e-08
1.15202e-06
-9.04271e-09
1.43331e-08
1.14691e-06
-8.62277e-09
1.37294e-08
1.14207e-06
-8.12916e-09
1.29678e-08
-7.80164e-09
1.20984e-08
1.07432e-06
-2.8527e-09
5.56884e-09
1.06824e-06
-1.3409e-08
1.39001e-08
1.06138e-06
-1.78682e-08
1.62618e-08
1.05338e-06
-1.69567e-08
1.59093e-08
1.0451e-06
-1.53425e-08
1.50025e-08
1.03721e-06
-1.41737e-08
1.39338e-08
-1.33862e-08
1.29779e-08
8.90375e-07
-3.58761e-09
6.33237e-09
8.82485e-07
-2.26459e-08
1.71261e-08
8.70357e-07
-2.43762e-08
1.86367e-08
8.55107e-07
-1.88553e-08
1.71485e-08
8.39972e-07
-1.55699e-08
1.53621e-08
8.25518e-07
-1.35109e-08
1.37918e-08
-1.19526e-08
1.23458e-08
6.3138e-07
-1.09686e-09
7.40291e-09
6.14563e-07
-2.65295e-08
2.07006e-08
5.86443e-07
-1.49865e-08
1.87298e-08
5.61722e-07
-9.98216e-09
1.58484e-08
5.39611e-07
-7.20987e-09
1.37512e-08
5.20626e-07
-5.81819e-09
1.12923e-08
-4.71364e-09
8.71414e-09
3.32249e-07
1.09682e-09
2.7919e-07
2.65297e-08
2.49217e-07
1.49866e-08
2.29252e-07
9.9825e-09
2.14832e-07
7.21104e-09
2.03193e-07
5.81996e-09
4.71758e-09
6.3138e-07
7.40291e-09
3.58761e-09
6.14563e-07
2.07006e-08
2.26459e-08
5.86443e-07
1.87298e-08
2.43762e-08
5.61722e-07
1.58484e-08
1.88554e-08
5.3961e-07
1.37512e-08
1.557e-08
5.20625e-07
1.12923e-08
1.3511e-08
8.71416e-09
1.19527e-08
9.23616e-07
7.03402e-09
7.03392e-09
9.25317e-07
1.98504e-08
1.98501e-08
9.1718e-07
2.27979e-08
2.27972e-08
9.04269e-07
2.23044e-08
2.2303e-08
8.90523e-07
2.06243e-08
2.06219e-08
8.77391e-07
1.78591e-08
1.78545e-08
1.47066e-08
1.4699e-08
1.1589e-06
5.28159e-09
6.10259e-09
1.1657e-06
1.39995e-08
1.61829e-08
1.16844e-06
1.79795e-08
2.07064e-08
1.16661e-06
1.91814e-08
2.21045e-08
1.16221e-06
1.88798e-08
2.15049e-08
1.15653e-06
1.75513e-08
1.97688e-08
1.56942e-08
1.74237e-08
1.32762e-06
2.71842e-09
4.93108e-09
1.33539e-06
7.12143e-09
1.30089e-08
1.34286e-06
9.5545e-09
1.72157e-08
1.34848e-06
1.05795e-08
1.88989e-08
1.35198e-06
1.08773e-08
1.95e-08
1.35376e-06
1.05834e-08
1.91134e-08
9.89595e-09
1.8098e-08
1.41518e-06
-1.12036e-13
4.19285e-09
1.42279e-06
-3.34539e-13
1.11159e-08
1.43152e-06
-5.71672e-13
1.50985e-08
1.43981e-06
-1.12278e-12
1.6629e-08
1.44714e-06
-2.23192e-12
1.72741e-08
1.45319e-06
-4.07927e-12
1.75071e-08
-6.85418e-12
1.71487e-08
1.41518e-06
-2.71855e-09
4.19292e-09
1.42279e-06
-7.12177e-09
1.11161e-08
1.43152e-06
-9.55511e-09
1.50988e-08
1.4398e-06
-1.05807e-08
1.66298e-08
1.44713e-06
-1.08798e-08
1.7276e-08
1.45318e-06
-1.05881e-08
1.75106e-08
-9.90411e-09
1.71543e-08
1.32762e-06
-5.2815e-09
4.93123e-09
1.33539e-06
-1.39993e-08
1.30094e-08
1.34286e-06
-1.79792e-08
1.72168e-08
1.34847e-06
-1.91809e-08
1.89016e-08
1.35197e-06
-1.88791e-08
1.95051e-08
1.35374e-06
-1.75498e-08
1.91213e-08
-1.56926e-08
1.81103e-08
1.1589e-06
-7.03392e-09
6.10278e-09
1.16569e-06
-1.985e-08
1.61837e-08
1.16844e-06
-2.27972e-08
2.07083e-08
1.1666e-06
-2.2303e-08
2.21075e-08
1.1622e-06
-2.06219e-08
2.15095e-08
1.15652e-06
-1.78544e-08
1.97751e-08
-1.46989e-08
1.7434e-08
9.23616e-07
-7.40286e-09
7.03402e-09
9.25317e-07
-2.07003e-08
1.98504e-08
9.17181e-07
-1.87292e-08
2.27979e-08
9.04269e-07
-1.58473e-08
2.23044e-08
8.90523e-07
-1.37496e-08
2.06243e-08
8.77391e-07
-1.12892e-08
1.78591e-08
-8.70917e-09
1.47065e-08
6.3138e-07
3.58766e-09
6.14563e-07
2.26463e-08
5.86444e-07
2.43766e-08
5.61723e-07
1.88561e-08
5.39613e-07
1.55717e-08
5.2063e-07
1.35139e-08
1.19579e-08
8.90375e-07
6.33237e-09
2.8527e-09
8.82485e-07
1.71261e-08
1.3409e-08
8.70357e-07
1.86367e-08
1.78682e-08
8.55107e-07
1.71485e-08
1.69568e-08
8.39972e-07
1.53621e-08
1.53426e-08
8.25517e-07
1.37918e-08
1.41738e-08
1.23458e-08
1.33864e-08
1.1589e-06
6.10278e-09
5.2815e-09
1.16569e-06
1.61837e-08
1.39993e-08
1.16844e-06
2.07083e-08
1.79792e-08
1.1666e-06
2.21076e-08
1.9181e-08
1.1622e-06
2.15095e-08
1.88792e-08
1.15652e-06
1.97752e-08
1.75499e-08
1.74341e-08
1.56928e-08
1.37712e-06
4.57762e-09
4.57742e-09
1.38565e-06
1.1918e-08
1.19174e-08
1.39417e-06
1.64488e-08
1.64476e-08
1.40126e-06
1.85635e-08
1.85616e-08
1.40641e-06
1.89343e-08
1.89311e-08
1.4095e-06
1.82278e-08
1.82229e-08
1.67251e-08
1.6717e-08
1.53312e-06
2.36628e-09
3.6493e-09
1.54218e-06
6.23955e-09
9.63389e-09
1.55328e-06
8.87467e-09
1.36918e-08
1.56445e-06
1.03494e-08
1.59368e-08
1.57507e-06
1.09035e-08
1.69121e-08
1.58471e-06
1.07607e-08
1.69459e-08
1.01529e-08
1.63772e-08
1.61424e-06
-7.80523e-14
3.09277e-09
1.62332e-06
-1.82049e-13
8.27386e-09
1.63534e-06
-3.23271e-13
1.19569e-08
1.6482e-06
-6.15693e-13
1.4114e-08
1.66118e-06
-1.18662e-12
1.51993e-08
1.67387e-06
-2.02028e-12
1.55811e-08
-3.46337e-12
1.54266e-08
1.61424e-06
-2.36633e-09
3.09286e-09
1.62332e-06
-6.23961e-09
8.27417e-09
1.63534e-06
-8.87477e-09
1.19575e-08
1.6482e-06
-1.03496e-08
1.41153e-08
1.66118e-06
-1.09038e-08
1.52017e-08
1.67386e-06
-1.07611e-08
1.55849e-08
-1.01539e-08
1.54321e-08
1.53312e-06
-4.57741e-09
3.64955e-09
1.54218e-06
-1.19174e-08
9.63463e-09
1.55327e-06
-1.64476e-08
1.36933e-08
1.56445e-06
-1.85615e-08
1.59395e-08
1.57506e-06
-1.8931e-08
1.69166e-08
1.58469e-06
-1.82227e-08
1.6953e-08
-1.67168e-08
1.63879e-08
1.37712e-06
-6.10258e-09
4.57761e-09
1.38565e-06
-1.61829e-08
1.1918e-08
1.39417e-06
-2.07064e-08
1.64487e-08
1.40126e-06
-2.21044e-08
1.85635e-08
1.40641e-06
-2.15049e-08
1.89342e-08
1.4095e-06
-1.97688e-08
1.82277e-08
-1.74236e-08
1.67249e-08
1.1589e-06
-6.33232e-09
5.28159e-09
1.1657e-06
-1.71257e-08
1.39995e-08
1.16844e-06
-1.86355e-08
1.79794e-08
1.16661e-06
-1.71466e-08
1.91813e-08
1.16221e-06
-1.53593e-08
1.88797e-08
1.15653e-06
-1.37881e-08
1.75512e-08
-1.23397e-08
1.56941e-08
8.90375e-07
2.85273e-09
8.82486e-07
1.34091e-08
8.70359e-07
1.78683e-08
8.55111e-07
1.69569e-08
8.39981e-07
1.53423e-08
8.25535e-07
1.41726e-08
1.33836e-08
1.07432e-06
5.56884e-09
1.06506e-09
1.06824e-06
1.39001e-08
5.5875e-09
1.06138e-06
1.62619e-08
8.46583e-09
1.05338e-06
1.59093e-08
9.04281e-09
1.0451e-06
1.50026e-08
8.62291e-09
1.03721e-06
1.39339e-08
8.12936e-09
1.29779e-08
7.8019e-09
1.32762e-06
4.93123e-09
2.71855e-09
1.33539e-06
1.30094e-08
7.1218e-09
1.34286e-06
1.72168e-08
9.55516e-09
1.34847e-06
1.89017e-08
1.05808e-08
1.35197e-06
1.95052e-08
1.088e-08
1.35374e-06
1.91214e-08
1.05882e-08
1.81104e-08
9.90434e-09
1.53312e-06
3.64956e-09
2.36633e-09
1.54218e-06
9.63465e-09
6.23964e-09
1.55327e-06
1.36933e-08
8.87483e-09
1.56445e-06
1.59396e-08
1.03497e-08
1.57506e-06
1.69167e-08
1.09039e-08
1.58469e-06
1.69532e-08
1.07613e-08
1.63882e-08
1.01541e-08
1.68027e-06
1.89127e-09
1.89115e-09
1.68934e-06
5.1e-09
5.0996e-09
1.70179e-06
7.46545e-09
7.46467e-09
1.71578e-06
8.94809e-09
8.94679e-09
1.73021e-06
9.69626e-09
9.69414e-09
1.74439e-06
9.8659e-09
9.86254e-09
9.65969e-09
9.65462e-09
1.7569e-06
4.60396e-15
1.61323e-09
1.76589e-06
5.30553e-14
4.38413e-09
1.77878e-06
1.24782e-13
6.5318e-09
1.79389e-06
2.20719e-13
7.95105e-09
1.81003e-06
3.61863e-13
8.7556e-09
1.82639e-06
5.67953e-13
9.08538e-09
8.08725e-13
9.07148e-09
1.7569e-06
-1.89114e-09
1.61332e-09
1.76589e-06
-5.09956e-09
4.38439e-09
1.77878e-06
-7.46461e-09
6.53231e-09
1.79389e-06
-8.94669e-09
7.95197e-09
1.81003e-06
-9.694e-09
8.75709e-09
1.82639e-06
-9.86234e-09
9.08768e-09
-9.65435e-09
9.07482e-09
1.68027e-06
-3.6493e-09
1.89126e-09
1.68934e-06
-9.63386e-09
5.09996e-09
1.70179e-06
-1.36918e-08
7.46537e-09
1.71578e-06
-1.59368e-08
8.94797e-09
1.73021e-06
-1.6912e-08
9.69608e-09
1.74439e-06
-1.69457e-08
9.86567e-09
-1.6377e-08
9.65941e-09
1.53312e-06
-4.93108e-09
2.36627e-09
1.54218e-06
-1.30089e-08
6.23952e-09
1.55328e-06
-1.72156e-08
8.87461e-09
1.56445e-06
-1.88988e-08
1.03493e-08
1.57507e-06
-1.95e-08
1.09033e-08
1.58471e-06
-1.91133e-08
1.07605e-08
-1.80979e-08
1.01527e-08
1.32763e-06
-5.56885e-09
2.71841e-09
1.33539e-06
-1.39001e-08
7.12141e-09
1.34287e-06
-1.62614e-08
9.55445e-09
1.34848e-06
-1.59078e-08
1.05794e-08
1.35198e-06
-1.49996e-08
1.08771e-08
1.35376e-06
-1.39292e-08
1.05832e-08
-1.2971e-08
9.89574e-09
1.07432e-06
1.06493e-09
1.06824e-06
5.58702e-09
1.06138e-06
8.46489e-09
1.05339e-06
9.0412e-09
1.04511e-06
8.61969e-09
1.03723e-06
8.12297e-09
7.78993e-09
1.16914e-06
4.90654e-09
4.52606e-14
1.16312e-06
1.16085e-08
2.76173e-13
1.15731e-06
1.42752e-08
7.47489e-13
1.15202e-06
1.43331e-08
1.36815e-12
1.14691e-06
1.37294e-08
2.39204e-12
1.14207e-06
1.29679e-08
4.28539e-12
1.20985e-08
7.78282e-12
1.41518e-06
4.19293e-09
1.20842e-13
1.42279e-06
1.11161e-08
3.71243e-13
1.43152e-06
1.50988e-08
6.3372e-13
1.4398e-06
1.66298e-08
1.21694e-12
1.44713e-06
1.72762e-08
2.37006e-12
1.45318e-06
1.75107e-08
4.27419e-12
1.71545e-08
7.11524e-12
1.61424e-06
3.09287e-09
8.90451e-14
1.62332e-06
8.2742e-09
2.17552e-13
1.63534e-06
1.19576e-08
3.84585e-13
1.6482e-06
1.41154e-08
7.10556e-13
1.66118e-06
1.52019e-08
1.32568e-12
1.67386e-06
1.55851e-08
2.21378e-12
1.54323e-08
3.72033e-12
1.7569e-06
1.61333e-09
9.1416e-15
1.76589e-06
4.38444e-09
-1.45146e-14
1.77878e-06
6.5324e-09
-5.72934e-14
1.79389e-06
7.95211e-09
-1.14959e-13
1.81003e-06
8.75729e-09
-2.07958e-13
1.82639e-06
9.08795e-09
-3.55229e-13
9.07515e-09
-5.26134e-13
1.83127e-06
3.73351e-14
-2.09115e-14
1.84004e-06
1.25483e-13
-7.38239e-14
1.85311e-06
2.38228e-13
-1.58158e-13
1.86901e-06
4.00247e-13
-2.74832e-13
1.88652e-06
6.18454e-13
-4.38051e-13
1.9047e-06
9.08944e-13
-6.63463e-13
1.28439e-12
-9.62415e-13
1.83127e-06
-1.61322e-09
1.9408e-14
1.84004e-06
-4.38409e-09
6.51718e-14
1.85311e-06
-6.53172e-09
1.40705e-13
1.86901e-06
-7.95094e-09
2.45097e-13
1.88652e-06
-8.75543e-09
4.01446e-13
1.9047e-06
-9.08515e-09
6.26363e-13
-9.07118e-09
9.33365e-13
1.7569e-06
-3.09276e-09
-1.18175e-14
1.76589e-06
-8.27384e-09
9.93271e-15
1.77878e-06
-1.19568e-08
4.01658e-14
1.79389e-06
-1.41139e-08
8.61102e-14
1.81003e-06
-1.51992e-08
1.7277e-13
1.82639e-06
-1.55809e-08
3.19702e-13
-1.54264e-08
4.98446e-13
1.61424e-06
-4.19285e-09
-9.05859e-14
1.62332e-06
-1.11159e-08
-2.19598e-13
1.63534e-06
-1.50985e-08
-3.96402e-13
1.6482e-06
-1.66289e-08
-7.31953e-13
1.66118e-06
-1.7274e-08
-1.35179e-12
1.67387e-06
-1.7507e-08
-2.23886e-12
-1.71485e-08
-3.74003e-12
1.41518e-06
-4.90652e-09
-1.21365e-13
1.42279e-06
-1.16084e-08
-3.61932e-13
1.43152e-06
-1.42752e-08
-6.27998e-13
1.43981e-06
-1.43328e-08
-1.21577e-12
1.44714e-06
-1.37282e-08
-2.36746e-12
1.45319e-06
-1.29653e-08
-4.26436e-12
-1.20945e-08
-7.09512e-12
1.16914e-06
-4.96582e-14
1.16312e-06
-2.69053e-13
1.15731e-06
-7.04197e-13
1.15202e-06
-1.31911e-12
1.14692e-06
-2.3333e-12
1.14208e-06
-4.21355e-12
-7.69203e-12
1.16914e-06
4.90653e-09
-1.06492e-09
1.16312e-06
1.16084e-08
-5.587e-09
1.15731e-06
1.42753e-08
-8.46485e-09
1.15202e-06
1.43329e-08
-9.04115e-09
1.14692e-06
1.37283e-08
-8.61962e-09
1.14208e-06
1.29655e-08
-8.12289e-09
1.20947e-08
-7.78981e-09
1.41518e-06
4.19285e-09
-2.71841e-09
1.42279e-06
1.11159e-08
-7.1214e-09
1.43152e-06
1.50985e-08
-9.55444e-09
1.43981e-06
1.6629e-08
-1.05794e-08
1.44714e-06
1.72742e-08
-1.08771e-08
1.45319e-06
1.75073e-08
-1.05832e-08
1.71489e-08
-9.89572e-09
1.61424e-06
3.09278e-09
-2.36627e-09
1.62332e-06
8.2739e-09
-6.23952e-09
1.63534e-06
1.19569e-08
-8.87462e-09
1.6482e-06
1.41141e-08
-1.03493e-08
1.66118e-06
1.51995e-08
-1.09034e-08
1.67387e-06
1.55813e-08
-1.07606e-08
1.54269e-08
-1.01527e-08
1.7569e-06
1.61325e-09
-1.89126e-09
1.76589e-06
4.38418e-09
-5.09996e-09
1.77878e-06
6.53189e-09
-7.46539e-09
1.79389e-06
7.95121e-09
-8.948e-09
1.81003e-06
8.75582e-09
-9.69612e-09
1.82639e-06
9.08567e-09
-9.86571e-09
9.07184e-09
-9.65944e-09
1.83127e-06
-5.55511e-15
-1.61332e-09
1.84004e-06
-2.44539e-14
-4.3844e-09
1.85311e-06
-5.09203e-14
-6.53233e-09
1.86901e-06
-1.03627e-13
-7.952e-09
1.88652e-06
-2.00116e-13
-8.75713e-09
1.9047e-06
-3.56815e-13
-9.08772e-09
-5.84022e-13
-9.07485e-09
1.83127e-06
-1.61331e-09
-1.61324e-09
1.84004e-06
-4.38435e-09
-4.38414e-09
1.85311e-06
-6.53223e-09
-6.53181e-09
1.86901e-06
-7.95185e-09
-7.95108e-09
1.88652e-06
-8.75691e-09
-8.75563e-09
1.9047e-06
-9.08744e-09
-9.08542e-09
-9.0745e-09
1.7569e-06
-3.09286e-09
-1.89116e-09
1.76589e-06
-8.27415e-09
-5.0996e-09
1.77878e-06
-1.19574e-08
-7.46469e-09
1.79389e-06
-1.41152e-08
-8.94681e-09
1.81003e-06
-1.52016e-08
-9.69417e-09
1.82639e-06
-1.55847e-08
-9.86258e-09
-1.54318e-08
1.61424e-06
-4.19292e-09
-2.36634e-09
1.62332e-06
-1.11161e-08
-6.23965e-09
1.63534e-06
-1.50988e-08
-8.87484e-09
1.6482e-06
-1.66297e-08
-1.03497e-08
1.66118e-06
-1.7276e-08
-1.09039e-08
1.67386e-06
-1.75104e-08
-1.07613e-08
-1.71541e-08
1.41518e-06
-4.90654e-09
-2.71855e-09
1.42279e-06
-1.16084e-08
-7.1218e-09
1.43152e-06
-1.42752e-08
-9.55516e-09
1.4398e-06
-1.43331e-08
-1.05808e-08
1.44714e-06
-1.37293e-08
-1.088e-08
1.45318e-06
-1.29678e-08
-1.05882e-08
-1.20983e-08
1.16914e-06
-1.06506e-09
1.16312e-06
-5.5875e-09
1.15731e-06
-8.4658e-09
1.15202e-06
-9.04277e-09
1.14691e-06
-8.62287e-09
1.14207e-06
-8.1293e-09
1.07432e-06
5.56885e-09
-2.85273e-09
1.06824e-06
1.39001e-08
-1.34091e-08
1.06138e-06
1.62614e-08
-1.78683e-08
1.05339e-06
1.59079e-08
-1.69569e-08
1.04511e-06
1.49997e-08
-1.53423e-08
1.03723e-06
1.39293e-08
-1.41725e-08
1.29712e-08
-1.33835e-08
1.32762e-06
4.93108e-09
-5.28159e-09
1.33539e-06
1.30089e-08
-1.39995e-08
1.34286e-06
1.72157e-08
-1.79794e-08
1.34848e-06
1.8899e-08
-1.91813e-08
1.35198e-06
1.95002e-08
-1.88797e-08
1.35376e-06
1.91135e-08
-1.75512e-08
1.80982e-08
-1.56941e-08
1.53312e-06
3.64931e-09
-4.57761e-09
1.54218e-06
9.63392e-09
-1.1918e-08
1.55328e-06
1.36919e-08
-1.64487e-08
1.56445e-06
1.5937e-08
-1.85635e-08
1.57507e-06
1.69123e-08
-1.89343e-08
1.58471e-06
1.69461e-08
-1.82277e-08
1.63775e-08
-1.6725e-08
1.68027e-06
1.89116e-09
-3.64955e-09
1.68934e-06
5.09964e-09
-9.63463e-09
1.70179e-06
7.46477e-09
-1.36933e-08
1.71578e-06
8.94695e-09
-1.59396e-08
1.73021e-06
9.69437e-09
-1.69166e-08
1.74439e-06
9.86284e-09
-1.6953e-08
9.65498e-09
-1.6388e-08
1.7569e-06
2.40481e-14
-3.09287e-09
1.76589e-06
3.38559e-14
-8.27418e-09
1.77878e-06
4.78634e-14
-1.19575e-08
1.79389e-06
5.51703e-14
-1.41153e-08
1.81003e-06
2.65975e-14
-1.52017e-08
1.82639e-06
-5.58076e-14
-1.55849e-08
-1.54321e-08
1.7569e-06
-1.89125e-09
-3.09277e-09
1.76589e-06
-5.09992e-09
-8.27387e-09
1.77878e-06
-7.4653e-09
-1.19569e-08
1.79389e-06
-8.94785e-09
-1.4114e-08
1.81003e-06
-9.69591e-09
-1.51993e-08
-9.86543e-09
-1.55811e-08
1.68027e-06
-3.64954e-09
-3.64931e-09
1.68934e-06
-9.6346e-09
-9.63389e-09
1.70179e-06
-1.36932e-08
-1.36918e-08
1.71578e-06
-1.59394e-08
-1.59369e-08
1.73021e-06
-1.69165e-08
-1.69121e-08
-1.69528e-08
-1.69459e-08
1.53312e-06
-4.93123e-09
-4.57742e-09
1.54218e-06
-1.30094e-08
-1.19174e-08
1.55327e-06
-1.72168e-08
-1.64476e-08
1.56445e-06
-1.89016e-08
-1.85616e-08
1.57506e-06
-1.9505e-08
-1.89311e-08
-1.91212e-08
-1.82229e-08
1.32762e-06
-5.56884e-09
-5.28151e-09
1.33539e-06
-1.39001e-08
-1.39993e-08
1.34286e-06
-1.62618e-08
-1.79792e-08
1.34847e-06
-1.59092e-08
-1.9181e-08
1.35197e-06
-1.50025e-08
-1.88792e-08
-1.39338e-08
-1.75499e-08
1.07432e-06
-2.85271e-09
1.06824e-06
-1.3409e-08
1.06138e-06
-1.78682e-08
1.05338e-06
-1.69568e-08
1.0451e-06
-1.53425e-08
-1.41738e-08
8.90375e-07
6.33232e-09
-3.58765e-09
8.82486e-07
1.71257e-08
-2.26463e-08
8.70359e-07
1.86355e-08
-2.43766e-08
8.55111e-07
1.71466e-08
-1.8856e-08
8.39981e-07
1.53594e-08
-1.55716e-08
8.25534e-07
1.37882e-08
-1.35139e-08
1.23399e-08
-1.19578e-08
1.1589e-06
6.10259e-09
-7.03402e-09
1.1657e-06
1.61829e-08
-1.98504e-08
1.16844e-06
2.07065e-08
-2.27979e-08
1.16661e-06
2.21046e-08
-2.23044e-08
1.16221e-06
2.15051e-08
-2.06243e-08
1.15653e-06
1.9769e-08
-1.78591e-08
1.74239e-08
-1.47065e-08
1.37712e-06
4.57742e-09
-6.10277e-09
1.38565e-06
1.19175e-08
-1.61837e-08
1.39417e-06
1.64477e-08
-2.07083e-08
1.40126e-06
1.85617e-08
-2.21076e-08
1.40641e-06
1.89313e-08
-2.15095e-08
1.4095e-06
1.82231e-08
-1.97752e-08
1.67173e-08
-1.74341e-08
1.53312e-06
2.36634e-09
-4.93123e-09
1.54218e-06
6.23967e-09
-1.30094e-08
1.55327e-06
8.8749e-09
-1.72168e-08
1.56445e-06
1.03499e-08
-1.89017e-08
1.57506e-06
1.09041e-08
-1.95052e-08
1.58469e-06
1.07616e-08
-1.91214e-08
1.01544e-08
-1.81103e-08
1.61424e-06
9.80903e-14
-4.19292e-09
1.62332e-06
2.497e-13
-1.11161e-08
1.63534e-06
4.67313e-13
-1.50988e-08
1.6482e-06
8.54167e-13
-1.66298e-08
1.66118e-06
1.53058e-12
-1.72761e-08
1.67386e-06
2.4792e-12
-1.75106e-08
-1.71543e-08
1.61424e-06
-2.36627e-09
-4.19285e-09
1.62332e-06
-6.23949e-09
-1.11159e-08
1.63534e-06
-8.87454e-09
-1.50985e-08
1.6482e-06
-1.03492e-08
-1.6629e-08
1.66118e-06
-1.09032e-08
-1.72741e-08
-1.07603e-08
-1.75071e-08
1.53312e-06
-4.5776e-09
-4.93109e-09
1.54218e-06
-1.1918e-08
-1.30089e-08
1.55328e-06
-1.64487e-08
-1.72157e-08
1.56445e-06
-1.85634e-08
-1.88989e-08
1.57507e-06
-1.89341e-08
-1.95e-08
-1.82275e-08
-1.91134e-08
1.37712e-06
-6.10278e-09
-6.10259e-09
1.38565e-06
-1.61837e-08
-1.61829e-08
1.39417e-06
-2.07083e-08
-2.07064e-08
1.40126e-06
-2.21075e-08
-2.21045e-08
1.40641e-06
-2.15094e-08
-2.1505e-08
-1.9775e-08
-1.97688e-08
1.1589e-06
-6.33237e-09
-7.03393e-09
1.16569e-06
-1.71261e-08
-1.98501e-08
1.16844e-06
-1.86367e-08
-2.27972e-08
1.1666e-06
-1.71485e-08
-2.2303e-08
1.1622e-06
-1.5362e-08
-2.06219e-08
-1.37918e-08
-1.78545e-08
8.90375e-07
-3.58762e-09
8.82485e-07
-2.2646e-08
8.70357e-07
-2.43762e-08
8.55107e-07
-1.88554e-08
8.39972e-07
-1.557e-08
-1.3511e-08
6.3138e-07
7.40286e-09
-1.09682e-09
6.14563e-07
2.07003e-08
-2.65297e-08
5.86444e-07
1.87292e-08
-1.49866e-08
5.61723e-07
1.58473e-08
-9.9825e-09
5.39613e-07
1.37497e-08
-7.21104e-09
5.20629e-07
1.12893e-08
-5.81994e-09
8.70932e-09
-4.71754e-09
9.23616e-07
7.03393e-09
-7.40291e-09
9.25317e-07
1.98501e-08
-2.07006e-08
9.1718e-07
2.27972e-08
-1.87298e-08
9.04269e-07
2.23031e-08
-1.58484e-08
8.90523e-07
2.0622e-08
-1.37512e-08
8.77391e-07
1.78547e-08
-1.12923e-08
1.46992e-08
-8.71418e-09
1.1589e-06
5.28151e-09
-6.33237e-09
1.16569e-06
1.39993e-08
-1.71261e-08
1.16844e-06
1.79793e-08
-1.86367e-08
1.1666e-06
1.9181e-08
-1.71485e-08
1.1622e-06
1.88793e-08
-1.53621e-08
1.15652e-06
1.75501e-08
-1.37919e-08
1.5693e-08
-1.23458e-08
1.32762e-06
2.71855e-09
-5.56884e-09
1.33539e-06
7.1218e-09
-1.39001e-08
1.34286e-06
9.55519e-09
-1.62619e-08
1.34847e-06
1.05809e-08
-1.59093e-08
1.35197e-06
1.08801e-08
-1.50026e-08
1.35374e-06
1.05884e-08
-1.39339e-08
9.90455e-09
-1.29779e-08
1.41518e-06
1.2308e-13
-4.90655e-09
1.42279e-06
3.63377e-13
-1.16084e-08
1.43152e-06
6.57709e-13
-1.42752e-08
1.4398e-06
1.28664e-12
-1.43331e-08
1.44713e-06
2.48369e-12
-1.37294e-08
1.45318e-06
4.43105e-12
-1.29679e-08
-1.20984e-08
1.41518e-06
-2.71841e-09
-4.90652e-09
1.42279e-06
-7.12141e-09
-1.16084e-08
1.43152e-06
-9.55442e-09
-1.42752e-08
1.43981e-06
-1.05794e-08
-1.43328e-08
1.44714e-06
-1.0877e-08
-1.37282e-08
-1.05831e-08
-1.29654e-08
1.32762e-06
-5.28159e-09
-5.56885e-09
1.33539e-06
-1.39995e-08
-1.39001e-08
1.34286e-06
-1.79794e-08
-1.62614e-08
1.34848e-06
-1.91813e-08
-1.59078e-08
1.35198e-06
-1.88796e-08
-1.49996e-08
-1.7551e-08
-1.39292e-08
1.1589e-06
-7.03401e-09
-6.33232e-09
1.1657e-06
-1.98504e-08
-1.71257e-08
1.16844e-06
-2.27979e-08
-1.86355e-08
1.16661e-06
-2.23044e-08
-1.71466e-08
1.16221e-06
-2.06242e-08
-1.53593e-08
-1.7859e-08
-1.37881e-08
9.23616e-07
-7.40291e-09
-7.40286e-09
9.25317e-07
-2.07006e-08
-2.07003e-08
9.17181e-07
-1.87298e-08
-1.87292e-08
9.04269e-07
-1.58484e-08
-1.58473e-08
8.90523e-07
-1.37511e-08
-1.37496e-08
-1.12922e-08
-1.12892e-08
6.3138e-07
-1.09686e-09
6.14563e-07
-2.65295e-08
5.86443e-07
-1.49865e-08
5.61722e-07
-9.98217e-09
5.39611e-07
-7.20989e-09
-5.81823e-09
3.32249e-07
1.09686e-09
2.7919e-07
2.65295e-08
2.49217e-07
1.49865e-08
2.29252e-07
9.98217e-09
2.14832e-07
7.20992e-09
2.03193e-07
5.81825e-09
4.71373e-09
6.3138e-07
3.58761e-09
6.14563e-07
2.26459e-08
5.86443e-07
2.43762e-08
5.61722e-07
1.88554e-08
5.3961e-07
1.557e-08
5.20625e-07
1.3511e-08
1.19528e-08
8.90375e-07
2.8527e-09
8.82485e-07
1.3409e-08
8.70357e-07
1.78682e-08
8.55107e-07
1.69567e-08
8.39972e-07
1.53426e-08
8.25517e-07
1.41738e-08
1.33864e-08
1.07432e-06
1.06505e-09
1.06824e-06
5.58747e-09
1.06138e-06
8.46577e-09
1.05338e-06
9.04275e-09
1.0451e-06
8.62286e-09
1.03721e-06
8.12932e-09
7.80189e-09
1.16914e-06
5.31242e-14
1.16312e-06
2.58193e-13
1.15731e-06
6.55286e-13
1.15202e-06
1.28848e-12
1.14691e-06
2.3262e-12
1.14207e-06
4.23063e-12
1.16914e-06
-1.06493e-09
1.16312e-06
-5.58703e-09
1.15731e-06
-8.46492e-09
1.15202e-06
-9.04121e-09
1.14692e-06
-8.61968e-09
-8.12294e-09
1.07432e-06
-2.85273e-09
1.06824e-06
-1.34091e-08
1.06138e-06
-1.78683e-08
1.05339e-06
-1.69569e-08
1.04511e-06
-1.53423e-08
-1.41725e-08
8.90375e-07
-3.58765e-09
8.82486e-07
-2.26463e-08
8.70359e-07
-2.43766e-08
8.55111e-07
-1.8856e-08
8.39981e-07
-1.55717e-08
-1.35139e-08
6.3138e-07
-1.09682e-09
6.14563e-07
-2.65297e-08
5.86444e-07
-1.49866e-08
5.61723e-07
-9.98251e-09
5.39613e-07
-7.21103e-09
-5.81995e-09
3.32249e-07
2.7919e-07
2.49217e-07
2.29252e-07
2.14832e-07
)
;

boundaryField
{
    inlet
    {
        type            calculated;
        value           nonuniform List<scalar> 
100
(
-3.34443e-07
-6.41274e-07
-8.95972e-07
-1.0781e-06
-1.17299e-06
-1.17299e-06
-1.0781e-06
-8.95972e-07
-6.41274e-07
-3.34443e-07
-6.41274e-07
-9.22878e-07
-1.15692e-06
-1.32442e-06
-1.41174e-06
-1.41174e-06
-1.32442e-06
-1.15692e-06
-9.22878e-07
-6.41274e-07
-8.95972e-07
-1.15692e-06
-1.37407e-06
-1.52963e-06
-1.61077e-06
-1.61077e-06
-1.52963e-06
-1.37407e-06
-1.15692e-06
-8.95972e-07
-1.0781e-06
-1.32442e-06
-1.52963e-06
-1.67675e-06
-1.75353e-06
-1.75353e-06
-1.67675e-06
-1.52963e-06
-1.32442e-06
-1.0781e-06
-1.17299e-06
-1.41174e-06
-1.61077e-06
-1.75353e-06
-1.82805e-06
-1.82805e-06
-1.75353e-06
-1.61077e-06
-1.41174e-06
-1.17299e-06
-1.17299e-06
-1.41174e-06
-1.61077e-06
-1.75353e-06
-1.82805e-06
-1.82805e-06
-1.75353e-06
-1.61077e-06
-1.41174e-06
-1.17299e-06
-1.0781e-06
-1.32442e-06
-1.52963e-06
-1.67675e-06
-1.75353e-06
-1.75353e-06
-1.67675e-06
-1.52963e-06
-1.32442e-06
-1.0781e-06
-8.95972e-07
-1.15692e-06
-1.37407e-06
-1.52963e-06
-1.61077e-06
-1.61077e-06
-1.52963e-06
-1.37407e-06
-1.15692e-06
-8.95972e-07
-6.41274e-07
-9.22878e-07
-1.15692e-06
-1.32442e-06
-1.41174e-06
-1.41174e-06
-1.32442e-06
-1.15692e-06
-9.22878e-07
-6.41274e-07
-3.34443e-07
-6.41274e-07
-8.95972e-07
-1.0781e-06
-1.17299e-06
-1.17299e-06
-1.0781e-06
-8.95972e-07
-6.41274e-07
-3.34443e-07
)
;
    }
    ami1
    {
        type            cyclicAMI;
        value           nonuniform List<scalar> 0();
    }
    walls
    {
        type            calculated;
        value           uniform 0;
    }
    ami2
    {
        type            cyclicAMI;
        value           nonuniform List<scalar> 0();
    }
    outlet
    {
        type            calculated;
        value           nonuniform List<scalar> 0();
    }
    procBoundary4to3
    {
        type            processor;
        value           nonuniform List<scalar> 
109
(
1.93762e-07
5.0468e-07
8.11769e-07
1.02985e-06
1.13778e-06
1.13776e-06
1.02982e-06
8.11738e-07
5.04672e-07
1.93762e-07
5.04672e-07
8.65409e-07
1.15046e-06
1.35443e-06
1.45804e-06
1.45802e-06
1.3544e-06
1.15044e-06
8.65409e-07
5.0468e-07
8.11738e-07
1.15044e-06
1.41091e-06
1.593e-06
1.68575e-06
1.68573e-06
1.59298e-06
1.41091e-06
1.15046e-06
8.11769e-07
1.02982e-06
1.3544e-06
1.59298e-06
1.75784e-06
1.84241e-06
1.8424e-06
1.75784e-06
1.593e-06
1.35443e-06
1.02985e-06
1.13776e-06
1.45802e-06
1.68573e-06
1.8424e-06
1.92284e-06
1.92284e-06
1.84241e-06
1.68575e-06
1.45804e-06
1.13778e-06
1.13778e-06
1.45803e-06
1.68575e-06
1.84241e-06
1.92284e-06
1.92284e-06
-9.07151e-09
1.8424e-06
-9.65465e-09
1.68573e-06
-1.01541e-08
1.45802e-06
-9.90434e-09
1.13776e-06
-7.80184e-09
1.02985e-06
1.35443e-06
1.593e-06
1.75784e-06
1.8424e-06
-1.59464e-13
1.82639e-06
1.74439e-06
1.58469e-06
1.35374e-06
1.03721e-06
8.11769e-07
1.15046e-06
1.41091e-06
1.59298e-06
1.68573e-06
4.05007e-12
1.67387e-06
1.58471e-06
1.4095e-06
1.15652e-06
8.25518e-07
5.0468e-07
8.65409e-07
1.15044e-06
1.3544e-06
1.45802e-06
7.31995e-12
1.45319e-06
1.35376e-06
1.15653e-06
8.77391e-07
5.20626e-07
1.93762e-07
5.04672e-07
8.11738e-07
1.02982e-06
1.13776e-06
7.74123e-12
1.14208e-06
1.03723e-06
8.25535e-07
5.20629e-07
2.03193e-07
)
;
    }
}


// ************************************************************************* //
