/*--------------------------------*- C++ -*----------------------------------*\
| =========                 |                                                 |
| \\      /  F ield         | OpenFOAM: The Open Source CFD Toolbox           |
|  \\    /   O peration     | Version:  2212                                  |
|   \\  /    A nd           | Website:  www.openfoam.com                      |
|    \\/     M anipulation  |                                                 |
\*---------------------------------------------------------------------------*/
FoamFile
{
    version     2.0;
    format      ascii;
    arch        "LSB;label=32;scalar=64";
    class       volVectorField;
    location    "3";
    object      U;
}
// * * * * * * * * * * * * * * * * * * * * * * * * * * * * * * * * * * * * * //

dimensions      [0 1 -1 0 0 0 0];

internalField   nonuniform List<vector> 
680
(
(0.0956456 -0.00836005 -0.00836005)
(0.0904939 0.00152205 0.00152201)
(0.0790682 0.0024298 0.00242972)
(0.071301 0.00148784 0.00148765)
(0.0661791 0.000830675 0.000830254)
(0.062322 0.000564025 0.000563326)
(0.0592198 0.000427082 0.000425421)
(0.0999088 0.001297 0.000712547)
(0.0969668 0.00365596 0.00274721)
(0.0935345 0.00264033 0.00211804)
(0.089589 0.00182067 0.00162043)
(0.0858317 0.00152926 0.00139032)
(0.0825893 0.00135205 0.00116064)
(0.0798639 0.00118068 0.000896275)
(0.099413 0.000345251 0.000270227)
(0.0988664 0.00201914 0.00187485)
(0.0979216 0.00257334 0.00218884)
(0.096366 0.00238025 0.00190812)
(0.0946337 0.00211475 0.00162626)
(0.0929729 0.00192782 0.00141792)
(0.0913654 0.00180325 0.00126999)
(0.0995405 0.000245046 0.000321897)
(0.0992576 0.00105564 0.00154091)
(0.098849 0.00150239 0.00211437)
(0.0981251 0.00157951 0.00209148)
(0.0973376 0.00151488 0.00188589)
(0.0965864 0.00144641 0.00166547)
(0.095868 0.00141002 0.0014974)
(0.0993802 3.377e-05 5.89756e-05)
(0.0992678 0.000274356 0.00120002)
(0.0989806 0.00043228 0.00188841)
(0.098475 0.000483275 0.00200627)
(0.0979964 0.000478473 0.00191431)
(0.0975725 0.000464774 0.00173412)
(0.0971839 0.000451394 0.00154634)
(0.0993802 -3.37856e-05 5.89984e-05)
(0.0992678 -0.000274434 0.00120004)
(0.0989806 -0.000432461 0.00188841)
(0.0984749 -0.0004836 0.00200631)
(0.0979961 -0.000479056 0.00191442)
(0.0975719 -0.00046586 0.00173438)
(0.0971828 -0.000453429 0.00154671)
(0.0995405 -0.000245051 0.000321896)
(0.0992576 -0.00105566 0.0015409)
(0.0988489 -0.00150243 0.00211444)
(0.0981248 -0.00157959 0.00209161)
(0.0973369 -0.00151513 0.00188609)
(0.096585 -0.00144701 0.00166579)
(0.0958655 -0.00141116 0.00149776)
(0.099413 -0.00034524 0.000270231)
(0.0988664 -0.00201909 0.0018749)
(0.0979214 -0.00257323 0.00218901)
(0.0963657 -0.00238003 0.0019084)
(0.094633 -0.00211442 0.00162665)
(0.0929716 -0.00192729 0.00141848)
(0.0913629 -0.00180247 0.00127091)
(0.0999088 -0.00129699 0.000712561)
(0.0969668 -0.00365589 0.00274727)
(0.0935344 -0.00264022 0.00211817)
(0.0895889 -0.00182047 0.00162069)
(0.0858314 -0.0015288 0.0013907)
(0.0825889 -0.00135133 0.00116132)
(0.0798631 -0.00117938 0.000897395)
(0.0956456 0.00836005 -0.00836005)
(0.0904939 -0.001522 0.00152205)
(0.0790682 -0.00242972 0.0024298)
(0.071301 -0.00148764 0.00148785)
(0.0661791 -0.00083025 0.00083068)
(0.062322 -0.000563319 0.00056403)
(0.0592198 -0.000425411 0.00042709)
(0.0999088 0.00071256 0.00129699)
(0.0969668 0.00274727 0.00365589)
(0.0935344 0.00211817 0.00264022)
(0.0895889 0.00162069 0.00182048)
(0.0858314 0.0013907 0.00152881)
(0.0825888 0.00116132 0.00135134)
(0.0798631 0.000897395 0.00117939)
(0.100226 0.000720827 0.000720811)
(0.09996 0.00198279 0.0019827)
(0.0997821 0.00245202 0.0024518)
(0.0987879 0.00241994 0.00241956)
(0.0972751 0.0022013 0.00220071)
(0.0957739 0.0018122 0.00181114)
(0.0943913 0.00138354 0.0013818)
(0.10014 0.000775041 0.000869237)
(0.100454 0.00196249 0.00196352)
(0.100911 0.00242771 0.00233439)
(0.100978 0.00252692 0.00244105)
(0.100694 0.00242678 0.00233641)
(0.100224 0.00219836 0.00211196)
(0.0997085 0.00191813 0.00182244)
(0.100093 0.000445948 0.000763193)
(0.100504 0.00119456 0.001749)
(0.101105 0.00158694 0.00212949)
(0.101635 0.00174064 0.0022345)
(0.101979 0.00178262 0.00228669)
(0.102172 0.00172962 0.00223533)
(0.102253 0.00160906 0.00211502)
(0.100087 0.000144388 0.000707009)
(0.100477 0.0003905 0.00161776)
(0.101066 0.000541127 0.00203461)
(0.101695 0.00061016 0.00211751)
(0.102269 0.000635974 0.00214982)
(0.102743 0.000626681 0.00217912)
(0.103125 0.000594549 0.00213312)
(0.100087 -0.000144416 0.000707011)
(0.100477 -0.000390584 0.00161776)
(0.101066 -0.000541271 0.0020346)
(0.101694 -0.000610425 0.00211756)
(0.102269 -0.000636508 0.00215002)
(0.102742 -0.000627674 0.00217951)
(0.103124 -0.000596218 0.00213374)
(0.100093 -0.000445948 0.000763199)
(0.100504 -0.00119455 0.00174902)
(0.101105 -0.00158694 0.00212959)
(0.101634 -0.00174067 0.00223485)
(0.101979 -0.0017827 0.00228738)
(0.102171 -0.00172976 0.00223636)
(0.102251 -0.00160941 0.00211657)
(0.10014 -0.000775021 0.000869263)
(0.100454 -0.00196243 0.00196365)
(0.100911 -0.00242758 0.0023347)
(0.100978 -0.00252664 0.00244157)
(0.100693 -0.00242631 0.00233717)
(0.100223 -0.00219753 0.00211295)
(0.099707 -0.00191685 0.00182399)
(0.100226 -0.000720811 0.000720827)
(0.09996 -0.0019827 0.00198279)
(0.0997822 -0.0024518 0.00245201)
(0.0987879 -0.00241956 0.00241993)
(0.0972751 -0.00220071 0.00220129)
(0.0957739 -0.00181114 0.0018122)
(0.0943913 -0.00138179 0.00138353)
(0.0999088 -0.000712547 0.001297)
(0.0969668 -0.0027472 0.00365596)
(0.0935345 -0.00211804 0.00264033)
(0.0895891 -0.00162043 0.00182067)
(0.0858317 -0.00139032 0.00152926)
(0.0825893 -0.00116063 0.00135205)
(0.0798639 -0.000896271 0.00118068)
(0.099413 0.00027023 0.00034524)
(0.0988664 0.0018749 0.00201909)
(0.0979214 0.00218901 0.00257324)
(0.0963657 0.0019084 0.00238004)
(0.094633 0.00162665 0.00211443)
(0.0929715 0.00141848 0.00192731)
(0.0913629 0.00127091 0.0018025)
(0.10014 0.000869263 0.000775021)
(0.100454 0.00196365 0.00196243)
(0.100911 0.0023347 0.00242758)
(0.100978 0.00244158 0.00252665)
(0.100693 0.00233717 0.00242632)
(0.100223 0.00211296 0.00219755)
(0.099707 0.001824 0.00191687)
(0.10006 0.000641435 0.000641398)
(0.100501 0.00164519 0.00164506)
(0.101149 0.0022127 0.00221245)
(0.101738 0.0024405 0.00244006)
(0.102204 0.00244272 0.00244201)
(0.102501 0.00231466 0.00231355)
(0.102644 0.00209441 0.00209257)
(0.100046 0.000395752 0.000540237)
(0.10048 0.00104497 0.00138408)
(0.101154 0.00147557 0.00192293)
(0.101913 0.00170559 0.00219248)
(0.102632 0.00178067 0.00229389)
(0.103301 0.00174577 0.00227796)
(0.103894 0.00163569 0.00218512)
(0.100039 0.000131342 0.00047876)
(0.100448 0.000350524 0.00123475)
(0.101114 0.000505131 0.00174643)
(0.101909 0.000597279 0.00202672)
(0.102729 0.000638717 0.0021519)
(0.10353 0.000638458 0.00218607)
(0.104298 0.000604822 0.00215267)
(0.100039 -0.00013136 0.000478771)
(0.100448 -0.000350569 0.00123479)
(0.101114 -0.00050521 0.00174651)
(0.101909 -0.000597414 0.00202686)
(0.102729 -0.000638961 0.00215218)
(0.103529 -0.000638875 0.00218654)
(0.104298 -0.000605577 0.00215338)
(0.100046 -0.000395738 0.000540269)
(0.10048 -0.00104492 0.00138418)
(0.101154 -0.00147548 0.00192314)
(0.101913 -0.00170547 0.00219286)
(0.102631 -0.00178045 0.00229456)
(0.103301 -0.0017454 0.00227904)
(0.103893 -0.00163508 0.00218681)
(0.10006 -0.000641398 0.000641435)
(0.100501 -0.00164506 0.00164518)
(0.101149 -0.00221245 0.0022127)
(0.101738 -0.00244005 0.0024405)
(0.102204 -0.002442 0.00244271)
(0.102501 -0.00231354 0.00231464)
(0.102644 -0.00209255 0.00209439)
(0.10014 -0.000869237 0.000775041)
(0.100454 -0.00196352 0.00196249)
(0.100911 -0.00233439 0.0024277)
(0.100978 -0.00244105 0.00252691)
(0.100694 -0.00233641 0.00242677)
(0.100224 -0.00211195 0.00219835)
(0.0997085 -0.00182243 0.00191812)
(0.099413 -0.000270227 0.000345251)
(0.0988664 -0.00187485 0.00201914)
(0.0979216 -0.00218884 0.00257334)
(0.096366 -0.00190812 0.00238024)
(0.0946337 -0.00162625 0.00211475)
(0.0929729 -0.00141792 0.00192782)
(0.0913654 -0.00126999 0.00180324)
(0.0995405 0.000321896 0.000245051)
(0.0992576 0.0015409 0.00105566)
(0.0988489 0.00211444 0.00150244)
(0.0981248 0.00209161 0.0015796)
(0.0973369 0.0018861 0.00151515)
(0.096585 0.0016658 0.00144703)
(0.0958655 0.00149777 0.00141119)
(0.100093 0.000763198 0.000445949)
(0.100504 0.00174902 0.00119456)
(0.101105 0.00212959 0.00158694)
(0.101634 0.00223486 0.00174068)
(0.101979 0.00228739 0.00178271)
(0.102171 0.00223637 0.00172978)
(0.102251 0.00211658 0.00160944)
(0.100046 0.00054027 0.000395738)
(0.10048 0.00138419 0.00104493)
(0.101154 0.00192314 0.00147549)
(0.101913 0.00219287 0.00170548)
(0.102631 0.00229457 0.00178046)
(0.103301 0.00227906 0.00174542)
(0.103893 0.00218683 0.00163511)
(0.100036 0.000323173 0.000323146)
(0.100429 0.000868767 0.000868683)
(0.10108 0.00126257 0.00126241)
(0.101891 0.00150467 0.0015044)
(0.102756 0.00162207 0.00162161)
(0.103616 0.00164349 0.00164278)
(0.104446 0.00160574 0.00160469)
(0.100031 0.000107092 0.000281377)
(0.100395 0.000293091 0.000768622)
(0.101024 0.000434165 0.00113306)
(0.101844 0.000526373 0.00136918)
(0.102751 0.000576582 0.0015014)
(0.103689 0.0005921 0.00155415)
(0.104618 0.000582868 0.00154911)
(0.100031 -0.000107087 0.000281389)
(0.100395 -0.000293073 0.00076866)
(0.101024 -0.000434127 0.00113314)
(0.101843 -0.000526311 0.00136933)
(0.102751 -0.000576481 0.00150165)
(0.103688 -0.000591939 0.00155454)
(0.104617 -0.00058263 0.00154966)
(0.100036 -0.000323145 0.000323172)
(0.100429 -0.000868679 0.000868763)
(0.10108 -0.0012624 0.00126256)
(0.101891 -0.00150439 0.00150466)
(0.102756 -0.0016216 0.00162205)
(0.103616 -0.00164276 0.00164346)
(0.104446 -0.00160467 0.00160571)
(0.100046 -0.000540237 0.000395751)
(0.10048 -0.00138408 0.00104497)
(0.101154 -0.00192293 0.00147556)
(0.101913 -0.00219247 0.00170558)
(0.102632 -0.00229388 0.00178065)
(0.103301 -0.00227794 0.00174575)
(0.103894 -0.0021851 0.00163567)
(0.100093 -0.000763193 0.000445948)
(0.100504 -0.001749 0.00119456)
(0.101105 -0.00212949 0.00158694)
(0.101635 -0.0022345 0.00174063)
(0.101979 -0.00228668 0.0017826)
(0.102172 -0.00223532 0.00172961)
(0.102253 -0.00211501 0.00160904)
(0.0995405 -0.000321897 0.000245046)
(0.0992576 -0.00154091 0.00105563)
(0.098849 -0.00211437 0.00150239)
(0.0981251 -0.00209148 0.00157951)
(0.0973376 -0.00188588 0.00151487)
(0.0965865 -0.00166547 0.0014464)
(0.0958681 -0.0014974 0.00141)
(0.0993802 5.89975e-05 3.37864e-05)
(0.0992678 0.00120004 0.000274438)
(0.0989806 0.00188841 0.000432471)
(0.0984749 0.00200631 0.000483614)
(0.0979961 0.00191442 0.000479076)
(0.0975719 0.00173439 0.000465888)
(0.0971828 0.00154672 0.000453466)
(0.100087 0.000707012 0.000144417)
(0.100477 0.00161777 0.000390589)
(0.101066 0.00203461 0.000541279)
(0.101694 0.00211756 0.000610437)
(0.102269 0.00215003 0.000636525)
(0.102742 0.00217953 0.000627698)
(0.103124 0.00213376 0.00059625)
(0.100039 0.000478772 0.000131361)
(0.100448 0.00123479 0.000350573)
(0.101114 0.00174651 0.000505217)
(0.101909 0.00202687 0.000597425)
(0.102729 0.0021522 0.000638978)
(0.103529 0.00218656 0.000638899)
(0.104298 0.00215341 0.000605608)
(0.100031 0.000281391 0.000107089)
(0.100395 0.000768665 0.000293078)
(0.101024 0.00113314 0.000434136)
(0.101843 0.00136935 0.000526323)
(0.102751 0.00150168 0.000576499)
(0.103688 0.00155457 0.000591964)
(0.104617 0.00154969 0.000582664)
(0.100048 7.31493e-05 7.31438e-05)
(0.100365 0.000251065 0.000251039)
(0.100961 0.000386397 0.000386348)
(0.101771 0.000477974 0.000477892)
(0.102702 0.000532207 0.000532079)
(0.10369 0.000556788 0.000556596)
(0.104692 0.000559142 0.000558866)
(0.100048 -7.31407e-05 7.31469e-05)
(0.100365 -0.000251034 0.000251058)
(0.100961 -0.000386339 0.000386385)
(0.101771 -0.000477877 0.000477956)
(0.102702 -0.000532058 0.000532182)
(0.10369 -0.000556567 0.000556755)
(0.104692 -0.000558829 0.000559102)
(0.100031 -0.000281376 0.00010709)
(0.100395 -0.000768618 0.000293086)
(0.101024 -0.00113305 0.000434155)
(0.101844 -0.00136917 0.000526357)
(0.102751 -0.00150138 0.000576559)
(0.103689 -0.00155413 0.000592071)
(0.104618 -0.00154908 0.000582832)
(0.100039 -0.00047876 0.000131341)
(0.100448 -0.00123475 0.00035052)
(0.101114 -0.00174643 0.000505122)
(0.101909 -0.00202671 0.000597265)
(0.102729 -0.00215188 0.000638697)
(0.10353 -0.00218605 0.000638432)
(0.104299 -0.00215264 0.000604789)
(0.100087 -0.000707009 0.000144387)
(0.100477 -0.00161776 0.000390497)
(0.101066 -0.00203461 0.00054112)
(0.101695 -0.00211751 0.000610148)
(0.102269 -0.00214981 0.000635958)
(0.102743 -0.00217911 0.000626658)
(0.103125 -0.00213311 0.000594519)
(0.0993802 -5.89743e-05 3.37698e-05)
(0.0992678 -0.00120002 0.000274354)
(0.0989806 -0.00188841 0.000432276)
(0.098475 -0.00200627 0.000483268)
(0.0979964 -0.0019143 0.000478462)
(0.0975725 -0.00173412 0.000464757)
(0.0971839 -0.00154633 0.00045137)
(0.0993802 5.89762e-05 -3.37692e-05)
(0.0992678 0.00120002 -0.000274353)
(0.0989806 0.00188841 -0.00043227)
(0.098475 0.00200628 -0.00048326)
(0.0979964 0.00191431 -0.000478452)
(0.0975725 0.00173413 -0.000464746)
(0.0971839 0.00154635 -0.000451356)
(0.100087 0.000707009 -0.000144387)
(0.100477 0.00161776 -0.000390495)
(0.101066 0.00203462 -0.000541119)
(0.101695 0.00211752 -0.000610147)
(0.102269 0.00214983 -0.000635956)
(0.102743 0.00217914 -0.000626655)
(0.103125 0.00213315 -0.000594514)
(0.100039 0.000478761 -0.000131341)
(0.100448 0.00123476 -0.00035052)
(0.101114 0.00174644 -0.000505123)
(0.101909 0.00202673 -0.000597267)
(0.102729 0.00215192 -0.0006387)
(0.10353 0.0021861 -0.000638433)
(0.104298 0.0021527 -0.000604789)
(0.100031 0.000281379 -0.00010709)
(0.100395 0.000768627 -0.000293086)
(0.101024 0.00113307 -0.000434157)
(0.101844 0.0013692 -0.000526361)
(0.102751 0.00150142 -0.000576563)
(0.103689 0.00155419 -0.000592075)
(0.104618 0.00154915 -0.000582834)
(0.100048 7.31446e-05 -7.3148e-05)
(0.100365 0.000251045 -0.000251058)
(0.100961 0.00038636 -0.000386387)
(0.101771 0.000477912 -0.000477959)
(0.102702 0.000532107 -0.000532186)
(0.10369 0.000556632 -0.000556759)
(0.104692 0.00055891 -0.000559105)
(0.100048 -7.31465e-05 -7.31424e-05)
(0.100365 -0.000251053 -0.000251041)
(0.100961 -0.000386375 -0.00038635)
(0.101771 -0.000477939 -0.000477895)
(0.102702 -0.000532159 -0.000532083)
(0.10369 -0.000556724 -0.0005566)
(0.104692 -0.000559061 -0.00055887)
(0.100031 -0.000281388 -0.000107089)
(0.100395 -0.000768656 -0.000293079)
(0.101024 -0.00113313 -0.000434138)
(0.101843 -0.00136932 -0.000526327)
(0.102751 -0.00150163 -0.000576503)
(0.103689 -0.00155452 -0.000591969)
(0.104617 -0.00154962 -0.000582668)
(0.100039 -0.000478771 -0.000131361)
(0.100448 -0.00123479 -0.000350573)
(0.101114 -0.0017465 -0.000505219)
(0.101909 -0.00202685 -0.000597428)
(0.102729 -0.00215217 -0.000638982)
(0.103529 -0.00218652 -0.000638903)
(0.104298 -0.00215335 -0.000605613)
(0.100087 -0.000707011 -0.000144417)
(0.100477 -0.00161776 -0.000390588)
(0.101066 -0.0020346 -0.000541279)
(0.101694 -0.00211756 -0.000610438)
(0.102269 -0.00215001 -0.000636526)
(0.102742 -0.0021795 -0.000627699)
(0.103124 -0.00213372 -0.00059625)
(0.0993802 -5.90003e-05 -3.37862e-05)
(0.0992678 -0.00120004 -0.000274437)
(0.0989806 -0.00188841 -0.000432466)
(0.0984749 -0.00200631 -0.000483608)
(0.0979961 -0.00191441 -0.000479069)
(0.0975719 -0.00173437 -0.000465879)
(0.0971829 -0.00154671 -0.000453455)
(0.0995405 0.000321897 -0.000245046)
(0.0992576 0.00154091 -0.00105563)
(0.098849 0.00211437 -0.00150238)
(0.0981251 0.00209149 -0.0015795)
(0.0973376 0.00188589 -0.00151486)
(0.0965864 0.00166548 -0.00144638)
(0.095868 0.00149742 -0.00140997)
(0.100093 0.000763193 -0.000445947)
(0.100504 0.001749 -0.00119455)
(0.101105 0.0021295 -0.00158693)
(0.101635 0.00223452 -0.00174063)
(0.101979 0.0022867 -0.0017826)
(0.102172 0.00223535 -0.0017296)
(0.102253 0.00211505 -0.00160903)
(0.100046 0.000540238 -0.000395751)
(0.10048 0.00138408 -0.00104497)
(0.101154 0.00192294 -0.00147556)
(0.101913 0.00219249 -0.00170558)
(0.102632 0.00229391 -0.00178066)
(0.103301 0.00227798 -0.00174575)
(0.103894 0.00218516 -0.00163567)
(0.100036 0.000323147 -0.000323172)
(0.100429 0.000868688 -0.000868763)
(0.10108 0.00126242 -0.00126256)
(0.101891 0.00150441 -0.00150466)
(0.102756 0.00162164 -0.00162205)
(0.103616 0.00164282 -0.00164346)
(0.104446 0.00160474 -0.00160571)
(0.100031 0.000107091 -0.00028139)
(0.100395 0.000293084 -0.000768661)
(0.101024 0.000434148 -0.00113314)
(0.101843 0.000526344 -0.00136934)
(0.102751 0.000576527 -0.00150166)
(0.103688 0.000592001 -0.00155455)
(0.104617 0.000582709 -0.00154966)
(0.100031 -0.000107088 -0.000281378)
(0.100395 -0.000293081 -0.000768623)
(0.101024 -0.000434145 -0.00113306)
(0.101844 -0.000526341 -0.00136919)
(0.102751 -0.000576536 -0.0015014)
(0.103689 -0.00059204 -0.00155416)
(0.100036 -0.000323171 -0.000323147)
(0.100429 -0.000868759 -0.000868684)
(0.10108 -0.00126256 -0.00126241)
(0.101891 -0.00150465 -0.0015044)
(0.102756 -0.00162203 -0.00162162)
(0.103616 -0.00164343 -0.00164279)
(0.100046 -0.000540269 -0.000395739)
(0.10048 -0.00138418 -0.00104493)
(0.101154 -0.00192313 -0.00147549)
(0.101913 -0.00219286 -0.00170548)
(0.102631 -0.00229454 -0.00178047)
(0.103301 -0.00227902 -0.00174542)
(0.100093 -0.000763199 -0.000445949)
(0.100504 -0.00174902 -0.00119456)
(0.101105 -0.00212958 -0.00158694)
(0.101634 -0.00223485 -0.00174068)
(0.101979 -0.00228737 -0.00178271)
(0.102171 -0.00223634 -0.00172979)
(0.0995405 -0.000321896 -0.000245052)
(0.0992576 -0.0015409 -0.00105566)
(0.0988489 -0.00211444 -0.00150244)
(0.0981248 -0.00209161 -0.0015796)
(0.0973369 -0.00188609 -0.00151514)
(0.096585 -0.00166579 -0.00144703)
(0.099413 0.000270227 -0.00034525)
(0.0988664 0.00187485 -0.00201914)
(0.0979216 0.00218885 -0.00257333)
(0.096366 0.00190813 -0.00238023)
(0.0946337 0.00162627 -0.00211473)
(0.0929729 0.00141794 -0.0019278)
(0.0913654 0.00127001 -0.00180321)
(0.10014 0.000869238 -0.00077504)
(0.100454 0.00196352 -0.00196249)
(0.100911 0.0023344 -0.0024277)
(0.100978 0.00244107 -0.00252691)
(0.100694 0.00233643 -0.00242677)
(0.100224 0.00211198 -0.00219835)
(0.0997085 0.00182247 -0.00191811)
(0.10006 0.000641399 -0.000641434)
(0.100501 0.00164506 -0.00164518)
(0.101149 0.00221246 -0.0022127)
(0.101738 0.00244007 -0.0024405)
(0.102204 0.00244203 -0.00244271)
(0.102501 0.00231358 -0.00231464)
(0.102644 0.00209261 -0.00209439)
(0.100046 0.00039574 -0.000540269)
(0.10048 0.00104493 -0.00138418)
(0.101154 0.0014755 -0.00192314)
(0.101913 0.0017055 -0.00219287)
(0.102631 0.00178049 -0.00229456)
(0.103301 0.00174545 -0.00227904)
(0.103893 0.00163515 -0.00218681)
(0.100039 0.000131362 -0.000478772)
(0.100448 0.000350577 -0.00123479)
(0.101114 0.000505227 -0.00174651)
(0.101909 0.000597443 -0.00202686)
(0.102729 0.000639004 -0.00215218)
(0.103529 0.000638932 -0.00218654)
(0.104298 0.00060565 -0.00215338)
(0.100039 -0.00013134 -0.00047876)
(0.100448 -0.000350516 -0.00123475)
(0.101114 -0.000505113 -0.00174643)
(0.101909 -0.00059725 -0.00202672)
(0.102729 -0.000638676 -0.0021519)
(0.10353 -0.000638402 -0.00218608)
(0.100046 -0.00039575 -0.000540238)
(0.10048 -0.00104496 -0.00138408)
(0.101154 -0.00147555 -0.00192293)
(0.101913 -0.00170557 -0.00219248)
(0.102632 -0.00178063 -0.0022939)
(0.103301 -0.00174572 -0.00227796)
(0.10006 -0.000641434 -0.000641399)
(0.100501 -0.00164518 -0.00164506)
(0.101149 -0.0022127 -0.00221245)
(0.101738 -0.00244049 -0.00244006)
(0.102204 -0.00244269 -0.00244201)
(0.102501 -0.00231462 -0.00231356)
(0.10014 -0.000869263 -0.000775022)
(0.100454 -0.00196365 -0.00196243)
(0.100911 -0.0023347 -0.00242758)
(0.100978 -0.00244157 -0.00252665)
(0.100693 -0.00233716 -0.00242632)
(0.100223 -0.00211294 -0.00219755)
(0.099413 -0.000270231 -0.000345241)
(0.0988664 -0.0018749 -0.00201909)
(0.0979214 -0.00218901 -0.00257324)
(0.0963657 -0.0019084 -0.00238004)
(0.094633 -0.00162664 -0.00211443)
(0.0929716 -0.00141847 -0.00192731)
(0.0999088 0.000712546 -0.001297)
(0.0969668 0.00274721 -0.00365596)
(0.0935345 0.00211804 -0.00264032)
(0.0895891 0.00162044 -0.00182067)
(0.0858317 0.00139034 -0.00152926)
(0.0825893 0.00116066 -0.00135204)
(0.0798639 0.0008963 -0.00118066)
(0.100226 0.000720812 -0.000720828)
(0.09996 0.0019827 -0.00198278)
(0.0997822 0.00245181 -0.00245202)
(0.0987879 0.00241957 -0.00241993)
(0.0972751 0.00220073 -0.00220129)
(0.0957739 0.00181117 -0.00181219)
(0.0943913 0.00138183 -0.00138353)
(0.10014 0.000775021 -0.000869263)
(0.100454 0.00196243 -0.00196365)
(0.100911 0.00242759 -0.0023347)
(0.100978 0.00252666 -0.00244158)
(0.100693 0.00242633 -0.00233717)
(0.100223 0.00219757 -0.00211295)
(0.099707 0.0019169 -0.00182399)
(0.100093 0.000445949 -0.000763199)
(0.100504 0.00119456 -0.00174902)
(0.101105 0.00158695 -0.00212959)
(0.101634 0.00174069 -0.00223486)
(0.101979 0.00178273 -0.00228739)
(0.102171 0.00172981 -0.00223636)
(0.102251 0.00160947 -0.00211657)
(0.100087 0.000144417 -0.000707012)
(0.100477 0.000390588 -0.00161777)
(0.101066 0.000541282 -0.00203461)
(0.101694 0.000610447 -0.00211756)
(0.102269 0.000636541 -0.00215002)
(0.102742 0.00062772 -0.00217952)
(0.103124 0.000596279 -0.00213375)
(0.100087 -0.000144387 -0.000707009)
(0.100477 -0.000390496 -0.00161776)
(0.101066 -0.000541116 -0.00203462)
(0.101695 -0.000610139 -0.00211752)
(0.102269 -0.000635942 -0.00214982)
(0.102743 -0.000626636 -0.00217913)
(0.100093 -0.000445948 -0.000763193)
(0.100504 -0.00119456 -0.001749)
(0.101105 -0.00158693 -0.00212949)
(0.101635 -0.00174062 -0.00223451)
(0.101979 -0.00178259 -0.00228669)
(0.102172 -0.00172959 -0.00223533)
(0.10014 -0.000775041 -0.000869237)
(0.100454 -0.00196249 -0.00196352)
(0.100911 -0.0024277 -0.00233439)
(0.100978 -0.0025269 -0.00244105)
(0.100694 -0.00242676 -0.00233641)
(0.100224 -0.00219833 -0.00211196)
(0.100226 -0.000720827 -0.00072081)
(0.09996 -0.00198279 -0.0019827)
(0.0997822 -0.00245201 -0.0024518)
(0.0987879 -0.00241993 -0.00241956)
(0.0972751 -0.00220128 -0.00220071)
(0.0957739 -0.00181218 -0.00181115)
(0.0999088 -0.000712561 -0.00129699)
(0.0969668 -0.00274727 -0.00365589)
(0.0935344 -0.00211817 -0.00264022)
(0.0895889 -0.00162068 -0.00182047)
(0.0858314 -0.00139069 -0.00152881)
(0.0825888 -0.00116131 -0.00135134)
(0.0956456 -0.00836005 0.00836004)
(0.0904938 0.001522 -0.00152205)
(0.0790682 0.00242972 -0.0024298)
(0.071301 0.00148765 -0.00148784)
(0.0661791 0.000830263 -0.000830673)
(0.062322 0.000563336 -0.000564018)
(0.0592198 0.000425441 -0.000427069)
(0.0999088 0.00129699 -0.00071256)
(0.0969668 0.00365589 -0.00274727)
(0.0935344 0.00264022 -0.00211817)
(0.0895889 0.00182048 -0.00162069)
(0.0858314 0.00152881 -0.0013907)
(0.0825888 0.00135135 -0.00116132)
(0.0798631 0.0011794 -0.000897393)
(0.099413 0.000345241 -0.000270231)
(0.0988664 0.00201909 -0.0018749)
(0.0979214 0.00257323 -0.00218901)
(0.0963657 0.00238004 -0.0019084)
(0.094633 0.00211443 -0.00162665)
(0.0929716 0.00192731 -0.00141848)
(0.0913629 0.0018025 -0.0012709)
(0.0995405 0.000245051 -0.000321895)
(0.0992576 0.00105566 -0.0015409)
(0.0988489 0.00150243 -0.00211444)
(0.0981248 0.00157959 -0.00209161)
(0.0973369 0.00151514 -0.0018861)
(0.096585 0.00144703 -0.00166579)
(0.0958655 0.00141119 -0.00149776)
(0.0993802 3.37853e-05 -5.90021e-05)
(0.0992678 0.000274435 -0.00120003)
(0.0989806 0.000432459 -0.00188841)
(0.0984749 0.000483604 -0.00200631)
(0.0979961 0.000479068 -0.00191442)
(0.0975719 0.000465881 -0.00173438)
(0.0971828 0.000453461 -0.00154672)
(0.0993802 -3.37703e-05 -5.89705e-05)
(0.0992678 -0.000274356 -0.00120002)
(0.0989806 -0.000432282 -0.00188841)
(0.098475 -0.000483272 -0.00200627)
(0.0979964 -0.000478462 -0.0019143)
(0.0975725 -0.000464754 -0.00173412)
(0.0995405 -0.000245046 -0.000321897)
(0.0992576 -0.00105564 -0.00154091)
(0.098849 -0.00150239 -0.00211437)
(0.0981251 -0.00157951 -0.00209148)
(0.0973376 -0.00151487 -0.00188588)
(0.0965864 -0.00144639 -0.00166547)
(0.099413 -0.00034525 -0.000270226)
(0.0988664 -0.00201914 -0.00187485)
(0.0979216 -0.00257334 -0.00218884)
(0.096366 -0.00238024 -0.00190812)
(0.0946337 -0.00211474 -0.00162626)
(0.0929729 -0.00192781 -0.00141792)
(0.0999088 -0.001297 -0.000712548)
(0.0969668 -0.00365596 -0.0027472)
(0.0935345 -0.00264033 -0.00211804)
(0.0895891 -0.00182067 -0.00162043)
(0.0858317 -0.00152926 -0.00139032)
(0.0825893 -0.00135204 -0.00116064)
(0.0956456 0.00836005 0.00836005)
(0.0904939 -0.00152205 -0.001522)
(0.0790682 -0.00242981 -0.00242971)
(0.071301 -0.00148785 -0.00148764)
(0.0661791 -0.000830676 -0.000830254)
(0.062322 -0.000564022 -0.000563327)
)
;

boundaryField
{
    inlet
    {
        type            fixedValue;
        value           uniform (0.1 0 0);
    }
    ami1
    {
        type            cyclicAMI;
        value           nonuniform List<vector> 0();
    }
    walls
    {
        type            noSlip;
    }
    ami2
    {
        type            cyclicAMI;
        value           nonuniform List<vector> 0();
    }
    outlet
    {
        type            zeroGradient;
    }
    procBoundary4to3
    {
        type            processor;
        value           nonuniform List<vector> 
109
(
(0.0566832 0.000325262 0.000322311)
(0.0775648 0.00104286 0.000690799)
(0.0898563 0.00170844 0.00115802)
(0.0952022 0.00137871 0.00137058)
(0.0968359 0.000439707 0.00138704)
(0.0968341 -0.000443306 0.00138768)
(0.0951978 -0.00138068 0.0013712)
(0.0898518 -0.00170721 0.00115957)
(0.0775633 -0.00104063 0.000692635)
(0.0566833 -0.000322298 0.000325271)
(0.0775632 0.000692636 0.00104065)
(0.0931612 0.00107209 0.00106913)
(0.099183 0.00166811 0.00157411)
(0.102278 0.00146187 0.00196329)
(0.10343 0.00054883 0.00204285)
(0.103428 -0.000551617 0.00204382)
(0.102275 -0.00146257 0.00196563)
(0.0991803 -0.00166626 0.0015769)
(0.0931613 -0.00106912 0.00107209)
(0.0775649 -0.000690793 0.00104286)
(0.0898517 0.00115957 0.00170725)
(0.0991803 0.00157691 0.00166629)
(0.102712 0.00187202 0.0018691)
(0.10439 0.00149389 0.0020517)
(0.105008 0.000559706 0.00207844)
(0.105007 -0.00056098 0.0020795)
(0.104388 -0.00149296 0.00205445)
(0.102712 -0.00186907 0.001872)
(0.099183 -0.0015741 0.0016681)
(0.0898563 -0.00115801 0.00170843)
(0.0951978 0.00137121 0.00138073)
(0.102275 0.00196565 0.00146261)
(0.104388 0.00205448 0.00149299)
(0.105223 0.00152797 0.00152637)
(0.105516 0.000558459 0.0015081)
(0.105516 -0.00055818 0.00150889)
(0.105223 -0.00152633 0.00152794)
(0.10439 -0.00205167 0.00149386)
(0.102278 -0.00196327 0.00146184)
(0.0952022 -0.00137057 0.00137869)
(0.0968341 0.00138769 0.000443354)
(0.103428 0.00204384 0.00055166)
(0.105007 0.00207954 0.00056102)
(0.105516 0.00150893 0.000558223)
(0.105677 0.000546319 0.000545933)
(0.105677 -0.000545885 0.00054627)
(0.105516 -0.00150806 0.000558416)
(0.105009 -0.00207841 0.000559666)
(0.10343 -0.00204283 0.000548793)
(0.0968359 -0.00138703 0.000439676)
(0.0968359 0.00138705 -0.000439658)
(0.10343 0.00204288 -0.000548785)
(0.105008 0.00207848 -0.000559664)
(0.105516 0.00150815 -0.000558415)
(0.105677 0.000545986 -0.000546271)
(0.105677 -0.000546218 -0.000545935)
(0.104618 -0.000582791 -0.00154911)
(0.105516 -0.00150884 -0.000558226)
(0.104446 -0.00160567 -0.0016047)
(0.105007 -0.00207947 -0.000561024)
(0.103893 -0.00218678 -0.00163512)
(0.103428 -0.0020438 -0.000551659)
(0.102251 -0.00211655 -0.00160944)
(0.0968341 -0.00138767 -0.000443341)
(0.0958655 -0.00149775 -0.00141119)
(0.0952022 0.0013706 -0.00137866)
(0.102278 0.00196332 -0.00146183)
(0.10439 0.00205174 -0.00149386)
(0.105223 0.00152642 -0.00152794)
(0.105516 0.000558278 -0.00150889)
(0.104618 -0.000582791 -0.00154911)
(0.104618 -0.000582791 -0.00154911)
(0.104446 -0.00160567 -0.0016047)
(0.103893 -0.00218678 -0.00163512)
(0.102251 -0.00211655 -0.00160944)
(0.0958655 -0.00149775 -0.00141119)
(0.0898562 0.00115805 -0.0017084)
(0.099183 0.00157416 -0.00166808)
(0.102712 0.00186914 -0.001872)
(0.104388 0.00149304 -0.00205445)
(0.105007 0.000561071 -0.00207951)
(0.104299 -0.000604751 -0.00215267)
(0.104299 -0.000604751 -0.00215267)
(0.103894 -0.00163563 -0.00218513)
(0.102644 -0.00209436 -0.00209258)
(0.099707 -0.00182397 -0.00191688)
(0.0913629 -0.00127089 -0.0018025)
(0.0775648 0.000690831 -0.00104284)
(0.0931612 0.00106917 -0.00107208)
(0.0991803 0.00166632 -0.0015769)
(0.102275 0.00146265 -0.00196564)
(0.103428 0.000551695 -0.00204382)
(0.103125 -0.00059449 -0.00213312)
(0.103125 -0.00059449 -0.00213312)
(0.102253 -0.00160901 -0.00211502)
(0.0997085 -0.00191809 -0.00182244)
(0.0943913 -0.00138351 -0.0013818)
(0.0798631 -0.00089738 -0.00117939)
(0.0566832 0.000322338 -0.000325242)
(0.0775632 0.00104067 -0.000692631)
(0.0898518 0.00170726 -0.00115956)
(0.0951978 0.00138074 -0.00137121)
(0.0968341 0.000443351 -0.00138769)
(0.0971839 -0.000451363 -0.00154634)
(0.0971839 -0.000451363 -0.00154634)
(0.095868 -0.00140998 -0.0014974)
(0.0913654 -0.00180322 -0.00126999)
(0.0798639 -0.00118067 -0.000896279)
(0.0592198 -0.000427076 -0.000425426)
)
;
    }
}


// ************************************************************************* //
