/*--------------------------------*- C++ -*----------------------------------*\
| =========                 |                                                 |
| \\      /  F ield         | OpenFOAM: The Open Source CFD Toolbox           |
|  \\    /   O peration     | Version:  2212                                  |
|   \\  /    A nd           | Website:  www.openfoam.com                      |
|    \\/     M anipulation  |                                                 |
\*---------------------------------------------------------------------------*/
FoamFile
{
    version     2.0;
    format      ascii;
    arch        "LSB;label=32;scalar=64";
    class       surfaceVectorField;
    location    "3";
    object      Uf;
}
// * * * * * * * * * * * * * * * * * * * * * * * * * * * * * * * * * * * * * //

dimensions      [0 1 -1 0 0 0 0];

internalField   nonuniform List<vector> 
1800
(
(0.0993441 -0.003419 -0.00341902)
(0.0973536 0.00106247 -0.00148428)
(0.0973536 -0.00148427 0.00106248)
(0.0834791 0.00197592 0.00197586)
(0.0930872 0.00326902 0.00253345)
(0.0930872 0.0025335 0.00326897)
(0.074517 0.00195882 0.00195868)
(0.084864 0.0016359 0.00179232)
(0.0848639 0.00179242 0.00163581)
(0.0685475 0.00115926 0.00115895)
(0.0786279 0.00107364 0.00122131)
(0.0786279 0.00122153 0.00107345)
(0.0642356 0.00069735 0.00069679)
(0.0740527 0.000785615 0.000865009)
(0.0740526 0.00086541 0.000785177)
(0.0607557 0.000495553 0.000494373)
(0.0704419 0.000650988 0.000669137)
(0.0704417 0.000669826 0.000650277)
(0.0674906 0.000547625 0.000508216)
(0.0674903 0.000509648 0.000546094)
(0.0984572 0.00247648 0.00172988)
(0.0996871 0.000439245 0.000345479)
(0.100049 0.00105639 0.000750964)
(0.0958347 0.00314814 0.00243262)
(0.0978161 0.00273288 0.00228225)
(0.0982936 0.00280927 0.00216144)
(0.0914498 0.0022305 0.00186923)
(0.0954959 0.00300185 0.00230304)
(0.0963039 0.00244274 0.00199775)
(0.0875949 0.00167496 0.00150537)
(0.092619 0.00229962 0.00183867)
(0.0936666 0.00198091 0.00172692)
(0.084147 0.00144066 0.00127548)
(0.0897671 0.00189238 0.0015355)
(0.0909041 0.00172004 0.00149776)
(0.0811868 0.00126637 0.00102846)
(0.0872318 0.00165727 0.00129439)
(0.0884336 0.00145501 0.00121156)
(0.0850062 0.0014933 0.00107679)
(0.0863034 0.0011842 0.000908415)
(0.0993753 0.0011822 0.00107254)
(0.099473 0.000349777 0.000307056)
(0.0997475 0.000611002 0.000779868)
(0.0984948 0.00229624 0.00203185)
(0.0990504 0.00157691 0.00172043)
(0.0995971 0.0020184 0.00200283)
(0.0971413 0.00247679 0.00204848)
(0.0983578 0.00213132 0.00216878)
(0.0992972 0.00246173 0.0021023)
(0.0954395 0.0022475 0.00176719)
(0.0971934 0.00203617 0.00200226)
(0.0984882 0.00237484 0.00190243)
(0.0937508 0.00202129 0.00152209)
(0.0959055 0.00185624 0.00175411)
(0.0974222 0.00218145 0.0016884)
(0.0921384 0.00186554 0.00134396)
(0.0946726 0.00173367 0.00154219)
(0.0963095 0.00198563 0.00150775)
(0.0934833 0.0016543 0.00138569)
(0.0952044 0.00180312 0.00134179)
(0.0996493 0.000650341 0.000931404)
(0.0994625 0.000129387 0.000192512)
(0.0997993 0.000375144 0.000741351)
(0.0990855 0.00127901 0.00182764)
(0.0992626 0.000636921 0.0013706)
(0.0998409 0.00115045 0.00181418)
(0.0984494 0.00154095 0.00210293)
(0.098913 0.000973494 0.00200349)
(0.0999048 0.00153664 0.00209004)
(0.0977081 0.0015472 0.00198868)
(0.0982953 0.00105016 0.00205049)
(0.0997676 0.00163194 0.00202279)
(0.0969403 0.00148065 0.00177568)
(0.097658 0.00100766 0.00189935)
(0.0995099 0.00160998 0.00189524)
(0.0962094 0.00142821 0.00158144)
(0.0970661 0.00096029 0.00169786)
(0.0992004 0.00154826 0.00175099)
(0.0965081 0.000933498 0.00152002)
(0.0988563 0.00147578 0.00162478)
(0.0996725 0.000154063 0.000629497)
(0.0993802 -6.22192e-09 5.8987e-05)
(0.0997132 0.000103923 0.000687942)
(0.0991592 0.000353318 0.00154421)
(0.0992678 -3.53664e-08 0.00120003)
(0.0998377 0.000341643 0.00162227)
(0.0986639 0.000457777 0.00194734)
(0.0989806 -9.49817e-08 0.00188841)
(0.0999632 0.000485468 0.00199133)
(0.0982129 0.000480874 0.00196029)
(0.098475 -1.77559e-07 0.00200629)
(0.0999922 0.000539601 0.00199645)
(0.0977776 0.000471624 0.00182421)
(0.0979962 -3.15281e-07 0.00191436)
(0.10001 0.000546306 0.0019106)
(0.0973651 0.000458084 0.00164023)
(0.0975722 -5.73679e-07 0.00173425)
(0.100009 0.000533253 0.00180347)
(0.0971834 -1.05592e-06 0.00154653)
(0.0999837 0.000510985 0.00168159)
(0.0996725 -0.00015411 0.000629518)
(0.0994625 -0.000129404 0.000192523)
(0.0997132 -0.000103943 0.000687943)
(0.0991592 -0.000353448 0.00154422)
(0.0992625 -0.000636984 0.00137061)
(0.0998377 -0.000341724 0.00162228)
(0.0986638 -0.00045803 0.00194736)
(0.098913 -0.000973612 0.00200352)
(0.0999631 -0.000485631 0.00199132)
(0.0982127 -0.000481328 0.00196036)
(0.0982951 -0.00105036 0.00205057)
(0.0999921 -0.000539897 0.00199648)
(0.0977772 -0.000472458 0.0018244)
(0.0976576 -0.00100807 0.00189951)
(0.10001 -0.000546864 0.00191073)
(0.0973643 -0.000459644 0.00164055)
(0.0970651 -0.000961122 0.00169815)
(0.100008 -0.000534293 0.00180375)
(0.0965063 -0.000935103 0.00152038)
(0.0999827 -0.000512844 0.00168201)
(0.0996493 -0.000650355 0.000931399)
(0.099473 -0.000349771 0.000307057)
(0.0997993 -0.000375146 0.000741349)
(0.0990854 -0.00127905 0.00182767)
(0.0990504 -0.00157688 0.00172046)
(0.0998409 -0.00115046 0.00181417)
(0.0984492 -0.00154101 0.00210302)
(0.0983577 -0.00213127 0.00216889)
(0.0999047 -0.00153666 0.0020901)
(0.0977076 -0.00154736 0.00198885)
(0.0971931 -0.00203608 0.00200246)
(0.0997673 -0.00163199 0.00202299)
(0.0969393 -0.00148107 0.00177594)
(0.0959048 -0.00185618 0.00175441)
(0.0995093 -0.00161015 0.00189563)
(0.0962075 -0.00142908 0.00158178)
(0.0946712 -0.00173371 0.00154264)
(0.0991992 -0.00154863 0.00175159)
(0.0934808 -0.0016545 0.00138636)
(0.0988541 -0.00147654 0.00162563)
(0.0993753 -0.00118216 0.00107256)
(0.0996871 -0.000439234 0.000345487)
(0.0997475 -0.000610986 0.00077988)
(0.0984947 -0.00229616 0.00203195)
(0.0978161 -0.0027328 0.00228231)
(0.0995971 -0.00201834 0.0020029)
(0.0971411 -0.00247663 0.0020487)
(0.0954959 -0.00300173 0.00230318)
(0.0992971 -0.0024616 0.00210251)
(0.095439 -0.00224722 0.00176752)
(0.0926188 -0.0022994 0.00183893)
(0.0984879 -0.00237459 0.00190279)
(0.0937498 -0.00202085 0.00152256)
(0.0897666 -0.00189194 0.00153588)
(0.0974216 -0.00218104 0.00168893)
(0.0921365 -0.00186488 0.00134469)
(0.087231 -0.00165654 0.00129498)
(0.0963084 -0.00198495 0.0015085)
(0.0850047 -0.00149207 0.00107775)
(0.0952024 -0.00180211 0.00134299)
(0.0984572 -0.00247644 0.00172991)
(0.0973536 -0.00106247 -0.00148427)
(0.100049 -0.00105638 0.000750978)
(0.0958347 -0.00314805 0.00243272)
(0.0930872 -0.00326897 0.0025335)
(0.0982936 -0.00280919 0.00216152)
(0.0914498 -0.00223035 0.00186943)
(0.084864 -0.00163581 0.00179242)
(0.0963038 -0.00244258 0.00199791)
(0.0875947 -0.00167464 0.00150569)
(0.0786279 -0.00107345 0.00122154)
(0.0936665 -0.00198063 0.00172722)
(0.0841467 -0.00144006 0.00127601)
(0.0740526 -0.000785171 0.000865414)
(0.090904 -0.00171952 0.00149823)
(0.0811862 -0.00126535 0.00102936)
(0.0704417 -0.000650269 0.00066983)
(0.0884334 -0.00145415 0.00121243)
(0.0674903 -0.000546084 0.000509654)
(0.086303 -0.00118272 0.000909846)
(0.0993441 0.00341902 -0.003419)
(0.0973536 0.00148428 0.00106247)
(0.0834791 -0.00197586 0.00197593)
(0.0930872 -0.00253345 0.00326902)
(0.074517 -0.00195868 0.00195882)
(0.084864 -0.00179232 0.0016359)
(0.0685475 -0.00115895 0.00115926)
(0.0786279 -0.00122131 0.00107364)
(0.0642356 -0.000696784 0.000697355)
(0.0740527 -0.000865006 0.000785618)
(0.0607557 -0.000494365 0.00049556)
(0.0704419 -0.000669133 0.000650992)
(0.0674907 -0.000508209 0.000547631)
(0.0984572 0.00172991 0.00247644)
(0.100049 0.000750978 0.00105638)
(0.0996871 0.000345486 0.000439234)
(0.0958347 0.00243272 0.00314806)
(0.0982936 0.00216152 0.00280919)
(0.0978161 0.00228231 0.0027328)
(0.0914498 0.00186943 0.00223035)
(0.0963038 0.00199791 0.00244258)
(0.0954959 0.00230318 0.00300174)
(0.0875947 0.00150569 0.00167465)
(0.0936665 0.00172722 0.00198063)
(0.0926188 0.00183893 0.00229941)
(0.0841467 0.00127601 0.00144008)
(0.090904 0.00149823 0.00171953)
(0.0897666 0.00153588 0.00189195)
(0.0811861 0.00102936 0.00126537)
(0.0884333 0.00121242 0.00145415)
(0.0872309 0.00129498 0.00165656)
(0.0863029 0.000909843 0.00118273)
(0.0850046 0.00107775 0.00149209)
(0.10008 0.00135181 0.00135176)
(0.100186 0.000798783 0.000804944)
(0.100186 0.000804965 0.000798764)
(0.100264 0.0022174 0.00221725)
(0.100189 0.00231194 0.00207144)
(0.100189 0.00207154 0.00231186)
(0.0993826 0.00243598 0.00243568)
(0.100306 0.00263389 0.002453)
(0.100306 0.00245326 0.00263371)
(0.0979835 0.00231062 0.00231014)
(0.0998047 0.00256075 0.00245583)
(0.0998046 0.00245627 0.00256041)
(0.0964941 0.00200675 0.00200593)
(0.0988623 0.002365 0.00228073)
(0.098862 0.0022814 0.00236446)
(0.0950712 0.00159787 0.00159647)
(0.09784 0.00205001 0.00196768)
(0.0978396 0.0019687 0.00204905)
(0.0968599 0.00169285 0.001604)
(0.0968592 0.00160564 0.00169127)
(0.100171 0.00136877 0.00141638)
(0.100118 0.000577447 0.00081129)
(0.100102 0.000699801 0.000700679)
(0.100759 0.0021951 0.00214895)
(0.100478 0.00158299 0.00185871)
(0.100477 0.00182268 0.00186462)
(0.100996 0.00247731 0.00238772)
(0.101004 0.00205902 0.00224239)
(0.101024 0.00234707 0.00238287)
(0.100837 0.00247685 0.00238873)
(0.101292 0.00220394 0.00235179)
(0.101337 0.00250647 0.00254358)
(0.100457 0.00231257 0.00222419)
(0.101309 0.00216808 0.00232151)
(0.101408 0.00245131 0.00247205)
(0.0999667 0.00205825 0.0019672)
(0.101156 0.00201199 0.0021778)
(0.101301 0.00226579 0.00227002)
(0.100926 0.00179559 0.00196698)
(0.101097 0.00201097 0.00199797)
(0.100242 0.000820254 0.0012561)
(0.10009 0.000294361 0.000735339)
(0.100071 0.000415717 0.000602759)
(0.100828 0.00139075 0.00193924)
(0.100491 0.000792067 0.00168397)
(0.100492 0.00112455 0.00158694)
(0.101392 0.00166379 0.002182)
(0.101086 0.00107788 0.00208329)
(0.101128 0.00154109 0.00209397)
(0.101816 0.00176163 0.0022606)
(0.101664 0.00120457 0.00217873)
(0.101767 0.00173313 0.0022939)
(0.10208 0.00175612 0.00226101)
(0.102121 0.00124009 0.0022213)
(0.102291 0.00179056 0.0023666)
(0.102215 0.00166934 0.00217518)
(0.102452 0.00120247 0.00220893)
(0.102711 0.0017449 0.00232086)
(0.10268 0.00111927 0.0021245)
(0.103037 0.0016278 0.0022004)
(0.100243 0.000267444 0.00116239)
(0.100087 -1.45596e-08 0.00070701)
(0.100064 0.00013583 0.00053732)
(0.100782 0.000465814 0.00182619)
(0.100477 -4.34752e-08 0.00161776)
(0.100463 0.000370951 0.0014241)
(0.101401 0.000575643 0.00207606)
(0.101066 -7.42919e-08 0.00203461)
(0.101089 0.000525287 0.00193351)
(0.101988 0.000623067 0.00213366)
(0.101694 -1.45911e-07 0.00211754)
(0.101798 0.000606067 0.00212845)
(0.102507 0.000631327 0.00216447)
(0.102269 -2.9005e-07 0.00214992)
(0.10249 0.000639577 0.00221064)
(0.102936 0.000610615 0.00215612)
(0.102742 -5.30124e-07 0.00217932)
(0.10312 0.000634564 0.00224099)
(0.103125 -8.9074e-07 0.00213343)
(0.103688 0.000601514 0.00219587)
(0.100243 -0.0002675 0.00116239)
(0.10009 -0.000294378 0.000735343)
(0.100064 -0.000135853 0.000537328)
(0.100782 -0.000465928 0.00182618)
(0.100491 -0.000792111 0.00168398)
(0.100463 -0.000371017 0.00142412)
(0.101401 -0.000575848 0.00207608)
(0.101086 -0.00107795 0.00208334)
(0.101089 -0.0005254 0.00193354)
(0.101988 -0.000623467 0.00213379)
(0.101664 -0.00120472 0.00217892)
(0.101797 -0.00060627 0.00212854)
(0.102507 -0.000632091 0.00216477)
(0.102121 -0.00124039 0.00222175)
(0.102489 -0.000639971 0.00221088)
(0.102935 -0.000611946 0.00215663)
(0.102451 -0.00120303 0.00220964)
(0.103119 -0.000635281 0.0022414)
(0.102679 -0.00112025 0.00212559)
(0.103687 -0.000602746 0.00219654)
(0.100242 -0.000820251 0.00125611)
(0.100118 -0.000577431 0.000811305)
(0.100071 -0.000415709 0.000602779)
(0.100828 -0.00139075 0.0019393)
(0.100478 -0.00158295 0.00185879)
(0.100492 -0.00112453 0.001587)
(0.101392 -0.0016638 0.00218222)
(0.101004 -0.00205895 0.00224259)
(0.101128 -0.00154105 0.00209413)
(0.101816 -0.00176168 0.00226112)
(0.101292 -0.0022038 0.00235222)
(0.101767 -0.00173309 0.00229427)
(0.10208 -0.00175623 0.00226187)
(0.101308 -0.00216785 0.00232224)
(0.10229 -0.0017905 0.00236728)
(0.102214 -0.00166959 0.00217646)
(0.101155 -0.00201161 0.0021788)
(0.10271 -0.00174479 0.00232191)
(0.100924 -0.00179509 0.00196853)
(0.103035 -0.0016277 0.00220203)
(0.100171 -0.00136872 0.00141646)
(0.100186 -0.000798763 0.000804965)
(0.100102 -0.000699772 0.000700711)
(0.100758 -0.002195 0.00214917)
(0.100189 -0.00231186 0.00207154)
(0.100477 -0.00182259 0.00186475)
(0.100996 -0.00247711 0.00238814)
(0.100306 -0.00263371 0.00245326)
(0.101024 -0.00234688 0.00238317)
(0.100837 -0.00247647 0.00238937)
(0.0998046 -0.00256041 0.00245626)
(0.101337 -0.00250611 0.00254407)
(0.100456 -0.00231192 0.00222506)
(0.098862 -0.00236446 0.0022814)
(0.101408 -0.00245072 0.00247278)
(0.0999655 -0.00205719 0.00196847)
(0.0978396 -0.00204903 0.0019687)
(0.1013 -0.00226483 0.00227108)
(0.0968592 -0.00169125 0.00160563)
(0.101096 -0.00200943 0.00199969)
(0.10008 -0.00135176 0.00135181)
(0.100049 -0.000750965 0.00105639)
(0.100186 -0.000804944 0.000798783)
(0.100264 -0.00221725 0.0022174)
(0.0982936 -0.00216144 0.00280927)
(0.100189 -0.00207144 0.00231194)
(0.0993826 -0.00243568 0.00243597)
(0.0963039 -0.00199775 0.00244274)
(0.100306 -0.002453 0.00263389)
(0.0979835 -0.00231013 0.00231061)
(0.0936666 -0.00172692 0.00198091)
(0.0998047 -0.00245582 0.00256075)
(0.0964941 -0.00200592 0.00200675)
(0.0909041 -0.00149776 0.00172004)
(0.0988623 -0.00228073 0.002365)
(0.0950712 -0.00159646 0.00159787)
(0.0884336 -0.00121155 0.00145501)
(0.09784 -0.00196768 0.00205001)
(0.0863034 -0.000908408 0.0011842)
(0.0968599 -0.00160399 0.00169285)
(0.0984572 -0.00172988 0.00247648)
(0.0996871 -0.000345478 0.000439245)
(0.0958347 -0.00243262 0.00314814)
(0.0978161 -0.00228225 0.00273288)
(0.0914499 -0.00186923 0.0022305)
(0.0954959 -0.00230304 0.00300185)
(0.0875949 -0.00150537 0.00167497)
(0.092619 -0.00183867 0.00229962)
(0.084147 -0.00127548 0.00144066)
(0.0897671 -0.0015355 0.00189237)
(0.0811868 -0.00102845 0.00126636)
(0.0872318 -0.00129439 0.00165727)
(0.0850063 -0.00107678 0.0014933)
(0.0993753 0.00107256 0.00118217)
(0.0997475 0.00077988 0.000610986)
(0.099473 0.000307057 0.000349772)
(0.0984947 0.00203195 0.00229617)
(0.0995971 0.0020029 0.00201835)
(0.0990504 0.00172046 0.00157689)
(0.0971411 0.0020487 0.00247664)
(0.0992971 0.00210251 0.00246161)
(0.0983577 0.00216889 0.00213128)
(0.095439 0.00176752 0.00224724)
(0.0984879 0.00190279 0.00237459)
(0.0971931 0.00200247 0.00203609)
(0.0937498 0.00152257 0.00202087)
(0.0974216 0.00168893 0.00218105)
(0.0959048 0.00175441 0.00185619)
(0.0921365 0.0013447 0.0018649)
(0.0963084 0.0015085 0.00198497)
(0.0946712 0.00154265 0.00173374)
(0.0952023 0.00134299 0.00180213)
(0.0934807 0.00138636 0.00165453)
(0.100171 0.00141646 0.00136873)
(0.100102 0.000700711 0.000699773)
(0.100118 0.000811305 0.000577432)
(0.100758 0.00214918 0.00219501)
(0.100477 0.00186475 0.00182259)
(0.100478 0.00185879 0.00158295)
(0.100996 0.00238814 0.00247712)
(0.101024 0.00238317 0.00234689)
(0.101004 0.0022426 0.00205895)
(0.100837 0.00238937 0.00247648)
(0.101337 0.00254407 0.00250612)
(0.101292 0.00235223 0.00220381)
(0.100456 0.00222506 0.00231193)
(0.101408 0.00247279 0.00245073)
(0.101308 0.00232224 0.00216786)
(0.0999655 0.00196848 0.00205721)
(0.1013 0.00227108 0.00226485)
(0.101155 0.00217881 0.00201163)
(0.101096 0.0019997 0.00200945)
(0.100924 0.00196854 0.00179511)
(0.100222 0.00114331 0.00114323)
(0.100053 0.00051725 0.000591851)
(0.100053 0.000591885 0.00051722)
(0.100843 0.00192895 0.00192876)
(0.100491 0.00134949 0.00151828)
(0.100491 0.0015184 0.0013494)
(0.101463 0.0023266 0.00232626)
(0.101151 0.00186521 0.00207366)
(0.101151 0.0020739 0.00186503)
(0.101979 0.00244161 0.00244103)
(0.101822 0.00210714 0.00232315)
(0.101822 0.00232357 0.00210684)
(0.102353 0.00237869 0.00237778)
(0.102411 0.00214872 0.00237366)
(0.102411 0.00237435 0.00214822)
(0.102578 0.00220453 0.00220306)
(0.102887 0.00206673 0.00229969)
(0.102887 0.00230079 0.00206595)
(0.103248 0.00189267 0.00213973)
(0.103247 0.00214151 0.00189141)
(0.100228 0.000720361 0.000962158)
(0.100042 0.00026373 0.000509884)
(0.100041 0.000359931 0.000426864)
(0.10082 0.00126027 0.0016535)
(0.100464 0.000697461 0.00131028)
(0.100455 0.000958863 0.00112626)
(0.101546 0.00159058 0.0020577)
(0.101134 0.000993676 0.00183585)
(0.101118 0.00137198 0.00159998)
(0.102276 0.00174313 0.00224319)
(0.101911 0.00116059 0.00211096)
(0.101902 0.00160826 0.0018615)
(0.102971 0.00176322 0.00228592)
(0.10268 0.00122271 0.00222428)
(0.102692 0.00170425 0.00197559)
(0.1036 0.00169073 0.00223154)
(0.103414 0.00120444 0.00223296)
(0.103454 0.00169689 0.00198032)
(0.104093 0.00113267 0.0021694)
(0.104162 0.00162201 0.00191517)
(0.100215 0.000240933 0.000856757)
(0.100039 -9.58627e-09 0.000478766)
(0.100035 0.000119328 0.000373891)
(0.100779 0.000427827 0.00149059)
(0.100448 -2.2359e-08 0.00123477)
(0.100423 0.000322387 0.00100017)
(0.101525 0.000551205 0.00188657)
(0.101114 -3.97036e-08 0.00174647)
(0.10107 0.000470529 0.00144527)
(0.102324 0.000617998 0.00208931)
(0.101909 -7.56186e-08 0.00202679)
(0.101877 0.000562749 0.00170583)
(0.10313 0.000638587 0.00216898)
(0.102729 -1.45739e-07 0.00215204)
(0.10274 0.000608516 0.00183694)
(0.103917 0.00062164 0.00216937)
(0.103529 -2.48129e-07 0.00218631)
(0.103607 0.00061601 0.00188327)
(0.104298 -4.25367e-07 0.00215302)
(0.104454 0.000594283 0.00186498)
(0.100215 -0.000240964 0.000856781)
(0.100042 -0.000263734 0.000509906)
(0.100035 -0.000119335 0.000373902)
(0.100779 -0.000427889 0.00149065)
(0.100464 -0.000697464 0.00131036)
(0.100422 -0.000322401 0.00100021)
(0.101525 -0.000551312 0.00188668)
(0.101134 -0.00099368 0.00183599)
(0.10107 -0.000470551 0.00144535)
(0.102324 -0.000618187 0.00208952)
(0.101911 -0.0011606 0.00211123)
(0.101877 -0.000562788 0.00170599)
(0.103129 -0.000638918 0.00216936)
(0.102679 -0.00122271 0.00222475)
(0.10274 -0.000608592 0.00183723)
(0.103917 -0.000622226 0.00216996)
(0.103413 -0.00120444 0.00223374)
(0.103607 -0.000616146 0.00188373)
(0.104092 -0.00113272 0.0021706)
(0.104453 -0.000594555 0.00186563)
(0.100228 -0.000720331 0.000962227)
(0.100053 -0.000517219 0.000591884)
(0.100041 -0.00035991 0.000426896)
(0.10082 -0.0012602 0.00165366)
(0.100491 -0.0013494 0.0015184)
(0.100455 -0.000958796 0.00112635)
(0.101546 -0.00159048 0.002058)
(0.101151 -0.00186503 0.00207389)
(0.101118 -0.00137186 0.00160017)
(0.102276 -0.00174296 0.00224371)
(0.101822 -0.00210683 0.00232356)
(0.101902 -0.00160806 0.00186185)
(0.10297 -0.00176292 0.0022868)
(0.102411 -0.00214821 0.00237434)
(0.102692 -0.00170391 0.00197618)
(0.1036 -0.00169024 0.00223292)
(0.102887 -0.00206594 0.00230077)
(0.103454 -0.00169635 0.00198125)
(0.103247 -0.00189139 0.00214149)
(0.104161 -0.00162118 0.00191657)
(0.100222 -0.00114323 0.00114331)
(0.100102 -0.000700679 0.0006998)
(0.100053 -0.00059185 0.000517249)
(0.100843 -0.00192875 0.00192894)
(0.100477 -0.00186462 0.00182268)
(0.100491 -0.00151828 0.00134949)
(0.101463 -0.00232625 0.0023266)
(0.101024 -0.00238287 0.00234706)
(0.101151 -0.00207366 0.00186521)
(0.101979 -0.00244103 0.0024416)
(0.101337 -0.00254357 0.00250646)
(0.101822 -0.00232314 0.00210713)
(0.102353 -0.00237777 0.00237868)
(0.101408 -0.00247204 0.0024513)
(0.102411 -0.00237365 0.00214871)
(0.102578 -0.00220305 0.00220452)
(0.101301 -0.00227001 0.00226578)
(0.102887 -0.00229967 0.00206671)
(0.101097 -0.00199796 0.00201095)
(0.103248 -0.00213972 0.00189265)
(0.100171 -0.00141638 0.00136877)
(0.0997475 -0.000779868 0.000611001)
(0.100118 -0.00081129 0.000577446)
(0.100759 -0.00214895 0.0021951)
(0.0995971 -0.00200283 0.0020184)
(0.100478 -0.00185871 0.00158299)
(0.100996 -0.00238772 0.00247731)
(0.0992972 -0.0021023 0.00246173)
(0.101004 -0.00224238 0.00205902)
(0.100837 -0.00238873 0.00247684)
(0.0984882 -0.00190243 0.00237483)
(0.101292 -0.00235178 0.00220393)
(0.100457 -0.00222418 0.00231256)
(0.0974222 -0.00168839 0.00218144)
(0.101309 -0.00232151 0.00216807)
(0.0999667 -0.00196719 0.00205824)
(0.0963095 -0.00150774 0.00198562)
(0.101156 -0.00217779 0.00201198)
(0.0952044 -0.00134179 0.00180311)
(0.100926 -0.00196697 0.00179557)
(0.0993753 -0.00107254 0.0011822)
(0.099473 -0.000307056 0.000349776)
(0.0984948 -0.00203184 0.00229624)
(0.0990504 -0.00172043 0.00157691)
(0.0971413 -0.00204848 0.00247679)
(0.0983578 -0.00216878 0.00213132)
(0.0954395 -0.00176719 0.0022475)
(0.0971934 -0.00200226 0.00203617)
(0.0937509 -0.00152209 0.00202128)
(0.0959055 -0.0017541 0.00185623)
(0.0921384 -0.00134395 0.00186553)
(0.0946726 -0.00154218 0.00173366)
(0.0934833 -0.00138568 0.00165429)
(0.0996493 0.000931399 0.000650357)
(0.0997993 0.000741349 0.000375146)
(0.0994625 0.000192523 0.000129404)
(0.0990854 0.00182767 0.00127905)
(0.0998409 0.00181417 0.00115046)
(0.0992625 0.00137061 0.000636988)
(0.0984492 0.00210302 0.00154102)
(0.0999047 0.0020901 0.00153666)
(0.098913 0.00200352 0.000973621)
(0.0977076 0.00198885 0.00154738)
(0.0997673 0.00202299 0.001632)
(0.0982951 0.00205057 0.00105037)
(0.0969393 0.00177595 0.00148109)
(0.0995093 0.00189564 0.00161016)
(0.0976576 0.00189951 0.00100809)
(0.0962075 0.00158178 0.00142911)
(0.0991991 0.00175159 0.00154865)
(0.0970651 0.00169815 0.00096115)
(0.098854 0.00162563 0.00147657)
(0.0965063 0.00152039 0.00093514)
(0.100242 0.00125611 0.000820253)
(0.100071 0.000602779 0.00041571)
(0.10009 0.000735343 0.000294379)
(0.100828 0.0019393 0.00139075)
(0.100492 0.001587 0.00112453)
(0.100491 0.00168398 0.000792114)
(0.101392 0.00218222 0.00166381)
(0.101128 0.00209413 0.00154105)
(0.101086 0.00208334 0.00107796)
(0.101816 0.00226112 0.00176169)
(0.101767 0.00229428 0.0017331)
(0.101664 0.00217893 0.00120473)
(0.10208 0.00226188 0.00175625)
(0.10229 0.00236729 0.00179051)
(0.102121 0.00222176 0.00124041)
(0.102214 0.00217647 0.00166961)
(0.10271 0.00232193 0.00174481)
(0.102451 0.00220966 0.00120305)
(0.103035 0.00220205 0.00162772)
(0.102679 0.00212561 0.00112028)
(0.100228 0.000962228 0.000720333)
(0.100041 0.000426897 0.000359911)
(0.100042 0.000509907 0.000263735)
(0.10082 0.00165366 0.00126021)
(0.100455 0.00112636 0.0009588)
(0.100464 0.00131036 0.000697468)
(0.101546 0.00205801 0.00159048)
(0.101118 0.00160018 0.00137186)
(0.101134 0.001836 0.000993687)
(0.102276 0.00224372 0.00174297)
(0.101902 0.00186186 0.00160807)
(0.101911 0.00211124 0.00116061)
(0.10297 0.00228681 0.00176294)
(0.102692 0.00197619 0.00170393)
(0.102679 0.00222477 0.00122273)
(0.1036 0.00223294 0.00169026)
(0.103454 0.00198127 0.00169637)
(0.103413 0.00223376 0.00120446)
(0.104161 0.00191659 0.00162121)
(0.104092 0.00217063 0.00113274)
(0.10021 0.00059597 0.000595914)
(0.100034 0.000215935 0.000302531)
(0.100034 0.000302552 0.000215919)
(0.100751 0.00106567 0.00106555)
(0.100412 0.000582167 0.000819259)
(0.100412 0.000819323 0.000582118)
(0.101493 0.00138362 0.0013834)
(0.101053 0.000852209 0.00119857)
(0.101053 0.0011987 0.000852111)
(0.102327 0.00156337 0.001563)
(0.101868 0.00102142 0.00143771)
(0.101868 0.00143793 0.00102126)
(0.103188 0.00163278 0.0016322)
(0.102754 0.00110667 0.00156235)
(0.102753 0.00156272 0.0011064)
(0.104033 0.00162461 0.00162374)
(0.103652 0.0011257 0.00159911)
(0.103652 0.00159967 0.00112528)
(0.10453 0.00110176 0.0015773)
(0.10453 0.00157812 0.00110113)
(0.100192 0.000200091 0.000524999)
(0.100031 5.45077e-10 0.000281383)
(0.100039 9.04591e-05 0.000188699)
(0.100705 0.000363628 0.000950839)
(0.100395 6.28137e-09 0.000768641)
(0.10038 0.000272344 0.000512502)
(0.10144 0.000480269 0.00125112)
(0.101024 1.47734e-08 0.0011331)
(0.100993 0.000410581 0.000763506)
(0.102302 0.000551478 0.00143529)
(0.101844 2.61316e-08 0.00136926)
(0.101808 0.00050249 0.000929373)
(0.103222 0.000584341 0.00152777)
(0.102751 4.28421e-08 0.00150153)
(0.102727 0.000554688 0.0010234)
(0.104155 0.000587484 0.00155163)
(0.103689 6.72417e-08 0.00155435)
(0.103689 0.000574676 0.00106196)
(0.104618 9.57474e-08 0.00154938)
(0.104654 0.000571159 0.00106036)
(0.100192 -0.00020008 0.000525025)
(0.100034 -0.000215918 0.00030255)
(0.100039 -9.04527e-05 0.000188709)
(0.100705 -0.0003636 0.000950898)
(0.100412 -0.000582114 0.000819319)
(0.10038 -0.00027232 0.000512532)
(0.10144 -0.000480219 0.00125123)
(0.101053 -0.000852104 0.00119869)
(0.100993 -0.000410533 0.000763567)
(0.102302 -0.000551396 0.00143549)
(0.101868 -0.00102124 0.00143792)
(0.101808 -0.00050241 0.000929482)
(0.103222 -0.00058421 0.0015281)
(0.102753 -0.00110638 0.0015627)
(0.102727 -0.000554563 0.00102358)
(0.104155 -0.000587285 0.0015521)
(0.103652 -0.00112525 0.00159965)
(0.103689 -0.000574485 0.00106223)
(0.10453 -0.00110109 0.00157809)
(0.104654 -0.000570884 0.00106076)
(0.10021 -0.000595912 0.000595968)
(0.100041 -0.000426863 0.00035993)
(0.100034 -0.00030253 0.000215934)
(0.100751 -0.00106554 0.00106566)
(0.100455 -0.00112625 0.000958859)
(0.100412 -0.000819256 0.000582163)
(0.101493 -0.00138339 0.00138361)
(0.101118 -0.00159998 0.00137198)
(0.101053 -0.00119857 0.0008522)
(0.102327 -0.00156299 0.00156336)
(0.101902 -0.0018615 0.00160825)
(0.101868 -0.0014377 0.00102141)
(0.103188 -0.00163218 0.00163276)
(0.102692 -0.00197558 0.00170423)
(0.102754 -0.00156234 0.00110665)
(0.104033 -0.00162371 0.00162458)
(0.103454 -0.0019803 0.00169687)
(0.103652 -0.00159909 0.00112567)
(0.104162 -0.00191515 0.00162198)
(0.10453 -0.00157727 0.00110173)
(0.100228 -0.000962157 0.000720359)
(0.100071 -0.000602759 0.000415716)
(0.100042 -0.000509884 0.000263729)
(0.10082 -0.0016535 0.00126026)
(0.100492 -0.00158694 0.00112455)
(0.100464 -0.00131028 0.000697457)
(0.101546 -0.0020577 0.00159057)
(0.101128 -0.00209397 0.00154109)
(0.101134 -0.00183585 0.000993669)
(0.102276 -0.00224318 0.00174312)
(0.101767 -0.0022939 0.00173312)
(0.101911 -0.00211095 0.00116058)
(0.102971 -0.00228591 0.0017632)
(0.102291 -0.00236659 0.00179055)
(0.10268 -0.00222426 0.00122269)
(0.1036 -0.00223152 0.00169071)
(0.102711 -0.00232084 0.00174488)
(0.103414 -0.00223294 0.00120442)
(0.103037 -0.00220038 0.00162778)
(0.104093 -0.00216937 0.00113264)
(0.100242 -0.0012561 0.000820252)
(0.0997993 -0.000741352 0.000375144)
(0.10009 -0.000735339 0.00029436)
(0.100828 -0.00193924 0.00139075)
(0.0998409 -0.00181418 0.00115045)
(0.100491 -0.00168397 0.000792064)
(0.101392 -0.002182 0.00166378)
(0.0999048 -0.00209004 0.00153664)
(0.101086 -0.00208329 0.00107787)
(0.101816 -0.00226059 0.00176162)
(0.0997676 -0.00202279 0.00163193)
(0.101664 -0.00217872 0.00120456)
(0.10208 -0.002261 0.00175611)
(0.09951 -0.00189524 0.00160997)
(0.102121 -0.00222129 0.00124008)
(0.102215 -0.00217517 0.00166932)
(0.0992005 -0.00175098 0.00154824)
(0.102452 -0.00220892 0.00120245)
(0.0988564 -0.00162477 0.00147576)
(0.10268 -0.00212449 0.00111924)
(0.0996493 -0.000931404 0.00065034)
(0.0994625 -0.000192511 0.000129387)
(0.0990855 -0.00182764 0.00127901)
(0.0992626 -0.0013706 0.000636919)
(0.0984494 -0.00210293 0.00154095)
(0.098913 -0.00200349 0.000973491)
(0.0977081 -0.00198868 0.00154719)
(0.0982953 -0.00205048 0.00105015)
(0.0969403 -0.00177568 0.00148063)
(0.0976581 -0.00189935 0.00100765)
(0.0962094 -0.00158143 0.0014282)
(0.0970661 -0.00169786 0.000960275)
(0.0965081 -0.00152001 0.000933478)
(0.0996725 0.000629518 0.000154112)
(0.0997132 0.000687943 0.000103944)
(0.0993802 5.89868e-05 6.36039e-09)
(0.0991592 0.00154423 0.000353454)
(0.0998377 0.00162228 0.000341728)
(0.0992678 0.00120003 3.88101e-08)
(0.0986638 0.00194736 0.000458042)
(0.0999631 0.00199132 0.00048564)
(0.0989806 0.00188841 1.05043e-07)
(0.0982127 0.00196037 0.000481345)
(0.0999921 0.00199648 0.00053991)
(0.098475 0.0020063 1.92263e-07)
(0.0977772 0.0018244 0.000472482)
(0.10001 0.00191073 0.000546882)
(0.0979962 0.00191437 3.3615e-07)
(0.0973643 0.00164055 0.000459677)
(0.100008 0.00180377 0.000534319)
(0.0975722 0.00173426 6.02219e-07)
(0.0999827 0.00168203 0.000512879)
(0.0971833 0.00154654 1.09371e-06)
(0.100243 0.00116239 0.000267503)
(0.100064 0.000537328 0.000135854)
(0.100087 0.00070701 1.57042e-08)
(0.100782 0.00182619 0.000465934)
(0.100463 0.00142412 0.000371021)
(0.100477 0.00161776 4.82452e-08)
(0.101401 0.00207608 0.000575858)
(0.101089 0.00193355 0.000525407)
(0.101066 0.00203461 8.23554e-08)
(0.101988 0.0021338 0.000623481)
(0.101797 0.00212855 0.000606282)
(0.101694 0.00211754 1.58148e-07)
(0.102507 0.00216478 0.000632112)
(0.102489 0.00221089 0.000639988)
(0.102269 0.00214993 3.08002e-07)
(0.102935 0.00215664 0.000611974)
(0.103119 0.00224142 0.000635305)
(0.102742 0.00217934 5.55455e-07)
(0.103687 0.00219657 0.000602778)
(0.103125 0.00213345 9.24666e-07)
(0.100215 0.000856783 0.000240967)
(0.100035 0.000373903 0.000119337)
(0.100039 0.000478766 1.09364e-08)
(0.100779 0.00149065 0.000427895)
(0.100422 0.00100021 0.000322405)
(0.100448 0.00123478 2.67195e-08)
(0.101525 0.00188669 0.000551321)
(0.10107 0.00144535 0.000470559)
(0.101114 0.00174647 4.72342e-08)
(0.102324 0.00208953 0.000618202)
(0.101877 0.001706 0.0005628)
(0.101909 0.0020268 8.72696e-08)
(0.103129 0.00216938 0.000638939)
(0.10274 0.00183725 0.00060861)
(0.102729 0.00215206 1.62818e-07)
(0.103917 0.00216999 0.000622254)
(0.103607 0.00188376 0.000616171)
(0.103529 0.00218633 2.71894e-07)
(0.104453 0.00186567 0.000594587)
(0.104298 0.00215306 4.56926e-07)
(0.100192 0.000525028 0.000200083)
(0.100039 0.000188711 9.0455e-05)
(0.100031 0.000281385 1.0823e-09)
(0.100705 0.000950905 0.000363607)
(0.10038 0.000512538 0.000272325)
(0.100395 0.000768646 -1.71842e-09)
(0.10144 0.00125125 0.000480229)
(0.100993 0.000763578 0.000410542)
(0.101024 0.00113311 -6.78314e-09)
(0.102302 0.00143551 0.000551411)
(0.101808 0.000929499 0.000502424)
(0.101844 0.00136928 -1.36103e-08)
(0.103222 0.00152812 0.000584232)
(0.102727 0.0010236 0.000554583)
(0.102751 0.00150155 -2.46208e-08)
(0.104155 0.00155213 0.000587314)
(0.103689 0.00106226 0.000574512)
(0.103689 0.00155438 -4.20566e-08)
(0.104654 0.0010608 0.000570919)
(0.104618 0.00154942 -6.22905e-08)
(0.100177 0.000162107 0.000162092)