/*--------------------------------*- C++ -*----------------------------------*\
| =========                 |                                                 |
| \\      /  F ield         | OpenFOAM: The Open Source CFD Toolbox           |
|  \\    /   O peration     | Version:  2212                                  |
|   \\  /    A nd           | Website:  www.openfoam.com                      |
|    \\/     M anipulation  |                                                 |
\*---------------------------------------------------------------------------*/
FoamFile
{
    version     2.0;
    format      ascii;
    arch        "LSB;label=32;scalar=64";
    class       volScalarField;
    location    "2.45";
    object      epsilon;
}
// * * * * * * * * * * * * * * * * * * * * * * * * * * * * * * * * * * * * * //

dimensions      [0 2 -3 0 0 0 0];

internalField   nonuniform List<scalar> 
6840
(
90.5034
12.1248
4.3887
2.46659
1.63316
1.18308
0.902027
0.720681
0.594612
0.502537
0.432728
0.37935
0.336418
0.300059
0.270483
0.246596
0.227204
0.211964
0.203009
0.195522
58.5856
14.5696
6.08947
3.33296
2.08218
1.40268
0.998666
0.740303
0.565925
0.443953
0.356057
0.290977
0.241481
0.203086
0.173231
0.150022
0.13167
0.117147
0.106383
0.0994983
45.0226
13.4729
5.73075
3.07323
1.86023
1.227
0.873583
0.649786
0.497023
0.389492
0.311306
0.252998
0.209008
0.175252
0.148873
0.127971
0.111265
0.0978106
0.0870037
0.0788396
38.7028
13.0541
5.74336
3.08733
1.88066
1.2275
0.869479
0.645384
0.492592
0.384781
0.307023
0.249042
0.204973
0.170978
0.144381
0.123308
0.1064
0.0926816
0.0814918
0.0730731
36.0571
12.8529
5.76645
3.10212
1.89476
1.22669
0.866498
0.643979
0.492246
0.383959
0.305787
0.247908
0.203905
0.169925
0.143299
0.122154
0.105135
0.0912611
0.0798984
0.0714174
36.0571
12.8529
5.76645
3.10211
1.89475
1.22669
0.866496
0.643978
0.492244
0.383956
0.305784
0.247904
0.2039
0.169922
0.143299
0.122149
0.105122
0.0912357
0.0798397
0.0711813
38.7028
13.0541
5.74336
3.08733
1.88066
1.2275
0.869474
0.645381
0.492587
0.384774
0.307014
0.249032
0.204963
0.170971
0.144375
0.123292
0.106371
0.0926334
0.0814341
0.0732435
45.0226
13.4729
5.73075
3.07323
1.86023
1.22699
0.873578
0.649783
0.497018
0.389485
0.311297
0.252987
0.208996
0.175242
0.148862
0.127951
0.111231
0.097751
0.0868788
0.0785573
58.5856
14.5696
6.08947
3.33296
2.08218
1.40268
0.998664
0.740302
0.565924
0.443951
0.356054
0.290973
0.241473
0.203083
0.173225
0.150002
0.131628
0.117058
0.106188
0.0992345
90.5034
12.1248
4.3887
2.46659
1.63316
1.18308
0.902026
0.72068
0.594611
0.502536
0.432727
0.379348
0.336415
0.300057
0.27048
0.246591
0.227198
0.211955
0.202999
0.195504
58.5856
14.5696
6.08947
3.33296
2.08218
1.40268
0.998665
0.740302
0.565924
0.443951
0.356055
0.290973
0.241476
0.20308
0.173228
0.150007
0.131633
0.117064
0.106196
0.0992458
16.5373
9.49239
5.0127
2.8606
1.75746
1.14759
0.786931
0.562048
0.415366
0.315946
0.24633
0.19622
0.159216
0.131245
0.109752
0.0931736
0.0801243
0.0696343
0.0606191
0.0562527
13.6679
8.73671
5.07741
3.05388
1.92223
1.26609
0.869288
0.618629
0.453957
0.342031
0.263647
0.207307
0.165897
0.134839
0.111132
0.0926691
0.0781387
0.0666052
0.0571708
0.0497629
12.9054
8.33993
5.07879
3.15547
2.02774
1.3512
0.933536
0.666457
0.489543
0.368592
0.2836
0.222382
0.177321
0.14352
0.11774
0.0977522
0.0820563
0.0695816
0.0595496
0.0513675
12.6882
8.1544
5.07113
3.20038
2.07939
1.39506
0.967831
0.692723
0.509637
0.384016
0.295503
0.231647
0.184592
0.149262
0.122295
0.101385
0.0849635
0.0719095
0.0614253
0.0529682
12.6882
8.1544
5.07113
3.20038
2.07939
1.39506
0.967834
0.692726
0.509643
0.384023
0.295512
0.231657
0.184604
0.149273
0.122305
0.101404
0.0849888
0.0719389
0.0614548
0.0530002
12.9054
8.33993
5.07879
3.15547
2.02775
1.35121
0.933542
0.666464
0.489554
0.368606
0.283618
0.222403
0.177345
0.143543
0.117765
0.0977935
0.082109
0.0696431
0.0596139
0.0513604
13.6679
8.73671
5.07741
3.05388
1.92224
1.2661
0.869292
0.618633
0.453965
0.342042
0.26366
0.207324
0.165916
0.134855
0.111158
0.0927038
0.078179
0.0666463
0.057194
0.0501926
16.5373
9.49239
5.0127
2.8606
1.75746
1.14759
0.786931
0.562047
0.415366
0.315946
0.24633
0.19622
0.159216
0.131236
0.10976
0.0931766
0.0801259
0.0696354
0.0606199
0.0562568
58.5856
14.5696
6.08947
3.33296
2.08218
1.40268
0.998665
0.740302
0.565925
0.443952
0.356056
0.290976
0.24148
0.203084
0.17323
0.150019
0.131666
0.117141
0.106375
0.0994853
45.0226
13.4729
5.73075
3.07323
1.86023
1.227
0.873578
0.649783
0.497018
0.389485
0.311297
0.252987
0.208995
0.175239
0.148866
0.127955
0.111234
0.097754
0.0868828
0.0785629
13.6679
8.73671
5.07741
3.05388
1.92224
1.2661
0.869292
0.618634
0.453965
0.342042
0.26366
0.207324
0.165917
0.134864
0.111149
0.0927011
0.0781785
0.0666477
0.0571909
0.050184
11.8601
7.76395
4.99734
3.24076
2.14419
1.45499
1.0141
0.725634
0.532156
0.399149
0.305546
0.238222
0.188824
0.151913
0.123869
0.102235
0.0853171
0.0719261
0.0611842
0.0526144
11.6229
7.60535
5.0103
3.34209
2.26848
1.57142
1.11236
0.804587
0.594203
0.447515
0.343208
0.26763
0.211895
0.170116
0.13832
0.113775
0.0945876
0.0794103
0.0672738
0.0574924
11.5726
7.56718
5.02065
3.38344
2.32103
1.62326
1.15828
0.843156
0.62569
0.472848
0.363482
0.283851
0.224903
0.180587
0.146789
0.120661
0.100216
0.0840342
0.0710911
0.0606085
11.5726
7.56718
5.02065
3.38344
2.32103
1.62326
1.15828
0.843156
0.625692
0.472851
0.363486
0.283855
0.224908
0.180589
0.14679
0.120667
0.100224
0.0840448
0.0711042
0.0606438
11.6229
7.60535
5.0103
3.34209
2.26848
1.57142
1.11236
0.804588
0.594206
0.44752
0.343214
0.267637
0.211901
0.17012
0.138326
0.113787
0.0946041
0.0794307
0.0672998
0.0575622
11.8601
7.76395
4.99734
3.24076
2.14419
1.45499
1.0141
0.725634
0.532155
0.399149
0.305546
0.238222
0.188824
0.151911
0.123871
0.102236
0.0853182
0.0719276
0.0611857
0.0526192
13.6679
8.73671
5.07741
3.05388
1.92223
1.26609
0.869288
0.618629
0.453957
0.342031
0.263647
0.207308
0.165898
0.134841
0.11113
0.0926689
0.0781393
0.0666062
0.0571717
0.0497655
45.0226
13.4729
5.73075
3.07323
1.86023
1.227
0.873583
0.649786
0.497023
0.389492
0.311305
0.252997
0.209005
0.175248
0.148874
0.127973
0.111266
0.0978104
0.0870027
0.0788369
38.7028
13.0541
5.74336
3.08733
1.88066
1.2275
0.869474
0.645381
0.492587
0.384774
0.307014
0.249032
0.204961
0.170968
0.144378
0.123295
0.106373
0.0926348
0.0814351
0.0732447
12.9054
8.33993
5.07879
3.15547
2.02775
1.35121
0.933542
0.666464
0.489554
0.368606
0.283618
0.222404
0.177348
0.143549
0.117759
0.0977915
0.0821091
0.0696443
0.0596159
0.0513624
11.6229
7.60535
5.01031
3.34209
2.26848
1.57142
1.11236
0.804589
0.594206
0.44752
0.343214
0.267637
0.211903
0.170122
0.138323
0.113786
0.0946036
0.0794305
0.0672997
0.0575614
11.4933
7.5119
5.02843
3.434
2.3892
1.6928
1.22111
0.896487
0.669456
0.508122
0.391656
0.306285
0.242784
0.194886
0.158279
0.129952
0.107776
0.0902254
0.0761875
0.064808
11.4757
7.50136
5.04297
3.47002
2.43665
1.74299
1.26863
0.938712
0.705583
0.538335
0.416593
0.326728
0.259498
0.208556
0.169484
0.139167
0.115387
0.0965403
0.0814421
0.0691208
11.4757
7.50136
5.04297
3.47002
2.43665
1.74299
1.26863
0.938712
0.705584
0.538336
0.416594
0.326728
0.259499
0.208557
0.169483
0.139167
0.115388
0.0965414
0.0814421
0.0691033
11.4933
7.5119
5.02843
3.434
2.3892
1.6928
1.22111
0.896486
0.669456
0.508122
0.391656
0.306285
0.242784
0.194886
0.158279
0.129952
0.107776
0.0902263
0.0761889
0.0648095
11.6229
7.60535
5.0103
3.34209
2.26848
1.57142
1.11236
0.804587
0.594203
0.447515
0.343208
0.267631
0.211897
0.170117
0.138318
0.113775
0.0945885
0.0794119
0.0672758
0.0574949
12.9054
8.33993
5.07879
3.15547
2.02774
1.3512
0.933536
0.666457
0.489543
0.368592
0.283601
0.222383
0.177323
0.143526
0.117733
0.0977496
0.0820553
0.0695812
0.0595493
0.0513667
38.7028
13.0541
5.74336
3.08733
1.88066
1.2275
0.869478
0.645384
0.492592
0.38478
0.307022
0.249042
0.204971
0.170974
0.144384
0.12331
0.106402
0.0926832
0.0814935
0.0730762
36.0571
12.8529
5.76645
3.10211
1.89475
1.22669
0.866496
0.643978
0.492244
0.383956
0.305784
0.247904
0.2039
0.16992
0.143298
0.122148
0.105121
0.0912345
0.079838
0.071183
12.6882
8.1544
5.07113
3.20038
2.07939
1.39506
0.967834
0.692726
0.509643
0.384023
0.295512
0.231658
0.184605
0.149276
0.122305
0.101405
0.0849907
0.0719419
0.0614586
0.0530047
11.5726
7.56718
5.02065
3.38344
2.32103
1.62326
1.15828
0.843157
0.625692
0.472851
0.363486
0.283856
0.224909
0.180591
0.14679
0.120667
0.100226
0.0840466
0.0711063
0.0606455
11.4757
7.50136
5.04297
3.47002
2.43665
1.74299
1.26863
0.938712
0.705584
0.538336
0.416594
0.326729
0.259499
0.208557
0.169483
0.139168
0.115388
0.0965418
0.0814425
0.0691042
11.4647
7.49683
5.0577
3.50272
2.48038
1.79068
1.31522
0.981305
0.742925
0.57021
0.44335
0.348968
0.277888
0.223735
0.182018
0.149543
0.124005
0.103725
0.0874412
0.0740569
11.4647
7.49683
5.0577
3.50272
2.48038
1.79068
1.31522
0.981305
0.742924
0.57021
0.44335
0.348968
0.277888
0.223735
0.182018
0.149543
0.124005
0.103725
0.0874413
0.0740563
11.4757
7.50136
5.04297
3.47002
2.43665
1.74299
1.26863
0.938712
0.705583
0.538335
0.416593
0.326728
0.259499
0.208556
0.169483
0.139167
0.115387
0.096541
0.0814431
0.0691208
11.5726
7.56718
5.02065
3.38344
2.32103
1.62326
1.15828
0.843156
0.62569
0.472848
0.363483
0.283852
0.224905
0.180589
0.146786
0.12066
0.100216
0.0840354
0.0710927
0.0606113
12.6882
8.1544
5.07113
3.20038
2.07939
1.39506
0.967831
0.692723
0.509637
0.384016
0.295503
0.231647
0.184593
0.149268
0.122289
0.101383
0.0849622
0.0719086
0.0614244
0.0529672
36.0571
12.8529
5.76645
3.10211
1.89476
1.22669
0.866498
0.643979
0.492246
0.383959
0.305787
0.247908
0.203904
0.169923
0.143301
0.122155
0.105136
0.0912624
0.0799002
0.0714209
36.0571
12.8529
5.76645
3.10212
1.89476
1.22669
0.866498
0.64398
0.492246
0.383959
0.305788
0.247908
0.203905
0.169924
0.143299
0.122154
0.105134
0.0912596
0.0798961
0.0714155
12.6882
8.1544
5.07113
3.20038
2.07939
1.39506
0.967831
0.692723
0.509638
0.384016
0.295504
0.231648
0.184592
0.149263
0.122295
0.101386
0.0849651
0.0719118
0.0614281
0.0529715
11.5726
7.56718
5.02065
3.38344
2.32103
1.62326
1.15828
0.843156
0.62569
0.472848
0.363483
0.283852
0.224904
0.180587
0.146789
0.120662
0.100217
0.084036
0.0710934
0.0606108
11.4757
7.50136
5.04297
3.47002
2.43665
1.74299
1.26863
0.938712
0.705584
0.538335
0.416593
0.326728
0.259498
0.208556
0.169484
0.139167
0.115387
0.0965409
0.0814432
0.0691218
11.4647
7.49683
5.0577
3.50272
2.48038
1.79068
1.31522
0.981305
0.742925
0.57021
0.44335
0.348968
0.277888
0.223735
0.182018
0.149543
0.124005
0.103725
0.0874411
0.0740566
11.4647
7.49683
5.0577
3.50272
2.48038
1.79068
1.31522
0.981305
0.742924
0.57021
0.44335
0.348968
0.277888
0.223735
0.182018
0.149543
0.124005
0.103725
0.0874411
0.0740554
11.4757
7.50136
5.04297
3.47002
2.43665
1.74299
1.26863
0.938712
0.705584
0.538336
0.416594
0.326728
0.259499
0.208556
0.169484
0.139167
0.115388
0.0965414
0.0814421
0.0691026
11.5726
7.56718
5.02065
3.38344
2.32103
1.62326
1.15828
0.843156
0.625692
0.472851
0.363486
0.283855
0.224907
0.18059
0.146791
0.120667
0.100225
0.0840449
0.0711041
0.0606428
12.6882
8.1544
5.07113
3.20038
2.07939
1.39506
0.967834
0.692726
0.509643
0.384023
0.295511
0.231657
0.184603
0.149276
0.122305
0.101404
0.0849886
0.0719386
0.0614545
0.0529998
36.0571
12.8529
5.76645
3.10211
1.89475
1.22669
0.866497
0.643978
0.492244
0.383956
0.305784
0.247904
0.203901
0.169922
0.143297
0.122147
0.105121
0.0912351
0.07984
0.0711879
38.7028
13.0541
5.74336
3.08733
1.88067
1.2275
0.869479
0.645384
0.492592
0.384781
0.307023
0.249042
0.204973
0.170978
0.144381
0.123308
0.1064
0.0926812
0.0814911
0.0730727
12.9054
8.33993
5.07879
3.15547
2.02774
1.3512
0.933535
0.666457
0.489543
0.368592
0.2836
0.222382
0.177321
0.14352
0.11774
0.0977525
0.0820564
0.0695814
0.0595495
0.0513662
11.6229
7.60535
5.0103
3.34209
2.26848
1.57142
1.11236
0.804587
0.594203
0.447515
0.343208
0.26763
0.211895
0.170115
0.138321
0.113776
0.0945877
0.0794101
0.0672734
0.0574902
11.4933
7.5119
5.02843
3.434
2.3892
1.6928
1.22111
0.896487
0.669456
0.508122
0.391656
0.306285
0.242783
0.194886
0.158279
0.129952
0.107775
0.0902248
0.0761867
0.0648065
11.4757
7.50136
5.04297
3.47002
2.43665
1.74299
1.26863
0.938712
0.705584
0.538336
0.416594
0.326728
0.259499
0.208557
0.169483
0.139167
0.115388
0.0965411
0.0814415
0.0691022
11.4757
7.50136
5.04297
3.47002
2.43665
1.74299
1.26863
0.938712
0.705583
0.538335
0.416593
0.326728
0.259499
0.208557
0.169483
0.139167
0.115387
0.0965409
0.0814431
0.0691201
11.4933
7.5119
5.02843
3.434
2.3892
1.6928
1.22111
0.896487
0.669456
0.508122
0.391656
0.306285
0.242784
0.194886
0.158279
0.129952
0.107776
0.0902256
0.076188
0.0648079
11.6229
7.60535
5.0103
3.34209
2.26848
1.57142
1.11236
0.804589
0.594206
0.44752
0.343214
0.267637
0.211901
0.17012
0.138326
0.113787
0.0946029
0.0794291
0.0672976
0.0575588
12.9054
8.33993
5.07879
3.15547
2.02775
1.35121
0.933542
0.666465
0.489554
0.368606
0.283618
0.222403
0.177345
0.143542
0.117766
0.0977936
0.0821091
0.0696431
0.0596139
0.0513597
38.7028
13.0541
5.74336
3.08733
1.88066
1.2275
0.869475
0.645381
0.492587
0.384774
0.307014
0.249032
0.204963
0.170972
0.144374
0.123292
0.106371
0.0926333
0.0814349
0.0732475
45.0226
13.4729
5.73075
3.07323
1.86023
1.227
0.873583
0.649787
0.497023
0.389493
0.311306
0.252999
0.209009
0.175253
0.148873
0.127972
0.111266
0.0978123
0.0870058
0.0788446
13.6679
8.73671
5.07741
3.05388
1.92223
1.26609
0.869287
0.618629
0.453957
0.342031
0.263646
0.207307
0.165896
0.134838
0.111132
0.0926681
0.0781362
0.0666006
0.0571701
0.0497556
11.8601
7.76395
4.99734
3.24076
2.14419
1.45499
1.0141
0.725634
0.532155
0.399149
0.305545
0.238221
0.188823
0.151912
0.123869
0.102234
0.0853148
0.0719229
0.0611793
0.052605
11.6229
7.60535
5.0103
3.34209
2.26848
1.57142
1.11236
0.804588
0.594206
0.447519
0.343213
0.267637
0.211902
0.170121
0.138322
0.113785
0.0946017
0.0794279
0.0672961
0.0575571
11.5726
7.56718
5.02065
3.38344
2.32103
1.62326
1.15828
0.843156
0.625692
0.472851
0.363486
0.283856
0.224908
0.180591
0.14679
0.120666
0.100224
0.0840452
0.0711046
0.0606436
11.5726
7.56718
5.02065
3.38344
2.32103
1.62326
1.15828
0.843155
0.62569
0.472848
0.363483
0.283852
0.224904
0.180588
0.146789
0.120661
0.100217
0.0840362
0.0710938
0.0606109
11.6229
7.60535
5.0103
3.34209
2.26848
1.57142
1.11236
0.804587
0.594202
0.447515
0.343208
0.267631
0.211897
0.170118
0.138318
0.113775
0.094588
0.0794112
0.0672751
0.0574932
11.8601
7.76395
4.99734
3.24076
2.14419
1.45499
1.0141
0.725634
0.532155
0.399149
0.305545
0.238221
0.188824
0.151912
0.12387
0.102235
0.0853162
0.0719249
0.0611825
0.0526108
13.6679
8.73671
5.07741
3.05388
1.92224
1.2661
0.869291
0.618635
0.453965
0.342042
0.26366
0.207324
0.165916
0.134855
0.111157
0.0927037
0.0781789
0.0666462
0.0571936
0.0501791
45.0226
13.4729
5.73075
3.07323
1.86023
1.227
0.873579
0.649783
0.497018
0.389485
0.311297
0.252987
0.208997
0.175243
0.148863
0.127952
0.111231
0.097752
0.086882
0.0785704
58.5856
14.5696
6.08947
3.33296
2.08218
1.40268
0.998666
0.740303
0.565926
0.443953
0.356058
0.290978
0.241483
0.203088
0.173233
0.150024
0.131673
0.11715
0.106389
0.0995076
16.5373
9.49239
5.0127
2.8606
1.75746
1.14759
0.786931
0.562048
0.415366
0.315946
0.24633
0.196219
0.159215
0.131244
0.109752
0.0931725
0.0801226
0.0696324
0.0606152
0.0562454
13.6679
8.73671
5.07741
3.05388
1.92224
1.2661
0.869292
0.618633
0.453965
0.342042
0.26366
0.207324
0.165917
0.134863
0.111149
0.0927003
0.0781776
0.0666466
0.0571894
0.0501837
12.9054
8.33993
5.07879
3.15547
2.02775
1.35121
0.933542
0.666464
0.489554
0.368606
0.283618
0.222404
0.177348
0.143549
0.117758
0.0977912
0.0821089
0.0696442
0.0596157
0.0513625
12.6882
8.1544
5.07113
3.20038
2.07939
1.39506
0.967835
0.692726
0.509643
0.384023
0.295512
0.231658
0.184605
0.149277
0.122305
0.101405
0.0849909
0.0719421
0.061459
0.0530049
12.6882
8.1544
5.07113
3.20038
2.07939
1.39506
0.967832
0.692722
0.509637
0.384016
0.295504
0.231648
0.184593
0.149264
0.122295
0.101386
0.0849652
0.0719117
0.061428
0.0529709
12.9054
8.33993
5.07879
3.15547
2.02774
1.3512
0.933536
0.666456
0.489543
0.368592
0.2836
0.222382
0.177323
0.143527
0.117734
0.0977497
0.082055
0.0695806
0.0595488
0.0513656
13.6679
8.73671
5.07741
3.05388
1.92223
1.26609
0.869287
0.618628
0.453957
0.342031
0.263646
0.207307
0.165896
0.134841
0.111129
0.0926664
0.0781355
0.0666003
0.0571698
0.049755
16.5373
9.49239
5.0127
2.8606
1.75746
1.14759
0.78693
0.562048
0.415366
0.315946
0.24633
0.19622
0.159216
0.131236
0.109759
0.0931758
0.0801247
0.0696341
0.0606168
0.0562453
58.5856
14.5696
6.08947
3.33296
2.08218
1.40268
0.998665
0.740302
0.565924
0.443951
0.356055
0.290974
0.241475
0.203085
0.173227
0.150005
0.131632
0.117063
0.106197
0.0992525
90.5034
12.1248
4.3887
2.46659
1.63316
1.18308
0.902027
0.720681
0.594612
0.502538
0.432729
0.37935
0.336419
0.300061
0.270485
0.246599
0.227208
0.211968
0.203015
0.195538
58.5856
14.5696
6.08947
3.33296
2.08218
1.40268
0.998665
0.740302
0.565925
0.443952
0.356056
0.290975
0.241478
0.203082
0.173231
0.15001
0.131638
0.11707
0.106205
0.0992572
45.0226
13.4729
5.73075
3.07323
1.86023
1.227
0.873579
0.649783
0.497018
0.389486
0.311298
0.252988
0.208996
0.17524
0.148867
0.127957
0.111236
0.0977558
0.0868849
0.0785654
38.7028
13.0541
5.74336
3.08733
1.88066
1.2275
0.869474
0.645381
0.492587
0.384774
0.307015
0.249032
0.204961
0.170968
0.144379
0.123295
0.106373
0.0926349
0.0814351
0.0732439
36.0571
12.8529
5.76645
3.10211
1.89475
1.22669
0.866496
0.643978
0.492244
0.383956
0.305784
0.247904
0.203899
0.16992
0.143298
0.122148
0.105121
0.0912336
0.0798367
0.0711808
36.0571
12.8529
5.76645
3.10212
1.89476
1.22669
0.866498
0.64398
0.492246
0.383959
0.305788
0.247908
0.203904
0.169923
0.143298
0.122153
0.105134
0.0912594
0.0798959
0.0714151
38.7028
13.0541
5.74336
3.08733
1.88066
1.2275
0.869478
0.645385
0.492593
0.384781
0.307023
0.249042
0.204972
0.170974
0.144384
0.12331
0.106402
0.0926831
0.081493
0.0730748
45.0226
13.4729
5.73075
3.07323
1.86023
1.227
0.873582
0.649787
0.497024
0.389493
0.311307
0.252998
0.209007
0.175249
0.148876
0.127976
0.111269
0.097815
0.0870084
0.0788467
58.5856
14.5696
6.08947
3.33296
2.08218
1.40268
0.998666
0.740303
0.565926
0.443953
0.356058
0.290978
0.241482
0.203086
0.173233
0.150024
0.131672
0.117149
0.106387
0.0995048
90.5034
12.1248
4.3887
2.46659
1.63316
1.18308
0.902027
0.720681
0.594612
0.502537
0.432729
0.37935
0.336418
0.30006
0.270484
0.246597
0.227205
0.211966
0.203014
0.195531
0.384915
0.301829
0.235949
0.20053
0.179864
0.166936
0.157344
0.149707
0.143573
0.138478
0.134131
0.130164
0.12644
0.122862
0.119447
0.116408
0.113448
0.110773
0.108226
0.105827
0.103568
0.101438
0.0994792
0.0976461
0.0957956
0.0940455
0.0923331
0.0906894
0.0890551
0.08752
0.0859902
0.0845303
0.0831164
0.08172
0.0804129
0.0791447
0.0779504
0.0767561
0.0757428
0.0739873
0.133729
0.11145
0.0937455
0.0817258
0.0741796
0.0686816
0.0643317
0.0608144
0.0579032
0.0553996
0.053167
0.0512007
0.0494682
0.0477742
0.046146
0.0447008
0.0433498
0.0421276
0.0410014
0.0399386
0.0389456
0.0380222
0.0371696
0.0363976
0.0356581
0.0349445
0.0342576
0.0335935
0.032949
0.0323271
0.0317235
0.0311388
0.0305733
0.0300353
0.0295106
0.0290193
0.028543
0.0280814
0.0276453
0.027155
0.0862607
0.0758098
0.0670016
0.0606486
0.0555568
0.0513901
0.0478908
0.0449317
0.0423988
0.0402149
0.038319
0.0366552
0.0352544
0.0338454
0.0325443
0.0314081
0.0303512
0.0294146
0.0285299
0.0276902
0.0268864
0.0260891
0.0253712
0.0247256
0.0241445
0.0235832
0.0230451
0.0225303
0.0220375
0.0215649
0.0211088
0.0206737
0.0202558
0.0198588
0.0194764
0.0191218
0.0187783
0.0184486
0.0181353
0.0178132
0.0702321
0.0628872
0.0568495
0.0518587
0.0476632
0.0440903
0.0410134
0.0383484
0.0360226
0.0339785
0.0321692
0.0305641
0.0291508
0.0278603
0.0266875
0.0256211
0.0246407
0.0237842
0.0229403
0.0221015
0.0213654
0.0206953
0.0200599
0.0194694
0.0189171
0.0183995
0.01792
0.0174615
0.0170334
0.0166253
0.0162293
0.0158512
0.015488
0.0151578
0.0148386
0.0145422
0.0142518
0.0139814
0.0137213
0.0134567
0.0720603
0.0607712
0.0537263
0.048476
0.0442479
0.0407565
0.0378095
0.0352701
0.0330435
0.0310767
0.0293302
0.0277744
0.0263922
0.0251229
0.0239748
0.0229319
0.0219907
0.0211325
0.0203413
0.019616
0.0189478
0.0183473
0.0177143
0.0171438
0.0166168
0.0161282
0.0156727
0.0152468
0.0148506
0.0144786
0.0141205
0.0137753
0.0134535
0.0131543
0.0128582
0.0125828
0.0123191
0.0120743
0.0118451
0.0116311
0.0706433
0.0599945
0.0529996
0.0475905
0.0432493
0.039682
0.0366952
0.0341538
0.031933
0.0299644
0.028211
0.0266455
0.0252467
0.023984
0.022844
0.0218125
0.0208768
0.0200251
0.0192496
0.0185496
0.0179065
0.0173173
0.0167598
0.0162858
0.0157664
0.0152598
0.0148019
0.014386
0.0140087
0.0136599
0.0133305
0.013025
0.0127112
0.0124324
0.0121071
0.0118753
0.0116054
0.0113896
0.0111768
0.0109762
0.0696534
0.0601441
0.0533721
0.0480893
0.0437652
0.0401537
0.0371029
0.0344869
0.0321952
0.030175
0.0283885
0.0268062
0.0254035
0.0241394
0.0230001
0.0219692
0.0210343
0.0201866
0.0194153
0.0187163
0.0180846
0.0175037
0.0169483
0.0164512
0.0159539
0.0154586
0.0150091
0.014607
0.0142323
0.013884
0.0135502
0.0132405
0.0129203
0.0126363
0.012347
0.0121016
0.0118586
0.011629
0.0114069
0.0111964
0.0712904
0.0637148
0.0570615
0.0513843
0.0466287
0.0426738
0.0393552
0.0365284
0.0341026
0.032002
0.0301683
0.0285621
0.0271423
0.0258574
0.0247011
0.0236502
0.0227021
0.0218473
0.0210677
0.0203521
0.0197014
0.0190907
0.0184688
0.0179444
0.0174414
0.0169783
0.0165355
0.0161303
0.0157242
0.0153343
0.0149714
0.0146374
0.0143321
0.0140346
0.0137468
0.0134682
0.0131957
0.0129354
0.012686
0.0124469
0.0928977
0.0786841
0.0677098
0.0591182
0.0530079
0.048392
0.044713
0.0416984
0.0391793
0.0370254
0.0351583
0.0335409
0.0320945
0.0307732
0.0295994
0.0283907
0.0273276
0.0263573
0.0255003
0.0246875
0.0239518
0.0232647
0.0226005
0.0220146
0.021454
0.0209347
0.0204405
0.019978
0.0195348
0.0191262
0.018733
0.018356
0.0179915
0.0176435
0.0173094
0.0169859
0.01667
0.0163614
0.01607
0.0157836
0.142113
0.117615
0.0964774
0.0815598
0.0721623
0.0659197
0.0612768
0.0576932
0.054826
0.0523821
0.0502711
0.0484095
0.0466022
0.0448929
0.0433032
0.0418174
0.040442
0.0391757
0.038021
0.0369486
0.03597
0.035083
0.03428
0.0335699
0.0328641
0.0321917
0.0315456
0.030927
0.0303289
0.0297638
0.0292076
0.0286694
0.0281494
0.0276471
0.0271564
0.026683
0.0262503
0.0258316
0.0254405
0.0250034
0.384937
0.301839
0.235995
0.200419
0.179382
0.166362
0.156816
0.149292
0.143293
0.138388
0.134092
0.130355
0.126599
0.123048
0.119675
0.116584
0.113637
0.110918
0.108344
0.105953
0.103641
0.101522
0.0995243
0.0977205
0.0958653
0.0941504
0.0924457
0.0908155
0.0891831
0.087638
0.0861003
0.0846329
0.0832008
0.0817968
0.0804459
0.07914
0.078009
0.0768202
0.0758184
0.0740436
0.142125
0.117608
0.09643
0.081522
0.0722478
0.0661682
0.0615203
0.0578734
0.0549545
0.0524496
0.0503184
0.0483731
0.0465285
0.0448045
0.0431864
0.0417284
0.0403404
0.0391007
0.0379546
0.036894
0.0359305
0.0350522
0.0342563
0.0335486
0.0328406
0.0321608
0.0315088
0.030886
0.030285
0.0297221
0.0291685
0.0286337
0.0281155
0.0276207
0.0271479
0.0266915
0.0262478
0.0258173
0.0254195
0.0249789
0.0642674
0.0533093
0.046794
0.0413438
0.0368999
0.0337503
0.0314989
0.0293856
0.0275109
0.0258831
0.0244908
0.0232102
0.0221123
0.0210052
0.0201896
0.0191986
0.0184596
0.0176468
0.0169788
0.0163328
0.0157266
0.0151651
0.0146202
0.0141466
0.0137397
0.0133581
0.0130085
0.0126391
0.0123755
0.0119722
0.0117141
0.0114756
0.0112151
0.0110404
0.0106158
0.0104935
0.0103386
0.0101655
0.0100118
0.00983565
0.054364
0.0432676
0.0374319
0.0325944
0.0293882
0.0266915
0.024422
0.0224825
0.0208242
0.0193851
0.0181478
0.0168926
0.0161059
0.0149363
0.0143285
0.0134173
0.0129244
0.0121973
0.0117729
0.0112079
0.0107632
0.0104064
0.0099047
0.00964021
0.00922134
0.00896602
0.00867894
0.00836011
0.00815083
0.00787173
0.00767819
0.00746896
0.0073129
0.00706474
0.00688449
0.00671079
0.00660362
0.00640997
0.00626019
0.00603088
0.0499064
0.0418847
0.0360659
0.0314336
0.0278179
0.024938
0.0226878
0.0207356
0.0190446
0.017571
0.0162799
0.015133
0.0141061
0.013221
0.0124316
0.0117189
0.0110919
0.0105288
0.00998838
0.00957123
0.00903409
0.00872638
0.0082379
0.00803136
0.00761863
0.00741182
0.00707705
0.00690057
0.00662244
0.00646886
0.00624473
0.00606274
0.00594199
0.00570805
0.00557819
0.00548812
0.00538234
0.00519478
0.00508023
0.00485501
0.0459722
0.0403568
0.0354839
0.0313522
0.0278729
0.0247595
0.0221365
0.020057
0.0184004
0.0169258
0.015619
0.014458
0.0134212
0.0125153
0.011709
0.0109883
0.0103426
0.00976247
0.00923861
0.00876556
0.00833635
0.00794707
0.00759788
0.00727261
0.00698546
0.00669001
0.00645136
0.00618645
0.0059775
0.00579924
0.00562519
0.00542967
0.00531752
0.00510346
0.00498619
0.00491434
0.0048028
0.00464788
0.00452687
0.00432664
0.0457488
0.0402095
0.0353823
0.0312651
0.0277755
0.0247853
0.0221316
0.0197782
0.0180302
0.0166143
0.0153268
0.0141702
0.0131412
0.0122198
0.0114025
0.0106747
0.0100242
0.00944094
0.00891665
0.00844407
0.00801743
0.00763181
0.00728856
0.00698146
0.00667862
0.00639963
0.00615184
0.0059076
0.00570066
0.00551826
0.00533738
0.00518493
0.00504472
0.00487974
0.00474715
0.00466837
0.00454586
0.00442651
0.00424745
0.00410097
0.0461755
0.0403467
0.0353571
0.0311308
0.0275832
0.0245392
0.0218289
0.0195763
0.0179352
0.0165133
0.0152314
0.0140849
0.0130657
0.0121674
0.0113668
0.0106509
0.0100093
0.00943303
0.0089134
0.00844495
0.00802122
0.00763783
0.00729573
0.00698671
0.00669893
0.00641611
0.00618756
0.00589382
0.00571211
0.00546242
0.0053223
0.00517711
0.00503536
0.00484144
0.00470907
0.00462682
0.00450471
0.00437898
0.00421991
0.00405945
0.0454597
0.0400694
0.0350329
0.0307412
0.0272221
0.0240246
0.021646
0.0198586
0.0182582
0.016842
0.0155905
0.0144756
0.0134872
0.0126303
0.0118581
0.0111599
0.0105246
0.00995484
0.00942581
0.00895686
0.0085252
0.00813611
0.00780661
0.00740443
0.00716837
0.00679646
0.00661322
0.0062949
0.0061179
0.0058413
0.00570723
0.00554595
0.00540566
0.00515379
0.00501323
0.00486204
0.00476294
0.00463941
0.00449085
0.00430393
0.0508035
0.0417226
0.0364471
0.0314569
0.0280514
0.025559
0.0234001
0.0215453
0.019921
0.0185063
0.0172619
0.0161552
0.0151991
0.014325
0.0135347
0.0128539
0.0121045
0.0116113
0.0108997
0.0105189
0.00994127
0.00961386
0.00910747
0.00881794
0.00849227
0.00812897
0.00792486
0.0075758
0.00739602
0.00706816
0.00690283
0.0067129
0.00655314
0.00629732
0.00613734
0.00599854
0.00576905
0.00565703
0.00549935
0.00533019
0.0641935
0.053362
0.0467729
0.0415562
0.0372636
0.0340672
0.0314018
0.0292911
0.0273327
0.025735
0.0243542
0.0230529
0.0220617
0.0209799
0.0201084
0.019184
0.0183889
0.0176187
0.0169471
0.0163052
0.0157258
0.0151387
0.0146442
0.0141249
0.0137515
0.0133402
0.0130212
0.0126406
0.0123745
0.0119717
0.0117095
0.0114686
0.011221
0.0109722
0.0107305
0.0106117
0.0101856
0.0100951
0.00996412
0.00979159
0.133733
0.111393
0.0938542
0.081571
0.0737413
0.0683137
0.0640533
0.0606235
0.057755
0.0553195
0.053055
0.0512501
0.0494956
0.0478256
0.0462089
0.0447562
0.043401
0.0421761
0.0410312
0.039976
0.0389675
0.0380442
0.0371848
0.0364185
0.0356826
0.0349762
0.0342967
0.0336371
0.0329958
0.0323746
0.0317695
0.0311827
0.0306156
0.0300707
0.0295459
0.0290369
0.0285617
0.0281073
0.0276731
0.0271825
0.0929024
0.0786643
0.0678387
0.0588049
0.0528393
0.048354
0.0447285
0.0417278
0.0392068
0.0370429
0.0351627
0.0335104
0.0320653
0.030744
0.0295476
0.0283501
0.0272634
0.0263251
0.0254531
0.024654
0.0239247
0.0232322
0.022574
0.0219872
0.0214325
0.0209123
0.0204174
0.019954
0.0195105
0.0191035
0.0187116
0.0183365
0.0179744
0.0176293
0.017297
0.0169795
0.0166708
0.0163666
0.0160758
0.0157882
0.0507893
0.0418735
0.0366667
0.0313335
0.0280422
0.0255784
0.0234433
0.021592
0.0199711
0.0185539
0.0173238
0.016194
0.0152507
0.0143105
0.0136283
0.0127798
0.0122516
0.0114611
0.0110374
0.0104234
0.00999277
0.0096488
0.00911905
0.00886408
0.0084332
0.00815479
0.00793105
0.00758189
0.007401
0.00706955
0.00690849
0.00671933
0.00656299
0.00631225
0.00616504
0.00593912
0.00581721
0.00566299
0.00550759
0.00535754
0.0457519
0.0395513
0.034445
0.0300837
0.0265606
0.0236697
0.021255
0.0192162
0.0174765
0.015977
0.014678
0.013542
0.0125223
0.011627
0.0108522
0.0101146
0.00948298
0.00882954
0.00836152
0.00793383
0.00753895
0.00718102
0.00678394
0.00650158
0.00618079
0.00587395
0.00567131
0.00539346
0.00521258
0.00500535
0.00486682
0.00470594
0.004591
0.00437906
0.00426111
0.0041973
0.00411053
0.00394406
0.00384659
0.00364477
0.0477987
0.0414094
0.0360657
0.0315865
0.0278396
0.0246975
0.0220544
0.0198058
0.0178793
0.0162179
0.0147771
0.0135207
0.0124111
0.0114401
0.0105795
0.00981414
0.00913085
0.00851191
0.00796034
0.00747232
0.00702538
0.00663868
0.00620258
0.00587048
0.00561421
0.00538048
0.00512368
0.0049203
0.00469436
0.00452085
0.00434081
0.00421813
0.00411127
0.00392891
0.0038112
0.00377584
0.00366827
0.00355818
0.00344379
0.00330586
0.0500841
0.0432591
0.0376371
0.0329589
0.0290346
0.0257079
0.0228806
0.0204742
0.0184249
0.0166595
0.0151283
0.0137926
0.01262
0.0115924
0.010684
0.00987814
0.00916066
0.00851897
0.00794381
0.00742691
0.00696068
0.00654521
0.00614586
0.00581821
0.00550531
0.00521579
0.00490476
0.00469764
0.0045326
0.00439203
0.00423233
0.00408516
0.00394858
0.00382732
0.00370733
0.00367444
0.00356079
0.00344639
0.00333292
0.00322414
0.0503283
0.0437272
0.0381488
0.0334419
0.0294637
0.0260841
0.0231958
0.0207182
0.0186066
0.0167994
0.0152368
0.0138754
0.0126809
0.0116358
0.0107122
0.0098933
0.00916437
0.00851284
0.00792963
0.00740656
0.00693567
0.00651454
0.00611829
0.0057924
0.00547566
0.00518162
0.00491742
0.00466712
0.00442807
0.00433109
0.00418108
0.00403983
0.00390558
0.00378694
0.00367067
0.00364891
0.00353294
0.00341732
0.00330164
0.00318887
0.049362
0.0429535
0.0375097
0.0328894
0.0289701
0.025636
0.0227906
0.020363
0.0182976
0.0165259
0.0149964
0.0136673
0.0124975
0.0114813
0.0105824
0.00978423
0.00907411
0.00843829
0.00786872
0.00735722
0.00689655
0.00648238
0.0060944
0.00576839
0.00545152
0.00516587
0.0049088
0.00463407
0.00446034