/*--------------------------------*- C++ -*----------------------------------*\
| =========                 |                                                 |
| \\      /  F ield         | OpenFOAM: The Open Source CFD Toolbox           |
|  \\    /   O peration     | Version:  2212                                  |
|   \\  /    A nd           | Website:  www.openfoam.com                      |
|    \\/     M anipulation  |                                                 |
\*---------------------------------------------------------------------------*/
FoamFile
{
    version     2.0;
    format      ascii;
    arch        "LSB;label=32;scalar=64";
    class       volScalarField;
    location    "2.45";
    object      nut;
}
// * * * * * * * * * * * * * * * * * * * * * * * * * * * * * * * * * * * * * //

dimensions      [0 2 -1 0 0 0 0];

internalField   nonuniform List<scalar> 
6840
(
4.5356e-05
2.3208e-05
1.65396e-05
1.36493e-05
1.18966e-05
1.06844e-05
9.7608e-06
9.05719e-06
8.49487e-06
8.03158e-06
7.64101e-06
7.31294e-06
7.02595e-06
6.76311e-06
6.53321e-06
6.33496e-06
6.16447e-06
6.02327e-06
5.94053e-06
5.85453e-06
0.000107685
6.77183e-05
5.06311e-05
4.14159e-05
3.54049e-05
3.10368e-05
2.77139e-05
2.50819e-05
2.29339e-05
2.11513e-05
1.96517e-05
1.83731e-05
1.72661e-05
1.6298e-05
1.54571e-05
1.47341e-05
1.41084e-05
1.35723e-05
1.31488e-05
1.28477e-05
0.000160509
0.00010736
8.07409e-05
6.55976e-05
5.54897e-05
4.83027e-05
4.31312e-05
3.90794e-05
3.57397e-05
3.29504e-05
3.05792e-05
2.85369e-05
2.67771e-05
2.52508e-05
2.39155e-05
2.27412e-05
2.1708e-05
2.08002e-05
2.0009e-05
1.93425e-05
0.000198681
0.0001383
0.000105187
8.55269e-05
7.25013e-05
6.28902e-05
5.60612e-05
5.07593e-05
4.63881e-05
4.27218e-05
3.96253e-05
3.69554e-05
3.46332e-05
3.26027e-05
3.08175e-05
2.92411e-05
2.78423e-05
2.65966e-05
2.54879e-05
2.45666e-05
0.000218609
0.000155003
0.000118661
9.65068e-05
8.18823e-05
7.08354e-05
6.30853e-05
5.71431e-05
5.22477e-05
4.80953e-05
4.45809e-05
4.15695e-05
3.89485e-05
3.66528e-05
3.46294e-05
3.28363e-05
3.1237e-05
2.98018e-05
2.85177e-05
2.7491e-05
0.000218609
0.000155003
0.000118661
9.65068e-05
8.18822e-05
7.08353e-05
6.30852e-05
5.71429e-05
5.22474e-05
4.80948e-05
4.45801e-05
4.15683e-05
3.89466e-05
3.665e-05
3.46254e-05
3.28292e-05
3.1225e-05
2.97817e-05
2.84801e-05
2.73683e-05
0.000198681
0.0001383
0.000105187
8.55269e-05
7.25011e-05
6.289e-05
5.60609e-05
5.07589e-05
4.63874e-05
4.27208e-05
3.96236e-05
3.69529e-05
3.46296e-05
3.25975e-05
3.08095e-05
2.92277e-05
2.782e-05
2.65597e-05
2.54317e-05
2.45349e-05
0.000160509
0.00010736
8.07408e-05
6.55975e-05
5.54896e-05
4.83025e-05
4.3131e-05
3.90791e-05
3.57392e-05
3.29495e-05
3.05779e-05
2.85349e-05
2.67742e-05
2.52466e-05
2.39091e-05
2.27305e-05
2.16904e-05
2.07705e-05
1.9963e-05
1.93212e-05
0.000107685
6.77183e-05
5.06311e-05
4.14159e-05
3.54049e-05
3.10368e-05
2.77139e-05
2.50819e-05
2.29338e-05
2.11512e-05
1.96514e-05
1.83726e-05
1.72651e-05
1.62965e-05
1.54546e-05
1.47296e-05
1.40998e-05
1.3555e-05
1.31115e-05
1.27983e-05
4.5356e-05
2.3208e-05
1.65396e-05
1.36493e-05
1.18966e-05
1.06844e-05
9.7608e-06
9.05719e-06
8.49487e-06
8.03158e-06
7.641e-06
7.31294e-06
7.02591e-06
6.76313e-06
6.53316e-06
6.3349e-06
6.1644e-06
6.02317e-06
5.94042e-06
5.85434e-06
0.000107685
6.77183e-05
5.06311e-05
4.14159e-05
3.54049e-05
3.10368e-05
2.77139e-05
2.50819e-05
2.29338e-05
2.11512e-05
1.96514e-05
1.83726e-05
1.72652e-05
1.62963e-05
1.54547e-05
1.47298e-05
1.41e-05
1.35553e-05
1.31118e-05
1.27989e-05
0.000528907
0.000369984
0.000305097
0.000261372
0.000228529
0.000202477
0.000181116
0.000163077
0.000147544
0.00013399
0.000122059
0.00011148
0.000102155
9.3889e-05
8.65175e-05
7.97423e-05
7.35727e-05
6.80612e-05
6.39042e-05
5.54697e-05
0.000663952
0.000488459
0.000404619
0.000347249
0.000305037
0.00027213
0.000245322
0.000222894
0.000203763
0.00018719
0.00017267
0.000159838
0.000148406
0.000138164
0.000128943
0.000120746
0.000113379
0.000106665
0.000100905
9.52344e-05
0.00071288
0.000556432
0.000466397
0.000402355
0.000354426
0.000317051
0.000286676
0.000261256
0.000239583
0.000220848
0.000204446
0.000189953
0.000177047
0.000165466
0.000154996
0.000145526
0.000136894
0.000128975
0.000121672
0.00011498
0.000728543
0.000588231
0.000496002
0.000429131
0.000378509
0.000338933
0.000306816
0.000279968
0.000257065
0.000237243
0.000219888
0.000204541
0.000190857
0.000178561
0.000167429
0.000157316
0.000148038
0.000139454
0.000131419
0.000123523
0.000728543
0.000588231
0.000496001
0.000429131
0.000378508
0.000338932
0.000306814
0.000279966
0.00025706
0.000237236
0.000219878
0.000204526
0.000190836
0.000178538
0.000167405
0.000157264
0.000147954
0.000139329
0.000131241
0.00012325
0.00071288
0.000556432
0.000466397
0.000402354
0.000354425
0.000317049
0.000286672
0.000261252
0.000239575
0.000220834
0.000204426
0.000189922
0.000177006
0.000165421
0.000154936
0.000145417
0.000136724
0.000128728
0.000121318
0.000114487
0.000663952
0.000488458
0.000404619
0.000347248
0.000305036
0.000272128
0.000245319
0.00022289
0.000203757
0.00018718
0.000172655
0.000159815
0.000148375
0.000138133
0.000128893
0.000120664
0.00011326
0.000106503
0.000100742
9.42163e-05
0.000528907
0.000369984
0.000305097
0.000261372
0.000228529
0.000202477
0.000181116
0.000163077
0.000147544
0.00013399
0.000122058
0.000111479
0.000102153
9.38958e-05
8.65102e-05
7.97368e-05
7.35671e-05
6.80548e-05
6.38957e-05
5.54543e-05
0.000107685
6.77183e-05
5.06311e-05
4.14159e-05
3.54049e-05
3.10368e-05
2.77139e-05
2.50819e-05
2.29339e-05
2.11513e-05
1.96517e-05
1.8373e-05
1.7266e-05
1.6298e-05
1.5457e-05
1.4734e-05
1.41082e-05
1.3572e-05
1.31484e-05
1.28469e-05
0.000160509
0.00010736
8.07408e-05
6.55976e-05
5.54896e-05
4.83025e-05
4.3131e-05
3.90791e-05
3.57392e-05
3.29495e-05
3.05779e-05
2.85349e-05
2.67741e-05
2.52465e-05
2.39093e-05
2.27308e-05
2.16906e-05
2.07707e-05
1.99632e-05
1.93215e-05
0.000663952
0.000488458
0.000404619
0.000347248
0.000305036
0.000272128
0.000245319
0.00022289
0.000203757
0.00018718
0.000172655
0.000159815
0.000148374
0.000138121
0.000128905
0.000120672
0.000113265
0.000106506
0.000100753
9.42444e-05
0.000786828
0.000662293
0.000567975
0.000495806
0.000439464
0.000394563
0.000357976
0.000327455
0.000301495
0.000279058
0.000259409
0.000242019
0.000226497
0.000212547
0.000199944
0.000188511
0.000178105
0.00016858
0.000159784
0.000149991
0.000809324
0.000713906
0.000631505
0.000562574
0.000505378
0.000457786
0.000417842
0.000383941
0.000354807
0.000329454
0.000307163
0.00028739
0.000269716
0.000253812
0.000239423
0.000226355
0.000214422
0.000203452
0.000193208
0.000182978
0.000814958
0.000730426
0.000654634
0.000589043
0.000533067
0.000485438
0.000444762
0.000409791
0.000379468
0.000352928
0.000329486
0.000308621
0.000289927
0.000273078
0.000257809
0.000243917
0.000231198
0.000219459
0.000208394
0.000197134
0.000814958
0.000730426
0.000654634
0.000589043
0.000533066
0.000485437
0.000444762
0.00040979
0.000379466
0.000352925
0.000329482
0.000308615
0.000289919
0.000273072
0.000257805
0.0002439
0.000231171
0.000219426
0.000208377
0.000197238
0.000809324
0.000713906
0.000631505
0.000562574
0.000505377
0.000457785
0.000417841
0.00038394
0.000354804
0.000329449
0.000307155
0.000287378
0.000269702
0.000253802
0.000239406
0.00022632
0.000214365
0.000203371
0.00019309
0.00018261
0.000786828
0.000662293
0.000567975
0.000495806
0.000439464
0.000394563
0.000357976
0.000327455
0.000301495
0.000279058
0.000259409
0.000242018
0.000226495
0.000212548
0.00019994
0.000188507
0.000178099
0.000168571
0.000159772
0.000149965
0.000663952
0.000488459
0.000404619
0.000347249
0.000305037
0.00027213
0.000245321
0.000222893
0.000203763
0.00018719
0.00017267
0.000159836
0.000148403
0.000138159
0.000128945
0.000120746
0.000113377
0.000106659
0.000100897
9.52173e-05
0.000160509
0.00010736
8.07409e-05
6.55976e-05
5.54897e-05
4.83027e-05
4.31312e-05
3.90794e-05
3.57397e-05
3.29504e-05
3.05792e-05
2.85369e-05
2.67769e-05
2.52506e-05
2.39156e-05
2.27413e-05
2.1708e-05
2.08001e-05
2.00088e-05
1.93427e-05
0.000198681
0.0001383
0.000105187
8.55269e-05
7.25011e-05
6.289e-05
5.60609e-05
5.07589e-05
4.63874e-05
4.27208e-05
3.96237e-05
3.69529e-05
3.46295e-05
3.25973e-05
3.08097e-05
2.92279e-05
2.78202e-05
2.65598e-05
2.54316e-05
2.4535e-05
0.00071288
0.000556432
0.000466397
0.000402354
0.000354425
0.000317049
0.000286672
0.000261252
0.000239575
0.000220834
0.000204425
0.000189921
0.000177002
0.00016541
0.000154947
0.000145422
0.000136726
0.000128727
0.000121315
0.000114482
0.000809324
0.000713906
0.000631505
0.000562574
0.000505377
0.000457785
0.000417841
0.00038394
0.000354804
0.000329449
0.000307155
0.000287378
0.000269699
0.000253797
0.000239413
0.000226324
0.000214368
0.000203373
0.000193094
0.000182617
0.000823497
0.000753987
0.000688491
0.000628748
0.000575387
0.000528266
0.000486845
0.000450442
0.000418363
0.000389975
0.000364729
0.000342164
0.000321898
0.000303611
0.000287038
0.000271954
0.00025816
0.000245441
0.000233455
0.000221312
0.000826292
0.000764347
0.000706102
0.000651936
0.00060223
0.000557103
0.000516427
0.000479911
0.000447179
0.000417831
0.000391474
0.000367748
0.00034633
0.000326937
0.00030932
0.00029326
0.000278549
0.00026494
0.000251987
0.000238396
0.000826292
0.000764347
0.000706102
0.000651936
0.00060223
0.000557103
0.000516427
0.000479911
0.000447179
0.00041783
0.000391473
0.000367746
0.000346328
0.000326936
0.000309321
0.00029326
0.000278548
0.000264949
0.000252054
0.000238903
0.000823497
0.000753987
0.000688491
0.000628748
0.000575387
0.000528266
0.000486845
0.000450442
0.000418363
0.000389974
0.000364728
0.000342164
0.000321897
0.000303611
0.000287037
0.000271953
0.000258158
0.000245437
0.000233447
0.000221302
0.000809324
0.000713906
0.000631505
0.000562574
0.000505378
0.000457786
0.000417842
0.000383941
0.000354807
0.000329454
0.000307163
0.000287388
0.000269711
0.000253808
0.000239427
0.000226355
0.000214418
0.000203443
0.000193196
0.000182964
0.00071288
0.000556432
0.000466397
0.000402355
0.000354426
0.000317051
0.000286676
0.000261256
0.000239583
0.000220848
0.000204446
0.000189952
0.000177043
0.000165454
0.000155006
0.000145532
0.000136896
0.000128974
0.00012167
0.000114978
0.000198681
0.0001383
0.000105187
8.55269e-05
7.25013e-05
6.28902e-05
5.60612e-05
5.07593e-05
4.63881e-05
4.27218e-05
3.96253e-05
3.69553e-05
3.46331e-05
3.26024e-05
3.08177e-05
2.92413e-05
2.78424e-05
2.65968e-05
2.54881e-05
2.4567e-05
0.000218609
0.000155003
0.000118661
9.65068e-05
8.18822e-05
7.08353e-05
6.30852e-05
5.71429e-05
5.22474e-05
4.80948e-05
4.45801e-05
4.15683e-05
3.89466e-05
3.66499e-05
3.46253e-05
3.28291e-05
3.12249e-05
2.97815e-05
2.84799e-05
2.73686e-05
0.000728543
0.000588231
0.000496001
0.000429131
0.000378508
0.000338932
0.000306814
0.000279966
0.00025706
0.000237236
0.000219877
0.000204526
0.000190834
0.000178532
0.000167404
0.000157261
0.000147949
0.00013932
0.000131227
0.000123229
0.000814958
0.000730426
0.000654634
0.000589043
0.000533066
0.000485437
0.000444762
0.00040979
0.000379466
0.000352925
0.000329482
0.000308614
0.000289917
0.000273069
0.000257805
0.000243899
0.000231168
0.000219419
0.000208367
0.000197226
0.000826292
0.000764347
0.000706102
0.000651936
0.00060223
0.000557103
0.000516427
0.000479911
0.000447179
0.00041783
0.000391473
0.000367746
0.000346328
0.000326936
0.000309321
0.000293259
0.000278548
0.000264947
0.000252052
0.0002389
0.000828382
0.0007726
0.000721137
0.00067296
0.000627781
0.000585619
0.000546546
0.000510577
0.000477646
0.000447612
0.000420284
0.000395443
0.000372862
0.000352316
0.000333593
0.000316488
0.000300798
0.000286271
0.000272488
0.000258658
0.000828382
0.0007726
0.000721137
0.00067296
0.000627781
0.000585619
0.000546546
0.000510577
0.000477646
0.000447612
0.000420284
0.000395443
0.000372862
0.000352316
0.000333593
0.000316488
0.000300797
0.00028627
0.000272487
0.00025866
0.000826292
0.000764347
0.000706102
0.000651936
0.00060223
0.000557103
0.000516427
0.000479911
0.000447179
0.000417831
0.000391473
0.000367747
0.000346329
0.000326937
0.00030932
0.000293259
0.000278546
0.000264937
0.000251982
0.000238394
0.000814958
0.000730426
0.000654634
0.000589043
0.000533067
0.000485438
0.000444762
0.000409791
0.000379467
0.000352928
0.000329486
0.00030862
0.000289924
0.000273074
0.000257813
0.000243916
0.000231195
0.000219453
0.000208386
0.000197124
0.000728543
0.000588231
0.000496002
0.000429131
0.000378509
0.000338933
0.000306816
0.000279968
0.000257065
0.000237243
0.000219888
0.000204541
0.000190854
0.000178551
0.000167438
0.000157321
0.000148041
0.000139456
0.00013142
0.000123527
0.000218609
0.000155003
0.000118661
9.65068e-05
8.18823e-05
7.08354e-05
6.30853e-05
5.71431e-05
5.22477e-05
4.80953e-05
4.45809e-05
4.15695e-05
3.89484e-05
3.66525e-05
3.46297e-05
3.28365e-05
3.12372e-05
2.98021e-05
2.8518e-05
2.74915e-05
0.000218609
0.000155003
0.000118661
9.65068e-05
8.18823e-05
7.08354e-05
6.30853e-05
5.71431e-05
5.22477e-05
4.80953e-05
4.45809e-05
4.15695e-05
3.89485e-05
3.66527e-05
3.46294e-05
3.28362e-05
3.1237e-05
2.98017e-05
2.85176e-05
2.74907e-05
0.000728543
0.000588231
0.000496002
0.000429131
0.000378509
0.000338933
0.000306816
0.000279968
0.000257065
0.000237243
0.000219888
0.000204541
0.000190856
0.000178559
0.000167428
0.000157313
0.000148034
0.000139446
0.000131406
0.000123503
0.000814958
0.000730426
0.000654634
0.000589043
0.000533067
0.000485438
0.000444762
0.000409791
0.000379468
0.000352928
0.000329486
0.000308621
0.000289927
0.000273077
0.000257808
0.000243914
0.000231193
0.000219451
0.000208382
0.000197119
0.000826292
0.000764347
0.000706102
0.000651936
0.00060223
0.000557103
0.000516427
0.000479911
0.000447179
0.000417831
0.000391474
0.000367748
0.00034633
0.000326937
0.00030932
0.000293259
0.000278547
0.000264938
0.000251983
0.000238392
0.000828382
0.0007726
0.000721137
0.00067296
0.000627781
0.000585619
0.000546546
0.000510577
0.000477646
0.000447613
0.000420285
0.000395444
0.000372862
0.000352316
0.000333594
0.000316488
0.000300798
0.000286271
0.00027249
0.00025866
0.000828382
0.0007726
0.000721137
0.00067296
0.000627781
0.000585619
0.000546546
0.000510577
0.000477646
0.000447612
0.000420284
0.000395443
0.000372862
0.000352316
0.000333593
0.000316488
0.000300798
0.00028627
0.000272488
0.000258663
0.000826292
0.000764347
0.000706102
0.000651936
0.00060223
0.000557103
0.000516427
0.000479911
0.000447179
0.00041783
0.000391473
0.000367746
0.000346329
0.000326937
0.00030932
0.000293259
0.000278548
0.000264949
0.000252055
0.000238909
0.000814958
0.000730426
0.000654634
0.000589043
0.000533066
0.000485437
0.000444762
0.00040979
0.000379466
0.000352925
0.000329482
0.000308615
0.00028992
0.000273071
0.000257802
0.000243898
0.00023117
0.000219424
0.000208375
0.000197244
0.000728543
0.000588231
0.000496001
0.000429131
0.000378508
0.000338932
0.000306814
0.000279966
0.000257061
0.000237236
0.000219878
0.000204527
0.000190837
0.000178534
0.000167402
0.000157262
0.000147953
0.00013933
0.000131242
0.000123252
0.000218609
0.000155003
0.000118661
9.65068e-05
8.18822e-05
7.08353e-05
6.30852e-05
5.71429e-05
5.22474e-05
4.80948e-05
4.45801e-05
4.15683e-05
3.89467e-05
3.665e-05
3.46253e-05
3.28292e-05
3.1225e-05
2.97817e-05
2.84804e-05
2.73697e-05
0.000198681
0.0001383
0.000105187
8.55269e-05
7.25013e-05
6.28902e-05
5.60612e-05
5.07593e-05
4.63881e-05
4.27218e-05
3.96253e-05
3.69554e-05
3.46333e-05
3.26027e-05
3.08175e-05
2.92411e-05
2.78423e-05
2.65966e-05
2.54879e-05
2.45667e-05
0.00071288
0.000556432
0.000466397
0.000402355
0.000354426
0.000317051
0.000286676
0.000261256
0.000239583
0.000220848
0.000204446
0.000189953
0.000177047
0.000165466
0.000154995
0.000145525
0.000136893
0.000128974
0.000121671
0.000114983
0.000809324
0.000713906
0.000631505
0.000562574
0.000505378
0.000457787
0.000417842
0.000383941
0.000354807
0.000329455
0.000307164
0.00028739
0.000269716
0.000253813
0.000239422
0.000226355
0.000214422
0.000203452
0.000193209
0.000182989
0.000823497
0.000753987
0.000688491
0.000628748
0.000575387
0.000528266
0.000486846
0.000450442
0.000418363
0.000389975
0.000364729
0.000342165
0.000321898
0.000303612
0.000287038
0.000271955
0.000258162
0.000245445
0.00023346
0.000221324
0.000826292
0.000764347
0.000706102
0.000651936
0.00060223
0.000557103
0.000516427
0.000479911
0.000447179
0.00041783
0.000391473
0.000367746
0.000346329
0.000326937
0.000309322
0.000293261
0.00027855
0.000264951
0.000252057
0.000238911
0.000826292
0.000764347
0.000706102
0.000651936
0.00060223
0.000557103
0.000516427
0.000479911
0.000447179
0.000417831
0.000391474
0.000367748
0.00034633
0.000326936
0.00030932
0.00029326
0.000278548
0.000264938
0.000251982
0.000238397
0.000823497
0.000753987
0.000688491
0.000628748
0.000575387
0.000528266
0.000486846
0.000450442
0.000418363
0.000389975
0.000364729
0.000342164
0.000321898
0.000303611
0.000287038
0.000271954
0.00025816
0.00024544
0.000233452
0.000221312
0.000809324
0.000713906
0.000631505
0.000562574
0.000505377
0.000457786
0.000417841
0.00038394
0.000354804
0.000329449
0.000307156
0.000287379
0.000269703
0.000253802
0.000239407
0.000226322
0.000214369
0.000203377
0.000193102
0.00018263
0.00071288
0.000556432
0.000466397
0.000402354
0.000354425
0.000317049
0.000286673
0.000261251
0.000239575
0.000220834
0.000204426
0.000189922
0.000177006
0.000165421
0.000154936
0.000145417
0.000136725
0.00012873
0.000121323
0.000114494
0.000198681
0.0001383
0.000105187
8.55269e-05
7.25011e-05
6.289e-05
5.60609e-05
5.07589e-05
4.63874e-05
4.27208e-05
3.96237e-05
3.69529e-05
3.46297e-05
3.25975e-05
3.08095e-05
2.92277e-05
2.78201e-05
2.65597e-05
2.54319e-05
2.45358e-05
0.000160509
0.00010736
8.07409e-05
6.55976e-05
5.54897e-05
4.83027e-05
4.31312e-05
3.90794e-05
3.57397e-05
3.29504e-05
3.05792e-05
2.85369e-05
2.67771e-05
2.52508e-05
2.39156e-05
2.27413e-05
2.17081e-05
2.08004e-05
2.00092e-05
1.93429e-05
0.000663952
0.000488459
0.000404619
0.000347249
0.000305037
0.00027213
0.000245322
0.000222894
0.000203763
0.000187191
0.000172671
0.000159838
0.000148408
0.000138167
0.000128943
0.000120748
0.000113384
0.000106676
0.000100911
9.52596e-05
0.000786828
0.000662293
0.000567975
0.000495806
0.000439464
0.000394563
0.000357977
0.000327455
0.000301495
0.000279058
0.00025941
0.00024202
0.000226499
0.00021255
0.000199945
0.000188515
0.000178112
0.000168592
0.000159803
0.000150028
0.000809324
0.000713906
0.000631505
0.000562574
0.000505377
0.000457786
0.000417841
0.00038394
0.000354804
0.00032945
0.000307156
0.000287379
0.000269701
0.000253799
0.000239415
0.000226328
0.000214375
0.000203384
0.000193111
0.000182641
0.000814958
0.000730426
0.000654634
0.000589043
0.000533066
0.000485437
0.000444762
0.000409791
0.000379466
0.000352925
0.000329482
0.000308615
0.000289918
0.000273069
0.000257806
0.000243902
0.000231172
0.000219426
0.000208376
0.00019724
0.000814958
0.000730426
0.000654634
0.000589043
0.000533067
0.000485438
0.000444762
0.000409792
0.000379468
0.000352928
0.000329486
0.000308621
0.000289926
0.000273075
0.000257809
0.000243915
0.000231194
0.000219452
0.000208383
0.000197119
0.000809324
0.000713906
0.000631505
0.000562574
0.000505378
0.000457786
0.000417842
0.000383942
0.000354807
0.000329455
0.000307163
0.000287389
0.000269712
0.000253808
0.000239427
0.000226357
0.000214421
0.000203448
0.000193201
0.00018297
0.000786828
0.000662293
0.000567975
0.000495806
0.000439464
0.000394563
0.000357977
0.000327455
0.000301495
0.000279058
0.000259409
0.000242019
0.000226497
0.000212549
0.000199942
0.000188512
0.000178107
0.000168583
0.000159788
0.000150002
0.000663952
0.000488458
0.000404619
0.000347248
0.000305036
0.000272128
0.000245319
0.00022289
0.000203757
0.00018718
0.000172655
0.000159815
0.000148376
0.000138134
0.000128894
0.000120666
0.000113263
0.000106507
0.000100748
9.42512e-05
0.000160509
0.00010736
8.07408e-05
6.55976e-05
5.54896e-05
4.83025e-05
4.3131e-05
3.90791e-05
3.57392e-05
3.29495e-05
3.05779e-05
2.8535e-05
2.67742e-05
2.52467e-05
2.39091e-05
2.27306e-05
2.16904e-05
2.07706e-05
1.99632e-05
1.93213e-05
0.000107685
6.77183e-05
5.06311e-05
4.14159e-05
3.54049e-05
3.10368e-05
2.77139e-05
2.50819e-05
2.29339e-05
2.11513e-05
1.96517e-05
1.83731e-05
1.72661e-05
1.6298e-05
1.54572e-05
1.47342e-05
1.41085e-05
1.35724e-05
1.31492e-05
1.28482e-05
0.000528907
0.000369984
0.000305097
0.000261372
0.000228529
0.000202477
0.000181116
0.000163077
0.000147544
0.000133991
0.000122059
0.000111481
0.000102156
9.38907e-05
8.6519e-05
7.97451e-05
7.35774e-05
6.80681e-05
6.39154e-05
5.54911e-05
0.000663952
0.000488458
0.000404619
0.000347248
0.000305036
0.000272128
0.000245319
0.00022289
0.000203757
0.000187181
0.000172656
0.000159815
0.000148375
0.000138123
0.000128907
0.000120675
0.00011327
0.000106513
0.000100765
9.42575e-05
0.00071288
0.000556432
0.000466397
0.000402354
0.000354425
0.000317049
0.000286672
0.000261252
0.000239575
0.000220834
0.000204426
0.000189922
0.000177002
0.00016541
0.000154949
0.000145424
0.000136729
0.000128731
0.000121321
0.00011449
0.000728543
0.000588231
0.000496001
0.000429131
0.000378508
0.000338932
0.000306814
0.000279966
0.000257061
0.000237236
0.000219877
0.000204526
0.000190834
0.000178531
0.000167404
0.000157261
0.000147949
0.000139321
0.000131228
0.00012323
0.000728543
0.000588231
0.000496002
0.000429131
0.000378509
0.000338933
0.000306815
0.000279969
0.000257065
0.000237243
0.000219888
0.000204541
0.000190855
0.000178555
0.000167427
0.000157313
0.000148033
0.000139446
0.000131406
0.000123504
0.00071288
0.000556432
0.000466397
0.000402355
0.000354426
0.000317051
0.000286676
0.000261257
0.000239584
0.000220848
0.000204447
0.000189953
0.000177044
0.000165453
0.000155005
0.000145532
0.000136897
0.000128976
0.000121672
0.000114979
0.000663952
0.000488459
0.000404619
0.000347249
0.000305037
0.00027213
0.000245321
0.000222894
0.000203763
0.000187191
0.000172671
0.000159838
0.000148406
0.00013816
0.000128948
0.000120752
0.000113386
0.000106676
0.00010091
9.52542e-05
0.000528907
0.000369984
0.000305097
0.000261372
0.000228529
0.000202477
0.000181116
0.000163077
0.000147544
0.00013399
0.000122059
0.00011148
0.000102154
9.3897e-05
8.65122e-05
7.97401e-05
7.35723e-05
6.80625e-05
6.39076e-05
5.54805e-05
0.000107685
6.77183e-05
5.06311e-05
4.14159e-05
3.54049e-05
3.10368e-05
2.77139e-05
2.50819e-05
2.29338e-05
2.11512e-05
1.96514e-05
1.83726e-05
1.72652e-05
1.62965e-05
1.54547e-05
1.47297e-05
1.41e-05
1.35552e-05
1.31119e-05
1.27993e-05
4.5356e-05
2.3208e-05
1.65396e-05
1.36493e-05
1.18966e-05
1.06844e-05
9.76081e-06
9.05719e-06
8.49488e-06
8.03159e-06
7.64101e-06
7.31294e-06
7.02596e-06
6.76312e-06
6.53323e-06
6.33498e-06
6.1645e-06
6.02331e-06
5.9406e-06
5.85476e-06
0.000107685
6.77183e-05
5.06311e-05
4.14159e-05
3.54049e-05
3.10368e-05
2.77139e-05
2.50819e-05
2.29338e-05
2.11512e-05
1.96514e-05
1.83726e-05
1.72653e-05
1.62964e-05
1.54548e-05
1.47299e-05
1.41002e-05
1.35555e-05
1.31122e-05
1.27994e-05
0.000160509
0.00010736
8.07408e-05
6.55976e-05
5.54896e-05
4.83025e-05
4.3131e-05
3.90791e-05
3.57392e-05
3.29495e-05
3.05779e-05
2.8535e-05
2.67741e-05
2.52465e-05
2.39093e-05
2.27308e-05
2.16907e-05
2.07708e-05
1.99634e-05
1.93217e-05
0.000198681
0.0001383
0.000105187
8.55269e-05
7.25011e-05
6.289e-05
5.60609e-05
5.07589e-05
4.63875e-05
4.27208e-05
3.96237e-05
3.69529e-05
3.46295e-05
3.25973e-05
3.08098e-05
2.92279e-05
2.78202e-05
2.65598e-05
2.54316e-05
2.45349e-05
0.000218609
0.000155003
0.000118661
9.65068e-05
8.18822e-05
7.08353e-05
6.30852e-05
5.71429e-05
5.22474e-05
4.80948e-05
4.45801e-05
4.15683e-05
3.89466e-05
3.66499e-05
3.46253e-05
3.28291e-05
3.12249e-05
2.97814e-05
2.84798e-05
2.73685e-05
0.000218609
0.000155003
0.000118661
9.65068e-05
8.18823e-05
7.08354e-05
6.30853e-05
5.71431e-05
5.22478e-05
4.80953e-05
4.45809e-05
4.15695e-05
3.89485e-05
3.66526e-05
3.46293e-05
3.28362e-05
3.12369e-05
2.98017e-05
2.85176e-05
2.74908e-05
0.000198681
0.0001383
0.000105187
8.55269e-05
7.25013e-05
6.28902e-05
5.60611e-05
5.07593e-05
4.63881e-05
4.27219e-05
3.96253e-05
3.69554e-05
3.46331e-05
3.26024e-05
3.08177e-05
2.92413e-05
2.78425e-05
2.65968e-05
2.54882e-05
2.45671e-05
0.000160509
0.00010736
8.07409e-05
6.55976e-05
5.54897e-05
4.83027e-05
4.31312e-05
3.90794e-05
3.57397e-05
3.29504e-05
3.05792e-05
2.85369e-05
2.6777e-05
2.52507e-05
2.39157e-05
2.27415e-05
2.17083e-05
2.08006e-05
2.00094e-05
1.93433e-05
0.000107685
6.77183e-05
5.06311e-05
4.14159e-05
3.54049e-05
3.10368e-05
2.77139e-05
2.50819e-05
2.29339e-05
2.11513e-05
1.96517e-05
1.83731e-05
1.72661e-05
1.62981e-05
1.54571e-05
1.47341e-05
1.41085e-05
1.35724e-05
1.31491e-05
1.28479e-05
4.5356e-05
2.3208e-05
1.65396e-05
1.36493e-05
1.18966e-05
1.06844e-05
9.76081e-06
9.05719e-06
8.49488e-06
8.03158e-06
7.64101e-06
7.31295e-06
7.02593e-06
6.76316e-06
6.5332e-06
6.33495e-06
6.16448e-06
6.02329e-06
5.9406e-06
5.85468e-06
5.6957e-06
5.26206e-06
4.85023e-06
4.59094e-06
4.42811e-06
4.32146e-06
4.23872e-06
4.17066e-06
4.11287e-06
4.06392e-06
4.02114e-06
3.98174e-06
3.94417e-06
3.90717e-06
3.87075e-06
3.83777e-06
3.80517e-06
3.7752e-06
3.74654e-06
3.71872e-06
3.69257e-06
3.66798e-06
3.64521e-06
3.62362e-06
3.60138e-06
3.58015e-06
3.55906e-06
3.5386e-06
3.51791e-06
3.49833e-06
3.47833e-06
3.45905e-06
3.4401e-06
3.42109e-06
3.40296e-06
3.38535e-06
3.36835e-06
3.35116e-06
3.33632e-06
3.31045e-06
1.09586e-05
1.0332e-05
9.792e-06
9.36038e-06
9.08268e-06
8.86513e-06
8.6834e-06
8.53274e-06
8.40006e-06
8.27883e-06
8.16793e-06
8.06906e-06
7.97754e-06
7.88841e-06
7.79932e-06
7.71818e-06
7.64087e-06
7.56916e-06
7.50222e-06
7.43767e-06
7.37616e-06
7.31895e-06
7.26536e-06
7.21668e-06
7.16937e-06
7.12263e-06
7.07707e-06
7.03255e-06
6.98862e-06
6.94582e-06
6.90351e-06
6.86181e-06
6.82095e-06
6.78149e-06
6.74256e-06
6.70551e-06
6.66925e-06
6.63355e-06
6.59938e-06
6.5605e-06
1.55406e-05
1.50004e-05
1.44894e-05
1.4048e-05
1.36604e-05
1.33151e-05
1.30149e-05
1.27496e-05
1.25138e-05
1.23021e-05
1.21098e-05
1.19343e-05
1.17778e-05
1.16282e-05
1.14794e-05
1.13465e-05
1.12206e-05
1.11048e-05
1.09946e-05
1.0888e-05
1.07811e-05
1.06753e-05
1.05768e-05
1.04889e-05
1.04074e-05
1.03271e-05
1.02492e-05
1.01736e-05
1.01002e-05
1.00291e-05
9.95927e-06
9.89142e-06
9.82588e-06
9.76196e-06
9.70034e-06
9.64208e-06
9.5857e-06
9.53005e-06
9.4771e-06
9.42173e-06
1.99874e-05
1.90947e-05
1.84e-05
1.78253e-05
1.73279e-05
1.68877e-05
1.64919e-05
1.61337e-05
1.58069e-05
1.55073e-05
1.52313e-05
1.4977e-05
1.4744e-05
1.45251e-05
1.43225e-05
1.41324e-05
1.39533e-05
1.37883e-05
1.36296e-05
1.34637e-05
1.3312e-05
1.31723e-05
1.30369e-05
1.29091e-05
1.27873e-05
1.26711e-05
1.25615e-05
1.24552e-05
1.23534e-05
1.22563e-05
1.21608e-05
1.20631e-05
1.19787e-05
1.18852e-05
1.18125e-05
1.1724e-05
1.16557e-05
1.15784e-05
1.15096e-05
1.14353e-05
2.32648e-05
2.19477e-05
2.10737e-05
2.03675e-05
1.97599e-05
1.9228e-05
1.87547e-05
1.83265e-05
1.79334e-05
1.75702e-05
1.7235e-05
1.69248e-05
1.66381e-05
1.63687e-05
1.61169e-05
1.58814e-05
1.56614e-05
1.54564e-05
1.52621e-05
1.50795e-05
1.49063e-05
1.47497e-05
1.45792e-05
1.44221e-05
1.42739e-05
1.4134e-05
1.40007e-05
1.38745e-05
1.37535e-05
1.36406e-05
1.35292e-05
1.34189e-05
1.33183e-05
1.32107e-05
1.31295e-05
1.30247e-05
1.29404e-05
1.28521e-05
1.27723e-05
1.26962e-05
2.43461e-05
2.30273e-05
2.20814e-05
2.1304e-05
2.06351e-05
2.00507e-05
1.95315e-05
1.90658e-05
1.8639e-05
1.82449e-05
1.78786e-05
1.75382e-05
1.72218e-05
1.69286e-05
1.66549e-05
1.6399e-05
1.61603e-05
1.5937e-05
1.57282e-05
1.55352e-05
1.53537e-05
1.51839e-05
1.50195e-05
1.48782e-05
1.47195e-05
1.45611e-05
1.44151e-05
1.42805e-05
1.41546e-05
1.40393e-05
1.39279e-05
1.38177e-05
1.37313e-05
1.35625e-05
1.35617e-05
1.33728e-05
1.3341e-05
1.32354e-05
1.31499e-05
1.3071e-05
2.26051e-05
2.18652e-05
2.1102e-05
2.04025e-05
1.97729e-05
1.92064e-05
1.86973e-05
1.82371e-05
1.78148e-05
1.74262e-05
1.70688e-05
1.67399e-05
1.64377e-05
1.61586e-05
1.58989e-05
1.56567e-05
1.54308e-05
1.52203e-05
1.50237e-05
1.4841e-05
1.46723e-05
1.45131e-05
1.43577e-05
1.42163e-05
1.40722e-05
1.39262e-05
1.37911e-05
1.3669e-05
1.35512e-05
1.34434e-05
1.33377e-05
1.3234e-05
1.31463e-05
1.3016e-05
1.29584e-05
1.28523e-05
1.27746e-05
1.26917e-05
1.26113e-05
1.25344e-05
2.01593e-05
1.93664e-05
1.86469e-05
1.79778e-05
1.73747e-05
1.68444e-05
1.63748e-05
1.59558e-05
1.55806e-05
1.52431e-05
1.49382e-05
1.46623e-05
1.44105e-05
1.41781e-05
1.39626e-05
1.37613e-05
1.35753e-05
1.34022e-05
1.32402e-05
1.3088e-05
1.29472e-05
1.281e-05
1.26689e-05
1.25484e-05
1.24313e-05
1.23219e-05
1.22159e-05
1.21177e-05
1.20155e-05
1.192e-05
1.18289e-05
1.17444e-05
1.16643e-05
1.15847e-05
1.15071e-05
1.14306e-05
1.13553e-05
1.12816e-05
1.12097e-05
1.11395e-05
1.65388e-05
1.56084e-05
1.48739e-05
1.41406e-05
1.35845e-05
1.31621e-05
1.28098e-05
1.2504e-05
1.22365e-05
1.19993e-05
1.1789e-05
1.1598e-05
1.14249e-05
1.12671e-05
1.11194e-05
1.09664e-05
1.08289e-05
1.06995e-05
1.05817e-05
1.04678e-05
1.03625e-05
1.02622e-05
1.0164e-05
1.00749e-05
9.99092e-06
9.91216e-06
9.83595e-06
9.76358e-06
9.69313e-06
9.6282e-06
9.56447e-06
9.50216e-06
9.44083e-06
9.38123e-06
9.32302e-06
9.26557e-06
9.20962e-06
9.15375e-06
9.09924e-06
9.04441e-06
1.1423e-05
1.07267e-05
1.00587e-05
9.48503e-06
9.08775e-06
8.8102e-06
8.59448e-06
8.42194e-06
8.27505e-06
8.14545e-06
8.02552e-06
7.92312e-06
7.82171e-06
7.72687e-06
7.6349e-06
7.54682e-06
7.46345e-06
7.38465e-06
7.31188e-06
7.24241e-06
7.17821e-06
7.11992e-06
7.06709e-06
7.01953e-06
6.97175e-06
6.9256e-06
6.88082e-06
6.83748e-06
6.79504e-06
6.75489e-06
6.71426e-06
6.67417e-06
6.63483e-06
6.59616e-06
6.55779e-06
6.51948e-06
6.48433e-06
6.44964e-06
6.41661e-06
6.37937e-06
5.6958e-06
5.26197e-06
4.85036e-06
4.59042e-06
4.42373e-06
4.31659e-06
4.23475e-06
4.16787e-06
4.11152e-06
4.06395e-06
4.02109e-06
3.98414e-06
3.9462e-06
3.90975e-06
3.8741e-06
3.84078e-06
3.80844e-06
3.77809e-06
3.74909e-06
3.72137e-06
3.69452e-06
3.66981e-06
3.64639e-06
3.62495e-06
3.60255e-06
3.58171e-06
3.56072e-06
3.5405e-06
3.51994e-06
3.50041e-06
3.48038e-06
3.4611e-06
3.44199e-06
3.42295e-06
3.40432e-06
3.38589e-06
3.36981e-06
3.35265e-06
3.33802e-06
3.31196e-06
1.14239e-05
1.07266e-05
1.00584e-05
9.48205e-06
9.09117e-06
8.82022e-06
8.6026e-06