/*--------------------------------*- C++ -*----------------------------------*\
| =========                 |                                                 |
| \\      /  F ield         | OpenFOAM: The Open Source CFD Toolbox           |
|  \\    /   O peration     | Version:  2212                                  |
|   \\  /    A nd           | Website:  www.openfoam.com                      |
|    \\/     M anipulation  |                                                 |
\*---------------------------------------------------------------------------*/
FoamFile
{
    version     2.0;
    format      ascii;
    arch        "LSB;label=32;scalar=64";
    class       volScalarField;
    location    "2.45";
    object      p;
}
// * * * * * * * * * * * * * * * * * * * * * * * * * * * * * * * * * * * * * //

dimensions      [0 2 -2 0 0 0 0];

internalField   nonuniform List<scalar> 
6840
(
0.0179061
0.0107917
0.00850026
0.00796242
0.00768803
0.00746577
0.00727902
0.00711246
0.0069511
0.00679132
0.00663319
0.00647644
0.00631971
0.00616103
0.00600059
0.00583732
0.00566771
0.00548606
0.00523525
0.0047561
0.0107273
0.00999348
0.00890057
0.00823457
0.00783194
0.00755812
0.00734682
0.00716041
0.0069857
0.0068179
0.00665441
0.00649333
0.00633273
0.00617112
0.00600798
0.00584126
0.00566584
0.00546875
0.00520752
0.00477249
0.0103791
0.00952755
0.00876327
0.00820411
0.00782791
0.00755983
0.00734409
0.00715103
0.00697238
0.00680348
0.00663936
0.00647771
0.00631781
0.006159
0.00599976
0.00583804
0.00567014
0.00549094
0.00529872
0.00508818
0.00996982
0.00920708
0.0085883
0.00813697
0.00779299
0.00752396
0.00730433
0.00711553
0.0069477
0.00679025
0.00663456
0.00647923
0.00632502
0.00617249
0.00602207
0.00587446
0.00573049
0.00559181
0.00546308
0.0053568
0.00983564
0.00909444
0.00850627
0.00809816
0.00777623
0.00750954
0.00728807
0.00709753
0.00692697
0.00677061
0.00662133
0.00647245
0.00632343
0.00617662
0.00603506
0.00590198
0.00578164
0.00567833
0.00560208
0.00556912
0.00983565
0.00909446
0.00850629
0.00809819
0.00777627
0.00750961
0.00728818
0.00709772
0.00692729
0.00677113
0.00662219
0.00647388
0.00632581
0.00618061
0.00604197
0.00591418
0.00580283
0.00571594
0.00567084
0.00569433
0.00996985
0.00920711
0.00858835
0.00813704
0.00779309
0.00752412
0.0073046
0.00711598
0.00694844
0.00679146
0.00663655
0.00648248
0.00633033
0.00618129
0.00603687
0.00589969
0.00577369
0.00566577
0.00559164
0.00557533
0.0103791
0.00952759
0.00876331
0.00820417
0.00782801
0.00756
0.00734436
0.00715148
0.00697312
0.00680469
0.00664131
0.00648087
0.0063229
0.00616728
0.0060133
0.00586015
0.00570682
0.00555264
0.00540678
0.00528661
0.0107274
0.0099935
0.00890059
0.00823461
0.007832
0.00755821
0.00734698
0.00716068
0.00698615
0.00681863
0.00665559
0.00649524
0.00633591
0.00617631
0.00601636
0.00585483
0.00568863
0.00550896
0.00528215
0.00492331
0.0179061
0.0107917
0.00850027
0.00796242
0.00768803
0.00746577
0.00727903
0.00711246
0.0069511
0.00679133
0.0066332
0.00647646
0.00631972
0.00616106
0.00600065
0.00583738
0.00566778
0.00548615
0.00523537
0.00475624
0.0107274
0.0099935
0.0089006
0.00823461
0.007832
0.00755822
0.00734698
0.00716068
0.00698615
0.00681863
0.00665558
0.00649524
0.0063359
0.00617628
0.0060163
0.00585477
0.00568856
0.00550887
0.00528201
0.00492313
0.0100107
0.00997903
0.00925079
0.00854026
0.00809386
0.00777782
0.00751881
0.00729097
0.00708609
0.00689724
0.00671883
0.00654697
0.00637819
0.00621025
0.00604191
0.00587114
0.0056932
0.0055032
0.00531503
0.00520918
0.00908526
0.00921144
0.00890853
0.00849228
0.0081251
0.0078064
0.00752773
0.00728709
0.00707419
0.00687912
0.00669502
0.00651845
0.00634715
0.00617892
0.0060115
0.00584287
0.00567124
0.00549526
0.00532154
0.00517155
0.00866691
0.00871041
0.00854483
0.00828188
0.00800148
0.00773013
0.00747911
0.00725271
0.00704965
0.006863
0.00668572
0.00651479
0.00634881
0.00618647
0.00602674
0.00586903
0.0057132
0.00556039
0.00541384
0.00527787
0.00845098
0.0084728
0.0083456
0.0081281
0.00789571
0.0076666
0.00744387
0.00723087
0.00703038
0.0068436
0.00666805
0.00650074
0.00634011
0.00618454
0.00603391
0.00589043
0.00575506
0.0056276
0.00551141
0.00541376
0.008451
0.00847283
0.00834564
0.00812815
0.00789577
0.00766669
0.00744402
0.0072311
0.00703074
0.00684417
0.006669
0.00650228
0.00634249
0.00618814
0.00603955
0.00589911
0.00576785
0.0056453
0.00553409
0.00543657
0.00866695
0.00871046
0.00854489
0.00828196
0.00800161
0.00773031
0.00747939
0.00725315
0.00705037
0.0068642
0.00668772
0.00651799
0.00635364
0.00619386
0.00603843
0.00588742
0.00574149
0.00560284
0.00547853
0.00537178
0.00908529
0.00921147
0.00890857
0.00849234
0.00812517
0.00780652
0.00752793
0.00728742
0.00707473
0.00687999
0.00669638
0.00652055
0.00635039
0.00618391
0.00601898
0.00585376
0.00568606
0.00551307
0.00533434
0.00515092
0.0100108
0.00997904
0.0092508
0.00854026
0.00809386
0.00777783
0.00751881
0.00729098
0.0070861
0.00689726
0.00671884
0.00654699
0.00637821
0.00621028
0.00604197
0.00587121
0.00569327
0.0055033
0.00531515
0.00520931
0.0107273
0.00999349
0.00890058
0.00823458
0.00783195
0.00755813
0.00734683
0.00716042
0.00698572
0.00681791
0.00665443
0.00649335
0.00633275
0.00617116
0.00600803
0.00584132
0.00566591
0.00546884
0.00520763
0.00477261
0.0103791
0.00952759
0.00876332
0.00820418
0.00782802
0.00756
0.00734437
0.00715148
0.00697312
0.00680469
0.00664131
0.00648086
0.00632289
0.00616724
0.00601325
0.00586009
0.00570675
0.00555253
0.00540661
0.00528637
0.00908529
0.00921147
0.00890857
0.00849234
0.00812517
0.00780652
0.00752793
0.00728741
0.00707473
0.00687998
0.00669636
0.00652053
0.00635036
0.00618387
0.00601895
0.00585371
0.00568599
0.00551299
0.00533423
0.00515077
0.00851578
0.00861675
0.00850518
0.00827968
0.0080239
0.00776546
0.00750699
0.00726525
0.00704717
0.0068466
0.00665857
0.0064798
0.00630745
0.00613905
0.00597301
0.00580807
0.00564354
0.00548163
0.00532972
0.00518779
0.00814781
0.00821587
0.00816349
0.00801649
0.0078316
0.00762646
0.00741577
0.00720884
0.00700764
0.00681508
0.00663228
0.00645734
0.00628824
0.00612358
0.00596224
0.00580313
0.00564528
0.00548869
0.00533472
0.00517885
0.00796479
0.00802923
0.00799976
0.00787492
0.00771594
0.00754231
0.00735609
0.00716817
0.00698215
0.00679887
0.00661984
0.00644609
0.00627802
0.00611598
0.00596017
0.0058097
0.00566228
0.00551705
0.00537587
0.00523149
0.00796481
0.00802925
0.00799978
0.00787496
0.00771599
0.00754238
0.0073562
0.00716832
0.00698238
0.00679922
0.00662037
0.00644686
0.00627914
0.00611757
0.00596243
0.00581266
0.00566564
0.00551979
0.00537457
0.00521925
0.00814784
0.0082159
0.00816352
0.00801655
0.00783168
0.00762657
0.00741593
0.00720909
0.00700802
0.00681567
0.00663321
0.00645879
0.00629042
0.00612683
0.00596706
0.00581013
0.00565514
0.00550174
0.0053502
0.0051912
0.00851579
0.00861676
0.00850519
0.00827969
0.0080239
0.00776547
0.007507
0.00726526
0.00704718
0.00684662
0.00665858
0.00647981
0.00630747
0.00613907
0.00597303
0.00580811
0.00564359
0.00548168
0.00532977
0.00518788
0.00908527
0.00921145
0.00890854
0.00849229
0.00812511
0.00780641
0.00752774
0.0072871
0.00707421
0.00687913
0.00669504
0.00651847
0.00634717
0.00617895
0.00601153
0.00584292
0.0056713
0.00549534
0.00532162
0.00517163
0.0103791
0.00952757
0.00876328
0.00820412
0.00782792
0.00755984
0.0073441
0.00715104
0.0069724
0.0068035
0.00663938
0.00647773
0.00631783
0.00615902
0.00599979
0.00583808
0.00567019
0.00549101
0.00529879
0.00508824
0.00996985
0.00920712
0.00858835
0.00813704
0.00779309
0.00752412
0.00730461
0.00711598
0.00694844
0.00679146
0.00663654
0.00648247
0.00633031
0.00618125
0.00603682
0.00589963
0.00577361
0.00566565
0.00559145
0.00557502
0.00866695
0.00871046
0.00854489
0.00828197
0.00800161
0.00773031
0.00747939
0.00725315
0.00705036
0.00686419
0.0066877
0.00651797
0.00635361
0.00619384
0.00603839
0.00588737
0.00574142
0.00560276
0.00547845
0.00537168
0.00814784
0.0082159
0.00816352
0.00801655
0.00783168
0.00762656
0.00741593
0.00720908
0.00700801
0.00681566
0.0066332
0.00645877
0.0062904
0.00612681
0.00596704
0.0058101
0.0056551
0.0055017
0.00535017
0.00519118
0.00784993
0.00790908
0.00789714
0.00780174
0.00766211
0.00749661
0.0073164
0.0071319
0.00694787
0.00676742
0.00659218
0.00642195
0.00625609
0.00609396
0.00593497
0.00577824
0.00562276
0.00546823
0.00531527
0.00515486
0.00769885
0.00776174
0.0077655
0.00769185
0.00757174
0.00742537
0.0072625
0.00709111
0.00691699
0.00674343
0.00657228
0.00640442
0.0062402
0.00607967
0.00592268
0.00576851
0.00561607
0.00546542
0.00531833
0.00516498
0.00769886
0.00776175
0.0077655
0.00769186
0.00757175
0.00742539
0.00726253
0.00709116
0.00691705
0.00674352
0.00657239
0.00640456
0.00624038
0.00607988
0.00592287
0.00576852
0.0056156
0.00546384
0.00531424
0.00515674
0.00784994
0.00790908
0.00789714
0.00780174
0.00766212
0.00749662
0.00731641
0.00713191
0.00694788
0.00676743
0.00659219
0.00642196
0.00625611
0.00609398
0.00593499
0.00577826
0.00562279
0.00546827
0.00531531
0.00515491
0.00814782
0.00821588
0.0081635
0.0080165
0.00783161
0.00762646
0.00741578
0.00720885
0.00700765
0.0068151
0.00663229
0.00645736
0.00628826
0.0061236
0.00596227
0.00580316
0.00564532
0.00548874
0.00533479
0.00517895
0.00866692
0.00871042
0.00854484
0.00828189
0.0080015
0.00773014
0.00747912
0.00725272
0.00704967
0.00686301
0.00668573
0.00651481
0.00634883
0.00618649
0.00602677
0.00586906
0.00571324
0.00556045
0.00541391
0.00527795
0.00996983
0.00920709
0.00858831
0.00813698
0.007793
0.00752397
0.00730434
0.00711554
0.00694771
0.00679026
0.00663457
0.00647924
0.00632503
0.00617249
0.00602207
0.00587447
0.00573051
0.00559182
0.00546309
0.00535679
0.00983565
0.00909446
0.00850629
0.00809819
0.00777628
0.00750961
0.00728818
0.00709772
0.00692728
0.00677113
0.00662218
0.00647386
0.00632578
0.00618058
0.00604192
0.00591412
0.00580275
0.00571582
0.00567065
0.00569401
0.008451
0.00847283
0.00834564
0.00812815
0.00789577
0.00766669
0.00744402
0.00723109
0.00703073
0.00684416
0.00666898
0.00650226
0.00634246
0.00618811
0.00603952
0.00589906
0.00576779
0.00564526
0.00553408
0.00543667
0.00796481
0.00802925
0.00799978
0.00787496
0.00771599
0.00754238
0.00735619
0.00716832
0.00698237
0.00679921
0.00662036
0.00644685
0.00627912
0.00611756
0.00596241
0.00581263
0.00566562
0.00551978
0.00537459
0.00521934
0.00769886
0.00776175
0.0077655
0.00769186
0.00757175
0.00742539
0.00726253
0.00709115
0.00691705
0.00674351
0.00657239
0.00640456
0.00624037
0.00607987
0.00592286
0.00576851
0.00561559
0.00546383
0.00531424
0.00515675
0.00755607
0.00762559
0.00764771
0.00759516
0.00749392
0.007363
0.0072131
0.00705212
0.00688562
0.00671728
0.00654946
0.0063836
0.00622044
0.00606033
0.0059032
0.00574827
0.00559437
0.00544091
0.00528827
0.0051264
0.00755608
0.00762559
0.00764771
0.00759516
0.00749392
0.007363
0.0072131
0.00705212
0.00688563
0.00671729
0.00654947
0.0063836
0.00622045
0.00606034
0.0059032
0.00574828
0.00559438
0.00544091
0.00528827
0.0051264
0.00769886
0.00776175
0.0077655
0.00769185
0.00757174
0.00742537
0.00726251
0.00709112
0.006917
0.00674344
0.00657229
0.00640443
0.00624021
0.00607969
0.00592269
0.00576853
0.00561609
0.00546545
0.00531838
0.00516503
0.0079648
0.00802924
0.00799977
0.00787493
0.00771595
0.00754232
0.0073561
0.00716818
0.00698216
0.00679888
0.00661985
0.00644609
0.00627804
0.006116
0.00596019
0.00580972
0.00566231
0.00551711
0.00537596
0.00523159
0.00845099
0.00847281
0.00834562
0.00812812
0.00789572
0.00766661
0.00744388
0.00723088
0.00703039
0.00684361
0.00666806
0.00650074
0.00634011
0.00618454
0.00603392
0.00589044
0.00575508
0.00562765
0.00551149
0.00541389
0.00983565
0.00909446
0.00850628
0.00809817
0.00777624
0.00750955
0.00728807
0.00709754
0.00692698
0.00677062
0.00662134
0.00647245
0.00632343
0.00617661
0.00603505
0.00590196
0.00578161
0.0056783
0.00560203
0.00556904
0.00983564
0.00909445
0.00850627
0.00809816
0.00777623
0.00750954
0.00728806
0.00709753
0.00692696
0.0067706
0.00662132
0.00647243
0.00632341
0.00617658
0.00603501
0.00590191
0.00578155
0.0056782
0.00560188
0.00556881
0.00845098
0.0084728
0.00834561
0.00812811
0.00789571
0.0076666
0.00744387
0.00723086
0.00703038
0.00684359
0.00666803
0.00650071
0.00634008
0.0061845
0.00603387
0.00589038
0.005755
0.00562755
0.00551137
0.00541378
0.0079648
0.00802923
0.00799977
0.00787493
0.00771594
0.00754231
0.00735609
0.00716817
0.00698214
0.00679886
0.00661983
0.00644607
0.00627801
0.00611596
0.00596015
0.00580967
0.00566225
0.00551704
0.00537587
0.00523152
0.00769885
0.00776174
0.0077655
0.00769185
0.00757174
0.00742537
0.0072625
0.00709111
0.00691699
0.00674343
0.00657228
0.00640442
0.0062402
0.00607967
0.00592267
0.0057685
0.00561606
0.00546541
0.00531833
0.00516498
0.00755608
0.00762559
0.00764771
0.00759516
0.00749392
0.007363
0.0072131
0.00705212
0.00688562
0.00671728
0.00654946
0.0063836
0.00622044
0.00606033
0.0059032
0.00574827
0.00559437
0.00544091
0.00528828
0.00512642
0.00755608
0.00762559
0.00764771
0.00759517
0.00749392
0.007363
0.0072131
0.00705212
0.00688563
0.00671729
0.00654947
0.0063836
0.00622045
0.00606034
0.0059032
0.00574828
0.00559438
0.00544092
0.00528829
0.00512643
0.00769886
0.00776175
0.00776551
0.00769186
0.00757176
0.00742539
0.00726254
0.00709116
0.00691705
0.00674352
0.00657239
0.00640457
0.00624038
0.00607988
0.00592287
0.00576853
0.00561562
0.00546387
0.00531429
0.0051568
0.00796482
0.00802925
0.00799979
0.00787496
0.007716
0.00754239
0.0073562
0.00716833
0.00698238
0.00679922
0.00662037
0.00644686
0.00627914
0.00611758
0.00596244
0.00581267
0.00566568
0.00551986
0.00537469
0.00521949
0.00845101
0.00847284
0.00834565
0.00812816
0.00789578
0.0076667
0.00744403
0.0072311
0.00703074
0.00684418
0.006669
0.00650228
0.00634248
0.00618813
0.00603954
0.0058991
0.00576785
0.00564535
0.00553423
0.00543693
0.00983566
0.00909447
0.0085063
0.0080982
0.00777628
0.00750962
0.00728819
0.00709773
0.00692729
0.00677114
0.0066222
0.00647388
0.0063258
0.0061806
0.00604194
0.00591414
0.00580277
0.00571585
0.00567069
0.00569407
0.00996982
0.00920708
0.00858831
0.00813697
0.00779299
0.00752395
0.00730433
0.00711552
0.00694769
0.00679024
0.00663455
0.00647921
0.00632499
0.00617246
0.00602203
0.00587441
0.00573041
0.00559169
0.00546291
0.00535653
0.00866691
0.00871041
0.00854483
0.00828188
0.00800149
0.00773013
0.00747911
0.00725271
0.00704965
0.00686299
0.00668571
0.00651478
0.00634879
0.00618645
0.00602671
0.005869
0.00571316
0.00556035
0.0054138
0.00527782
0.00814781
0.00821588
0.00816349
0.0080165
0.0078316
0.00762646
0.00741577
0.00720884
0.00700764
0.00681508
0.00663227
0.00645734
0.00628824
0.00612357
0.00596223
0.00580312
0.00564527
0.00548867
0.00533469
0.00517878
0.00784994
0.00790908
0.00789714
0.00780174
0.00766212
0.00749662
0.00731641
0.0071319
0.00694787
0.00676742
0.00659218
0.00642195
0.00625609
0.00609397
0.00593498
0.00577824
0.00562276
0.00546823
0.00531525
0.00515482
0.00769886
0.00776175
0.00776551
0.00769186
0.00757176
0.00742539
0.00726254
0.00709116
0.00691705
0.00674352
0.00657239
0.00640456
0.00624037
0.00607987
0.00592287
0.00576852
0.0056156
0.00546384
0.00531426
0.00515677
0.00769886
0.00776175
0.0077655
0.00769185
0.00757174
0.00742537
0.00726251
0.00709111
0.00691699
0.00674344
0.00657228
0.00640443
0.0062402
0.00607968
0.00592269
0.00576852
0.00561608
0.00546544
0.00531837
0.00516504
0.00784994
0.00790908
0.00789714
0.00780174
0.00766212
0.00749662
0.00731641
0.0071319
0.00694787
0.00676742
0.00659219
0.00642196
0.0062561
0.00609397
0.00593498
0.00577825
0.00562278
0.00546826
0.00531532
0.00515492
0.00814784
0.00821591
0.00816353
0.00801656
0.00783169
0.00762657
0.00741594
0.00720909
0.00700802
0.00681567
0.00663321
0.00645879
0.00629041
0.00612682
0.00596705
0.00581013
0.00565515
0.00550177
0.00535031
0.00519143
0.00866696
0.00871047
0.0085449
0.00828197
0.00800161
0.00773031
0.0074794
0.00725315
0.00705037
0.0068642
0.00668771
0.00651798
0.00635362
0.00619384
0.0060384
0.00588738
0.00574145
0.00560282
0.0054786
0.00537205
0.00996986
0.00920713
0.00858836
0.00813705
0.0077931
0.00752413
0.00730461
0.00711598
0.00694844
0.00679147
0.00663655
0.00648247
0.00633032
0.00618127
0.00603684
0.00589963
0.0057736
0.00566561
0.00559138
0.00557487
0.0103791
0.00952756
0.00876327
0.00820411
0.00782791
0.00755983
0.00734409
0.00715103
0.00697238
0.00680348
0.00663935
0.0064777
0.00631779
0.00615898
0.00599974
0.005838
0.00567009
0.0054909
0.00529866
0.00508813
0.00908527
0.00921144
0.00890854
0.00849229
0.0081251
0.0078064
0.00752774
0.00728709
0.00707419
0.00687912
0.00669502
0.00651845
0.00634714
0.00617891
0.0060115
0.00584287
0.00567125
0.00549528
0.00532159
0.00517163
0.00851579
0.00861676
0.00850519
0.00827969
0.0080239
0.00776547
0.007507
0.00726525
0.00704717
0.00684661
0.00665857
0.0064798
0.00630746
0.00613905
0.00597302
0.00580809
0.00564356
0.00548166
0.00532975
0.00518778
0.00814785
0.00821591
0.00816353
0.00801656
0.00783169
0.00762657
0.00741594
0.00720909
0.00700802
0.00681567
0.00663321
0.00645878
0.00629041
0.00612682
0.00596706
0.00581012
0.00565512
0.00550171
0.00535017
0.00519112
0.00796482
0.00802926
0.00799979
0.00787497
0.007716
0.00754239
0.0073562
0.00716833
0.00698238
0.00679922
0.00662037
0.00644686
0.00627913
0.00611758
0.00596243
0.00581266
0.00566564
0.00551981
0.00537461
0.00521938
0.00796481
0.00802924
0.00799978
0.00787493
0.00771595
0.00754232
0.0073561
0.00716818
0.00698215
0.00679887
0.00661985
0.00644609
0.00627803
0.00611598
0.00596017
0.0058097
0.00566228
0.00551707
0.00537592
0.0052316
0.00814782
0.00821588
0.0081635
0.0080165
0.00783161
0.00762646
0.00741578
0.00720885
0.00700765
0.00681509
0.00663228
0.00645734
0.00628824
0.00612358
0.00596225
0.00580313
0.00564528
0.00548869
0.00533473
0.0051789
0.00851579
0.00861676
0.00850519
0.00827969
0.00802391
0.00776547
0.007507
0.00726525
0.00704717
0.00684661
0.00665858
0.0064798
0.00630746
0.00613905
0.00597301
0.00580808
0.00564356
0.00548165
0.00532979
0.00518794
0.0090853
0.00921148
0.00890858
0.00849234
0.00812518
0.00780652
0.00752794
0.00728742
0.00707473
0.00687999
0.00669637
0.00652054
0.00635037
0.00618388
0.00601894
0.00585371
0.00568598
0.00551298
0.00533424
0.0051508
0.0103791
0.0095276
0.00876332
0.00820418
0.00782802
0.00756001
0.00734437
0.00715149
0.00697312
0.00680469
0.00664131
0.00648086
0.00632289
0.00616725
0.00601326
0.00586008
0.00570671
0.00555245
0.00540644
0.00528599
0.0107273
0.00999349
0.00890057
0.00823458
0.00783194
0.00755812
0.00734682
0.00716041
0.0069857
0.0068179
0.00665441
0.00649332
0.00633272
0.00617111
0.00600796
0.00584125
0.00566582
0.00546874
0.00520752
0.00477254
0.0100108
0.00997904
0.0092508
0.00854027
0.00809387
0.00777783
0.00751882
0.00729098
0.0070861
0.00689725
0.00671883
0.00654697
0.00637818
0.00621025
0.00604191
0.00587115
0.00569321
0.00550325
0.00531514
0.0052094
0.0090853
0.00921148
0.00890858
0.00849235
0.00812518
0.00780653
0.00752794
0.00728742
0.00707474
0.00687999
0.00669637
0.00652054
0.00635037
0.00618389
0.00601896
0.00585373
0.00568602
0.00551304
0.00533432
0.00515088
0.00866697
0.00871047
0.0085449
0.00828198
0.00800162
0.00773032
0.0074794
0.00725316
0.00705038
0.0068642
0.00668772
0.00651798
0.00635363
0.00619385
0.00603841
0.00588739
0.00574145
0.0056028
0.00547849
0.00537171
0.00845101
0.00847284
0.00834565
0.00812816
0.00789579
0.00766671
0.00744403
0.00723111
0.00703075
0.00684418
0.006669
0.00650228
0.00634248
0.00618814
0.00603954
0.00589909
0.00576782
0.00564529
0.0055341
0.00543667
0.00845099
0.00847282
0.00834562
0.00812812
0.00789572
0.00766661
0.00744388
0.00723088
0.00703039
0.0068436
0.00666805
0.00650073
0.0063401
0.00618453
0.0060339
0.00589041
0.00575503
0.00562757
0.00551139
0.0054138
0.00866692
0.00871042
0.00854484
0.00828189
0.0080015
0.00773014
0.00747912
0.00725272
0.00704966
0.006863
0.00668572
0.00651479
0.00634881
0.00618647
0.00602673
0.00586901
0.00571317
0.00556035
0.0054138
0.00527783
0.00908527
0.00921145
0.00890854
0.00849229
0.00812511
0.00780641
0.00752774
0.00728709
0.0070742
0.00687912
0.00669502
0.00651846
0.00634715
0.00617891
0.00601149
0.00584286
0.00567123
0.00549525
0.00532153
0.00517155
0.0100108
0.00997904
0.0092508
0.00854027
0.00809387
0.00777783
0.00751881
0.00729098
0.0070861
0.00689725
0.00671883
0.00654697
0.00637818
0.00621025
0.00604191
0.00587114
0.00569318
0.00550319
0.005315
0.00520913
0.0107274
0.00999351
0.0089006
0.00823462
0.007832
0.00755822
0.00734698
0.00716068
0.00698615
0.00681863
0.00665558
0.00649524
0.0063359
0.00617628
0.00601632
0.00585477
0.00568854
0.00550883
0.00528191
0.00492287
0.0179062
0.0107917
0.00850027
0.00796243
0.00768803
0.00746577
0.00727903
0.00711246
0.0069511
0.00679132
0.00663319
0.00647644
0.0063197
0.00616103
0.00600059
0.00583731
0.00566771
0.00548607
0.00523528
0.00475617
0.0107274
0.00999351
0.00890061
0.00823462
0.00783201
0.00755823
0.00734699
0.00716069
0.00698616
0.00681863
0.00665559
0.00649524
0.0063359
0.00617628
0.0060163
0.00585478
0.00568858
0.0055089
0.00528208
0.00492328
0.0103791
0.0095276
0.00876333
0.00820419
0.00782803
0.00756001
0.00734438
0.00715149
0.00697313
0.00680469
0.00664132
0.00648087
0.0063229
0.00616725
0.00601326
0.00586011
0.00570677
0.00555257
0.00540669
0.00528652
0.00996987
0.00920713
0.00858837
0.00813705
0.00779311
0.00752413
0.00730462
0.00711599
0.00694845
0.00679147
0.00663655
0.00648248
0.00633033
0.00618127
0.00603684
0.00589965
0.00577364
0.00566569
0.00559152
0.00557514
0.00983566
0.00909448
0.0085063
0.0080982
0.00777629
0.00750963
0.0072882
0.00709774
0.0069273
0.00677114
0.0066222
0.00647388
0.00632581
0.0061806
0.00604194
0.00591415
0.00580278
0.00571586
0.0056707
0.00569409
0.00983565
0.00909446
0.00850628
0.00809817
0.00777624
0.00750955
0.00728808
0.00709754
0.00692698
0.00677062
0.00662134
0.00647245
0.00632343
0.00617661
0.00603504
0.00590194
0.00578158
0.00567823
0.00560192
0.00556886
0.00996983
0.00920709
0.00858832
0.00813698
0.007793
0.00752397
0.00730434
0.00711553
0.0069477
0.00679025
0.00663456
0.00647923
0.00632501
0.00617247
0.00602204
0.00587442
0.00573043
0.00559171
0.00546291
0.00535652
0.0103791
0.00952757
0.00876328
0.00820412
0.00782792
0.00755984
0.00734409
0.00715103
0.00697239
0.00680349
0.00663936
0.00647771
0.0063178
0.00615898
0.00599974
0.00583801
0.00567009
0.00549088
0.00529863
0.00508802
0.0107273
0.00999349
0.00890058
0.00823458
0.00783194
0.00755812
0.00734682
0.00716041
0.00698571
0.0068179
0.00665441
0.00649333
0.00633272
0.00617111
0.00600797
0.00584124
0.00566581
0.00546872
0.00520748
0.00477244
0.0179062
0.0107917
0.00850027
0.00796242
0.00768803
0.00746577
0.00727903
0.00711246
0.0069511
0.00679132
0.00663319
0.00647644
0.00631969
0.00616103
0.0060006
0.00583731
0.00566769
0.00548603
0.00523519
0.00475603
0.0056847
0.00496754
0.00447299
0.00436129
0.00426795
0.00413871
0.00400619
0.00387597
0.00374609
0.00361633
0.00348662
0.00335754
0.00322914
0.0031018
0.00297432
0.0028469
0.00272046
0.00259474
0.00247082
0.00234759
0.00222539
0.00210384
0.0019833
0.00186431
0.0017463
0.0016295
0.00151311
0.00139752
0.00128267
0.00116875
0.0010563
0.000944258
0.000832199
0.000720077
0.000609137
0.000499405
0.000389274
0.000278105
0.000168589
5.17873e-05
0.00571835
0.00504266
0.00456531
0.00439071
0.00427342
0.00414317
0.00401146
0.00388068
0.00374947
0.00361811
0.00348659
0.0033557
0.00322525
0.00309573
0.00296675
0.00283839
0.0027114
0.00258543
0.00246136
0.0023382
0.0022161
0.00209515
0.00197569
0.00185757
0.00174007
0.00162335
0.0015069
0.00139131
0.00127656
0.00116284
0.00105061
0.000938965
0.000827353
0.000715575
0.000605001
0.000495719
0.000385905
0.000275281
0.000165837
5.099e-05
0.00540951
0.00505353
0.00471241
0.00449318
0.00433121
0.0041823
0.00403839
0.00389882
0.00376186
0.00362632
0.00349154
0.00335801
0.00322517
0.00309382
0.00296408
0.0028355
0.00270826
0.00258214
0.00245765
0.00233394
0.00221167
0.00209038
0.00197053
0.00185192
0.00173401
0.00161716
0.00150068
0.00138523
0.00127083
0.00115747
0.00104537
0.000934252
0.000823093
0.00071199
0.00060213
0.000493
0.000383239
0.0002729
0.000164111
5.01196e-05
0.00510384
0.00496635
0.00475973
0.004565
0.00439408
0.0042359
0.00408367
0.00393586
0.00379199
0.00365122
0.00351289
0.00337691
0.00324285
0.00311057
0.00297981
0.00285039
0.00272227
0.00259529
0.00246969
0.00234486
0.00222108
0.00209777
0.00197539
0.00185466
0.00173546
0.00161772
0.00150109
0.00138563
0.00127116
0.00115761
0.00104458
0.000932649
0.000821041
0.000710064
0.000600628
0.000491575
0.000381901
0.000272131
0.000163779
4.97938e-05
0.00495295
0.00488783
0.00475355
0.00458172
0.0044121
0.00425114
0.0040968
0.00394768
0.00380255
0.00366031
0.0035205
0.00338395
0.00324994
0.00311768
0.00298685
0.00285738
0.00272923
0.0026023
0.00247657
0.00235196
0.00222861
0.00210636
0.00198485
0.00186421
0.00174468
0.00162645
0.00150951
0.00139379
0.0012792
0.0011652
0.00105116
0.000937729
0.000825135
0.000713728
0.000603899
0.000494186
0.000383732
0.000273189
0.000164267
4.99376e-05
0.00490803
0.00485335
0.00473533
0.00457534
0.00440993
0.00424911
0.00409414
0.00394495
0.00380078
0.00365996
0.0035215
0.00338578
0.00325217
0.00312014
0.00298953
0.00286023
0.00273223
0.00260546
0.00247987
0.00235545
0.00223221
0.0021101
0.00198915
0.00186925
0.00175002
0.00163133
0.00151348
0.00139711
0.00128227
0.00116841
0.00105522
0.000942854
0.000831159
0.000720155
0.000609824
0.000499258
0.000387862
0.000275999
0.000165892
5.08475e-05
0.00498233
0.00489238
0.0047325
0.00455873
0.00439242
0.00423298
0.00407961
0.00393284
0.00379128
0.00365277
0.0035167
0.00338214
0.00324911
0.00311765
0.00298759
0.00285878
0.00273115
0.0026047
0.00247941
0.00235528
0.00223224
0.00211033
0.00198937
0.00186943
0.00175026
0.00163178
0.001514
0.00139775
0.00128304
0.00116951
0.00105715
0.000945033
0.000832792
0.000721342
0.000611343
0.000501348
0.00039059
0.000279179
0.000168569
5.25217e-05
0.00518122
0.00498582
0.00474778
0.00454452
0.00436981
0.00420956
0.0040587
0.00391494
0.00377614
0.00364028
0.00350616
0.00337306
0.00324101
0.00311008
0.00298046
0.00285208
0.002725
0.00259906
0.00247429
0.00235068
0.00222809
0.0021067
0.00198591
0.00186644
0.00174822
0.00163142
0.00151556
0.00140029
0.00128591
0.00117254
0.00106042
0.000948305
0.000835628
0.000723764
0.00061374
0.000504024
0.000393655
0.000282117
0.000170599
5.37647e-05
0.00544918
0.00506612
0.00471021
0.00448151
0.00431201
0.00415969
0.00401685
0.00388194
0.00375047
0.00361969
0.00348898
0.0033591
0.00323111
0.00310412
0.00297712
0.00284988
0.0027235
0.00259783
0.00247331
0.00235006
0.00222747
0.00210591
0.00198513
0.00186605
0.00174812
0.00163198
0.00151663
0.00140141
0.00128669
0.00117284
0.00106048
0.000948332
0.000835715
0.000723562
0.000612974
0.00050251
0.000391914
0.000280734
0.000169132
5.30939e-05
0.0056978
0.00504006
0.00457042
0.00439683
0.00427335
0.00413504
0.0039996
0.00387049
0.00374271
0.00361492
0.00348638
0.00335878
0.00323348
0.00310876
0.00298303
0.00285637
0.00273024
0.00260481
0.00248057
0.00235749
0.00223479
0.00211259
0.00199116
0.00187154
0.00175344
0.00163646
0.00152021
0.00140452
0.00128944
0.00117531
0.00106276
0.000950541
0.000837968
0.000725657
0.000614722
0.000503717
0.000392815
0.000281906
0.000170527
5.38013e-05
0.00568461
0.00496742
0.00447374
0.00436331
0.00426862
0.00413739
0.00400409
0.00387455
0.00374526
0.00361608
0.00348616
0.00335704
0.0032295
0.0031021
0.00297465
0.00284713
0.00272061
0.00259504
0.00247074
0.00234768
0.00222517
0.00210355
0.00198305
0.00186418
0.00174654
0.00162965
0.00151342
0.00139777
0.00128284
0.00116888
0.00105643
0.000944474
0.000832341
0.000720434
0.000609878
0.000499283
0.00038884
0.000278214
0.000168567
5.16902e-05
0.00569799
0.00504026
0.00456961
0.00439501
0.00427246
0.00413597
0.0040015
0.0038719
0.00374359
0.00361529
0.00348699
0.00335946
0.0032334
0.00310874
0.00298285
0.0028562
0.00273001
0.0026044
0.00248051
0.00235724
0.00223487
0.00211267
0.00199118
0.0018714
0.00175305
0.00163623
0.0015199
0.00140426
0.00128924
0.00117512
0.00106251
0.000950201
0.000837725
0.000725161
0.000613791
0.000503669
0.000393188
0.000281697
0.000170386
5.38227e-05
0.00546529
0.00503393
0.0046803
0.00446457
0.00430386
0.0041558
0.00401625
0.00388298
0.00375216
0.0036222
0.00349252
0.00336372
0.00323522
0.00310774
0.00298066
0.002854
0.00272801
0.00260289
0.00247931
0.00235615
0.00223461
0.00211318
0.00199243
0.00187287
0.00175419
0.00163722
0.00152041
0.00140444
0.0012894
0.0011753
0.00106258
0.000950302
0.000837686
0.000725259
0.000614059
0.000503728
0.000393258
0.000281919
0.000171431
5.43399e-05
0.00521009
0.00495823
0.0047205
0.00451124
0.00433486
0.00417628
0.00402809
0.00388799
0.00375249
0.00361928
0.0034875
0.00335651
0.00322672
0.00309805
0.00297046
0.00284394
0.00271809
0.00259349
0.00246991
0.00234697
0.00222492
0.00210354
0.00198307
0.00186365
0.00174514
0.00162792
0.00151175
0.00139638
0.00128208
0.00116871
0.00105564
0.000943189
0.000830855
0.000719466
0.000609576
0.000499458
0.000388499
0.000277475
0.000168019
5.27859e-05
0.00502894
0.00486154
0.00469103
0.00451034
0.00434357
0.00419064
0.00404499
0.00390409
0.0037665
0.00363141
0.00349844
0.00336645
0.00323588
0.00310644
0.002978
0.00285068
0.0027243
0.00259908
0.0024747
0.00235151
0.00222895
0.00210712
0.00198608
0.00186644
0.00174811
0.00163039
0.00151389
0.00139828
0.00128356
0.00116951
0.00105563
0.000942166
0.000829571
0.000718223
0.000608021
0.000497634
0.000386886
0.000276438
0.000167169
5.32652e-05
0.0048234
0.00470095
0.00460639
0.00447143
0.00432507
0.00418397
0.00404503
0.0039068
0.00377005
0.00363536
0.00350237
0.00337074
0.00324014
0.00311055
0.00298211
0.00285478
0.00272848
0.00260324
0.00247894
0.00235569
0.00223316
0.0021113
0.00199043
0.00187069
0.00175192
0.00163397
0.00151731
0.00140196
0.00128738
0.00117307
0.00105902
0.000945423
0.00083294
0.000721306
0.000609985
0.000498487
0.000386749
0.000275532
0.000165879
5.34861e-05
0.00483774
0.00469838
0.00460366
0.00447518
0.00433188
0.00419158
0.00405269
0.00391392
0.00377618
0.00364069
0.00350722
0.00337504
0.00324396
0.00311402
0.00298527
0.00285764
0.00273106
0.00260555
0.0024811
0.00235764
0.00223503
0.0021132
0.00199241
0.00187265