/*--------------------------------*- C++ -*----------------------------------*\
| =========                 |                                                 |
| \\      /  F ield         | OpenFOAM: The Open Source CFD Toolbox           |
|  \\    /   O peration     | Version:  2212                                  |
|   \\  /    A nd           | Website:  www.openfoam.com                      |
|    \\/     M anipulation  |                                                 |
\*---------------------------------------------------------------------------*/
FoamFile
{
    version     2.0;
    format      ascii;
    arch        "LSB;label=32;scalar=64";
    class       surfaceScalarField;
    location    "2.45";
    object      phi;
}
// * * * * * * * * * * * * * * * * * * * * * * * * * * * * * * * * * * * * * //

dimensions      [0 3 -1 0 0 0 0];

oriented        oriented;

internalField   nonuniform List<scalar> 
19019
(
3.3225e-07
1.09687e-09
1.09678e-09
2.79191e-07
2.65296e-08
2.65293e-08
2.49218e-07
1.49865e-08
1.4986e-08
2.29255e-07
9.98204e-09
9.98131e-09
2.14836e-07
7.21007e-09
7.20879e-09
2.03201e-07
5.8184e-09
5.81641e-09
1.93774e-07
4.71523e-09
4.71159e-09
1.86008e-07
3.88624e-09
3.87988e-09
1.79362e-07
3.3285e-09
3.31769e-09
1.73537e-07
2.92173e-09
2.90361e-09
1.6837e-07
2.59842e-09
2.56892e-09
1.63757e-07
2.33057e-09
2.28221e-09
1.59616e-07
2.1122e-09
2.02875e-09
1.55875e-07
1.93968e-09
1.80086e-09
1.52553e-07
1.77535e-09
1.5468e-09
1.49717e-07
1.60696e-09
1.22981e-09
1.47503e-07
1.41926e-09
7.94365e-10
1.472e-07
6.76723e-10
-3.73859e-10
1.51115e-07
-9.38325e-10
-2.97683e-09
-1.68538e-08
-2.63702e-08
6.3138e-07
3.58755e-09
7.40288e-09
6.14564e-07
2.26455e-08
2.07002e-08
5.86446e-07
2.43753e-08
1.8729e-08
5.61728e-07
1.88534e-08
1.58465e-08
5.39623e-07
1.55667e-08
1.37486e-08
5.20646e-07
1.35054e-08
1.12899e-08
5.04707e-07
1.19438e-08
8.71068e-09
4.90965e-07
1.07861e-08
6.84185e-09
4.78763e-07
9.92435e-09
5.6063e-09
4.67713e-07
9.20038e-09
4.7718e-09
4.57589e-07
8.5528e-09
4.16998e-09
4.48262e-07
7.95139e-09
3.70605e-09
4.39645e-07
7.37303e-09
3.35577e-09
4.31681e-07
6.80608e-09
3.09776e-09
4.24426e-07
6.19093e-09
2.83925e-09
4.18054e-07
5.44905e-09
2.53058e-09
4.13173e-07
4.32898e-09
1.97094e-09
4.11846e-07
1.71307e-09
2.91039e-10
4.18796e-07
-3.51673e-09
-4.37154e-09
-1.84314e-08
-2.12604e-08
8.90375e-07
2.85249e-09
6.33236e-09
8.82487e-07
1.34079e-08
1.71258e-08
8.7036e-07
1.78657e-08
1.86358e-08
8.55115e-07
1.69522e-08
1.71468e-08
8.39987e-07
1.53347e-08
1.536e-08
8.25542e-07
1.41604e-08
1.379e-08
8.1178e-07
1.33627e-08
1.23431e-08
7.98797e-07
1.26467e-08
1.11228e-08
7.86742e-07
1.18391e-08
1.01402e-08
7.75629e-07
1.09625e-08
9.3503e-09
7.65326e-07
1.01031e-08
8.75277e-09
7.55693e-07
9.26819e-09
8.31671e-09
7.46623e-07
8.44618e-09
7.99702e-09
7.38096e-07
7.59694e-09
7.73648e-09
7.30159e-07
6.62895e-09
7.49919e-09
7.23064e-07
5.35581e-09
7.18783e-09
7.17246e-07
3.51926e-09
6.62787e-09
7.12956e-07
5.84597e-10
5.41805e-09
7.10701e-07
-4.52837e-09
3.26666e-09
-1.31325e-08
-1.38919e-09
1.07432e-06
1.06464e-09
5.56891e-09
1.06824e-06
5.58589e-09
1.39003e-08
1.06138e-06
8.46271e-09
1.62618e-08
1.05338e-06
9.0376e-09
1.59089e-08
1.0451e-06
8.61394e-09
1.50026e-08
1.03721e-06
8.11367e-09
1.39346e-08
1.02982e-06
7.77469e-09
1.29797e-08
1.02282e-06
7.53416e-09
1.21196e-08
1.01597e-06
7.33522e-09
1.13535e-08
1.00919e-06
7.02682e-09
1.0708e-08
1.00252e-06
6.54835e-09
1.02241e-08
9.95926e-07
5.98543e-09
9.88171e-09
9.89332e-07
5.38502e-09
9.6554e-09
9.82653e-07
4.7326e-09
9.54307e-09
9.75768e-07
3.98394e-09
9.5305e-09
9.68559e-07
2.95721e-09
9.60753e-09
9.60847e-07
1.45731e-09
9.77366e-09
9.52123e-07
-7.65221e-10
1.00741e-08
9.41506e-07
-4.48077e-09
1.05691e-08
-9.35163e-09
1.19397e-08
1.16914e-06
-7.78422e-14
4.90657e-09
1.16312e-06
-3.56617e-13
1.16085e-08
1.15731e-06
-7.45192e-13
1.42757e-08
1.15201e-06
-1.24066e-12
1.43344e-08
1.1469e-06
-2.01279e-12
1.37325e-08
1.14204e-06
-3.2919e-12
1.29735e-08
1.13771e-06
-5.40112e-12
1.21076e-08
1.13394e-06
-8.81311e-12
1.13198e-08
1.13062e-06
-1.44184e-11
1.06706e-08
1.12744e-06
-2.36545e-11
1.02259e-08
1.12407e-06
-3.8955e-11
9.9556e-09
1.12033e-06
-6.43677e-11
9.79165e-09
1.11607e-06
-1.07115e-10
9.75566e-09
1.11109e-06
-1.80689e-10
9.89423e-09
1.10514e-06
-3.04546e-10
1.02363e-08
1.09775e-06
-5.26387e-10
1.08683e-08
1.08816e-06
-9.10029e-10
1.19585e-08
1.07533e-06
-1.6141e-09
1.36763e-08
1.05802e-06
-2.90363e-09
1.57415e-08
-5.52244e-09
2.0726e-08
1.16914e-06
-1.0648e-09
4.90659e-09
1.16312e-06
-5.58646e-09
1.16086e-08
1.15731e-06
-8.46379e-09
1.42758e-08
1.15201e-06
-9.03937e-09
1.43346e-08
1.14689e-06
-8.61691e-09
1.37331e-08
1.14203e-06
-8.11859e-09
1.29745e-08
1.1377e-06
-7.78274e-09
1.21091e-08
1.13392e-06
-7.54723e-09
1.13223e-08
1.13059e-06
-7.35652e-09
1.06749e-08
1.12739e-06
-7.06114e-09
1.02329e-08
1.12399e-06
-6.60367e-09
9.96673e-09
1.12019e-06
-6.07511e-09
9.81076e-09
1.11582e-06
-5.53264e-09
9.79148e-09
1.11066e-06
-4.97823e-09
9.96234e-09
1.10438e-06
-4.38758e-09
1.03624e-08
1.0964e-06
-3.6612e-09
1.11095e-08
1.08571e-06
-2.64482e-09
1.24332e-08
1.07072e-06
-1.24581e-09
1.46157e-08
1.04911e-06
9.86126e-10
1.77234e-08
3.30755e-09
2.64584e-08
1.07432e-06
-2.8525e-09
5.56893e-09
1.06824e-06
-1.3408e-08
1.39004e-08
1.06138e-06
-1.78659e-08
1.62621e-08
1.05338e-06
-1.69526e-08
1.59096e-08
1.04509e-06
-1.53354e-08
1.50038e-08
1.0372e-06
-1.41615e-08
1.39364e-08
1.0298e-06
-1.33646e-08
1.29825e-08
1.02278e-06
-1.26493e-08
1.21241e-08
1.0159e-06
-1.18429e-08
1.13607e-08
1.00909e-06
-1.09678e-08
1.07202e-08
1.00235e-06
-1.01107e-08
1.02449e-08
9.95639e-07
-9.27963e-09
9.91833e-09
9.8885e-07
-8.46414e-09
9.72118e-09
9.81836e-07
-7.62556e-09
9.66146e-09
9.74371e-07
-6.6722e-09
9.75003e-09
9.66135e-07
-5.4532e-09
1.00273e-08
9.56585e-07
-3.6703e-09
1.05759e-08
9.4466e-07
-8.75368e-10
1.15552e-08
9.28636e-07
3.87466e-09
1.31358e-08
1.16114e-08
1.66381e-08
8.90375e-07
-3.58749e-09
6.3324e-09
8.82486e-07
-2.26453e-08
1.7126e-08
8.70359e-07
-2.4375e-08
1.86361e-08
8.55112e-07
-1.88528e-08
1.71474e-08
8.39981e-07
-1.55657e-08
1.5361e-08
8.25532e-07
-1.35036e-08
1.37914e-08
8.11762e-07
-1.19406e-08
1.23454e-08
7.98767e-07
-1.07806e-08
1.11267e-08
7.86693e-07
-9.91512e-09
1.01465e-08
7.75549e-07
-9.18483e-09
9.36085e-09
7.65194e-07
-8.5269e-09
8.77083e-09
7.55476e-07
-7.90964e-09
8.34853e-09
7.46265e-07
-7.3053e-09
8.05267e-09
7.37499e-07
-6.69684e-09
7.83665e-09
7.29156e-07
-6.01374e-09
7.68496e-09
7.2133e-07
-5.17686e-09
7.54963e-09
7.14237e-07
-3.91425e-09
7.33747e-09
7.07694e-07
-1.17299e-09
6.84113e-09
7.01056e-07
4.46642e-09
6.04663e-09
2.38695e-08
2.52668e-09
6.3138e-07
-1.0968e-09
7.40291e-09
6.14564e-07
-2.65294e-08
2.07004e-08
5.86446e-07
-1.49861e-08
1.87292e-08
5.61727e-07
-9.98137e-09
1.5847e-08
5.39621e-07
-7.20886e-09
1.37494e-08
5.20643e-07
-5.81648e-09
1.12912e-08
5.04701e-07
-4.71166e-09
8.71291e-09
4.90955e-07
-3.87996e-09
6.84534e-09
4.78746e-07
-3.31778e-09
5.61198e-09
4.67683e-07
-2.90371e-09
4.78125e-09
4.57539e-07
-2.56903e-09
4.18695e-09
4.48177e-07
-2.28231e-09
3.73389e-09
4.39508e-07
-2.02897e-09
3.39307e-09
4.31453e-07
-1.80095e-09
3.15949e-09
4.24039e-07
-1.54662e-09
2.94663e-09
4.17366e-07
-1.22981e-09
2.72625e-09
4.11902e-07
-7.94485e-10
2.34429e-09
4.09408e-07
3.73786e-10
9.47814e-10
4.14285e-07
2.97677e-09
-3.38703e-09
2.63709e-08
-2.31994e-08
3.3225e-07
1.09685e-09
2.79191e-07
2.65296e-08
2.49218e-07
1.49864e-08
2.29255e-07
9.98199e-09
2.14836e-07
7.21002e-09
2.03201e-07
5.81835e-09
1.93774e-07
4.71519e-09
1.86008e-07
3.88621e-09
1.79362e-07
3.32848e-09
1.73537e-07
2.92171e-09
1.68369e-07
2.5984e-09
1.63756e-07
2.33056e-09
1.59615e-07
2.11231e-09
1.55874e-07
1.93995e-09
1.52552e-07
1.77575e-09
1.49715e-07
1.60759e-09
1.475e-07
1.41995e-09
1.47196e-07
6.77611e-10
1.51111e-07
-9.37406e-10
-1.68518e-08
6.3138e-07
7.40291e-09
3.58747e-09
6.14564e-07
2.07004e-08
2.26452e-08
5.86446e-07
1.87292e-08
2.43749e-08
5.61727e-07
1.58469e-08
1.88528e-08
5.39621e-07
1.37493e-08
1.55656e-08
5.20643e-07
1.12912e-08
1.35036e-08
5.04701e-07
8.71285e-09
1.19405e-08
4.90955e-07
6.84526e-09
1.07805e-08
4.78746e-07
5.61188e-09
9.91496e-09
4.67684e-07
4.78112e-09
9.18463e-09
4.5754e-07
4.1868e-09
8.52666e-09
4.48179e-07
3.73368e-09
7.90935e-09
4.3951e-07
3.39243e-09
7.30503e-09
4.31456e-07
3.15886e-09
6.69632e-09
4.24044e-07
2.9464e-09
6.01296e-09
4.17372e-07
2.7256e-09
5.17586e-09
4.1191e-07
2.34333e-09
3.91294e-09
4.09418e-07
9.46618e-10
1.17142e-09
4.14298e-07
-3.38841e-09
-4.4682e-09
-2.32018e-08
-2.38703e-08
9.23617e-07
7.03381e-09
7.03374e-09
9.25318e-07
1.98495e-08
1.98493e-08
9.17185e-07
2.27959e-08
2.27956e-08
9.04277e-07
2.23009e-08
2.23003e-08
8.90538e-07
2.06193e-08
2.06182e-08
8.77416e-07
1.78523e-08
1.78502e-08
8.65452e-07
1.46954e-08
1.4692e-08
8.54784e-07
1.21804e-08
1.21749e-08
8.45361e-07
1.03253e-08
1.03159e-08
8.37044e-07
8.94298e-09
8.92723e-09
8.29654e-07
7.88611e-09
7.86025e-09
8.23016e-07
7.05944e-09
7.01832e-09
8.1705e-07
6.38941e-09
6.32538e-09
8.11807e-07
5.80038e-09
5.69943e-09
8.07371e-07
5.18898e-09
5.03261e-09
8.03909e-07
4.47587e-09
4.24205e-09
8.01621e-07
3.46515e-09
3.13769e-09
7.99866e-07
1.69962e-09
1.29231e-09
7.95483e-07
-1.50784e-09
-1.86884e-09
-7.28342e-09
-7.12365e-09
1.1589e-06
5.28119e-09
6.10244e-09
1.1657e-06
1.3998e-08
1.61823e-08
1.16845e-06
1.79766e-08
2.07053e-08
1.16662e-06
1.91767e-08
2.21027e-08
1.16222e-06
1.88727e-08
2.15034e-08
1.15655e-06
1.75397e-08
1.97675e-08
1.1505e-06
1.56749e-08
1.74216e-08
1.14461e-06
1.38674e-08
1.53237e-08
1.1392e-06
1.2252e-08
1.36208e-08
1.13441e-06
1.08313e-08
1.22555e-08
1.13024e-06
9.63807e-09
1.11693e-08
1.12667e-06
8.63525e-09
1.03086e-08
1.12369e-06
7.75087e-09
9.61251e-09
1.12132e-06
6.90112e-09
9.00569e-09
1.11959e-06
5.98805e-09
8.43442e-09
1.11853e-06
4.91783e-09
7.80782e-09
1.11812e-06
3.51365e-09
6.98772e-09
1.11785e-06
1.56831e-09
5.81428e-09
1.11663e-06
-1.15835e-09
4.1441e-09
-4.80635e-09
2.38992e-09
1.32763e-06
2.71801e-09
4.93104e-09
1.33539e-06
7.12015e-09
1.30088e-08
1.34287e-06
9.5521e-09
1.72155e-08
1.34848e-06
1.05757e-08
1.88993e-08
1.35198e-06
1.08714e-08
1.95022e-08
1.35376e-06
1.05741e-08
1.91176e-08
1.35443e-06
9.88112e-09
1.81054e-08
1.35457e-06
9.02826e-09
1.68198e-08
1.35453e-06
8.16452e-09
1.54786e-08
1.35446e-06
7.3456e-09
1.42588e-08
1.35444e-06
6.59373e-09
1.32916e-08
1.35451e-06
5.90354e-09
1.2547e-08
1.35468e-06
5.24954e-09
1.19865e-08
1.35495e-06
4.59034e-09
1.15789e-08
1.35533e-06
3.84424e-09
1.12979e-08
1.35577e-06
2.95523e-09
1.11307e-08
1.35616e-06
1.81268e-09
1.10803e-08
1.35631e-06
3.25131e-10
1.11749e-08
1.35585e-06
-1.61618e-09
1.14844e-08
-3.71585e-09
1.23816e-08
1.41518e-06
-1.30315e-13
4.19287e-09
1.42279e-06
-3.71165e-13
1.1116e-08
1.43152e-06
-6.31426e-13
1.50988e-08
1.4398e-06
-1.05815e-12
1.66302e-08
1.44713e-06
-1.77461e-12
1.7278e-08
1.45316e-06
-2.86787e-12
1.75152e-08
1.45799e-06
-4.50807e-12
1.71622e-08
1.4619e-06
-7.12542e-12
1.64525e-08
1.46517e-06
-1.14396e-11
1.55768e-08
1.46804e-06
-1.87481e-11
1.47157e-08
1.47068e-06
-3.05339e-11
1.3936e-08
1.47313e-06
-4.95138e-11
1.32965e-08
1.47532e-06
-7.84152e-11
1.28924e-08
1.47721e-06
-1.24172e-10
1.27279e-08
1.47873e-06
-1.9743e-10
1.27514e-08
1.47982e-06
-3.10627e-10
1.30473e-08
1.48035e-06
-4.77144e-10
1.3718e-08
1.4802e-06
-7.07662e-10
1.48534e-08
1.47893e-06
-9.95271e-10
1.63945e-08
-1.12962e-09
1.83608e-08
1.41518e-06
-2.71817e-09
4.19293e-09
1.42279e-06
-7.12061e-09
1.11161e-08
1.43152e-06
-9.55292e-09
1.5099e-08
1.4398e-06
-1.05771e-08
1.66306e-08
1.44712e-06
-1.08737e-08
1.72789e-08
1.45316e-06
-1.05778e-08
1.75166e-08
1.45798e-06
-9.88687e-09
1.71644e-08
1.46188e-06
-9.03731e-09
1.6456e-08
1.46514e-06
-8.17895e-09
1.55822e-08
1.468e-06
-7.36975e-09
1.47248e-08
1.47062e-06
-6.63333e-09
1.39508e-08
1.47302e-06
-5.96714e-09
1.3322e-08
1.47515e-06
-5.34759e-09
1.29362e-08
1.47693e-06
-4.74507e-09
1.28008e-08
1.47832e-06
-4.09989e-09
1.28736e-08
1.47923e-06
-3.36905e-09
1.32564e-08
1.47959e-06
-2.47181e-09
1.40745e-08
1.4794e-06
-1.34584e-09
1.54443e-08
1.47874e-06
6.06415e-11
1.73247e-08
1.73134e-09
1.93033e-08
1.32762e-06
-5.28117e-09
4.93115e-09
1.33539e-06
-1.3998e-08
1.3009e-08
1.34286e-06
-1.79766e-08
1.7216e-08
1.34847e-06
-1.91768e-08
1.89004e-08
1.35197e-06
-1.88728e-08
1.95041e-08
1.35375e-06
-1.75396e-08
1.91205e-08
1.35441e-06
-1.56748e-08
1.811e-08
1.35454e-06
-1.38673e-08
1.6827e-08
1.35448e-06
-1.22514e-08
1.54899e-08
1.35438e-06
-1.08298e-08
1.42774e-08
1.35431e-06
-9.63499e-09
1.33233e-08
1.35429e-06
-8.6293e-09
1.26e-08
1.35432e-06
-7.73815e-09
1.20741e-08
1.3544e-06
-6.88103e-09
1.17248e-08
1.35447e-06
-5.96189e-09
1.15427e-08
1.35447e-06
-4.88078e-09
1.15402e-08
1.35427e-06
-3.46371e-09
1.17592e-08
1.35371e-06
-1.47866e-09
1.22497e-08
1.35241e-06
1.49061e-09
1.30044e-08
6.05367e-09
1.3659e-08
1.1589e-06
-7.03375e-09
6.10256e-09
1.1657e-06
-1.98493e-08
1.61826e-08
1.16845e-06
-2.27956e-08
2.07059e-08
1.16661e-06
-2.23003e-08
2.21038e-08
1.16221e-06
-2.06182e-08
2.15051e-08
1.15655e-06
-1.78502e-08
1.97701e-08
1.15048e-06
-1.46921e-08
1.74257e-08
1.14459e-06
-1.2175e-08
1.53305e-08
1.13917e-06
-1.0316e-08
1.36322e-08
1.13435e-06
-8.92733e-09
1.22743e-08
1.13015e-06
-7.8604e-09
1.11999e-08
1.12653e-06
-7.01858e-09
1.03585e-08
1.12347e-06
-6.32622e-09
9.69359e-09
1.12099e-06
-5.69953e-09
9.13708e-09
1.1191e-06
-5.03195e-09
8.64493e-09
1.11787e-06
-4.2425e-09
8.14424e-09
1.11736e-06
-3.1388e-09
7.51805e-09
1.11743e-06
-1.29371e-09
6.58713e-09
1.11809e-06
1.8677e-09
5.01011e-09
7.12085e-09
2.48274e-09
9.23617e-07
-7.40287e-09
7.03382e-09
9.25318e-07
-2.07002e-08
1.98495e-08
9.17185e-07
-1.87289e-08
2.2796e-08
9.04277e-07
-1.58465e-08
2.2301e-08
8.90538e-07
-1.37486e-08
2.06194e-08
8.77416e-07
-1.12898e-08
1.78524e-08
8.65452e-07
-8.71065e-09
1.46955e-08
8.54784e-07
-6.84182e-09
1.21806e-08
8.4536e-07
-5.60626e-09
1.03255e-08
8.37043e-07
-4.77176e-09
8.9433e-09
8.29653e-07
-4.1699e-09
7.8865e-09
8.23014e-07
-3.70595e-09
7.05989e-09
8.17047e-07
-3.35593e-09
6.39037e-09
8.11803e-07
-3.09787e-09
5.80141e-09
8.07367e-07
-2.83894e-09
5.18984e-09
8.03904e-07
-2.53058e-09
4.47723e-09
8.01614e-07
-1.97101e-09
3.46662e-09
7.99858e-07
-2.91117e-10
1.70119e-09
7.95474e-07
4.37172e-09
-1.50645e-09
2.126e-08
-7.27916e-09
6.3138e-07
3.58754e-09
6.14564e-07
2.26455e-08
5.86446e-07
2.43753e-08
5.61728e-07
1.88534e-08
5.39623e-07
1.55668e-08
5.20646e-07
1.35055e-08
5.04707e-07
1.19439e-08
4.90965e-07
1.07862e-08
4.78763e-07
9.92453e-09
4.67712e-07
9.20063e-09
4.57587e-07
8.55312e-09
4.4826e-07
7.95177e-09
4.39643e-07
7.37337e-09
4.31678e-07
6.80725e-09
4.24422e-07
6.19296e-09
4.18048e-07
5.45118e-09
4.13166e-07
4.33134e-09
4.11836e-07
1.71579e-09
4.18784e-07
-3.51292e-09
-1.8427e-08
8.90375e-07
6.33239e-09
2.85249e-09
8.82486e-07
1.71259e-08
1.34079e-08
8.70359e-07
1.86361e-08
1.78658e-08
8.55112e-07
1.71474e-08
1.69525e-08
8.39981e-07
1.53609e-08
1.53353e-08
8.25532e-07
1.37914e-08
1.41614e-08
8.11763e-07
1.23453e-08
1.33644e-08
7.98768e-07
1.11266e-08
1.26491e-08
7.86694e-07
1.01464e-08
1.18426e-08
7.7555e-07
9.36066e-09
1.09676e-08
7.65196e-07
8.77057e-09
1.01104e-08
7.55478e-07
8.3481e-09
9.2792e-09
7.46267e-07
8.05202e-09
8.46362e-09
7.37503e-07
7.83597e-09
7.62466e-09
7.29161e-07
7.68397e-09
6.67087e-09
7.21338e-07
7.54797e-09
5.45154e-09
7.14248e-07
7.33499e-09
3.66826e-09
7.07709e-07
6.83758e-09
8.72943e-10
7.01077e-07
6.04174e-09
-3.87836e-09
2.51859e-09
-1.16141e-08
1.1589e-06
6.10255e-09
5.28116e-09
1.1657e-06
1.61826e-08
1.3998e-08
1.16845e-06
2.07059e-08
1.79766e-08
1.16661e-06
2.21037e-08
1.91767e-08
1.16221e-06
2.1505e-08
1.88728e-08
1.15655e-06
1.97699e-08
1.75396e-08
1.15048e-06
1.74255e-08
1.56747e-08
1.14459e-06
1.53303e-08
1.38672e-08
1.13917e-06
1.36319e-08
1.22512e-08
1.13435e-06
1.22739e-08
1.08295e-08
1.13015e-06
1.11994e-08
9.63465e-09
1.12653e-06
1.03577e-08
8.62874e-09
1.12348e-06
9.69236e-09
7.7372e-09
1.12099e-06
9.13625e-09
6.88063e-09
1.11911e-06
8.64422e-09
5.9617e-09
1.11787e-06
8.14259e-09
4.87959e-09
1.11737e-06
7.51563e-09
3.46156e-09
1.11744e-06
6.58435e-09
1.47574e-09
1.1181e-06
5.00731e-09
-1.49455e-09
2.47788e-09
-6.05976e-09
1.37712e-06
4.57711e-09
4.57703e-09
1.38565e-06
1.19164e-08
1.19162e-08
1.39417e-06
1.64455e-08
1.64452e-08
1.40126e-06
1.85579e-08
1.85574e-08
1.40642e-06
1.89264e-08
1.89256e-08
1.40953e-06
1.82166e-08
1.82152e-08
1.41096e-06
1.6707e-08
1.67047e-08
1.41156e-06
1.50286e-08
1.50248e-08
1.41187e-06
1.34765e-08
1.34703e-08
1.41215e-06
1.21265e-08
1.21165e-08
1.4126e-06
1.09678e-08
1.09516e-08
1.41334e-06
9.9803e-09
9.95427e-09
1.41443e-06
9.12744e-09
9.08562e-09
1.41592e-06
8.36001e-09
8.2943e-09
1.41782e-06
7.6354e-09
7.53631e-09
1.42013e-06
6.89176e-09
6.74632e-09
1.42273e-06
6.05741e-09
5.85309e-09
1.42524e-06
5.07165e-09
4.81179e-09
1.42682e-06
3.92731e-09
3.65141e-09
2.94425e-09
2.77883e-09
1.53312e-06
2.36577e-09
3.64917e-09
1.54218e-06
6.23811e-09
9.63344e-09
1.55328e-06
8.87209e-09
1.3691e-08
1.56445e-06
1.03451e-08
1.59357e-08
1.57507e-06
1.08966e-08
1.69105e-08
1.58471e-06
1.07501e-08
1.69441e-08
1.59301e-06
1.01366e-08
1.63756e-08
1.6001e-06
9.32066e-09
1.54458e-08
1.60626e-06
8.44338e-09
1.43451e-08
1.61178e-06
7.61321e-09
1.32532e-08
1.6169e-06
6.87288e-09
1.22672e-08
1.62179e-06
6.22026e-09
1.14138e-08
1.62658e-06
5.62927e-09
1.06938e-08
1.63137e-06
5.06356e-09
1.00928e-08
1.63621e-06
4.49543e-09
9.59327e-09
1.64117e-06
3.89237e-09
9.17721e-09
1.64625e-06
3.21639e-09
8.83478e-09
1.6515e-06
2.43374e-09
8.56715e-09
1.65699e-06
1.53504e-09
8.38852e-09
6.56179e-10
8.46736e-09
1.61424e-06
-9.90675e-14
3.09282e-09
1.62332e-06
-2.49372e-13
8.27395e-09
1.63533e-06
-4.21809e-13
1.1957e-08
1.64819e-06
-6.86035e-13
1.41145e-08
1.66117e-06
-1.10115e-12
1.52006e-08
1.67385e-06
-1.69366e-12
1.55841e-08
1.68572e-06
-2.60827e-12
1.54325e-08
1.69653e-06
-3.9831e-12
1.49636e-08
1.70627e-06
-6.18004e-12
1.42947e-08
1.71508e-06
-9.6546e-12
1.35297e-08
1.72314e-06
-1.49797e-11
1.27609e-08
1.73062e-06
-2.29879e-11
1.20608e-08
1.73769e-06
-3.46145e-11
1.14841e-08
1.74447e-06
-5.14612e-11
1.10639e-08
1.75097e-06
-7.72928e-11
1.08212e-08
1.75725e-06
-1.11098e-10
1.0768e-08
1.76342e-06
-1.51066e-10
1.09219e-08
1.7696e-06
-1.85339e-10
1.12941e-08
1.77588e-06
-1.83278e-10
1.18297e-08
-7.14123e-11
1.24426e-08
1.61424e-06
-2.36587e-09
3.09288e-09
1.62332e-06
-6.23838e-09
8.27411e-09
1.63533e-06
-8.87255e-09
1.19573e-08
1.64819e-06
-1.03458e-08
1.4115e-08
1.66117e-06
-1.08977e-08
1.52014e-08
1.67385e-06
-1.07517e-08
1.55854e-08
1.68571e-06
-1.0139e-08
1.54343e-08
1.69652e-06
-9.32443e-09
1.49664e-08
1.70625e-06
-8.44918e-09
1.42992e-08
1.71505e-06
-7.6225e-09
1.35368e-08
1.7231e-06
-6.88772e-09
1.27723e-08
1.73057e-06
-6.24356e-09
1.20791e-08
1.73762e-06
-5.6647e-09
1.15132e-08
1.74438e-06
-5.11717e-09
1.11096e-08
1.75086e-06
-4.58033e-09
1.08922e-08
1.75716e-06
-4.02451e-09
1.0875e-08
1.76342e-06
-3.41845e-09
1.10766e-08
1.76991e-06
-2.73242e-09
1.14999e-08
1.77695e-06
-1.95734e-09
1.20601e-08
-1.13805e-09
1.25719e-08
1.53312e-06
-4.57704e-09
3.64929e-09
1.54218e-06
-1.19162e-08
9.63375e-09
1.55327e-06
-1.64452e-08
1.36916e-08
1.56445e-06
-1.85574e-08
1.59366e-08
1.57507e-06
-1.89256e-08
1.6912e-08
1.58471e-06
-1.82153e-08
1.69465e-08
1.593e-06
-1.67048e-08
1.63792e-08
1.60008e-06
-1.50249e-08
1.54516e-08
1.60624e-06
-1.34705e-08
1.43543e-08
1.61174e-06
-1.21167e-08
1.32677e-08
1.61684e-06
-1.09518e-08
1.22904e-08
1.6217e-06
-9.95463e-09
1.14508e-08
1.62644e-06
-9.08614e-09
1.07536e-08
1.63115e-06
-8.29485e-09
1.01882e-08
1.63591e-06
-7.537e-09
9.74106e-09
1.64077e-06
-6.74744e-09
9.40239e-09
1.6458e-06
-5.85473e-09
9.16677e-09
1.65111e-06
-4.81409e-09
9.0207e-09
1.65691e-06
-3.65477e-09
8.90936e-09
-2.78507e-09
8.72612e-09
1.37712e-06
-6.10245e-09
4.57712e-09
1.38565e-06
-1.61823e-08
1.19164e-08
1.39417e-06
-2.07053e-08
1.64456e-08
1.40126e-06
-2.21027e-08
1.85581e-08
1.40642e-06
-2.15034e-08
1.89266e-08
1.40953e-06
-1.97676e-08
1.82168e-08
1.41096e-06
-1.74216e-08
1.67073e-08
1.41156e-06
-1.53237e-08
1.5029e-08
1.41187e-06
-1.36209e-08
1.3477e-08
1.41215e-06
-1.22556e-08
1.21271e-08
1.4126e-06
-1.11694e-08
1.09686e-08
1.41333e-06
-1.03087e-08
9.98133e-09
1.41442e-06
-9.61264e-09
9.12876e-09
1.41591e-06
-9.00606e-09
8.36148e-09
1.41782e-06
-8.43507e-09
7.63701e-09
1.42013e-06
-7.80854e-09
6.89371e-09
1.42272e-06
-6.98854e-09
6.05965e-09
1.42524e-06
-5.81532e-09
5.07397e-09
1.42681e-06
-4.14547e-09
3.92966e-09
-2.39434e-09
2.94786e-09
1.1589e-06
-6.33236e-09
5.28119e-09
1.1657e-06
-1.71258e-08
1.39981e-08
1.16845e-06
-1.86358e-08
1.79767e-08
1.16661e-06
-1.71468e-08
1.91768e-08
1.16222e-06
-1.536e-08
1.88729e-08
1.15655e-06
-1.379e-08
1.75399e-08
1.15049e-06
-1.23431e-08
1.56751e-08
1.14461e-06
-1.11227e-08
1.38678e-08
1.1392e-06
-1.01402e-08
1.22525e-08
1.13441e-06
-9.35031e-09
1.08319e-08
1.13024e-06
-8.75277e-09
9.63881e-09
1.12667e-06
-8.31663e-09
8.6361e-09
1.12369e-06
-7.99677e-09
7.7519e-09
1.12132e-06
-7.73664e-09
6.90277e-09
1.11958e-06
-7.49995e-09
5.99023e-09
1.11852e-06
-7.18847e-09
4.92015e-09
1.11811e-06
-6.62829e-09
3.51611e-09
1.11785e-06
-5.41834e-09
1.57086e-09
1.11662e-06
-3.26681e-09
-1.15556e-09
1.38767e-09
-4.80086e-09
8.90375e-07
2.85249e-09
8.82487e-07
1.34079e-08
8.7036e-07
1.78657e-08
8.55115e-07
1.69523e-08
8.39987e-07
1.53348e-08
8.25542e-07
1.41605e-08
8.1178e-07
1.3363e-08
7.98796e-07
1.26471e-08
7.86741e-07
1.18396e-08
7.75628e-07
1.09631e-08
7.65325e-07
1.01038e-08
7.55691e-07
9.26913e-09
7.4662e-07
8.44734e-09
7.38092e-07
7.59861e-09
7.30154e-07
6.63132e-09
7.23058e-07
5.35893e-09
7.17237e-07
3.52314e-09
7.12946e-07
5.88609e-10
7.10689e-07
-4.5222e-09
-1.31255e-08
1.07432e-06
5.56892e-09
1.06478e-09
1.06824e-06
1.39003e-08
5.5864e-09
1.06138e-06
1.62621e-08
8.46369e-09
1.05338e-06
1.59096e-08
9.03926e-09
1.0451e-06
1.50038e-08
8.61678e-09
1.0372e-06
1.39363e-08
8.11843e-09
1.0298e-06
1.29824e-08
7.78254e-09
1.02278e-06
1.2124e-08
7.54699e-09
1.01591e-06
1.13606e-08
7.35623e-09
1.00909e-06
1.072e-08
7.06079e-09
1.00235e-06
1.02446e-08
6.60325e-09
9.95641e-07
9.91787e-09
6.0746e-09
9.88853e-07
9.72047e-09
5.53197e-09
9.8184e-07
9.66051e-09
4.97714e-09
9.74376e-07
9.74867e-09
4.38604e-09
9.66143e-07
1.00252e-08
3.65928e-09
9.56596e-07
1.05727e-08
2.64256e-09
9.44676e-07
1.15501e-08
1.24303e-09
9.2866e-07
1.31279e-08
-9.89771e-10
1.66286e-08
-3.30973e-09
1.32762e-06
4.93114e-09
2.71815e-09
1.33539e-06
1.3009e-08
7.12057e-09
1.34286e-06
1.7216e-08
9.55287e-09
1.34847e-06
1.89003e-08
1.05771e-08
1.35197e-06
1.9504e-08
1.08737e-08
1.35375e-06
1.91203e-08
1.05777e-08
1.35441e-06
1.81097e-08
9.88673e-09
1.35454e-06
1.68267e-08
9.03712e-09
1.35448e-06
1.54896e-08
8.1787e-09
1.35438e-06
1.42769e-08
7.36942e-09
1.35431e-06
1.33226e-08
6.63286e-09
1.35429e-06
1.2599e-08
5.96648e-09
1.35433e-06
1.20728e-08
5.34667e-09
1.3544e-06
1.17237e-08
4.74425e-09
1.35447e-06
1.15414e-08
4.09895e-09
1.35447e-06
1.1538e-08
3.36739e-09
1.35428e-06
1.17558e-08
2.46925e-09
1.35372e-06
1.22452e-08
1.34213e-09
1.35242e-06
1.29986e-08
-6.61227e-11
1.36524e-08
-1.7391e-09
1.53312e-06
3.64928e-09
2.36585e-09
1.54218e-06
9.6337e-09
6.23834e-09
1.55327e-06
1.36915e-08
8.87252e-09
1.56445e-06
1.59364e-08
1.03458e-08
1.57507e-06
1.69118e-08
1.08977e-08
1.58471e-06
1.69462e-08
1.07517e-08
1.593e-06
1.63788e-08
1.01389e-08
1.60008e-06
1.54512e-08
9.3243e-09
1.60624e-06
1.43537e-08
8.449e-09
1.61174e-06
1.3267e-08
7.62224e-09
1.61684e-06
1.22895e-08
6.88734e-09
1.6217e-06
1.14497e-08
6.24304e-09
1.62644e-06
1.07522e-08
5.664e-09
1.63116e-06
1.01867e-08
5.11641e-09
1.63592e-06
9.73933e-09
4.57937e-09
1.64078e-06
9.40016e-09
4.02304e-09
1.64581e-06
9.16406e-09
3.41633e-09
1.65112e-06
9.01766e-09
2.72944e-09
1.65691e-06
8.90621e-09
1.9531e-09
8.72315e-09
1.13165e-09
1.68027e-06
1.8909e-09
1.89089e-09
1.68934e-06
5.09893e-09
5.09892e-09
1.7018e-06
7.46351e-09
7.46352e-09
1.71578e-06
8.94486e-09
8.94487e-09
1.73022e-06
9.69111e-09
9.69109e-09
1.74439e-06
9.85833e-09
9.85822e-09
1.75785e-06
9.64873e-09
9.64846e-09
1.77036e-06
9.19418e-09
9.19362e-09
1.78185e-06
8.60642e-09
8.60538e-09
1.79241e-06
7.97881e-09
7.97698e-09
1.80222e-06
7.37594e-09
7.37275e-09
1.81143e-06
6.82898e-09
6.82355e-09
1.82019e-06
6.34668e-09
6.33757e-09
1.82864e-06
5.92356e-09
5.9089e-09
1.8369e-06
5.54501e-09
5.52333e-09
1.84511e-06
5.2015e-09
5.17221e-09
1.85337e-06
4.88428e-09
4.84974e-09
1.86183e-06
4.5793e-09
4.55003e-09
1.87059e-06
4.26196e-09
4.27287e-09
3.95652e-09
4.09099e-09
1.7569e-06
-4.09579e-14
1.61312e-09
1.76589e-06
-9.84899e-14
4.38386e-09
1.77878e-06
-1.59684e-13
6.53137e-09
1.79389e-06
-2.42439e-13
7.9505e-09
1.81003e-06
-3.5676e-13
8.755e-09
1.82638e-06
-5.10445e-13
9.08498e-09
1.84239e-06
-7.23673e-13
9.07162e-09
1.85772e-06
-1.04954e-12
8.83597e-09
1.87216e-06
-1.5244e-12
8.46321e-09
1.88565e-06
-2.18812e-12
8.01975e-09
1.89823e-06
-3.07282e-12
7.55762e-09
1.91001e-06
-4.20323e-12
7.11532e-09
1.92112e-06
-5.57508e-12
6.72017e-09
1.93173e-06
-7.23047e-12
6.39221e-09
1.94195e-06
-9.38281e-12
6.15005e-09
1.95193e-06
-1.14855e-11
6.00131e-09
1.9618e-06
-1.25322e-11
5.94826e-09
1.9717e-06
-9.55368e-12
5.98909e-09
1.98167e-06
2.08425e-12
6.11179e-09
1.73292e-11
6.26917e-09
1.7569e-06
-1.89091e-09
1.61315e-09
1.76589e-06
-5.09895e-09
4.38395e-09
1.77878e-06
-7.46354e-09
6.53151e-09
1.79389e-06
-8.94489e-09
7.95072e-09
1.81002e-06
-9.69112e-09
8.75534e-09
1.82638e-06
-9.85827e-09
9.0855e-09
1.84239e-06
-9.64852e-09
9.07238e-09
1.85771e-06
-9.19372e-09
8.83713e-09
1.87215e-06
-8.60552e-09
8.46497e-09
1.88564e-06
-7.97719e-09
8.02244e-09
1.89822e-06
-7.37305e-09
7.5617e-09
1.91e-06
-6.82396e-09
7.12145e-09
1.92112e-06
-6.33814e-09
6.72919e-09
1.93172e-06
-5.90966e-09
6.4052e-09
1.94196e-06
-5.52434e-09
6.16795e-09
1.95198e-06
-5.17357e-09
6.02334e-09
1.96192e-06
-4.85159e-09
5.9697e-09
1.97197e-06
-4.55257e-09
5.99766e-09
1.98222e-06
-4.27632e-09
6.0816e-09
-4.09534e-09
6.16107e-09
1.68027e-06
-3.64918e-09
1.89092e-09
1.68934e-06
-9.63346e-09
5.099e-09
1.7018e-06
-1.36911e-08
7.46364e-09
1.71578e-06
-1.59357e-08
8.94507e-09
1.73022e-06
-1.69105e-08
9.6914e-09
1.74439e-06
-1.69441e-08
9.8587e-09
1.75785e-06
-1.63756e-08
9.6492e-09
1.77036e-06
-1.54459e-08
9.19478e-09
1.78184e-06
-1.43452e-08
8.60716e-09
1.79241e-06
-1.32534e-08
7.97973e-09
1.80222e-06
-1.22674e-08
7.37706e-09
1.81143e-06
-1.1414e-08
6.83036e-09
1.82019e-06
-1.06942e-08
6.34835e-09
1.82863e-06
-1.00934e-08
5.92553e-09
1.8369e-06
-9.59411e-09
5.54733e-09
1.8451e-06
-9.1782e-09
5.20421e-09
1.85336e-06
-8.83604e-09
4.88735e-09
1.86182e-06
-8.56888e-09
4.58264e-09
1.87058e-06
-8.39111e-09
4.26535e-09
-8.4718e-09
3.95937e-09
1.53312e-06
-4.93105e-09
2.36579e-09
1.54218e-06
-1.30088e-08
6.23818e-09
1.55328e-06
-1.72155e-08
8.87222e-09
1.56445e-06
-1.88993e-08
1.03453e-08
1.57507e-06
-1.95022e-08
1.08969e-08
1.58471e-06
-1.91176e-08
1.07504e-08
1.59301e-06
-1.81054e-08
1.0137e-08
1.6001e-06
-1.68199e-08
9.32123e-09
1.60626e-06
-1.54787e-08
8.4441e-09
1.61178e-06
-1.42589e-08
7.61411e-09
1.6169e-06
-1.32917e-08
6.87399e-09
1.62179e-06
-1.2547e-08
6.22163e-09
1.62658e-06
-1.19865e-08
5.63095e-09
1.63136e-06
-1.15793e-08
5.06566e-09
1.63621e-06
-1.12986e-08
4.49792e-09
1.64116e-06
-1.1131e-08
3.89515e-09
1.64624e-06
-1.10804e-08
3.21948e-09
1.65149e-06
-1.11748e-08
2.437e-09
1.65697e-06
-1.14843e-08
1.53834e-09
-1.23829e-08
6.59674e-10
1.32763e-06
-5.56891e-09
2.71802e-09
1.33539e-06
-1.39003e-08
7.1202e-09
1.34287e-06
-1.62618e-08
9.5522e-09
1.34848e-06
-1.59089e-08
1.05759e-08
1.35198e-06
-1.50026e-08
1.08716e-08
1.35376e-06
-1.39346e-08
1.05744e-08
1.35443e-06
-1.29797e-08
9.88153e-09
1.35457e-06
-1.21196e-08
9.02879e-09
1.35453e-06
-1.13535e-08
8.1652e-09
1.35446e-06
-1.0708e-08
7.34648e-09
1.35444e-06
-1.02242e-08
6.59483e-09
1.35451e-06
-9.88174e-09
5.90491e-09
1.35468e-06
-9.65532e-09
5.25115e-09
1.35495e-06
-9.54314e-09
4.59267e-09
1.35532e-06
-9.53064e-09
3.84725e-09
1.35576e-06
-9.60735e-09
2.9586e-09
1.35615e-06
-9.77298e-09
1.81649e-09
1.35629e-06
-1.00726e-08
3.29196e-10
1.35583e-06
-1.05665e-08
-1.61204e-09
-1.19356e-08
-3.71175e-09
1.07432e-06
1.06464e-09
1.06824e-06
5.58592e-09
1.06138e-06
8.46278e-09
1.05338e-06
9.03771e-09
1.0451e-06
8.61413e-09
1.03721e-06
8.11393e-09
1.02982e-06
7.77504e-09
1.02282e-06
7.53463e-09
1.01597e-06
7.33584e-09
1.00919e-06
7.02763e-09
1.00252e-06
6.54942e-09
9.95924e-07
5.98679e-09
9.89329e-07
5.38675e-09
9.8265e-07
4.73474e-09
9.75764e-07
3.98664e-09
9.68555e-07
2.96088e-09
9.60843e-07
1.46206e-09
9.52117e-07
-7.58898e-10
9.41502e-07
-4.47303e-09
-9.3414e-09
1.16914e-06
4.9066e-09
7.28896e-14
1.16312e-06
1.16086e-08
3.12285e-13
1.15731e-06
1.42758e-08
6.42616e-13
1.15201e-06
1.43346e-08
1.12354e-12
1.14689e-06
1.3733e-08
1.87106e-12
1.14203e-06
1.29744e-08
3.11883e-12
1.1377e-06
1.2109e-08
5.18936e-12
1.13392e-06
1.13222e-08
8.55464e-12
1.13059e-06
1.06747e-08
1.41026e-11
1.12739e-06
1.02326e-08
2.32686e-11
1.12399e-06
9.9664e-09
3.84812e-11
1.12019e-06
9.81033e-09
6.37813e-11
1.11583e-06
9.7908e-09
1.06385e-10
1.11066e-06
9.96126e-09
1.79733e-10
1.10438e-06
1.03609e-08
3.03273e-10
1.09641e-06
1.11071e-08
5.24816e-10
1.08572e-06
1.24295e-08
9.08251e-10
1.07074e-06
1.46098e-08
1.61214e-09
1.04913e-06
1.77138e-08
2.90157e-09
2.64495e-08
5.52044e-09
1.41518e-06
4.19293e-09
1.14246e-13
1.42279e-06
1.11161e-08
3.24852e-13
1.43152e-06
1.50989e-08
5.80267e-13
1.4398e-06
1.66305e-08
9.96868e-13
1.44712e-06
1.72788e-08
1.6923e-12
1.45316e-06
1.75164e-08
2.75559e-12
1.45798e-06
1.71642e-08
4.35824e-12
1.46188e-06
1.64557e-08
6.92816e-12
1.46514e-06
1.55818e-08
1.11785e-11
1.468e-06
1.47242e-08
1.84011e-11
1.47062e-06
1.39501e-08
3.00676e-11
1.47303e-06
1.33211e-08
4.88848e-11
1.47515e-06
1.29349e-08
7.75998e-11
1.47694e-06
1.27993e-08
1.23212e-10
1.47833e-06
1.28718e-08
1.96289e-10
1.47924e-06
1.32538e-08
3.09134e-10
1.47959e-06
1.40708e-08
4.75246e-10
1.4794e-06
1.54393e-08
7.05416e-10
1.47873e-06
1.73188e-08
9.92878e-10
1.92994e-08
1.12749e-09
1.61424e-06
3.09287e-09
8.06537e-14
1.62332e-06
8.27406e-09
2.16566e-13
1.63533e-06
1.19572e-08
3.91172e-13
1.64819e-06
1.41148e-08