/*--------------------------------*- C++ -*----------------------------------*\
| =========                 |                                                 |
| \\      /  F ield         | OpenFOAM: The Open Source CFD Toolbox           |
|  \\    /   O peration     | Version:  2212                                  |
|   \\  /    A nd           | Website:  www.openfoam.com                      |
|    \\/     M anipulation  |                                                 |
\*---------------------------------------------------------------------------*/
FoamFile
{
    version     2.0;
    format      ascii;
    arch        "LSB;label=32;scalar=64";
    class       volVectorField;
    location    "2.45";
    object      U;
}
// * * * * * * * * * * * * * * * * * * * * * * * * * * * * * * * * * * * * * //

dimensions      [0 1 -1 0 0 0 0];

internalField   nonuniform List<vector> 
6840
(
(0.0956456 -0.00836005 -0.00836005)
(0.090494 0.00152204 0.001522)
(0.0790685 0.00242972 0.00242965)
(0.0713015 0.00148777 0.00148764)
(0.0661801 0.000830498 0.000830309)
(0.0623238 0.000563584 0.000563288)
(0.0592227 0.000426254 0.000425727)
(0.0566879 0.000323803 0.000322988)
(0.0545547 0.000252809 0.000251489)
(0.0527053 0.000202309 0.000200142)
(0.0510718 0.000165982 0.000162458)
(0.0496179 0.000139618 0.000134009)
(0.0483149 0.000118811 0.000109846)
(0.0471365 0.000101767 8.66355e-05)
(0.0460811 8.67798e-05 6.12133e-05)
(0.045156 7.30716e-05 2.90034e-05)
(0.0443905 6.36217e-05 1.91473e-06)
(0.0439659 2.00622e-05 -0.000106057)
(0.0444624 -8.41956e-05 -0.000283065)
(0.0430827 -0.00215734 -0.00256925)
(0.0999088 0.00129701 0.000712559)
(0.0969669 0.00365587 0.00274723)
(0.0935347 0.0026402 0.00211812)
(0.0895896 0.00182036 0.00162048)
(0.0858329 0.00152862 0.00139046)
(0.0825913 0.00135098 0.00116109)
(0.0798672 0.00117909 0.000896956)
(0.0775702 0.00104009 0.00069207)
(0.075563 0.000942097 0.000560411)
(0.0737597 0.000864706 0.00047978)
(0.0721153 0.000791418 0.00043261)
(0.0706026 0.000716937 0.000404766)
(0.0692055 0.000645064 0.000389484)
(0.0679124 0.000582498 0.000383477)
(0.0667265 0.000517297 0.000382378)
(0.0656601 0.000442756 0.000382356)
(0.0647659 0.000329219 0.000357093)
(0.0642398 7.31704e-05 0.000194234)
(0.0645805 -0.000397935 -0.000116548)
(0.0627854 -0.00139186 -0.000813274)
(0.099413 0.000345218 0.000270232)
(0.0988664 0.00201896 0.00187489)
(0.0979216 0.00257295 0.00218898)
(0.0963663 0.00237955 0.00190831)
(0.0946343 0.00211358 0.00162657)
(0.0929736 0.00192591 0.00141861)
(0.0913664 0.00179992 0.00127121)
(0.0898578 0.00170284 0.00116003)
(0.0884611 0.00160059 0.00106995)
(0.0871686 0.00148742 0.00099849)
(0.0859742 0.00137248 0.000951019)
(0.0848647 0.00126117 0.000924364)
(0.0838237 0.00115061 0.000913918)
(0.0828427 0.00103218 0.00091452)
(0.0819221 0.000895201 0.000922073)
(0.0810761 0.000722012 0.000926346)
(0.0803434 0.000481842 0.000914311)
(0.0797664 3.8716e-05 0.000841167)
(0.0793964 -0.000735495 0.000692617)
(0.0785091 -0.0024994 0.000295972)
(0.0995405 0.000245007 0.000321901)
(0.0992576 0.00105544 0.00154094)
(0.098849 0.00150197 0.00211448)
(0.098125 0.00157878 0.0020917)
(0.0973372 0.0015137 0.00188635)
(0.0965854 0.00144442 0.0016663)
(0.095866 0.00140664 0.00149877)
(0.0951985 0.0013731 0.00137289)
(0.09457 0.00132356 0.00128718)
(0.0939249 0.00124597 0.00123374)
(0.0932964 0.00114615 0.00119865)
(0.0926821 0.00103364 0.00117997)
(0.0920725 0.000914334 0.00117548)
(0.091459 0.000785517 0.001186)
(0.0908326 0.000637054 0.00120986)
(0.0901811 0.000439392 0.00124741)
(0.0894925 0.000154633 0.0013017)
(0.0887404 -0.000273001 0.00138869)
(0.0878487 -0.00095848 0.00152879)
(0.0867498 -0.00195195 0.00183861)
(0.0993801 3.37512e-05 5.89237e-05)
(0.0992677 0.000274259 0.00120001)
(0.0989804 0.000432102 0.0018885)
(0.0984745 0.000482991 0.00200654)
(0.0979953 0.000478025 0.00191483)
(0.0975702 0.000464094 0.00173501)
(0.0971796 0.00045036 0.00154776)
(0.0968284 0.000438103 0.00138943)
(0.0965256 0.00042903 0.00127166)
(0.0962665 0.000416223 0.00120249)
(0.0959842 0.000390876 0.00117775)
(0.0956771 0.000353482 0.0011802)
(0.0953386 0.000306193 0.00119782)
(0.0949478 0.000249891 0.0012329)
(0.0944884 0.00018555 0.00129612)
(0.0939303 9.19858e-05 0.00139742)
(0.0932281 -5.10375e-05 0.00156269)
(0.0922762 -0.000276745 0.00181165)
(0.0910212 -0.000673203 0.00206219)
(0.0898287 -0.00123522 0.00298794)
(0.0993801 -3.37701e-05 5.89498e-05)
(0.0992677 -0.000274355 0.00120003)
(0.0989803 -0.000432296 0.00188852)
(0.0984744 -0.000483314 0.00200657)
(0.0979951 -0.000478555 0.00191488)
(0.0975698 -0.000464963 0.00173509)
(0.0971789 -0.000451787 0.00154789)
(0.0968272 -0.000440429 0.00138965)
(0.0965237 -0.000432832 0.00127205)
(0.0962633 -0.000422445 0.00120314)
(0.0959788 -0.000401073 0.00117881)
(0.0956679 -0.000370226 0.00118202)
(0.0953229 -0.000333897 0.00120125)
(0.0949204 -0.000296359 0.00123975)
(0.0944401 -0.000262975 0.00130905)
(0.0938455 -0.000223901 0.00142179)
(0.0930725 -0.000175316 0.00161237)
(0.0919926 -0.00011927 0.00191211)
(0.0904848 -2.52797e-05 0.00230185)
(0.0887612 -6.14296e-05 0.00366837)
(0.0995405 -0.000245018 0.000321903)
(0.0992576 -0.00105549 0.00154095)
(0.0988489 -0.00150207 0.00211452)
(0.0981247 -0.00157895 0.00209176)
(0.0973367 -0.00151398 0.00188642)
(0.0965845 -0.0014449 0.00166642)
(0.0958645 -0.0014074 0.00149895)
(0.0951959 -0.0013743 0.00137319)
(0.0945656 -0.00132545 0.00128774)
(0.0939175 -0.00124887 0.00123485)
(0.0932841 -0.00115063 0.00120064)
(0.0926617 -0.00104066 0.00118363)
(0.0920383 -0.000925712 0.00118184)
(0.0914011 -0.000803976 0.00119715)
(0.090734 -0.000666003 0.00123154)
(0.090012 -0.0004932 0.00129059)
(0.0891971 -0.000239599 0.00138828)
(0.0882128 0.000137701 0.00155389)
(0.0869577 0.000724084 0.00183063)
(0.0857963 0.00155631 0.00260637)
(0.099413 -0.000345214 0.000270235)
(0.0988664 -0.00201894 0.00187491)
(0.0979215 -0.00257291 0.00218902)
(0.0963661 -0.00237949 0.00190839)
(0.0946338 -0.00211348 0.00162669)
(0.0929728 -0.00192572 0.00141878)
(0.0913649 -0.00179963 0.0012715)
(0.0898553 -0.00170236 0.00116052)
(0.0884568 -0.00159974 0.00107075)
(0.0871617 -0.00148596 0.000999833)
(0.0859628 -0.00137 0.000953223)
(0.0848459 -0.00125705 0.000928215)
(0.0837927 -0.00114392 0.000920598)
(0.0827915 -0.0010213 0.000926336)
(0.0818367 -0.000877348 0.000943859)
(0.0809301 -0.000694201 0.000969455)
(0.0800894 -0.000435434 0.000997244)
(0.0793154 2.90285e-05 0.0010124)
(0.0786043 0.000822339 0.00103374)
(0.0775499 0.00257482 0.000677999)
(0.0999088 -0.001297 0.000712563)
(0.0969669 -0.00365581 0.00274725)
(0.0935346 -0.00264011 0.00211816)
(0.0895895 -0.00182019 0.00162056)
(0.0858326 -0.00152833 0.00139056)
(0.0825909 -0.00135051 0.0011613)
(0.0798665 -0.00117818 0.000897341)
(0.0775689 -0.00103849 0.000692657)
(0.0755609 -0.000939372 0.000561355)
(0.0737562 -0.000860134 0.000481313)
(0.0721092 -0.000783776 0.000435396)
(0.0705924 -0.000704435 0.000409229)
(0.0691888 -0.00062485 0.000394294)
(0.0678851 -0.00054919 0.000391055)
(0.0666803 -0.000461695 0.000395881)
(0.0655795 -0.000350636 0.000407501)
(0.0646187 -0.000176363 0.000403757)
(0.0639636 0.000173995 0.000278346)
(0.0640252 0.000887567 -4.36404e-05)
(0.0630671 0.003532 -0.00222626)
(0.0956456 0.00836005 -0.00836005)
(0.090494 -0.00152201 0.00152204)
(0.0790685 -0.00242965 0.00242972)
(0.0713015 -0.00148765 0.00148777)
(0.0661801 -0.000830313 0.000830494)
(0.0623238 -0.000563293 0.000563582)
(0.0592227 -0.000425732 0.00042625)
(0.0566878 -0.000322993 0.0003238)
(0.0545546 -0.000251494 0.000252806)
(0.0527052 -0.000200148 0.000202306)
(0.0510717 -0.000162466 0.000165978)
(0.0496178 -0.000134013 0.00013961)
(0.0483146 -0.000109863 0.000118821)
(0.0471363 -8.66184e-05 0.000101777)
(0.0460807 -6.1151e-05 8.67919e-05)
(0.0451555 -2.89599e-05 7.31196e-05)
(0.0443898 -1.90385e-06 6.36518e-05)
(0.0439649 0.00010609 2.01248e-05)
(0.0444612 0.000283119 -8.41327e-05)
(0.0430811 0.00256933 -0.00215719)
(0.0999088 0.000712562 0.001297)
(0.0969669 0.00274725 0.00365581)
(0.0935347 0.00211816 0.0026401)
(0.0895895 0.00162055 0.00182018)
(0.0858327 0.00139056 0.00152831)
(0.0825909 0.0011613 0.0013505)
(0.0798665 0.000897334 0.00117816)
(0.077569 0.00069265 0.00103846)
(0.075561 0.000561346 0.000939345)
(0.0737563 0.000481303 0.000860102)
(0.0721094 0.000435388 0.000783737)
(0.0705925 0.000409218 0.000704387)
(0.0691891 0.000394279 0.000624785)
(0.0678853 0.000391006 0.000549109)
(0.0666809 0.000395818 0.000461656)
(0.0655803 0.000407435 0.000350588)
(0.0646197 0.000403672 0.000176294)
(0.0639649 0.000278241 -0.000174062)
(0.064027 -4.38202e-05 -0.000887607)
(0.0630695 -0.00222653 -0.00353181)
(0.100226 0.000720809 0.000720797)
(0.0999601 0.00198271 0.00198267)
(0.0997825 0.0024518 0.00245171)
(0.0987886 0.00241956 0.00241939)
(0.0972762 0.00220077 0.0022005)
(0.0957759 0.00181167 0.0018112)
(0.0943948 0.00138274 0.00138198)
(0.0931673 0.00107046 0.00106918)
(0.0920826 0.000854432 0.000852282)
(0.0911246 0.000702523 0.000698905)
(0.0902787 0.000590951 0.000584723)
(0.0895232 0.000506931 0.000496957)
(0.0888387 0.000444342 0.000429562)
(0.0882289 0.000398044 0.000373757)
(0.087704 0.000352331 0.000312484)
(0.087273 0.000303277 0.000238256)
(0.0869549 0.000238207 0.00013145)
(0.0867395 8.63223e-05 -8.0163e-05)
(0.0864336 -0.00034025 -0.00058062)
(0.0865419 -0.00158105 -0.00190473)
(0.10014 0.000774997 0.000869246)
(0.100454 0.00196231 0.00196353)
(0.100911 0.00242734 0.00233444)
(0.100979 0.00252628 0.00244118)
(0.100695 0.00242582 0.00233673)
(0.100225 0.00219674 0.00211254)
(0.0997106 0.00191538 0.00182341)
(0.0991866 0.00166356 0.0015758)
(0.0986938 0.00145901 0.00139038)
(0.0982496 0.00128991 0.0012512)
(0.097862 0.00114873 0.00114915)
(0.097528 0.00102913 0.00107688)
(0.0972454 0.000923747 0.00102522)
(0.0970138 0.00082147 0.000983783)
(0.0968356 0.000713099 0.000949597)
(0.0967139 0.000583713 0.000912467)
(0.0966515 0.000406939 0.00085298)
(0.0966306 0.000150564 0.000752056)
(0.0965802 -0.000231522 0.000587019)
(0.0966853 -0.000804282 0.000340174)
(0.100093 0.000445884 0.000763207)
(0.100504 0.00119434 0.00174903)
(0.101105 0.00158653 0.00212958)
(0.101635 0.00173996 0.00223477)
(0.101979 0.00178151 0.00228737)
(0.102172 0.0017278 0.00223653)
(0.102253 0.00160611 0.00211696)
(0.102277 0.00145703 0.00196639)
(0.10228 0.00129971 0.00180518)
(0.102273 0.00114783 0.00165793)
(0.102267 0.00101357 0.00155281)
(0.102268 0.000895607 0.00148211)
(0.102277 0.0007844 0.00143767)
(0.102293 0.000671964 0.00141581)
(0.102318 0.000543377 0.00141481)
(0.10235 0.000390173 0.00143485)
(0.102382 0.000192227 0.00147928)
(0.102406 -7.24197e-05 0.00155525)
(0.102402 -0.000417383 0.00167807)
(0.102539 -0.00078337 0.00190565)
(0.100087 0.000144354 0.000707017)
(0.100477 0.000390396 0.00161779)
(0.101066 0.000540935 0.00203465)
(0.101694 0.000609864 0.0021177)
(0.102269 0.000635527 0.00215053)
(0.102742 0.000626008 0.00218058)
(0.103123 0.000593491 0.00213544)
(0.103426 0.000547178 0.00204666)
(0.103677 0.000500444 0.00193939)
(0.103893 0.000455338 0.00183719)
(0.104085 0.000407522 0.00174441)
(0.104266 0.000357479 0.00166786)
(0.104432 0.000307185 0.00162633)
(0.104575 0.000253075 0.00162267)
(0.104696 0.000190066 0.00164649)
(0.104793 0.000113671 0.00171348)
(0.104851 1.38001e-05 0.00184064)
(0.104862 -0.000119287 0.00204731)
(0.104824 -0.000293577 0.00232988)
(0.105061 -0.000473587 0.00268866)
(0.100087 -0.000144385 0.000707022)
(0.100477 -0.000390486 0.0016178)
(0.101065 -0.00054109 0.00203466)
(0.101694 -0.000610122 0.00211773)
(0.102268 -0.000635959 0.00215062)
(0.102741 -0.000626709 0.00218074)
(0.103122 -0.000594592 0.00213567)
(0.103425 -0.000548917 0.00204701)
(0.103676 -0.000503249 0.00193995)
(0.103891 -0.000459943 0.00183811)
(0.104082 -0.000415014 0.00174585)
(0.10426 -0.000369549 0.00167041)
(0.104423 -0.00032623 0.00163106)
(0.104559 -0.000283303 0.00163108)
(0.104672 -0.000238158 0.00166146)
(0.104758 -0.000189631 0.00174147)
(0.104804 -0.0001315 0.00189302)
(0.104803 -5.84123e-05 0.00214444)
(0.104777 3.39576e-05 0.00250233)
(0.105051 0.000152834 0.00289062)
(0.100093 -0.000445892 0.000763213)
(0.100504 -0.00119437 0.00174905)
(0.101105 -0.00158658 0.00212962)
(0.101634 -0.00174006 0.00223491)
(0.101979 -0.00178166 0.00228762)
(0.102171 -0.00172802 0.00223688)
(0.102252 -0.00160645 0.00211749)
(0.102276 -0.00145755 0.00196721)
(0.102277 -0.00130048 0.00180643)
(0.102268 -0.00114913 0.00165997)
(0.102259 -0.00101563 0.00155636)
(0.102255 -0.00089881 0.00148824)
(0.102255 -0.000788871 0.00144832)
(0.10226 -0.000678521 0.00143439)
(0.102266 -0.000555345 0.0014473)
(0.10227 -0.000409443 0.0014921)
(0.102263 -0.000221773 0.00158092)
(0.102233 3.08903e-05 0.00172844)
(0.102184 0.000372614 0.0019377)
(0.102417 0.000788925 0.00213125)
(0.10014 -0.000774986 0.000869261)
(0.100454 -0.00196229 0.00196359)
(0.100911 -0.00242729 0.00233455)
(0.100978 -0.00252617 0.00244136)
(0.100694 -0.00242564 0.002337)
(0.100225 -0.00219643 0.00211293)
(0.0997098 -0.00191488 0.00182402)
(0.0991852 -0.00166277 0.00157684)
(0.0986916 -0.00145767 0.00139212)
(0.0982459 -0.00128761 0.00125408)
(0.0978558 -0.00114503 0.00115396)
(0.0975181 -0.00102306 0.00108489)
(0.09723 -0.000913348 0.00103861)
(0.0969907 -0.000805059 0.00100612)
(0.0968009 -0.000687395 0.000986991)
(0.0966647 -0.000544648 0.000975984)
(0.096589 -0.000350264 0.000962828)
(0.0965734 -7.04142e-05 0.000934783)
(0.096598 0.000343964 0.000858146)
(0.0967721 0.000922008 0.000621814)
(0.100226 -0.000720797 0.000720809)
(0.0999601 -0.00198267 0.00198271)
(0.0997824 -0.00245171 0.00245181)
(0.0987885 -0.00241939 0.00241956)
(0.0972762 -0.0022005 0.00220078)
(0.0957759 -0.00181119 0.00181168)
(0.0943948 -0.00138198 0.00138276)
(0.0931672 -0.00106918 0.00107048)
(0.0920826 -0.000852282 0.000854449)
(0.0911245 -0.000698905 0.000702543)
(0.0902785 -0.000584722 0.000590975)
(0.089523 -0.000496957 0.000506963)
(0.0888384 -0.000429645 0.000444473)
(0.0882285 -0.000373749 0.000398103)
(0.0877036 -0.00031232 0.000352275)
(0.0872725 -0.000238206 0.000303342)
(0.0869543 -0.000131443 0.000238302)
(0.0867387 8.01651e-05 8.64154e-05)
(0.0864326 0.000580674 -0.000340213)
(0.0865407 0.00190461 -0.00158075)
(0.0999088 -0.000712559 0.001297)
(0.0969669 -0.00274723 0.00365586)
(0.0935347 -0.00211811 0.00264019)
(0.0895896 -0.00162047 0.00182035)
(0.0858329 -0.00139045 0.00152862)
(0.0825913 -0.00116108 0.00135098)
(0.0798672 -0.000896946 0.00117909)
(0.0775701 -0.000692059 0.00104009)
(0.075563 -0.000560399 0.000942104)
(0.0737596 -0.000479767 0.000864717)
(0.0721151 -0.000432591 0.000791432)
(0.0706024 -0.000404745 0.000716957)
(0.0692052 -0.000389446 0.000645093)
(0.0679122 -0.000383482 0.000582623)
(0.0667259 -0.000382403 0.000517492)
(0.0656594 -0.000382355 0.000442968)
(0.0647649 -0.000357068 0.00032945)
(0.0642384 -0.000194186 7.34261e-05)
(0.064579 0.000116583 -0.000397555)
(0.0627827 0.000813133 -0.0013912)
(0.099413 0.000270235 0.000345211)
(0.0988664 0.00187491 0.00201893)
(0.0979215 0.00218902 0.0025729)
(0.0963661 0.00190839 0.00237948)
(0.0946338 0.00162669 0.00211346)
(0.0929728 0.00141878 0.00192571)
(0.091365 0.00127149 0.00179961)
(0.0898553 0.00116052 0.00170233)
(0.0884569 0.00107075 0.00159971)
(0.0871618 0.000999825 0.00148593)
(0.085963 0.000953212 0.00136995)
(0.0848461 0.000928195 0.001257)
(0.083793 0.000920578 0.00114387)
(0.0827917 0.000926278 0.00102123)
(0.0818373 0.000943736 0.000877215)
(0.0809308 0.000969282 0.000694031)
(0.0800904 0.000997004 0.000435208)
(0.0793167 0.00101201 -2.93112e-05)
(0.0786063 0.0010331 -0.000822667)
(0.0775529 0.000677174 -0.00257502)
(0.10014 0.000869261 0.000774984)
(0.100454 0.00196358 0.00196228)
(0.100911 0.00233454 0.00242728)
(0.100978 0.00244135 0.00252617)
(0.100694 0.00233699 0.00242564)
(0.100225 0.00211292 0.00219643)
(0.0997099 0.00182401 0.00191488)
(0.0991853 0.00157682 0.00166276)
(0.0986917 0.00139209 0.00145765)
(0.098246 0.00125405 0.00128759)
(0.097856 0.00115392 0.001145)
(0.0975182 0.00108482 0.001023)
(0.0972303 0.00103848 0.000913246)
(0.0969911 0.00100608 0.000805048)
(0.0968012 0.000986984 0.000687425)
(0.0966651 0.00097582 0.00054455)
(0.0965895 0.000962541 0.000350058)
(0.096574 0.000934445 7.01545e-05)
(0.0965986 0.000857812 -0.000344238)
(0.0967727 0.000621153 -0.000922552)
(0.10006 0.000641386 0.000641368)
(0.100502 0.001645 0.00164496)
(0.101149 0.00221231 0.00221223)
(0.101738 0.00243982 0.00243969)
(0.102205 0.00244186 0.00244163)
(0.102502 0.00231352 0.00231315)
(0.102647 0.0020925 0.00209188)
(0.102717 0.00186897 0.00186798)
(0.102744 0.00167106 0.00166942)
(0.102761 0.00150488 0.0015022)
(0.102785 0.00136685 0.00136252)
(0.102826 0.00125242 0.00124544)
(0.102891 0.00115687 0.00114569)
(0.102984 0.00107428 0.00105658)
(0.103108 0.000998087 0.000970636)
(0.103261 0.000920227 0.000878762)
(0.103441 0.000829992 0.000770151)
(0.103632 0.000712419 0.000633515)
(0.103816 0.000550795 0.000465625)
(0.104141 0.000393045 0.000355825)
(0.100046 0.000395678 0.000540233)
(0.10048 0.00104474 0.00138406)
(0.101154 0.00147515 0.00192291)
(0.101913 0.00170489 0.00219249)
(0.102632 0.00177953 0.00229401)
(0.103302 0.00174403 0.00227824)
(0.103895 0.00163299 0.0021857)
(0.104391 0.00148964 0.00205286)
(0.10482 0.00134201 0.00190569)
(0.105199 0.00120499 0.00176709)
(0.105544 0.00108268 0.00164642)
(0.105868 0.000974902 0.00154527)
(0.106183 0.000877544 0.00146365)
(0.106495 0.000785512 0.00139933)
(0.106808 0.000695098 0.00135003)
(0.107128 0.000599298 0.00131408)
(0.107455 0.000490967 0.00129162)
(0.107792 0.000364308 0.00128483)
(0.108148 0.000219379 0.00129686)
(0.108612 7.04783e-05 0.00135574)
(0.100039 0.000131303 0.000478768)
(0.100448 0.000350412 0.00123478)
(0.101114 0.00050493 0.00174649)
(0.101909 0.000596944 0.00202687)
(0.102728 0.000638217 0.00215223)
(0.103529 0.000637681 0.00218674)
(0.104297 0.000603624 0.00215389)
(0.105006 0.000557834 0.00208055)
(0.105642 0.00050792 0.001983)
(0.106214 0.000458573 0.00187786)
(0.106736 0.000412259 0.00177764)
(0.107216 0.000369345 0.00169125)
(0.107664 0.000328775 0.00162576)
(0.108094 0.000287738 0.00158395)
(0.108507 0.000244417 0.00156629)
(0.108903 0.000198226 0.00157584)
(0.109286 0.00014561 0.00161997)
(0.109665 8.45237e-05 0.00170446)
(0.110063 1.8539e-05 0.00182091)
(0.110581 -3.43579e-05 0.00195965)
(0.100039 -0.000131324 0.000478776)
(0.100448 -0.000350469 0.0012348)
(0.101114 -0.000505028 0.00174653)
(0.101909 -0.000597102 0.00202693)
(0.102728 -0.000638467 0.00215233)
(0.103529 -0.000638064 0.0021869)
(0.104297 -0.000604219 0.00215414)
(0.105006 -0.000558744 0.00208095)
(0.105641 -0.000509331 0.00198362)
(0.106213 -0.000460782 0.00187888)
(0.106734 -0.000415705 0.00177933)
(0.107213 -0.000374657 0.00169406)
(0.10766 -0.00033682 0.00163037)
(0.108089 -0.000299758 0.00159138)
(0.108501 -0.000262602 0.00157826)
(0.108896 -0.000224814 0.00159485)
(0.109281 -0.000182961 0.00164964)
(0.109673 -0.000133091 0.00174828)
(0.110099 -7.37227e-05 0.00188041)
(0.110647 -8.65247e-06 0.00202125)
(0.100046 -0.000395678 0.00054025)
(0.10048 -0.00104475 0.00138411)
(0.101154 -0.00147515 0.00192299)
(0.101913 -0.0017049 0.00219263)
(0.102632 -0.00177954 0.00229424)
(0.103301 -0.00174402 0.00227861)
(0.103894 -0.00163295 0.00218628)
(0.10439 -0.00148956 0.00205381)
(0.104818 -0.00134186 0.00190719)
(0.105197 -0.00120477 0.00176947)
(0.10554 -0.00108234 0.00165029)
(0.105863 -0.000974374 0.00155154)
(0.106175 -0.000876583 0.00147393)
(0.106483 -0.000783941 0.0014161)
(0.106792 -0.000693293 0.00137668)
(0.107105 -0.000597617 0.00135606)
(0.107427 -0.000490297 0.00135614)
(0.107762 -0.000367338 0.00137817)
(0.108133 -0.000231222 0.00141666)
(0.108624 -9.40384e-05 0.0014522)
(0.10006 -0.000641369 0.000641387)
(0.100502 -0.00164496 0.00164501)
(0.101149 -0.00221223 0.00221232)
(0.101738 -0.00243968 0.00243984)
(0.102205 -0.00244163 0.00244188)
(0.102502 -0.00231315 0.00231354)
(0.102647 -0.00209188 0.00209253)
(0.102717 -0.00186798 0.00186902)
(0.102744 -0.00166942 0.00167111)
(0.102761 -0.00150221 0.00150495)
(0.102785 -0.00136253 0.00136694)
(0.102826 -0.00124546 0.00125253)
(0.102891 -0.00114572 0.00115701)
(0.102984 -0.00105662 0.00107443)
(0.103107 -0.000970679 0.000998247)
(0.103261 -0.000878845 0.00092043)
(0.10344 -0.000770284 0.000830232)
(0.103632 -0.000633715 0.000712679)
(0.103816 -0.000465923 0.000551058)
(0.10414 -0.00035642 0.000393471)
(0.10014 -0.000869247 0.000774997)
(0.100454 -0.00196353 0.00196232)
(0.100911 -0.00233444 0.00242735)
(0.100979 -0.00244118 0.00252629)
(0.100695 -0.00233672 0.00242584)
(0.100225 -0.00211253 0.00219677)
(0.0997106 -0.0018234 0.00191541)
(0.0991865 -0.0015758 0.0016636)
(0.0986938 -0.00139038 0.00145906)
(0.0982495 -0.00125119 0.00128998)
(0.0978618 -0.00114914 0.0011488)
(0.0975278 -0.00107685 0.00102921)
(0.0972452 -0.00102517 0.000923851)
(0.0970135 -0.000983783 0.000821658)
(0.0968352 -0.000949656 0.000713364)
(0.0967135 -0.000912483 0.000583978)
(0.096651 -0.000852953 0.000407201)
(0.0966299 -0.000752006 0.000150839)
(0.0965793 -0.000586957 -0.00023122)
(0.0966841 -0.000340626 -0.00080357)
(0.099413 -0.000270232 0.000345217)
(0.0988664 -0.00187489 0.00201896)
(0.0979216 -0.00218898 0.00257295)
(0.0963663 -0.0019083 0.00237956)
(0.0946343 -0.00162657 0.00211359)
(0.0929736 -0.0014186 0.00192593)
(0.0913664 -0.0012712 0.00179994)
(0.0898577 -0.00116002 0.00170288)
(0.088461 -0.00106994 0.00160063)
(0.0871685 -0.000998478 0.00148748)
(0.0859741 -0.000951004 0.00137256)
(0.0848645 -0.00092434 0.00126127)
(0.0838234 -0.000913867 0.00115072)
(0.0828424 -0.000914492 0.00103238)
(0.0819217 -0.000922101 0.000895529)
(0.0810755 -0.000926374 0.000722415)
(0.0803425 -0.000914298 0.000482351)
(0.0797654 -0.000841115 3.93557e-05)
(0.0793951 -0.000692509 -0.000734653)
(0.0785072 -0.00029568 -0.00249848)
(0.0995405 0.000321903 0.000245015)
(0.0992576 0.00154095 0.00105548)
(0.0988489 0.00211452 0.00150205)
(0.0981247 0.00209176 0.00157893)
(0.0973367 0.00188642 0.00151396)
(0.0965845 0.00166641 0.00144488)
(0.0958645 0.00149894 0.00140738)
(0.0951959 0.00137319 0.00137426)
(0.0945657 0.00128773 0.00132541)
(0.0939176 0.00123484 0.00124882)
(0.0932842 0.00120062 0.00115057)
(0.0926618 0.0011836 0.00104059)
(0.0920385 0.0011818 0.000925625)
(0.0914013 0.00119705 0.000803834)
(0.0907344 0.00123137 0.000665802)
(0.0900126 0.00129036 0.000492948)
(0.089198 0.00138794 0.000239324)
(0.088214 0.00155333 -0.000138028)
(0.0869596 0.00182971 -0.000724502)
(0.0857989 0.00260546 -0.00155657)
(0.100093 0.000763213 0.00044589)
(0.100504 0.00174905 0.00119436)
(0.101105 0.00212962 0.00158657)
(0.101634 0.0022349 0.00174005)
(0.101979 0.00228761 0.00178165)
(0.102171 0.00223686 0.00172801)
(0.102252 0.00211747 0.00160643)
(0.102276 0.00196718 0.00145753)
(0.102277 0.00180639 0.00130046)
(0.102268 0.00165993 0.00114909)
(0.102259 0.00155631 0.00101557)
(0.102255 0.00148815 0.000898733)
(0.102256 0.00144818 0.000788762)
(0.10226 0.00143429 0.000678443)
(0.102266 0.00144718 0.000555264)
(0.10227 0.00149183 0.000409267)
(0.102264 0.00158048 0.000221486)
(0.102234 0.00172778 -3.13193e-05)
(0.102185 0.00193678 -0.000373256)
(0.102418 0.00213018 -0.000789826)
(0.100046 0.00054025 0.000395676)
(0.10048 0.00138411 0.00104474)
(0.101154 0.00192298 0.00147515)
(0.101913 0.00219261 0.0017049)
(0.102632 0.00229422 0.00177953)
(0.103301 0.00227858 0.00174402)
(0.103894 0.00218625 0.00163294)
(0.104391 0.00205376 0.00148955)
(0.104818 0.00190713 0.00134184)
(0.105197 0.0017694 0.00120475)
(0.10554 0.0016502 0.0010823)
(0.105864 0.00155141 0.000974323)
(0.106176 0.00147377 0.000876515)
(0.106483 0.00141594 0.000783871)
(0.106792 0.00137649 0.000693201)
(0.107106 0.0013558 0.000597461)
(0.107427 0.00135581 0.00049006)
(0.107762 0.00137778 0.00036699)
(0.108133 0.00141622 0.000230694)
(0.108624 0.00145172 9.31502e-05)
(0.100036 0.000323127 0.000323119)
(0.100429 0.000868622 0.000868602)
(0.10108 0.0012623 0.00126227)
(0.101891 0.00150421 0.00150415)
(0.102756 0.0016213 0.00162122)
(0.103616 0.00164239 0.00164225)
(0.104446 0.0016042 0.00160397)
(0.105224 0.00152574 0.00152537)
(0.105939 0.001426 0.00142539)
(0.106595 0.00132084 0.00131985)
(0.1072 0.0012207 0.00121911)
(0.107765 0.0011305 0.00112797)
(0.108299 0.00105161 0.00104762)
(0.10881 0.000983559 0.000977407)
(0.109307 0.000925073 0.000915889)
(0.109796 0.000874449 0.000861305)
(0.110285 0.000829809 0.000812204)
(0.110781 0.000788383 0.000767742)
(0.111304 0.000746422 0.000729111)
(0.11191 0.000705603 0.00071015)
(0.100031 0.000107062 0.000281372)
(0.100395 0.000293003 0.000768601)
(0.101024 0.000434005 0.00113302)
(0.101843 0.00052611 0.00136914)
(0.102751 0.000576173 0.00150137)
(0.103688 0.00059149 0.00155418)
(0.104617 0.000581972 0.00154927)
(0.105515 0.00055717 0.00150849)
(0.106366 0.000523278 0.00144512)
(0.107163 0.000485789 0.00136947)
(0.107905 0.000448909 0.00129035)
(0.108598 0.000414878 0.00121463)
(0.109249 0.000384376 0.00114737)
(0.109866 0.000356746 0.00109255)
(0.110459 0.000329936 0.00105412)
(0.111033 0.000303617 0.00103333)
(0.111596 0.000277779 0.00102988)
(0.112157 0.000252526 0.00104234)
(0.112736 0.000227227 0.00106767)
(0.113391 0.000205348 0.00110111)
(0.100031 -0.000107069 0.000281377)
(0.100395 -0.000293023 0.000768616)
(0.101024 -0.000434039 0.00113305)
(0.101843 -0.000526161 0.00136918)
(0.102751 -0.000576249 0.00150143)
(0.103688 -0.000591596 0.00155428)
(0.104617 -0.00058212 0.00154942)
(0.105515 -0.000557383 0.00150873)
(0.106366 -0.000523587 0.00144548)
(0.107162 -0.000486234 0.00137003)
(0.107905 -0.000449534 0.00129123)
(0.108598 -0.000415736 0.00121599)
(0.109248 -0.000385521 0.00114944)
(0.109866 -0.00035825 0.00109565)
(0.110459 -0.000331973 0.00105867)
(0.111034 -0.000306378 0.0010396)
(0.1116 -0.000281412 0.00103757)
(0.112167 -0.00025676 0.00104992)
(0.112757 -0.00023189 0.00107081)
(0.11342 -0.00021189 0.00108973)
(0.100036 -0.000323121 0.000323129)
(0.100429 -0.000868605 0.000868629)
(0.10108 -0.00126227 0.00126231)
(0.101891 -0.00150415 0.00150423)
(0.102756 -0.00162122 0.00162133)
(0.103616 -0.00164225 0.00164243)
(0.104446 -0.00160398 0.00160425)
(0.105224 -0.00152538 0.0015258)
(0.105939 -0.0014254 0.00142608)
(0.106595 -0.00131987 0.00132093)
(0.1072 -0.00121914 0.00122082)
(0.107765 -0.001128 0.00113065)
(0.108299 -0.00104767 0.00105179)
(0.10881 -0.000977482 0.000983767)
(0.109307 -0.000915995 0.000925311)
(0.109796 -0.00086145 0.000874727)
(0.110284 -0.000812405 0.000830121)
(0.110781 -0.000768026 0.000788711)
(0.111303 -0.000729513 0.000746733)
(0.11191 -0.000710677 0.000705824)
(0.100046 -0.000540234 0.00039568)
(0.10048 -0.00138407 0.00104475)
(0.101154 -0.00192291 0.00147516)
(0.101913 -0.00219249 0.00170491)
(0.102632 -0.00229401 0.00177956)
(0.103302 -0.00227824 0.00174407)
(0.103894 -0.0021857 0.00163304)
(0.104391 -0.00205286 0.0014897)
(0.10482 -0.00190569 0.00134209)
(0.105199 -0.0017671 0.00120509)
(0.105544 -0.00164643 0.0010828)
(0.105868 -0.00154527 0.00097505)
(0.106183 -0.00146366 0.000877727)
(0.106494 -0.00139937 0.000785736)
(0.106808 -0.00135009 0.000695351)
(0.107128 -0.00131413 0.000599577)
(0.107455 -0.00129169 0.000491271)
(0.107791 -0.00128494 0.00036462)
(0.108147 -0.00129706 0.000219693)
(0.108611 -0.00135625 7.08741e-05)
(0.100093 -0.000763207 0.000445885)
(0.100504 -0.00174903 0.00119435)
(0.101105 -0.00212957 0.00158654)
(0.101635 -0.00223477 0.00173998)
(0.101979 -0.00228737 0.00178154)
(0.102172 -0.00223653 0.00172783)
(0.102253 -0.00211696 0.00160616)
(0.102277 -0.00196638 0.0014571)
(0.10228 -0.00180518 0.00129979)
(0.102273 -0.00165792 0.00114793)
(0.102266 -0.00155279 0.00101369)
(0.102268 -0.00148208 0.000895759)
(0.102276 -0.00143762 0.000784575)
(0.102293 -0.00141582 0.000672232)
(0.102317 -0.00141484 0.00054372)
(0.102349 -0.00143478 0.000390549)
(0.102382 -0.00147913 0.000192651)
(0.102405 -0.001555 -7.19519e-05)
(0.102401 -0.00167773 -0.000416866)
(0.102537 -0.00190535 -0.000782646)
(0.0995405 -0.000321901 0.000245007)
(0.0992576 -0.00154094 0.00105544)
(0.098849 -0.00211448 0.00150198)
(0.098125 -0.0020917 0.00157879)
(0.0973371 -0.00188635 0.00151372)
(0.0965854 -0.00166629 0.00144446)
(0.095866 -0.00149877 0.00140669)
(0.0951985 -0.00137288 0.00137317)
(0.0945699 -0.00128717 0.00132365)
(0.0939248 -0.00123374 0.00124608)
(0.0932962 -0.00119864 0.00114629)
(0.0926819 -0.00117996 0.00103382)
(0.0920723 -0.00117546 0.000914559)
(0.0914587 -0.00118597 0.000785808)
(0.0908323 -0.00120982 0.000637429)
(0.0901808 -0.00124733 0.000439908)
(0.0894921 -0.00130155 0.000155284)
(0.08874 -0.0013884 -0.000272148)
(0.0878482 -0.00152828 -0.000957386)
(0.0867496 -0.00183763 -0.00195047)
(0.0993801 5.89501e-05 3.3768e-05)
(0.0992677 0.00120003 0.000274348)
(0.0989803 0.00188852 0.000432282)
(0.0984744 0.00200656 0.000483298)
(0.0979951 0.00191487 0.000478535)
(0.0975698 0.00173509 0.000464938)
(0.0971789 0.00154789 0.000451757)
(0.0968272 0.00138964 0.000440394)
(0.0965238 0.00127204 0.000432789)
(0.0962634 0.00120312 0.000422393)
(0.0959789 0.00117878 0.000401011)
(0.0956681 0.00118198 0.000370151)
(0.0953231 0.0012012 0.000333805)
(0.0949206 0.00123964 0.000296219)
(0.0944404 0.00130887 0.000262783)
(0.093846 0.00142152 0.000223668)
(0.0930732 0.00161195 0.000175051)
(0.0919936 0.00191142 0.000118975)
(0.0904864 0.0023007 2.49689e-05)
(0.0887625 0.00366846 6.11882e-05)
(0.100087 0.000707021 0.000144383)
(0.100477 0.0016178 0.00039048)
(0.101065 0.00203466 0.000541084)
(0.101694 0.00211772 0.000610115)
(0.102268 0.00215061 0.000635949)
(0.102741 0.00218072 0.000626695)
(0.103123 0.00213564 0.000594573)
(0.103425 0.00204698 0.000548892)
(0.103676 0.00193991 0.000503214)
(0.103891 0.00183806 0.000459897)
(0.104082 0.00174578 0.000414952)
(0.10426 0.00167032 0.000369467)
(0.104423 0.00163091 0.000326121)
(0.104559 0.0016309 0.000283182)
(0.104673 0.00166123 0.000238015)
(0.104758 0.00174112 0.00018943)
(0.104804 0.00189248 0.000131223)
(0.104804 0.00214363 5.80418e-05)
(0.104777 0.00250121 -3.44569e-05)
(0.10505 0.00288964 -0.000153471)