/*--------------------------------*- C++ -*----------------------------------*\
| =========                 |                                                 |
| \\      /  F ield         | OpenFOAM: The Open Source CFD Toolbox           |
|  \\    /   O peration     | Version:  2212                                  |
|   \\  /    A nd           | Website:  www.openfoam.com                      |
|    \\/     M anipulation  |                                                 |
\*---------------------------------------------------------------------------*/
FoamFile
{
    version     2.0;
    format      ascii;
    arch        "LSB;label=32;scalar=64";
    class       surfaceVectorField;
    location    "2.45";
    object      Uf;
}
// * * * * * * * * * * * * * * * * * * * * * * * * * * * * * * * * * * * * * //

dimensions      [0 1 -1 0 0 0 0];

internalField   nonuniform List<vector> 
19019
(
(0.0993441 -0.00341901 -0.00341902)
(0.0973536 0.00106248 -0.00148428)
(0.0973536 -0.00148428 0.00106247)
(0.0834792 0.00197588 0.00197583)
(0.0930873 0.003269 0.00253347)
(0.0930873 0.00253349 0.00326894)
(0.0745173 0.00195874 0.00195865)
(0.0848642 0.00163586 0.00179234)
(0.0848642 0.00179239 0.00163575)
(0.0685482 0.00115913 0.00115898)
(0.0786284 0.00107353 0.00122136)
(0.0786284 0.00122144 0.00107335)
(0.0642369 0.000697041 0.000696799)
(0.0740538 0.000785357 0.000865157)
(0.0740537 0.000865275 0.000785058)
(0.0607581 0.000494919 0.000494508)
(0.0704438 0.000650535 0.000669436)
(0.0704436 0.000669637 0.000650062)
(0.0579394 0.000375028 0.000374358)
(0.0674937 0.000546827 0.000508867)
(0.0674934 0.000509231 0.000545963)
(0.0556173 0.000288306 0.000287238)
(0.0650541 0.000468959 0.000388096)
(0.0650537 0.000388634 0.000467507)
(0.0536301 0.000227559 0.000225815)
(0.0629715 0.000415342 0.000308947)
(0.0629706 0.000309799 0.00041291)
(0.0518883 0.000184145 0.0001813)
(0.0611405 0.000372935 0.000256878)
(0.0611392 0.000258259 0.000368888)
(0.0503433 0.0001528 0.000148234)
(0.0595027 0.000334846 0.000223007)
(0.0595003 0.000225374 0.000328186)
(0.048964 0.000129214 0.000121928)
(0.0580252 0.000299775 0.000200969)
(0.0580212 0.000204692 0.000288948)
(0.0477259 0.000110289 9.82408e-05)
(0.0566845 0.000269111 0.000186552)
(0.0566779 0.000191368 0.000251367)
(0.0466075 9.42732e-05 7.39244e-05)
(0.0554602 0.000244222 0.000176299)
(0.0554493 0.000184271 0.000214728)
(0.0456141 7.99257e-05 4.51083e-05)
(0.0543525 0.000220192 0.000167084)
(0.0543342 0.000181102 0.000171113)
(0.0447659 6.83466e-05 1.5459e-05)
(0.0533708 0.000196447 0.000156136)
(0.0533388 0.000181527 0.00011414)
(0.0441041 4.18419e-05 -5.20711e-05)
(0.0525537 0.000169871 0.00014412)
(0.0524951 0.000179721 3.72702e-05)
(0.0440135 -3.20667e-05 -0.000194561)
(0.0520884 9.46329e-05 4.53526e-05)
(0.0519783 0.00012103 -0.000137533)
(0.0451842 -0.00112077 -0.00142616)
(0.0525225 -8.43951e-05 -0.000143114)
(0.0523008 -5.39766e-05 -0.000501204)
(0.0509763 -0.00190774 -0.00189905)
(0.0510902 -0.00239789 -0.00331959)
(0.0984572 0.00247644 0.0017299)
(0.0996871 0.000439226 0.000345485)
(0.100049 0.00105638 0.000750968)
(0.0958349 0.00314804 0.00243267)
(0.0978162 0.00273274 0.00228229)
(0.0982937 0.00280919 0.00216145)
(0.0914502 0.00223028 0.0018693)
(0.0954961 0.0030016 0.00230314)
(0.0963041 0.00244259 0.00199778)
(0.0875957 0.00167449 0.00150547)
(0.0926195 0.00229915 0.00183878)
(0.0936672 0.00198059 0.00172692)
(0.0841487 0.0014398 0.00127577)
(0.089768 0.00189149 0.00153572)
(0.0909053 0.00171949 0.00149784)
(0.0811894 0.00126504 0.00102902)
(0.0872333 0.0016557 0.0012949)
(0.0884356 0.00145425 0.00121198)
(0.0787039 0.00110959 0.000794513)
(0.0850085 0.00149071 0.00107762)
(0.0863068 0.00118308 0.000909132)
(0.076561 0.000991092 0.00062624)
(0.083064 0.00136932 0.000914188)
(0.0844839 0.000982215 0.000691552)
(0.0746582 0.000903401 0.000520095)
(0.0813298 0.00127478 0.000803217)
(0.0828856 0.000843805 0.000550088)
(0.072935 0.000828062 0.000456195)
(0.0797548 0.00118783 0.000729206)
(0.081457 0.000742222 0.000457989)
(0.0713562 0.000754178 0.000418688)
(0.0783116 0.00110175 0.000684186)
(0.0801665 0.000658336 0.000396092)
(0.0699018 0.000681001 0.000397125)
(0.0769792 0.00101542 0.000658684)
(0.0789895 0.000584189 0.000352409)
(0.0685581 0.000613781 0.00038648)
(0.0757413 0.000927711 0.000646135)
(0.0779082 0.000520182 0.000322842)
(0.0673162 0.000549898 0.000382928)
(0.0745878 0.000838383 0.000642384)
(0.0769181 0.000468354 0.000303054)
(0.0661849 0.000480027 0.000382367)
(0.0735205 0.000739087 0.000644369)
(0.0760251 0.000415364 0.00028368)
(0.0651912 0.000385987 0.000369725)
(0.0725526 0.00061965 0.000645958)
(0.0752404 0.00035564 0.000259037)
(0.0644301 0.000201194 0.000275664)
(0.0717306 0.000448067 0.00062605)
(0.0746015 0.000267125 0.000205947)
(0.0642231 -0.000162383 3.88429e-05)
(0.0711817 8.13513e-05 0.000492716)
(0.0742131 5.77393e-05 2.26283e-05)
(0.0653069 -0.000894898 -0.000464911)
(0.0712047 -0.000644584 0.000207733)
(0.0742673 -0.000454563 -0.000515466)
(0.0698154 -0.00270242 -0.000636718)
(0.0733158 -0.00202418 -0.00258626)
(0.0993753 0.00118209 0.00107256)
(0.099473 0.00034974 0.000307061)
(0.0997475 0.000610966 0.000779884)
(0.0984949 0.00229596 0.00203194)
(0.0990504 0.00157671 0.00172047)
(0.0995971 0.00201823 0.00200289)
(0.0971415 0.00247625 0.00204864)
(0.0983578 0.0021309 0.0021689)
(0.0992974 0.00246136 0.00210244)
(0.0954399 0.00224657 0.00176744)
(0.0971935 0.00203542 0.00200245)
(0.0984886 0.00237419 0.00190265)
(0.0937515 0.00201975 0.00152259)
(0.0959056 0.001855 0.00175448)
(0.0974229 0.0021804 0.0016888)
(0.0921393 0.00186291 0.00134491)
(0.0946725 0.00173167 0.00154293)
(0.0963105 0.00198389 0.00150854)
(0.0906033 0.00175138 0.00121562)
(0.0934828 0.00165087 0.00138696)
(0.0952059 0.00180013 0.00134316)
(0.0891542 0.00165171 0.00111499)
(0.0923698 0.00157362 0.00126642)
(0.0941504 0.00164212 0.00120456)
(0.0878088 0.001544 0.00103422)
(0.0913344 0.00147605 0.00117352)
(0.0931696 0.00150051 0.00109715)
(0.0865685 0.00142995 0.000974754)
(0.0903465 0.00136199 0.00110627)
(0.0922675 0.00136792 0.00101625)
(0.0854186 0.00131683 0.000937692)
(0.0894182 0.00124484 0.00106235)
(0.0914443 0.00124603 0.000961323)
(0.0843434 0.00120589 0.000919141)
(0.0885417 0.00112661 0.00103791)
(0.0906916 0.00113497 0.000927661)
(0.0833311 0.0010914 0.000914219)
(0.0877036 0.00100653 0.00102896)
(0.0899996 0.00103014 0.000909782)
(0.0823793 0.000963692 0.000918296)
(0.0868955 0.000879202 0.00103325)
(0.0893634 0.000922252 0.000901735)
(0.0814935 0.000808606 0.000924209)
(0.0861132 0.000731852 0.00104727)
(0.0887844 0.000801583 0.000900917)
(0.0807016 0.000601927 0.000920329)
(0.0853587 0.000538217 0.00106503)
(0.0882717 0.000651808 0.000897357)
(0.0800523 0.000260279 0.000877739)
(0.0846467 0.000261378 0.00108038)
(0.0878474 0.000443625 0.000873179)
(0.0795735 -0.00034839 0.000766892)
(0.0839874 -0.000175504 0.00108231)
(0.0875263 8.82498e-05 0.000793513)
(0.0793218 -0.00161745 0.000494295)
(0.083372 -0.000931383 0.00106385)
(0.0873033 -0.000504624 0.00064049)
(0.0823851 -0.00220295 0.00103101)
(0.0868727 -0.00172659 0.000291588)
(0.0996493 0.000650224 0.00093142)
(0.0994625 0.000129349 0.000192488)
(0.0997993 0.000375095 0.000741368)
(0.0990855 0.0012787 0.00182771)
(0.0992625 0.000636758 0.00137061)
(0.0998409 0.00115025 0.00181423)
(0.0984493 0.00154037 0.00210309)
(0.0989129 0.000973169 0.00200359)
(0.0999048 0.00153623 0.00209017)
(0.0977078 0.00154624 0.00198903)
(0.098295 0.00104961 0.00205073)
(0.0997675 0.00163124 0.00202307)
(0.0969396 0.00147906 0.00177632)
(0.0976573 0.00100677 0.00189983)
(0.0995097 0.00160884 0.00189587)
(0.0962079 0.00142553 0.00158253)
(0.0970644 0.000958851 0.0016987)
(0.0991999 0.00154636 0.00175208)
(0.0955223 0.00138987 0.00143583)
(0.096505 0.000931144 0.0015214)
(0.0988552 0.00147262 0.00162656)
(0.0948724 0.00134833 0.00133003)
(0.0959913 0.000913256 0.00138035)
(0.0985114 0.00138962 0.0015163)
(0.094237 0.00128477 0.00126046)
(0.0955212 0.0008965 0.00128056)
(0.0981782 0.00129413 0.00142175)
(0.0936089 0.00119606 0.00121619)
(0.0950639 0.000859526 0.00122053)
(0.0978316 0.00118557 0.00134684)
(0.0929903 0.00108989 0.00118931)
(0.0946038 0.000794852 0.00119035)
(0.0974944 0.00107252 0.00129606)
(0.0923782 0.000973989 0.00117772)
(0.0941389 0.000715654 0.00118157)
(0.0971681 0.000959611 0.0012657)
(0.0917665 0.000849926 0.00118074)
(0.0936612 0.000629394 0.00118761)
(0.096848 0.000845748 0.00125228)
(0.091147 0.000711286 0.00119793)
(0.093156 0.000533841 0.00120985)
(0.0965294 0.000726066 0.00125632)
(0.0905084 0.000538223 0.00122864)
(0.0926108 0.000422215 0.00125237)
(0.0962075 0.000588476 0.00127782)
(0.0898397 0.000297013 0.00127456)
(0.0920048 0.000268038 0.0013201)
(0.0958759 0.000413555 0.00131859)
(0.0891244 -5.9184e-05 0.0013452)
(0.0913095 4.18618e-05 0.00142717)
(0.0955248 0.00017201 0.00138352)
(0.0883152 -0.000615741 0.00145874)
(0.0904602 -0.000294022 0.00159219)
(0.0951357 -0.000175867 0.0014859)
(0.0873304 -0.00145522 0.0016837)
(0.0893918 -0.000845913 0.00178519)
(0.0946594 -0.000697265 0.00164578)
(0.0882474 -0.00161106 0.00239676)
(0.0941389 -0.00138961 0.00196119)
(0.0996725 0.000154005 0.000629466)
(0.0993801 -1.0939e-08 5.89368e-05)
(0.0997132 0.000103899 0.00068795)
(0.0991591 0.000353181 0.00154425)
(0.0992677 -5.01147e-08 0.00120002)
(0.0998376 0.000341544 0.00162229)
(0.0986636 0.000457546 0.00194752)
(0.0989804 -1.04721e-07 0.00188851)
(0.099963 0.000485284 0.0019914)
(0.0982121 0.000480508 0.00196069)
(0.0984745 -1.74348e-07 0.00200656)
(0.0999917 0.000539312 0.00199669)
(0.0977759 0.000471059 0.00182492)
(0.0979952 -2.82854e-07 0.00191486)
(0.100009 0.000545859 0.00191123)
(0.0973619 0.000457227 0.00164139)
(0.09757 -4.62605e-07 0.00173505)
(0.100007 0.000532577 0.00180465)
(0.0969929 0.000444231 0.0014686)
(0.0971793 -7.5901e-07 0.00154783)
(0.0999804 0.000509942 0.00168348)
(0.096671 0.000433566 0.00133055)
(0.0968278 -1.23849e-06 0.00138954)
(0.0999375 0.000482511 0.00157362)
(0.0963879 0.000422626 0.00123708)
(0.0965247 -2.0262e-06 0.00127186)
(0.0998957 0.000456942 0.00148326)
(0.0961171 0.000403549 0.00119012)
(0.0962649 -3.32412e-06 0.00120281)
(0.0998604 0.000430215 0.00142188)
(0.09583 0.000372179 0.00117898)
(0.0959815 -5.47428e-06 0.00117828)
(0.0998018 0.000395423 0.00138559)
(0.095511 0.000329838 0.00118901)
(0.0956725 -9.04548e-06 0.00118111)
(0.0997246 0.000352847 0.00136478)
(0.0951475 0.000278042 0.00121536)
(0.0953307 -1.50526e-05 0.00119954)
(0.0996239 0.000304579 0.00136238)
(0.0947229 0.000217721 0.00126451)
(0.0949341 -2.5392e-05 0.00123633)
(0.0994844 0.000249634 0.00138503)
(0.0942158 0.000138768 0.00134677)
(0.0944642 -4.27973e-05 0.00130258)
(0.0992985 0.000186325 0.00143693)
(0.0935863 2.04742e-05 0.00148006)
(0.0938879 -7.39723e-05 0.00140961)
(0.0990491 0.00010135 0.00153102)
(0.0927686 -0.000163891 0.00168717)
(0.0931503 -0.000127885 0.00158753)
(0.0987054 -2.05789e-05 0.00169196)
(0.091675 -0.000474974 0.00193692)
(0.0921344 -0.000226826 0.00186188)
(0.0982073 -0.000201308 0.0019449)
(0.0901986 -0.000954212 0.00252507)
(0.090753 -0.000408043 0.00218202)
(0.0975258 -0.000490705 0.00225302)
(0.089295 -0.000776059 0.00332816)
(0.0970069 -0.000868958 0.00297884)
(0.0996725 -0.000154062 0.000629492)
(0.0994625 -0.00012937 0.000192502)
(0.0997132 -0.000103922 0.000687952)
(0.099159 -0.000353326 0.00154428)
(0.0992625 -0.000636837 0.00137063)
(0.0998376 -0.000341636 0.00162231)
(0.0986635 -0.000457805 0.00194754)
(0.0989128 -0.000973319 0.00200362)
(0.0999629 -0.00048546 0.00199141)
(0.0982119 -0.000480935 0.00196072)
(0.0982948 -0.00104986 0.00205077)
(0.0999916 -0.000539604 0.00199671)
(0.0977756 -0.000471759 0.00182499)
(0.0976569 -0.00100719 0.0018999)
(0.100009 -0.000546342 0.00191128)
(0.0973614 -0.000458375 0.00164149)
(0.0970638 -0.00095954 0.00169881)
(0.100007 -0.000533366 0.00180475)
(0.0969921 -0.000446108 0.00146877)
(0.0965038 -0.000932273 0.00152156)
(0.0999798 -0.000511214 0.00168363)
(0.0966695 -0.000436631 0.00133085)
(0.0959894 -0.000915086 0.00138062)
(0.0999364 -0.000484559 0.00157387)
(0.0963854 -0.000427639 0.00123759)
(0.095518 -0.000899478 0.00128106)
(0.099894 -0.000460271 0.00148367)
(0.0961129 -0.000411759 0.00119097)
(0.0950585 -0.000864311 0.00122145)
(0.0998576 -0.00043567 0.00142256)
(0.0958229 -0.000385649 0.00118041)
(0.0945948 -0.00080255 0.00119194)
(0.0997972 -0.000404336 0.00138667)
(0.095499 -0.000352061 0.00119163)
(0.0941239 -0.000728103 0.00118442)
(0.0997171 -0.000367373 0.00136668)
(0.0951268 -0.000315128 0.0012205)
(0.0936359 -0.000649841 0.00119268)
(0.0996111 -0.000328186 0.00136613)
(0.0946865 -0.000279667 0.0012744)
(0.0931129 -0.000567766 0.00121911)
(0.0994626 -0.000288443 0.0013925)
(0.0941511 -0.000243438 0.00136542)
(0.0925366 -0.00047767 0.00127013)
(0.099262 -0.000249949 0.00145122)
(0.0934713 -0.000199608 0.00151708)
(0.0918767 -0.000364341 0.00135466)
(0.0989879 -0.000207016 0.00155923)
(0.0925592 -0.000147293 0.00176224)
(0.0910821 -0.000203009 0.00149666)
(0.0986006 -0.000154928 0.00174929)
(0.0912818 -7.22748e-05 0.00210698)
(0.0900513 2.31023e-05 0.00172692)
(0.0980296 -9.28055e-05 0.00206134)
(0.0894392 -4.33547e-05 0.00298511)
(0.0886733 0.000379562 0.00205752)
(0.0972199 -3.45818e-06 0.00250572)
(0.0872384 0.000833284 0.00311552)
(0.0964375 1.50348e-05 0.00374178)
(0.0996493 -0.000650253 0.000931427)
(0.099473 -0.000349741 0.000307063)
(0.0997993 -0.000375104 0.000741369)
(0.0990854 -0.00127878 0.00182774)
(0.0990504 -0.00157672 0.00172049)
(0.0998409 -0.00115029 0.00181424)
(0.0984491 -0.00154051 0.00210314)
(0.0983577 -0.00213092 0.00216894)
(0.0999047 -0.0015363 0.0020902)
(0.0977074 -0.00154647 0.00198909)
(0.0971933 -0.00203546 0.00200252)
(0.0997673 -0.00163137 0.00202315)
(0.0969389 -0.00147944 0.00177642)
(0.0959051 -0.00185509 0.00175458)
(0.0995093 -0.00160907 0.001896)
(0.0962067 -0.00142615 0.00158268)
(0.0946716 -0.00173181 0.00154307)
(0.0991991 -0.00154671 0.00175229)
(0.0955203 -0.00139085 0.00143607)
(0.0934813 -0.00165108 0.00138719)
(0.0988538 -0.00147318 0.00162687)
(0.0948689 -0.00134987 0.00133046)
(0.0923673 -0.00157391 0.00126682)
(0.0985092 -0.00139049 0.00151681)
(0.0942313 -0.00128716 0.00126129)
(0.0913301 -0.00147644 0.0011742)
(0.0981745 -0.00129548 0.00142257)
(0.0935993 -0.00119975 0.00121774)
(0.0903393 -0.00136249 0.00110748)
(0.0978255 -0.0011877 0.00134825)
(0.0929743 -0.00109564 0.00119213)
(0.0894064 -0.00124547 0.00106442)
(0.0974842 -0.00107582 0.00129851)
(0.0923516 -0.000983188 0.00118274)
(0.0885221 -0.00112741 0.0010416)
(0.0971512 -0.000964777 0.00127012)
(0.0917218 -0.000864844 0.00118949)
(0.0876711 -0.00100766 0.00103532)
(0.0968198 -0.000853854 0.00126041)
(0.0910712 -0.000734989 0.00121434)
(0.086841 -0.00088075 0.00104442)
(0.096483 -0.000739005 0.00127124)
(0.0903788 -0.000579601 0.00126106)
(0.0860216 -0.000733181 0.00106832)
(0.0961309 -0.000609715 0.00130595)
(0.0896149 -0.000366399 0.00133944)
(0.0852018 -0.000542602 0.00110667)
(0.0957485 -0.000451946 0.00137276)
(0.0887291 -5.09489e-05 0.00147109)
(0.0843733 -0.000264061 0.00116195)
(0.0953121 -0.000233069 0.00148913)
(0.0876229 0.000430893 0.00169226)
(0.0835003 0.000171688 0.00124489)
(0.0947744 7.95696e-05 0.00168365)
(0.0861366 0.0011402 0.0022185)
(0.0825334 0.00090989 0.00137612)
(0.0940836 0.000541035 0.0019903)
(0.0814286 0.00211024 0.00158151)
(0.0935748 0.00116034 0.00260144)
(0.0993753 -0.00118208 0.00107257)
(0.0996871 -0.000439216 0.000345486)
(0.0997475 -0.000610959 0.000779892)
(0.0984948 -0.00229593 0.00203197)
(0.0978161 -0.00273269 0.00228231)
(0.0995971 -0.00201821 0.00200292)
(0.0971413 -0.0024762 0.00204871)
(0.095496 -0.00300153 0.00230318)
(0.0992973 -0.00246132 0.00210251)
(0.0954396 -0.00224649 0.00176754)
(0.0926193 -0.00229903 0.00183886)
(0.0984884 -0.0023741 0.00190277)
(0.0937508 -0.0020196 0.00152273)
(0.0897676 -0.00189128 0.00153583)
(0.0974225 -0.00218026 0.00168899)
(0.0921381 -0.00186268 0.00134514)
(0.0872326 -0.00165534 0.00129509)
(0.0963098 -0.00198365 0.00150882)
(0.0906013 -0.00175099 0.00121601)
(0.0850074 -0.00149007 0.00107796)
(0.0952048 -0.00179975 0.00134361)
(0.0891509 -0.00165105 0.00111564)
(0.0830622 -0.00136823 0.00091474)
(0.0941484 -0.00164151 0.00120534)
(0.0878033 -0.00154285 0.00103529)
(0.0813267 -0.00127295 0.00080412)
(0.0931663 -0.00149944 0.00109842)
(0.0865595 -0.00142798 0.000976528)
(0.0797498 -0.00118475 0.000730696)
(0.092262 -0.00136609 0.00101838)
(0.0854038 -0.00131353 0.000940719)
(0.0783032 -0.00109659 0.00068678)
(0.0914353 -0.00124304 0.00096492)
(0.0843192 -0.00120049 0.000924406)
(0.0769651 -0.00100704 0.000663018)
(0.0906769 -0.00113009 0.00093389)
(0.0832911 -0.00108261 0.000923467)
(0.0757182 -0.000914504 0.000652158)
(0.0899758 -0.00102204 0.000920551)
(0.0823128 -0.000949327 0.000935098)
(0.0745497 -0.0008169 0.00065256)
(0.0893251 -0.000909468 0.000920594)
(0.0813816 -0.000785775 0.000956657)
(0.0734567 -0.00070349 0.000662801)
(0.0887224 -0.000781552 0.000934824)
(0.0805081 -0.000564818 0.000983349)
(0.0724428 -0.000562161 0.000681437)
(0.0881702 -0.000621976 0.000960724)
(0.0797164 -0.000203203 0.00100482)
(0.0715357 -0.000355126 0.000693756)
(0.0876815 -0.000399679 0.000993231)
(0.0789861 0.000425684 0.00102307)
(0.0708274 5.76382e-05 0.000626729)
(0.0872565 -3.08651e-05 0.00102534)
(0.0782453 0.00169858 0.000855868)
(0.0705435 0.000883107 0.000428379)
(0.0868839 0.000565728 0.00107854)
(0.0695423 0.00341207 -0.00104843)
(0.0863948 0.00174545 0.000889105)
(0.0984572 -0.00247641 0.00172991)
(0.0973536 -0.00106247 -0.00148428)
(0.100049 -0.00105638 0.000750978)
(0.0958349 -0.00314796 0.00243271)
(0.0930873 -0.00326895 0.00253349)
(0.0982937 -0.00280915 0.0021615)
(0.0914501 -0.00223015 0.00186936)
(0.0848642 -0.00163576 0.00179239)
(0.0963041 -0.0024425 0.00199786)
(0.0875956 -0.00167426 0.00150556)
(0.0786284 -0.00107336 0.00122145)
(0.0936671 -0.00198043 0.00172707)
(0.0841483 -0.00143942 0.00127593)
(0.0740537 -0.00078507 0.000865277)
(0.0909052 -0.00171922 0.00149807)
(0.0811889 -0.00126435 0.00102932)
(0.0704436 -0.000650073 0.000669639)
(0.0884353 -0.00145381 0.0012124)
(0.0787029 -0.00110833 0.000794999)
(0.0674934 -0.000545974 0.000509233)
(0.0863064 -0.00118229 0.000909829)
(0.0765594 -0.000988929 0.000627006)
(0.0650536 -0.00046752 0.000388636)
(0.0844831 -0.000980859 0.000692695)
(0.0746554 -0.000899753 0.000521334)
(0.0629706 -0.000412924 0.000309801)
(0.0828844 -0.000841511 0.000551987)
(0.0729304 -0.000821955 0.000458354)
(0.0611391 -0.000368904 0.000258261)
(0.081455 -0.000738373 0.00046116)
(0.0713484 -0.000744106 0.000422312)
(0.0595002 -0.000328205 0.000225374)
(0.0801631 -0.00065183 0.000401611)
(0.0698886 -0.000664643 0.000401761)
(0.058021 -0.000288967 0.00020469)
(0.0789837 -0.000573685 0.000361392)
(0.0685368 -0.00058702 0.000392674)
(0.0566776 -0.0002514 0.000191378)
(0.0778988 -0.000503969 0.000335787)
(0.0672806 -0.000505442 0.000393468)
(0.0554491 -0.000214734 0.000184287)
(0.0769027 -0.000441732 0.000324389)
(0.0661245 -0.000406165 0.000401691)
(0.0543337 -0.00017107 0.000181122)
(0.0759992 -0.000371346 0.000319818)
(0.0650839 -0.000263499 0.000405629)
(0.0533382 -0.000114114 0.00018157)
(0.0751953 -0.000283784 0.000321335)
(0.0642319 -1.18368e-06 0.000341051)
(0.0524943 -3.72689e-05 0.00017976)
(0.0745193 -0.000150383 0.000316152)
(0.0638429 0.000530781 0.000117353)
(0.0519772 0.000137556 0.000121092)
(0.074059 0.00012637 0.000207451)
(0.0646035 0.00220978 -0.00113495)
(0.0522994 0.000501249 -5.38831e-05)
(0.0739577 0.000771123 -0.000221152)
(0.0510882 0.0033198 -0.00239774)
(0.0734721 0.00303612 -0.00247016)
(0.0993441 0.00341902 -0.00341901)
(0.0973536 0.00148428 0.00106248)
(0.0834792 -0.00197583 0.00197588)
(0.0930873 -0.00253347 0.00326899)
(0.0745173 -0.00195865 0.00195874)
(0.0848642 -0.00179234 0.00163585)
(0.0685482 -0.00115898 0.00115913)
(0.0786284 -0.00122136 0.00107352)
(0.0642369 -0.000696803 0.000697038)
(0.0740538 -0.000865154 0.000785349)
(0.060758 -0.000494512 0.000494916)
(0.0704437 -0.000669433 0.000650529)
(0.0579394 -0.000374363 0.000375025)
(0.0674937 -0.000508864 0.000546822)
(0.0556173 -0.000287244 0.000288303)
(0.0650541 -0.000388093 0.000468955)
(0.05363 -0.000225821 0.000227556)
(0.0629714 -0.000308943 0.000415339)
(0.0518882 -0.000181307 0.000184142)
(0.0611404 -0.000256874 0.000372934)
(0.0503431 -0.000148239 0.000152794)
(0.0595025 -0.000223002 0.000334845)
(0.0489639 -0.000121938 0.000129216)
(0.058025 -0.000200962 0.000299777)
(0.0477256 -9.82407e-05 0.000110299)
(0.0566842 -0.000186548 0.000269132)
(0.0466071 -7.38847e-05 9.42846e-05)
(0.0554599 -0.000176289 0.000244277)
(0.0456137 -4.50555e-05 7.99558e-05)
(0.054352 -0.000167058 0.00022028)
(0.0447653 -1.54319e-05 6.83857e-05)
(0.0533701 -0.000156116 0.000196573)
(0.0441032 5.20931e-05 4.18883e-05)
(0.0525529 -0.000144114 0.000169999)
(0.0440124 0.000194605 -3.20039e-05)
(0.0520873 -4.53315e-05 9.48042e-05)
(0.0451828 0.00142623 -0.00112066)
(0.0525212 0.00014316 -8.42039e-05)
(0.0509743 0.00189904 -0.00190739)
(0.0984572 0.00172991 0.0024764)
(0.100049 0.000750978 0.00105638)
(0.0996871 0.000345485 0.000439212)
(0.0958349 0.0024327 0.00314795)
(0.0982937 0.0021615 0.00280914)
(0.0978161 0.00228231 0.00273269)
(0.0914501 0.00186935 0.00223014)
(0.0963041 0.00199786 0.00244249)
(0.095496 0.00230318 0.00300152)
(0.0875956 0.00150555 0.00167425)
(0.0936671 0.00172707 0.00198043)
(0.0926193 0.00183886 0.00229902)
(0.0841484 0.00127593 0.0014394)
(0.0909052 0.00149806 0.00171922)
(0.0897677 0.00153582 0.00189127)
(0.0811889 0.00102932 0.00126433)
(0.0884354 0.00121239 0.0014538)
(0.0872327 0.00129508 0.00165533)
(0.0787029 0.000794992 0.00110831)
(0.0863064 0.000909822 0.00118228)
(0.0850075 0.00107796 0.00149005)
(0.0765594 0.000626998 0.000988905)
(0.0844832 0.000692686 0.000980848)
(0.0830622 0.000914736 0.00136821)
(0.0746555 0.000521324 0.000899723)
(0.0828845 0.000551975 0.000841497)
(0.0813268 0.000804114 0.00127293)
(0.0729305 0.000458345 0.000821919)
(0.0814551 0.000461146 0.000738355)
(0.0797499 0.000730689 0.00118472)
(0.0713486 0.000422303 0.000744062)
(0.0801632 0.000401596 0.000651808)
(0.0783033 0.000686773 0.00109655)
(0.0698889 0.000401748 0.000664586)
(0.0789839 0.00036137 0.000573657)
(0.0769653 0.000663007 0.001007)
(0.0685371 0.000392642 0.000586947)
(0.0778991 0.000335716 0.000503894)
(0.0757185 0.000652148 0.000914466)
(0.0672811 0.000393412 0.000505382)
(0.076903 0.00032431 0.00044168)
(0.07455 0.000652513 0.000816837)
(0.0661252 0.000401627 0.000406122)
(0.0759998 0.000319767 0.000371379)
(0.0734573 0.000662708 0.000703401)
(0.0650848 0.000405554 0.000263441)
(0.075196 0.000321238 0.000283766)
(0.0724435 0.00068132 0.000562048)
(0.0642331 0.000340956 1.11595e-06)
(0.0745202 0.00031602 0.000150329)
(0.0715367 0.000693598 0.000354978)
(0.0638445 0.00011721 -0.000530834)
(0.0740601 0.000207285 -0.000126435)
(0.0708287 0.0006265 -5.77984e-05)
(0.0646055 -0.00113517 -0.00220971)
(0.0739591 -0.000221361 -0.000771161)
(0.0705454 0.000428005 -0.000883245)
(0.073474 -0.00247055 -0.00303612)
(0.069545 -0.00104892 -0.00341201)
(0.10008 0.00135176 0.00135173)
(0.100186 0.000798755 0.000804941)
(0.100186 0.000804954 0.00079874)
(0.100264 0.00221726 0.00221719)
(0.10019 0.00231181 0.00207143)
(0.10019 0.00207147 0.00231176)
(0.0993831 0.00243568 0.00243555)
(0.100307 0.00263361 0.00245297)
(0.100307 0.00245307 0.00263353)
(0.0979844 0.00231016 0.00230995)
(0.0998053 0.00256025 0.00245579)
(0.0998052 0.00245596 0.0025601)
(0.0964957 0.00200622 0.00200585)
(0.0988632 0.00236426 0.00228076)
(0.0988631 0.00228103 0.00236402)
(0.0950739 0.00159721 0.00159659)
(0.0978416 0.00204893 0.00196797)
(0.0978414 0.00196839 0.00204851)
(0.0937775 0.0012266 0.00122558)
(0.0968628 0.00169106 0.00160452)
(0.0968624 0.0016052 0.00169038)
(0.0926215 0.000962446 0.000960732)
(0.0959619 0.00140416 0.00132122)
(0.0959613 0.00132235 0.00140303)
(0.0916005 0.000778477 0.000775593)
(0.095152 0.00119083 0.00111817)
(0.095151 0.00112008 0.00118891)
(0.0906993 0.000646737 0.000641814)
(0.0944325 0.00103059 0.000971286)
(0.0944308 0.000974485 0.00102736)
(0.0898986 0.000548941 0.00054084)
(0.0937994 0.000906869 0.000863197)
(0.0937966 0.00086866 0.000901503)
(0.0891793 0.000475636 0.000463259)
(0.0932396 0.000808745 0.000783321)
(0.0932351 0.000792232 0.000800148)
(0.0885328 0.000421193 0.00040166)
(0.0927416 0.000727753 0.000723651)
(0.0927346 0.000737554 0.000714358)
(0.0879646 0.000375187 0.00034312)
(0.0923075 0.000655582 0.000674553)
(0.0922969 0.000697678 0.000634118)
(0.087484 0.000327804 0.00027537)
(0.0919435 0.000580076 0.000625653)
(0.0919276 0.000664141 0.000546058)
(0.0871089 0.000270742 0.000184853)
(0.0916561 0.000492132 0.000568189)
(0.0916335 0.000632493 0.000439318)
(0.0868609 0.000162265 2.56435e-05)
(0.0914568 0.000368982 0.000481558)
(0.0914279 0.0005908 0.000289484)
(0.0866708 -0.000126964 -0.000330392)
(0.0913316 0.000157363 0.000318098)
(0.0913053 0.000496408 4.62412e-05)
(0.0861959 -0.000960647 -0.00124267)
(0.0911443 -0.000216019 -1.72505e-05)
(0.0911529 0.000251835 -0.000346532)
(0.0912512 -0.000849585 -0.00075554)
(0.0912917 -0.000407991 -0.000926402)
(0.100171 0.00136865 0.00141639)
(0.100118 0.000577389 0.000811301)
(0.100102 0.000699754 0.000700668)
(0.100759 0.00219483 0.00214899)
(0.100478 0.00158279 0.00185873)
(0.100477 0.0018225 0.00186457)
(0.100996 0.00247681 0.00238781)
(0.101004 0.00205862 0.00224245)
(0.101024 0.00234669 0.00238279)
(0.100838 0.00247605 0.00238895)
(0.101292 0.00220326 0.00235198)
(0.101338 0.00250581 0.00254346)
(0.100458 0.00231128 0.00222463)
(0.101309 0.00216702 0.002322)
(0.101409 0.00245039 0.00247202)
(0.0999684 0.00205606 0.00196797)
(0.101157 0.00201025 0.00217867)
(0.101302 0.0022644 0.00227012)
(0.0994447 0.00178947 0.0016996)
(0.100927 0.00179268 0.0019684)
(0.101099 0.00200861 0.00199814)
(0.0989358 0.00156128 0.00148309)
(0.100665 0.00158161 0.00176571)
(0.100856 0.00176924 0.00175703)
(0.0984684 0.00137446 0.00132079)
(0.10041 0.0013919 0.00159048)
(0.100609 0.00156732 0.00156283)
(0.0980541 0.00121932 0.00120018)
(0.100175 0.00122332 0.00144605)
(0.100383 0.0013992 0.00140836)
(0.0976938 0.00108893 0.00111302)
(0.0999694 0.00107874 0.00134133)
(0.10019 0.00125915 0.00128671)
(0.0973854 0.000976439 0.00105105)
(0.0997958 0.000954456 0.00126883)
(0.100034 0.00114167 0.00119162)
(0.0971281 0.000872609 0.0010045)
(0.0996526 0.000842156 0.00121988)
(0.0999156 0.00104068 0.00111589)
(0.0969232 0.000767285 0.00096669)
(0.0995398 0.000731674 0.00118721)
(0.0998375 0.000947509 0.00105089)
(0.0967733 0.000648406 0.000931032)
(0.0994585 0.000610057 0.00116826)
(0.0998019 0.000854082 0.000990836)
(0.0966816 0.000495326 0.000882723)
(0.0994103 0.000465402 0.00115779)
(0.0998105 0.000748616 0.000925555)
(0.0966463 0.000278752 0.000802518)
(0.0993934 0.000275004 0.00114739)
(0.0998624 0.000612168 0.0008398)
(0.0966234 -4.0479e-05 0.000669538)
(0.0993937 1.1665e-05 0.00113057)
(0.0999418 0.000420334 0.000716423)
(0.0965173 -0.000517902 0.000463597)
(0.0993655 -0.000356643 0.00110254)
(0.100002 0.000140935 0.000542078)
(0.0994859 -0.000851882 0.00107885)
(0.100211 -0.000232619 0.000374845)
(0.100242 0.000820114 0.00125612)
(0.10009 0.000294306 0.00073535)
(0.100071 0.000415647 0.000602761)
(0.100828 0.00139043 0.0019393)
(0.100491 0.000791895 0.001684)
(0.100492 0.00112433 0.00158694)
(0.101392 0.00166324 0.00218217)
(0.101086 0.00107756 0.00208335)
(0.101128 0.00154067 0.002094)
(0.101816 0.00176074 0.00226107)
(0.101664 0.00120405 0.00217895)
(0.101767 0.00173244 0.00229403)
(0.10208 0.00175465 0.00226195)
(0.102121 0.00123925 0.00222199)
(0.102291 0.00178944 0.00236701)
(0.102215 0.00166695 0.00217675)
(0.102451 0.00120113 0.00221025)
(0.102711 0.00174311 0.00232162)
(0.102265 0.00153157 0.00204168)
(0.102679 0.00111713 0.00212662)
(0.103037 0.00162497 0.0022017)
(0.102276 0.00137837 0.00188579)
(0.10284 0.00101527 0.00200604)
(0.103287 0.00147741 0.0020491)
(0.102273 0.00122377 0.00173156)
(0.102964 0.0009132 0.00187135)
(0.103493 0.00132416 0.00188983)
(0.102268 0.0010807 0.00160537)
(0.103066 0.000816188 0.00174638)
(0.10367 0.00117925 0.0017456)
(0.102266 0.000954588 0.00151746)
(0.103157 0.000725754 0.00164743)
(0.103831 0.00105066 0.00163283)
(0.102271 0.000840004 0.00145989)
(0.103247 0.000641248 0.00157388)
(0.103987 0.000937573 0.00154765)
(0.102284 0.000728182 0.00142674)
(0.103332 0.000558877 0.00153078)
(0.104142 0.000833017 0.00148579)
(0.102305 0.00060767 0.00141531)
(0.103411 0.00047323 0.00151769)
(0.104299 0.00073035 0.0014439)
(0.102334 0.000466775 0.00142483)
(0.103482 0.00037407 0.00152861)
(0.104462 0.000619963 0.00141962)
(0.102367 0.0002912 0.00145706)
(0.103546 0.000253362 0.0015712)
(0.104631 0.000494077 0.00141215)
(0.102396 5.99036e-05 0.00151726)
(0.103591 9.56795e-05 0.00165548)
(0.104804 0.000338785 0.00142352)
(0.102407 -0.000244902 0.00161666)
(0.103609 -0.000112172 0.00179481)
(0.104977 0.000139919 0.0014591)
(0.102373 -0.000600377 0.00179186)
(0.103588 -0.000385003 0.00199488)
(0.105145 -0.000109553 0.00152891)
(0.103774 -0.000686406 0.00228443)
(0.105438 -0.00037168 0.00167778)
(0.100243 0.000267375 0.0011624)
(0.100087 -1.69351e-08 0.000707019)
(0.100064 0.000135793 0.000537324)
(0.100782 0.000465665 0.00182622)
(0.100477 -4.8235e-08 0.00161779)
(0.100463 0.000370843 0.00142412)
(0.101401 0.0005754 0.00207618)
(0.101066 -8.20574e-08 0.00203466)
(0.101089 0.00052509 0.00193355)
(0.101987 0.000622696 0.00213412)
(0.101694 -1.37513e-07 0.00211772)
(0.101797 0.000605752 0.00212862)
(0.102506 0.000630768 0.00216555)
(0.102268 -2.3062e-07 0.00215058)
(0.102489 0.000639104 0.00221117)
(0.102934 0.000609749 0.00215801)
(0.102741 -3.72696e-07 0.00218066)
(0.103119 0.000633842 0.00224206)
(0.103276 0.000570334 0.00209105)
(0.103123 -5.85848e-07 0.00213555)
(0.103686 0.00060039 0.00219766)
(0.103552 0.000523811 0.00199302)
(0.103426 -9.25989e-07 0.00204684)
(0.104184 0.000553995 0.00210761)
(0.103784 0.000477891 0.00188829)