/*--------------------------------*- C++ -*----------------------------------*\
| =========                 |                                                 |
| \\      /  F ield         | OpenFOAM: The Open Source CFD Toolbox           |
|  \\    /   O peration     | Version:  2212                                  |
|   \\  /    A nd           | Website:  www.openfoam.com                      |
|    \\/     M anipulation  |                                                 |
\*---------------------------------------------------------------------------*/
FoamFile
{
    version     2.0;
    format      ascii;
    arch        "LSB;label=32;scalar=64";
    class       surfaceVectorField;
    location    "1.95";
    object      Uf;
}
// * * * * * * * * * * * * * * * * * * * * * * * * * * * * * * * * * * * * * //

dimensions      [0 1 -1 0 0 0 0];

internalField   nonuniform List<vector> 
1763
(
(0.0217741 -9.25838e-06 2.77584e-05)
(0.027927 -8.03893e-05 3.55298e-05)
(0.021579 -9.71064e-06 2.44367e-05)
(0.0276734 -7.61013e-05 3.09681e-05)
(0.0268383 2.26391e-06 4.05792e-05)
(0.0213892 -1.2665e-05 2.00685e-05)
(0.0274399 -7.4439e-05 2.49853e-05)
(0.0266205 -9.50292e-07 3.77351e-05)
(0.0211948 -1.56802e-05 1.36724e-05)
(0.0271965 -7.54656e-05 1.69284e-05)
(0.026395 -7.53739e-06 3.48195e-05)
(0.0209911 -2.15798e-05 7.1979e-06)
(0.0269925 -7.4587e-05 9.3577e-06)
(0.026207 -1.81145e-05 2.7601e-05)
(0.0265833 -7.8616e-05 -3.7816e-06)
(0.0258307 -2.83035e-05 2.50679e-05)
(0.0368411 -0.000160158 2.53292e-05)
(0.0433295 -0.000242911 -2.01484e-05)
(0.0500109 -0.000191946 7.49206e-05)
(0.0365289 -0.000151046 1.63872e-05)
(0.042935 -0.000226783 -2.94155e-05)
(0.0496215 -0.000186311 6.98307e-05)
(0.0362256 -0.000147929 6.96683e-06)
(0.0425652 -0.000214828 -3.80178e-05)
(0.0492556 -0.00018916 6.47419e-05)
(0.0359196 -0.000143971 -2.68931e-06)
(0.0421894 -0.000208779 -4.48447e-05)
(0.0488867 -0.000196952 5.77517e-05)
(0.0356258 -0.000145365 -1.41501e-05)
(0.0418711 -0.000192222 -5.31437e-05)
(0.048579 -0.00020002 4.94288e-05)
(0.0412993 -0.000200088 -5.59792e-05)
(0.0480239 -0.000220309 3.70675e-05)
(0.05096 -0.000340934 -7.40034e-05)
(0.050498 -0.000322751 -8.09279e-05)
(0.0545865 -0.000441735 -0.000136541)
(0.067795 -0.000486949 -3.14992e-05)
(0.0500465 -0.000305901 -8.70437e-05)
(0.0540958 -0.000416995 -0.000138307)
(0.0673877 -0.000477519 -3.35431e-05)
(0.0496047 -0.000285557 -9.18982e-05)
(0.0536045 -0.000391222 -0.000137145)
(0.0669691 -0.000472588 -3.50499e-05)
(0.0491784 -0.00027078 -9.34267e-05)
(0.0531936 -0.000355916 -0.00013477)
(0.0666183 -0.000457783 -3.75038e-05)
(0.0525028 -0.000335043 -0.000125599)
(0.0660154 -0.000446865 -3.8592e-05)
(0.0587191 -0.00054874 -0.000204273)
(0.0611235 -0.000683347 -0.000272974)
(0.0773403 -0.00074363 -0.000189502)
(0.0581921 -0.000514557 -0.000197124)
(0.0605709 -0.000628119 -0.000257358)
(0.0769482 -0.000724802 -0.00017789)
(0.0576835 -0.000472356 -0.000187892)
(0.0600299 -0.000568273 -0.000241318)
(0.076552 -0.000704508 -0.000165203)
(0.0571973 -0.000429057 -0.000173886)
(0.0595818 -0.000504824 -0.000222755)
(0.0762163 -0.000673945 -0.000151906)
(0.0588515 -0.000445959 -0.000198299)
(0.0756593 -0.000626618 -0.000134613)
(0.0631342 -0.000767751 -0.000335034)
(0.0819432 -0.000957718 -0.000312775)
(0.0625742 -0.000684876 -0.000310381)
(0.0633116 -0.000712782 -0.000355975)
(0.0815724 -0.00090774 -0.000292699)
(0.0620474 -0.000603046 -0.000283302)
(0.0627715 -0.000621563 -0.000325212)
(0.0812096 -0.000856087 -0.000270902)
(0.0615526 -0.000524127 -0.000251425)
(0.062316 -0.000539129 -0.000289661)
(0.0809004 -0.000799254 -0.000245491)
(0.0615957 -0.000461443 -0.000247535)
(0.0804018 -0.000721334 -0.000214197)
(0.0635289 -0.000651581 -0.000366042)
(0.0625055 -0.000564689 -0.000338796)
(0.0824785 -0.000879581 -0.000354796)
(0.0630162 -0.000559349 -0.000327312)
(0.0619992 -0.000504355 -0.000313911)
(0.0821554 -0.000815136 -0.00033423)
(0.0625366 -0.000477099 -0.000283578)
(0.0615537 -0.000448945 -0.000277645)
(0.0818756 -0.000751114 -0.000308096)
(0.0608622 -0.000389186 -0.000231741)
(0.0814344 -0.000676987 -0.000273736)
(0.0610116 -0.000421895 -0.000282064)
(0.0582065 -0.00036361 -0.000235052)
(0.0800804 -0.000640544 -0.00035232)
(0.0605315 -0.000397617 -0.000259488)
(0.057736 -0.00035067 -0.000220659)
(0.0797847 -0.000619234 -0.000348248)
(0.0600693 -0.000363904 -0.000221738)
(0.0573175 -0.00032725 -0.000189723)
(0.079521 -0.00058904 -0.000331045)
(0.0566744 -0.000293148 -0.000160145)
(0.07911 -0.000533446 -0.000296818)
(0.0551471 -0.000299636 -0.000164359)
(0.0505598 -0.000239661 -0.000120674)
(0.0742708 -0.000444638 -0.000332216)
(0.0546988 -0.000286358 -0.000145146)
(0.0501493 -0.000233494 -0.000108608)
(0.0739507 -0.000433834 -0.000325819)
(0.0542752 -0.000261371 -0.000125675)
(0.04979 -0.000210933 -8.98404e-05)
(0.0736697 -0.000413519 -0.000313027)
(0.0492218 -0.000192934 -9.49114e-05)
(0.0732275 -0.000383725 -0.000300376)
(0.0461576 -0.000178934 -9.26697e-05)
(0.0396555 -0.000119013 -6.22388e-05)
(0.0640637 -0.000262174 -0.000289543)
(0.0457937 -0.000163772 -7.90759e-05)
(0.0393398 -0.000115036 -5.84562e-05)
(0.0637058 -0.000256801 -0.000285301)
(0.0454517 -0.000148204 -7.77193e-05)
(0.0390717 -9.97185e-05 -5.19289e-05)
(0.0633877 -0.000242049 -0.000280317)
(0.0385929 -9.91383e-05 -6.89725e-05)
(0.062865 -0.000238674 -0.000291717)
(0.0344311 -6.87496e-05 -8.11697e-06)
(0.02683 -4.28562e-05 2.29997e-06)
(0.0341621 -6.66504e-05 -9.25586e-06)
(0.0265993 -4.08621e-05 2.68398e-06)
(0.0480859 -8.95813e-05 -0.000130137)
(0.0338952 -6.1592e-05 -1.70969e-05)
(0.0263703 -3.92781e-05 -2.68691e-06)
(0.0477335 -9.13651e-05 -0.000138018)
(0.0336419 -5.99286e-05 -3.41415e-05)
(0.0261802 -3.23682e-05 -1.3817e-05)
(0.0474349 -8.65285e-05 -0.000150205)
(0.0257844 -2.972e-05 -2.62789e-05)
(0.0469064 -9.09984e-05 -0.000176768)
(0.0215698 -2.70543e-05 -8.54744e-06)
(0.0276767 -3.26857e-05 -7.61594e-05)
(0.0213797 -2.51616e-05 -1.01394e-05)
(0.0274315 -3.08203e-05 -7.40247e-05)
(0.021181 -2.04512e-05 -1.28247e-05)
(0.0271826 -2.74793e-05 -7.49011e-05)
(0.0209687 -1.33019e-05 -1.94136e-05)
(0.0269735 -2.19479e-05 -7.41186e-05)
(0.0265424 -7.26026e-06 -7.92164e-05)
(0.0344604 -6.98952e-06 6.52379e-05)
(0.0484576 -0.000135476 9.03617e-05)
(0.0341989 -1.22028e-05 6.4143e-05)
(0.0481137 -0.000138078 9.00177e-05)
(0.0396987 -5.31495e-05 0.000111981)
(0.0339369 -2.24732e-05 5.99239e-05)
(0.0477696 -0.000145953 8.99485e-05)
(0.0393927 -5.39162e-05 0.000107989)
(0.0336886 -3.76242e-05 5.71099e-05)
(0.0474842 -0.00015404 8.09162e-05)
(0.0391334 -5.24469e-05 9.54652e-05)
(0.046975 -0.000173791 7.99037e-05)
(0.0386696 -6.7952e-05 9.45446e-05)
(0.0661471 -0.000313678 0.000136232)
(0.0656967 -0.000314933 0.000135622)
(0.0760692 -0.000525527 9.47074e-05)
(0.074879 -0.000439962 0.000249233)
(0.0652567 -0.000316577 0.000133088)
(0.0756665 -0.00052106 9.28249e-05)
(0.0744803 -0.000436916 0.00025035)
(0.0648324 -0.000320775 0.000127264)
(0.075256 -0.000516449 8.86354e-05)
(0.0740725 -0.000438014 0.000249462)
(0.0644141 -0.000331166 0.000117583)
(0.0749177 -0.000512927 8.27467e-05)
(0.0737367 -0.000439835 0.00024247)
(0.074335 -0.000498455 7.21483e-05)
(0.0731665 -0.00043129 0.000220623)
(0.0876691 -0.000743891 1.98546e-05)
(0.0927698 -0.000873672 -7.41466e-05)
(0.096638 -0.000927895 0.000153698)
(0.0873104 -0.000738431 2.37565e-05)
(0.0924745 -0.000865405 -6.29238e-05)
(0.0964442 -0.000921432 0.000158327)
(0.0869483 -0.000729916 2.58103e-05)
(0.0921627 -0.000858676 -5.3323e-05)
(0.0962328 -0.000911971 0.000163279)
(0.0865832 -0.000703003 2.47353e-05)
(0.0918967 -0.000843737 -4.38676e-05)
(0.0960495 -0.000896165 0.000163288)
(0.0914422 -0.00078401 -3.66486e-05)
(0.0957263 -0.000825571 0.000148546)
(0.0980685 -0.00100444 -0.000170483)
(0.100353 -0.00109307 -0.000232098)
(0.106586 -0.00116252 -8.29487e-05)
(0.0978319 -0.000995561 -0.000151646)
(0.100164 -0.00107625 -0.000211759)
(0.106532 -0.0011497 -6.6625e-05)
(0.0975897 -0.000982605 -0.000133265)
(0.0999651 -0.00106288 -0.000192324)
(0.106472 -0.00113476 -4.93392e-05)
(0.0973464 -0.000934175 -0.00011405)
(0.0997833 -0.00103374 -0.000172193)
(0.106415 -0.00110515 -3.35509e-05)
(0.0994817 -0.00094858 -0.000148233)
(0.106307 -0.00101374 -1.82061e-05)
(0.10257 -0.0011668 -0.000280663)
(0.102987 -0.0011524 -0.000317412)
(0.110825 -0.00128132 -0.00024534)
(0.102421 -0.00114404 -0.000261693)
(0.102874 -0.00113058 -0.00030706)
(0.110855 -0.00125693 -0.000228209)
(0.102265 -0.00111418 -0.00024016)
(0.102751 -0.00110448 -0.00029242)
(0.110882 -0.00122927 -0.000209171)
(0.102107 -0.00104914 -0.000212768)
(0.102635 -0.00106223 -0.000273109)
(0.110898 -0.00118486 -0.000187104)
(0.102444 -0.000981025 -0.000247101)
(0.110907 -0.00107801 -0.000157355)
(0.103301 -0.00111965 -0.000335604)
(0.102259 -0.00101002 -0.000367937)
(0.11159 -0.00119597 -0.000369348)
(0.103212 -0.00109348 -0.00033191)
(0.10218 -0.00099524 -0.000376215)
(0.111674 -0.00117219 -0.00036358)
(0.103116 -0.00105344 -0.000322894)
(0.10209 -0.000967789 -0.000377755)
(0.111751 -0.00113551 -0.000354125)
(0.103019 -0.000994691 -0.000305921)
(0.102012 -0.000926872 -0.000371141)
(0.111821 -0.00108248 -0.000337997)
(0.101882 -0.00085735 -0.000351974)
(0.111909 -0.000989747 -0.000310023)
(0.101159 -0.000883653 -0.000419162)
(0.109778 -0.000930158 -0.000527663)
(0.101077 -0.000868475 -0.000429763)
(0.0983549 -0.000740973 -0.00048098)
(0.109871 -0.000915812 -0.000534478)
(0.100995 -0.000840549 -0.000432186)
(0.0982293 -0.000723721 -0.00048568)
(0.109958 -0.000890422 -0.000534437)
(0.100918 -0.000789584 -0.000421067)
(0.0981212 -0.000701281 -0.000489257)
(0.11004 -0.000852711 -0.000525892)
(0.0979374 -0.000650802 -0.000468398)
(0.110147 -0.000774911 -0.000494892)
(0.0956514 -0.000606484 -0.000521829)
(0.0900531 -0.000493098 -0.000532432)
(0.105091 -0.000634906 -0.000720151)
(0.0954882 -0.000594398 -0.000527216)
(0.0897944 -0.000486364 -0.000537093)
(0.1051 -0.000621357 -0.000719564)
(0.0953214 -0.000571058 -0.000523355)
(0.0895617 -0.000480954 -0.000547409)
(0.105111 -0.000604986 -0.000717419)
(0.0891734 -0.000455766 -0.000531917)
(0.105103 -0.000551179 -0.000676605)
(0.0847165 -0.000384357 -0.000541549)
(0.074451 -0.000248834 -0.000433645)
(0.0950696 -0.000384641 -0.00080848)
(0.0843699 -0.000383838 -0.000550465)
(0.0740485 -0.000251052 -0.000436712)
(0.0948733 -0.000381558 -0.000807991)
(0.0840154 -0.000375194 -0.000552974)
(0.0736931 -0.000251452 -0.000442138)
(0.0946955 -0.000374585 -0.000802323)
(0.0731097 -0.000239859 -0.000443798)
(0.09439 -0.00034242 -0.000759721)
(0.0652365 -0.000136368 -0.000307964)
(0.0492456 -7.01526e-05 -0.000181416)
(0.0756465 -0.000101776 -0.000515863)
(0.0647922 -0.000138491 -0.00031992)
(0.0488655 -6.99632e-05 -0.000189759)
(0.0752406 -0.000104482 -0.000517317)
(0.0643562 -0.000134731 -0.000336505)
(0.0485405 -6.60633e-05 -0.000196299)
(0.0748825 -0.000100864 -0.000516587)
(0.0479628 -5.59462e-05 -0.000224029)
(0.0742867 -9.34172e-05 -0.000510524)
(0.0365315 -2.35678e-05 -0.000154574)
(0.0429589 2.42988e-05 -0.000228111)
(0.0362186 -2.07139e-05 -0.000151702)
(0.0425678 2.22984e-05 -0.000224929)
(0.0359 -1.482e-05 -0.00014529)
(0.0421812 2.32654e-05 -0.000218765)
(0.0355958 -4.3601e-06 -0.00014627)
(0.0418487 3.09041e-05 -0.00019575)
(0.041256 3.46572e-05 -0.00020254)
(0.0462137 -7.68685e-05 0.000166334)
(0.0641116 -0.000281587 0.000252201)
(0.0506138 -0.000103712 0.000229936)
(0.0458661 -6.93868e-05 0.000153204)
(0.0637502 -0.000282269 0.000250194)
(0.0502109 -9.1564e-05 0.000219997)
(0.0455336 -7.39774e-05 0.000141812)
(0.0634466 -0.000280125 0.000238525)
(0.0498715 -8.12926e-05 0.000200481)
(0.0629317 -0.000282695 0.000228051)
(0.049312 -9.18304e-05 0.000185852)
(0.0851014 -0.000544865 0.000384613)
(0.0952807 -0.000807038 0.000376661)
(0.084752 -0.000553089 0.000387002)
(0.0950916 -0.000811151 0.000378358)
(0.0900886 -0.000536034 0.000484601)
(0.0843965 -0.000557989 0.000384817)
(0.0948832 -0.000812532 0.000375779)
(0.0898165 -0.000545833 0.000485216)
(0.084041 -0.000544977 0.000364491)
(0.0947027 -0.000803746 0.00036681)
(0.0895804 -0.000549564 0.000477945)
(0.0943938 -0.000744061 0.000325275)
(0.089192 -0.000517916 0.000436731)
(0.106465 -0.00106804 0.000317135)
(0.110963 -0.00115845 0.000176347)
(0.110641 -0.00098412 0.000453653)
(0.106442 -0.0010699 0.000321028)
(0.111023 -0.00115629 0.000184627)
(0.110731 -0.000993089 0.000452894)
(0.106405 -0.00106426 0.000322246)
(0.111076 -0.00115154 0.000195357)
(0.110813 -0.000996591 0.000451111)
(0.106359 -0.0010163 0.000305825)
(0.111111 -0.00112997 0.000201811)
(0.110876 -0.000985738 0.000442203)
(0.111151 -0.00104857 0.000187423)
(0.110955 -0.000913631 0.000405324)
(0.11587 -0.00126032 4.45704e-05)
(0.117714 -0.00129322 -6.44246e-05)
(0.119602 -0.00112432 0.0001621)
(0.11601 -0.00124941 5.71864e-05)
(0.117893 -0.0012823 -5.16943e-05)
(0.119838 -0.00111991 0.0001684)
(0.116146 -0.00122574 6.96529e-05)
(0.118073 -0.00126258 -3.68452e-05)
(0.120076 -0.00111195 0.000176079)
(0.116278 -0.00116932 7.71938e-05)
(0.118226 -0.00122458 -2.28019e-05)
(0.120284 -0.00108804 0.000181345)
(0.118449 -0.00113766 -1.25939e-05)
(0.120583 -0.00102408 0.000178058)
(0.11982 -0.00131469 -0.00016855)
(0.120111 -0.00125915 -0.000278419)
(0.123428 -0.00114096 -8.39058e-05)
(0.120038 -0.00129438 -0.000154334)
(0.120353 -0.00124251 -0.000269341)
(0.123727 -0.00112827 -7.53523e-05)
(0.120253 -0.00126023 -0.000137547)
(0.120595 -0.00121498 -0.000256179)
(0.124027 -0.00110861 -6.49003e-05)
(0.12046 -0.00119218 -0.000119237)
(0.120808 -0.0011693 -0.000238482)
(0.124293 -0.00107471 -5.33991e-05)
(0.121117 -0.00107779 -0.000216548)
(0.124674 -0.00100619 -4.23496e-05)
(0.120649 -0.00118896 -0.000374021)
(0.119801 -0.00105947 -0.000497296)
(0.124311 -0.00100018 -0.000330574)
(0.120913 -0.00116493 -0.000366389)
(0.120072 -0.00104397 -0.000496397)
(0.124643 -0.000985196 -0.000326506)
(0.121173 -0.00112525 -0.000353649)
(0.120341 -0.0010178 -0.000491114)
(0.124974 -0.000962469 -0.000320069)
(0.121426 -0.00105561 -0.00033349)
(0.120582 -0.000975871 -0.000477865)
(0.125274 -0.000924917 -0.000308098)
(0.120928 -0.00089802 -0.000451375)
(0.125699 -0.000862593 -0.000291446)
(0.119232 -0.000913128 -0.000626907)
(0.117076 -0.000762276 -0.00077361)
(0.123028 -0.000741119 -0.000624975)
(0.119507 -0.000896152 -0.000626359)
(0.117319 -0.000754584 -0.000774454)
(0.123364 -0.000731193 -0.000626157)
(0.119778 -0.000868372 -0.000618535)
(0.117555 -0.000739654 -0.000771096)
(0.123697 -0.00071407 -0.000621541)
(0.120041 -0.000818825 -0.000596974)
(0.117767 -0.000714097 -0.000758866)
(0.123999 -0.000687354 -0.000608808)
(0.11807 -0.000658146 -0.000717233)
(0.124425 -0.000642784 -0.000582696)
(0.115248 -0.000612005 -0.000909002)
(0.110641 -0.000464024 -0.000983224)
(0.119266 -0.00045645 -0.000940647)
(0.115449 -0.00060533 -0.000909726)
(0.110741 -0.000466024 -0.000990925)
(0.11954 -0.000451623 -0.000939874)
(0.115647 -0.000591805 -0.000903646)
(0.110821 -0.000462318 -0.000991434)
(0.119807 -0.000446135 -0.000937461)
(0.115842 -0.000559362 -0.000871951)
(0.110894 -0.000450294 -0.000978607)
(0.120048 -0.000435354 -0.000924786)
(0.110981 -0.000416603 -0.0009178)
(0.120391 -0.000408568 -0.000878555)
(0.106465 -0.000326591 -0.00106841)
(0.110961 -0.000186099 -0.00115363)
(0.106444 -0.000332006 -0.00107185)
(0.0964329 -0.000167566 -0.000921681)
(0.111031 -0.000191159 -0.00115416)
(0.106413 -0.000330387 -0.00106125)
(0.0962328 -0.000174106 -0.000912876)
(0.111081 -0.000197795 -0.00114552)
(0.106377 -0.00031641 -0.00101975)
(0.0960519 -0.000175184 -0.000897382)
(0.111129 -0.000203351 -0.00112417)
(0.0957321 -0.000168416 -0.000840084)
(0.111174 -0.000196845 -0.00106095)
(0.087295 -3.36761e-05 -0.000732893)
(0.067383 1.95947e-05 -0.000484488)
(0.0924621 5.57938e-05 -0.000862135)
(0.0869397 -4.09365e-05 -0.000728707)
(0.0669695 1.38401e-05 -0.000480382)
(0.0921614 4.1657e-05 -0.000858978)
(0.0865759 -4.57143e-05 -0.000712411)
(0.0666025 1.33382e-05 -0.000460989)
(0.0918913 2.59054e-05 -0.000845577)
(0.0659885 1.33699e-05 -0.000456253)
(0.0914349 1.4201e-05 -0.000802635)
(0.0505206 6.81557e-05 -0.000329518)
(0.0546166 0.000128557 -0.000440563)
(0.0500558 6.28755e-05 -0.000323168)
(0.0541069 0.000114805 -0.000429723)
(0.0495958 6.30016e-05 -0.000300589)
(0.0536164 0.000104997 -0.00040728)
(0.0491558 6.57931e-05 -0.000278141)
(0.0531864 0.000102285 -0.0003648)
(0.0524862 9.68421e-05 -0.000338193)
(0.0552064 -0.000150024 0.000288735)
(0.0743135 -0.000320491 0.000429286)
(0.0582681 -0.000231837 0.000358514)
(0.0547656 -0.000130237 0.000272636)
(0.0739926 -0.000316697 0.000419534)
(0.0577969 -0.000209905 0.000340722)
(0.0543498 -0.000117257 0.000249927)
(0.0737149 -0.0003086 0.000403178)
(0.0573894 -0.000180403 0.00031569)
(0.0732735 -0.000293869 0.000371066)
(0.0567517 -0.000157175 0.000283663)
(0.0956758 -0.00052024 0.000593763)
(0.105096 -0.000716894 0.000620649)
(0.0983723 -0.000478568 0.000724391)
(0.0955053 -0.000532931 0.00058853)
(0.105106 -0.000725003 0.000612561)
(0.0982456 -0.000491669 0.000712276)
(0.0953303 -0.0005212 0.000559435)
(0.105105 -0.000723347 0.000597415)
(0.0981286 -0.000495781 0.000693045)
(0.105093 -0.000673209 0.000537219)
(0.0979394 -0.000463933 0.000636142)
(0.115234 -0.000907043 0.000599041)
(0.119256 -0.000938985 0.000441993)
(0.117065 -0.000773981 0.000753388)
(0.115433 -0.000912751 0.000593398)
(0.119526 -0.000941453 0.000439615)
(0.117303 -0.000777326 0.000745825)
(0.11563 -0.000909464 0.000581373)
(0.119795 -0.000942083 0.000438537)
(0.11754 -0.000777061 0.000730052)
(0.115823 -0.000877753 0.000550872)
(0.120032 -0.00093116 0.000431176)
(0.117748 -0.000765463 0.000704991)
(0.120373 -0.000882229 0.000405195)
(0.118049 -0.000719737 0.000649774)
(0.123818 -0.000985227 0.000290836)
(0.125472 -0.000976746 0.000153056)
(0.125383 -0.000816873 0.000421151)
(0.124156 -0.000981914 0.000292448)
(0.125833 -0.000969521 0.000155895)
(0.125751 -0.000812871 0.000420715)
(0.124491 -0.000972893 0.000292913)
(0.126194 -0.00096071 0.000159062)
(0.126119 -0.000806908 0.000417856)
(0.124817 -0.00094269 0.000286803)
(0.12652 -0.000940455 0.000159693)
(0.126451 -0.000790859 0.000408811)
(0.126982 -0.000894468 0.000157037)
(0.126921 -0.00075568 0.000388947)
(0.127553 -0.000958897 9.41006e-06)
(0.127837 -0.000886532 -0.000142775)
(0.129071 -0.000772324 0.000105059)
(0.127935 -0.000946177 1.42402e-05)
(0.128231 -0.000874159 -0.000138945)
(0.12948 -0.000761304 0.000108445)
(0.128313 -0.000926682 1.92403e-05)
(0.128623 -0.000859473 -0.000133944)
(0.129884 -0.000748027 0.000110676)
(0.128682 -0.000890736 2.39467e-05)
(0.128981 -0.00083395 -0.000126615)
(0.130256 -0.000725718 0.000111208)
(0.129482 -0.000790293 -0.000117306)
(0.130767 -0.000691805 0.000109297)
(0.128518 -0.000803108 -0.000287567)
(0.127752 -0.000690855 -0.000458824)
(0.13007 -0.000614533 -0.000229273)
(0.12892 -0.000788445 -0.00028432)
(0.128152 -0.000680178 -0.000457841)
(0.130492 -0.000603219 -0.000226663)
(0.129318 -0.000767141 -0.000278359)
(0.12855 -0.000665243 -0.000453552)
(0.13091 -0.000589438 -0.000222817)
(0.129705 -0.000733127 -0.000268274)
(0.128914 -0.000641117 -0.000443008)
(0.131297 -0.000567993 -0.000215577)
(0.129424 -0.000604577 -0.000426178)
(0.131825 -0.000544364 -0.000208502)
(0.12699 -0.000574714 -0.000632875)
(0.128562 -0.000402383 -0.000602409)
(0.127389 -0.000567255 -0.000632575)
(0.125392 -0.000433843 -0.000813523)
(0.128985 -0.000395848 -0.000600605)
(0.127785 -0.000556741 -0.000629326)
(0.125762 -0.000429328 -0.000810377)
(0.129399 -0.000389635 -0.000598449)
(0.128175 -0.000539497 -0.000619052)
(0.126128 -0.000421824 -0.00080495)
(0.129809 -0.000380441 -0.000591055)
(0.128556 -0.000513622 -0.000599626)
(0.126461 -0.000408776 -0.000789123)
(0.130187 -0.000365535 -0.000575678)
(0.126931 -0.000386993 -0.000756066)
(0.130706 -0.000346556 -0.00055277)
(0.123826 -0.000301788 -0.000981886)
(0.119608 -0.000173929 -0.00111671)
(0.125475 -0.000162266 -0.000972903)
(0.124166 -0.000299497 -0.000978479)
(0.119851 -0.000176246 -0.00111533)
(0.125838 -0.000161158 -0.000968528)
(0.124501 -0.000295584 -0.000968583)
(0.120085 -0.000179368 -0.0011065)
(0.126198 -0.000161028 -0.000959632)
(0.124828 -0.00028644 -0.000938955)
(0.120299 -0.000181819 -0.00108349)
(0.126524 -0.000158656 -0.000938022)
(0.120598 -0.000179156 -0.0010298)
(0.126984 -0.000154423 -0.000893904)
(0.115878 -5.28025e-05 -0.00125359)
(0.106589 7.30551e-05 -0.00115493)
(0.117718 5.67631e-05 -0.00128794)
(0.116021 -6.13906e-05 -0.00124281)
(0.106539 5.7018e-05 -0.00114894)
(0.117903 4.62373e-05 -0.00127802)
(0.116159 -7.07909e-05 -0.00122011)
(0.106476 4.07983e-05 -0.00113459)
(0.118079 3.43695e-05 -0.00125596)
(0.116292 -7.91612e-05 -0.0011736)
(0.106424 2.43909e-05 -0.00110423)
(0.11824 2.31031e-05 -0.00122157)
(0.106316 5.58714e-06 -0.00102883)
(0.118461 1.13506e-05 -0.00114977)
(0.0980694 0.000159057 -0.00100133)
(0.0773532 0.000177734 -0.00073864)
(0.100357 0.000219388 -0.00108784)
(0.0978305 0.000138333 -0.00100155)
(0.076954 0.000158005 -0.000731975)
(0.100171 0.000200512 -0.00108435)
(0.0975891 0.000117468 -0.000987075)
(0.0765638 0.00013973 -0.000713386)
(0.099965 0.00017967 -0.00107011)
(0.0973482 9.52789e-05 -0.000944921)
(0.0762205 0.0001245 -0.000677889)
(0.0997853 0.000156068 -0.00103364)
(0.0756635 0.000108211 -0.000636677)
(0.099483 0.000131119 -0.000964857)
(0.0587391 0.000184618 -0.000553801)
(0.0611522 0.000255516 -0.000687584)
(0.0582077 0.000166271 -0.000524807)
(0.0605897 0.000229262 -0.000635423)
(0.0576972 0.00015225 -0.000481476)
(0.0600639 0.000206463 -0.000573674)
(0.0572103 0.000139943 -0.000433484)
(0.0596043 0.000186574 -0.000506662)
(0.0588791 0.000166086 -0.000444168)
(0.061566 -0.000295178 0.000444749)
(0.0804152 -0.000348892 0.000651762)
(0.0631057 -0.000360784 0.000621653)
(0.0610765 -0.00028112 0.000418405)
(0.0801192 -0.00035314 0.00063403)
(0.0625761 -0.000343522 0.000567922)
(0.0605959 -0.000255022 0.000389969)
(0.0798223 -0.00034679 0.00060786)
(0.0620608 -0.000316659 0.000502701)
(0.0601351 -0.000217473 0.000354494)
(0.0795588 -0.00033011 0.000577003)
(0.0616208 -0.000278298 0.000443167)
(0.0791475 -0.000296972 0.000523478)
(0.0609301 -0.00023112 0.000382551)
(0.101165 -0.00041743 0.000871944)
(0.109777 -0.000528753 0.000921347)
(0.102258 -0.000368038 0.00100145)
(0.101084 -0.000430585 0.000854281)
(0.109869 -0.000536845 0.000904635)
(0.102181 -0.000374907 0.000981415)
(0.101004 -0.000436191 0.000827256)
(0.109955 -0.000538704 0.000878979)
(0.102093 -0.000379989 0.000957451)
(0.100924 -0.000425761 0.00077824)
(0.110035 -0.00053129 0.000842484)
(0.102013 -0.000377595 0.000919603)
(0.11014 -0.000497348 0.000764441)
(0.101882 -0.000354786 0.000842788)
(0.118947 -0.000627021 0.000918396)
(0.122675 -0.000625307 0.000738719)
(0.119517 -0.000501511 0.00106629)
(0.11922 -0.000633923 0.000908135)
(0.123018 -0.000629415 0.000731804)
(0.119793 -0.000505284 0.00105932)
(0.119491 -0.000633162 0.000889568)
(0.123352 -0.000629838 0.000724172)
(0.120061 -0.000503132 0.00104127)
(0.119761 -0.000624371 0.000860419)
(0.123684 -0.000624499 0.000708778)
(0.12033 -0.000495412 0.00101287)
(0.120025 -0.000600202 0.00080983)
(0.123986 -0.000610792 0.000683611)
(0.120569 -0.000481327 0.000971388)
(0.124412 -0.000581941 0.000639169)
(0.120914 -0.000453406 0.000893078)
(0.126978 -0.000636575 0.000560769)
(0.128556 -0.000608562 0.00038826)
(0.127338 -0.00046479 0.000688775)
(0.127379 -0.000634183 0.000557205)
(0.128979 -0.000604403 0.000386845)
(0.127744 -0.000461885 0.000685212)
(0.127776 -0.000629215 0.000551598)
(0.129395 -0.00059876 0.000385974)
(0.128143 -0.000458756 0.000679633)
(0.128167 -0.000617871 0.000538418)
(0.129806 -0.00058905 0.000380503)
(0.128541 -0.000452384 0.000666476)
(0.128549 -0.00059731 0.00051521)
(0.130185 -0.000572296 0.000368208)
(0.128905 -0.000440554 0.000643586)
(0.130704 -0.00054822 0.000350754)
(0.129412 -0.000422665 0.000607832)
(0.130619 -0.000574557 0.000206591)
(0.130911 -0.000498092 1.77671e-05)
(0.130912 -0.000371021 0.000307126)
(0.131053 -0.000567011 0.000207834)
(0.131356 -0.000491438 1.89956e-05)
(0.131354 -0.000366351 0.000309021)
(0.131483 -0.000556899 0.000208024)
(0.131793 -0.000483381 2.09943e-05)
(0.13179 -0.000361549 0.000309043)
(0.131906 -0.000542377 0.000205112)
(0.132224 -0.000472056 2.27197e-05)
(0.13222 -0.000354694 0.000304497)
(0.132314 -0.000522144 0.000198925)
(0.132626 -0.000456854 2.36599e-05)
(0.132622 -0.000344549 0.000296041)
(0.133164 -0.000441827 2.1741e-05)
(0.133158 -0.000332361 0.000288558)
(0.131655 -0.000415659 -0.000168081)
(0.130913 -0.000319114 -0.000368229)
(0.131945 -0.000209924 -8.56574e-05)
(0.132097 -0.000408351 -0.000166446)
(0.131356 -0.000313903 -0.000366831)
(0.132396 -0.000205781 -8.34705e-05)
(0.132536 -0.00039881 -0.000163565)
(0.131791 -0.000307694 -0.000364363)
(0.13284 -0.000201518 -8.14955e-05)
(0.132968 -0.000386385 -0.000159001)
(0.132222 -0.000299316 -0.000358156)
(0.133281 -0.000195786 -7.91376e-05)
(0.133385 -0.000375941 -0.000154962)
(0.132624 -0.000288624 -0.000348092)
(0.133688 -0.000190451 -7.70187e-05)
(0.133162 -0.000280165 -0.000336182)
(0.134248 -0.00018678 -7.57208e-05)
(0.130619 -0.000216897 -0.000568786)
(0.128658 -0.000114318 -0.000774419)
(0.13091 -2.66637e-05 -0.00049028)
(0.131052 -0.000213101 -0.000565698)
(0.129072 -0.000113639 -0.000768872)
(0.131352 -2.54305e-05 -0.000487233)
(0.131482 -0.000208259 -0.000559327)
(0.129478 -0.000111757 -0.000763254)
(0.131787 -2.33017e-05 -0.000483426)
(0.131904 -0.00020187 -0.000546918)
(0.129882 -0.00010981 -0.000751168)
(0.132218 -2.15857e-05 -0.000474715)
(0.132311 -0.000193627 -0.000527837)
(0.130253 -0.000107578 -0.000729094)
(0.13262 -2.01363e-05 -0.000460901)
(0.130762 -0.000104391 -0.000696094)
(0.133158 -1.68462e-05 -0.000446623)
(0.127168 -1.53337e-05 -0.000965389)
(0.123123 7.95415e-05 -0.00114432)
(0.127436 0.000137587 -0.000890744)
(0.127553 -1.5934e-05 -0.000958907)
(0.123429 7.51655e-05 -0.00113783)
(0.127833 0.000136443 -0.000882763)
(0.127935 -1.6484e-05 -0.000948657)
(0.12373 7.07828e-05 -0.00112764)
(0.128226 0.000136661 -0.000876157)
(0.128311 -1.82264e-05 -0.000927956)
(0.124028 6.36418e-05 -0.00110643)
(0.128617 0.00013432 -0.000861229)
(0.128677 -2.10429e-05 -0.000891763)
(0.124297 5.48202e-05 -0.00107396)
(0.128973 0.000128445 -0.000834692)
(0.124673 4.4792e-05 -0.00101379)
(0.129471 0.000119618 -0.000791785)
(0.1196 0.000171064 -0.00132505)
(0.110794 0.000248067 -0.00130041)
(0.119865 0.000275223 -0.00126706)
(0.119823 0.000162331 -0.00131265)
(0.110831 0.000234271 -0.00128121)
(0.120111 0.000271444 -0.00125718)
(0.120044 0.000150998 -0.00128991)
(0.110865 0.000219893 -0.0012628)
(0.120355 0.000265364 -0.0012391)
(0.12026 0.000136741 -0.00125615)
(0.110885 0.000201591 -0.00123098)
(0.120596 0.000255139 -0.00120871)
(0.120466 0.000120015 -0.00119717)
(0.110905 0.00017904 -0.00118201)
(0.120812 0.000239907 -0.00116566)
(0.11091 0.000150394 -0.00108882)
(0.121115 0.000217802 -0.00108343)
(0.102723 0.000283608 -0.00118878)
(0.10311 0.000312931 -0.00117464)
(0.102579 0.000267503 -0.00117335)
(0.0819651 0.000295846 -0.000959733)
(0.102998 0.00030383 -0.00115242)
(0.102427 0.000249217 -0.00115454)
(0.0815935 0.00027127 -0.000912668)
(0.102887 0.000294231 -0.0011384)
(0.102269 0.000226061 -0.00111744)
(0.0812342 0.00024568 -0.000856738)
(0.102754 0.000280621 -0.00111048)
(0.10211 0.000198334 -0.00105446)
(0.0809225 0.000218936 -0.000796485)
(0.102638 0.000260114 -0.00106004)
(0.0804288 0.000190568 -0.000724405)
(0.102443 0.000234367 -0.00098521)
(0.0631658 0.000311645 -0.000772642)
(0.0639208 0.000368591 -0.000801583)
(0.062609 0.000278989 -0.000686599)
(0.0633503 0.000330602 -0.000714813)
(0.062088 0.00024765 -0.000600925)
(0.0628245 0.00029032 -0.000617345)
(0.0616001 0.000216764 -0.000519542)
(0.0623689 0.000251774 -0.000531902)
(0.0616627 0.000214309 -0.000452687)
(0.0641504 -0.000408981 0.000748692)
(0.0828512 -0.000376055 0.000930291)
(0.0639543 -0.000391875 0.000797696)
(0.0635975 -0.000375861 0.000656309)
(0.0825151 -0.000360233 0.000877639)
(0.0633823 -0.000368729 0.000713093)
(0.0630808 -0.000334025 0.000560093)
(0.0821859 -0.00033952 0.000812928)
(0.06284 -0.000334493 0.000619377)
(0.0625996 -0.000287827 0.000474216)
(0.0819098 -0.000313696 0.000748729)
(0.0623833 -0.000293969 0.00053663)
(0.0814686 -0.000276464 0.000666411)
(0.0616631 -0.000252732 0.000457389)
(0.103291 -0.000335699 0.00110913)
(0.111583 -0.000373698 0.00119369)
(0.102987 -0.000319527 0.00114471)
(0.103207 -0.000332178 0.00108349)
(0.111667 -0.00036475 0.00116519)
(0.102875 -0.000307741 0.00112687)
(0.103114 -0.000327514 0.00104922)
(0.111748 -0.000356527 0.00113099)
(0.102748 -0.000295673 0.00110234)
(0.103018 -0.000310054 0.000984366)
(0.111814 -0.00034283 0.00107988)
(0.102632 -0.000279331 0.00105732)
(0.111904 -0.000311457 0.000979777)
(0.102442 -0.000251667 0.000974619)
(0.120109 -0.000385379 0.00121004)
(0.12363 -0.000338254 0.00101)
(0.120377 -0.000386017 0.00120634)
(0.12397 -0.000339724 0.00100632)
(0.119859 -0.000290554 0.00126487)
(0.120642 -0.000380091 0.00119175)
(0.124306 -0.000336952 0.00100023)
(0.120105 -0.000282855 0.00125891)
(0.120905 -0.000369976 0.00116415)
(0.124635 -0.00033005 0.000985656)
(0.120346 -0.000270346 0.0012405)
(0.121165 -0.000356601 0.00112346)
(0.124966 -0.000321361 0.000962377)
(0.120587 -0.000256755 0.00120998)
(0.121418 -0.000336103 0.00105511)
(0.125264 -0.000308706 0.000926207)
(0.120801 -0.000240762 0.00116699)
(0.125685 -0.000290485 0.000864385)
(0.121104 -0.000218231 0.00108297)
(0.127703 -0.000297971 0.00081496)
(0.129209 -0.000234222 0.000615561)
(0.12811 -0.000296979 0.000811368)
(0.129641 -0.00023485 0.000613806)
(0.127432 -0.000148766 0.000884902)
(0.128513 -0.000293382 0.000805759)
(0.130066 -0.000233509 0.000613434)
(0.127828 -0.000146849 0.000881267)
(0.128913 -0.000286957 0.000793297)
(0.130485 -0.00022938 0.000608726)
(0.128219 -0.000141442 0.000876763)
(0.129307 -0.000277611 0.000771318)
(0.130902 -0.000222915 0.000596412)
(0.128609 -0.000134046 0.000862852)