/*--------------------------------*- C++ -*----------------------------------*\
| =========                 |                                                 |
| \\      /  F ield         | OpenFOAM: The Open Source CFD Toolbox           |
|  \\    /   O peration     | Version:  2212                                  |
|   \\  /    A nd           | Website:  www.openfoam.com                      |
|    \\/     M anipulation  |                                                 |
\*---------------------------------------------------------------------------*/
FoamFile
{
    version     2.0;
    format      ascii;
    arch        "LSB;label=32;scalar=64";
    class       volScalarField;
    location    "2.6";
    object      p;
}
// * * * * * * * * * * * * * * * * * * * * * * * * * * * * * * * * * * * * * //

dimensions      [0 2 -2 0 0 0 0];

internalField   nonuniform List<scalar> 
678
(
0.000605995
0.000496781
0.000387182
0.000276603
0.000167641
5.15672e-05
0.000602289
0.000493502
0.000384199
0.000274124
0.000165179
5.09103e-05
0.000599613
0.000490886
0.000381592
0.000271768
0.000163422
4.99808e-05
0.000489651
0.000380352
0.000270988
0.000163025
4.95835e-05
0.000492171
0.000382184
0.00027206
0.000163476
4.96624e-05
0.000385998
0.000274646
0.00016496
5.06065e-05
0.000388319
0.00027744
0.000167396
5.22231e-05
0.000391007
0.000280151
0.000169353
5.34296e-05
0.00038933
0.000278859
0.000168059
5.28851e-05
0.000500717
0.000390384
0.000280159
0.00016949
5.35756e-05
0.000496521
0.00038661
0.000276613
0.000167575
5.14665e-05
0.000500805
0.000390906
0.000280054
0.000169382
5.35876e-05
0.000610862
0.000501005
0.000391079
0.000280351
0.000170454
5.41343e-05
0.000497317
0.000386834
0.000276306
0.000167277
5.26187e-05
0.000495737
0.00038552
0.000275537
0.000166655
5.3194e-05
0.000496949
0.000385892
0.000275126
0.000165735
5.35239e-05
0.000497928
0.000386855
0.000276217
0.000166124
5.41597e-05
0.000495712
0.00038433
0.000273823
0.000164322
5.36871e-05
0.000387923
0.000276955
0.000167146
5.44493e-05
0.000389639
0.000278282
0.000168208
5.36719e-05
0.000391049
0.00028049
0.000170312
5.40477e-05
0.000493018
0.000383371
0.000273881
0.000164911
5.07532e-05
0.000389292
0.000278517
0.000167896
5.29257e-05
0.00049938
0.000388705
0.000277744
0.000168085
5.35713e-05
0.000486029
0.000376108
0.000267361
0.000160068
5.22707e-05
0.000476912
0.000368748
0.000261883
0.000155842
5.31974e-05
0.000471282
0.000363592
0.000257393
0.000152261
5.3177e-05
0.000469817
0.000362213
0.000256448
0.000151615
5.35434e-05
0.000469772
0.000361714
0.000256018
0.000151397
5.34097e-05
0.000477725
0.000368546
0.000261223
0.000155
5.33001e-05
0.000486087
0.000376367
0.000267241
0.000160057
5.22893e-05
0.00038755
0.000276378
0.000166897
5.26424e-05
0.000490377
0.000381203
0.00027152
0.00016295
4.9861e-05
0.000390651
0.000279621
0.000168957
5.33545e-05
0.000387353
0.000276659
0.000166954
5.42936e-05
0.00047767
0.000368721
0.000261449
0.000155038
5.33349e-05
0.000466047
0.000359435
0.000255018
0.000151355
5.56086e-05
0.000458138
0.000353139
0.000250719
0.000149162
5.65408e-05
0.00045633
0.0003519
0.000249969
0.000148893
5.70031e-05
0.0005655
0.0004573
0.000352586
0.000250409
0.000149163
5.68479e-05
0.000465464
0.00035882
0.000255008
0.000151785
5.57515e-05
0.000476351
0.000368052
0.000261913
0.00015643
5.32146e-05
0.000495729
0.000385382
0.000275028
0.000166081
5.29771e-05
0.000489088
0.00037966
0.000269978
0.000161947
4.93452e-05
0.000497916
0.000387667
0.000276889
0.000167009
5.20792e-05
0.00049474
0.000383564
0.000273585
0.000164384
5.36953e-05
0.000579527
0.000469602
0.000361729
0.00025604
0.000151364
5.34242e-05
0.00056545
0.000457689
0.000353015
0.000250573
0.000149114
5.68256e-05
0.000556012
0.00044991
0.000347614
0.000247543
0.000148828
5.89752e-05
0.00055397
0.000448385
0.000346665
0.000247123
0.000148922
5.96194e-05
0.000555893
0.000450314
0.000348123
0.000247833
0.000148876
5.89315e-05
0.000566089
0.000458455
0.000353871
0.000251498
0.000149843
5.67832e-05
0.000580185
0.000470801
0.000363233
0.000257853
0.000153175
5.34354e-05
0.000607486
0.000496425
0.000385494
0.000275099
0.000165781
5.34016e-05
0.000491009
0.000380764
0.000270523
0.000162174
4.9351e-05
0.000495676
0.000385104
0.000274087
0.00016462
5.04298e-05
0.000496359
0.00038566
0.000275582
0.000165779
5.40088e-05
0.000689128
0.000578573
0.000469091
0.000361669
0.000256219
0.000151675
5.37052e-05
0.000672842
0.000564053
0.000457953
0.000353836
0.000251282
0.000149658
5.72924e-05
0.000662236
0.000554522
0.000450318
0.000348453
0.000248133
0.000149364
5.97178e-05
0.000551641
0.000447468
0.000346374
0.000247096
0.000148593
6.01084e-05
0.000554049
0.000449287
0.00034771
0.000247812
0.000149247
5.97029e-05
0.000563936
0.000457375
0.000353377
0.000251085
0.000149578
5.72243e-05
0.000578774
0.000469827
0.000362431
0.000257083
0.000152477
5.38733e-05
0.000608499
0.000497287
0.000386406
0.000276327
0.000166492
5.41977e-05
0.000606054
0.000495306
0.000384373
0.000273037
0.000163574
5.01755e-05
0.000601182
0.000490938
0.000380834
0.000270812
0.000162522
4.94812e-05
0.000606905
0.000495905
0.000385092
0.000274674
0.000165386
5.3242e-05
0.000579906
0.000471072
0.000363517
0.000257807
0.000152965
5.33179e-05
0.000565982
0.000459313
0.000354971
0.000252262
0.000150278
5.69265e-05
0.000556006
0.000450911
0.000348865
0.000248417
0.000149281
5.9073e-05
0.0005542
0.000449441
0.000347856
0.000247919
0.000149312
5.97049e-05
0.00055608
0.000450913
0.000348892
0.000248483
0.000149342
5.9096e-05
0.00056539
0.000458507
0.000354181
0.00025159
0.00014982
5.69848e-05
0.000579602
0.000470281
0.000362639
0.000257375
0.000152804
5.3879e-05
0.00060681
0.000494846
0.000383714
0.000273892
0.000164752
5.38064e-05
0.000607139
0.000496932
0.0003865
0.000275491
0.000165723
5.17401e-05
0.000598004
0.000488398
0.000378912
0.000269668
0.000161976
4.94418e-05
0.000605139
0.000494449
0.000384367
0.000274517
0.00016575
5.28528e-05
0.000585716
0.00047658
0.000368627
0.000262229
0.000156435
5.30959e-05
0.000574663
0.000466834
0.000360692
0.000256578
0.000152919
5.60983e-05
0.000565523
0.000458649
0.000354266
0.000251588
0.000149753
5.69368e-05
0.000564136
0.000457686
0.000353759
0.000251394
0.000149762
5.72629e-05
0.000566138
0.000459385
0.000355132
0.000252487
0.00015044
5.69325e-05
0.000574769
0.000466573
0.000360596
0.000256724
0.00015307
5.61066e-05
0.00058728
0.000477447
0.000369021
0.000262567
0.000156504
5.37745e-05
0.000608053
0.000497357
0.000386545
0.000275793
0.000166069
5.3983e-05
0.00060922
0.000499497
0.000389097
0.000277792
0.000167325
5.27916e-05
0.000599194
0.000489895
0.000380163
0.000270323
0.000162266
4.97351e-05
0.000606595
0.000495771
0.000385195
0.000274861
0.000166106
5.24394e-05
0.000595115
0.000484676
0.000375337
0.000266892
0.000159583
5.19908e-05
0.000586843
0.000477461
0.000369056
0.000262435
0.000156337
5.37192e-05
0.000579717
0.000470561
0.000362852
0.000257328
0.000152596
5.37951e-05
0.00057895
0.000470023
0.000362722
0.000257132
0.000152251
5.37839e-05
0.000580252
0.000471258
0.000363747
0.000258117
0.00015323
5.33949e-05
0.000586094
0.000476615
0.000368597
0.000262267
0.00015649
5.3126e-05
0.000595582
0.000485187
0.000375689
0.000267078
0.00015963
5.20218e-05
0.000608864
0.000498113
0.000387105
0.000276038
0.000166545
5.31663e-05
0.000608041
0.000498184
0.000387837
0.000276924
0.000166637
5.2514e-05
0.00060173
0.000492565
0.000382838
0.000272711
0.00016403
5.05741e-05
0.000609965
0.000499884
0.000389538
0.000278744
0.000169158
5.37641e-05
0.000608634
0.000497691
0.000386786
0.000275913
0.000166557
5.3191e-05
0.000607495
0.000496632
0.000385956
0.000275458
0.0001659
5.39355e-05
0.000605922
0.000494112
0.000383182
0.000273488
0.000164526
5.37885e-05
0.000607755
0.000496464
0.00038586
0.000275803
0.000166064
5.41012e-05
0.000606675
0.000495739
0.000385017
0.000274698
0.00016545
5.32966e-05
0.000604801
0.000494357
0.000384328
0.000274493
0.00016569
5.28694e-05
0.000606309
0.000495708
0.000385168
0.000274796
0.000166019
5.2443e-05
0.000609816
0.000499786
0.00038936
0.000278497
0.000169012
5.37419e-05
0.000609437
0.000499734
0.000389434
0.000278453
0.000168108
5.31618e-05
0.000605131
0.000495673
0.000385699
0.000275094
0.000166413
5.1176e-05
0.000609231
0.000499514
0.000389274
0.000278392
0.000168087
5.31313e-05
0.000828938
0.000717919
0.000607638
0.000497832
0.000387588
0.000276833
0.000166639
5.25283e-05
0.000718257
0.00060854
0.000498884
0.000388645
0.000277584
0.000167307
5.28336e-05
0.000715926
0.000606048
0.000496143
0.000385861
0.000275181
0.000165716
5.17893e-05
0.000604859
0.000494459
0.000383478
0.000272613
0.000163666
5.02632e-05
0.00059997
0.000489978
0.000379881
0.000269959
0.000161922
4.9351e-05
0.000597142
0.000487672
0.000378233
0.000269041
0.000161549
4.93491e-05
0.000598569
0.000489422
0.000379726
0.000269928
0.000162083
4.9716e-05
0.000601224
0.000492166
0.000382492
0.00027239
0.000163851
5.0541e-05
0.000604993
0.00049559
0.000385603
0.000274934
0.000166318
5.1167e-05
)
;

boundaryField
{
    inlet
    {
        type            zeroGradient;
    }
    ami1
    {
        type            cyclicAMI;
        value           nonuniform List<scalar> 0();
    }
    walls
    {
        type            zeroGradient;
    }
    ami2
    {
        type            cyclicAMI;
        value           nonuniform List<scalar> 0();
    }
    outlet
    {
        type            fixedValue;
        value           uniform 0;
    }
    procBoundary6to5
    {
        type            processor;
        value           nonuniform List<scalar> 
177
(
0.000716415
0.000610376
0.000712365
0.000709043
0.000598376
0.00060701
0.000598376
0.000601461
0.000496772
0.000496772
0.000496772
0.000498532
0.000498532
0.000500836
0.00049941
0.00049941
0.000611174
0.000501152
0.000606615
0.000610376
0.000610376
0.00049916
0.000721538
0.00060701
0.00060932
0.00060701
0.000605573
0.000607705
0.000608891
0.000607351
0.000498526
0.000498526
0.000498526
0.000499657
0.000499657
0.000501152
0.000501152
0.000602885
0.00049916
0.00049916
0.00060932
0.000498289
0.000595784
0.000586511
0.000580583
0.000579002
0.000579961
0.000579961
0.00058771
0.000595378
0.000497521
0.000497521
0.000497521
0.000497521
0.000599702
0.000500525
0.000500525
0.000498289
0.000498289
0.000498289
0.000587552
0.000587552
0.000575391
0.000575391
0.000566683
0.000566683
0.000564285
0.000564285
0.000564285
0.000675785
0.000575216
0.000575216
0.000575216
0.000586088
0.000586088
0.000605583
0.000605583
0.000598324
0.00060766
0.00060678
0.00060678
0.000690005
0.000690005
0.0006755
0.0006755
0.000665592
0.000665592
0.000663302
0.000665292
0.000676198
0.000690615
0.000718301
0.000601152
0.000601152
0.000601152
0.000605802
0.000605802
0.000720023
0.000608046
0.000608046
0.000608046
0.000799745
0.000690176
0.000783654
0.000675657
0.000772972
0.000659807
0.000665149
0.000659807
0.000662893
0.000673471
0.000688925
0.000719586
0.000716195
0.000711013
0.000717985
0.000690176
0.000675657
0.000665149
0.000663063
0.000665288
0.000675276
0.000689932
0.000718162
0.000717101
0.000707142
0.000715327
0.000695916
0.000684671
0.000675373
0.000673672
0.000675957
0.000685301
0.000697485
0.000717518
0.000718934
0.000708489
0.000716221
0.000704771
0.000696702
0.000689734
0.000689024
0.000690525
0.000696424
0.000704775
0.000718332
0.000718471
0.000711644
0.000720535
0.000828402
0.000718376
0.000718376
0.000717297
0.000717297
0.000717243
0.000717243
0.000718828
0.000717437
0.000714624
0.000715722
0.000720504
0.000720301
0.000715392
0.000831444
0.000719894
0.000719894
0.000940987
0.000828864
0.000828864
0.000826652
0.00071487
0.00071487
0.000709668
0.000706291
0.00070795
0.000711289
0.000715434
)
;
    }
}


// ************************************************************************* //
