/*--------------------------------*- C++ -*----------------------------------*\
| =========                 |                                                 |
| \\      /  F ield         | OpenFOAM: The Open Source CFD Toolbox           |
|  \\    /   O peration     | Version:  2212                                  |
|   \\  /    A nd           | Website:  www.openfoam.com                      |
|    \\/     M anipulation  |                                                 |
\*---------------------------------------------------------------------------*/
FoamFile
{
    version     2.0;
    format      ascii;
    arch        "LSB;label=32;scalar=64";
    class       surfaceScalarField;
    location    "2.6";
    object      phi;
}
// * * * * * * * * * * * * * * * * * * * * * * * * * * * * * * * * * * * * * //

dimensions      [0 3 -1 0 0 0 0];

oriented        oriented;

internalField   nonuniform List<scalar> 
1763
(
5.51722e-08
-3.42622e-08
5.47e-08
-3.42982e-08
3.47703e-08
5.42453e-08
-3.43224e-08
3.47772e-08
5.37937e-08
-3.43393e-08
3.47909e-08
5.33408e-08
-3.43665e-08
3.48193e-08
-3.43881e-08
3.4868e-08
1.80159e-07
-6.46566e-08
3.18947e-08
1.7872e-07
-6.47167e-08
3.18577e-08
1.77304e-07
-6.47433e-08
3.18366e-08
1.7588e-07
-6.47584e-08
3.18427e-08
1.7453e-07
-6.48411e-08
3.18248e-08
-6.48471e-08
3.19321e-08
3.53401e-07
3.50606e-07
-8.96232e-08
2.77014e-08
3.47851e-07
-8.96561e-08
2.76672e-08
3.45139e-07
-8.97023e-08
2.76567e-08
3.42502e-07
-8.97875e-08
2.75834e-08
-8.98157e-08
2.75497e-08
4.99558e-07
-1.07449e-07
2.18584e-08
4.9561e-07
-1.0748e-07
2.17728e-08
4.918e-07
-1.07551e-07
2.16584e-08
4.88152e-07
-1.07629e-07
2.14899e-08
-1.0769e-07
2.12713e-08
5.99659e-07
1.47932e-08
5.9485e-07
-1.17248e-07
1.45767e-08
5.90334e-07
-1.17276e-07
1.42414e-08
5.8611e-07
-1.17291e-07
1.38856e-08
-1.17307e-07
1.34385e-08
6.2521e-07
-1.17802e-07
5.32278e-09
6.2066e-07
-1.17814e-07
5.08763e-09
6.16435e-07
-1.17781e-07
4.715e-09
-1.17701e-07
4.12401e-09
5.79121e-07
-1.0882e-07
-5.11089e-09
5.75381e-07
-1.08802e-07
-5.27195e-09
5.71812e-07
-1.08749e-07
-5.4626e-09
-1.08674e-07
-5.83802e-09
4.69163e-07
-9.10372e-08
-1.46217e-08
4.66071e-07
-9.10292e-08
-1.46819e-08
4.63138e-07
-9.10002e-08
-1.48153e-08
-9.10297e-08
-1.50513e-08
3.20105e-07
-6.59542e-08
-2.28885e-08
3.17975e-07
-6.59566e-08
-2.29418e-08
3.15952e-07
-6.59484e-08
-2.30296e-08
-6.59953e-08
-2.3105e-08
1.68298e-07
-3.47583e-08
1.67086e-07
-3.47638e-08
-2.99784e-08
1.65914e-07
-3.47732e-08
-3.00112e-08
1.64819e-07
-3.48042e-08
-3.0049e-08
-3.48561e-08
-2.99856e-08
5.47492e-08
-3.42831e-08
5.42962e-08
-3.43108e-08
5.38541e-08
-3.43312e-08
5.3399e-08
-3.4349e-08
-3.43712e-08
1.68169e-07
-2.99631e-08
1.66936e-07
-2.99973e-08
6.60079e-08
1.65734e-07
-3.00138e-08
6.60066e-08
1.64637e-07
-3.00652e-08
6.59815e-08
-3.00032e-08
6.60182e-08
4.6762e-07
4.64947e-07
-5.57935e-08
6.03615e-08
4.62309e-07
-5.58405e-08
6.0318e-08
4.59724e-07
-5.58701e-08
6.02835e-08
4.57191e-07
-5.5941e-08
6.02338e-08
-5.60317e-08
6.01729e-08
7.82982e-07
-7.74012e-08
5.20385e-08
7.80265e-07
-7.74378e-08
5.19819e-08
7.77588e-07
-7.74498e-08
5.19129e-08
7.74928e-07
-7.74789e-08
5.17818e-08
-7.7578e-08
5.14755e-08
1.01339e-06
-9.32167e-08
3.98689e-08
1.01115e-06
-9.31984e-08
3.97718e-08
1.00889e-06
-9.31745e-08
3.96381e-08
1.00664e-06
-9.31717e-08
3.94343e-08
-9.32693e-08
3.89509e-08
1.15053e-06
-1.01852e-07
2.49379e-08
1.14899e-06
-1.0187e-07
2.47814e-08
1.14739e-06
-1.01893e-07
2.45601e-08
1.14577e-06
-1.01904e-07
2.42392e-08
-1.01976e-07
2.35982e-08
1.18998e-06
-1.02983e-07
7.69803e-09
1.18893e-06
-1.03019e-07
7.52529e-09
1.18788e-06
-1.03071e-07
7.31332e-09
1.18684e-06
-1.03121e-07
6.97297e-09
-1.03177e-07
6.26309e-09
1.13504e-06
-1.03123e-08
1.1341e-06
-9.67257e-08
-1.04601e-08
1.13316e-06
-9.67576e-08
-1.06471e-08
1.13227e-06
-9.67609e-08
-1.09301e-08
-9.66869e-08
-1.1545e-08
9.89443e-07
-8.24081e-08
-2.74205e-08
9.87932e-07
-8.23535e-08
-2.75756e-08
9.86478e-07
-8.23221e-08
-2.77999e-08
-8.22152e-08
-2.82879e-08
7.58026e-07
-6.03248e-08
-4.24242e-08
7.55535e-07
-6.02529e-08
-4.2552e-08
7.53098e-07
-6.02071e-08
-4.27073e-08
-6.01506e-08
-4.30637e-08
4.62551e-07
-3.18305e-08
-5.57922e-08
4.59947e-07
-3.18174e-08
-5.58429e-08
4.57393e-07
-3.18125e-08
-5.58891e-08
-3.19178e-08
-5.59969e-08
1.78874e-07
-6.4687e-08
1.77489e-07
-6.47561e-08
1.7609e-07
-6.47496e-08
1.74722e-07
-6.4793e-08
-6.48007e-08
3.19885e-07
-2.2872e-08
9.10738e-08
3.17736e-07
-2.29244e-08
9.10796e-08
3.15706e-07
-2.30406e-08
9.10517e-08
-2.31308e-08
9.10727e-08
7.60466e-07
-4.23754e-08
7.57958e-07
-4.24599e-08
8.24135e-08
7.55521e-07
-4.25941e-08
8.23907e-08
7.53129e-07
-4.27736e-08
8.23581e-08
-4.31099e-08
8.22312e-08
1.13163e-06
-5.98108e-08
6.96213e-08
1.13137e-06
-5.98463e-08
6.96216e-08
1.13103e-06
-5.99218e-08
6.95804e-08
1.13063e-06
-6.0061e-08
6.94779e-08
-6.03195e-08
6.92099e-08
1.38271e-06
-7.32489e-08
5.18479e-08
1.38408e-06
-7.3249e-08
5.18037e-08
1.38536e-06
-7.32821e-08
5.17179e-08
1.38656e-06
-7.33732e-08
5.1554e-08
-7.35757e-08
5.11877e-08
1.52867e-06
-8.13955e-08
3.06209e-08
1.53107e-06
-8.13957e-08
3.05287e-08
1.53339e-06
-8.14123e-08
3.03752e-08
1.53559e-06
-8.1452e-08
3.01132e-08
-8.15654e-08
2.96423e-08
1.57348e-06
-8.3699e-08
7.00915e-09
1.57642e-06
-8.3715e-08
6.90081e-09
1.57932e-06
-8.37318e-08
6.73925e-09
1.58211e-06
-8.37377e-08
6.46554e-09
-8.37487e-08
6.00328e-09
1.52144e-06
-7.99831e-08
-1.70171e-08
1.52437e-06
-7.99983e-08
-1.71145e-08
1.52725e-06
-7.99808e-08
-1.72697e-08
1.53e-06
-7.99118e-08
-1.75111e-08
-7.97594e-08
-1.7922e-08
1.37537e-06
-6.95856e-08
-3.97317e-08
1.37732e-06
-6.95645e-08
-3.98017e-08
1.37921e-06
-6.95335e-08
-3.99115e-08
1.38104e-06
-6.94516e-08
-4.0095e-08
-6.91495e-08
-4.04243e-08
1.13147e-06
-5.97858e-08
1.13125e-06
-5.19327e-08
-5.98365e-08
1.13091e-06
-5.1854e-08
-5.98895e-08
1.1305e-06
-5.17539e-08
-6.00016e-08
-5.14096e-08
-6.02929e-08
7.80363e-07
-2.76007e-08
-7.73863e-08
7.77662e-07
-2.75963e-08
-7.74e-08
7.7498e-07
-2.75663e-08
-7.73938e-08
-2.75154e-08
-7.75227e-08
3.50916e-07
-8.95751e-08
3.48163e-07
-8.96036e-08
3.45436e-07
-8.96189e-08
3.4276e-07
-8.96833e-08
-8.97271e-08
4.68861e-07
-1.46411e-08
1.08858e-07
4.65787e-07
-1.46911e-08
1.08845e-07
4.6287e-07
-1.48231e-08
1.08792e-07
-1.507e-08
1.08722e-07
9.89625e-07
-2.74719e-08
9.6774e-08
9.88115e-07
-2.76053e-08
9.68148e-08
9.86662e-07
-2.7825e-08
9.68131e-08
-2.83276e-08
9.67271e-08
1.37567e-06
-3.97835e-08
8.00254e-08
1.37761e-06
-3.9844e-08
8.0053e-08
1.37949e-06
-3.99387e-08
8.00359e-08
1.38129e-06
-4.01143e-08
7.99585e-08
-4.04359e-08
7.98021e-08
1.6318e-06
-4.9972e-08
5.80912e-08
1.63571e-06
-5.00111e-08
5.80617e-08
1.63954e-06
-5.00613e-08
5.8012e-08
1.64323e-06
-5.0161e-08
5.79118e-08
-5.03428e-08
5.77329e-08
1.78111e-06
-5.6688e-08
3.24873e-08
1.78594e-06
-5.67106e-08
3.24053e-08
1.79068e-06
-5.67368e-08
3.23061e-08
1.79526e-06
-5.67801e-08
3.21522e-08
-5.68593e-08
3.19307e-08
1.82918e-06
-5.9476e-08
4.59055e-09
1.83436e-06
-5.94914e-08
4.50737e-09
1.83945e-06
-5.94955e-08
4.40123e-09
1.84439e-06
-5.94863e-08
4.23906e-09
-5.94703e-08
4.05779e-09
1.77393e-06
-2.34158e-08
1.77894e-06
-5.80302e-08
-2.34734e-08
1.78388e-06
-5.80116e-08
-2.35337e-08
1.78873e-06
-5.79806e-08
-2.3636e-08
1.79343e-06
-5.79031e-08
-2.37948e-08
-5.77351e-08
-2.40076e-08
1.63164e-06
-5.17767e-08
-4.99499e-08
1.63554e-06
-5.17248e-08
-4.9996e-08
1.63938e-06
-5.16741e-08
-5.00533e-08
1.64309e-06
-5.15514e-08
-5.01565e-08
-5.11723e-08
-5.03443e-08
1.38262e-06
-3.98196e-08
-7.3244e-08
1.384e-06
-3.96956e-08
-7.32537e-08
1.3853e-06
-3.95877e-08
-7.3268e-08
1.38651e-06
-3.94307e-08
-7.33384e-08
-3.89072e-08
-7.35495e-08
1.01349e-06
-2.18201e-08
-9.31557e-08
1.01127e-06
-2.1719e-08
-9.31438e-08
1.00902e-06
-2.16298e-08
-9.31133e-08
1.00678e-06
-2.14927e-08
-9.30916e-08
-2.12373e-08
-9.32241e-08
5.00055e-07
-1.07368e-07
4.96109e-07
-1.07376e-07
4.92294e-07
-1.07434e-07
4.88635e-07
-1.07516e-07
-1.0759e-07
5.8274e-07
-4.94222e-09
1.17825e-07
5.7888e-07
-5.12848e-09
1.17846e-07
5.75161e-07
-5.29701e-09
1.17861e-07
5.71616e-07
-5.49377e-09
1.17831e-07
-5.85956e-09
1.17758e-07
1.13535e-06
-1.03495e-08
1.03028e-07
1.13441e-06
-1.04893e-08
1.03073e-07
1.13347e-06
-1.06734e-08
1.03131e-07
1.13257e-06
-1.09622e-08
1.03182e-07
-1.15766e-08
1.03241e-07
1.51869e-06
-1.69929e-08
8.37217e-08
1.52167e-06
-1.70576e-08
8.37543e-08
1.5246e-06
-1.71384e-08
8.3776e-08
1.52746e-06
-1.72919e-08
8.37863e-08
1.53023e-06
-1.75409e-08
8.37761e-08
-1.79486e-08
8.37751e-08
1.77399e-06
-2.34694e-08
5.95285e-08
1.77902e-06
-2.35099e-08
5.95142e-08
1.78399e-06
-2.35487e-08
5.95055e-08
1.78886e-06
-2.36388e-08
5.94915e-08
1.79355e-06
-2.37937e-08
5.94655e-08
-2.40032e-08
5.94399e-08
1.92412e-06
-2.84773e-08
3.1641e-08
1.92999e-06
-2.84959e-08
3.16039e-08
1.93579e-06
-2.8514e-08
3.15743e-08
1.94146e-06
-2.85474e-08
3.15402e-08
1.94693e-06
-2.85975e-08
3.1494e-08
-2.86666e-08
3.14346e-08
1.97361e-06
-3.15955e-08
1.63054e-09
1.97971e-06
-3.16024e-08
1.59353e-09
1.98575e-06
-3.16052e-08
1.55851e-09
1.99168e-06
-3.15859e-08
1.51137e-09
1.9974e-06
-3.1547e-08
1.46687e-09
-3.14905e-08
1.43602e-09
1.92403e-06
-3.24766e-08
-2.84495e-08
1.92987e-06
-3.24435e-08
-2.84718e-08
1.93564e-06
-3.2413e-08
-2.84997e-08
1.9413e-06
-3.23361e-08
-2.85433e-08
1.94675e-06
-3.21927e-08
-2.86011e-08
-3.19728e-08
-2.86749e-08
1.77609e-06
-3.06239e-08
-5.66563e-08
1.78094e-06
-3.05694e-08
-5.66765e-08
1.78572e-06
-3.0491e-08
-5.66998e-08
1.79042e-06
-3.03539e-08
-5.67323e-08
1.79496e-06
-3.0117e-08
-5.67793e-08
-2.96501e-08
-5.6861e-08
1.52598e-06
-2.50229e-08
-8.13717e-08
1.52845e-06
-2.49021e-08
-8.13796e-08
1.53084e-06
-2.47433e-08
-8.13913e-08
1.53316e-06
-2.45348e-08
-8.1409e-08
1.53539e-06
-2.4234e-08
-8.14433e-08
-2.35613e-08
-8.15591e-08
1.15217e-06
-1.01772e-07
1.15065e-06
-1.47499e-08
-1.01788e-07
1.14911e-06
-1.4542e-08
-1.01802e-07
1.1475e-06
-1.42222e-08
-1.01823e-07
1.14589e-06
-1.38692e-08
-1.01838e-07
-1.33943e-08
-1.01936e-07
6.0036e-07
-1.17141e-07
5.95598e-07
-1.17156e-07
5.9112e-07
-1.17179e-07
5.86926e-07
-1.17191e-07
-1.17207e-07
6.30011e-07
5.48827e-09
1.17252e-07
6.25253e-07
5.30844e-09
1.17295e-07
6.2071e-07
5.06105e-09
1.17343e-07
6.16486e-07
4.68611e-09
1.17368e-07
4.11726e-09
1.17369e-07
1.19008e-06
7.70169e-09
1.01874e-07
1.18904e-06
7.52505e-09
1.01891e-07
1.18803e-06
7.28879e-09
1.01916e-07
1.18703e-06
6.93643e-09
1.01931e-07
6.25234e-09
1.02031e-07
1.56754e-06
7.10298e-09
1.5706e-06
7.07708e-09
8.14465e-08
1.57359e-06
7.03083e-09
8.14319e-08
1.57654e-06
6.91902e-09
8.14291e-08
1.57944e-06
6.73716e-09
8.14364e-08
1.58224e-06
6.45537e-09
8.14615e-08
5.99839e-09
8.15745e-08
1.81879e-06
4.62338e-09
1.82406e-06
4.60836e-09
5.67236e-08
1.82927e-06
4.60153e-09
5.67338e-08
1.83441e-06
4.55648e-09
5.67286e-08
1.83945e-06
4.44932e-09
5.67338e-08
1.84434e-06
4.27875e-09
5.67602e-08
4.09125e-09
5.68304e-08
1.96747e-06
1.97365e-06
1.57695e-09
2.84892e-08
1.97975e-06
1.59303e-09
2.85138e-08
1.98577e-06
1.59021e-09
2.85193e-08
1.99167e-06
1.55643e-09
2.85349e-08
1.99735e-06
1.51676e-09
2.85715e-08
1.48484e-09
2.8633e-08
2.02334e-06
-1.61261e-09
-1.58647e-09
2.02969e-06
-1.58921e-09
-1.57462e-09
2.03598e-06
-1.56881e-09
-1.57238e-09
2.04213e-06
-1.53226e-09
-1.55045e-09
2.04812e-06
-1.49315e-09
-1.51935e-09
-1.46481e-09
-1.49273e-09
1.97345e-06
-4.62383e-09
-3.15739e-08
1.97954e-06
-4.57151e-09
-3.15733e-08
1.98557e-06
-4.52199e-09
-3.15789e-08
1.99149e-06
-4.42314e-09
-3.15703e-08
1.9972e-06
-4.26193e-09
-3.15423e-08
-4.08153e-09
-3.14924e-08
1.82374e-06
-7.05942e-09
-5.9444e-08
1.82893e-06
-6.97598e-09
-5.94537e-08
1.83405e-06
-6.87476e-09
-5.94753e-08
1.8391e-06
-6.7127e-09
-5.94865e-08
1.84398e-06
-6.44583e-09
-5.94822e-08
-5.98916e-09
-5.94676e-08
1.57024e-06
-7.79915e-09
-8.36457e-08
1.57321e-06
-7.65412e-09
-8.36717e-08
1.57612e-06
-7.47621e-09
-8.36963e-08
1.57898e-06
-7.26699e-09
-8.37195e-08
1.58176e-06
-6.94232e-09
-8.37288e-08
-6.2273e-09
-8.37383e-08
1.19118e-06
-5.60572e-09
-1.02899e-07
1.19011e-06
-5.45494e-09
-1.0292e-07
1.18903e-06
-5.25214e-09
-1.0295e-07
1.18797e-06
-5.02026e-09
-1.03006e-07
1.18692e-06
-4.66844e-09
-1.03061e-07
-4.077e-09
-1.03117e-07
6.3562e-07
-1.17718e-07
6.30745e-07
-1.17721e-07
6.26063e-07
-1.17727e-07
6.21591e-07
-1.17727e-07
6.17418e-07
-1.17687e-07
-1.17615e-07
6.04784e-07
1.48659e-08
1.0747e-07
5.99794e-07
1.47582e-08
1.07484e-07
5.95032e-07
1.454e-08
1.07516e-07
5.90565e-07
1.42154e-08
1.07595e-07
5.86378e-07
1.38724e-08
1.07683e-07
1.34061e-08
1.07742e-07
1.15223e-06
2.5005e-08
9.32626e-08
1.1507e-06
2.48938e-08
9.32661e-08
1.14915e-06
2.47416e-08
9.32462e-08
1.14752e-06
2.45326e-08
9.32207e-08
1.14589e-06
2.42301e-08
9.32075e-08
2.35622e-08
9.33348e-08
1.52625e-06
3.06084e-08
7.33236e-08
1.52872e-06
3.05557e-08
7.33038e-08
1.5311e-06
3.04775e-08
7.33062e-08
1.53342e-06
3.0339e-08
7.33181e-08
1.53562e-06
3.01016e-08
7.33862e-08
2.96412e-08
7.35924e-08
1.77621e-06
3.24508e-08
4.99852e-08
1.78107e-06
3.24262e-08
5.00032e-08
1.78586e-06
3.24029e-08
5.00117e-08
1.79056e-06
3.23292e-08
5.00513e-08
1.79509e-06
3.21859e-08
5.01437e-08
3.19652e-08
5.03292e-08
1.92398e-06
3.15931e-08
2.34616e-08
1.92982e-06
3.15889e-08
2.35114e-08
1.93559e-06
3.15879e-08
2.35558e-08
1.94124e-06
3.15706e-08
2.36436e-08
1.94668e-06
3.15346e-08
2.3791e-08
3.14795e-08
2.39955e-08
1.97348e-06
2.84881e-08
-4.60711e-09
1.97955e-06
2.85033e-08
-4.56143e-09
1.98557e-06
2.85157e-08
-4.51997e-09
1.99147e-06
2.85428e-08
-4.42581e-09
1.99717e-06
2.85877e-08
-4.26618e-09
2.86538e-08
-4.08409e-09
1.92393e-06
2.3479e-08
-3.24386e-08
1.92975e-06
2.35244e-08
-3.24133e-08
1.93551e-06
2.35636e-08
-3.23905e-08
1.94115e-06
2.36473e-08
-3.23191e-08
1.94659e-06
2.37902e-08
-3.21785e-08
2.39912e-08
-3.19581e-08
1.77369e-06
1.7002e-08
-5.79908e-08
1.77867e-06
1.70799e-08
-5.79912e-08
1.78359e-06
1.71745e-08
-5.80047e-08
1.78841e-06
1.73196e-08
-5.79845e-08
1.79308e-06
1.75457e-08
-5.79046e-08
1.79433e-08
-5.77221e-08
1.51824e-06
1.02465e-08
-7.9881e-08
1.52118e-06
1.03845e-08
-7.99137e-08
1.52403e-06
1.0552e-08
-7.99291e-08
1.52684e-06
1.07273e-08
-7.9932e-08
1.52955e-06
1.09822e-08
-7.98799e-08
1.15898e-08
-7.9722e-08
1.13616e-06
4.71096e-09
-9.65271e-08
1.13526e-06
4.95814e-09
-9.65934e-08
1.13431e-06
5.18859e-09
-9.66393e-08
1.13334e-06
5.37138e-09
-9.6674e-08
1.13238e-06
5.55463e-09
-9.66783e-08
5.90415e-09
-9.65993e-08
5.87606e-07
-1.08856e-07
5.83644e-07
-1.088e-07
5.79867e-07
-1.08761e-07
5.76244e-07
-1.08732e-07
5.72793e-07
-1.08681e-07
-1.08627e-07
5.03858e-07
2.19304e-08
8.96072e-08
4.99857e-07
2.1835e-08
8.96497e-08
4.95952e-07
2.1741e-08
8.96797e-08
4.92186e-07
2.16254e-08
8.97353e-08
4.88572e-07
2.14753e-08
8.98222e-08
2.12252e-08
8.98551e-08
1.01572e-06
3.99232e-08
7.74242e-08
1.01352e-06
3.98221e-08
7.74785e-08
1.01129e-06
3.97064e-08
7.75054e-08
1.00906e-06
3.95814e-08
7.75014e-08
1.00683e-06
3.9404e-08
7.75064e-08
3.88809e-08
7.76343e-08
1.38132e-06
5.18094e-08
5.98812e-08
1.38277e-06
5.17822e-08
5.98902e-08
1.38412e-06
5.17374e-08
5.99238e-08
1.38537e-06
5.16664e-08
5.99821e-08
1.38653e-06
5.15213e-08
6.01072e-08
5.11391e-08
6.03969e-08
1.62781e-06
5.80316e-08
3.97993e-08
1.63174e-06
5.80284e-08
3.9833e-08
1.63557e-06
5.80332e-08
3.98866e-08
1.63931e-06
5.80038e-08
3.99658e-08
1.64294e-06
5.79186e-08
4.01199e-08
5.77365e-08
4.04482e-08
1.77384e-06
5.94923e-08
1.70078e-08
1.7788e-06
5.94955e-08
1.70871e-08
1.7837e-06
5.95055e-08
1.71829e-08
1.78851e-06
5.95037e-08
1.73336e-08
1.79316e-06
5.94883e-08
1.75743e-08
5.94676e-08
1.79815e-08
1.82386e-06
5.67167e-08
-7.024e-09
1.82902e-06
5.67231e-08
-6.94047e-09
1.83412e-06
5.67257e-08
-6.84261e-09
1.83913e-06
5.67406e-08
-6.67917e-09
1.84399e-06
5.67744e-08
-6.40558e-09
5.68499e-08
-5.94952e-09
1.77609e-06
4.99814e-08
-3.0571e-08
1.78091e-06
5.00007e-08
-3.05089e-08
1.78566e-06
5.00067e-08
-3.04244e-08
1.79032e-06
5.00441e-08
-3.02858e-08
1.79483e-06
5.01367e-08
-3.00487e-08
5.0326e-08
-2.95854e-08
1.62759e-06
3.97741e-08
-5.17555e-08
1.63151e-06
3.98141e-08
-5.17266e-08
1.63533e-06
3.98634e-08
-5.16849e-08
1.63907e-06
3.99319e-08
-5.16158e-08
1.6427e-06
4.00826e-08
-5.14722e-08
4.042e-08
-5.10896e-08
1.37325e-06
2.7362e-08
-6.9513e-08
1.37523e-06
2.74277e-08
-6.9506e-08
1.37712e-06
2.75287e-08
-6.94873e-08
1.37893e-06
2.76376e-08
-6.94451e-08
1.38066e-06
2.7822e-08
-6.93466e-08
2.8315e-08
-6.90485e-08
9.92719e-07
1.46097e-08
-8.23486e-08
9.91226e-07
1.4647e-08
-8.23194e-08
9.89723e-07
1.46873e-08
-8.22949e-08
9.88236e-07
1.47263e-08
-8.22762e-08
9.86809e-07
1.48278e-08
-8.22572e-08
1.50667e-08
-8.21374e-08
4.75995e-07
-9.10733e-08
4.72874e-07
-9.10326e-08
4.69822e-07
-9.10219e-08
4.6685e-07
-9.10341e-08
4.64018e-07
-9.10214e-08
-9.1043e-08
3.53687e-07
2.77412e-08
6.47019e-08
3.50913e-07
2.76806e-08
6.47431e-08
3.48179e-07
2.76582e-08
6.47548e-08
3.45496e-07
2.76495e-08
6.47688e-08
3.42881e-07
2.7586e-08
6.4851e-08
2.75214e-08
6.48709e-08
7.85951e-07
5.20516e-08
5.57907e-08
7.83268e-07
5.19865e-08
5.58563e-08
7.80616e-07
5.19304e-08
5.58847e-08
7.77993e-07
5.18734e-08
5.59008e-08
7.75371e-07
5.17636e-08
5.59502e-08
5.14097e-08
5.60646e-08
1.13196e-06
6.95678e-08
4.24024e-08
1.1318e-06
6.95668e-08
4.24696e-08
1.13154e-06
6.95511e-08
4.25571e-08
1.1312e-06
6.95074e-08
4.26881e-08
1.13081e-06
6.94105e-08
4.28502e-08
6.91161e-08
4.31971e-08
1.37375e-06
7.99367e-08
2.73734e-08
1.37572e-06
7.99722e-08
2.74508e-08
1.37762e-06
7.99818e-08
2.75641e-08
1.37943e-06
7.99756e-08
2.76852e-08
1.38116e-06
7.99192e-08
2.78789e-08
7.97642e-08
2.83671e-08
1.51874e-06
8.37056e-08
1.02667e-08
1.52166e-06
8.37298e-08
1.04157e-08
1.5245e-06
8.37487e-08
1.05788e-08
1.52728e-06
8.37665e-08
1.0759e-08
1.52997e-06
8.37703e-08
1.10343e-08
8.3774e-08
1.16473e-08
1.5706e-06
8.14214e-08
-7.73827e-09
1.57355e-06
8.14247e-08
-7.57977e-09
1.57644e-06
8.1436e-08
-7.42276e-09
1.57928e-06
8.14504e-08
-7.20622e-09
1.58202e-06
8.14797e-08
-6.85388e-09
8.15954e-08
-6.16412e-09
1.52614e-06
7.32905e-08
-2.49463e-08
1.52859e-06
7.3282e-08
-2.4813e-08
1.53096e-06
7.32924e-08
-2.46475e-08
1.53325e-06
7.33112e-08
-2.44368e-08
1.53543e-06
7.33856e-08
-2.4134e-08
7.35978e-08
-2.34692e-08
1.38109e-06
5.98311e-08
-3.9843e-08
1.38254e-06
5.9847e-08
-3.97432e-08
1.38389e-06
5.98849e-08
-3.96296e-08
1.38515e-06
5.99472e-08
-3.95034e-08
1.3863e-06
6.00772e-08
-3.93223e-08
6.03728e-08
-3.88003e-08
1.13169e-06
4.23631e-08
-5.19881e-08
1.13151e-06
4.24287e-08
-5.19013e-08
1.13123e-06
4.25172e-08
-5.18456e-08
1.13088e-06
4.26448e-08
-5.17931e-08
1.13048e-06
4.28061e-08
-5.16753e-08
4.31625e-08
-5.13286e-08
7.63396e-07
2.28106e-08
-6.03362e-08
7.60923e-07
2.28548e-08
-6.0273e-08
7.58501e-07
2.28838e-08
-6.02393e-08
7.56156e-07
2.29253e-08
-6.02117e-08
7.53857e-07
2.30265e-08
-6.01788e-08
2.31321e-08
-6.01095e-08
3.24968e-07
-6.59847e-08
3.22764e-07
-6.59738e-08
3.20602e-07
-6.5976e-08
3.18476e-07
-6.59827e-08
3.16448e-07
-6.59662e-08
-6.59996e-08
1.80318e-07
3.18744e-08
3.42879e-08
1.78902e-07
3.18418e-08
3.43174e-08
1.77487e-07
3.18369e-08
3.43327e-08
1.76059e-07
3.18517e-08
3.43447e-08
1.747e-07
3.18409e-08
3.43697e-08
3.19341e-08
3.43957e-08
4.67966e-07
6.03972e-08
2.99635e-08
4.65322e-07
6.03432e-08
2.99997e-08
4.62711e-07
6.03177e-08
3.00145e-08
4.60157e-07
6.0288e-08
3.00183e-08
4.5764e-07
6.0249e-08
3.00592e-08
6.01756e-08
3.00077e-08
7.63352e-07
8.24432e-08
2.28285e-08
7.60884e-07
8.24103e-08
2.28702e-08
7.58476e-07
8.23842e-08
2.28996e-08
7.56145e-07
8.23591e-08
2.29475e-08
7.53855e-07
8.2335e-08
2.30547e-08
8.22139e-08
2.31571e-08
9.93036e-07
9.66282e-08
1.46127e-08
9.91563e-07
9.66868e-08
1.46467e-08
9.9009e-07
9.67298e-08
1.46913e-08
9.88635e-07
9.67602e-08
1.47398e-08
9.87241e-07
9.67545e-08
1.48529e-08
9.66703e-08
1.50992e-08
1.13667e-06
1.02966e-07
4.7612e-09
1.13577e-06
1.02993e-07
5.00683e-09
1.13483e-06
1.03025e-07
5.22053e-09
1.13387e-06
1.03081e-07
5.39743e-09
1.13294e-06
1.03132e-07
5.58757e-09
1.03187e-07
5.93798e-09
1.19156e-06
1.01818e-07
-5.53875e-09
1.1905e-06
1.01835e-07
-5.35995e-09
1.18943e-06
1.01856e-07
-5.18242e-09
1.18837e-06
1.01882e-07
-4.94873e-09
1.18734e-06
1.01899e-07
-4.59186e-09
1.01998e-07
-4.02867e-09
1.15243e-06
9.31929e-08
-1.47937e-08
1.15091e-06
9.32019e-08
-1.46603e-08
1.14937e-06
9.31925e-08
-1.44459e-08
1.14778e-06
9.31755e-08
-1.4133e-08
1.14616e-06
9.31693e-08
-1.37892e-08
9.33007e-08
-1.33278e-08
1.0159e-06
7.73568e-08
-2.18767e-08
1.0137e-06
7.74192e-08
-2.17678e-08
1.01149e-06
7.74462e-08
-2.16656e-08
1.00926e-06
7.74448e-08
-2.15511e-08
1.00705e-06
7.74629e-08
-2.14058e-08
7.75938e-08
-2.11607e-08
7.86083e-07
5.57278e-08
-2.7709e-08
7.83422e-07
5.58089e-08
-2.76302e-08
7.80781e-07
5.58437e-08
-2.76023e-08
7.78166e-07
5.58614e-08
-2.75945e-08
7.75565e-07
5.59179e-08
-2.7529e-08
5.60317e-08
-2.74711e-08
4.68269e-07
2.99337e-08
-3.18576e-08
4.65649e-07
2.99735e-08
-3.18179e-08
4.63072e-07
2.99898e-08
-3.18087e-08
4.60552e-07
2.99933e-08
-3.18232e-08
4.58063e-07
3.00388e-08
-3.18103e-08
2.99917e-08
-3.19043e-08
1.69787e-07
-3.47491e-08
1.68539e-07
-3.47521e-08
1.67316e-07
-3.47628e-08
1.66108e-07
-3.47822e-08
1.64994e-07
-3.48132e-08
-3.48614e-08
5.52253e-08
3.47762e-08
5.47634e-08
3.47794e-08
5.43077e-08
3.47884e-08
5.38502e-08
3.48022e-08
5.33886e-08
3.48312e-08
3.48756e-08
1.69593e-07
6.60402e-08
1.68341e-07
6.60311e-08
1.67112e-07
6.60311e-08
1.65902e-07
6.60305e-08
1.64788e-07
6.60048e-08
6.60329e-08
3.2926e-07
3.26892e-07
9.12096e-08
3.24613e-07
9.11481e-08
3.22397e-07
9.1117e-08
3.2022e-07
9.11072e-08
3.18085e-07
9.11134e-08
3.16057e-07
9.10877e-08
9.10949e-08
4.78782e-07
1.08966e-07
4.7562e-07
1.08922e-07
4.7251e-07
1.08874e-07
4.69462e-07
1.08846e-07
4.66495e-07
1.08821e-07
4.63673e-07
1.08763e-07
1.08697e-07
5.9135e-07
5.87273e-07
1.17761e-07
5.83386e-07
1.17768e-07
5.79661e-07
1.17791e-07
5.76081e-07
1.17798e-07
5.72677e-07
1.17754e-07
1.17684e-07
6.35476e-07
1.17164e-07
6.30691e-07
1.17193e-07
6.26086e-07
1.17214e-07
6.21688e-07
1.17248e-07
6.17582e-07
1.17269e-07
1.17277e-07
6.05419e-07
1.07405e-07
6.00525e-07
1.07426e-07
5.95843e-07
1.0745e-07
5.91443e-07
1.07514e-07
5.87326e-07
1.07597e-07
1.07662e-07
5.04321e-07
8.95484e-08
5.00388e-07
8.95921e-08
4.96547e-07
8.96247e-08
4.92834e-07
8.96764e-08
4.89267e-07
8.97575e-08
8.97971e-08
3.53986e-07
6.46571e-08
3.51244e-07
6.47032e-08
3.4855e-07
6.47169e-08
3.459e-07
6.47314e-08
3.43313e-07
6.48162e-08
6.48395e-08
1.80496e-07
3.4259e-08
1.7909e-07
3.42915e-08
1.77688e-07
3.431e-08
1.7627e-07
3.43257e-08
1.74922e-07
3.43537e-08
3.43837e-08
5.52874e-08
5.48268e-08
5.4374e-08
5.39175e-08
5.3458e-08
)
;

boundaryField
{
    inlet
    {
        type            calculated;
        value           nonuniform List<scalar> 0();
    }
    ami1
    {
        type            cyclicAMI;
        value           nonuniform List<scalar> 0();
    }
    walls
    {
        type            calculated;
        value           nonuniform List<scalar> 
244
(
2.90979e-14
2.43942e-14
1.84387e-14
2.90979e-14
2.43942e-14
1.84387e-14
1.28555e-14
6.40674e-15
-2.43942e-14
-2.90979e-14
2.90979e-14
2.43942e-14
1.84387e-14
1.28555e-14
6.40674e-15
1.79653e-22
-6.40674e-15
-1.28555e-14
-1.84387e-14
-2.43942e-14
-2.90979e-14
2.90979e-14
2.43942e-14
1.84387e-14
1.28555e-14
6.40674e-15
1.79653e-22
-6.40674e-15
-1.28555e-14
-1.84387e-14
-2.43942e-14
-2.90979e-14
2.90979e-14
2.43942e-14
1.84387e-14
1.28555e-14
6.40674e-15
2.46862e-22
-6.40674e-15
-1.28555e-14
-1.84387e-14
-2.43942e-14
-2.90979e-14
2.90979e-14
2.43942e-14
1.84387e-14
1.28555e-14
6.40674e-15
1.80687e-22
-6.40674e-15
-1.28555e-14
-1.84387e-14
-2.43942e-14
-2.90979e-14
1.80687e-22
-6.40674e-15
-1.28555e-14
-1.84387e-14
-2.43942e-14
-2.90979e-14
2.90979e-14
2.43942e-14
1.84387e-14
1.28555e-14
6.40674e-15
1.80946e-22
-6.40674e-15
-1.28555e-14
-1.84387e-14
-2.43942e-14
-2.90979e-14
2.90979e-14
2.43942e-14
1.84387e-14
1.28555e-14
6.40674e-15
1.79653e-22
-6.40674e-15
-1.28555e-14
-1.84387e-14
-2.43942e-14
-2.90979e-14
2.90979e-14
2.43942e-14
1.84387e-14
1.28555e-14
6.40674e-15
1.79653e-22
-6.40674e-15
-1.28555e-14
-1.84387e-14
-2.43942e-14
-2.90979e-14
2.90979e-14
2.43942e-14
1.84387e-14
1.28555e-14
6.40674e-15
2.46862e-22
-6.40674e-15
-1.28555e-14
-1.84387e-14
-2.43942e-14
-2.90979e-14
2.90979e-14
2.43942e-14
1.84387e-14
1.28555e-14
6.40674e-15
1.80687e-22
-6.40674e-15
-1.28555e-14
-1.84387e-14
-2.43942e-14
-2.90979e-14
-1.84387e-14
-1.84387e-14
-1.28555e-14
-6.40674e-15
-2.90979e-14
-2.43942e-14
-1.84387e-14
-1.28555e-14
-6.40674e-15
1.80687e-22
6.40674e-15
1.28555e-14
1.84387e-14
2.43942e-14
2.90979e-14
-2.90979e-14
-2.43942e-14
-1.84387e-14
-1.28555e-14
-6.40674e-15
1.80687e-22
6.40674e-15
1.28555e-14
1.84387e-14
2.43942e-14
2.90979e-14
-2.90979e-14
-2.43942e-14
-1.84387e-14
-1.28555e-14
-6.40674e-15
1.79734e-22
6.40674e-15
1.28555e-14
1.84387e-14
2.43942e-14
2.90979e-14
-2.90979e-14
-2.43942e-14
-1.84387e-14
-1.28555e-14
-6.40674e-15
1.79734e-22
6.40674e-15
1.28555e-14
1.84387e-14
2.43942e-14
2.90979e-14
-2.90979e-14
-2.43942e-14
-1.84387e-14
-1.28555e-14
-6.40674e-15
1.11411e-22
6.40674e-15
1.28555e-14
1.84387e-14
2.43942e-14
2.90979e-14
-2.90979e-14
-2.43942e-14
-1.84387e-14
-1.28555e-14
-6.40674e-15
1.81366e-22
6.40674e-15
1.28555e-14
1.84387e-14
2.43942e-14
2.90979e-14
-2.90979e-14
6.40674e-15
1.28555e-14
1.84387e-14
2.43942e-14
2.90979e-14
-2.90979e-14
-2.43942e-14
-6.40674e-15
1.80687e-22
6.40674e-15
1.28555e-14
1.84387e-14
2.43942e-14
2.90979e-14
-2.90979e-14
-2.43942e-14
-1.84387e-14
-1.28555e-14
-6.40674e-15
1.79734e-22
6.40674e-15
1.28555e-14
1.84387e-14
2.43942e-14
2.90979e-14
-2.90979e-14
-2.43942e-14
-1.84387e-14
-1.28555e-14
-6.40674e-15
1.79734e-22
6.40674e-15
1.28555e-14
1.84387e-14
2.43942e-14
2.90979e-14
-2.90979e-14
-2.43942e-14
-1.84387e-14
-1.28555e-14
-6.40674e-15
1.11411e-22
6.40674e-15
1.28555e-14
1.84387e-14
2.43942e-14
2.90979e-14
-2.90979e-14
-2.43942e-14
-1.84387e-14
-1.28555e-14
-6.40674e-15
1.81366e-22
6.40674e-15
1.28555e-14
1.84387e-14
2.43942e-14
2.90979e-14
)
;
    }
    ami2
    {
        type            cyclicAMI;
        value           nonuniform List<scalar> 0();
    }
    outlet
    {
        type            calculated;
        value           nonuniform List<scalar> 
121
(
5.28609e-08
1.73057e-07
3.39921e-07
4.84755e-07
5.82287e-07
6.12705e-07
5.68623e-07
4.60546e-07
3.14023e-07
1.63666e-07
5.2914e-08
1.6349e-07
4.54979e-07
7.72548e-07
1.00465e-06
1.14432e-06
1.1859e-06
1.13148e-06
9.85243e-07
7.50992e-07
4.55171e-07
1.73233e-07
3.13783e-07
7.5105e-07
1.1301e-06
1.38758e-06
1.53754e-06
1.58455e-06
1.53239e-06
1.38257e-06
1.12999e-06
7.72611e-07
3.40171e-07
4.6029e-07
9.85423e-07
1.38281e-06
1.64659e-06
1.79949e-06
1.84894e-06
1.79778e-06
1.64645e-06
1.3875e-06
1.00481e-06
4.8526e-07
5.68441e-07
1.13177e-06
1.53262e-06
1.7979e-06
1.95209e-06
2.00285e-06
1.9519e-06
1.79916e-06
1.53731e-06
1.14443e-06
5.83149e-07
6.12758e-07
1.1861e-06
1.58469e-06
1.84885e-06
2.00276e-06
2.054e-06
2.00263e-06
1.8485e-06
1.58418e-06
1.18595e-06
6.1375e-07
5.82599e-07
1.14443e-06
1.53752e-06
1.79926e-06
1.9518e-06
2.00258e-06
1.95172e-06
1.79738e-06
1.53189e-06
1.13155e-06
5.69709e-07
4.85233e-07
1.00487e-06
1.38747e-06
1.64622e-06
1.79744e-06
1.84847e-06
1.79898e-06
1.64597e-06
1.38209e-06
9.85596e-07
4.61501e-07
3.40344e-07
7.73053e-07
1.13031e-06
1.38259e-06
1.53229e-06
1.58441e-06
1.53731e-06
1.38724e-06
1.12997e-06
7.5186e-07
3.14536e-07
1.73241e-07
4.55455e-07
7.51856e-07
9.86053e-07
1.13213e-06
1.1864e-06
1.14472e-06
1.00512e-06
7.73269e-07
4.55898e-07
1.63848e-07
5.29088e-08
1.63639e-07
3.14152e-07
4.6117e-07
5.69628e-07
6.1396e-07
5.83614e-07
4.85971e-07
3.40799e-07
1.73474e-07
5.29804e-08
)
;
    }
    procBoundary6to5
    {
        type            processor;
        value           nonuniform List<scalar> 
177
(
-5.56749e-08
3.4765e-08
-1.81659e-07
-3.5629e-07
-8.95559e-08
2.77889e-08
-5.03592e-07
-6.04675e-07
-1.17225e-07
-6.29978e-07
-5.50308e-09
-5.82992e-07
4.91751e-09
-4.72324e-07
-3.223e-07
6.59981e-08
-1.69574e-07
-2.99644e-08
-5.52245e-08
-1.6945e-07
2.99255e-08
6.60145e-08
-4.70374e-07
-5.56954e-08
6.04178e-08
-7.85712e-07
-1.01558e-06
-1.15204e-06
-1.19104e-06
-1.13596e-06
-9.66691e-08
-9.90962e-07
2.73204e-08
-7.60574e-07
4.23674e-08
-4.65232e-07
3.18386e-08
-1.80309e-07
-3.22079e-07
2.28244e-08
-7.62994e-07
8.24408e-08
-1.13178e-06
-1.38125e-06
-1.52621e-06
-1.57049e-06
-1.51845e-06
1.69186e-08
-1.37336e-06
-1.13161e-06
-5.20248e-08
-7.83101e-07
2.7685e-08
7.73508e-08
-3.53713e-07
-4.72004e-07
-1.08872e-07
-9.91154e-07
2.73608e-08
-9.6716e-08
-1.37365e-06
-7.99895e-08
-1.62786e-06
-5.81415e-08
-1.77626e-06
-3.25842e-08
-1.82398e-06
5.94675e-08
-4.69941e-09
-1.76882e-06
-5.80759e-08
-1.62767e-06
4.98791e-08
-1.38111e-06
7.32361e-08
-1.01568e-06
9.31552e-08
-5.04083e-07
-5.86751e-07
-1.13625e-06
1.02163e-08
-1.51565e-06
-8.36887e-08
-1.7689e-06
-5.95357e-08
-1.91817e-06
-3.16672e-08
-1.96742e-06
-1.91811e-06
-1.77116e-06
-1.52345e-06
-1.15371e-06
-1.48661e-08
-6.05336e-07
1.17121e-07
-6.34925e-07
-1.17205e-07
-7.94563e-09
-1.19114e-06
-7.85541e-09
-1.01872e-07
-1.56446e-06
8.14447e-08
-1.81346e-06
5.66935e-08
-1.96119e-06
1.57236e-09
2.84466e-08
-2.01693e-06
-1.96732e-06
-1.81852e-06
-1.56723e-06
-1.19224e-06
-6.40629e-07
-6.09915e-07
-1.15376e-06
-1.52373e-06
-1.77132e-06
-1.91809e-06
-1.96735e-06
-1.91805e-06
-1.76866e-06
-1.51525e-06
-1.137e-06
-5.91758e-07
-5.07925e-07
-1.01787e-06
-1.37976e-06
-1.62385e-06
-1.76885e-06
-1.81867e-06
-1.77122e-06
-1.62361e-06
-1.37121e-06
-9.94145e-07
-4.79167e-07
-3.56522e-07
-7.88628e-07
-1.13199e-06
-1.37169e-06
-1.51577e-06
-1.5676e-06
-1.52364e-06
-1.37954e-06
-1.13175e-06
-7.65856e-07
-3.27246e-07
-1.81778e-07
-4.70662e-07
-2.26895e-08
-7.65824e-07
-2.27604e-08
-9.9446e-07
-1.45467e-08
-1.1375e-06
-4.55331e-09
-1.19262e-06
-1.15396e-06
-1.01803e-06
-7.88733e-07
-4.70953e-07
-1.71089e-07
-5.57136e-08
-6.61153e-08
-1.70893e-07
-6.60807e-08
-3.31704e-07
9.12485e-08
-4.81992e-07
-5.9558e-07
1.17749e-07
-6.40417e-07
-6.10454e-07
-5.08341e-07
-3.56803e-07
-1.81956e-07
-5.57774e-08
)
;
    }
}


// ************************************************************************* //
