/*--------------------------------*- C++ -*----------------------------------*\
| =========                 |                                                 |
| \\      /  F ield         | OpenFOAM: The Open Source CFD Toolbox           |
|  \\    /   O peration     | Version:  2212                                  |
|   \\  /    A nd           | Website:  www.openfoam.com                      |
|    \\/     M anipulation  |                                                 |
\*---------------------------------------------------------------------------*/
FoamFile
{
    version     2.0;
    format      ascii;
    arch        "LSB;label=32;scalar=64";
    class       volScalarField;
    location    "2.3";
    object      p;
}
// * * * * * * * * * * * * * * * * * * * * * * * * * * * * * * * * * * * * * //

dimensions      [0 2 -2 0 0 0 0];

internalField   nonuniform List<scalar> 
690
(
0.0032399
0.00311243
0.00298497
0.00285725
0.00273023
0.00260401
0.0024795
0.00235582
0.00223358
0.00211179
0.00199085
0.00323097
0.00310274
0.00297446
0.00284627
0.00271916
0.00259302
0.00246858
0.00234511
0.00222306
0.0021019
0.00198209
0.00322942
0.00309938
0.00297046
0.00284231
0.00271524
0.00258914
0.0024645
0.00234055
0.00221806
0.00209641
0.00197619
0.00324829
0.00311663
0.0029863
0.00285716
0.00272919
0.00260227
0.00247668
0.00235179
0.00222797
0.00210462
0.00198192
0.00325918
0.00312674
0.00299571
0.00286603
0.00273763
0.00261042
0.00248439
0.00235949
0.00223585
0.00211329
0.00199133
0.00324822
0.00312193
0.00299573
0.00286857
0.00274152
0.00261515
0.00249045
0.00236663
0.00224421
0.00212185
0.00199992
0.00324687
0.00311916
0.00299176
0.00286457
0.00273792
0.00261222
0.00248817
0.00236461
0.00224278
0.00212102
0.00200002
0.00323714
0.00310819
0.00298033
0.00285353
0.00272734
0.0026023
0.00247838
0.00235505
0.00223235
0.00211035
0.00198935
0.00324692
0.00311726
0.00298865
0.00286114
0.00273449
0.00260886
0.00248404
0.00236043
0.00223741
0.00211512
0.00199353
0.00325239
0.00312249
0.00299371
0.00286601
0.0027393
0.00261356
0.00248872
0.00236497
0.00224191
0.00211948
0.00199807
0.00324663
0.00311837
0.00299061
0.00286282
0.00273523
0.00260863
0.00248367
0.00235945
0.00223695
0.00211466
0.00199323
0.0032422
0.00311159
0.00298198
0.00285404
0.00272741
0.00260228
0.00247839
0.00235529
0.00223284
0.00211145
0.00199145
0.00321809
0.00308749
0.00295848
0.00283114
0.0027052
0.00258027
0.00245573
0.0023326
0.00220973
0.00208873
0.00196897
0.00321725
0.0030865
0.00295732
0.00282964
0.00270324
0.0025778
0.002453
0.00232974
0.00220741
0.00208639
0.00196618
0.00321514
0.00308476
0.00295583
0.00282816
0.00270152
0.00257581
0.0024511
0.00232766
0.0022051
0.00208347
0.00196299
0.00325861
0.00312637
0.00299516
0.00286549
0.00273728
0.00261034
0.0024847
0.00236024
0.00223711
0.00211487
0.00199377
0.00325099
0.0031197
0.00298984
0.00286137
0.00273428
0.00260837
0.00248344
0.00235972
0.00223659
0.00211482
0.00199409
0.00321776
0.00308647
0.00295689
0.00282893
0.00270237
0.0025767
0.00245171
0.00232801
0.00220536
0.00208425
0.00196415
0.00320842
0.00307751
0.0029482
0.00282045
0.00269406
0.00256871
0.00244424
0.00232093
0.00219871
0.00207779
0.00195771
0.00320126
0.00307077
0.00294175
0.00281408
0.00268763
0.0025623
0.00243801
0.00231477
0.00219248
0.00207121
0.00195076
0.00326481
0.00313218
0.00300092
0.0028711
0.0027426
0.00261531
0.0024892
0.0023643
0.00224063
0.00211809
0.00199662
0.00325674
0.00312594
0.0029964
0.00286808
0.00274086
0.00261467
0.00248949
0.00236533
0.00224205
0.00211975
0.00199839
0.00321754
0.00308652
0.00295701
0.00282897
0.00270218
0.00257645
0.00245166
0.00232792
0.00220519
0.00208351
0.00196284
0.00320253
0.00307182
0.00294262
0.00281481
0.00268826
0.00256283
0.00243843
0.00231508
0.00219274
0.00207143
0.00195094
0.00319403
0.00306339
0.00293424
0.00280644
0.0026799
0.0025545
0.00243016
0.00230684
0.00218449
0.0020631
0.00194247
0.00319166
0.00306114
0.00293207
0.00280432
0.0026778
0.00255242
0.0024281
0.00230481
0.00218248
0.00206109
0.00194045
0.00326485
0.0031321
0.0030008
0.00287089
0.00274229
0.00261494
0.00248879
0.00236383
0.00224005
0.00211739
0.00199587
0.00325605
0.003126
0.00299707
0.00286917
0.00274222
0.00261626
0.00249136
0.00236738
0.00224414
0.00212169
0.00200025
0.0032159
0.00308557
0.00295658
0.00282885
0.00270224
0.00257669
0.00245214
0.00232859
0.00220595
0.0020842
0.00196325
0.00320022
0.00306987
0.00294093
0.00281328
0.00268681
0.00256144
0.00243711
0.00231383
0.00219153
0.00207019
0.0019496
0.00319163
0.00306113
0.00293206
0.00280433
0.00267781
0.00255244
0.00242813
0.00230485
0.00218253
0.00206113
0.00194048
0.00318829
0.0030579
0.00292892
0.00280125
0.00267478
0.00254944
0.00242517
0.00230191
0.00217961
0.00205823
0.0019376
0.00325925
0.00312674
0.00299564
0.00286589
0.00273743
0.00261017
0.00248408
0.00235912
0.00223542
0.00211278
0.00199075
0.00325224
0.00312233
0.00299352
0.00286578
0.00273905
0.00261327
0.00248841
0.00236461
0.00224151
0.00211911
0.00199778
0.00321496
0.00308459
0.00295567
0.002828
0.00270137
0.00257567
0.00245097
0.00232752
0.00220499
0.00208342
0.001963
0.00320118
0.00307069
0.00294168
0.00281402
0.00268758
0.00256226
0.00243799
0.00231476
0.00219249
0.00207125
0.00195081
0.003194
0.00306337
0.00293422
0.00280642
0.00267988
0.00255448
0.00243015
0.00230684
0.00218449
0.0020631
0.00194247
0.00319164
0.00306113
0.00293206
0.00280432
0.0026778
0.00255242
0.00242811
0.00230481
0.00218248
0.00206109
0.00194044
0.00324846
0.00311671
0.00298626
0.00285703
0.00272898
0.00260202
0.00247637
0.00235146
0.00222761
0.00210415
0.00198121
0.00185987
0.0032468
0.00311714
0.00298848
0.00286091
0.00273422
0.00260855
0.00248372
0.00236
0.00223698
0.00211477
0.00199324
0.00187313
0.00321716
0.0030864
0.00295721
0.00282949
0.00270309
0.00257763
0.00245284
0.00232954
0.0022072
0.00208631
0.00196629
0.00320841
0.00307748
0.00294814
0.00282037
0.00269396
0.00256862
0.00244415
0.00232083
0.00219863
0.00207776
0.00195771
0.00320253
0.00307179
0.00294256
0.00281474
0.00268817
0.00256273
0.00243833
0.00231498
0.00219265
0.00207135
0.00195086
0.00320028
0.00306988
0.00294091
0.00281323
0.00268675
0.00256136
0.00243701
0.00231371
0.0021914
0.00207005
0.00194945
0.0032298
0.00309955
0.00297044
0.0028422
0.00271507
0.00258894
0.00246422
0.00234037
0.00221778
0.00209592
0.0019757
0.00185668
0.00323708
0.00310806
0.00298016
0.00285332
0.00272708
0.00260199
0.00247806
0.00235467
0.00223199
0.00211
0.00198886
0.00186912
0.00321808
0.00308746
0.00295842
0.00283101
0.00270503
0.00258007
0.00245556
0.00233232
0.00220951
0.00208866
0.00196893
0.00321779
0.00308646
0.00295682
0.00282879
0.0027022
0.00257653
0.00245157
0.00232786
0.00220526
0.00208423
0.00196423
0.00321757
0.00308651
0.00295695
0.00282886
0.00270204
0.00257629
0.0024515
0.00232776
0.00220505
0.00208339
0.00196275
0.00321599
0.00308562
0.00295659
0.00282882
0.00270218
0.00257659
0.00245203
0.00232846
0.0022058
0.00208404
0.00196308
0.00323143
0.00310303
0.00297451
0.00284619
0.00271898
0.00259284
0.00246831
0.00234488
0.00222275
0.00210139
0.00198163
0.00186301
0.00324693
0.00311912
0.00299161
0.00286437
0.00273766
0.00261193
0.0024878
0.0023643
0.0022424
0.00212046
0.00199941
0.00187957
0.00324194
0.00311121
0.00298165
0.00285376
0.00272715
0.002602
0.00247808
0.00235496
0.00223249
0.00211107
0.00199099
0.00325084
0.0031195
0.00298958
0.00286106
0.00273396
0.00260804
0.00248311
0.00235939
0.00223627
0.00211451
0.00199386
0.0032567
0.00312585
0.00299624
0.00286786
0.00274059
0.00261438
0.00248919
0.00236502
0.00224176
0.00211948
0.00199819
0.00325608
0.00312601
0.00299704
0.0028691
0.00274211
0.00261611
0.00249119
0.00236718
0.00224394
0.00212148
0.00200005
0.00324028
0.00311272
0.00298503
0.00285718
0.00273006
0.00260382
0.00247922
0.00235556
0.00223324
0.00211127
0.00199038
0.00187078
0.00324864
0.00312234
0.00299586
0.00286854
0.00274136
0.00261495
0.00249017
0.00236636
0.00224384
0.00212133
0.00199942
0.00187888
0.0032468
0.00311847
0.00299058
0.00286275
0.00273514
0.0026085
0.00248351
0.00235923
0.00223664
0.00211427
0.00199271
0.00325842
0.00312614
0.00299496
0.00286534
0.00273715
0.00261023
0.00248457
0.00236008
0.00223689
0.00211459
0.00199333
0.00326471
0.00313205
0.00300078
0.00287095
0.00274245
0.00261515
0.00248904
0.00236413
0.00224045
0.00211788
0.00199635
0.00326476
0.00313203
0.00300072
0.00287079
0.00274218
0.00261482
0.00248868
0.00236372
0.00223994
0.00211727
0.00199572
)
;

boundaryField
{
    inlet
    {
        type            zeroGradient;
    }
    ami1
    {
        type            cyclicAMI;
        value           nonuniform List<scalar> 0();
    }
    walls
    {
        type            zeroGradient;
    }
    ami2
    {
        type            cyclicAMI;
        value           nonuniform List<scalar> 0();
    }
    outlet
    {
        type            fixedValue;
        value           nonuniform List<scalar> 0();
    }
    procBoundary8to0
    {
        type            processor;
        value           nonuniform List<scalar> 
29
(
0.00336857
0.00335993
0.00336064
0.00338149
0.0033932
0.00337656
0.00337562
0.00336713
0.00337779
0.00338331
0.0033773
0.0033731
0.00334939
0.0033493
0.003347
0.00339208
0.00338317
0.00335021
0.00334065
0.00333331
0.00339892
0.00338867
0.00334986
0.00333473
0.00332627
0.00332376
0.0033321
0.00332371
0.00332024
)
;
    }
    procBoundary8to1
    {
        type            processor;
        value           nonuniform List<scalar> 
33
(
0.00339908
0.00338715
0.00334765
0.00339326
0.00338318
0.00334686
0.00333324
0.00332625
0.00332374
0.0033816
0.0033777
0.00334934
0.00334071
0.00333478
0.00333219
0.00336098
0.00336727
0.00334967
0.0033504
0.00334993
0.00334774
0.00336003
0.00337548
0.00337315
0.00338317
0.00338868
0.0033872
0.0033685
0.00337639
0.00337726
0.0033919
0.00339883
0.003399
)
;
    }
    procBoundary8to7
    {
        type            processor;
        value           nonuniform List<scalar> 
68
(
0.00187142
0.00186365
0.00185727
0.00186059
0.00187013
0.00187954
0.00188024
0.00186946
0.00187329
0.00187787
0.00187323
0.00187216
0.00185012
0.00184654
0.00184349
0.00187341
0.00187412
0.00184525
0.0018381
0.00183106
0.00187611
0.00187806
0.00184317
0.00183118
0.00182264
0.00182063
0.0018754
0.00187978
0.00184316
0.00182979
0.00182065
0.0018178
0.00186964
0.00186964
0.00187759
0.00187759
0.00184344
0.0018311
0.00182263
0.00182061
0.00174038
0.00175422
0.00184668
0.00184668
0.00183808
0.00183109
0.00182964
0.00173849
0.00175037
0.00185019
0.00185019
0.00184526
0.00184308
0.001843
0.00174503
0.00176047
0.00187186
0.00187186
0.0018739
0.00187784
0.00187958
0.00175217
0.00175974
0.00187272
0.00187272
0.00187305
0.00187581
0.00187519
)
;
    }
    procBoundary8to9
    {
        type            processor;
        value           nonuniform List<scalar> 
132
(
0.00326489
0.00313217
0.0030009
0.00287103
0.00274247
0.00261516
0.00248907
0.00236417
0.00224045
0.00211787
0.00199643
0.00325619
0.00312617
0.00299726
0.00286938
0.00274245
0.00261652
0.00249164
0.00236768
0.00224447
0.00212201
0.0020006
0.00321611
0.00308578
0.00295678
0.00282902
0.00270241
0.00257683
0.00245228
0.00232871
0.00220604
0.00208426
0.00196326
0.00320034
0.00306996
0.002941
0.00281333
0.00268685
0.00256146
0.00243712
0.00231382
0.0021915
0.00207015
0.00194954
0.00320034
0.00306996
0.002941
0.00281333
0.00268685
0.00256146
0.00243712
0.00231382
0.0021915
0.00207015
0.00194954
0.00319411
0.00306346
0.0029343
0.00280651
0.00267996
0.00255455
0.00243021
0.0023069
0.00218455
0.00206316
0.00194251
0.00319168
0.00306116
0.0029321
0.00280436
0.00267784
0.00255246
0.00242815
0.00230486
0.00218253
0.00206113
0.00194047
0.00319403
0.00306339
0.00293424
0.00280645
0.0026799
0.0025545
0.00243015
0.00230683
0.00218447
0.00206307
0.00194242
0.0032012
0.00307068
0.00294167
0.00281401
0.00268756
0.00256222
0.00243793
0.00231468
0.0021924
0.00207114
0.00195067
0.00321499
0.0030846
0.00295568
0.00282801
0.00270136
0.00257561
0.00245091
0.00232741
0.00220491
0.00208328
0.00196284
0.00325227
0.00312237
0.00299358
0.00286583
0.00273906
0.00261322
0.00248841
0.00236448
0.00224145
0.00211902
0.00199765
0.00325921
0.00312677
0.00299567
0.00286587
0.00273738
0.00261011
0.00248401
0.00235911
0.00223541
0.00211279
0.00199073
)
;
    }
}


// ************************************************************************* //
