/*--------------------------------*- C++ -*----------------------------------*\
| =========                 |                                                 |
| \\      /  F ield         | OpenFOAM: The Open Source CFD Toolbox           |
|  \\    /   O peration     | Version:  2212                                  |
|   \\  /    A nd           | Website:  www.openfoam.com                      |
|    \\/     M anipulation  |                                                 |
\*---------------------------------------------------------------------------*/
FoamFile
{
    version     2.0;
    format      ascii;
    arch        "LSB;label=32;scalar=64";
    class       surfaceVectorField;
    location    "2.3";
    object      Uf;
}
// * * * * * * * * * * * * * * * * * * * * * * * * * * * * * * * * * * * * * //

dimensions      [0 1 -1 0 0 0 0];

internalField   nonuniform List<vector> 
1815
(
(0.028046 -3.40847e-05 6.84669e-05)
(0.0355199 -0.000174649 3.37153e-05)
(0.0344075 -2.89256e-05 0.000126963)
(0.0276474 -3.23126e-05 6.80552e-05)
(0.0350512 -0.000170739 3.24549e-05)
(0.0339504 -2.15228e-05 0.000123049)
(0.0272699 -3.0711e-05 6.77024e-05)
(0.0345896 -0.000168967 3.3413e-05)
(0.0334943 -1.30763e-05 0.000119869)
(0.0269079 -2.95769e-05 6.57091e-05)
(0.0341672 -0.000167038 3.34076e-05)
(0.0330759 -7.3566e-06 0.00011514)
(0.0265601 -2.8865e-05 6.21234e-05)
(0.0337487 -0.000163425 3.11219e-05)
(0.0326595 -4.06679e-06 0.000108571)
(0.0262245 -2.80546e-05 5.78138e-05)
(0.0333563 -0.00015967 2.72186e-05)
(0.0322692 -2.22595e-06 0.000101349)
(0.0259048 -2.73365e-05 5.35362e-05)
(0.0329734 -0.000155207 2.30543e-05)
(0.0318879 5.38783e-07 9.38987e-05)
(0.025595 -2.66182e-05 4.97e-05)
(0.0326064 -0.00015189 1.92143e-05)
(0.0315246 1.75515e-06 8.72103e-05)
(0.0252972 -2.60486e-05 4.56619e-05)
(0.0322495 -0.000148488 1.65991e-05)
(0.0311752 4.10956e-06 8.0776e-05)
(0.0250056 -2.64898e-05 4.04409e-05)
(0.0318953 -0.000144282 1.36405e-05)
(0.0308334 3.17757e-06 7.35577e-05)
(0.0315518 -0.000136301 9.3368e-06)
(0.0305061 -1.13068e-06 6.50509e-05)
(0.0461459 -0.000319996 -3.82579e-05)
(0.0541263 -0.000480525 -0.000170841)
(0.0596315 -0.000319113 6.67108e-05)
(0.045584 -0.000315231 -3.81146e-05)
(0.0535251 -0.000474354 -0.000175638)
(0.0590931 -0.000296122 6.05045e-05)
(0.045049 -0.0003099 -3.73283e-05)
(0.0529189 -0.000465762 -0.000179479)
(0.0585561 -0.000281042 5.75776e-05)
(0.0445375 -0.000302493 -3.78566e-05)
(0.0523611 -0.000454483 -0.000183526)
(0.0580696 -0.00027093 5.49712e-05)
(0.0440483 -0.000294104 -4.02881e-05)
(0.0517971 -0.000443397 -0.000187998)
(0.0575769 -0.000259038 5.04189e-05)
(0.0435768 -0.000285896 -4.36521e-05)
(0.0512655 -0.00043316 -0.00019264)
(0.0571222 -0.000249311 4.45652e-05)
(0.0431238 -0.000279579 -4.65396e-05)
(0.0507347 -0.000424393 -0.000195974)
(0.0566651 -0.000235969 3.81662e-05)
(0.0426789 -0.000275602 -4.78482e-05)
(0.050219 -0.000420205 -0.000196858)
(0.0562271 -0.000227215 3.19365e-05)
(0.0422409 -0.00027189 -4.72706e-05)
(0.0497102 -0.000419048 -0.00019577)
(0.0557975 -0.000216573 2.73773e-05)
(0.0418057 -0.000264481 -4.5963e-05)
(0.0491932 -0.000409919 -0.000190107)
(0.0553583 -0.000214089 2.32274e-05)
(0.0486986 -0.000381841 -0.000179371)
(0.0549383 -0.000216877 1.88502e-05)
(0.0633833 -0.000648393 -0.000352955)
(0.0687331 -0.000672086 -0.000456172)
(0.0774499 -0.00076611 -0.00020944)
(0.0627292 -0.000637402 -0.000362993)
(0.0680607 -0.000667425 -0.000478327)
(0.0769841 -0.000733988 -0.000231965)
(0.0620922 -0.000626818 -0.00037045)
(0.0673786 -0.000665939 -0.00049394)
(0.0765298 -0.000706118 -0.000249464)
(0.0614665 -0.000616159 -0.000376914)
(0.0667178 -0.000664168 -0.000505617)
(0.076099 -0.00068199 -0.000263756)
(0.0608488 -0.00060616 -0.000382486)
(0.0660445 -0.000663413 -0.000515021)
(0.0756703 -0.000660135 -0.000276678)
(0.0602371 -0.000597289 -0.000386204)
(0.0653834 -0.000660921 -0.00052149)
(0.0752556 -0.000642238 -0.000287609)
(0.0596325 -0.00059074 -0.000387285)
(0.0647176 -0.00065813 -0.000524414)
(0.0748401 -0.000624409 -0.000295906)
(0.0590311 -0.000588892 -0.0003858)
(0.0640529 -0.000655731 -0.00052456)
(0.0744259 -0.000615592 -0.000302358)
(0.0584299 -0.000580879 -0.00037945)
(0.0634002 -0.000658627 -0.000521813)
(0.0740179 -0.000608497 -0.000306668)
(0.0578337 -0.000546747 -0.000363416)
(0.0627325 -0.000650401 -0.000512864)
(0.0735994 -0.000598676 -0.000306384)
(0.0620974 -0.000623797 -0.000493686)
(0.0731963 -0.000571487 -0.000298458)
(0.0741023 -0.000766413 -0.000551464)
(0.0768143 -0.00077271 -0.000557414)
(0.0870347 -0.0009161 -0.000419566)
(0.0733982 -0.000771069 -0.000581228)
(0.0761626 -0.000790486 -0.000597799)
(0.0866289 -0.000891862 -0.000464686)
(0.0726892 -0.000776964 -0.000603607)
(0.075492 -0.000806946 -0.000628079)
(0.0862231 -0.000875342 -0.000500479)
(0.0719741 -0.000783586 -0.000620568)
(0.0748067 -0.000821449 -0.000650733)
(0.0858122 -0.000863456 -0.000528299)
(0.0712526 -0.00078885 -0.000632871)
(0.0741075 -0.000834172 -0.000668133)
(0.0853982 -0.000855467 -0.000550562)
(0.0705257 -0.000790786 -0.000640273)
(0.0733966 -0.000842169 -0.000680452)
(0.0849768 -0.000849227 -0.000568092)
(0.0697967 -0.0007902 -0.000643904)
(0.0726803 -0.00084683 -0.000688059)
(0.0845532 -0.000841905 -0.000580798)
(0.0690678 -0.00078909 -0.000645188)
(0.0719532 -0.000846989 -0.000693518)
(0.084121 -0.000837742 -0.000590783)
(0.0683447 -0.000785965 -0.000644061)
(0.0712338 -0.000845354 -0.000697881)
(0.083692 -0.000834145 -0.00059737)
(0.0676299 -0.000777113 -0.000638874)
(0.0705039 -0.00083706 -0.000701518)
(0.0832561 -0.000827314 -0.000600134)
(0.0697884 -0.000821974 -0.000702117)
(0.0828292 -0.000813463 -0.0005967)
(0.079047 -0.000788806 -0.000612996)
(0.091116 -0.000883273 -0.000528876)
(0.0784322 -0.00082019 -0.000653571)
(0.0908303 -0.000897983 -0.00057856)
(0.0777878 -0.000846552 -0.000683937)
(0.0905175 -0.000912078 -0.000616851)
(0.0771198 -0.000868164 -0.000706848)
(0.0901819 -0.000925353 -0.0006461)
(0.0764333 -0.000884662 -0.000723904)
(0.0898273 -0.00093734 -0.000668646)
(0.0757321 -0.000896343 -0.000736095)
(0.0894566 -0.000946833 -0.000685532)
(0.0750205 -0.000903335 -0.000744631)
(0.0890724 -0.000953718 -0.000698024)
(0.0743007 -0.000906138 -0.00075089)
(0.0886776 -0.000957579 -0.000707472)
(0.0735755 -0.000904872 -0.000755796)
(0.0882741 -0.000958186 -0.000714283)
(0.0728467 -0.00089772 -0.00075961)
(0.0878643 -0.00095389 -0.000718071)
(0.0874485 -0.000946488 -0.00072089)
(0.0433765 -7.31184e-05 0.000198735)
(0.0580813 -0.000234705 0.000183512)
(0.0498453 -0.000279313 0.000291682)
(0.0428357 -6.92801e-05 0.000188064)
(0.0575589 -0.000221516 0.00017224)
(0.0492615 -0.000264037 0.000271025)
(0.0423151 -6.33383e-05 0.000177003)
(0.0570296 -0.000215421 0.000163173)
(0.0486763 -0.00023999 0.000245445)
(0.0418124 -5.75055e-05 0.000165192)
(0.0565486 -0.000209953 0.000153301)
(0.048147 -0.000221878 0.000223427)
(0.0413278 -5.30586e-05 0.000153167)
(0.0560589 -0.000200762 0.000142029)
(0.0476143 -0.000211561 0.000204461)
(0.0408601 -4.85494e-05 0.000141283)
(0.0556071 -0.000192575 0.000130529)
(0.0471264 -0.00020412 0.000188544)
(0.0404141 -4.50529e-05 0.00012995)
(0.0551521 -0.000179543 0.000118173)
(0.0466384 -0.000196931 0.000173429)
(0.0399814 -4.18261e-05 0.00011927)
(0.0547193 -0.000170766 0.000107138)
(0.0461787 -0.000194006 0.000159534)
(0.0395697 -3.89906e-05 0.000108608)
(0.0543003 -0.000157139 9.50775e-05)
(0.0457348 -0.000188928 0.000146781)
(0.0391727 -3.96141e-05 9.77375e-05)
(0.0538783 -0.000151648 8.35309e-05)
(0.0452946 -0.000184613 0.000134375)
(0.053481 -0.000153808 7.17134e-05)
(0.044885 -0.000178571 0.000122897)
(0.075999 -0.000423258 0.000151618)
(0.0842798 -0.000717936 6.61759e-05)
(0.0829351 -0.000639236 0.000228527)
(0.0754948 -0.00039672 0.000137912)
(0.083891 -0.000677948 3.98849e-05)
(0.0825408 -0.000601072 0.000216111)
(0.0750153 -0.000384759 0.000127673)
(0.0835216 -0.00064913 1.86859e-05)
(0.0821665 -0.000581878 0.000205653)
(0.0745509 -0.000375078 0.000118459)
(0.0831782 -0.000630246 1.02163e-06)
(0.0818225 -0.000568404 0.000196132)
(0.0740991 -0.000363669 0.000109016)
(0.0828369 -0.000608656 -1.48027e-05)
(0.081481 -0.000554463 0.000187064)
(0.073656 -0.000349651 9.88892e-05)
(0.0825164 -0.000592731 -2.97533e-05)
(0.0811608 -0.000542611 0.000177851)
(0.0732225 -0.000332809 8.82104e-05)
(0.0821912 -0.00057223 -4.34799e-05)
(0.0808374 -0.000523803 0.000165784)
(0.072795 -0.000316198 7.75825e-05)
(0.0818719 -0.000559512 -5.6761e-05)
(0.0805214 -0.000511627 0.000155515)
(0.072372 -0.00030504 6.73267e-05)
(0.0815608 -0.000544928 -6.68102e-05)
(0.0802133 -0.000491959 0.000140873)
(0.0719478 -0.0003083 5.80151e-05)
(0.0812374 -0.000542148 -7.62409e-05)
(0.0798963 -0.00048492 0.000129593)
(0.0809255 -0.000546575 -8.34663e-05)
(0.0795915 -0.000486959 0.000120398)
(0.0934634 -0.000949674 -0.000100266)
(0.0972724 -0.00102822 -0.000200025)
(0.0989097 -0.00113667 9.16947e-06)
(0.0932305 -0.000905994 -0.000135746)
(0.0971065 -0.000981441 -0.000250751)
(0.0987867 -0.00108507 -2.43116e-05)
(0.0930172 -0.000869806 -0.000164993)
(0.0969648 -0.000944196 -0.000291853)
(0.0987011 -0.0010424 -5.3574e-05)
(0.092818 -0.000838615 -0.00018972)
(0.0968201 -0.000916675 -0.000324814)
(0.0986192 -0.0010094 -7.87337e-05)
(0.0926271 -0.000812384 -0.000211391)
(0.0966891 -0.000891874 -0.000352296)
(0.0985618 -0.000981542 -9.97918e-05)
(0.0924393 -0.000789663 -0.000230407)
(0.0965524 -0.000876174 -0.000376113)
(0.0985017 -0.000960487 -0.000119398)
(0.0922517 -0.000773193 -0.000247263)
(0.0964181 -0.000859059 -0.000395671)
(0.0984558 -0.000937684 -0.000138506)
(0.0920609 -0.000760309 -0.000261684)
(0.0962752 -0.00085395 -0.000414259)
(0.0984053 -0.000925363 -0.000155591)
(0.0918716 -0.000750495 -0.000273157)
(0.0961287 -0.000842782 -0.000428687)
(0.0983603 -0.000910729 -0.000170129)
(0.0916765 -0.000746612 -0.00028144)
(0.0959806 -0.000838887 -0.000439298)
(0.0983162 -0.00090678 -0.000181067)
(0.0958214 -0.000831241 -0.000443863)
(0.0982638 -0.000902443 -0.000188254)
(0.101285 -0.0010978 -0.000339443)
(0.102754 -0.00107924 -0.000387625)
(0.106073 -0.00124224 -0.000238036)
(0.101219 -0.00105752 -0.000396905)
(0.102749 -0.001056 -0.000448984)
(0.106127 -0.00119408 -0.00029453)
(0.101152 -0.00102781 -0.000443591)
(0.102738 -0.00104076 -0.000498984)
(0.106188 -0.00115725 -0.000342207)
(0.101083 -0.00100518 -0.000481299)
(0.102713 -0.00103132 -0.000538793)
(0.106248 -0.00112932 -0.000381822)
(0.101011 -0.000989371 -0.000512876)
(0.102682 -0.00102549 -0.000570871)
(0.106313 -0.00110794 -0.000414863)
(0.100933 -0.000977306 -0.000539388)
(0.102639 -0.00102396 -0.000597508)
(0.106374 -0.0010938 -0.000443905)
(0.100848 -0.000970361 -0.000562149)
(0.102586 -0.00102095 -0.000619057)
(0.106433 -0.001081 -0.000468783)
(0.100755 -0.00096761 -0.000580826)
(0.102524 -0.00102354 -0.000637556)
(0.10649 -0.00107647 -0.000491244)
(0.100654 -0.000963315 -0.000593967)
(0.102449 -0.0010221 -0.000650404)
(0.106538 -0.00107087 -0.000508613)
(0.100546 -0.000954899 -0.000601207)
(0.102371 -0.0010174 -0.000657448)
(0.106589 -0.00106819 -0.000521571)
(0.102281 -0.00100923 -0.000661398)
(0.106626 -0.00106167 -0.000528645)
(0.104298 -0.00103036 -0.00050621)
(0.108873 -0.00110816 -0.000451957)
(0.104351 -0.00103368 -0.000559694)
(0.109047 -0.00110392 -0.000504952)
(0.104385 -0.00104016 -0.000602284)
(0.109207 -0.00110354 -0.000548784)
(0.1044 -0.00104885 -0.000635911)
(0.109353 -0.0011064 -0.000584533)
(0.1044 -0.00105851 -0.000662455)
(0.109487 -0.00111172 -0.000613684)
(0.104384 -0.00106741 -0.000683263)
(0.109612 -0.00111837 -0.00063728)
(0.104354 -0.00107496 -0.000699828)
(0.109727 -0.00112422 -0.000656316)
(0.104313 -0.00107936 -0.000712065)
(0.109835 -0.00112985 -0.000671877)
(0.104262 -0.00107778 -0.000718462)
(0.109933 -0.001132 -0.000682891)
(0.104204 -0.00107399 -0.00072163)
(0.110027 -0.00113069 -0.000688787)
(0.110113 -0.0011299 -0.000692919)
(0.057234 -0.000425982 0.00041544)
(0.0727941 -0.000588963 0.000385283)
(0.0625144 -0.000499983 0.000536823)
(0.0565994 -0.000380251 0.000378971)
(0.0723244 -0.000547619 0.000369871)
(0.0618449 -0.00048124 0.000519365)
(0.0560036 -0.000337272 0.000340345)
(0.0718814 -0.000507818 0.000347552)
(0.0611935 -0.000453825 0.000489708)
(0.0554374 -0.000311655 0.000309374)
(0.0714778 -0.000477979 0.000325682)
(0.0605889 -0.000433468 0.000461654)
(0.0548958 -0.000296814 0.000285339)
(0.0710833 -0.000458587 0.000306497)
(0.0599903 -0.000416742 0.000437913)
(0.054375 -0.000286675 0.000265077)
(0.0707183 -0.000443274 0.000288877)
(0.0594335 -0.000403138 0.000416806)
(0.0538739 -0.000279414 0.000246711)
(0.0703541 -0.000426335 0.000270383)
(0.0588802 -0.000393053 0.000395888)
(0.0533882 -0.000274422 0.000230105)
(0.0700047 -0.000417718 0.000254384)
(0.0583543 -0.00038362 0.000376584)
(0.0529172 -0.000269301 0.000214502)
(0.0696657 -0.000403197 0.00023733)
(0.0578442 -0.0003789 0.000357621)
(0.0524593 -0.000261286 0.00019975)
(0.0693259 -0.000394919 0.000221575)
(0.057335 -0.000370454 0.000339731)
(0.0690056 -0.000386127 0.000206128)
(0.0568585 -0.000358712 0.000323542)
(0.090554 -0.000756129 0.000345035)
(0.0973763 -0.00103149 0.000270412)
(0.0941166 -0.000836524 0.000447655)
(0.0903099 -0.000712624 0.000341666)
(0.0972469 -0.000971423 0.000256604)
(0.0939253 -0.000775704 0.000462211)
(0.0900897 -0.00068214 0.000335966)
(0.0971558 -0.000928073 0.000241948)
(0.093765 -0.000730632 0.000471268)
(0.0898891 -0.000659788 0.00032833)
(0.0970731 -0.000894211 0.000227465)
(0.0936125 -0.000694422 0.00047376)
(0.0896984 -0.000644896 0.000319658)
(0.0970155 -0.000872971 0.000214667)
(0.0934801 -0.000668259 0.000472635)
(0.0895133 -0.000628637 0.000308162)
(0.0969558 -0.000856676 0.000202156)
(0.093347 -0.000648813 0.000467463)
(0.089331 -0.00061582 0.000295938)
(0.096912 -0.000836225 0.000187598)
(0.0932254 -0.000628675 0.00045783)
(0.0891477 -0.00060016 0.000281599)
(0.0968652 -0.000826423 0.000174543)
(0.0930994 -0.000618191 0.000448336)
(0.0889682 -0.000583861 0.000265676)
(0.0968237 -0.000807791 0.000158444)
(0.0929776 -0.000596193 0.000433871)
(0.0887864 -0.0005799 0.000252065)
(0.0967868 -0.000803507 0.00014521)
(0.0928605 -0.00058709 0.000421064)
(0.0967426 -0.000804729 0.000133882)
(0.0927379 -0.000581098 0.0004053)
(0.104872 -0.00122138 0.000134136)
(0.107952 -0.00127254 5.18943e-06)
(0.107377 -0.00123017 0.000266825)
(0.104911 -0.00116451 0.000110559)
(0.108055 -0.00121284 -2.91068e-05)
(0.107469 -0.00116256 0.000261972)
(0.104971 -0.00111997 8.82771e-05)
(0.108181 -0.00116588 -6.04422e-05)
(0.107585 -0.00110907 0.000254451)
(0.105048 -0.0010875 6.85525e-05)
(0.108312 -0.00112968 -8.80713e-05)
(0.10771 -0.00106779 0.000245603)
(0.105136 -0.00106329 5.06634e-05)
(0.108459 -0.00110452 -0.000111918)
(0.107853 -0.00103802 0.000236502)
(0.105235 -0.00103927 3.25481e-05)
(0.108606 -0.00108399 -0.000133863)
(0.107998 -0.00101344 0.000226364)
(0.105341 -0.00101795 1.44448e-05)
(0.108764 -0.00106294 -0.000155688)
(0.108157 -0.000988008 0.000214888)
(0.105456 -0.00100265 -2.28968e-06)
(0.108925 -0.00104921 -0.000175404)
(0.10832 -0.000969919 0.000202741)
(0.105572 -0.000994725 -1.68699e-05)
(0.109086 -0.00103728 -0.00019372)
(0.108488 -0.000953723 0.000191435)
(0.105688 -0.000994143 -2.89032e-05)
(0.109252 -0.00103581 -0.000208261)
(0.108661 -0.000946821 0.000180459)
(0.109409 -0.001037 -0.000219032)
(0.108828 -0.000944805 0.000169969)
(0.111379 -0.00129178 -0.000147978)
(0.112552 -0.0012349 -0.000252269)
(0.113534 -0.00125472 -8.82468e-06)
(0.111573 -0.00124198 -0.000190987)
(0.112793 -0.00119898 -0.000296828)
(0.113782 -0.00119696 -3.6965e-05)
(0.111774 -0.00120287 -0.000228819)
(0.113034 -0.00117137 -0.000335749)
(0.114036 -0.0011501 -6.27532e-05)
(0.11198 -0.00117318 -0.000261801)
(0.113274 -0.00115099 -0.000369244)
(0.114294 -0.00111281 -8.62155e-05)
(0.11219 -0.00115099 -0.000290757)
(0.113514 -0.0011371 -0.000397723)
(0.114557 -0.00108403 -0.000107373)
(0.112404 -0.00113368 -0.000316704)
(0.113754 -0.00112759 -0.000422187)
(0.114822 -0.0010615 -0.000126358)
(0.112617 -0.00112098 -0.000339971)
(0.113993 -0.00112008 -0.000443807)
(0.115089 -0.00104272 -0.000143463)
(0.112831 -0.00111209 -0.000360401)
(0.114231 -0.00111614 -0.000462245)
(0.115359 -0.00102938 -0.000159406)
(0.113044 -0.00110804 -0.000377731)
(0.114465 -0.00111337 -0.000477385)
(0.115627 -0.00101854 -0.000174091)
(0.113255 -0.00110823 -0.000391183)
(0.1147 -0.00111505 -0.000489302)
(0.115898 -0.00101437 -0.00018693)
(0.114927 -0.00111597 -0.000497821)
(0.116163 -0.00101204 -0.000197166)
(0.114022 -0.00113659 -0.000408748)
(0.116137 -0.00105863 -0.000288853)
(0.114312 -0.00112423 -0.000448628)
(0.11648 -0.00103715 -0.000317903)
(0.114594 -0.00111639 -0.000482782)
(0.116816 -0.00102069 -0.000343428)
(0.114869 -0.00111244 -0.000511612)
(0.117146 -0.00100834 -0.000365607)
(0.115141 -0.00111157 -0.000535594)
(0.117472 -0.000999452 -0.000384453)
(0.115408 -0.00111237 -0.000555493)
(0.117794 -0.000993206 -0.000400136)
(0.115672 -0.00111408 -0.000572002)
(0.118114 -0.000988703 -0.000413262)
(0.115932 -0.00111606 -0.000585396)
(0.118431 -0.000986146 -0.000424227)
(0.116188 -0.00111828 -0.000595802)
(0.118745 -0.000984266 -0.000433043)
(0.116439 -0.0011204 -0.000602968)
(0.119057 -0.000983915 -0.000439871)
(0.119365 -0.000983705 -0.000444575)
(0.0678035 -0.000611397 0.000633336)
(0.0820774 -0.000751294 0.000586369)
(0.0717431 -0.000655939 0.000644423)
(0.067118 -0.000601476 0.00063061)
(0.0816545 -0.000713632 0.000601318)
(0.0710761 -0.000649223 0.000669099)
(0.0664541 -0.000589183 0.000617804)
(0.0812526 -0.000679462 0.00060435)
(0.0704147 -0.000640177 0.000682172)
(0.0658134 -0.000574534 0.000599705)
(0.0808674 -0.000648852 0.000600169)
(0.0697635 -0.000630848 0.000685391)
(0.0651945 -0.000558567 0.000579324)
(0.0804987 -0.000621182 0.000591495)
(0.0691203 -0.000620875 0.00068151)
(0.0645966 -0.000543952 0.000557862)
(0.0801435 -0.00059685 0.000579535)
(0.0684906 -0.000610235 0.000672772)
(0.0640182 -0.000531269 0.000535804)
(0.079803 -0.00057727 0.000565083)
(0.0678731 -0.000600594 0.000660667)
(0.0634563 -0.000521618 0.000513893)
(0.0794726 -0.000561017 0.000549107)
(0.0672689 -0.000591747 0.000645935)
(0.0629094 -0.000512982 0.000492442)
(0.0791527 -0.000548547 0.000532697)
(0.0666778 -0.000585914 0.000630149)
(0.0623751 -0.000501714 0.00047222)
(0.0788394 -0.000536915 0.000515879)
(0.0660945 -0.000578092 0.000612923)
(0.078536 -0.000522916 0.000497739)
(0.0655282 -0.000569595 0.000595574)
(0.0978338 -0.000886664 0.000561227)
(0.103707 -0.00108987 0.000487145)
(0.0999117 -0.000908009 0.000601896)
(0.0977326 -0.000826926 0.000587682)
(0.103729 -0.00102292 0.000511785)
(0.0998576 -0.000856973 0.000647606)
(0.0976446 -0.000777113 0.000604941)
(0.103768 -0.000968557 0.000528213)
(0.099809 -0.000813994 0.000682018)
(0.0975668 -0.000735885 0.000614957)
(0.103814 -0.000924537 0.000537895)
(0.0997596 -0.000777283 0.000707197)
(0.0974969 -0.000702462 0.000618969)
(0.103873 -0.000889112 0.000542675)
(0.0997151 -0.000746662 0.000724288)
(0.0974333 -0.000675776 0.000617772)
(0.103935 -0.000861018 0.000543398)
(0.0996688 -0.000721103 0.000734651)
(0.0973733 -0.000655073 0.000612636)
(0.104007 -0.000837716 0.000540612)
(0.0996263 -0.000699475 0.000739619)
(0.0973173 -0.000636842 0.000604017)
(0.104082 -0.000819705 0.000535194)
(0.0995825 -0.000682619 0.000739954)
(0.0972625 -0.000621438 0.000593279)
(0.10416 -0.000801475 0.000526347)
(0.0995391 -0.000665771 0.000736581)
(0.0972091 -0.000607703 0.000579526)
(0.104242 -0.000789257 0.00051681)
(0.0994983 -0.000653981 0.000730277)
(0.104322 -0.00077783 0.000503762)
(0.099454 -0.000640832 0.000718955)
(0.110173 -0.00119211 0.000390086)
(0.112917 -0.00120669 0.000239699)
(0.11146 -0.00113915 0.000480904)
(0.110346 -0.00112818 0.000402261)
(0.113154 -0.00114093 0.000242248)
(0.111674 -0.00108308 0.000507899)
(0.110531 -0.00107784 0.000409196)
(0.113399 -0.00108772 0.000241723)
(0.111893 -0.00103756 0.00052858)
(0.110726 -0.00103837 0.000412218)
(0.113649 -0.00104542 0.000238583)
(0.112117 -0.00100098 0.000543456)
(0.11093 -0.00100684 0.000412266)
(0.113908 -0.0010117 0.000233842)
(0.112346 -0.000971376 0.000553716)
(0.111142 -0.000980174 0.000409723)
(0.114171 -0.000984353 0.000227811)
(0.112578 -0.000946807 0.000560473)
(0.111359 -0.000957448 0.000405003)
(0.114439 -0.000960485 0.000220745)
(0.112814 -0.000924978 0.000564447)
(0.111583 -0.000938392 0.000398627)
(0.114712 -0.000941313 0.000212776)
(0.113054 -0.000906928 0.00056574)
(0.111809 -0.000923219 0.000391011)
(0.114986 -0.000925015 0.000204014)
(0.113295 -0.000891456 0.000564484)
(0.112039 -0.000913472 0.000382397)
(0.115264 -0.00091408 0.00019511)
(0.113538 -0.000880576 0.000561117)
(0.115541 -0.000907561 0.00018618)
(0.113782 -0.000873211 0.000555727)
(0.116085 -0.00117207 9.83771e-05)
(0.117207 -0.00109479 -4.2431e-05)
(0.117081 -0.0010745 0.000222153)
(0.116397 -0.00111783 8.79653e-05)
(0.117558 -0.00105081 -5.49824e-05)
(0.117429 -0.00102581 0.000221138)
(0.116711 -0.00107309 7.70448e-05)
(0.117909 -0.00101437 -6.71884e-05)
(0.117775 -0.000984828 0.00021902)
(0.117029 -0.00103682 6.58609e-05)
(0.118259 -0.000984637 -7.91021e-05)
(0.118121 -0.000951006 0.00021565)
(0.11735 -0.00100775 5.50482e-05)
(0.118609 -0.000960709 -9.03273e-05)
(0.118468 -0.000923548 0.000211467)
(0.117674 -0.00098411 4.50012e-05)
(0.118959 -0.000941532 -0.000100457)
(0.118817 -0.000901186 0.000207023)
(0.118 -0.000964845 3.53911e-05)
(0.119309 -0.000925844 -0.000109434)
(0.119165 -0.000882419 0.000202533)
(0.118327 -0.000949265 2.55888e-05)
(0.11966 -0.000913661 -0.000117692)
(0.119515 -0.000866993 0.00019763)
(0.118656 -0.00093775 1.58641e-05)
(0.12001 -0.000904039 -0.000125439)
(0.119864 -0.000854309 0.000191905)
(0.118985 -0.000930275 6.77596e-06)
(0.120361 -0.00089816 -0.000132316)
(0.120215 -0.000845797 0.00018592)
(0.120711 -0.000894102 -0.000138323)
(0.120565 -0.000839587 0.000179659)
(0.118729 -0.000967971 -0.00020312)
(0.119669 -0.000841809 -7.40845e-05)
(0.119121 -0.000942439 -0.000217427)
(0.120092 -0.000817054 -8.23703e-05)
(0.119508 -0.000921443 -0.000230667)
(0.120509 -0.000796178 -9.02018e-05)
(0.119891 -0.000904258 -0.000242773)
(0.12092 -0.000778713 -9.76149e-05)
(0.120271 -0.000890312 -0.000253499)
(0.121327 -0.000764243 -0.000104476)
(0.120649 -0.000879161 -0.000262702)
(0.121732 -0.000752391 -0.000110601)
(0.121025 -0.000870603 -0.00027044)
(0.122133 -0.000742778 -0.000115927)
(0.121399 -0.00086425 -0.000276876)
(0.122533 -0.000735275 -0.000120471)
(0.121772 -0.000859895 -0.000282191)
(0.12293 -0.000729488 -0.000124379)
(0.122144 -0.000856996 -0.000286416)
(0.123327 -0.000725728 -0.000127777)
(0.123721 -0.000722636 -0.000130561)
(0.0752766 -0.000697008 0.000681721)
(0.088087 -0.000782488 0.000653205)
(0.0774762 -0.000680662 0.000677501)
(0.0746372 -0.000700073 0.00071817)
(0.0877551 -0.00076529 0.000700937)
(0.0768753 -0.000697843 0.000723747)
(0.0739873 -0.00070101 0.000744451)
(0.0874124 -0.000749496 0.000737744)
(0.0762508 -0.000710549 0.000759153)
(0.0733329 -0.000699467 0.000761422)
(0.0870621 -0.000734471 0.000764795)
(0.0756092 -0.000718798 0.000785112)
(0.0726783 -0.000695546 0.000770002)
(0.086708 -0.000720005 0.000783012)
(0.0749563 -0.000723095 0.000802245)
(0.0720269 -0.000690045 0.000771525)
(0.0863524 -0.00070583 0.000793484)
(0.0742972 -0.000723723 0.000811922)
(0.0713817 -0.000683981 0.000767695)
(0.0859982 -0.000692379 0.000797881)
(0.0736364 -0.000721962 0.000815796)
(0.0707443 -0.000678453 0.000759997)
(0.0856466 -0.000680374 0.000797477)
(0.0729764 -0.000718992 0.000814763)
(0.0701156 -0.000672898 0.000749222)
(0.0852985 -0.00067055 0.000793834)
(0.0723197 -0.000715851 0.00081019)
(0.0694956 -0.000666401 0.00073615)
(0.0849545 -0.000661307 0.000786673)
(0.071667 -0.000711468 0.000802487)
(0.084615 -0.000652387 0.000776749)
(0.0710204 -0.000706334 0.000792883)
(0.102048 -0.000880129 0.000690336)
(0.107246 -0.000991833 0.000644095)
(0.103119 -0.000807427 0.000734383)
(0.102049 -0.000847366 0.000744181)
(0.107375 -0.000956148 0.000695395)
(0.103165 -0.000798784 0.000788655)
(0.102041 -0.000818558 0.000786835)
(0.107497 -0.00092541 0.000737098)
(0.103193 -0.000789917 0.000833425)
(0.102026 -0.000793146 0.000819504)
(0.107615 -0.000898633 0.000769702)
(0.103206 -0.000780737 0.000869643)
(0.102007 -0.000770703 0.000843461)
(0.10773 -0.000875484 0.000794266)
(0.103208 -0.000771532 0.000898034)
(0.101983 -0.000750657 0.000860274)
(0.107842 -0.000855423 0.000812433)
(0.1032 -0.000761499 0.00091982)
(0.101957 -0.000733029 0.00087109)
(0.107953 -0.000837696 0.00082569)
(0.103184 -0.0007514 0.000936039)
(0.101928 -0.000717793 0.000876947)
(0.108063 -0.00082242 0.000834327)
(0.103161 -0.000742301 0.000947321)
(0.101898 -0.000704651 0.000878308)
(0.108171 -0.000808859 0.000838934)
(0.103132 -0.000733644 0.000954568)
(0.101867 -0.000692967 0.000875085)
(0.108279 -0.00079787 0.000839588)
(0.1031 -0.000725278 0.000957443)
(0.108387 -0.000787909 0.000836007)
(0.103064 -0.000715262 0.00095456)
(0.113023 -0.00102856 0.000601805)
(0.115508 -0.000990691 0.000460847)
(0.113526 -0.000890165 0.000709373)
(0.113284 -0.000991915 0.000637493)
(0.11583 -0.000951674 0.000484629)
(0.113816 -0.000873718 0.000742254)
(0.113543 -0.000960839 0.000666388)
(0.116149 -0.000918397 0.000504235)
(0.114099 -0.000859619 0.000770608)
(0.113802 -0.000934562 0.000688802)
(0.116465 -0.0008903 0.000519507)
(0.114376 -0.000847403 0.000793962)
(0.11406 -0.000912395 0.000705935)
(0.116781 -0.000866797 0.000530967)
(0.11465 -0.000836547 0.00081291)
(0.114319 -0.000893382 0.000719134)
(0.117095 -0.000846994 0.000539429)
(0.11492 -0.000826711 0.000828051)
(0.114577 -0.000876883 0.000729047)
(0.11741 -0.000829811 0.000545648)
(0.115187 -0.000817601 0.000840166)
(0.114836 -0.000862544 0.000735721)
(0.117724 -0.000815055 0.000549704)
(0.115453 -0.000809372 0.000849812)
(0.115094 -0.000850856 0.000739389)
(0.118037 -0.000802375 0.000551635)
(0.115716 -0.000801896 0.000856789)
(0.115353 -0.000841758 0.000739899)
(0.118351 -0.000792853 0.000551696)
(0.115978 -0.00079628 0.000861624)
(0.118664 -0.000785151 0.0005495)
(0.116238 -0.000790868 0.000862788)
(0.118469 -0.000923677 0.00034952)
(0.119539 -0.00082216 0.000199911)
(0.118702 -0.000756457 0.000494853)
(0.118852 -0.000888702 0.000357052)
(0.119957 -0.000792526 0.000203581)
(0.119104 -0.000734595 0.00049962)
(0.119231 -0.000858874 0.00036282)
(0.12037 -0.000766936 0.000206256)
(0.1195 -0.000715793 0.000503734)
(0.119608 -0.00083386 0.000366893)
(0.120778 -0.000745195 0.000207931)
(0.119891 -0.000699925 0.000507016)
(0.119983 -0.000813008 0.000369524)
(0.121182 -0.000726961 0.000208746)
(0.120278 -0.000686663 0.000509469)
(0.120357 -0.000795417 0.000371021)
(0.121584 -0.000711698 0.000208917)
(0.120663 -0.000675503 0.0005112)
(0.120731 -0.000780431 0.000371532)
(0.121984 -0.000698783 0.000208625)
(0.121045 -0.000665865 0.000512351)
(0.121103 -0.000767764 0.000371028)
(0.122383 -0.000687965 0.000207879)
(0.121425 -0.000657488 0.000512992)
(0.121475 -0.000757645 0.000369561)
(0.122779 -0.00067906 0.000206668)
(0.121804 -0.000650256 0.000512977)
(0.121847 -0.000749751 0.00036703)
(0.123175 -0.000672522 0.000205087)
(0.122182 -0.000644671 0.000512487)
(0.12357 -0.000667112 0.000202811)
(0.122558 -0.000639641 0.000510744)
(0.121071 -0.000687699 4.96325e-05)
(0.121208 -0.000531698 -0.000133831)
(0.121208 -0.000510218 0.000205083)
(0.12152 -0.000667556 4.81471e-05)
(0.12167 -0.000518155 -0.000131306)
(0.121671 -0.000496 0.000201789)
(0.121962 -0.000650121 4.64601e-05)
(0.122125 -0.00050635 -0.000129255)
(0.122126 -0.000483624 0.000198688)
(0.122398 -0.000635199 4.46411e-05)
(0.122574 -0.000496142 -0.00012765)
(0.122575 -0.000472982 0.000195773)
(0.122831 -0.000622551 4.27747e-05)
(0.123018 -0.000487386 -0.000126425)
(0.123018 -0.000463911 0.000193073)
(0.123259 -0.000611915 4.09266e-05)
(0.123456 -0.000479931 -0.000125515)
(0.123457 -0.000456231 0.000190622)
(0.123685 -0.000603071 3.91303e-05)
(0.123892 -0.000473619 -0.000124878)
(0.123892 -0.000449756 0.000188446)
(0.124109 -0.000595869 3.74055e-05)
(0.124324 -0.00046835 -0.000124501)
(0.124324 -0.000444379 0.000186549)
(0.124531 -0.000590321 3.57603e-05)
(0.124754 -0.000464029 -0.000124358)
(0.124754 -0.000440025 0.0001849)
(0.124951 -0.000586016 3.4122e-05)
(0.125182 -0.000460778 -0.000124479)
(0.125182 -0.0004368 0.000183512)
(0.125608 -0.000457846 -0.000124703)
(0.125608 -0.00043398 0.000182053)
(0.121811 -0.000361157 -0.000315903)
(0.12194 -0.000183901 -0.000161191)
(0.12228 -0.00035617 -0.000309651)
(0.122423 -0.000181179 -0.000157765)
(0.122742 -0.000351761 -0.000304161)
(0.122897 -0.000178797 -0.00015474)
(0.123198 -0.000347847 -0.000299401)
(0.123364 -0.000176693 -0.000152104)
(0.123648 -0.000344378 -0.000295319)
(0.123826 -0.00017483 -0.000149831)
(0.124093 -0.00034132 -0.000291861)
(0.124281 -0.000173178 -0.000147888)
(0.124535 -0.00033865 -0.000288988)
(0.124733 -0.000171713 -0.000146244)
(0.124974 -0.000336338 -0.000286668)
(0.125181 -0.000170419 -0.00014488)
(0.12541 -0.000334398 -0.000284913)
(0.125625 -0.000169273 -0.000143779)
(0.125844 -0.000332614 -0.000283514)
(0.126068 -0.000168321 -0.000142979)
(0.126508 -0.000167312 -0.000142239)
(0.0791174 -0.000679371 0.000721519)
(0.0911494 -0.00067949 0.000743347)
(0.0793745 -0.000627576 0.000733178)
(0.0785324 -0.000706306 0.000766944)
(0.0908917 -0.000701381 0.000789155)
(0.0787914 -0.000666609 0.000775634)
(0.077916 -0.000726232 0.000802374)
(0.0906032 -0.000717275 0.000826479)
(0.0781744 -0.000695965 0.00080972)
(0.0772761 -0.000740384 0.000828689)
(0.0902898 -0.00072821 0.000856357)
(0.0775307 -0.000717755 0.000836758)
(0.0766191 -0.00074958 0.000846863)
(0.0899573 -0.000735201 0.000879167)
(0.0768664 -0.00073356 0.000857001)
(0.0759505 -0.000754647 0.000858538)
(0.0896107 -0.000738003 0.000895871)
(0.0761869 -0.000744215 0.000870874)
(0.0752745 -0.000756778 0.000864751)
(0.0892531 -0.000738144 0.000907461)
(0.075497 -0.000750964 0.00087968)
(0.0745945 -0.00075682 0.000866497)