/*--------------------------------*- C++ -*----------------------------------*\
| =========                 |                                                 |
| \\      /  F ield         | OpenFOAM: The Open Source CFD Toolbox           |
|  \\    /   O peration     | Version:  2212                                  |
|   \\  /    A nd           | Website:  www.openfoam.com                      |
|    \\/     M anipulation  |                                                 |
\*---------------------------------------------------------------------------*/
FoamFile
{
    version     2.0;
    format      ascii;
    arch        "LSB;label=32;scalar=64";
    class       volScalarField;
    location    "1.75";
    object      p;
}
// * * * * * * * * * * * * * * * * * * * * * * * * * * * * * * * * * * * * * //

dimensions      [0 2 -2 0 0 0 0];

internalField   nonuniform List<scalar> 
690
(
0.00502621
0.00489169
0.00474311
0.00503101
0.00487998
0.00473772
0.0049691
0.00481567
0.00468062
0.00507723
0.00491789
0.00475491
0.00459171
0.00443398
0.00428141
0.00413307
0.0039886
0.00384712
0.00370751
0.0035694
0.00343277
0.00504803
0.00489128
0.00474605
0.00459578
0.00444519
0.00429686
0.00415047
0.00400576
0.00386299
0.00372247
0.00358398
0.0034472
0.00499182
0.00483088
0.00468669
0.00454009
0.00439185
0.00424532
0.00410042
0.00395641
0.00381387
0.0036736
0.00353562
0.00339956
0.00515833
0.00496958
0.00477207
0.00459342
0.00442997
0.00427499
0.00412566
0.00398105
0.0038398
0.00370035
0.00356246
0.00342613
0.00507384
0.00491352
0.00476169
0.00460396
0.00444772
0.00429491
0.00414514
0.00399865
0.00385533
0.00371474
0.0035764
0.00344005
0.00499562
0.0048347
0.00469407
0.0045453
0.00439398
0.00424477
0.00409774
0.00395249
0.00380959
0.00366948
0.00353169
0.00339589
0.00494883
0.00478833
0.00465143
0.00450888
0.00436275
0.00421784
0.00407467
0.0039328
0.0037924
0.00365369
0.00351666
0.00338121
0.00491577
0.00476064
0.00462981
0.00449095
0.00434735
0.00420452
0.00406304
0.00392248
0.00378298
0.00364483
0.00350812
0.00337283
0.00490527
0.00475085
0.00462238
0.00448451
0.00434182
0.00419994
0.00405909
0.00391903
0.00377993
0.00364208
0.00350562
0.00337052
0.0049158
0.00476068
0.00462983
0.00449095
0.00434735
0.00420452
0.00406304
0.00392249
0.003783
0.00364485
0.00350813
0.00337283
0.00493806
0.00478245
0.00464912
0.00450829
0.00436306
0.00421886
0.00407616
0.00393456
0.00379426
0.00365556
0.00351841
0.00338276
0.004969
0.00481513
0.0046802
0.00453758
0.00439093
0.0042454
0.00410084
0.00395687
0.00381448
0.00367437
0.00353618
0.00503102
0.00487971
0.00473753
0.00459006
0.00444188
0.00429558
0.00415058
0.00400684
0.00386486
0.00372466
0.00358595
0.005026
0.00489192
0.00474336
0.00458644
0.00443269
0.00428311
0.00413687
0.00399372
0.00385267
0.00371289
0.00357441
0.00526004
0.00502709
0.00477965
0.00458275
0.00441785
0.00426436
0.00411619
0.00397238
0.00383197
0.00369351
0.0035565
0.00342074
0.00511904
0.00494962
0.0047775
0.00460709
0.0044447
0.00428816
0.00413634
0.00398944
0.00384652
0.00370647
0.00356855
0.00343297
0.00500523
0.00484524
0.00470729
0.00455496
0.00439855
0.00424532
0.00409615
0.00395052
0.00380804
0.00366828
0.00353073
0.00339535
0.00494644
0.00479091
0.00466237
0.00452069
0.00437304
0.00422664
0.00408219
0.00393947
0.00379858
0.00365955
0.00352228
0.00338669
0.00493806
0.00478246
0.00464909
0.00450824
0.00436302
0.00421883
0.00407615
0.00393454
0.00379425
0.00365555
0.00351843
0.00338279
0.00493878
0.00478168
0.00464609
0.00450492
0.00436005
0.00421616
0.00407386
0.00393264
0.00379263
0.00365415
0.00351725
0.00338183
0.00494888
0.00478837
0.00465144
0.00450886
0.00436271
0.00421782
0.00407468
0.00393284
0.00379246
0.00365376
0.00351673
0.00338124
0.00494641
0.00479089
0.0046624
0.00452075
0.00437308
0.00422667
0.00408222
0.00393951
0.00379864
0.00365963
0.00352236
0.00338668
0.00493644
0.00479244
0.0046771
0.00453802
0.00438971
0.00424238
0.00409638
0.00395218
0.00381028
0.00367054
0.00353264
0.00499303
0.00485186
0.00472242
0.00457811
0.00442992
0.00428441
0.00414079
0.0039986
0.00385768
0.00371792
0.00357937
0.00502683
0.00490063
0.00473887
0.00457855
0.00442712
0.00428057
0.0041369
0.00399479
0.0038536
0.00371347
0.00357476
0.00537051
0.0050557
0.0047443
0.00454416
0.00438962
0.00424005
0.00409284
0.00395047
0.00381193
0.00367508
0.00353954
0.00340444
0.00514937
0.00495274
0.00475415
0.00457785
0.00441884
0.00426618
0.00411748
0.00397329
0.0038326
0.00369442
0.00355788
0.00342291
0.00500081
0.00484214
0.00470901
0.00455378
0.0043943
0.00424086
0.00409264
0.00394802
0.00380627
0.00366711
0.00352987
0.00339511
0.00493669
0.00479268
0.00467706
0.00453785
0.00438953
0.00424221
0.00409627
0.00395211
0.0038102
0.00367042
0.00353248
0.00339634
0.00496919
0.00481538
0.0046802
0.00453741
0.00439074
0.00424525
0.00410074
0.00395681
0.00381445
0.00367436
0.00353621
0.00339974
0.00499192
0.00483084
0.00468651
0.00453985
0.00439165
0.00424523
0.00410045
0.00395651
0.00381402
0.00367379
0.00353584
0.00339978
0.0049956
0.00483467
0.00469404
0.00454527
0.00439395
0.00424477
0.00409778
0.00395258
0.00380971
0.00366963
0.00353187
0.00339602
0.00500513
0.00484513
0.00470723
0.00455496
0.00439857
0.00424536
0.00409621
0.00395062
0.0038082
0.00366848
0.00353104
0.00339541
0.00500068
0.00484198
0.0047089
0.00455378
0.00439435
0.00424091
0.00409271
0.00394814
0.00380649
0.00366739
0.00353051
0.00503074
0.00486436
0.004717
0.00456333
0.00441329
0.00426774
0.00412484
0.0039837
0.00384382
0.00370527
0.0035683
0.00509334
0.0049242
0.00472873
0.00456454
0.00441614
0.00427123
0.00412775
0.00398571
0.00384492
0.00370532
0.00356726
0.00546196
0.00501043
0.00465963
0.00449076
0.00436085
0.00422813
0.00409564
0.00396259
0.0038273
0.00369063
0.0035545
0.00341906
0.00516691
0.00492647
0.00471315
0.00455423
0.0044136
0.00427214
0.00413095
0.00399162
0.00385355
0.00371609
0.00357974
0.00344373
0.00503058
0.00486432
0.0047172
0.00456357
0.00441351
0.0042679
0.00412489
0.00398364
0.00384364
0.00370514
0.00356791
0.00343192
0.004993
0.0048518
0.00472236
0.00457806
0.00442989
0.0042844
0.0041408
0.00399858
0.00385761
0.00371776
0.00357913
0.00344191
0.00503114
0.00487986
0.00473747
0.00458991
0.00444173
0.00429544
0.00415048
0.00400676
0.00386478
0.00372454
0.00358581
0.00344847
0.00504815
0.00489123
0.00474587
0.00459552
0.00444492
0.00429666
0.00415038
0.00400574
0.00386302
0.00372255
0.00358412
0.00344738
0.00507379
0.00491344
0.00476164
0.00460391
0.00444767
0.00429487
0.00414512
0.00399866
0.00385538
0.00371482
0.00357654
0.0034402
0.00511894
0.0049495
0.00477739
0.00460701
0.00444465
0.00428812
0.00413633
0.00398947
0.00384661
0.0037066
0.00356892
0.00343297
0.00514932
0.0049526
0.00475394
0.00457766
0.00441868
0.00426609
0.00411747
0.00397335
0.00383273
0.00369449
0.00355827
0.00516705
0.00492654
0.00471307
0.00455403
0.00441338
0.00427196
0.00413082
0.00399155
0.00385351
0.00371608
0.00357948
0.00519691
0.00491805
0.00470245
0.00456083
0.00442384
0.00428214
0.00414043
0.00399929
0.00385858
0.00371875
0.00357991
0.00538669
0.00493608
0.00465499
0.00451525
0.00438657
0.00425227
0.00411823
0.00398277
0.00384499
0.00370637
0.00356885
0.00343256
0.00519675
0.00491783
0.00470232
0.00456095
0.00442406
0.00428236
0.00414064
0.00399944
0.00385874
0.00371858
0.00358012
0.00344322
0.00509323
0.00492418
0.00472895
0.00456492
0.00441652
0.00427148
0.00412787
0.00398571
0.00384482
0.00370517
0.0035671
0.00343052
0.00502647
0.00490039
0.00473905
0.00457894
0.0044275
0.00428089
0.00413707
0.0039948
0.00385349
0.00371329
0.00357446
0.00343715
0.00502572
0.00489168
0.00474345
0.00458671
0.00443297
0.00428333
0.00413699
0.00399373
0.00385255
0.00371267
0.00357408
0.00343692
0.00507707
0.00491789
0.00475504
0.00459187
0.0044341
0.00428143
0.00413301
0.00398851
0.00384703
0.00370741
0.00356928
0.00343265
0.00515832
0.0049696
0.00477212
0.00459349
0.00443003
0.004275
0.00412564
0.003981
0.00383975
0.00370031
0.00356242
0.00342614
0.00526011
0.00502718
0.00477972
0.00458278
0.00441784
0.00426432
0.00411612
0.00397231
0.0038319
0.00369346
0.00355644
0.00342088
0.00537062
0.00505587
0.00474443
0.00454419
0.00438958
0.00423992
0.00409268
0.00395034
0.00381182
0.00367503
0.00353923
0.00546209
0.00501065
0.00465981
0.00449078
0.00436076
0.00422803
0.0040955
0.00396241
0.00382706
0.00369069
0.00355413
0.0053869
0.00493635
0.00465515
0.00451514
0.00438635
0.0042521
0.00411808
0.00398261
0.00384476
0.0037065
0.00356862
)
;

boundaryField
{
    inlet
    {
        type            zeroGradient;
    }
    ami1
    {
        type            cyclicAMI;
        value           nonuniform List<scalar> 0();
    }
    walls
    {
        type            zeroGradient;
    }
    ami2
    {
        type            cyclicAMI;
        value           nonuniform List<scalar> 
61
(
0.00509941
0.00512016
0.00507289
0.00515783
0.00514685
0.00508909
0.00521815
0.00518189
0.00511162
0.00506112
0.00503267
0.00502519
0.00503269
0.00504978
0.00507291
0.00512026
0.00509922
0.00528709
0.00522531
0.00513927
0.00507336
0.00504978
0.00504845
0.00506115
0.00507334
0.00507688
0.00510287
0.00506184
0.00536172
0.00525391
0.00515379
0.00507703
0.005073
0.00508918
0.00511161
0.00513921
0.00515371
0.00517602
0.0051004
0.00541455
0.00525681
0.0051759
0.00510284
0.0051203
0.00514697
0.00518188
0.00522525
0.00525389
0.00525692
0.00519918
0.00533044
0.00519903
0.00510028
0.0050616
0.00509902
0.00515766
0.00521812
0.00528713
0.00536181
0.00541467
0.00533061
)
;
    }
    outlet
    {
        type            fixedValue;
        value           nonuniform List<scalar> 0();
    }
    procBoundary1to0
    {
        type            processor;
        value           nonuniform List<scalar> 
138
(
0.00458629
0.00458629
0.00443267
0.00428328
0.00413715
0.00399392
0.00385272
0.00371283
0.00357423
0.00343707
0.00459026
0.00459026
0.00444215
0.00429581
0.00415069
0.00400684
0.00386474
0.00372444
0.00358566
0.00344828
0.0049382
0.00478265
0.00453781
0.00464923
0.00453781
0.00439105
0.00424538
0.00410066
0.00395662
0.00381422
0.0036741
0.00353596
0.00339951
0.00493874
0.00478168
0.00464615
0.004505
0.00436011
0.00421619
0.00407384
0.00393258
0.00379255
0.00365405
0.00351716
0.00338177
0.00493874
0.00478168
0.00464615
0.004505
0.00436011
0.00421619
0.00407384
0.00393258
0.00379255
0.00365405
0.00351716
0.00338177
0.00490525
0.00475084
0.00462239
0.00448452
0.00434182
0.00419995
0.0040591
0.00391902
0.00377992
0.00364207
0.00350561
0.00337052
0.0048957
0.00474079
0.00461414
0.00447697
0.00433467
0.00419362
0.00405361
0.00391417
0.00377556
0.0036381
0.00350193
0.00336707
0.00490528
0.00475087
0.00462241
0.00448454
0.00434184
0.00419995
0.0040591
0.00391902
0.00377992
0.00364208
0.00350561
0.00337051
0.00493876
0.0047817
0.00464615
0.004505
0.00436012
0.00421622
0.00407389
0.00393266
0.00379264
0.00365415
0.00351724
0.0033818
0.00499179
0.00483078
0.00468661
0.00454004
0.00439185
0.00424538
0.00410054
0.00395657
0.00381405
0.00367383
0.00353589
0.00504806
0.00489113
0.00474589
0.00459563
0.00444506
0.0042968
0.00415051
0.00400587
0.00386314
0.0037227
0.0035843
0.00507724
0.00491795
0.00475494
0.0045917
0.00443392
0.00428133
0.00413299
0.00398857
0.00384715
0.00370758
0.00356949
)
;
    }
    procBoundary1to2
    {
        type            processor;
        value           nonuniform List<scalar> 9(0.00502644 0.00490013 0.00473886 0.00499314 0.00485193 0.00472281 0.00493729 0.00479344 0.00467763);
    }
    procBoundary1to8
    {
        type            processor;
        value           nonuniform List<scalar> 
33
(
0.0032977
0.00331182
0.00326503
0.00329148
0.00330517
0.00326156
0.0032472
0.00323894
0.00323678
0.00328657
0.00329869
0.00326133
0.00325257
0.00324858
0.0032478
0.0032711
0.00328915
0.00326124
0.00326153
0.0032648
0.00326519
0.00328524
0.00330952
0.00329707
0.00330583
0.00331242
0.003312
0.0032983
0.0033087
0.00329592
0.00330139
0.00330128
0.00329763
)
;
    }
    procBoundary1to9
    {
        type            processor;
        value           nonuniform List<scalar> 
30
(
0.00323894
0.00324858
0.00339963
0.00339963
0.00344856
0.00343739
0.00324719
0.00325254
0.00339623
0.00339623
0.00344205
0.00343767
0.00326165
0.0032613
0.00339493
0.00339493
0.00343243
0.00343114
0.00330534
0.00329865
0.00342318
0.00342318
0.00344438
0.00344347
0.00329157
0.00328684
0.00340493
0.00340493
0.00341921
0.00343274
)
;
    }
}


// ************************************************************************* //
