/*--------------------------------*- C++ -*----------------------------------*\
| =========                 |                                                 |
| \\      /  F ield         | OpenFOAM: The Open Source CFD Toolbox           |
|  \\    /   O peration     | Version:  2212                                  |
|   \\  /    A nd           | Website:  www.openfoam.com                      |
|    \\/     M anipulation  |                                                 |
\*---------------------------------------------------------------------------*/
FoamFile
{
    version     2.0;
    format      ascii;
    arch        "LSB;label=32;scalar=64";
    class       surfaceVectorField;
    location    "1.75";
    object      Uf;
}
// * * * * * * * * * * * * * * * * * * * * * * * * * * * * * * * * * * * * * //

dimensions      [0 1 -1 0 0 0 0];

internalField   nonuniform List<vector> 
1805
(
(0.0847102 -4.53327e-06 0.000787633)
(0.0930919 -5.95902e-05 0.000797088)
(0.0874225 0.000195149 0.000969029)
(0.084445 -5.48778e-05 0.000966336)
(0.0929839 -7.83197e-05 0.000977766)
(0.0870667 0.000176436 0.00114583)
(0.0928256 -0.000102122 0.0011157)
(0.0866209 0.00010894 0.00127379)
(0.102295 -0.000155606 0.00104923)
(0.105386 -0.000316813 0.00105698)
(0.103446 -5.27173e-05 0.00121639)
(0.102355 -0.00014112 0.00117567)
(0.105566 -0.000270872 0.00115046)
(0.103574 -2.74624e-05 0.0013441)
(0.105751 -0.000279475 0.00124364)
(0.10368 -3.20875e-05 0.0014531)
(0.108891 -0.000422746 0.00108137)
(0.109492 -0.000252824 0.00120923)
(0.109214 -0.000401357 0.00114577)
(0.109828 -0.000225747 0.00127859)
(0.110158 -0.000234049 0.00134154)
(0.0898075 0.00036165 0.00133093)
(0.096947 0.000226682 0.0013579)
(0.0907648 0.00053619 0.00146508)
(0.0893156 0.000339585 0.00145812)
(0.0968002 0.000253129 0.00149654)
(0.0901564 0.000624621 0.00167848)
(0.0887437 0.000235984 0.00152494)
(0.0965884 0.000206835 0.00156614)
(0.0895044 0.000512807 0.00173718)
(0.0880842 0.000110688 0.00155123)
(0.0963379 0.000127042 0.00159352)
(0.0887494 0.000344211 0.00172153)
(0.0873604 -1.42964e-05 0.00155758)
(0.0960283 3.28261e-05 0.00160219)
(0.0879155 0.000179961 0.00168648)
(0.0865944 -0.00013042 0.00155707)
(0.0956732 -6.42849e-05 0.00160283)
(0.0870575 3.76147e-05 0.00164743)
(0.0857995 -0.000233091 0.00155706)
(0.0952871 -0.000155868 0.00160198)
(0.0861968 -8.19265e-05 0.00161291)
(0.0849795 -0.000318519 0.00155895)
(0.0948755 -0.000235397 0.00159864)
(0.085338 -0.000180908 0.00158604)
(0.084137 -0.000379042 0.00156029)
(0.0944402 -0.000298241 0.0015935)
(0.0844743 -0.000260188 0.00156742)
(0.0832769 -0.000412897 0.00155809)
(0.0939866 -0.000338815 0.00158625)
(0.0836079 -0.000313541 0.00155301)
(0.0824048 -0.000427733 0.00155156)
(0.0935187 -0.000361564 0.00157717)
(0.0827399 -0.000345191 0.00153994)
(0.0930398 -0.000370933 0.00156699)
(0.0818693 -0.000360976 0.00152681)
(0.104711 0.000107234 0.00151943)
(0.107323 2.17343e-05 0.00143029)
(0.104453 0.000270287 0.00162198)
(0.104896 0.000105275 0.00162844)
(0.107601 2.82265e-05 0.00153675)
(0.104738 0.00027862 0.00178862)
(0.105058 7.98413e-05 0.00169787)
(0.107842 1.61792e-05 0.00162565)
(0.104934 0.000253696 0.00186274)
(0.105189 3.05268e-05 0.00173369)
(0.108097 -1.45957e-05 0.00167714)
(0.105096 0.000193928 0.00187314)
(0.105289 -3.54454e-05 0.00175252)
(0.108345 -6.0415e-05 0.00170733)
(0.105209 0.000115066 0.00186103)
(0.105359 -0.000107232 0.00176198)
(0.108572 -0.000113966 0.00172584)
(0.105274 2.83938e-05 0.00183761)
(0.1054 -0.000174303 0.00176056)
(0.108778 -0.000167744 0.00173495)
(0.105309 -5.71703e-05 0.00180689)
(0.105417 -0.000229414 0.00174819)
(0.108963 -0.000213591 0.00173243)
(0.105321 -0.000132648 0.00176959)
(0.105416 -0.000270937 0.00173148)
(0.109132 -0.000248693 0.00172199)
(0.105318 -0.000193491 0.00173384)
(0.1054 -0.000299995 0.00171578)
(0.109287 -0.000274334 0.00170929)
(0.105305 -0.000239984 0.00170587)
(0.10537 -0.000317407 0.00170267)
(0.109428 -0.000291435 0.00169681)
(0.105282 -0.00027325 0.00168289)
(0.109559 -0.000300238 0.00168525)
(0.10525 -0.00029398 0.00166559)
(0.110406 -5.7416e-05 0.00140811)
(0.109954 0.000111327 0.0014638)
(0.110754 -5.79768e-05 0.00147639)
(0.110334 9.8751e-05 0.00154626)
(0.111126 -7.18951e-05 0.00153009)
(0.110694 8.75146e-05 0.00161083)
(0.111507 -9.64024e-05 0.00156607)
(0.111082 6.33073e-05 0.00164382)
(0.111888 -0.000127261 0.00158975)
(0.111472 2.99692e-05 0.00165597)
(0.112263 -0.000160538 0.00160399)
(0.111849 -8.82814e-06 0.00165417)
(0.112627 -0.000191162 0.00160957)
(0.112211 -4.89988e-05 0.00164253)
(0.112977 -0.000215403 0.00160728)
(0.112559 -8.45398e-05 0.00162424)
(0.113314 -0.000233353 0.00159934)
(0.112896 -0.000113419 0.00160301)
(0.11364 -0.000246107 0.00158847)
(0.113223 -0.000136537 0.0015818)
(0.113956 -0.000254033 0.00157653)
(0.113541 -0.000154513 0.00156232)
(0.113852 -0.000167168 0.0015454)
(0.0911883 0.000782396 0.0018045)
(0.0975237 0.000591907 0.0017962)
(0.0900564 0.000964428 0.00191755)
(0.0903849 0.000768453 0.00194628)
(0.097299 0.000652729 0.00199568)
(0.0890182 0.00108156 0.00222776)
(0.0895031 0.00059668 0.00192451)
(0.0970096 0.000559498 0.00198031)
(0.0879887 0.000873854 0.00215311)
(0.0885631 0.000399889 0.00185099)
(0.0966189 0.000414086 0.00190699)
(0.0868018 0.000593863 0.00199235)
(0.0876043 0.00022703 0.00177341)
(0.0961573 0.000269976 0.00183362)
(0.0855984 0.000369019 0.00184756)
(0.0866574 8.51137e-05 0.00170198)
(0.0956715 0.000141003 0.0017629)
(0.0844678 0.000207975 0.00172581)
(0.0857326 -2.99887e-05 0.00164142)
(0.0951842 2.8839e-05 0.00169761)
(0.0834119 8.45895e-05 0.00162484)
(0.0848302 -0.000122587 0.00159463)
(0.0947022 -6.63051e-05 0.00164049)
(0.0824235 -1.47787e-05 0.00154435)
(0.0839463 -0.000193226 0.00156097)
(0.0942249 -0.000144084 0.00159631)
(0.0814878 -9.26571e-05 0.00148407)
(0.0830731 -0.000242316 0.00153639)
(0.0937527 -0.000202334 0.00156425)
(0.0805929 -0.000148906 0.00144061)
(0.082207 -0.000273623 0.00151712)
(0.0932837 -0.000243161 0.00153843)
(0.0797265 -0.000187347 0.00140948)
(0.0928148 -0.000269207 0.00151804)
(0.0788753 -0.000213097 0.00138504)
(0.104425 0.000451482 0.00189083)
(0.106866 0.000376453 0.00168268)
(0.10261 0.000610502 0.00191383)
(0.104754 0.000425833 0.0020199)
(0.107248 0.000357952 0.00184825)
(0.103014 0.000604575 0.00217199)
(0.104983 0.000358888 0.00203367)
(0.107557 0.000318934 0.0019235)
(0.103272 0.000515869 0.00217489)
(0.10512 0.000269556 0.00199669)
(0.107842 0.000260471 0.00192742)
(0.103407 0.00039581 0.00209007)
(0.105194 0.000172647 0.00194348)
(0.108086 0.000192168 0.00190343)
(0.10344 0.000279056 0.00198145)
(0.105226 7.57837e-05 0.00188125)
(0.108289 0.00011963 0.00186284)
(0.103419 0.00017096 0.00186808)
(0.105232 -1.48238e-05 0.00181591)
(0.108467 4.83744e-05 0.00181291)
(0.10338 7.42967e-05 0.00176293)
(0.105224 -9.4062e-05 0.00175602)
(0.108628 -1.63288e-05 0.00176107)
(0.103336 -7.23916e-06 0.00167213)
(0.105208 -0.000158884 0.00170944)
(0.10878 -7.1391e-05 0.00171574)
(0.103293 -7.36868e-05 0.00160194)
(0.105188 -0.000208839 0.00167449)
(0.108925 -0.000116017 0.00168058)
(0.103255 -0.000126017 0.00155115)
(0.105163 -0.000244689 0.00164758)
(0.109065 -0.000150475 0.00165182)
(0.10322 -0.000166489 0.00151251)
(0.1092 -0.000174868 0.00163024)
(0.103188 -0.000194743 0.00148633)
(0.109845 0.000278427 0.00160339)
(0.111092 0.000287878 0.0013516)
(0.108202 0.00040714 0.00157499)
(0.110248 0.000249799 0.0016809)
(0.11152 0.000261967 0.00141228)
(0.108604 0.000368571 0.00168622)
(0.110658 0.00022341 0.00172379)
(0.111925 0.000247921 0.00145872)
(0.10898 0.000342248 0.00173776)
(0.111056 0.000189256 0.00173289)
(0.112363 0.000230986 0.00147388)
(0.109378 0.000310555 0.00173467)
(0.111437 0.000147962 0.00171979)
(0.112805 0.000208616 0.00146787)
(0.109756 0.000271114 0.0017)
(0.1118 0.000103208 0.00169258)
(0.113236 0.000181998 0.00144812)
(0.110102 0.000228501 0.0016483)
(0.112148 5.9762e-05 0.00165768)
(0.113655 0.000153863 0.00141924)
(0.110428 0.00018725 0.00158963)
(0.112483 2.09335e-05 0.00162096)
(0.114062 0.000127295 0.00138542)
(0.11074 0.000150937 0.00153281)
(0.112808 -1.25605e-05 0.00158675)
(0.114462 0.000103554 0.00135166)
(0.111045 0.000119631 0.0014829)
(0.113127 -4.06988e-05 0.00155707)
(0.114853 8.24416e-05 0.00132126)
(0.111346 9.20433e-05 0.00144153)
(0.11344 -6.3041e-05 0.00153275)
(0.115237 6.42825e-05 0.00129529)
(0.111646 6.82277e-05 0.0014086)
(0.115616 4.94156e-05 0.00127412)
(0.111944 4.89497e-05 0.00138448)
(0.112799 0.000269518 0.00116065)
(0.113354 0.000327597 0.000891954)
(0.111393 0.000419707 0.0011392)
(0.113248 0.00025915 0.00118535)
(0.113842 0.00032598 0.000909441)
(0.111819 0.000399027 0.0011519)
(0.113721 0.000255587 0.00120032)
(0.114309 0.000327799 0.000921921)
(0.11223 0.000404076 0.00116944)
(0.114207 0.00025117 0.00120098)
(0.114813 0.000328946 0.000925614)
(0.112691 0.000411834 0.00116994)
(0.114697 0.000244193 0.00119037)
(0.115333 0.00032818 0.000921292)
(0.113167 0.00041603 0.00115412)
(0.115186 0.000234902 0.00117147)
(0.115853 0.000325065 0.000910111)
(0.113636 0.000416485 0.00112689)
(0.115669 0.000224193 0.00114688)
(0.116368 0.000320001 0.000893984)
(0.114097 0.00041336 0.00109274)
(0.116146 0.000213078 0.00111953)
(0.116879 0.000313602 0.000874695)
(0.114549 0.000407516 0.00105601)
(0.116614 0.000202034 0.00109227)
(0.117382 0.000306344 0.000854241)
(0.114993 0.000399693 0.00102041)
(0.117075 0.000191211 0.0010671)
(0.117877 0.000298512 0.000834317)
(0.115431 0.000390285 0.00098826)
(0.117529 0.000180776 0.00104502)
(0.118365 0.00029029 0.000816036)
(0.115862 0.000379628 0.000960624)
(0.118846 0.000281901 0.000799906)
(0.116289 0.000368211 0.000937996)
(0.114374 0.000386113 0.000631173)
(0.114401 0.000453382 0.000365215)
(0.113207 0.00058382 0.000620959)
(0.114897 0.000396369 0.000640537)
(0.114942 0.000468796 0.000371826)
(0.113695 0.000602468 0.000617776)
(0.115432 0.000402791 0.000643337)
(0.115451 0.00047748 0.000373987)
(0.11416 0.000617889 0.000621217)
(0.115974 0.00040779 0.000641726)
(0.115994 0.00048034 0.000373449)
(0.114663 0.000631515 0.000621858)
(0.11652 0.000411161 0.000636239)
(0.116553 0.000482501 0.000370979)
(0.115183 0.000643496 0.000618254)
(0.117066 0.000412563 0.000627254)
(0.117111 0.000484201 0.000366451)
(0.115702 0.000652929 0.000610228)
(0.11761 0.000412104 0.000615822)
(0.117665 0.000483673 0.000360467)
(0.116218 0.000659127 0.000598698)
(0.118149 0.00040983 0.000602869)
(0.118215 0.000481011 0.000353337)
(0.116728 0.000661516 0.000584785)
(0.11868 0.000405994 0.000589389)
(0.11876 0.000476576 0.00034557)
(0.117231 0.000660231 0.000569855)
(0.119203 0.000400912 0.000576204)
(0.119296 0.000470856 0.000337727)
(0.117726 0.000656008 0.000554992)
(0.119719 0.000394839 0.000563828)
(0.119825 0.000464271 0.000330225)
(0.118212 0.000649533 0.000540945)
(0.120345 0.000457083 0.000323297)
(0.118691 0.000641275 0.000527967)
(0.114914 0.000536788 0.000103578)
(0.114401 0.000576964 -0.000141026)
(0.113888 0.000770605 0.000122256)
(0.115463 0.00055077 0.000102231)
(0.114942 0.000592554 -0.000148337)
(0.114408 0.000800305 0.000118818)
(0.11602 0.000555897 0.000100962)
(0.115451 0.000600045 -0.000151253)
(0.114895 0.000817416 0.000119412)
(0.116583 0.000555931 9.93311e-05)
(0.115994 0.000600181 -0.000154747)
(0.115416 0.000825349 0.000120949)
(0.117148 0.00055637 9.80523e-05)
(0.116553 0.000598327 -0.000157437)
(0.115953 0.000830291 0.00012337)
(0.117712 0.000556089 9.6815e-05)
(0.11711 0.000594973 -0.00015872)
(0.116488 0.000833114 0.00012628)
(0.118274 0.000553329 9.52783e-05)
(0.117665 0.00058897 -0.000159436)
(0.117019 0.000832349 0.00012899)
(0.11883 0.000548472 9.35149e-05)
(0.118215 0.000580811 -0.000159411)
(0.117547 0.00082799 0.000130971)
(0.11938 0.000542105 9.16482e-05)
(0.118759 0.000571249 -0.000158609)
(0.118067 0.000820577 0.00013202)
(0.119922 0.000534825 8.98105e-05)
(0.119296 0.000561065 -0.000157129)
(0.118579 0.00081121 0.000132243)
(0.120455 0.000527066 8.81009e-05)
(0.119824 0.000550851 -0.000155075)
(0.119082 0.000800956 0.00013184)
(0.120345 0.000540905 -0.000152533)
(0.119577 0.000790364 0.000130949)
(0.114374 0.000631467 -0.00038636)
(0.113207 0.000621112 -0.00058393)
(0.113354 0.000892357 -0.000327802)
(0.114897 0.000640877 -0.000396687)
(0.113695 0.000617982 -0.000602556)
(0.113842 0.000909904 -0.000326216)
(0.115432 0.000643659 -0.000403211)
(0.11416 0.000621422 -0.000618063)
(0.114309 0.000922281 -0.000328116)
(0.115974 0.000642016 -0.000408271)
(0.114663 0.000622056 -0.000631853)
(0.114812 0.000925842 -0.000329355)
(0.116519 0.000636534 -0.000411639)
(0.115182 0.000618458 -0.000643944)
(0.115332 0.000921421 -0.000328619)
(0.117066 0.000627621 -0.000413009)
(0.115702 0.000610492 -0.000653424)
(0.115852 0.000910224 -0.000325487)
(0.117609 0.000616328 -0.000412501)
(0.116218 0.000599091 -0.000659613)
(0.116367 0.000894192 -0.000320381)
(0.118148 0.000603555 -0.000410177)
(0.116728 0.000585355 -0.000661957)
(0.116877 0.000875104 -0.000313942)
(0.118679 0.000590261 -0.00040631)
(0.117231 0.000570632 -0.000660614)
(0.11738 0.000854917 -0.00030667)
(0.119203 0.000577221 -0.000401222)
(0.117726 0.000555961 -0.00065635)
(0.117876 0.000835269 -0.000298861)
(0.119718 0.000564886 -0.000395171)
(0.118212 0.00054202 -0.000649818)
(0.118363 0.000817217 -0.000290686)
(0.118691 0.000528954 -0.000641521)
(0.118844 0.000801101 -0.00028229)
(0.112507 0.00060799 -0.000793225)
(0.110479 0.00052741 -0.000910227)
(0.111251 0.000867498 -0.000668689)
(0.112957 0.000599391 -0.000817738)
(0.110863 0.000491581 -0.000956546)
(0.111677 0.00085809 -0.000668459)
(0.113428 0.000600848 -0.000840913)
(0.111234 0.000496957 -0.00100212)
(0.112087 0.000869402 -0.000685894)
(0.113912 0.000599639 -0.000862035)
(0.111649 0.000507128 -0.00104165)
(0.112546 0.000869509 -0.000705739)
(0.114401 0.000593647 -0.000880373)
(0.112083 0.000512328 -0.00107671)
(0.113022 0.000856203 -0.000722705)
(0.11489 0.000583236 -0.000894548)
(0.112512 0.000512032 -0.00110701)
(0.113491 0.000833464 -0.000735639)
(0.115373 0.000569367 -0.000903118)
(0.112932 0.000506116 -0.0011297)
(0.113951 0.000804846 -0.000743278)
(0.11585 0.000553603 -0.000905754)
(0.113343 0.000495888 -0.00114306)
(0.114403 0.000774243 -0.000745368)
(0.116317 0.000537433 -0.000903427)
(0.113742 0.000483493 -0.00114842)
(0.114847 0.000744751 -0.000742712)
(0.116776 0.00052182 -0.000897342)
(0.11413 0.000470344 -0.00114825)
(0.115284 0.000718042 -0.000736394)
(0.117227 0.000507122 -0.000888308)
(0.114509 0.00045688 -0.00114342)
(0.115714 0.00069489 -0.000727108)
(0.11614 0.000675143 -0.000715301)
(0.108891 0.000420254 -0.00108218)
(0.105384 0.000317268 -0.00105993)
(0.107096 0.000640553 -0.000853198)
(0.109212 0.000398265 -0.00114624)
(0.105563 0.000268603 -0.00115021)
(0.107425 0.000615463 -0.000909946)
(0.109569 0.000411313 -0.00120413)
(0.105749 0.000276808 -0.00124316)
(0.107738 0.000639977 -0.000968934)
(0.109939 0.000427162 -0.00125568)
(0.105977 0.000302819 -0.00131846)
(0.108107 0.000647701 -0.00102428)
(0.11031 0.000437644 -0.00130214)
(0.10621 0.000331314 -0.00138374)
(0.108483 0.000637011 -0.00107565)
(0.110674 0.000441691 -0.00134134)
(0.106425 0.000357526 -0.00144042)
(0.108839 0.000615831 -0.00112089)
(0.111026 0.000439657 -0.00137069)
(0.106619 0.000375573 -0.00148252)
(0.109177 0.00058897 -0.00115681)
(0.111363 0.000433305 -0.00138963)
(0.106793 0.000382696 -0.00150571)
(0.109501 0.000561784 -0.00118233)
(0.111686 0.000424372 -0.00139956)
(0.106951 0.000382425 -0.00151613)
(0.109812 0.000536687 -0.00119797)
(0.111998 0.000413636 -0.00140212)
(0.107092 0.000378771 -0.00152143)
(0.110114 0.000513861 -0.00120511)
(0.107219 0.000371086 -0.00152121)
(0.11041 0.000493465 -0.00120477)
(0.102292 0.000156135 -0.00105099)
(0.093094 6.24908e-05 -0.000799281)
(0.0996631 0.000298327 -0.000663723)
(0.102352 0.000139213 -0.00117449)
(0.092986 7.99211e-05 -0.000977888)
(0.0997551 0.000284084 -0.000841162)
(0.102455 0.000159774 -0.00128168)
(0.092828 0.000102618 -0.00111512)
(0.0998559 0.000315876 -0.000991633)
(0.102556 0.000196173 -0.00136399)
(0.0926456 0.000139928 -0.00120452)
(0.0999757 0.000333787 -0.00109718)
(0.10264 0.000237737 -0.00143322)
(0.0923977 0.000197029 -0.00127485)
(0.100076 0.000344793 -0.00118604)
(0.102698 0.00027553 -0.00148818)
(0.0920885 0.000262548 -0.00133348)
(0.100136 0.000350561 -0.00125505)
(0.102729 0.000300782 -0.00152077)
(0.0917298 0.000323369 -0.00137862)
(0.100166 0.00034585 -0.0012973)
(0.102736 0.000312426 -0.00153257)
(0.0913293 0.000362878 -0.00140733)
(0.100174 0.000335164 -0.0013192)
(0.102724 0.000316185 -0.00153584)
(0.0908917 0.000384423 -0.00142193)
(0.100162 0.000322654 -0.00132946)
(0.102694 0.000314718 -0.00153657)
(0.0904277 0.000393493 -0.00142847)
(0.100133 0.000309324 -0.00133461)
(0.0899461 0.000392436 -0.00142768)
(0.100091 0.000294215 -0.00133304)
(0.0847165 8.27332e-06 -0.000788076)
(0.0805904 0.000116451 -0.000344545)
(0.0844526 5.82889e-05 -0.000965989)
(0.0803614 0.000262949 -0.000609853)
(0.0840582 0.000101932 -0.00110258)
(0.0800533 0.000264344 -0.000818557)
(0.0835438 0.000164355 -0.00119928)
(0.079624 0.000261895 -0.000963891)
(0.0829363 0.000247039 -0.00127219)
(0.0790579 0.000305135 -0.00107381)
(0.0822527 0.000335034 -0.00132856)
(0.0783997 0.000370096 -0.00115619)
(0.0815047 0.000408132 -0.00137153)
(0.077664 0.000431703 -0.00121352)
(0.0807036 0.000455387 -0.00140142)
(0.0768693 0.000468379 -0.00125142)
(0.0798614 0.000480871 -0.00141797)
(0.0760324 0.000483057 -0.00127215)
(0.0789925 0.000489776 -0.00142277)
(0.0751714 0.000482745 -0.00127881)
(0.0743001 0.000472891 -0.00127429)
(0.0883119 0.0012095 0.00230928)
(0.0944892 0.000974548 0.00221764)
(0.0843926 0.0013928 0.00241595)
(0.0868861 0.00110406 0.00239375)
(0.0940025 0.00099408 0.00246606)
(0.0823714 0.00136118 0.00267198)
(0.0853976 0.00080624 0.00219127)
(0.0934519 0.000783493 0.00226603)
(0.0805552 0.000949621 0.0023316)
(0.083955 0.000527492 0.00197364)
(0.0927223 0.000546027 0.0020438)
(0.078681 0.000571607 0.00197855)
(0.0826228 0.000323722 0.00179124)
(0.0919496 0.000358646 0.00185706)
(0.0769987 0.000351144 0.00172069)
(0.0814036 0.000178592 0.00164172)
(0.091225 0.000219146 0.00169797)
(0.0755942 0.000213778 0.00152588)
(0.0802896 6.84458e-05 0.00152207)
(0.0905624 0.00010983 0.00156623)
(0.0744025 0.000124708 0.00137202)
(0.0792709 -1.64926e-05 0.00142968)
(0.0899594 2.34959e-05 0.0014613)
(0.0733648 6.46322e-05 0.00126037)
(0.0783298 -8.02282e-05 0.00136083)
(0.0894074 -4.32592e-05 0.00138248)
(0.0724353 2.18134e-05 0.00118305)
(0.0774429 -0.000126297 0.00131155)
(0.0888968 -9.3933e-05 0.00132432)
(0.0715823 -1.37485e-05 0.001128)
(0.0765922 -0.00015946 0.00127571)
(0.0884152 -0.000131627 0.00128226)
(0.0707863 -4.26418e-05 0.00109056)
(0.0879523 -0.000159985 0.00125064)
(0.0700128 -6.97816e-05 0.00106022)
(0.101208 0.000722284 0.00217672)
(0.103776 0.000626495 0.00181896)
(0.0972569 0.000788945 0.0020864)
(0.10161 0.00064342 0.0023052)
(0.1042 0.000588578 0.00206967)
(0.0977399 0.000751003 0.00242033)
(0.101793 0.000507244 0.0022135)
(0.104521 0.000507582 0.00208236)
(0.0979406 0.000579693 0.00227215)
(0.101814 0.000371364 0.00206329)
(0.104757 0.000415549 0.0020015)
(0.0978943 0.000407494 0.00201268)
(0.101755 0.000253697 0.00190047)
(0.104911 0.000331409 0.00188595)
(0.097735 0.000284216 0.00177111)
(0.101668 0.00015247 0.00174861)
(0.10502 0.000256552 0.00176164)
(0.0975577 0.000200292 0.00157099)
(0.101581 6.82902e-05 0.00162079)
(0.105114 0.000191152 0.00164621)
(0.0973962 0.000139853 0.00141035)
(0.101503 1.01958e-06 0.0015213)
(0.105207 0.000137306 0.00154945)
(0.0972566 9.58627e-05 0.00128882)
(0.101439 -5.21582e-05 0.00144796)
(0.105304 9.32902e-05 0.00147461)
(0.0971405 6.20212e-05 0.00120276)
(0.101388 -9.42846e-05 0.00139426)
(0.105408 5.71795e-05 0.00141825)
(0.0970469 3.55042e-05 0.00114453)
(0.101345 -0.000127143 0.00135667)
(0.105519 2.69424e-05 0.00137617)
(0.0969664 1.00689e-05 0.0011009)
(0.105637 2.96471e-06 0.00134868)
(0.0969022 -7.29318e-06 0.00108071)
(0.106938 0.000482699 0.00165392)
(0.108459 0.000530927 0.00136049)
(0.103738 0.000475177 0.00147454)
(0.107357 0.000445935 0.00173883)
(0.10886 0.000496487 0.00142778)
(0.104118 0.000467775 0.00162804)
(0.107773 0.000414517 0.00174521)
(0.109242 0.000486523 0.00146013)
(0.104465 0.000465692 0.00164492)
(0.108149 0.000378958 0.0016999)
(0.109662 0.000478148 0.0014431)
(0.104816 0.000446061 0.00157498)
(0.108486 0.000341267 0.00162874)
(0.11007 0.000465706 0.00139514)
(0.105123 0.000422388 0.00147618)
(0.108794 0.000305139 0.00154761)
(0.110452 0.000451239 0.0013325)
(0.105385 0.000405499 0.00137397)
(0.109085 0.00027236 0.0014684)
(0.110817 0.000435287 0.0012655)
(0.105624 0.000393577 0.00127876)
(0.109369 0.000243499 0.00139912)
(0.11117 0.000419062 0.0012025)
(0.105855 0.000383447 0.00119758)
(0.109651 0.000217803 0.00134251)
(0.111518 0.000402786 0.00114794)
(0.106085 0.000372905 0.00113261)
(0.109934 0.000194446 0.00129821)
(0.111862 0.000386307 0.00110325)
(0.106319 0.000361336 0.00108349)
(0.110218 0.000173669 0.00126565)
(0.112205 0.000369513 0.0010679)
(0.106557 0.000347596 0.00104709)
(0.112548 0.000353376 0.00104211)
(0.106801 0.000334965 0.0010245)
(0.110396 0.000545653 0.00113135)
(0.111251 0.000668711 0.000867352)
(0.107797 0.000581524 0.00100592)
(0.110806 0.000539483 0.00113703)
(0.111677 0.000668593 0.00085791)
(0.108165 0.000600014 0.000998478)
(0.111251 0.000554469 0.00114008)
(0.112087 0.000685925 0.000869253)
(0.108514 0.000647926 0.00101095)
(0.111704 0.000570596 0.00112443)
(0.112546 0.000705559 0.000869405)
(0.108925 0.000690275 0.00100045)
(0.112154 0.000582448 0.00109251)
(0.113022 0.000722355 0.000856125)
(0.109341 0.000725097 0.000968047)
(0.112595 0.00058909 0.00105053)
(0.113491 0.000735181 0.000833336)
(0.109734 0.000752889 0.000923356)
(0.113025 0.000590471 0.0010046)
(0.113951 0.000742784 0.000804581)
(0.110109 0.000771941 0.00087377)
(0.113447 0.000587429 0.000959856)
(0.114404 0.000744893 0.000773763)
(0.110473 0.000783392 0.000825628)
(0.113861 0.000580831 0.000919521)
(0.114848 0.000742258 0.000743981)
(0.110827 0.000788484 0.000782531)
(0.11427 0.000571277 0.000885011)
(0.115285 0.000735915 0.000716954)
(0.111174 0.000787826 0.000745721)
(0.114675 0.00055938 0.000856865)
(0.115715 0.00072662 0.000693525)
(0.111517 0.000781984 0.000715227)
(0.11614 0.000715054 0.000673967)
(0.111859 0.000771885 0.000691762)
(0.112507 0.000793335 0.000607936)
(0.112718 0.000892525 0.000379769)
(0.110479 0.000910303 0.00052738)
(0.112957 0.000817833 0.000599323)
(0.113186 0.000925915 0.000367752)
(0.110863 0.000956965 0.000491726)
(0.113428 0.000840804 0.000600759)
(0.113631 0.000950736 0.000369152)
(0.111234 0.00100222 0.000497)
(0.113912 0.000861681 0.000599515)
(0.114111 0.000969469 0.000372137)
(0.111649 0.00104131 0.00050703)
(0.114401 0.000879855 0.000593461)
(0.114609 0.000984419 0.000373539)
(0.112082 0.00107612 0.00051214)
(0.11489 0.000893964 0.000582935)
(0.115108 0.000995167 0.000372893)
(0.112511 0.00110633 0.000511736)
(0.115373 0.000902546 0.000568901)
(0.115602 0.00100088 0.00036991)
(0.112932 0.00112903 0.000505682)
(0.115849 0.000905243 0.000552935)
(0.116089 0.00100095 0.000364739)
(0.113342 0.00114248 0.000495301)
(0.116316 0.000902985 0.000536551)
(0.116569 0.000996024 0.000358166)
(0.113741 0.00114797 0.000482721)
(0.116775 0.000896985 0.000520785)
(0.11704 0.00098772 0.000350928)
(0.114129 0.00114783 0.000469353)
(0.117226 0.000888085 0.000506114)
(0.117503 0.000977358 0.000343529)
(0.114508 0.0011432 0.000455818)
(0.117957 0.000965634 0.00033612)
(0.11488 0.00113461 0.000442393)
(0.113355 0.00102647 0.000137001)
(0.112863 0.00107836 -7.66383e-05)
(0.111647 0.00119795 9.95631e-05)
(0.113833 0.00106013 0.000135711)
(0.113331 0.00111197 -6.7835e-05)
(0.112065 0.00125252 9.31639e-05)
(0.114322 0.00108062 0.000139183)
(0.113777 0.0011355 -6.21089e-05)
(0.112463 0.00129461 9.72433e-05)
(0.11482 0.0010934 0.000144684)
(0.114259 0.00114646 -5.71837e-05)
(0.112892 0.00132261 0.000109596)
(0.115322 0.00110092 0.000151222)
(0.114758 0.0011484 -5.08382e-05)
(0.113335 0.00134118 0.000127194)
(0.115825 0.00110324 0.000157956)
(0.115256 0.00114302 -4.304e-05)
(0.113776 0.00135241 0.000147491)
(0.116324 0.00110038 0.00016397)
(0.115749 0.00113161 -3.42922e-05)
(0.114209 0.00135657 0.000168002)
(0.116816 0.00109272 0.00016852)
(0.116237 0.00111549 -2.5765e-05)
(0.114633 0.0013533 0.000184821)
(0.117299 0.00108166 0.00017145)
(0.116717 0.00109667 -1.81257e-05)
(0.115047 0.00134417 0.000197123)
(0.117774 0.00106891 0.000172964)
(0.117189 0.00107735 -1.1428e-05)
(0.11545 0.00133217 0.000205751)
(0.118239 0.00105563 0.000173296)
(0.117652 0.00105899 -5.53494e-06)
(0.115843 0.00131941 0.000211317)
(0.118109 0.00104213 -3.93031e-07)
(0.116227 0.00130663 0.000213916)
(0.112799 0.00116118 -0.000269721)
(0.111393 0.00113958 -0.000419833)
(0.111092 0.00135212 -0.000287926)
(0.113248 0.0011858 -0.000259391)
(0.111818 0.00115228 -0.000399097)
(0.111519 0.00141282 -0.000262053)
(0.113721 0.00120059 -0.000255896)
(0.11223 0.00116969 -0.000404195)
(0.111925 0.00145901 -0.000248133)
(0.114206 0.00120106 -0.000251538)
(0.112691 0.00117005 -0.00041206)
(0.112362 0.00147388 -0.000231392)
(0.114696 0.00119035 -0.000244574)
(0.113166 0.00115411 -0.000416328)
(0.112803 0.0014676 -0.000209177)
(0.115184 0.00117145 -0.000235257)
(0.113635 0.00112687 -0.000416825)
(0.113234 0.00144766 -0.000182599)
(0.115667 0.00114701 -0.000224517)
(0.114095 0.00109282 -0.000413716)
(0.113652 0.00141877 -0.000154418)
(0.116143 0.00111993 -0.000213399)
(0.114547 0.00105633 -0.000407871)
(0.114059 0.00138515 -0.000127815)
(0.116611 0.00109302 -0.000202393)
(0.114992 0.00102107 -0.000400076)
(0.114458 0.00135174 -0.000104091)
(0.117072 0.00106822 -0.000191641)
(0.115429 0.000989318 -0.000390743)
(0.114849 0.00132174 -8.302e-05)
(0.117526 0.00104637 -0.000181222)
(0.11586 0.000962111 -0.000380181)
(0.115233 0.00129624 -6.49895e-05)
(0.116287 0.00093941 -0.000368614)
(0.115612 0.00127524 -4.99723e-05)
(0.110396 0.00113158 -0.000545609)
(0.107798 0.00100624 -0.000581648)
(0.10846 0.00136062 -0.000530957)
(0.110806 0.00113722 -0.000539421)
(0.108166 0.00099875 -0.000599928)
(0.10886 0.00142785 -0.000496417)
(0.111251 0.00114017 -0.000554519)
(0.108514 0.00101113 -0.000648069)
(0.109242 0.00146013 -0.000486518)
(0.111704 0.00112444 -0.000570781)
(0.108925 0.00100046 -0.000690555)
(0.109662 0.00144305 -0.000478296)
(0.112153 0.00109251 -0.000582745)
(0.109341 0.00096793 -0.000725409)
(0.110071 0.00139499 -0.000465974)
(0.112594 0.00105061 -0.000589463)
(0.109734 0.000923241 -0.000753248)
(0.110452 0.00133231 -0.000451621)
(0.113025 0.00100487 -0.000590871)
(0.110109 0.000873774 -0.000772271)
(0.110816 0.00126541 -0.000435755)
(0.113446 0.000960433 -0.000587849)
(0.110472 0.000825883 -0.000783658)
(0.111169 0.00120263 -0.000419597)
(0.11386 0.000920487 -0.000581322)
(0.110826 0.000783193 -0.000788787)
(0.111516 0.00114841 -0.000403427)
(0.114268 0.000886434 -0.000571883)
(0.111173 0.000746884 -0.000788316)
(0.11186 0.0011041 -0.000387091)
(0.114674 0.00085841 -0.000559886)
(0.111516 0.000717102 -0.000782641)
(0.112203 0.00106957 -0.000370729)
(0.112546 0.00104335 -0.000354036)
(0.105609 0.000895726 -0.000683248)
(0.101154 0.000709584 -0.000525252)
(0.103121 0.00114654 -0.000574327)
(0.105967 0.000890562 -0.000737482)
(0.101383 0.000687638 -0.000664098)
(0.103471 0.00123127 -0.000606699)
(0.106357 0.000885113 -0.000796142)
(0.101601 0.000695863 -0.000790309)
(0.103786 0.00123785 -0.000635513)
(0.10673 0.000856917 -0.000852128)
(0.101851 0.000683007 -0.000886043)
(0.104129 0.00116833 -0.000661203)
(0.107081 0.000812279 -0.000902512)
(0.102082 0.000656179 -0.000968262)
(0.104443 0.00107257 -0.00068776)
(0.107412 0.000761145 -0.000944441)
(0.10227 0.00061837 -0.00103223)
(0.104715 0.000979474 -0.00071469)
(0.107724 0.000710807 -0.000976411)
(0.102432 0.000572892 -0.00107382)
(0.104965 0.00089775 -0.00073888)
(0.108023 0.000665668 -0.000998564)
(0.102576 0.00053073 -0.00110272)
(0.105204 0.000829084 -0.000757881)
(0.108313 0.000627209 -0.00101136)
(0.102705 0.000495569 -0.00112192)
(0.10544 0.000773856 -0.000769903)
(0.108598 0.00059548 -0.00101554)
(0.102823 0.000465381 -0.00113132)
(0.105675 0.00073165 -0.000774533)
(0.102935 0.000439553 -0.00113079)
(0.105913 0.000701865 -0.000772999)
(0.0971853 0.000502015 -0.000464779)
(0.0862371 0.000402319 -0.000189772)
(0.0934866 0.000627871 -0.000111717)
(0.097353 0.000493839 -0.00066938)
(0.0861871 0.000483379 -0.000497518)
(0.0937469 0.000753908 -0.000385456)
(0.0975229 0.000491237 -0.000818887)
(0.0861108 0.000454126 -0.000676413)
(0.0938919 0.000754276 -0.000552755)
(0.0976352 0.00047652 -0.000930678)
(0.0859503 0.000420703 -0.000805033)
(0.0939746 0.000661023 -0.00064914)
(0.0977023 0.00045349 -0.00101881)
(0.0856929 0.000419396 -0.00091867)
(0.094002 0.00056582 -0.00071984)
(0.0977359 0.00041831 -0.0010751)
(0.0853618 0.000425079 -0.00100276)
(0.0939869 0.00048725 -0.000774056)
(0.0977441 0.000378177 -0.00110675)
(0.0849705 0.000421151 -0.0010538)
(0.0939464 0.000420822 -0.000811431)
(0.0977322 0.000343508 -0.00112694)
(0.0845372 0.000409517 -0.00108444)
(0.0938896 0.00036766 -0.000837448)
(0.0977038 0.00031482 -0.00113885)
(0.0840775 0.000393363 -0.00110037)
(0.0938222 0.000326682 -0.00085383)
(0.0976631 0.00028954 -0.00114158)
(0.0836024 0.000373489 -0.00110463)
(0.0937468 0.000295772 -0.000861142)
(0.0831213 0.000351946 -0.00109876)
(0.0936663 0.000273112 -0.000859141)
(0.0765217 0.000370274 -0.000187134)
(0.0707589 0.000352102 0.000336084)
(0.0763107 0.000432477 -0.000479858)
(0.070622 0.000617042 -9.38003e-05)
(0.0759308 0.000399267 -0.000694412)
(0.0703297 0.000512399 -0.000397564)
(0.0754184 0.000390632 -0.000850694)
(0.069793 0.000416418 -0.000588036)
(0.0748014 0.000418924 -0.000968497)
(0.0691251 0.000409598 -0.000723638)
(0.0740934 0.000453623 -0.00105103)
(0.0683911 0.000423458 -0.000815326)
(0.0733125 0.000475605 -0.00110305)
(0.0676095 0.000427605 -0.000870081)
(0.0724845 0.000481149 -0.00113184)