/*--------------------------------*- C++ -*----------------------------------*\
| =========                 |                                                 |
| \\      /  F ield         | OpenFOAM: The Open Source CFD Toolbox           |
|  \\    /   O peration     | Version:  2212                                  |
|   \\  /    A nd           | Website:  www.openfoam.com                      |
|    \\/     M anipulation  |                                                 |
\*---------------------------------------------------------------------------*/
FoamFile
{
    version     2.0;
    format      ascii;
    arch        "LSB;label=32;scalar=64";
    class       surfaceScalarField;
    location    "2.45";
    object      phi;
}
// * * * * * * * * * * * * * * * * * * * * * * * * * * * * * * * * * * * * * //

dimensions      [0 3 -1 0 0 0 0];

oriented        oriented;

internalField   nonuniform List<scalar> 
1795
(
1.86008e-07
3.88624e-09
3.87988e-09
1.79362e-07
3.3285e-09
3.31769e-09
1.73537e-07
2.92173e-09
2.90361e-09
1.6837e-07
2.59842e-09
2.56892e-09
1.63757e-07
2.33057e-09
2.28221e-09
1.59616e-07
2.1122e-09
2.02875e-09
1.93968e-09
1.80086e-09
4.90965e-07
1.07861e-08
6.84185e-09
4.78763e-07
9.92435e-09
5.6063e-09
4.67713e-07
9.20038e-09
4.7718e-09
4.57589e-07
8.5528e-09
4.16998e-09
4.48262e-07
7.95139e-09
3.70605e-09
4.39645e-07
7.37303e-09
3.35577e-09
6.80608e-09
3.09776e-09
7.98797e-07
1.26467e-08
1.11228e-08
7.86742e-07
1.18391e-08
1.01402e-08
7.75629e-07
1.09625e-08
9.3503e-09
7.65326e-07
1.01031e-08
8.75277e-09
7.55693e-07
9.26819e-09
8.31671e-09
7.46623e-07
8.44618e-09
7.99702e-09
7.59694e-09
7.73648e-09
1.02282e-06
7.53416e-09
1.21196e-08
1.01597e-06
7.33522e-09
1.13535e-08
1.00919e-06
7.02682e-09
1.0708e-08
1.00252e-06
6.54835e-09
1.02241e-08
9.95926e-07
5.98543e-09
9.88171e-09
9.89332e-07
5.38502e-09
9.6554e-09
4.7326e-09
9.54307e-09
1.13394e-06
-8.81311e-12
1.13198e-08
1.13062e-06
-1.44184e-11
1.06706e-08
1.12744e-06
-2.36545e-11
1.02259e-08
1.12407e-06
-3.8955e-11
9.9556e-09
1.12033e-06
-6.43677e-11
9.79165e-09
1.11607e-06
-1.07115e-10
9.75566e-09
-1.80689e-10
9.89423e-09
1.13392e-06
-7.54723e-09
1.13223e-08
1.13059e-06
-7.35652e-09
1.06749e-08
1.12739e-06
-7.06114e-09
1.02329e-08
1.12399e-06
-6.60367e-09
9.96673e-09
1.12019e-06
-6.07511e-09
9.81076e-09
1.11582e-06
-5.53264e-09
9.79148e-09
9.96234e-09
1.02278e-06
-1.26493e-08
1.21241e-08
1.0159e-06
-1.18429e-08
1.13607e-08
1.00909e-06
-1.09678e-08
1.07202e-08
1.00235e-06
-1.01107e-08
1.02449e-08
9.95639e-07
-9.27963e-09
9.91833e-09
-8.46414e-09
9.72118e-09
7.98767e-07
-1.07806e-08
1.11267e-08
7.86693e-07
-9.91512e-09
1.01465e-08
7.75549e-07
-9.18483e-09
9.36085e-09
7.65194e-07
-8.5269e-09
8.77083e-09
7.55476e-07
-7.90964e-09
8.34853e-09
-7.3053e-09
8.05267e-09
4.90955e-07
-3.87996e-09
6.84534e-09
4.78746e-07
-3.31778e-09
5.61198e-09
4.67683e-07
-2.90371e-09
4.78125e-09
4.57539e-07
-2.56903e-09
4.18695e-09
4.48177e-07
-2.28231e-09
3.73389e-09
-2.02897e-09
3.39307e-09
1.86008e-07
3.88621e-09
1.79362e-07
3.32848e-09
1.73537e-07
2.92171e-09
1.68369e-07
2.5984e-09
1.63756e-07
2.33056e-09
2.11231e-09
4.90955e-07
6.84526e-09
1.07805e-08
4.78746e-07
5.61188e-09
9.91496e-09
4.67684e-07
4.78112e-09
9.18463e-09
4.5754e-07
4.1868e-09
8.52666e-09
4.48179e-07
3.73368e-09
7.90935e-09
4.3951e-07
3.39243e-09
7.30503e-09
3.15886e-09
6.69632e-09
8.54784e-07
1.21804e-08
1.21749e-08
8.45361e-07
1.03253e-08
1.03159e-08
8.37044e-07
8.94298e-09
8.92723e-09
8.29654e-07
7.88611e-09
7.86025e-09
8.23016e-07
7.05944e-09
7.01832e-09
8.1705e-07
6.38941e-09
6.32538e-09
5.80038e-09
5.69943e-09
1.14461e-06
1.38674e-08
1.53237e-08
1.1392e-06
1.2252e-08
1.36208e-08
1.13441e-06
1.08313e-08
1.22555e-08
1.13024e-06
9.63807e-09
1.11693e-08
1.12667e-06
8.63525e-09
1.03086e-08
1.12369e-06
7.75087e-09
9.61251e-09
6.90112e-09
9.00569e-09
1.35457e-06
9.02826e-09
1.68198e-08
1.35453e-06
8.16452e-09
1.54786e-08
1.35446e-06
7.3456e-09
1.42588e-08
1.35444e-06
6.59373e-09
1.32916e-08
1.35451e-06
5.90354e-09
1.2547e-08
1.35468e-06
5.24954e-09
1.19865e-08
4.59034e-09
1.15789e-08
1.4619e-06
-7.12542e-12
1.64525e-08
1.46517e-06
-1.14396e-11
1.55768e-08
1.46804e-06
-1.87481e-11
1.47157e-08
1.47068e-06
-3.05339e-11
1.3936e-08
1.47313e-06
-4.95138e-11
1.32965e-08
1.47532e-06
-7.84152e-11
1.28924e-08
-1.24172e-10
1.27279e-08
1.46188e-06
-9.03731e-09
1.6456e-08
1.46514e-06
-8.17895e-09
1.55822e-08
1.468e-06
-7.36975e-09
1.47248e-08
1.47062e-06
-6.63333e-09
1.39508e-08
1.47302e-06
-5.96714e-09
1.3322e-08
1.47515e-06
-5.34759e-09
1.29362e-08
1.28008e-08
1.35454e-06
-1.38673e-08
1.6827e-08
1.35448e-06
-1.22514e-08
1.54899e-08
1.35438e-06
-1.08298e-08
1.42774e-08
1.35431e-06
-9.63499e-09
1.33233e-08
1.35429e-06
-8.6293e-09
1.26e-08
-7.73815e-09
1.20741e-08
1.14459e-06
-1.2175e-08
1.53305e-08
1.13917e-06
-1.0316e-08
1.36322e-08
1.13435e-06
-8.92733e-09
1.22743e-08
1.13015e-06
-7.8604e-09
1.11999e-08
1.12653e-06
-7.01858e-09
1.03585e-08
-6.32622e-09
9.69359e-09
8.54784e-07
-6.84182e-09
1.21806e-08
8.4536e-07
-5.60626e-09
1.03255e-08
8.37043e-07
-4.77176e-09
8.9433e-09
8.29653e-07
-4.1699e-09
7.8865e-09
8.23014e-07
-3.70595e-09
7.05989e-09
-3.35593e-09
6.39037e-09
4.90965e-07
1.07862e-08
4.78763e-07
9.92453e-09
4.67712e-07
9.20063e-09
4.57587e-07
8.55312e-09
4.4826e-07
7.95177e-09
7.37337e-09
7.98768e-07
1.11266e-08
1.26491e-08
7.86694e-07
1.01464e-08
1.18426e-08
7.7555e-07
9.36066e-09
1.09676e-08
7.65196e-07
8.77057e-09
1.01104e-08
7.55478e-07
8.3481e-09
9.2792e-09
7.46267e-07
8.05202e-09
8.46362e-09
7.83597e-09
7.62466e-09
1.14459e-06
1.53303e-08
1.38672e-08
1.13917e-06
1.36319e-08
1.22512e-08
1.13435e-06
1.22739e-08
1.08295e-08
1.13015e-06
1.11994e-08
9.63465e-09
1.12653e-06
1.03577e-08
8.62874e-09
1.12348e-06
9.69236e-09
7.7372e-09
9.13625e-09
6.88063e-09
1.41156e-06
1.50286e-08
1.50248e-08
1.41187e-06
1.34765e-08
1.34703e-08
1.41215e-06
1.21265e-08
1.21165e-08
1.4126e-06
1.09678e-08
1.09516e-08
1.41334e-06
9.9803e-09
9.95427e-09
1.41443e-06
9.12744e-09
9.08562e-09
8.36001e-09
8.2943e-09
1.6001e-06
9.32066e-09
1.54458e-08
1.60626e-06
8.44338e-09
1.43451e-08
1.61178e-06
7.61321e-09
1.32532e-08
1.6169e-06
6.87288e-09
1.22672e-08
1.62179e-06
6.22026e-09
1.14138e-08
1.62658e-06
5.62927e-09
1.06938e-08
5.06356e-09
1.00928e-08
1.69653e-06
-3.9831e-12
1.49636e-08
1.70627e-06
-6.18004e-12
1.42947e-08
1.71508e-06
-9.6546e-12
1.35297e-08
1.72314e-06
-1.49797e-11
1.27609e-08
1.73062e-06
-2.29879e-11
1.20608e-08
1.73769e-06
-3.46145e-11
1.14841e-08
-5.14612e-11
1.10639e-08
1.69652e-06
-9.32443e-09
1.49664e-08
1.70625e-06
-8.44918e-09
1.42992e-08
1.71505e-06
-7.6225e-09
1.35368e-08
1.7231e-06
-6.88772e-09
1.27723e-08
1.73057e-06
-6.24356e-09
1.20791e-08
1.73762e-06
-5.6647e-09
1.15132e-08
1.11096e-08
1.60008e-06
-1.50249e-08
1.54516e-08
1.60624e-06
-1.34705e-08
1.43543e-08
1.61174e-06
-1.21167e-08
1.32677e-08
1.61684e-06
-1.09518e-08
1.22904e-08
1.6217e-06
-9.95463e-09
1.14508e-08
-9.08614e-09
1.07536e-08
1.41156e-06
-1.53237e-08
1.5029e-08
1.41187e-06
-1.36209e-08
1.3477e-08
1.41215e-06
-1.22556e-08
1.21271e-08
1.4126e-06
-1.11694e-08
1.09686e-08
1.41333e-06
-1.03087e-08
9.98133e-09
-9.61264e-09
9.12876e-09
1.14461e-06
-1.11227e-08
1.38678e-08
1.1392e-06
-1.01402e-08
1.22525e-08
1.13441e-06
-9.35031e-09
1.08319e-08
1.13024e-06
-8.75277e-09
9.63881e-09
1.12667e-06
-8.31663e-09
8.6361e-09
-7.99677e-09
7.7519e-09
7.98796e-07
1.26471e-08
7.86741e-07
1.18396e-08
7.75628e-07
1.09631e-08
7.65325e-07
1.01038e-08
7.55691e-07
9.26913e-09
8.44734e-09
1.02278e-06
1.2124e-08
7.54699e-09
1.01591e-06
1.13606e-08
7.35623e-09
1.00909e-06
1.072e-08
7.06079e-09
1.00235e-06
1.02446e-08
6.60325e-09
9.95641e-07
9.91787e-09
6.0746e-09
9.88853e-07
9.72047e-09
5.53197e-09
9.66051e-09
4.97714e-09
1.35454e-06
1.68267e-08
9.03712e-09
1.35448e-06
1.54896e-08
8.1787e-09
1.35438e-06
1.42769e-08
7.36942e-09
1.35431e-06
1.33226e-08
6.63286e-09
1.35429e-06
1.2599e-08
5.96648e-09
1.35433e-06
1.20728e-08
5.34667e-09
1.17237e-08
4.74425e-09
1.60008e-06
1.54512e-08
9.3243e-09
1.60624e-06
1.43537e-08
8.449e-09
1.61174e-06
1.3267e-08
7.62224e-09
1.61684e-06
1.22895e-08
6.88734e-09
1.6217e-06
1.14497e-08
6.24304e-09
1.62644e-06
1.07522e-08
5.664e-09
1.01867e-08
5.11641e-09
1.77036e-06
9.19418e-09
9.19362e-09
1.78185e-06
8.60642e-09
8.60538e-09
1.79241e-06
7.97881e-09
7.97698e-09
1.80222e-06
7.37594e-09
7.37275e-09
1.81143e-06
6.82898e-09
6.82355e-09
1.82019e-06
6.34668e-09
6.33757e-09
5.92356e-09
5.9089e-09
1.85772e-06
-1.04954e-12
8.83597e-09
1.87216e-06
-1.5244e-12
8.46321e-09
1.88565e-06
-2.18812e-12
8.01975e-09
1.89823e-06
-3.07282e-12
7.55762e-09
1.91001e-06
-4.20323e-12
7.11532e-09
1.92112e-06
-5.57508e-12
6.72017e-09
-7.23047e-12
6.39221e-09
1.85771e-06
-9.19372e-09
8.83713e-09
1.87215e-06
-8.60552e-09
8.46497e-09
1.88564e-06
-7.97719e-09
8.02244e-09
1.89822e-06
-7.37305e-09
7.5617e-09
1.91e-06
-6.82396e-09
7.12145e-09
1.92112e-06
-6.33814e-09
6.72919e-09
6.4052e-09
1.77036e-06
-1.54459e-08
9.19478e-09
1.78184e-06
-1.43452e-08
8.60716e-09
1.79241e-06
-1.32534e-08
7.97973e-09
1.80222e-06
-1.22674e-08
7.37706e-09
1.81143e-06
-1.1414e-08
6.83036e-09
-1.06942e-08
6.34835e-09
1.6001e-06
-1.68199e-08
9.32123e-09
1.60626e-06
-1.54787e-08
8.4441e-09
1.61178e-06
-1.42589e-08
7.61411e-09
1.6169e-06
-1.32917e-08
6.87399e-09
1.62179e-06
-1.2547e-08
6.22163e-09
-1.19865e-08
5.63095e-09
1.35457e-06
-1.21196e-08
9.02879e-09
1.35453e-06
-1.13535e-08
8.1652e-09
1.35446e-06
-1.0708e-08
7.34648e-09
1.35444e-06
-1.02242e-08
6.59483e-09
1.35451e-06
-9.88174e-09
5.90491e-09
-9.65532e-09
5.25115e-09
1.02282e-06
7.53463e-09
1.01597e-06
7.33584e-09
1.00919e-06
7.02763e-09
1.00252e-06
6.54942e-09
9.95924e-07
5.98679e-09
5.38675e-09
1.13392e-06
1.13222e-08
8.55464e-12
1.13059e-06
1.06747e-08
1.41026e-11
1.12739e-06
1.02326e-08
2.32686e-11
1.12399e-06
9.9664e-09
3.84812e-11
1.12019e-06
9.81033e-09
6.37813e-11
1.11583e-06
9.7908e-09
1.06385e-10
9.96126e-09
1.79733e-10
1.46188e-06
1.64557e-08
6.92816e-12
1.46514e-06
1.55818e-08
1.11785e-11
1.468e-06
1.47242e-08
1.84011e-11
1.47062e-06
1.39501e-08
3.00676e-11
1.47303e-06
1.33211e-08
4.88848e-11
1.47515e-06
1.29349e-08
7.75998e-11
1.27993e-08
1.23212e-10
1.69653e-06
1.49659e-08
3.83979e-12
1.70625e-06
1.42986e-08
5.97894e-12
1.71505e-06
1.3536e-08
9.37489e-12
1.7231e-06
1.27714e-08
1.45927e-11
1.73057e-06
1.2078e-08
2.24589e-11
1.73762e-06
1.15118e-08
3.39174e-11
1.11079e-08
5.06037e-11
1.85771e-06
8.83654e-09
9.48386e-13
1.87215e-06
8.46424e-09
1.37711e-12
1.88564e-06
8.02155e-09
1.97812e-12
1.89822e-06
7.56061e-09
2.77782e-12
1.91e-06
7.12013e-09
3.79526e-12
1.92112e-06
6.72761e-09
5.02392e-12
6.40333e-09
6.50294e-12
1.9405e-06
-2.11309e-13
1.6574e-13
1.95743e-06
-2.37414e-13
1.62354e-13
1.97347e-06
-2.52764e-13
1.36786e-13
1.98859e-06
-2.5174e-13
7.90835e-14
2.00283e-06
-2.34373e-13
-1.62027e-14
2.01627e-06
-2.18805e-13
-1.37808e-13
-2.84217e-13
-2.17725e-13
1.9405e-06
-8.83603e-09
4.45023e-13
1.95743e-06
-8.46329e-09
5.71157e-13
1.97347e-06
-8.01989e-09
7.37171e-13
1.98859e-06
-7.55781e-09
9.54693e-13
2.00283e-06
-7.1156e-09
1.22984e-12
2.01627e-06
-6.72056e-09
1.5556e-12
1.83521e-12
1.85772e-06
-1.49637e-08
-3.65292e-13
1.87216e-06
-1.42948e-08
-6.72343e-13
1.88565e-06
-1.35298e-08
-1.13267e-12
1.89823e-06
-1.2761e-08
-1.77148e-12
1.91001e-06
-1.2061e-08
-2.60462e-12
-1.14843e-08
-3.61594e-12
1.69653e-06
-1.64526e-08
-3.30734e-12
1.70627e-06
-1.55768e-08
-5.32677e-12
1.71507e-06
-1.47158e-08
-8.58271e-12
1.72314e-06
-1.3936e-08
-1.36425e-11
1.73062e-06
-1.32964e-08
-2.13304e-11
-1.28922e-08
-3.25449e-11
1.4619e-06
-1.13198e-08
-6.47543e-12
1.46517e-06
-1.06707e-08
-1.06048e-11
1.46804e-06
-1.0226e-08
-1.76781e-11
1.47068e-06
-9.95563e-09
-2.91665e-11
1.47313e-06
-9.79163e-09
-4.77802e-11
-9.75551e-09
-7.62403e-11
1.13394e-06
-8.2813e-12
1.13061e-06
-1.37179e-11
1.12744e-06
-2.27386e-11
1.12407e-06
-3.77558e-11
1.12033e-06
-6.28105e-11
-1.05146e-10
1.13394e-06
1.13197e-08
-7.53442e-09
1.13062e-06
1.06704e-08
-7.33553e-09
1.12744e-06
1.02257e-08
-7.0272e-09
1.12407e-06
9.95528e-09
-6.54883e-09
1.12033e-06
9.79122e-09
-5.98604e-09
1.11607e-06
9.75501e-09
-5.38579e-09
9.89323e-09
-4.73354e-09
1.4619e-06
1.64522e-08
-9.02842e-09
1.46517e-06
1.55763e-08
-8.16473e-09
1.46804e-06
1.47152e-08
-7.34589e-09
1.47069e-06
1.39353e-08
-6.59412e-09
1.47313e-06
1.32956e-08
-5.90408e-09
1.47533e-06
1.28912e-08
-5.25024e-09
1.27264e-08
-4.59123e-09
1.69654e-06
1.49632e-08
-9.32078e-09
1.70627e-06
1.42942e-08
-8.44356e-09
1.71508e-06
1.3529e-08
-7.61347e-09
1.72314e-06
1.276e-08
-6.87322e-09
1.73062e-06
1.20597e-08
-6.22074e-09
1.73769e-06
1.14828e-08
-5.62991e-09
1.10623e-08
-5.06438e-09
1.85772e-06
8.83543e-09
-9.19426e-09
1.87216e-06
8.46254e-09
-8.60654e-09
1.88565e-06
8.01895e-09
-7.97899e-09
1.89823e-06
7.55664e-09
-7.37619e-09
1.91001e-06
7.11415e-09
-6.82933e-09
1.92112e-06
6.71876e-09
-6.34715e-09
6.39054e-09
-5.92418e-09
1.9405e-06
-4.1754e-13
-8.83656e-09
1.95743e-06
-5.49957e-13
-8.46428e-09
1.97347e-06
-7.25437e-13
-8.02163e-09
1.98859e-06
-9.58424e-13
-7.56073e-09
2.00283e-06
-1.25932e-12
-7.12031e-09
2.01627e-06
-1.62565e-12
-6.72787e-09
-1.97809e-12
-6.4037e-09
1.9405e-06
-8.83712e-09
-8.83539e-09
1.95743e-06
-8.46497e-09
-8.4625e-09
1.97347e-06
-8.02246e-09
-8.0189e-09
1.98859e-06
-7.56174e-09
-7.5566e-09
2.00283e-06
-7.12152e-09
-7.11412e-09
2.01627e-06
-6.72931e-09
-6.71874e-09
-6.39055e-09
1.85771e-06
-1.49664e-08
-9.19304e-09
1.87215e-06
-1.42992e-08
-8.60467e-09
1.88564e-06
-1.35368e-08
-7.97613e-09
1.89822e-06
-1.27723e-08
-7.37172e-09
1.91e-06
-1.20791e-08
-6.8223e-09
-1.15132e-08
-6.33605e-09
1.69652e-06
-1.6456e-08
-9.32376e-09
1.70625e-06
-1.55822e-08
-8.44833e-09
1.71505e-06
-1.47247e-08
-7.62142e-09
1.7231e-06
-1.39507e-08
-6.88635e-09
1.73057e-06
-1.33218e-08
-6.24183e-09
-1.29358e-08
-5.66248e-09
1.46188e-06
-1.13223e-08
-9.03667e-09
1.46514e-06
-1.06748e-08
-8.17813e-09
1.468e-06
-1.02328e-08
-7.3687e-09
1.47062e-06
-9.96658e-09
-6.63196e-09
1.47302e-06
-9.81053e-09
-5.96539e-09
-9.79101e-09
-5.34532e-09
1.13392e-06
-7.54668e-09
1.13059e-06
-7.35581e-09
1.12739e-06
-7.06021e-09
1.12399e-06
-6.60247e-09
1.12019e-06
-6.07355e-09
-5.53062e-09
1.02282e-06
1.21194e-08
-1.2647e-08
1.01597e-06
1.13533e-08
-1.18394e-08
1.00919e-06
1.07077e-08
-1.09628e-08
1.00253e-06
1.02238e-08
-1.01035e-08
9.95927e-07
9.88122e-09
-9.26865e-09
9.89333e-07
9.65472e-09
-8.44676e-09
9.5421e-09
-7.5977e-09
1.35457e-06
1.68195e-08
-1.38675e-08
1.35453e-06
1.54783e-08
-1.22522e-08
1.35447e-06
1.42583e-08
-1.08315e-08
1.35444e-06
1.3291e-08
-9.63836e-09
1.35451e-06
1.25462e-08
-8.63564e-09
1.35468e-06
1.19855e-08
-7.75139e-09
1.15776e-08
-6.90181e-09
1.6001e-06
1.54454e-08
-1.50286e-08
1.60626e-06
1.43446e-08
-1.34766e-08
1.61178e-06
1.32527e-08
-1.21267e-08
1.6169e-06
1.22665e-08
-1.0968e-08
1.62179e-06
1.14129e-08
-9.98065e-09
1.62659e-06
1.06928e-08
-9.12794e-09
1.00915e-08
-8.36067e-09
1.77036e-06
9.19316e-09
-1.54512e-08
1.78185e-06
8.60482e-09
-1.43538e-08
1.79241e-06
7.97631e-09
-1.32671e-08
1.80222e-06
7.37196e-09
-1.22896e-08
1.81143e-06
6.8226e-09
-1.14499e-08
1.82019e-06
6.33645e-09
-1.07525e-08
5.90758e-09
-1.01872e-08
1.85771e-06
4.65597e-13
-1.49659e-08
1.87215e-06
7.93887e-13
-1.42986e-08
1.88564e-06
1.2833e-12
-1.35361e-08
1.89822e-06
1.95812e-12
-1.27715e-08
1.91e-06
2.8351e-12
-1.20781e-08
1.92112e-06
3.90252e-12
-1.1512e-08
5.19382e-12
-1.11082e-08
1.84239e-06
-9.64915e-09
-1.54321e-08
1.85772e-06
-9.19471e-09
-1.49631e-08
1.87216e-06
-8.60709e-09
-1.42941e-08
1.88565e-06
-7.97964e-09
-1.35289e-08
1.89823e-06
-7.37695e-09
-1.276e-08
1.91001e-06
-6.83021e-09
-1.20597e-08
1.92112e-06
-6.34817e-09
-1.14827e-08
-1.10623e-08
1.75785e-06
-1.63792e-08
-1.63752e-08
1.77036e-06
-1.54516e-08
-1.54453e-08
1.78185e-06
-1.43542e-08
-1.43445e-08
1.79241e-06
-1.32676e-08
-1.32525e-08
1.80222e-06
-1.22903e-08
-1.22663e-08
1.81143e-06
-1.14507e-08
-1.14126e-08
-1.07534e-08
-1.06923e-08
1.593e-06
-1.81099e-08
-1.67044e-08
1.60008e-06
-1.6827e-08
-1.50244e-08
1.60624e-06
-1.54899e-08
-1.34697e-08
1.61174e-06
-1.42773e-08
-1.21158e-08
1.61684e-06
-1.33232e-08
-1.09507e-08
1.6217e-06
-1.25997e-08
-9.95315e-09
-1.20737e-08
-9.08419e-09
1.35441e-06
-1.29825e-08
-1.56743e-08
1.35454e-06
-1.21241e-08
-1.38668e-08
1.35448e-06
-1.13607e-08
-1.22507e-08
1.35438e-06
-1.07201e-08
-1.08289e-08
1.35431e-06
-1.02448e-08
-9.63389e-09
1.35429e-06
-9.91807e-09
-8.62789e-09
-9.7207e-09
-7.73627e-09
1.0298e-06
-1.33642e-08
1.02278e-06
-1.26489e-08
1.0159e-06
-1.18423e-08
1.00909e-06
-1.09671e-08
1.00235e-06
-1.01097e-08
9.95641e-07
-9.27834e-09
-8.46247e-09
7.98797e-07
1.11226e-08
-1.07862e-08
7.86742e-07
1.014e-08
-9.9245e-09
7.7563e-07
9.35005e-09
-9.20056e-09
7.65327e-07
8.75243e-09
-8.55301e-09
7.55694e-07
8.31626e-09
-7.95164e-09
7.46624e-07
7.9964e-09
-7.37334e-09
7.73562e-09
-6.80648e-09
1.14461e-06
1.53234e-08
-1.21804e-08
1.1392e-06
1.36205e-08
-1.03253e-08
1.13441e-06
1.22551e-08
-8.94308e-09
1.13024e-06
1.11688e-08
-7.88626e-09
1.12667e-06
1.0308e-08
-7.05965e-09
1.12369e-06
9.61176e-09
-6.38972e-09
9.0047e-09
-5.80071e-09
1.41156e-06
1.50245e-08
-1.53303e-08
1.41187e-06
1.34699e-08
-1.3632e-08
1.41215e-06
1.2116e-08
-1.22739e-08
1.4126e-06
1.0951e-08
-1.11995e-08
1.41334e-06
9.95362e-09
-1.03579e-08
1.41443e-06
9.08487e-09
-9.69258e-09
8.29342e-09
-9.13656e-09
1.60008e-06
9.32394e-09
-1.68267e-08
1.60624e-06
8.44856e-09
-1.54896e-08
1.61174e-06
7.62172e-09
-1.42769e-08
1.61684e-06
6.88675e-09
-1.33227e-08
1.6217e-06
6.24236e-09
-1.25991e-08
1.62644e-06
5.66324e-09
-1.2073e-08
5.11555e-09
-1.1724e-08
1.69653e-06
3.46308e-12
-1.64556e-08
1.70625e-06
5.52951e-12
-1.55818e-08
1.71505e-06
8.85201e-12
-1.47242e-08
1.7231e-06
1.39993e-11
-1.39501e-08
1.73057e-06
2.1802e-11
-1.33211e-08
1.73762e-06
3.31965e-11
-1.2935e-08
4.9792e-11
-1.27994e-08
1.68572e-06
-1.01369e-08
-1.71619e-08
1.69653e-06
-9.32113e-09
-1.64522e-08
1.70627e-06
-8.44397e-09
-1.55763e-08
1.71508e-06
-7.61394e-09
-1.47152e-08
1.72314e-06
-6.87375e-09
-1.39353e-08
1.73062e-06
-6.2213e-09
-1.32955e-08
1.73769e-06
-5.63049e-09
-1.28911e-08
-1.27264e-08
1.59301e-06
-1.67073e-08
-1.81051e-08
1.6001e-06
-1.50289e-08
-1.68195e-08
1.60626e-06
-1.34769e-08
-1.54782e-08
1.61178e-06
-1.2127e-08
-1.42582e-08
1.6169e-06
-1.09684e-08
-1.32909e-08
1.62179e-06
-9.98114e-09
-1.2546e-08
-9.12846e-09
-1.19851e-08
1.41096e-06
-1.74256e-08
-1.74213e-08
1.41156e-06
-1.53305e-08
-1.53233e-08
1.41187e-06
-1.36322e-08
-1.36204e-08
1.41215e-06
-1.22742e-08
-1.2255e-08
1.4126e-06
-1.11999e-08
-1.11686e-08
1.41334e-06
-1.03584e-08
-1.03077e-08
-9.69327e-09
-9.6112e-09
1.15048e-06
-1.23454e-08
-1.46918e-08
1.14459e-06
-1.11267e-08
-1.21746e-08
1.13917e-06
-1.01465e-08
-1.03156e-08
1.13435e-06
-9.36082e-09
-8.92677e-09
1.13015e-06
-8.77076e-09
-7.85969e-09
1.12653e-06
-8.34838e-09
-7.01767e-09
-8.05235e-09
-6.32502e-09
8.11763e-07
-1.19404e-08
7.98768e-07
-1.07803e-08
7.86694e-07
-9.9147e-09
7.7555e-07
-9.1843e-09
7.65196e-07
-8.52623e-09
7.55478e-07
-7.90878e-09
-7.30421e-09
4.90966e-07
6.84173e-09
-3.88629e-09
4.78764e-07
5.60614e-09
-3.32856e-09
4.67713e-07
4.7716e-09
-2.92179e-09
4.57589e-07
4.16973e-09
-2.5985e-09
4.48262e-07
3.70575e-09
-2.33067e-09
4.39646e-07
3.35545e-09
-2.11235e-09
3.09733e-09
-1.93988e-09
8.54784e-07
1.21747e-08
-6.84525e-09
8.45361e-07
1.03157e-08
-5.61188e-09
8.37044e-07
8.92694e-09
-4.78113e-09
8.29655e-07
7.8599e-09
-4.18683e-09
8.23016e-07
7.0179e-09
-3.73374e-09
8.1705e-07
6.3249e-09
-3.39253e-09
5.69883e-09
-3.15889e-09
1.14459e-06
1.3867e-08
-1.11266e-08
1.13917e-06
1.22509e-08
-1.01464e-08
1.13435e-06
1.08292e-08
-9.36064e-09
1.13015e-06
9.63425e-09
-8.77054e-09
1.12653e-06
8.62827e-09
-8.34806e-09
1.12348e-06
7.73667e-09
-8.05196e-09
6.88005e-09
-7.83592e-09
1.35454e-06
9.03687e-09
-1.2124e-08
1.35448e-06
8.17839e-09
-1.13605e-08
1.35438e-06
7.36905e-09
-1.072e-08
1.35431e-06
6.63245e-09
-1.02446e-08
1.35429e-06
5.96602e-09
-9.91782e-09
1.35433e-06
5.34617e-09
-9.72043e-09
4.74373e-09
-9.66051e-09
1.46188e-06
6.66085e-12
-1.13222e-08
1.46514e-06
1.08558e-11
-1.06746e-08
1.468e-06
1.80267e-11
-1.02326e-08
1.47062e-06
2.96527e-11
-9.96637e-09
1.47303e-06
4.8452e-11
-9.8103e-09
1.47515e-06
7.71746e-11
-9.79079e-09
1.22761e-10
-9.96129e-09
1.45799e-06
-9.88145e-09
-1.21074e-08
1.4619e-06
-9.02867e-09
-1.13196e-08
1.46517e-06
-8.16503e-09
-1.06704e-08
1.46804e-06
-7.34622e-09
-1.02257e-08
1.47069e-06
-6.59447e-09
-9.95528e-09
1.47313e-06
-5.90439e-09
-9.79124e-09
1.47533e-06
-5.25045e-09
-9.75503e-09
-9.89322e-09
1.35443e-06
-1.56751e-08
-1.29796e-08
1.35457e-06
-1.38677e-08
-1.21194e-08
1.35453e-06
-1.22524e-08
-1.13533e-08
1.35447e-06
-1.08318e-08
-1.07077e-08
1.35444e-06
-9.63864e-09
-1.02237e-08
1.35451e-06
-8.63587e-09
-9.88115e-09
-7.75151e-09
-9.65454e-09
1.1505e-06
-1.46955e-08
-1.23429e-08
1.14461e-06
-1.21806e-08
-1.11226e-08
1.1392e-06
-1.03255e-08
-1.014e-08
1.13441e-06
-8.94329e-09
-9.34999e-09
1.13024e-06
-7.88649e-09
-8.75235e-09
1.12667e-06
-7.05985e-09
-8.31606e-09
-6.39019e-09
-7.99595e-09
8.65452e-07
-8.71291e-09
-8.71055e-09
8.54784e-07
-6.84533e-09
-6.84169e-09
8.45361e-07
-5.61197e-09
-5.6061e-09
8.37044e-07
-4.78124e-09
-4.77155e-09
8.29654e-07
-4.18694e-09
-4.16962e-09
8.23016e-07
-3.73387e-09
-3.70559e-09
-3.39297e-09
-3.35552e-09
5.04701e-07
-4.71151e-09
4.90955e-07
-3.87977e-09
4.78746e-07
-3.31755e-09
4.67684e-07
-2.90344e-09
4.5754e-07
-2.56871e-09
4.48179e-07
-2.28193e-09
-2.02849e-09
1.86008e-07
3.8798e-09
1.79362e-07
3.3176e-09
1.73537e-07
2.9035e-09
1.6837e-07
2.56879e-09
1.63757e-07
2.28204e-09
1.59616e-07
2.02855e-09
1.80058e-09
4.90956e-07
1.07804e-08
4.78746e-07
9.91481e-09
4.67684e-07
9.18444e-09
4.5754e-07
8.52641e-09
4.48179e-07
7.90903e-09
4.39511e-07
7.30465e-09
6.6959e-09
7.98768e-07
1.2649e-08
7.86694e-07
1.18425e-08
7.7555e-07
1.09673e-08
7.65196e-07
1.01101e-08
7.55478e-07
9.27887e-09
7.46268e-07
8.46324e-09
7.62426e-09
1.02278e-06
7.54687e-09
1.01591e-06
7.35608e-09
1.00909e-06
7.06059e-09
1.00235e-06
6.60301e-09
9.95642e-07
6.07431e-09
9.88853e-07
5.53165e-09
4.97684e-09
1.13392e-06
8.46514e-12
1.13059e-06
1.39748e-11
1.12739e-06
2.31046e-11
1.12399e-06
3.82801e-11
1.12019e-06
6.35479e-11
1.11583e-06
1.06157e-10
1.79579e-10
1.13771e-06
-7.77496e-09
1.13394e-06
-7.5345e-09
1.13062e-06
-7.33565e-09
1.12744e-06
-7.02735e-09
1.12407e-06
-6.54902e-09
1.12033e-06
-5.98624e-09
1.11607e-06
-5.38595e-09
1.02982e-06
-1.3363e-08
1.02282e-06
-1.2647e-08
1.01597e-06
-1.18395e-08
1.00919e-06
-1.09629e-08
1.00253e-06
-1.01036e-08
9.95927e-07
-9.26878e-09
-8.44681e-09
8.1178e-07
-1.19439e-08
7.98797e-07
-1.07863e-08
7.86742e-07
-9.92458e-09
7.7563e-07
-9.20065e-09
7.65327e-07
-8.55309e-09
7.55694e-07
-7.95166e-09
-7.37318e-09
5.04707e-07
-4.71527e-09
4.90966e-07
-3.88632e-09
4.78763e-07
-3.3286e-09
4.67713e-07
-2.92183e-09
4.57589e-07
-2.59853e-09
4.48263e-07
-2.33068e-09
-2.11246e-09
1.93774e-07
1.86008e-07
1.79362e-07
1.73537e-07
1.6837e-07
1.63757e-07
)
;

boundaryField
{
    inlet
    {
        type            calculated;
        value           nonuniform List<scalar> 0();
    }
    ami1
    {
        type            cyclicAMI;
        value           nonuniform List<scalar> 0();
    }
    walls
    {
        type            calculated;
        value           uniform 0;
    }
    ami2
    {
        type            cyclicAMI;
        value           nonuniform List<scalar> 0();
    }
    outlet
    {
        type            calculated;
        value           nonuniform List<scalar> 0();
    }
    procBoundary3to2
    {
        type            processor;
        value           nonuniform List<scalar> 
110
(
1.55875e-07
4.31681e-07
7.38096e-07
9.82653e-07
1.11109e-06
1.11066e-06
-4.97823e-09
9.8885e-07
7.46265e-07
4.39508e-07
1.59615e-07
4.31456e-07
8.11807e-07
1.12132e-06
1.35495e-06
1.47721e-06
1.47693e-06
-4.74507e-09
1.35432e-06
1.12347e-06
8.17047e-07
4.39643e-07
7.37503e-07
1.12099e-06
1.41592e-06
1.63137e-06
1.74447e-06
1.74438e-06
-5.11717e-09
1.62644e-06
1.41442e-06
1.12369e-06
7.4662e-07
9.8184e-07
1.3544e-06
1.63116e-06
1.82864e-06
1.93173e-06
1.93172e-06
-5.90966e-09
1.82019e-06
1.62658e-06
1.35468e-06
9.89329e-07
1.11066e-06
1.47694e-06
1.74438e-06
1.93172e-06
2.02907e-06
2.02907e-06
-6.39277e-09
1.92112e-06
1.73769e-06
1.47532e-06
1.11607e-06
1.11109e-06
1.47721e-06
1.74447e-06
1.93173e-06
2.02907e-06
2.02907e-06
-6.40539e-09
1.92112e-06
1.73762e-06
1.47515e-06
1.11582e-06
9.82655e-07
1.35495e-06
1.63137e-06
1.82864e-06
1.93172e-06
1.93173e-06
-5.92533e-09
1.82019e-06
1.62644e-06
1.35433e-06
9.88852e-07
7.38097e-07
1.12132e-06
1.41591e-06
1.63116e-06
1.74438e-06
1.74447e-06
-5.06508e-09
1.62659e-06
1.41443e-06
1.12348e-06
7.46267e-07
4.31682e-07
8.11807e-07
1.12099e-06
1.3544e-06
1.47693e-06
1.47721e-06
-4.59163e-09
1.35468e-06
1.12369e-06
8.1705e-07
4.39511e-07
1.55876e-07
4.31457e-07
7.37504e-07
9.8184e-07
1.11066e-06
1.11109e-06
-4.73352e-09
9.89333e-07
7.46624e-07
4.39646e-07
1.59616e-07
)
;
    }
    procBoundary3to4
    {
        type            processor;
        value           nonuniform List<scalar> 
109
(
-1.93774e-07
-5.04707e-07
-8.1178e-07
-1.02982e-06
-1.13771e-06
-1.1377e-06
-1.0298e-06
-8.11762e-07
-5.04701e-07
-1.93774e-07
-5.04701e-07
-8.65452e-07
-1.1505e-06
-1.35443e-06
-1.45799e-06
-1.45798e-06
-1.35441e-06
-1.15048e-06
-8.65452e-07
-5.04707e-07
-8.11763e-07
-1.15048e-06
-1.41096e-06
-1.59301e-06
-1.68572e-06
-1.68571e-06
-1.593e-06
-1.41096e-06
-1.15049e-06
-8.1178e-07
-1.0298e-06
-1.35441e-06
-1.593e-06
-1.75785e-06
-1.84239e-06
-1.84239e-06
-1.75785e-06
-1.59301e-06
-1.35443e-06
-1.02982e-06
-1.1377e-06
-1.45798e-06
-1.68572e-06
-1.84239e-06
-1.92283e-06
-1.92283e-06
-1.84239e-06
-1.68572e-06
-1.45799e-06
-1.13771e-06
-1.13771e-06
-1.45799e-06
-1.68572e-06
-1.84239e-06
-1.92283e-06
-1.92283e-06
9.07114e-09
-1.84239e-06
9.64799e-09
-1.68571e-06
1.01385e-08
-1.45798e-06
9.88638e-09
-1.1377e-06
7.78233e-09
-1.02982e-06
-1.35443e-06
-1.59301e-06
-1.75785e-06
-1.84239e-06
-2.60425e-13
-1.82638e-06
-1.74439e-06
-1.58471e-06
-1.35375e-06
-1.0372e-06
-8.1178e-07
-1.1505e-06
-1.41096e-06
-1.593e-06
-1.68572e-06
-2.19673e-12
-1.67385e-06
-1.58471e-06
-1.40953e-06
-1.15655e-06
-8.25532e-07
-5.04707e-07
-8.65452e-07
-1.15048e-06
-1.35441e-06
-1.45798e-06
-4.14093e-12
-1.45316e-06
-1.35376e-06
-1.15655e-06
-8.77416e-07
-5.20643e-07
-1.93774e-07
-5.04701e-07
-8.11763e-07
-1.0298e-06
-1.1377e-06
-5.11792e-12
-1.14204e-06
-1.03721e-06
-8.25542e-07
-5.20646e-07
-2.03201e-07
)
;
    }
}


// ************************************************************************* //
