/*--------------------------------*- C++ -*----------------------------------*\
| =========                 |                                                 |
| \\      /  F ield         | OpenFOAM: The Open Source CFD Toolbox           |
|  \\    /   O peration     | Version:  2212                                  |
|   \\  /    A nd           | Website:  www.openfoam.com                      |
|    \\/     M anipulation  |                                                 |
\*---------------------------------------------------------------------------*/
FoamFile
{
    version     2.0;
    format      ascii;
    arch        "LSB;label=32;scalar=64";
    class       surfaceVectorField;
    location    "2.45";
    object      Uf;
}
// * * * * * * * * * * * * * * * * * * * * * * * * * * * * * * * * * * * * * //

dimensions      [0 1 -1 0 0 0 0];

internalField   nonuniform List<vector> 
1795
(
(0.0556173 0.000288306 0.000287238)
(0.0650541 0.000468959 0.000388096)
(0.0650537 0.000388634 0.000467507)
(0.0536301 0.000227559 0.000225815)
(0.0629715 0.000415342 0.000308947)
(0.0629706 0.000309799 0.00041291)
(0.0518883 0.000184145 0.0001813)
(0.0611405 0.000372935 0.000256878)
(0.0611392 0.000258259 0.000368888)
(0.0503433 0.0001528 0.000148234)
(0.0595027 0.000334846 0.000223007)
(0.0595003 0.000225374 0.000328186)
(0.048964 0.000129214 0.000121928)
(0.0580252 0.000299775 0.000200969)
(0.0580212 0.000204692 0.000288948)
(0.0477259 0.000110289 9.82408e-05)
(0.0566845 0.000269111 0.000186552)
(0.0566779 0.000191368 0.000251367)
(0.0554602 0.000244222 0.000176299)
(0.0554493 0.000184271 0.000214728)
(0.076561 0.000991092 0.00062624)
(0.083064 0.00136932 0.000914188)
(0.0844839 0.000982215 0.000691552)
(0.0746582 0.000903401 0.000520095)
(0.0813298 0.00127478 0.000803217)
(0.0828856 0.000843805 0.000550088)
(0.072935 0.000828062 0.000456195)
(0.0797548 0.00118783 0.000729206)
(0.081457 0.000742222 0.000457989)
(0.0713562 0.000754178 0.000418688)
(0.0783116 0.00110175 0.000684186)
(0.0801665 0.000658336 0.000396092)
(0.0699018 0.000681001 0.000397125)
(0.0769792 0.00101542 0.000658684)
(0.0789895 0.000584189 0.000352409)
(0.0685581 0.000613781 0.00038648)
(0.0757413 0.000927711 0.000646135)
(0.0779082 0.000520182 0.000322842)
(0.0745878 0.000838383 0.000642384)
(0.0769181 0.000468354 0.000303054)
(0.0891542 0.00165171 0.00111499)
(0.0923698 0.00157362 0.00126642)
(0.0941504 0.00164212 0.00120456)
(0.0878088 0.001544 0.00103422)
(0.0913344 0.00147605 0.00117352)
(0.0931696 0.00150051 0.00109715)
(0.0865685 0.00142995 0.000974754)
(0.0903465 0.00136199 0.00110627)
(0.0922675 0.00136792 0.00101625)
(0.0854186 0.00131683 0.000937692)
(0.0894182 0.00124484 0.00106235)
(0.0914443 0.00124603 0.000961323)
(0.0843434 0.00120589 0.000919141)
(0.0885417 0.00112661 0.00103791)
(0.0906916 0.00113497 0.000927661)
(0.0833311 0.0010914 0.000914219)
(0.0877036 0.00100653 0.00102896)
(0.0899996 0.00103014 0.000909782)
(0.0868955 0.000879202 0.00103325)
(0.0893634 0.000922252 0.000901735)
(0.0948724 0.00134833 0.00133003)
(0.0959913 0.000913256 0.00138035)
(0.0985114 0.00138962 0.0015163)
(0.094237 0.00128477 0.00126046)
(0.0955212 0.0008965 0.00128056)
(0.0981782 0.00129413 0.00142175)
(0.0936089 0.00119606 0.00121619)
(0.0950639 0.000859526 0.00122053)
(0.0978316 0.00118557 0.00134684)
(0.0929903 0.00108989 0.00118931)
(0.0946038 0.000794852 0.00119035)
(0.0974944 0.00107252 0.00129606)
(0.0923782 0.000973989 0.00117772)
(0.0941389 0.000715654 0.00118157)
(0.0971681 0.000959611 0.0012657)
(0.0917665 0.000849926 0.00118074)
(0.0936612 0.000629394 0.00118761)
(0.096848 0.000845748 0.00125228)
(0.093156 0.000533841 0.00120985)
(0.0965294 0.000726066 0.00125632)
(0.096671 0.000433566 0.00133055)
(0.0968278 -1.23849e-06 0.00138954)
(0.0999375 0.000482511 0.00157362)
(0.0963879 0.000422626 0.00123708)
(0.0965247 -2.0262e-06 0.00127186)
(0.0998957 0.000456942 0.00148326)
(0.0961171 0.000403549 0.00119012)
(0.0962649 -3.32412e-06 0.00120281)
(0.0998604 0.000430215 0.00142188)
(0.09583 0.000372179 0.00117898)
(0.0959815 -5.47428e-06 0.00117828)
(0.0998018 0.000395423 0.00138559)
(0.095511 0.000329838 0.00118901)
(0.0956725 -9.04548e-06 0.00118111)
(0.0997246 0.000352847 0.00136478)
(0.0951475 0.000278042 0.00121536)
(0.0953307 -1.50526e-05 0.00119954)
(0.0996239 0.000304579 0.00136238)
(0.0949341 -2.5392e-05 0.00123633)
(0.0994844 0.000249634 0.00138503)
(0.0966695 -0.000436631 0.00133085)
(0.0959894 -0.000915086 0.00138062)
(0.0999364 -0.000484559 0.00157387)
(0.0963854 -0.000427639 0.00123759)
(0.095518 -0.000899478 0.00128106)
(0.099894 -0.000460271 0.00148367)
(0.0961129 -0.000411759 0.00119097)
(0.0950585 -0.000864311 0.00122145)
(0.0998576 -0.00043567 0.00142256)
(0.0958229 -0.000385649 0.00118041)
(0.0945948 -0.00080255 0.00119194)
(0.0997972 -0.000404336 0.00138667)
(0.095499 -0.000352061 0.00119163)
(0.0941239 -0.000728103 0.00118442)
(0.0997171 -0.000367373 0.00136668)
(0.0951268 -0.000315128 0.0012205)
(0.0936359 -0.000649841 0.00119268)
(0.0996111 -0.000328186 0.00136613)
(0.0994626 -0.000288443 0.0013925)
(0.0948689 -0.00134987 0.00133046)
(0.0923673 -0.00157391 0.00126682)
(0.0985092 -0.00139049 0.00151681)
(0.0942313 -0.00128716 0.00126129)
(0.0913301 -0.00147644 0.0011742)
(0.0981745 -0.00129548 0.00142257)
(0.0935993 -0.00119975 0.00121774)
(0.0903393 -0.00136249 0.00110748)
(0.0978255 -0.0011877 0.00134825)
(0.0929743 -0.00109564 0.00119213)
(0.0894064 -0.00124547 0.00106442)
(0.0974842 -0.00107582 0.00129851)
(0.0923516 -0.000983188 0.00118274)
(0.0885221 -0.00112741 0.0010416)
(0.0971512 -0.000964777 0.00127012)
(0.0876711 -0.00100766 0.00103532)
(0.0968198 -0.000853854 0.00126041)
(0.0891509 -0.00165105 0.00111564)
(0.0830622 -0.00136823 0.00091474)
(0.0941484 -0.00164151 0.00120534)
(0.0878033 -0.00154285 0.00103529)
(0.0813267 -0.00127295 0.00080412)
(0.0931663 -0.00149944 0.00109842)
(0.0865595 -0.00142798 0.000976528)
(0.0797498 -0.00118475 0.000730696)
(0.092262 -0.00136609 0.00101838)
(0.0854038 -0.00131353 0.000940719)
(0.0783032 -0.00109659 0.00068678)
(0.0914353 -0.00124304 0.00096492)
(0.0843192 -0.00120049 0.000924406)
(0.0769651 -0.00100704 0.000663018)
(0.0906769 -0.00113009 0.00093389)
(0.0757182 -0.000914504 0.000652158)
(0.0899758 -0.00102204 0.000920551)
(0.0765594 -0.000988929 0.000627006)
(0.0650536 -0.00046752 0.000388636)
(0.0844831 -0.000980859 0.000692695)
(0.0746554 -0.000899753 0.000521334)
(0.0629706 -0.000412924 0.000309801)
(0.0828844 -0.000841511 0.000551987)
(0.0729304 -0.000821955 0.000458354)
(0.0611391 -0.000368904 0.000258261)
(0.081455 -0.000738373 0.00046116)
(0.0713484 -0.000744106 0.000422312)
(0.0595002 -0.000328205 0.000225374)
(0.0801631 -0.00065183 0.000401611)
(0.0698886 -0.000664643 0.000401761)
(0.058021 -0.000288967 0.00020469)
(0.0789837 -0.000573685 0.000361392)
(0.0566776 -0.0002514 0.000191378)
(0.0778988 -0.000503969 0.000335787)
(0.0556173 -0.000287244 0.000288303)
(0.0650541 -0.000388093 0.000468955)
(0.05363 -0.000225821 0.000227556)
(0.0629714 -0.000308943 0.000415339)
(0.0518882 -0.000181307 0.000184142)
(0.0611404 -0.000256874 0.000372934)
(0.0503431 -0.000148239 0.000152794)
(0.0595025 -0.000223002 0.000334845)
(0.0489639 -0.000121938 0.000129216)
(0.058025 -0.000200962 0.000299777)
(0.0566842 -0.000186548 0.000269132)
(0.0765594 0.000626998 0.000988905)
(0.0844832 0.000692686 0.000980848)
(0.0830622 0.000914736 0.00136821)
(0.0746555 0.000521324 0.000899723)
(0.0828845 0.000551975 0.000841497)
(0.0813268 0.000804114 0.00127293)
(0.0729305 0.000458345 0.000821919)
(0.0814551 0.000461146 0.000738355)
(0.0797499 0.000730689 0.00118472)
(0.0713486 0.000422303 0.000744062)
(0.0801632 0.000401596 0.000651808)
(0.0783033 0.000686773 0.00109655)
(0.0698889 0.000401748 0.000664586)
(0.0789839 0.00036137 0.000573657)
(0.0769653 0.000663007 0.001007)
(0.0685371 0.000392642 0.000586947)
(0.0778991 0.000335716 0.000503894)
(0.0757185 0.000652148 0.000914466)
(0.076903 0.00032431 0.00044168)
(0.07455 0.000652513 0.000816837)
(0.0926215 0.000962446 0.000960732)
(0.0959619 0.00140416 0.00132122)
(0.0959613 0.00132235 0.00140303)
(0.0916005 0.000778477 0.000775593)
(0.095152 0.00119083 0.00111817)
(0.095151 0.00112008 0.00118891)
(0.0906993 0.000646737 0.000641814)
(0.0944325 0.00103059 0.000971286)
(0.0944308 0.000974485 0.00102736)
(0.0898986 0.000548941 0.00054084)
(0.0937994 0.000906869 0.000863197)
(0.0937966 0.00086866 0.000901503)
(0.0891793 0.000475636 0.000463259)
(0.0932396 0.000808745 0.000783321)
(0.0932351 0.000792232 0.000800148)
(0.0885328 0.000421193 0.00040166)
(0.0927416 0.000727753 0.000723651)
(0.0927346 0.000737554 0.000714358)
(0.0923075 0.000655582 0.000674553)
(0.0922969 0.000697678 0.000634118)
(0.0989358 0.00156128 0.00148309)
(0.100665 0.00158161 0.00176571)
(0.100856 0.00176924 0.00175703)
(0.0984684 0.00137446 0.00132079)
(0.10041 0.0013919 0.00159048)
(0.100609 0.00156732 0.00156283)
(0.0980541 0.00121932 0.00120018)
(0.100175 0.00122332 0.00144605)
(0.100383 0.0013992 0.00140836)
(0.0976938 0.00108893 0.00111302)
(0.0999694 0.00107874 0.00134133)
(0.10019 0.00125915 0.00128671)
(0.0973854 0.000976439 0.00105105)
(0.0997958 0.000954456 0.00126883)
(0.100034 0.00114167 0.00119162)
(0.0971281 0.000872609 0.0010045)
(0.0996526 0.000842156 0.00121988)
(0.0999156 0.00104068 0.00111589)
(0.0995398 0.000731674 0.00118721)
(0.0998375 0.000947509 0.00105089)
(0.102276 0.00137837 0.00188579)
(0.10284 0.00101527 0.00200604)
(0.103287 0.00147741 0.0020491)
(0.102273 0.00122377 0.00173156)
(0.102964 0.0009132 0.00187135)
(0.103493 0.00132416 0.00188983)
(0.102268 0.0010807 0.00160537)
(0.103066 0.000816188 0.00174638)
(0.10367 0.00117925 0.0017456)
(0.102266 0.000954588 0.00151746)
(0.103157 0.000725754 0.00164743)
(0.103831 0.00105066 0.00163283)
(0.102271 0.000840004 0.00145989)
(0.103247 0.000641248 0.00157388)
(0.103987 0.000937573 0.00154765)
(0.102284 0.000728182 0.00142674)
(0.103332 0.000558877 0.00153078)
(0.104142 0.000833017 0.00148579)
(0.103411 0.00047323 0.00151769)
(0.104299 0.00073035 0.0014439)
(0.103552 0.000523811 0.00199302)
(0.103426 -9.25989e-07 0.00204684)
(0.104184 0.000553995 0.00210761)
(0.103784 0.000477891 0.00188829)
(0.103676 -1.48664e-06 0.00193967)
(0.104619 0.000505399 0.00199615)
(0.103988 0.00043143 0.0017908)
(0.103892 -2.43642e-06 0.00183765)
(0.105006 0.00045803 0.00188655)
(0.104175 0.000382501 0.00170614)
(0.104083 -3.96805e-06 0.00174513)
(0.105356 0.00041083 0.00178747)
(0.104348 0.000332332 0.0016471)
(0.104263 -6.4346e-06 0.00166914)
(0.10568 0.000364217 0.0017065)
(0.104504 0.00028013 0.0016245)
(0.104427 -1.01905e-05 0.00162869)
(0.105982 0.000318679 0.00165596)
(0.104567 -1.61369e-05 0.00162687)
(0.106262 0.000270931 0.00163651)
(0.103551 -0.000526083 0.00199348)
(0.102839 -0.00101641 0.00200663)
(0.104183 -0.000555338 0.00210801)
(0.103782 -0.000481596 0.00188903)
(0.102962 -0.000915021 0.00187226)
(0.104618 -0.000507537 0.00199678)
(0.103985 -0.000437478 0.00179198)
(0.103063 -0.000819237 0.00174788)
(0.105004 -0.00046149 0.00188759)
(0.10417 -0.000392281 0.00170813)
(0.103152 -0.000730748 0.00164998)
(0.105353 -0.000416388 0.00178918)
(0.104341 -0.00034789 0.00165074)
(0.103237 -0.000649239 0.0015783)
(0.105676 -0.000373058 0.00170947)
(0.104491 -0.000304766 0.00163107)
(0.103317 -0.00057111 0.00153859)
(0.105975 -0.000332468 0.0016611)
(0.106251 -0.000292456 0.00164511)
(0.102274 -0.00137902 0.00188682)
(0.100664 -0.00158143 0.00176664)
(0.103285 -0.00147765 0.00205003)
(0.102269 -0.00122481 0.0017332)
(0.100407 -0.00139154 0.00159198)
(0.10349 -0.0013245 0.00189128)
(0.102262 -0.00108238 0.00160817)
(0.10017 -0.00122266 0.00144852)
(0.103666 -0.00117984 0.00174798)
(0.102256 -0.000957218 0.0015223)
(0.0999625 -0.00107757 0.0013455)
(0.103826 -0.00105162 0.00163691)
(0.102255 -0.00084384 0.00146828)
(0.0997844 -0.000952377 0.00127586)
(0.103978 -0.000939067 0.00155447)
(0.0996345 -0.000838264 0.00123185)
(0.104127 -0.000834995 0.00149713)
(0.098934 -0.00156022 0.00148448)
(0.0959612 -0.00140303 0.00132237)
(0.100855 -0.00176837 0.00175815)
(0.0984654 -0.00137264 0.0013231)
(0.0951509 -0.00118891 0.0011201)
(0.100608 -0.00156587 0.00156469)
(0.0980492 -0.00121632 0.00120402)
(0.0944307 -0.00102737 0.00097451)
(0.100381 -0.00139678 0.00141142)
(0.0976858 -0.00108404 0.00111943)
(0.0937964 -0.000901516 0.000868692)
(0.100187 -0.00125523 0.00129171)
(0.0973729 -0.000968202 0.00106175)
(0.0932349 -0.000800172 0.000792283)
(0.100028 -0.00113529 0.00119975)
(0.0927344 -0.000714444 0.000737683)
(0.0999074 -0.00103009 0.00112914)
(0.0926215 -0.000960732 0.000962462)
(0.0844838 -0.000691544 0.000982222)
(0.0959618 -0.00132121 0.00140419)
(0.0916004 -0.000775594 0.000778496)
(0.0828855 -0.000550079 0.000843816)
(0.0951519 -0.00111817 0.00119086)
(0.0906991 -0.000641814 0.000646759)
(0.0814569 -0.000457977 0.000742236)
(0.0944324 -0.000971285 0.00103064)
(0.0898984 -0.000540839 0.000548969)
(0.0801663 -0.000396073 0.000658351)
(0.0937992 -0.000863193 0.000906927)
(0.089179 -0.000463301 0.000475718)
(0.0789893 -0.000352385 0.000584209)
(0.0932394 -0.00078331 0.000808815)
(0.0779079 -0.00032284 0.000520248)
(0.0927414 -0.000723677 0.000727886)
(0.0765609 -0.000626229 0.000991097)
(0.0830639 -0.00091418 0.00136934)
(0.0746581 -0.000520083 0.000903411)
(0.0813297 -0.000803209 0.00127481)
(0.0729349 -0.000456179 0.000828075)
(0.0797547 -0.000729197 0.00118787)
(0.071356 -0.000418668 0.000754194)
(0.0783114 -0.000684174 0.0011018)
(0.0699016 -0.000397096 0.000681025)
(0.076979 -0.000658666 0.00101549)
(0.075741 -0.000646094 0.000927781)
(0.089151 0.00111563 0.00165102)
(0.0941484 0.00120533 0.00164149)
(0.0923673 0.00126682 0.00157388)
(0.0878034 0.00103529 0.00154282)
(0.0931663 0.00109841 0.00149942)
(0.0913302 0.00117419 0.00147641)
(0.0865596 0.000976519 0.00142794)
(0.0922621 0.00101836 0.00136606)
(0.0903394 0.00110747 0.00136245)
(0.085404 0.000940704 0.00131347)
(0.0914354 0.000964892 0.00124301)
(0.0894066 0.00106441 0.00124543)
(0.0843194 0.000924386 0.00120043)
(0.0906771 0.000933841 0.00113003)
(0.0885223 0.00104157 0.00112736)
(0.0832914 0.000923428 0.00108255)
(0.089976 0.000920474 0.00102196)
(0.0876713 0.00103529 0.00100759)
(0.0893254 0.000920509 0.000909411)
(0.0868413 0.00104434 0.000880636)
(0.0989341 0.00148446 0.00156021)
(0.100855 0.00175811 0.00176836)
(0.100664 0.00176662 0.00158141)
(0.0984655 0.00132307 0.00137262)
(0.100608 0.00156465 0.00156586)
(0.100407 0.00159195 0.00139153)
(0.0980493 0.00120398 0.0012163)
(0.100381 0.00141137 0.00139676)
(0.10017 0.00144848 0.00122263)
(0.097686 0.00111937 0.001084)
(0.100187 0.00129164 0.00125521)
(0.0999626 0.00134545 0.00107753)
(0.0973731 0.00106165 0.000968124)
(0.100029 0.00119965 0.00113525)
(0.0997846 0.00127578 0.000952315)
(0.0971093 0.00102228 0.000859147)
(0.0999076 0.00112899 0.00103002)
(0.0996347 0.00123172 0.000838157)
(0.0998255 0.00107218 0.000930717)
(0.0995121 0.0012075 0.000725223)
(0.102729 0.00177001 0.0017687)
(0.103526 0.00169624 0.00195858)
(0.103525 0.00195953 0.00169564)
(0.102751 0.00158797 0.00158581)
(0.103747 0.0015176 0.00178422)
(0.103746 0.00178576 0.00151661)
(0.102772 0.00143587 0.00143236)
(0.103938 0.00136248 0.00163046)
(0.103938 0.00163294 0.00136088)
(0.102804 0.00130964 0.00130398)
(0.104117 0.0012292 0.0014996)
(0.104116 0.00150365 0.00122661)
(0.102858 0.00120464 0.00119556)
(0.104296 0.00111539 0.0013899)
(0.104293 0.00139644 0.00111122)
(0.102937 0.00111557 0.00110113)
(0.104481 0.00101667 0.00129862)
(0.104478 0.00130924 0.00100996)
(0.10468 0.000927249 0.00122121)
(0.104675 0.0012383 0.000916652)
(0.104607 0.00141582 0.00197928)
(0.104694 0.00103533 0.00206672)
(0.104796 0.00150798 0.00180784)
(0.10501 0.0012735 0.00183639)
(0.105224 0.000933609 0.00194382)
(0.105363 0.00138336 0.00168026)
(0.105371 0.00114383 0.00170676)
(0.105698 0.000837703 0.00182155)
(0.105877 0.00126151 0.00155357)
(0.105705 0.00102879 0.00159584)
(0.10613 0.00075227 0.00171091)
(0.106348 0.00114972 0.00143929)
(0.106025 0.000926223 0.00150446)
(0.106531 0.000676742 0.00161704)
(0.106789 0.0010503 0.00134058)
(0.106338 0.000831528 0.00143149)
(0.106911 0.000607668 0.00154338)
(0.10721 0.000961771 0.00125764)
(0.107281 0.000540519 0.00149011)
(0.107619 0.000881269 0.00118888)
(0.105324 0.000532877 0.00203178)
(0.105006 -4.89199e-07 0.00208075)
(0.105254 0.000557686 0.00180945)
(0.105928 0.000483246 0.00193043)
(0.105641 -7.59024e-07 0.00198331)
(0.105994 0.000515581 0.00172898)
(0.106475 0.000435416 0.00182775)
(0.106214 -1.18576e-06 0.00187837)
(0.106676 0.000471972 0.00163683)
(0.106976 0.000390802 0.00173444)
(0.106735 -1.83978e-06 0.00177848)
(0.107305 0.000430185 0.00154418)
(0.10744 0.00034906 0.0016585)
(0.107214 -2.82335e-06 0.00169265)
(0.107889 0.000391519 0.00145983)
(0.107879 0.000308256 0.00160485)
(0.107662 -4.2513e-06 0.00162807)
(0.108435 0.000355776 0.00139043)
(0.108091 -6.3204e-06 0.00158766)
(0.108956 0.00032121 0.00134008)
(0.105324 -0.000534037 0.00203228)
(0.104693 -0.00103576 0.00206739)
(0.105254 -0.000558257 0.00180978)
(0.105928 -0.000485057 0.00193125)
(0.105223 -0.000934266 0.00194489)
(0.105994 -0.000516457 0.0017295)
(0.106474 -0.000438244 0.0018291)
(0.105696 -0.000838754 0.00182327)
(0.106675 -0.000473324 0.00163766)
(0.106974 -0.000395181 0.00173669)
(0.106127 -0.000753947 0.00171372)
(0.107304 -0.000432259 0.00154552)
(0.107437 -0.000355738 0.00166222)
(0.106527 -0.000679365 0.00162163)
(0.107887 -0.000394664 0.00146198)
(0.107875 -0.000318289 0.00161087)
(0.106906 -0.000611623 0.0015509)
(0.108433 -0.000360464 0.00139387)
(0.108954 -0.000328114 0.00134547)
(0.104606 -0.00141571 0.0019805)
(0.103525 -0.00169565 0.00195957)
(0.104795 -0.00150776 0.00180858)
(0.105008 -0.00127332 0.00183833)
(0.103746 -0.00151662 0.00178582)
(0.105362 -0.00138299 0.00168142)
(0.105368 -0.00114356 0.00170988)
(0.103937 -0.0013609 0.00163301)
(0.105876 -0.00126093 0.0015554)
(0.105701 -0.00102836 0.00160092)
(0.104116 -0.00122663 0.00150374)
(0.106346 -0.0011488 0.00144223)
(0.106019 -0.000925478 0.00151273)
(0.104293 -0.00111125 0.00139655)
(0.106787 -0.00104883 0.00134528)
(0.104478 -0.00101001 0.00130939)
(0.107206 -0.000959387 0.00126523)
(0.102729 -0.0017687 0.00177006)
(0.100856 -0.00175703 0.00176928)
(0.103526 -0.00195859 0.00169629)
(0.102751 -0.00158582 0.00158803)
(0.100609 -0.00156283 0.00156737)
(0.103747 -0.00178423 0.00151766)
(0.102772 -0.00143237 0.00143594)
(0.100383 -0.00140836 0.00139927)
(0.103938 -0.00163047 0.00136256)
(0.102804 -0.001304 0.00130973)
(0.10019 -0.00128671 0.00125923)
(0.104117 -0.00149962 0.0012293)
(0.102858 -0.00119559 0.00120477)
(0.100034 -0.00119162 0.00114177)
(0.104296 -0.00138991 0.00111552)
(0.0999154 -0.00111589 0.0010408)
(0.104481 -0.00129865 0.00101683)
(0.0989357 -0.00148309 0.00156133)
(0.0941503 -0.00120455 0.00164216)
(0.100665 -0.00176571 0.00158166)
(0.0984683 -0.00132078 0.00137452)
(0.0931695 -0.00109714 0.00150055)
(0.10041 -0.00159048 0.00139197)
(0.098054 -0.00120017 0.00121939)
(0.0922673 -0.00101624 0.00136798)
(0.100174 -0.00144605 0.0012234)
(0.0976936 -0.00111299 0.00108901)
(0.0914441 -0.0009613 0.00124611)
(0.0999693 -0.00134132 0.00107884)
(0.0973852 -0.00105101 0.000976532)
(0.0906914 -0.000927623 0.00113506)
(0.0997956 -0.0012688 0.000954578)
(0.0899993 -0.000909715 0.00103024)
(0.0996524 -0.00121983 0.000842306)
(0.0891541 -0.00111498 0.00165175)
(0.0923698 -0.00126642 0.00157367)
(0.0878086 -0.00103421 0.00154406)
(0.0913344 -0.00117351 0.00147611)
(0.0865683 -0.000974741 0.00143002)
(0.0903463 -0.00110626 0.00136208)
(0.0854184 -0.000937672 0.00131692)
(0.0894181 -0.00106235 0.00124495)
(0.0843431 -0.000919103 0.00120599)
(0.0885415 -0.00103789 0.00112675)
(0.0877033 -0.00102892 0.00100672)
(0.094869 0.00133046 0.00134984)
(0.0985092 0.00151679 0.00139047)
(0.0959894 0.00138061 0.000915054)
(0.0942314 0.00126128 0.00128712)
(0.0981746 0.00142255 0.00129545)
(0.0955181 0.00128105 0.000899438)
(0.0935994 0.00121773 0.0011997)
(0.0978256 0.00134823 0.00118766)
(0.0950586 0.00122143 0.000864263)
(0.0929745 0.00119211 0.00109558)
(0.0974843 0.00129847 0.00107577)
(0.094595 0.00119192 0.000802493)
(0.0923518 0.0011827 0.000983109)
(0.0971514 0.00127006 0.000964704)
(0.0941241 0.00118439 0.000728034)
(0.0917221 0.00118943 0.00086473)
(0.09682 0.00126033 0.000853757)
(0.0936361 0.00119263 0.000649752)
(0.0964832 0.00127112 0.00073889)
(0.0931132 0.00121901 0.000567623)
(0.102274 0.00188679 0.00137899)
(0.103285 0.00204999 0.00147763)
(0.102839 0.0020066 0.00101639)
(0.102269 0.00173316 0.00122477)
(0.10349 0.00189123 0.00132448)
(0.102962 0.00187222 0.000914992)
(0.102262 0.00160812 0.00108233)
(0.103666 0.00174792 0.00117981)
(0.103063 0.00174783 0.000819197)
(0.102256 0.00152223 0.000957153)
(0.103826 0.00163683 0.00105158)
(0.103152 0.00164991 0.000730692)
(0.102255 0.00146817 0.000843747)
(0.103978 0.00155436 0.000939002)
(0.103237 0.00157821 0.00064916)
(0.102258 0.00144123 0.000733602)
(0.104127 0.00149697 0.000834904)
(0.103317 0.00153845 0.000571002)
(0.104277 0.0014627 0.000733093)
(0.103386 0.00153123 0.000492322)
(0.104606 0.00198045 0.0014157)
(0.104795 0.00180852 0.00150775)
(0.104693 0.00206734 0.00103575)
(0.105008 0.00183826 0.0012733)
(0.105362 0.00168135 0.00138298)
(0.105223 0.00194483 0.000934247)
(0.105368 0.0017098 0.00114353)
(0.105876 0.00155532 0.00126091)
(0.105697 0.00182319 0.000838727)
(0.105701 0.00160081 0.00102831)
(0.106346 0.00144212 0.00114877)
(0.106127 0.00171362 0.000753907)
(0.106019 0.00151259 0.000925419)
(0.106787 0.00134514 0.00104879)
(0.106527 0.0016215 0.000679307)
(0.106329 0.00144486 0.000830193)
(0.107207 0.00126506 0.000959326)
(0.106906 0.00155074 0.000611546)
(0.107613 0.00120081 0.000877467)
(0.107273 0.00150216 0.000546369)
(0.105582 0.00147587 0.00147538)
(0.105367 0.00104811 0.00151704)
(0.105367 0.00151731 0.00104804)
(0.106268 0.00137342 0.00137262)
(0.106149 0.000980582 0.0014351)
(0.106149 0.00143555 0.000980442)
(0.106898 0.00127077 0.00126948)
(0.106875 0.000908589 0.00134429)
(0.106875 0.00134502 0.000908344)
(0.107483 0.0011756 0.00117354)
(0.107548 0.000839534 0.0012542)
(0.107548 0.00125538 0.000839111)
(0.108032 0.00109105 0.00108779)
(0.108176 0.000776947 0.00117066)
(0.108176 0.00117255 0.00077623)
(0.108554 0.00101758 0.00101251)
(0.108767 0.000721766 0.00109676)
(0.108767 0.00109973 0.000720571)
(0.109331 0.000673279 0.00103412)
(0.109331 0.00103868 0.000671363)
(0.105942 0.000540224 0.00147681)
(0.105515 -1.24258e-07 0.00150861)
(0.105594 0.000551576 0.00103289)
(0.106765 0.000504534 0.00140729)
(0.106366 -1.80479e-07 0.0014453)
(0.106494 0.000523406 0.00098937)
(0.107534 0.000467349 0.00132991)
(0.107163 -2.59058e-07 0.00136975)
(0.107343 0.000491021 0.000937587)
(0.108252 0.000431894 0.00125249)
(0.107905 -3.638e-07 0.00129079)
(0.10814 0.000458225 0.000883611)
(0.108924 0.000399627 0.001181)
(0.108598 -4.97633e-07 0.00121531)
(0.108887 0.000427337 0.000831946)
(0.109558 0.000370561 0.00111996)
(0.109249 -6.6005e-07 0.00114841)
(0.109589 0.000399486 0.000785791)
(0.109866 -8.56037e-07 0.0010941)
(0.110255 0.000374834 0.000747503)
(0.105941 -0.000540485 0.0014771)
(0.105367 -0.00104805 0.00151738)
(0.105594 -0.000551703 0.00103302)
(0.106765 -0.000504911 0.00140775)
(0.106149 -0.000980457 0.00143563)
(0.106494 -0.000523582 0.000989575)
(0.107534 -0.000467884 0.00133063)
(0.106875 -0.000908366 0.00134512)
(0.107343 -0.000491263 0.0009379)
(0.108251 -0.000432635 0.00125361)
(0.107548 -0.000839142 0.00125551)
(0.10814 -0.000458555 0.000884087)
(0.108923 -0.000400628 0.00118271)
(0.108175 -0.000776273 0.0011727)
(0.108886 -0.000427776 0.000832661)
(0.109557 -0.000371886 0.00112254)
(0.108767 -0.000720632 0.0010999)
(0.109589 -0.000400061 0.000786846)
(0.110255 -0.000375593 0.000749022)
(0.105582 -0.00147539 0.00147594)
(0.104796 -0.00180785 0.00150804)
(0.105367 -0.00151705 0.00104818)
(0.106267 -0.00137264 0.00137351)
(0.105363 -0.00168027 0.00138344)
(0.106149 -0.00143511 0.000980671)
(0.106898 -0.0012695 0.00127088)
(0.105877 -0.00155358 0.0012616)
(0.106875 -0.0013443 0.000908698)
(0.107482 -0.00117357 0.00117574)
(0.106348 -0.00143931 0.00114984)
(0.107548 -0.00125422 0.000839668)
(0.108032 -0.00108784 0.00109122)
(0.106789 -0.0013406 0.00105045)
(0.108176 -0.00117069 0.000777111)
(0.10721 -0.00125767 0.000961953)
(0.108767 -0.00109681 0.000721964)
(0.104607 -0.00197928 0.00141589)
(0.103287 -0.0020491 0.00147747)
(0.104694 -0.00206672 0.0010354)
(0.10501 -0.0018364 0.00127359)
(0.103492 -0.00188983 0.00132424)
(0.105224 -0.00194382 0.000933698)
(0.105371 -0.00170676 0.00114394)
(0.10367 -0.0017456 0.00117935)
(0.105698 -0.00182156 0.000837814)
(0.105705 -0.00159585 0.00102892)
(0.103831 -0.00163283 0.00105079)
(0.10613 -0.00171092 0.000752408)
(0.106025 -0.00150447 0.000926389)
(0.103987 -0.00154764 0.000937724)
(0.106531 -0.00161704 0.000676912)
(0.104142 -0.00148577 0.000833196)
(0.106911 -0.00154338 0.000607876)
(0.102276 -0.00188578 0.00137844)
(0.0985114 -0.00151629 0.00138968)
(0.10284 -0.00200604 0.00101534)
(0.102273 -0.00173155 0.00122386)
(0.0981782 -0.00142174 0.00129421)
(0.102964 -0.00187134 0.00091329)
(0.102268 -0.00160536 0.00108081)
(0.0978315 -0.00134683 0.00118567)
(0.103066 -0.00174638 0.000816303)
(0.102266 -0.00151743 0.000954726)
(0.0974942 -0.00129605 0.00107266)
(0.103157 -0.00164742 0.000725901)
(0.102271 -0.00145985 0.000840167)
(0.097168 -0.00126567 0.000959775)
(0.103246 -0.00157385 0.00064143)
(0.0968478 -0.00125223 0.000845948)
(0.103332 -0.00153073 0.000559094)
(0.0948723 -0.00133003 0.00134841)
(0.0959912 -0.00138034 0.000913323)
(0.094237 -0.00126045 0.00128486)
(0.0955212 -0.00128056 0.000896588)
(0.0936088 -0.00121619 0.00119618)
(0.0950638 -0.00122053 0.000859642)
(0.0929901 -0.0011893 0.00109005)
(0.0946037 -0.00119035 0.000795003)
(0.092378 -0.00117771 0.00097419)
(0.0941387 -0.00118157 0.000715849)
(0.093661 -0.00118759 0.000629642)
(0.0966695 0.00133084 0.000436591)
(0.0999365 0.00157385 0.000484528)
(0.0968278 0.00138953 1.20217e-06)
(0.0963854 0.00123758 0.000427591)
(0.0998941 0.00148365 0.000460232)
(0.0965247 0.00127184 1.98181e-06)
(0.096113 0.00119095 0.000411702)
(0.0998577 0.00142252 0.000435621)
(0.096265 0.00120279 3.2699e-06)
(0.095823 0.00118038 0.000385581)
(0.0997973 0.00138663 0.000404274)
(0.0959816 0.00117825 5.4077e-06)
(0.0954991 0.00119159 0.000351978)
(0.0997172 0.00136662 0.000367295)
(0.0956726 0.00118107 8.96308e-06)
(0.095127 0.00122042 0.000315012)
(0.0996112 0.00136604 0.000328086)
(0.0953309 0.00119948 1.49501e-05)
(0.0994629 0.00139236 0.000288312)
(0.0949343 0.00123622 2.52576e-05)
(0.103551 0.00199344 0.000526053)
(0.104183 0.00210797 0.000555317)
(0.103426 0.0020468 9.00353e-07)
(0.103782 0.00188898 0.000481556)
(0.104618 0.00199673 0.000507508)
(0.103676 0.00193963 1.45271e-06)
(0.103985 0.00179192 0.000437424)
(0.105004 0.00188752 0.00046145)
(0.103892 0.00183759 2.39132e-06)
(0.10417 0.00170805 0.000392209)
(0.105353 0.00178909 0.000416333)
(0.104084 0.00174506 3.90745e-06)
(0.104341 0.00165062 0.000347794)
(0.105676 0.00170935 0.000372983)
(0.104263 0.00166904 6.35285e-06)
(0.104491 0.00163091 0.000304651)
(0.105975 0.00166094 0.00033237)
(0.104428 0.00162855 1.00845e-05)
(0.106252 0.00164492 0.000292344)
(0.104567 0.00162669 1.60121e-05)
(0.105324 0.00203223 0.000534018)
(0.105254 0.00180972 0.000558243)
(0.105006 0.0020807 4.71598e-07)
(0.105928 0.00193118 0.000485029)
(0.105994 0.00172943 0.000516436)
(0.105641 0.00198325 7.34325e-07)
(0.106474 0.00182901 0.000438204)
(0.106675 0.00163758 0.000473295)
(0.106214 0.00187829 1.15141e-06)
(0.106974 0.00173657 0.000395125)
(0.107304 0.00154541 0.000432218)
(0.106735 0.00177838 1.79225e-06)
(0.107437 0.00166206 0.000355663)
(0.107887 0.00146185 0.000394606)
(0.107214 0.00169252 2.75837e-06)
(0.107875 0.00161069 0.000318195)
(0.108433 0.0013937 0.000360386)
(0.107662 0.0016279 4.16569e-06)
(0.108954 0.00134527 0.000328017)
(0.108092 0.00158746 6.21508e-06)
(0.105941 0.00147703 0.000540471)
(0.105594 0.00103295 0.000551694)
(0.105515 0.00150855 1.12282e-07)
(0.106765 0.00140767 0.000504889)
(0.106494 0.000989489 0.000523568)
(0.106366 0.00144522 1.63041e-07)
(0.107534 0.00133052 0.000467854)
(0.107343 0.000937795 0.000491243)
(0.107163 0.00136965 2.34196e-07)
(0.108252 0.00125348 0.000432592)
(0.10814 0.000883959 0.000458526)
(0.107905 0.00129067 3.28875e-07)
(0.108923 0.00118255 0.000400569)
(0.108886 0.000832507 0.000427735)
(0.108598 0.00121517 4.49333e-07)
(0.109557 0.00112235 0.000371805)
(0.109589 0.000786661 0.000400004)
(0.109249 0.00114824 5.94797e-07)
(0.110255 0.000748803 0.000375514)
(0.109866 0.0010939 7.69902e-07)
(0.106152 0.000534705 0.000534735)
(0.105676 -2.45693e-08 0.000545901)
(0.105676 0.00054583 1.92709e-08)
(0.107078 0.000509989 0.000510014)
(0.106625 -2.76046e-08 0.000523622)
(0.106625 0.000523535 1.88772e-08)
(0.107955 0.000482113 0.000482125)
(0.107528 -2.93893e-08 0.000496483)
(0.107528 0.000496377 1.59044e-08)
(0.108782 0.000453973 0.000453964)
(0.108381 -2.92704e-08 0.000467878)
(0.108381 0.000467751 9.19519e-09)
(0.109561 0.000427568 0.000427531)
(0.109183 -2.7251e-08 0.000440208)
(0.109183 0.000440055 -1.88392e-09)
(0.110297 0.0004042 0.00040414)
(0.109939 -2.54409e-08 0.00041507)
(0.109939 0.000414888 -1.60233e-08)
(0.110654 -3.30465e-08 0.000393484)
(0.110654 0.000393268 -2.53153e-08)
(0.106152 -0.000534743 0.000534787)
(0.105594 -0.00103289 0.000551652)
(0.105676 -0.000545903 5.17437e-08)
(0.107078 -0.000510026 0.000510091)
(0.106494 -0.000989379 0.0005235)
(0.106625 -0.000523627 6.64095e-08)
(0.107955 -0.000482143 0.000482236)
(0.107343 -0.000937601 0.000491136)
(0.107528 -0.000496491 8.57123e-08)
(0.108782 -0.000453991 0.000454122)
(0.10814 -0.000883631 0.000458366)
(0.108381 -0.000467892 1.11004e-07)
(0.109561 -0.000427571 0.000427748)
(0.108887 -0.000831977 0.000427508)
(0.109183 -0.000440229 1.42996e-07)
(0.110296 -0.000404197 0.000404414)
(0.109589 -0.000785835 0.000399691)
(0.109939 -0.000415102 1.80872e-07)