/*--------------------------------*- C++ -*----------------------------------*\
| =========                 |                                                 |
| \\      /  F ield         | OpenFOAM: The Open Source CFD Toolbox           |
|  \\    /   O peration     | Version:  2212                                  |
|   \\  /    A nd           | Website:  www.openfoam.com                      |
|    \\/     M anipulation  |                                                 |
\*---------------------------------------------------------------------------*/
FoamFile
{
    version     2.0;
    format      ascii;
    arch        "LSB;label=32;scalar=64";
    class       surfaceVectorField;
    location    "1.6";
    object      Uf;
}
// * * * * * * * * * * * * * * * * * * * * * * * * * * * * * * * * * * * * * //

dimensions      [0 1 -1 0 0 0 0];

internalField   nonuniform List<vector> 
1826
(
(0.0243772 -1.28087e-08 4.43042e-05)
(0.0311561 -9.11682e-05 8.93288e-05)
(0.0301055 2.19624e-05 3.55826e-05)
(0.0240954 1.49664e-06 4.62662e-05)
(0.0308127 -8.42351e-05 8.9191e-05)
(0.029775 2.10149e-05 3.8453e-05)
(0.0238177 4.07974e-06 4.89638e-05)
(0.0304768 -7.84013e-05 9.21465e-05)
(0.0294523 2.38754e-05 4.13048e-05)
(0.0235412 6.16815e-06 5.21774e-05)
(0.0301419 -7.39376e-05 9.61059e-05)
(0.029131 2.7494e-05 4.48243e-05)
(0.0232613 7.66695e-06 5.46564e-05)
(0.0298041 -7.13444e-05 9.98128e-05)
(0.0288071 3.04397e-05 4.94407e-05)
(0.0294721 -6.86255e-05 0.000101686)
(0.0284896 3.55741e-05 5.09706e-05)
(0.0409024 -0.000206429 0.000137039)
(0.0481281 -0.000399745 0.000131643)
(0.0544077 -0.000143882 0.000128058)
(0.0404739 -0.000193759 0.00013919)
(0.0476293 -0.000371808 0.000131983)
(0.0539673 -0.00014481 0.000136346)
(0.0400505 -0.000184076 0.000142741)
(0.0471386 -0.000351446 0.000133754)
(0.0535294 -0.000143487 0.000145116)
(0.0396284 -0.000178102 0.000147069)
(0.0466504 -0.000337194 0.000137309)
(0.0530834 -0.000142407 0.000154147)
(0.0392013 -0.000174164 0.000151021)
(0.0461627 -0.000328455 0.000141275)
(0.0526364 -0.000143995 0.000165098)
(0.0456818 -0.000323732 0.000146364)
(0.052189 -0.000137671 0.000169152)
(0.0565668 -0.000595345 9.57747e-05)
(0.0613248 -0.000814985 5.04882e-05)
(0.0726515 -0.000632408 0.000122727)
(0.0559869 -0.000558767 9.9485e-05)
(0.0606757 -0.000779337 6.05434e-05)
(0.0722377 -0.000608685 0.000130941)
(0.0554142 -0.00053394 0.000105296)
(0.0600299 -0.000752499 7.00955e-05)
(0.0718193 -0.000589558 0.000139718)
(0.0548478 -0.000516647 0.000110671)
(0.0594014 -0.000730733 7.65212e-05)
(0.0713979 -0.00057697 0.000149584)
(0.0542825 -0.000507 0.000117125)
(0.0587721 -0.000714675 8.12322e-05)
(0.0709703 -0.000572402 0.000161519)
(0.0581608 -0.000706495 8.8543e-05)
(0.0705438 -0.000568156 0.000171576)
(0.0660482 -0.00103614 3.91552e-05)
(0.0688735 -0.00115745 3.75204e-06)
(0.0823006 -0.00107194 3.81507e-05)
(0.0653214 -0.00100851 4.80913e-05)
(0.0681171 -0.00112814 3.64278e-06)
(0.0818502 -0.00104979 5.09242e-05)
(0.0646107 -0.000983457 5.4288e-05)
(0.0673699 -0.00109988 4.76249e-06)
(0.0813987 -0.00103124 6.23652e-05)
(0.0639136 -0.000961893 5.75105e-05)
(0.0666439 -0.00107393 5.71933e-06)
(0.0809584 -0.00101457 7.19092e-05)
(0.0632257 -0.000946057 6.0157e-05)
(0.0659197 -0.00105206 4.79679e-06)
(0.0805112 -0.00100533 8.08499e-05)
(0.0652185 -0.00103719 5.02657e-06)
(0.0800782 -0.00100031 9.06068e-05)
(0.0711211 -0.00126118 -1.35092e-05)
(0.0716929 -0.00127219 -2.73316e-05)
(0.0869727 -0.00131888 1.57292e-05)
(0.0703413 -0.00123184 -1.85362e-05)
(0.070926 -0.00124192 -3.18812e-05)
(0.0865053 -0.00129793 2.01988e-05)
(0.0695754 -0.00120301 -2.05598e-05)
(0.070177 -0.00121036 -3.27015e-05)
(0.0860445 -0.00127623 2.51154e-05)
(0.0688224 -0.00117697 -2.19904e-05)
(0.0694412 -0.00118017 -3.24556e-05)
(0.085585 -0.00125516 2.99403e-05)
(0.06808 -0.00115604 -2.47599e-05)
(0.0687187 -0.0011539 -3.52442e-05)
(0.0851302 -0.00123905 3.33239e-05)
(0.068012 -0.00113416 -4.29486e-05)
(0.0846813 -0.00122559 3.43048e-05)
(0.0715044 -0.00125313 -4.2545e-05)
(0.0700229 -0.00116637 -6.99295e-05)
(0.0873037 -0.00131634 9.78269e-06)
(0.0707684 -0.00122046 -4.46514e-05)
(0.0693244 -0.00113526 -7.19423e-05)
(0.0868745 -0.00129024 1.30515e-05)
(0.0700477 -0.00118713 -4.74887e-05)
(0.068648 -0.00110039 -7.74228e-05)
(0.0864538 -0.00126828 1.5381e-05)
(0.0693433 -0.00115633 -5.26522e-05)
(0.0679772 -0.00106503 -8.63981e-05)
(0.0860382 -0.0012493 1.58121e-05)
(0.0686528 -0.00113104 -6.23676e-05)
(0.0673249 -0.00103368 -9.69485e-05)
(0.0856291 -0.00123312 1.35622e-05)
(0.0666837 -0.00101196 -0.000112596)
(0.0852277 -0.00121708 7.9937e-06)
(0.0678871 -0.00105088 -0.000103982)
(0.0646226 -0.000876638 -0.000121311)
(0.0841409 -0.00110743 -3.93685e-05)
(0.0672458 -0.00101765 -0.000112173)
(0.0640179 -0.000840654 -0.000126058)
(0.0837747 -0.00108449 -4.68733e-05)
(0.0666159 -0.00098079 -0.000124017)
(0.0634464 -0.000784375 -0.000130023)
(0.0834198 -0.00105815 -5.60755e-05)
(0.0659971 -0.000944906 -0.000137103)
(0.062868 -0.000732933 -0.000137267)
(0.0830653 -0.00103226 -6.61478e-05)
(0.0653859 -0.000917109 -0.0001517)
(0.062312 -0.000697643 -0.000145394)
(0.0827168 -0.00101307 -7.675e-05)
(0.061755 -0.000677959 -0.000156069)
(0.0823729 -0.000993736 -8.66757e-05)
(0.0609979 -0.000680943 -0.000153649)
(0.0561162 -0.000490623 -0.000146617)
(0.0780477 -0.000747576 -0.000132044)
(0.0604565 -0.000621669 -0.000145998)
(0.0556023 -0.0004654 -0.000141782)
(0.0777276 -0.000722625 -0.000137888)
(0.0599317 -0.000550997 -0.000138537)
(0.0551177 -0.000424993 -0.000134083)
(0.0774214 -0.000684598 -0.000142052)
(0.0594166 -0.000500048 -0.000136612)
(0.054614 -0.000391162 -0.000128671)
(0.0771083 -0.000655097 -0.000149888)
(0.058899 -0.00047246 -0.000138224)
(0.0541274 -0.000373165 -0.000125256)
(0.0768019 -0.000644427 -0.000161274)
(0.053632 -0.000364438 -0.000121421)
(0.0764893 -0.000630969 -0.000166706)
(0.0513463 -0.000303664 -0.000151583)
(0.0443226 -0.000193305 -0.00012251)
(0.0684808 -0.000382603 -0.000224158)
(0.0508802 -0.000293669 -0.000144838)
(0.0438874 -0.000187636 -0.000114664)
(0.0681334 -0.000381853 -0.000228705)
(0.0504135 -0.000285619 -0.000137437)
(0.0434718 -0.000182389 -0.000101954)
(0.0677943 -0.000385466 -0.000232963)
(0.0499425 -0.000281794 -0.000131202)
(0.0430417 -0.00017956 -9.13823e-05)
(0.0674273 -0.000391898 -0.000237762)
(0.0494598 -0.000281416 -0.000124891)
(0.0426155 -0.00018191 -8.48946e-05)
(0.0670603 -0.00040583 -0.000245379)
(0.0421891 -0.000182975 -7.61902e-05)
(0.0666792 -0.000407998 -0.000241627)
(0.0382893 -6.87072e-05 -1.38519e-05)
(0.0301069 -3.71697e-05 2.52787e-05)
(0.0529482 -0.000104446 -9.05971e-05)
(0.0378952 -7.02965e-05 -9.36949e-06)
(0.0297754 -3.95049e-05 2.43206e-05)
(0.0525168 -0.000110888 -9.3796e-05)
(0.0375057 -7.2471e-05 -1.90755e-06)
(0.0294563 -4.29531e-05 2.66577e-05)
(0.0521041 -0.000121315 -9.48151e-05)
(0.037119 -7.65898e-05 4.71495e-06)
(0.0291345 -4.62961e-05 3.00916e-05)
(0.0516757 -0.000130488 -9.26758e-05)
(0.0367239 -8.02932e-05 1.25322e-05)
(0.0288102 -5.08444e-05 3.25443e-05)
(0.0512472 -0.000143777 -9.31751e-05)
(0.0284918 -5.21987e-05 3.76302e-05)
(0.0508183 -0.000146644 -8.3273e-05)
(0.0243788 -4.61121e-05 1.66862e-06)
(0.0311622 -9.20556e-05 -8.95977e-05)
(0.0241005 -4.80211e-05 3.06017e-06)
(0.0308184 -9.14517e-05 -8.23054e-05)
(0.0238227 -5.07569e-05 5.46748e-06)
(0.0304863 -9.49092e-05 -7.7111e-05)
(0.0235466 -5.38136e-05 7.30906e-06)
(0.030151 -9.86216e-05 -7.26011e-05)
(0.0232663 -5.62107e-05 8.47344e-06)
(0.029813 -0.000102072 -7.03281e-05)
(0.0294809 -0.000103808 -6.78144e-05)
(0.0382911 -1.87596e-05 6.76342e-05)
(0.0529436 -9.48047e-05 0.000101431)
(0.0443236 -0.000127015 0.000191232)
(0.0378943 -1.37655e-05 6.90553e-05)
(0.0525212 -9.91106e-05 0.000109426)
(0.0438961 -0.00011895 0.000186155)
(0.0375054 -5.65331e-06 7.07458e-05)
(0.0521017 -9.86609e-05 0.000117702)
(0.0434747 -0.000105458 0.000180423)
(0.0371185 1.44455e-06 7.49359e-05)
(0.0516746 -9.67102e-05 0.00012763)
(0.0430462 -9.46636e-05 0.000177831)
(0.036725 9.47613e-06 7.87986e-05)
(0.051247 -9.6298e-05 0.000140758)
(0.0426215 -8.69223e-05 0.000179766)
(0.0508197 -8.64484e-05 0.000143783)
(0.0421978 -7.82322e-05 0.000181304)
(0.0709181 -0.000213108 0.000188655)
(0.0804291 -0.000487214 0.000233595)
(0.0790999 -0.00032378 0.000356978)
(0.0704616 -0.00022243 0.000202582)
(0.0800868 -0.000489636 0.000245155)
(0.0787692 -0.000332414 0.000367365)
(0.0699965 -0.000227642 0.000216404)
(0.0797331 -0.000488444 0.000256202)
(0.0784261 -0.000338388 0.000377184)
(0.0695238 -0.000231125 0.000231561)
(0.0793635 -0.00048674 0.000266784)
(0.0780674 -0.000343672 0.000391515)
(0.069038 -0.000228466 0.000242567)
(0.0789857 -0.000490314 0.000283095)
(0.0776958 -0.000352498 0.000412913)
(0.0786002 -0.000483177 0.000292358)
(0.0773153 -0.000347907 0.000417414)
(0.0910937 -0.000772587 0.000199837)
(0.0955564 -0.000978227 0.000115798)
(0.0980627 -0.000843275 0.000374738)
(0.0908677 -0.000764748 0.000212696)
(0.0953774 -0.000969941 0.000132117)
(0.0980128 -0.000843107 0.000387905)
(0.0906273 -0.000757563 0.000225586)
(0.0951882 -0.000960125 0.000147665)
(0.0979453 -0.000842174 0.000399753)
(0.0903723 -0.000757477 0.000242456)
(0.0949872 -0.000953409 0.00016406)
(0.0978717 -0.000845115 0.0004143)
(0.0901024 -0.000757005 0.000258123)
(0.0947727 -0.000955409 0.00018336)
(0.0977773 -0.000856795 0.000436017)
(0.0945532 -0.000951567 0.000197774)
(0.0976835 -0.000858591 0.000447495)
(0.100274 -0.00120328 7.16144e-05)
(0.102241 -0.00133162 5.87508e-05)
(0.106649 -0.0012403 0.000179366)
(0.100137 -0.00119204 8.74763e-05)
(0.102118 -0.00132084 7.51191e-05)
(0.10669 -0.00123535 0.000194147)
(0.0999897 -0.00118154 0.000102602)
(0.10199 -0.00131007 8.85578e-05)
(0.106728 -0.0012333 0.000210761)
(0.0998359 -0.00117587 0.000118222)
(0.101852 -0.00129848 0.000100877)
(0.106756 -0.00123164 0.000227373)
(0.0996757 -0.00117394 0.000134322)
(0.101709 -0.00129331 0.000113425)
(0.10678 -0.00123911 0.000247847)
(0.101562 -0.00128506 0.000123895)
(0.106796 -0.00124187 0.000264724)
(0.10419 -0.00145564 6.0267e-05)
(0.10435 -0.00145418 5.76309e-05)
(0.110341 -0.00147741 0.000106783)
(0.104077 -0.00144563 7.59985e-05)
(0.104256 -0.0014405 7.10249e-05)
(0.110406 -0.00147228 0.000123021)
(0.103957 -0.00143407 8.86862e-05)
(0.104159 -0.00143311 8.16372e-05)
(0.110466 -0.00146551 0.000136549)
(0.103832 -0.00142302 9.89152e-05)
(0.104053 -0.00142641 8.97188e-05)
(0.110522 -0.0014581 0.000148031)
(0.103702 -0.00141137 0.000106348)
(0.103945 -0.00142044 9.57375e-05)
(0.110577 -0.00145489 0.000159121)
(0.103833 -0.00140693 9.88678e-05)
(0.11063 -0.00144738 0.000168001)
(0.104419 -0.00143895 6.90821e-05)
(0.103188 -0.00133455 4.26422e-05)
(0.11072 -0.00147446 4.651e-05)
(0.104339 -0.00142787 7.72382e-05)
(0.103126 -0.0013195 4.29133e-05)
(0.110806 -0.00146215 5.52317e-05)
(0.104256 -0.00142541 8.31993e-05)
(0.10306 -0.00131015 4.28967e-05)
(0.11089 -0.00145737 6.23733e-05)
(0.104169 -0.00142387 8.69805e-05)
(0.102994 -0.00130375 4.16477e-05)
(0.110974 -0.00145701 6.75191e-05)
(0.104077 -0.00141614 8.95802e-05)
(0.102921 -0.00130071 3.85208e-05)
(0.111057 -0.0014568 7.13004e-05)
(0.102848 -0.00128229 4.00733e-05)
(0.111139 -0.00144452 7.58339e-05)
(0.101916 -0.00121703 1.53595e-05)
(0.0994506 -0.00103809 -5.00087e-05)
(0.10864 -0.0012689 -6.83312e-05)
(0.101868 -0.00120374 6.58878e-06)
(0.0994035 -0.00102748 -6.3103e-05)
(0.108749 -0.00125852 -7.59261e-05)
(0.101819 -0.00119054 -7.06703e-07)
(0.0993461 -0.00101789 -7.49193e-05)
(0.108855 -0.00124757 -8.23048e-05)
(0.101766 -0.00118269 -7.94291e-06)
(0.0992892 -0.0010111 -8.50842e-05)
(0.108967 -0.00123766 -8.77994e-05)
(0.101712 -0.00116901 -1.2834e-05)
(0.0992206 -0.00101532 -9.91939e-05)
(0.109074 -0.00123469 -9.51928e-05)
(0.0991511 -0.000996198 -0.000104069)
(0.109187 -0.00121905 -9.81249e-05)
(0.0970662 -0.000858487 -0.000128882)
(0.0925019 -0.000684774 -0.000220051)
(0.104392 -0.000925592 -0.00028955)
(0.097012 -0.000851577 -0.000146551)
(0.0923747 -0.000685403 -0.000239292)
(0.104496 -0.000914695 -0.000303832)
(0.096947 -0.000848515 -0.000165096)
(0.0922372 -0.000690356 -0.00026109)
(0.104588 -0.000905669 -0.000319504)
(0.0968722 -0.0008538 -0.00018544)
(0.092083 -0.000699084 -0.000283023)
(0.104682 -0.00090539 -0.000339047)
(0.0967898 -0.0008523 -0.000199841)
(0.091916 -0.00071992 -0.000306771)
(0.104764 -0.000917748 -0.000362347)
(0.0917366 -0.000714862 -0.000310777)
(0.104846 -0.000909594 -0.00037133)
(0.0882279 -0.000529784 -0.000334411)
(0.079103 -0.000361098 -0.000319731)
(0.0965367 -0.00058212 -0.000567769)
(0.0880257 -0.000540043 -0.000350239)
(0.0787609 -0.000369364 -0.000326545)
(0.0964993 -0.000591143 -0.000581949)
(0.0878066 -0.000554295 -0.000366554)
(0.0784257 -0.000382117 -0.000333447)
(0.0964464 -0.000602697 -0.000596339)
(0.0875679 -0.000576626 -0.000385813)
(0.0780613 -0.000395233 -0.000338773)
(0.0963798 -0.000618033 -0.000611643)
(0.087308 -0.000592589 -0.000396706)
(0.0776918 -0.000417261 -0.000349408)
(0.096298 -0.000645265 -0.000633122)
(0.0773081 -0.000421415 -0.00034443)
(0.0962061 -0.000654818 -0.000636964)
(0.0709188 -0.000192676 -0.000208688)
(0.0544189 -0.000131644 -0.00014066)
(0.0804327 -0.000237974 -0.000484051)
(0.0704626 -0.000206193 -0.00021734)
(0.0539704 -0.000138788 -0.000140256)
(0.0800815 -0.000247996 -0.000483996)
(0.0699977 -0.000220404 -0.000222893)
(0.0535394 -0.00014916 -0.000140882)
(0.0797338 -0.000261025 -0.000486171)
(0.0695254 -0.000235551 -0.000226877)
(0.0530923 -0.000157564 -0.000139136)
(0.079362 -0.000270675 -0.000483042)
(0.0690378 -0.000246807 -0.000224941)
(0.0526449 -0.000168567 -0.000141326)
(0.0789839 -0.000287883 -0.000488139)
(0.0521968 -0.000172505 -0.000135307)
(0.0785971 -0.000296933 -0.000480891)
(0.0409133 -0.000139702 -0.000204014)
(0.048148 -0.00013361 -0.000397724)
(0.0404886 -0.000142286 -0.000191719)
(0.0476424 -0.000134094 -0.000369544)
(0.0400646 -0.00014628 -0.000182633)
(0.0471586 -0.000137454 -0.000350337)
(0.0396433 -0.000150309 -0.000176694)
(0.0466692 -0.000140498 -0.000335922)
(0.0392161 -0.000154001 -0.000172982)
(0.0461816 -0.000144386 -0.00032754)
(0.0457011 -0.000149097 -0.000322996)
(0.0513566 -0.000155198 0.000300954)
(0.0684846 -0.00022888 0.000379847)
(0.0561193 -0.000150231 0.000488616)
(0.0508907 -0.000148654 0.000291559)
(0.0681471 -0.00023407 0.000380617)
(0.055623 -0.000145086 0.000462886)
(0.0504241 -0.00014114 0.000283914)
(0.067801 -0.000236995 0.000382287)
(0.0551251 -0.000138414 0.000423732)
(0.049954 -0.000133443 0.000279644)
(0.0674403 -0.000241679 0.000389496)
(0.0546331 -0.000131398 0.00038966)
(0.0494756 -0.000126154 0.000279189)
(0.0670717 -0.000247484 0.000402291)
(0.0541413 -0.000124925 0.000370182)
(0.0666953 -0.00024405 0.00040551)
(0.0536539 -0.000122051 0.000362654)
(0.0882354 -0.000340947 0.000528118)
(0.0965469 -0.000572745 0.000579485)
(0.0925128 -0.000224735 0.000680628)
(0.0880335 -0.000355572 0.000536615)
(0.0965102 -0.000587666 0.000589527)
(0.0923855 -0.00024498 0.000683756)
(0.0878164 -0.00037049 0.000549246)
(0.0964548 -0.000599447 0.00059807)
(0.0922481 -0.000264649 0.00068621)
(0.0875796 -0.000389694 0.000572597)
(0.0963937 -0.000614638 0.000614178)
(0.0920979 -0.000286579 0.00069667)
(0.0873213 -0.000400134 0.000588615)
(0.0963064 -0.000635322 0.000641148)
(0.0919272 -0.000308481 0.000713332)
(0.0962182 -0.000638519 0.000650805)
(0.0917522 -0.000314332 0.000712653)
(0.105804 -0.000825813 0.000564674)
(0.109504 -0.000985424 0.000414824)
(0.108949 -0.000635886 0.000722379)
(0.105934 -0.000838531 0.000577831)
(0.10969 -0.000994662 0.000430623)
(0.109146 -0.000652257 0.00072514)
(0.106051 -0.00085095 0.000591833)
(0.109864 -0.00100568 0.000446545)
(0.109336 -0.000666942 0.000729718)
(0.106161 -0.000867532 0.000611579)
(0.110033 -0.00101693 0.000464147)
(0.109524 -0.000682898 0.00073773)
(0.106265 -0.000880174 0.000628777)
(0.110192 -0.00103599 0.000488055)
(0.109702 -0.000705259 0.000758154)
(0.110348 -0.00104292 0.000500138)
(0.10988 -0.000714034 0.000766355)
(0.113682 -0.00117272 0.0003004)
(0.115226 -0.00128049 0.000230179)
(0.116456 -0.000945086 0.000419847)
(0.113917 -0.00117949 0.000316134)
(0.115471 -0.00128225 0.00024344)
(0.116757 -0.000953192 0.000428421)
(0.114146 -0.001189 0.000334609)
(0.115712 -0.0012858 0.000259117)
(0.117056 -0.000965111 0.000440747)
(0.114368 -0.00120263 0.00035652)
(0.115949 -0.00128902 0.000275034)
(0.117349 -0.000977027 0.00045496)
(0.114588 -0.00121653 0.000378151)
(0.116188 -0.00129996 0.000295154)
(0.117645 -0.000994598 0.000474451)
(0.116419 -0.00130491 0.000310796)
(0.117931 -0.00100296 0.000486044)
(0.117086 -0.00139468 0.000169596)
(0.117226 -0.0014005 9.42462e-05)
(0.119808 -0.00114363 0.000219557)
(0.117338 -0.00139314 0.000183559)
(0.117485 -0.00139738 0.000105888)
(0.120132 -0.00114623 0.00022984)
(0.11759 -0.00139004 0.000195826)
(0.117742 -0.00139283 0.000115195)
(0.120453 -0.00114809 0.000239338)
(0.117841 -0.00139009 0.00020822)
(0.118001 -0.00139072 0.000122819)
(0.120776 -0.00115005 0.000248891)
(0.118095 -0.00139169 0.000220981)
(0.118262 -0.00139299 0.000131374)
(0.121102 -0.00115583 0.000260324)
(0.118524 -0.00138686 0.000140733)
(0.121427 -0.00115571 0.000269948)
(0.117627 -0.00140352 3.39828e-05)
(0.1167 -0.00131544 -6.14035e-05)
(0.120485 -0.00115889 1.04368e-05)
(0.117891 -0.0013974 4.16806e-05)
(0.116971 -0.00130793 -5.98028e-05)
(0.120816 -0.00115435 1.59017e-05)
(0.118156 -0.00139394 4.80443e-05)
(0.11724 -0.00130144 -5.75909e-05)
(0.121148 -0.00115233 2.06978e-05)
(0.118424 -0.00139414 5.3272e-05)
(0.117516 -0.00129702 -5.63373e-05)
(0.121484 -0.00115387 2.44687e-05)
(0.118696 -0.00138868 5.91393e-05)
(0.117793 -0.00129612 -5.67856e-05)
(0.121822 -0.00115718 2.79851e-05)
(0.118076 -0.00128622 -5.49692e-05)
(0.122162 -0.00114837 3.27983e-05)
(0.116053 -0.00122113 -0.000157364)
(0.11412 -0.00106136 -0.000308236)
(0.119133 -0.0010058 -0.00023917)
(0.11633 -0.00121326 -0.000162409)
(0.114393 -0.00105122 -0.00031621)
(0.11947 -0.00099975 -0.000243558)
(0.11661 -0.00120584 -0.000166871)
(0.114662 -0.00104384 -0.000325322)
(0.119808 -0.000996082 -0.000247928)
(0.116894 -0.00120036 -0.000172395)
(0.114939 -0.00104419 -0.000339292)
(0.12015 -0.000993662 -0.000253184)
(0.117186 -0.00119503 -0.000177771)
(0.115211 -0.001051 -0.000356508)
(0.120496 -0.000994401 -0.000260641)
(0.115489 -0.00104557 -0.000364134)
(0.120846 -0.000987231 -0.0002646)
(0.112534 -0.000898601 -0.000464456)
(0.108935 -0.000723874 -0.000632321)
(0.115852 -0.000722126 -0.000586696)
(0.1128 -0.00088904 -0.000477163)
(0.109139 -0.000725191 -0.000647787)
(0.116171 -0.000718286 -0.000597226)
(0.113066 -0.000889242 -0.000494946)
(0.109326 -0.00072929 -0.000663918)
(0.116484 -0.00071763 -0.000610098)
(0.11333 -0.000901391 -0.000518511)
(0.109518 -0.000741386 -0.000681789)
(0.116802 -0.000726878 -0.000628295)
(0.113596 -0.000907787 -0.000536625)
(0.109697 -0.000762567 -0.000704465)
(0.117116 -0.000742222 -0.000649842)
(0.109877 -0.000766186 -0.000712727)
(0.117431 -0.00074094 -0.000659269)
(0.10579 -0.000565296 -0.000821261)
(0.0980531 -0.000377003 -0.000840168)
(0.109488 -0.000416215 -0.000982899)
(0.105921 -0.000578719 -0.000834645)
(0.0980053 -0.000389063 -0.000838423)
(0.109679 -0.000431357 -0.000992091)
(0.106041 -0.000593842 -0.000848536)
(0.0979382 -0.000403823 -0.00084093)
(0.10985 -0.000448778 -0.00100444)
(0.106151 -0.000614697 -0.000866154)
(0.0978633 -0.000417738 -0.000843626)
(0.11002 -0.00046596 -0.00101528)
(0.106256 -0.000632773 -0.000879985)
(0.0977714 -0.000440609 -0.000856413)
(0.110182 -0.000491003 -0.00103518)
(0.0976761 -0.000451898 -0.00085773)
(0.110337 -0.000504096 -0.00104363)
(0.0910899 -0.000202252 -0.00076795)
(0.0726654 -0.00012532 -0.000629962)
(0.0955483 -0.000119137 -0.000975957)
(0.0908647 -0.000216748 -0.000762093)
(0.0722444 -0.00013307 -0.000604951)
(0.0953731 -0.000134673 -0.000964661)
(0.0906233 -0.00023083 -0.000756794)
(0.0718321 -0.000144333 -0.000588852)
(0.0951827 -0.000153534 -0.00096142)
(0.0903677 -0.000247087 -0.000756023)
(0.0714086 -0.000153019 -0.000574986)
(0.094981 -0.000167813 -0.00095057)
(0.090097 -0.000263111 -0.000756203)
(0.0709813 -0.000165354 -0.000571481)
(0.0947672 -0.000187956 -0.000954873)
(0.0705546 -0.00017492 -0.000567221)
(0.0945472 -0.000202023 -0.000950574)
(0.0565885 -9.82481e-05 -0.000594103)
(0.0613584 -5.21051e-05 -0.000812652)
(0.0560101 -0.000102506 -0.000557685)
(0.0606964 -6.32495e-05 -0.000778021)
(0.0554376 -0.00010856 -0.000533035)
(0.0600616 -7.26663e-05 -0.000751028)
(0.0548724 -0.000113677 -0.00051593)
(0.0594304 -7.87793e-05 -0.000729681)
(0.0543071 -0.000119678 -0.000506481)
(0.0588017 -8.36632e-05 -0.00071416)
(0.0581909 -9.02695e-05 -0.000706316)
(0.0610127 -0.000157679 0.000679384)
(0.0780577 -0.000136443 0.000744837)
(0.0646372 -0.000127597 0.00087587)
(0.0604722 -0.000148976 0.000619823)
(0.0777465 -0.000141694 0.000720002)
(0.0640468 -0.000129289 0.000838347)
(0.0599491 -0.000140898 0.000549738)
(0.0774331 -0.000145903 0.000683556)
(0.0634634 -0.000131921 0.000782591)
(0.0594363 -0.000137251 0.000497858)
(0.07713 -0.000152726 0.00065342)
(0.062899 -0.000137853 0.000730593)
(0.0589224 -0.000137175 0.000469915)
(0.076816 -0.000160845 0.000638768)
(0.0623359 -0.000145349 0.000694331)
(0.0765115 -0.00016724 0.000630341)
(0.0617876 -0.000152319 0.000673858)
(0.0970807 -0.000133015 0.00085432)
(0.104407 -0.000292315 0.000921129)
(0.0994651 -5.38277e-05 0.00103386)
(0.0970272 -0.000151263 0.000849427)
(0.104503 -0.000308067 0.000912376)
(0.0994126 -6.752e-05 0.00102403)
(0.0969615 -0.000169655 0.000847444)
(0.1046 -0.000324191 0.000905083)
(0.0993607 -7.86383e-05 0.00101539)
(0.0968865 -0.000187399 0.00084891)
(0.104688 -0.000341522 0.000902691)
(0.0993003 -8.96205e-05 0.00100988)
(0.0968059 -0.000200855 0.000847296)
(0.104773 -0.00036226 0.000910299)
(0.0992317 -9.98519e-05 0.0010085)
(0.104853 -0.000375309 0.000910169)
(0.0991627 -0.00010434 0.000993816)
(0.11254 -0.000467546 0.000897622)
(0.11586 -0.000587768 0.000720748)
(0.114125 -0.000310185 0.00105927)
(0.112805 -0.000481742 0.000890514)
(0.116175 -0.000599555 0.000718793)
(0.114393 -0.000320077 0.00105058)
(0.113069 -0.000497676 0.000888185)
(0.116491 -0.00061307 0.000719948)
(0.114664 -0.000330495 0.00104535)
(0.113332 -0.000518911 0.000896358)
(0.116804 -0.00062887 0.000724844)
(0.114935 -0.00034163 0.00104103)
(0.113594 -0.000539918 0.000907852)
(0.117121 -0.000650732 0.000739515)
(0.115211 -0.000358324 0.00104685)
(0.11743 -0.000663306 0.000744334)
(0.115483 -0.000369816 0.00104565)
(0.119721 -0.000731525 0.000557392)
(0.121149 -0.000813725 0.000422215)
(0.121009 -0.000533196 0.000676118)
(0.12009 -0.00074225 0.000562014)
(0.121532 -0.000820173 0.000425502)
(0.121394 -0.000539078 0.00067584)
(0.120458 -0.000755404 0.000569644)
(0.121915 -0.000828786 0.000431693)
(0.121779 -0.000547367 0.000678474)
(0.120826 -0.000771674 0.000581133)
(0.122298 -0.000839479 0.000440624)
(0.122164 -0.000558658 0.000683992)
(0.121197 -0.000785025 0.000590291)
(0.122684 -0.000852904 0.000453473)
(0.122554 -0.000573779 0.000692698)
(0.123068 -0.00085723 0.000459555)
(0.122942 -0.000581764 0.000691994)
(0.123021 -0.000905403 0.000283541)
(0.12323 -0.000913915 0.000133749)
(0.124242 -0.000678588 0.000340749)
(0.123419 -0.00090968 0.00028908)
(0.12363 -0.000913605 0.000137659)
(0.124664 -0.000681159 0.000343279)
(0.123817 -0.000915623 0.000295677)
(0.124031 -0.000916031 0.000141416)
(0.125085 -0.000684845 0.000346701)
(0.124216 -0.000923155 0.000304149)
(0.124434 -0.000920576 0.000145471)
(0.125508 -0.000689768 0.000351199)
(0.124619 -0.000927244 0.000312314)
(0.12484 -0.000926918 0.000150905)
(0.125935 -0.000696816 0.000357632)
(0.125247 -0.000923959 0.000155785)
(0.12636 -0.000697899 0.000360602)
(0.123842 -0.000922428 -9.59303e-06)
(0.123086 -0.000862099 -0.000169739)
(0.125113 -0.000698734 -1.12433e-05)
(0.124247 -0.000920245 -7.11878e-06)
(0.123489 -0.000857939 -0.000169889)
(0.125543 -0.000696291 -9.8767e-06)
(0.124653 -0.000921292 -4.97085e-06)
(0.123892 -0.00085712 -0.000170506)
(0.125974 -0.000695931 -8.66227e-06)
(0.125062 -0.000924672 -2.95947e-06)
(0.124298 -0.000859204 -0.000171861)
(0.126407 -0.000697566 -7.63397e-06)
(0.125475 -0.00092395 -5.6849e-07)
(0.124708 -0.000863383 -0.000174366)
(0.126844 -0.000700802 -6.61531e-06)
(0.12512 -0.000857704 -0.000175061)
(0.127279 -0.00069675 -5.18882e-06)
(0.122739 -0.000798315 -0.00033239)
(0.121006 -0.000676442 -0.000533003)
(0.124097 -0.0006058 -0.000386573)
(0.12314 -0.000795518 -0.000335974)
(0.121392 -0.00067546 -0.000538252)
(0.124521 -0.000603285 -0.000389075)
(0.123544 -0.000795732 -0.000341047)
(0.121777 -0.000677594 -0.000546076)
(0.124945 -0.000602929 -0.000392339)
(0.123951 -0.000798605 -0.000348191)
(0.122163 -0.000683227 -0.000557317)
(0.125371 -0.000604344 -0.000396901)
(0.124363 -0.000797822 -0.000354265)
(0.122553 -0.000692564 -0.000571617)
(0.125802 -0.000607818 -0.000403403)
(0.122943 -0.000691881 -0.000577981)
(0.126233 -0.000604892 -0.000405754)
(0.119715 -0.000557987 -0.000731401)
(0.116445 -0.000421411 -0.000944734)
(0.121142 -0.000422847 -0.000814286)
(0.120084 -0.000561845 -0.000741809)
(0.116749 -0.000429525 -0.000952858)
(0.121526 -0.000425469 -0.00082029)
(0.120452 -0.000569241 -0.000754782)
(0.117045 -0.000441915 -0.000965423)
(0.121907 -0.000431299 -0.000828621)
(0.120821 -0.000581103 -0.000770645)
(0.11734 -0.000455622 -0.000975673)
(0.122291 -0.000440682 -0.000838902)
(0.121194 -0.000590309 -0.000783533)
(0.117636 -0.000475658 -0.000993666)
(0.122677 -0.000453683 -0.000851856)
(0.117924 -0.000487713 -0.00100332)
(0.123062 -0.000459147 -0.000855548)
(0.113669 -0.000302446 -0.00117243)
(0.106635 -0.000181823 -0.00123927)
(0.115213 -0.000231745 -0.00127993)
(0.113903 -0.000318487 -0.00117976)
(0.106683 -0.000196269 -0.0012328)
(0.115459 -0.000244578 -0.00128191)
(0.114132 -0.000336765 -0.00118863)
(0.106716 -0.000214784 -0.0012348)
(0.115698 -0.000260955 -0.00128534)
(0.114355 -0.000358377 -0.00120162)
(0.106745 -0.000229757 -0.00122954)
(0.115936 -0.000276263 -0.0012876)
(0.114575 -0.000380866 -0.0012166)
(0.106771 -0.00025098 -0.00123877)
(0.116174 -0.000296849 -0.0012992)
(0.106787 -0.000268443 -0.0012419)
(0.116406 -0.00031347 -0.00130494)
(0.100266 -7.41336e-05 -0.0012002)
(0.0823151 -3.96598e-05 -0.00106967)
(0.102232 -6.07305e-05 -0.00132972)
(0.100129 -9.11841e-05 -0.00119061)
(0.0818619 -5.34354e-05 -0.00104745)
(0.102114 -7.6459e-05 -0.00131737)
(0.0999821 -0.000106688 -0.0011807)
(0.0814149 -6.55671e-05 -0.0010306)
(0.101983 -9.21716e-05 -0.00130902)
(0.099829 -0.00012173 -0.00117388)
(0.0809734 -7.43711e-05 -0.00101241)
(0.101847 -0.000103497 -0.00129566)
(0.0996692 -0.000138358 -0.00117327)
(0.0805272 -8.39594e-05 -0.00100493)
(0.101704 -0.000117175 -0.00129344)
(0.0800944 -9.31718e-05 -0.000999836)
(0.101557 -0.000127649 -0.00128208)
(0.0660802 -4.0535e-05 -0.00103352)
(0.0689086 -3.83994e-06 -0.00115342)
(0.0653552 -5.01527e-05 -0.00100672)
(0.0681459 -5.59611e-06 -0.00112594)
(0.0646457 -5.60763e-05 -0.000981899)
(0.0674072 -5.69569e-06 -0.00109759)
(0.0639496 -5.96543e-05 -0.000961209)
(0.0666779 -8.0815e-06 -0.00107282)
(0.0632612 -6.19711e-05 -0.000945995)
(0.0659558 -7.53431e-06 -0.00105161)
(0.0652544 -6.96294e-06 -0.00103818)
(0.0679167 -0.000109713 0.00104939)
(0.0841604 -4.50484e-05 0.00110565)
(0.0700555 -7.58238e-05 0.00116364)
(0.0672761 -0.000115519 0.00101555)
(0.083795 -5.11292e-05 0.00108151)
(0.0693606 -7.6308e-05 0.00113246)
(0.0666472 -0.000124941 0.000977983)
(0.0834402 -5.88659e-05 0.00105543)
(0.0686831 -7.98869e-05 0.00109762)
(0.0660304 -0.000136462 0.000941329)
(0.0830869 -6.7769e-05 0.00102917)
(0.0680163 -8.65777e-05 0.00106215)
(0.0654223 -0.00014877 0.00091214)
(0.0827386 -7.72365e-05 0.00100884)
(0.0673624 -9.61943e-05 0.00103033)
(0.0823962 -8.42604e-05 0.000988038)
(0.0667267 -0.000108665 0.00100747)
(0.101925 1.12621e-05 0.00121352)
(0.108646 -7.12552e-05 0.00126603)
(0.103195 3.89294e-05 0.00133181)
(0.101878 2.88556e-06 0.00119991)
(0.108752 -7.93469e-05 0.00125512)
(0.103132 3.91092e-05 0.00131539)
(0.101828 -4.3867e-06 0.00118784)
(0.10886 -8.60777e-05 0.00124534)
(0.103069 3.90857e-05 0.00130664)
(0.101775 -1.09737e-05 0.00117955)
(0.108968 -9.179e-05 0.00123606)
(0.103001 3.7833e-05 0.00129996)
(0.101719 -1.4189e-05 0.00116497)
(0.109076 -9.79827e-05 0.00123099)
(0.102929 3.62215e-05 0.0012971)
(0.109185 -0.000100572 0.00121446)
(0.102854 3.78715e-05 0.00127717)
(0.116052 -0.00015963 0.00121934)
(0.119133 -0.000240199 0.00100507)
(0.116697 -6.31505e-05 0.00131366)
(0.116328 -0.000165996 0.00121256)
(0.119468 -0.000245617 0.00099973)
(0.116966 -6.26241e-05 0.00130631)
(0.116607 -0.000171016 0.0012052)
(0.119805 -0.000250932 0.00099701)
(0.117235 -6.16017e-05 0.00130099)
(0.116889 -0.000176165 0.00119814)
(0.120146 -0.000256276 0.000993726)
(0.117508 -6.04424e-05 0.00129608)
(0.117178 -0.000181764 0.00119079)
(0.120492 -0.000263833 0.000993283)
(0.117786 -6.08849e-05 0.00129184)
(0.120839 -0.000269143 0.00098521)
(0.118065 -6.06659e-05 0.00127991)
(0.122737 -0.000333132 0.000798985)
(0.124097 -0.000386471 0.000606408)
(0.123083 -0.000170569 0.000862799)
(0.123138 -0.000337341 0.000796616)
(0.12452 -0.0003894 0.000604237)
(0.123484 -0.000171341 0.000858786)
(0.123541 -0.0003429 0.000796984)
(0.124944 -0.000393214 0.000604077)
(0.123886 -0.000172586 0.000858106)
(0.123947 -0.000350638 0.000799487)
(0.12537 -0.000398233 0.000605233)
(0.124291 -0.000174315 0.000860213)
(0.124358 -0.000357919 0.000798067)
(0.1258 -0.000405625 0.00060803)
(0.124701 -0.000177686 0.0008631)
(0.126229 -0.000409432 0.000604282)
(0.125111 -0.000179885 0.000855765)
(0.125933 -0.00044444 0.000402467)
(0.126168 -0.000452563 0.000195124)
(0.126166 -0.000227656 0.000433184)
(0.126379 -0.00044696 0.000402793)
(0.126621 -0.000453248 0.000194925)
(0.126618 -0.00022871 0.00043265)
(0.126827 -0.00045023 0.000404027)
(0.127073 -0.000454909 0.00019524)
(0.12707 -0.000230208 0.000433114)
(0.127277 -0.000454906 0.000406384)
(0.127527 -0.00045745 0.000195962)