/*--------------------------------*- C++ -*----------------------------------*\
| =========                 |                                                 |
| \\      /  F ield         | OpenFOAM: The Open Source CFD Toolbox           |
|  \\    /   O peration     | Version:  2212                                  |
|   \\  /    A nd           | Website:  www.openfoam.com                      |
|    \\/     M anipulation  |                                                 |
\*---------------------------------------------------------------------------*/
FoamFile
{
    version     2.0;
    format      ascii;
    arch        "LSB;label=32;scalar=64";
    class       volScalarField;
    location    "2.4";
    object      k;
}
// * * * * * * * * * * * * * * * * * * * * * * * * * * * * * * * * * * * * * //

dimensions      [0 2 -2 0 0 0 0];

internalField   nonuniform List<scalar> 
689
(
0.0029879
0.0028425
0.00273251
0.00264316
0.0025706
0.0025093
0.00245631
0.00240744
0.00275991
0.00262003
0.00250704
0.00241349
0.00233526
0.00226727
0.00220559
0.00215035
0.0031009
0.00292269
0.0027738
0.00264539
0.00253454
0.00243769
0.00235269
0.00227778
0.00221106
0.00392594
0.00365765
0.00342313
0.0032205
0.00304416
0.00288946
0.00275276
0.00263156
0.00252352
0.0024267
0.0023394
0.00226063
0.00431878
0.00385835
0.00355421
0.00331842
0.00312233
0.00295566
0.00281125
0.00268377
0.00256948
0.00246646
0.00237311
0.00228837
0.00436122
0.00391153
0.00360238
0.00335314
0.00314622
0.00297094
0.00282018
0.0026887
0.0025711
0.00246445
0.00236751
0.00227927
0.00425235
0.00383175
0.00353115
0.0032933
0.00309298
0.00292097
0.00277176
0.00264054
0.00252279
0.00241659
0.00232061
0.00223388
0.00394777
0.00366741
0.00340901
0.00318179
0.00298486
0.00281561
0.00266935
0.00254127
0.0024285
0.00232848
0.00223918
0.00215931
0.00407349
0.00365077
0.00330059
0.00302525
0.00281807
0.00265355
0.0025186
0.00240532
0.00230848
0.00222385
0.00214876
0.00422576
0.00372571
0.00326285
0.00292209
0.00269616
0.00253966
0.00241995
0.002325
0.00224833
0.00218173
0.00212307
0.00496281
0.0042172
0.00357965
0.00321079
0.00298261
0.00283587
0.00272603
0.00263781
0.00256676
0.00250799
0.00245573
0.0026985
0.0025463
0.00242687
0.00233041
0.00225235
0.00218405
0.00212445
0.00207074
0.00295713
0.00277492
0.00259173
0.0024323
0.00229524
0.00217272
0.00205781
0.00195509
0.00426568
0.00394871
0.00367119
0.00342582
0.00320637
0.00300821
0.00282908
0.00266534
0.00251964
0.00684477
0.00612311
0.0055454
0.00506759
0.00466137
0.00430987
0.00399987
0.00372481
0.00347927
0.00325952
0.00306185
0.00288343
0.00726913
0.00662485
0.00604287
0.00552963
0.00507923
0.00468594
0.00434183
0.00403782
0.00376561
0.0035211
0.00330123
0.00310316
0.0075777
0.00685752
0.00623714
0.0057
0.00523256
0.00482336
0.00446512
0.00415244
0.0038741
0.00362299
0.00339647
0.00319188
0.0072396
0.00660362
0.00602988
0.00552299
0.00507811
0.00468846
0.00434889
0.00405186
0.00378565
0.00354558
0.00332901
0.00313283
0.00683226
0.00612759
0.00554631
0.00506067
0.00464963
0.00430198
0.00400061
0.00373251
0.0034925
0.00327696
0.00308207
0.00290608
0.00547442
0.00502517
0.00458156
0.00421266
0.00390144
0.00362861
0.00338762
0.00317083
0.00297484
0.00279735
0.002632
0.00423714
0.00380495
0.00343626
0.00313835
0.00293615
0.00275006
0.00257321
0.00242096
0.00228767
0.00217067
0.00205318
0.00410226
0.00362907
0.00323177
0.00294278
0.00274915
0.00261064
0.00249955
0.00240806
0.00233077
0.00226464
0.00220221
0.00301564
0.00281324
0.00265271
0.00251963
0.00240684
0.00230988
0.00222477
0.00214907
0.00208169
0.00421098
0.00390232
0.00363173
0.00339053
0.00317344
0.00297683
0.00279776
0.00263425
0.00248157
0.00565201
0.00519946
0.00480659
0.00446079
0.00415356
0.00387859
0.00363086
0.00340629
0.00320131
0.00876521
0.00799929
0.00730868
0.00669662
0.00615727
0.00568166
0.00526072
0.00488636
0.00455171
0.00425094
0.00397954
0.00373368
0.00970966
0.0088067
0.00802585
0.00734433
0.00674581
0.0062176
0.00574973
0.00533388
0.0049627
0.00462978
0.00432984
0.00405854
0.00993212
0.00903668
0.0082486
0.00755422
0.00694112
0.0063983
0.00591634
0.00548744
0.00510488
0.0047621
0.00445347
0.00417451
0.00971212
0.00880802
0.0080258
0.00734334
0.00674463
0.00621703
0.00575031
0.00533614
0.00496727
0.00463692
0.00433957
0.00407083
0.00872028
0.00797009
0.00728774
0.0066798
0.00614282
0.00566898
0.00525054
0.00487938
0.00454812
0.00425094
0.00398284
0.00374064
0.00757166
0.0068141
0.00618656
0.00565532
0.00520072
0.00480616
0.00445938
0.00415174
0.00387667
0.00362941
0.00340422
0.0055286
0.00505246
0.00462553
0.00425852
0.00394081
0.00366432
0.00342016
0.00320172
0.00300434
0.00282655
0.00266192
0.00395173
0.00360782
0.00331631
0.00309026
0.00291576
0.00276962
0.00264243
0.00253186
0.00243527
0.00235034
0.00227639
0.00317543
0.00298098
0.00281365
0.00266855
0.00254105
0.00242847
0.00232837
0.00223885
0.00215831
0.00505957
0.00464754
0.00430037
0.00399955
0.00373177
0.00349184
0.00327598
0.00308133
0.00290301
0.00668151
0.00614368
0.00566962
0.00525117
0.00488002
0.00454871
0.00425134
0.00398318
0.00373996
0.0104358
0.0094818
0.00864918
0.007919
0.0072763
0.00670857
0.00620527
0.00575731
0.00535698
0.00499771
0.00467402
0.00438126
0.0114706
0.0104063
0.00948617
0.00868273
0.00797626
0.00735168
0.00679705
0.00630266
0.00586036
0.00546324
0.00510539
0.0047818
0.0117196
0.0106736
0.00974917
0.00893258
0.00820999
0.00756887
0.0069983
0.00648898
0.00603298
0.00562342
0.00525435
0.00492065
0.0114518
0.0103993
0.00948464
0.00868355
0.00797802
0.00735384
0.00679947
0.00630535
0.00586342
0.00546675
0.00510944
0.0047865
0.0104349
0.00948019
0.00864775
0.00791794
0.00727551
0.00670792
0.00620467
0.00575676
0.00535647
0.00499729
0.00467367
0.00438114
0.00876512
0.00799969
0.00730966
0.00669771
0.00615799
0.00568193
0.00526065
0.00488606
0.00455128
0.00425051
0.00397907
0.00684425
0.00612186
0.00554452
0.00506706
0.00466094
0.00430945
0.00399949
0.00372446
0.00347894
0.0032593
0.00306169
0.00392272
0.00365401
0.00341989
0.00321833
0.00304262
0.00288832
0.00275186
0.00263083
0.00252291
0.00242625
0.00233947
0.0032906
0.00309143
0.00292015
0.00277139
0.00264029
0.00252254
0.00241629
0.00232025
0.0022334
0.00552352
0.0050777
0.00468786
0.00434855
0.00405137
0.00378492
0.00354463
0.00332795
0.00313138
0.00734443
0.00674501
0.00621714
0.00575034
0.00533616
0.00496722
0.00463674
0.00433926
0.00407025
0.0114516
0.0103989
0.0094844
0.00868351
0.00797805
0.00735391
0.00679956
0.00630545
0.00586349
0.00546677
0.00510939
0.00478633
0.0124775
0.0113699
0.0103868
0.00951714
0.00874715
0.00806384
0.00745561
0.00691247
0.00642589
0.00598856
0.00559426
0.00523758
0.0129562
0.0117538
0.0107166
0.00981082
0.00901365
0.00830805
0.00768064
0.00712053
0.00661873
0.00616765
0.00576088
0.00539286
0.0124775
0.0113696
0.0103865
0.00951681
0.00874688
0.00806362
0.00745544
0.00691235
0.0064258
0.00598851
0.00559425
0.00523762
0.0114706
0.0104062
0.009486
0.00868255
0.00797609
0.00735151
0.00679689
0.00630251
0.00586023
0.00546314
0.00510534
0.00478176
0.0097098
0.00880674
0.00802593
0.0073445
0.00674602
0.0062178
0.00574991
0.00533404
0.00496285
0.00462995
0.00433003
0.00726964
0.00662494
0.00604291
0.00552981
0.00507951
0.00468637
0.00434237
0.00403837
0.00376617
0.00352169
0.00330194
0.00431904
0.00385842
0.00355412
0.00331833
0.00312228
0.00295569
0.00281133
0.00268388
0.00256961
0.00246665
0.00237364
0.0117187
0.0106722
0.00974787
0.00893163
0.00820936
0.00756847
0.00699806
0.00648883
0.00603287
0.00562331
0.00525421
0.00492045
0.0129561
0.0117536
0.0107164
0.00981065
0.00901352
0.00830794
0.00768054
0.00712044
0.00661863
0.00616753
0.00576074
0.00539268
0.0132662
0.0120813
0.0110327
0.0101068
0.00928793
0.00856161
0.00791517
0.00733781
0.00682037
0.00635512
0.00593547
0.00555569
0.0129562
0.0117537
0.0107164
0.00981071
0.00901357
0.00830799
0.00768059
0.00712049
0.0066187
0.00616763
0.00576087
0.00539286
0.0117207
0.0106742
0.00974945
0.00893272
0.00821009
0.00756896
0.00699842
0.00648914
0.00603317
0.00562364
0.0052546
0.00492095
0.00993225
0.00903683
0.00824858
0.00755418
0.00694116
0.00639845
0.00591663
0.00548789
0.00510543
0.0047627
0.0044541
0.00757763
0.00685771
0.00623726
0.00570009
0.00523269
0.00482367
0.00446571
0.00415306
0.00387473
0.0036237
0.00339713
0.00436292
0.0039115
0.00360183
0.00335257
0.00314571
0.00297056
0.00281993
0.00268849
0.00257095
0.00246439
0.00236763
)
;

boundaryField
{
    inlet
    {
        type            fixedValue;
        value           nonuniform List<scalar> 0();
    }
    ami1
    {
        type            cyclicAMI;
        value           nonuniform List<scalar> 0();
    }
    walls
    {
        type            kqRWallFunction;
        value           nonuniform List<scalar> 
227
(
0.00392594
0.00431878
0.00436122
0.00425235
0.00394777
0.00407349
0.00422576
0.00496281
0.00365765
0.00385835
0.00391153
0.00383175
0.00366741
0.00365077
0.00372571
0.0042172
0.00342313
0.00355421
0.00360238
0.00353115
0.00340901
0.00330059
0.00326285
0.00357965
0.0031009
0.0032205
0.00331842
0.00335314
0.0032933
0.00318179
0.00302525
0.00292209
0.00321079
0.0029879
0.00275991
0.00292269
0.00304416
0.00312233
0.00314622
0.00309298
0.00298486
0.00281807
0.00269616
0.00298261
0.0028425
0.00262003
0.0027738
0.00288946
0.00295566
0.00297094
0.00292097
0.00281561
0.00265355
0.00253966
0.00283587
0.00273251
0.00250704
0.00264539
0.00275276
0.00281125
0.00282018
0.00277176
0.00266935
0.0025186
0.00241995
0.00272603
0.00264316
0.00241349
0.00253454
0.00263156
0.00268377
0.0026887
0.00264054
0.00254127
0.00240532
0.002325
0.00263781
0.0025706
0.00233526
0.00243769
0.00252352
0.00256948
0.0025711
0.00252279
0.0024285
0.00230848
0.00224833
0.00256676
0.0025093
0.00226727
0.00235269
0.0024267
0.00246646
0.00246445
0.00241659
0.00232848
0.00222385
0.00218173
0.00250799
0.00245631
0.00220559
0.00227778
0.0023394
0.00237311
0.00236751
0.00232061
0.00223918
0.00214876
0.00212307
0.00245573
0.00240744
0.00215035
0.00221106
0.00226063
0.00228837
0.00227927
0.00223388
0.00215931
0.00496281
0.00410226
0.00395173
0.00392272
0.00431904
0.00436292
0.0042172
0.00362907
0.00360782
0.00365401
0.00385842
0.0039115
0.00357965
0.00323177
0.00331631
0.00341989
0.00355412
0.00360183
0.00321079
0.00294278
0.00309026
0.00321833
0.00331833
0.00335257
0.00298261
0.00274915
0.00291576
0.00304262
0.00312228
0.00314571
0.00283587
0.00261064
0.00276962
0.00288832
0.00295569
0.00297056
0.00272603
0.00249955
0.00264243
0.00275186
0.00281133
0.00281993
0.00263781
0.00240806
0.00253186
0.00263083
0.00268388
0.00268849
0.00256676
0.00233077
0.00243527
0.00252291
0.00256961
0.00257095
0.00250799
0.00226464
0.00235034
0.00242625
0.00246665
0.00246439
0.00245573
0.00220221
0.00227639
0.00233947
0.00237364
0.00236763
0.00301564
0.00317543
0.0032906
0.0029879
0.0026985
0.00281324
0.00298098
0.00309143
0.0028425
0.0025463
0.00265271
0.00281365
0.00292015
0.00273251
0.00242687
0.00251963
0.00266855
0.00277139
0.00264316
0.00233041
0.00240684
0.00254105
0.00264029
0.0025706
0.00225235
0.00230988
0.00242847
0.00252254
0.0025093
0.00218405
0.00222477
0.00232837
0.00241629
0.00245631
0.00212445
0.00214907
0.00223885
0.00232025
0.00240744
0.00207074
0.00208169
0.00215831
0.0022334
)
;
    }
    ami2
    {
        type            cyclicAMI;
        value           nonuniform List<scalar> 
48
(
0.00406146
0.00460705
0.00468187
0.00451007
0.00408022
0.00426341
0.00442878
0.00480934
0.00727124
0.00759825
0.0079936
0.00757465
0.00724393
0.00568197
0.00444783
0.00432132
0.00916892
0.0102366
0.0104402
0.010246
0.00911512
0.00803467
0.00574965
0.00413038
0.0109872
0.0120974
0.0123062
0.012065
0.0109868
0.00916886
0.00727111
0.00405982
0.0120649
0.013093
0.0136681
0.0130931
0.0120973
0.0102368
0.00759875
0.00460733
0.0123057
0.0136681
0.0139278
0.0136681
0.0123068
0.0104404
0.00799377
0.00468288
)
;
    }
    outlet
    {
        type            zeroGradient;
    }
    procBoundary0to1
    {
        type            processor;
        value           nonuniform List<scalar> 
138
(
0.00352911
0.00335247
0.00314588
0.00297092
0.0028204
0.00268897
0.00257136
0.00246469
0.00236773
0.00227948
0.00603019
0.00570049
0.00523334
0.00482438
0.00446638
0.00415358
0.00387506
0.00362383
0.0033972
0.00319248
0.00971418
0.00880943
0.00802705
0.00802705
0.00755473
0.00694165
0.0063988
0.00591682
0.00548791
0.00510531
0.00476244
0.00445371
0.00417463
0.00993186
0.0090368
0.00824889
0.00755473
0.00694165
0.0063988
0.00591682
0.00548791
0.00510531
0.00476244
0.00445371
0.00417463
0.0114702
0.010406
0.00948597
0.00868261
0.00797617
0.00735158
0.00679695
0.00630254
0.00586023
0.00546309
0.00510523
0.00478162
0.0124776
0.0113703
0.0103873
0.00951748
0.00874737
0.00806396
0.00745565
0.00691245
0.00642582
0.00598846
0.00559412
0.00523741
0.0129562
0.0117538
0.0107165
0.00981078
0.00901361
0.00830799
0.00768055
0.00712042
0.00661859
0.00616749
0.00576069
0.00539264
0.0124776
0.01137
0.0103869
0.00951713
0.00874709
0.00806374
0.0074555
0.00691236
0.0064258
0.0059885
0.00559423
0.00523761
0.0114516
0.0103992
0.00948464
0.00868363
0.00797814
0.007354
0.00679967
0.0063056
0.00586372
0.0054671
0.00510984
0.00478713
0.00971198
0.00880733
0.00802513
0.00734281
0.00674427
0.00621684
0.00575032
0.00533636
0.00496764
0.00463741
0.0043401
0.00723967
0.00660344
0.00602908
0.00552183
0.00507686
0.00468733
0.00434806
0.00405116
0.00378505
0.00354522
0.00332815
0.00425225
0.00383131
0.00353035
0.0032924
0.00309205
0.00292008
0.00277095
0.00263977
0.00252208
0.00241597
0.00232019
)
;
    }
    procBoundary0to2
    {
        type            processor;
        value           nonuniform List<scalar> 
28
(
0.00321219
0.00294666
0.00294666
0.00395215
0.00361239
0.00331629
0.00331629
0.00292178
0.00292178
0.00314648
0.00314648
0.00314648
0.00553125
0.0050544
0.00462613
0.00462613
0.00330338
0.00457284
0.00757125
0.00681282
0.00618366
0.00618366
0.00340973
0.00554492
0.00872044
0.00797015
0.00728787
0.00728787
)
;
    }
    procBoundary0to8
    {
        type            processor;
        value           nonuniform List<scalar> 
29
(
0.00236107
0.00210138
0.00215448
0.00219026
0.00221182
0.00201728
0.00185074
0.00238382
0.00272281
0.00292457
0.00202167
0.00234794
0.00301671
0.00351038
0.00381217
0.00208639
0.0027466
0.0035211
0.00411586
0.00448801
0.00215503
0.0029566
0.0038275
0.0044935
0.00491377
0.00505862
0.00461759
0.00505849
0.00521074
)
;
    }
    procBoundary0to9
    {
        type            processor;
        value           nonuniform List<scalar> 
40
(
0.00219898
0.0021555
0.00208737
0.00208298
0.00208298
0.00207171
0.00240968
0.00300787
0.00295813
0.00274967
0.00248988
0.00248988
0.00196406
0.00215173
0.00392171
0.00382827
0.00352212
0.00320326
0.00320326
0.00252213
0.00221077
0.00461777
0.0044938
0.00411602
0.0037335
0.0037335
0.00288424
0.00226239
0.00491383
0.00448812
0.00405851
0.00405851
0.00310402
0.00228986
0.00505863
0.00461808
0.00417531
0.00417531
0.00319332
0.0022797
)
;
    }
}


// ************************************************************************* //
