/*--------------------------------*- C++ -*----------------------------------*\
| =========                 |                                                 |
| \\      /  F ield         | OpenFOAM: The Open Source CFD Toolbox           |
|  \\    /   O peration     | Version:  2212                                  |
|   \\  /    A nd           | Website:  www.openfoam.com                      |
|    \\/     M anipulation  |                                                 |
\*---------------------------------------------------------------------------*/
FoamFile
{
    version     2.0;
    format      ascii;
    arch        "LSB;label=32;scalar=64";
    class       volScalarField;
    location    "1.05";
    object      epsilon;
}
// * * * * * * * * * * * * * * * * * * * * * * * * * * * * * * * * * * * * * //

dimensions      [0 2 -3 0 0 0 0];

internalField   nonuniform List<scalar> 
6840
(
90.5034
12.1248
4.38869
2.46659
1.63316
1.18307
0.902019
0.72067
0.594597
0.502515
0.432697
0.379313
0.336358
0.299958
0.270331
0.246377
0.226922
0.211526
0.202277
0.194886
58.5856
14.5696
6.08947
3.33296
2.08218
1.40267
0.998657
0.740292
0.565912
0.443938
0.35604
0.290958
0.241455
0.203063
0.173203
0.149992
0.131661
0.117203
0.106519
0.0994223
45.0226
13.4729
5.73075
3.07323
1.86023
1.227
0.873583
0.649788
0.497025
0.3895
0.311315
0.253011
0.209029
0.175286
0.148929
0.128053
0.111385
0.0979926
0.0872809
0.0792151
38.7028
13.0541
5.74337
3.08734
1.88067
1.22751
0.869484
0.645392
0.492602
0.384793
0.307042
0.249068
0.20501
0.171032
0.144464
0.123424
0.106566
0.0929226
0.0818167
0.0732218
36.0571
12.8529
5.76645
3.10212
1.89476
1.22669
0.866504
0.643988
0.492257
0.383973
0.305808
0.247935
0.203941
0.169976
0.143374
0.122259
0.105286
0.0914828
0.0802369
0.0720411
36.0571
12.8529
5.76645
3.10211
1.89476
1.22669
0.866498
0.64398
0.492247
0.383959
0.305788
0.247909
0.203904
0.169924
0.143298
0.122147
0.105119
0.0912315
0.0798369
0.0711677
38.7028
13.0541
5.74336
3.08733
1.88066
1.2275
0.86947
0.645374
0.492579
0.384763
0.306999
0.24901
0.20493
0.17092
0.144302
0.123187
0.106213
0.0923892
0.0810556
0.0724656
45.0226
13.4729
5.73075
3.07322
1.86023
1.22699
0.87357
0.649772
0.497003
0.389464
0.31127
0.25295
0.208945
0.175167
0.148755
0.127796
0.110995
0.0973893
0.0863204
0.0777917
58.5856
14.5696
6.08947
3.33295
2.08217
1.40267
0.998654
0.740287
0.565905
0.443925
0.356021
0.290926
0.241407
0.202972
0.173075
0.149789
0.131311
0.116543
0.105249
0.0973287
90.5034
12.1248
4.38869
2.46659
1.63316
1.18307
0.902019
0.72067
0.594597
0.502516
0.432697
0.379313
0.336358
0.299958
0.270332
0.246377
0.226922
0.211525
0.202275
0.194884
58.5856
14.5696
6.08947
3.33295
2.08217
1.40267
0.998654
0.740287
0.565905
0.443925
0.35602
0.290926
0.241407
0.202972
0.173075
0.149789
0.131311
0.116543
0.10525
0.0973329
16.5373
9.49239
5.0127
2.8606
1.75746
1.1476
0.786934
0.562053
0.415371
0.315952
0.246338
0.19623
0.15923
0.131262
0.109791
0.0932181
0.0801778
0.0696614
0.060699
0.0565459
13.6679
8.73671
5.07741
3.05388
1.92224
1.2661
0.869295
0.618638
0.453968
0.342046
0.263665
0.20733
0.165925
0.134874
0.111173
0.0927182
0.0781984
0.066653
0.0571648
0.0502858
12.9054
8.33993
5.07879
3.15547
2.02775
1.35121
0.933543
0.666465
0.489554
0.368606
0.283617
0.222403
0.177346
0.143548
0.117765
0.097791
0.0821053
0.0696373
0.0596084
0.0513722
12.6882
8.1544
5.07113
3.20038
2.07939
1.39506
0.967833
0.692723
0.509639
0.384018
0.295506
0.231649
0.184593
0.149261
0.122283
0.101379
0.0849586
0.0719026
0.0614109
0.0529502
12.6882
8.1544
5.07113
3.20038
2.07939
1.39506
0.967829
0.692719
0.509634
0.384011
0.295497
0.231639
0.184581
0.149246
0.122267
0.101358
0.084934
0.0718765
0.0613859
0.0529065
12.9054
8.33993
5.07879
3.15547
2.02775
1.3512
0.933536
0.666457
0.489544
0.368592
0.283601
0.222382
0.177321
0.143519
0.11773
0.0977485
0.0820574
0.0695877
0.0595611
0.0513427
13.6679
8.73671
5.07741
3.05388
1.92223
1.26609
0.86929
0.618632
0.453961
0.342036
0.263653
0.207316
0.165907
0.134854
0.111148
0.0926903
0.0781718
0.0666375
0.0571873
0.0497968
16.5373
9.49239
5.0127
2.8606
1.75746
1.1476
0.786934
0.562053
0.415371
0.315952
0.246338
0.19623
0.15923
0.131263
0.109789
0.0932174
0.0801773
0.0696609
0.0606985
0.0565464
58.5856
14.5696
6.08947
3.33296
2.08218
1.40267
0.998657
0.740292
0.565912
0.443938
0.35604
0.290958
0.241455
0.203062
0.173203
0.149992
0.131661
0.117203
0.106519
0.0994219
45.0226
13.4729
5.73075
3.07322
1.86023
1.22699
0.87357
0.649772
0.497003
0.389464
0.31127
0.25295
0.208944
0.175167
0.148755
0.127796
0.110995
0.0973894
0.0863201
0.077793
13.6679
8.73671
5.07741
3.05388
1.92223
1.26609
0.86929
0.618632
0.453961
0.342036
0.263653
0.207315
0.165907
0.134852
0.11115
0.0926911
0.0781721
0.0666375
0.0571875
0.0497985
11.8601
7.76395
4.99734
3.24076
2.1442
1.45499
1.0141
0.725638
0.53216
0.399155
0.305552
0.23823
0.188835
0.151927
0.123889
0.102257
0.0853436
0.0719555
0.0612201
0.0526415
11.6229
7.60535
5.01031
3.34209
2.26848
1.57142
1.11236
0.804591
0.594209
0.447523
0.343218
0.267642
0.21191
0.170132
0.138338
0.113801
0.0946199
0.079449
0.0673196
0.0575551
11.5726
7.56718
5.02065
3.38344
2.32103
1.62326
1.15828
0.843155
0.62569
0.472849
0.363484
0.283853
0.224905
0.180587
0.146786
0.120662
0.100219
0.0840389
0.0710981
0.0606402
11.5726
7.56718
5.02065
3.38344
2.32103
1.62326
1.15828
0.843153
0.625687
0.472844
0.363478
0.283846
0.224897
0.180578
0.146776
0.120648
0.100203
0.0840203
0.0710781
0.0606126
11.6229
7.60535
5.0103
3.34209
2.26848
1.57142
1.11236
0.804587
0.594203
0.447516
0.343209
0.267631
0.211896
0.170116
0.138318
0.113776
0.094591
0.0794166
0.0672859
0.0575081
11.8601
7.76395
4.99734
3.24076
2.1442
1.45499
1.0141
0.725638
0.53216
0.399155
0.305552
0.23823
0.188835
0.151927
0.123888
0.102257
0.0853432
0.0719551
0.0612196
0.0526409
13.6679
8.73671
5.07741
3.05388
1.92224
1.2661
0.869295
0.618638
0.453968
0.342045
0.263665
0.20733
0.165924
0.134873
0.111173
0.092718
0.0781981
0.0666526
0.0571643
0.0502861
45.0226
13.4729
5.73075
3.07323
1.86023
1.227
0.873583
0.649788
0.497025
0.3895
0.311315
0.253011
0.209029
0.175286
0.148929
0.128053
0.111385
0.0979926
0.0872811
0.0792167
38.7028
13.0541
5.74336
3.08733
1.88066
1.2275
0.86947
0.645374
0.492579
0.384763
0.306999
0.24901
0.20493
0.17092
0.144302
0.123187
0.106213
0.0923893
0.0810557
0.0724655
12.9054
8.33993
5.07879
3.15547
2.02775
1.3512
0.933536
0.666457
0.489544
0.368592
0.283601
0.222382
0.17732
0.143518
0.117731
0.097749
0.0820574
0.0695874
0.0595607
0.0513437
11.6229
7.60535
5.0103
3.34209
2.26848
1.57142
1.11236
0.804587
0.594203
0.447516
0.343209
0.267631
0.211896
0.170116
0.138319
0.113777
0.0945911
0.0794165
0.0672857
0.0575073
11.4933
7.5119
5.02843
3.434
2.3892
1.6928
1.22111
0.896487
0.669457
0.508124
0.391658
0.306288
0.242787
0.194891
0.158286
0.12996
0.107787
0.0902393
0.0762059
0.0648265
11.4757
7.50136
5.04297
3.47002
2.43665
1.74299
1.26863
0.938712
0.705583
0.538335
0.416593
0.326729
0.2595
0.208558
0.169486
0.139171
0.115394
0.0965493
0.0814526
0.0691173
11.4757
7.50136
5.04297
3.47002
2.43665
1.74299
1.26863
0.938711
0.705582
0.538334
0.416592
0.326727
0.259498
0.208556
0.169484
0.139168
0.11539
0.0965457
0.0814509
0.0691381
11.4933
7.5119
5.02843
3.434
2.3892
1.6928
1.22111
0.896487
0.669457
0.508124
0.391658
0.306288
0.242787
0.194891
0.158285
0.12996
0.107786
0.0902391
0.0762058
0.0648267
11.6229
7.60535
5.01031
3.34209
2.26848
1.57142
1.11236
0.804591
0.594209
0.447523
0.343218
0.267642
0.211909
0.170131
0.138338
0.113801
0.0946196
0.0794485
0.067319
0.0575548
12.9054
8.33993
5.07879
3.15547
2.02775
1.35121
0.933543
0.666465
0.489554
0.368606
0.283617
0.222403
0.177346
0.143547
0.117766
0.0977915
0.0821055
0.0696373
0.0596084
0.0513721
38.7028
13.0541
5.74337
3.08734
1.88067
1.22751
0.869484
0.645392
0.492602
0.384793
0.307042
0.249068
0.205009
0.171032
0.144464
0.123424
0.106567
0.0929227
0.0818168
0.0732221
36.0571
12.8529
5.76645
3.10211
1.89476
1.22669
0.866498
0.64398
0.492247
0.383959
0.305788
0.247909
0.203904
0.169924
0.143298
0.122147
0.105119
0.0912315
0.0798369
0.0711679
12.6882
8.1544
5.07113
3.20038
2.07939
1.39506
0.967829
0.692719
0.509634
0.384011
0.295497
0.231639
0.18458
0.149245
0.122267
0.101358
0.0849335
0.0718757
0.061385
0.0529058
11.5726
7.56718
5.02065
3.38344
2.32103
1.62326
1.15828
0.843153
0.625687
0.472844
0.363478
0.283846
0.224896
0.180577
0.146776
0.120648
0.100202
0.0840197
0.0710774
0.0606118
11.4757
7.50136
5.04297
3.47002
2.43665
1.74299
1.26863
0.938711
0.705582
0.538334
0.416592
0.326727
0.259498
0.208556
0.169484
0.139168
0.11539
0.0965455
0.0814507
0.0691378
11.4647
7.49683
5.0577
3.50272
2.48038
1.79068
1.31522
0.981304
0.742924
0.57021
0.44335
0.348968
0.277889
0.223737
0.182022
0.149548
0.124012
0.103737
0.0874632
0.0741302
11.4647
7.49683
5.0577
3.50272
2.48038
1.79068
1.31522
0.981304
0.742924
0.57021
0.44335
0.348968
0.277889
0.223737
0.182022
0.149548
0.124012
0.103737
0.0874632
0.0741303
11.4757
7.50136
5.04297
3.47002
2.43665
1.74299
1.26863
0.938712
0.705583
0.538335
0.416593
0.326729
0.2595
0.208558
0.169486
0.139171
0.115393
0.0965491
0.0814524
0.0691172
11.5726
7.56718
5.02065
3.38344
2.32103
1.62326
1.15828
0.843155
0.62569
0.472849
0.363484
0.283853
0.224904
0.180587
0.146787
0.120662
0.100219
0.0840386
0.0710977
0.06064
12.6882
8.1544
5.07113
3.20038
2.07939
1.39506
0.967833
0.692723
0.509639
0.384018
0.295506
0.231649
0.184593
0.149259
0.122285
0.10138
0.084959
0.0719028
0.0614112
0.0529505
36.0571
12.8529
5.76645
3.10212
1.89476
1.22669
0.866504
0.643988
0.492257
0.383973
0.305808
0.247935
0.203941
0.169976
0.143374
0.122259
0.105286
0.091483
0.0802371
0.0720414
36.0571
12.8529
5.76645
3.10212
1.89476
1.22669
0.866504
0.643988
0.492257
0.383973
0.305808
0.247935
0.203942
0.169976
0.143374
0.122259
0.105286
0.0914829
0.080237
0.0720413
12.6882
8.1544
5.07113
3.20038
2.07939
1.39506
0.967833
0.692723
0.509639
0.384018
0.295505
0.231649
0.184593
0.14926
0.122283
0.101379
0.0849583
0.0719021
0.0614103
0.0529495
11.5726
7.56718
5.02065
3.38344
2.32103
1.62326
1.15828
0.843155
0.62569
0.472849
0.363484
0.283853
0.224905
0.180587
0.146786
0.120662
0.100219
0.0840386
0.0710978
0.0606399
11.4757
7.50136
5.04297
3.47002
2.43665
1.74299
1.26863
0.938712
0.705583
0.538335
0.416593
0.326729
0.2595
0.208558
0.169486
0.139171
0.115394
0.0965493
0.0814527
0.0691176
11.4647
7.49683
5.0577
3.50272
2.48038
1.79068
1.31522
0.981304
0.742924
0.57021
0.44335
0.348968
0.277889
0.223737
0.182022
0.149548
0.124012
0.103737
0.0874633
0.0741306
11.4647
7.49683
5.0577
3.50272
2.48038
1.79068
1.31522
0.981304
0.742924
0.57021
0.44335
0.348968
0.277889
0.223737
0.182022
0.149548
0.124012
0.103737
0.0874633
0.0741304
11.4757
7.50136
5.04297
3.47002
2.43665
1.74299
1.26863
0.938711
0.705582
0.538334
0.416592
0.326727
0.259498
0.208556
0.169484
0.139168
0.11539
0.0965457
0.081451
0.0691385
11.5726
7.56718
5.02065
3.38344
2.32103
1.62326
1.15828
0.843153
0.625687
0.472844
0.363478
0.283846
0.224897
0.180578
0.146775
0.120648
0.100202
0.0840203
0.0710782
0.0606131
12.6882
8.1544
5.07113
3.20038
2.07939
1.39506
0.967829
0.692719
0.509634
0.384011
0.295497
0.231639
0.18458
0.149245
0.122267
0.101358
0.0849341
0.0718765
0.0613859
0.0529069
36.0571
12.8529
5.76645
3.10211
1.89476
1.22669
0.866498
0.64398
0.492247
0.383959
0.305788
0.247909
0.203904
0.169924
0.143298
0.122147
0.105119
0.0912315
0.079837
0.071168
38.7028
13.0541
5.74337
3.08734
1.88067
1.22751
0.869484
0.645392
0.492602
0.384793
0.307042
0.249068
0.20501
0.171032
0.144464
0.123424
0.106566
0.0929226
0.0818167
0.0732221
12.9054
8.33993
5.07879
3.15547
2.02775
1.35121
0.933543
0.666465
0.489554
0.368606
0.283617
0.222403
0.177346
0.143548
0.117765
0.0977911
0.0821055
0.0696375
0.0596086
0.0513724
11.6229
7.60535
5.01031
3.34209
2.26848
1.57142
1.11236
0.804591
0.594209
0.447523
0.343218
0.267642
0.21191
0.170132
0.138338
0.113801
0.0946202
0.0794494
0.0673202
0.0575562
11.4933
7.5119
5.02843
3.434
2.3892
1.6928
1.22111
0.896487
0.669457
0.508124
0.391658
0.306288
0.242787
0.194891
0.158286
0.12996
0.107787
0.0902398
0.0762066
0.0648276
11.4757
7.50136
5.04297
3.47002
2.43665
1.74299
1.26863
0.938711
0.705582
0.538334
0.416592
0.326727
0.259498
0.208556
0.169484
0.139168
0.11539
0.0965458
0.0814511
0.0691385
11.4757
7.50136
5.04297
3.47002
2.43665
1.74299
1.26863
0.938712
0.705583
0.538335
0.416593
0.326729
0.2595
0.208558
0.169486
0.139171
0.115393
0.0965492
0.0814526
0.0691175
11.4933
7.5119
5.02843
3.434
2.3892
1.6928
1.22111
0.896487
0.669457
0.508124
0.391658
0.306288
0.242787
0.194891
0.158285
0.12996
0.107787
0.0902394
0.0762062
0.0648274
11.6229
7.60535
5.0103
3.34209
2.26848
1.57142
1.11236
0.804587
0.594203
0.447516
0.343209
0.267631
0.211896
0.170116
0.138318
0.113777
0.0945912
0.0794169
0.0672864
0.0575083
12.9054
8.33993
5.07879
3.15547
2.02775
1.3512
0.933536
0.666456
0.489543
0.368592
0.283601
0.222382
0.177321
0.143519
0.11773
0.0977484
0.0820572
0.0695875
0.0595609
0.0513436
38.7028
13.0541
5.74336
3.08733
1.88066
1.2275
0.86947
0.645374
0.492579
0.384763
0.306999
0.24901
0.20493
0.17092
0.144302
0.123187
0.106213
0.0923891
0.0810555
0.0724657
45.0226
13.4729
5.73075
3.07323
1.86023
1.227
0.873583
0.649788
0.497025
0.3895
0.311315
0.253011
0.209029
0.175286
0.148929
0.128053
0.111385
0.0979926
0.0872812
0.0792171
13.6679
8.73671
5.07741
3.05388
1.92224
1.2661
0.869295
0.618638
0.453968
0.342046
0.263665
0.20733
0.165925
0.134874
0.111173
0.0927186
0.078199
0.0666538
0.0571657
0.0502878
11.8601
7.76395
4.99734
3.24076
2.1442
1.45499
1.0141
0.725638
0.53216
0.399155
0.305552
0.23823
0.188835
0.151927
0.123889
0.102258
0.0853444
0.0719565
0.0612212
0.052643
11.6229
7.60535
5.0103
3.34209
2.26848
1.57142
1.11236
0.804587
0.594203
0.447516
0.343209
0.267631
0.211896
0.170116
0.138319
0.113777
0.0945917
0.0794172
0.0672865
0.0575082
11.5726
7.56718
5.02065
3.38344
2.32103
1.62326
1.15828
0.843153
0.625687
0.472844
0.363478
0.283846
0.224896
0.180578
0.146776
0.120648
0.100202
0.08402
0.0710778
0.0606122
11.5726
7.56718
5.02065
3.38344
2.32103
1.62326
1.15828
0.843155
0.62569
0.472849
0.363484
0.283853
0.224905
0.180587
0.146786
0.120662
0.100219
0.0840384
0.0710975
0.0606398
11.6229
7.60535
5.01031
3.34209
2.26848
1.57142
1.11236
0.804591
0.594209
0.447523
0.343218
0.267642
0.211909
0.170131
0.138338
0.113801
0.0946199
0.079449
0.0673196
0.057555
11.8601
7.76395
4.99734
3.24076
2.1442
1.45499
1.0141
0.725638
0.53216
0.399155
0.305552
0.23823
0.188835
0.151927
0.123888
0.102257
0.0853437
0.0719558
0.0612203
0.0526417
13.6679
8.73671
5.07741
3.05388
1.92223
1.26609
0.869291
0.618632
0.453961
0.342036
0.263653
0.207316
0.165907
0.134854
0.111148
0.0926902
0.0781717
0.0666373
0.057187
0.049798
45.0226
13.4729
5.73075
3.07322
1.86023
1.22699
0.87357
0.649772
0.497003
0.389464
0.31127
0.25295
0.208945
0.175167
0.148755
0.127795
0.110995
0.0973891
0.0863199
0.0777929
58.5856
14.5696
6.08947
3.33296
2.08218
1.40267
0.998657
0.740292
0.565911
0.443938
0.35604
0.290958
0.241455
0.203062
0.173203
0.149992
0.131662
0.117203
0.106519
0.099423
16.5373
9.49239
5.0127
2.8606
1.75746
1.1476
0.786934
0.562053
0.415371
0.315952
0.246339
0.19623
0.15923
0.131262
0.109791
0.0932184
0.0801782
0.0696617
0.0606996
0.0565467
13.6679
8.73671
5.07741
3.05388
1.92223
1.26609
0.86929
0.618632
0.453961
0.342036
0.263653
0.207316
0.165907
0.134852
0.11115
0.0926912
0.0781723
0.0666377
0.0571877
0.0497987
12.9054
8.33993
5.07879
3.15547
2.02775
1.3512
0.933536
0.666457
0.489544
0.368592
0.283601
0.222382
0.17732
0.143517
0.117731
0.097749
0.0820573
0.0695874
0.0595606
0.0513435
12.6882
8.1544
5.07113
3.20038
2.07939
1.39506
0.967829
0.692719
0.509634
0.384011
0.295497
0.231639
0.18458
0.149245
0.122267
0.101358
0.0849334
0.0718756
0.0613848
0.0529056
12.6882
8.1544
5.07113
3.20038
2.07939
1.39506
0.967832
0.692723
0.509639
0.384018
0.295505
0.231649
0.184593
0.14926
0.122283
0.101379
0.0849582
0.0719021
0.0614103
0.0529495
12.9054
8.33993
5.07879
3.15547
2.02775
1.35121
0.933543
0.666465
0.489554
0.368606
0.283617
0.222403
0.177346
0.143547
0.117766
0.0977916
0.0821057
0.0696376
0.0596087
0.0513724
13.6679
8.73671
5.07741
3.05388
1.92224
1.2661
0.869295
0.618638
0.453968
0.342046
0.263665
0.20733
0.165925
0.134874
0.111173
0.0927186
0.0781989
0.0666536
0.0571653
0.0502862
16.5373
9.49239
5.0127
2.8606
1.75746
1.1476
0.786934
0.562053
0.415371
0.315952
0.246338
0.19623
0.15923
0.131263
0.10979
0.0932176
0.0801775
0.0696611
0.0606988
0.0565459
58.5856
14.5696
6.08947
3.33295
2.08217
1.40267
0.998654
0.740287
0.565905
0.443925
0.35602
0.290926
0.241407
0.202972
0.173075
0.149789
0.13131
0.116543
0.10525
0.0973323
90.5034
12.1248
4.38869
2.46659
1.63316
1.18307
0.902019
0.72067
0.594597
0.502515
0.432697
0.379313
0.336358
0.299958
0.270331
0.246377
0.226922
0.211526
0.202277
0.194885
58.5856
14.5696
6.08947
3.33295
2.08217
1.40267
0.998654
0.740287
0.565905
0.443925
0.35602
0.290926
0.241407
0.202972
0.173075
0.149789
0.131311
0.116543
0.10525
0.0973325
45.0226
13.4729
5.73075
3.07322
1.86023
1.22699
0.87357
0.649772
0.497003
0.389464
0.31127
0.25295
0.208944
0.175167
0.148755
0.127796
0.110995
0.0973893
0.0863198
0.0777929
38.7028
13.0541
5.74336
3.08733
1.88066
1.2275
0.86947
0.645374
0.492579
0.384763
0.306999
0.24901
0.20493
0.17092
0.144302
0.123187
0.106213
0.092389
0.0810553
0.0724653
36.0571
12.8529
5.76645
3.10211
1.89476
1.22669
0.866498
0.64398
0.492247
0.383959
0.305788
0.247909
0.203904
0.169924
0.143298
0.122147
0.105118
0.0912313
0.0798368
0.0711673
36.0571
12.8529
5.76645
3.10212
1.89476
1.22669
0.866504
0.643988
0.492257
0.383973
0.305808
0.247935
0.203941
0.169976
0.143374
0.122259
0.105286
0.0914828
0.0802369
0.072041
38.7028
13.0541
5.74337
3.08734
1.88067
1.22751
0.869484
0.645392
0.492602
0.384793
0.307042
0.249068
0.205009
0.171032
0.144464
0.123424
0.106566
0.0929227
0.0818168
0.0732224
45.0226
13.4729
5.73075
3.07323
1.86023
1.227
0.873583
0.649788
0.497025
0.3895
0.311315
0.253011
0.209029
0.175286
0.148929
0.128053
0.111385
0.0979926
0.0872813
0.0792179
58.5856
14.5696
6.08947
3.33296
2.08218
1.40267
0.998657
0.740292
0.565912
0.443938
0.35604
0.290958
0.241455
0.203062
0.173203
0.149992
0.131661
0.117203
0.106519
0.0994231
90.5034
12.1248
4.38869
2.46659
1.63316
1.18307
0.902019
0.72067
0.594597
0.502516
0.432697
0.379313
0.336358
0.299958
0.270332
0.246377
0.226922
0.211525
0.202277
0.194885
0.358671
0.285169
0.225247
0.193084
0.174534
0.163494
0.155501
0.148825
0.143316
0.138654
0.134577
0.130847
0.127201
0.123781
0.120592
0.117605
0.114843
0.112294
0.109969
0.107798
0.105786
0.103997
0.102402
0.100929
0.0995806
0.0982954
0.097087
0.0959512
0.0949434
0.0940467
0.0932444
0.0924418
0.0916844
0.0910188
0.0905433
0.0900344
0.0896968
0.0893125
0.0889766
0.0885076
0.11914
0.100974
0.086739
0.0773818
0.0711594
0.0667639
0.063267
0.0602123
0.0575875
0.0552961
0.0532222
0.051392
0.0496663
0.0480817
0.0465583
0.0451431
0.0438685
0.0427028
0.0416508
0.0406901
0.0397963
0.0390218
0.0383348
0.0377361
0.0371777
0.036653
0.0361648
0.0357094
0.0352721
0.0348925
0.0345473
0.0342289
0.0339409
0.0336652
0.0334481
0.0332606
0.0330869
0.032941
0.0328179
0.0326913
0.0785925
0.0709333
0.0642843
0.0588868
0.0542916
0.0503608
0.0471048
0.0443986
0.0420655
0.0400196
0.0382187
0.0366208
0.0352134
0.0339857
0.0327099
0.0315792
0.0305832
0.0296841
0.0288819
0.028151
0.0274215
0.026757
0.0261859
0.0257029
0.0252482
0.0248211
0.0244254
0.0240662
0.0237372
0.0234334
0.0231526
0.0228967
0.022673
0.0224937
0.0223394
0.022166
0.022032
0.0219072
0.0218048
0.0217207
0.074568
0.0633928
0.0566241
0.0514097
0.0471982
0.0437102
0.0407324
0.0381589
0.0359094
0.0339249
0.0321619
0.0305873
0.0291718
0.0278974
0.0267661
0.0257417
0.0248111
0.0239715
0.0232442
0.0224852
0.0218097
0.021217
0.0206721
0.0201792
0.0197598
0.0193764
0.0190251
0.0187124
0.0183978
0.0181114
0.0178666
0.0176524
0.0174622
0.0172952
0.0171466
0.0170152
0.0168989
0.0167943
0.0167054
0.0166307
0.071563
0.0607806
0.0538091
0.0485367
0.0443123
0.0408182
0.0378827
0.0353672
0.033156
0.031195
0.0294473
0.0278861
0.0264863
0.025228
0.0240947
0.0230715
0.0221454
0.0213161
0.0205625
0.0198798
0.0192674
0.0187175
0.0182181
0.0177371
0.0173187
0.0169427
0.0166042
0.0163029
0.0160009
0.0157222
0.0155049
0.0153165
0.0151431
0.0149919
0.0148505
0.0147237
0.0146077
0.0145135
0.0144344
0.0143685
0.070128
0.0600593
0.0531773
0.0479096
0.0436438
0.040088
0.0370703
0.0344847
0.0322243
0.0302171
0.0284309
0.0268354
0.0254074
0.0241281
0.0229798
0.0219487
0.0210242
0.0201932
0.0194455
0.0187743
0.0181809
0.0176509
0.017171
0.016754
0.016322
0.0159297
0.0155806
0.0152796
0.0149824
0.0147133
0.0145091
0.01432
0.0141467
0.0139909
0.0138426
0.0137127
0.0136063
0.0135175
0.013448
0.0133837
0.0671038
0.0601159
0.0540871
0.0489619
0.0446038
0.0408758
0.0376838
0.03494
0.0325479
0.0304506
0.028605
0.0269761
0.0255319
0.024246
0.0230968
0.0220671
0.021143
0.0203139
0.0195699
0.0189028
0.0183125
0.0177845
0.0173059
0.0168756
0.0164605
0.0160641
0.0157104
0.0154043
0.0150972
0.0148147
0.014596
0.014395
0.0142136
0.0140557
0.0139081
0.0137878
0.0136794
0.0135877
0.0135041
0.0134329
0.0760807
0.0666424
0.059046
0.0528346
0.0476873
0.0434526
0.039897
0.0369209
0.0344104
0.0322534
0.0303696
0.0287144
0.0272481
0.0259427
0.0247785
0.0237313
0.0227938
0.0219628
0.0212164
0.020543
0.0199364
0.0193971
0.0188689
0.0183883
0.017983
0.0176015
0.0172451
0.0169277
0.0165931
0.0162974
0.0160598
0.0158471
0.0156551
0.0154858
0.0153363
0.0152155
0.0151096
0.0149963
0.0148942
0.0148112
0.0975244
0.0813688
0.0694121
0.0605181
0.0535067
0.048684
0.0450361
0.0420431
0.0395145
0.0373365
0.0354244
0.0337662
0.0322752
0.0309237
0.0297501
0.0285468
0.0274996
0.0265824
0.0257551
0.0250012
0.0243095
0.023689
0.0231103
0.0225846
0.0221249
0.0216884
0.0212906
0.0209286
0.020587
0.0202781
0.0200098
0.0197705
0.0195597
0.0193774
0.0192163
0.0190828
0.0189579
0.0188365
0.0187284
0.0186319
0.140526
0.116498
0.0958929
0.0817708
0.072336
0.0662649
0.061927
0.0583771
0.0554988
0.0530249
0.0508367
0.0490267
0.0470934
0.0453164
0.0437394
0.0422727
0.0409361
0.0397189
0.0386158
0.0376063
0.0366968
0.0359098
0.0351982
0.0345489
0.0339566
0.0334113
0.0329119
0.0324527
0.0320066
0.0316086
0.0312666
0.0309573
0.0306787
0.0304297
0.0301871
0.030028
0.0298563
0.0297077
0.0295772
0.029432
0.358678
0.28518
0.225258
0.193106
0.174574
0.16353
0.155532
0.148846
0.143327
0.13865
0.134578
0.130834
0.127186
0.123757
0.120571
0.117585
0.114825
0.112277
0.109951
0.107781
0.105772
0.103991
0.102398
0.100929
0.0995628
0.0982821
0.0970778
0.0959478
0.0949414
0.094054
0.093226
0.0924381
0.0916922
0.0910352
0.0904909
0.0901465
0.0897565
0.0893411
0.0889466
0.0883656
0.140526
0.116493
0.0958939
0.0817528
0.0723088
0.0662405
0.0619111
0.0583685
0.055495
0.0530267
0.0508343
0.0490336
0.0471077
0.0453264
0.0437506
0.0422826
0.0409535
0.0397333
0.0386334
0.0376234
0.0367108
0.0359233
0.0352112
0.0345681
0.0339749
0.0334323
0.0329336
0.0324744
0.0320267
0.031636
0.0312904
0.0309817
0.0307018
0.0304298
0.0302616
0.0300709
0.0298808
0.0297324
0.0296089
0.0294751
0.0621212
0.0536072
0.0457219
0.0395839
0.0353433
0.0324031
0.0301412
0.0281873
0.0265314
0.0250984
0.0238101
0.022666
0.0216368
0.0205787
0.019718
0.0188581
0.0181316
0.0174427
0.0168634
0.0163045
0.0157692
0.0153535
0.0148839
0.0146813
0.0143921
0.0140459
0.0137647
0.0135114
0.013284
0.0132981
0.0130402
0.0127505
0.0125673
0.0124487
0.0126176
0.0123728
0.0121731
0.0120551
0.011984
0.0119237
0.0511204
0.0426631
0.0366969
0.0317423
0.0284966
0.0259699
0.0238151
0.0219832
0.0204263
0.0190415
0.0178566
0.0166695
0.0159642
0.0148114
0.0142282
0.0133562
0.0128878
0.0122111
0.011818
0.0113128
0.0108983
0.0105904
0.0101569
0.00997597
0.00970817
0.00941158
0.00923238
0.00899245
0.00881607
0.00884139
0.00867951
0.00840301
0.00828566
0.00810958
0.00812689
0.00823748
0.0080837
0.0078606
0.00776945
0.00767269
0.0461417
0.0402041
0.0351995
0.0310008
0.0273797
0.0243707
0.0222003
0.0203687
0.0187641
0.0173554
0.0161162
0.015026
0.0140745
0.0131993
0.0124258
0.0117408
0.0111328
0.0106045
0.0100621
0.00970699
0.00916514
0.00889916
0.00848516
0.00836251
0.00798929
0.00782614
0.00753991
0.00741555
0.00720975
0.00723688
0.00709028
0.0068563
0.0067655
0.00658048
0.0065477
0.00665254
0.006553
0.00635442
0.00631461
0.00618748
0.0465489
0.0403865
0.0353078
0.031109
0.0276094
0.0246847
0.0219881
0.019772
0.0181655
0.0167541
0.0154987
0.01439
0.0134151
0.012529
0.0117411
0.0110392
0.0104133
0.00985448
0.00935411
0.00890816
0.00851006
0.00816012
0.00785319
0.00758017
0.00733113
0.00708342
0.00686929
0.00668387
0.00652521
0.00651793
0.0063584
0.00617549
0.00607698
0.00589194
0.00585203
0.00594363
0.00584268
0.00569778
0.0056412
0.00551473
0.0460467
0.040206
0.0352634
0.0311124
0.0276135
0.0246689
0.0220678
0.0197152
0.0178894
0.0165034
0.0152515
0.0141354
0.0131464
0.0122504
0.0114525
0.0107433
0.0101119
0.00954888
0.00904623
0.00859818
0.00819943
0.00784736
0.00755391
0.00731175
0.00703552
0.00678832
0.00658288
0.00639695
0.00624201
0.00623614
0.00607088
0.00591508
0.00578229
0.00566251
0.00558363
0.00569372
0.00557213
0.00549721
0.00532796
0.00528373
0.0458928
0.040141
0.0351755
0.0309691
0.0274162
0.0244214
0.0216991
0.0194668
0.0178216
0.0164178
0.0151641
0.0140583
0.0130861
0.0122022
0.0114175
0.0107196
0.0100976
0.00954351
0.00904972
0.00860995
0.00821882
0.0078702
0.00758189
0.00732208
0.00708154
0.00681651
0.0066351
0.00644619
0.0063155
0.00630636
0.00614601
0.00596259
0.00586937
0.00567251
0.00564333
0.00576331
0.00564182
0.00556581
0.00539851
0.00535678
0.0501223
0.041946
0.0357936
0.0310002
0.027106
0.0238821
0.0215091
0.0196965
0.0181088
0.0167187
0.0155
0.0144346
0.0134957
0.012637
0.0118711
0.0111901
0.0105723
0.0100318
0.00954207
0.00910375
0.00873615
0.00833457
0.00803903
0.00774554
0.00757463
0.00725652
0.00713521
0.00686416
0.00675782
0.00675981
0.00661852
0.00637551
0.00629174
0.00609689
0.00603789
0.00605459
0.00619773
0.00608291
0.00587423
0.00580209
0.0542371
0.0438889
0.0367672
0.0313663
0.0276966
0.0251417
0.0230046
0.0211865
0.0196241
0.0182667
0.0170898
0.016035
0.0150947
0.0142322
0.0134149
0.012818
0.0120147
0.0115781
0.0109364
0.0106105
0.0100852
0.00981552
0.00938079
0.00919518
0.00895237
0.00863514
0.00849271
0.00820782
0.00808479
0.00809221
0.00792656
0.0076471
0.00754577
0.0073636
0.00731293
0.0073372
0.00747544
0.00732726
0.0070963
0.00701459
0.0621251
0.0536112
0.0457123
0.0395975
0.0352981
0.0323986
0.0301458
0.0281922
0.0265351
0.0251012
0.0238023
0.0226584
0.021633
0.0205921
0.0197018
0.0188553
0.0181242
0.0174393
0.016859
0.0162937
0.0157755
0.0153265
0.0148946
0.014661
0.0144062
0.0140441
0.0137579
0.0135062
0.0132789
0.0132934
0.0130324
0.0127443
0.0125614
0.0124249
0.0123036
0.0123087
0.0124643
0.0122379
0.0120337
0.0119249
0.119141
0.100982
0.0867423
0.0773833
0.071188
0.066793
0.0632893
0.0602273
0.0575973
0.0552991
0.0532286
0.0513879
0.0496593
0.0480755
0.0465512
0.0451389
0.043863
0.0426998
0.0416497
0.0406889
0.0398013
0.0390284
0.0383438
0.0377444
0.037185
0.03666
0.0361746
0.0357223
0.0352852
0.0349067
0.0345586
0.0342385
0.0339505
0.0336953
0.0334564
0.0332938
0.0331317
0.0329684
0.0328218
0.0326661
0.0975239
0.0813673
0.0694299
0.0605286
0.0535061
0.0486824
0.0450371
0.0420465
0.0395192
0.0373421
0.0354301
0.0337719
0.0322839
0.0309292
0.0297578
0.0285554
0.0275194
0.0265974
0.0257745
0.0250209
0.0243277
0.0237085
0.02313
0.0226068
0.0221478
0.0217124
0.0213162
0.0209571
0.0206187
0.0203113
0.020042
0.0198022
0.0195904
0.0194058
0.0192509
0.0191461
0.0190375
0.018906
0.0187898
0.0186883
0.0542405
0.0438702
0.0367089
0.031399
0.0277131
0.0251443
0.0230016
0.021182
0.0196197
0.0182628
0.0170838
0.0160183
0.015155
0.0141788
0.0135486
0.0126278
0.012152
0.0114294
0.0110171
0.010597
0.0100738
0.00981511
0.00937399
0.00921083
0.00892607
0.00863929
0.00848205
0.00820201
0.00807064
0.00809553
0.00791776
0.00764273
0.00752765
0.00735511
0.00739193
0.00752775
0.00733856
0.00717277
0.00703593
0.00694307
0.0459845
0.0398971
0.034606
0.0301618
0.0264894
0.0235309
0.0210949
0.0190602
0.0173383
0.0158604
0.014583
0.0134555
0.0124988
0.0116113
0.0108435
0.0101353
0.0094466
0.00888684
0.00849678
0.00807733
0.00769689
0.00733905
0.00697394
0.00674837
0.00653489
0.00626891
0.00612385
0.00589464
0.00575545
0.0057896
0.00566959
0.00545805
0.00535074
0.00517962
0.00511884
0.00530288
0.00520615
0.00500794
0.0049383
0.00480374
0.047804
0.0414042
0.0360684
0.0315904
0.0278244
0.0246541
0.0220055
0.0197607
0.0178421
0.0161905
0.0147601
0.0135103
0.012432
0.0114696
0.0106182
0.00986625
0.00918655
0.00858623
0.00805733
0.00759085
0.00716927
0.00671478
0.006423
0.00623948
0.00599625
0.00577416
0.00554821
0.00538505
0.00519362
0.00522149
0.00507514
0.00493918
0.00482952
0.00465517
0.00457629
0.00473305
0.00463213
0.00449166
0.00442536
0.00427602
0.0493085
0.042883
0.0374515
0.0328626
0.0289791
0.0256857
0.0228671
0.0204553
0.0184078
0.016652
0.015131
0.0138034
0.0126605
0.0116434
0.010746
0.00995186
0.00924626
0.0086178
0.0080569
0.00755756
0.00711062
0.00671235
0.00631177
0.00602367
0.00581076
0.00559365
0.00539895
0.0052297
0.0050826
0.00507805
0.00492437
0.00478393
0.00466146
0.00454701
0.00444467
0.00456603
0.00446114
0.00436941
0.00426607
0.00417378
0.0502632
0.0436217
0.0380522
0.0333658
0.0294065
0.0260481
0.0231779
0.0207075
0.0185957
0.0167942
0.0152408
0.0138879
0.0127234
0.011689
0.0107769
0.00997021
0.00925446
0.00861621
0.00804809
0.00754223
0.00708987
0.00669262
0.00629692
0.0060158
0.00573248
0.00557591
0.00535177
0.00509104
0.00501344
0.0050218
0.00487569
0.00473915
0.00461522
0.004516
0.00442062
0.00453635
0.00443208
0.00433665
0.0042393
0.00414839
0.0501498
0.0432835
0.0376227
0.0329059
0.0289465
0.0256035
0.0227573
0.0203331
0.0182737
0.0165103
0.01499
0.0136697
0.0125358
0.0115267
0.0106374
0.00985064
0.00915115
0.00852947
0.00797754
0.00748495
0.00704356
0.00665347
0.00625688
0.00597126
0.00573354
0.00553829
0.00534124
0.00518587
0.00505482
0.00505457
0.00490527
0.0047679
0.00465101