/*--------------------------------*- C++ -*----------------------------------*\
| =========                 |                                                 |
| \\      /  F ield         | OpenFOAM: The Open Source CFD Toolbox           |
|  \\    /   O peration     | Version:  2212                                  |
|   \\  /    A nd           | Website:  www.openfoam.com                      |
|    \\/     M anipulation  |                                                 |
\*---------------------------------------------------------------------------*/
FoamFile
{
    version     2.0;
    format      ascii;
    arch        "LSB;label=32;scalar=64";
    class       volScalarField;
    location    "1.05";
    object      k;
}
// * * * * * * * * * * * * * * * * * * * * * * * * * * * * * * * * * * * * * //

dimensions      [0 2 -2 0 0 0 0];

internalField   nonuniform List<scalar> 
6840
(
0.213564
0.055916
0.0283994
0.0193412
0.0146928
0.0118511
0.00989073
0.00851612
0.00749144
0.00669652
0.0060609
0.00555152
0.005124
0.00474721
0.00442907
0.00416318
0.00394074
0.00375986
0.00364734
0.00355637
0.264759
0.104702
0.0585298
0.0391631
0.02862
0.0219935
0.0175362
0.0143635
0.0120085
0.0102142
0.00881702
0.00770682
0.00680578
0.00606373
0.00545365
0.00495479
0.0045424
0.00420347
0.00394371
0.00376513
0.283364
0.126774
0.071702
0.0473282
0.0338664
0.0256617
0.020461
0.0167972
0.0140489
0.0119416
0.0102847
0.00895679
0.00788614
0.00701285
0.00629102
0.00568856
0.0051837
0.00475961
0.00440666
0.00413237
0.292299
0.141633
0.0819302
0.0541654
0.0389231
0.0292875
0.0232724
0.0190787
0.0159342
0.0135151
0.011627
0.010113
0.00888224
0.00787159
0.00703382
0.00633332
0.00574292
0.00524202
0.00481586
0.00446965
0.295943
0.148782
0.0871941
0.0576749
0.0415194
0.0310722
0.024645
0.0202209
0.0169048
0.0143246
0.0123079
0.0107015
0.00939492
0.00832057
0.0074282
0.00667995
0.00604681
0.00550661
0.00504639
0.00469759
0.295943
0.148782
0.0871941
0.0576749
0.0415193
0.0310721
0.0246449
0.0202207
0.0169046
0.0143243
0.0123073
0.0107007
0.00939367
0.00831871
0.00742535
0.00667551
0.00603987
0.00549578
0.00502871
0.00466083
0.292299
0.141633
0.0819301
0.0541653
0.038923
0.0292873
0.0232721
0.0190783
0.0159337
0.0135143
0.0116258
0.0101113
0.00887971
0.0078678
0.00702805
0.0063244
0.00572897
0.00522
0.00478297
0.00443542
0.283364
0.126774
0.071702
0.0473282
0.0338662
0.0256616
0.0204608
0.0167969
0.0140485
0.0119408
0.0102836
0.0089552
0.00788381
0.00700934
0.00628558
0.0056801
0.00517024
0.00473781
0.00437062
0.00407972
0.264759
0.104702
0.0585298
0.0391631
0.0286199
0.0219935
0.0175361
0.0143634
0.0120084
0.010214
0.00881666
0.0077062
0.00680476
0.00606169
0.00545061
0.00494978
0.00453333
0.00418569
0.00390846
0.00370472
0.213564
0.055916
0.0283994
0.0193412
0.0146928
0.0118511
0.00989073
0.00851612
0.00749144
0.00669652
0.0060609
0.00555152
0.005124
0.00474721
0.00442908
0.00416318
0.00394074
0.00375985
0.00364732
0.00355629
0.264759
0.104702
0.0585298
0.0391631
0.0286199
0.0219935
0.0175361
0.0143634
0.0120084
0.010214
0.00881666
0.0077062
0.00680476
0.0060617
0.00545061
0.00494977
0.00453333
0.0041857
0.00390848
0.00370488
0.311746
0.197541
0.130357
0.0911457
0.0668023
0.0508112
0.0397945
0.0319123
0.0260945
0.0216876
0.0182771
0.0155892
0.0134419
0.0116994
0.010269
0.00908231
0.00808857
0.0072503
0.00655402
0.00588343
0.31754
0.217754
0.151086
0.108549
0.0807157
0.0618727
0.0486775
0.039142
0.0320589
0.0266719
0.0224906
0.0191879
0.0165398
0.014388
0.0126192
0.0111517
0.00992377
0.00888831
0.00801396
0.00726452
0.319723
0.227073
0.162232
0.118772
0.0893612
0.0689929
0.0545307
0.0439846
0.0361
0.030075
0.0253825
0.0216657
0.0186784
0.0162462
0.0142433
0.0125773
0.0111791
0.00999602
0.00898716
0.008123
0.320484
0.23086
0.167176
0.123531
0.0935159
0.0724825
0.0574406
0.0464211
0.0381536
0.0318169
0.0268704
0.0229459
0.0197868
0.0172111
0.0150871
0.0133176
0.0118294
0.0105665
0.00948572
0.0085545
0.320484
0.23086
0.167176
0.123531
0.0935158
0.0724823
0.0574404
0.0464208
0.0381531
0.0318163
0.0268695
0.0229446
0.019785
0.0172084
0.0150832
0.0133119
0.0118211
0.0105544
0.00946743
0.00850962
0.319723
0.227073
0.162232
0.118772
0.0893609
0.0689925
0.0545302
0.043984
0.0360991
0.0300737
0.0253807
0.0216631
0.0186746
0.0162409
0.0142356
0.012566
0.0111624
0.00997134
0.00895119
0.00806708
0.31754
0.217754
0.151085
0.108549
0.0807155
0.0618725
0.0486772
0.0391415
0.0320583
0.026671
0.0224892
0.019186
0.0165371
0.0143842
0.0126136
0.0111434
0.00991135
0.00886932
0.00798336
0.00722676
0.311746
0.197541
0.130357
0.0911457
0.0668023
0.0508112
0.0397945
0.0319123
0.0260945
0.0216876
0.0182771
0.0155892
0.0134419
0.0116994
0.010269
0.00908231
0.00808856
0.00725029
0.006554
0.0058834
0.264759
0.104702
0.0585298
0.0391631
0.02862
0.0219935
0.0175362
0.0143635
0.0120085
0.0102142
0.00881702
0.00770682
0.00680578
0.00606372
0.00545365
0.00495479
0.0045424
0.00420346
0.0039437
0.00376511
0.283364
0.126774
0.071702
0.0473282
0.0338662
0.0256616
0.0204608
0.0167969
0.0140485
0.0119408
0.0102836
0.0089552
0.0078838
0.00700935
0.00628559
0.0056801
0.00517025
0.00473781
0.00437063
0.00407978
0.31754
0.217754
0.151085
0.108549
0.0807155
0.0618725
0.0486772
0.0391415
0.0320583
0.026671
0.0224892
0.019186
0.0165371
0.0143842
0.0126136
0.0111435
0.00991136
0.00886933
0.00798337
0.00722668
0.322005
0.239026
0.177588
0.133616
0.102323
0.0798669
0.0635106
0.0513821
0.0422217
0.0351795
0.0296759
0.0253096
0.0217984
0.0189402
0.0165875
0.0146318
0.0129915
0.0116041
0.0104195
0.00937718
0.323293
0.245617
0.187499
0.144537
0.112864
0.089404
0.0718634
0.0585866
0.0483998
0.0404745
0.0342251
0.0292339
0.0251999
0.0219038
0.0191835
0.0169174
0.0150136
0.0134008
0.0120213
0.0108173
0.323714
0.247819
0.191099
0.14881
0.117249
0.0935707
0.0756573
0.0619605
0.0513627
0.0430611
0.0364791
0.0311993
0.0269174
0.023409
0.0205071
0.0180854
0.0160476
0.0143184
0.0128356
0.0115334
0.323714
0.247819
0.191099
0.14881
0.117249
0.0935706
0.0756571
0.0619603
0.0513624
0.0430608
0.0364786
0.0311986
0.0269164
0.0234077
0.0205052
0.0180829
0.0160441
0.0143137
0.0128286
0.0115188
0.323293
0.245617
0.187499
0.144537
0.112864
0.0894038
0.0718631
0.0585863
0.0483993
0.0404739
0.0342243
0.0292327
0.0251984
0.0219017
0.0191804
0.0169131
0.0150077
0.0133926
0.0120087
0.0107892
0.322005
0.239026
0.177588
0.133616
0.102323
0.0798669
0.0635106
0.0513821
0.0422217
0.0351795
0.0296759
0.0253096
0.0217984
0.0189402
0.0165875
0.0146318
0.0129915
0.0116041
0.0104195
0.00937718
0.31754
0.217754
0.151086
0.108549
0.0807157
0.0618727
0.0486775
0.039142
0.0320589
0.0266719
0.0224906
0.0191879
0.0165398
0.014388
0.0126192
0.0111517
0.00992377
0.00888829
0.00801394
0.00726452
0.283364
0.126774
0.071702
0.0473282
0.0338664
0.0256617
0.020461
0.0167972
0.0140489
0.0119416
0.0102847
0.00895679
0.00788614
0.00701285
0.00629102
0.00568857
0.0051837
0.00475961
0.00440666
0.00413242
0.292299
0.141633
0.0819301
0.0541653
0.038923
0.0292873
0.0232721
0.0190783
0.0159337
0.0135143
0.0116258
0.0101113
0.00887971
0.00786781
0.00702806
0.00632441
0.00572897
0.00522
0.00478297
0.00443539
0.319723
0.227073
0.162232
0.118772
0.0893609
0.0689925
0.0545302
0.043984
0.0360991
0.0300737
0.0253807
0.0216631
0.0186746
0.0162409
0.0142356
0.012566
0.0111624
0.00997133
0.00895117
0.00806702
0.323293
0.245617
0.187499
0.144537
0.112864
0.0894038
0.0718631
0.0585863
0.0483993
0.0404739
0.0342243
0.0292327
0.0251983
0.0219017
0.0191804
0.0169131
0.0150077
0.0133925
0.0120087
0.0107891
0.324288
0.250862
0.19613
0.154888
0.123591
0.09968
0.0812741
0.0669838
0.0557848
0.0469224
0.0398396
0.0341238
0.0294676
0.0256403
0.0224674
0.0198156
0.017582
0.0156854
0.0140571
0.0126232
0.32459
0.252403
0.19891
0.158543
0.12769
0.103871
0.08532
0.0707499
0.0592099
0.0499927
0.0425684
0.0365383
0.0316005
0.0275249
0.0241352
0.0212951
0.0188981
0.0168589
0.0151029
0.0135423
0.32459
0.252403
0.19891
0.158543
0.12769
0.103871
0.08532
0.0707498
0.0592098
0.0499925
0.0425682
0.0365381
0.0316002
0.0275246
0.0241348
0.0212945
0.0188974
0.0168581
0.0151025
0.0135459
0.324288
0.250862
0.19613
0.154888
0.123591
0.09968
0.0812741
0.0669838
0.0557848
0.0469224
0.0398396
0.0341238
0.0294676
0.0256403
0.0224674
0.0198156
0.017582
0.0156854
0.0140571
0.0126233
0.323293
0.245617
0.187499
0.144537
0.112864
0.089404
0.0718634
0.0585866
0.0483998
0.0404745
0.0342251
0.0292339
0.0251999
0.0219038
0.0191835
0.0169174
0.0150136
0.0134008
0.0120213
0.0108174
0.319723
0.227073
0.162232
0.118772
0.0893612
0.0689929
0.0545307
0.0439846
0.0361
0.030075
0.0253825
0.0216657
0.0186783
0.0162461
0.0142433
0.0125773
0.0111791
0.00999601
0.00898715
0.00812306
0.292299
0.141633
0.0819302
0.0541654
0.0389231
0.0292875
0.0232724
0.0190787
0.0159342
0.0135151
0.011627
0.010113
0.00888223
0.00787159
0.00703383
0.00633333
0.00574293
0.00524203
0.00481587
0.00446967
0.295943
0.148782
0.0871941
0.0576749
0.0415193
0.0310721
0.0246449
0.0202207
0.0169046
0.0143243
0.0123073
0.0107007
0.00939367
0.00831871
0.00742535
0.00667551
0.00603987
0.00549578
0.00502871
0.00466084
0.320484
0.23086
0.167176
0.123531
0.0935158
0.0724823
0.0574404
0.0464208
0.0381531
0.0318163
0.0268695
0.0229446
0.019785
0.0172084
0.0150832
0.0133119
0.0118211
0.0105544
0.00946741
0.00850958
0.323714
0.247819
0.191099
0.14881
0.117249
0.0935706
0.0756571
0.0619603
0.0513624
0.0430608
0.0364786
0.0311986
0.0269164
0.0234077
0.0205052
0.0180829
0.0160441
0.0143136
0.0128286
0.0115188
0.32459
0.252403
0.19891
0.158543
0.12769
0.103871
0.08532
0.0707498
0.0592098
0.0499925
0.0425682
0.0365381
0.0316002
0.0275246
0.0241348
0.0212945
0.0188974
0.0168581
0.0151025
0.0135458
0.324844
0.253685
0.20131
0.161836
0.131535
0.107943
0.0893701
0.0746125
0.0627921
0.0532535
0.0455014
0.0391574
0.0339304
0.0295946
0.0259744
0.0229319
0.0203579
0.0181638
0.0162704
0.0145854
0.324844
0.253685
0.20131
0.161836
0.131535
0.107943
0.0893701
0.0746125
0.0627921
0.0532535
0.0455014
0.0391574
0.0339304
0.0295946
0.0259744
0.0229319
0.0203579
0.0181638
0.0162704
0.0145854
0.32459
0.252403
0.19891
0.158543
0.12769
0.103871
0.08532
0.0707499
0.0592099
0.0499927
0.0425684
0.0365383
0.0316005
0.0275249
0.0241352
0.0212951
0.0188981
0.0168589
0.0151029
0.0135423
0.323714
0.247819
0.191099
0.14881
0.117249
0.0935707
0.0756573
0.0619605
0.0513626
0.0430611
0.0364791
0.0311993
0.0269173
0.023409
0.0205071
0.0180854
0.0160476
0.0143184
0.0128356
0.0115334
0.320484
0.23086
0.167176
0.123531
0.0935159
0.0724825
0.0574406
0.0464211
0.0381536
0.0318169
0.0268704
0.0229459
0.0197868
0.0172111
0.0150871
0.0133176
0.0118294
0.0105665
0.00948572
0.0085545
0.295943
0.148782
0.0871941
0.0576749
0.0415194
0.0310722
0.024645
0.0202209
0.0169048
0.0143246
0.0123079
0.0107015
0.00939491
0.00832057
0.00742822
0.00667996
0.00604682
0.00550662
0.0050464
0.0046976
0.295943
0.148782
0.0871941
0.0576749
0.0415194
0.0310722
0.024645
0.0202209
0.0169048
0.0143246
0.0123079
0.0107015
0.00939492
0.00832057
0.0074282
0.00667995
0.00604681
0.00550661
0.00504639
0.00469759
0.320484
0.23086
0.167176
0.123531
0.0935159
0.0724825
0.0574406
0.0464211
0.0381536
0.0318169
0.0268704
0.0229459
0.0197868
0.0172111
0.0150871
0.0133176
0.0118294
0.0105665
0.00948573
0.00855452
0.323714
0.247819
0.191099
0.14881
0.117249
0.0935707
0.0756573
0.0619605
0.0513627
0.0430611
0.0364791
0.0311993
0.0269174
0.023409
0.0205071
0.0180854
0.0160476
0.0143184
0.0128356
0.0115334
0.32459
0.252403
0.19891
0.158543
0.12769
0.103871
0.08532
0.0707499
0.0592099
0.0499927
0.0425684
0.0365383
0.0316005
0.0275249
0.0241352
0.0212951
0.0188981
0.0168589
0.015103
0.0135423
0.324844
0.253685
0.20131
0.161836
0.131535
0.107943
0.0893701
0.0746125
0.0627921
0.0532535
0.0455014
0.0391574
0.0339304
0.0295946
0.0259744
0.0229319
0.0203579
0.0181638
0.0162704
0.0145854
0.324844
0.253685
0.20131
0.161836
0.131535
0.107943
0.0893701
0.0746125
0.0627921
0.0532535
0.0455014
0.0391574
0.0339304
0.0295946
0.0259744
0.0229319
0.0203579
0.0181638
0.0162704
0.0145854
0.32459
0.252403
0.19891
0.158543
0.12769
0.103871
0.08532
0.0707498
0.0592098
0.0499925
0.0425682
0.0365381
0.0316002
0.0275245
0.0241348
0.0212945
0.0188974
0.0168581
0.0151025
0.0135459
0.323714
0.247819
0.191099
0.14881
0.117249
0.0935706
0.0756571
0.0619603
0.0513624
0.0430608
0.0364785
0.0311985
0.0269164
0.0234077
0.0205052
0.0180829
0.0160441
0.0143137
0.0128286
0.0115188
0.320484
0.23086
0.167176
0.123531
0.0935158
0.0724823
0.0574404
0.0464208
0.0381531
0.0318163
0.0268695
0.0229446
0.019785
0.0172084
0.0150832
0.0133119
0.0118211
0.0105544
0.00946743
0.0085096
0.295943
0.148782
0.0871941
0.0576749
0.0415193
0.0310721
0.0246449
0.0202207
0.0169046
0.0143243
0.0123073
0.0107007
0.00939367
0.0083187
0.00742536
0.00667552
0.00603987
0.00549578
0.00502872
0.00466084
0.292299
0.141633
0.0819302
0.0541654
0.0389231
0.0292875
0.0232724
0.0190787
0.0159342
0.0135151
0.011627
0.010113
0.00888223
0.00787159
0.00703382
0.00633332
0.00574292
0.00524202
0.00481587
0.00446968
0.319723
0.227073
0.162232
0.118772
0.0893612
0.0689929
0.0545307
0.0439846
0.0361
0.030075
0.0253825
0.0216657
0.0186784
0.0162462
0.0142433
0.0125773
0.0111791
0.00999603
0.00898718
0.00812311
0.323293
0.245617
0.187499
0.144537
0.112864
0.089404
0.0718634
0.0585866
0.0483998
0.0404745
0.0342251
0.0292339
0.0251999
0.0219039
0.0191835
0.0169174
0.0150136
0.0134008
0.0120213
0.0108174
0.324288
0.250862
0.19613
0.154888
0.123591
0.09968
0.0812741
0.0669838
0.0557848
0.0469224
0.0398396
0.0341238
0.0294676
0.0256403
0.0224674
0.0198156
0.017582
0.0156854
0.0140571
0.0126234
0.32459
0.252403
0.19891
0.158543
0.12769
0.103871
0.08532
0.0707498
0.0592098
0.0499925
0.0425682
0.0365381
0.0316002
0.0275246
0.0241348
0.0212945
0.0188974
0.0168581
0.0151025
0.0135459
0.32459
0.252403
0.19891
0.158543
0.12769
0.103871
0.08532
0.0707499
0.0592099
0.0499927
0.0425684
0.0365383
0.0316005
0.0275249
0.0241352
0.0212951
0.0188981
0.0168589
0.0151029
0.0135423
0.324288
0.250862
0.19613
0.154888
0.123591
0.09968
0.0812741
0.0669838
0.0557848
0.0469224
0.0398396
0.0341238
0.0294676
0.0256403
0.0224674
0.0198156
0.017582
0.0156854
0.0140571
0.0126234
0.323293
0.245617
0.187499
0.144537
0.112864
0.0894038
0.0718631
0.0585863
0.0483993
0.0404739
0.0342243
0.0292327
0.0251984
0.0219017
0.0191804
0.0169131
0.0150077
0.0133925
0.0120087
0.0107891
0.319723
0.227073
0.162232
0.118772
0.0893609
0.0689925
0.0545302
0.043984
0.0360991
0.0300737
0.0253807
0.0216631
0.0186746
0.0162408
0.0142356
0.012566
0.0111624
0.00997133
0.00895117
0.00806704
0.292299
0.141633
0.0819301
0.0541653
0.038923
0.0292873
0.0232721
0.0190783
0.0159337
0.0135143
0.0116258
0.0101113
0.00887971
0.0078678
0.00702805
0.0063244
0.00572896
0.00522
0.00478296
0.00443538
0.283364
0.126774
0.071702
0.0473282
0.0338664
0.0256617
0.020461
0.0167972
0.0140489
0.0119416
0.0102847
0.00895679
0.00788614
0.00701285
0.00629102
0.00568856
0.00518369
0.00475961
0.00440667
0.00413243
0.31754
0.217754
0.151086
0.108549
0.0807157
0.0618727
0.0486775
0.039142
0.0320589
0.0266719
0.0224906
0.0191879
0.0165398
0.014388
0.0126192
0.0111517
0.00992378
0.00888831
0.00801397
0.00726457
0.322005
0.239026
0.177588
0.133616
0.102323
0.0798669
0.0635106
0.0513821
0.0422217
0.0351795
0.0296759
0.0253096
0.0217984
0.0189402
0.0165876
0.0146318
0.0129915
0.0116041
0.0104195
0.00937724
0.323293
0.245617
0.187499
0.144537
0.112864
0.0894038
0.0718631
0.0585863
0.0483993
0.0404739
0.0342243
0.0292327
0.0251983
0.0219017
0.0191804
0.0169132
0.0150077
0.0133926
0.0120087
0.0107891
0.323714
0.247819
0.191099
0.14881
0.117249
0.0935706
0.0756571
0.0619603
0.0513624
0.0430608
0.0364785
0.0311985
0.0269164
0.0234077
0.0205052
0.0180829
0.0160441
0.0143136
0.0128286
0.0115188
0.323714
0.247819
0.191099
0.14881
0.117249
0.0935707
0.0756573
0.0619605
0.0513627
0.0430611
0.0364791
0.0311993
0.0269174
0.023409
0.0205071
0.0180854
0.0160476
0.0143184
0.0128356
0.0115333
0.323293
0.245617
0.187499
0.144537
0.112864
0.089404
0.0718634
0.0585866
0.0483998
0.0404745
0.0342251
0.0292339
0.0251999
0.0219038
0.0191834
0.0169174
0.0150136
0.0134008
0.0120213
0.0108174
0.322005
0.239026
0.177588
0.133616
0.102323
0.0798669
0.0635106
0.0513821
0.0422217
0.0351795
0.0296759
0.0253096
0.0217984
0.0189401
0.0165875
0.0146318
0.0129915
0.0116041
0.0104195
0.0093772
0.31754
0.217754
0.151085
0.108549
0.0807155
0.0618725
0.0486772
0.0391415
0.0320583
0.026671
0.0224892
0.019186
0.0165371
0.0143842
0.0126136
0.0111434
0.00991135
0.00886932
0.00798336
0.00722669
0.283364
0.126774
0.071702
0.0473282
0.0338662
0.0256616
0.0204608
0.0167969
0.0140485
0.0119408
0.0102836
0.00895519
0.00788381
0.00700934
0.00628558
0.00568009
0.00517024
0.0047378
0.00437062
0.00407979
0.264759
0.104702
0.0585298
0.0391631
0.02862
0.0219935
0.0175362
0.0143635
0.0120085
0.0102142
0.00881702
0.00770682
0.00680578
0.00606373
0.00545365
0.00495479
0.0045424
0.00420347
0.00394371
0.00376514
0.311746
0.197541
0.130357
0.0911457
0.0668023
0.0508112
0.0397945
0.0319123
0.0260945
0.0216876
0.0182771
0.0155892
0.0134419
0.0116994
0.010269
0.00908231
0.00808857
0.0072503
0.00655402
0.00588344
0.31754
0.217754
0.151085
0.108549
0.0807155
0.0618725
0.0486772
0.0391415
0.0320583
0.026671
0.0224892
0.019186
0.0165371
0.0143842
0.0126136
0.0111435
0.00991137
0.00886933
0.00798337
0.00722669
0.319723
0.227073
0.162232
0.118772
0.0893609
0.0689925
0.0545302
0.043984
0.0360991
0.0300737
0.0253807
0.0216631
0.0186746
0.0162409
0.0142356
0.012566
0.0111624
0.00997133
0.00895116
0.00806703
0.320484
0.23086
0.167176
0.123531
0.0935158
0.0724823
0.0574404
0.0464208
0.0381531
0.0318163
0.0268695
0.0229446
0.019785
0.0172084
0.0150832
0.0133119
0.011821
0.0105544
0.0094674
0.00850956
0.320484
0.23086
0.167176
0.123531
0.0935159
0.0724825
0.0574406
0.0464211
0.0381536
0.0318169
0.0268704
0.0229459
0.0197868
0.0172111
0.0150871
0.0133176
0.0118294
0.0105665
0.00948571
0.00855449
0.319723
0.227073
0.162232
0.118772
0.0893612
0.0689929
0.0545307
0.0439846
0.0361
0.030075
0.0253825
0.0216657
0.0186783
0.0162461
0.0142433
0.0125773
0.0111791
0.00999601
0.00898716
0.00812309
0.31754
0.217754
0.151086
0.108549
0.0807157
0.0618727
0.0486775
0.039142
0.0320589
0.0266719
0.0224906
0.0191879
0.0165398
0.014388
0.0126192
0.0111517
0.00992377
0.0088883
0.00801394
0.00726453
0.311746
0.197541
0.130357
0.0911457
0.0668023
0.0508112
0.0397945
0.0319123
0.0260945
0.0216876
0.0182771
0.0155892
0.0134419
0.0116994
0.010269
0.0090823
0.00808856
0.00725029
0.00655401
0.00588343
0.264759
0.104702
0.0585298
0.0391631
0.0286199
0.0219935
0.0175361
0.0143634
0.0120084
0.010214
0.00881666
0.0077062
0.00680476
0.00606169
0.00545061
0.00494977
0.00453333
0.00418569
0.00390847
0.00370487
0.213564
0.055916
0.0283994
0.0193412
0.0146928
0.0118511
0.00989073
0.00851612
0.00749144
0.00669652
0.0060609
0.00555151
0.005124
0.00474721
0.00442907
0.00416318
0.00394074
0.00375985
0.00364734
0.00355635
0.264759
0.104702
0.0585298
0.0391631
0.0286199
0.0219935
0.0175361
0.0143634
0.0120084
0.010214
0.00881666
0.0077062
0.00680476
0.0060617
0.00545061
0.00494977
0.00453333
0.0041857
0.00390848
0.00370487
0.283364
0.126774
0.071702
0.0473282
0.0338662
0.0256616
0.0204608
0.0167969
0.0140485
0.0119408
0.0102836
0.00895519
0.0078838
0.00700934
0.00628559
0.0056801
0.00517024
0.0047378
0.00437062
0.00407979
0.292299
0.141633
0.0819301
0.0541653
0.038923
0.0292873
0.0232721
0.0190783
0.0159337
0.0135143
0.0116258
0.0101113
0.0088797
0.00786781
0.00702806
0.0063244
0.00572896
0.00521999
0.00478296
0.00443538
0.295943
0.148782
0.0871941
0.0576749
0.0415193
0.0310721
0.0246449
0.0202207
0.0169046
0.0143243
0.0123073
0.0107007
0.00939367
0.0083187
0.00742535
0.00667551
0.00603986
0.00549577
0.0050287
0.00466081
0.295943
0.148782
0.0871941
0.0576749
0.0415194
0.0310722
0.024645
0.0202209
0.0169048
0.0143246
0.0123079
0.0107015
0.00939491
0.00832057
0.00742819
0.00667995
0.00604681
0.00550661
0.00504639
0.00469759
0.292299
0.141633
0.0819302
0.0541654
0.0389231
0.0292875
0.0232724
0.0190787
0.0159342
0.0135151
0.011627
0.010113
0.00888223
0.00787159
0.00703383
0.00633333
0.00574293
0.00524203
0.00481587
0.0044697
0.283364
0.126774
0.071702
0.0473282
0.0338664
0.0256617
0.020461
0.0167972
0.0140489
0.0119416
0.0102847
0.00895679
0.00788614
0.00701285
0.00629102
0.00568857
0.0051837
0.00475961
0.00440667
0.00413245
0.264759
0.104702
0.0585298
0.0391631
0.02862
0.0219935
0.0175362
0.0143635
0.0120085
0.0102142
0.00881702
0.00770682
0.00680578
0.00606372
0.00545365
0.00495479
0.0045424
0.00420347
0.00394371
0.00376513
0.213564
0.055916
0.0283994
0.0193412
0.0146928
0.0118511
0.00989073
0.00851612
0.00749144
0.00669652
0.0060609
0.00555152
0.005124
0.0047472
0.00442907
0.00416318
0.00394074
0.00375985
0.00364734
0.00355635
0.00467035
0.00401457
0.00344121
0.0031116
0.00291327
0.00279114
0.00270098
0.00262435
0.00255993
0.00250472
0.0024556
0.00241027
0.00236522
0.00232228
0.00228185
0.00224345
0.00220756
0.00217399
0.00214302
0.00211387
0.00208635
0.00206166
0.00203941
0.00201857
0.00199929
0.00198086
0.00196345
0.00194688
0.00193197
0.00191846
0.00190627
0.00189416
0.00188263
0.00187233
0.00186447
0.00185655
0.00185098
0.00184485
0.00183951
0.00183202
0.00372019
0.00333882
0.00302838
0.00281467
0.00266519
0.00255573
0.00246703
0.00238802
0.00231863
0.00225715
0.00220057
0.00215022
0.00210164
0.00205671
0.00201256
0.00197128
0.00193335
0.00189842
0.0018663
0.00183684
0.00180885
0.0017841
0.00176207
0.00174261
0.0017243
0.00170699
0.00169078
0.0016755
0.00166073
0.00164766
0.00163561
0.00162447
0.0016143
0.00160456
0.00159665
0.00158972
0.00158331
0.00157786
0.0015732
0.00156835
0.00366493
0.00341818
0.00320173
0.00302365
0.00286459
0.00272527
0.00260704
0.00250654
0.00241818
0.00233928
0.00226852
0.00220504
0.00214768
0.00209759
0.00204428
0.00199673
0.00195381
0.0019148
0.00187954
0.00184669
0.00181402
0.00178298
0.0017564
0.00173352
0.00171194
0.00169151
0.00167244
0.0016549
0.00163867
0.00162362
0.00160948
0.00159649
0.00158497
0.0015755
0.00156732
0.00155839
0.00155115
0.0015444
0.00153876
0.00153391
0.00412719
0.00367723
0.00340497
0.00319241
0.0030155
0.00286501
0.00273341
0.00261706
0.00251318
0.00241968
0.002335
0.00225797
0.00218748
0.00212301
0.00206486
0.0020114
0.00196215
0.00191683
0.00187722
0.00183517
0.00179713
0.00176336
0.00173193
0.00170298
0.00167796
0.00165489
0.00163367
0.00161456
0.0015954
0.00157772
0.00156225
0.00154832
0.001536
0.00152509
0.00151553
0.00150693
0.0014991
0.00149185
0.00148564
0.00148019
0.00430421
0.00386046
0.00355876
0.00332134
0.00312504
0.00295799
0.002814
0.00268768
0.00257417
0.00247136
0.00237784
0.00229264
0.00221481
0.00214365
0.00207847
0.00201867
0.00196373
0.00191384
0.00186769
0.00182524
0.00178656
0.00175206
0.00171807
0.00168657
0.00165873
0.00163341
0.00161037
0.00158967
0.00156897
0.00154982
0.00153404
0.00152008
0.0015079
0.00149649
0.00148622
0.00147681
0.00146787
0.0014602
0.0014537
0.00144823
0.00431466
0.00391386
0.00361617
0.00337435
0.00317108
0.00299616
0.00284358
0.00270927
0.002589
0.00247981
0.00238056
0.00229012
0.0022076
0.00213231
0.00206353
0.00200067
0.00194336
0.00189103
0.00184323
0.00179982
0.00176058
0.00172518
0.00169303
0.00166438
0.00163377
0.0016059
0.00158109
0.00155952
0.00153833
0.00151891
0.00150349
0.00148922
0.00147583
0.00146354
0.00145195
0.0014423
0.00143379
0.0014266
0.00142015
0.00141469
0.00412375
0.00383386
0.00357396
0.00334485
0.00314308
0.00296482
0.00280744
0.00266848
0.00254434
0.00243303
0.00233302
0.00224298
0.00216162
0.00208787
0.00202081
0.00195969
0.00190394
0.00185313
0.00180685
0.00176473
0.00172692
0.00169269
0.00166117
0.00163214
0.00160309
0.00157605
0.00155179
0.00153044
0.00150909
0.00148928
0.0014732
0.00145834
0.00144484
0.00143243
0.00142165
0.00141246
0.00140425
0.0013965
0.00138975
0.00138374
0.00416917
0.00381127
0.00351211
0.00325951
0.00304335
0.00285929
0.00269987
0.00256291
0.00244452
0.00234095
0.00224853
0.00216567
0.00209087
0.00202313
0.00196169
0.00190547
0.00185445
0.00180846
0.00176649
0.00172806
0.00169289
0.00166163
0.0016289
0.00160033
0.00157535
0.00155195
0.00152983
0.00150949
0.00148868
0.00146995
0.00145434
0.00144022
0.00142719
0.00141561
0.00140532
0.0013968
0.00138917
0.00138111
0.00137378
0.00136764
0.00424372
0.00376269
0.00338369
0.00308914
0.00284458
0.00266957
0.00253386
0.0024199
0.00232153
0.00223519
0.00215797
0.00208988
0.00202767
0.00197022
0.00191977
0.001867
0.00182055
0.00177893
0.00174128
0.0017061
0.00167368
0.00164392
0.00161592
0.00159017
0.00156708
0.0015455
0.00152534
0.00150704
0.00148969
0.00147364
0.00145936
0.00144652
0.00143499
0.00142487
0.00141592
0.00140834
0.0014011
0.00139395
0.00138757
0.00138178
0.00418833
0.00370019
0.00325634
0.00293186
0.00270229
0.00254805
0.00243553
0.0023418
0.00226414
0.00219651
0.00213544
0.00208466
0.00202932
0.00197757
0.00193104
0.00188707
0.00184639
0.00180887
0.00177438
0.00174243
0.00171314
0.00168739
0.00166405
0.00164248
0.00162261
0.00160418
0.00158709
0.00157123
0.00155575
0.00154168
0.00152933
0.00151812
0.00150791
0.00149871
0.00148974
0.00148341
0.00147672
0.00147093
0.00146588
0.0014603
0.0046704
0.00401471
0.00344134
0.00311191
0.00291384
0.0027917
0.00270146
0.00262468
0.00256012
0.0025047
0.00245564
0.00241013
0.00236494
0.00232197
0.00228155
0.00224323
0.00220733
0.00217377
0.00214278
0.00211362
0.00208617
0.00206154
0.00203934
0.00201856
0.0019991
0.00198073
0.00196334
0.00194685
0.00193197
0.00191856
0.00190606
0.00189414
0.00188279
0.00187262
0.00186404
0.00185816
0.00185176
0.00184519
0.00183904
0.00183005
0.00418835
0.00370006
0.00325638
0.00293145
0.00270149
0.00254724
0.00243497
0.00234148
0.00226398
0.00219655
0.00213538
0.00208466
0.00202979
0.00197795
0.00193133
0.00188738
0.00184682
0.00180933
0.00177487
0.00174295
0.00171361
0.00168779
0.00166447
0.00164303
0.00162316
0.0016048
0.00158775
0.0015719
0.00155638
0.00154253
0.00153008
0.0015189
0.00150864
0.00149867
0.00149184
0.00148436
0.00147725
0.00147171
0.00146697
0.0014618
0.004126
0.0037488
0.00339789
0.00315257
0.00295581
0.00279189
0.00263949
0.00248782
0.00235343
0.00223172
0.0021122
0.00201003
0.00190055
0.00180025
0.00170822
0.00162668
0.00155253
0.00148589
0.00142483
0.00136755
0.00130745
0.00126158
0.00122742
0.00119015
0.00115456
0.00112258
0.001093
0.00106637
0.00104137
0.00101224
0.0009876
0.000968621
0.000952635
0.000938928
0.00092018
0.000904708
0.000894867
0.000887104
0.000881193
0.000877066
0.00592682
0.00527164
0.00476708
0.00437008
0.00403552
0.00374585
0.00349046
0.00326339
0.0030592
0.00287454
0.00270669
0.00255695
0.0024149
0.00229335
0.00217714
0.00207485
0.00197813
0.00189282
0.00181156
0.00173775
0.00166754
0.00160176
0.00154442
0.00148684
0.00143552
0.00138927
0.00134462
0.00130598
0.00126711
0.00122588
0.00118832
0.00115824
0.00113079
0.00110958
0.00108548
0.00105701
0.0010353
0.00102041
0.0010096
0.000999415
0.00675251
0.00615316
0.00560802
0.00513199
0.00472107
0.0043651
0.00405017
0.00377024
0.00351997
0.00329522
0.00309331
0.00291135
0.00274618
0.00259688
0.00246127
0.00233777
0.00222503
0.00212167
0.0020285
0.00194083
0.00186328
0.00179025
0.00172258
0.00165664
0.00160108
0.00154819
0.00150117
0.0014561
0.0014117
0.00136593
0.0013249
0.00129032
0.00125818
0.00123224
0.00120385
0.00117231
0.00114788
0.00112901
0.00111405
0.0010989
0.00740506
0.00668647
0.00607797
0.00555519
0.00510179
0.00470493
0.00435875
0.00405537
0.00378335
0.00353811
0.00331686
0.00311713
0.00293662
0.00277298
0.00262453
0.00248956
0.00236654
0.00225421
0.00215156
0.00205727
0.00197184
0.00188815
0.00180939
0.00174602
0.00168746
0.00163285
0.00158172
0.0015318
0.00148378
0.0014356
0.00139458
0.00135843
0.00132409
0.00129481
0.00126311
0.0012287
0.00120272
0.00118086
0.0011637
0.00114558
0.00744047
0.00677801
0.00618925
0.00566986
0.00521275
0.00480969
0.00445468
0.00414411
0.00386869
0.0036198
0.00339477
0.00319109
0.00300677
0.0028397
0.00268789
0.00254969
0.00242354
0.00230817
0.00220251
0.0021056
0.00201661
0.00193488
0.00185914
0.00178258
0.00171293
0.0016522
0.0016023
0.00155541
0.00151172
0.00146923
0.00142991
0.001393
0.00135314
0.00131919
0.00128326
0.00124578
0.00121861
0.00119448
0.00117759
0.00115824
0.00730861
0.00661959
0.00602135
0.00550359
0.00505497
0.00466448
0.00432586
0.00403063
0.00376696
0.00352947
0.00331526
0.00312131
0.00294525
0.0027853
0.00263951
0.00250626
0.00238424
0.00227233
0.00216947
0.00207486
0.00198747
0.00190743
0.00183232
0.00176017
0.00169663
0.00163864
0.00158289
0.00153245
0.0014817
0.00143013
0.00138519
0.00134565
0.00130857
0.00127839
0.00124577
0.00121054
0.00118203
0.00115879
0.00114316
0.00112526
0.0067132
0.00602162
0.00545769
0.00498924
0.00459352
0.00425767
0.00396535
0.00370527
0.00347203
0.00326169
0.00307102
0.0028971
0.00273758
0.00259168
0.00245797
0.00233476
0.00222172
0.00211755
0.00202158
0.00193294
0.00185012
0.00177515
0.0017043
0.00163762
0.00157503
0.00151997
0.00146514
0.00141792
0.00136944
0.00131855
0.00127369
0.00123593
0.00120067
0.00117313
0.00114727
0.00111898
0.00108669
0.00106111
0.00104461
0.00102906
0.00544644
0.00492362
0.00449342
0.00414554
0.00385443
0.00360269
0.00337691
0.00317316
0.00298617
0.00281314
0.00265234
0.00250301
0.00236406
0.00223568
0.00211816
0.00200683
0.00190933
0.00181629
0.00173321
0.00165327
0.00158077
0.00151206
0.00145353
0.00139597
0.00134358
0.00129732
0.00125114
0.0012129
0.00117309
0.00113043
0.00109269
0.00106346
0.00103673
0.00101665
0.000997325
0.0009754
0.000949955
0.000929391
0.00091822
0.000909751
0.004126
0.00374957
0.00339766
0.00315407
0.00295908
0.00279463
0.00264126
0.00248878
0.00235391
0.00223165
0.00211274
0.00201024
0.0018996
0.0017992
0.00170821
0.00162628
0.00155224
0.00148518
0.00142441
0.00136653
0.00130681
0.00126189
0.00122706
0.00118976
0.00115374
0.00112192
0.00109238
0.00106576
0.00104066
0.00101137
0.000986644
0.000967728
0.000951822
0.000938524
0.000926821
0.00091476
0.00089794
0.00088544
0.000878549
0.000874377
0.00372019
0.00333903
0.00302845
0.00281487
0.0026661
0.00255667
0.00246776
0.00238852
0.00231897
0.00225726
0.00220075