/*--------------------------------*- C++ -*----------------------------------*\
| =========                 |                                                 |
| \\      /  F ield         | OpenFOAM: The Open Source CFD Toolbox           |
|  \\    /   O peration     | Version:  2212                                  |
|   \\  /    A nd           | Website:  www.openfoam.com                      |
|    \\/     M anipulation  |                                                 |
\*---------------------------------------------------------------------------*/
FoamFile
{
    version     2.0;
    format      ascii;
    arch        "LSB;label=32;scalar=64";
    class       volScalarField;
    location    "1.05";
    object      nut;
}
// * * * * * * * * * * * * * * * * * * * * * * * * * * * * * * * * * * * * * //

dimensions      [0 2 -1 0 0 0 0];

internalField   nonuniform List<scalar> 
6840
(
4.5356e-05
2.3208e-05
1.65396e-05
1.36493e-05
1.18966e-05
1.06844e-05
9.76077e-06
9.05712e-06
8.49476e-06
8.03141e-06
7.6407e-06
7.31253e-06
7.02521e-06
6.76174e-06
6.53088e-06
6.3313e-06
6.15917e-06
6.01481e-06
5.919e-06
5.84083e-06
0.000107685
6.77183e-05
5.06311e-05
4.14159e-05
3.54049e-05
3.10367e-05
2.77138e-05
2.50817e-05
2.29336e-05
2.11509e-05
1.96511e-05
1.83723e-05
1.72648e-05
1.62964e-05
1.54547e-05
1.47308e-05
1.41044e-05
1.35681e-05
1.31409e-05
1.28327e-05
0.000160509
0.00010736
8.07409e-05
6.55976e-05
5.54896e-05
4.83026e-05
4.31311e-05
3.90793e-05
3.57396e-05
3.29504e-05
3.05791e-05
2.85369e-05
2.67772e-05
2.52513e-05
2.39169e-05
2.27435e-05
2.17117e-05
2.08062e-05
2.00236e-05
1.94014e-05
0.000198681
0.0001383
0.000105187
8.55269e-05
7.25013e-05
6.28902e-05
5.60612e-05
5.07594e-05
4.63883e-05
4.27221e-05
3.96259e-05
3.69563e-05
3.46348e-05
3.26054e-05
3.08224e-05
2.92487e-05
2.78541e-05
2.66146e-05
2.55123e-05
2.45556e-05
0.000218609
0.000155003
0.000118661
9.65069e-05
8.18823e-05
7.08355e-05
6.30855e-05
5.71433e-05
5.22482e-05
4.8096e-05
4.45821e-05
4.15713e-05
3.89514e-05
3.66573e-05
3.4637e-05
3.28479e-05
3.12553e-05
2.98313e-05
2.85647e-05
2.75684e-05
0.000218609
0.000155003
0.000118661
9.65068e-05
8.18823e-05
7.08354e-05
6.30853e-05
5.7143e-05
5.22477e-05
4.80952e-05
4.45808e-05
4.15693e-05
3.89481e-05
3.66522e-05
3.46287e-05
3.28344e-05
3.12333e-05
2.97959e-05
2.85071e-05
2.74718e-05
0.000198681
0.0001383
0.000105187
8.55268e-05
7.25011e-05
6.289e-05
5.60608e-05
5.07588e-05
4.63873e-05
4.27207e-05
3.96233e-05
3.69524e-05
3.46286e-05
3.25955e-05
3.08063e-05
2.92225e-05
2.78111e-05
2.65437e-05
2.54012e-05
2.44332e-05
0.000160509
0.00010736
8.07408e-05
6.55975e-05
5.54895e-05
4.83025e-05
4.31309e-05
3.90789e-05
3.57389e-05
3.2949e-05
3.05771e-05
2.85337e-05
2.67722e-05
2.52432e-05
2.39036e-05
2.27215e-05
2.1675e-05
2.07437e-05
1.99166e-05
1.92562e-05
0.000107685
6.77183e-05
5.06311e-05
4.14159e-05
3.54048e-05
3.10367e-05
2.77137e-05
2.50817e-05
2.29335e-05
2.11506e-05
1.96506e-05
1.83713e-05
1.72631e-05
1.62928e-05
1.5449e-05
1.47209e-05
1.40857e-05
1.35298e-05
1.30627e-05
1.26915e-05
4.5356e-05
2.3208e-05
1.65396e-05
1.36493e-05
1.18966e-05
1.06844e-05
9.76077e-06
9.05712e-06
8.49476e-06
8.03141e-06
7.6407e-06
7.31253e-06
7.0252e-06
6.76174e-06
6.53088e-06
6.3313e-06
6.15916e-06
6.0148e-06
5.91898e-06
5.84064e-06
0.000107685
6.77183e-05
5.06311e-05
4.14159e-05
3.54048e-05
3.10367e-05
2.77137e-05
2.50817e-05
2.29335e-05
2.11506e-05
1.96506e-05
1.83713e-05
1.72631e-05
1.62928e-05
1.5449e-05
1.47209e-05
1.40857e-05
1.35298e-05
1.30628e-05
1.2692e-05
0.000528907
0.000369984
0.000305097
0.000261371
0.000228528
0.000202475
0.000181113
0.000163073
0.000147538
0.000133982
0.000122046
0.000111462
0.000102127
9.38496e-05
8.64442e-05
7.96406e-05
7.34398e-05
6.79145e-05
6.36908e-05
5.50938e-05
0.000663952
0.000488459
0.000404619
0.000347248
0.000305036
0.000272128
0.000245319
0.00022289
0.000203758
0.000187183
0.00017266
0.000159823
0.000148387
0.00013814
0.000128917
0.000120715
0.000113344
0.000106675
0.000101113
9.44518e-05
0.00071288
0.000556432
0.000466397
0.000402355
0.000354426
0.000317051
0.000286675
0.000261256
0.000239583
0.000220847
0.000204446
0.000189953
0.000177051
0.00016548
0.000155042
0.000145586
0.00013699
0.000129138
0.00012195
0.000115597
0.000728543
0.000588231
0.000496002
0.000429131
0.000378509
0.000338934
0.000306817
0.000279972
0.000257069
0.00023725
0.0002199
0.000204561
0.000190889
0.000178615
0.000167528
0.000157451
0.000148238
0.000139754
0.000131867
0.000124384
0.000728543
0.000588231
0.000496002
0.000429131
0.000378509
0.000338933
0.000306816
0.00027997
0.000257066
0.000237245
0.000219891
0.000204547
0.000190866
0.000178576
0.000167464
0.000157349
0.000148072
0.000139483
0.000131413
0.000123184
0.00071288
0.000556432
0.000466397
0.000402354
0.000354425
0.000317049
0.000286673
0.000261252
0.000239576
0.000220837
0.000204429
0.000189926
0.000177006
0.000165406
0.00015492
0.000145388
0.00013666
0.000128593
0.000121071
0.000114076
0.000663952
0.000488458
0.000404619
0.000347248
0.000305035
0.000272127
0.000245317
0.000222887
0.000203753
0.000187175
0.000172647
0.000159802
0.000148353
0.000138085
0.000128831
0.000120572
0.000113099
0.000106244
0.000100303
9.43905e-05
0.000528907
0.000369984
0.000305097
0.000261371
0.000228528
0.000202475
0.000181114
0.000163073
0.000147538
0.000133982
0.000122046
0.000111462
0.000102127
9.38483e-05
8.64452e-05
7.96412e-05
7.34402e-05
6.79147e-05
6.3691e-05
5.50927e-05
0.000107685
6.77183e-05
5.06311e-05
4.14159e-05
3.54049e-05
3.10367e-05
2.77138e-05
2.50817e-05
2.29336e-05
2.11509e-05
1.96511e-05
1.83723e-05
1.72648e-05
1.62964e-05
1.54547e-05
1.47308e-05
1.41044e-05
1.35681e-05
1.31409e-05
1.28326e-05
0.000160509
0.00010736
8.07408e-05
6.55975e-05
5.54895e-05
4.83025e-05
4.31309e-05
3.90789e-05
3.57389e-05
3.2949e-05
3.05771e-05
2.85337e-05
2.67722e-05
2.52432e-05
2.39036e-05
2.27216e-05
2.1675e-05
2.07437e-05
1.99168e-05
1.92564e-05
0.000663952
0.000488458
0.000404619
0.000347248
0.000305035
0.000272127
0.000245317
0.000222887
0.000203753
0.000187175
0.000172647
0.000159802
0.000148353
0.000138087
0.000128829
0.000120571
0.000113099
0.000106244
0.000100303
9.43853e-05
0.000786828
0.000662293
0.000567974
0.000495805
0.000439463
0.000394562
0.000357974
0.000327451
0.000301489
0.000279049
0.000259397
0.000242001
0.00022647
0.000212508
0.000199882
0.000188427
0.000177987
0.000168423
0.000159603
0.000150334
0.000809324
0.000713906
0.000631505
0.000562574
0.000505377
0.000457786
0.000417842
0.00038394
0.000354805
0.000329451
0.000307158
0.000287383
0.000269706
0.000253804
0.000239418
0.000226341
0.000214402
0.000203431
0.000193198
0.000182977
0.000814958
0.000730426
0.000654634
0.000589044
0.000533067
0.000485438
0.000444763
0.000409793
0.00037947
0.000352932
0.000329492
0.00030863
0.00028994
0.0002731
0.000257848
0.000243965
0.000231266
0.000219559
0.000208554
0.000197423
0.000814958
0.000730426
0.000654634
0.000589043
0.000533067
0.000485438
0.000444763
0.000409792
0.000379469
0.000352929
0.000329488
0.000308623
0.00028993
0.000273083
0.000257821
0.000243925
0.000231205
0.000219462
0.000208386
0.000197014
0.000809324
0.000713906
0.000631504
0.000562574
0.000505377
0.000457785
0.00041784
0.000383938
0.000354802
0.000329447
0.000307152
0.000287372
0.000269689
0.000253776
0.000239375
0.000226276
0.000214299
0.000203263
0.000192891
0.000182176
0.000786828
0.000662293
0.000567974
0.000495805
0.000439463
0.000394562
0.000357974
0.000327451
0.000301489
0.000279049
0.000259397
0.000242001
0.00022647
0.000212507
0.000199883
0.000188427
0.000177988
0.000168424
0.000159604
0.000150336
0.000663952
0.000488459
0.000404619
0.000347248
0.000305036
0.000272128
0.000245319
0.00022289
0.000203758
0.000187183
0.00017266
0.000159823
0.000148387
0.00013814
0.000128917
0.000120715
0.000113344
0.000106675
0.000101113
9.44515e-05
0.000160509
0.00010736
8.07409e-05
6.55976e-05
5.54896e-05
4.83026e-05
4.31311e-05
3.90793e-05
3.57396e-05
3.29504e-05
3.05791e-05
2.85369e-05
2.67772e-05
2.52513e-05
2.39169e-05
2.27435e-05
2.17117e-05
2.08062e-05
2.00236e-05
1.94015e-05
0.000198681
0.0001383
0.000105187
8.55268e-05
7.25011e-05
6.289e-05
5.60608e-05
5.07588e-05
4.63873e-05
4.27207e-05
3.96233e-05
3.69524e-05
3.46286e-05
3.25955e-05
3.08063e-05
2.92225e-05
2.78111e-05
2.65438e-05
2.54012e-05
2.44329e-05
0.00071288
0.000556432
0.000466397
0.000402354
0.000354425
0.000317049
0.000286673
0.000261252
0.000239576
0.000220837
0.000204429
0.000189926
0.000177006
0.000165408
0.000154919
0.000145387
0.00013666
0.000128593
0.000121072
0.000114073
0.000809324
0.000713906
0.000631504
0.000562574
0.000505377
0.000457785
0.00041784
0.000383938
0.000354802
0.000329447
0.000307152
0.000287372
0.00026969
0.000253777
0.000239374
0.000226275
0.000214299
0.000203263
0.00019289
0.000182174
0.000823497
0.000753987
0.000688491
0.000628748
0.000575387
0.000528266
0.000486845
0.000450441
0.000418362
0.000389973
0.000364726
0.000342159
0.00032189
0.000303597
0.000287017
0.000271924
0.000258117
0.000245379
0.000233369
0.000221223
0.000826292
0.000764347
0.000706102
0.000651936
0.00060223
0.000557103
0.000516428
0.000479912
0.000447181
0.000417832
0.000391475
0.000367749
0.000346332
0.000326938
0.000309321
0.00029326
0.000278547
0.000264943
0.000252035
0.000238802
0.000826292
0.000764347
0.000706102
0.000651936
0.00060223
0.000557103
0.000516428
0.000479912
0.00044718
0.000417831
0.000391474
0.000367747
0.000346329
0.000326934
0.000309314
0.00029325
0.000278533
0.000264926
0.000252027
0.000238858
0.000823497
0.000753987
0.000688491
0.000628748
0.000575387
0.000528266
0.000486845
0.000450441
0.000418362
0.000389973
0.000364726
0.000342159
0.000321889
0.000303597
0.000287017
0.000271924
0.000258117
0.00024538
0.00023337
0.000221227
0.000809324
0.000713906
0.000631505
0.000562574
0.000505377
0.000457786
0.000417842
0.00038394
0.000354805
0.000329451
0.000307158
0.000287383
0.000269707
0.000253804
0.000239417
0.000226341
0.000214402
0.000203431
0.000193199
0.000182981
0.00071288
0.000556432
0.000466397
0.000402355
0.000354426
0.000317051
0.000286675
0.000261256
0.000239583
0.000220847
0.000204446
0.000189953
0.000177051
0.000165482
0.000155041
0.000145586
0.000136989
0.000129138
0.000121949
0.000115599
0.000198681
0.0001383
0.000105187
8.55269e-05
7.25013e-05
6.28902e-05
5.60612e-05
5.07594e-05
4.63883e-05
4.27221e-05
3.96259e-05
3.69563e-05
3.46348e-05
3.26054e-05
3.08224e-05
2.92487e-05
2.78541e-05
2.66146e-05
2.55123e-05
2.45557e-05
0.000218609
0.000155003
0.000118661
9.65068e-05
8.18823e-05
7.08354e-05
6.30853e-05
5.7143e-05
5.22477e-05
4.80952e-05
4.45808e-05
4.15693e-05
3.89481e-05
3.66522e-05
3.46287e-05
3.28344e-05
3.12333e-05
2.97959e-05
2.8507e-05
2.74718e-05
0.000728543
0.000588231
0.000496002
0.000429131
0.000378509
0.000338933
0.000306816
0.000279969
0.000257066
0.000237245
0.000219891
0.000204547
0.000190866
0.000178577
0.000167464
0.00015735
0.000148073
0.000139484
0.000131414
0.000123184
0.000814958
0.000730426
0.000654634
0.000589043
0.000533067
0.000485438
0.000444763
0.000409792
0.000379469
0.000352929
0.000329488
0.000308623
0.00028993
0.000273084
0.000257821
0.000243926
0.000231205
0.000219463
0.000208386
0.000197014
0.000826292
0.000764347
0.000706102
0.000651936
0.00060223
0.000557103
0.000516428
0.000479912
0.00044718
0.000417831
0.000391474
0.000367747
0.000346329
0.000326934
0.000309314
0.00029325
0.000278533
0.000264926
0.000252027
0.000238858
0.000828382
0.0007726
0.000721138
0.00067296
0.000627782
0.00058562
0.000546547
0.000510578
0.000477648
0.000447614
0.000420286
0.000395445
0.000372862
0.000352314
0.000333587
0.000316477
0.000300778
0.000286235
0.000272403
0.000258274
0.000828382
0.0007726
0.000721138
0.00067296
0.000627782
0.00058562
0.000546547
0.000510578
0.000477648
0.000447614
0.000420286
0.000395445
0.000372862
0.000352314
0.000333587
0.000316477
0.000300778
0.000286235
0.000272403
0.000258275
0.000826292
0.000764347
0.000706102
0.000651936
0.00060223
0.000557103
0.000516428
0.000479912
0.000447181
0.000417832
0.000391475
0.000367749
0.000346332
0.000326939
0.000309321
0.00029326
0.000278547
0.000264944
0.000252035
0.000238803
0.000814958
0.000730426
0.000654634
0.000589044
0.000533067
0.000485438
0.000444763
0.000409793
0.00037947
0.000352932
0.000329492
0.00030863
0.000289941
0.000273101
0.000257847
0.000243965
0.000231266
0.00021956
0.000208554
0.000197422
0.000728543
0.000588231
0.000496002
0.000429131
0.000378509
0.000338934
0.000306817
0.000279972
0.000257069
0.00023725
0.0002199
0.000204561
0.000190889
0.000178616
0.000167527
0.00015745
0.000148237
0.000139753
0.000131867
0.000124383
0.000218609
0.000155003
0.000118661
9.65069e-05
8.18823e-05
7.08355e-05
6.30855e-05
5.71433e-05
5.22482e-05
4.8096e-05
4.45821e-05
4.15713e-05
3.89513e-05
3.66573e-05
3.4637e-05
3.2848e-05
3.12554e-05
2.98313e-05
2.85647e-05
2.75684e-05
0.000218609
0.000155003
0.000118661
9.65069e-05
8.18823e-05
7.08355e-05
6.30855e-05
5.71433e-05
5.22482e-05
4.8096e-05
4.45821e-05
4.15713e-05
3.89514e-05
3.66573e-05
3.4637e-05
3.28479e-05
3.12553e-05
2.98313e-05
2.85647e-05
2.75684e-05
0.000728543
0.000588231
0.000496002
0.000429131
0.000378509
0.000338934
0.000306817
0.000279972
0.000257069
0.00023725
0.0002199
0.000204561
0.000190889
0.000178615
0.000167528
0.000157451
0.000148238
0.000139755
0.000131869
0.000124386
0.000814958
0.000730426
0.000654634
0.000589044
0.000533067
0.000485438
0.000444763
0.000409793
0.00037947
0.000352932
0.000329492
0.00030863
0.00028994
0.0002731
0.000257848
0.000243966
0.000231267
0.00021956
0.000208555
0.000197423
0.000826292
0.000764347
0.000706102
0.000651936
0.00060223
0.000557103
0.000516428
0.000479912
0.000447181
0.000417832
0.000391475
0.000367749
0.000346332
0.000326938
0.000309322
0.00029326
0.000278547
0.000264943
0.000252035
0.000238802
0.000828382
0.0007726
0.000721138
0.00067296
0.000627782
0.00058562
0.000546547
0.000510578
0.000477648
0.000447614
0.000420286
0.000395445
0.000372862
0.000352314
0.000333587
0.000316477
0.000300778
0.000286235
0.000272403
0.000258275
0.000828382
0.0007726
0.000721138
0.00067296
0.000627782
0.00058562
0.000546547
0.000510578
0.000477648
0.000447614
0.000420286
0.000395445
0.000372862
0.000352314
0.000333587
0.000316477
0.000300778
0.000286235
0.000272403
0.000258274
0.000826292
0.000764347
0.000706102
0.000651936
0.00060223
0.000557103
0.000516428
0.000479911
0.00044718
0.000417831
0.000391474
0.000367747
0.000346329
0.000326934
0.000309314
0.00029325
0.000278533
0.000264926
0.000252026
0.000238857
0.000814958
0.000730426
0.000654634
0.000589043
0.000533067
0.000485438
0.000444763
0.000409792
0.000379469
0.000352929
0.000329488
0.000308623
0.00028993
0.000273083
0.000257821
0.000243925
0.000231205
0.000219462
0.000208385
0.000197011
0.000728543
0.000588231
0.000496002
0.000429131
0.000378509
0.000338933
0.000306816
0.000279969
0.000257066
0.000237245
0.000219891
0.000204547
0.000190866
0.000178577
0.000167465
0.000157349
0.000148072
0.000139483
0.000131413
0.000123182
0.000218609
0.000155003
0.000118661
9.65068e-05
8.18823e-05
7.08354e-05
6.30853e-05
5.7143e-05
5.22477e-05
4.80952e-05
4.45808e-05
4.15693e-05
3.89481e-05
3.66522e-05
3.46287e-05
3.28344e-05
3.12334e-05
2.97959e-05
2.85071e-05
2.74717e-05
0.000198681
0.0001383
0.000105187
8.55269e-05
7.25013e-05
6.28902e-05
5.60612e-05
5.07594e-05
4.63883e-05
4.27221e-05
3.96258e-05
3.69563e-05
3.46348e-05
3.26054e-05
3.08224e-05
2.92486e-05
2.78541e-05
2.66146e-05
2.55123e-05
2.45557e-05
0.00071288
0.000556432
0.000466397
0.000402355
0.000354426
0.000317051
0.000286675
0.000261256
0.000239583
0.000220847
0.000204446
0.000189953
0.000177051
0.00016548
0.000155042
0.000145586
0.000136989
0.000129138
0.00012195
0.0001156
0.000809324
0.000713906
0.000631505
0.000562574
0.000505377
0.000457786
0.000417842
0.00038394
0.000354805
0.000329451
0.000307158
0.000287382
0.000269706
0.000253803
0.000239418
0.000226341
0.000214401
0.00020343
0.000193198
0.000182978
0.000823497
0.000753987
0.000688491
0.000628748
0.000575387
0.000528266
0.000486845
0.000450441
0.000418362
0.000389973
0.000364725
0.000342159
0.000321889
0.000303597
0.000287017
0.000271924
0.000258116
0.000245379
0.000233368
0.000221225
0.000826292
0.000764347
0.000706102
0.000651936
0.00060223
0.000557103
0.000516428
0.000479911
0.00044718
0.000417831
0.000391474
0.000367747
0.000346329
0.000326934
0.000309314
0.00029325
0.000278533
0.000264926
0.000252026
0.000238857
0.000826292
0.000764347
0.000706102
0.000651936
0.00060223
0.000557103
0.000516428
0.000479912
0.000447181
0.000417832
0.000391475
0.000367749
0.000346332
0.000326938
0.000309321
0.00029326
0.000278547
0.000264943
0.000252035
0.000238801
0.000823497
0.000753987
0.000688491
0.000628748
0.000575387
0.000528266
0.000486845
0.000450441
0.000418362
0.000389973
0.000364725
0.000342159
0.000321889
0.000303597
0.000287017
0.000271924
0.000258116
0.000245379
0.000233369
0.000221225
0.000809324
0.000713906
0.000631504
0.000562574
0.000505377
0.000457785
0.00041784
0.000383938
0.000354802
0.000329447
0.000307152
0.000287372
0.000269689
0.000253776
0.000239375
0.000226276
0.000214298
0.000203262
0.000192889
0.000182173
0.00071288
0.000556432
0.000466397
0.000402354
0.000354425
0.000317049
0.000286673
0.000261252
0.000239576
0.000220837
0.000204429
0.000189926
0.000177006
0.000165406
0.00015492
0.000145388
0.00013666
0.000128593
0.000121071
0.000114073
0.000198681
0.0001383
0.000105187
8.55268e-05
7.25011e-05
6.289e-05
5.60608e-05
5.07588e-05
4.63873e-05
4.27207e-05
3.96233e-05
3.69524e-05
3.46286e-05
3.25955e-05
3.08063e-05
2.92225e-05
2.78111e-05
2.65437e-05
2.54012e-05
2.44327e-05
0.000160509
0.00010736
8.07409e-05
6.55976e-05
5.54896e-05
4.83026e-05
4.31311e-05
3.90793e-05
3.57396e-05
3.29504e-05
3.05791e-05
2.85369e-05
2.67772e-05
2.52513e-05
2.39169e-05
2.27435e-05
2.17117e-05
2.08061e-05
2.00236e-05
1.94015e-05
0.000663952
0.000488459
0.000404619
0.000347248
0.000305036
0.000272128
0.000245319
0.00022289
0.000203758
0.000187183
0.000172659
0.000159822
0.000148386
0.000138139
0.000128917
0.000120715
0.000113343
0.000106673
0.000101112
9.44494e-05
0.000786828
0.000662293
0.000567974
0.000495805
0.000439463
0.000394562
0.000357974
0.000327451
0.000301489
0.000279049
0.000259397
0.000242001
0.00022647
0.000212507
0.000199882
0.000188426
0.000177986
0.000168422
0.000159601
0.000150332
0.000809324
0.000713906
0.000631504
0.000562574
0.000505377
0.000457785
0.00041784
0.000383938
0.000354802
0.000329447
0.000307152
0.000287372
0.00026969
0.000253777
0.000239374
0.000226275
0.000214298
0.000203261
0.000192888
0.000182173
0.000814958
0.000730426
0.000654634
0.000589043
0.000533067
0.000485438
0.000444763
0.000409792
0.000379469
0.000352929
0.000329488
0.000308623
0.00028993
0.000273084
0.000257821
0.000243925
0.000231205
0.000219462
0.000208385
0.000197012
0.000814958
0.000730426
0.000654634
0.000589044
0.000533067
0.000485438
0.000444763
0.000409793
0.00037947
0.000352932
0.000329492
0.00030863
0.00028994
0.0002731
0.000257848
0.000243966
0.000231266
0.00021956
0.000208555
0.000197421
0.000809324
0.000713906
0.000631505
0.000562574
0.000505377
0.000457786
0.000417842
0.00038394
0.000354805
0.000329451
0.000307158
0.000287383
0.000269706
0.000253804
0.000239417
0.000226341
0.000214402
0.00020343
0.000193198
0.000182981
0.000786828
0.000662293
0.000567974
0.000495805
0.000439463
0.000394562
0.000357974
0.000327451
0.000301489
0.000279049
0.000259397
0.000242001
0.00022647
0.000212507
0.000199883
0.000188427
0.000177986
0.000168423
0.000159602
0.000150334
0.000663952
0.000488458
0.000404619
0.000347248
0.000305035
0.000272127
0.000245317
0.000222887
0.000203753
0.000187175
0.000172647
0.000159802
0.000148353
0.000138085
0.000128831
0.000120572
0.000113099
0.000106244
0.000100304
9.43863e-05
0.000160509
0.00010736
8.07408e-05
6.55975e-05
5.54895e-05
4.83025e-05
4.31309e-05
3.90789e-05
3.57389e-05
3.2949e-05
3.05771e-05
2.85337e-05
2.67721e-05
2.52432e-05
2.39035e-05
2.27215e-05
2.1675e-05
2.07437e-05
1.99167e-05
1.92565e-05
0.000107685
6.77183e-05
5.06311e-05
4.14159e-05
3.54049e-05
3.10367e-05
2.77138e-05
2.50817e-05
2.29336e-05
2.11509e-05
1.96511e-05
1.83723e-05
1.72648e-05
1.62964e-05
1.54547e-05
1.47308e-05
1.41044e-05
1.35681e-05
1.31409e-05
1.28327e-05
0.000528907
0.000369984
0.000305097
0.000261371
0.000228528
0.000202475
0.000181113
0.000163073
0.000147538
0.000133982
0.000122046
0.000111462
0.000102127
9.38494e-05
8.64442e-05
7.96405e-05
7.34395e-05
6.79141e-05
6.36903e-05
5.50931e-05
0.000663952
0.000488458
0.000404619
0.000347248
0.000305035
0.000272127
0.000245317
0.000222887
0.000203753
0.000187175
0.000172647
0.000159802
0.000148353
0.000138087
0.000128829
0.000120571
0.000113098
0.000106244
0.000100303
9.4385e-05
0.00071288
0.000556432
0.000466397
0.000402354
0.000354425
0.000317049
0.000286673
0.000261252
0.000239576
0.000220837
0.000204429
0.000189926
0.000177006
0.000165408
0.000154919
0.000145387
0.00013666
0.000128593
0.000121072
0.000114074
0.000728543
0.000588231
0.000496002
0.000429131
0.000378509
0.000338933
0.000306816
0.000279969
0.000257066
0.000237245
0.000219891
0.000204547
0.000190866
0.000178577
0.000167464
0.000157349
0.000148073
0.000139484
0.000131415
0.000123184
0.000728543
0.000588231
0.000496002
0.000429131
0.000378509
0.000338934
0.000306818
0.000279972
0.000257069
0.00023725
0.0002199
0.000204561
0.000190889
0.000178615
0.000167528
0.000157451
0.000148238
0.000139754
0.000131868
0.000124385
0.00071288
0.000556432
0.000466397
0.000402355
0.000354426
0.000317051
0.000286675
0.000261256
0.000239583
0.000220847
0.000204446
0.000189953
0.000177051
0.000165482
0.000155041
0.000145585
0.000136989
0.000129137
0.000121949
0.000115599
0.000663952
0.000488459
0.000404619
0.000347248
0.000305036
0.000272128
0.000245319
0.00022289
0.000203758
0.000187183
0.000172659
0.000159822
0.000148386
0.00013814
0.000128916
0.000120714
0.000113343
0.000106673
0.000101112
9.44515e-05
0.000528907
0.000369984
0.000305097
0.000261371
0.000228528
0.000202475
0.000181113
0.000163073
0.000147538
0.000133982
0.000122046
0.000111462
0.000102127
9.38483e-05
8.64452e-05
7.9641e-05
7.344e-05
6.79146e-05
6.36908e-05
5.50938e-05
0.000107685
6.77183e-05
5.06311e-05
4.14159e-05
3.54048e-05
3.10367e-05
2.77137e-05
2.50817e-05
2.29335e-05
2.11506e-05
1.96506e-05
1.83713e-05
1.72631e-05
1.62928e-05
1.5449e-05
1.47209e-05
1.40857e-05
1.35298e-05
1.30628e-05
1.2692e-05
4.5356e-05
2.3208e-05
1.65396e-05
1.36493e-05
1.18966e-05
1.06844e-05
9.76077e-06
9.05712e-06
8.49476e-06
8.03141e-06
7.6407e-06
7.31253e-06
7.0252e-06
6.76174e-06
6.53087e-06
6.33129e-06
6.15916e-06
6.0148e-06
5.91899e-06
5.8408e-06
0.000107685
6.77183e-05
5.06311e-05
4.14159e-05
3.54048e-05
3.10367e-05
2.77137e-05
2.50817e-05
2.29335e-05
2.11506e-05
1.96506e-05
1.83713e-05
1.72631e-05
1.62928e-05
1.5449e-05
1.47209e-05
1.40856e-05
1.35298e-05
1.30628e-05
1.2692e-05
0.000160509
0.00010736
8.07408e-05
6.55975e-05
5.54895e-05
4.83025e-05
4.31309e-05
3.90789e-05
3.57389e-05
3.2949e-05
3.05771e-05
2.85337e-05
2.67721e-05
2.52432e-05
2.39036e-05
2.27215e-05
2.1675e-05
2.07437e-05
1.99168e-05
1.92565e-05
0.000198681
0.0001383
0.000105187
8.55268e-05
7.25011e-05
6.289e-05
5.60608e-05
5.07588e-05
4.63873e-05
4.27207e-05
3.96233e-05
3.69524e-05
3.46286e-05
3.25955e-05
3.08063e-05
2.92225e-05
2.78111e-05
2.65437e-05
2.54012e-05
2.44328e-05
0.000218609
0.000155003
0.000118661
9.65068e-05
8.18823e-05
7.08354e-05
6.30853e-05
5.7143e-05
5.22477e-05
4.80952e-05
4.45808e-05
4.15693e-05
3.89481e-05
3.66522e-05
3.46287e-05
3.28344e-05
3.12333e-05
2.97958e-05
2.8507e-05
2.74717e-05
0.000218609
0.000155003
0.000118661
9.65069e-05
8.18823e-05
7.08355e-05
6.30855e-05
5.71433e-05
5.22482e-05
4.8096e-05
4.45821e-05
4.15713e-05
3.89514e-05
3.66573e-05
3.4637e-05
3.28479e-05
3.12554e-05
2.98313e-05
2.85647e-05
2.75684e-05
0.000198681
0.0001383
0.000105187
8.55269e-05
7.25013e-05
6.28902e-05
5.60612e-05
5.07594e-05
4.63883e-05
4.27221e-05
3.96259e-05
3.69563e-05
3.46348e-05
3.26054e-05
3.08224e-05
2.92487e-05
2.78541e-05
2.66146e-05
2.55123e-05
2.45558e-05
0.000160509
0.00010736
8.07409e-05
6.55976e-05
5.54896e-05
4.83026e-05
4.31311e-05
3.90793e-05
3.57396e-05
3.29504e-05
3.05791e-05
2.85369e-05
2.67772e-05
2.52513e-05
2.39169e-05
2.27435e-05
2.17117e-05
2.08061e-05
2.00236e-05
1.94015e-05
0.000107685
6.77183e-05
5.06311e-05
4.14159e-05
3.54049e-05
3.10367e-05
2.77138e-05
2.50817e-05
2.29336e-05
2.11509e-05
1.96511e-05
1.83723e-05
1.72648e-05
1.62964e-05
1.54547e-05
1.47308e-05
1.41044e-05
1.35681e-05
1.31409e-05
1.28326e-05
4.5356e-05
2.3208e-05
1.65396e-05
1.36493e-05
1.18966e-05
1.06844e-05
9.76077e-06
9.05712e-06
8.49476e-06
8.03141e-06
7.6407e-06
7.31253e-06
7.0252e-06
6.76174e-06
6.53088e-06
6.3313e-06
6.15917e-06
6.01481e-06
5.919e-06
5.84081e-06
5.47325e-06
5.0865e-06
4.73158e-06
4.51298e-06
4.37647e-06
4.28849e-06
4.22233e-06
4.16496e-06
4.11531e-06
4.0722e-06
4.03262e-06
3.99586e-06
3.95817e-06
3.92119e-06
3.88594e-06
3.85168e-06
3.81912e-06
3.78792e-06
3.75857e-06
3.73071e-06
3.70331e-06
3.67836e-06
3.65546e-06
3.63344e-06
3.61261e-06
3.59268e-06
3.57371e-06
3.55526e-06
3.53817e-06
3.52211e-06
3.50743e-06
3.49306e-06
3.4792e-06
3.4664e-06
3.45538e-06
3.44547e-06
3.43771e-06
3.42968e-06
3.42271e-06
3.41289e-06
1.04547e-05
9.93619e-06
9.5159e-06
9.21422e-06
8.98392e-06
8.80502e-06
8.65794e-06
8.52383e-06
8.40187e-06
8.29218e-06
8.18879e-06
8.09683e-06
8.0038e-06
7.91787e-06
7.82968e-06
7.74728e-06
7.66852e-06
7.59574e-06
7.52633e-06
7.46273e-06
7.39953e-06
7.34128e-06
7.28947e-06
7.24241e-06
7.1976e-06
7.15479e-06
7.11423e-06
7.07536e-06
7.03737e-06
7.00235e-06
6.96931e-06
6.93865e-06
6.91019e-06
6.88292e-06
6.85945e-06
6.83836e-06
6.81897e-06
6.80209e-06
6.78734e-06
6.77166e-06
1.53813e-05
1.48245e-05
1.43518e-05
1.39729e-05
1.3603e-05
1.3273e-05
1.29859e-05
1.27357e-05
1.2511e-05
1.23065e-05
1.21186e-05
1.19495e-05
1.17889e-05
1.16517e-05
1.14986e-05
1.13627e-05
1.12338e-05
1.11164e-05
1.10083e-05
1.09028e-05
1.08003e-05
1.0693e-05
1.06028e-05
1.05225e-05
1.04469e-05
1.03747e-05
1.03063e-05
1.02418e-05
1.01812e-05
1.01245e-05
1.00697e-05
1.00185e-05
9.97183e-06
9.93157e-06
9.89661e-06
9.86073e-06
9.82877e-06
9.79885e-06
9.77309e-06
9.74927e-06
2.05589e-05
1.91975e-05
1.84276e-05
1.78417e-05
1.73394e-05
1.6901e-05
1.65086e-05
1.61538e-05
1.583e-05
1.55324e-05
1.52573e-05
1.50017e-05
1.47628e-05
1.45406e-05
1.43364e-05
1.4145e-05
1.39656e-05
1.37947e-05
1.36445e-05
1.34803e-05
1.33276e-05
1.31899e-05
1.30592e-05
1.29347e-05
1.2824e-05
1.27205e-05
1.26254e-05
1.25378e-05
1.24513e-05
1.23695e-05
1.22942e-05
1.22225e-05
1.21597e-05
1.21035e-05
1.20557e-05
1.20113e-05
1.19686e-05
1.19271e-05
1.18908e-05
1.18567e-05
2.32992e-05
2.20676e-05
2.11829e-05
2.0455e-05
1.98348e-05
1.92922e-05
1.88127e-05
1.83821e-05
1.79869e-05
1.76209e-05
1.72808e-05
1.69639e-05
1.66684e-05
1.63934e-05
1.61365e-05
1.58964e-05
1.5672e-05
1.54648e-05
1.52678e-05
1.50825e-05
1.49093e-05
1.47601e-05
1.45822e-05
1.44334e-05
1.42982e-05
1.41726e-05
1.40565e-05
1.39505e-05
1.3846e-05
1.37496e-05
1.36599e-05
1.35773e-05
1.35137e-05
1.34441e-05
1.33866e-05
1.33313e-05
1.32751e-05
1.32219e-05
1.31762e-05
1.31373e-05
2.38916e-05
2.29548e-05
2.21316e-05
2.13895e-05
2.07365e-05
2.01539e-05
1.96312e-05
1.91568e-05
1.87208e-05
1.83157e-05
1.79394e-05
1.75895e-05
1.72633e-05
1.69598e-05
1.6677e-05
1.64129e-05
1.61671e-05
1.59381e-05
1.57247e-05
1.55288e-05
1.5344e-05
1.51755e-05
1.50238e-05
1.48809e-05
1.47182e-05
1.45705e-05
1.44402e-05
1.43256e-05
1.42153e-05
1.41123e-05
1.40218e-05
1.39385e-05
1.38567e-05
1.37787e-05
1.37064e-05
1.36531e-05
1.3598e-05
1.35504e-05
1.34974e-05
1.34583e-05
2.28076e-05
2.20052e-05
2.12543e-05
2.05654e-05
1.99335e-05
1.93541e-05
1.88239e-05
1.8342e-05
1.79008e-05
1.74961e-05
1.71254e-05
1.67848e-05
1.64709e-05
1.61812e-05
1.59126e-05
1.56628e-05
1.54307e-05
1.52146e-05
1.5014e-05
1.48277e-05
1.46568e-05
1.44996e-05
1.43509e-05
1.42069e-05
1.40512e-05
1.39163e-05
1.3795e-05
1.36845e-05
1.35762e-05
1.34741e-05
1.33823e-05
1.32969e-05
1.32183e-05
1.31382e-05
1.30786e-05
1.30226e-05
1.29737e-05
1.29175e-05
1.2872e-05
1.28287e-05
2.05621e-05
1.96169e-05
1.88013e-05
1.80979e-05
1.74801e-05
1.69334e-05
1.64433e-05
1.60117e-05
1.56293e-05
1.52916e-05
1.49831e-05
1.47003e-05
1.44398e-05
1.41995e-05
1.39775e-05
1.37697e-05
1.35787e-05
1.34021e-05
1.32371e-05
1.30827e-05
1.29375e-05
1.28106e-05
1.26557e-05
1.25349e-05
1.24203e-05
1.23154e-05
1.22142e-05
1.21144e-05
1.20204e-05
1.19325e-05
1.18532e-05
1.17802e-05
1.17098e-05
1.16465e-05
1.15897e-05
1.15405e-05
1.14949e-05
1.14476e-05
1.14041e-05
1.13657e-05
1.66197e-05
1.56596e-05
1.48453e-05
1.41916e-05
1.36104e-05
1.31747e-05
1.28306e-05
1.25356e-05
1.22754e-05
1.20431e-05
1.18313e-05
1.16413e-05
1.14648e-05
1.12974e-05
1.11495e-05
1.09894e-05
1.08473e-05
1.07144e-05
1.05954e-05
1.04783e-05
1.03707e-05
1.02674e-05
1.0169e-05
1.00766e-05
9.98955e-06
9.91178e-06
9.83525e-06
9.76678e-06
9.7016e-06
9.63827e-06
9.57911e-06
9.52516e-06
9.47493e-06
9.42964e-06
9.38965e-06
9.35437e-06
9.3195e-06
9.28406e-06
9.2524e-06
9.22279e-06
1.12349e-05
1.05772e-05
9.95214e-06
9.46089e-06
9.08555e-06
8.81811e-06
8.62087e-06
8.45471e-06
8.31312e-06
8.18893e-06
8.0731e-06
7.97773e-06
7.87016e-06
7.76697e-06
7.67274e-06
7.58152e-06
7.4952e-06
7.41411e-06
7.33787e-06
7.26592e-06
7.19779e-06
7.13605e-06
7.08034e-06
7.0276e-06
6.97823e-06
6.93197e-06
6.88799e-06
6.84656e-06
6.80586e-06
6.76747e-06
6.73234e-06
6.70026e-06
6.67049e-06
6.64321e-06
6.61674e-06
6.59533e-06
6.57357e-06
6.55479e-06
6.53854e-06
6.52086e-06
5.47327e-06
5.08664e-06
4.73171e-06
4.51337e-06
4.37718e-06
4.28926e-06
4.22298e-06
4.16541e-06
4.1156e-06
4.07223e-06
4.03273e-06
3.9958e-06
3.95771e-06
3.92089e-06
3.88562e-06
3.85158e-06
3.81891e-06
3.78775e-06
3.75836e-06
3.73036e-06
3.70315e-06
3.67819e-06
3.65534e-06
3.63336e-06
3.61257e-06
3.59267e-06
3.57366e-06
3.55529e-06
3.53823e-06
3.52221e-06
3.50735e-06
3.49313e-06
3.47948e-06
3.46684e-06
3.45579e-06
3.44714e-06
3.43833e-06
3.42984e-06
3.42213e-06
3.41102e-06
1.1235e-05
1.05769e-05
9.95228e-06
9.46031e-06
9.08362e-06
8.81576e-06