/*--------------------------------*- C++ -*----------------------------------*\
| =========                 |                                                 |
| \\      /  F ield         | OpenFOAM: The Open Source CFD Toolbox           |
|  \\    /   O peration     | Version:  2212                                  |
|   \\  /    A nd           | Website:  www.openfoam.com                      |
|    \\/     M anipulation  |                                                 |
\*---------------------------------------------------------------------------*/
FoamFile
{
    version     2.0;
    format      ascii;
    arch        "LSB;label=32;scalar=64";
    class       volScalarField;
    location    "1.05";
    object      p;
}
// * * * * * * * * * * * * * * * * * * * * * * * * * * * * * * * * * * * * * //

dimensions      [0 2 -2 0 0 0 0];

internalField   nonuniform List<scalar> 
6840
(
0.0178082
0.0106938
0.00840237
0.00786453
0.00759017
0.00736794
0.00718127
0.00701478
0.00685354
0.00669396
0.00653612
0.00637976
0.00622352
0.00606619
0.00590751
0.00574639
0.00558189
0.00540807
0.00517911
0.00474405
0.0106294
0.00989558
0.00880267
0.00813668
0.00773406
0.00746027
0.00724901
0.00706263
0.00688798
0.00672024
0.00655685
0.00639585
0.00623522
0.00607368
0.0059107
0.00574452
0.00556983
0.00537133
0.00510498
0.00465876
0.0102812
0.00942964
0.00866536
0.0081062
0.00773
0.00746189
0.00724612
0.007053
0.00687426
0.00670518
0.00654076
0.00637864
0.006218
0.00605788
0.00589656
0.00573146
0.005558
0.00537069
0.00516386
0.00492604
0.00987188
0.00910914
0.00849037
0.00803903
0.00769502
0.00742595
0.00720625
0.0070173
0.00684923
0.00669142
0.00653512
0.00637882
0.00622303
0.006068
0.00591344
0.00575883
0.00560378
0.00544873
0.00529695
0.00515798
0.0097377
0.00899651
0.00840832
0.0080002
0.00767824
0.00741151
0.00718996
0.00699928
0.00682848
0.00667172
0.00652177
0.00637177
0.00622094
0.00607118
0.00592441
0.00578221
0.00564697
0.00552018
0.00540319
0.00530094
0.00973772
0.00899653
0.00840836
0.00800026
0.00767834
0.00741165
0.00719019
0.00699967
0.00682914
0.00667281
0.00652357
0.00637476
0.00622588
0.0060793
0.00593814
0.00580595
0.0056871
0.00558708
0.00551507
0.00548449
0.00987194
0.00910921
0.00849045
0.00803915
0.00769521
0.00742626
0.00720678
0.00701821
0.00685077
0.00669394
0.00653927
0.0063856
0.0062341
0.00608613
0.0059437
0.00581024
0.00569104
0.00559404
0.00553718
0.00554637
0.0102812
0.0094297
0.00866543
0.00810631
0.00773018
0.00746222
0.00724666
0.00705391
0.00687575
0.00670766
0.00654487
0.00638535
0.00622887
0.00607555
0.00592556
0.00577932
0.00563773
0.00550549
0.00539934
0.00535184
0.0106295
0.0098956
0.00880271
0.00813674
0.00773416
0.00746044
0.00724929
0.00706312
0.0068888
0.00672161
0.00655909
0.00639953
0.00624151
0.00608449
0.00592857
0.00577369
0.0056176
0.00545523
0.00527008
0.00501021
0.0178082
0.0106938
0.00840237
0.00786453
0.00759017
0.00736794
0.00718127
0.00701478
0.00685354
0.00669396
0.00653612
0.00637976
0.00622352
0.0060662
0.00590752
0.00574641
0.00558192
0.00540812
0.00517919
0.00474418
0.0106295
0.00989561
0.00880271
0.00813674
0.00773416
0.00746044
0.00724929
0.00706312
0.0068888
0.00672162
0.00655909
0.00639953
0.0062415
0.00608448
0.00592856
0.00577368
0.00561757
0.00545518
0.00526999
0.00501005
0.00991285
0.00988114
0.00915291
0.0084424
0.00799604
0.00768006
0.00742112
0.0071934
0.00698871
0.00680016
0.0066222
0.00645092
0.00628308
0.00611682
0.00595099
0.0057837
0.00561174
0.00543212
0.00525832
0.00516218
0.00898736
0.00911354
0.00881064
0.0083944
0.00802723
0.00770854
0.00742989
0.00718925
0.00697636
0.00678131
0.00659724
0.0064207
0.00624938
0.00608103
0.00591354
0.00574489
0.00557335
0.00539842
0.00522616
0.00508244
0.00856898
0.00861248
0.00844689
0.00818394
0.00790353
0.00763215
0.00738108
0.00715459
0.00695135
0.0067644
0.00658667
0.00641507
0.00624817
0.00608443
0.00592237
0.00576095
0.00559973
0.00543936
0.00528211
0.00513115
0.00835304
0.00837486
0.00824766
0.00803014
0.00779771
0.00756856
0.00734576
0.00713264
0.00693196
0.00674481
0.00656868
0.00640034
0.00623823
0.00608076
0.00592704
0.00577799
0.00563456
0.00549716
0.00536727
0.00524346
0.00835308
0.00837491
0.00824773
0.00803025
0.00779787
0.00756879
0.00734611
0.00713317
0.00693277
0.00674616
0.00657095
0.00640417
0.00624427
0.00608968
0.00594061
0.00579945
0.00566756
0.00554584
0.00543814
0.00534004
0.00856907
0.00861258
0.00844703
0.00818413
0.0079038
0.00763253
0.00738166
0.00715553
0.00695292
0.00676711
0.0065913
0.00642256
0.00625946
0.0061013
0.00594859
0.00580224
0.00566313
0.00553237
0.00541352
0.00530709
0.00898741
0.0091136
0.00881072
0.00839451
0.00802738
0.00770878
0.0074303
0.00718996
0.00697757
0.00678328
0.00660032
0.00642549
0.00625691
0.00609294
0.00593206
0.00577319
0.00561522
0.00545697
0.00530165
0.00515497
0.00991285
0.00988114
0.00915291
0.0084424
0.00799604
0.00768006
0.00742112
0.0071934
0.00698871
0.00680016
0.0066222
0.00645092
0.00628309
0.00611683
0.005951
0.00578372
0.00561178
0.00543217
0.00525841
0.00516233
0.0106294
0.00989558
0.00880267
0.00813669
0.00773406
0.00746027
0.00724901
0.00706264
0.00688798
0.00672025
0.00655686
0.00639586
0.00623523
0.00607369
0.00591071
0.00574455
0.00556986
0.00537138
0.00510505
0.00465885
0.0102812
0.0094297
0.00866543
0.00810631
0.00773018
0.00746222
0.00724666
0.00705391
0.00687575
0.00670766
0.00654487
0.00638535
0.00622887
0.00607555
0.00592556
0.0057793
0.0056377
0.00550544
0.00539927
0.00535171
0.00898741
0.0091136
0.00881072
0.00839451
0.00802738
0.00770878
0.00743029
0.00718996
0.00697757
0.00678327
0.00660032
0.00642548
0.0062569
0.00609293
0.00593204
0.00577317
0.00561519
0.00545694
0.0053016
0.00515493
0.0084179
0.00851887
0.00840731
0.00818183
0.00792607
0.00766767
0.00740927
0.00716762
0.0069497
0.00674936
0.00656163
0.0063833
0.00621164
0.00604447
0.00588026
0.00571785
0.00555651
0.00539769
0.00524661
0.00510222
0.00804989
0.00811796
0.00806557
0.00791857
0.00773367
0.00752853
0.00731785
0.00711091
0.00690971
0.00671712
0.00653425
0.00635922
0.00618999
0.00602508
0.00586333
0.00570369
0.00554509
0.00538742
0.00523211
0.00507558
0.00786686
0.0079313
0.00790183
0.00777697
0.00761796
0.00744429
0.00725804
0.00707006
0.00688395
0.00670053
0.00652132
0.00634728
0.0061788
0.00601586
0.00585843
0.00570563
0.00555558
0.0054071
0.00526125
0.00511207
0.0078669
0.00793133
0.00790187
0.00777707
0.00761812
0.00744452
0.00725833
0.00707047
0.00688456
0.00670147
0.00652274
0.0063494
0.00618189
0.00602044
0.00586525
0.00571566
0.00556953
0.0054252
0.00528306
0.00513276
0.00804995
0.00811802
0.00806566
0.00791871
0.00773389
0.0075288
0.00731822
0.00711147
0.00691057
0.00671849
0.00653646
0.00636266
0.00619516
0.00603282
0.00587494
0.0057208
0.00556974
0.00542179
0.00527817
0.00512984
0.0084179
0.00851887
0.00840731
0.00818183
0.00792607
0.00766767
0.00740927
0.00716763
0.0069497
0.00674936
0.00656164
0.00638331
0.00621164
0.00604448
0.00588028
0.00571787
0.00555653
0.0053977
0.0052466
0.00510216
0.00898736
0.00911354
0.00881064
0.0083944
0.00802723
0.00770854
0.00742989
0.00718925
0.00697636
0.00678131
0.00659724
0.0064207
0.00624939
0.00608104
0.00591356
0.00574491
0.00557338
0.00539846
0.0052262
0.00508249
0.0102812
0.00942964
0.00866536
0.0081062
0.00773
0.00746189
0.00724612
0.007053
0.00687426
0.00670519
0.00654076
0.00637864
0.00621801
0.00605789
0.00589657
0.00573148
0.00555803
0.00537073
0.00516392
0.00492613
0.00987194
0.00910921
0.00849045
0.00803915
0.00769521
0.00742626
0.00720678
0.00701821
0.00685076
0.00669394
0.00653926
0.0063856
0.00623409
0.00608612
0.00594369
0.00581022
0.00569101
0.005594
0.00553714
0.0055463
0.00856907
0.00861258
0.00844703
0.00818412
0.00790379
0.00763253
0.00738166
0.00715553
0.00695292
0.0067671
0.0065913
0.00642256
0.00625946
0.00610129
0.00594858
0.00580222
0.00566311
0.00553235
0.00541351
0.00530713
0.00804995
0.00811802
0.00806565
0.00791871
0.00773389
0.0075288
0.00731822
0.00711147
0.00691057
0.00671849
0.00653645
0.00636265
0.00619516
0.00603281
0.00587493
0.0057208
0.00556974
0.0054218
0.0052782
0.00512992
0.00775203
0.00781117
0.00779924
0.00770385
0.00756423
0.00739875
0.00721856
0.0070341
0.00685012
0.00666976
0.00649463
0.00632456
0.00615895
0.00599719
0.0058387
0.00568265
0.0055281
0.0053747
0.00522326
0.00506566
0.00760092
0.00766381
0.00766757
0.00759392
0.0074738
0.00732742
0.00716454
0.00699312
0.00681898
0.0066454
0.00647422
0.0063063
0.00614198
0.00598123
0.00582386
0.0056692
0.00551622
0.00536476
0.0052162
0.00506199
0.00760093
0.00766383
0.00766759
0.00759395
0.00747384
0.00732749
0.00716464
0.00699327
0.00681918
0.00664568
0.0064746
0.00630683
0.00614273
0.00598233
0.00582545
0.00567131
0.00551871
0.00536733
0.00521805
0.00506084
0.00775203
0.00781117
0.00779924
0.00770385
0.00756423
0.00739875
0.00721856
0.0070341
0.00685013
0.00666976
0.00649463
0.00632457
0.00615895
0.0059972
0.0058387
0.00568266
0.00552809
0.00537469
0.00522323
0.00506561
0.00804989
0.00811796
0.00806557
0.00791857
0.00773367
0.00752853
0.00731785
0.00711091
0.00690971
0.00671712
0.00653425
0.00635922
0.00618999
0.00602508
0.00586334
0.0057037
0.0055451
0.00538742
0.00523209
0.00507551
0.00856897
0.00861248
0.00844689
0.00818394
0.00790353
0.00763215
0.00738108
0.00715459
0.00695135
0.0067644
0.00658667
0.00641507
0.00624817
0.00608444
0.00592238
0.00576097
0.00559975
0.00543938
0.00528212
0.00513114
0.00987188
0.00910914
0.00849036
0.00803903
0.00769502
0.00742595
0.00720625
0.0070173
0.00684923
0.00669142
0.00653512
0.00637882
0.00622304
0.00606801
0.00591345
0.00575885
0.00560381
0.00544877
0.00529701
0.00515808
0.00973772
0.00899653
0.00840836
0.00800026
0.00767834
0.00741165
0.00719019
0.00699967
0.00682913
0.0066728
0.00652356
0.00637475
0.00622587
0.00607929
0.00593813
0.00580593
0.00568708
0.00558706
0.00551504
0.00548446
0.00835308
0.00837491
0.00824772
0.00803025
0.00779787
0.00756879
0.00734611
0.00713317
0.00693277
0.00674615
0.00657095
0.00640416
0.00624427
0.00608967
0.0059406
0.00579943
0.00566755
0.00554582
0.00543813
0.00534004
0.0078669
0.00793133
0.00790187
0.00777707
0.00761812
0.00744452
0.00725833
0.00707047
0.00688456
0.00670147
0.00652273
0.0063494
0.00618188
0.00602043
0.00586524
0.00571566
0.00556952
0.0054252
0.00528307
0.00513278
0.00760093
0.00766383
0.00766759
0.00759395
0.00747384
0.00732749
0.00716464
0.00699327
0.00681918
0.00664568
0.0064746
0.00630683
0.00614273
0.00598233
0.00582544
0.00567131
0.0055187
0.00536734
0.00521806
0.00506085
0.00745813
0.00752765
0.00754977
0.00749723
0.00739598
0.00726505
0.00711514
0.00695416
0.00678765
0.00661929
0.00645145
0.00628556
0.00612236
0.00596217
0.00580496
0.00565005
0.00549641
0.00534357
0.00519232
0.0050337
0.00745813
0.00752765
0.00754977
0.00749723
0.00739598
0.00726505
0.00711514
0.00695416
0.00678765
0.00661929
0.00645145
0.00628556
0.00612236
0.00596217
0.00580496
0.00565005
0.00549641
0.00534357
0.00519232
0.00503369
0.00760092
0.00766381
0.00766757
0.00759392
0.0074738
0.00732742
0.00716454
0.00699312
0.00681898
0.0066454
0.00647422
0.0063063
0.00614198
0.00598123
0.00582386
0.0056692
0.00551622
0.00536476
0.00521618
0.00506196
0.00786686
0.0079313
0.00790183
0.00777697
0.00761795
0.00744429
0.00725804
0.00707006
0.00688395
0.00670053
0.00652132
0.00634728
0.0061788
0.00601587
0.00585843
0.00570563
0.00555557
0.00540709
0.00526122
0.00511202
0.00835304
0.00837486
0.00824766
0.00803014
0.00779771
0.00756856
0.00734576
0.00713264
0.00693196
0.00674481
0.00656868
0.00640035
0.00623823
0.00608077
0.00592705
0.005778
0.00563457
0.00549717
0.00536728
0.00524345
0.00973769
0.0089965
0.00840832
0.0080002
0.00767824
0.00741151
0.00718996
0.00699928
0.00682848
0.00667172
0.00652177
0.00637177
0.00622094
0.00607119
0.00592442
0.00578223
0.00564699
0.00552021
0.00540323
0.00530101
0.0097377
0.00899651
0.00840832
0.0080002
0.00767824
0.00741151
0.00718996
0.00699928
0.00682848
0.00667172
0.00652176
0.00637176
0.00622093
0.00607117
0.0059244
0.0057822
0.00564696
0.00552017
0.00540318
0.00530094
0.00835304
0.00837487
0.00824766
0.00803014
0.00779771
0.00756856
0.00734576
0.00713264
0.00693196
0.00674481
0.00656867
0.00640034
0.00623822
0.00608075
0.00592704
0.00577798
0.00563455
0.00549714
0.00536724
0.00524341
0.00786686
0.0079313
0.00790183
0.00777697
0.00761796
0.00744429
0.00725804
0.00707006
0.00688395
0.00670053
0.00652132
0.00634728
0.0061788
0.00601586
0.00585842
0.00570562
0.00555556
0.00540708
0.00526121
0.00511201
0.00760092
0.00766381
0.00766757
0.00759392
0.0074738
0.00732742
0.00716454
0.00699312
0.00681898
0.0066454
0.00647421
0.0063063
0.00614197
0.00598122
0.00582386
0.0056692
0.00551621
0.00536476
0.00521618
0.00506197
0.00745813
0.00752765
0.00754977
0.00749723
0.00739598
0.00726505
0.00711514
0.00695416
0.00678765
0.00661929
0.00645145
0.00628556
0.00612236
0.00596217
0.00580496
0.00565005
0.00549641
0.00534357
0.00519232
0.00503369
0.00745813
0.00752765
0.00754977
0.00749723
0.00739598
0.00726505
0.00711514
0.00695416
0.00678765
0.00661929
0.00645145
0.00628556
0.00612236
0.00596217
0.00580496
0.00565005
0.00549641
0.00534357
0.00519232
0.00503369
0.00760093
0.00766383
0.00766759
0.00759395
0.00747384
0.00732749
0.00716464
0.00699327
0.00681918
0.00664568
0.0064746
0.00630683
0.00614273
0.00598234
0.00582545
0.00567131
0.00551871
0.00536734
0.00521806
0.00506084
0.00786689
0.00793133
0.00790187
0.00777706
0.00761812
0.00744452
0.00725833
0.00707047
0.00688456
0.00670147
0.00652274
0.0063494
0.00618189
0.00602044
0.00586525
0.00571567
0.00556953
0.00542521
0.00528307
0.00513277
0.00835308
0.00837491
0.00824772
0.00803025
0.00779787
0.00756879
0.00734611
0.00713317
0.00693277
0.00674616
0.00657095
0.00640417
0.00624428
0.00608969
0.00594062
0.00579946
0.00566757
0.00554585
0.00543817
0.00534007
0.00973771
0.00899653
0.00840836
0.00800026
0.00767833
0.00741165
0.00719019
0.00699967
0.00682913
0.00667281
0.00652357
0.00637476
0.00622588
0.00607931
0.00593815
0.00580596
0.00568712
0.0055871
0.0055151
0.00548454
0.00987188
0.00910914
0.00849037
0.00803903
0.00769503
0.00742595
0.00720625
0.0070173
0.00684923
0.00669142
0.00653512
0.00637881
0.00622303
0.00606799
0.00591343
0.00575883
0.00560378
0.00544874
0.00529698
0.00515803
0.00856898
0.00861248
0.00844689
0.00818394
0.00790353
0.00763215
0.00738108
0.00715459
0.00695135
0.0067644
0.00658667
0.00641506
0.00624817
0.00608443
0.00592237
0.00576095
0.00559973
0.00543936
0.0052821
0.00513113
0.00804989
0.00811796
0.00806557
0.00791857
0.00773367
0.00752853
0.00731785
0.00711091
0.00690971
0.00671712
0.00653425
0.00635922
0.00618999
0.00602508
0.00586333
0.00570369
0.00554509
0.00538742
0.00523209
0.00507552
0.00775203
0.00781117
0.00779924
0.00770385
0.00756423
0.00739875
0.00721856
0.0070341
0.00685013
0.00666976
0.00649463
0.00632457
0.00615895
0.00599719
0.0058387
0.00568266
0.0055281
0.0053747
0.00522325
0.00506564
0.00760093
0.00766383
0.00766759
0.00759395
0.00747384
0.00732749
0.00716464
0.00699327
0.00681919
0.00664568
0.0064746
0.00630683
0.00614273
0.00598234
0.00582545
0.00567132
0.00551871
0.00536734
0.00521806
0.00506084
0.00760092
0.00766381
0.00766757
0.00759392
0.0074738
0.00732742
0.00716454
0.00699313
0.00681898
0.0066454
0.00647422
0.0063063
0.00614198
0.00598123
0.00582387
0.00566921
0.00551622
0.00536477
0.00521619
0.00506198
0.00775203
0.00781117
0.00779923
0.00770384
0.00756423
0.00739875
0.00721856
0.0070341
0.00685013
0.00666976
0.00649463
0.00632457
0.00615895
0.0059972
0.00583871
0.00568266
0.00552811
0.00537471
0.00522327
0.00506566
0.00804995
0.00811801
0.00806565
0.00791871
0.00773388
0.0075288
0.00731822
0.00711147
0.00691057
0.00671849
0.00653646
0.00636266
0.00619516
0.00603282
0.00587494
0.00572081
0.00556976
0.00542182
0.00527822
0.00512995
0.00856907
0.00861258
0.00844703
0.00818412
0.00790379
0.00763253
0.00738166
0.00715553
0.00695292
0.00676711
0.0065913
0.00642257
0.00625946
0.0061013
0.00594859
0.00580225
0.00566313
0.00553238
0.00541355
0.00530717
0.00987194
0.00910921
0.00849045
0.00803915
0.00769521
0.00742626
0.00720677
0.00701821
0.00685076
0.00669394
0.00653927
0.0063856
0.0062341
0.00608613
0.0059437
0.00581024
0.00569104
0.00559404
0.00553719
0.00554637
0.0102812
0.00942964
0.00866536
0.0081062
0.00773
0.0074619
0.00724612
0.007053
0.00687426
0.00670519
0.00654076
0.00637864
0.006218
0.00605788
0.00589656
0.00573147
0.00555801
0.00537071
0.0051639
0.00492612
0.00898736
0.00911354
0.00881064
0.0083944
0.00802723
0.00770854
0.00742989
0.00718925
0.00697636
0.00678131
0.00659724
0.0064207
0.00624939
0.00608104
0.00591355
0.00574489
0.00557337
0.00539844
0.00522619
0.00508249
0.0084179
0.00851887
0.00840731
0.00818183
0.00792608
0.00766767
0.00740927
0.00716763
0.0069497
0.00674936
0.00656164
0.00638331
0.00621164
0.00604447
0.00588027
0.00571786
0.00555652
0.0053977
0.00524663
0.00510224
0.00804995
0.00811802
0.00806566
0.00791871
0.00773389
0.00752881
0.00731822
0.00711147
0.00691057
0.00671849
0.00653646
0.00636266
0.00619516
0.00603282
0.00587494
0.00572081
0.00556975
0.00542181
0.00527821
0.00512993
0.0078669
0.00793133
0.00790187
0.00777707
0.00761812
0.00744452
0.00725833
0.00707047
0.00688457
0.00670147
0.00652274
0.0063494
0.00618189
0.00602044
0.00586526
0.00571567
0.00556954
0.00542521
0.00528308
0.00513278
0.00786686
0.0079313
0.00790183
0.00777697
0.00761795
0.00744429
0.00725804
0.00707006
0.00688395
0.00670053
0.00652132
0.00634729
0.00617881
0.00601587
0.00585844
0.00570564
0.00555558
0.0054071
0.00526124
0.00511203
0.00804989
0.00811795
0.00806557
0.00791857
0.00773367
0.00752853
0.00731785
0.00711091
0.00690971
0.00671712
0.00653425
0.00635922
0.00618999
0.00602509
0.00586334
0.0057037
0.00554511
0.00538744
0.00523212
0.00507557
0.00841789
0.00851887
0.00840731
0.00818183
0.00792607
0.00766767
0.00740926
0.00716762
0.0069497
0.00674936
0.00656164
0.00638331
0.00621164
0.00604448
0.00588028
0.00571787
0.00555653
0.00539771
0.00524664
0.00510226
0.00898741
0.0091136
0.00881072
0.00839451
0.00802738
0.00770878
0.00743029
0.00718996
0.00697757
0.00678328
0.00660032
0.00642549
0.00625691
0.00609294
0.00593206
0.00577319
0.00561521
0.00545696
0.00530163
0.00515497
0.0102812
0.0094297
0.00866543
0.0081063
0.00773018
0.00746222
0.00724666
0.00705391
0.00687575
0.00670766
0.00654488
0.00638536
0.00622888
0.00607555
0.00592557
0.00577931
0.00563773
0.00550547
0.0053993
0.00535176
0.0106294
0.00989558
0.00880267
0.00813669
0.00773406
0.00746028
0.00724901
0.00706264
0.00688798
0.00672025
0.00655686
0.00639586
0.00623523
0.00607368
0.0059107
0.00574453
0.00556984
0.00537135
0.00510501
0.0046588
0.00991285
0.00988114
0.00915291
0.0084424
0.00799604
0.00768006
0.00742112
0.0071934
0.00698871
0.00680016
0.0066222
0.00645092
0.00628309
0.00611683
0.005951
0.00578371
0.00561176
0.00543214
0.00525835
0.00516222
0.00898741
0.0091136
0.00881072
0.00839451
0.00802738
0.00770878
0.0074303
0.00718996
0.00697757
0.00678328
0.00660032
0.00642549
0.00625691
0.00609294
0.00593205
0.00577319
0.00561521
0.00545696
0.00530163
0.00515497
0.00856907
0.00861258
0.00844703
0.00818413
0.0079038
0.00763253
0.00738167
0.00715553
0.00695293
0.00676711
0.00659131
0.00642257
0.00625947
0.0061013
0.00594859
0.00580225
0.00566313
0.00553238
0.00541355
0.00530716
0.00835308
0.00837491
0.00824773
0.00803025
0.00779788
0.00756879
0.00734611
0.00713317
0.00693278
0.00674616
0.00657096
0.00640417
0.00624428
0.00608969
0.00594062
0.00579946
0.00566758
0.00554585
0.00543816
0.00534007
0.00835304
0.00837486
0.00824766
0.00803014
0.00779771
0.00756856
0.00734576
0.00713264
0.00693196
0.00674481
0.00656868
0.00640035
0.00623824
0.00608077
0.00592706
0.005778
0.00563458
0.00549717
0.00536728
0.00524345
0.00856897
0.00861248
0.00844689
0.00818394
0.00790353
0.00763215
0.00738108
0.00715459
0.00695135
0.0067644
0.00658667
0.00641507
0.00624818
0.00608444
0.00592238
0.00576097
0.00559975
0.00543938
0.00528213
0.00513115
0.00898736
0.00911354
0.00881064
0.0083944
0.00802723
0.00770854
0.00742988
0.00718925
0.00697636
0.00678131
0.00659724
0.0064207
0.00624939
0.00608104
0.00591356
0.0057449
0.00557337
0.00539845
0.00522619
0.00508248
0.00991285
0.00988114
0.00915291
0.0084424
0.00799603
0.00768006
0.00742112
0.0071934
0.00698871
0.00680016
0.0066222
0.00645092
0.00628309
0.00611683
0.005951
0.00578371
0.00561176
0.00543214
0.00525833
0.00516218
0.0106294
0.0098956
0.0088027
0.00813674
0.00773416
0.00746043
0.00724929
0.00706312
0.00688879
0.00672161
0.00655909
0.00639954
0.00624151
0.00608449
0.00592857
0.00577369
0.00561759
0.0054552
0.00527001
0.00501007
0.0178082
0.0106938
0.00840237
0.00786454
0.00759017
0.00736795
0.00718127
0.00701478
0.00685354
0.00669397
0.00653612
0.00637976
0.00622352
0.00606619
0.00590752
0.0057464
0.0055819
0.00540809
0.00517914
0.00474409
0.0106295
0.00989561
0.00880271
0.00813674
0.00773416
0.00746044
0.00724929
0.00706312
0.0068888
0.00672162
0.00655909
0.00639954
0.00624151
0.00608449
0.00592857
0.00577368
0.00561758
0.0054552
0.00527001
0.00501009
0.0102812
0.0094297
0.00866544
0.00810631
0.00773018
0.00746222
0.00724667
0.00705391
0.00687575
0.00670767
0.00654488
0.00638536
0.00622888
0.00607556
0.00592557
0.00577931
0.00563772
0.00550547
0.0053993
0.00535176
0.00987195
0.00910922
0.00849046
0.00803915
0.00769522
0.00742626
0.00720678
0.00701822
0.00685077
0.00669394
0.00653927
0.00638561
0.0062341
0.00608614
0.00594371
0.00581025
0.00569104
0.00559404
0.00553719
0.00554636
0.00973772
0.00899653
0.00840836
0.00800026
0.00767834
0.00741165
0.00719019
0.00699968
0.00682914
0.00667281
0.00652357
0.00637476
0.00622589
0.00607931
0.00593815
0.00580596
0.00568712
0.0055871
0.0055151
0.00548453
0.00973769
0.00899651
0.00840832
0.0080002
0.00767824
0.00741151
0.00718996
0.00699928
0.00682848
0.00667172
0.00652177
0.00637177
0.00622095
0.00607119
0.00592442
0.00578223
0.00564699
0.00552021
0.00540323
0.005301
0.00987188
0.00910914
0.00849036
0.00803902
0.00769502
0.00742595
0.00720624
0.0070173
0.00684923
0.00669142
0.00653512
0.00637882
0.00622304
0.00606801
0.00591345
0.00575885
0.00560381
0.00544877
0.00529701
0.00515808
0.0102812
0.00942963
0.00866535
0.00810619
0.00772999
0.00746189
0.00724611
0.007053
0.00687425
0.00670518
0.00654076
0.00637864
0.006218
0.00605788
0.00589657
0.00573148
0.00555803
0.00537072
0.0051639
0.0049261
0.0106294
0.00989557
0.00880267
0.00813668
0.00773406
0.00746027
0.007249
0.00706263
0.00688798
0.00672024
0.00655685
0.00639586
0.00623523
0.00607368
0.0059107
0.00574454
0.00556984
0.00537135
0.005105
0.00465877
0.0178082
0.0106938
0.00840236
0.00786453
0.00759016
0.00736794
0.00718126
0.00701478
0.00685354
0.00669396
0.00653612
0.00637976
0.00622352
0.0060662
0.00590752
0.0057464
0.00558191
0.00540809
0.00517912
0.00474406
0.0055439
0.00485767
0.00441983
0.00429583
0.00419731
0.00406741
0.0039356
0.00380581
0.00367528
0.00354464
0.003414
0.00328399
0.00315455
0.00302544
0.002897
0.00276907
0.00264245
0.00251751
0.0023942
0.00227202
0.00215083
0.00203027
0.0019122
0.00179617
0.0016804
0.00156576
0.00145235
0.00134032
0.0012304
0.00111999
0.00100755
0.000896255
0.000787422
0.000681206
0.000576475
0.00047037
0.000363032
0.000256695
0.000152859
4.91753e-05
0.00552046
0.00491176
0.00449287
0.00434116
0.00422446
0.00409145
0.00395724
0.00382436
0.00369051
0.00355617
0.00342195
0.00328876
0.00315612
0.00302424
0.00289344
0.00276387
0.00263626
0.00251063
0.00238695
0.00226453
0.00214331
0.00202277
0.00190486
0.0017892
0.00167404
0.00156007
0.0014471
0.00133535
0.0012256
0.00111536
0.0010032
0.000892282
0.000783892
0.000678138
0.000573628
0.000467586
0.000360613
0.000254974
0.000151657
4.8943e-05
0.00517336
0.00489953
0.00461133
0.00441595
0.00426898
0.00412679
0.00398341
0.00384155
0.00370137
0.00356257
0.00342494
0.00328934
0.00315424
0.00302085
0.00288968
0.00276009
0.00263245
0.0025065
0.00238254
0.00225968
0.00213853
0.00201853
0.0019009
0.00178488
0.0016692
0.00155502
0.00144201
0.0013304
0.00122078
0.00111069
0.000998884
0.000888532
0.000780577
0.000674926
0.000571051
0.000465621
0.000358587
0.000253271
0.000150579
4.84853e-05
0.00492731
0.00482526
0.0046537
0.0044742
0.00431371
0.0041622
0.00401313
0.00386657
0.00372261
0.00358081
0.00344096
0.00330347
0.00316805
0.0030344
0.00290252
0.00277242
0.00264402
0.0025171
0.00239206
0.00226821
0.00214612
0.00202593
0.00190751
0.00178972
0.0016721
0.00155616
0.00144239
0.00133061
0.00122053
0.00111026
0.000998449
0.000888255
0.000780355
0.000674693
0.000570836
0.000465501
0.000358528
0.000253243
0.000150447
4.81621e-05
0.00481493
0.00475626
0.00463371
0.00447475
0.00431571
0.00416256
0.00401235
0.00386546
0.00372183
0.00358045
0.00344127
0.00330436
0.00316976
0.003037
0.00290578
0.0027761
0.00264797
0.00252137
0.00239631
0.00227275
0.00215095
0.00203076
0.00191164
0.00179336
0.00167615
0.0015605
0.00144681
0.00133492
0.00122457
0.00111377
0.00100196
0.000891723
0.00078358
0.000677626
0.000573501
0.000468023
0.000360839
0.000254964
0.000151464
4.8384e-05
0.00486842
0.00477891
0.00463088
0.00446748
0.00430753
0.00415277
0.0040016
0.0038549
0.00371315
0.00357458
0.00343773
0.00330232
0.00316872
0.0030367
0.00290612
0.00277707
0.00264946
0.00252326
0.00239852
0.00227531
0.00215365
0.00203362
0.00191511
0.00179746
0.00168039
0.00156448
0.00145017
0.00133765
0.00122689
0.00111601
0.00100443
0.000894318
0.000786371
0.000680403
0.000576056
0.000470368
0.000362816
0.000256189
0.000152286
4.88771e-05
0.00497188
0.00482344
0.00463938
0.00446118
0.00429562
0.00413853
0.00398699
0.00384206
0.00370225
0.00356544
0.00343039
0.00329692
0.00316462
0.00303323
0.00290322
0.00277485
0.00264798
0.00252251
0.00239844
0.00227577
0.00215448
0.0020347
0.00191644
0.00179922
0.00168249
0.0015671
0.00145338
0.00134116
0.00123066
0.00111955
0.00100716
0.000896316
0.000787625
0.000681461
0.000577523
0.000472181
0.000364582
0.000257193
0.000152684
4.91234e-05
0.0051458
0.00491252
0.00465808
0.00444941
0.00427345
0.00411451
0.00396562
0.0038235
0.00368594
0.00355136
0.00341873
0.00328742
0.00315645
0.00302572
0.0028962
0.00276848
0.00264249
0.00251788
0.00239455
0.00227253
0.00215152
0.00203199
0.00191425
0.0017979
0.00168179
0.00156697
0.00145386
0.00134247
0.00123303
0.00112218
0.00100948
0.000898302
0.000789383
0.000682722
0.00057835
0.000474024
0.000367404
0.000259291
0.000153786
4.96566e-05
0.00538019
0.00498238
0.00461989
0.00439036
0.00421747
0.00406557
0.0039249
0.0037909
0.00366049
0.00353146
0.00340299
0.00327484
0.00314697
0.00301993
0.00289397
0.00276762
0.0026421
0.00251794
0.00239502
0.00227319
0.00215218
0.0020325
0.00191466
0.00179839
0.00168207
0.00156735
0.00145426
0.00134303
0.00123377
0.00112295
0.00101009
0.000898683
0.000789675
0.000682901
0.000578376
0.000474119
0.000367543
0.000259295
0.000153653
4.96058e-05
0.00558067
0.0049353
0.0044676
0.00428838
0.00416951
0.00403851
0.00390889
0.00378334
0.00365795
0.00353196
0.00340544
0.00327912
0.00315304
0.00302741
0.00290213
0.00277602
0.0026502
0.00252567
0.00240256
0.00228062
0.0021592
0.00203857
0.00192039
0.00180408
0.00168759
0.00157218
0.00145844
0.00134624
0.00123612
0.00112515
0.00101206
0.00090019
0.000790833
0.000683751
0.000578914
0.000474897
0.000368645
0.00026041
0.00015446
4.98591e-05
0.00554386
0.00485766
0.00441972
0.00429556
0.00419727
0.00406769
0.0039359
0.00380604
0.00367545
0.00354468
0.00341396
0.00328397
0.00315455
0.00302546
0.00289723
0.00276934
0.00264265
0.00251761
0.00239421
0.00227215
0.00215079
0.00203035
0.0019125
0.00179654
0.00168074
0.00156599
0.00145267
0.00134065
0.00123066
0.00112014
0.00100763
0.000896241
0.000787282
0.000680555
0.000575941
0.000472059
0.000366053
0.000258333
0.000153299
4.9088e-05
0.00558065
0.00493525
0.00446768
0.00428865
0.00416958
0.00403826
0.0039086
0.00378311
0.00365778
0.00353188
0.00340539
0.00327903
0.00315291
0.00302731
0.00290172
0.00277558
0.00264985
0.00252542
0.00240248
0.00228033
0.00215913
0.00203838
0.00192004
0.00180365
0.0016872
0.00157194
0.0014581
0.0013459
0.0012359
0.00112514
0.00101217
0.000900423
0.000791267
0.000684874
0.000579817
0.00047309
0.000365225
0.000258371
0.000153721
4.97136e-05
0.00529107
0.00489419
0.00457513
0.00437593
0.0042201
0.0040757
0.00393963
0.00380873
0.00367903
0.00354921
0.00341924
0.00328995
0.00316015
0.00303124
0.00290299
0.00277545
0.00264924
0.00252451
0.00240151
0.0022788
0.00215788
0.00203767
0.00191956
0.00180314
0.00168655
0.0015715
0.0014575
0.00134501
0.00123512
0.00112438
0.00101118
0.000899325
0.000789996
0.000683538
0.0005796
0.000473527
0.000364835
0.000257533
0.00015318
4.95556e-05
0.0050588
0.00483268
0.00460317
0.00440379
0.0042395
0.0040916
0.00395003
0.00381274
0.0036783
0.00354518
0.00341287
0.00328119
0.00315043
0.00302074
0.00289216
0.00276471
0.00263847
0.00251396
0.00239058
0.00226773
0.00214636
0.00202705
0.00190929
0.00179218
0.00167569
0.00156071
0.00144715
0.00133505
0.00122453
0.00111403
0.00100279
0.000892736
0.000784159
0.000677331
0.000573144
0.00046838
0.000361497
0.000255864
0.000152588
4.95135e-05
0.0048062
0.00466289
0.00453903
0.00438758
0.00423848
0.00409793
0.00395981
0.00382306
0.00368798
0.00355391
0.00342085
0.00328849
0.00315745
0.00302724
0.00289785
0.00276968
0.00264269
0.00251719
0.00239279
0.00226986
0.00214799
0.00202804
0.00190958
0.00179194
0.00167547
0.00156003
0.00144611
0.00133345
0.00122182
0.00111086
0.00100059
0.000891287
0.000782952
0.000675996
0.000570649
0.000465687
0.000360493
0.00025619
0.000153159
5.01026e-05
0.00478254
0.0046266
0.00451738
0.00438452
0.00424197
0.00410244
0.00396549
0.00382848
0.0036923
0.00355754
0.00342413
0.00329173
0.00316026
0.00302979
0.00290035
0.00277205
0.00264503
0.00251939
0.00239492
0.00227187
0.00214994
0.00202913
0.00190994
0.00179273
0.00167682
0.00156157
0.00144727
0.00133415
0.0012221
0.00111079
0.0010006
0.000891417
0.000783426
0.000676393
0.0005703
0.000465059
0.000360325
0.000256319
0.000153494
5.05072e-05
0.00482677
0.00467527
0.00455223
0.00441339
0.00426706
0.00412324
0.00398189
0.00384161
0.00370255
0.00356536
0.00343013
0.00329661
0.00316443
0.00303339
0.00290355
0.00277496
0.00264766
0.00252176
0.00239714
0.00227383
0.0021518
0.00203096
0.00191166