/*--------------------------------*- C++ -*----------------------------------*\
| =========                 |                                                 |
| \\      /  F ield         | OpenFOAM: The Open Source CFD Toolbox           |
|  \\    /   O peration     | Version:  2212                                  |
|   \\  /    A nd           | Website:  www.openfoam.com                      |
|    \\/     M anipulation  |                                                 |
\*---------------------------------------------------------------------------*/
FoamFile
{
    version     2.0;
    format      ascii;
    arch        "LSB;label=32;scalar=64";
    class       surfaceScalarField;
    location    "1.05";
    object      phi;
}
// * * * * * * * * * * * * * * * * * * * * * * * * * * * * * * * * * * * * * //

dimensions      [0 3 -1 0 0 0 0];

oriented        oriented;

internalField   nonuniform List<scalar> 
19019
(
3.3225e-07
1.09686e-09
1.09679e-09
2.7919e-07
2.65297e-08
2.65293e-08
2.49218e-07
1.49867e-08
1.49859e-08
2.29254e-07
9.98249e-09
9.98124e-09
2.14835e-07
7.21106e-09
7.20838e-09
2.03199e-07
5.81991e-09
5.81578e-09
1.93771e-07
4.71798e-09
4.70987e-09
1.86003e-07
3.89124e-09
3.87681e-09
1.79354e-07
3.33712e-09
3.31226e-09
1.73524e-07
2.93612e-09
2.89377e-09
1.68351e-07
2.62116e-09
2.55197e-09
1.63729e-07
2.36787e-09
2.25383e-09
1.59563e-07
2.18232e-09
1.98355e-09
1.5579e-07
2.06482e-09
1.70804e-09
1.52429e-07
1.97926e-09
1.38214e-09
1.49525e-07
1.93012e-09
9.7421e-10
1.47232e-07
1.88182e-09
4.10737e-10
1.46621e-07
1.59375e-09
-9.81824e-10
1.49905e-07
7.3011e-10
-4.0147e-09
-1.22405e-08
-2.72135e-08
6.3138e-07
3.58761e-09
7.40285e-09
6.14564e-07
2.26459e-08
2.07001e-08
5.86446e-07
2.43759e-08
1.87289e-08
5.61727e-07
1.88546e-08
1.58463e-08
5.39621e-07
1.55691e-08
1.37484e-08
5.20643e-07
1.35096e-08
1.12883e-08
5.04702e-07
1.19508e-08
8.70801e-09
4.90958e-07
1.07976e-08
6.83804e-09
4.78751e-07
9.94333e-09
5.60004e-09
4.67696e-07
9.23139e-09
4.76048e-09
4.57567e-07
8.60309e-09
4.14689e-09
4.48235e-07
8.03104e-09
3.66868e-09
4.39601e-07
7.50476e-09
3.31176e-09
4.3161e-07
7.01468e-09
3.04068e-09
4.24317e-07
6.52221e-09
2.75091e-09
4.17936e-07
5.95295e-09
2.3584e-09
4.13127e-07
5.06402e-09
1.62644e-09
4.12001e-07
2.91852e-09
-1.99242e-10
4.19271e-07
-1.55157e-09
-4.9874e-09
-1.35012e-08
-2.02318e-08
8.90375e-07
2.85258e-09
6.33232e-09
8.82487e-07
1.34083e-08
1.71256e-08
8.70361e-07
1.78665e-08
1.86353e-08
8.55116e-07
1.69537e-08
1.7146e-08
8.39989e-07
1.53369e-08
1.53588e-08
8.25547e-07
1.41637e-08
1.37882e-08
8.11789e-07
1.33683e-08
1.23402e-08
7.98813e-07
1.26561e-08
1.11177e-08
7.8677e-07
1.18542e-08
1.0132e-08
7.75678e-07
1.09867e-08
9.33633e-09
7.65411e-07
1.0142e-08
8.7286e-09
7.55837e-07
9.33037e-09
8.27466e-09
7.46872e-07
8.54484e-09
7.92483e-09
7.3851e-07
7.74834e-09
7.62805e-09
7.30851e-07
6.85994e-09
7.32144e-09
7.24234e-07
5.69002e-09
6.88029e-09
7.19163e-07
4.02404e-09
6.11089e-09
7.16206e-07
1.36357e-09
4.51197e-09
7.16087e-07
-3.12356e-09
1.69102e-09
-1.16413e-08
-4.21214e-09
1.07432e-06
1.06465e-09
5.56889e-09
1.06824e-06
5.58597e-09
1.39002e-08
1.06138e-06
8.46286e-09
1.62616e-08
1.05339e-06
9.03782e-09
1.59081e-08
1.04511e-06
8.61406e-09
1.50008e-08
1.03723e-06
8.11344e-09
1.39317e-08
1.02985e-06
7.77378e-09
1.29753e-08
1.02286e-06
7.53209e-09
1.21124e-08
1.01604e-06
7.33067e-09
1.13419e-08
1.00932e-06
7.01941e-09
1.06873e-08
1.00274e-06
6.53622e-09
1.01897e-08
9.9628e-07
5.96676e-09
9.82045e-09
9.89919e-07
5.35416e-09
9.55148e-09
9.83629e-07
4.67581e-09
9.36228e-09
9.77386e-07
3.88076e-09
9.22222e-09
9.71196e-07
2.80358e-09
9.07646e-09
9.65096e-07
1.25559e-09
8.86864e-09
9.58918e-07
-1.02949e-09
8.57154e-09
9.51902e-07
-4.35882e-09
8.25111e-09
-9.56209e-09
8.34921e-09
1.16914e-06
-1.44808e-13
4.90655e-09
1.16312e-06
-6.81246e-13
1.16084e-08
1.15731e-06
-1.53001e-12
1.42756e-08
1.15202e-06
-2.68579e-12
1.4334e-08
1.1469e-06
-4.54622e-12
1.37311e-08
1.14206e-06
-7.82132e-12
1.29707e-08
1.13774e-06
-1.35841e-11
1.21031e-08
1.13398e-06
-2.30708e-11
1.13123e-08
1.13069e-06
-3.90136e-11
1.06578e-08
1.12757e-06
-6.54304e-11
1.02042e-08
1.1243e-06
-1.09244e-10
9.92005e-09
1.12072e-06
-1.81671e-10
9.73218e-09
1.11672e-06
-3.01845e-10
9.65033e-09
1.1122e-06
-5.056e-10
9.70221e-09
1.10703e-06
-8.5133e-10
9.89975e-09
1.10098e-06
-1.41474e-09
1.02738e-08
1.09371e-06
-2.38896e-09
1.091e-08
1.08474e-06
-3.93953e-09
1.18875e-08
1.07401e-06
-6.80368e-09
1.31675e-08
-1.15794e-08
1.45801e-08
1.16914e-06
-1.06496e-09
4.90659e-09
1.16312e-06
-5.58705e-09
1.16086e-08
1.15731e-06
-8.46492e-09
1.42758e-08
1.15201e-06
-9.04128e-09
1.43345e-08
1.1469e-06
-8.62034e-09
1.37328e-08
1.14204e-06
-8.12481e-09
1.2974e-08
1.13771e-06
-7.79378e-09
1.21083e-08
1.13393e-06
-7.56611e-09
1.1321e-08
1.13061e-06
-7.38877e-09
1.06726e-08
1.12743e-06
-7.11535e-09
1.02291e-08
1.12405e-06
-6.69297e-09
9.9604e-09
1.1203e-06
-6.22228e-09
9.79969e-09
1.116e-06
-5.77527e-09
9.77047e-09
1.11095e-06
-5.38099e-09
9.92376e-09
1.10486e-06
-5.052e-09
1.02942e-08
1.09724e-06
-4.77212e-09
1.097e-08
1.08741e-06
-4.67863e-09
1.21242e-08
1.07414e-06
-4.6715e-09
1.40023e-08
1.05576e-06
-5.15594e-09
1.67282e-08
-7.85794e-09
2.0595e-08
1.07432e-06
-2.85256e-09
5.5689e-09
1.06824e-06
-1.34083e-08
1.39003e-08
1.06138e-06
-1.78666e-08
1.62623e-08
1.05338e-06
-1.69538e-08
1.59102e-08
1.04509e-06
-1.53377e-08
1.50048e-08
1.03719e-06
-1.41657e-08
1.39378e-08
1.02979e-06
-1.3372e-08
1.29845e-08
1.02276e-06
-1.26616e-08
1.21273e-08
1.01586e-06
-1.18633e-08
1.13667e-08
1.00902e-06
-1.10013e-08
1.07301e-08
1.00223e-06
-1.0165e-08
1.02636e-08
9.95422e-07
-9.36721e-09
9.94998e-09
9.88476e-07
-8.60702e-09
9.7779e-09
9.81192e-07
-7.85728e-09
9.76035e-09
9.73261e-07
-7.05023e-09
9.92997e-09
9.642e-07
-6.07767e-09
1.0366e-08
9.53146e-07
-4.87521e-09
1.1251e-08
9.38602e-07
-2.99537e-09
1.28679e-08
9.18553e-07
-3.06615e-10
1.51996e-08
1.55331e-09
2.37493e-08
8.90375e-07
-3.58747e-09
6.33241e-09
8.82485e-07
-2.26452e-08
1.71262e-08
8.70357e-07
-2.4375e-08
1.86367e-08
8.55108e-07
-1.88531e-08
1.71485e-08
8.39974e-07
-1.5566e-08
1.53624e-08
8.2552e-07
-1.35045e-08
1.37931e-08
8.11741e-07
-1.19419e-08
1.23482e-08
7.98731e-07
-1.07827e-08
1.11316e-08
7.86631e-07
-9.91833e-09
1.01546e-08
7.75445e-07
-9.18902e-09
9.37379e-09
7.6502e-07
-8.53161e-09
8.79215e-09
7.55184e-07
-7.91587e-09
8.38447e-09
7.45787e-07
-7.32211e-09
8.1117e-09
7.36703e-07
-6.71659e-09
7.94342e-09
7.27816e-07
-6.04437e-09
7.88134e-09
7.19012e-07
-5.20286e-09
7.92991e-09
7.10031e-07
-4.02197e-09
8.12813e-09
7.00142e-07
-1.5751e-09
8.46839e-09
6.87137e-07
3.45846e-09
9.23993e-09
1.88575e-08
1.15038e-08
6.3138e-07
-1.09679e-09
7.40294e-09
6.14563e-07
-2.65293e-08
2.07006e-08
5.86445e-07
-1.4986e-08
1.87297e-08
5.61725e-07
-9.98127e-09
1.58479e-08
5.39617e-07
-7.20842e-09
1.37506e-08
5.20635e-07
-5.81582e-09
1.12927e-08
5.04688e-07
-4.70992e-09
8.71505e-09
4.90933e-07
-3.87687e-09
6.84938e-09
4.78708e-07
-3.31233e-09
5.61896e-09
4.6762e-07
-2.89385e-09
4.79276e-09
4.57432e-07
-2.55205e-09
4.20811e-09
4.47998e-07
-2.25391e-09
3.77291e-09
4.392e-07
-1.98361e-09
3.45901e-09
4.3096e-07
-1.70812e-09
3.2318e-09
4.2323e-07
-1.38226e-09
3.06837e-09
4.16076e-07
-9.74349e-10
2.92554e-09
4.09745e-07
-4.1092e-10
2.7203e-09
4.05319e-07
9.81452e-10
1.86887e-09
4.06016e-07
4.01433e-09
-1.25242e-09
2.72123e-08
-1.65428e-08
3.3225e-07
1.09686e-09
2.7919e-07
2.65297e-08
2.49218e-07
1.49867e-08
2.29254e-07
9.98247e-09
2.14835e-07
7.21103e-09
2.03199e-07
5.81988e-09
1.93771e-07
4.71793e-09
1.86003e-07
3.89118e-09
1.79354e-07
3.33705e-09
1.73524e-07
2.93604e-09
1.68351e-07
2.62108e-09
1.63729e-07
2.36779e-09
1.59563e-07
2.1822e-09
1.5579e-07
2.0647e-09
1.52429e-07
1.97915e-09
1.49525e-07
1.93005e-09
1.47232e-07
1.88185e-09
1.4662e-07
1.59396e-09
1.49903e-07
7.30721e-10
-1.22382e-08
6.3138e-07
7.40294e-09
3.58747e-09
6.14563e-07
2.07006e-08
2.26452e-08
5.86445e-07
1.87297e-08
2.4375e-08
5.61725e-07
1.58479e-08
1.88531e-08
5.39617e-07
1.37506e-08
1.5566e-08
5.20635e-07
1.12928e-08
1.35044e-08
5.04688e-07
8.71507e-09
1.19418e-08
4.90933e-07
6.8494e-09
1.07827e-08
4.78708e-07
5.61898e-09
9.91824e-09
4.6762e-07
4.79278e-09
9.18892e-09
4.57432e-07
4.20813e-09
8.5315e-09
4.47998e-07
3.77293e-09
7.91575e-09
4.392e-07
3.45906e-09
7.32198e-09
4.3096e-07
3.23179e-09
6.71647e-09
4.2323e-07
3.06824e-09
6.04422e-09
4.16076e-07
2.92536e-09
5.20258e-09
4.09746e-07
2.7199e-09
4.02145e-09
4.05322e-07
1.8679e-09
1.57395e-09
4.06022e-07
-1.25431e-09
-3.46056e-09
-1.65467e-08
-1.88607e-08
9.23616e-07
7.03392e-09
7.03374e-09
9.25318e-07
1.985e-08
1.98493e-08
9.17184e-07
2.2797e-08
2.27958e-08
9.04275e-07
2.23028e-08
2.23006e-08
8.90533e-07
2.0622e-08
2.06184e-08
8.77409e-07
1.78563e-08
1.78495e-08
8.65439e-07
1.47017e-08
1.46907e-08
8.54762e-07
1.21912e-08
1.21734e-08
8.45324e-07
1.03438e-08
1.03131e-08
8.36983e-07
8.97376e-09
8.92111e-09
8.29554e-07
7.93612e-09
7.84784e-09
8.22862e-07
7.13865e-09
6.99505e-09
8.16824e-07
6.51774e-09
6.29036e-09
8.11455e-07
6.00146e-09
5.64064e-09
8.06813e-07
5.51707e-09
4.94426e-09
8.03e-07
4.98732e-09
4.10892e-09
8.00148e-07
4.25603e-09
2.94205e-09
7.97672e-07
3.01481e-09
1.1301e-09
7.9272e-07
4.62754e-10
-1.75239e-09
-3.9818e-09
-6.06918e-09
1.1589e-06
5.28136e-09
6.1024e-09
1.1657e-06
1.39986e-08
1.61822e-08
1.16845e-06
1.79776e-08
2.07049e-08
1.16661e-06
1.91783e-08
2.21022e-08
1.16222e-06
1.88752e-08
2.15022e-08
1.15655e-06
1.75438e-08
1.97655e-08
1.1505e-06
1.56813e-08
1.74183e-08
1.14461e-06
1.38776e-08
1.53178e-08
1.13921e-06
1.22694e-08
1.36105e-08
1.13442e-06
1.08594e-08
1.22382e-08
1.13026e-06
9.68234e-09
1.11395e-08
1.12671e-06
8.70255e-09
1.02586e-08
1.12377e-06
7.85937e-09
9.52859e-09
1.12144e-06
7.08015e-09
8.87976e-09
1.11976e-06
6.27637e-09
8.24174e-09
1.11875e-06
5.35675e-09
7.51435e-09
1.1184e-06
4.17684e-09
6.5481e-09
1.11821e-06
2.55448e-09
5.15965e-09
1.11682e-06
2.99124e-10
3.24719e-09
-2.90117e-09
1.41114e-09
1.32763e-06
2.71806e-09
4.93099e-09
1.3354e-06
7.12034e-09
1.30086e-08
1.34287e-06
9.55245e-09
1.72151e-08
1.34848e-06
1.05761e-08
1.88982e-08
1.35198e-06
1.08718e-08
1.94998e-08
1.35377e-06
1.05745e-08
1.91137e-08
1.35445e-06
9.88148e-09
1.80991e-08
1.3546e-06
9.02858e-09
1.68096e-08
1.35458e-06
8.16446e-09
1.54625e-08
1.35455e-06
7.34349e-09
1.42323e-08
1.35459e-06
6.59105e-09
1.32461e-08
1.35474e-06
5.89611e-09
1.24706e-08
1.35505e-06
5.24112e-09
1.18613e-08
1.35555e-06
4.57195e-09
1.13773e-08
1.35626e-06
3.81356e-09
1.09747e-08
1.35718e-06
2.89898e-09
1.0611e-08
1.35826e-06
1.71824e-09
1.0249e-08
1.35935e-06
1.61799e-10
9.87608e-09
1.36023e-06
-1.88537e-09
9.55014e-09
-4.1715e-09
9.70398e-09
1.41518e-06
-2.64637e-13
4.19284e-09
1.42279e-06
-7.58829e-13
1.11159e-08
1.43152e-06
-1.3048e-12
1.50986e-08
1.4398e-06
-2.34495e-12
1.66297e-08
1.44713e-06
-4.26043e-12
1.72764e-08
1.45317e-06
-7.34421e-12
1.7512e-08
1.45801e-06
-1.20624e-11
1.71569e-08
1.46193e-06
-1.9729e-11
1.64438e-08
1.46522e-06
-3.30088e-11
1.55624e-08
1.46814e-06
-5.62377e-11
1.46911e-08
1.47085e-06
-9.45077e-11
1.38953e-08
1.47341e-06
-1.57471e-10
1.32258e-08
1.47578e-06
-2.53815e-10
1.277e-08
1.47792e-06
-4.01316e-10
1.25333e-08
1.47982e-06
-6.37464e-10
1.24588e-08
1.48144e-06
-9.99841e-10
1.25499e-08
1.48273e-06
-1.55005e-09
1.28875e-08
1.48359e-06
-2.35839e-09
1.35466e-08
1.48388e-06
-3.49505e-09
1.44895e-08
-4.78861e-09
1.55873e-08
1.41518e-06
-2.71836e-09
4.19298e-09
1.42279e-06
-7.12118e-09
1.11163e-08
1.43152e-06
-9.55398e-09
1.50992e-08
1.4398e-06
-1.0579e-08
1.66309e-08
1.44712e-06
-1.08769e-08
1.72792e-08
1.45316e-06
-1.05832e-08
1.75168e-08
1.45798e-06
-9.89588e-09
1.71647e-08
1.46188e-06
-9.05243e-09
1.6456e-08
1.46515e-06
-8.2044e-09
1.55814e-08
1.46801e-06
-7.41336e-09
1.47226e-08
1.47064e-06
-6.70955e-09
1.39477e-08
1.47305e-06
-6.09134e-09
1.3317e-08
1.47518e-06
-5.54238e-09
1.29273e-08
1.47696e-06
-5.04207e-09
1.27867e-08
1.47834e-06
-4.57235e-09
1.28527e-08
1.47922e-06
-4.12147e-09
1.32143e-08
1.47947e-06
-3.66776e-09
1.39853e-08
1.479e-06
-3.17557e-09
1.5289e-08
1.47778e-06
-2.61511e-09
1.70748e-08
-2.20152e-09
1.88815e-08
1.32762e-06
-5.28124e-09
4.93125e-09
1.33539e-06
-1.39984e-08
1.30094e-08
1.34286e-06
-1.79774e-08
1.72168e-08
1.34847e-06
-1.91779e-08
1.8902e-08
1.35196e-06
-1.88745e-08
1.95066e-08
1.35374e-06
-1.75422e-08
1.91242e-08
1.35439e-06
-1.56793e-08
1.81154e-08
1.3545e-06
-1.38757e-08
1.68356e-08
1.35443e-06
-1.22648e-08
1.55028e-08
1.3543e-06
-1.08506e-08
1.42979e-08
1.35416e-06
-9.66763e-09
1.33583e-08
1.35404e-06
-8.67568e-09
1.26584e-08
1.35391e-06
-7.80446e-09
1.2169e-08
1.35373e-06
-6.98005e-09
1.18798e-08
1.35342e-06
-6.13383e-09
1.18009e-08
1.35288e-06
-5.18699e-09
1.19723e-08
1.35201e-06
-4.02511e-09
1.24723e-08
1.35082e-06
-2.49283e-09
1.33807e-08
1.34924e-06
-4.83787e-10
1.46417e-08
2.3389e-09
1.599e-08
1.1589e-06
-7.03374e-09
6.10271e-09
1.1657e-06
-1.98494e-08
1.61833e-08
1.16844e-06
-2.27958e-08
2.07074e-08
1.16661e-06
-2.23006e-08
2.21062e-08
1.16221e-06
-2.06184e-08
2.15082e-08
1.15653e-06
-1.78495e-08
1.9774e-08
1.15046e-06
-1.46907e-08
1.74323e-08
1.14455e-06
-1.21735e-08
1.5342e-08
1.1391e-06
-1.03131e-08
1.36515e-08
1.13424e-06
-8.92117e-09
1.23059e-08
1.12996e-06
-7.84792e-09
1.12509e-08
1.12622e-06
-6.99513e-09
1.04396e-08
1.123e-06
-6.29037e-09
9.82025e-09
1.12026e-06
-5.64083e-09
9.34615e-09
1.11796e-06
-4.94468e-09
8.99063e-09
1.11609e-06
-4.10943e-09
8.72057e-09
1.11464e-06
-2.94293e-09
8.49655e-09
1.11351e-06
-1.13182e-09
8.23514e-09
1.11277e-06
1.74971e-09
7.75076e-09
6.0673e-09
6.69132e-09
9.23616e-07
-7.40285e-09
7.03392e-09
9.25318e-07
-2.07001e-08
1.985e-08
9.17184e-07
-1.87289e-08
2.2797e-08
9.04275e-07
-1.58463e-08
2.23027e-08
8.90533e-07
-1.37484e-08
2.0622e-08
8.77409e-07
-1.12883e-08
1.78562e-08
8.65439e-07
-8.70801e-09
1.47017e-08
8.54762e-07
-6.83804e-09
1.21912e-08
8.45324e-07
-5.60004e-09
1.03438e-08
8.36983e-07
-4.76048e-09
8.97369e-09
8.29554e-07
-4.1469e-09
7.93604e-09
8.22862e-07
-3.66869e-09
7.13856e-09
8.16824e-07
-3.31171e-09
6.51761e-09
8.11455e-07
-3.04066e-09
6.00142e-09
8.06812e-07
-2.75101e-09
5.51719e-09
8.02999e-07
-2.35857e-09
4.98759e-09
8.00147e-07
-1.6268e-09
4.25669e-09
7.97669e-07
1.98543e-10
3.01621e-09
7.92715e-07
4.98618e-09
4.65293e-10
2.02307e-08
-3.9777e-09
6.3138e-07
3.58761e-09
6.14564e-07
2.26459e-08
5.86446e-07
2.43759e-08
5.61727e-07
1.88546e-08
5.39621e-07
1.55691e-08
5.20643e-07
1.35096e-08
5.04702e-07
1.19507e-08
4.90958e-07
1.07975e-08
4.78751e-07
9.94327e-09
4.67696e-07
9.23131e-09
4.57567e-07
8.60301e-09
4.48235e-07
8.03095e-09
4.39601e-07
7.50468e-09
4.3161e-07
7.01453e-09
4.24316e-07
6.52202e-09
4.17935e-07
5.95289e-09
4.13126e-07
5.06414e-09
4.12e-07
2.91892e-09
4.19267e-07
-1.55071e-09
-1.34994e-08
8.90375e-07
6.33241e-09
2.85255e-09
8.82485e-07
1.71262e-08
1.34082e-08
8.70357e-07
1.86367e-08
1.78665e-08
8.55108e-07
1.71485e-08
1.69538e-08
8.39974e-07
1.53624e-08
1.53376e-08
8.2552e-07
1.37932e-08
1.41656e-08
8.11741e-07
1.23482e-08
1.33719e-08
7.98731e-07
1.11316e-08
1.26614e-08
7.86631e-07
1.01546e-08
1.18631e-08
7.75445e-07
9.37383e-09
1.10012e-08
7.6502e-07
8.79219e-09
1.01648e-08
7.55184e-07
8.38451e-09
9.36702e-09
7.45787e-07
8.11174e-09
8.60681e-09
7.36703e-07
7.9434e-09
7.85706e-09
7.27817e-07
7.88122e-09
7.04998e-09
7.19012e-07
7.92959e-09
6.07723e-09
7.10032e-07
8.12733e-09
4.87442e-09
7.00146e-07
8.46664e-09
2.99385e-09
6.87144e-07
9.23689e-09
3.0388e-10
1.15024e-08
-1.55666e-09
1.1589e-06
6.10272e-09
5.28123e-09
1.1657e-06
1.61833e-08
1.39984e-08
1.16844e-06
2.07074e-08
1.79773e-08
1.16661e-06
2.21062e-08
1.91779e-08
1.16221e-06
2.15083e-08
1.88745e-08
1.15653e-06
1.97741e-08
1.75421e-08
1.15046e-06
1.74323e-08
1.56793e-08
1.14455e-06
1.53421e-08
1.38756e-08
1.1391e-06
1.36516e-08
1.22648e-08
1.13424e-06
1.23059e-08
1.08505e-08
1.12996e-06
1.1251e-08
9.66751e-09
1.12622e-06
1.04396e-08
8.67556e-09
1.123e-06
9.82035e-09
7.80434e-09
1.12026e-06
9.34608e-09
6.97977e-09
1.11796e-06
8.99036e-09
6.13336e-09
1.11609e-06
8.7201e-09
5.18643e-09
1.11464e-06
8.49562e-09
4.02422e-09
1.11351e-06
8.23342e-09
2.49135e-09
1.11277e-06
7.7483e-09
4.81696e-10
6.69205e-09
-2.33804e-09
1.37712e-06
4.57737e-09
4.57707e-09
1.38565e-06
1.19172e-08
1.19164e-08
1.39417e-06
1.6447e-08
1.64455e-08
1.40126e-06
1.85605e-08
1.8558e-08
1.40642e-06
1.89301e-08
1.8926e-08
1.40952e-06
1.82218e-08
1.82155e-08
1.41095e-06
1.67155e-08
1.67051e-08
1.41154e-06
1.50419e-08
1.50255e-08
1.41183e-06
1.34978e-08
1.34711e-08
1.4121e-06
1.216e-08
1.21171e-08
1.41252e-06
1.10204e-08
1.09514e-08
1.4132e-06
1.00623e-08
9.95173e-09
1.41422e-06
9.25647e-09
9.0786e-09
1.4156e-06
8.565e-09
8.28237e-09
1.41735e-06
7.95502e-09
7.51973e-09
1.41948e-06
7.38328e-09
6.72904e-09
1.42187e-06
6.80302e-09
5.842e-09
1.4243e-06
6.16222e-09
4.80197e-09
1.42627e-06
5.41432e-09
3.61695e-09
4.66666e-09
2.68533e-09
1.53312e-06
2.36591e-09
3.64913e-09
1.54218e-06
6.2385e-09
9.63334e-09
1.55328e-06
8.87276e-09
1.36908e-08
1.56445e-06
1.03461e-08
1.59351e-08
1.57508e-06
1.08982e-08
1.69094e-08
1.58472e-06
1.07525e-08
1.69421e-08
1.59302e-06
1.01401e-08
1.63722e-08
1.60011e-06
9.32602e-09
1.544e-08
1.60628e-06
8.45153e-09
1.43359e-08
1.61181e-06
7.62493e-09
1.32385e-08
1.61694e-06
6.88999e-09
1.22418e-08
1.62186e-06
6.24506e-09
1.13718e-08
1.62668e-06
5.66786e-09
1.06242e-08
1.63152e-06
5.12589e-09
9.98159e-09
1.63644e-06
4.59204e-09
9.4191e-09
1.6415e-06
4.02777e-09
8.90812e-09
1.64672e-06
3.40369e-09
8.42501e-09
1.65211e-06
2.68129e-09
7.9621e-09
1.65769e-06
1.84269e-09
7.54793e-09
9.71741e-10
7.41989e-09
1.61424e-06
-1.94916e-13
3.0928e-09
1.62332e-06
-4.7737e-13
8.2739e-09
1.63533e-06
-8.35167e-13
1.19569e-08
1.6482e-06
-1.45854e-12
1.41141e-08
1.66118e-06
-2.54365e-12
1.51996e-08
1.67386e-06
-4.11065e-12
1.55823e-08
1.68574e-06
-6.72329e-12
1.54295e-08
1.69656e-06
-1.06822e-11
1.49587e-08
1.7063e-06
-1.74197e-11
1.42866e-08
1.71513e-06
-2.85919e-11
1.3516e-08
1.72322e-06
-4.62371e-11
1.27377e-08
1.73075e-06
-7.32279e-11
1.20215e-08
1.73788e-06
-1.12348e-10
1.14184e-08
1.74475e-06
-1.69405e-10
1.09568e-08
1.75141e-06
-2.56045e-10
1.06491e-08
1.75789e-06
-3.96123e-10
1.04907e-08
1.76429e-06
-5.94595e-10
1.04888e-08
1.77073e-06
-8.52955e-10
1.06434e-08
1.7773e-06
-1.15367e-09
1.0913e-08
-1.38876e-09
1.12556e-08
1.61424e-06
-2.36605e-09
3.09297e-09
1.62332e-06
-6.23884e-09
8.27437e-09
1.63533e-06
-8.87338e-09
1.19578e-08
1.64819e-06
-1.03472e-08
1.41158e-08
1.66117e-06
-1.08999e-08
1.52028e-08
1.67385e-06
-1.0755e-08
1.55872e-08
1.68571e-06
-1.01442e-08
1.54367e-08
1.69652e-06
-9.33284e-09
1.49697e-08
1.70624e-06
-8.46275e-09
1.43038e-08
1.71504e-06
-7.64465e-09
1.35435e-08
1.72308e-06
-6.92389e-09
1.27823e-08
1.73053e-06
-6.30056e-09
1.20939e-08
1.73756e-06
-5.75198e-09
1.15349e-08
1.74429e-06
-5.24971e-09
1.11399e-08
1.75074e-06
-4.78356e-09
1.09324e-08
1.75697e-06
-4.3393e-09
1.09297e-08
1.76311e-06
-3.90217e-09
1.11524e-08
1.76939e-06
-3.4518e-09
1.16035e-08
1.77611e-06
-2.98344e-09
1.21841e-08
-2.54968e-09
1.2654e-08
1.53312e-06
-4.57708e-09
3.64951e-09
1.54218e-06
-1.19164e-08
9.63439e-09
1.55327e-06
-1.64455e-08
1.36928e-08
1.56445e-06
-1.8558e-08
1.59386e-08
1.57506e-06
-1.8926e-08
1.69152e-08
1.5847e-06
-1.82155e-08
1.69513e-08
1.59299e-06
-1.67051e-08
1.63864e-08
1.60005e-06
-1.50256e-08
1.54628e-08
1.60619e-06
-1.34712e-08
1.43713e-08
1.61167e-06
-1.21172e-08
1.32941e-08
1.61672e-06
-1.09515e-08
1.23314e-08
1.62152e-06
-9.95186e-09
1.15156e-08
1.62616e-06
-9.07877e-09
1.08562e-08
1.63072e-06
-8.28265e-09
1.03527e-08
1.63525e-06
-7.52013e-09
1.0001e-08
1.63981e-06
-6.72958e-09
9.80533e-09
1.64445e-06
-5.84277e-09
9.77627e-09
1.64927e-06
-4.80305e-09
9.91129e-09
1.65441e-06
-3.61815e-09
1.01306e-08
-2.68565e-09
1.02496e-08
1.37712e-06
-6.1024e-09
4.57737e-09
1.38565e-06
-1.61822e-08
1.19172e-08
1.39417e-06
-2.0705e-08
1.6447e-08
1.40126e-06
-2.21022e-08
1.85604e-08
1.40642e-06
-2.15022e-08
1.893e-08
1.40952e-06
-1.97655e-08
1.82218e-08
1.41095e-06
-1.74183e-08
1.67154e-08
1.41154e-06
-1.53178e-08
1.50419e-08
1.41183e-06
-1.36106e-08
1.34977e-08
1.4121e-06
-1.22383e-08
1.216e-08
1.41252e-06
-1.11395e-08
1.10204e-08
1.4132e-06
-1.02587e-08
1.00623e-08
1.41422e-06
-9.52874e-09
9.25641e-09
1.4156e-06
-8.88e-09
8.56504e-09
1.41735e-06
-8.24214e-09
7.95521e-09
1.41948e-06
-7.51502e-09
7.38364e-09
1.42188e-06
-6.54925e-09
6.80365e-09
1.42431e-06
-5.16153e-09
6.1632e-09
1.42627e-06
-3.25004e-09
5.41552e-09
-1.41425e-09
4.66703e-09
1.1589e-06
-6.33232e-09
5.28136e-09
1.1657e-06
-1.71256e-08
1.39986e-08
1.16845e-06
-1.86353e-08
1.79776e-08
1.16661e-06
-1.7146e-08
1.91783e-08
1.16222e-06
-1.53588e-08
1.88751e-08
1.15655e-06
-1.37883e-08
1.75437e-08
1.1505e-06
-1.23402e-08
1.56813e-08
1.14461e-06
-1.11177e-08
1.38776e-08
1.1392e-06
-1.0132e-08
1.22694e-08
1.13442e-06
-9.33635e-09
1.08593e-08
1.13026e-06
-8.72864e-09
9.68225e-09
1.12671e-06
-8.27471e-09
8.70246e-09
1.12377e-06
-7.92493e-09
7.85928e-09
1.12144e-06
-7.62815e-09
7.08009e-09
1.11976e-06
-7.3216e-09
6.27639e-09
1.11875e-06
-6.88068e-09
5.35698e-09
1.11839e-06
-6.11167e-09
4.17741e-09
1.11821e-06
-4.5134e-09
2.5556e-09
1.11681e-06
-1.6934e-09
3.00939e-10
4.20857e-09
-2.90017e-09
8.90375e-07
2.85258e-09
8.82487e-07
1.34083e-08
8.70361e-07
1.78665e-08
8.55116e-07
1.69537e-08
8.39989e-07
1.53369e-08
8.25547e-07
1.41637e-08
8.11789e-07
1.33682e-08
7.98813e-07
1.2656e-08
7.8677e-07
1.18541e-08
7.75678e-07
1.09866e-08
7.65411e-07
1.01419e-08
7.55837e-07
9.33024e-09
7.46872e-07
8.5447e-09
7.3851e-07
7.74817e-09
7.30851e-07
6.85977e-09
7.24233e-07
5.68992e-09
7.19161e-07
4.02409e-09
7.16203e-07
1.3639e-09
7.16081e-07
-3.12265e-09
-1.16398e-08
1.07432e-06
5.5689e-09
1.06495e-09
1.06824e-06
1.39003e-08
5.58702e-09
1.06138e-06
1.62623e-08
8.46487e-09
1.05338e-06
1.59102e-08
9.04122e-09
1.04509e-06
1.50048e-08
8.62027e-09
1.03719e-06
1.39378e-08
8.12472e-09
1.02979e-06
1.29845e-08
7.79367e-09
1.02276e-06
1.21273e-08
7.56599e-09
1.01586e-06
1.13667e-08
7.38862e-09
1.00902e-06
1.07302e-08
7.11517e-09
1.00223e-06
1.02636e-08
6.69277e-09
9.95422e-07
9.94999e-09
6.22205e-09
9.88476e-07
9.7779e-09
5.775e-09
9.81192e-07
9.76029e-09
5.38068e-09
9.73261e-07
9.92979e-09
5.05163e-09
9.64201e-07
1.03656e-08
4.77159e-09
9.53147e-07
1.12502e-08
4.67785e-09
9.38604e-07
1.28662e-08
4.67025e-09
9.18558e-07
1.51966e-08
5.1539e-09
2.37466e-08
7.85495e-09
1.32762e-06
4.93126e-09
2.71836e-09
1.33539e-06
1.30094e-08
7.12116e-09
1.34286e-06
1.72168e-08
9.55395e-09
1.34847e-06
1.8902e-08
1.05789e-08
1.35196e-06
1.95066e-08
1.08769e-08
1.35374e-06
1.91242e-08
1.05831e-08
1.35439e-06
1.81154e-08
9.89582e-09
1.3545e-06
1.68356e-08
9.05235e-09
1.35443e-06
1.55028e-08
8.2043e-09
1.3543e-06
1.42979e-08
7.41324e-09
1.35416e-06
1.33584e-08
6.7094e-09
1.35404e-06
1.26584e-08
6.09117e-09
1.35391e-06
1.2169e-08
5.54218e-09
1.35373e-06
1.18796e-08
5.04177e-09
1.35342e-06
1.18006e-08
4.57196e-09
1.35288e-06
1.19718e-08
4.12103e-09
1.35201e-06
1.24715e-08
3.66724e-09
1.35082e-06
1.33794e-08
3.17497e-09
1.34924e-06
1.46399e-08
2.61464e-09
1.59896e-08
2.20246e-09
1.53312e-06
3.64952e-09
2.36604e-09
1.54218e-06
9.63441e-09
6.23883e-09
1.55327e-06
1.36928e-08
8.87337e-09
1.56445e-06
1.59387e-08
1.03472e-08
1.57506e-06
1.69153e-08
1.08999e-08
1.5847e-06
1.69514e-08
1.0755e-08
1.59299e-06
1.63864e-08
1.01442e-08
1.60005e-06
1.54628e-08
9.33279e-09
1.60619e-06
1.43714e-08
8.46269e-09
1.61167e-06
1.32941e-08
7.64456e-09
1.61672e-06
1.23314e-08
6.92378e-09
1.62152e-06
1.15156e-08
6.30043e-09
1.62616e-06
1.08562e-08
5.75182e-09
1.63072e-06
1.03526e-08
5.24949e-09
1.63525e-06
1.00008e-08
4.7833e-09
1.63981e-06
9.80504e-09
4.33907e-09
1.64445e-06
9.77585e-09
3.90202e-09
1.64926e-06
9.91077e-09
3.45186e-09
1.65441e-06
1.01302e-08
2.98405e-09
1.02503e-08
2.55162e-09
1.68027e-06
1.89109e-09
1.89095e-09
1.68934e-06
5.09945e-09
5.09904e-09
1.7018e-06
7.46444e-09
7.46367e-09
1.71578e-06
8.94635e-09
8.94508e-09
1.73022e-06
9.69344e-09
9.69137e-09
1.74439e-06
9.86182e-09
9.85848e-09
1.75785e-06
9.6539e-09
9.64872e-09
1.77035e-06
9.20185e-09
9.19399e-09
1.78184e-06
8.61774e-09
8.606e-09
1.7924e-06
7.99564e-09
7.97788e-09
1.80219e-06
7.40121e-09
7.37356e-09
1.81139e-06
6.86768e-09
6.82356e-09
1.82013e-06
6.40684e-09
6.3353e-09
1.82854e-06
6.01758e-09
5.90303e-09
1.83676e-06
5.68917e-09
5.51442e-09
1.8449e-06
5.41358e-09
5.16128e-09
1.85308e-06
5.18412e-09
4.83763e-09
1.86142e-06
4.98992e-09
4.53764e-09
1.87004e-06
4.79164e-09
4.268e-09
4.54348e-09
4.11678e-09
1.7569e-06
-4.20708e-14
1.61315e-09
1.76589e-06
-6.4967e-14
4.3839e-09
1.77878e-06
-8.50152e-14
6.53139e-09
1.79389e-06
-1.17574e-13
7.95044e-09
1.81003e-06
-1.5551e-13
8.7548e-09
1.82639e-06
-1.88996e-13
9.08454e-09
1.8424e-06
-2.67513e-13
9.07085e-09
1.85773e-06
-6.56615e-13
8.83466e-09
1.87217e-06
-1.43439e-12
8.46101e-09
1.88567e-06
-2.60092e-12
8.01609e-09
1.89826e-06
-3.99625e-12
7.55141e-09
1.91005e-06
-5.25566e-12
7.10471e-09
1.92118e-06
-5.74476e-12
6.70181e-09
1.9318e-06
-5.57019e-12
6.36028e-09
1.94205e-06
-7.93213e-12
6.09437e-09
1.95207e-06
-1.73715e-11
5.90906e-09
1.96197e-06
-3.50906e-11
5.80377e-09
1.97189e-06
-5.6866e-11
5.77137e-09
1.98188e-06
-8.3219e-11
5.79762e-09
-1.14319e-10
5.85842e-09
1.7569e-06
-1.89095e-09
1.61327e-09
1.76589e-06
-5.09905e-09
4.38424e-09
1.77878e-06
-7.46368e-09
6.53202e-09
1.79389e-06
-8.9451e-09
7.95154e-09
1.81003e-06
-9.69139e-09
8.75658e-09
1.82638e-06
-9.8585e-09
9.08728e-09
1.84239e-06
-9.64875e-09
9.07486e-09
1.85772e-06
-9.19403e-09
8.84067e-09
1.87215e-06
-8.60606e-09
8.47012e-09
1.88564e-06
-7.97796e-09
8.03004e-09
1.89822e-06
-7.37367e-09
7.57296e-09
1.91e-06
-6.82368e-09
7.13812e-09
1.92111e-06
-6.33545e-09
6.75359e-09
1.93171e-06
-5.9032e-09
6.44003e-09
1.94193e-06
-5.51459e-09
6.21583e-09
1.95191e-06
-5.1614e-09
6.08763e-09
1.96182e-06
-4.83765e-09
6.05351e-09
1.9718e-06
-4.53745e-09
6.09862e-09
1.98199e-06
-4.26737e-09
6.18411e-09
-4.11541e-09
6.21978e-09
1.68027e-06
-3.64914e-09
1.89108e-09
1.68934e-06
-9.63335e-09
5.09944e-09
1.7018e-06
-1.36908e-08
7.46442e-09
1.71578e-06
-1.59351e-08
8.94634e-09
1.73022e-06
-1.69094e-08
9.69342e-09
1.74439e-06
-1.69421e-08
9.8618e-09
1.75785e-06
-1.63723e-08
9.65387e-09
1.77035e-06
-1.54401e-08
9.20183e-09
1.78184e-06
-1.4336e-08
8.61772e-09
1.7924e-06
-1.32386e-08
7.99562e-09
1.80219e-06
-1.22419e-08
7.40118e-09
1.81139e-06
-1.1372e-08
6.86766e-09
1.82013e-06
-1.06244e-08
6.40682e-09
1.82854e-06
-9.98181e-09
6.01759e-09
1.83676e-06
-9.41938e-09
5.68921e-09
1.8449e-06
-8.9085e-09
5.41364e-09
1.85308e-06
-8.42551e-09
5.18416e-09
1.86142e-06
-7.96267e-09
4.98987e-09
1.87004e-06
-7.54832e-09
4.79136e-09
-7.41934e-09
4.54274e-09
1.53312e-06
-4.93099e-09
2.3659e-09
1.54218e-06
-1.30087e-08
6.23849e-09
1.55328e-06
-1.72151e-08
8.87274e-09
1.56445e-06
-1.88982e-08
1.03461e-08
1.57508e-06
-1.94998e-08
1.08982e-08
1.58472e-06
-1.91137e-08
1.07525e-08
1.59302e-06
-1.80991e-08
1.01401e-08
1.60011e-06
-1.68096e-08
9.32598e-09
1.60628e-06
-1.54626e-08
8.45149e-09
1.61181e-06
-1.42324e-08
7.62489e-09
1.61694e-06
-1.32461e-08
6.88995e-09
1.62186e-06
-1.24708e-08
6.24502e-09
1.62668e-06
-1.18615e-08
5.66782e-09
1.63152e-06
-1.13775e-08
5.12588e-09
1.63644e-06
-1.09751e-08
4.59207e-09
1.6415e-06
-1.06116e-08
4.02785e-09
1.64672e-06
-1.025e-08
3.40381e-09
1.65212e-06
-9.8776e-09
2.68138e-09
1.65769e-06
-9.55203e-09
1.84256e-09
-9.70349e-09
9.70937e-10
1.32763e-06
-5.5689e-09
2.71806e-09
1.3354e-06
-1.39003e-08
7.12033e-09
1.34287e-06
-1.62616e-08
9.55243e-09
1.34848e-06
-1.59081e-08
1.05761e-08
1.35198e-06
-1.50008e-08
1.08717e-08
1.35377e-06
-1.39317e-08
1.05744e-08
1.35445e-06
-1.29753e-08
9.88144e-09
1.3546e-06
-1.21124e-08
9.02854e-09
1.35458e-06
-1.13419e-08
8.16441e-09
1.35455e-06
-1.06874e-08
7.34344e-09
1.35459e-06
-1.01898e-08
6.59098e-09
1.35474e-06
-9.82051e-09
5.89605e-09
1.35505e-06
-9.55158e-09
5.24107e-09
1.35555e-06
-9.36243e-09
4.5719e-09
1.35626e-06
-9.22246e-09
3.81355e-09
1.35718e-06
-9.07694e-09
2.89908e-09
1.35826e-06
-8.86956e-09
1.71848e-09
1.35935e-06
-8.57322e-09
1.62179e-10
1.36023e-06
-8.25382e-09
-1.88498e-09
-8.35124e-09
-4.1728e-09
1.07432e-06
1.06465e-09
1.06824e-06
5.58596e-09
1.06138e-06
8.46284e-09
1.05339e-06
9.03779e-09
1.04511e-06
8.61402e-09
1.03723e-06
8.11339e-09
1.02985e-06
7.77373e-09
1.02286e-06
7.53203e-09
1.01604e-06
7.3306e-09
1.00932e-06
7.01933e-09
1.00274e-06
6.53612e-09
9.96279e-07
5.96666e-09
9.89918e-07
5.35405e-09
9.83628e-07
4.67571e-09
9.77385e-07
3.88069e-09
9.71194e-07
2.80361e-09
9.65093e-07
1.25578e-09
9.58913e-07
-1.02896e-09
9.51894e-07
-4.35767e-09
-9.55972e-09
1.16914e-06
4.9066e-09
1.41103e-13
1.16312e-06
1.16086e-08
6.56113e-13
1.15731e-06
1.42758e-08
1.4742e-12
1.15201e-06
1.43345e-08
2.62363e-12
1.1469e-06
1.37328e-08
4.47495e-12
1.14204e-06
1.29741e-08
7.7366e-12
1.13771e-06
1.21083e-08
1.34827e-11
1.13393e-06
1.1321e-08
2.29504e-11
1.13061e-06
1.06726e-08
3.88715e-11
1.12743e-06
1.02291e-08
6.52638e-11
1.12405e-06
9.9604e-09
1.09047e-10
1.12029e-06
9.79968e-09
1.81436e-10
1.116e-06
9.77043e-09
3.01563e-10
1.11095e-06
9.92368e-09
5.05261e-10
1.10486e-06
1.02941e-08
8.5092e-10
1.09724e-06
1.09697e-08
1.41419e-09
1.08741e-06
1.21237e-08
2.38821e-09
1.07414e-06
1.40015e-08
3.93848e-09
1.05576e-06
1.67267e-08
6.80211e-09
2.05926e-08
1.15771e-08
1.41518e-06
4.19298e-09
2.57899e-13
1.42279e-06
1.11163e-08
7.37688e-13
1.43152e-06
1.50992e-08
1.28116e-12
1.4398e-06
1.66309e-08
2.31958e-12
1.44712e-06
1.72792e-08
4.22895e-12
1.45316e-06
1.75168e-08
7.30222e-12
1.45798e-06
1.71647e-08
1.20067e-11
1.46188e-06
1.64561e-08
1.96566e-11
1.46515e-06
1.55814e-08
3.29169e-11
1.46801e-06
1.47226e-08
5.61223e-11
1.47064e-06
1.39477e-08
9.43646e-11
1.47305e-06
1.3317e-08
1.57295e-10
1.47518e-06
1.29273e-08
2.53603e-10
1.47696e-06
1.27866e-08
4.01043e-10
1.47834e-06
1.28525e-08
6.37131e-10
1.47922e-06
1.3214e-08
9.99474e-10
1.47947e-06
1.39848e-08
1.5497e-09
1.479e-06
1.52883e-08
2.35818e-09
1.47777e-06
1.70737e-08
3.49526e-09
1.888e-08
4.79006e-09
1.61424e-06
3.09297e-09
1.88138e-13
1.62332e-06
8.27438e-09
4.62781e-13
1.63533e-06
1.19578e-08
8.20366e-13
1.64819e-06
1.41158e-08
1.44352e-12
1.66117e-06