/*--------------------------------*- C++ -*----------------------------------*\
| =========                 |                                                 |
| \\      /  F ield         | OpenFOAM: The Open Source CFD Toolbox           |
|  \\    /   O peration     | Version:  2212                                  |
|   \\  /    A nd           | Website:  www.openfoam.com                      |
|    \\/     M anipulation  |                                                 |
\*---------------------------------------------------------------------------*/
FoamFile
{
    version     2.0;
    format      ascii;
    arch        "LSB;label=32;scalar=64";
    class       volVectorField;
    location    "1.05";
    object      U;
}
// * * * * * * * * * * * * * * * * * * * * * * * * * * * * * * * * * * * * * //

dimensions      [0 1 -1 0 0 0 0];

internalField   nonuniform List<vector> 
6840
(
(0.0956456 -0.00836005 -0.00836006)
(0.0904939 0.00152207 0.00152198)
(0.0790684 0.0024298 0.00242963)
(0.0713013 0.0014879 0.00148755)
(0.0661798 0.000830737 0.000830118)
(0.0623233 0.000564006 0.00056301)
(0.0592219 0.00042711 0.00042502)
(0.0566866 0.000325281 0.000321759)
(0.0545527 0.000255231 0.000249488)
(0.0527022 0.000206243 0.000196851)
(0.0510672 0.000172551 0.000156786)
(0.0496112 0.000150371 0.000124474)
(0.0483033 0.000135559 9.50998e-05)
(0.0471176 0.000127455 6.4411e-05)
(0.0460494 0.000127314 2.64975e-05)
(0.0451074 0.000137956 -9.71747e-06)
(0.0443248 0.0001643 -7.69188e-05)
(0.0438416 0.000190993 -0.000236992)
(0.0442288 0.000164269 -0.000481176)
(0.043436 -0.00185136 -0.00321497)
(0.0999088 0.00129701 0.000712552)
(0.0969669 0.00365593 0.0027472)
(0.0935347 0.0026403 0.00211805)
(0.0895895 0.00182056 0.00162037)
(0.0858326 0.00152904 0.00139029)
(0.0825909 0.00135165 0.00116072)
(0.0798666 0.00118021 0.000896336)
(0.0775692 0.001042 0.000691052)
(0.0755615 0.000945322 0.000558724)
(0.0737574 0.000870098 0.000476902)
(0.0721123 0.000800404 0.000427052)
(0.0705991 0.000731669 0.000395518)
(0.0692001 0.000670747 0.000377394)
(0.0679041 0.000622273 0.000370366)
(0.0667122 0.000581775 0.000361841)
(0.0656411 0.000544867 0.000337299)
(0.0647559 0.000482886 0.00027499)
(0.0642425 0.000345804 5.67239e-05)
(0.0646463 9.51736e-05 -0.00030569)
(0.0625283 -0.000388571 -0.000664172)
(0.099413 0.000345232 0.000270228)
(0.0988664 0.00201904 0.00187486)
(0.0979217 0.00257312 0.00218888)
(0.0963664 0.00237984 0.00190815)
(0.0946344 0.00211407 0.00162634)
(0.092974 0.00192672 0.00141823)
(0.0913671 0.00180127 0.00127059)
(0.0898591 0.00170506 0.00115901)
(0.0884634 0.00160423 0.0010683)
(0.0871727 0.00149335 0.000995745)
(0.0859812 0.00138209 0.000946689)
(0.0848769 0.00127647 0.000917102)
(0.0838446 0.00117465 0.000901723)
(0.0828781 0.00107012 0.000894812)
(0.0819809 0.000954243 0.000889436)
(0.0811751 0.000811484 0.000870894)
(0.0805073 0.000618539 0.00082525)
(0.0800435 0.000274776 0.000683384)
(0.0798662 -0.000381716 0.000422424)
(0.0791444 -0.00203064 -0.000196925)
(0.0995405 0.000245016 0.000321899)
(0.0992576 0.00105548 0.00154093)
(0.0988491 0.00150206 0.00211443)
(0.0981252 0.00157894 0.0020916)
(0.0973376 0.00151391 0.00188616)
(0.0965863 0.00144473 0.00166599)
(0.0958677 0.00140712 0.00149833)
(0.0952015 0.00137389 0.00137215)
(0.0945752 0.0013247 0.00128583)
(0.0939338 0.00124793 0.00123098)
(0.0933113 0.00114929 0.00119427)
(0.0927071 0.00103895 0.001172)
(0.0921142 0.000922683 0.00116242)
(0.0915285 0.000798581 0.00116314)
(0.090948 0.000658095 0.00117025)
(0.09037 0.000470444 0.0011784)
(0.0897973 0.000208295 0.00118293)
(0.0892293 -0.000178949 0.00118849)
(0.088631 -0.000756775 0.00121067)
(0.0878849 -0.00165272 0.00130821)
(0.0993801 3.37473e-05 5.89243e-05)
(0.0992677 0.000274239 0.00120001)
(0.0989804 0.00043205 0.00188848)
(0.0984747 0.000482891 0.00200647)
(0.0979957 0.000477839 0.00191467)
(0.0975711 0.000463729 0.00173472)
(0.0971813 0.000449656 0.00154731)
(0.0968313 0.000436836 0.00138867)
(0.0965307 0.000426816 0.00127031)
(0.0962752 0.000412493 0.00120011)
(0.095999 0.000384661 0.00117368)
(0.0957019 0.000343312 0.00117334)
(0.0953808 0.00028958 0.00118584)
(0.0950205 0.000221413 0.00121003)
(0.0946105 0.000135198 0.00125285)
(0.094137 1.50595e-05 0.0013229)
(0.0935799 -0.000168409 0.00143176)
(0.0928984 -0.000456745 0.00158968)
(0.0920369 -0.000914271 0.00179516)
(0.0910719 -0.00173017 0.0020257)
(0.0993802 -3.37845e-05 5.89803e-05)
(0.0992677 -0.000274428 0.00120005)
(0.0989804 -0.000432451 0.0018885)
(0.0984745 -0.000483585 0.00200653)
(0.0979952 -0.000479023 0.00191483)
(0.0975701 -0.000465792 0.00173504)
(0.0971794 -0.000453271 0.00154778)
(0.0968281 -0.000442995 0.00138947)
(0.0965253 -0.000437214 0.00127179)
(0.0962659 -0.000429887 0.00120276)
(0.0959832 -0.000413602 0.00117816)
(0.095675 -0.0003912 0.00118081)
(0.0953346 -0.000368824 0.00119895)
(0.0949399 -0.000354052 0.00123543)
(0.0944722 -0.000357385 0.00130155)
(0.0938976 -0.00038113 0.0014058)
(0.0931708 -0.00044868 0.00157218)
(0.0922069 -0.000557807 0.00183611)
(0.0908915 -0.000833048 0.00221353)
(0.0895323 -0.00118173 0.00277579)
(0.0995405 -0.000245032 0.000321901)
(0.0992576 -0.00105556 0.00154094)
(0.0988488 -0.00150221 0.00211453)
(0.0981246 -0.0015792 0.00209178)
(0.0973364 -0.00151447 0.00188643)
(0.0965839 -0.0014458 0.00166641)
(0.0958635 -0.00140898 0.00149886)
(0.0951943 -0.00137691 0.00137305)
(0.0945627 -0.00132986 0.0012878)
(0.0939126 -0.00125611 0.00123525)
(0.0932755 -0.00116211 0.00120223)
(0.0926467 -0.00105908 0.00118685)
(0.0920123 -0.000955562 0.00118791)
(0.0913563 -0.000853099 0.00120674)
(0.0906566 -0.000745529 0.00124902)
(0.089879 -0.00062193 0.00132622)
(0.0889673 -0.00048527 0.0014616)
(0.0877967 -0.000291809 0.0017035)
(0.0862423 -2.26867e-05 0.00201282)
(0.0844373 -0.000323184 0.00339606)
(0.099413 -0.000345215 0.000270235)
(0.0988664 -0.00201896 0.00187493)
(0.0979214 -0.00257295 0.00218908)
(0.0963658 -0.00237956 0.0019085)
(0.0946332 -0.00211362 0.00162682)
(0.0929718 -0.00192598 0.00141893)
(0.0913632 -0.00180016 0.00127174)
(0.0898522 -0.00170324 0.00116095)
(0.0884516 -0.00160115 0.00107144)
(0.0871529 -0.00148822 0.00100097)
(0.0859481 -0.00137355 0.000954993)
(0.0848211 -0.00126253 0.000931494)
(0.0837516 -0.00115263 0.000926685)
(0.0827235 -0.00103621 0.000937718)
(0.0817232 -0.000902886 0.000965193)
(0.0807384 -0.000738439 0.00101299)
(0.0797457 -0.000523853 0.00109105)
(0.0786934 -0.000141128 0.0012084)
(0.0774829 0.000524586 0.00142822)
(0.0760321 0.00163892 0.00205798)
(0.0999088 -0.00129699 0.000712567)
(0.0969668 -0.00365579 0.00274728)
(0.0935346 -0.00264008 0.00211822)
(0.0895892 -0.00182016 0.0016207)
(0.0858321 -0.00152823 0.00139075)
(0.08259 -0.0013504 0.00116158)
(0.079865 -0.00117788 0.000897785)
(0.0775664 -0.00103797 0.000693358)
(0.0755565 -0.000938437 0.000562539)
(0.0737487 -0.000858351 0.000483279)
(0.0720967 -0.000780417 0.00043918)
(0.070571 -0.000698613 0.000416204)
(0.0691518 -0.000617223 0.000404635)
(0.0678253 -0.000533251 0.000400825)
(0.0665826 -0.000431856 0.000410654)
(0.0654215 -0.000287328 0.000430202)
(0.0643624 -7.42299e-05 0.000454647)
(0.0634913 0.000313774 0.000418908)
(0.0631137 0.00110301 0.000250141)
(0.0619804 0.00384151 -0.0013578)
(0.0956456 0.00836006 -0.00836005)
(0.0904939 -0.00152198 0.00152206)
(0.0790684 -0.00242963 0.00242979)
(0.0713013 -0.00148756 0.00148789)
(0.0661798 -0.000830127 0.000830728)
(0.0623233 -0.000563021 0.000563995)
(0.0592219 -0.000425035 0.000427095)
(0.0566866 -0.000321776 0.000325262)
(0.0545527 -0.000249508 0.000255209)
(0.0527022 -0.000196873 0.000206219)
(0.0510672 -0.00015681 0.000172524)
(0.0496112 -0.000124501 0.000150341)
(0.0483033 -9.51259e-05 0.000135521)
(0.0471176 -6.4444e-05 0.000127418)
(0.0460494 -2.65303e-05 0.000127279)
(0.0451074 9.68872e-06 0.000137923)
(0.0443247 7.68777e-05 0.000164275)
(0.0438415 0.000236939 0.000190992)
(0.0442284 0.000481146 0.000164328)
(0.0434353 0.00321482 -0.00185116)
(0.0999088 0.000712567 0.00129699)
(0.0969668 0.00274729 0.00365579)
(0.0935346 0.00211822 0.00264007)
(0.0895892 0.00162071 0.00182015)
(0.0858321 0.00139076 0.00152822)
(0.08259 0.00116158 0.00135038)
(0.079865 0.000897793 0.00117786)
(0.0775664 0.000693368 0.00103795)
(0.0755565 0.000562551 0.000938411)
(0.0737487 0.000483291 0.000858321)
(0.0720967 0.000439196 0.000780384)
(0.070571 0.000416223 0.000698576)
(0.0691518 0.000404655 0.000617185)
(0.0678254 0.000400847 0.000533211)
(0.0665826 0.000410671 0.000431805)
(0.0654215 0.000430208 0.000287264)
(0.0643625 0.000454632 7.41564e-05)
(0.0634916 0.000418829 -0.000313889)
(0.0631144 0.000249979 -0.00110317)
(0.0619815 -0.00135817 -0.00384177)
(0.100226 0.000720824 0.000720792)
(0.0999601 0.00198278 0.00198265)
(0.0997824 0.00245198 0.00245166)
(0.0987883 0.00241986 0.0024193)
(0.0972759 0.00220121 0.00220033)
(0.0957753 0.00181226 0.00181072)
(0.0943937 0.00138366 0.00138115)
(0.0931655 0.00107212 0.00106793)
(0.0920796 0.000857307 0.000850162)
(0.0911195 0.000707386 0.000695159)
(0.0902705 0.000599517 0.000577782)
(0.0895092 0.000520967 0.000485623)
(0.0888186 0.000466538 0.000413587)
(0.0881999 0.000429033 0.000349548)
(0.0876565 0.000404084 0.000273223)
(0.0871967 0.000388194 0.000174421)
(0.0868304 0.000374701 2.07863e-05)
(0.0865453 0.000327925 -0.000250856)
(0.0861665 7.42937e-05 -0.000801366)
(0.0860559 -0.000728464 -0.00191084)
(0.10014 0.000775021 0.000869232)
(0.100454 0.0019624 0.00196348)
(0.100911 0.00242751 0.00233432)
(0.100979 0.00252659 0.00244096)
(0.100695 0.00242631 0.00233635)
(0.100225 0.00219757 0.002112)
(0.0997106 0.00191672 0.00182255)
(0.0991866 0.00166568 0.00157431)
(0.098694 0.00146256 0.00138784)
(0.0982503 0.0012958 0.00124695)
(0.0978632 0.00115786 0.00114195)
(0.0975307 0.00104363 0.0010649)
(0.0972501 0.000947178 0.00100523)
(0.0970216 0.000861425 0.000953867)
(0.0968474 0.00077683 0.000903191)
(0.096731 0.000682176 0.000839663)
(0.0966722 0.000558128 0.000738299)
(0.0966581 0.000378631 0.000567168)
(0.0966053 9.75526e-05 0.000303467)
(0.096725 -0.000382505 -2.61948e-05)
(0.100093 0.000445904 0.0007632)
(0.100504 0.00119441 0.00174902)
(0.101105 0.00158665 0.00212952)
(0.101635 0.00174014 0.00223457)
(0.10198 0.00178179 0.00228694)
(0.102173 0.00172825 0.00223586)
(0.102254 0.0016068 0.00211592)
(0.102279 0.00145813 0.00196477)
(0.102283 0.00130156 0.00180272)
(0.102278 0.00115059 0.00165393)
(0.102275 0.00101822 0.00154593)
(0.102282 0.000902374 0.0014705)
(0.102299 0.000795923 0.00141832)
(0.102328 0.000689693 0.00138389)
(0.102373 0.000572371 0.00136248)
(0.102435 0.000433628 0.00134936)
(0.102511 0.000257931 0.00133945)
(0.102595 2.66169e-05 0.00133122)
(0.102674 -0.000272468 0.00133659)
(0.102861 -0.00059954 0.00142247)
(0.100087 0.000144349 0.000707015)
(0.100477 0.000390379 0.00161778)
(0.101066 0.000540907 0.00203465)
(0.101694 0.000609801 0.00211765)
(0.102269 0.000635375 0.00215029)
(0.102742 0.0006257 0.00218008)
(0.103124 0.000592959 0.00213465)
(0.103428 0.000546265 0.00204539)
(0.10368 0.000498805 0.00193731)
(0.103898 0.000452406 0.00183372)
(0.104094 0.000402711 0.00173894)
(0.10428 0.00034939 0.00165857)
(0.104457 0.000294148 0.00160983)
(0.104616 0.000232009 0.00159538)
(0.104758 0.000155697 0.00160497)
(0.104884 5.95868e-05 0.00163918)
(0.104989 -6.94011e-05 0.00171175)
(0.105065 -0.000246971 0.00183625)
(0.105115 -0.000483354 0.00200806)
(0.105335 -0.000747159 0.00220026)
(0.100087 -0.000144411 0.000707022)
(0.100477 -0.000390564 0.0016178)
(0.101065 -0.00054123 0.00203466)
(0.101694 -0.000610364 0.00211772)
(0.102268 -0.000636401 0.00215057)
(0.102741 -0.000627486 0.00218062)
(0.103123 -0.00059589 0.0021355)
(0.103425 -0.000551079 0.00204671)
(0.103676 -0.000506943 0.00193934)
(0.103891 -0.000466316 0.00183703)
(0.104083 -0.000426049 0.00174423)
(0.104262 -0.000387981 0.00166784)
(0.104425 -0.000355902 0.00162666)
(0.104562 -0.000329964 0.00162378)
(0.104674 -0.000311713 0.00164973)
(0.104758 -0.000303462 0.00172043)
(0.104799 -0.000308028 0.00185422)
(0.10479 -0.000327153 0.00207465)
(0.104744 -0.00036431 0.0023805)
(0.104989 -0.000410702 0.00269764)
(0.100093 -0.000445911 0.000763214)
(0.100504 -0.00119443 0.00174906)
(0.101105 -0.00158669 0.00212966)
(0.101634 -0.00174027 0.00223504)
(0.101979 -0.00178202 0.00228785)
(0.102171 -0.00172861 0.00223718)
(0.102251 -0.00160747 0.00211791)
(0.102274 -0.00145928 0.00196783)
(0.102274 -0.00130332 0.00180732)
(0.102263 -0.00115384 0.00166134)
(0.102251 -0.00102367 0.00155888)
(0.102241 -0.000911228 0.0014926)
(0.102231 -0.000807855 0.00145579)
(0.10222 -0.000706434 0.00144748)
(0.102203 -0.000600251 0.00147068)
(0.102173 -0.000483696 0.00153403)
(0.102121 -0.000344862 0.00165649)
(0.102039 -0.000166768 0.00186246)
(0.101945 6.0683e-05 0.00215865)
(0.102168 0.000268567 0.00250076)
(0.10014 -0.000774986 0.000869274)
(0.100454 -0.0019623 0.00196366)
(0.100911 -0.00242732 0.00233472)
(0.100978 -0.00252621 0.00244163)
(0.100694 -0.00242565 0.00233735)
(0.100224 -0.00219642 0.00211335)
(0.0997083 -0.00191492 0.00182467)
(0.0991827 -0.00166294 0.00157802)
(0.0986872 -0.00145786 0.00139417)
(0.0982386 -0.0012877 0.00125749)
(0.0978434 -0.00114485 0.00115962)
(0.0974977 -0.00102189 0.00109406)
(0.0971976 -0.000909905 0.00105287)
(0.0969407 -0.000798428 0.00103084)
(0.0967231 -0.0006785 0.0010291)
(0.0965436 -0.000534379 0.00104889)
(0.0964004 -0.000344352 0.00109396)
(0.0962862 -7.98351e-05 0.00117049)
(0.0962014 0.000288381 0.00127549)
(0.0964189 0.000749144 0.00132099)
(0.100226 -0.000720792 0.000720824)
(0.0999601 -0.00198265 0.00198278)
(0.0997824 -0.00245166 0.00245197)
(0.0987883 -0.0024193 0.00241985)
(0.0972759 -0.00220034 0.0022012)
(0.0957753 -0.00181072 0.00181225)
(0.0943937 -0.00138116 0.00138364)
(0.0931655 -0.00106794 0.0010721)
(0.0920796 -0.000850177 0.000857287)
(0.0911195 -0.000695177 0.000707363)
(0.0902705 -0.000577805 0.00059949)
(0.0895092 -0.000485649 0.000520935)
(0.0888186 -0.000413603 0.00046649)
(0.0881999 -0.000349586 0.000429002)
(0.0876565 -0.000273292 0.000404076)
(0.0871967 -0.000174496 0.000388185)
(0.0868303 -2.08968e-05 0.000374725)
(0.0865451 0.000250677 0.000328029)
(0.086166 0.000801063 7.4523e-05)
(0.0860552 0.00191016 -0.000728008)
(0.0999088 -0.000712552 0.00129701)
(0.0969669 -0.0027472 0.00365593)
(0.0935347 -0.00211805 0.0026403)
(0.0895895 -0.00162038 0.00182055)
(0.0858326 -0.00139029 0.00152903)
(0.0825909 -0.00116073 0.00135164)
(0.0798666 -0.000896341 0.00118019)
(0.0775692 -0.000691057 0.00104198)
(0.0755615 -0.000558731 0.000945297)
(0.0737574 -0.000476909 0.000870068)
(0.0721123 -0.000427063 0.00080037)
(0.070599 -0.000395532 0.000731629)
(0.0692001 -0.000377409 0.0006707)
(0.0679041 -0.000370378 0.000622213)
(0.0667122 -0.000361861 0.000581709)
(0.0656411 -0.000337338 0.000544811)
(0.0647558 -0.000275047 0.000482847)
(0.0642423 -5.68054e-05 0.000345784)
(0.0646459 0.000305579 9.52047e-05)
(0.0625278 0.000663955 -0.000388434)
(0.099413 0.000270235 0.000345214)
(0.0988664 0.00187493 0.00201895)
(0.0979214 0.00218908 0.00257294)
(0.0963658 0.0019085 0.00237955)
(0.0946332 0.00162683 0.00211361)
(0.0929718 0.00141894 0.00192596)
(0.0913632 0.00127175 0.00180014)
(0.0898522 0.00116096 0.00170322)
(0.0884516 0.00107145 0.00160113)
(0.0871529 0.00100098 0.00148819)
(0.0859481 0.000955008 0.00137352)
(0.084821 0.00093151 0.0012625)
(0.0837516 0.000926701 0.00115259)
(0.0827235 0.000937738 0.00103618)
(0.0817232 0.000965209 0.000902847)
(0.0807384 0.00101297 0.000738384)
(0.0797458 0.00109098 0.000523757)
(0.0786936 0.00120823 0.000140954)
(0.0774836 0.00142789 -0.0005249)
(0.0760328 0.00205762 -0.00163929)
(0.10014 0.000869275 0.000774985)
(0.100454 0.00196366 0.0019623)
(0.100911 0.00233472 0.00242732)
(0.100978 0.00244164 0.0025262)
(0.100694 0.00233736 0.00242564)
(0.100224 0.00211336 0.00219642)
(0.0997083 0.00182468 0.00191491)
(0.0991827 0.00157804 0.00166293)
(0.0986872 0.00139418 0.00145785)
(0.0982386 0.0012575 0.00128768)
(0.0978434 0.00115964 0.00114483)
(0.0974977 0.00109408 0.00102187)
(0.0971976 0.0010529 0.000909885)
(0.0969407 0.00103084 0.000798386)
(0.0967231 0.00102908 0.000678436)
(0.0965437 0.00104885 0.000534304)
(0.0964004 0.00109387 0.000344233)
(0.0962862 0.00117028 7.9631e-05)
(0.0962014 0.00127518 -0.000288672)
(0.0964188 0.00132133 -0.000748977)
(0.10006 0.000641419 0.000641362)
(0.100502 0.00164512 0.00164494)
(0.101149 0.00221254 0.0022122)
(0.101738 0.00244022 0.00243964)
(0.102205 0.00244241 0.00244147)
(0.102502 0.00231429 0.00231282)
(0.102646 0.00209378 0.00209136)
(0.102716 0.00187103 0.00186716)
(0.102742 0.00167438 0.00166804)
(0.102758 0.00151022 0.00149988)
(0.10278 0.00137535 0.00135857)
(0.102819 0.0012659 0.00123885)
(0.102879 0.00117827 0.0011349)
(0.102966 0.00110852 0.00103954)
(0.10308 0.00105258 0.000944497)
(0.103221 0.00100614 0.000839674)
(0.103386 0.000963794 0.000713207)
(0.103565 0.000915977 0.000553649)
(0.103748 0.000846326 0.000359209)
(0.104086 0.000763441 0.000218313)
(0.100046 0.000395708 0.000540222)
(0.10048 0.00104483 0.00138403)
(0.101154 0.00147531 0.00192284)
(0.101913 0.00170514 0.00219235)
(0.102632 0.00177994 0.00229374)
(0.103302 0.00174465 0.00227777)
(0.103895 0.00163397 0.00218494)
(0.104392 0.00149116 0.00205156)
(0.10482 0.00134443 0.00190362)
(0.1052 0.00120871 0.00176379)
(0.105546 0.00108849 0.00164079)
(0.105872 0.000983834 0.00153608)
(0.106188 0.000891606 0.00144859)
(0.106502 0.000807418 0.00137562)
(0.10682 0.00072813 0.0013131)
(0.107146 0.000648593 0.00125664)
(0.107481 0.00056358 0.00120325)
(0.107827 0.000467066 0.00115287)
(0.108192 0.000356044 0.00111075)
(0.108656 0.000236419 0.00111805)
(0.100039 0.000131304 0.000478764)
(0.100448 0.000350418 0.00123477)
(0.101114 0.000504938 0.00174646)
(0.101909 0.000596954 0.0020268)
(0.102728 0.000638209 0.00215206)
(0.103529 0.000637649 0.00218643)
(0.104298 0.000603521 0.00215337)
(0.105008 0.000557645 0.00207969)
(0.105643 0.000507539 0.00198157)
(0.106217 0.000457815 0.00187542)
(0.10674 0.000410871 0.00177345)
(0.107222 0.000366962 0.001684)
(0.107674 0.000325067 0.00161355)
(0.108108 0.000282514 0.00156461)
(0.108528 0.000236957 0.00153652)
(0.108936 0.00018455 0.0015283)
(0.109333 0.000122812 0.00154444)
(0.109727 4.81361e-05 0.00158929)
(0.11014 -3.83835e-05 0.0016571)
(0.110645 -0.000122945 0.00174041)
(0.100039 -0.000131346 0.000478784)
(0.100448 -0.000350528 0.00123483)
(0.101114 -0.000505134 0.00174657)
(0.101909 -0.000597281 0.00202699)
(0.102728 -0.000638758 0.00215244)
(0.103528 -0.00063854 0.00218705)
(0.104297 -0.00060502 0.00215432)
(0.105006 -0.00056005 0.00208117)
(0.10564 -0.000511475 0.00198388)
(0.106212 -0.000464306 0.00187918)
(0.106733 -0.000421438 0.00177971)
(0.107212 -0.000383771 0.00169457)
(0.107658 -0.000350941 0.00163111)
(0.108085 -0.0003215 0.00159249)
(0.108494 -0.000295807 0.00157978)
(0.108887 -0.000275724 0.00159674)
(0.109267 -0.000260574 0.00165128)
(0.109647 -0.000248027 0.00175042)
(0.11006 -0.000236303 0.00188079)
(0.110597 -0.00021773 0.00200512)
(0.100046 -0.000395691 0.000540273)
(0.10048 -0.00104479 0.00138418)
(0.101154 -0.00147522 0.00192313)
(0.101913 -0.00170503 0.00219287)
(0.102631 -0.00177973 0.00229462)
(0.103301 -0.00174429 0.00227919)
(0.103893 -0.00163333 0.00218716)
(0.104389 -0.00149017 0.0020552)
(0.104816 -0.00134282 0.00190927)
(0.105193 -0.00120632 0.0017727)
(0.105535 -0.00108488 0.00165531)
(0.105854 -0.000978239 0.0015596)
(0.106161 -0.000882249 0.00148696)
(0.106461 -0.000792076 0.00143769)
(0.106757 -0.00070553 0.0014118)
(0.107054 -0.000617022 0.001412)
(0.107352 -0.000521244 0.00144277)
(0.107658 -0.000413579 0.00150653)
(0.107995 -0.000296835 0.00159123)
(0.108477 -0.000195974 0.00166942)
(0.10006 -0.000641362 0.000641418)
(0.100502 -0.00164494 0.00164511)
(0.101149 -0.0022122 0.00221254)
(0.101738 -0.00243964 0.00244022)
(0.102205 -0.00244147 0.0024424)
(0.102502 -0.00231282 0.00231428)
(0.102646 -0.00209136 0.00209378)
(0.102716 -0.00186717 0.00187102)
(0.102742 -0.00166805 0.00167436)
(0.102758 -0.00149989 0.00151021)
(0.10278 -0.00135859 0.00137534)
(0.102819 -0.00123887 0.00126589)
(0.102879 -0.00113493 0.00117825)
(0.102966 -0.00103958 0.00110851)
(0.10308 -0.000944553 0.0010526)
(0.103221 -0.000839755 0.00100619)
(0.103386 -0.000713331 0.000963883)
(0.103565 -0.000553837 0.00091613)
(0.103748 -0.000359463 0.000846536)
(0.104086 -0.000218521 0.00076356)
(0.10014 -0.000869233 0.00077502)
(0.100454 -0.00196348 0.0019624)
(0.100911 -0.00233432 0.00242751)
(0.100979 -0.00244096 0.00252659)
(0.100695 -0.00233636 0.0024263)
(0.100225 -0.002112 0.00219756)
(0.0997106 -0.00182256 0.00191671)
(0.0991866 -0.00157431 0.00166566)
(0.098694 -0.00138785 0.00146254)
(0.0982503 -0.00124696 0.00129578)
(0.0978632 -0.00114196 0.00115784)
(0.0975306 -0.00106492 0.00104361)
(0.0972501 -0.00100526 0.000947155)
(0.0970215 -0.000953905 0.000861404)
(0.0968474 -0.000903244 0.000776818)
(0.0967309 -0.000839753 0.000682191)
(0.0966722 -0.000738452 0.000558189)
(0.096658 -0.000567413 0.000378767)
(0.0966052 -0.000303836 9.78018e-05)
(0.096725 2.57902e-05 -0.000382187)
(0.099413 -0.000270228 0.000345232)
(0.0988664 -0.00187486 0.00201904)
(0.0979217 -0.00218888 0.00257311)
(0.0963664 -0.00190816 0.00237984)
(0.0946344 -0.00162635 0.00211406)
(0.092974 -0.00141824 0.00192671)
(0.0913671 -0.0012706 0.00180126)
(0.0898591 -0.00115901 0.00170505)
(0.0884634 -0.0010683 0.00160422)
(0.0871727 -0.000995754 0.00149333)
(0.0859812 -0.0009467 0.00138207)
(0.0848769 -0.000917116 0.00127645)
(0.0838446 -0.000901742 0.00117462)
(0.0828781 -0.000894834 0.00107009)
(0.0819808 -0.000889463 0.0009542)
(0.081175 -0.000870942 0.000811449)
(0.0805071 -0.000825337 0.000618519)
(0.0800432 -0.00068354 0.000274793)
(0.0798657 -0.000422691 -0.000381649)
(0.0791438 0.000196447 -0.00203054)
(0.0995405 0.000321901 0.000245031)
(0.0992576 0.00154094 0.00105555)
(0.0988488 0.00211454 0.0015022)
(0.0981246 0.00209178 0.00157919)
(0.0973364 0.00188644 0.00151445)
(0.0965839 0.00166642 0.00144579)
(0.0958635 0.00149886 0.00140896)
(0.0951943 0.00137305 0.00137689)
(0.0945627 0.00128781 0.00132983)
(0.0939126 0.00123526 0.00125608)
(0.0932755 0.00120224 0.00116208)
(0.0926467 0.00118685 0.00105904)
(0.0920123 0.00118791 0.00095552)
(0.0913563 0.00120674 0.000853054)
(0.0906566 0.00124901 0.000745479)
(0.089879 0.00132618 0.00062186)
(0.0889674 0.00146151 0.000485168)
(0.0877969 0.0017033 0.000291626)
(0.0862427 0.00201245 2.23925e-05)
(0.0844376 0.003396 0.00032293)
(0.100093 0.000763214 0.00044591)
(0.100504 0.00174906 0.00119443)
(0.101105 0.00212966 0.00158669)
(0.101634 0.00223505 0.00174027)
(0.101979 0.00228786 0.00178202)
(0.102171 0.00223718 0.00172861)
(0.102251 0.00211792 0.00160746)
(0.102274 0.00196784 0.00145927)
(0.102274 0.00180733 0.00130331)
(0.102263 0.00166135 0.00115382)
(0.102251 0.00155889 0.00102364)
(0.102241 0.00149261 0.000911205)
(0.102231 0.0014558 0.000807828)
(0.10222 0.00144747 0.000706393)
(0.102203 0.00147066 0.000600195)
(0.102173 0.00153398 0.000483631)
(0.102121 0.00165638 0.000344776)
(0.102039 0.00186227 0.000166649)
(0.101945 0.00215834 -6.0826e-05)
(0.102167 0.0025006 -0.000268528)
(0.100046 0.000540274 0.000395691)
(0.10048 0.00138419 0.00104478)
(0.101154 0.00192313 0.00147522)
(0.101913 0.00219287 0.00170503)
(0.102631 0.00229462 0.00177973)
(0.103301 0.0022792 0.00174428)
(0.103893 0.00218717 0.00163332)
(0.104389 0.0020552 0.00149016)
(0.104816 0.00190928 0.00134281)
(0.105193 0.00177271 0.00120631)
(0.105535 0.00165532 0.00108486)
(0.105854 0.00155961 0.000978221)
(0.106161 0.00148696 0.000882227)
(0.106461 0.00143768 0.000792045)
(0.106757 0.00141178 0.000705489)
(0.107054 0.00141196 0.000616977)
(0.107352 0.00144269 0.000521195)
(0.107658 0.00150642 0.000413532)
(0.107994 0.00159112 0.000296825)
(0.108476 0.00166945 0.000196104)
(0.100036 0.000323157 0.000323119)
(0.100429 0.000868709 0.000868602)
(0.10108 0.00126246 0.00126226)
(0.101891 0.00150447 0.00150414)
(0.102756 0.00162172 0.00162118)
(0.103616 0.001643 0.00164216)
(0.104446 0.00160509 0.00160382)
(0.105224 0.00152709 0.0015251)
(0.105939 0.00142806 0.00142494)
(0.106594 0.001324 0.0013191)
(0.107199 0.00122557 0.00121782)
(0.107763 0.00113804 0.00112576)
(0.108296 0.00106328 0.0010439)
(0.108806 0.00100155 0.000971308)
(0.1093 0.000952515 0.000906239)
(0.109786 0.000915587 0.000846607)
(0.11027 0.000889963 0.000790552)
(0.11076 0.00087316 0.000737083)
(0.111275 0.000858243 0.000688601)
(0.111872 0.000832585 0.000662956)
(0.100031 0.000107072 0.000281373)
(0.100395 0.000293034 0.000768603)
(0.101024 0.00043406 0.00113302)
(0.101843 0.000526197 0.00136912)
(0.102751 0.000576306 0.00150131)
(0.103688 0.00059169 0.00155408)
(0.104617 0.000582268 0.0015491)
(0.105516 0.00055758 0.00150821)
(0.106367 0.00052383 0.00144464)
(0.107164 0.00048654 0.00136865)
(0.107907 0.000449976 0.00128897)
(0.1086 0.000416497 0.0012123)
(0.109252 0.000386982 0.00114344)
(0.10987 0.000361015 0.00108582)
(0.110463 0.000336638 0.00104243)
(0.11104 0.000312823 0.00101407)
(0.111605 0.000289118 0.00100015)
(0.112168 0.000266125 0.000998389)
(0.112746 0.00024272 0.00100568)
(0.11339 0.00022049 0.00101957)
(0.100031 -0.000107076 0.000281392)
(0.100395 -0.00029304 0.000768658)
(0.101024 -0.000434067 0.00113312)
(0.101843 -0.000526206 0.00136931)
(0.102751 -0.000576315 0.00150163)
(0.103688 -0.000591688 0.00155456)
(0.104617 -0.000582256 0.00154979)
(0.105515 -0.000557618 0.00150925)
(0.106366 -0.000523994 0.00144624)
(0.107163 -0.0004869 0.00137116)
(0.107905 -0.000450553 0.00129292)
(0.108598 -0.000417208 0.00121849)
(0.109248 -0.00038756 0.00115308)
(0.109865 -0.000361171 0.00110072)
(0.110457 -0.000336794 0.00106544)
(0.111032 -0.000314496 0.00104871)
(0.111595 -0.000294404 0.00105012)
(0.11216 -0.00027639 0.00106619)
(0.112745 -0.000260247 0.00108968)
(0.113403 -0.000249773 0.00110478)
(0.100036 -0.00032312 0.000323157)
(0.100429 -0.000868604 0.000868708)
(0.10108 -0.00126226 0.00126245)
(0.101891 -0.00150414 0.00150447)
(0.102756 -0.00162118 0.00162171)
(0.103616 -0.00164216 0.00164299)
(0.104446 -0.00160382 0.00160509)
(0.105224 -0.0015251 0.00152709)
(0.105939 -0.00142495 0.00142805)
(0.106594 -0.00131911 0.00132399)
(0.107199 -0.00121783 0.00122557)
(0.107763 -0.00112577 0.00113804)
(0.108296 -0.00104392 0.00106328)
(0.108806 -0.000971332 0.00100156)
(0.1093 -0.000906265 0.000952527)
(0.109786 -0.000846633 0.000915607)
(0.11027 -0.000790574 0.000889989)
(0.110761 -0.00073709 0.000873184)
(0.111275 -0.000688565 0.000858246)
(0.111872 -0.000662829 0.000832518)
(0.100046 -0.000540223 0.000395707)
(0.10048 -0.00138403 0.00104483)
(0.101154 -0.00192285 0.0014753)
(0.101913 -0.00219235 0.00170514)
(0.102632 -0.00229375 0.00177994)
(0.103302 -0.00227778 0.00174465)
(0.103895 -0.00218494 0.00163396)
(0.104392 -0.00205157 0.00149116)
(0.10482 -0.00190362 0.00134442)
(0.1052 -0.0017638 0.0012087)
(0.105546 -0.0016408 0.00108848)
(0.105872 -0.0015361 0.000983824)
(0.106188 -0.00144862 0.000891597)
(0.106502 -0.00137565 0.000807415)
(0.10682 -0.00131314 0.000728138)
(0.107146 -0.0012567 0.000648616)
(0.107481 -0.00120334 0.000563621)
(0.107827 -0.001153 0.000467124)
(0.108192 -0.00111089 0.000356103)
(0.108656 -0.00111809 0.000236407)
(0.100093 -0.0007632 0.000445903)
(0.100504 -0.00174902 0.00119441)
(0.101105 -0.00212952 0.00158664)
(0.101635 -0.00223457 0.00174013)
(0.10198 -0.00228694 0.00178178)
(0.102173 -0.00223586 0.00172824)
(0.102254 -0.00211592 0.00160679)
(0.102279 -0.00196477 0.00145813)
(0.102283 -0.00180272 0.00130155)
(0.102278 -0.00165394 0.00115058)
(0.102275 -0.00154594 0.00101821)
(0.102281 -0.00147051 0.000902359)
(0.102299 -0.00141834 0.000795908)
(0.102328 -0.00138392 0.000689679)
(0.102373 -0.00136253 0.000572362)
(0.102435 -0.00134944 0.000433636)
(0.102511 -0.0013396 0.000257965)
(0.102595 -0.00133146 2.66914e-05)
(0.102674 -0.00133689 -0.000272359)
(0.102861 -0.0014223 -0.000599655)
(0.0995405 -0.0003219 0.000245016)
(0.0992576 -0.00154094 0.00105548)
(0.0988491 -0.00211443 0.00150206)
(0.0981252 -0.00209161 0.00157894)
(0.0973376 -0.00188617 0.00151391)
(0.0965863 -0.00166599 0.00144472)
(0.0958677 -0.00149833 0.00140711)
(0.0952015 -0.00137215 0.00137388)
(0.0945751 -0.00128583 0.00132469)
(0.0939337 -0.00123098 0.00124791)
(0.0933113 -0.00119427 0.00114927)
(0.0927071 -0.00117201 0.00103893)
(0.0921141 -0.00116243 0.000922658)
(0.0915285 -0.00116316 0.000798553)
(0.0909479 -0.00117029 0.000658066)
(0.0903699 -0.00117846 0.000470423)
(0.0897971 -0.00118304 0.000208291)
(0.0892289 -0.00118868 -0.000178921)
(0.0886304 -0.001211 -0.00075668)
(0.0878842 -0.00130866 -0.0016525)
(0.0993802 5.89808e-05 3.37836e-05)
(0.0992677 0.00120005 0.000274425)
(0.0989804 0.00188851 0.000432443)
(0.0984745 0.00200653 0.000483575)
(0.0979952 0.00191483 0.000479012)
(0.0975701 0.00173504 0.000465779)
(0.0971794 0.00154779 0.000453255)
(0.0968281 0.00138947 0.000442977)
(0.0965253 0.0012718 0.000437193)
(0.0962659 0.00120276 0.000429862)
(0.0959832 0.00117816 0.000413573)
(0.095675 0.00118081 0.000391166)
(0.0953346 0.00119895 0.000368784)
(0.0949399 0.00123542 0.000354004)
(0.0944722 0.00130154 0.000357329)
(0.0938976 0.00140576 0.000381054)
(0.0931708 0.00157212 0.000448573)
(0.0922069 0.00183601 0.000557659)
(0.0908916 0.00221333 0.000832813)
(0.0895323 0.00277542 0.00118122)
(0.100087 0.000707022 0.00014441)
(0.100477 0.0016178 0.000390562)
(0.101065 0.00203466 0.000541227)
(0.101694 0.00211772 0.00061036)
(0.102268 0.00215057 0.000636396)
(0.102741 0.00218062 0.00062748)
(0.103123 0.0021355 0.000595882)
(0.103425 0.00204671 0.000551068)
(0.103676 0.00193934 0.00050693)
(0.103891 0.00183703 0.000466299)
(0.104083 0.00174423 0.000426029)
(0.104262 0.00166784 0.000387957)
(0.104425 0.00162665 0.000355874)
(0.104562 0.00162377 0.000329928)
(0.104674 0.00164971 0.000311669)
(0.104758 0.00172039 0.000303414)
(0.104799 0.00185416 0.000307984)
(0.10479 0.00207455 0.000327127)
(0.104744 0.00238032 0.000364336)
(0.104989 0.00269734 0.000410847)
(0.100039 0.000478785 0.000131345)
(0.100448 0.00123483 0.000350526)