/*--------------------------------*- C++ -*----------------------------------*\
| =========                 |                                                 |
| \\      /  F ield         | OpenFOAM: The Open Source CFD Toolbox           |
|  \\    /   O peration     | Version:  2212                                  |
|   \\  /    A nd           | Website:  www.openfoam.com                      |
|    \\/     M anipulation  |                                                 |
\*---------------------------------------------------------------------------*/
FoamFile
{
    version     2.0;
    format      ascii;
    arch        "LSB;label=32;scalar=64";
    class       surfaceVectorField;
    location    "1.05";
    object      Uf;
}
// * * * * * * * * * * * * * * * * * * * * * * * * * * * * * * * * * * * * * //

dimensions      [0 1 -1 0 0 0 0];

internalField   nonuniform List<vector> 
19019
(
(0.0993441 -0.00341899 -0.00341904)
(0.0973536 0.00106248 -0.00148428)
(0.0973536 -0.00148428 0.00106246)
(0.0834792 0.00197593 0.0019758)
(0.0930872 0.00326904 0.00253344)
(0.0930872 0.00253352 0.00326891)
(0.0745172 0.00195885 0.00195859)
(0.0848641 0.00163593 0.00179229)
(0.0848641 0.00179245 0.0016357)
(0.068548 0.00115932 0.00115883)
(0.0786283 0.00107367 0.00122125)
(0.0786282 0.00122157 0.00107326)
(0.0642365 0.000697371 0.000696564)
(0.0740535 0.000785647 0.000864964)
(0.0740533 0.000865476 0.000784868)
(0.0607574 0.000495558 0.000494015)
(0.0704433 0.000651006 0.000669093)
(0.0704429 0.000669955 0.000649763)
(0.0579384 0.000376196 0.000373389)
(0.067493 0.000547732 0.000508161)
(0.0674923 0.000509855 0.000545291)
(0.0556157 0.000290256 0.000285623)
(0.065053 0.000470544 0.000386913)
(0.0650519 0.00038968 0.000466346)
(0.0536276 0.000230737 0.00022317)
(0.0629697 0.000418005 0.000307026)
(0.0629676 0.000311503 0.000410943)
(0.0518844 0.000189397 0.000176818)
(0.0611377 0.000377364 0.000253701)
(0.0611342 0.000261015 0.000365519)
(0.0503376 0.000161461 0.00014063)
(0.0594987 0.000342246 0.0002173)
(0.0594924 0.000230193 0.000322339)
(0.0489557 0.000142965 0.000109787)
(0.0580198 0.000311992 0.000191473)
(0.0580085 0.000212884 0.000279089)
(0.0477101 0.000131507 7.97554e-05)
(0.0566753 0.000289591 0.000172959)
(0.056656 0.000203608 0.000236135)
(0.0465821 0.000127384 4.54543e-05)
(0.0554455 0.000276972 0.000158553)
(0.0554139 0.000200037 0.000188916)
(0.045577 0.000132635 8.39002e-06)
(0.0543277 0.000272786 0.000139489)
(0.0542758 0.0002051 0.000127641)
(0.0447086 0.000151128 -4.33181e-05)
(0.053334 0.00027782 0.000115795)
(0.053246 0.000218578 4.67776e-05)
(0.0440232 0.000177646 -0.000156955)
(0.0525103 0.000297476 6.7302e-05)
(0.0523527 0.000248461 -7.14955e-05)
(0.0438402 0.000177631 -0.000359084)
(0.052015 0.000328968 -7.4994e-05)
(0.0517142 0.000250657 -0.000321976)
(0.0448224 -0.000843545 -0.00184807)
(0.0524088 0.000311022 -0.000309072)
(0.0517951 0.00015335 -0.000807924)
(0.0510851 -0.00100075 -0.00203863)
(0.0508661 -0.00184473 -0.00379332)
(0.0984572 0.00247647 0.00172988)
(0.0996871 0.000439236 0.00034548)
(0.100049 0.00105639 0.000750961)
(0.0958349 0.00314812 0.00243262)
(0.0978162 0.00273281 0.00228226)
(0.0982936 0.00280925 0.00216142)
(0.0914501 0.00223043 0.00186921)
(0.0954961 0.00300173 0.00230306)
(0.0963041 0.00244272 0.00199771)
(0.0875956 0.0016748 0.00150533)
(0.0926194 0.00229939 0.00183865)
(0.093667 0.00198083 0.0017268)
(0.0841483 0.00144035 0.0012755)
(0.0897679 0.00189195 0.00153552)
(0.090905 0.00171989 0.00149762)
(0.0811889 0.00126593 0.00102853)
(0.0872332 0.0016565 0.00129455)
(0.0884351 0.00145485 0.00121149)
(0.0787031 0.0011111 0.000793694)
(0.0850085 0.00149206 0.00107705)
(0.086306 0.00118405 0.000908286)
(0.0765598 0.00099366 0.000624888)
(0.083064 0.00137154 0.000913234)
(0.0844825 0.000983921 0.000690207)
(0.0746563 0.00090771 0.000517813)
(0.08133 0.00127844 0.000801641)
(0.0828834 0.000846716 0.000547835)
(0.0729323 0.000835251 0.000451977)
(0.0797554 0.00119384 0.000726536)
(0.0814535 0.000747104 0.000454077)
(0.0713528 0.000766036 0.000411285)
(0.0783131 0.00111167 0.000679433)
(0.0801612 0.000666662 0.000388806)
(0.0698976 0.000701208 0.000386456)
(0.0769827 0.00103131 0.000650679)
(0.0789813 0.000597883 0.000340524)
(0.0685512 0.00064651 0.00037388)
(0.0757477 0.000953442 0.000634305)
(0.0778963 0.000543024 0.000305987)
(0.0673052 0.000602024 0.000366103)
(0.074599 0.000877982 0.000626576)
(0.0769005 0.000501897 0.000279528)
(0.0661678 0.000563321 0.00034957)
(0.0735388 0.00080215 0.00061882)
(0.0759961 0.000470412 0.000245936)
(0.0651727 0.000513877 0.000306145)
(0.0725864 0.000719328 0.000597514)
(0.075196 0.000444821 0.000193177)
(0.0644229 0.000414345 0.000165857)
(0.0717984 0.000598497 0.00054254)
(0.0745408 0.000404811 9.15105e-05)
(0.0642474 0.000220489 -0.000124483)
(0.0713071 0.000332595 0.000344169)
(0.0741286 0.00030314 -0.000161273)
(0.0653809 -0.000146699 -0.000484931)
(0.0714511 -0.000237877 -2.70895e-05)
(0.0741855 -2.93058e-05 -0.000796247)
(0.0699574 -0.00186935 -0.00074772)
(0.0729573 -0.00120005 -0.00277007)
(0.0993753 0.00118214 0.00107254)
(0.099473 0.000349753 0.000307058)
(0.0997475 0.000610984 0.000779873)
(0.0984949 0.00229608 0.00203187)
(0.0990504 0.00157678 0.00172045)
(0.0995971 0.00201831 0.00200284)
(0.0971415 0.00247648 0.00204852)
(0.0983579 0.00213104 0.00216882)
(0.0992974 0.00246153 0.00210232)
(0.09544 0.00224696 0.00176725)
(0.0971936 0.00203567 0.00200233)
(0.0984886 0.00237448 0.00190245)
(0.0937517 0.0020204 0.00152229)
(0.0959059 0.00185539 0.00175427)
(0.0974229 0.00218088 0.00168848)
(0.0921398 0.00186399 0.00134441)
(0.0946731 0.00173225 0.00154259)
(0.0963106 0.00198469 0.00150803)
(0.0906043 0.00175317 0.0012148)
(0.093484 0.00165182 0.00138643)
(0.0952063 0.00180145 0.00134234)
(0.089156 0.00165465 0.00111365)
(0.0923719 0.00157522 0.00126555)
(0.0941511 0.00164425 0.00120318)
(0.0878119 0.00154879 0.00103202)
(0.0913381 0.00147865 0.00117204)
(0.093171 0.00150405 0.00109489)
(0.086574 0.00143772 0.000971217)
(0.0903528 0.00136625 0.00110356)
(0.09227 0.00137372 0.00101245)
(0.085428 0.00132928 0.000931896)
(0.089429 0.00125167 0.00105807)
(0.0914486 0.00125522 0.000954997)
(0.0843594 0.00122556 0.000909412)
(0.0885599 0.00113767 0.00103043)
(0.0906994 0.00114956 0.000917063)
(0.0833589 0.00112239 0.000898267)
(0.0877343 0.0010242 0.0010166)
(0.0900131 0.00105335 0.000892124)
(0.0824256 0.00101218 0.000892124)
(0.0869469 0.000906777 0.00101238)
(0.0893861 0.000960239 0.000874305)
(0.0815708 0.000882864 0.000880165)
(0.0861986 0.000774807 0.00101179)
(0.0888216 0.00086126 0.000856705)
(0.0808322 0.000715012 0.000848072)
(0.0855 0.00060276 0.00100382)
(0.088333 0.000742669 0.000824462)
(0.0802662 0.000446658 0.000754317)
(0.0848769 0.000361295 0.0009779)
(0.0879455 0.00058191 0.000754842)
(0.0799362 -5.34701e-05 0.000552904)
(0.0843641 -1.5992e-05 0.000902206)
(0.0876885 0.000311457 0.000591676)
(0.0799229 -0.00120618 0.00011275)
(0.0839888 -0.000651358 0.000770575)
(0.0875686 -0.000178651 0.000307566)
(0.0832556 -0.00185498 0.000510516)
(0.087234 -0.00131214 -0.000255622)
(0.0996493 0.00065025 0.000931417)
(0.0994625 0.000129351 0.000192487)
(0.0997993 0.000375109 0.000741364)
(0.0990855 0.00127877 0.00182768)
(0.0992625 0.00063677 0.00137061)
(0.099841 0.0011503 0.00181422)
(0.0984494 0.0015405 0.00210302)
(0.098913 0.000973195 0.00200355)
(0.0999049 0.00153633 0.00209012)
(0.0977081 0.00154643 0.00198888)
(0.0982952 0.00104966 0.00205064)
(0.0997677 0.00163141 0.00202292)
(0.0969403 0.00147932 0.00177608)
(0.0976577 0.00100681 0.00189967)
(0.0995101 0.00160909 0.00189557)
(0.0962092 0.00142592 0.00158216)
(0.0970653 0.000958852 0.00169841)
(0.0992006 0.00154673 0.0017516)
(0.0955246 0.0013905 0.00143524)
(0.0965066 0.000931066 0.00152096)
(0.0988566 0.0014732 0.00162582)
(0.0948764 0.00134929 0.00132899)
(0.0959942 0.000913048 0.0013796)
(0.0985139 0.00139054 0.0015151)
(0.0942439 0.00128632 0.0012584)
(0.0955264 0.000896008 0.00127921)
(0.0981823 0.00129559 0.00141982)
(0.0936206 0.00119861 0.00121262)
(0.0950726 0.00085877 0.00121796)
(0.0978388 0.0011879 0.00134346)
(0.0930099 0.00109412 0.00118314)
(0.0946186 0.000793611 0.00118614)
(0.0975062 0.00107636 0.00129044)
(0.092411 0.000980817 0.00116721)
(0.0941638 0.000713852 0.0011742)
(0.0971879 0.000965568 0.00125583)
(0.091821 0.000860632 0.00116278)
(0.0937031 0.000626442 0.00117517)
(0.0968806 0.00085547 0.00123561)
(0.0912376 0.000728338 0.0011667)
(0.0932271 0.000528382 0.00118717)
(0.0965827 0.000741048 0.00122765)
(0.0906585 0.00056427 0.00117433)
(0.0927295 0.000412271 0.00121142)
(0.0962948 0.000612714 0.00122915)
(0.0900843 0.000339369 0.00118067)
(0.0922023 0.000254368 0.00124932)
(0.0960162 0.000449376 0.00123576)
(0.0895185 1.46729e-05 0.00118571)
(0.0916372 2.73994e-05 0.00130424)
(0.0957471 0.000229292 0.00124301)
(0.0889454 -0.000467862 0.00119958)
(0.091014 -0.000307538 0.00138439)
(0.0954844 -8.31327e-05 0.001253)
(0.0882947 -0.00120475 0.00125944)
(0.0902876 -0.000795331 0.00149939)
(0.0952028 -0.00052801 0.00128206)
(0.0894351 -0.00155694 0.00167271)
(0.0948935 -0.00115298 0.00140213)
(0.0996725 0.000153993 0.000629465)
(0.0993802 -2.03497e-08 5.89523e-05)
(0.0997132 0.000103894 0.000687947)
(0.0991591 0.000353145 0.00154424)
(0.0992677 -9.57343e-08 0.00120003)
(0.0998377 0.000341525 0.00162229)
(0.0986637 0.000457471 0.00194748)
(0.0989804 -2.15009e-07 0.00188849)
(0.0999631 0.000485244 0.00199139)
(0.0982124 0.000480365 0.00196057)
(0.0984746 -3.7743e-07 0.0020065)
(0.0999919 0.00053923 0.00199663)
(0.0977766 0.000470784 0.0018247)
(0.0979955 -6.38872e-07 0.00191475)
(0.100009 0.000545689 0.00191103)
(0.0973631 0.000456693 0.00164102)
(0.0975706 -1.09912e-06 0.00173488)
(0.100008 0.00053224 0.00180427)
(0.0969952 0.000443246 0.00146799)
(0.0971804 -1.90895e-06 0.00154755)
(0.0999818 0.00050932 0.00168288)
(0.0966749 0.000431826 0.00132949)
(0.0968297 -3.24209e-06 0.00138907)
(0.0999399 0.000481412 0.00157263)
(0.0963946 0.000419655 0.00123521)
(0.096528 -5.48251e-06 0.00127105)
(0.0998999 0.000454999 0.00148156)
(0.0961286 0.000398577 0.0011869)
(0.0962705 -9.19483e-06 0.00120143)
(0.0998674 0.000426862 0.00141899)
(0.0958495 0.000363987 0.00117351)
(0.0959911 -1.53519e-05 0.00117592)
(0.0998137 0.00038987 0.00138087)
(0.0955439 0.000316446 0.00117959)
(0.0956885 -2.553e-05 0.00117708)
(0.0997445 0.000343663 0.00135689)
(0.0952034 0.000255497 0.00119794)
(0.0953577 -4.24177e-05 0.0011924)
(0.0996578 0.000289653 0.00134832)
(0.094818 0.000178306 0.00123144)
(0.0949802 -7.10511e-05 0.00122273)
(0.0995424 0.000224605 0.00135928)
(0.0943774 7.5129e-05 0.00128787)
(0.0945414 -0.000119636 0.0012772)
(0.0993924 0.000143352 0.00139174)
(0.0938612 -7.66748e-05 0.00137733)
(0.0940173 -0.000198811 0.00136435)
(0.0992015 3.48576e-05 0.00145067)
(0.0932418 -0.000312577 0.00151072)
(0.0933753 -0.000335716 0.00150197)
(0.0989562 -0.00012255 0.00154938)
(0.0924764 -0.000685508 0.00169242)
(0.0925526 -0.000553615 0.00171289)
(0.098632 -0.000358178 0.00170072)
(0.0915623 -0.00132222 0.00191043)
(0.0914642 -0.000956109 0.00200434)
(0.0981998 -0.000710879 0.00190135)
(0.0903021 -0.00162724 0.00240074)
(0.0977932 -0.0012656 0.00213197)
(0.0996725 -0.000154106 0.000629515)
(0.0994625 -0.000129391 0.000192517)
(0.0997132 -0.000103941 0.000687951)
(0.0991591 -0.00035344 0.00154428)
(0.0992625 -0.000636921 0.00137063)
(0.0998376 -0.000341712 0.00162231)
(0.0986635 -0.000458018 0.00194752)
(0.0989128 -0.00097348 0.00200362)
(0.099963 -0.000485607 0.00199139)
(0.0982121 -0.000481304 0.00196068)
(0.0982948 -0.00105013 0.00205076)
(0.0999917 -0.00053986 0.00199667)
(0.0977758 -0.000472408 0.00182493)
(0.0976568 -0.00100768 0.00189988)
(0.100009 -0.000546796 0.00191121)
(0.0973617 -0.000459531 0.00164141)
(0.0970636 -0.000960429 0.00169878)
(0.100007 -0.000534169 0.00180464)
(0.0969928 -0.000448133 0.00146863)
(0.0965036 -0.000933857 0.00152147)
(0.0999801 -0.000512607 0.00168344)
(0.0966707 -0.000440105 0.00133063)
(0.095989 -0.000917795 0.00138047)
(0.099937 -0.00048693 0.00157354)
(0.0963874 -0.000433551 0.00123728)
(0.0955173 -0.000904081 0.00128099)
(0.099895 -0.000464323 0.00148313)
(0.0961164 -0.000421744 0.00119046)
(0.0950573 -0.000872028 0.00122152)
(0.0998592 -0.000442596 0.00142164)
(0.0958285 -0.000402401 0.00117949)
(0.0945925 -0.000815208 0.00119252)
(0.0997999 -0.000416136 0.00138512)
(0.095508 -0.000380012 0.00118988)
(0.0941197 -0.000748936 0.00118562)
(0.0997215 -0.000387103 0.00136401)
(0.0951417 -0.000361438 0.00121719)
(0.0936283 -0.000684158 0.0011949)
(0.0996184 -0.000360554 0.00136136)
(0.0947113 -0.000355719 0.00126849)
(0.0930994 -0.000624782 0.00122237)
(0.0994741 -0.00034079 0.00138413)
(0.0941918 -0.000369258 0.00135367)
(0.0925126 -0.000571635 0.0012763)
(0.0992798 -0.000334261 0.00143688)
(0.0935428 -0.000414905 0.00148899)
(0.0918337 -0.000521234 0.00136684)
(0.0990155 -0.000343296 0.00153192)
(0.0927044 -0.000503244 0.00170415)
(0.0910119 -0.000490344 0.00151805)
(0.0986505 -0.000381724 0.00169297)
(0.0915731 -0.000695427 0.00202482)
(0.0899419 -0.000459768 0.00177248)
(0.0981365 -0.00044946 0.00195474)
(0.0900065 -0.00100739 0.00249466)
(0.0885037 -0.000488569 0.00211878)
(0.0974195 -0.000614318 0.00233097)
(0.0869155 -0.000760006 0.00309659)
(0.0968161 -0.000825461 0.00286593)
(0.0996493 -0.000650295 0.000931422)
(0.099473 -0.000349749 0.000307062)
(0.0997993 -0.000375119 0.000741363)
(0.0990854 -0.00127889 0.00182774)
(0.0990504 -0.00157676 0.00172049)
(0.0998409 -0.00115035 0.00181423)
(0.098449 -0.00154071 0.00210316)
(0.0983576 -0.00213101 0.00216898)
(0.0999046 -0.00153643 0.0020902)
(0.0977072 -0.00154683 0.00198911)
(0.097193 -0.00203562 0.00200259)
(0.0997671 -0.0016316 0.00202319)
(0.0969385 -0.00148013 0.00177642)
(0.0959047 -0.00185541 0.00175466)
(0.0995089 -0.00160949 0.00189607)
(0.096206 -0.00142739 0.00158264)
(0.0946708 -0.00173241 0.00154316)
(0.0991985 -0.00154746 0.00175236)
(0.095519 -0.00139295 0.00143595)
(0.0934799 -0.00165216 0.0013873)
(0.0988528 -0.00147448 0.00162693)
(0.0948668 -0.00135339 0.00133043)
(0.0923649 -0.00157569 0.001267)
(0.0985075 -0.00139267 0.0015169)
(0.0942275 -0.00129298 0.00126153)
(0.091326 -0.00147937 0.00117462)
(0.0981716 -0.00129912 0.00142282)
(0.0935926 -0.00120911 0.00121874)
(0.0903324 -0.00136727 0.00110831)
(0.0978206 -0.00119368 0.00134867)
(0.0929627 -0.0011106 0.00119454)
(0.0893946 -0.00125311 0.00106619)
(0.0974759 -0.00108553 0.00129956)
(0.0923315 -0.00100732 0.00118738)
(0.0885019 -0.00113961 0.001045)
(0.0971369 -0.000980086 0.0012721)
(0.0916872 -0.00090433 0.00119732)
(0.0876371 -0.00102737 0.00104166)
(0.0967948 -0.00087817 0.00126449)
(0.0910115 -0.000799314 0.00122788)
(0.086784 -0.000912603 0.00105516)
(0.0964405 -0.000777614 0.00127899)
(0.0902758 -0.00068373 0.00128762)
(0.0859251 -0.000784634 0.00108796)
(0.0960604 -0.000672221 0.00132137)
(0.0894354 -0.0005536 0.00139391)
(0.0850377 -0.000625856 0.00114631)
(0.0956327 -0.000554009 0.00140442)
(0.08841 -0.000388539 0.00158255)
(0.0840832 -0.000423034 0.0012453)
(0.0951233 -0.000419941 0.00155505)
(0.087061 -0.000157248 0.00185816)
(0.0829752 -0.000102405 0.0014147)
(0.0944618 -0.000240288 0.00181919)
(0.0852014 -0.000172935 0.00270444)
(0.081603 0.000361831 0.00168024)
(0.093591 -3.20775e-06 0.00219638)
(0.0799855 0.000873379 0.0026492)
(0.092735 -0.000119998 0.00341235)
(0.0993753 -0.00118209 0.00107258)
(0.0996871 -0.000439212 0.000345488)
(0.0997475 -0.000610958 0.000779894)
(0.0984947 -0.00229595 0.002032)
(0.0978161 -0.00273268 0.00228233)
(0.0995971 -0.00201822 0.00200295)
(0.0971411 -0.00247625 0.00204879)
(0.0954959 -0.00300152 0.00230324)
(0.0992972 -0.00246134 0.00210259)
(0.0954391 -0.00224659 0.00176766)
(0.092619 -0.00229902 0.00183898)
(0.0984881 -0.00237414 0.00190292)
(0.09375 -0.0020198 0.00152288)
(0.0897671 -0.00189128 0.00153599)
(0.0974219 -0.00218033 0.00168918)
(0.0921368 -0.00186307 0.00134534)
(0.0872317 -0.00165539 0.00129531)
(0.0963088 -0.00198377 0.00150904)
(0.090599 -0.0017517 0.00121635)
(0.0850058 -0.00149014 0.00107832)
(0.0952031 -0.00180003 0.00134395)
(0.0891469 -0.0016522 0.00111619)
(0.0830594 -0.00136834 0.000915317)
(0.0941455 -0.00164201 0.00120593)
(0.0877964 -0.00154469 0.00103621)
(0.0813219 -0.00127308 0.00080509)
(0.0931614 -0.0015002 0.00109942)
(0.0865479 -0.00143088 0.000977982)
(0.0797417 -0.0011848 0.000732299)
(0.0922539 -0.00136719 0.00102001)
(0.0853843 -0.00131804 0.000943243)
(0.0782897 -0.00109622 0.000689628)
(0.0914216 -0.00124464 0.000967679)
(0.0842866 -0.00120758 0.000929089)
(0.0769422 -0.00100599 0.000668232)
(0.0906541 -0.00113217 0.000938719)
(0.0832378 -0.00109442 0.000932201)
(0.0756794 -0.000913929 0.000660499)
(0.0899386 -0.00102466 0.000928712)
(0.0822239 -0.00096955 0.000951456)
(0.0744863 -0.000815794 0.00066346)
(0.0892654 -0.000913707 0.000935505)
(0.081232 -0.000820663 0.00098909)
(0.0733519 -0.000701053 0.000681542)
(0.0886253 -0.000790169 0.000962011)
(0.0802494 -0.000631146 0.00105202)
(0.0722697 -0.000552874 0.000715777)
(0.088011 -0.000639762 0.00101305)
(0.079247 -0.00033249 0.00114973)
(0.0712403 -0.00034403 0.000766124)
(0.0874092 -0.00044348 0.00110004)
(0.0781433 0.000191729 0.00131831)
(0.0702882 5.81195e-05 0.000792366)
(0.0867886 -0.000128079 0.00124312)
(0.0766918 0.00108175 0.0017431)
(0.0695382 0.000856349 0.000772181)
(0.0860961 0.000373068 0.00150536)
(0.0682629 0.00305587 9.13897e-05)
(0.0854129 0.00112833 0.00206706)
(0.0984572 -0.00247639 0.00172992)
(0.0973536 -0.00106247 -0.00148428)
(0.100049 -0.00105637 0.000750985)
(0.0958348 -0.00314793 0.00243275)
(0.0930872 -0.00326892 0.00253352)
(0.0982936 -0.00280913 0.00216155)
(0.09145 -0.00223012 0.00186946)
(0.0848641 -0.00163571 0.00179244)
(0.096304 -0.00244245 0.00199795)
(0.0875952 -0.00167419 0.00150573)
(0.0786282 -0.00107327 0.00122157)
(0.0936669 -0.00198037 0.00172726)
(0.0841476 -0.00143931 0.00127616)
(0.0740533 -0.000784878 0.000865468)
(0.0909048 -0.00171909 0.00149833)
(0.0811877 -0.00126414 0.00102968)
(0.0704429 -0.000649775 0.000669946)
(0.0884346 -0.00145352 0.00121276)
(0.0787009 -0.00110792 0.000795572)
(0.0674923 -0.000545308 0.000509842)
(0.0863051 -0.00118174 0.000910411)
(0.0765559 -0.000988204 0.000627949)
(0.0650519 -0.000466366 0.000389665)
(0.0844809 -0.000979985 0.000693721)
(0.0746496 -0.000898394 0.000522909)
(0.0629676 -0.000410965 0.000311486)
(0.0828806 -0.000839997 0.000553763)
(0.0729205 -0.000819384 0.000461229)
(0.0611342 -0.000365544 0.000260996)
(0.0814486 -0.000735642 0.000464189)
(0.0713319 -0.000739515 0.000427692)
(0.0594924 -0.000322367 0.00023017)
(0.0801525 -0.000646768 0.000407196)
(0.0698606 -0.000657918 0.00041042)
(0.0580085 -0.000279118 0.000212857)
(0.0789657 -0.000565346 0.000371268)
(0.0684887 -0.000575237 0.00040273)
(0.056656 -0.000236164 0.000203577)
(0.0778694 -0.000492614 0.00035131)
(0.0672038 -0.000482554 0.00040574)
(0.0554139 -0.00018895 0.000200006)
(0.0768567 -0.000422479 0.000344305)
(0.0659983 -0.000359592 0.000420428)
(0.0542758 -0.000127681 0.000205072)
(0.0759239 -0.000338508 0.00035353)
(0.0648827 -0.000180779 0.000442425)
(0.053246 -4.68168e-05 0.000218553)
(0.0750737 -0.000223569 0.000379268)
(0.0638954 0.000119772 0.000436777)
(0.0523526 7.14533e-05 0.000248445)
(0.0743217 -5.07181e-05 0.000419523)
(0.0632054 0.000708393 0.000334524)
(0.051714 0.00032192 0.000250675)
(0.0737103 0.000269232 0.00041758)
(0.063314 0.00247226 -0.000553831)
(0.0517946 0.000807898 0.000153417)
(0.073332 0.000955863 0.000203572)
(0.0508652 0.00379323 -0.00184453)
(0.0726519 0.00310563 -0.00136121)
(0.0993441 0.00341904 -0.00341899)
(0.0973536 0.00148428 0.00106248)
(0.0834792 -0.00197581 0.00197593)
(0.0930872 -0.00253344 0.00326904)
(0.0745172 -0.0019586 0.00195884)
(0.0848641 -0.0017923 0.00163593)
(0.068548 -0.00115884 0.00115931)
(0.0786283 -0.00122126 0.00107366)
(0.0642365 -0.000696574 0.000697361)
(0.0740535 -0.00086497 0.000785637)
(0.0607574 -0.000494028 0.000495545)
(0.0704433 -0.000669101 0.000650995)
(0.0579384 -0.000373406 0.000376178)
(0.067493 -0.000508173 0.000547717)
(0.0556157 -0.000285642 0.000290236)
(0.065053 -0.000386926 0.000470526)
(0.0536276 -0.00022319 0.000230714)
(0.0629697 -0.000307041 0.000417984)
(0.0518844 -0.000176842 0.000189371)
(0.0611377 -0.000253718 0.00037734)
(0.0503376 -0.000140656 0.000161432)
(0.0594987 -0.000217321 0.000342219)
(0.0489557 -0.000109813 0.000142931)
(0.0580198 -0.000191498 0.000311962)
(0.0477101 -7.97849e-05 0.00013147)
(0.0566753 -0.000172984 0.000289556)
(0.046582 -4.54871e-05 0.000127349)
(0.0554455 -0.000158582 0.000276934)
(0.045577 -8.42078e-06 0.000132601)
(0.0543277 -0.000139522 0.000272748)
(0.0447086 4.32832e-05 0.000151099)
(0.053334 -0.000115832 0.000277785)
(0.0440231 0.000156908 0.000177633)
(0.0525102 -6.73529e-05 0.000297452)
(0.0438399 0.000359042 0.00017766)
(0.0520148 7.49266e-05 0.000328965)
(0.0448218 0.00184798 -0.000843418)
(0.0524084 0.000308999 0.000311088)
(0.0510845 0.00203839 -0.00100047)
(0.0984572 0.00172993 0.00247639)
(0.100049 0.000750985 0.00105637)
(0.0996871 0.000345488 0.000439211)
(0.0958348 0.00243275 0.00314793)
(0.0982936 0.00216155 0.00280912)
(0.0978161 0.00228233 0.00273268)
(0.09145 0.00186946 0.00223011)
(0.096304 0.00199796 0.00244245)
(0.0954959 0.00230324 0.00300151)
(0.0875952 0.00150573 0.00167418)
(0.0936669 0.00172726 0.00198036)
(0.092619 0.00183899 0.00229902)
(0.0841476 0.00127617 0.0014393)
(0.0909048 0.00149834 0.00171908)
(0.0897671 0.00153599 0.00189127)
(0.0811877 0.00102969 0.00126412)
(0.0884346 0.00121277 0.0014535)
(0.0872317 0.00129531 0.00165538)
(0.0787009 0.000795581 0.0011079)
(0.0863051 0.000910421 0.00118172)
(0.0850058 0.00107832 0.00149012)
(0.0765559 0.000627959 0.000988181)
(0.0844809 0.000693732 0.000979967)
(0.0830594 0.000915328 0.00136833)
(0.0746496 0.000522921 0.000898366)
(0.0828806 0.000553775 0.000839975)
(0.0813219 0.000805104 0.00127306)
(0.0729205 0.000461244 0.000819352)
(0.0814486 0.000464203 0.000735616)
(0.0797417 0.000732315 0.00118477)
(0.0713319 0.000427709 0.00073948)
(0.0801525 0.000407212 0.000646737)
(0.0782897 0.000689646 0.0010962)
(0.0698606 0.000410439 0.000657881)
(0.0789657 0.000371285 0.000565311)
(0.0769422 0.000668253 0.00100597)
(0.0684887 0.000402751 0.000575198)
(0.0778694 0.000351333 0.000492582)
(0.0756794 0.00066052 0.0009139)
(0.0672038 0.000405759 0.000482508)
(0.0768567 0.000344322 0.000422437)
(0.0744863 0.000663485 0.000815766)
(0.0659983 0.00042044 0.000359534)
(0.0759239 0.000353535 0.000338445)
(0.0733519 0.000681565 0.000701022)
(0.0648828 0.00044242 0.00018071)
(0.0750737 0.000379269 0.000223496)
(0.0722697 0.000715781 0.000552828)
(0.0638956 0.000436731 -0.000119866)
(0.0743218 0.000419498 5.06254e-05)
(0.0712404 0.00076609 0.00034396)
(0.0632058 0.000334404 -0.000708531)
(0.0737105 0.000417485 -0.000269378)
(0.0702884 0.000792244 -5.8256e-05)
(0.063315 -0.000554094 -0.00247247)
(0.0733326 0.000203364 -0.000956093)
(0.0695388 0.000771936 -0.00085659)
(0.0726529 -0.00136165 -0.00310608)
(0.0682638 9.10092e-05 -0.00305623)
(0.10008 0.0013518 0.00135172)
(0.100186 0.000798773 0.000804932)
(0.100186 0.000804968 0.000798736)
(0.100264 0.00221738 0.00221715)
(0.10019 0.0023119 0.00207139)
(0.10019 0.00207154 0.00231175)
(0.0993829 0.00243592 0.00243548)
(0.100307 0.00263379 0.00245289)
(0.100306 0.00245325 0.00263351)
(0.0979842 0.00231053 0.00230982)
(0.0998052 0.00256056 0.00245564)
(0.099805 0.00245625 0.00256006)
(0.0964952 0.00200673 0.00200552)
(0.098863 0.00236473 0.0022805)
(0.0988627 0.00228143 0.00236393)
(0.0950731 0.00159796 0.00159593)
(0.0978413 0.00204966 0.00196747)
(0.0978407 0.00196891 0.00204825)
(0.0937761 0.00122789 0.00122454)
(0.0968622 0.00169223 0.0016037)
(0.0968611 0.001606 0.00168995)
(0.0926191 0.000964714 0.000959044)
(0.0959609 0.00140614 0.00131988)
(0.0959591 0.0013238 0.0014024)
(0.0915965 0.000782346 0.00077266)
(0.0951505 0.0011942 0.00111591)
(0.0951473 0.00112256 0.00118777)
(0.0906926 0.000653452 0.000636471)
(0.0944301 0.00103623 0.000967392)
(0.0944247 0.000978654 0.00102526)
(0.0898876 0.000560242 0.000531703)
(0.0937956 0.000916194 0.000856277)
(0.0937864 0.000875876 0.000897604)
(0.0891625 0.000493752 0.000449605)
(0.0932333 0.000823654 0.000771879)
(0.093218 0.000803995 0.000793346)
(0.0885083 0.000447785 0.000381568)
(0.0927331 0.000751614 0.000706132)
(0.0927087 0.000756041 0.000703894)
(0.0879265 0.000416558 0.000311385)
(0.0922955 0.000692641 0.000648245)
(0.092258 0.000725601 0.000617447)
(0.0874235 0.000396139 0.000223822)
(0.0919236 0.000640207 0.000583887)
(0.0918659 0.000711046 0.000519582)
(0.0870104 0.000381447 9.76035e-05)
(0.0916232 0.000586446 0.000501085)
(0.0915362 0.000710972 0.000397173)
(0.0867014 0.000351313 -0.000115035)
(0.0913997 0.000516962 0.000370374)
(0.0912735 0.000723469 0.000222548)
(0.0864331 0.000201109 -0.000526111)
(0.0912404 0.000400591 0.000143096)
(0.0910677 0.000733834 -4.60065e-05)
(0.0858965 -0.000327085 -0.0013561)
(0.0910129 0.000145943 -0.000270876)
(0.0908254 0.000664921 -0.0004486)
(0.0910093 -0.000306577 -0.000960504)
(0.0908671 0.000334362 -0.000985949)
(0.100171 0.00136871 0.00141636)
(0.100118 0.000577415 0.00081129)
(0.100102 0.000699782 0.000700657)
(0.100759 0.00219495 0.0021489)
(0.100478 0.00158287 0.0018587)
(0.100477 0.00182259 0.00186454)
(0.100996 0.00247705 0.00238764)
(0.101004 0.00205877 0.00224236)
(0.101024 0.00234689 0.00238271)
(0.100838 0.00247645 0.00238866)
(0.101293 0.00220352 0.00235177)
(0.101338 0.00250616 0.00254332)
(0.100458 0.00231194 0.00222418)
(0.101309 0.00216744 0.0023216)
(0.101409 0.00245091 0.00247175)
(0.0999684 0.00205714 0.00196727)
(0.101157 0.00201092 0.00217807)
(0.101302 0.0022652 0.00226968)
(0.0994448 0.0017912 0.00169843)
(0.100928 0.00179374 0.00196746)
(0.101099 0.00200992 0.00199743)
(0.098936 0.00156412 0.00148107)
(0.100666 0.00158329 0.00176417)
(0.100856 0.00177132 0.00175581)
(0.0984688 0.00137918 0.0013174)
(0.100411 0.00139473 0.00158799)
(0.100609 0.00157074 0.00156074)
(0.098055 0.00122683 0.00119445)
(0.100177 0.0012279 0.00144196)
(0.100382 0.0014048 0.00140488)
(0.0976957 0.00110074 0.00110343)
(0.0999741 0.00108606 0.00133434)
(0.100189 0.00126795 0.00128087)
(0.097389 0.000995402 0.00103507)
(0.0998038 0.000965774 0.00125712)
(0.100032 0.00115565 0.00118197)
(0.0971344 0.000904301 0.000979551)
(0.0996658 0.000860527 0.00120031)
(0.0999124 0.00106308 0.00109991)
(0.096933 0.000819127 0.000928529)
(0.0995606 0.000761709 0.00115647)
(0.0998328 0.000984594 0.00102622)
(0.0967878 0.000729503 0.000871427)
(0.0994911 0.000658341 0.00111923)
(0.0997949 0.000913167 0.00095262)
(0.0967011 0.000620152 0.000788981)
(0.09946 0.0005396 0.00107928)
(0.0998004 0.000840792 0.000866916)
(0.0966702 0.00046838 0.000652734)
(0.0994657 0.000388467 0.00102125)
(0.0998474 0.00075486 0.000751045)
(0.096654 0.000238092 0.000435318)
(0.0994987 0.000183103 0.000927871)
(0.0999247 0.000637242 0.00058338)
(0.0965336 -0.000142476 0.000138636)
(0.0995087 -0.000101625 0.000793799)
(0.0999831 0.000456877 0.000356079)
(0.0996607 -0.000516071 0.000661596)
(0.100206 0.000173386 0.00015973)
(0.100242 0.000820156 0.00125611)
(0.10009 0.000294313 0.000735345)
(0.100071 0.000415672 0.000602752)
(0.100828 0.00139053 0.00193927)
(0.100491 0.000791921 0.00168399)
(0.100493 0.00112441 0.00158692)
(0.101393 0.00166339 0.00218204)
(0.101086 0.0010776 0.00208333)
(0.101129 0.00154081 0.00209394)
(0.101816 0.00176096 0.00226076)
(0.101664 0.00120412 0.00217882)
(0.101768 0.00173265 0.00229386)
(0.102081 0.00175502 0.0022614)
(0.102121 0.00123934 0.00222165)
(0.102291 0.00178978 0.00236666)
(0.102216 0.00166752 0.00217589)
(0.102452 0.00120123 0.00220966)
(0.102712 0.00174365 0.00232104)
(0.102267 0.00153247 0.00204034)
(0.10268 0.00111726 0.0021257)
(0.103037 0.00162579 0.00220077)
(0.102278 0.00137985 0.00188374)
(0.102842 0.00101544 0.00200459)
(0.103288 0.00147871 0.0020476)
(0.102277 0.00122607 0.00172832)
(0.102967 0.000913389 0.00186907)
(0.103494 0.00132627 0.00188746)
(0.102275 0.00108441 0.00159993)
(0.103071 0.000816232 0.00174265)
(0.103673 0.00118244 0.00174173)
(0.102278 0.000960299 0.00150821)
(0.103166 0.000725934 0.00164126)
(0.103837 0.00105583 0.00162622)
(0.102289 0.000849148 0.00144441)
(0.103261 0.000641171 0.00156345)
(0.103996 0.000945313 0.00153668)
(0.102313 0.000742808 0.0014011)
(0.103356 0.000559311 0.00151291)
(0.104156 0.000845671 0.0014678)
(0.10235 0.000631032 0.00137319)
(0.103449 0.000473359 0.00148815)
(0.104321 0.00074997 0.00141501)
(0.102404 0.000503 0.00135592)
(0.103541 0.000374077 0.00148175)
(0.104496 0.000650739 0.00137338)
(0.102473 0.000345779 0.00134441)
(0.103634 0.000252838 0.00149152)
(0.104684 0.000540104 0.00133819)
(0.102555 0.000142274 0.00133534)
(0.103724 9.4811e-05 0.00152156)
(0.104884 0.000407502 0.00130579)
(0.102637 -0.000122925 0.00133391)
(0.103805 -0.000114947 0.00157793)
(0.105093 0.000240376 0.00127596)
(0.102704 -0.000436004 0.00137953)
(0.103869 -0.000391876 0.00166408)
(0.105308 3.09167e-05 0.00125724)
(0.104073 -0.000704611 0.00180059)
(0.105627 -0.000197293 0.00130404)
(0.100243 0.000267364 0.0011624)
(0.100087 -3.43911e-08 0.000707018)
(0.100064 0.000135791 0.00053732)
(0.100782 0.000465643 0.00182622)
(0.100477 -9.86141e-08 0.00161779)
(0.100463 0.000370837 0.00142411)
(0.101401 0.000575354 0.00207615)
(0.101066 -1.69566e-07 0.00203465)
(0.101089 0.00052508 0.00193354)
(0.101988 0.000622588 0.00213397)
(0.101694 -3.04739e-07 0.00211768)
(0.101797 0.000605724 0.00212855)
(0.102507 0.000630538 0.00216518)
(0.102269 -5.53667e-07 0.00215043)
(0.102489 0.000639021 0.00221096)
(0.102935 0.00060933 0.00215737)
(0.102742 -9.54421e-07 0.00218035)
(0.103119 0.000633666 0.00224165)
(0.103278 0.000569612 0.00209002)
(0.103123 -1.56758e-06 0.00213508)
(0.103687 0.000600063 0.00219699)
(0.103555 0.000522535 0.00199135)
(0.103427 -2.56389e-06 0.00204605)
(0.104185 0.000553429 0.0021065)
(0.103788 0.000475605 0.00188552)
(0.103678 -4.28968e-06 0.00193833)
(0.104621 0.000504361 0.00199433)