/*--------------------------------*- C++ -*----------------------------------*\
| =========                 |                                                 |
| \\      /  F ield         | OpenFOAM: The Open Source CFD Toolbox           |
|  \\    /   O peration     | Version:  2212                                  |
|   \\  /    A nd           | Website:  www.openfoam.com                      |
|    \\/     M anipulation  |                                                 |
\*---------------------------------------------------------------------------*/
FoamFile
{
    version     2.0;
    format      ascii;
    arch        "LSB;label=32;scalar=64";
    class       volVectorField;
    location    "0.45";
    object      U;
}
// * * * * * * * * * * * * * * * * * * * * * * * * * * * * * * * * * * * * * //

dimensions      [0 1 -1 0 0 0 0];

internalField   nonuniform List<vector> 
680
(
(0.0956456 -0.00836001 -0.00836001)
(0.0904937 0.00152195 0.00152205)
(0.0790678 0.00242967 0.00242986)
(0.0713006 0.00148765 0.00148804)
(0.0661789 0.000830255 0.000830995)
(0.0623227 0.00056289 0.000564101)
(0.0592223 0.000425137 0.000427758)
(0.0999089 0.00129698 0.000712614)
(0.0969668 0.00365575 0.00274751)
(0.0935342 0.00264006 0.0021186)
(0.0895885 0.00182002 0.00162108)
(0.0858316 0.00152781 0.0013909)
(0.0825899 0.00134963 0.00116136)
(0.0798665 0.00117681 0.00089671)
(0.099413 0.000345191 0.000270273)
(0.0988663 0.00201887 0.00187522)
(0.0979209 0.00257284 0.00218954)
(0.096365 0.00237925 0.00190898)
(0.0946324 0.00211295 0.00162706)
(0.0929713 0.00192457 0.00141819)
(0.0913644 0.00179762 0.00126868)
(0.0995405 0.000245022 0.00032197)
(0.0992574 0.0010555 0.00154134)
(0.0988483 0.00150204 0.00211506)
(0.0981237 0.00157883 0.00209213)
(0.0973354 0.0015136 0.00188637)
(0.0965835 0.00144476 0.00166542)
(0.0958642 0.00140765 0.001496)
(0.0993802 3.37842e-05 5.9038e-05)
(0.0992676 0.000274415 0.00120042)
(0.09898 0.000432417 0.00188916)
(0.0984736 0.00048351 0.00200706)
(0.0979938 0.000478901 0.00191458)
(0.0975693 0.000465513 0.0017334)
(0.0971801 0.000452686 0.00154441)
(0.0993801 -3.37439e-05 5.89812e-05)
(0.0992676 -0.000274213 0.00120037)
(0.09898 -0.000431982 0.00188914)
(0.0984738 -0.000482758 0.00200698)
(0.0979944 -0.000477608 0.00191438)
(0.0975704 -0.000463222 0.00173299)
(0.0971821 -0.000448602 0.0015438)
(0.0995405 -0.000245004 0.00032197)
(0.0992575 -0.00105541 0.00154133)
(0.0988486 -0.00150188 0.00211494)
(0.0981243 -0.00157856 0.00209192)
(0.0973369 -0.00151297 0.00188602)
(0.0965862 -0.0014435 0.00166488)
(0.095869 -0.00140541 0.00149536)
(0.099413 -0.000345205 0.000270266)
(0.0988663 -0.00201894 0.00187513)
(0.0979212 -0.002573 0.00218929)
(0.0963657 -0.00237956 0.00190856)
(0.0946337 -0.00211346 0.0016265)
(0.0929738 -0.00192541 0.00141733)
(0.0913691 -0.00179889 0.00126723)
(0.0999088 -0.00129699 0.000712594)
(0.0969668 -0.00365588 0.00274742)
(0.0935343 -0.00264027 0.00211839)
(0.0895888 -0.00182041 0.00162068)
(0.0858321 -0.00152866 0.00139033)
(0.0825909 -0.00135099 0.00116031)
(0.0798682 -0.00117938 0.000894978)
(0.0956456 0.00836 -0.00836001)
(0.0904937 -0.00152204 0.00152196)
(0.0790678 -0.00242984 0.00242969)
(0.0713006 -0.00148801 0.00148768)
(0.0661789 -0.000830964 0.000830301)
(0.0623227 -0.000564062 0.00056294)
(0.0592223 -0.000427704 0.000425216)
(0.0999088 0.000712593 0.00129699)
(0.0969668 0.00274741 0.00365589)
(0.0935343 0.00211838 0.0026403)
(0.0895888 0.00162067 0.00182044)
(0.0858321 0.00139031 0.0015287)
(0.0825909 0.00116027 0.00135104)
(0.0798682 0.000894942 0.00117945)
(0.100226 0.00072082 0.000720853)
(0.09996 0.0019828 0.00198295)
(0.0997821 0.00245199 0.00245236)
(0.0987882 0.00241958 0.00242023)
(0.0972756 0.00220049 0.00220148)
(0.0957752 0.00181055 0.00181237)
(0.0943949 0.00138028 0.0013833)
(0.10014 0.000775017 0.000869396)
(0.100454 0.00196243 0.00196409)
(0.100911 0.00242754 0.00233541)
(0.100978 0.00252626 0.00244228)
(0.100694 0.00242531 0.00233774)
(0.100224 0.00219515 0.00211276)
(0.099709 0.00191225 0.00182208)
(0.100093 0.000445928 0.000763374)
(0.100504 0.00119446 0.00174948)
(0.101105 0.00158671 0.00213029)
(0.101634 0.00174024 0.0022357)
(0.101978 0.00178151 0.00228724)
(0.102171 0.00172708 0.00223403)
(0.102252 0.00160404 0.00211079)
(0.100087 0.000144424 0.000707212)
(0.100477 0.000390593 0.00161831)
(0.101065 0.000541242 0.00203527)
(0.101694 0.000610373 0.00211811)
(0.102268 0.000636428 0.0021501)
(0.102741 0.000627269 0.00217725)
(0.103123 0.000594796 0.0021267)
(0.100087 -0.000144356 0.000707205)
(0.100477 -0.000390391 0.0016183)
(0.101066 -0.000540895 0.00203527)
(0.101694 -0.000609762 0.00211803)
(0.102269 -0.00063529 0.00214975)
(0.102742 -0.000625248 0.00217658)
(0.103124 -0.000591438 0.00212563)
(0.100093 -0.000445919 0.000763361)
(0.100504 -0.00119443 0.00174943)
(0.101105 -0.00158666 0.00213012)
(0.101635 -0.00174009 0.00223512)
(0.10198 -0.00178124 0.00228608)
(0.102173 -0.00172665 0.00223236)
(0.102256 -0.00160326 0.00210839)
(0.10014 -0.000775052 0.00086935)
(0.100454 -0.00196254 0.00196388)
(0.100911 -0.00242775 0.00233492)
(0.100978 -0.0025267 0.00244146)
(0.100695 -0.00242605 0.00233653)
(0.100226 -0.00219648 0.00211109)
(0.0997118 -0.0019144 0.0018195)
(0.100226 -0.000720853 0.000720822)
(0.09996 -0.00198294 0.0019828)
(0.0997821 -0.00245235 0.00245201)
(0.0987882 -0.00242022 0.00241961)
(0.0972756 -0.00220146 0.00220052)
(0.0957752 -0.00181235 0.00181059)
(0.094395 -0.00138327 0.00138033)
(0.0999089 -0.000712612 0.00129698)
(0.0969668 -0.00274751 0.00365576)
(0.0935342 -0.00211859 0.00264008)
(0.0895886 -0.00162108 0.00182004)
(0.0858316 -0.0013909 0.00152785)
(0.0825899 -0.00116136 0.00134967)
(0.0798665 -0.000896714 0.00117687)
(0.099413 0.000270264 0.000345207)
(0.0988663 0.00187513 0.00201896)
(0.0979212 0.00218928 0.00257302)
(0.0963657 0.00190855 0.00237959)
(0.0946337 0.00162648 0.0021135)
(0.0929738 0.0014173 0.00192545)
(0.091369 0.0012672 0.00179895)
(0.10014 0.000869348 0.000775054)
(0.100454 0.00196388 0.00196254)
(0.100911 0.00233492 0.00242776)
(0.100978 0.00244144 0.00252672)
(0.100695 0.00233651 0.00242607)
(0.100226 0.00211107 0.0021965)
(0.0997118 0.00181947 0.00191443)
(0.10006 0.000641494 0.000641558)
(0.100502 0.00164529 0.0016455)
(0.101149 0.00221268 0.00221309)
(0.101738 0.00244009 0.0024408)
(0.102205 0.00244144 0.0024426)
(0.102502 0.00231189 0.00231372)
(0.102647 0.00208857 0.00209162)
(0.100046 0.000395782 0.000540433)
(0.10048 0.00104501 0.00138457)
(0.101154 0.00147553 0.00192355)
(0.101913 0.00170532 0.00219295)
(0.102633 0.00177979 0.00229364)
(0.103302 0.00174364 0.00227618)
(0.103893 0.00163145 0.00218065)
(0.100039 0.000131381 0.000478939)
(0.100449 0.000350609 0.00123517)
(0.101114 0.000505241 0.00174688)
(0.10191 0.00059737 0.00202681)
(0.10273 0.000638687 0.00215103)
(0.10353 0.000638217 0.0021831)
(0.104298 0.000604428 0.00214606)
(0.100039 -0.000131333 0.000478917)
(0.100449 -0.000350487 0.0012351)
(0.101114 -0.000505027 0.00174674)
(0.10191 -0.00059701 0.00202657)
(0.10273 -0.000638066 0.00215055)
(0.103531 -0.000637187 0.00218231)
(0.104299 -0.000602673 0.00214487)
(0.100046 -0.000395798 0.000540376)
(0.10048 -0.00104507 0.00138439)
(0.101155 -0.00147563 0.0019232)
(0.101914 -0.00170543 0.0021923)
(0.102633 -0.00178 0.0022925)
(0.103303 -0.00174394 0.00227423)
(0.103895 -0.00163223 0.00217784)
(0.10006 -0.000641556 0.000641495)
(0.100502 -0.00164549 0.00164529)
(0.101149 -0.00221308 0.00221268)
(0.101738 -0.0024408 0.0024401)
(0.102205 -0.0024426 0.00244144)
(0.102502 -0.00231372 0.0023119)
(0.102647 -0.00209162 0.00208857)
(0.10014 -0.000869394 0.000775017)
(0.100454 -0.00196409 0.00196244)
(0.100911 -0.00233541 0.00242755)
(0.100978 -0.00244228 0.00252628)
(0.100694 -0.00233774 0.00242532)
(0.100224 -0.00211276 0.00219517)
(0.0997091 -0.00182208 0.00191226)
(0.099413 -0.000270272 0.00034519)
(0.0988663 -0.00187521 0.00201887)
(0.0979209 -0.00218953 0.00257284)
(0.0963651 -0.00190897 0.00237925)
(0.0946324 -0.00162705 0.00211296)
(0.0929713 -0.00141819 0.00192458)
(0.0913644 -0.00126868 0.00179763)
(0.0995405 0.000321969 0.000245006)
(0.0992575 0.00154133 0.00105542)
(0.0988486 0.00211493 0.00150191)
(0.0981243 0.00209191 0.00157859)
(0.0973369 0.00188602 0.00151302)
(0.0965862 0.00166487 0.00144355)
(0.095869 0.00149535 0.00140548)
(0.100093 0.000763359 0.000445921)
(0.100504 0.00174943 0.00119444)
(0.101105 0.00213012 0.00158667)
(0.101635 0.00223511 0.00174011)
(0.10198 0.00228608 0.00178126)
(0.102173 0.00223236 0.00172667)
(0.102256 0.00210839 0.00160329)
(0.100046 0.000540376 0.0003958)
(0.10048 0.00138439 0.00104507)
(0.101155 0.0019232 0.00147563)
(0.101914 0.0021923 0.00170544)
(0.102633 0.0022925 0.00178)
(0.103303 0.00227423 0.00174395)
(0.103895 0.00217785 0.00163223)
(0.100036 0.000323171 0.000323214)
(0.100429 0.000868699 0.000868826)
(0.10108 0.00126228 0.00126252)
(0.101891 0.00150387 0.00150428)
(0.102756 0.00162032 0.00162099)
(0.103616 0.00164 0.00164107)
(0.104445 0.00159932 0.00160096)
(0.100031 0.000107091 0.000281417)
(0.100395 0.000293059 0.000768662)
(0.101024 0.000434041 0.00113294)
(0.101844 0.000526049 0.00136862)
(0.102751 0.00057587 0.00149996)
(0.103687 0.000590719 0.0015512)
(0.104614 0.000580486 0.0015438)
(0.100031 -0.000107086 0.000281396)
(0.100395 -0.000293054 0.000768598)
(0.101025 -0.000434043 0.00113281)
(0.101844 -0.000526057 0.00136838)
(0.102751 -0.000575891 0.00149956)
(0.103688 -0.000590772 0.00155058)
(0.104615 -0.000580581 0.00154294)
(0.100036 -0.000323212 0.000323171)
(0.100429 -0.000868823 0.000868698)
(0.10108 -0.00126252 0.00126228)
(0.101891 -0.00150428 0.00150387)
(0.102756 -0.001621 0.00162032)
(0.103616 -0.00164107 0.00164)
(0.104445 -0.00160096 0.00159931)
(0.100046 -0.000540431 0.000395781)
(0.10048 -0.00138457 0.00104501)
(0.101154 -0.00192355 0.00147553)
(0.101913 -0.00219295 0.00170532)
(0.102633 -0.00229364 0.00177979)
(0.103302 -0.00227619 0.00174364)
(0.103893 -0.00218066 0.00163145)
(0.100093 -0.000763372 0.000445927)
(0.100504 -0.00174947 0.00119446)
(0.101105 -0.00213029 0.00158671)
(0.101634 -0.0022357 0.00174024)
(0.101978 -0.00228724 0.00178151)
(0.102171 -0.00223404 0.00172709)
(0.102252 -0.0021108 0.00160404)
(0.0995405 -0.000321969 0.000245021)
(0.0992574 -0.00154133 0.00105549)
(0.0988483 -0.00211505 0.00150204)
(0.0981237 -0.00209213 0.00157883)
(0.0973355 -0.00188636 0.0015136)
(0.0965835 -0.00166542 0.00144476)
(0.0958642 -0.001496 0.00140765)
(0.0993801 5.89775e-05 3.37463e-05)
(0.0992676 0.00120038 0.000274226)
(0.09898 0.00188914 0.000432009)
(0.0984738 0.00200698 0.000482792)
(0.0979944 0.00191438 0.000477651)
(0.0975704 0.00173299 0.000463275)
(0.0971821 0.0015438 0.000448666)
(0.100087 0.000707204 0.00014436)
(0.100477 0.00161829 0.000390401)
(0.101066 0.00203527 0.000540909)
(0.101694 0.00211803 0.000609778)
(0.102269 0.00214975 0.00063531)
(0.102742 0.00217659 0.000625275)
(0.103124 0.00212564 0.000591473)
(0.100039 0.000478918 0.000131336)
(0.100449 0.0012351 0.000350493)
(0.101114 0.00174674 0.000505032)
(0.10191 0.00202657 0.000597016)
(0.10273 0.00215056 0.000638073)
(0.103531 0.00218232 0.000637197)
(0.104299 0.00214488 0.000602687)
(0.100031 0.000281397 0.000107089)
(0.100395 0.000768598 0.000293059)
(0.101025 0.00113281 0.000434046)
(0.101844 0.00136839 0.000526059)
(0.102751 0.00149956 0.000575892)
(0.103688 0.00155059 0.000590774)
(0.104615 0.00154296 0.000580586)
(0.100048 7.31331e-05 7.31398e-05)
(0.100365 0.000250997 0.000251024)
(0.10096 0.000386193 0.000386245)
(0.101771 0.000477504 0.000477592)
(0.102701 0.000531255 0.000531395)
(0.103688 0.000555026 0.000555243)
(0.104686 0.000556132 0.000556453)
(0.100048 -7.31388e-05 7.3134e-05)
(0.100365 -0.000251022 0.000250997)
(0.10096 -0.000386242 0.000386193)
(0.101771 -0.00047759 0.000477504)
(0.102701 -0.000531394 0.000531254)
(0.103688 -0.000555241 0.000555024)
(0.104686 -0.000556449 0.000556127)
(0.100031 -0.000281415 0.000107091)
(0.100395 -0.000768659 0.000293059)
(0.101024 -0.00113294 0.000434042)
(0.101844 -0.00136863 0.00052605)
(0.102751 -0.00149996 0.000575871)
(0.103687 -0.00155121 0.000590719)
(0.104614 -0.0015438 0.000580484)
(0.100039 -0.000478937 0.00013138)
(0.100449 -0.00123517 0.000350608)
(0.101114 -0.00174688 0.000505241)
(0.10191 -0.00202681 0.00059737)
(0.10273 -0.00215104 0.000638688)
(0.10353 -0.00218311 0.000638218)
(0.104298 -0.00214607 0.000604429)
(0.100087 -0.00070721 0.000144423)
(0.100477 -0.00161831 0.000390591)
(0.101065 -0.00203526 0.00054124)
(0.101694 -0.00211811 0.000610371)
(0.102268 -0.0021501 0.000636426)
(0.102741 -0.00217726 0.000627267)
(0.103123 -0.00212672 0.000594794)
(0.0993802 -5.9035e-05 3.37833e-05)
(0.0992676 -0.00120042 0.000274412)
(0.09898 -0.00188915 0.000432411)
(0.0984736 -0.00200705 0.000483501)
(0.0979939 -0.00191457 0.00047889)
(0.0975693 -0.0017334 0.0004655)
(0.0971801 -0.00154441 0.00045267)
(0.0993802 5.90328e-05 -3.37798e-05)
(0.0992676 0.00120041 -0.0002744)
(0.09898 0.00188916 -0.000432391)
(0.0984736 0.00200705 -0.000483477)
(0.0979939 0.00191457 -0.000478861)
(0.0975693 0.0017334 -0.000465463)
(0.0971801 0.00154441 -0.000452625)
(0.100087 0.000707211 -0.000144419)
(0.100477 0.00161831 -0.000390582)
(0.101065 0.00203526 -0.00054123)
(0.101694 0.00211811 -0.000610358)
(0.102268 0.0021501 -0.000636409)
(0.102741 0.00217726 -0.000627244)
(0.103123 0.00212672 -0.000594763)
(0.100039 0.00047894 -0.000131376)
(0.100449 0.00123517 -0.000350602)
(0.101114 0.00174688 -0.000505234)
(0.10191 0.00202681 -0.000597362)
(0.10273 0.00215104 -0.000638677)
(0.10353 0.00218311 -0.000638203)
(0.104298 0.00214608 -0.000604409)
(0.100031 0.000281419 -0.000107087)
(0.100395 0.000768663 -0.000293053)
(0.101024 0.00113294 -0.000434037)
(0.101844 0.00136863 -0.000526045)
(0.102751 0.00149997 -0.000575865)
(0.103687 0.00155121 -0.000590711)
(0.104614 0.00154381 -0.000580473)
(0.100048 7.31402e-05 -7.31313e-05)
(0.100365 0.000251025 -0.000250995)
(0.10096 0.000386246 -0.000386189)
(0.101771 0.000477594 -0.0004775)
(0.102701 0.000531399 -0.000531249)
(0.103688 0.000555249 -0.000555017)
(0.104686 0.000556462 -0.000556118)
(0.100048 -7.31285e-05 -7.31359e-05)
(0.100365 -0.000250991 -0.000251017)
(0.10096 -0.000386189 -0.00038624)
(0.101771 -0.0004775 -0.000477587)
(0.102701 -0.00053125 -0.00053139)
(0.103688 -0.000555017 -0.000555235)
(0.104686 -0.000556118 -0.000556443)
(0.100031 -0.000281394 -0.000107085)
(0.100395 -0.000768594 -0.000293053)
(0.101025 -0.00113281 -0.000434041)
(0.101844 -0.00136838 -0.000526053)
(0.102751 -0.00149955 -0.000575885)
(0.103688 -0.00155058 -0.000590764)
(0.104615 -0.00154294 -0.000580572)
(0.100039 -0.000478915 -0.000131333)
(0.100449 -0.0012351 -0.000350488)
(0.101114 -0.00174674 -0.000505026)
(0.10191 -0.00202657 -0.000597008)
(0.10273 -0.00215056 -0.000638063)
(0.103531 -0.00218232 -0.000637183)
(0.104299 -0.00214487 -0.000602668)
(0.100087 -0.000707203 -0.000144357)
(0.100477 -0.00161829 -0.000390394)
(0.101066 -0.00203527 -0.0005409)
(0.101694 -0.00211803 -0.000609767)
(0.102269 -0.00214975 -0.000635296)
(0.102742 -0.00217659 -0.000625254)
(0.103124 -0.00212563 -0.000591446)
(0.0993801 -5.89774e-05 -3.37443e-05)
(0.0992676 -0.00120037 -0.000274217)
(0.09898 -0.00188913 -0.000431993)
(0.0984738 -0.00200698 -0.000482774)
(0.0979944 -0.00191438 -0.000477628)
(0.0975704 -0.00173298 -0.000463246)
(0.0971821 -0.00154379 -0.00044863)
(0.0995405 0.000321969 -0.000245015)
(0.0992574 0.00154133 -0.00105548)
(0.0988483 0.00211505 -0.00150201)
(0.0981237 0.00209213 -0.0015788)
(0.0973355 0.00188636 -0.00151356)
(0.0965835 0.00166542 -0.00144471)
(0.0958642 0.001496 -0.00140759)
(0.100093 0.000763374 -0.000445922)
(0.100504 0.00174947 -0.00119445)
(0.101105 0.00213029 -0.0015867)
(0.101634 0.0022357 -0.00174023)
(0.101978 0.00228724 -0.00178149)
(0.102171 0.00223404 -0.00172706)
(0.102252 0.0021108 -0.00160401)
(0.100046 0.000540434 -0.000395777)
(0.10048 0.00138457 -0.00104501)
(0.101154 0.00192355 -0.00147553)
(0.101913 0.00219295 -0.00170531)
(0.102633 0.00229364 -0.00177978)
(0.103302 0.00227619 -0.00174363)
(0.103893 0.00218067 -0.00163144)
(0.100036 0.000323216 -0.000323166)
(0.100429 0.000868827 -0.000868693)
(0.10108 0.00126252 -0.00126227)
(0.101891 0.00150428 -0.00150386)
(0.102756 0.001621 -0.00162032)
(0.103616 0.00164108 -0.00163999)
(0.104445 0.00160097 -0.00159931)
(0.100031 0.000107089 -0.000281392)
(0.100395 0.000293059 -0.000768592)
(0.101025 0.000434047 -0.00113281)
(0.101844 0.000526061 -0.00136838)
(0.102751 0.000575896 -0.00149955)
(0.103688 0.000590781 -0.00155058)
(0.104615 0.000580595 -0.00154294)
(0.100031 -0.000107088 -0.000281413)
(0.100395 -0.000293054 -0.000768656)
(0.101024 -0.000434037 -0.00113293)
(0.101844 -0.000526044 -0.00136862)
(0.102751 -0.000575863 -0.00149996)
(0.103687 -0.000590708 -0.00155119)
(0.100036 -0.000323169 -0.000323211)
(0.100429 -0.000868694 -0.000868821)
(0.10108 -0.00126227 -0.00126251)
(0.101891 -0.00150386 -0.00150427)
(0.102756 -0.00162031 -0.00162099)
(0.103616 -0.00163999 -0.00164106)
(0.100046 -0.000540374 -0.000395798)
(0.10048 -0.00138439 -0.00104507)
(0.101155 -0.0019232 -0.00147562)
(0.101914 -0.0021923 -0.00170543)
(0.102633 -0.00229249 -0.00178)
(0.103303 -0.00227422 -0.00174394)
(0.100093 -0.000763359 -0.000445919)
(0.100504 -0.00174943 -0.00119444)
(0.101105 -0.00213012 -0.00158666)
(0.101635 -0.00223511 -0.0017401)
(0.10198 -0.00228607 -0.00178125)
(0.102173 -0.00223235 -0.00172666)
(0.0995405 -0.000321968 -0.000245004)
(0.0992575 -0.00154133 -0.00105542)
(0.0988486 -0.00211492 -0.00150189)
(0.0981243 -0.00209191 -0.00157857)
(0.0973369 -0.00188601 -0.001513)
(0.0965862 -0.00166487 -0.00144353)
(0.099413 0.000270273 -0.000345182)
(0.0988663 0.00187521 -0.00201885)
(0.0979209 0.00218954 -0.00257281)
(0.096365 0.00190898 -0.00237922)
(0.0946324 0.00162706 -0.00211292)
(0.0929713 0.0014182 -0.00192453)
(0.0913644 0.00126869 -0.00179757)
(0.10014 0.000869397 -0.000775012)
(0.100454 0.00196409 -0.00196243)
(0.100911 0.00233541 -0.00242754)
(0.100978 0.00244228 -0.00252627)
(0.100694 0.00233774 -0.00242531)
(0.100224 0.00211277 -0.00219515)
(0.0997091 0.0018221 -0.00191224)
(0.10006 0.000641559 -0.000641491)
(0.100502 0.0016455 -0.00164529)
(0.101149 0.00221308 -0.00221268)
(0.101738 0.0024408 -0.0024401)
(0.102205 0.0024426 -0.00244144)
(0.102502 0.00231372 -0.00231189)
(0.102647 0.00209163 -0.00208856)
(0.100046 0.000395802 -0.000540372)
(0.10048 0.00104507 -0.00138439)
(0.101155 0.00147563 -0.0019232)
(0.101914 0.00170544 -0.0021923)
(0.102633 0.00178001 -0.0022925)
(0.103303 0.00174395 -0.00227422)
(0.103895 0.00163224 -0.00217784)
(0.100039 0.000131336 -0.000478913)
(0.100449 0.000350493 -0.0012351)
(0.101114 0.000505032 -0.00174674)
(0.10191 0.000597016 -0.00202656)
(0.10273 0.000638075 -0.00215055)
(0.103531 0.0006372 -0.00218231)
(0.104299 0.000602692 -0.00214486)
(0.100039 -0.000131378 -0.000478936)
(0.100449 -0.000350604 -0.00123517)
(0.101114 -0.000505236 -0.00174687)
(0.10191 -0.000597363 -0.0020268)
(0.10273 -0.000638678 -0.00215102)
(0.10353 -0.000638204 -0.0021831)
(0.100046 -0.00039578 -0.00054043)
(0.10048 -0.00104501 -0.00138456)
(0.101154 -0.00147553 -0.00192355)
(0.101913 -0.00170531 -0.00219295)
(0.102633 -0.00177978 -0.00229363)
(0.103302 -0.00174363 -0.00227617)
(0.10006 -0.000641493 -0.000641556)
(0.100502 -0.00164529 -0.00164549)
(0.101149 -0.00221268 -0.00221308)
(0.101738 -0.00244009 -0.0024408)
(0.102205 -0.00244143 -0.00244259)
(0.102502 -0.00231189 -0.00231371)
(0.10014 -0.000869348 -0.000775052)
(0.100454 -0.00196388 -0.00196254)
(0.100911 -0.00233492 -0.00242775)
(0.100978 -0.00244144 -0.00252671)
(0.100695 -0.00233651 -0.00242607)
(0.100226 -0.00211107 -0.0021965)
(0.099413 -0.000270265 -0.000345205)
(0.0988663 -0.00187513 -0.00201895)
(0.0979212 -0.00218928 -0.00257301)
(0.0963657 -0.00190855 -0.00237958)
(0.0946337 -0.00162648 -0.0021135)
(0.0929739 -0.00141731 -0.00192544)
(0.0999089 0.00071261 -0.00129697)
(0.0969668 0.00274751 -0.00365573)
(0.0935342 0.00211859 -0.00264004)
(0.0895886 0.00162108 -0.00182)
(0.0858316 0.0013909 -0.00152779)
(0.0825899 0.00116136 -0.00134961)
(0.0798665 0.000896718 -0.00117679)
(0.100226 0.000720854 -0.000720819)
(0.09996 0.00198294 -0.00198279)
(0.0997821 0.00245236 -0.002452)
(0.0987882 0.00242023 -0.00241959)
(0.0972756 0.00220148 -0.00220051)
(0.0957752 0.00181237 -0.00181057)
(0.094395 0.0013833 -0.0013803)
(0.10014 0.000775057 -0.000869346)
(0.100454 0.00196255 -0.00196388)
(0.100911 0.00242776 -0.00233492)
(0.100978 0.00252671 -0.00244145)
(0.100695 0.00242607 -0.00233652)
(0.100226 0.0021965 -0.00211108)
(0.0997118 0.00191443 -0.00181948)
(0.100093 0.000445923 -0.000763358)
(0.100504 0.00119444 -0.00174943)
(0.101105 0.00158667 -0.00213012)
(0.101635 0.0017401 -0.00223511)
(0.10198 0.00178125 -0.00228608)
(0.102173 0.00172667 -0.00223235)
(0.102256 0.00160328 -0.00210838)
(0.100087 0.000144359 -0.000707203)
(0.100477 0.000390399 -0.00161829)
(0.101066 0.000540904 -0.00203526)
(0.101694 0.000609773 -0.00211803)
(0.102269 0.000635305 -0.00214974)
(0.102742 0.000625268 -0.00217658)
(0.103124 0.000591466 -0.00212562)
(0.100087 -0.000144421 -0.00070721)
(0.100477 -0.000390586 -0.00161831)
(0.101065 -0.000541235 -0.00203526)
(0.101694 -0.000610365 -0.00211811)
(0.102268 -0.000636417 -0.00215009)
(0.102741 -0.000627253 -0.00217724)
(0.100093 -0.000445926 -0.000763373)
(0.100504 -0.00119445 -0.00174947)
(0.101105 -0.0015867 -0.00213029)
(0.101634 -0.00174023 -0.00223569)
(0.101978 -0.0017815 -0.00228723)
(0.102171 -0.00172707 -0.00223402)
(0.10014 -0.000775016 -0.000869395)
(0.100454 -0.00196243 -0.00196409)
(0.100911 -0.00242754 -0.00233541)
(0.100978 -0.00252627 -0.00244228)
(0.100694 -0.00242531 -0.00233774)
(0.100224 -0.00219515 -0.00211276)
(0.100226 -0.000720822 -0.000720855)
(0.09996 -0.00198279 -0.00198294)
(0.0997821 -0.00245199 -0.00245236)
(0.0987882 -0.00241959 -0.00242023)
(0.0972756 -0.0022005 -0.00220148)
(0.0957752 -0.00181056 -0.00181237)
(0.0999088 -0.000712592 -0.00129699)
(0.0969668 -0.00274741 -0.0036559)
(0.0935343 -0.00211839 -0.00264029)
(0.0895888 -0.00162067 -0.00182044)
(0.0858321 -0.00139032 -0.00152869)
(0.0825909 -0.00116029 -0.00135104)
(0.0956456 -0.00836 0.00836001)
(0.0904937 0.00152205 -0.00152195)
(0.0790678 0.00242984 -0.00242969)
(0.0713006 0.00148803 -0.00148766)
(0.0661789 0.000830998 -0.000830266)
(0.0623227 0.000564103 -0.000562898)
(0.0592223 0.000427767 -0.000425154)
(0.0999088 0.00129699 -0.000712594)
(0.0969668 0.00365591 -0.00274742)
(0.0935343 0.00264032 -0.00211839)
(0.0895888 0.00182045 -0.00162068)
(0.0858321 0.00152871 -0.00139033)
(0.0825909 0.00135105 -0.0011603)
(0.0798682 0.00117945 -0.00089497)
(0.099413 0.000345213 -0.000270265)
(0.0988663 0.00201897 -0.00187513)
(0.0979212 0.00257303 -0.00218928)
(0.0963657 0.00237959 -0.00190856)
(0.0946337 0.0021135 -0.00162649)
(0.0929739 0.00192545 -0.00141732)
(0.0913691 0.00179895 -0.00126721)
(0.0995405 0.000245009 -0.000321969)
(0.0992575 0.00105543 -0.00154133)
(0.0988486 0.00150191 -0.00211493)
(0.0981243 0.00157858 -0.00209191)
(0.0973369 0.00151301 -0.00188602)
(0.0965862 0.00144354 -0.00166487)
(0.0958691 0.00140546 -0.00149535)
(0.0993801 3.37469e-05 -5.89812e-05)
(0.0992676 0.000274223 -0.00120038)
(0.09898 0.000432 -0.00188913)
(0.0984738 0.000482778 -0.00200698)
(0.0979944 0.000477632 -0.00191438)
(0.0975704 0.000463252 -0.00173298)
(0.0971821 0.000448639 -0.00154379)
(0.0993802 -3.37829e-05 -5.90402e-05)
(0.0992676 -0.000274409 -0.00120041)
(0.09898 -0.000432405 -0.00188916)
(0.0984736 -0.000483496 -0.00200705)
(0.0979939 -0.000478885 -0.00191457)
(0.0975693 -0.000465492 -0.00173339)
(0.0995405 -0.000245022 -0.00032197)
(0.0992574 -0.00105549 -0.00154134)
(0.0988483 -0.00150203 -0.00211505)
(0.0981237 -0.00157882 -0.00209213)
(0.0973355 -0.00151359 -0.00188636)
(0.0965835 -0.00144475 -0.00166542)
(0.099413 -0.000345191 -0.000270273)
(0.0988663 -0.00201887 -0.00187521)
(0.0979209 -0.00257283 -0.00218954)
(0.0963651 -0.00237924 -0.00190898)
(0.0946324 -0.00211295 -0.00162706)
(0.0929713 -0.00192457 -0.0014182)
(0.0999089 -0.00129697 -0.000712613)
(0.0969668 -0.00365575 -0.00274752)
(0.0935342 -0.00264006 -0.0021186)
(0.0895886 -0.00182002 -0.00162108)
(0.0858316 -0.00152782 -0.0013909)
(0.0825899 -0.00134964 -0.00116137)
(0.0956456 0.00836001 0.00836)
(0.0904937 -0.00152195 -0.00152205)
(0.0790678 -0.00242967 -0.00242986)
(0.0713006 -0.00148766 -0.00148804)
(0.0661789 -0.000830268 -0.000830999)
(0.0623227 -0.000562905 -0.000564106)
)
;

boundaryField
{
    inlet
    {
        type            fixedValue;
        value           uniform (0.1 0 0);
    }
    ami1
    {
        type            cyclicAMI;
        value           nonuniform List<vector> 0();
    }
    walls
    {
        type            noSlip;
    }
    ami2
    {
        type            cyclicAMI;
        value           nonuniform List<vector> 0();
    }
    outlet
    {
        type            zeroGradient;
    }
    procBoundary4to3
    {
        type            processor;
        value           nonuniform List<vector> 
109
(
(0.0566888 0.000321902 0.000326501)
(0.0775717 0.00103636 0.000690164)
(0.0898575 0.00169928 0.00115367)
(0.0951979 0.00137513 0.00136555)
(0.0968315 0.000441927 0.00138249)
(0.096835 -0.000434881 0.00138147)
(0.0952061 -0.00137149 0.00136455)
(0.0898656 -0.00170145 0.00115126)
(0.0775749 -0.00104084 0.00068727)
(0.0566888 -0.000326438 0.000321996)
(0.0775749 0.000687234 0.00104092)
(0.093169 0.00106639 0.00107149)
(0.0991846 0.00165829 0.00157188)
(0.102277 0.00145352 0.00195444)
(0.103426 0.000548964 0.00202984)
(0.103429 -0.000543386 0.00202815)
(0.102284 -0.00145215 0.0019507)
(0.0991893 -0.00166162 0.00156732)
(0.0931691 -0.00107147 0.00106644)
(0.0775717 -0.000690166 0.00103642)
(0.0898656 0.00115123 0.00170152)
(0.0991893 0.00156729 0.00166165)
(0.102716 0.00186064 0.00186547)
(0.104387 0.00148611 0.00204214)
(0.105005 0.000559135 0.00206649)
(0.105007 -0.000556396 0.00206466)
(0.104391 -0.00148751 0.00203777)
(0.102716 -0.00186547 0.00186064)
(0.0991846 -0.00157188 0.00165831)
(0.0898575 -0.00115367 0.0016993)
(0.0952061 0.00136454 0.00137157)
(0.102284 0.00195071 0.00145218)
(0.104391 0.00203779 0.00148751)
(0.105219 0.00151682 0.00151933)
(0.105509 0.00055456 0.00149914)
(0.105509 -0.000554619 0.00149787)
(0.105219 -0.00151933 0.00151681)
(0.104387 -0.00204215 0.00148611)
(0.102277 -0.00195445 0.00145352)
(0.0951979 -0.00136556 0.00137513)
(0.096835 0.00138148 0.000434959)
(0.103429 0.00202818 0.000543431)
(0.105007 0.00206469 0.000556416)
(0.105509 0.00149789 0.000554629)
(0.105665 0.000541493 0.000541961)
(0.105665 -0.000541953 0.000541484)
(0.105509 -0.00149914 0.000554555)
(0.105005 -0.0020665 0.000559133)
(0.103426 -0.00202986 0.00054896)
(0.0968315 -0.0013825 0.000441908)
(0.0968315 0.0013825 -0.000441853)
(0.103426 0.00202987 -0.000548919)
(0.105005 0.00206651 -0.000559107)
(0.105509 0.00149916 -0.00055454)
(0.105665 0.000541972 -0.000541473)
(0.105665 -0.000541472 -0.000541948)
(0.104614 -0.00058047 -0.00154379)
(0.105509 -0.00149787 -0.000554611)
(0.104445 -0.00159931 -0.00160095)
(0.105007 -0.00206467 -0.000556391)
(0.103895 -0.00217784 -0.00163222)
(0.103429 -0.00202816 -0.000543395)
(0.102256 -0.00210838 -0.00160327)
(0.096835 -0.00138147 -0.000434912)
(0.0958691 -0.00149535 -0.00140545)
(0.0951979 0.00136556 -0.00137506)
(0.102277 0.00195445 -0.00145348)
(0.104387 0.00204216 -0.00148609)
(0.105219 0.00151935 -0.0015168)
(0.105509 0.000554639 -0.00149786)
(0.104614 -0.00058047 -0.00154379)
(0.104614 -0.00058047 -0.00154379)
(0.104445 -0.00159931 -0.00160095)
(0.103895 -0.00217784 -0.00163222)
(0.102256 -0.00210838 -0.00160327)
(0.0958691 -0.00149535 -0.00140545)
(0.0898575 0.00115368 -0.00169923)
(0.0991846 0.00157189 -0.00165827)
(0.102716 0.00186548 -0.00186063)
(0.104391 0.00148753 -0.00203777)
(0.105007 0.000556421 -0.00206466)
(0.104298 -0.00060441 -0.00214605)
(0.104298 -0.00060441 -0.00214605)
(0.103893 -0.00163144 -0.00218065)
(0.102647 -0.00208856 -0.00209161)
(0.0997118 -0.00181948 -0.00191442)
(0.0913691 -0.0012672 -0.00179893)
(0.0775717 0.000690174 -0.00103634)
(0.0931691 0.00107151 -0.0010664)
(0.0991893 0.00166165 -0.0015673)
(0.102284 0.00145218 -0.0019507)
(0.103429 0.000543422 -0.00202815)
(0.103123 -0.000594774 -0.0021267)
(0.103123 -0.000594774 -0.0021267)
(0.102252 -0.00160402 -0.00211078)
(0.0997091 -0.00191225 -0.00182209)
(0.094395 -0.00138029 -0.0013833)
(0.0798682 -0.000894957 -0.00117944)
(0.0566888 0.000326511 -0.000321919)
(0.0775749 0.00104092 -0.00068726)
(0.0898656 0.00170151 -0.00115125)
(0.0952061 0.00137155 -0.00136454)
(0.096835 0.000434925 -0.00138146)
(0.0971801 -0.000452659 -0.0015444)
(0.0971801 -0.000452659 -0.0015444)
(0.0958642 -0.00140763 -0.00149599)
(0.0913645 -0.00179761 -0.00126868)
(0.0798665 -0.00117683 -0.000896719)
(0.0592223 -0.000425161 -0.000427768)
)
;
    }
}


// ************************************************************************* //
