/*--------------------------------*- C++ -*----------------------------------*\
| =========                 |                                                 |
| \\      /  F ield         | OpenFOAM: The Open Source CFD Toolbox           |
|  \\    /   O peration     | Version:  2212                                  |
|   \\  /    A nd           | Website:  www.openfoam.com                      |
|    \\/     M anipulation  |                                                 |
\*---------------------------------------------------------------------------*/
FoamFile
{
    version     2.0;
    format      ascii;
    arch        "LSB;label=32;scalar=64";
    class       surfaceScalarField;
    location    "2.05";
    object      phi;
}
// * * * * * * * * * * * * * * * * * * * * * * * * * * * * * * * * * * * * * //

dimensions      [0 3 -1 0 0 0 0];

oriented        oriented;

internalField   nonuniform List<scalar> 
1769
(
1.52297e-07
1.39988e-09
2.01292e-09
1.49328e-07
9.9948e-10
1.96928e-09
1.46987e-07
4.31939e-10
1.90899e-09
1.46142e-07
-7.86131e-10
1.63077e-09
1.48917e-07
-3.72768e-09
9.52446e-10
-2.53584e-08
-1.11933e-08
4.22775e-07
6.16349e-09
3.14125e-09
4.15415e-07
5.359e-09
3.00027e-09
4.08802e-07
4.2378e-09
2.80707e-09
4.03727e-07
2.18432e-09
2.10395e-09
4.03165e-07
-2.36546e-09
-8.00564e-10
-1.29652e-08
-1.38738e-08
7.27334e-07
7.3417e-09
7.88838e-09
7.18216e-07
6.52848e-09
7.94943e-09
7.08776e-07
5.51476e-09
8.16263e-09
6.9835e-07
4.077e-09
8.53264e-09
6.85249e-07
1.8335e-09
8.90265e-09
2.201e-09
1.36234e-08
9.73421e-07
5.34032e-09
9.8473e-09
9.64481e-07
5.24101e-09
1.02273e-08
9.536e-07
5.37843e-09
1.10171e-08
9.39373e-07
5.80044e-09
1.25038e-08
9.19218e-07
6.99186e-09
1.49959e-08
1.19522e-08
2.25143e-08
1.10604e-06
9.00119e-10
1.00325e-08
1.09929e-06
1.48298e-09
1.0507e-08
1.09088e-06
2.47872e-09
1.13081e-08
1.08004e-06
4.04417e-09
1.26005e-08
1.0658e-06
6.73194e-09
1.45022e-08
1.21994e-08
1.77212e-08
1.1083e-06
-4.0404e-09
9.61057e-09
1.10306e-06
-3.0601e-09
9.7908e-09
1.09712e-06
-1.67431e-09
1.00866e-08
1.09029e-06
3.76764e-10
1.05041e-08
1.08276e-06
3.22203e-09
1.10421e-08
7.49171e-09
1.16992e-08
9.83986e-07
-7.88824e-09
9.25468e-09
9.77976e-07
-7.07649e-09
9.04593e-09
9.72141e-07
-6.02557e-09
8.80052e-09
9.6654e-07
-4.52082e-09
8.44794e-09
9.61189e-07
-2.18514e-09
7.9128e-09
9.55567e-07
1.63534e-09
7.20875e-09
9.44218e-09
6.05689e-09
7.38501e-07
-7.1026e-09
7.57363e-09
7.30848e-07
-6.6645e-09
7.24158e-09
7.24209e-07
-6.15755e-09
6.77094e-09
7.19098e-07
-5.36858e-09
5.95858e-09
7.16046e-07
-3.4683e-09
4.33505e-09
7.15953e-07
2.33349e-10
1.49513e-09
1.13445e-08
-5.09526e-09
4.3144e-07
-2.07968e-09
3.02567e-09
4.24033e-07
-2.01257e-09
2.75499e-09
4.17523e-07
-1.96868e-09
2.3216e-09
4.12508e-07
-1.90828e-09
1.554e-09
4.10978e-07
-1.62932e-09
-3.09268e-10
4.16944e-07
-9.49264e-10
-4.7832e-09
1.1195e-08
-2.0413e-08
1.55709e-07
1.72259e-09
1.52296e-07
1.40048e-09
1.49327e-07
1.00022e-09
1.46986e-07
4.3309e-10
1.4614e-07
-7.84109e-10
1.48916e-07
-3.72493e-09
-2.53613e-08
4.24035e-07
2.75442e-09
6.66506e-09
4.17525e-07
2.32103e-09
6.15791e-09
4.12512e-07
1.55302e-09
5.36839e-09
4.10987e-07
-3.11298e-10
3.46717e-09
4.16963e-07
-4.7865e-09
-2.37043e-10
-2.04166e-08
-1.1353e-08
8.06287e-07
5.0288e-09
5.69455e-09
8.02135e-07
4.21456e-09
5.2587e-09
7.98724e-07
3.09579e-09
4.67583e-09
7.95422e-07
1.40207e-09
3.69239e-09
7.89293e-07
-1.26033e-09
1.80165e-09
-5.60465e-09
-2.75361e-09
1.11728e-06
6.36285e-09
9.10574e-09
1.11499e-06
5.541e-09
8.9192e-09
1.11284e-06
4.57495e-09
8.83361e-09
1.11058e-06
3.38098e-09
8.80597e-09
1.10765e-06
1.85799e-09
8.7172e-09
5.27139e-10
8.95864e-09
1.35322e-06
4.83549e-09
1.17677e-08
1.35252e-06
4.53308e-09
1.1931e-08
1.35139e-06
4.30671e-09
1.24149e-08
1.34978e-06
4.18053e-09
1.33122e-08
1.34782e-06
4.17536e-09
1.46454e-08
4.69434e-09
1.63494e-08
1.47888e-06
7.0487e-10
1.26254e-08
1.47998e-06
1.10615e-09
1.28302e-08
1.48054e-06
1.7121e-09
1.33449e-08
1.48048e-06
2.60742e-09
1.42387e-08
1.47973e-06
3.90163e-09
1.55221e-08
5.67472e-09
1.70228e-08
1.4805e-06
-3.98194e-09
1.21605e-08
1.48244e-06
-3.15422e-09
1.21104e-08
1.48415e-06
-2.10799e-09
1.21982e-08
1.48556e-06
-7.42632e-10
1.24467e-08
1.48659e-06
1.05227e-09
1.28631e-08
3.34735e-09
1.33912e-08
1.35565e-06
-7.22182e-09
1.12715e-08
1.35641e-06
-6.5058e-09
1.08122e-08
1.3574e-06
-5.72044e-09
1.03681e-08
1.35861e-06
-4.74599e-09
9.88558e-09
1.3599e-06
-3.43723e-09
9.31554e-09
1.36113e-06
-1.62797e-09
8.65367e-09
1.32336e-09
7.8532e-09
1.12124e-06
-6.11159e-09
8.86139e-09
1.11946e-06
-5.69452e-09
8.21378e-09
1.11829e-06
-5.2581e-09
7.47846e-09
1.11767e-06
-4.67479e-09
6.50839e-09
1.11713e-06
-3.69122e-09
5.12608e-09
1.11557e-06
-1.79819e-09
3.22938e-09
2.77073e-09
6.83206e-10
8.11114e-07
-3.28605e-09
5.69097e-09
8.06286e-07
-3.14127e-09
5.0301e-09
8.02133e-07
-2.99968e-09
4.21548e-09
7.98722e-07
-2.80587e-09
3.09669e-09
7.9542e-07
-2.1019e-09
1.40301e-09
7.89292e-07
8.06699e-10
-1.26091e-09
1.38955e-08
-5.61068e-09
4.3068e-07
6.7897e-09
4.22775e-07
6.16387e-09
4.15416e-07
5.35969e-09
4.08804e-07
4.23894e-09
4.03732e-07
2.18588e-09
4.03179e-07
-2.36544e-09
-1.29679e-08
7.30851e-07
7.24095e-09
7.07652e-09
7.24215e-07
6.76965e-09
6.02516e-09
7.19107e-07
5.95645e-09
4.51958e-09
7.1606e-07
4.33131e-09
2.18269e-09
7.15974e-07
1.48976e-09
-1.64068e-09
-5.09285e-09
-9.45261e-09
1.11946e-06
8.21268e-09
6.50594e-09
1.11829e-06
7.47717e-09
5.72059e-09
1.11767e-06
6.50694e-09
4.74618e-09
1.11714e-06
5.1241e-09
3.43712e-09
1.11557e-06
3.22871e-09
1.62861e-09
7.01429e-10
-1.31028e-09
1.41678e-06
7.62083e-09
8.14226e-09
1.41861e-06
6.88311e-09
7.6782e-09
1.42062e-06
6.07189e-09
7.26409e-09
1.42252e-06
5.1485e-09
6.87533e-09
1.42388e-06
4.118e-09
6.47557e-09
3.26469e-09
6.12113e-09
1.63487e-06
4.93034e-09
1.00638e-08
1.63923e-06
4.55711e-09
9.90359e-09
1.64357e-06
4.21755e-09
9.92654e-09
1.64798e-06
3.91095e-09
1.01408e-08
1.65261e-06
3.62942e-09
1.05021e-08
3.45808e-09
1.0874e-08
1.7507e-06
2.95009e-10
1.08289e-08
1.75688e-06
4.51502e-10
1.07557e-08
1.76288e-06
6.81582e-10
1.08808e-08
1.76882e-06
1.00123e-09
1.12072e-08
1.77488e-06
1.42691e-09
1.16668e-08
1.92885e-09
1.20728e-08
1.75148e-06
-4.72507e-09
1.04941e-08
1.75803e-06
-4.22971e-09
1.02505e-08
1.76448e-06
-3.6982e-09
1.01263e-08
1.77092e-06
-3.10221e-09
1.01075e-08
1.77745e-06
-2.39149e-09
1.01482e-08
-1.54111e-09
1.01799e-08
1.63138e-06
-8.6871e-09
9.95808e-09
1.63623e-06
-8.14214e-09
9.38093e-09
1.6412e-06
-7.67769e-09
8.84959e-09
1.64631e-06
-7.26302e-09
8.33354e-09
1.6516e-06
-6.87319e-09
7.80003e-09
1.65709e-06
-6.47028e-09
7.24643e-09
-6.1054e-09
6.736e-09
1.41522e-06
-9.41771e-09
8.3521e-09
1.41678e-06
-9.10565e-09
7.62157e-09
1.41861e-06
-8.91841e-09
6.88345e-09
1.42062e-06
-8.83205e-09
6.07148e-09
1.42253e-06
-8.80314e-09
5.14665e-09
1.42389e-06
-8.71129e-09
4.11218e-09
-8.94431e-09
3.24739e-09
1.11983e-06
-7.94933e-09
7.12557e-09
1.11728e-06
-7.88783e-09
6.36362e-09
1.11499e-06
-7.94839e-09
5.54131e-09
1.11284e-06
-8.1607e-09
4.57456e-09
1.11059e-06
-8.52871e-09
3.37939e-09
1.10765e-06
-8.89412e-09
1.85373e-09
-1.36091e-08
5.19529e-10
7.36402e-07
8.03877e-09
7.27336e-07
7.34163e-09
7.18219e-07
6.52836e-09
7.08783e-07
5.51432e-09
6.98365e-07
4.07567e-09
6.85275e-07
1.8296e-09
2.19777e-09
9.7798e-07
9.04507e-09
4.04021e-09
9.72147e-07
8.79904e-09
3.05965e-09
9.66548e-07
8.44563e-09
1.67336e-09
9.61199e-07
7.90929e-09
-3.78222e-10
9.5558e-07
7.20368e-09
-3.22457e-09
6.05077e-09
-7.49574e-09
1.35641e-06
1.08112e-08
3.98214e-09
1.35741e-06
1.03667e-08
3.15439e-09
1.35861e-06
9.88385e-09
2.10823e-09
1.3599e-06
9.31346e-09
7.43084e-10
1.36113e-06
8.65196e-09
-1.05078e-09
7.85531e-09
-3.34194e-09
1.63623e-06
9.38014e-09
4.72537e-09
1.6412e-06
8.84891e-09
4.23024e-09
1.64631e-06
8.33311e-09
3.69917e-09
1.6516e-06
7.80037e-09
3.10398e-09
1.65708e-06
7.2486e-09
2.39487e-09
6.74219e-09
1.54738e-09
1.83655e-06
5.5428e-09
5.76507e-09
1.84458e-06
5.20218e-09
5.52694e-09
1.8526e-06
4.89384e-09
5.34478e-09
1.86073e-06
4.60158e-09
5.20453e-09
1.86909e-06
4.3238e-09
5.07459e-09
4.11296e-09
4.88229e-09
1.94182e-06
2.95164e-12
6.20311e-09
1.95172e-06
9.57788e-12
6.05717e-09
1.96146e-06
2.84611e-11
6.00041e-09
1.97119e-06
6.4167e-11
6.01976e-09
1.98099e-06
1.1314e-10
6.07084e-09
1.80477e-10
6.04872e-09
1.94201e-06
-5.76506e-09
6.05042e-09
1.95196e-06
-5.52692e-09
5.83063e-09
1.96178e-06
-5.34476e-09
5.67755e-09
1.97158e-06
-5.20459e-09
5.58064e-09
1.9814e-06
-5.0749e-09
5.51803e-09
-4.88331e-09
5.46243e-09
1.82842e-06
-1.03924e-08
5.92356e-09
1.83655e-06
-1.00636e-08
5.54375e-09
1.84458e-06
-9.90325e-09
5.20307e-09
1.8526e-06
-9.92597e-09
4.89466e-09
1.86073e-06
-1.014e-08
4.6021e-09
1.86908e-06
-1.05013e-08
4.3238e-09
-1.08744e-08
4.11219e-09
1.63048e-06
-1.18561e-08
5.34926e-09
1.63487e-06
-1.17669e-08
4.9311e-09
1.63922e-06
-1.19297e-08
4.55757e-09
1.64356e-06
-1.24127e-08
4.21756e-09
1.64797e-06
-1.33088e-08
3.91016e-09
1.65259e-06
-1.46408e-08
3.62737e-09
-1.63467e-08
3.45499e-09
1.35361e-06
-9.71226e-09
5.2074e-09
1.35321e-06
-9.84614e-09
4.83611e-09
1.35252e-06
-1.02254e-08
4.53351e-09
1.35139e-06
-1.10137e-08
4.30665e-09
1.34978e-06
-1.24979e-08
4.17976e-09
1.3478e-06
-1.49854e-08
4.17366e-09
-2.25036e-08
4.69288e-09
9.81268e-07
5.56751e-09
9.73423e-07
5.3404e-09
9.64485e-07
5.24094e-09
9.53607e-07
5.37811e-09
9.39386e-07
5.79914e-09
9.19242e-07
6.98869e-09
1.19473e-08
1.10831e-06
9.60992e-09
-9.00466e-10
1.10306e-06
9.78989e-09
-1.48353e-09
1.09713e-06
1.00853e-08
-2.47952e-09
1.09029e-06
1.05023e-08
-4.04535e-09
1.08276e-06
1.10398e-08
-6.73336e-09
1.16967e-08
-1.22006e-08
1.48051e-06
1.21596e-08
-7.04906e-10
1.48245e-06
1.21092e-08
-1.10614e-09
1.48416e-06
1.21967e-08
-1.71201e-09
1.48556e-06
1.2445e-08
-2.60708e-09
1.48659e-06
1.28614e-08
-3.90068e-09
1.33901e-08
-5.67264e-09
1.75149e-06
1.04931e-08
-2.94859e-10
1.75803e-06
1.02494e-08
-4.51183e-10
1.76448e-06
1.01251e-08
-6.80952e-10
1.77092e-06
1.01063e-08
-1.00013e-09
1.77746e-06
1.01473e-08
-1.42513e-09
1.018e-08
-1.92645e-09
1.94201e-06
6.04915e-09
-3.02891e-12
1.95197e-06
5.82915e-09
-9.66269e-12
1.96179e-06
5.67584e-09
-2.85715e-11
1.97158e-06
5.5787e-09
-6.43504e-11
1.9814e-06
5.51585e-09
-1.13548e-10
5.46013e-09
-1.81473e-10
2.04136e-06
-3.54003e-11
3.50189e-11
2.05325e-06
-5.08287e-11
5.02585e-11
2.06492e-06
-6.90583e-11
6.81834e-11
2.07652e-06
-8.80798e-11
8.67168e-11
2.08811e-06
-1.02262e-10
1.00098e-10
-1.00501e-10
9.70147e-11
2.04136e-06
-6.20344e-09
-3.38349e-11
2.05324e-06
-6.05772e-09
-4.88815e-11
2.06492e-06
-6.00133e-09
-6.66061e-11
2.07652e-06
-6.02133e-09
-8.49517e-11
2.08811e-06
-6.07354e-09
-9.82151e-11
-6.05348e-09
-9.51868e-11
1.93166e-06
-1.10804e-08
4.55114e-12
1.94182e-06
-1.08289e-08
4.2372e-12
1.95171e-06
-1.07557e-08
1.10934e-11
1.96146e-06
-1.08809e-08
3.04015e-11
1.97118e-06
-1.12077e-08
6.6539e-11
1.98098e-06
-1.16681e-08
1.16262e-10
-1.20761e-08
1.85125e-10
1.74427e-06
-1.26248e-08
1.9255e-10
1.7507e-06
-1.26245e-08
2.9607e-10
1.75688e-06
-1.28289e-08
4.52669e-10
1.76287e-06
-1.33429e-08
6.82971e-10
1.76881e-06
-1.42355e-08
1.00287e-09
1.77486e-06
-1.55172e-08
1.42908e-09
-1.70159e-08
1.93245e-09
1.47734e-06
-9.77313e-09
4.45436e-10
1.47888e-06
-1.00313e-08
7.05704e-10
1.47998e-06
-1.05051e-08
1.1071e-09
1.48054e-06
-1.13047e-08
1.71311e-09
1.48047e-06
-1.25945e-08
2.60858e-09
1.47971e-06
-1.44922e-08
3.90304e-09
-1.7704e-08
5.67651e-09
1.11163e-06
5.48731e-10
1.10604e-06
9.00592e-10
1.0993e-06
1.48348e-09
1.09089e-06
2.47925e-09
1.08005e-06
4.04455e-09
1.06581e-06
6.73222e-09
1.2199e-08
1.10604e-06
1.00322e-08
-5.34084e-09
1.09929e-06
1.05067e-08
-5.24174e-09
1.09089e-06
1.13077e-08
-5.37944e-09
1.08004e-06
1.26e-08
-5.80183e-09
1.0658e-06
1.45016e-08
-6.99365e-09
1.77198e-08
-1.19536e-08
1.47888e-06
1.26247e-08
-4.83573e-09
1.47999e-06
1.28292e-08
-4.5333e-09
1.48055e-06
1.33437e-08
-4.30692e-09
1.48048e-06
1.42373e-08
-4.18066e-09
1.47974e-06
1.55203e-08
-4.17519e-09
1.70209e-08
-4.69382e-09
1.7507e-06
1.08278e-08
-4.93038e-09
1.75688e-06
1.07543e-08
-4.55705e-09
1.76289e-06
1.0879e-08
-4.21732e-09
1.76883e-06
1.12051e-08
-3.91045e-09
1.77489e-06
1.16643e-08
-3.6286e-09
1.20702e-08
-3.4575e-09
1.94183e-06
6.20159e-09
-5.54289e-09
1.95172e-06
6.05529e-09
-5.20227e-09
1.96146e-06
5.99807e-09
-4.8939e-09
1.97119e-06
6.01686e-09
-4.60161e-09
1.981e-06
6.06725e-09
-4.32386e-09
6.04435e-09
-4.11328e-09
2.04136e-06
3.3292e-11
-6.04938e-09
2.05325e-06
4.80841e-11
-5.82949e-09
2.06492e-06
6.54227e-11
-5.67635e-09
2.07652e-06
8.32071e-11
-5.5795e-09
2.08811e-06
9.56574e-11
-5.51716e-09
9.14548e-11
-5.4622e-09
2.04136e-06
-6.05103e-09
-6.20186e-09
2.05325e-06
-5.83157e-09
-6.05569e-09
2.06492e-06
-5.67903e-09
-5.99868e-09
2.07652e-06
-5.58292e-09
-6.01785e-09
2.08811e-06
-5.52147e-09
-6.06892e-09
-5.46752e-09
-6.0472e-09
1.93179e-06
-1.0867e-08
-6.06455e-09
1.94201e-06
-1.04943e-08
-5.76369e-09
1.95196e-06
-1.02509e-08
-5.52518e-09
1.96178e-06
-1.01271e-08
-5.34245e-09
1.97158e-06
-1.01088e-08
-5.20153e-09
1.98139e-06
-1.01504e-08
-5.07076e-09
-1.01842e-08
-4.87741e-09
1.7448e-06
-1.23293e-08
-5.21615e-09
1.75148e-06
-1.21597e-08
-4.72401e-09
1.75802e-06
-1.21094e-08
-4.22834e-09
1.76447e-06
-1.21966e-08
-3.69646e-09
1.77091e-06
-1.24443e-08
-3.10013e-09
1.77744e-06
-1.28598e-08
-2.38922e-09
-1.33882e-08
-1.53873e-09
1.47837e-06
-9.52638e-09
-4.67759e-09
1.4805e-06
-9.60956e-09
-3.98106e-09
1.48244e-06
-9.78921e-09
-3.15309e-09
1.48415e-06
-1.00838e-08
-2.10655e-09
1.48556e-06
-1.04991e-08
-7.40747e-10
1.48658e-06
-1.1034e-08
1.05446e-09
-1.16879e-08
3.34808e-09
1.11298e-06
-4.77902e-09
1.10831e-06
-4.03968e-09
1.10306e-06
-3.05925e-09
1.09713e-06
-1.67334e-09
1.0903e-06
3.77922e-10
1.08277e-06
3.22362e-09
7.49488e-09
9.73422e-07
9.84723e-09
-7.3423e-09
9.64483e-07
1.02273e-08
-6.52934e-09
9.53602e-07
1.10172e-08
-5.51595e-09
9.39375e-07
1.25041e-08
-4.07866e-09
9.1922e-07
1.49969e-08
-1.83623e-09
2.25152e-08
-2.20381e-09
1.35322e-06
1.17671e-08
-6.36322e-09
1.35252e-06
1.19303e-08
-5.54144e-09
1.3514e-06
1.24139e-08
-4.57554e-09
1.34979e-06
1.33111e-08
-3.38205e-09
1.34783e-06
1.46442e-08
-1.85911e-09
1.63493e-08
-5.28472e-10
1.63488e-06
1.00626e-08
-7.62107e-09
1.63923e-06
9.90207e-09
-6.88343e-09
1.64358e-06
9.92458e-09
-6.07233e-09
1.64799e-06
1.01383e-08
-5.14914e-09
1.65262e-06
1.04989e-08
-4.11899e-09
1.08707e-08
-3.26799e-09
1.83656e-06
5.76344e-09
-9.38022e-09
1.84458e-06
5.52486e-09
-8.84904e-09
1.8526e-06
5.34207e-09
-8.33325e-09
1.86074e-06
5.20099e-09
-7.80048e-09
1.86909e-06
5.07e-09
-7.24856e-09
4.87641e-09
-6.74174e-09
1.94201e-06
-4.80998e-12
-1.0493e-08
1.95196e-06
-1.19825e-11
-1.02494e-08
1.96179e-06
-3.15869e-11
-1.01251e-08
1.97158e-06
-6.81623e-11
-1.01065e-08
1.9814e-06
-1.18442e-10
-1.01476e-08
-1.87811e-10
-1.01807e-08
1.94182e-06
-5.54456e-09
-1.08277e-08
1.95172e-06
-5.20432e-09
-1.07542e-08
1.96146e-06
-4.89649e-09
-1.08789e-08
1.97118e-06
-4.60484e-09
-1.12051e-08
1.98099e-06
-4.32782e-09
-1.16648e-08
-4.11784e-09
-1.20719e-08
1.82842e-06
-9.95848e-09
-1.03915e-08
1.83655e-06
-9.38153e-09
-1.00625e-08
1.84458e-06
-8.85054e-09
-9.9018e-09
1.8526e-06
-8.33499e-09
-9.92411e-09
1.86073e-06
-7.80249e-09
-1.01376e-08
1.86908e-06
-7.25082e-09
-1.04982e-08
-6.74422e-09
-1.08699e-08
1.63138e-06
-1.12714e-08
-8.68634e-09
1.63623e-06
-1.08119e-08
-8.1412e-09
1.6412e-06
-1.03676e-08
-7.67649e-09
1.64631e-06
-9.88474e-09
-7.26154e-09
1.65159e-06
-9.31424e-09
-6.87176e-09
1.65708e-06
-8.65229e-09
-6.47037e-09
-7.85495e-09
-6.11356e-09
1.35565e-06
-9.25439e-09
-7.22114e-09
1.35641e-06
-9.04532e-09
-6.50496e-09
1.3574e-06
-8.79935e-09
-5.71932e-09
1.3586e-06
-8.44578e-09
-4.74439e-09
1.35989e-06
-7.90892e-09
-3.43491e-09
1.36112e-06
-7.20213e-09
-1.62537e-09
-6.04692e-09
1.31519e-09
9.83987e-07
-7.88768e-09
9.77978e-07
-7.07578e-09
9.72144e-07
-6.0246e-09
9.66544e-07
-4.51945e-09
9.61197e-07
-2.183e-09
9.55579e-07
1.63895e-09
9.4489e-09
7.27335e-07
7.88832e-09
-6.16394e-09
7.18216e-07
7.94941e-09
-5.35957e-09
7.08776e-07
8.16277e-09
-4.23861e-09
6.9835e-07
8.53341e-09
-2.18582e-09
6.85246e-07
8.90422e-09
2.36277e-09
1.3626e-08
1.29612e-08
1.11728e-06
9.10524e-09
-5.02912e-09
1.11499e-06
8.91866e-09
-4.21507e-09
1.11284e-06
8.83305e-09
-3.09658e-09
1.11059e-06
8.80583e-09
-1.40365e-09
1.10766e-06
8.71704e-09
1.25835e-09
8.95983e-09
5.6008e-09
1.41678e-06
8.14126e-09
-8.21304e-09
1.41862e-06
7.677e-09
-7.47781e-09
1.42062e-06
7.26262e-09
-6.50801e-09
1.42253e-06
6.87357e-09
-5.12582e-09
1.42389e-06
6.47349e-09
-3.23172e-09
6.11975e-09
-7.07671e-10
1.63623e-06
4.72388e-09
-1.08113e-08
1.6412e-06
4.22833e-09
-1.0367e-08
1.64632e-06
3.69661e-09
-9.8843e-09
1.6516e-06
3.10045e-09
-9.3142e-09
1.65709e-06
2.38984e-09
-8.65284e-09
1.53985e-09
-7.85381e-09
1.75149e-06
-2.96551e-10
-1.21593e-08
1.75803e-06
-4.53324e-10
-1.21089e-08
1.76448e-06
-6.83785e-10
-1.21962e-08
1.77092e-06
-1.00394e-09
-1.24443e-08
1.77745e-06
-1.43036e-09
-1.28604e-08
-1.93376e-09
-1.3389e-08
1.7507e-06
-4.932e-09
-1.26241e-08
1.75688e-06
-4.55894e-09
-1.28284e-08
1.76288e-06
-4.21958e-09
-1.33426e-08
1.76882e-06
-3.91321e-09
-1.42356e-08
1.77488e-06
-3.63189e-09
-1.55181e-08
-3.46095e-09
-1.70189e-08
1.63048e-06
-8.35274e-09
-1.18558e-08
1.63487e-06
-7.62252e-09
-1.17666e-08
1.63923e-06
-6.88486e-09
-1.19293e-08
1.64357e-06
-6.0737e-09
-1.24124e-08
1.64798e-06
-5.15046e-09
-1.33088e-08
1.65261e-06
-4.11978e-09
-1.46408e-08
-3.26615e-09
-1.63453e-08
1.41522e-06
-8.86166e-09
-9.41727e-09
1.41678e-06
-8.21406e-09
-9.10515e-09
1.41861e-06
-7.47867e-09
-8.91782e-09
1.42062e-06
-6.50848e-09
-8.83136e-09
1.42252e-06
-5.12606e-09
-8.80301e-09
1.42388e-06
-3.23088e-09
-8.71248e-09
-7.03638e-10
-8.95287e-09
1.12124e-06
-7.57365e-09
-6.11113e-09
1.11946e-06
-7.24146e-09
-5.69405e-09
1.11829e-06
-6.77048e-09
-5.25753e-09
1.11767e-06
-5.95751e-09
-4.67403e-09
1.11713e-06
-4.33268e-09
-3.6902e-09
1.11556e-06
-1.49169e-09
-1.79769e-09
5.09003e-09
2.75846e-09
7.38502e-07
-7.10228e-09
7.30849e-07
-6.66412e-09
7.24211e-07
-6.15709e-09
7.19102e-07
-5.36796e-09
7.16053e-07
-3.46707e-09
7.15964e-07
2.36006e-10
1.13514e-08
4.22775e-07
3.1411e-09
-1.40008e-09
4.15415e-07
3.00014e-09
-9.99728e-10
4.08802e-07
2.807e-09
-4.32248e-10
4.03726e-07
2.10427e-09
7.85538e-10
4.03162e-07
-7.99951e-10
3.72679e-09
-1.38725e-08
2.53558e-08
8.06288e-07
5.69421e-09
-2.75458e-09
8.02136e-07
5.25848e-09
-2.32132e-09
7.98724e-07
4.67577e-09
-1.55351e-09
7.95421e-07
3.69264e-09
3.10365e-10
7.89292e-07
1.80239e-09
4.78509e-09
-2.75123e-09
2.04145e-08
1.11946e-06
6.50528e-09
-7.2412e-09
1.11829e-06
5.71993e-09
-6.7701e-09
1.11767e-06
4.74553e-09
-5.95727e-09
1.11714e-06
3.43657e-09
-4.33285e-09
1.11557e-06
1.6282e-09
-1.49279e-09
-1.31205e-09
5.08627e-09
1.35641e-06
3.98107e-09
-9.04504e-09
1.35741e-06
3.15308e-09
-8.79911e-09
1.35861e-06
2.1066e-09
-8.44593e-09
1.3599e-06
7.40965e-10
-7.91001e-09
1.36113e-06
-1.05396e-09
-7.20476e-09
-3.34884e-09
-6.04992e-09
1.48051e-06
-7.06259e-10
-9.60947e-09
1.48245e-06
-1.10782e-09
-9.78931e-09
1.48416e-06
-1.71411e-09
-1.00845e-08
1.48557e-06
-2.60983e-09
-1.05012e-08
1.48659e-06
-3.9045e-09
-1.1038e-08
-5.67847e-09
-1.16938e-08
1.47888e-06
-4.8371e-09
-1.00316e-08
1.47999e-06
-4.53488e-09
-1.05057e-08
1.48054e-06
-4.30869e-09
-1.13062e-08
1.48048e-06
-4.18268e-09
-1.25974e-08
1.47973e-06
-4.17749e-09
-1.44973e-08
-4.69698e-09
-1.77141e-08
1.35361e-06
-7.12633e-09
-9.71233e-09
1.35322e-06
-6.36468e-09
-9.84647e-09
1.35252e-06
-5.54277e-09
-1.02262e-08
1.35139e-06
-4.57677e-09
-1.10154e-08
1.34979e-06
-3.38309e-09
-1.25011e-08
1.34782e-06
-1.85966e-09
-1.49913e-08
-5.29097e-10
-2.25086e-08
1.11983e-06
-5.6914e-09
-7.94923e-09
1.11728e-06
-5.03067e-09
-7.88781e-09
1.11499e-06
-4.21614e-09
-7.94857e-09
1.11284e-06
-3.09745e-09
-8.16139e-09
1.11059e-06
-1.4043e-09
-8.53097e-09
1.10766e-06
1.25864e-09
-8.89988e-09
5.60199e-09
-1.36203e-08
8.11114e-07
-3.02579e-09
-3.2858e-09
8.06286e-07
-2.75514e-09
-3.14107e-09
8.02133e-07
-2.32167e-09
-2.99955e-09
7.98721e-07
-1.55384e-09
-2.80601e-09
7.9542e-07
3.09967e-10
-2.10292e-09
7.89292e-07
4.78496e-09
8.0334e-10
2.0415e-08
1.38801e-08
4.31441e-07
-2.07957e-09
4.24034e-07
-2.0125e-09
4.17524e-07
-1.96867e-09
4.1251e-07
-1.90835e-09
4.10982e-07
-1.62981e-09
4.16954e-07
-9.51206e-10
1.11949e-08
1.52297e-07
2.0128e-09
1.49328e-07
1.9692e-09
1.46987e-07
1.90893e-09
1.46141e-07
1.6308e-09
1.48915e-07
9.52715e-10
-1.11924e-08
4.24035e-07
6.66486e-09
4.17525e-07
6.15775e-09
4.12512e-07
5.36838e-09
4.10986e-07
3.46744e-09
4.1696e-07
-2.36024e-10
-1.13517e-08
7.30853e-07
7.07603e-09
7.24216e-07
6.02464e-09
7.19108e-07
4.51923e-09
7.16059e-07
2.18277e-09
7.1597e-07
-1.63917e-09
-9.44865e-09
9.77982e-07
4.03943e-09
9.72149e-07
3.05873e-09
9.6655e-07
1.67248e-09
9.61201e-07
-3.78825e-10
9.55582e-07
-3.22468e-09
-7.49518e-09
1.10831e-06
-9.01349e-10
1.10306e-06
-1.4846e-09
1.09713e-06
-2.48082e-09
1.0903e-06
-4.04665e-09
1.08277e-06
-6.73475e-09
-1.22019e-08
1.10604e-06
-5.3416e-09
1.0993e-06
-5.2427e-09
1.09089e-06
-5.38062e-09
1.08005e-06
-5.80286e-09
1.06581e-06
-6.99412e-09
-1.19544e-08
9.81269e-07
-8.03954e-09
9.73423e-07
-7.34279e-09
9.64484e-07
-6.53003e-09
9.53605e-07
-5.51675e-09
9.39381e-07
-4.07947e-09
9.19231e-07
-1.83619e-09
-2.2047e-09
7.36402e-07
-6.79011e-09
7.27336e-07
-6.16438e-09
7.18218e-07
-5.36031e-09
7.08779e-07
-4.23971e-09
6.98356e-07
-2.18742e-09
6.85258e-07
2.36164e-09
1.29606e-08
4.3068e-07
-1.72268e-09
4.22775e-07
-1.40054e-09
4.15415e-07
-1.0002e-09
4.08802e-07
-4.32881e-10
4.03727e-07
7.84427e-10
4.03166e-07
3.72558e-09
2.53559e-08
1.55709e-07
1.52296e-07
1.49327e-07
1.46986e-07
1.46141e-07
1.48915e-07
1.26072e-07
-1.51066e-08
6.00933e-08
1.02498e-07
-2.39582e-08
4.75322e-08
9.19368e-08
-2.7794e-08
3.83545e-08
-2.92109e-08
3.46364e-08
3.48394e-07
-3.77589e-08
6.32575e-08
3.11136e-07
-4.27406e-08
5.60403e-08
2.87298e-07
-5.08955e-08
4.69397e-08
4.14429e-08
5.90739e-07
4.73596e-08
5.66243e-07
4.84962e-08
4.43805e-08
3.02807e-07
-4.93841e-09
9.0216e-08
2.74448e-07
-8.87611e-09
8.47664e-08
2.5615e-07
-1.84198e-08
7.50717e-08
-2.46497e-08
6.05538e-07
-3.2558e-08
8.28133e-08
6.02965e-07
-3.32142e-08
8.29515e-08
5.92946e-07
-3.92732e-08
7.78121e-08
8.65831e-07
6.54112e-08
8.71805e-07
6.81759e-08
6.71345e-08
4.57623e-07
-1.92793e-08
9.84296e-08
4.56049e-07
-1.61933e-08
1.02533e-07
-1.78301e-08
9.95927e-08
8.30743e-07
-3.3705e-08
9.70833e-08
8.31468e-07
-3.26967e-08
9.87299e-08
-3.39515e-08
9.65e-08
1.10013e-06
7.99368e-08
1.10427e-06
8.10603e-08
8.07198e-08
5.98495e-07
-2.4145e-08
6.0845e-07
-1.94627e-08
-1.6952e-08
9.93624e-07
-2.89052e-08
9.97987e-07
-2.81641e-08
-2.72261e-08
1.2751e-06
1.2779e-06
)
;

boundaryField
{
    inlet
    {
        type            calculated;
        value           nonuniform List<scalar> 0();
    }
    ami1
    {
        type            cyclicAMI;
        value           nonuniform List<scalar> 
100
(
1.85468e-07
4.04646e-07
6.56459e-07
8.86953e-07
1.04783e-06
1.07576e-06
9.4756e-07
7.19145e-07
4.37506e-07
1.85472e-07
4.37539e-07
7.63361e-07
1.10618e-06
1.34981e-06
1.47945e-06
1.48722e-06
1.36136e-06
1.10834e-06
7.63365e-07
4.04681e-07
7.19167e-07
1.10833e-06
1.42415e-06
1.65789e-06
1.78136e-06
1.78413e-06
1.66277e-06
1.42416e-06
1.10619e-06
6.565e-07
9.47572e-07
1.36135e-06
1.66277e-06
1.87771e-06
1.99095e-06
1.99118e-06
1.87769e-06
1.65786e-06
1.34978e-06
8.86989e-07
1.07577e-06
1.48723e-06
1.78414e-06
1.99119e-06
2.09962e-06
2.09962e-06
1.99093e-06
1.78132e-06
1.47942e-06
1.04786e-06
1.04784e-06
1.47946e-06
1.78137e-06
1.99096e-06
2.09963e-06
2.09962e-06
1.99117e-06
1.78411e-06
1.48721e-06
1.07579e-06
8.86955e-07
1.34983e-06
1.65791e-06
1.87771e-06
1.99119e-06
1.99095e-06
1.8777e-06
1.66276e-06
1.36135e-06
9.47578e-07
6.56455e-07
1.1062e-06
1.42417e-06
1.66278e-06
1.78414e-06
1.78135e-06
1.65789e-06
1.42415e-06
1.10833e-06
7.19152e-07
4.04639e-07
7.63357e-07
1.10834e-06
1.36137e-06
1.48723e-06
1.47945e-06
1.34981e-06
1.10619e-06
7.63356e-07
4.37525e-07
1.85464e-07
4.37534e-07
7.19153e-07
9.47579e-07
1.07579e-06
1.04785e-06
8.86973e-07
6.56471e-07
4.0465e-07
1.85466e-07
)
;
    }
    walls
    {
        type            calculated;
        value           nonuniform List<scalar> 
283
(
0
0
0
0
0
0
0
0
0
0
0
0
0
0
0
0
0
0
0
0
0
0
0
0
0
0
0
0
0
0
0
0
0
0
0
0
0
0
0
0
0
0
0
0
0
0
0
0
0
0
0
0
0
0
0
0
0
0
0
0
0
0
0
0
0
0
0
0
0
0
0
0
0
0
0
0
0
0
0
0
0
0
0
0
0
0
0
0
0
0
0
0
0
0
0
0
0
0
0
0
0
0
0
0
0
0
0
0
0
0
0
0
0
0
0
0
0
0
0
0
0
0
0
0
0
0
0
0
0
0
0
0
0
0
0
0
0
0
0
0
0
0
0
0
0
0
0
0
0
0
0
0
0
0
0
0
0
0
0
0
0
0
0
0
0
0
0
0
0
0
0
0
0
0
0
0
0
0
0
0
0
0
0
0
0
0
0
0
0
0
0
0
0
0
0
0
0
0
0
0
0
0
0
0
0
0
0
0
0
0
0
0
0
0
0
0
0
0
0
0
0
0
0
0
0
0
0
0
0
0
0
0
0
0
0
0
0
0
0
0
0
0
0
0
0
0
0
0
0
0
0
0
0
0
0
0
0
0
2.90979e-14
2.43942e-14
1.84387e-14
2.90979e-14
2.43942e-14
1.84387e-14
2.90979e-14
2.43942e-14
1.84387e-14
2.90979e-14
2.43942e-14
-2.90979e-14
-2.43942e-14
-1.84387e-14
-1.28555e-14
-2.90979e-14
-2.43942e-14
-1.84387e-14
-1.28555e-14
-2.90979e-14
-2.43942e-14
-1.84387e-14
-1.28555e-14
-2.90979e-14
-2.43942e-14
)
;
    }
    ami2
    {
        type            cyclicAMI;
        value           nonuniform List<scalar> 
12
(
-1.71059e-07
-3.88999e-07
-6.07972e-07
-3.27991e-07
-5.97475e-07
-8.562e-07
-4.46558e-07
-8.30587e-07
-1.09771e-06
-5.85448e-07
-9.93702e-07
-1.27396e-06
)
;
    }
    outlet
    {
        type            calculated;
        value           nonuniform List<scalar> 0();
    }
    procBoundary2to0
    {
        type            processor;
        value           nonuniform List<scalar> 
28
(
8.65108e-08
2.72377e-07
-5.57325e-08
-6.78845e-08
-6.67401e-08
5.4216e-07
-7.11928e-08
2.46118e-07
6.93179e-08
5.82068e-07
-4.47575e-08
7.24288e-08
-6.02406e-08
-5.88677e-08
8.70745e-07
-6.09664e-08
4.49358e-07
8.28902e-07
-5.06523e-08
-4.97198e-08
1.107e-06
-5.02737e-08
6.12778e-07
1.00154e-06
-3.63305e-08
-3.65145e-08
1.28163e-06
-3.66435e-08
)
;
    }
    procBoundary2to1
    {
        type            processor;
        value           nonuniform List<scalar> 9(1.09527e-07 1.12039e-07 1.12217e-07 1.01922e-07 1.03068e-07 1.03218e-07 8.62309e-08 8.66015e-08 8.64127e-08);
    }
    procBoundary2to3
    {
        type            processor;
        value           nonuniform List<scalar> 
110
(
-1.5571e-07
-4.3068e-07
-7.36401e-07
-9.81266e-07
-1.11163e-06
-1.11297e-06
4.7796e-09
-9.90132e-07
-7.46861e-07
-4.39489e-07
-1.59512e-07
-4.31441e-07
-8.11115e-07
-1.11983e-06
-1.35361e-06
-1.47734e-06
-1.47837e-06
4.67835e-09
-1.35512e-06
-1.12364e-06
-8.16605e-07
-4.39033e-07
-7.38504e-07
-1.12125e-06
-1.41522e-06
-1.63048e-06
-1.74427e-06
-1.7448e-06
5.21703e-09
-1.6266e-06
-1.41398e-06
-1.12274e-06
-7.456e-07
-9.83989e-07
-1.35565e-06
-1.63138e-06
-1.82842e-06
-1.93166e-06
-1.93179e-06
6.06565e-09
-1.82006e-06
-1.62601e-06
-1.35383e-06
-9.88509e-07
-1.11298e-06
-1.47837e-06
-1.7448e-06
-1.9318e-06
-2.02911e-06
-2.02911e-06
6.43863e-09
-1.9211e-06
-1.73757e-06
-1.47543e-06
-1.11639e-06
-1.11163e-06
-1.47734e-06
-1.74427e-06
-1.93166e-06
-2.02911e-06
-2.02911e-06
6.34011e-09
-1.9212e-06
-1.73793e-06
-1.47605e-06
-1.11717e-06
-9.81268e-07
-1.35361e-06
-1.63048e-06
-1.82842e-06
-1.9318e-06
-1.93166e-06
5.92411e-09
-1.82006e-06
-1.6266e-06
-1.35512e-06
-9.90133e-07
-7.36402e-07
-1.11984e-06
-1.41522e-06
-1.63139e-06
-1.7448e-06
-1.74427e-06
5.34991e-09
-1.62601e-06
-1.41398e-06
-1.12364e-06
-7.46861e-07
-4.3068e-07
-8.11116e-07
-1.12125e-06
-1.35565e-06
-1.47837e-06
-1.47734e-06
5.20815e-09
-1.35384e-06
-1.12274e-06
-8.16605e-07
-4.39489e-07
-1.5571e-07
-4.31442e-07
-7.38505e-07
-9.8399e-07
-1.11298e-06
-1.11164e-06
5.56829e-09
-9.8851e-07
-7.45601e-07
-4.39033e-07
-1.59512e-07
)
;
    }
}


// ************************************************************************* //
