/*--------------------------------*- C++ -*----------------------------------*\
| =========                 |                                                 |
| \\      /  F ield         | OpenFOAM: The Open Source CFD Toolbox           |
|  \\    /   O peration     | Version:  2212                                  |
|   \\  /    A nd           | Website:  www.openfoam.com                      |
|    \\/     M anipulation  |                                                 |
\*---------------------------------------------------------------------------*/
FoamFile
{
    version     2.0;
    format      ascii;
    arch        "LSB;label=32;scalar=64";
    class       surfaceVectorField;
    location    "2.05";
    object      Uf;
}
// * * * * * * * * * * * * * * * * * * * * * * * * * * * * * * * * * * * * * //

dimensions      [0 1 -1 0 0 0 0];

internalField   nonuniform List<vector> 
1769
(
(0.0455374 1.87835e-06 0.000147441)
(0.0542348 0.00012661 0.000212309)
(0.0542949 0.000125837 0.000286778)
(0.0446496 -5.62282e-05 0.000172692)
(0.0531837 4.74145e-05 0.000225235)
(0.0532838 9.75636e-05 0.000295468)
(0.0439497 -0.000181899 0.000211605)
(0.0522667 -7.55359e-05 0.000261886)
(0.0524419 2.79503e-05 0.000325303)
(0.0436971 -0.000393177 0.000222749)
(0.0515803 -0.000307013 0.000285024)
(0.0519082 -0.000129836 0.000367597)
(0.0445268 -0.00174373 -0.000695725)
(0.051558 -0.000779595 0.00019282)
(0.0522092 -0.00037331 0.000388297)
(0.0502873 -0.00361129 -0.00158779)
(0.0505849 -0.00204893 -0.000807329)
(0.0659273 0.000373598 0.000418406)
(0.0733029 0.000722233 0.000676178)
(0.0758734 0.000345987 0.000362165)
(0.0647796 0.00019805 0.000436551)
(0.0721935 0.0005821 0.000705004)
(0.0749959 0.000227186 0.000389846)
(0.0637484 -7.39218e-05 0.000442654)
(0.071128 0.000384902 0.000750027)
(0.0742037 5.42633e-05 0.000432085)
(0.0629571 -0.000603935 0.000358801)
(0.0701128 4.24631e-05 0.00078467)
(0.0735189 -0.000245139 0.000445448)
(0.0628695 -0.00215835 -0.000284116)
(0.0692661 -0.000665859 0.000732753)
(0.0730316 -0.000897122 0.000251851)
(0.0678357 -0.00231317 0.000604456)
(0.0721381 -0.00287594 -0.00102614)
(0.0811783 0.000863298 0.000974948)
(0.0859078 0.000831487 0.00107349)
(0.0885823 0.00081731 0.00095519)
(0.0801605 0.000694655 0.00103177)
(0.0850115 0.000698544 0.00112302)
(0.0879413 0.00068182 0.00100378)
(0.0791069 0.000446067 0.00112059)
(0.0840429 0.00052683 0.00120947)
(0.0872975 0.000505558 0.00108723)
(0.0779433 2.86556e-07 0.0012339)
(0.0829188 0.000277545 0.00135577)
(0.0866138 0.000243159 0.0012194)
(0.076481 -0.00059001 0.00187513)
(0.0815262 -0.000108089 0.00157022)
(0.0858356 -0.000199975 0.00140408)
(0.0798464 -0.000315094 0.00264929)
(0.0850146 -0.000640518 0.00224581)
(0.0902907 0.000756897 0.00126198)
(0.0925538 0.000616024 0.00124786)
(0.0960605 0.000722168 0.00130095)
(0.0894614 0.00066318 0.00135229)
(0.0919066 0.000593771 0.00131759)
(0.095634 0.000632231 0.00137112)
(0.0884522 0.000559008 0.00151507)
(0.091136 0.000599982 0.00143269)
(0.0951241 0.000535565 0.00150165)
(0.0871325 0.000449343 0.00178632)
(0.0901543 0.000637544 0.00162701)
(0.0944654 0.00042834 0.0017347)
(0.0852631 0.000634269 0.00247574)
(0.0888424 0.000772875 0.00192351)
(0.093579 0.00032141 0.00211303)
(0.0874637 0.00139081 0.00268881)
(0.0926886 0.000600754 0.00315239)
(0.0942928 0.000404096 0.00129996)
(0.0946201 0.000126492 0.00123783)
(0.0993341 0.000361786 0.00139834)
(0.0937174 0.000469268 0.00139258)
(0.0941496 0.000208401 0.00129423)
(0.0991044 0.000386305 0.00146406)
(0.0930006 0.000586251 0.00153435)
(0.0935961 0.00034833 0.00137663)
(0.0987972 0.000447834 0.0015739)
(0.0920761 0.000802642 0.00174352)
(0.0929217 0.00056832 0.00149769)
(0.098377 0.000550347 0.00175092)
(0.0908619 0.00135082 0.00210345)
(0.0920679 0.000946027 0.00166597)
(0.0978053 0.000749067 0.00200873)
(0.0912902 0.00171436 0.00195694)
(0.0974523 0.00125622 0.00243561)
(0.0944858 -9.11721e-05 0.0012321)
(0.0927911 -0.000439033 0.00117687)
(0.0994548 -0.000155768 0.00135016)
(0.0940384 5.08628e-05 0.00127827)
(0.0923033 -0.000297752 0.00119054)
(0.0993009 -5.27582e-05 0.00138138)
(0.0935326 0.000267212 0.00133996)
(0.0917993 -9.85365e-05 0.00120551)
(0.0991123 9.45625e-05 0.0014314)
(0.0929498 0.000598771 0.00142013)
(0.0912743 0.000195362 0.00121944)
(0.0988779 0.00030988 0.00150242)
(0.0923076 0.00112072 0.00151946)
(0.0907102 0.000603899 0.00124599)
(0.0985827 0.000625811 0.0015961)
(0.0900782 0.00121236 0.00124622)
(0.098371 0.00109112 0.00171492)
(0.0912707 -0.000758484 0.00114259)
(0.086958 -0.000931611 0.000995763)
(0.096599 -0.000764105 0.00120819)
(0.0907132 -0.000612144 0.0011357)
(0.0862176 -0.000813399 0.000985438)
(0.096321 -0.000648473 0.00119761)
(0.090172 -0.000416432 0.00111998)
(0.0855313 -0.00066251 0.000963196)
(0.0960588 -0.000506548 0.00118619)
(0.0896524 -0.000135462 0.00108902)
(0.0849251 -0.000450268 0.000915642)
(0.0958135 -0.000319497 0.00116692)
(0.0891561 0.000279645 0.00104724)
(0.0844348 -0.000129814 0.000804758)
(0.0955864 -5.55873e-05 0.00113428)
(0.0886346 0.000899058 0.000964887)
(0.0841175 0.000396004 0.000630196)
(0.0953781 0.00031784 0.00109579)
(0.0834175 0.00144398 0.000164237)
(0.0951304 0.00085001 0.00101947)
(0.0824246 -0.00104327 0.000872481)
(0.0745871 -0.00089748 0.000612748)
(0.0893794 -0.000983258 0.00085939)
(0.0815704 -0.000930978 0.000850716)
(0.0735192 -0.000832406 0.000599755)
(0.088812 -0.000898236 0.00083389)
(0.0808294 -0.000785972 0.000804599)
(0.0725561 -0.000764871 0.000564898)
(0.0883177 -0.000800504 0.000791127)
(0.080259 -0.00056865 0.000691265)
(0.0717551 -0.000667223 0.000491608)
(0.0879207 -0.000668494 0.00070666)
(0.0799183 -0.000154742 0.000462861)
(0.071233 -0.000448861 0.00027213)
(0.0876465 -0.00046229 0.000521106)
(0.0799079 0.000836315 -8.21112e-05)
(0.0713198 -2.06808e-06 -0.000100686)
(0.0875315 -6.31319e-05 0.000207706)
(0.0697573 0.00142083 -0.001011)
(0.0871208 0.000901142 -0.000508545)
(0.0672786 -0.000621129 0.000351948)
(0.0554262 -0.000286405 0.000146946)
(0.0768761 -0.000516594 0.000270841)
(0.0661236 -0.000591283 0.000325991)
(0.0542948 -0.000286645 0.000125955)
(0.0759568 -0.000493063 0.000236961)
(0.0651083 -0.000556007 0.000264247)
(0.0532837 -0.000295256 9.77429e-05)
(0.0751348 -0.00047792 0.000173129)
(0.0643264 -0.00047353 0.000101934)
(0.0524416 -0.000325027 2.82065e-05)
(0.0744467 -0.000455742 5.80963e-05)
(0.0640878 -0.000338821 -0.000197249)
(0.0519076 -0.000367122 -0.000129468)
(0.0739739 -0.000373993 -0.000209257)
(0.0650181 -7.19921e-05 -0.000673062)
(0.0522081 -0.000387435 -0.00037281)
(0.0739352 -0.000133988 -0.000832605)
(0.0505828 0.000808887 -0.00204677)
(0.0725511 0.000955292 -0.00290359)
(0.0465578 -0.00013838 3.64734e-05)
(0.0553896 -0.000207043 0.000187432)
(0.0455372 -0.000147304 2.03436e-06)
(0.0542348 -0.000212224 0.000126767)
(0.0446495 -0.000172471 -5.59965e-05)
(0.0531837 -0.000225077 4.76399e-05)
(0.0439494 -0.000211255 -0.000181571)
(0.0522667 -0.000261653 -7.51936e-05)
(0.0436967 -0.000222205 -0.000392662)
(0.0515803 -0.000284661 -0.000306439)
(0.0445265 0.000696381 -0.0017417)
(0.0515582 -0.000192158 -0.000778717)
(0.0502871 0.00159012 -0.00361045)
(0.0661238 0.000325831 0.00059147)
(0.075957 0.000236812 0.000493199)
(0.0735195 0.000599635 0.000832543)
(0.0651087 0.000264002 0.000556203)
(0.075135 0.000172938 0.000478153)
(0.0725565 0.000564693 0.000765009)
(0.064327 0.000101537 0.000473756)
(0.074447 5.78201e-05 0.000456019)
(0.0717557 0.000491289 0.000667318)
(0.0640892 -0.000197864 0.000339155)
(0.0739746 -0.000209743 0.000374362)
(0.0712341 0.000271574 0.000448897)
(0.0650211 -0.000674206 7.25275e-05)
(0.0739365 -0.000833405 0.000134608)
(0.0713219 -0.000101604 1.83624e-06)
(0.0725518 -0.00290479 -0.000953837)
(0.0697594 -0.00101266 -0.00142154)
(0.0873666 0.00022039 0.000424032)
(0.0918211 0.000528192 0.000724155)
(0.0918904 0.000574517 0.000668922)
(0.0869167 8.73688e-05 0.000422654)
(0.0914645 0.000406467 0.000732431)
(0.0915708 0.000483985 0.000631152)
(0.086547 -0.000131391 0.000412894)
(0.0911547 0.000235544 0.000756536)
(0.0913138 0.000344195 0.00058604)
(0.0861892 -0.000539455 0.000313503)
(0.0908736 -2.11308e-05 0.000785792)
(0.0911015 0.000105973 0.000510606)
(0.0855252 -0.00140089 -0.000177515)
(0.0905305 -0.000403927 0.000760085)
(0.0908332 -0.000310069 0.00035348)
(0.0903639 -0.00096236 0.00048864)
(0.0906468 -0.00111415 -8.22567e-05)
(0.096574 0.000633667 0.00104518)
(0.0993165 0.000650327 0.00122977)
(0.0996901 0.00082377 0.00108918)
(0.0963755 0.000481877 0.00108449)
(0.0991898 0.000530942 0.00126794)
(0.0996393 0.00070499 0.00108707)
(0.0961896 0.000279526 0.00115487)
(0.0990583 0.000384647 0.00134599)
(0.0996055 0.000555355 0.00110496)
(0.095995 4.08259e-06 0.00125676)
(0.0989092 0.000197296 0.00147889)
(0.0995744 0.000357608 0.00114036)
(0.0957415 -0.000323178 0.00141462)
(0.0987305 -4.59675e-05 0.00167225)
(0.0995265 9.62955e-05 0.00117995)
(0.0988311 -0.000278373 0.00195162)
(0.0996838 -0.00017196 0.00126634)
(0.102174 0.000596796 0.0014804)
(0.103423 0.000504257 0.00153211)
(0.104363 0.000687503 0.00147379)
(0.102121 0.000498782 0.00156155)
(0.103451 0.000460225 0.00158101)
(0.104478 0.000601397 0.00150535)
(0.102036 0.000389839 0.00170871)
(0.103446 0.000421882 0.00167996)
(0.104578 0.00050897 0.00157996)
(0.101915 0.000267044 0.00194343)
(0.1034 0.000390743 0.00184821)
(0.10466 0.000407409 0.00171021)
(0.101766 0.00017315 0.00227373)
(0.103321 0.000368534 0.00209754)
(0.104733 0.000295972 0.00189916)
(0.103541 0.000409256 0.00241715)
(0.105026 0.00023174 0.00213158)
(0.104755 0.000343431 0.00163421)
(0.104751 9.16018e-05 0.00158632)
(0.106521 0.00032797 0.00162106)
(0.104834 0.000360713 0.00170055)
(0.104872 0.00014375 0.00161347)
(0.106758 0.000325438 0.00164765)
(0.104873 0.00040206 0.00181991)
(0.104967 0.000222497 0.00167406)
(0.10697 0.000337949 0.00171377)
(0.104869 0.000476379 0.00200176)
(0.10503 0.000338849 0.00177656)
(0.107154 0.000369047 0.00182824)
(0.104816 0.000605521 0.00223958)
(0.105068 0.000507039 0.00192516)
(0.107327 0.000424441 0.00199217)
(0.105341 0.000737461 0.00210759)
(0.107719 0.000522053 0.00218262)
(0.104871 -0.000121728 0.00156559)
(0.103565 -0.000399576 0.00144315)
(0.106587 -0.000205802 0.00156558)
(0.105008 -1.47678e-05 0.00158699)
(0.10367 -0.000291498 0.00143291)
(0.10686 -0.000134334 0.00156183)
(0.105129 0.000128109 0.00163071)
(0.103776 -0.00015403 0.00142992)
(0.10712 -4.34498e-05 0.00157666)
(0.105229 0.000320616 0.00169996)
(0.103878 2.59255e-05 0.00143246)
(0.107367 7.53151e-05 0.00161336)
(0.105302 0.000565037 0.00179317)
(0.103981 0.00026297 0.00144129)
(0.107614 0.000231224 0.0016732)
(0.104205 0.000565543 0.00144647)
(0.107991 0.000415783 0.00174858)
(0.102358 -0.000659663 0.00134647)
(0.0995567 -0.000784088 0.00113987)
(0.104321 -0.00077006 0.0013987)
(0.102415 -0.000548091 0.00131452)
(0.099485 -0.000694407 0.00109334)
(0.104496 -0.000681552 0.00134833)
(0.10249 -0.000416035 0.00128152)
(0.0994501 -0.000596384 0.00104039)
(0.104683 -0.000587794 0.00130059)
(0.102581 -0.000249994 0.00123978)
(0.0994498 -0.000476703 0.000963874)
(0.104884 -0.00048028 0.00124937)
(0.102678 -3.65611e-05 0.00118534)
(0.0994736 -0.000319532 0.000841242)
(0.105095 -0.000350027 0.00118923)
(0.102772 0.000234407 0.0011116)
(0.099497 -0.000104301 0.000660309)
(0.105326 -0.000187744 0.00112068)
(0.0995873 0.000247543 0.000369363)
(0.105634 1.43505e-05 0.00103846)
(0.0969164 -0.000848318 0.000912201)
(0.0922738 -0.000710928 0.000640799)
(0.0998158 -0.00100298 0.00102005)
(0.0967622 -0.00077673 0.000847214)
(0.0918902 -0.000668852 0.000574743)
(0.0997686 -0.000943283 0.000942805)
(0.0966611 -0.000694685 0.000754365)
(0.0915706 -0.000630993 0.000484231)
(0.0997599 -0.000889149 0.000852394)
(0.0966074 -0.000584571 0.000602269)
(0.0913136 -0.000585798 0.000344504)
(0.099786 -0.000831703 0.000730349)
(0.096561 -0.000421934 0.000360929)
(0.0911012 -0.000510301 0.000106436)
(0.0998331 -0.000758562 0.000554713)
(0.0964258 -0.000130877 -2.30912e-05)
(0.0908328 -0.00035282 -0.000309543)
(0.0998702 -0.000650945 0.000315157)
(0.0906476 8.45299e-05 -0.00111497)
(0.100006 -0.00045536 3.70561e-06)
(0.0878896 -0.000435031 0.000310043)
(0.0768253 -0.000351563 0.000426098)
(0.0922292 -0.000734367 0.000622296)
(0.0873664 -0.000423882 0.000220644)
(0.0758734 -0.000362072 0.000346214)
(0.091821 -0.000724088 0.000528401)
(0.0869165 -0.000422344 8.76308e-05)
(0.0749959 -0.000389643 0.000227439)
(0.0914644 -0.000732219 0.000406663)
(0.0865468 -0.000412442 -0.000131049)
(0.0742037 -0.000431749 5.45959e-05)
(0.0911546 -0.000756184 0.000235778)
(0.086189 -0.000312699 -0.000539031)
(0.0735191 -0.000444904 -0.00024464)
(0.0908735 -0.000785267 -2.08407e-05)
(0.0855251 0.000179479 -0.00140076)
(0.0730322 -0.000250622 -0.000896572)
(0.0905304 -0.000759053 -0.000403714)
(0.0721403 0.00102972 -0.0028758)
(0.0903647 -0.000486408 -0.0009626)
(0.0671601 -0.000408163 0.000495092)
(0.0744564 -0.000661391 0.000828314)
(0.0659274 -0.000418308 0.000373846)
(0.0733031 -0.000676055 0.000722341)
(0.0647798 -0.000436384 0.000198397)
(0.0721937 -0.000704832 0.000582279)
(0.0637488 -0.000442365 -7.33866e-05)
(0.0711284 -0.000749766 0.000385186)
(0.0629578 -0.000358157 -0.000603201)
(0.0701136 -0.000784191 4.28994e-05)
(0.0628716 0.000285771 -0.00215737)
(0.0692678 -0.000731715 -0.000665448)
(0.0678391 -0.000602427 -0.00231281)
(0.0815708 0.000850548 0.000931049)
(0.0888122 0.000833768 0.000898325)
(0.086218 0.000985307 0.000813436)
(0.08083 0.000804322 0.000786005)
(0.0883181 0.000790909 0.000800586)
(0.0855317 0.000962978 0.000662501)
(0.08026 0.000690808 0.000568594)
(0.0879212 0.000706317 0.000668563)
(0.0849258 0.000915299 0.000450167)
(0.0799199 0.000462104 0.000154443)
(0.0876473 0.000520541 0.000462294)
(0.0844358 0.00080422 0.000129581)
(0.0799103 -8.3247e-05 -0.000837192)
(0.0875327 0.000206922 6.30356e-05)
(0.0841191 0.000629348 -0.000396593)
(0.0871217 -0.000508351 -0.000900553)
(0.0834192 0.000163016 -0.00144523)
(0.0967624 0.000847004 0.000776822)
(0.0997687 0.00094264 0.000943347)
(0.0994852 0.00109318 0.000694455)
(0.0966613 0.000754084 0.000694812)
(0.09976 0.000852195 0.000889253)
(0.0994503 0.00104016 0.000596446)
(0.0966077 0.000601857 0.000584727)
(0.0997861 0.000730118 0.000831863)
(0.09945 0.000963555 0.000476786)
(0.0965612 0.000360396 0.000422197)
(0.0998331 0.000554396 0.000758786)
(0.0994738 0.000840759 0.000319603)
(0.0964259 -2.24388e-05 0.000132429)
(0.0998701 0.000314963 0.000651459)
(0.0994971 0.000659741 0.000104492)
(0.100005 5.7054e-06 0.000457917)
(0.0995869 0.000370188 -0.0002459)
(0.103108 0.000895015 0.00106013)
(0.10483 0.000829818 0.00123781)
(0.104864 0.00111528 0.000912285)
(0.103242 0.000780807 0.00103503)
(0.105031 0.000736535 0.00122249)
(0.105083 0.00103087 0.000862874)
(0.103388 0.000640609 0.00102077)
(0.105241 0.000631003 0.00122947)
(0.105314 0.000935231 0.0008213)
(0.103526 0.00046699 0.00101042)
(0.105454 0.000508362 0.00125773)
(0.105553 0.000821776 0.000785206)
(0.103625 0.000279945 0.00100861)
(0.105673 0.00036998 0.00130147)
(0.105801 0.000687883 0.000750226)
(0.10603 0.000252221 0.00136328)
(0.106162 0.000561021 0.000720221)
(0.10688 0.000686787 0.001415)
(0.107601 0.000524271 0.00148485)
(0.107977 0.000814393 0.00119014)
(0.107165 0.000606664 0.00143366)
(0.107938 0.000477654 0.00148845)
(0.108357 0.000745381 0.00117527)
(0.107449 0.000522577 0.00148565)
(0.108267 0.000433367 0.00152315)
(0.108734 0.000676434 0.00118314)
(0.107737 0.000434819 0.00157084)
(0.108592 0.000391115 0.00159239)
(0.109113 0.00060518 0.00121493)
(0.10804 0.000357081 0.00168046)
(0.108933 0.00035017 0.0016919)
(0.109512 0.000533196 0.00126502)
(0.109407 0.000322278 0.00180226)
(0.110016 0.000478309 0.00131518)
(0.108687 0.000305709 0.0015605)
(0.108511 3.62327e-05 0.00153251)
(0.109447 0.000325978 0.00131134)
(0.109071 0.000297162 0.00158022)
(0.108912 5.54528e-05 0.001524)
(0.109925 0.000309515 0.00130281)
(0.109443 0.000297489 0.00163224)
(0.109301 8.3711e-05 0.00153886)
(0.110389 0.000299036 0.00131829)
(0.109812 0.000306643 0.00171597)
(0.109684 0.00012297 0.00157934)
(0.110847 0.000294456 0.00135817)
(0.110188 0.000325575 0.00181658)
(0.110079 0.000175251 0.0016407)
(0.111318 0.000295427 0.00141414)
(0.110584 0.000236899 0.00170555)
(0.111889 0.000303807 0.0014634)
(0.108736 -0.00022005 0.00149601)
(0.107656 -0.000503781 0.00140064)
(0.109471 -0.000291993 0.00127136)
(0.109142 -0.000166809 0.00148264)
(0.108021 -0.000444766 0.00135761)
(0.109961 -0.000256743 0.00124254)
(0.109542 -0.000103193 0.00148596)
(0.108385 -0.000380798 0.00132226)
(0.11044 -0.000217292 0.00122836)
(0.109942 -2.54837e-05 0.00150407)
(0.108753 -0.000308463 0.00129281)
(0.110915 -0.000170945 0.00122718)
(0.110348 6.4733e-05 0.00152967)
(0.109139 -0.000221657 0.0012668)
(0.111403 -0.000115867 0.00123345)
(0.10961 -0.000117337 0.00124335)
(0.111963 -5.47339e-05 0.00123878)
(0.106652 -0.000789903 0.00133165)
(0.10466 -0.000972448 0.00119702)
(0.107615 -0.000914393 0.00116974)
(0.106969 -0.000721396 0.00126607)
(0.104864 -0.000912253 0.00111541)
(0.108014 -0.000855904 0.00110235)
(0.107294 -0.000655563 0.00120212)
(0.105083 -0.000862792 0.001031)
(0.108412 -0.000806599 0.00103997)
(0.107628 -0.000588793 0.0011355)
(0.105314 -0.00082115 0.00093533)
(0.108812 -0.000764131 0.000978991)
(0.107974 -0.000516458 0.00106394)
(0.105553 -0.000784928 0.000821786)
(0.109219 -0.000726551 0.000915492)
(0.108332 -0.000431985 0.000991483)
(0.105801 -0.000749587 0.000687536)
(0.109649 -0.000687262 0.000849622)
(0.106162 -0.000718401 0.000559335)
(0.110156 -0.000635665 0.000790007)
(0.102995 -0.00109945 0.000994118)
(0.0997652 -0.00111139 0.000928223)
(0.104637 -0.00127426 0.000919651)
(0.103108 -0.00106005 0.000895154)
(0.09969 -0.00108914 0.000823938)
(0.10483 -0.00123776 0.000829921)
(0.103242 -0.00103489 0.00078091)
(0.0996393 -0.00108694 0.000705133)
(0.105031 -0.00122238 0.000736593)
(0.103388 -0.00102052 0.000640629)
(0.0996056 -0.00110473 0.000555464)
(0.105241 -0.00122931 0.000630971)
(0.103527 -0.00100989 0.000466707)
(0.0995746 -0.00113997 0.000357632)
(0.105453 -0.00125745 0.000508157)
(0.103626 -0.00100702 0.000278411)
(0.0995268 -0.00117921 9.59468e-05)
(0.105673 -0.00130096 0.000369293)
(0.0996844 -0.00126468 -0.000173545)
(0.10603 -0.00136199 0.000250148)
(0.0967945 -0.0010327 0.000756625)
(0.0892384 -0.000931287 0.000931303)
(0.0994487 -0.00122252 0.000756063)
(0.0965739 -0.00104506 0.000633834)
(0.0885823 -0.00095507 0.000817435)
(0.0993164 -0.00122967 0.000650453)
(0.0963755 -0.00108424 0.000482016)
(0.0879414 -0.00100359 0.00068195)
(0.0991897 -0.00126771 0.000531025)
(0.0961897 -0.00115443 0.00027962)
(0.0872978 -0.00108689 0.000505696)
(0.0990582 -0.00134561 0.000384663)
(0.0959952 -0.00125597 3.99163e-06)
(0.0866145 -0.00121877 0.000243277)
(0.0989091 -0.00147826 0.000197191)
(0.0957417 -0.00141326 -0.000323734)
(0.0858369 -0.00140284 -0.000200129)
(0.0987303 -0.00167122 -4.6367e-05)
(0.0850168 -0.00224381 -0.000641091)
(0.0988307 -0.00195025 -0.000279167)
(0.0821903 -0.00094183 0.000996501)
(0.0867724 -0.00104639 0.00094172)
(0.0811785 -0.000974772 0.000863395)
(0.085908 -0.00107332 0.000831518)
(0.0801609 -0.00103151 0.000694788)
(0.0850119 -0.00112277 0.000698585)
(0.0791078 -0.00112013 0.000446239)
(0.0840434 -0.00120906 0.000526863)
(0.0779449 -0.00123303 3.84526e-07)
(0.0829198 -0.00135504 0.000277523)
(0.076484 -0.00187387 -0.000590038)
(0.0815282 -0.00156886 -0.000108339)
(0.0798493 -0.00264827 -0.000315326)
(0.0907136 0.00113552 0.000612137)
(0.0963212 0.00119748 0.000648506)
(0.0927914 0.00117677 0.000439018)
(0.0901725 0.00111972 0.000416358)
(0.0960592 0.00118597 0.000506553)
(0.0923037 0.00119038 0.000297706)
(0.0896532 0.00108863 0.000135277)
(0.0958139 0.00116659 0.000319456)
(0.0917998 0.00120527 9.84291e-05)
(0.0891571 0.00104667 -0.000280004)
(0.0955869 0.0011338 5.54742e-05)
(0.091275 0.00121909 -0.000195529)
(0.0886358 0.000964026 -0.000899784)
(0.0953786 0.00109509 -0.000318029)
(0.0907111 0.00124549 -0.000604201)
(0.0951309 0.00101863 -0.00085025)
(0.0900792 0.00124553 -0.00121285)
(0.102415 0.00131435 0.00054814)
(0.104496 0.00134821 0.000681599)
(0.103565 0.00144304 0.000399613)
(0.10249 0.00128126 0.000416083)
(0.104683 0.00130041 0.000587852)
(0.10367 0.00143273 0.000291536)
(0.102581 0.00123941 0.000250048)
(0.104884 0.00124913 0.000480365)
(0.103776 0.00142967 0.000154083)
(0.102678 0.00118485 3.66651e-05)
(0.105095 0.00118894 0.000350164)
(0.103878 0.00143211 -2.58357e-05)
(0.102771 0.00111119 -0.000233997)
(0.105326 0.00112042 0.000188038)
(0.103981 0.00144086 -0.000262737)
(0.105634 0.00103865 -1.35636e-05)
(0.104205 0.0014462 -0.000564807)
(0.106969 0.00126594 0.000721453)
(0.108014 0.00110225 0.000855929)
(0.107656 0.00140051 0.000503825)
(0.107294 0.00120199 0.000655664)
(0.108412 0.00103988 0.000806641)
(0.108021 0.00135747 0.00044484)
(0.107628 0.00113541 0.000588974)
(0.108812 0.000978933 0.000764205)
(0.108385 0.00132212 0.000380927)
(0.107974 0.00106399 0.000516805)
(0.109219 0.000915525 0.000726672)
(0.108753 0.0012927 0.000308689)
(0.108332 0.000991927 0.000432678)
(0.109649 0.000849875 0.000687482)
(0.109139 0.00126682 0.000222076)
(0.110156 0.000790746 0.000636075)
(0.10961 0.00124376 0.000118091)
(0.10953 0.000879407 0.000948728)
(0.109864 0.000628438 0.00101219)
(0.109868 0.000970365 0.000656532)
(0.110009 0.000822407 0.000924141)
(0.110388 0.00058856 0.000985861)
(0.110394 0.00092321 0.000629662)
(0.110487 0.000767325 0.000912626)
(0.110905 0.000552007 0.000974961)
(0.110913 0.000883964 0.000609218)
(0.110972 0.000713067 0.0009103)
(0.11142 0.000516888 0.000978066)
(0.11143 0.000849736 0.000593619)
(0.111471 0.000665446 0.000906469)
(0.111953 0.000483281 0.000987504)
(0.111965 0.000818883 0.000579137)
(0.112556 0.000458028 0.000987425)
(0.112564 0.000794624 0.000556954)
(0.110738 0.000330706 0.00105079)
(0.110458 3.49453e-07 0.00104763)
(0.110891 0.000356156 0.000725477)
(0.111302 0.000312071 0.00103833)
(0.11103 1.13395e-06 0.00101952)
(0.111505 0.000338246 0.000708519)
(0.111858 0.000296301 0.00104228)
(0.111589 3.36959e-06 0.00100625)
(0.112104 0.00032359 0.000702013)
(0.112413 0.000283058 0.00105742)
(0.112144 7.59692e-06 0.00100573)
(0.112697 0.000311866 0.000704425)
(0.112972 0.000272974 0.00107087)
(0.112712 1.3395e-05 0.00101139)
(0.113302 0.000302293 0.000710544)
(0.113342 2.13672e-05 0.00101256)
(0.113962 0.000294645 0.00070803)
(0.110748 -0.000331933 0.00101635)
(0.109868 -0.000656527 0.000970476)
(0.110895 -0.000361392 0.000707458)
(0.111316 -0.00031137 0.000987429)
(0.110394 -0.000629656 0.000923316)
(0.111511 -0.000345114 0.000681795)
(0.111876 -0.000290359 0.000969698)
(0.110913 -0.000609213 0.000884059)
(0.112112 -0.0003311 0.000663951)
(0.112435 -0.000268212 0.000959699)
(0.11143 -0.000593625 0.000849786)
(0.112707 -0.00031808 0.000652704)
(0.112995 -0.000244176 0.000953071)
(0.111964 -0.000579176 0.00081884)
(0.113313 -0.000304967 0.000645492)
(0.112564 -0.000557083 0.000794411)
(0.113969 -0.000288142 0.000639148)
(0.109045 -0.000986961 0.000941203)
(0.10759 -0.00122564 0.000887204)
(0.109324 -0.00105391 0.000672584)
(0.10953 -0.000948721 0.000879488)
(0.107977 -0.00119012 0.000814481)
(0.109864 -0.0010122 0.000628551)
(0.110009 -0.000924131 0.00082246)
(0.108357 -0.00117523 0.000745429)
(0.110388 -0.000985883 0.000588666)
(0.110487 -0.000912622 0.000767317)
(0.108734 -0.00118307 0.000676416)
(0.110905 -0.000975004 0.000552103)
(0.110972 -0.000910324 0.000712929)
(0.109113 -0.00121484 0.000605036)
(0.11142 -0.000978159 0.000516947)
(0.11147 -0.000906568 0.000665081)
(0.109512 -0.00126495 0.000532819)
(0.111953 -0.0009877 0.000483274)
(0.110015 -0.00131529 0.000477624)
(0.112556 -0.00098783 0.000457921)
(0.106593 -0.00142595 0.000766251)
(0.104235 -0.00147561 0.000772503)
(0.107253 -0.0015072 0.000575017)
(0.10688 -0.00141493 0.000686842)
(0.104363 -0.00147369 0.000687593)
(0.1076 -0.0014848 0.000524368)
(0.107165 -0.00143354 0.000606643)
(0.104478 -0.00150517 0.000601446)
(0.107937 -0.00148837 0.000477717)
(0.107448 -0.00148548 0.000522426)
(0.104578 -0.00157968 0.000508928)
(0.108266 -0.00152303 0.000433375)
(0.107736 -0.00157062 0.000434441)
(0.104659 -0.00170978 0.000407228)
(0.108591 -0.00159222 0.000391026)
(0.108039 -0.00168035 0.00035639)
(0.104732 -0.0018986 0.00029556)
(0.108932 -0.00169172 0.000349926)
(0.105024 -0.00213129 0.000231186)
(0.109405 -0.00180225 0.000321895)
(0.102204 -0.00144467 0.000688327)
(0.0964398 -0.00126683 0.000808366)
(0.103375 -0.00151608 0.000554598)
(0.102174 -0.00148019 0.000596879)
(0.0960605 -0.00130078 0.000722226)
(0.103423 -0.00153195 0.000504352)
(0.102121 -0.00156121 0.000498806)
(0.0956341 -0.00137083 0.000632273)
(0.103451 -0.00158075 0.000460303)
(0.102036 -0.00170817 0.00038976)
(0.0951243 -0.00150117 0.000535548)
(0.103446 -0.00167954 0.000421909)
(0.101914 -0.0019426 0.000266813)
(0.0944658 -0.00173388 0.000428202)
(0.1034 -0.00184753 0.000390701)
(0.101765 -0.00227275 0.000172827)
(0.0935796 -0.00211157 0.000321034)
(0.10332 -0.0020965 0.000368401)
(0.0926888 -0.00315088 0.000600519)
(0.103539 -0.00241583 0.000409178)
(0.0910185 -0.00121265 0.000844925)
(0.0931232 -0.00120739 0.000653102)
(0.0902909 -0.00126174 0.000756923)
(0.092554 -0.00124769 0.000616055)
(0.0894618 -0.00135191 0.000663188)
(0.0919069 -0.00131731 0.000593795)
(0.0884529 -0.00151442 0.000558948)
(0.0911365 -0.0014322 0.000599992)
(0.0871338 -0.00178512 0.000449101)
(0.0901551 -0.00162617 0.000637456)
(0.0852652 -0.0024747 0.000634131)
(0.0888438 -0.00192202 0.000772596)
(0.0874658 -0.00268727 0.0013903)
(0.0944861 0.001232 9.11264e-05)
(0.0994551 0.00135006 0.000155758)
(0.0946204 0.00123777 -0.000126541)
(0.0940389 0.00127814 -5.09433e-05)
(0.0993011 0.00138125 5.2737e-05)
(0.0941499 0.00129416 -0.000208478)
(0.0935331 0.00133977 -0.000267341)
(0.0991127 0.00143122 -9.45969e-05)
(0.0935965 0.00137653 -0.000348443)
(0.0929504 0.00141986 -0.000598951)
(0.0988783 0.00150218 -0.000309923)
(0.0929221 0.00149756 -0.000568486)
(0.0923084 0.00151912 -0.00112094)
(0.0985832 0.00159577 -0.000625823)
(0.0920684 0.00166579 -0.000946228)
(0.0983715 0.00171456 -0.00109104)
(0.0912909 0.00195666 -0.00171452)
(0.104871 0.00156546 0.000121746)
(0.106587 0.00156546 0.000205826)
(0.104752 0.00158623 -9.16064e-05)
(0.105008 0.00158681 1.47991e-05)
(0.10686 0.00156168 0.000134375)
(0.104873 0.00161335 -0.00014375)
(0.105129 0.00163048 -0.000128046)
(0.10712 0.00157647 4.35225e-05)
(0.104968 0.0016739 -0.000222485)
(0.105229 0.00169968 -0.000320472)
(0.107367 0.00161313 -7.51822e-05)
(0.10503 0.00177635 -0.000338805)
(0.105302 0.00179285 -0.000564712)
(0.107614 0.00167296 -0.000230969)
(0.105068 0.00192491 -0.000506915)
(0.107991 0.00174843 -0.000415325)
(0.105342 0.00210731 -0.000737191)
(0.108736 0.00149588 0.000220098)
(0.109471 0.00127124 0.00029201)
(0.108512 0.00153239 -3.62142e-05)
(0.109142 0.00148249 0.000166894)
(0.109961 0.0012424 0.000256773)
(0.108912 0.00152385 -5.54137e-05)
(0.109542 0.0014858 0.00010334)
(0.11044 0.0012282 0.000217344)
(0.109301 0.00153869 -8.36337e-05)
(0.109942 0.00150393 2.57331e-05)
(0.110916 0.00122703 0.000171031)
(0.109684 0.00157915 -0.000122835)
(0.110348 0.00152964 -6.43417e-05)
(0.111403 0.00123333 0.000116001)
(0.110079 0.00164051 -0.000175033)
(0.111964 0.00123879 5.48998e-05)
(0.110584 0.00170548 -0.000236603)
(0.110749 0.00101621 0.000331929)
(0.110895 0.000707308 0.000361367)
(0.110458 0.00104748 -3.58601e-07)
(0.111316 0.000987278 0.000311364)
(0.111511 0.000681621 0.000345076)
(0.11103 0.00101934 -1.14399e-06)
(0.111876 0.000969541 0.000290345)
(0.112112 0.000663751 0.000331039)
(0.111589 0.00100605 -3.38267e-06)
(0.112435 0.000959549 0.000268174)
(0.112707 0.000652477 0.000317977)
(0.112144 0.0010055 -7.61863e-06)
(0.112995 0.000952955 0.00024407)
(0.113313 0.000645238 0.00030479)
(0.112712 0.00101113 -1.34433e-05)
(0.11397 0.00063888 0.00028782)
(0.113342 0.0010123 -2.14851e-05)
(0.111669 0.000364142 0.000375077)
(0.11134 -4.11606e-06 0.000376541)
(0.11134 0.000376358 4.07172e-06)
(0.112319 0.000350289 0.000365464)
(0.111998 -5.90995e-06 0.000362865)
(0.111998 0.000362641 5.84366e-06)
(0.112958 0.000339774 0.000359592)
(0.11264 -8.02954e-06 0.000353114)
(0.11264 0.000352837 7.92782e-06)
(0.113592 0.000331824 0.00035576)
(0.113275 -1.02412e-05 0.000346526)
(0.113275 0.000346181 1.00827e-05)
(0.114226 0.000324777 0.000349945)
(0.113918 -1.18903e-05 0.000341395)
(0.113918 0.000340965 1.16385e-05)
(0.114606 -1.16855e-05 0.000333745)
(0.114606 0.000333209 1.12801e-05)
(0.111669 -0.000375137 0.000364328)
(0.110891 -0.000725514 0.000356308)
(0.11134 -0.000376602 -3.93405e-06)
(0.112319 -0.000365559 0.000350515)
(0.111504 -0.000708582 0.000338422)
(0.111998 -0.000362959 -5.68354e-06)
(0.112958 -0.000359744 0.000340048)
(0.112104 -0.000702119 0.000323794)
(0.11264 -0.000353259 -7.74442e-06)
(0.113592 -0.000356003 0.000332162)
(0.112697 -0.000704607 0.000312105)
(0.113275 -0.000346747 -9.8775e-06)
(0.114226 -0.000350342 0.000325196)
(0.113301 -0.000710858 0.000302583)
(0.113918 -0.00034173 -1.14197e-05)
(0.113961 -0.000708586 0.000295021)
(0.114606 -0.000334254 -1.10676e-05)
(0.110158 -0.0010805 0.000352284)
(0.10895 -0.00134145 0.000347647)
(0.109867 -0.00109077 5.38823e-07)
(0.110738 -0.00105084 0.000330847)
(0.109446 -0.00131133 0.000326103)
(0.110458 -0.00104768 5.01654e-07)
(0.111302 -0.00103841 0.000312225)
(0.109925 -0.00130281 0.000309642)
(0.111029 -0.0010196 1.31338e-06)
(0.111858 -0.00104242 0.000296471)
(0.110389 -0.00131831 0.00029917)
(0.111589 -0.00100639 3.59932e-06)
(0.112412 -0.00105769 0.000283251)
(0.110846 -0.00135822 0.000294587)
(0.112144 -0.00100597 7.87775e-06)
(0.112971 -0.00107138 0.000273223)
(0.111317 -0.0014143 0.000295565)
(0.112712 -0.00101179 1.37646e-05)
(0.111887 -0.00146378 0.00030401)
(0.113341 -0.00101324 2.19175e-05)
(0.108288 -0.00156818 0.000322472)
(0.106262 -0.00162044 0.000342192)
(0.108097 -0.00156189 2.36487e-05)
(0.108687 -0.00156044 0.000305821)
(0.106521 -0.00162094 0.000328077)