/*--------------------------------*- C++ -*----------------------------------*\
| =========                 |                                                 |
| \\      /  F ield         | OpenFOAM: The Open Source CFD Toolbox           |
|  \\    /   O peration     | Version:  2212                                  |
|   \\  /    A nd           | Website:  www.openfoam.com                      |
|    \\/     M anipulation  |                                                 |
\*---------------------------------------------------------------------------*/
FoamFile
{
    version     2.0;
    format      ascii;
    arch        "LSB;label=32;scalar=64";
    class       volScalarField;
    location    "1.65";
    object      p;
}
// * * * * * * * * * * * * * * * * * * * * * * * * * * * * * * * * * * * * * //

dimensions      [0 2 -2 0 0 0 0];

internalField   nonuniform List<scalar> 
680
(
0.0178573
0.0107429
0.00845147
0.00791365
0.00763929
0.00741709
0.00723048
0.0106785
0.00994469
0.0088518
0.00818583
0.00778325
0.00750954
0.0072984
0.0103303
0.00947875
0.00871449
0.00815536
0.0077792
0.00751118
0.00729552
0.00992097
0.00915824
0.00853947
0.00808814
0.00774416
0.0074751
0.00725543
0.00978673
0.00904554
0.00845737
0.00804923
0.00772724
0.00746045
0.0072388
0.00978673
0.00904554
0.00845736
0.00804922
0.00772723
0.00746043
0.00723877
0.00992096
0.00915823
0.00853946
0.00808813
0.00774413
0.00747505
0.00725534
0.0103303
0.00947875
0.00871448
0.00815534
0.00777917
0.00751113
0.00729543
0.0106785
0.0099447
0.0088518
0.00818583
0.00778324
0.00750951
0.00729835
0.0178573
0.0107429
0.00845149
0.00791366
0.00763931
0.00741711
0.0072305
0.0106785
0.00994468
0.00885179
0.00818582
0.00778322
0.0075095
0.00729833
0.00996195
0.00993025
0.00920204
0.00849155
0.00804521
0.00772929
0.00747045
0.00903648
0.00916267
0.0088598
0.0084436
0.00807648
0.00775787
0.00747937
0.0086181
0.00866161
0.00849605
0.00823312
0.00795275
0.00768142
0.00743041
0.0084021
0.00842392
0.00829672
0.00807919
0.00784674
0.00761755
0.00739469
0.00840209
0.00842392
0.00829671
0.00807918
0.00784673
0.00761752
0.00739465
0.0086181
0.00866161
0.00849604
0.0082331
0.00795272
0.00768137
0.00743032
0.00903648
0.00916267
0.0088598
0.0084436
0.00807646
0.00775784
0.00747931
0.00996197
0.00993027
0.00920205
0.00849156
0.00804523
0.00772931
0.00747047
0.0106786
0.0099447
0.00885181
0.00818585
0.00778327
0.00750955
0.00729841
0.0103302
0.00947874
0.00871447
0.00815533
0.00777916
0.00751111
0.00729541
0.00903647
0.00916266
0.00885979
0.00844358
0.00807645
0.00775782
0.0074793
0.00846698
0.00856796
0.00845641
0.00823095
0.00797523
0.00771686
0.00745853
0.00809899
0.00816705
0.00811467
0.00796771
0.00778287
0.00757779
0.00736716
0.0079159
0.00798033
0.00795085
0.007826
0.00766698
0.00749328
0.00730696
0.00791589
0.00798032
0.00795085
0.007826
0.00766697
0.00749326
0.00730694
0.00809899
0.00816705
0.00811467
0.0079677
0.00778286
0.00757777
0.00736713
0.00846699
0.00856797
0.00845642
0.00823097
0.00797524
0.00771688
0.00745855
0.00903649
0.00916269
0.00885982
0.00844362
0.00807649
0.00775789
0.00747939
0.0103303
0.00947877
0.0087145
0.00815537
0.00777922
0.0075112
0.00729554
0.00992095
0.00915822
0.00853945
0.00808812
0.00774412
0.00747504
0.00725533
0.00861809
0.0086616
0.00849603
0.00823309
0.00795271
0.00768135
0.00743031
0.00809898
0.00816704
0.00811466
0.00796769
0.00778285
0.00757776
0.00736711
0.0078011
0.00786024
0.00784831
0.00775292
0.00761331
0.00744784
0.00726769
0.00764998
0.00771287
0.00771663
0.00764298
0.00752285
0.00737646
0.00721355
0.00764998
0.00771288
0.00771663
0.00764298
0.00752285
0.00737646
0.00721355
0.00780111
0.00786025
0.00784832
0.00775293
0.00761332
0.00744785
0.00726771
0.008099
0.00816706
0.00811468
0.00796772
0.00778289
0.00757781
0.00736718
0.00861812
0.00866163
0.00849606
0.00823314
0.00795277
0.00768144
0.00743043
0.00992098
0.00915825
0.00853949
0.00808816
0.00774418
0.00747512
0.00725546
0.00978672
0.00904553
0.00845735
0.00804921
0.00772722
0.00746042
0.00723876
0.00840209
0.00842391
0.0082967
0.00807918
0.00784672
0.00761752
0.00739464
0.00791589
0.00798032
0.00795084
0.00782599
0.00766697
0.00749326
0.00730694
0.00764998
0.00771287
0.00771663
0.00764298
0.00752285
0.00737645
0.00721355
0.00750719
0.00757669
0.00759881
0.00754626
0.00744501
0.00731408
0.00716417
0.00750719
0.0075767
0.00759881
0.00754627
0.00744502
0.00731409
0.00716417
0.00764999
0.00771288
0.00771664
0.00764299
0.00752287
0.00737647
0.00721357
0.00791591
0.00798034
0.00795087
0.00782602
0.007667
0.0074933
0.00730699
0.00840211
0.00842394
0.00829673
0.00807921
0.00784676
0.00761757
0.00739471
0.00978675
0.00904556
0.00845738
0.00804925
0.00772726
0.00746047
0.00723883
0.00978673
0.00904554
0.00845736
0.00804923
0.00772724
0.00746045
0.00723881
0.00840209
0.00842392
0.00829671
0.00807919
0.00784674
0.00761755
0.00739469
0.00791589
0.00798033
0.00795085
0.007826
0.00766698
0.00749328
0.00730697
0.00764998
0.00771287
0.00771663
0.00764298
0.00752285
0.00737646
0.00721356
0.00750719
0.0075767
0.00759881
0.00754627
0.00744502
0.00731408
0.00716417
0.00750719
0.0075767
0.00759882
0.00754627
0.00744502
0.00731409
0.00716418
0.00764999
0.00771288
0.00771664
0.00764299
0.00752287
0.00737647
0.00721357
0.00791591
0.00798034
0.00795086
0.00782601
0.00766699
0.00749328
0.00730696
0.00840211
0.00842394
0.00829673
0.0080792
0.00784675
0.00761754
0.00739467
0.00978674
0.00904556
0.00845738
0.00804924
0.00772725
0.00746045
0.00723879
0.00992097
0.00915824
0.00853947
0.00808814
0.00774416
0.00747511
0.00725544
0.0086181
0.00866161
0.00849605
0.00823312
0.00795275
0.00768142
0.00743042
0.00809899
0.00816705
0.00811467
0.00796771
0.00778288
0.00757779
0.00736717
0.00780111
0.00786025
0.00784831
0.00775293
0.00761332
0.00744785
0.0072677
0.00764999
0.00771288
0.00771664
0.00764298
0.00752286
0.00737646
0.00721356
0.00764999
0.00771288
0.00771664
0.00764299
0.00752286
0.00737647
0.00780112
0.00786026
0.00784833
0.00775294
0.00761333
0.00744786
0.008099
0.00816706
0.00811468
0.00796772
0.00778288
0.00757778
0.00861811
0.00866162
0.00849605
0.00823312
0.00795274
0.00768139
0.00992098
0.00915825
0.00853948
0.00808814
0.00774414
0.00747507
0.0103303
0.00947875
0.00871449
0.00815536
0.00777921
0.00751119
0.00729553
0.00903648
0.00916268
0.00885981
0.00844361
0.00807648
0.00775788
0.00747938
0.00846699
0.00856796
0.00845641
0.00823096
0.00797523
0.00771687
0.00745854
0.00809898
0.00816705
0.00811466
0.0079677
0.00778286
0.00757777
0.00736713
0.0079159
0.00798033
0.00795085
0.007826
0.00766698
0.00749327
0.00730695
0.00791591
0.00798034
0.00795086
0.00782602
0.00766699
0.00749329
0.008099
0.00816706
0.00811469
0.00796773
0.00778289
0.00757781
0.008467
0.00856798
0.00845643
0.00823098
0.00797525
0.00771689
0.0090365
0.00916269
0.00885982
0.00844361
0.00807648
0.00775785
0.0103303
0.00947876
0.0087145
0.00815536
0.00777919
0.00751114
0.0106785
0.00994469
0.00885181
0.00818584
0.00778326
0.00750954
0.00729841
0.00996196
0.00993026
0.00920205
0.00849156
0.00804522
0.0077293
0.00747046
0.00903648
0.00916267
0.0088598
0.00844359
0.00807646
0.00775783
0.00747931
0.0086181
0.00866161
0.00849604
0.0082331
0.00795272
0.00768137
0.00743032
0.0084021
0.00842392
0.00829671
0.00807919
0.00784674
0.00761753
0.00739466
0.00840211
0.00842394
0.00829673
0.0080792
0.00784676
0.00761756
0.00861812
0.00866163
0.00849607
0.00823314
0.00795277
0.00768144
0.0090365
0.0091627
0.00885983
0.00844363
0.0080765
0.0077579
0.00996198
0.00993028
0.00920207
0.00849158
0.00804524
0.00772932
0.0106786
0.00994471
0.00885182
0.00818585
0.00778326
0.00750953
0.0178573
0.0107429
0.00845148
0.00791365
0.0076393
0.0074171
0.00723049
0.0106785
0.00994469
0.0088518
0.00818582
0.00778323
0.00750951
0.00729834
0.0103303
0.00947874
0.00871447
0.00815534
0.00777917
0.00751112
0.00729543
0.00992096
0.00915823
0.00853946
0.00808813
0.00774413
0.00747505
0.00725534
0.00978673
0.00904555
0.00845737
0.00804923
0.00772723
0.00746044
0.00723877
0.00978674
0.00904556
0.00845738
0.00804924
0.00772725
0.00746047
0.00992099
0.00915826
0.00853949
0.00808816
0.00774418
0.00747512
0.0103303
0.00947877
0.00871451
0.00815538
0.00777923
0.0075112
0.0106786
0.00994472
0.00885183
0.00818586
0.00778328
0.00750957
0.0178574
0.0107429
0.0084515
0.00791367
0.00763932
0.00741712
)
;

boundaryField
{
    inlet
    {
        type            zeroGradient;
    }
    ami1
    {
        type            cyclicAMI;
        value           nonuniform List<scalar> 0();
    }
    walls
    {
        type            zeroGradient;
    }
    ami2
    {
        type            cyclicAMI;
        value           nonuniform List<scalar> 0();
    }
    outlet
    {
        type            fixedValue;
        value           nonuniform List<scalar> 0();
    }
    procBoundary4to3
    {
        type            processor;
        value           nonuniform List<scalar> 
109
(
0.0070641
0.00711223
0.00710261
0.00706654
0.00704796
0.0070479
0.00706639
0.00710245
0.00711214
0.00706412
0.00711212
0.00724287
0.00723901
0.00720404
0.00718146
0.0071814
0.00720389
0.00723891
0.00724289
0.00711225
0.00710243
0.00723889
0.00721703
0.00716034
0.00711893
0.00711889
0.00716028
0.00721705
0.00723903
0.00710263
0.00706638
0.00720388
0.00716027
0.00708328
0.00704213
0.00704213
0.0070833
0.00716037
0.00720406
0.00706657
0.0070479
0.0071814
0.00711889
0.00704212
0.00700321
0.00700322
0.00704215
0.00711895
0.00718149
0.00704799
0.00704797
0.00718147
0.00711893
0.00704214
0.00700322
0.00700322
0.00721357
0.00704214
0.00726772
0.00711892
0.00736714
0.00718142
0.00743034
0.00704792
0.00725536
0.00706655
0.00720405
0.00716036
0.0070833
0.00704213
0.00721357
0.00721357
0.00726772
0.00736714
0.00743034
0.00725536
0.00710262
0.00723902
0.00721704
0.00716029
0.0071189
0.00730698
0.00730698
0.00736719
0.00745856
0.00747933
0.00729545
0.00711224
0.00724288
0.00723891
0.0072039
0.00718141
0.0073947
0.0073947
0.00743043
0.0074794
0.00747048
0.00729836
0.00706412
0.00711214
0.00710245
0.00706639
0.00704791
0.00723882
0.00723882
0.00725545
0.00729555
0.00729842
0.00723051
)
;
    }
}


// ************************************************************************* //
