/*--------------------------------*- C++ -*----------------------------------*\
| =========                 |                                                 |
| \\      /  F ield         | OpenFOAM: The Open Source CFD Toolbox           |
|  \\    /   O peration     | Version:  2212                                  |
|   \\  /    A nd           | Website:  www.openfoam.com                      |
|    \\/     M anipulation  |                                                 |
\*---------------------------------------------------------------------------*/
FoamFile
{
    version     2.0;
    format      ascii;
    arch        "LSB;label=32;scalar=64";
    class       surfaceVectorField;
    location    "0.15";
    object      Uf;
}
// * * * * * * * * * * * * * * * * * * * * * * * * * * * * * * * * * * * * * //

dimensions      [0 1 -1 0 0 0 0];

internalField   nonuniform List<vector> 
1769
(
(0.0522726 -1.21699e-05 4.70352e-05)
(0.0612537 1.35055e-05 4.44151e-05)
(0.0612783 1.12342e-05 7.85556e-05)
(0.0521232 -4.17484e-05 6.39522e-05)
(0.0610735 -2.33141e-05 4.85603e-05)
(0.0611172 -1.07801e-05 9.06533e-05)
(0.0520288 -9.99858e-05 8.97113e-05)
(0.0609322 -7.97258e-05 6.15397e-05)
(0.0610148 -4.16969e-05 0.000124638)
(0.0520907 -0.000214059 0.000115342)
(0.0608449 -0.000191773 7.23724e-05)
(0.0610151 -0.000109848 0.000176574)
(0.0526328 -0.0010409 -0.000316356)
(0.0609383 -0.000443333 5.772e-05)
(0.0612899 -0.000250998 0.000231724)
(0.0605158 -0.00144035 -0.000277687)
(0.060992 -0.00141768 -0.000341697)
(0.0744676 3.93164e-05 6.51318e-05)
(0.080479 0.000113236 9.09897e-05)
(0.0819414 5.77702e-05 8.64038e-05)
(0.0742835 -1.80617e-05 6.97887e-05)
(0.0803003 6.32612e-05 8.48176e-05)
(0.0817906 1.09088e-05 9.36633e-05)
(0.0741009 -0.000102721 8.34114e-05)
(0.0801239 1.70867e-05 9.8826e-05)
(0.0816582 -5.20395e-05 0.000115863)
(0.0738967 -0.000287784 9.75295e-05)
(0.0799156 -4.71024e-05 0.00013077)
(0.0815258 -0.000165773 0.000143173)
(0.0737262 -0.000300337 0.000486642)
(0.0796534 -0.000207702 0.000172418)
(0.0813913 -0.000437639 0.000134194)
(0.0791139 7.8323e-05 0.000882231)
(0.0810502 -0.000575264 0.000401183)
(0.0877183 0.000136536 0.000111276)
(0.0906194 0.000156351 0.000124785)
(0.0924187 0.000144033 0.000139993)
(0.0875507 0.00010128 0.000114795)
(0.0904828 0.000128484 0.000109912)
(0.0922959 9.79601e-05 0.000131907)
(0.087349 8.43661e-05 0.000150049)
(0.0903326 0.000122666 0.000120125)
(0.0921647 6.46859e-05 0.000152747)
(0.0870469 7.78057e-05 0.000221144)
(0.0901297 0.000150205 0.000162202)
(0.0919887 3.7308e-05 0.000209545)
(0.086498 0.00028977 0.000602332)
(0.089834 0.000241339 0.000241608)
(0.0917338 7.75064e-06 0.000304031)
(0.0895173 0.000780479 0.000763943)
(0.0914812 0.000240923 0.000765854)
(0.0937462 0.000153088 0.000125169)
(0.0946557 0.000131441 0.000138617)
(0.0975107 0.000149828 0.000173586)
(0.093634 0.000153898 0.000115505)
(0.0945767 0.000138448 0.000113035)
(0.0974336 0.00013422 0.000149024)
(0.0934992 0.000186806 0.000129155)
(0.0944948 0.000170547 0.000104861)
(0.0973467 0.000138088 0.000148837)
(0.0933184 0.000279156 0.00016825)
(0.0943961 0.000244776 0.000116189)
(0.0972331 0.000171818 0.000174912)
(0.0930695 0.000568234 0.000344189)
(0.0942693 0.000391095 0.000145744)
(0.0970874 0.000256265 0.000222022)
(0.0942018 0.000756927 0.000350372)
(0.0970234 0.000530602 0.000425366)
(0.0955366 0.000102815 0.000125012)
(0.0955837 4.56609e-05 0.000135679)
(0.0992295 8.91196e-05 0.000187075)
(0.095491 0.000133596 9.95229e-05)
(0.0955467 7.44112e-05 0.00010034)
(0.0991986 0.000103734 0.000145287)
(0.0954501 0.00019325 8.66211e-05)
(0.0955232 0.000119805 7.638e-05)
(0.0991715 0.000137713 0.000120911)
(0.0954156 0.000298439 8.45772e-05)
(0.0955114 0.000190826 6.1277e-05)
(0.0991459 0.000199379 0.000110422)
(0.0954032 0.000488213 0.000135878)
(0.0955073 0.000299044 5.25561e-05)
(0.0991239 0.000301572 0.000107747)
(0.0955391 0.000471343 0.000112448)
(0.099159 0.000471357 0.000166036)
(0.0955924 1.37852e-05 0.000111006)
(0.0947367 -5.89348e-05 0.000120567)
(0.0992682 -1.09225e-05 0.000174547)
(0.0955782 5.72029e-05 7.71973e-05)
(0.0947091 -1.53916e-05 8.13546e-05)
(0.0992589 2.35321e-05 0.00012435)
(0.0955828 0.000116841 5.10359e-05)
(0.0947088 3.54902e-05 4.89463e-05)
(0.0992637 6.73414e-05 8.71123e-05)
(0.0956078 0.000200862 2.92559e-05)
(0.0947355 0.000103296 1.77249e-05)
(0.0992826 0.000127405 5.71302e-05)
(0.0956565 0.000312317 2.91263e-05)
(0.094784 0.000200703 -1.81424e-05)
(0.0993157 0.000210112 3.06506e-05)
(0.0948356 0.000325271 -3.09914e-05)
(0.0993728 0.000310492 3.0901e-05)
(0.0939447 -0.00013725 0.000136178)
(0.09084 -0.000196917 0.000142104)
(0.0976509 -0.000166988 0.00020217)
(0.0938971 -8.50189e-05 9.14007e-05)
(0.0907416 -0.00014099 9.52337e-05)
(0.0976103 -0.000114187 0.000140228)
(0.0938836 -3.32247e-05 5.35804e-05)
(0.0906918 -9.62485e-05 5.50715e-05)
(0.0975956 -6.95249e-05 9.07137e-05)
(0.0939044 3.16405e-05 1.57375e-05)
(0.0906942 -5.09891e-05 1.35834e-05)
(0.0976072 -2.38304e-05 4.63963e-05)
(0.0939602 0.000132835 -3.12637e-05)
(0.0907619 1.33796e-05 -4.22418e-05)
(0.0976451 3.66355e-05 -8.86911e-07)
(0.0940199 0.000296147 -8.46985e-05)
(0.090907 0.000164557 -0.000145)
(0.0977044 0.000131953 -5.9201e-05)
(0.0909414 0.000455166 -0.000320152)
(0.097762 0.000275887 -0.000110791)
(0.0879866 -0.00020448 0.000104907)
(0.0807474 -0.000198958 9.27058e-05)
(0.092616 -0.000222206 0.000140938)
(0.0878876 -0.000159593 6.34231e-05)
(0.0805733 -0.000161356 5.67272e-05)
(0.0925205 -0.000173026 9.04005e-05)
(0.0878514 -0.000129988 2.21997e-05)
(0.0804625 -0.000146896 2.37725e-05)
(0.0924716 -0.000143099 4.34969e-05)
(0.0878929 -0.000100377 -3.21134e-05)
(0.0804191 -0.000151472 -1.63771e-05)
(0.0924725 -0.000124449 -1.06377e-05)
(0.0880402 -2.37407e-05 -0.000131114)
(0.0804822 -0.000150775 -9.22141e-05)
(0.0925349 -9.8687e-05 -9.59628e-05)
(0.0883313 0.000203559 -0.00033517)
(0.0807316 -5.12461e-05 -0.000277594)
(0.0926698 -1.69702e-05 -0.000250493)
(0.0805813 0.000463161 -0.000919798)
(0.0927023 0.000204208 -0.000517778)
(0.0747333 -0.000146264 4.47305e-05)
(0.0615105 -8.31621e-05 2.95559e-05)
(0.0821531 -0.000143958 5.92276e-05)
(0.0745526 -0.000134625 1.56034e-05)
(0.0612822 -7.82521e-05 1.12158e-05)
(0.0819777 -0.000125505 2.54806e-05)
(0.0744334 -0.00014585 -1.86505e-05)
(0.0611202 -9.03296e-05 -1.08082e-05)
(0.0818523 -0.000125967 -1.17605e-05)
(0.074387 -0.000172301 -8.00119e-05)
(0.061017 -0.000124607 -4.15726e-05)
(0.0817736 -0.000143472 -6.86524e-05)
(0.0744997 -0.000178827 -0.000222395)
(0.0610161 -0.000176697 -0.000109611)
(0.0817624 -0.000154491 -0.000196883)
(0.0750913 4.59085e-05 -0.000748344)
(0.0612894 -0.00023189 -0.000250766)
(0.081879 -8.61107e-05 -0.000516112)
(0.0609907 0.000341411 -0.00141747)
(0.0817108 0.000401824 -0.0015478)
(0.0524809 -4.22984e-05 7.27127e-06)
(0.0614966 -5.02765e-05 4.24737e-05)
(0.0522742 -4.68898e-05 -1.22817e-05)
(0.0612576 -4.43906e-05 1.30347e-05)
(0.0521259 -6.38604e-05 -4.17068e-05)
(0.0610765 -4.84508e-05 -2.35871e-05)
(0.0520307 -8.97166e-05 -9.97531e-05)
(0.0609344 -6.16103e-05 -7.92849e-05)
(0.0520911 -0.000115389 -0.000213793)
(0.0608458 -7.2471e-05 -0.000191179)
(0.0526316 0.000316278 -0.00104062)
(0.0609377 -5.78368e-05 -0.000442775)
(0.0605142 0.000277702 -0.00143993)
(0.0745487 1.54106e-05 0.000135047)
(0.0819756 2.5359e-05 0.000125624)
(0.0805696 5.72821e-05 0.000163013)
(0.0744303 -1.89764e-05 0.000145696)
(0.0818513 -1.15376e-05 0.000126647)
(0.0804605 2.31237e-05 0.000146304)
(0.0743853 -8.03224e-05 0.000171837)
(0.081773 -6.8691e-05 0.000143625)
(0.080418 -1.72455e-05 0.000150206)
(0.0744996 -0.00022272 0.000178298)
(0.0817623 -0.000197166 0.000154258)
(0.0804821 -9.29669e-05 0.00014955)
(0.0750927 -0.000748497 -4.63864e-05)
(0.0818799 -0.000516427 8.58202e-05)
(0.0807327 -0.000278303 5.02223e-05)
(0.0817119 -0.00154776 -0.000401967)
(0.080583 -0.000920326 -0.000464013)
(0.0911603 3.1821e-05 0.000130083)
(0.0942889 9.53421e-05 0.000158628)
(0.0943226 8.92724e-05 0.00015847)
(0.0910705 -2.8148e-05 0.000138259)
(0.0942003 4.50243e-05 0.000153238)
(0.0942562 3.47867e-05 0.000149267)
(0.0910003 -0.000133409 0.000148091)
(0.0941227 -1.73048e-05 0.000165462)
(0.0942144 -3.69565e-05 0.000153004)
(0.0909273 -0.000348211 0.000122162)
(0.0940388 -0.000118124 0.000186565)
(0.0941866 -0.000158205 0.000155529)
(0.0907373 -0.000778841 -3.90745e-05)
(0.0939384 -0.000291915 0.000188848)
(0.09416 -0.000385538 0.000124775)
(0.093928 -0.000532394 0.000138936)
(0.0941721 -0.000768198 2.16119e-05)
(0.0978029 0.000108313 0.000183992)
(0.0997026 0.000137836 0.000215553)
(0.0999454 0.000155334 0.000217149)
(0.0977275 6.0376e-05 0.000183123)
(0.0996424 0.000101306 0.000190027)
(0.0999004 9.65073e-05 0.000194456)
(0.0976463 9.21049e-06 0.000208556)
(0.0995784 7.377e-05 0.000192205)
(0.0998575 4.09591e-05 0.000196847)
(0.0975418 -5.37386e-05 0.000259315)
(0.0994973 4.9269e-05 0.000220683)
(0.0998042 -2.25758e-05 0.000221643)
(0.0973708 -9.54613e-05 0.000367404)
(0.0994013 2.91026e-05 0.000274364)
(0.0997394 -9.79709e-05 0.000268601)
(0.0994154 6.72475e-05 0.000405281)
(0.0997567 -0.000132509 0.000384571)
(0.10171 0.000133023 0.000223494)
(0.102522 0.000117433 0.000253854)
(0.103276 0.000155789 0.000269956)
(0.101664 0.0001182 0.000200018)
(0.102495 0.000111224 0.000203565)
(0.103263 0.000121706 0.000224716)
(0.101609 0.000119636 0.000204339)
(0.102464 0.000121598 0.000180487)
(0.103243 0.000101769 0.00020794)
(0.101539 0.000140331 0.000234645)
(0.102426 0.00015096 0.000179955)
(0.103211 9.45389e-05 0.000216842)
(0.101442 0.000196045 0.000308196)
(0.102387 0.000205293 0.000200054)
(0.103176 0.000104078 0.0002529)
(0.10243 0.000293533 0.000264707)
(0.103211 0.000148502 0.000339369)
(0.103339 9.04501e-05 0.000233762)
(0.103361 3.46229e-05 0.00025645)
(0.104724 8.29931e-05 0.000293773)
(0.10333 0.000106964 0.000183047)
(0.10336 5.524e-05 0.000187259)
(0.104741 8.29321e-05 0.000224112)
(0.103321 0.000141148 0.000154022)
(0.103363 8.66565e-05 0.00014004)
(0.104753 9.50722e-05 0.000179406)
(0.103311 0.000196943 0.000141729)
(0.103369 0.000133766 0.000106817)
(0.10476 0.000121478 0.000153967)
(0.1033 0.000272999 0.000150641)
(0.103385 0.000200606 8.43241e-05)
(0.104772 0.000164524 0.000147359)
(0.103448 0.000279133 8.15184e-05)
(0.104827 0.000220692 0.000169189)
(0.103381 -3.05586e-06 0.000209947)
(0.102579 -7.11988e-05 0.000219521)
(0.104748 -3.56025e-05 0.000274118)
(0.103393 3.18723e-05 0.000144252)
(0.102585 -3.44722e-05 0.000145975)
(0.104778 -7.51598e-06 0.000192554)
(0.103413 7.56934e-05 9.28359e-05)
(0.102603 3.84665e-06 8.55032e-05)
(0.104807 2.29474e-05 0.000129964)
(0.103443 0.000133343 4.94128e-05)
(0.102633 5.14262e-05 2.79312e-05)
(0.104837 5.99844e-05 7.87666e-05)
(0.10348 0.000202909 1.52017e-05)
(0.102678 0.000114983 -3.19765e-05)
(0.104875 0.00010641 3.68616e-05)
(0.102742 0.000193633 -8.47248e-05)
(0.104934 0.000157495 1.33469e-05)
(0.101818 -0.000148983 0.000238171)
(0.0998146 -0.000198646 0.000236126)
(0.10332 -0.000205311 0.000315799)
(0.101813 -0.000101987 0.000156756)
(0.0997785 -0.000149311 0.000156451)
(0.103333 -0.000148711 0.000217686)
(0.101825 -6.24704e-05 8.85279e-05)
(0.0997657 -0.000115011 8.8655e-05)
(0.103351 -0.00010678 0.000138956)
(0.101855 -2.08498e-05 2.22472e-05)
(0.0997758 -8.72124e-05 1.94434e-05)
(0.103377 -7.21731e-05 6.97513e-05)
(0.101899 3.2937e-05 -5.1215e-05)
(0.099807 -5.34711e-05 -6.88946e-05)
(0.103411 -3.71189e-05 4.9078e-07)
(0.101946 0.000106453 -0.000128856)
(0.0998529 2.53607e-06 -0.000193281)
(0.103454 4.95777e-06 -7.37767e-05)
(0.0999088 9.9294e-05 -0.000343795)
(0.103511 5.68432e-05 -0.000137482)
(0.0979398 -0.000198223 0.000158101)
(0.0944171 -0.000188986 0.000146769)
(0.100022 -0.000257517 0.000227502)
(0.0978974 -0.000162229 9.16041e-05)
(0.0943206 -0.000159123 9.00672e-05)
(0.0999831 -0.000203937 0.000150499)
(0.0978835 -0.000142218 2.34341e-05)
(0.0942546 -0.000148321 3.40201e-05)
(0.0999634 -0.000172861 8.22628e-05)
(0.0978982 -0.00012836 -6.55529e-05)
(0.0942133 -0.000152496 -3.72995e-05)
(0.0999611 -0.000158584 1.01734e-05)
(0.0979321 -0.000104457 -0.000199799)
(0.0941857 -0.000155596 -0.000158011)
(0.0999718 -0.000152024 -8.33628e-05)
(0.0979398 -5.1076e-05 -0.000387515)
(0.0941593 -0.000125026 -0.000385158)
(0.099991 -0.000141111 -0.00021312)
(0.0941717 -2.14818e-05 -0.000768318)
(0.100034 -0.000122113 -0.000354693)
(0.0912729 -0.000137308 7.94709e-05)
(0.0821338 -9.44658e-05 0.000103167)
(0.0943969 -0.000187245 0.000150984)
(0.0911577 -0.00012979 3.16506e-05)
(0.0819436 -8.64243e-05 5.74337e-05)
(0.094287 -0.000159364 9.61738e-05)
(0.0910687 -0.000136892 -2.93143e-05)
(0.0817916 -9.32394e-05 1.02788e-05)
(0.0941988 -0.000152411 4.43782e-05)
(0.0909992 -0.000147443 -0.000133799)
(0.0816588 -0.000115727 -5.17893e-05)
(0.0941216 -0.000165017 -1.7492e-05)
(0.0909263 -0.000122056 -0.000348019)
(0.0815258 -0.000143292 -0.000165048)
(0.094038 -0.0001866 -0.000117737)
(0.0907362 3.91694e-05 -0.000778687)
(0.0813903 -0.00013431 -0.000436838)
(0.0939379 -0.000189008 -0.000291303)
(0.0810487 -0.000401013 -0.000574874)
(0.0939278 -0.000138632 -0.000532124)
(0.0746873 -7.29554e-05 8.9394e-05)
(0.0806953 -0.000111978 0.000168574)
(0.0744716 -6.52636e-05 3.86952e-05)
(0.0804827 -9.05226e-05 0.000111413)
(0.0742869 -7.00552e-05 -1.76097e-05)
(0.0803023 -8.54971e-05 6.40291e-05)
(0.0741025 -8.37054e-05 -0.000101623)
(0.0801249 -9.97139e-05 1.89483e-05)
(0.0738966 -9.78358e-05 -0.00028656)
(0.0799156 -0.000131426 -4.54515e-05)
(0.0737245 -0.000486757 -0.000299351)
(0.0796522 -0.000173082 -0.00020612)
(0.0791121 -0.000882473 7.94292e-05)
(0.0878871 6.33759e-05 0.000159799)
(0.0925204 9.07949e-05 0.000173658)
(0.0907407 9.55174e-05 0.000141395)
(0.0878514 2.11912e-05 0.000128828)
(0.0924719 4.29156e-05 0.000142617)
(0.0906914 5.44338e-05 9.57482e-05)
(0.0878934 -3.3251e-05 9.89088e-05)
(0.092473 -1.14357e-05 0.000123596)
(0.090694 1.25988e-05 5.00805e-05)
(0.0880413 -0.00013215 2.2384e-05)
(0.0925356 -9.67432e-05 9.7769e-05)
(0.0907621 -4.31812e-05 -1.44134e-05)
(0.0883333 -0.000336297 -0.000204898)
(0.0926707 -0.000251273 1.61753e-05)
(0.0909076 -0.000145994 -0.000165699)
(0.0927034 -0.000518391 -0.000204803)
(0.0909425 -0.000321385 -0.000456716)
(0.097898 9.13514e-05 0.000162118)
(0.0999836 0.000149993 0.000203665)
(0.0997793 0.000156223 0.000148938)
(0.0978844 2.32738e-05 0.000142174)
(0.0999638 8.21239e-05 0.000172798)
(0.0997664 8.86129e-05 0.00011508)
(0.097899 -6.58129e-05 0.000128193)
(0.0999615 1.00082e-05 0.000158488)
(0.0997765 1.93004e-05 8.72541e-05)
(0.0979326 -0.000200129 0.000104232)
(0.099972 -8.36669e-05 0.000151823)
(0.0998074 -6.92103e-05 5.33482e-05)
(0.0979398 -0.000387514 5.11933e-05)
(0.0999909 -0.000213433 0.000140987)
(0.099853 -0.000193687 -2.68515e-06)
(0.100034 -0.000354627 0.000122463)
(0.0999085 -0.000343973 -9.91196e-05)
(0.102284 0.000142988 0.000217213)
(0.103583 0.000171691 0.000262981)
(0.103598 0.000209808 0.000206441)
(0.102277 7.46401e-05 0.000192428)
(0.103587 0.000112671 0.000217425)
(0.103609 0.000132615 0.000167)
(0.102273 4.61207e-06 0.000187016)
(0.10359 6.12741e-05 0.000195946)
(0.103621 6.31913e-05 0.000144278)
(0.102266 -7.40019e-05 0.000196788)
(0.103589 1.07057e-05 0.000194175)
(0.103633 -7.3087e-06 0.00013291)
(0.102239 -0.0001483 0.000225518)
(0.10359 -3.91663e-05 0.000210156)
(0.103647 -8.1202e-05 0.000129556)
(0.103628 -6.83754e-05 0.000252786)
(0.103689 -0.000135562 0.000137997)
(0.104976 0.00014405 0.000265147)
(0.105583 0.000124929 0.00030627)
(0.105891 0.000187362 0.000262972)
(0.104993 0.000103288 0.000222331)
(0.105617 9.7084e-05 0.000239533)
(0.105939 0.000131895 0.000207266)
(0.105002 7.26504e-05 0.000204051)
(0.10564 7.94792e-05 0.000198078)
(0.105973 8.88079e-05 0.000173294)
(0.105005 5.12743e-05 0.000208111)
(0.105656 7.06964e-05 0.000177579)
(0.105996 5.46185e-05 0.000156854)
(0.105002 4.46707e-05 0.000237504)
(0.105674 7.21563e-05 0.000177243)
(0.106018 3.04208e-05 0.000156937)
(0.10572 8.84121e-05 0.000204052)
(0.106066 2.55741e-05 0.000178461)
(0.106244 7.46215e-05 0.000280781)
(0.106228 1.34812e-05 0.000310134)
(0.106974 7.98271e-05 0.000291686)
(0.106286 6.92251e-05 0.000214949)
(0.106279 2.08263e-05 0.000226932)
(0.10705 6.41316e-05 0.00021916)
(0.106318 7.22075e-05 0.000170742)
(0.106319 3.15985e-05 0.000165397)
(0.107105 5.60388e-05 0.00016652)
(0.106344 8.38444e-05 0.000145185)
(0.106351 4.69639e-05 0.000120191)
(0.107146 5.47829e-05 0.00012942)
(0.10637 0.000104351 0.000141467)
(0.106385 6.77864e-05 9.02651e-05)
(0.107184 6.05711e-05 0.000106597)
(0.106437 9.34352e-05 8.55124e-05)
(0.107239 7.54378e-05 0.000106312)
(0.106262 -4.15585e-05 0.000256286)
(0.105606 -0.000115989 0.000271866)
(0.106983 -6.62704e-05 0.000276735)
(0.106311 -1.84263e-05 0.00017738)
(0.10565 -8.22686e-05 0.000185237)
(0.107063 -4.28477e-05 0.000196365)
(0.106352 4.37599e-06 0.000114846)
(0.105688 -5.5337e-05 0.000114404)
(0.107123 -2.31726e-05 0.000132703)
(0.106389 2.88077e-05 6.52708e-05)
(0.105722 -3.13523e-05 5.2927e-05)
(0.107169 -4.88581e-06 8.10673e-05)
(0.106422 5.49591e-05 3.43104e-05)
(0.105758 -8.13889e-06 -3.0318e-07)
(0.107213 1.33365e-05 4.06956e-05)
(0.10581 1.44543e-05 -3.07797e-05)
(0.107268 2.96687e-05 2.36602e-05)
(0.104975 -0.000207531 0.000296654)
(0.103587 -0.000268388 0.000304189)
(0.105835 -0.000270708 0.000321837)
(0.105013 -0.000155922 0.000201776)
(0.103598 -0.000206712 0.000210096)
(0.105907 -0.000203068 0.000226667)
(0.105047 -0.000119217 0.00012325)
(0.103609 -0.000167125 0.000132771)
(0.105962 -0.000154727 0.000150911)
(0.105079 -9.21506e-05 5.36486e-05)
(0.103621 -0.000144317 6.33061e-05)
(0.106006 -0.00012085 8.81318e-05)
(0.105109 -7.08381e-05 -1.11444e-05)
(0.103633 -0.000132893 -7.19885e-06)
(0.106042 -9.69359e-05 3.27485e-05)
(0.105133 -5.37445e-05 -6.33798e-05)
(0.103647 -0.000129381 -8.11534e-05)
(0.106079 -8.1206e-05 -1.52436e-05)
(0.10369 -0.000137526 -0.000135686)
(0.106132 -7.5254e-05 -4.29699e-05)
(0.102299 -0.000266333 0.000220315)
(0.099999 -0.000267461 0.000227369)
(0.103578 -0.000337027 0.000246587)
(0.102284 -0.000217422 0.000143273)
(0.0999449 -0.000217513 0.000155704)
(0.103583 -0.000263202 0.00017203)
(0.102277 -0.000192554 7.48197e-05)
(0.0999 -0.000194521 9.67538e-05)
(0.103587 -0.00021757 0.000112834)
(0.102273 -0.000187135 4.77392e-06)
(0.0998571 -0.000196974 4.12529e-05)
(0.10359 -0.000196072 6.13342e-05)
(0.102266 -0.000196848 -7.38781e-05)
(0.0998041 -0.000221863 -2.22098e-05)
(0.10359 -0.000194291 1.06925e-05)
(0.10224 -0.000225349 -0.000148344)
(0.0997397 -0.000268747 -9.76753e-05)
(0.10359 -0.000210181 -3.93346e-05)
(0.0997576 -0.000384164 -0.000132624)
(0.103628 -0.000252588 -6.88264e-05)
(0.0978827 -0.000211783 0.000163869)
(0.0925563 -0.000168938 0.000203193)
(0.0997679 -0.000270508 0.000190585)
(0.0978023 -0.000184211 0.000108641)
(0.0924187 -0.00013956 0.000143329)
(0.0997021 -0.000215814 0.000138352)
(0.0977266 -0.000183309 6.07506e-05)
(0.0922954 -0.000132499 9.86657e-05)
(0.0996419 -0.000190184 0.000101502)
(0.0976456 -0.000208811 9.69742e-06)
(0.092164 -0.000153592 6.60401e-05)
(0.099578 -0.000192413 7.40003e-05)
(0.0975415 -0.000259548 -5.3234e-05)
(0.091988 -0.000210218 3.85312e-05)
(0.0994972 -0.000220956 4.95831e-05)
(0.0973712 -0.00036719 -9.52739e-05)
(0.0917331 -0.000304691 8.82301e-06)
(0.0994015 -0.000274597 2.93511e-05)
(0.0914806 -0.000766032 0.000241518)
(0.0994161 -0.000405067 6.70604e-05)
(0.0878897 -0.000130811 0.000188703)
(0.0907679 -0.000158525 0.000203653)
(0.0877185 -0.000111424 0.000136311)
(0.0906198 -0.000124539 0.000156001)
(0.0875504 -0.0001159 0.000102849)
(0.0904827 -0.000110517 0.000129249)
(0.0873482 -0.00015117 8.63184e-05)
(0.0903323 -0.000120986 0.000123974)
(0.0870457 -0.00022207 7.94697e-05)
(0.0901292 -0.000162883 0.00015141)
(0.0864963 -0.000603012 0.000291074)
(0.0898332 -0.000242314 0.000242552)
(0.0895165 -0.000764573 0.000781622)
(0.0938963 9.11026e-05 8.47881e-05)
(0.0976101 0.000140236 0.000114134)
(0.0947364 0.000120584 5.90224e-05)
(0.0938829 5.28866e-05 3.26008e-05)
(0.0975955 9.03868e-05 6.92657e-05)
(0.094709 8.09949e-05 1.49188e-05)
(0.0939039 1.48925e-05 -3.23854e-05)
(0.0976071 4.58428e-05 2.34362e-05)
(0.0947086 4.83738e-05 -3.61983e-05)
(0.0939598 -3.21561e-05 -0.000133633)
(0.0976449 -1.53283e-06 -3.70851e-05)
(0.0947354 1.71095e-05 -0.000103964)
(0.0940197 -8.5709e-05 -0.00029714)
(0.0977042 -5.9973e-05 -0.000132484)
(0.0947839 -1.88001e-05 -0.000201279)
(0.0977617 -0.000111779 -0.000276593)
(0.0948355 -3.17585e-05 -0.000325821)
(0.101814 0.000156772 0.000101919)
(0.103333 0.00021756 0.000148527)
(0.10258 0.000219426 7.1061e-05)
(0.101826 8.84852e-05 6.25002e-05)
(0.103351 0.00013891 0.000106778)
(0.102585 0.000145884 3.44307e-05)
(0.101855 2.20271e-05 2.08122e-05)
(0.103377 6.96321e-05 7.21962e-05)
(0.102603 8.53246e-05 -3.8826e-06)
(0.101899 -5.16252e-05 -3.30609e-05)
(0.103411 2.74133e-07 3.71142e-05)
(0.102634 2.76467e-05 -5.14873e-05)
(0.101946 -0.00012948 -0.000106626)
(0.103454 -7.40747e-05 -4.95152e-06)
(0.102678 -3.23828e-05 -0.000115032)
(0.10351 -0.000137858 -5.67927e-05)
(0.102741 -8.52757e-05 -0.000193642)
(0.105013 0.000201632 0.000155806)
(0.105907 0.000226515 0.000202931)
(0.105606 0.00027173 0.000115887)
(0.105047 0.000123166 0.000119212)
(0.105962 0.000150868 0.000154674)
(0.10565 0.000185152 8.22744e-05)
(0.105079 5.35847e-05 9.22164e-05)
(0.106006 8.81463e-05 0.000120856)
(0.105688 0.000114342 5.54097e-05)
(0.105109 -1.11907e-05 7.09805e-05)
(0.106042 3.28003e-05 9.69867e-05)
(0.105722 5.28714e-05 3.14708e-05)
(0.105133 -6.33777e-05 5.39955e-05)
(0.106079 -1.51456e-05 8.13153e-05)
(0.105758 -3.45129e-07 8.3108e-06)
(0.106131 -4.28034e-05 7.54296e-05)
(0.10581 -3.07823e-05 -1.42232e-05)
(0.10691 0.000176129 0.00020325)
(0.107313 0.000145489 0.000247215)
(0.107315 0.000231112 0.000155641)
(0.106977 0.000117927 0.000157588)
(0.107404 0.000101903 0.000187425)
(0.107406 0.000163544 0.00011671)
(0.107027 7.09437e-05 0.00012685)
(0.107471 6.83888e-05 0.00014339)
(0.107473 0.000109036 8.91862e-05)
(0.107064 3.36833e-05 0.000108668)
(0.107519 4.22461e-05 0.000111972)
(0.107522 6.45334e-05 6.98576e-05)
(0.107094 1.11127e-05 0.000104464)
(0.107563 2.37252e-05 9.26794e-05)
(0.107566 3.06446e-05 5.72299e-05)
(0.107619 1.97042e-05 9.09649e-05)
(0.107623 1.67922e-05 5.46558e-05)
(0.107821 6.9267e-05 0.000231775)
(0.107769 5.38988e-07 0.000259522)
(0.108121 7.66474e-05 0.000173692)
(0.107912 5.05389e-05 0.000173419)
(0.107876 1.01284e-06 0.000191461)
(0.108242 5.40935e-05 0.000128873)
(0.107979 3.78044e-05 0.000128485)
(0.107953 1.8726e-06 0.000137201)
(0.108328 3.95781e-05 9.56555e-05)
(0.108025 3.02318e-05 9.57305e-05)
(0.108008 3.38718e-06 9.44266e-05)
(0.108389 3.01537e-05 7.09864e-05)
(0.108061 2.98907e-05 7.87223e-05)
(0.108056 5.99095e-06 6.32986e-05)
(0.108442 2.26258e-05 5.13914e-05)
(0.108114 1.09372e-05 5.22921e-05)
(0.108504 3.26181e-05 5.37894e-05)
(0.107824 -6.83539e-05 0.000219208)
(0.107314 -0.000155693 0.000231195)
(0.108123 -7.7629e-05 0.000167498)
(0.107917 -4.84937e-05 0.000155243)
(0.107406 -0.000116732 0.000163566)
(0.108244 -5.51644e-05 0.000119891)
(0.107984 -3.35526e-05 0.000103143)
(0.107473 -8.91781e-05 0.000109001)
(0.10833 -4.04309e-05 8.3068e-05)
(0.108032 -2.18392e-05 6.19948e-05)
(0.107522 -6.98244e-05 6.44465e-05)
(0.108392 -3.00479e-05 5.41755e-05)
(0.108066 -1.39501e-05 3.68684e-05)
(0.107566 -5.71826e-05 3.05095e-05)
(0.108446 -2.00961e-05 3.03666e-05)
(0.107623 -5.46178e-05 1.66103e-05)
(0.108507 -2.52252e-05 2.96244e-05)
(0.106819 -0.000267952 0.000249969)
(0.105825 -0.000344852 0.000260419)
(0.107189 -0.000326631 0.000202514)
(0.106909 -0.000203324 0.000176201)
(0.105891 -0.000263098 0.000187552)
(0.107313 -0.000247274 0.000145582)
(0.106977 -0.000157634 0.000117912)
(0.105939 -0.000207379 0.000131973)
(0.107404 -0.000187474 0.000101929)
(0.107027 -0.000126865 7.08557e-05)
(0.105973 -0.000173381 8.87882e-05)
(0.107471 -0.000143426 6.83498e-05)
(0.107064 -0.000108657 3.35284e-05)
(0.105996 -0.000156911 5.45093e-05)
(0.107519 -0.000111999 4.21458e-05)
(0.107094 -0.00010444 1.08941e-05)
(0.106018 -0.000156958 3.02037e-05)
(0.107563 -9.27071e-05 2.35694e-05)
(0.106066 -0.00017844 2.52399e-05)
(0.10762 -9.10098e-05 1.95012e-05)
(0.104951 -0.000336495 0.000199353)
(0.103284 -0.000347208 0.000208693)
(0.105535 -0.000402836 0.000166273)
(0.104976 -0.000265299 0.000144243)
(0.103276 -0.000270145 0.000156125)
(0.105583 -0.000306371 0.000125124)
(0.104993 -0.000222481 0.000103359)
(0.103263 -0.000224899 0.000121901)
(0.105617 -0.000239644 9.71961e-05)
(0.105002 -0.000204185 7.26089e-05)
(0.103243 -0.000208133 0.00010189)
(0.10564 -0.000198188 7.94942e-05)
(0.105005 -0.00020821 5.11043e-05)
(0.103211 -0.000217042 9.4606e-05)
(0.105656 -0.000177682 7.0614e-05)
(0.105003 -0.000237538 4.4342e-05)
(0.103176 -0.000253079 0.000104036)
(0.105674 -0.00017733 7.19573e-05)
(0.103211 -0.000339432 0.000148258)
(0.10572 -0.000204117 8.81051e-05)
(0.101753 -0.000277569 0.000166267)
(0.0975899 -0.000221055 0.000186662)
(0.102549 -0.000335295 0.000141334)
(0.10171 -0.000223679 0.000133352)
(0.0975106 -0.000173545 0.000150115)
(0.102522 -0.000253971 0.000117732)
(0.101664 -0.000200233 0.000118439)
(0.0974334 -0.000149245 0.000134739)
(0.102495 -0.00020369 0.000111474)
(0.101609 -0.000204596 0.000119855)
(0.0973466 -0.000149189 0.000138637)
(0.102464 -0.000180627 0.000121803)
(0.101539 -0.000234945 0.000140514)
(0.0972332 -0.000175305 0.000172349)
(0.102426 -0.000180115 0.000151111)
(0.101442 -0.00030848 0.000196081)
(0.0970876 -0.000222486 0.000256817)
(0.102387 -0.000200252 0.000205335)
(0.0970239 -0.000426056 0.000531209)
(0.10243 -0.000264918 0.000293383)
(0.0938536 -0.000154866 0.000175029)
(0.0947422 -0.000182363 0.000144449)
(0.0937459 -0.000125335 0.000153583)
(0.0946557 -0.000138618 0.000131489)
(0.0936338 -0.000115907 0.000154702)
(0.0945766 -0.000113248 0.000138944)
(0.0934992 -0.000129616 0.000187626)
(0.0944949 -0.000105136 0.000171226)
(0.0933185 -0.000168717 0.000279999)
(0.0943964 -0.000116432 0.000245446)
(0.0930697 -0.000344841 0.00056926)
(0.0942697 -0.000145953 0.00039178)
(0.0942023 -0.000350775 0.00075776)
(0.0955929 0.000110986 -1.37959e-05)
(0.0992687 0.000174514 1.09759e-05)
(0.0955841 0.000135749 -4.5521e-05)
(0.0955785 7.69923e-05 -5.75799e-05)
(0.0992593 0.000124166 -2.37094e-05)
(0.095547 0.000100275 -7.45128e-05)
(0.095583 5.07209e-05 -0.000117349)
(0.0992639 8.68443e-05 -6.76403e-05)
(0.0955234 7.62125e-05 -0.000120068)
(0.0956079 2.88879e-05 -0.000201311)
(0.0992828 5.68236e-05 -0.000127696)
(0.0955116 6.10589e-05 -0.00019111)
(0.0956566 2.87055e-05 -0.000312625)
(0.0993158 3.02993e-05 -0.000210316)
(0.0955075 5.231e-05 -0.000299268)
(0.0993727 3.04811e-05 -0.0003106)
(0.0955393 0.000112204 -0.000471494)
(0.103381 0.00020974 2.93644e-06)
(0.104748 0.000273985 3.54897e-05)
(0.103362 0.000256354 -3.47154e-05)
(0.103393 0.000144024 -3.19532e-05)
(0.104778 0.000192412 7.46994e-06)
(0.10336 0.000187123 -5.52941e-05)
(0.103413 9.25929e-05 -7.57481e-05)
(0.104807 0.000129817 -2.29472e-05)
(0.103363 0.000139894 -8.66885e-05)
(0.103443 4.91315e-05 -0.000133364)
(0.104837 7.86037e-05 -5.99503e-05)
(0.103369 0.000106668 -0.000133777)
(0.10348 1.48653e-05 -0.000202893)
(0.104875 3.66661e-05 -0.000106339)
(0.103386 8.41705e-05 -0.000200589)
(0.104934 1.31237e-05 -0.000157411)
(0.103448 8.13913e-05 -0.000279117)
(0.106262 0.000256207 4.15219e-05)
(0.106983 0.000276659 6.62171e-05)
(0.106228 0.000310093 -1.35479e-05)
(0.106311 0.000177314 1.84658e-05)
(0.107063 0.000196314 4.28527e-05)
(0.106279 0.000226897 -2.0832e-05)
(0.106352 0.00011479 -4.28085e-06)
(0.107123 0.000132682 2.32261e-05)
(0.106319 0.000165372 -3.1544e-05)
(0.106389 6.52186e-05 -2.86743e-05)
(0.107169 8.10698e-05 4.97332e-06)
(0.106351 0.000120174 -4.68617e-05)
(0.106422 3.42625e-05 -5.48132e-05)
(0.107213 4.0716e-05 -1.32292e-05)
(0.106385 9.02549e-05 -6.76517e-05)
(0.107268 2.37004e-05 -2.95746e-05)
(0.106437 8.55211e-05 -9.33133e-05)
(0.107824 0.000219174 6.83432e-05)
(0.108123 0.000167464 7.76171e-05)
(0.107769 0.000259502 -5.5193e-07)
(0.107917 0.000155241 4.85122e-05)
(0.108244 0.000119875 5.51669e-05)
(0.107876 0.00019146 -1.00229e-06)
(0.107984 0.000103176 3.3597e-05)
(0.10833 8.30785e-05 4.04489e-05)
(0.107953 0.000137225 -1.83425e-06)
(0.108032 6.20605e-05 2.18982e-05)
(0.108392 5.42171e-05 3.00788e-05)
(0.108008 9.44753e-05 -3.32513e-06)
(0.108066 3.69649e-05 1.40027e-05)
(0.108446 3.04425e-05 2.01304e-05)
(0.108056 6.33712e-05 -5.9184e-06)
(0.108507 2.9729e-05 2.52333e-05)
(0.108114 5.23934e-05 -1.08797e-05)
(0.108551 6.13205e-05 6.43331e-05)
(0.108484 -1.17801e-06 7.40996e-05)
(0.108484 7.40904e-05 1.18803e-06)
(0.108667 4.30063e-05 4.70469e-05)
(0.108619 -1.62429e-06 5.15702e-05)
(0.108619 5.15696e-05 1.63484e-06)
(0.108751 3.18496e-05 3.69592e-05)
(0.108716 -2.14177e-06 3.84834e-05)
(0.108716 3.84969e-05 2.15486e-06)
(0.10881 2.24769e-05 2.84005e-05)
(0.108784 -2.63624e-06 3.03014e-05)
(0.108784 3.03325e-05 2.65579e-06)
(0.108848 2.53608e-05 3.1618e-05)
(0.108843 -2.95761e-06 2.05199e-05)
(0.108843 2.05692e-05 2.97937e-06)
(0.108908 -2.97927e-06 3.63727e-05)
(0.108908 3.64475e-05 2.98106e-06)
(0.108551 -6.43315e-05 6.13368e-05)
(0.108121 -0.000173707 7.66906e-05)
(0.108484 -7.40823e-05 -1.15768e-06)
(0.108667 -4.70451e-05 4.30067e-05)
(0.108242 -0.000128889 5.41076e-05)
(0.108619 -5.15566e-05 -1.60849e-06)
(0.108751 -3.69551e-05 3.18256e-05)
(0.108328 -9.56741e-05 3.95576e-05)
(0.108716 -3.8474e-05 -2.13711e-06)
(0.10881 -2.83951e-05 2.24207e-05)
(0.108389 -7.10089e-05 3.00935e-05)
(0.108784 -3.03009e-05 -2.65184e-06)
(0.108848 -3.16291e-05 2.52746e-05)
(0.108442 -5.14236e-05 2.25256e-05)
(0.108843 -2.05369e-05 -2.993e-06)
(0.108504 -5.38562e-05 3.24894e-05)
(0.108908 -3.6424e-05 -3.02293e-06)
(0.107695 -0.000306486 9.56394e-05)
(0.106868 -0.000388915 0.000104473)
(0.107623 -0.00034494 3.45436e-07)
(0.107821 -0.000231808 6.93078e-05)
(0.106973 -0.000291725 7.9931e-05)
(0.107769 -0.000259523 5.88624e-07)
(0.107912 -0.000173459 5.05323e-05)