/*--------------------------------*- C++ -*----------------------------------*\
| =========                 |                                                 |
| \\      /  F ield         | OpenFOAM: The Open Source CFD Toolbox           |
|  \\    /   O peration     | Version:  2212                                  |
|   \\  /    A nd           | Website:  www.openfoam.com                      |
|    \\/     M anipulation  |                                                 |
\*---------------------------------------------------------------------------*/
FoamFile
{
    version     2.0;
    format      ascii;
    arch        "LSB;label=32;scalar=64";
    class       volScalarField;
    location    "0.95";
    object      nut;
}
// * * * * * * * * * * * * * * * * * * * * * * * * * * * * * * * * * * * * * //

dimensions      [0 2 -1 0 0 0 0];

internalField   nonuniform List<scalar> 
690
(
2.26481e-05
2.1874e-05
2.11358e-05
0.00010532
9.8879e-05
9.33909e-05
0.000170474
0.00016162
0.000153964
2.43545e-05
2.30275e-05
2.20787e-05
2.13173e-05
2.06663e-05
2.00897e-05
1.95721e-05
1.91049e-05
1.86771e-05
1.82796e-05
1.79105e-05
1.75663e-05
0.000108722
0.000103393
9.82913e-05
9.35197e-05
8.90962e-05
8.49104e-05
8.13087e-05
7.88481e-05
7.56914e-05
7.17836e-05
6.82826e-05
6.50362e-05
0.000176739
0.000168484
0.000160862
0.000153836
0.000147345
0.00014133
0.000135786
0.000130741
0.000125989
0.000121406
0.000117022
0.0001129
2.32486e-05
2.19778e-05
2.11031e-05
2.03913e-05
1.97836e-05
1.92511e-05
1.87791e-05
1.83542e-05
1.79629e-05
1.76005e-05
1.72635e-05
1.69506e-05
0.00010477
9.90483e-05
9.38619e-05
8.90967e-05
8.47311e-05
8.06425e-05
7.77526e-05
7.48567e-05
7.08676e-05
6.72198e-05
6.38792e-05
6.07633e-05
0.000169709
0.000161845
0.000154511
0.000147726
0.000141463
0.000135654
0.000130332
0.000125398
0.000120643
0.000116102
0.000111797
0.000107752
0.00021137
0.000201849
0.000193197
0.000185247
0.000177905
0.000171101
0.00016477
0.00015887
0.00015336
0.000148178
0.000143274
0.000138649
0.000232972
0.000223681
0.000214798
0.000206424
0.000198571
0.000191222
0.000184346
0.000177908
0.000171872
0.000166204
0.00016087
0.000155847
0.000242147
0.000231726
0.000222265
0.000213538
0.000205425
0.000197855
0.000190777
0.000184148
0.000177931
0.000172094
0.000166604
0.000161432
0.000232973
0.000223678
0.000214794
0.000206419
0.000198566
0.000191217
0.000184341
0.000177903
0.000171868
0.0001662
0.000160868
0.000155842
0.000209683
0.000200961
0.000192699
0.000184959
0.000177742
0.000171024
0.00016477
0.000158933
0.000153463
0.000148319
0.000143471
0.00013886
0.000170477
0.000161622
0.000153962
0.000147152
0.000141001
0.000135395
0.000130287
0.000125574
0.000121092
0.000116814
0.000112754
0.000105203
9.87913e-05
9.33316e-05
8.8602e-05
8.4444e-05
8.07482e-05
7.80734e-05
7.5624e-05
7.21225e-05
6.86776e-05
6.54964e-05
2.26481e-05
2.18742e-05
2.11365e-05
2.04551e-05
1.98311e-05
1.9263e-05
1.87481e-05
1.82817e-05
1.78542e-05
1.74608e-05
1.70983e-05
2.01481e-05
1.91378e-05
1.84274e-05
1.78398e-05
1.73373e-05
1.68995e-05
1.65074e-05
1.61526e-05
1.58286e-05
1.55307e-05
1.52555e-05
1.50005e-05
8.91722e-05
8.39472e-05
7.93724e-05
7.54162e-05
7.23959e-05
6.96134e-05
6.57991e-05
6.22434e-05
5.89719e-05
5.59519e-05
5.31594e-05
5.05481e-05
0.000147364
0.000140466
0.000134098
0.000128319
0.000123079
0.000118249
0.000113592
0.000109172
0.00010497
0.000100965
9.71211e-05
9.34995e-05
0.000187838
0.000179133
0.00017132
0.000164226
0.000157725
0.000151737
0.000146183
0.000140957
0.000136027
0.000131359
0.000126924
0.000122744
0.00020967
0.000200955
0.000192699
0.000184964
0.000177751
0.000171037
0.000164787
0.000158955
0.000153493
0.000148359
0.000143518
0.000138963
0.00021814
0.000208793
0.000200089
0.000191991
0.000184458
0.000177443
0.000170909
0.00016482
0.000159133
0.000153797
0.000148775
0.000144048
0.000211353
0.000201829
0.000193178
0.000185232
0.000177894
0.000171094
0.000164768
0.000158875
0.000153373
0.000148202
0.000143312
0.000138703
0.000187839
0.00017913
0.00017131
0.000164209
0.000157703
0.000151714
0.000146159
0.000140933
0.000136001
0.000131331
0.000126902
0.000122686
0.000141799
0.000136968
0.000131766
0.000126765
0.000122063
0.000117674
0.000113478
0.000109391
0.000105423
0.000101571
9.79004e-05
8.37452e-05
7.96373e-05
7.61261e-05
7.31584e-05
7.06352e-05
6.8876e-05
6.63278e-05
6.3171e-05
6.02774e-05
5.75696e-05
5.49598e-05
2.0362e-05
1.94772e-05
1.87073e-05
1.80262e-05
1.74119e-05
1.68778e-05
1.64017e-05
1.59854e-05
1.56129e-05
1.52762e-05
1.49696e-05
1.53769e-05
1.48978e-05
1.44241e-05
1.40123e-05
1.36355e-05
1.3296e-05
1.30034e-05
1.275e-05
1.25225e-05
1.23159e-05
1.2126e-05
1.1956e-05
5.55684e-05
5.46266e-05
5.30358e-05
5.23082e-05
5.00282e-05
4.75273e-05
4.51742e-05
4.29343e-05
4.07179e-05
3.86639e-05
3.66234e-05
3.5071e-05
0.00011068
0.00010386
9.87597e-05
9.49555e-05
9.15912e-05
8.82744e-05
8.49991e-05
8.17309e-05
7.84904e-05
7.53142e-05
7.21821e-05
6.92492e-05
0.000141801
0.000136992
0.0001318
0.000126803
0.0001221
0.000117708
0.000113511
0.000109424
0.000105458
0.000101615
9.79092e-05
9.44189e-05
0.000170489
0.000161628
0.000153962
0.000147151
0.000141001
0.000135399
0.000130296
0.00012559
0.00012112
0.000116858
0.000112787
0.00010893
0.000176724
0.000168469
0.000160847
0.000153816
0.000147327
0.00014132
0.000135788
0.000130758
0.000126027
0.000121465
0.000117108
0.000113011
0.00016971
0.000161845
0.00015451
0.000147721
0.000141455
0.000135646
0.000130327
0.000125401
0.000120652
0.000116118
0.000111824
0.000107789
0.000147368
0.000140446
0.00013407
0.000128289
0.000123049
0.000118223
0.000113569
0.000109149
0.000104948
0.000100944
9.71079e-05
9.34611e-05
0.000110681
0.000103825
9.87112e-05
9.49036e-05
9.1545e-05
8.82331e-05
8.49618e-05
8.1697e-05
7.846e-05
7.52742e-05
7.22053e-05
4.82499e-05
4.95039e-05
4.90032e-05
4.90645e-05
4.83209e-05
4.65095e-05
4.46571e-05
4.2811e-05
4.09194e-05
3.90066e-05
3.70462e-05
1.66383e-05
1.5639e-05
1.48194e-05
1.41604e-05
1.35805e-05
1.31553e-05
1.28183e-05
1.25273e-05
1.22692e-05
1.20377e-05
1.18264e-05
1.07631e-05
1.01705e-05
9.65827e-06
9.29356e-06
9.03163e-06
8.84379e-06
8.68736e-06
8.54501e-06
8.4191e-06
8.30528e-06
8.1994e-06
8.10284e-06
2.49447e-05
2.302e-05
2.18345e-05
2.19039e-05
2.18945e-05
2.14631e-05
2.06289e-05
1.95867e-05
1.86521e-05
1.77342e-05
1.67727e-05
1.59271e-05
4.82507e-05
4.95234e-05
4.90338e-05
4.91025e-05
4.83472e-05
4.65364e-05
4.46827e-05
4.28348e-05
4.09434e-05
3.90312e-05
3.70765e-05
3.52437e-05
8.37464e-05
7.96406e-05
7.61324e-05
7.31708e-05
7.06501e-05
6.88879e-05
6.6342e-05
6.31877e-05
6.02991e-05
5.75988e-05
5.50452e-05
5.2571e-05
0.000105207
9.87511e-05
9.32885e-05
8.85682e-05
8.44185e-05
8.07312e-05
7.80656e-05
7.56209e-05
7.21395e-05
6.87131e-05
6.56134e-05
6.26879e-05
0.000108708
0.000103367
9.82601e-05
9.34817e-05
8.90611e-05
8.48833e-05
8.12965e-05
7.88492e-05
7.57102e-05
7.18231e-05
6.83441e-05
6.51235e-05
0.000104771
9.90472e-05
9.38597e-05
8.90923e-05
8.4725e-05
8.06358e-05
7.77498e-05
7.48597e-05
7.08762e-05
6.7236e-05
6.39038e-05
6.07891e-05
8.91712e-05
8.39454e-05
7.93712e-05
7.54156e-05
7.23945e-05
6.96132e-05
6.58011e-05
6.22465e-05
5.89766e-05
5.59575e-05
5.31683e-05
5.05351e-05
5.55671e-05
5.4627e-05
5.3033e-05
5.2308e-05
5.00295e-05
4.7527e-05
4.51731e-05
4.29344e-05
4.07218e-05
3.86458e-05
3.66877e-05
2.49443e-05
2.30194e-05
2.18373e-05
2.18979e-05
2.18897e-05
2.14586e-05
2.06246e-05
1.95831e-05
1.86497e-05
1.77273e-05
1.67846e-05
1.13632e-05
1.06694e-05
9.99409e-06
9.47647e-06
9.08765e-06
8.82655e-06
8.63018e-06
8.46104e-06
8.31839e-06
8.19241e-06
8.07606e-06
5.6202e-06
5.20311e-06
4.80459e-06
4.56027e-06
4.40635e-06
4.31118e-06
4.23944e-06
4.17729e-06
4.12453e-06
4.07846e-06
4.03739e-06
3.99877e-06
1.13632e-05
1.06695e-05
9.99403e-06
9.47652e-06
9.08783e-06
8.82681e-06
8.63048e-06
8.46136e-06
8.31869e-06
8.19253e-06
8.07644e-06
7.9779e-06
1.66383e-05
1.56393e-05
1.48197e-05
1.41606e-05
1.35808e-05
1.31558e-05
1.28188e-05
1.25278e-05
1.22697e-05
1.20382e-05
1.18271e-05
1.1638e-05
2.0362e-05
1.94776e-05
1.87079e-05
1.80267e-05
1.74123e-05
1.68782e-05
1.64021e-05
1.59859e-05
1.56135e-05
1.52768e-05
1.49706e-05
1.46906e-05
2.26483e-05
2.18745e-05
2.11369e-05
2.04554e-05
1.98313e-05
1.92631e-05
1.87482e-05
1.82818e-05
1.78543e-05
1.74611e-05
1.70991e-05
1.6766e-05
2.43547e-05
2.30277e-05
2.20785e-05
2.13174e-05
2.06659e-05
2.00888e-05
1.95709e-05
1.91038e-05
1.86761e-05
1.82787e-05
1.79099e-05
1.7566e-05
2.32487e-05
2.19779e-05
2.11031e-05
2.03911e-05
1.97833e-05
1.92506e-05
1.87785e-05
1.83537e-05
1.79625e-05
1.76001e-05
1.72634e-05
1.69507e-05
2.01482e-05
1.91379e-05
1.84277e-05
1.78401e-05
1.73376e-05
1.68997e-05
1.65075e-05
1.61526e-05
1.58286e-05
1.55307e-05
1.52556e-05
1.50006e-05
1.53768e-05
1.48981e-05
1.44243e-05
1.40126e-05
1.36357e-05
1.32961e-05
1.30035e-05
1.275e-05
1.25225e-05
1.23156e-05
1.2127e-05
1.07631e-05
1.01705e-05
9.65841e-06
9.29356e-06
9.03153e-06
8.84367e-06
8.68722e-06
8.54485e-06
8.41888e-06
8.30534e-06
8.1995e-06
5.62019e-06
5.20312e-06
4.80461e-06
4.56024e-06
4.40629e-06
4.31109e-06
4.23934e-06
4.17718e-06
4.1244e-06
4.07838e-06
4.03719e-06
)
;

boundaryField
{
    inlet
    {
        type            calculated;
        value           nonuniform List<scalar> 0();
    }
    ami1
    {
        type            cyclicAMI;
        value           nonuniform List<scalar> 0();
    }
    walls
    {
        type            nutkWallFunction;
        blending        stepwise;
        value           uniform 0;
    }
    ami2
    {
        type            cyclicAMI;
        value           nonuniform List<scalar> 
61
(
2.51007e-05
0.000109332
0.00017591
3.1709e-05
0.000114051
0.000181318
2.95845e-05
0.000111426
0.000174046
0.000216808
0.000237607
0.000248136
0.000237608
0.000214361
0.000175909
0.000109274
2.51009e-05
2.40388e-05
9.51013e-05
0.000151466
0.000192848
0.000214355
0.000222938
0.0002168
0.000192849
0.000143981
9.16664e-05
2.20814e-05
1.68361e-05
6.26839e-05
0.000116285
0.000143982
0.000175916
0.000181311
0.000174047
0.000151468
0.000116285
5.24766e-05
2.1686e-05
1.67516e-05
2.56741e-05
5.2477e-05
9.16671e-05
0.000109276
0.000114043
0.000111426
9.51007e-05
6.26833e-05
2.56739e-05
1.94242e-05
1.5793e-05
1.94242e-05
2.1686e-05
2.20814e-05
2.5101e-05
3.17088e-05
2.95845e-05
2.40388e-05
1.6836e-05
1.67515e-05
1.5793e-05
)
;
    }
    outlet
    {
        type            calculated;
        value           nonuniform List<scalar> 0();
    }
    procBoundary1to0
    {
        type            processor;
        value           nonuniform List<scalar> 
138
(
2.04521e-05
2.04521e-05
1.9831e-05
1.92643e-05
1.87499e-05
1.82833e-05
1.78556e-05
1.7462e-05
1.70997e-05
1.67662e-05
8.86954e-05
8.86954e-05
8.45099e-05
8.07927e-05
7.81012e-05
7.56364e-05
7.21381e-05
6.86967e-05
6.55822e-05
6.26414e-05
0.000209693
0.000200976
0.000147217
0.000192717
0.000147217
0.000141043
0.000135423
0.000130307
0.000125588
0.000121105
0.000116834
0.000112751
0.000108889
0.00021813
0.000208787
0.000200085
0.000191988
0.000184453
0.000177436
0.000170896
0.000164799
0.0001591
0.000153748
0.000148705
0.000143955
0.00021813
0.000208787
0.000200085
0.000191988
0.000184453
0.000177436
0.000170896
0.000164799
0.0001591
0.000153748
0.000148705
0.000143955
0.000242149
0.000231723
0.000222262
0.000213536
0.000205424
0.000197855
0.000190777
0.000184149
0.000177933
0.000172095
0.000166604
0.000161433
0.000248539
0.000238745
0.00022938
0.00022056
0.000212292
0.00020455
0.000197296
0.000190494
0.000184109
0.00017811
0.000172467
0.000167149
0.000242147
0.000231726
0.000222265
0.000213537
0.000205424
0.000197853
0.000190774
0.000184145
0.000177929
0.000172091
0.000166601
0.000161426
0.000218121
0.000208777
0.000200075
0.00019198
0.000184447
0.000177433
0.000170896
0.000164803
0.000159109
0.000153764
0.000148733
0.000143945
0.000176741
0.000168492
0.000160869
0.000153835
0.000147342
0.00014133
0.00013579
0.000130751
0.000126009
0.000121429
0.000117076
0.000108713
0.000103388
9.82894e-05
9.35125e-05
8.90884e-05
8.49053e-05
8.13041e-05
7.88532e-05
7.56958e-05
7.17869e-05
6.82259e-05
2.43539e-05
2.3027e-05
2.20783e-05
2.13176e-05
2.06662e-05
2.00892e-05
1.95712e-05
1.91039e-05
1.86761e-05
1.82787e-05
1.79093e-05
)
;
    }
    procBoundary1to2
    {
        type            processor;
        value           nonuniform List<scalar> 9(2.03614e-05 1.94769e-05 1.87064e-05 8.37609e-05 7.96602e-05 7.61268e-05 0.000141821 0.000136967 0.000131772);
    }
    procBoundary1to8
    {
        type            processor;
        value           nonuniform List<scalar> 
33
(
1.72458e-05
6.20383e-05
0.000108783
1.66595e-05
5.7831e-05
0.00010368
0.000134086
0.000150947
0.000156378
1.47629e-05
4.80216e-05
8.98227e-05
0.000118561
0.000134459
0.000139368
1.17953e-05
3.27159e-05
6.61138e-05
9.08567e-05
0.000105017
0.000108883
8.00768e-06
1.49761e-05
3.31762e-05
5.01358e-05
5.98893e-05
6.21013e-05
3.96037e-06
7.86777e-06
1.14592e-05
1.44326e-05
1.64588e-05
1.72459e-05
)
;
    }
    procBoundary1to9
    {
        type            processor;
        value           nonuniform List<scalar> 
30
(
0.000150911
0.000134339
0.000108692
0.000108692
6.25264e-05
1.67648e-05
0.000134117
0.000118492
9.42049e-05
9.42049e-05
5.24316e-05
1.46891e-05
0.000103714
8.97835e-05
6.90622e-05
6.90622e-05
3.5082e-05
1.1636e-05
5.78498e-05
4.80379e-05
3.48602e-05
3.48602e-05
1.58828e-05
7.97642e-06
1.66597e-05
1.47635e-05
1.1955e-05
1.1955e-05
8.10181e-06
3.99841e-06
)
;
    }
}


// ************************************************************************* //
