/*--------------------------------*- C++ -*----------------------------------*\
| =========                 |                                                 |
| \\      /  F ield         | OpenFOAM: The Open Source CFD Toolbox           |
|  \\    /   O peration     | Version:  2212                                  |
|   \\  /    A nd           | Website:  www.openfoam.com                      |
|    \\/     M anipulation  |                                                 |
\*---------------------------------------------------------------------------*/
FoamFile
{
    version     2.0;
    format      ascii;
    arch        "LSB;label=32;scalar=64";
    class       volScalarField;
    location    "3";
    object      k;
}
// * * * * * * * * * * * * * * * * * * * * * * * * * * * * * * * * * * * * * //

dimensions      [0 2 -2 0 0 0 0];

internalField   nonuniform List<scalar> 
690
(
0.00236464
0.00232187
0.00228208
0.00224284
0.00220665
0.00217118
0.00213795
0.00210618
0.00207482
0.00204412
0.00201521
0.00210365
0.00205821
0.00201421
0.00197154
0.00193243
0.00189561
0.00186122
0.00182904
0.00179795
0.00176791
0.00173974
0.00214756
0.00209673
0.00204276
0.00199263
0.00194767
0.00190599
0.00186724
0.00183019
0.00179491
0.00175945
0.00172616
0.00219487
0.00212854
0.00206751
0.00201108
0.00195873
0.00191109
0.0018651
0.00181902
0.00177691
0.00173889
0.00170237
0.00222923
0.00215381
0.00208458
0.00202143
0.00196341
0.00190953
0.00185939
0.00181291
0.00176991
0.00173006
0.00168916
0.00203745
0.00198382
0.00193711
0.00189199
0.00185113
0.00181225
0.00177621
0.0017424
0.00171036
0.00168009
0.00165183
0.00194347
0.00183607
0.00174959
0.00166394
0.00159193
0.00152209
0.00145966
0.00140257
0.00134388
0.00128803
0.00124233
0.0024302
0.00229903
0.00218692
0.00207779
0.00198409
0.00189333
0.00181349
0.00173756
0.0016646
0.00159985
0.0015383
0.00273973
0.00258962
0.00245359
0.00232939
0.00221596
0.00211248
0.00201666
0.00193039
0.00184763
0.00177489
0.00170336
0.00291855
0.00275528
0.00260716
0.00247237
0.00234945
0.00223707
0.00213405
0.0020392
0.00195306
0.00186793
0.0017879
0.00202739
0.00196958
0.00191928
0.0018653
0.00181805
0.0017744
0.00173552
0.00169831
0.0016637
0.00163096
0.00160041
0.0023843
0.00225124
0.00213619
0.00202193
0.00192582
0.00182953
0.00174687
0.0016655
0.0015913
0.00152198
0.00145912
0.00304682
0.00287177
0.00271194
0.00256481
0.00243039
0.00230648
0.00219201
0.00208582
0.00198688
0.00189555
0.0018114
0.00352577
0.00331955
0.00313129
0.00295884
0.0028006
0.00265516
0.00252117
0.00239763
0.00228309
0.00217687
0.00207822
0.0038083
0.00358361
0.00337874
0.00319147
0.00301987
0.00286229
0.00271727
0.00258351
0.00246006
0.00234489
0.00223768
0.00209277
0.00202314
0.00195983
0.00190186
0.00184936
0.00180112
0.00175686
0.00171599
0.00167881
0.00164314
0.0016079
0.00273552
0.0025884
0.00245428
0.00233058
0.00221721
0.00211235
0.00201569
0.00192595
0.0018426
0.001765
0.00169298
0.00352115
0.00331903
0.00313426
0.00296469
0.00280891
0.00266542
0.0025331
0.00241069
0.00229713
0.00219139
0.00209375
0.00411877
0.00387622
0.00365477
0.00345203
0.00326596
0.00309479
0.002937
0.00279127
0.00265637
0.00253113
0.00241492
0.00448536
0.00421832
0.00397475
0.00375199
0.00354774
0.00336003
0.00318712
0.00302749
0.00287985
0.00274289
0.00261573
0.00217133
0.00209331
0.00202243
0.00195783
0.00189891
0.00184511
0.0017961
0.0017513
0.00171021
0.00167212
0.00163574
0.00292813
0.00276826
0.00262287
0.00249001
0.00236828
0.00225641
0.00215345
0.00205842
0.00197059
0.00188889
0.00181366
0.00381076
0.00358946
0.0033876
0.00320293
0.00303356
0.00287782
0.0027343
0.00260175
0.00247908
0.00236517
0.00225966
0.00448688
0.00422075
0.00397801
0.003756
0.00355243
0.00336531
0.00319292
0.00303374
0.00288646
0.00274983
0.00262302
0.0049093
0.0046156
0.00434772
0.00410275
0.00387817
0.00367178
0.00348168
0.0033062
0.00314387
0.00299336
0.00285367
0.00505343
0.00475058
0.00447433
0.00422171
0.00399011
0.00377729
0.00358127
0.00340033
0.00323296
0.00307779
0.00293379
0.00222463
0.00214417
0.00207059
0.00200323
0.00194152
0.00188553
0.00183419
0.0017869
0.0017433
0.00170328
0.0016653
0.00298451
0.00281791
0.00266665
0.00252893
0.00240322
0.00228817
0.00218264
0.00208552
0.0019962
0.00191312
0.00183716
0.00390509
0.00367535
0.00346597
0.00327467
0.00309944
0.00293857
0.00279053
0.00265399
0.00252784
0.00241082
0.00230239
0.00460994
0.00433503
0.00408438
0.00385523
0.0036452
0.00345223
0.00327452
0.00311052
0.00295884
0.00281822
0.00268773
0.00505346
0.00475052
0.00447421
0.00422156
0.00398995
0.00377713
0.00358113
0.00340021
0.00323288
0.00307776
0.00293381
0.00520586
0.00489341
0.00460839
0.00434773
0.00410878
0.0038892
0.00368696
0.00350029
0.00332763
0.00316758
0.00301905
0.00222928
0.00215385
0.0020846
0.00202145
0.00196341
0.00190952
0.0018594
0.00181293
0.00176996
0.00173003
0.00168913
0.00291842
0.00275505
0.00260685
0.00247201
0.00234909
0.00223673
0.00213377
0.00203898
0.00195291
0.00186788
0.00178798
0.00380827
0.00358346
0.00337848
0.00319111
0.00301945
0.00286183
0.0027168
0.00258307
0.00245967
0.0023446
0.00223747
0.00448543
0.00421826
0.00397458
0.00375174
0.00354743
0.00335968
0.00318675
0.00302712
0.00287951
0.0027426
0.0026155
0.00490942
0.00461562
0.00434767
0.00410264
0.00387802
0.0036716
0.00348148
0.00330598
0.00314365
0.00299316
0.00285348
0.00505351
0.00475054
0.00447422
0.00422155
0.00398994
0.0037771
0.00358109
0.00340016
0.00323281
0.00307767
0.0029337
0.00219498
0.00212854
0.00206743
0.00201094
0.00195851
0.00191097
0.00186473
0.00181858
0.0017765
0.00173853
0.00170176
0.00166756
0.00273974
0.00258928
0.00245305
0.00232846
0.00221498
0.00211108
0.00201549
0.00192887
0.00184607
0.00177359
0.00170096
0.0016386
0.00352594
0.00331951
0.003131
0.00295829
0.00279982
0.00265413
0.00252
0.00239633
0.00228172
0.00217553
0.00207676
0.00411898
0.00387631
0.00365473
0.00345184
0.00326562
0.00309431
0.0029364
0.00279056
0.0026556
0.00253034
0.0024141
0.00448693
0.00422076
0.00397797
0.0037559
0.00355227
0.00336509
0.00319264
0.00303341
0.00288608
0.00274942
0.00262259
0.00460978
0.00433492
0.00408429
0.00385515
0.00364512
0.00345214
0.00327441
0.00311037
0.00295867
0.00281801
0.00268749
0.00214812
0.00209671
0.00204242
0.00199212
0.00194706
0.00190531
0.00186653
0.00182923
0.00179401
0.00175843
0.0017248
0.00169478
0.0024312
0.00229917
0.00218629
0.00207607
0.00198185
0.00189014
0.00181046
0.00173316
0.0016617
0.00159624
0.0015307
0.00147539
0.00304857
0.00287296
0.00271254
0.00256457
0.00242955
0.00230488
0.00219009
0.00208337
0.00198432
0.0018929
0.00180806
0.00352241
0.00332006
0.00313501
0.00296512
0.002809
0.00266518
0.00253257
0.00240992
0.00229615
0.00219028
0.00209246
0.00381119
0.00358983
0.00338788
0.00320312
0.00303363
0.00287777
0.00273414
0.00260148
0.00247871
0.00236473
0.00225915
0.00390503
0.00367529
0.00346592
0.0032746
0.00309936
0.00293846
0.00279039
0.0026538
0.00252761
0.00241055
0.00230207
0.00210538
0.00205903
0.00201421
0.00197099
0.00193151
0.00189435
0.00185981
0.00182739
0.00179626
0.00176629
0.00173784
0.00171161
0.00194894
0.00183983
0.00175035
0.00166311
0.00158927
0.00151814
0.00145482
0.00139692
0.00133749
0.00128269
0.00123374
0.00119172
0.00239169
0.00225696
0.00214029
0.00202448
0.00192704
0.00182951
0.00174571
0.00166393
0.00158847
0.00151926
0.00145555
0.00273927
0.00259167
0.00245702
0.00233277
0.00221886
0.0021135
0.00201634
0.00192621
0.0018425
0.00176453
0.00169266
0.00292933
0.00276934
0.00262383
0.00249084
0.00236897
0.00225694
0.00215383
0.00205865
0.00197071
0.00188889
0.00181363
0.00298459
0.0028179
0.00266658
0.00252884
0.00240309
0.00228802
0.00218247
0.0020853
0.00199596
0.00191285
0.00183687
0.0023658
0.00232229
0.00228172
0.00224211
0.00220551
0.00216975
0.00213634
0.00210436
0.00207287
0.00204255
0.00201335
0.00198603
0.00204025
0.00198571
0.00193813
0.00189232
0.00185087
0.00181154
0.00177517
0.00174113
0.00170887
0.00167852
0.00165023
0.00162341
0.00203081
0.00197226
0.00192138
0.00186681
0.00181912
0.00177513
0.00173594
0.00169856
0.00166375
0.00163094
0.00160022
0.00209509
0.00202505
0.00196141
0.00190317
0.00185042
0.00180197
0.00175755
0.00171655
0.00167935
0.00164346
0.00160825
0.00217234
0.00209417
0.00202316
0.00195844
0.00189943
0.00184555
0.0017965
0.00175165
0.00171055
0.00167243
0.00163607
0.00222494
0.00214442
0.00207079
0.00200337
0.00194162
0.00188558
0.0018342
0.0017869
0.00174329
0.00170329
0.00166538
)
;

boundaryField
{
    inlet
    {
        type            fixedValue;
        value           nonuniform List<scalar> 0();
    }
    ami1
    {
        type            cyclicAMI;
        value           nonuniform List<scalar> 0();
    }
    walls
    {
        type            kqRWallFunction;
        value           nonuniform List<scalar> 
248
(
0.00236464
0.00210365
0.00214756
0.00219487
0.00222923
0.00232187
0.00205821
0.00209673
0.00212854
0.00215381
0.00228208
0.00201421
0.00204276
0.00206751
0.00208458
0.00224284
0.00197154
0.00199263
0.00201108
0.00202143
0.00220665
0.00193243
0.00194767
0.00195873
0.00196341
0.00217118
0.00189561
0.00190599
0.00191109
0.00190953
0.00213795
0.00186122
0.00186724
0.0018651
0.00185939
0.00210618
0.00182904
0.00183019
0.00181902
0.00181291
0.00207482
0.00179795
0.00179491
0.00177691
0.00176991
0.00204412
0.00176791
0.00175945
0.00173889
0.00173006
0.00201521
0.00173974
0.00172616
0.00170237
0.00168916
0.0023658
0.00204025
0.00203081
0.00209509
0.00217234
0.00222494
0.00232229
0.00198571
0.00197226
0.00202505
0.00209417
0.00214442
0.00228172
0.00193813
0.00192138
0.00196141
0.00202316
0.00207079
0.00224211
0.00189232
0.00186681
0.00190317
0.00195844
0.00200337
0.00220551
0.00185087
0.00181912
0.00185042
0.00189943
0.00194162
0.00216975
0.00181154
0.00177513
0.00180197
0.00184555
0.00188558
0.00213634
0.00177517
0.00173594
0.00175755
0.0017965
0.0018342
0.00210436
0.00174113
0.00169856
0.00171655
0.00175165
0.0017869
0.00207287
0.00170887
0.00166375
0.00167935
0.00171055
0.00174329
0.00204255
0.00167852
0.00163094
0.00164346
0.00167243
0.00170329
0.00201335
0.00165023
0.00160022
0.00160825
0.00163607
0.00166538
0.00198603
0.00162341
0.00236464
0.00203745
0.00202739
0.00209277
0.00217133
0.00222463
0.00222928
0.00219498
0.00214812
0.00210538
0.0023658
0.00232187
0.00198382
0.00196958
0.00202314
0.00209331
0.00214417
0.00215385
0.00212854
0.00209671
0.00205903
0.00232229
0.00228208
0.00193711
0.00191928
0.00195983
0.00202243
0.00207059
0.0020846
0.00206743
0.00204242
0.00201421
0.00228172
0.00224284
0.00189199
0.0018653
0.00190186
0.00195783
0.00200323
0.00202145
0.00201094
0.00199212
0.00197099
0.00224211
0.00220665
0.00185113
0.00181805
0.00184936
0.00189891
0.00194152
0.00196341
0.00195851
0.00194706
0.00193151
0.00220551
0.00217118
0.00181225
0.0017744
0.00180112
0.00184511
0.00188553
0.00190952
0.00191097
0.00190531
0.00189435
0.00216975
0.00213795
0.00177621
0.00173552
0.00175686
0.0017961
0.00183419
0.0018594
0.00186473
0.00186653
0.00185981
0.00213634
0.00210618
0.0017424
0.00169831
0.00171599
0.0017513
0.0017869
0.00181293
0.00181858
0.00182923
0.00182739
0.00210436
0.00207482
0.00171036
0.0016637
0.00167881
0.00171021
0.0017433
0.00176996
0.0017765
0.00179401
0.00179626
0.00207287
0.00204412
0.00168009
0.00163096
0.00164314
0.00167212
0.00170328
0.00173003
0.00173853
0.00175843
0.00176629
0.00204255
0.00201521
0.00165183
0.00160041
0.0016079
0.00163574
0.0016653
0.00168913
0.00170176
0.0017248
0.00173784
0.00201335
0.00166756
0.00169478
0.00171161
0.00198603
)
;
    }
    ami2
    {
        type            cyclicAMI;
        value           nonuniform List<scalar> 0();
    }
    outlet
    {
        type            zeroGradient;
    }
    procBoundary8to0
    {
        type            processor;
        value           nonuniform List<scalar> 
29
(
0.00240763
0.00215184
0.00220677
0.00226991
0.00231385
0.00208439
0.00205389
0.00256937
0.00290605
0.00309871
0.00208917
0.00252831
0.00323877
0.00375189
0.00405477
0.00216986
0.00289836
0.00374371
0.00438528
0.00477846
0.00225825
0.00310525
0.00405447
0.00477936
0.0052316
0.00538553
0.00491183
0.00538575
0.00554833
)
;
    }
    procBoundary8to1
    {
        type            processor;
        value           nonuniform List<scalar> 
33
(
0.00231445
0.00316851
0.00415757
0.00231388
0.00309881
0.00405496
0.00477872
0.00523183
0.00538578
0.00227027
0.00290624
0.00375221
0.00438554
0.00477941
0.00491154
0.00220793
0.00257038
0.00324085
0.00374523
0.00405505
0.00415758
0.00215492
0.00206443
0.00253738
0.00290299
0.00310693
0.00316893
0.00241008
0.00208886
0.00209365
0.00217293
0.00225959
0.00231484
)
;
    }
    procBoundary8to7
    {
        type            processor;
        value           nonuniform List<scalar> 
68
(
0.00198567
0.00171227
0.00169579
0.00166783
0.00165158
0.00162314
0.00118884
0.00147937
0.00164002
0.0017186
0.00156949
0.00139457
0.00173158
0.00198707
0.00213852
0.00157496
0.00162293
0.00200068
0.00230623
0.0024974
0.00160289
0.00174143
0.00216064
0.00250483
0.00272377
0.00279991
0.00163229
0.00176097
0.0022011
0.00256639
0.00280003
0.00288102
0.00165145
0.00165145
0.00171905
0.00171905
0.0021385
0.0024973
0.00272364
0.0027999
0.00163522
0.00157622
0.0019857
0.0019857
0.00230551
0.00250443
0.00256612
0.00166747
0.00141716
0.00172857
0.00172857
0.00199944
0.00216013
0.00220076
0.00168626
0.00114369
0.00139137
0.00139137
0.00162166
0.00174122
0.0017606
0.00195808
0.00159647
0.00156895
0.00156895
0.00157513
0.00160317
0.00163233
)
;
    }
    procBoundary8to9
    {
        type            processor;
        value           nonuniform List<scalar> 
132
(
0.00222495
0.0021443
0.00207058
0.00200311
0.00194132
0.00188528
0.0018339
0.00178659
0.00174299
0.001703
0.00166499
0.00298454
0.00281782
0.00266645
0.00252864
0.0024028
0.00228762
0.00218196
0.00208469
0.00199524
0.00191203
0.00183588
0.00390494
0.00367522
0.00346585
0.00327454
0.00309929
0.00293836
0.00279025
0.00265361
0.00252736
0.00241022
0.00230166
0.00460983
0.00433502
0.00408442
0.0038553
0.00364527
0.00345229
0.00327455
0.00311049
0.00295874
0.00281803
0.00268745
0.00460983
0.00433502
0.00408442
0.0038553
0.00364527
0.00345229
0.00327455
0.00311049
0.00295874
0.00281803
0.00268745
0.00490923
0.00461556
0.00434768
0.0041027
0.0038781
0.00367169
0.00348157
0.00330606
0.0031437
0.00299317
0.00285346
0.00505337
0.00475049
0.00447423
0.00422159
0.00398999
0.00377717
0.00358115
0.00340022
0.00323286
0.00307771
0.00293373
0.00490928
0.00461555
0.00434763
0.00410263
0.00387801
0.0036716
0.00348146
0.00330595
0.0031436
0.00299307
0.00285336
0.0044851
0.00421802
0.0039744
0.00375159
0.0035473
0.00335955
0.00318661
0.00302696
0.00287932
0.00274237
0.00261522
0.0038079
0.00358314
0.00337819
0.00319085
0.00301919
0.00286156
0.00271653
0.00258274
0.00245937
0.0023442
0.00223707
0.00291784
0.00275449
0.00260626
0.00247145
0.00234852
0.00223613
0.00213326
0.00203829
0.00195247
0.00186717
0.00178756
0.002229
0.00215349
0.0020842
0.00202105
0.001963
0.00190913
0.001859
0.00181258
0.00176959
0.00172971
0.00168885
)
;
    }
}


// ************************************************************************* //
