/*--------------------------------*- C++ -*----------------------------------*\
| =========                 |                                                 |
| \\      /  F ield         | OpenFOAM: The Open Source CFD Toolbox           |
|  \\    /   O peration     | Version:  2212                                  |
|   \\  /    A nd           | Website:  www.openfoam.com                      |
|    \\/     M anipulation  |                                                 |
\*---------------------------------------------------------------------------*/
FoamFile
{
    version     2.0;
    format      ascii;
    arch        "LSB;label=32;scalar=64";
    class       volScalarField;
    location    "3";
    object      p;
}
// * * * * * * * * * * * * * * * * * * * * * * * * * * * * * * * * * * * * * //

dimensions      [0 2 -2 0 0 0 0];

internalField   nonuniform List<scalar> 
690
(
0.00323467
0.00310156
0.00297028
0.00284057
0.00271157
0.00258433
0.00245831
0.00233408
0.00221087
0.00208878
0.00196909
0.00323277
0.00309726
0.00296382
0.00283254
0.00270274
0.00257503
0.00244881
0.00232443
0.00220124
0.00207964
0.00196087
0.00322089
0.00308601
0.00295312
0.00282246
0.00269345
0.00256625
0.0024404
0.0023162
0.00219256
0.00207066
0.00195105
0.00323123
0.00309732
0.00296483
0.00283406
0.00270489
0.00257723
0.00245076
0.00232576
0.00220151
0.00207806
0.00195561
0.0032311
0.0030983
0.00296687
0.00283692
0.00270835
0.00258095
0.00245471
0.00232978
0.00220616
0.00208372
0.00196215
0.00323418
0.00310413
0.00297623
0.00284857
0.00272063
0.00259391
0.0024682
0.00234411
0.00222093
0.00209863
0.00197814
0.00324552
0.00311254
0.00298115
0.00285112
0.00272228
0.00259515
0.00246923
0.002345
0.00222106
0.00209875
0.00197821
0.0032288
0.00309739
0.00296699
0.00283743
0.00270919
0.00258235
0.00245694
0.00233244
0.00220853
0.00208573
0.00196372
0.00323585
0.0031043
0.00297352
0.00284352
0.00271483
0.0025874
0.00246139
0.00233633
0.00221274
0.00208993
0.0019677
0.0032392
0.00310741
0.00297664
0.00284696
0.00271846
0.00259112
0.00246499
0.00233993
0.00221606
0.00209313
0.00197124
0.00321868
0.00308865
0.00296097
0.00283377
0.00270687
0.00258108
0.00245622
0.00233269
0.00220958
0.00208802
0.00196803
0.00322787
0.00309554
0.00296367
0.00283365
0.00270587
0.0025797
0.00245498
0.00233105
0.00220786
0.00208606
0.0019652
0.00319689
0.00306669
0.00293721
0.00280884
0.00268176
0.00255551
0.00243055
0.00230638
0.00218428
0.00206279
0.00194179
0.00319596
0.00306539
0.00293581
0.00280727
0.0026799
0.00255346
0.00242821
0.00230412
0.00218188
0.00206062
0.00194012
0.00319534
0.0030644
0.00293463
0.00280602
0.00267859
0.00255224
0.00242692
0.0023027
0.0021796
0.00205758
0.00193694
0.00322373
0.00309185
0.00296097
0.00283191
0.00270461
0.00257868
0.00245391
0.00233024
0.0022076
0.00208628
0.00196609
0.00323584
0.0031024
0.00297006
0.00283966
0.00271125
0.00258424
0.00245856
0.0023339
0.00221075
0.0020885
0.00196721
0.00319765
0.00306568
0.00293506
0.00280591
0.00267818
0.00255156
0.00242607
0.00230195
0.00217953
0.00205807
0.00193758
0.00318833
0.00305701
0.00292701
0.00279825
0.00267076
0.00254447
0.00241939
0.00229558
0.00217317
0.00205198
0.0019318
0.00318184
0.00305071
0.00292089
0.00279233
0.00266502
0.00253892
0.00241399
0.00229023
0.00216762
0.00204618
0.00192582
0.00322838
0.00309626
0.00296548
0.00283634
0.0027086
0.00258201
0.00245664
0.00233249
0.00220954
0.00208777
0.00196716
0.00324519
0.00311124
0.00297871
0.00284772
0.00271832
0.00259043
0.00246389
0.00233866
0.00221487
0.00209224
0.00197075
0.00320068
0.00306814
0.00293701
0.00280728
0.00267896
0.00255207
0.00242656
0.00230236
0.00217943
0.00205761
0.00193675
0.00318459
0.00305303
0.00292282
0.00279391
0.0026663
0.00254
0.00241497
0.00229114
0.00216848
0.00204696
0.00192643
0.00317346
0.00304236
0.00291259
0.0027841
0.00265686
0.00253087
0.00240607
0.00228244
0.00215994
0.00203855
0.00191815
0.00317111
0.0030401
0.00291042
0.00278203
0.00265488
0.00252895
0.00240421
0.00228063
0.00215816
0.00203679
0.00191642
0.00323137
0.00309885
0.00296775
0.00283811
0.00270974
0.00258262
0.00245674
0.00233211
0.00220874
0.00208656
0.00196565
0.00324519
0.00311235
0.00298073
0.00285033
0.00272121
0.00259339
0.00246684
0.00234161
0.00221758
0.00209465
0.0019728
0.00319925
0.00306756
0.00293725
0.00280801
0.00268002
0.0025533
0.00242782
0.00230353
0.00218039
0.00205835
0.00193726
0.00318253
0.00305126
0.00292133
0.00279266
0.00266525
0.00253908
0.00241412
0.00229033
0.00216768
0.00204616
0.00192565
0.00317113
0.00304012
0.00291045
0.00278206
0.00265491
0.00252898
0.00240424
0.00228066
0.00215819
0.00203683
0.00191646
0.00316784
0.00303701
0.00290747
0.00277919
0.00265212
0.00252627
0.0024016
0.00227807
0.00215566
0.00203434
0.00191402
0.00323106
0.00309826
0.00296682
0.00283684
0.00270821
0.00258079
0.00245455
0.00232961
0.002206
0.00208358
0.00196201
0.0032391
0.00310728
0.00297651
0.00284683
0.00271833
0.00259098
0.00246484
0.00233975
0.00221587
0.00209289
0.00197104
0.00319516
0.00306416
0.00293436
0.00280579
0.00267838
0.00255204
0.00242673
0.00230251
0.00217942
0.00205741
0.0019368
0.00318167
0.0030505
0.00292067
0.00279212
0.00266483
0.00253874
0.00241383
0.00229009
0.00216751
0.00204609
0.00192578
0.00317335
0.00304223
0.00291245
0.00278395
0.00265672
0.00253073
0.00240595
0.00228234
0.00215985
0.00203847
0.0019181
0.00317105
0.00304003
0.00291034
0.00278195
0.0026548
0.00252887
0.00240414
0.00228056
0.0021581
0.00203674
0.00191639
0.00323133
0.00309741
0.00296489
0.00283406
0.00270484
0.00257712
0.00245065
0.00232566
0.00220141
0.00207801
0.00195542
0.00183437
0.00323577
0.00310411
0.0029733
0.00284332
0.00271463
0.00258721
0.00246119
0.00233617
0.00221245
0.0020894
0.00196746
0.00184689
0.00319554
0.00306484
0.00293522
0.00280673
0.00267941
0.00255304
0.00242782
0.00230374
0.00218147
0.00206009
0.0019398
0.00318799
0.00305658
0.00292653
0.00279777
0.00267031
0.00254406
0.00241901
0.00229523
0.00217284
0.00205166
0.00193157
0.0031844
0.00305278
0.00292252
0.00279359
0.00266598
0.00253969
0.00241467
0.00229087
0.00216823
0.00204674
0.00192624
0.0031824
0.0030511
0.00292113
0.00279245
0.00266503
0.00253886
0.00241391
0.00229013
0.00216748
0.00204598
0.00192549
0.0032206
0.00308583
0.00295297
0.00282229
0.00269325
0.002566
0.00244017
0.0023159
0.00219249
0.00207104
0.001951
0.00183239
0.00322826
0.00309687
0.00296654
0.00283706
0.00270886
0.00258204
0.00245666
0.00233224
0.00220834
0.00208549
0.00196395
0.00184358
0.00319614
0.00306576
0.00293628
0.00280798
0.00268099
0.00255485
0.00242998
0.00230594
0.00218375
0.0020621
0.00194157
0.00319717
0.00306508
0.00293439
0.00280523
0.00267753
0.00255096
0.00242553
0.00230147
0.00217908
0.00205765
0.00193728
0.00320045
0.00306785
0.00293668
0.00280692
0.00267859
0.00255168
0.00242617
0.00230199
0.00217908
0.00205729
0.00193646
0.00319909
0.00306738
0.00293704
0.00280779
0.00267978
0.00255306
0.00242757
0.00230329
0.00218014
0.00205811
0.00193704
0.00323308
0.00309761
0.00296412
0.00283271
0.00270284
0.00257502
0.00244876
0.00232432
0.00220117
0.00207993
0.00196034
0.00184222
0.00324565
0.00311282
0.00298145
0.00285139
0.00272251
0.0025953
0.00246932
0.00234499
0.00222114
0.00209907
0.00197817
0.00185843
0.00322745
0.0030952
0.00296339
0.00283335
0.00270556
0.00257942
0.00245472
0.0023308
0.0022077
0.00208594
0.00196543
0.00323567
0.00310218
0.00296981
0.00283937
0.00271092
0.00258389
0.00245823
0.00233355
0.00221043
0.00208825
0.00196695
0.00324512
0.00311115
0.00297859
0.00284756
0.00271813
0.0025902
0.00246363
0.00233837
0.00221458
0.00209196
0.00197042
0.00324507
0.00311223
0.0029806
0.00285018
0.00272104
0.00259321
0.00246662
0.00234138
0.00221732
0.00209437
0.00197251
0.00323507
0.00310198
0.00297065
0.00284086
0.00271181
0.00258447
0.00245838
0.00233407
0.00221079
0.00208897
0.00196852
0.00184955
0.00323477
0.00310463
0.00297664
0.00284896
0.002721
0.00259417
0.00246837
0.00234417
0.00222088
0.00209866
0.00197735
0.00185763
0.00321882
0.00308874
0.00296101
0.00283384
0.00270695
0.00258114
0.00245621
0.00233268
0.0022095
0.00208783
0.00196777
0.00322399
0.00309204
0.00296104
0.00283187
0.00270453
0.00257857
0.00245378
0.00233008
0.00220741
0.00208602
0.00196583
0.0032285
0.00309629
0.00296542
0.00283623
0.00270847
0.00258187
0.00245647
0.00233229
0.00220932
0.00208751
0.00196688
0.00323135
0.00309874
0.00296757
0.00283792
0.00270955
0.00258242
0.00245652
0.00233189
0.00220851
0.00208632
0.00196539
)
;

boundaryField
{
    inlet
    {
        type            zeroGradient;
    }
    ami1
    {
        type            cyclicAMI;
        value           nonuniform List<scalar> 0();
    }
    walls
    {
        type            zeroGradient;
    }
    ami2
    {
        type            cyclicAMI;
        value           nonuniform List<scalar> 0();
    }
    outlet
    {
        type            fixedValue;
        value           nonuniform List<scalar> 0();
    }
    procBoundary8to0
    {
        type            processor;
        value           nonuniform List<scalar> 
29
(
0.00336616
0.00336689
0.00335642
0.00336612
0.0033651
0.00336302
0.00337817
0.00336258
0.00336882
0.00337227
0.00334872
0.00336162
0.00333
0.00332836
0.00332775
0.00335554
0.0033714
0.00333193
0.0033213
0.00331435
0.00336153
0.00338087
0.00333492
0.0033176
0.00330594
0.0033035
0.00331518
0.00330352
0.00329999
)
;
    }
    procBoundary8to1
    {
        type            processor;
        value           nonuniform List<scalar> 
33
(
0.00336511
0.00337943
0.00333252
0.00336508
0.00337223
0.00332762
0.00331422
0.00330586
0.00330345
0.00336624
0.00336882
0.00332806
0.00332107
0.00331745
0.00331507
0.00335612
0.00336202
0.00332941
0.00333159
0.00333476
0.00333239
0.00336728
0.00337825
0.00336117
0.00337132
0.00338087
0.00337935
0.00336663
0.00336379
0.00334891
0.00335587
0.00336172
0.00336516
)
;
    }
    procBoundary8to7
    {
        type            processor;
        value           nonuniform List<scalar> 
68
(
0.00185007
0.00184272
0.00183258
0.00183455
0.00184136
0.00185826
0.00185872
0.00184349
0.00184708
0.00185076
0.00184903
0.00184594
0.00182236
0.00182057
0.00181762
0.00184693
0.00184682
0.00181815
0.0018124
0.00180651
0.00184744
0.00185022
0.0018171
0.00180694
0.00179879
0.00179708
0.00184577
0.00185214
0.00181733
0.00180618
0.00179711
0.00179474
0.00184119
0.00184119
0.00185059
0.00185059
0.00181756
0.0018065
0.00179876
0.00179706
0.00171505
0.0017281
0.00182033
0.00182033
0.00181224
0.00180678
0.00180603
0.00171436
0.00172482
0.00182225
0.00182225
0.00181795
0.00181685
0.00181712
0.00172395
0.00173916
0.00184594
0.00184594
0.00184653
0.0018499
0.00185184
0.0017308
0.00173849
0.00184878
0.00184878
0.00184662
0.00184713
0.00184547
)
;
    }
    procBoundary8to9
    {
        type            processor;
        value           nonuniform List<scalar> 
132
(
0.00323148
0.00309896
0.0029679
0.0028383
0.00270996
0.00258284
0.00245695
0.00233231
0.00220893
0.00208675
0.00196582
0.00324519
0.00311235
0.00298074
0.00285036
0.00272126
0.00259345
0.00246691
0.00234167
0.00221764
0.00209471
0.00197283
0.00319921
0.00306751
0.00293718
0.00280796
0.00267998
0.00255326
0.00242779
0.0023035
0.00218035
0.00205831
0.00193721
0.00318251
0.00305124
0.0029213
0.00279262
0.00266521
0.00253904
0.00241407
0.00229028
0.00216762
0.0020461
0.00192558
0.00318251
0.00305124
0.0029213
0.00279262
0.00266521
0.00253904
0.00241407
0.00229028
0.00216762
0.0020461
0.00192558
0.00317331
0.00304219
0.00291241
0.00278392
0.0026567
0.00253072
0.00240595
0.00228234
0.00215985
0.00203847
0.00191809
0.00317103
0.00304001
0.00291033
0.00278194
0.00265479
0.00252887
0.00240415
0.00228057
0.00215811
0.00203676
0.0019164
0.00317326
0.00304213
0.00291234
0.00278384
0.00265662
0.00253064
0.00240587
0.00228227
0.00215978
0.00203842
0.00191805
0.00318156
0.00305036
0.0029205
0.00279194
0.00266466
0.00253859
0.00241369
0.00228997
0.0021674
0.00204601
0.0019257
0.00319507
0.00306404
0.0029342
0.0028056
0.0026782
0.00255188
0.00242656
0.00230239
0.00217924
0.0020573
0.00193667
0.00323901
0.00310717
0.00297637
0.00284668
0.00271817
0.00259084
0.00246461
0.00233961
0.00221558
0.00209256
0.00197067
0.00323096
0.00309804
0.00296659
0.00283661
0.00270798
0.00258054
0.00245432
0.00232935
0.0022058
0.00208334
0.00196175
)
;
    }
}


// ************************************************************************* //
