/*--------------------------------*- C++ -*----------------------------------*\
| =========                 |                                                 |
| \\      /  F ield         | OpenFOAM: The Open Source CFD Toolbox           |
|  \\    /   O peration     | Version:  2212                                  |
|   \\  /    A nd           | Website:  www.openfoam.com                      |
|    \\/     M anipulation  |                                                 |
\*---------------------------------------------------------------------------*/
FoamFile
{
    version     2.0;
    format      ascii;
    arch        "LSB;label=32;scalar=64";
    class       surfaceScalarField;
    location    "3";
    object      phi;
}
// * * * * * * * * * * * * * * * * * * * * * * * * * * * * * * * * * * * * * //

dimensions      [0 3 -1 0 0 0 0];

oriented        oriented;

internalField   nonuniform List<scalar> 
1815
(
7.05508e-08
-3.41854e-08
3.50806e-08
6.96423e-08
-3.40935e-08
3.50021e-08
6.87531e-08
-3.40297e-08
3.4919e-08
6.78898e-08
-3.39818e-08
3.48451e-08
6.70439e-08
-3.39559e-08
3.48018e-08
6.6227e-08
-3.395e-08
3.4767e-08
6.5433e-08
-3.39488e-08
3.47427e-08
6.46656e-08
-3.3952e-08
3.47194e-08
6.39021e-08
-3.3947e-08
3.47105e-08
6.3137e-08
-3.39498e-08
3.4715e-08
-3.39882e-08
3.47295e-08
2.23841e-07
-6.35327e-08
3.1726e-08
2.21459e-07
-6.35061e-08
3.17941e-08
2.19132e-07
-6.35308e-08
3.18284e-08
2.1685e-07
-6.35565e-08
3.18568e-08
2.14608e-07
-6.35953e-08
3.1881e-08
2.12425e-07
-6.36347e-08
3.18676e-08
2.10283e-07
-6.36662e-08
3.18604e-08
2.08173e-07
-6.36783e-08
3.1836e-08
2.06031e-07
-6.36413e-08
3.18361e-08
2.03859e-07
-6.36473e-08
3.1869e-08
-6.37195e-08
3.18815e-08
4.32977e-07
-8.91095e-08
2.92726e-08
4.29154e-07
-8.90241e-08
2.93409e-08
4.25254e-07
-8.89737e-08
2.9343e-08
4.21299e-07
-8.89179e-08
2.93165e-08
4.17301e-07
-8.88716e-08
2.92746e-08
4.13284e-07
-8.88364e-08
2.92192e-08
4.09253e-07
-8.88123e-08
2.91768e-08
4.05218e-07
-8.87715e-08
2.91283e-08
4.01177e-07
-8.87358e-08
2.91352e-08
3.97173e-07
-8.8726e-08
2.90828e-08
-8.87548e-08
2.89261e-08
6.23294e-07
-1.07627e-07
2.39397e-08
6.176e-07
-1.07419e-07
2.40897e-08
6.11667e-07
-1.07225e-07
2.41836e-08
6.05558e-07
-1.07053e-07
2.42441e-08
5.99329e-07
-1.06916e-07
2.42746e-08
5.93032e-07
-1.06811e-07
2.42717e-08
5.86716e-07
-1.06742e-07
2.42463e-08
5.80436e-07
-1.06686e-07
2.41945e-08
5.7424e-07
-1.06667e-07
2.4127e-08
5.68176e-07
-1.06692e-07
2.40301e-08
-1.06742e-07
2.38956e-08
7.49046e-07
1.7763e-08
7.41716e-07
1.78203e-08
7.34229e-07
1.78351e-08
7.26657e-07
1.7814e-08
7.19067e-07
1.77608e-08
7.1151e-07
1.76791e-08
7.04018e-07
1.75669e-08
6.96625e-07
1.74385e-08
6.89338e-07
1.72917e-08
6.82163e-07
1.71254e-08
1.69502e-08
2.11159e-07
-3.00886e-08
6.76437e-08
2.08685e-07
-3.00551e-08
6.75317e-08
2.06278e-07
-3.00017e-08
6.73276e-08
2.03909e-07
-2.99672e-08
6.71811e-08
2.0158e-07
-2.99519e-08
6.70827e-08
1.99325e-07
-2.99806e-08
6.7003e-08
1.97134e-07
-3.00023e-08
6.69356e-08
1.95021e-07
-3.00448e-08
6.68779e-08
1.92934e-07
-3.00633e-08
6.68608e-08
1.90877e-07
-3.00538e-08
6.68257e-08
-3.00516e-08
6.67988e-08
5.28713e-07
-5.58269e-08
5.97987e-08
5.26285e-07
-5.58226e-08
5.99897e-08
5.23787e-07
-5.58241e-08
6.01488e-08
5.21238e-07
-5.58414e-08
6.02801e-08
5.18635e-07
-5.58428e-08
6.03753e-08
5.15998e-07
-5.58761e-08
6.04001e-08
5.1332e-07
-5.58824e-08
6.04188e-08
5.10622e-07
-5.59132e-08
6.04023e-08
5.07917e-07
-5.59183e-08
6.0396e-08
5.05163e-07
-5.58544e-08
6.04241e-08
-5.57932e-08
6.04337e-08
8.19399e-07
-7.84486e-08
5.1786e-08
8.19359e-07
-7.84015e-08
5.19593e-08
8.19134e-07
-7.83513e-08
5.20955e-08
8.18739e-07
-7.83106e-08
5.21813e-08
8.18173e-07
-7.82536e-08
5.22515e-08
8.17428e-07
-7.82037e-08
5.22911e-08
8.16507e-07
-7.81183e-08
5.23341e-08
8.15461e-07
-7.80743e-08
5.23351e-08
8.14288e-07
-7.79915e-08
5.23814e-08
8.13014e-07
-7.7915e-08
5.24176e-08
-7.7869e-08
5.24239e-08
1.0375e-06
-9.56397e-08
4.00775e-08
1.0383e-06
-9.54051e-08
4.02953e-08
1.03883e-06
-9.51696e-08
4.04659e-08
1.03911e-06
-9.494e-08
4.05945e-08
1.03915e-06
-9.47192e-08
4.06976e-08
1.03897e-06
-9.45202e-08
4.07721e-08
1.03858e-06
-9.43282e-08
4.08468e-08
1.038e-06
-9.41661e-08
4.08687e-08
1.03725e-06
-9.40086e-08
4.08933e-08
1.03635e-06
-9.38819e-08
4.08928e-08
-9.38024e-08
4.08507e-08
1.17345e-06
2.68079e-08
1.17375e-06
2.69078e-08
1.17383e-06
2.69681e-08
1.1737e-06
2.69958e-08
1.17338e-06
2.69966e-08
1.1729e-06
2.69719e-08
1.17228e-06
2.69241e-08
1.17154e-06
2.6855e-08
1.17071e-06
2.67577e-08
1.16982e-06
2.66286e-08
2.64878e-08
3.93764e-07
-2.06242e-08
9.31514e-08
3.89189e-07
-2.08914e-08
9.29983e-08
3.84972e-07
-2.12634e-08
9.2808e-08
3.8101e-07
-2.15262e-08
9.26698e-08
3.77225e-07
-2.16963e-08
9.25637e-08
3.73589e-07
-2.18364e-08
9.24756e-08
3.7008e-07
-2.19496e-08
9.23948e-08
3.6669e-07
-2.20698e-08
9.23371e-08
3.63397e-07
-2.21244e-08
9.22786e-08
3.60182e-07
-2.21918e-08
9.22327e-08
-2.22507e-08
9.2209e-08
7.99913e-07
-4.1096e-08
8.18382e-08
7.98501e-07
-4.13522e-08
8.18628e-08
7.97152e-07
-4.1618e-08
8.18529e-08
7.95844e-07
-4.1803e-08
8.18654e-08
7.94566e-07
-4.19365e-08
8.18932e-08
7.93286e-07
-4.20677e-08
8.19119e-08
7.91981e-07
-4.21778e-08
8.19514e-08
7.90665e-07
-4.23097e-08
8.1958e-08
7.89303e-07
-4.23652e-08
8.19989e-08
7.87934e-07
-4.24195e-08
8.2021e-08
-4.24682e-08
8.20294e-08
1.10302e-06
-5.99107e-08
6.83904e-08
1.10527e-06
-6.0111e-08
6.84608e-08
1.10749e-06
-6.02746e-08
6.85366e-08
1.10964e-06
-6.03989e-08
6.86226e-08
1.11174e-06
-6.04914e-08
6.87102e-08
1.11376e-06
-6.05762e-08
6.87784e-08
1.11574e-06
-6.06566e-08
6.88284e-08
1.11763e-06
-6.07256e-08
6.8864e-08
1.11946e-06
-6.07402e-08
6.89317e-08
1.1212e-06
-6.07393e-08
6.89953e-08
-6.07178e-08
6.90444e-08
1.32182e-06
-7.49034e-08
5.09787e-08
1.32582e-06
-7.49094e-08
5.10963e-08
1.32969e-06
-7.48907e-08
5.12098e-08
1.33343e-06
-7.48569e-08
5.13143e-08
1.33704e-06
-7.48093e-08
5.14085e-08
1.3405e-06
-7.47554e-08
5.14856e-08
1.34384e-06
-7.46953e-08
5.15483e-08
1.34702e-06
-7.46332e-08
5.15933e-08
1.35009e-06
-7.45545e-08
5.16385e-08
1.35303e-06
-7.44665e-08
5.1682e-08
-7.43766e-08
5.17231e-08
1.45692e-06
3.12797e-08
1.46121e-06
3.13231e-08
1.46535e-06
3.1356e-08
1.46934e-06
3.13759e-08
1.47319e-06
3.1383e-08
1.47691e-06
3.13757e-08
1.4805e-06
3.13533e-08
1.48397e-06
3.13181e-08
1.48733e-06
3.12692e-08
1.49059e-06
3.121e-08
3.11434e-08
5.74941e-07
-9.58323e-09
1.10873e-07
5.67467e-07
-1.01005e-08
1.10573e-07
5.60573e-07
-1.06019e-08
1.10304e-07
5.54199e-07
-1.10617e-08
1.10106e-07
5.48272e-07
-1.14644e-08
1.09955e-07
5.42714e-07
-1.18056e-08
1.0984e-07
5.3746e-07
-1.20994e-08
1.09748e-07
5.32454e-07
-1.23397e-08
1.09683e-07
5.27646e-07
-1.25467e-08
1.09634e-07
5.23005e-07
-1.27263e-08
1.096e-07
-1.28721e-08
1.09581e-07
1.01295e-06
-2.32914e-08
9.76097e-08
1.01122e-06
-2.38134e-08
9.73041e-08
1.00974e-06
-2.43017e-08
9.70349e-08
1.00847e-06
-2.47396e-08
9.68134e-08
1.00738e-06
-2.51185e-08
9.66407e-08
1.00642e-06
-2.54454e-08
9.65072e-08
1.00559e-06
-2.57293e-08
9.64122e-08
1.00484e-06
-2.59843e-08
9.63552e-08
1.00416e-06
-2.62001e-08
9.63291e-08
1.00355e-06
-2.63993e-08
9.63054e-08
-2.65819e-08
9.62856e-08
1.31409e-06
-3.74139e-08
7.98695e-08
1.31684e-06
-3.78094e-08
7.97129e-08
1.31964e-06
-3.81628e-08
7.95934e-08
1.3225e-06
-3.84767e-08
7.95036e-08
1.3254e-06
-3.87513e-08
7.94393e-08
1.32834e-06
-3.89943e-08
7.93907e-08
1.3313e-06
-3.92115e-08
7.93524e-08
1.33426e-06
-3.94033e-08
7.9324e-08
1.33724e-06
-3.95621e-08
7.93143e-08
1.34021e-06
-3.96943e-08
7.9318e-08
-3.98156e-08
7.93209e-08
1.52811e-06
-4.94221e-08
5.77242e-08
1.53332e-06
-4.9613e-08
5.76952e-08
1.53846e-06
-4.9778e-08
5.76822e-08
1.54354e-06
-4.99203e-08
5.76803e-08
1.54855e-06
-5.00409e-08
5.76859e-08
1.55349e-06
-5.01425e-08
5.76926e-08
1.55836e-06
-5.02271e-08
5.76958e-08
1.56315e-06
-5.02966e-08
5.7697e-08
1.56787e-06
-5.03481e-08
5.77008e-08
1.57253e-06
-5.03806e-08
5.7711e-08
-5.04042e-08
5.77224e-08
1.65968e-06
3.28071e-08
1.66591e-06
3.27843e-08
1.67202e-06
3.27661e-08
1.678e-06
3.275e-08
1.68387e-06
3.27344e-08
1.68962e-06
3.27171e-08
1.69527e-06
3.26966e-08
1.70081e-06
3.26727e-08
1.70625e-06
3.26454e-08
1.71161e-06
3.26174e-08
3.25855e-08
7.17832e-07
1.32143e-09
1.19466e-07
7.08503e-07
8.40087e-10
1.19062e-07
6.99711e-07
3.78228e-10
1.18718e-07
6.91418e-07
-4.69506e-11
1.18445e-07
6.8357e-07
-4.38716e-10
1.18242e-07
6.76121e-07
-8.04044e-10
1.18094e-07
6.69035e-07
-1.14727e-09
1.17981e-07
6.62278e-07
-1.45893e-09
1.179e-07
6.55809e-07
-1.74231e-09
1.17845e-07
6.49594e-07
-1.99562e-09
1.17811e-07
-2.22968e-09
1.17797e-07
1.15707e-06
-4.81316e-09
1.05875e-07
1.1551e-06
-5.28245e-09
1.05392e-07
1.15329e-06
-5.73186e-09
1.04955e-07
1.15165e-06
-6.15345e-09
1.04565e-07
1.15017e-06
-6.54842e-09
1.04225e-07
1.14886e-06
-6.91815e-09
1.03937e-07
1.14769e-06
-7.26668e-09
1.03695e-07
1.14667e-06
-7.59056e-09
1.03512e-07
1.14577e-06
-7.88785e-09
1.03371e-07
1.14498e-06
-8.15989e-09
1.03262e-07
-8.4261e-09
1.03176e-07
1.45054e-06
-1.33963e-08
8.54347e-08
1.45356e-06
-1.37554e-08
8.51676e-08
1.45659e-06
-1.40987e-08
8.49289e-08
1.45965e-06
-1.44234e-08
8.47144e-08
1.46274e-06
-1.47252e-08
8.45215e-08
1.46587e-06
-1.50001e-08
8.43488e-08
1.46901e-06
-1.52486e-08
8.41956e-08
1.47216e-06
-1.54778e-08
8.4062e-08
1.47532e-06
-1.56897e-08
8.39499e-08
1.47851e-06
-1.5883e-08
8.38585e-08
-1.60724e-08
8.37808e-08
1.65821e-06
-2.16802e-08
6.0076e-08
1.66405e-06
-2.18877e-08
5.99928e-08
1.6698e-06
-2.2084e-08
5.99198e-08
1.67547e-06
-2.2268e-08
5.98566e-08
1.68106e-06
-2.24382e-08
5.98015e-08
1.6866e-06
-2.25929e-08
5.97517e-08
1.69207e-06
-2.27319e-08
5.97046e-08
1.69749e-06
-2.28567e-08
5.96602e-08
1.70285e-06
-2.29682e-08
5.96199e-08
1.70815e-06
-2.30658e-08
5.95852e-08
-2.31573e-08
5.95549e-08
1.78582e-06
-2.80502e-08
3.17891e-08
1.79306e-06
-2.81106e-08
3.17671e-08
1.80016e-06
-2.81669e-08
3.17494e-08
1.80712e-06
-2.82192e-08
3.1735e-08
1.81396e-06
-2.82673e-08
3.17229e-08
1.82069e-06
-2.83109e-08
3.17119e-08
1.8273e-06
-2.835e-08
3.17011e-08
1.83381e-06
-2.83846e-08
3.16898e-08
1.84022e-06
-2.84148e-08
3.1678e-08
1.84655e-06
-2.84405e-08
3.16662e-08
-2.84635e-08
3.16533e-08
1.82894e-06
2.04874e-09
1.83656e-06
2.00844e-09
1.84401e-06
1.96957e-09
1.85133e-06
1.93237e-09
1.8585e-06
1.89699e-09
1.86555e-06
1.8635e-09
1.87248e-06
1.83188e-09
1.87929e-06
1.80208e-09
1.88601e-06
1.77401e-09
1.89263e-06
1.74802e-09
1.72248e-09
7.81888e-07
1.03735e-08
1.18232e-07
7.72889e-07
1.01716e-08
1.17889e-07
7.6409e-07
9.95065e-09
1.17566e-07
7.55528e-07
9.71061e-09
1.17297e-07
7.47209e-07
9.46523e-09
1.17096e-07
7.39136e-07
9.22008e-09
1.16946e-07
7.31307e-07
8.97724e-09
1.16833e-07
7.23719e-07
8.73846e-09
1.16749e-07
7.16367e-07
8.50714e-09
1.1669e-07
7.09235e-07
8.28497e-09
1.16659e-07
8.05996e-09
1.16669e-07
1.21428e-06
1.19363e-08
1.05224e-07
1.21328e-06
1.17602e-08
1.04801e-07
1.21222e-06
1.15685e-08
1.04398e-07
1.21112e-06
1.13494e-08
1.04021e-07
1.21001e-06
1.11226e-08
1.03679e-07
1.2089e-06
1.08949e-08
1.03376e-07
1.20779e-06
1.0669e-08
1.03111e-07
1.20671e-06
1.04471e-08
1.02885e-07
1.20567e-06
1.0227e-08
1.02694e-07
1.20466e-06
1.00123e-08
1.02539e-07
9.77868e-09
1.02416e-07
1.50056e-06
9.74837e-09
8.38237e-08
1.50426e-06
9.59043e-09
8.36407e-08
1.50787e-06
9.42757e-09
8.34559e-08
1.5114e-06
9.25732e-09
8.32794e-08
1.51486e-06
9.08455e-09
8.31031e-08
1.51825e-06
8.91389e-09
8.29342e-08
1.52159e-06
8.74851e-09
8.27739e-08
1.52489e-06
8.58839e-09
8.26245e-08
1.52815e-06
8.43215e-09
8.24872e-08
1.53138e-06
8.2815e-09
8.23613e-08
8.12418e-09
8.224e-08
1.70368e-06
6.09757e-09
5.73201e-08
1.70995e-06
5.98683e-09
5.73266e-08
1.7161e-06
5.87683e-09
5.73261e-08
1.72212e-06
5.76808e-09
5.73195e-08
1.72804e-06
5.66139e-09
5.73075e-08
1.73386e-06
5.5579e-09
5.72909e-08
1.73958e-06
5.45843e-09
5.72703e-08
1.74522e-06
5.36333e-09
5.72469e-08
1.75078e-06
5.27258e-09
5.72208e-08
1.75627e-06
5.18735e-09
5.71914e-08
5.10236e-09
5.71596e-08
1.82894e-06
2.05894e-09
2.80588e-08
1.83655e-06
2.01916e-09
2.81263e-08
1.844e-06
1.98074e-09
2.81897e-08
1.85131e-06
1.94385e-09
2.82485e-08
1.85849e-06
1.90861e-09
2.8302e-08
1.86553e-06
1.87508e-09
2.83496e-08
1.87246e-06
1.84331e-09
2.83912e-08
1.87927e-06
1.81329e-09
2.84269e-08
1.88598e-06
1.78503e-09
2.84571e-08
1.89259e-06
1.7588e-09
2.84816e-08
1.73308e-09
2.85025e-08
1.87145e-06
-2.05138e-09
1.87948e-06
-2.00726e-09
1.88735e-06
-1.9644e-09
1.89506e-06
-1.92323e-09
1.90263e-06
-1.8841e-09
1.91005e-06
-1.84734e-09
1.91734e-06
-1.8131e-09
1.92452e-06
-1.78141e-09
1.93158e-06
-1.75224e-09
1.93853e-06
-1.72585e-09
-1.70057e-09
7.49012e-07
1.77714e-08
1.07598e-07
7.41673e-07
1.78293e-08
1.07399e-07
7.3418e-07
1.7844e-08
1.07214e-07
7.26603e-07
1.7822e-08
1.07052e-07
7.1901e-07
1.77674e-08
1.06922e-07
7.1145e-07
1.76849e-08
1.06821e-07
7.03956e-07
1.7573e-08
1.06754e-07
6.96561e-07
1.74453e-08
1.06699e-07
6.89272e-07
1.72993e-08
1.0668e-07
6.82097e-07
1.71362e-08
1.06697e-07
1.69601e-08
1.06749e-07
1.17343e-06
2.68164e-08
9.56338e-08
1.17373e-06
2.69166e-08
9.54126e-08
1.1738e-06
2.69778e-08
9.51883e-08
1.17367e-06
2.70062e-08
9.49669e-08
1.17336e-06
2.70074e-08
9.47526e-08
1.17288e-06
2.69834e-08
9.45562e-08
1.17226e-06
2.69357e-08
9.43667e-08
1.17152e-06
2.68662e-08
9.42047e-08
1.1707e-06
2.67689e-08
9.40465e-08
1.16981e-06
2.66393e-08
9.39266e-08
2.64968e-08
9.38404e-08
1.45689e-06
3.1285e-08
7.49195e-08
1.46118e-06
3.13276e-08
7.494e-08
1.46532e-06
3.136e-08
7.49335e-08
1.46932e-06
3.13808e-08
7.49086e-08
1.47317e-06
3.13888e-08
7.48666e-08
1.47689e-06
3.13826e-08
7.48145e-08
1.48049e-06
3.13612e-08
7.47541e-08
1.48396e-06
3.13266e-08
7.46903e-08
1.48733e-06
3.12782e-08
7.46095e-08
1.49059e-06
3.12184e-08
7.4523e-08
3.11522e-08
7.44286e-08
1.65965e-06
3.28126e-08
4.94339e-08
1.66588e-06
3.27879e-08
4.96368e-08
1.67199e-06
3.27682e-08
4.9813e-08
1.67797e-06
3.27512e-08
4.99644e-08
1.68384e-06
3.27355e-08
5.00915e-08
1.6896e-06
3.27187e-08
5.01968e-08
1.69525e-06
3.2699e-08
5.02829e-08
1.7008e-06
3.26759e-08
5.03521e-08
1.70624e-06
3.26497e-08
5.04023e-08
1.7116e-06
3.26224e-08
5.04334e-08
3.25919e-08
5.0453e-08
1.7858e-06
3.17985e-08
2.16842e-08
1.79304e-06
3.17744e-08
2.18993e-08
1.80014e-06
3.17546e-08
2.21034e-08
1.80711e-06
3.17383e-08
2.22948e-08
1.81395e-06
3.17247e-08
2.24713e-08
1.82067e-06
3.17128e-08
2.26311e-08
1.82729e-06
3.17015e-08
2.27735e-08
1.8338e-06
3.16901e-08
2.29002e-08
1.84022e-06
3.16786e-08
2.30124e-08
1.84654e-06
3.16673e-08
2.31098e-08
3.16554e-08
2.31998e-08
1.82894e-06
-6.09551e-09
1.83655e-06
-5.9805e-09
1.84401e-06
-5.86571e-09
1.85132e-06
-5.7521e-09
1.85849e-06
-5.64082e-09
1.86554e-06
-5.53323e-09
1.87247e-06
-5.43031e-09
1.87928e-06
-5.33253e-09
1.88599e-06
-5.23976e-09
1.89261e-06
-5.15337e-09
-5.06754e-09
6.23236e-07
2.39654e-08
8.90748e-08
6.17523e-07
2.41176e-08
8.89945e-08
6.11575e-07
2.4212e-08
8.89505e-08
6.05453e-07
2.42712e-08
8.89032e-08
5.99212e-07
2.42987e-08
8.88634e-08
5.92907e-07
2.42931e-08
8.88335e-08
5.86582e-07
2.42652e-08
8.88128e-08
5.80292e-07
2.42078e-08
8.87811e-08
5.74087e-07
2.41457e-08
8.87388e-08
5.68016e-07
2.40515e-08
8.87174e-08
5.62091e-07
2.39079e-08
8.87661e-08
2.37407e-08
8.88058e-08
1.03743e-06
4.00989e-08
7.84369e-08
1.03825e-06
4.03146e-08
7.84035e-08
1.0388e-06
4.04841e-08
7.83626e-08
1.0391e-06
4.06133e-08
7.83268e-08
1.03916e-06
4.07149e-08
7.82742e-08
1.03899e-06
4.07906e-08
7.82244e-08
1.03862e-06
4.08638e-08
7.81432e-08
1.03806e-06
4.08836e-08
7.80878e-08
1.03734e-06
4.09091e-08
7.80057e-08
1.03646e-06
4.08939e-08
7.79607e-08
1.03547e-06
4.08551e-08
7.7882e-08
7.78336e-08
1.32172e-06
5.09832e-08
5.993e-08
1.32573e-06
5.1096e-08
6.0144e-08
1.32962e-06
5.12059e-08
6.03178e-08
1.33339e-06
5.13095e-08
6.04475e-08
1.33702e-06
5.1404e-08
6.0542e-08
1.34052e-06
5.14833e-08
6.06251e-08
1.34389e-06
5.15478e-08
6.07026e-08
1.3471e-06
5.15942e-08
6.07648e-08
1.35021e-06
5.16396e-08
6.07774e-08
1.35316e-06
5.16785e-08
6.07824e-08
5.17202e-08
6.07467e-08
1.52801e-06
5.77257e-08
3.74213e-08
1.53322e-06
5.76903e-08
3.78285e-08
1.53838e-06
5.7672e-08
3.81922e-08
1.54347e-06
5.76667e-08
3.85139e-08
1.5485e-06
5.76708e-08
3.87938e-08
1.55347e-06
5.7678e-08
3.90395e-08
1.55836e-06
5.76826e-08
3.92573e-08
1.56317e-06
5.76854e-08
3.94478e-08
1.56792e-06
5.76906e-08
3.96054e-08
1.57259e-06
5.77013e-08
3.97363e-08
5.77145e-08
3.98517e-08
1.65815e-06
6.00843e-08
1.33904e-08
1.66399e-06
5.99951e-08
1.37562e-08
1.66974e-06
5.99166e-08
1.41068e-08
1.67542e-06
5.98487e-08
1.44386e-08
1.68102e-06
5.97902e-08
1.47471e-08
1.68657e-06
5.97385e-08
1.50283e-08
1.69205e-06
5.96905e-08
1.52804e-08
1.69748e-06
5.9646e-08
1.55119e-08
1.70285e-06
5.96061e-08
1.57253e-08
1.70817e-06
5.95722e-08
1.59192e-08
5.95432e-08
1.61077e-08
1.70367e-06
-9.75536e-09
1.70994e-06
-9.59455e-09
1.71609e-06
-9.42779e-09
1.72212e-06
-9.25295e-09
1.72804e-06
-9.0753e-09
1.73386e-06
-8.89956e-09
1.73959e-06
-8.7296e-09
1.74523e-06
-8.56568e-09
1.7508e-06
-8.40603e-09
1.75629e-06
-8.25283e-09
-8.09308e-09
4.32868e-07
2.93343e-08
6.34545e-08
4.29026e-07
2.93937e-08
6.34426e-08
4.25107e-07
2.93887e-08
6.3481e-08
4.21136e-07
2.93557e-08
6.3519e-08
4.17124e-07
2.93092e-08
6.35657e-08
4.13096e-07
2.92496e-08
6.36123e-08
4.09058e-07
2.91998e-08
6.36509e-08
4.05019e-07
2.91537e-08
6.36663e-08
4.00962e-07
2.91563e-08
6.36395e-08
3.96943e-07
2.90725e-08
6.36638e-08
3.9304e-07
2.8901e-08
6.37679e-08
2.87168e-08
6.38586e-08
8.19201e-07
5.18107e-08
5.58123e-08
8.19208e-07
5.19754e-08
5.58144e-08
8.19032e-07
5.21073e-08
5.58204e-08
8.18683e-07
5.21936e-08
5.5838e-08
8.18159e-07
5.22646e-08
5.58428e-08
8.17451e-07
5.23083e-08
5.58738e-08
8.16561e-07
5.23483e-08
5.5885e-08
8.15528e-07
5.2366e-08
5.59079e-08
8.14376e-07
5.24063e-08
5.59084e-08
8.13121e-07
5.23991e-08
5.58886e-08
8.11699e-07
5.24406e-08
5.5765e-08
5.56984e-08
1.10272e-06
6.83795e-08
4.11092e-08
1.10502e-06
6.84415e-08
4.13709e-08
1.1073e-06
6.85124e-08
4.16373e-08
1.10952e-06
6.85984e-08
4.18239e-08
1.11168e-06
6.86892e-08
4.19578e-08
1.11376e-06
6.87622e-08
4.20889e-08
1.1158e-06
6.88166e-08
4.21954e-08
1.11774e-06
6.88591e-08
4.23296e-08
1.11962e-06
6.8928e-08
4.23793e-08
1.12139e-06
6.89828e-08
4.24264e-08
6.90459e-08
4.24681e-08
1.31383e-06
7.98626e-08
2.32772e-08
1.3166e-06
7.96966e-08
2.38045e-08
1.31944e-06
7.95697e-08
2.4298e-08
1.32233e-06
7.94757e-08
2.47423e-08
1.32528e-06
7.94101e-08
2.51275e-08
1.32826e-06
7.93622e-08
2.54593e-08
1.33126e-06
7.93263e-08
2.57461e-08
1.33426e-06
7.93011e-08
2.60038e-08
1.33728e-06
7.92941e-08
2.62207e-08
1.34028e-06
7.92993e-08
2.64154e-08
7.93069e-08
2.66017e-08
1.4504e-06
8.54409e-08
4.79237e-09
1.45342e-06
8.51648e-08
5.26397e-09
1.45646e-06
8.49183e-08
5.71765e-09
1.45953e-06
8.46977e-08
6.14556e-09
1.46264e-06
8.45004e-08
6.5465e-09
1.46579e-06
8.4325e-08
6.92222e-09
1.46895e-06
8.41706e-08
7.27513e-09
1.47212e-06
8.40372e-08
7.60332e-09
1.47531e-06
8.39262e-08
7.90413e-09
1.47851e-06
8.38364e-08
8.17829e-09
8.3761e-08
8.44751e-09
1.50052e-06
-1.19505e-08
1.50422e-06
-1.17745e-08
1.50784e-06
-1.15814e-08
1.51137e-06
-1.13592e-08
1.51483e-06
-1.11279e-08
1.51823e-06
-1.08949e-08
1.52158e-06
-1.06636e-08
1.52489e-06
-1.0437e-08
1.52815e-06
-1.02122e-08
1.53139e-06
-9.99292e-09
-9.75528e-09
2.23861e-07
3.17376e-08
3.41625e-08
2.21428e-07
3.17977e-08
3.40779e-08
2.19061e-07
3.18287e-08
3.40191e-08
2.16749e-07
3.18578e-08
3.39727e-08
2.14485e-07
3.1882e-08
3.39479e-08
2.12283e-07
3.18714e-08
3.39428e-08
2.10127e-07
3.18635e-08
3.39436e-08
2.08004e-07
3.18415e-08
3.39477e-08
2.05854e-07
3.18438e-08
3.39457e-08
2.03705e-07
3.18527e-08
3.39602e-08
2.01583e-07
3.18925e-08
3.39972e-08
3.19019e-08
3.40373e-08
5.28626e-07
5.97805e-08
3.00827e-08
5.2621e-07
5.9971e-08
3.0057e-08
5.23716e-07
6.01363e-08
3.00068e-08
5.21165e-07
6.02769e-08
2.99701e-08
5.18558e-07
6.03763e-08
2.99553e-08
5.15915e-07
6.04057e-08
2.99824e-08
5.13232e-07
6.04271e-08
3.00051e-08
5.10527e-07
6.04082e-08
3.00462e-08
5.07802e-07
6.04114e-08
3.00657e-08
5.05033e-07
6.04279e-08
3.00821e-08
5.02164e-07
6.04792e-08
3.00476e-08
3.00284e-08
7.99542e-07
8.18246e-08
2.05624e-08
7.98203e-07
8.1846e-08
2.08347e-08
7.96922e-07
8.18394e-08
2.12154e-08
7.95673e-07
8.18542e-08
2.14966e-08
7.94446e-07
8.18839e-08
2.16766e-08
7.93213e-07
8.1904e-08
2.1824e-08
7.91948e-07
8.19475e-08
2.19402e-08
7.90666e-07
8.19532e-08
2.20666e-08
7.89331e-07
8.19968e-08
2.21287e-08
7.87962e-07
8.20275e-08
2.21961e-08
8.20443e-08
2.22791e-08
1.01259e-06
9.76136e-08
9.52146e-09
1.0109e-06
9.73022e-08
1.00378e-08
1.00946e-06
9.70292e-08
1.05448e-08
1.00824e-06
9.68044e-08
1.10153e-08
1.00719e-06
9.66295e-08
1.14285e-08
1.00628e-06
9.64949e-08
1.1779e-08
1.0055e-06
9.63986e-08
1.20811e-08
1.00478e-06
9.63423e-08
1.23278e-08
1.00414e-06
9.63171e-08
1.25421e-08
1.00356e-06
9.62985e-08
1.27268e-08
9.62794e-08
1.28822e-08
1.15688e-06
1.05891e-07
-1.35433e-09
1.15492e-06
1.054e-07
-8.75509e-10
1.15312e-06
1.04958e-07
-4.12215e-10
1.1515e-06
1.04561e-07
1.73676e-11
1.15004e-06
1.04217e-07
4.13979e-10
1.14875e-06
1.03925e-07
7.84742e-10
1.14761e-06
1.03679e-07
1.13368e-09
1.14661e-06
1.03496e-07
1.45097e-09
1.14573e-06
1.03354e-07
1.74033e-09
1.14497e-06
1.03247e-07
1.99931e-09
1.03162e-07
2.23788e-09
1.21423e-06
-1.03892e-08
1.21323e-06
-1.01888e-08
1.21217e-06
-9.96805e-09
1.21108e-06
-9.7268e-09
1.20997e-06
-9.47866e-09
1.20886e-06
-9.22937e-09
1.20776e-06
-8.98239e-09
1.20669e-06
-8.73886e-09
1.20566e-06
-8.50375e-09
1.20467e-06
-8.27761e-09
-8.04893e-09
7.05713e-08
3.5083e-08
6.96435e-08
3.50058e-08
6.87397e-08
3.49229e-08
6.78654e-08
3.48471e-08
6.70117e-08
3.48016e-08
6.61883e-08
3.47662e-08
6.53897e-08
3.47422e-08
6.4618e-08
3.47195e-08
6.38528e-08
3.47109e-08
6.30976e-08
3.47154e-08
6.23612e-08
3.47336e-08
3.47473e-08
2.11246e-07
6.77136e-08
2.08712e-07
6.75968e-08
2.06257e-07
6.73848e-08
2.03852e-07
6.7222e-08
2.01495e-07
6.71137e-08
1.99218e-07
6.70259e-08
1.97012e-07
6.69538e-08
1.94887e-07
6.68904e-08
1.92797e-07
6.68666e-08
1.9076e-07
6.68342e-08
1.88772e-07
6.67693e-08
3.93957e-07
9.32346e-08
3.89308e-07
9.30805e-08
3.85026e-07
9.28822e-08
3.81017e-07
9.27284e-08
3.77195e-07
9.26116e-08
3.73531e-07
9.25145e-08
3.7e-07
9.2425e-08
3.66595e-07
9.23616e-08
3.63296e-07
9.22952e-08
3.60083e-07
9.22434e-08
9.22042e-08
5.75115e-07
1.10935e-07
5.67599e-07
1.10634e-07
5.60666e-07
1.1036e-07
5.54259e-07
1.10152e-07
5.48306e-07
1.09993e-07
5.42729e-07
1.0987e-07
5.37464e-07
1.09772e-07
5.32452e-07
1.09701e-07
5.27644e-07
1.09646e-07
5.23009e-07
1.09605e-07
1.0958e-07
7.17895e-07
1.19503e-07
7.08556e-07
1.19098e-07
6.99752e-07
1.18752e-07
6.9145e-07
1.18471e-07
6.83595e-07
1.18262e-07
6.76141e-07
1.18109e-07
6.69056e-07
1.17991e-07
6.62302e-07
1.17905e-07
6.55842e-07
1.17846e-07
6.49638e-07
1.17808e-07
1.1779e-07
7.81893e-07
7.72891e-07
7.64087e-07
7.5552e-07
7.47199e-07
7.39127e-07
7.31301e-07
7.23719e-07
7.16376e-07
7.09255e-07
)
;

boundaryField
{
    inlet
    {
        type            calculated;
        value           nonuniform List<scalar> 0();
    }
    ami1
    {
        type            cyclicAMI;
        value           nonuniform List<scalar> 0();
    }
    walls
    {
        type            calculated;
        value           nonuniform List<scalar> 
248
(
2.90979e-14
2.43942e-14
1.84387e-14
1.28555e-14
6.40674e-15
2.90979e-14
2.43942e-14
1.84387e-14
1.28555e-14
6.40674e-15
2.90979e-14
2.43942e-14
1.84387e-14
1.28555e-14
6.40674e-15
2.90979e-14
2.43942e-14
1.84387e-14
1.28555e-14
6.40674e-15
2.90979e-14
2.43942e-14
1.84387e-14
1.28555e-14
6.40674e-15
2.90979e-14
2.43942e-14
1.84387e-14
1.28555e-14
6.40674e-15
2.90979e-14
2.43942e-14
1.84387e-14
1.28555e-14
6.40674e-15
2.90979e-14
2.43942e-14
1.84387e-14
1.28555e-14
6.40674e-15
2.90979e-14
2.43942e-14
1.84387e-14
1.28555e-14
6.40674e-15
2.90979e-14
2.43942e-14
1.84387e-14
1.28555e-14
6.40674e-15
2.90979e-14
2.43942e-14
1.84387e-14
1.28555e-14
6.40674e-15
-2.90979e-14
-2.43942e-14
-1.84387e-14
-1.28555e-14
-6.40674e-15
8.11752e-22
-2.90979e-14
-2.43942e-14
-1.84387e-14
-1.28555e-14
-6.40674e-15
8.11752e-22
-2.90979e-14
-2.43942e-14
-1.84387e-14
-1.28555e-14
-6.40674e-15
8.11752e-22
-2.90979e-14
-2.43942e-14
-1.84387e-14
-1.28555e-14
-6.40674e-15
8.21833e-22
-2.90979e-14
-2.43942e-14
-1.84387e-14
-1.28555e-14
-6.40674e-15
8.11752e-22
-2.90979e-14
-2.43942e-14
-1.84387e-14
-1.28555e-14
-6.40674e-15
8.11752e-22
-2.90979e-14
-2.43942e-14
-1.84387e-14
-1.28555e-14
-6.40674e-15
8.11574e-22
-2.90979e-14
-2.43942e-14
-1.84387e-14
-1.28555e-14
-6.40674e-15
8.11574e-22
-2.90979e-14
-2.43942e-14
-1.84387e-14
-1.28555e-14
-6.40674e-15
8.11574e-22
-2.90979e-14
-2.43942e-14
-1.84387e-14
-1.28555e-14
-6.40674e-15
8.11574e-22
-2.90979e-14
-2.43942e-14
-1.84387e-14
-1.28555e-14
-6.40674e-15
8.21752e-22
-2.90979e-14
-2.43942e-14
-2.90979e-14
-2.43942e-14
-1.84387e-14
-1.28555e-14
-6.40674e-15
8.11752e-22
6.40674e-15
1.28555e-14
1.84387e-14
2.43942e-14
2.90979e-14
-2.90979e-14
-2.43942e-14
-1.84387e-14
-1.28555e-14
-6.40674e-15
8.11752e-22
6.40674e-15
1.28555e-14
1.84387e-14
2.43942e-14
2.90979e-14
-2.90979e-14
-2.43942e-14
-1.84387e-14
-1.28555e-14
-6.40674e-15
8.11752e-22
6.40674e-15
1.28555e-14
1.84387e-14
2.43942e-14
2.90979e-14
-2.90979e-14
-2.43942e-14
-1.84387e-14
-1.28555e-14
-6.40674e-15
8.21833e-22
6.40674e-15
1.28555e-14
1.84387e-14
2.43942e-14
2.90979e-14
-2.90979e-14
-2.43942e-14
-1.84387e-14
-1.28555e-14
-6.40674e-15
8.11752e-22
6.40674e-15
1.28555e-14
1.84387e-14
2.43942e-14
2.90979e-14
-2.90979e-14
-2.43942e-14
-1.84387e-14
-1.28555e-14
-6.40674e-15
8.11752e-22
6.40674e-15
1.28555e-14
1.84387e-14
2.43942e-14
2.90979e-14
-2.90979e-14
-2.43942e-14
-1.84387e-14
-1.28555e-14
-6.40674e-15
8.11574e-22
6.40674e-15
1.28555e-14
1.84387e-14
2.43942e-14
2.90979e-14
-2.90979e-14
-2.43942e-14
-1.84387e-14
-1.28555e-14
-6.40674e-15
8.11574e-22
6.40674e-15
1.28555e-14
1.84387e-14
2.43942e-14
2.90979e-14
-2.90979e-14
-2.43942e-14
-1.84387e-14
-1.28555e-14
-6.40674e-15
8.11574e-22
6.40674e-15
1.28555e-14
1.84387e-14
2.43942e-14
2.90979e-14
-2.90979e-14
-2.43942e-14
-1.84387e-14
-1.28555e-14
-6.40674e-15
8.11574e-22
6.40674e-15
1.28555e-14
1.84387e-14
2.43942e-14
2.90979e-14
-2.90979e-14
-2.43942e-14
-1.84387e-14
-1.28555e-14
-6.40674e-15
8.21752e-22
6.40674e-15
1.28555e-14
1.84387e-14
2.43942e-14
2.90979e-14
1.28555e-14
1.84387e-14
2.43942e-14
2.90979e-14
)
;
    }
    ami2
    {
        type            cyclicAMI;
        value           nonuniform List<scalar> 0();
    }
    outlet
    {
        type            calculated;
        value           nonuniform List<scalar> 0();
    }
    procBoundary8to0
    {
        type            processor;
        value           nonuniform List<scalar> 
29
(
-7.14459e-08
-2.26219e-07
-4.36673e-07
-6.28716e-07
-7.56173e-07
-2.13633e-07
-5.31047e-07
-8.1929e-07
-1.03644e-06
-1.1729e-06
-3.98648e-07
-8.01481e-07
-1.1008e-06
-1.31773e-06
-1.45249e-06
-5.83078e-07
-1.01501e-06
-1.31145e-06
-1.52285e-06
-1.65333e-06
-7.27746e-07
-1.1592e-06
-1.44752e-06
-1.65228e-06
-1.77843e-06
-1.82117e-06
-1.69728e-06
-1.82117e-06
-1.86325e-06
)
;
    }
    procBoundary8to1
    {
        type            processor;
        value           nonuniform List<scalar> 
33
(
-7.91027e-07
-1.21519e-06
-1.49676e-06
-7.5615e-07
-1.17288e-06
-1.45246e-06
-1.6533e-06
-1.77841e-06
-1.82117e-06
-6.28678e-07
-1.03637e-06
-1.31761e-06
-1.52274e-06
-1.65222e-06
-1.69726e-06
-4.36582e-07
-8.19053e-07
-1.10046e-06
-1.31117e-06
-1.44738e-06
-1.49672e-06
-2.26306e-07
-5.30939e-07
-8.01039e-07
-1.01462e-06
-1.15901e-06
-1.21514e-06
-7.14918e-08
-2.13794e-07
-3.98916e-07
-5.83294e-07
-7.27817e-07
-7.91032e-07
)
;
    }
    procBoundary8to7
    {
        type            processor;
        value           nonuniform List<scalar> 
68
(
6.23957e-08
2.01709e-07
3.93282e-07
5.62268e-07
6.75125e-07
1.88859e-07
5.02352e-07
8.11592e-07
1.03533e-06
1.16885e-06
3.57022e-07
7.86556e-07
1.12283e-06
1.35582e-06
1.49374e-06
5.18505e-07
1.003e-06
1.34316e-06
1.57712e-06
1.71687e-06
6.43608e-07
1.14429e-06
1.48169e-06
1.71341e-06
1.85279e-06
1.89915e-06
7.02302e-07
1.20371e-06
1.53457e-06
1.76168e-06
1.89911e-06
1.94538e-06
6.75056e-07
-1.06795e-07
1.16885e-06
-9.37595e-08
1.49375e-06
1.71686e-06
1.85278e-06
1.89913e-06
5.5634e-07
1.03437e-06
4.07648e-08
1.35598e-06
1.5772e-06
1.71343e-06
1.76172e-06
3.89271e-07
8.10124e-07
5.2427e-08
1.12306e-06
1.34327e-06
1.48172e-06
1.5346e-06
1.99503e-07
4.99246e-07
6.04893e-08
7.86586e-07
1.00304e-06
1.14429e-06
1.20372e-06
6.16513e-08
1.86824e-07
6.67234e-08
3.56927e-07
5.18515e-07
6.43666e-07
7.02337e-07
)
;
    }
    procBoundary8to9
    {
        type            processor;
        value           nonuniform List<scalar> 
132
(
-1.18263e-07
-1.17909e-07
-1.17574e-07
-1.17294e-07
-1.17088e-07
-1.16934e-07
-1.16817e-07
-1.16731e-07
-1.16672e-07
-1.16642e-07
-1.16654e-07
-1.0523e-07
-1.04795e-07
-1.04379e-07
-1.03991e-07
-1.03641e-07
-1.03333e-07
-1.03065e-07
-1.02839e-07
-1.02648e-07
-1.02492e-07
-1.02369e-07
-8.38085e-08
-8.36121e-08
-8.34178e-08
-8.32292e-08
-8.30462e-08
-8.28741e-08
-8.27133e-08
-8.25651e-08
-8.24301e-08
-8.23061e-08
-8.21874e-08
-5.73069e-08
-5.73029e-08
-5.72924e-08
-5.72772e-08
-5.72588e-08
-5.72385e-08
-5.72163e-08
-5.71932e-08
-5.71686e-08
-5.71415e-08
-5.71133e-08
-6.08959e-09
-5.97779e-09
-5.86645e-09
-5.75631e-09
-5.6484e-09
-5.54395e-09
-5.44382e-09
-5.34836e-09
-5.25735e-09
-5.1722e-09
-5.08699e-09
-3.178e-08
-3.1752e-08
-3.17282e-08
-3.17082e-08
-3.16919e-08
-3.16782e-08
-3.16661e-08
-3.16548e-08
-3.1644e-08
-3.1634e-08
-3.16235e-08
-2.04115e-09
-1.99694e-09
-1.95412e-09
-1.9132e-09
-1.87467e-09
-1.83882e-09
-1.80567e-09
-1.77515e-09
-1.7471e-09
-1.72171e-09
-1.69722e-09
2.80721e-08
2.81376e-08
2.8199e-08
2.82557e-08
2.83069e-08
2.83523e-08
2.83918e-08
2.8426e-08
2.8455e-08
2.84787e-08
2.84994e-08
5.73352e-08
5.73366e-08
5.73316e-08
5.73207e-08
5.73046e-08
5.72841e-08
5.72605e-08
5.72346e-08
5.72071e-08
5.71764e-08
5.71444e-08
8.3838e-08
8.36467e-08
8.34557e-08
8.32734e-08
8.3092e-08
8.29184e-08
8.27549e-08
8.26027e-08
8.24651e-08
8.2338e-08
8.22173e-08
1.05244e-07
1.04814e-07
1.04404e-07
1.04022e-07