/*--------------------------------*- C++ -*----------------------------------*\
| =========                 |                                                 |
| \\      /  F ield         | OpenFOAM: The Open Source CFD Toolbox           |
|  \\    /   O peration     | Version:  2212                                  |
|   \\  /    A nd           | Website:  www.openfoam.com                      |
|    \\/     M anipulation  |                                                 |
\*---------------------------------------------------------------------------*/
FoamFile
{
    version     2.0;
    format      ascii;
    arch        "LSB;label=32;scalar=64";
    class       volVectorField;
    location    "3";
    object      U;
}
// * * * * * * * * * * * * * * * * * * * * * * * * * * * * * * * * * * * * * //

dimensions      [0 1 -1 0 0 0 0];

internalField   nonuniform List<vector> 
690
(
(0.0281012 -3.43584e-05 -2.92776e-05)
(0.0277406 -4.03483e-05 -2.42167e-05)
(0.0273898 -4.51665e-05 -1.46117e-05)
(0.027038 -4.71673e-05 -6.95836e-06)
(0.0267025 -4.80216e-05 -2.69063e-06)
(0.0263717 -4.72992e-05 2.24945e-07)
(0.0260533 -4.6742e-05 1.92889e-06)
(0.0257461 -4.55341e-05 3.60544e-06)
(0.025444 -4.516e-05 4.51693e-06)
(0.0251392 -4.52918e-05 4.72524e-06)
(0.0248447 -4.36399e-05 4.91963e-06)
(0.0461931 -0.000115507 -0.000231077)
(0.0456978 -0.000128502 -0.000236281)
(0.0452282 -0.000137238 -0.000234808)
(0.0447453 -0.0001459 -0.000232162)
(0.0442865 -0.000150691 -0.000228267)
(0.0438295 -0.000152222 -0.000222675)
(0.0433864 -0.000153566 -0.000217223)
(0.0429537 -0.000155452 -0.00021081)
(0.0425161 -0.000162442 -0.000207594)
(0.0420709 -0.000169058 -0.00020255)
(0.0416382 -0.000170914 -0.000191096)
(0.0632186 -0.000237316 -0.0007641)
(0.0626569 -0.000241123 -0.000776596)
(0.0621112 -0.000236694 -0.000774735)
(0.0615263 -0.000232459 -0.000767265)
(0.0609586 -0.000227406 -0.000754689)
(0.0603662 -0.000224329 -0.000740271)
(0.0597876 -0.000223207 -0.000723758)
(0.0591998 -0.000227013 -0.000709158)
(0.0586055 -0.000234817 -0.00069566)
(0.0580276 -0.000233454 -0.000666406)
(0.0574482 -0.000219465 -0.000608139)
(0.0743796 -7.43532e-05 -0.00110797)
(0.0737172 -9.79635e-05 -0.00112225)
(0.073027 -0.00011947 -0.00112572)
(0.0723096 -0.000142048 -0.00112072)
(0.0715752 -0.000163288 -0.00110972)
(0.0708302 -0.000179137 -0.00109485)
(0.0700768 -0.000189564 -0.00107436)
(0.0693332 -0.000199932 -0.0010526)
(0.0685817 -0.000206008 -0.00102794)
(0.0678605 -0.00020887 -0.00100054)
(0.0671401 -0.000211514 -0.000970466)
(0.0802142 -3.4305e-05 -0.0014233)
(0.0794423 -7.79296e-05 -0.00141687)
(0.0786518 -0.000121105 -0.00140333)
(0.0778477 -0.000156889 -0.00138417)
(0.0770378 -0.000181984 -0.00136155)
(0.0762293 -0.000201757 -0.00133587)
(0.0754266 -0.000216029 -0.00130679)
(0.0746329 -0.000226106 -0.0012762)
(0.0738512 -0.000231338 -0.00124578)
(0.0730803 -0.000230984 -0.00121531)
(0.072321 -0.000224947 -0.00118443)
(0.0435958 -0.000175515 -4.57771e-05)
(0.043089 -0.000153279 -4.36721e-05)
(0.0425999 -0.000134197 -3.75941e-05)
(0.0420949 -0.000120784 -3.07838e-05)
(0.0416199 -0.000111214 -2.46253e-05)
(0.0411455 -0.000101964 -1.88537e-05)
(0.0406905 -9.44871e-05 -1.42318e-05)
(0.0402515 -8.67743e-05 -1.07826e-05)
(0.03982 -8.33375e-05 -1.06915e-05)
(0.0393907 -8.13612e-05 -1.08295e-05)
(0.038984 -8.11902e-05 -1.31012e-05)
(0.0752856 -0.000157899 -5.0908e-05)
(0.0749348 -0.000168519 -7.91787e-05)
(0.0746024 -0.000180239 -0.000101358)
(0.0742248 -0.000188304 -0.000117201)
(0.073876 -0.000195796 -0.000130621)
(0.0734885 -0.000193218 -0.000134765)
(0.0731234 -0.0001919 -0.000138396)
(0.0727341 -0.000186139 -0.000138324)
(0.0723473 -0.000178294 -0.000135948)
(0.0719698 -0.000184802 -0.000142818)
(0.0715677 -0.000189404 -0.000146979)
(0.0920921 -0.000325232 -0.000589621)
(0.0921042 -0.000315374 -0.000623208)
(0.0920801 -0.000305981 -0.000646865)
(0.0920518 -0.000293511 -0.000658906)
(0.0919924 -0.000285177 -0.000667124)
(0.0919246 -0.000277819 -0.00066978)
(0.0918267 -0.000278692 -0.000675578)
(0.0917168 -0.000274521 -0.000672485)
(0.0915893 -0.000282908 -0.000678794)
(0.0914556 -0.000292669 -0.000681738)
(0.091299 -0.000301567 -0.000677628)
(0.10047 -4.42941e-05 -0.00105733)
(0.100562 -6.23148e-05 -0.00108863)
(0.100623 -8.21094e-05 -0.00110918)
(0.100665 -0.000104593 -0.00112154)
(0.100679 -0.00012802 -0.00112896)
(0.100673 -0.000149231 -0.00113127)
(0.100644 -0.00017199 -0.00113492)
(0.100595 -0.000190308 -0.00112942)
(0.100535 -0.000209451 -0.00112563)
(0.100448 -0.000225549 -0.00111647)
(0.100358 -0.000235118 -0.00109768)
(0.104597 0.000101099 -0.00148703)
(0.104634 4.82687e-05 -0.00149204)
(0.10465 -2.96625e-06 -0.00148956)
(0.104647 -5.07603e-05 -0.00148222)
(0.104627 -9.45872e-05 -0.00147109)
(0.104591 -0.000133886 -0.00145631)
(0.104542 -0.000168698 -0.00143794)
(0.10448 -0.000198991 -0.00141708)
(0.10441 -0.000224439 -0.00139172)
(0.104331 -0.000244401 -0.00136131)
(0.10425 -0.0002589 -0.00133152)
(0.0575826 -0.000767959 -9.83915e-05)
(0.0568885 -0.000693949 -0.000102046)
(0.056269 -0.000583279 -9.60552e-05)
(0.0556553 -0.000502355 -9.85405e-05)
(0.0551134 -0.000456562 -0.000102493)
(0.0545591 -0.000427157 -0.000104957)
(0.0540536 -0.000404695 -0.000105608)
(0.0535443 -0.000385612 -0.00010617)
(0.0530598 -0.000371546 -0.000108087)
(0.0525913 -0.000358677 -0.000107791)
(0.0521276 -0.000348275 -0.000108036)
(0.089989 -0.000777686 1.57397e-05)
(0.0898261 -0.000745103 -2.94721e-05)
(0.0896653 -0.000710467 -6.6047e-05)
(0.0895257 -0.00068741 -9.97171e-05)
(0.0893738 -0.000668457 -0.000127033)
(0.0892371 -0.00064688 -0.000146228)
(0.0890876 -0.000630782 -0.000163052)
(0.088942 -0.00060659 -0.000172785)
(0.0887899 -0.000598401 -0.00018704)
(0.088639 -0.000585593 -0.000196636)
(0.0884789 -0.000570834 -0.000203793)
(0.103668 -0.000871468 -0.000397224)
(0.103883 -0.000826984 -0.00043748)
(0.104088 -0.000788143 -0.000474559)
(0.1043 -0.000757724 -0.000508693)
(0.104495 -0.000733663 -0.000538102)
(0.104693 -0.000710993 -0.00056075)
(0.104877 -0.000688236 -0.000577041)
(0.105062 -0.000669422 -0.000590129)
(0.105238 -0.000660908 -0.000604844)
(0.105403 -0.000655968 -0.000617597)
(0.105563 -0.00065491 -0.000628722)
(0.110372 -0.000482195 -0.000852123)
(0.11071 -0.000466442 -0.0008844)
(0.111039 -0.00045561 -0.000912679)
(0.111358 -0.000448304 -0.00093656)
(0.111664 -0.000444597 -0.000956422)
(0.11196 -0.000443101 -0.000972088)
(0.112245 -0.000443368 -0.000984297)
(0.112517 -0.000443985 -0.000992379)
(0.11278 -0.000447867 -0.000998369)
(0.113029 -0.000454545 -0.00100301)
(0.113271 -0.000464075 -0.00100728)
(0.113712 -0.000178868 -0.00129309)
(0.114053 -0.000195974 -0.00130101)
(0.114382 -0.000214555 -0.00130565)
(0.1147 -0.000233679 -0.00130698)
(0.115006 -0.000252779 -0.00130536)
(0.115302 -0.000271075 -0.00130096)
(0.115587 -0.000288573 -0.00129398)
(0.115863 -0.000305237 -0.00128483)
(0.116129 -0.000321511 -0.00127311)
(0.116388 -0.000337069 -0.00125928)
(0.116639 -0.000351516 -0.00124356)
(0.0687663 -0.00128786 2.34958e-05)
(0.067839 -0.00119868 1.96696e-05)
(0.0669913 -0.0011109 1.21617e-05)
(0.0662049 -0.00102924 3.58755e-06)
(0.0654778 -0.000957501 -1.62166e-06)
(0.0647959 -0.000896837 -4.70546e-06)
(0.0641564 -0.000844496 -7.03949e-06)
(0.0635477 -0.000801972 -1.13571e-05)
(0.0629654 -0.000765049 -1.48146e-05)
(0.0624071 -0.000733576 -1.82491e-05)
(0.0618624 -0.000707876 -2.31896e-05)
(0.098229 -0.00139531 0.000135394)
(0.0980475 -0.00131378 0.000136364)
(0.0978898 -0.00123625 0.000135642)
(0.0977623 -0.0011659 0.000131935)
(0.0976451 -0.00110463 0.000124477)
(0.0975493 -0.00105206 0.000114027)
(0.0974605 -0.00100684 0.000100427)
(0.0973863 -0.000967608 8.63044e-05)
(0.0973175 -0.000934829 7.26614e-05)
(0.0972536 -0.000903379 6.07535e-05)
(0.0971993 -0.000876096 4.9815e-05)
(0.109782 -0.00136522 -0.00010228)
(0.110007 -0.00129721 -0.000111737)
(0.110239 -0.00123578 -0.000123982)
(0.110477 -0.00118091 -0.000138368)
(0.110717 -0.00113292 -0.000154513)
(0.110962 -0.00109055 -0.000170897)
(0.111208 -0.00105266 -0.000186629)
(0.111456 -0.00101835 -0.000200706)
(0.111705 -0.000989064 -0.000215065)
(0.111953 -0.000964254 -0.000229187)
(0.112202 -0.000940458 -0.000240893)
(0.115445 -0.000877956 -0.000447174)
(0.115841 -0.000837661 -0.000460092)
(0.116232 -0.000802218 -0.000473766)
(0.116619 -0.000771275 -0.000487397)
(0.117001 -0.000744646 -0.00050052)
(0.117378 -0.000721567 -0.000512378)
(0.117749 -0.000701477 -0.000522688)
(0.118114 -0.000684194 -0.000531354)
(0.118474 -0.000670394 -0.000539323)
(0.118829 -0.000659975 -0.000546871)
(0.119179 -0.000651407 -0.000553223)
(0.118288 -0.000434924 -0.000796214)
(0.118737 -0.000425424 -0.000797889)
(0.119178 -0.000418035 -0.000799303)
(0.119609 -0.000412374 -0.000800118)
(0.120032 -0.000408185 -0.000800162)
(0.120447 -0.000405225 -0.000799189)
(0.120854 -0.00040342 -0.00079699)
(0.121253 -0.00040252 -0.000793592)
(0.121645 -0.000402678 -0.000789045)
(0.122031 -0.000404045 -0.000783731)
(0.12241 -0.000405874 -0.00077752)
(0.0770136 -0.0016213 8.53405e-07)
(0.0759892 -0.00153739 4.57208e-05)
(0.0750253 -0.00145646 7.95196e-05)
(0.0741171 -0.00138185 9.95413e-05)
(0.0732576 -0.00131485 0.000111668)
(0.0724433 -0.0012545 0.000117076)
(0.0716699 -0.00119913 0.000118399)
(0.0709333 -0.0011491 0.000116429)
(0.0702295 -0.00110413 0.000112625)
(0.0695545 -0.00106407 0.000107006)
(0.0689057 -0.00102879 9.98963e-05)
(0.103246 -0.00177896 2.086e-05)
(0.103063 -0.0017022 7.18819e-05)
(0.102895 -0.00162924 0.000115457)
(0.102741 -0.00156185 0.000151847)
(0.102602 -0.00149851 0.000180977)
(0.102478 -0.00143821 0.000203549)
(0.102367 -0.00138039 0.000219778)
(0.10227 -0.00132771 0.000227293)
(0.102185 -0.00128007 0.000229191)
(0.102109 -0.00123704 0.000228233)
(0.102044 -0.00119517 0.000225829)
(0.113266 -0.00165896 -3.74265e-05)
(0.113501 -0.00159796 -1.30158e-05)
(0.113737 -0.0015398 6.33478e-06)
(0.113975 -0.00148492 2.18919e-05)
(0.114216 -0.00143403 3.4433e-05)
(0.114459 -0.00138771 4.45913e-05)
(0.114704 -0.00134582 5.23334e-05)
(0.11495 -0.00130664 5.77215e-05)
(0.115197 -0.00127009 6.0218e-05)
(0.115445 -0.00123652 6.03834e-05)
(0.115693 -0.00120332 5.92826e-05)
(0.118198 -0.00110278 -0.000179723)
(0.118618 -0.00106371 -0.000174718)
(0.119031 -0.00102667 -0.000171753)
(0.119438 -0.000991907 -0.000170461)
(0.119841 -0.000959755 -0.000170322)
(0.120238 -0.000930455 -0.000170456)
(0.120631 -0.000903997 -0.000170161)
(0.12102 -0.00088009 -0.00016967)
(0.121404 -0.000858614 -0.00016947)
(0.121785 -0.000839608 -0.000169867)
(0.122162 -0.000821699 -0.000170845)
(0.120691 -0.000565396 -0.000357093)
(0.121186 -0.000548882 -0.000353822)
(0.121672 -0.00053363 -0.000351414)
(0.122148 -0.00051961 -0.000349632)
(0.122615 -0.000506843 -0.000348248)
(0.123074 -0.000495329 -0.000347001)
(0.123526 -0.000485044 -0.00034567)
(0.12397 -0.00047591 -0.000344181)
(0.124408 -0.000467891 -0.000342551)
(0.124839 -0.000461029 -0.000340913)
(0.125264 -0.000454757 -0.0003391)
(0.12146 -7.88963e-05 -0.000516744)
(0.121972 -7.79053e-05 -0.000506496)
(0.122473 -7.68962e-05 -0.000496519)
(0.122964 -7.58333e-05 -0.00048691)
(0.123446 -7.47202e-05 -0.000477755)
(0.123919 -7.35829e-05 -0.000469102)
(0.124384 -7.24659e-05 -0.000460965)
(0.124842 -7.14024e-05 -0.000453339)
(0.125292 -7.04271e-05 -0.000446204)
(0.125735 -6.95672e-05 -0.000439641)
(0.126172 -6.8767e-05 -0.000433234)
(0.0809705 -0.00163873 -4.15363e-05)
(0.0800357 -0.00159248 1.64056e-05)
(0.0791183 -0.00154263 6.66636e-05)
(0.0782241 -0.00149303 0.000110532)
(0.0773548 -0.00144488 0.000141271)
(0.076511 -0.00139866 0.000162045)
(0.0756924 -0.0013543 0.000176912)
(0.0748989 -0.00131198 0.000186865)
(0.0741301 -0.00127236 0.000192265)
(0.0733845 -0.00123472 0.000193477)
(0.0726625 -0.00119989 0.000190234)
(0.105429 -0.00177398 -0.000126683)
(0.105345 -0.0017382 -5.86273e-05)
(0.105255 -0.00170094 4.2288e-06)
(0.105161 -0.00165827 6.09373e-05)
(0.105065 -0.00161515 0.000110613)
(0.104968 -0.00157262 0.000153186)
(0.104872 -0.00153076 0.000188896)
(0.104776 -0.00148998 0.00021779)
(0.104684 -0.00145007 0.000240893)
(0.104595 -0.00141184 0.00025897)
(0.10451 -0.00137032 0.000272187)
(0.114595 -0.00161038 -6.67775e-07)
(0.114881 -0.00158131 3.21453e-05)
(0.11516 -0.00155107 6.23237e-05)
(0.115433 -0.00151964 9.05587e-05)
(0.1157 -0.00148781 0.000116703)
(0.115962 -0.00145644 0.000140905)
(0.116219 -0.0014262 0.000163383)
(0.116473 -0.00139717 0.000183482)
(0.116723 -0.00136904 0.000200945)
(0.116971 -0.00134206 0.000215877)
(0.117216 -0.00131401 0.000228604)
(0.119135 -0.00105531 7.95752e-05)
(0.119579 -0.00103546 8.6687e-05)
(0.120013 -0.00101564 9.34429e-05)
(0.120439 -0.000995774 9.97545e-05)
(0.120858 -0.000976073 0.000105592)
(0.121269 -0.000956806 0.000110954)
(0.121673 -0.000938154 0.000115881)
(0.122071 -0.000920198 0.00012039)
(0.122463 -0.000902916 0.000124468)
(0.12285 -0.00088649 0.000128149)
(0.123231 -0.000869951 0.000131437)
(0.12146 -0.00051816 7.78494e-05)
(0.121971 -0.000508126 7.60256e-05)
(0.122472 -0.000498369 7.4192e-05)
(0.122963 -0.000488959 7.23834e-05)
(0.123445 -0.000479969 7.06663e-05)
(0.123918 -0.000471436 6.91023e-05)
(0.124383 -0.000463376 6.77433e-05)
(0.12484 -0.000455786 6.66145e-05)
(0.12529 -0.000448668 6.57202e-05)
(0.125733 -0.000442084 6.50587e-05)
(0.12617 -0.000435653 6.45592e-05)
(0.122186 -1.20321e-06 2.86426e-07)
(0.122717 -1.52022e-06 7.23926e-08)
(0.123237 -1.82998e-06 -1.5021e-07)
(0.123747 -2.10959e-06 -3.72502e-07)
(0.124247 -2.33814e-06 -5.85513e-07)
(0.124737 -2.50284e-06 -7.74407e-07)
(0.125218 -2.60237e-06 -9.27908e-07)
(0.125691 -2.6414e-06 -1.03925e-06)
(0.126157 -2.63016e-06 -1.10439e-06)
(0.126615 -2.57452e-06 -1.12547e-06)
(0.127067 -2.4848e-06 -1.10847e-06)
(0.0802112 -0.00142331 3.89553e-05)
(0.0794381 -0.00141734 8.10745e-05)
(0.0786468 -0.00140416 0.00012255)
(0.0778422 -0.00138521 0.000156653)
(0.0770319 -0.00136257 0.000180749)
(0.076223 -0.00133691 0.000199764)
(0.0754201 -0.00130801 0.000213608)
(0.0746262 -0.00127757 0.000223554)
(0.0738443 -0.00124723 0.000228828)
(0.0730733 -0.00121716 0.000228884)
(0.0723141 -0.00118656 0.000222889)
(0.104594 -0.00148822 -9.97369e-05)
(0.104632 -0.00149373 -4.88268e-05)
(0.104648 -0.00149176 6.09774e-07)
(0.104645 -0.00148485 4.69355e-05)
(0.104625 -0.00147395 8.96269e-05)
(0.104589 -0.00145934 0.000128206)
(0.10454 -0.00144103 0.000162646)
(0.104478 -0.0014201 0.000192903)
(0.104409 -0.0013948 0.000218332)
(0.10433 -0.00136467 0.000237982)
(0.10425 -0.00133434 0.000252557)
(0.11371 -0.00129439 0.000176968)
(0.114051 -0.00130271 0.000192203)
(0.11438 -0.00130779 0.000209077)
(0.114698 -0.00130955 0.000226902)
(0.115005 -0.00130829 0.000245133)
(0.115301 -0.00130415 0.000263008)
(0.115586 -0.00129733 0.000280431)
(0.115862 -0.00128819 0.000297238)
(0.116129 -0.00127646 0.000313744)
(0.116388 -0.0012624 0.000329356)
(0.11664 -0.00124658 0.000344284)
(0.118286 -0.000797115 0.000433306)
(0.118735 -0.000798839 0.000422319)
(0.119176 -0.000800354 0.000413512)
(0.119607 -0.00080136 0.000406672)
(0.12003 -0.000801636 0.000401619)
(0.120445 -0.000800893 0.00039815)
(0.120853 -0.000798889 0.000396124)
(0.121252 -0.000795623 0.000395237)
(0.121644 -0.000791167 0.000395561)
(0.12203 -0.000785847 0.000397155)
(0.122409 -0.000779696 0.000399462)
(0.12069 -0.000358166 0.000564524)
(0.121185 -0.000354768 0.000547029)
(0.121671 -0.000352254 0.000530775)
(0.122147 -0.000350411 0.000515829)
(0.122614 -0.000349027 0.000502285)
(0.123073 -0.00034784 0.000490183)
(0.123525 -0.00034661 0.000479517)
(0.123969 -0.000345239 0.000470195)
(0.124407 -0.000343741 0.000462144)
(0.124838 -0.000342228 0.000455375)
(0.125264 -0.000340573 0.000449355)
(0.12146 7.62373e-05 0.000517583)
(0.121971 7.46042e-05 0.000506952)
(0.122473 7.29639e-05 0.000496559)
(0.122964 7.13491e-05 0.000486524)
(0.123446 6.98161e-05 0.000476952)
(0.123919 6.84148e-05 0.000467917)
(0.124384 6.718e-05 0.000459453)
(0.124841 6.61298e-05 0.000451567)
(0.125291 6.52631e-05 0.000444253)
(0.125734 6.45948e-05 0.000437584)
(0.126171 6.40376e-05 0.000431149)
(0.0743742 -0.00111111 7.72035e-05)
(0.073709 -0.00112627 0.000100016)
(0.073017 -0.00113034 0.000120528)
(0.0722974 -0.00112545 0.00014185)
(0.0715623 -0.00111435 0.000162172)
(0.0708152 -0.00109892 0.000177674)
(0.0700621 -0.00107803 0.000187916)
(0.0693164 -0.00105578 0.000197619)
(0.0685642 -0.00103127 0.000204408)
(0.0678425 -0.00100505 0.000209963)
(0.0671188 -0.000973837 0.000211743)
(0.0664371 -0.000940885 0.000214141)
(0.100463 -0.00106159 4.41199e-05)
(0.100557 -0.00109333 6.05419e-05)
(0.100619 -0.00111435 7.89062e-05)
(0.100663 -0.00112725 0.000100537)
(0.100678 -0.00113446 0.000123245)
(0.100675 -0.00113689 0.00014435)
(0.100647 -0.00114011 0.000166804)
(0.1006 -0.0011336 0.00018495)
(0.100541 -0.00113035 0.000204849)
(0.100458 -0.00111872 0.00022016)
(0.100372 -0.00109982 0.000231024)
(0.100266 -0.001075 0.000239047)
(0.110362 -0.000854422 0.000479702)
(0.110702 -0.000886748 0.000461899)
(0.111032 -0.000915107 0.000449408)
(0.111353 -0.000939253 0.00044098)
(0.111662 -0.000959364 0.000436614)
(0.11196 -0.000975391 0.000434998)
(0.112247 -0.000987806 0.000435472)
(0.112522 -0.000995995 0.000436579)
(0.112788 -0.0010018 0.000440823)
(0.113039 -0.00100551 0.000447176)
(0.113283 -0.00100937 0.000457435)
(0.115437 -0.000447473 0.000876485)
(0.115833 -0.000459937 0.000834451)
(0.116226 -0.000473313 0.000797436)
(0.116613 -0.000486888 0.000765247)
(0.116997 -0.000500151 0.000737762)
(0.117375 -0.000512306 0.000714231)
(0.117748 -0.000522927 0.000694008)
(0.118115 -0.000531839 0.000676842)
(0.118477 -0.00053991 0.000663249)
(0.118833 -0.000547281 0.000653026)
(0.119184 -0.000553781 0.000645068)
(0.118193 -0.000180236 0.00110278)
(0.118613 -0.000174537 0.00106262)
(0.119027 -0.000170979 0.00102446)
(0.119435 -0.000169272 0.000988651)
(0.119838 -0.000168922 0.000955589)
(0.120235 -0.000169117 0.000925528)
(0.120629 -0.000168979 0.000898557)
(0.121019 -0.000168682 0.00087437)
(0.121404 -0.000168688 0.000852781)
(0.121786 -0.000169271 0.000833788)
(0.122164 -0.000170498 0.000816065)
(0.119134 7.798e-05 0.00105577)
(0.119578 8.57064e-05 0.0010353)
(0.120013 9.30392e-05 0.00101478)
(0.120439 9.98663e-05 0.000994182)
(0.120857 0.000106142 0.000973764)
(0.121268 0.000111848 0.000953839)
(0.121673 0.000117004 0.000934626)
(0.122071 0.000121647 0.000916228)
(0.122464 0.000125754 0.0008986)
(0.122851 0.000129428 0.000881953)
(0.123233 0.000132598 0.000865231)
(0.0632049 -0.00077177 0.000247724)
(0.0626395 -0.000784278 0.000249795)
(0.0620912 -0.000782251 0.000243622)
(0.0615033 -0.000774283 0.00023751)
(0.0609341 -0.000761248 0.000231083)
(0.0603389 -0.000745882 0.000226626)
(0.0597609 -0.00072846 0.000224486)
(0.0591682 -0.000712454 0.000226911)
(0.0585796 -0.00069867 0.000234373)
(0.0579952 -0.000667613 0.00023195)
(0.057409 -0.000604457 0.000213436)
(0.056864 -0.000542859 0.000199597)
(0.0920675 -0.000595738 0.000330609)
(0.0920842 -0.000628046 0.000318072)
(0.0920663 -0.000651331 0.000306907)
(0.0920427 -0.000663594 0.000293349)
(0.0919888 -0.000671918 0.000284144)
(0.0919251 -0.00067513 0.000276648)
(0.0918312 -0.00068005 0.000276363)
(0.0917248 -0.000679665 0.000275138)
(0.0915963 -0.000684223 0.000282274)
(0.0914665 -0.000678826 0.000284181)
(0.0913155 -0.000679368 0.000298939)
(0.091145 -0.000670705 0.00030914)
(0.103638 -0.000397009 0.000869306)
(0.103857 -0.000436946 0.000823338)
(0.104067 -0.000473903 0.000783212)
(0.104286 -0.000508468 0.000752166)
(0.104486 -0.000538585 0.000728003)
(0.10469 -0.000562026 0.000705777)
(0.10488 -0.000578881 0.000683389)
(0.105071 -0.000592857 0.000665517)
(0.10525 -0.000607823 0.00065756)
(0.105419 -0.000619136 0.000651675)
(0.105585 -0.000631665 0.000653227)
(0.109759 -0.000100589 0.001365)
(0.109986 -0.00010908 0.00129546)
(0.11022 -0.000120746 0.00123274)
(0.110461 -0.000135011 0.0011769)
(0.110705 -0.000151414 0.00112823)
(0.110953 -0.000168209 0.00108554)
(0.111203 -0.000184505 0.00104759)
(0.111455 -0.000199245 0.00101339)
(0.111707 -0.000213966 0.00098425)
(0.111958 -0.000227939 0.000959577)
(0.11221 -0.00024049 0.00093669)
(0.113255 -3.7034e-05 0.00166068)
(0.11349 -1.1484e-05 0.00159875)
(0.113727 8.76528e-06 0.00153956)
(0.113966 2.49033e-05 0.00148367)
(0.114207 3.77261e-05 0.00143183)
(0.114452 4.79058e-05 0.00138459)
(0.114699 5.55062e-05 0.00134223)
(0.114946 6.05986e-05 0.00130273)
(0.115195 6.27461e-05 0.00126592)
(0.115445 6.25881e-05 0.00123221)
(0.115695 6.09683e-05 0.00119908)
(0.114592 -2.01993e-06 0.00161226)
(0.114878 3.19195e-05 0.00158273)
(0.115157 6.30534e-05 0.0015519)
(0.11543 9.20641e-05 0.00151977)
(0.115698 0.000118824 0.00148717)
(0.11596 0.00014343 0.00145498)
(0.116218 0.000166098 0.00142398)
(0.116472 0.000186317 0.00139431)
(0.116723 0.000203662 0.0013656)
(0.116972 0.000218459 0.00133816)
(0.117218 0.000230911 0.00130966)
(0.0462032 -0.000234292 0.000124346)
(0.0456968 -0.000238689 0.00013493)
(0.0452162 -0.000236788 0.000141713)
(0.0447277 -0.000234045 0.000149112)
(0.0442631 -0.000230131 0.00015317)
(0.0438018 -0.00022448 0.000154209)
(0.043356 -0.000218748 0.000154817)
(0.0429198 -0.000212423 0.000156626)
(0.0424798 -0.000208909 0.00016246)
(0.0420406 -0.000202129 0.000166189)
(0.041597 -0.000189313 0.000165728)
(0.0411752 -0.000173959 0.000165358)
(0.0752732 -4.67661e-05 0.000155341)
(0.074923 -7.53755e-05 0.0001655)
(0.0745926 -9.86182e-05 0.000177208)
(0.0742143 -0.000115965 0.00018628)
(0.0738658 -0.000130128 0.000193807)
(0.0734768 -0.000135539 0.000192037)
(0.0731119 -0.000139521 0.000190634)
(0.0727198 -0.00013999 0.000184969)
(0.0723347 -0.000139119 0.000178885)
(0.0719523 -0.000142289 0.000179647)
(0.0715458 -0.000156125 0.000197642)
(0.0711396 -0.000162194 0.000206596)
(0.0899434 1.74506e-05 0.000775858)
(0.0897884 -2.73298e-05 0.000742085)
(0.0896361 -6.46467e-05 0.00070796)
(0.0895031 -9.90769e-05 0.000685206)
(0.0893579 -0.000127092 0.000666452)
(0.0892262 -0.000146615 0.000644597)
(0.0890823 -0.000164191 0.000629187)
(0.0889396 -0.000173618 0.000603871)
(0.0887928 -0.000188272 0.000595894)
(0.0886414 -0.000199311 0.000584983)
(0.0884855 -0.00020632 0.00056947)
(0.0981924 0.00013704 0.00139934)
(0.0980145 0.000138377 0.00131752)
(0.0978609 0.000137738 0.00123948)
(0.0977379 0.00013403 0.00116819)
(0.0976254 0.000126461 0.00110587)
(0.0975339 0.000115781 0.00105235)
(0.0974497 0.000101769 0.00100642)
(0.0973793 8.72694e-05 0.000966544)
(0.0973146 7.32064e-05 0.000933229)
(0.0972535 6.04597e-05 0.000902633)
(0.0972017 4.87992e-05 0.000873824)
(0.103229 2.01171e-05 0.00178307)
(0.103047 7.2191e-05 0.00170625)
(0.102879 0.000116512 0.00163284)
(0.102726 0.000153419 0.00156454)
(0.102589 0.000182866 0.00150042)
(0.102467 0.000205498 0.00143933)
(0.102358 0.000222303 0.00138076)
(0.102263 0.000229665 0.00132733)
(0.102181 0.00023129 0.00127901)
(0.102107 0.000229922 0.00123552)
(0.102044 0.000227024 0.001193)
(0.105424 -0.000129123 0.00177678)
(0.105341 -6.00005e-05 0.00174101)
(0.105251 3.80334e-06 0.00170356)
(0.105157 6.13672e-05 0.0016604)
(0.105061 0.000111763 0.00161656)
(0.104965 0.000154958 0.0015732)
(0.104869 0.000190987 0.00153056)
(0.104774 0.000220228 0.001489)
(0.104683 0.000243259 0.00144841)
(0.104595 0.000261029 0.0014095)
(0.10451 0.00027389 0.00136739)
(0.0281137 -2.86805e-05 3.6128e-05)
(0.0277447 -2.39357e-05 4.15822e-05)
(0.0273867 -1.47055e-05 4.58136e-05)
(0.0270303 -7.17242e-06 4.76029e-05)
(0.026691 -2.84912e-06 4.82874e-05)
(0.0263575 5.76464e-08 4.74996e-05)
(0.0260371 1.71237e-06 4.67841e-05)
(0.0257281 3.36046e-06 4.54881e-05)
(0.0254237 4.06709e-06 4.49359e-05)
(0.0251234 4.01228e-06 4.4016e-05)
(0.0248254 3.99886e-06 4.29498e-05)
(0.0245435 4.42799e-06 4.18644e-05)
(0.0436202 -4.68418e-05 0.00017884)
(0.0431005 -4.48682e-05 0.000155777)
(0.0425994 -3.91961e-05 0.000135935)
(0.0420869 -3.22848e-05 0.000121804)
(0.0416048 -2.58192e-05 0.00011157)
(0.0411255 -1.97812e-05 0.000101926)
(0.0406668 -1.51487e-05 9.42435e-05)
(0.0402249 -1.16014e-05 8.6401e-05)
(0.0397909 -1.15153e-05 8.24941e-05)
(0.0393679 -1.25923e-05 7.95419e-05)
(0.0389513 -1.31768e-05 7.80668e-05)
(0.0385588 -1.4194e-05 7.77121e-05)
(0.0576166 -0.000108724 0.000785018)
(0.0569107 -0.000111665 0.00071157)
(0.0562811 -0.00010453 0.000598512)
(0.0556593 -0.000104872 0.000511681)
(0.0551113 -0.000107777 0.000462509)
(0.0545526 -0.000109223 0.000431218)
(0.0540429 -0.000109107 0.000407564)
(0.0535323 -0.000108912 0.000387548)
(0.0530442 -0.000109916 0.000372099)
(0.0525771 -0.00011012 0.00035858)
(0.0521128 -0.000106611 0.000343491)
(0.0687896 1.56655e-05 0.00130116)
(0.0678572 1.24702e-05 0.0012128)
(0.0670044 5.69163e-06 0.00112421)
(0.0662137 -2.05039e-06 0.00104052)
(0.0654831 -6.59096e-06 0.000966588)
(0.0647987 -8.95523e-06 0.00090392)
(0.0641573 -1.04838e-05 0.000849792)
(0.0635478 -1.41571e-05 0.00080584)
(0.0629651 -1.6963e-05 0.000767472)
(0.0624067 -1.97114e-05 0.00073428)
(0.0618644 -2.35636e-05 0.00070681)
(0.0770207 -5.0771e-06 0.00162727)
(0.0759953 4.00407e-05 0.00154438)
(0.0750302 7.42287e-05 0.00146358)
(0.074121 9.55238e-05 0.00138842)
(0.0732605 0.000108553 0.00132055)
(0.0724456 0.000114652 0.00125921)
(0.0716719 0.000116644 0.00120268)
(0.0709356 0.000115189 0.00115156)
(0.0702325 0.000111898 0.00110547)
(0.0695585 0.000106919 0.00106423)
(0.0689113 0.000100238 0.00102805)
(0.080971 -4.56561e-05 0.00164159)
(0.0800361 1.25493e-05 0.00159588)
(0.0791183 6.34689e-05 0.00154623)
(0.0782235 0.000108294 0.00149646)
(0.0773539 0.000139837 0.00144788)
(0.0765099 0.000161203 0.00140098)
(0.0756916 0.000176546 0.00135584)
(0.0748985 0.000186902 0.00131267)
(0.0741306 0.000192736 0.00127234)
(0.0733859 0.000194336 0.00123403)
(0.0726653 0.000191392 0.00119862)
)
;

boundaryField
{
    inlet
    {
        type            fixedValue;
        value           nonuniform List<vector> 0();
    }
    ami1
    {
        type            cyclicAMI;
        value           nonuniform List<vector> 0();
    }
    walls
    {
        type            noSlip;
    }
    ami2
    {
        type            cyclicAMI;
        value           nonuniform List<vector> 0();
    }
    outlet
    {
        type            zeroGradient;
    }
    procBoundary8to0
    {
        type            processor;
        value           nonuniform List<vector> 
29
(
(0.0284627 -3.17725e-05 -3.15829e-05)
(0.0466986 -9.65432e-05 -0.000218021)
(0.0637387 -0.000219964 -0.00073439)
(0.0750091 -4.71979e-05 -0.00108274)
(0.0809619 1.53262e-05 -0.00142162)
(0.0441251 -0.000204975 -4.58491e-05)
(0.0756072 -0.000197323 -4.47247e-05)
(0.092072 -0.00034324 -0.000553675)
(0.100356 -3.20261e-05 -0.00102097)
(0.104536 0.000151311 -0.00147577)
(0.0583173 -0.000803575 -6.89201e-05)
(0.0901741 -0.000843851 5.29412e-05)
(0.10346 -0.000928011 -0.000357413)
(0.110024 -0.000505272 -0.000817389)
(0.113359 -0.000164517 -0.00128216)
(0.0697803 -0.00138168 2.32317e-05)
(0.0984442 -0.0014912 0.000126783)
(0.109563 -0.00144277 -9.81186e-05)
(0.115044 -0.000923585 -0.000436168)
(0.117829 -0.000446788 -0.000794641)
(0.0781044 -0.00170702 -5.09795e-05)
(0.103442 -0.00185948 -3.98114e-05)
(0.113029 -0.00172259 -6.6448e-05)
(0.11777 -0.00114347 -0.000186969)
(0.120186 -0.000583041 -0.000361397)
(0.120937 -7.98859e-05 -0.000527064)
(0.118681 -0.00107492 7.23715e-05)
(0.120937 -0.00052828 7.96293e-05)
(0.121644 -8.92081e-07 4.80664e-07)
)
;
    }
    procBoundary8to1
    {
        type            processor;
        value           nonuniform List<vector> 
33
(
(0.0819183 -0.00167951 -0.000109444)
(0.105503 -0.0018102 -0.000199087)
(0.1143 -0.00163804 -3.5669e-05)
(0.0809602 -0.00142125 -9.54743e-06)
(0.104534 -0.00147648 -0.000148223)
(0.113357 -0.00128314 0.000164415)
(0.117827 -0.000795538 0.000446589)
(0.120184 -0.00036259 0.000583058)
(0.120937 7.78585e-05 0.000528239)
(0.0750055 -0.00108513 5.12697e-05)
(0.100349 -0.00102479 3.34579e-05)
(0.110013 -0.000819465 0.000504679)
(0.115035 -0.000436876 0.000923731)
(0.117766 -0.000188133 0.0011444)
(0.11868 7.02109e-05 0.00107587)
(0.0637261 -0.000742339 0.00023237)
(0.0920435 -0.000559742 0.000349888)
(0.103427 -0.000357111 0.000926867)
(0.109539 -9.73379e-05 0.00144381)
(0.113018 -6.76752e-05 0.00172494)
(0.114297 -3.81349e-05 0.00164015)
(0.0467238 -0.000222066 0.000107402)
(0.075589 -3.8965e-05 0.000192327)
(0.0901208 5.39976e-05 0.000842896)
(0.0984053 0.000127179 0.00149585)
(0.103426 -4.18322e-05 0.00186353)
(0.105499 -0.000202482 0.00181315)
(0.0284865 -3.13297e-05 3.39005e-05)
(0.0441659 -4.74008e-05 0.000208942)
(0.0583613 -8.06765e-05 0.000821708)
(0.0698083 1.47716e-05 0.0013931)
(0.0781124 -5.7113e-05 0.00171118)
(0.0819187 -0.000113828 0.00168141)
)
;
    }
    procBoundary8to7
    {
        type            processor;
        value           nonuniform List<vector> 
68
(
(0.0245517 -4.21141e-05 5.31286e-06)
(0.0411858 -0.000168864 -0.000174149)
(0.0568952 -0.000206447 -0.000546188)
(0.0664572 -0.000214903 -0.000938329)
(0.0715784 -0.00021492 -0.00115267)
(0.0385609 -7.95524e-05 -1.42822e-05)
(0.0711721 -0.000197806 -0.000152892)
(0.0911378 -0.000309251 -0.000667114)
(0.100252 -0.000243119 -0.00107414)
(0.104159 -0.000274304 -0.00130776)
(0.051672 -0.000336365 -0.000106831)
(0.0883315 -0.000554351 -0.000209853)
(0.10571 -0.000653324 -0.000635681)
(0.113494 -0.000468223 -0.00100264)
(0.116882 -0.000364558 -0.00122699)
(0.0613397 -0.000690627 -3.0276e-05)
(0.0971478 -0.000843755 4.05376e-05)
(0.112446 -0.000920727 -0.00025224)
(0.119523 -0.000643769 -0.000557898)
(0.122783 -0.000407615 -0.000771047)
(0.0682796 -0.000996833 9.11905e-05)
(0.101985 -0.00115514 0.0002226)
(0.115943 -0.00117204 5.72434e-05)
(0.122535 -0.000805143 -0.00017201)
(0.125684 -0.000449086 -0.000337251)
(0.126603 -6.80422e-05 -0.000427168)
(0.0719575 -0.00116533 0.000182602)
(0.104429 -0.00132638 0.000283842)
(0.11746 -0.00128555 0.00023937)
(0.123608 -0.000853638 0.000134314)
(0.126601 -0.0004295 6.41992e-05)
(0.127512 -2.3656e-06 -1.06577e-06)
(0.0715702 -0.00115493 0.000212812)
(0.0715702 -0.00115493 0.000212812)
(0.10416 -0.00131122 0.000268744)