/*--------------------------------*- C++ -*----------------------------------*\
| =========                 |                                                 |
| \\      /  F ield         | OpenFOAM: The Open Source CFD Toolbox           |
|  \\    /   O peration     | Version:  2212                                  |
|   \\  /    A nd           | Website:  www.openfoam.com                      |
|    \\/     M anipulation  |                                                 |
\*---------------------------------------------------------------------------*/
FoamFile
{
    version     2.0;
    format      ascii;
    arch        "LSB;label=32;scalar=64";
    class       surfaceVectorField;
    location    "3";
    object      Uf;
}
// * * * * * * * * * * * * * * * * * * * * * * * * * * * * * * * * * * * * * //

dimensions      [0 1 -1 0 0 0 0];

internalField   nonuniform List<vector> 
1815
(
(0.0279246 -3.73534e-05 -2.67471e-05)
(0.0353362 -5.33369e-05 -0.000104155)
(0.0342975 -7.62052e-05 -1.82243e-05)
(0.027565 -4.27574e-05 -1.94142e-05)
(0.0349218 -6.94804e-05 -0.000106377)
(0.0338785 -6.64248e-05 -8.92632e-06)
(0.027213 -4.61669e-05 -1.0785e-05)
(0.0345234 -8.27976e-05 -0.000103019)
(0.0334724 -5.85812e-05 3.02025e-06)
(0.0268713 -4.75945e-05 -4.82449e-06)
(0.0341192 -9.31065e-05 -9.98078e-05)
(0.0330593 -5.16618e-05 1.36684e-05)
(0.0265365 -4.76604e-05 -1.23284e-06)
(0.0337343 -9.90515e-05 -9.72089e-05)
(0.032668 -4.74425e-05 1.9786e-05)
(0.0262132 -4.70206e-05 1.07692e-06)
(0.0333531 -0.000101446 -9.41805e-05)
(0.0322798 -4.31989e-05 2.39778e-05)
(0.0258989 -4.6138e-05 2.76717e-06)
(0.0329848 -0.000102844 -9.1494e-05)
(0.0319068 -3.99927e-05 2.67059e-05)
(0.0255952 -4.5347e-05 4.06119e-06)
(0.0326275 -0.00010364 -8.82551e-05)
(0.0315469 -3.63629e-05 2.88745e-05)
(0.025293 -4.52259e-05 4.62108e-06)
(0.0322712 -0.0001055 -8.61144e-05)
(0.031193 -3.47252e-05 2.95049e-05)
(0.0249901 -4.44659e-05 4.82243e-06)
(0.0319102 -0.000106259 -8.31229e-05)
(0.0308384 -3.48342e-05 2.85832e-05)
(0.0315604 -0.000101916 -7.66567e-05)
(0.030499 -3.53871e-05 2.5842e-05)
(0.0459521 -0.000122005 -0.000233679)
(0.0537776 -0.000217714 -0.000481435)
(0.0590714 -0.000105007 -0.000105988)
(0.0454632 -0.00013287 -0.000235545)
(0.0532527 -0.000220451 -0.000488228)
(0.0586401 -0.000112531 -0.000114556)
(0.0449855 -0.000141569 -0.000233485)
(0.0527492 -0.000217114 -0.00048491)
(0.0582313 -0.000118618 -0.000117403)
(0.044517 -0.000148296 -0.000230214)
(0.0522209 -0.0002144 -0.0004786)
(0.057795 -0.000124567 -0.00011915)
(0.0440568 -0.000151457 -0.000225471)
(0.0517135 -0.000210177 -0.000469591)
(0.0573848 -0.000129257 -0.000120909)
(0.0436087 -0.000152894 -0.000219949)
(0.0511962 -0.000206241 -0.000459147)
(0.0569586 -0.000128434 -0.000118799)
(0.0431688 -0.000154509 -0.000214016)
(0.0506927 -0.000203815 -0.000448049)
(0.05655 -0.000128555 -0.000117298)
(0.0427356 -0.000158947 -0.000209202)
(0.050191 -0.000204606 -0.000437464)
(0.0561366 -0.00012695 -0.000113528)
(0.042296 -0.00016575 -0.000205072)
(0.0496835 -0.000212963 -0.000429938)
(0.0557215 -0.000128553 -0.000112512)
(0.0418502 -0.000169986 -0.000196823)
(0.0491792 -0.000216183 -0.000414151)
(0.0553062 -0.000136033 -0.000114155)
(0.0486812 -0.00021241 -0.000382228)
(0.054887 -0.0001414 -0.000113169)
(0.0629403 -0.00023922 -0.000770348)
(0.0684387 -0.000115312 -0.00091871)
(0.0764973 -0.000255546 -0.000639125)
(0.0623846 -0.000238909 -0.000775666)
(0.0678299 -0.000127372 -0.000931907)
(0.0761995 -0.000249627 -0.000654387)
(0.0618176 -0.000234577 -0.000771)
(0.0672166 -0.000135452 -0.00093259)
(0.0758937 -0.000240459 -0.000659313)
(0.0612427 -0.000229932 -0.000760977)
(0.0665697 -0.000145326 -0.000926489)
(0.0755648 -0.000231519 -0.000658967)
(0.0606615 -0.000225867 -0.00074748)
(0.065924 -0.00015442 -0.0009149)
(0.0752309 -0.000224446 -0.000654923)
(0.0600775 -0.000223768 -0.000732014)
(0.0652602 -0.000162071 -0.000900524)
(0.0748797 -0.000219022 -0.000647597)
(0.0594916 -0.00022511 -0.000716458)
(0.0645999 -0.000168448 -0.000882438)
(0.0745222 -0.000218303 -0.000640307)
(0.058905 -0.000230915 -0.000702409)
(0.0639393 -0.000177463 -0.000864777)
(0.0741542 -0.000218636 -0.000631393)
(0.0583176 -0.000234135 -0.000681033)
(0.0632714 -0.000185764 -0.000846238)
(0.0737745 -0.000227349 -0.000628297)
(0.0577356 -0.000226459 -0.000637272)
(0.0626265 -0.000191124 -0.000818497)
(0.0734009 -0.000232346 -0.000616357)
(0.0619812 -0.000192435 -0.000774436)
(0.073016 -0.000231591 -0.000588452)
(0.0740493 -8.61584e-05 -0.00111511)
(0.0771948 -6.86019e-05 -0.00126038)
(0.0865972 -4.79063e-05 -0.00105059)
(0.0733727 -0.000108717 -0.00112399)
(0.0764796 -0.000101128 -0.00126466)
(0.0862882 -6.74191e-05 -0.00106881)
(0.072668 -0.000130759 -0.00112322)
(0.075741 -0.000131737 -0.00125989)
(0.0859496 -8.70945e-05 -0.00107748)
(0.0719422 -0.000152668 -0.00111522)
(0.0749818 -0.000159065 -0.00124803)
(0.0855878 -0.000109248 -0.00107958)
(0.0712021 -0.000171213 -0.00110228)
(0.0742109 -0.000180855 -0.00123139)
(0.0852036 -0.000131307 -0.00107664)
(0.070454 -0.000184351 -0.00108461)
(0.0734353 -0.000197748 -0.00121129)
(0.0848048 -0.000149532 -0.00106945)
(0.0697036 -0.000194748 -0.00106348)
(0.0726581 -0.00020908 -0.00118664)
(0.0843909 -0.000165386 -0.00105932)
(0.0689576 -0.00020297 -0.00104027)
(0.0718903 -0.000218434 -0.0011606)
(0.0839723 -0.000179542 -0.00104535)
(0.0682215 -0.000207439 -0.00101424)
(0.0711243 -0.000221932 -0.00113312)
(0.0835445 -0.00019141 -0.00102957)
(0.0675011 -0.000210192 -0.000985504)
(0.0703791 -0.000218612 -0.00110415)
(0.0831206 -0.000200186 -0.00100995)
(0.0696399 -0.000211391 -0.00107357)
(0.0826952 -0.000206026 -0.000985023)
(0.0798286 -5.61173e-05 -0.00142009)
(0.0917301 3.98048e-05 -0.00141298)
(0.0790473 -9.95171e-05 -0.0014101)
(0.0913403 -7.75232e-06 -0.0014103)
(0.0782495 -0.000138997 -0.00139375)
(0.0909307 -5.44787e-05 -0.00140097)
(0.0774424 -0.000169436 -0.00137286)
(0.0905051 -9.58711e-05 -0.00138714)
(0.0766336 -0.000191871 -0.00134871)
(0.0900682 -0.000129823 -0.00136998)
(0.0758282 -0.000208893 -0.00132133)
(0.0896246 -0.000158819 -0.00134945)
(0.0750298 -0.000221068 -0.0012915)
(0.0891778 -0.000182749 -0.00132526)
(0.0742418 -0.000228722 -0.00126099)
(0.0887296 -0.000202438 -0.00129952)
(0.0734652 -0.000231161 -0.00123055)
(0.0882843 -0.000217342 -0.00127198)
(0.0727006 -0.000227965 -0.00119987)
(0.0878402 -0.000226861 -0.00124264)
(0.0874013 -0.000230774 -0.00121327)
(0.0433487 -0.000164397 -4.47246e-05)
(0.0576239 -0.000120677 -3.40081e-05)
(0.0498266 -0.000469379 -0.000118474)
(0.0428407 -0.000143738 -4.06331e-05)
(0.0571861 -0.000122253 -4.81156e-05)
(0.0492364 -0.000426469 -0.000122866)
(0.0423466 -0.00012749 -3.41889e-05)
(0.0567664 -0.000128531 -5.80458e-05)
(0.0486892 -0.000367876 -0.000118949)
(0.0418604 -0.000115999 -2.77046e-05)
(0.0563178 -0.000132806 -6.37055e-05)
(0.0481357 -0.000324711 -0.000116809)
(0.0413822 -0.000106589 -2.17395e-05)
(0.0558987 -0.000134387 -6.72873e-05)
(0.0476309 -0.000298217 -0.000113861)
(0.0409193 -9.82253e-05 -1.65427e-05)
(0.0554627 -0.000129697 -6.63847e-05)
(0.0471209 -0.000278984 -0.000110105)
(0.0404696 -9.06307e-05 -1.25072e-05)
(0.0550476 -0.000126119 -6.57657e-05)
(0.0466435 -0.000263865 -0.000106241)
(0.0400357 -8.50559e-05 -1.0737e-05)
(0.0546305 -0.000119347 -6.38344e-05)
(0.0461731 -0.000250315 -0.000103311)
(0.0396072 -8.23493e-05 -1.07605e-05)
(0.0542188 -0.000116272 -6.34226e-05)
(0.045718 -0.000242514 -0.000104724)
(0.039185 -8.12757e-05 -1.19653e-05)
(0.0538124 -0.000117068 -6.62471e-05)
(0.0452712 -0.000234539 -0.000102783)
(0.0534078 -0.000116727 -6.86736e-05)
(0.0448391 -0.000228164 -0.000101443)
(0.0751133 -0.000163209 -6.50433e-05)
(0.0830667 -0.000297096 -0.000311087)
(0.082093 -0.00047358 -7.86513e-05)
(0.0747683 -0.000174379 -9.02682e-05)
(0.082884 -0.000292596 -0.000340836)
(0.0818292 -0.000464978 -0.000116357)
(0.0744134 -0.000184272 -0.00010928)
(0.0826943 -0.000288561 -0.000362656)
(0.0815763 -0.000456743 -0.000148274)
(0.0740513 -0.00019205 -0.000123911)
(0.0824784 -0.000283451 -0.0003761)
(0.0813089 -0.000451206 -0.000174018)
(0.0736814 -0.000194507 -0.000132693)
(0.0822637 -0.000281368 -0.000386719)
(0.0810513 -0.00044612 -0.000193189)
(0.0733068 -0.000192559 -0.00013658)
(0.0820242 -0.000275481 -0.000389984)
(0.0807799 -0.000434275 -0.000203342)
(0.0729264 -0.00018902 -0.00013836)
(0.0817828 -0.000273709 -0.000394361)
(0.0805146 -0.000425142 -0.000211099)
(0.0725431 -0.000182217 -0.000137136)
(0.0815228 -0.00026904 -0.000392953)
(0.0802381 -0.000410708 -0.000215281)
(0.0721588 -0.000181548 -0.000139383)
(0.0812561 -0.000267954 -0.000394466)
(0.07996 -0.000401717 -0.000218593)
(0.0717675 -0.000187103 -0.000144899)
(0.0809915 -0.000277248 -0.000399742)
(0.0796874 -0.000398485 -0.000225099)
(0.080703 -0.000286878 -0.000400603)
(0.0793973 -0.000393443 -0.00022926)
(0.0920964 -0.000320303 -0.000606414)
(0.0960829 -0.00016983 -0.000810861)
(0.0975563 -0.000602625 -0.000548941)
(0.092092 -0.000310677 -0.000635036)
(0.0961333 -0.000174627 -0.000843459)
(0.097664 -0.000576978 -0.0005871)
(0.0920666 -0.000299746 -0.000652885)
(0.0961496 -0.000180611 -0.00086574)
(0.097748 -0.000554102 -0.000618163)
(0.0920222 -0.000289344 -0.000663015)
(0.0961547 -0.000185895 -0.000878017)
(0.0978333 -0.000533038 -0.000640318)
(0.0919586 -0.000281498 -0.000668452)
(0.09613 -0.000193959 -0.000885941)
(0.0978937 -0.000517053 -0.000657956)
(0.0918749 -0.000278255 -0.000672679)
(0.0960918 -0.000201321 -0.000888514)
(0.0979514 -0.000502482 -0.000670085)
(0.0917714 -0.000276606 -0.000674032)
(0.096027 -0.000213906 -0.000893382)
(0.0979867 -0.000492281 -0.000681041)
(0.0916538 -0.000278714 -0.00067564)
(0.0959458 -0.000220863 -0.00088917)
(0.0980161 -0.000481182 -0.000685543)
(0.091522 -0.000287788 -0.000680266)
(0.0958504 -0.000233294 -0.000890593)
(0.0980318 -0.000480605 -0.000693292)
(0.0913788 -0.000297118 -0.000679683)
(0.0957393 -0.000245092 -0.000887703)
(0.0980389 -0.000482481 -0.00069844)
(0.0956142 -0.000252859 -0.000876494)
(0.0980319 -0.000485426 -0.000698311)
(0.100515 -5.33044e-05 -0.00107298)
(0.102478 2.10808e-05 -0.00126637)
(0.105193 -0.000266964 -0.00100527)
(0.100593 -7.22121e-05 -0.0010989)
(0.102544 -1.36808e-05 -0.00128487)
(0.105402 -0.000269191 -0.00103808)
(0.100645 -9.33511e-05 -0.00111536)
(0.102583 -4.83949e-05 -0.00129422)
(0.105591 -0.000274496 -0.0010627)
(0.100672 -0.000116306 -0.00112525)
(0.102603 -8.21259e-05 -0.00129702)
(0.105765 -0.000282609 -0.00108003)
(0.100676 -0.000138625 -0.00113011)
(0.1026 -0.000114486 -0.00129542)
(0.105918 -0.000292912 -0.00109277)
(0.100658 -0.00016061 -0.00113309)
(0.10258 -0.000143587 -0.00128943)
(0.106056 -0.000303196 -0.00110113)
(0.10062 -0.000181149 -0.00113217)
(0.102541 -0.000171629 -0.00128237)
(0.106177 -0.000315261 -0.00110898)
(0.100564 -0.00019988 -0.00112752)
(0.102485 -0.00019518 -0.00126941)
(0.106281 -0.000324975 -0.00110942)
(0.100491 -0.0002175 -0.00112105)
(0.102421 -0.000218029 -0.00125511)
(0.106375 -0.000336655 -0.00110968)
(0.100404 -0.000230333 -0.00110708)
(0.102338 -0.000236261 -0.00123561)
(0.106449 -0.000347981 -0.00110618)
(0.102252 -0.0002475 -0.00121147)
(0.106517 -0.000357104 -0.00109697)
(0.104615 7.46836e-05 -0.00148953)
(0.108967 -4.3028e-05 -0.00143901)
(0.104642 2.26512e-05 -0.0014908)
(0.10915 -7.88445e-05 -0.00144593)
(0.104649 -2.68633e-05 -0.00148589)
(0.109316 -0.00011446 -0.00144704)
(0.104637 -7.26738e-05 -0.00147665)
(0.109467 -0.000148466 -0.00144367)
(0.104609 -0.000114236 -0.0014637)
(0.109604 -0.000180364 -0.00143677)
(0.104566 -0.000151292 -0.00144712)
(0.109726 -0.000209534 -0.0014267)
(0.104511 -0.000183845 -0.00142751)
(0.109838 -0.000236041 -0.00141377)
(0.104444 -0.000211715 -0.0014044)
(0.109938 -0.000259754 -0.00139832)
(0.104371 -0.00023442 -0.00137651)
(0.110029 -0.000280754 -0.00137928)
(0.104291 -0.000251651 -0.00134641)
(0.110112 -0.00029848 -0.00135625)
(0.110191 -0.000312744 -0.00133225)
(0.05724 -0.000730954 -0.000100219)
(0.0724861 -0.000717545 -3.6056e-05)
(0.0628133 -0.000996246 -7.91439e-06)
(0.056575 -0.000638614 -9.90504e-05)
(0.0720363 -0.000669338 -6.00335e-05)
(0.0620101 -0.000917136 -1.61396e-05)
(0.055962 -0.000542817 -9.72979e-05)
(0.0716278 -0.000605397 -7.57287e-05)
(0.0612839 -0.000821118 -2.53443e-05)
(0.055386 -0.000479458 -0.000100517)
(0.0712321 -0.000558934 -9.39638e-05)
(0.0605894 -0.000742251 -3.60772e-05)
(0.0548358 -0.000441859 -0.000103725)
(0.0708695 -0.000528265 -0.00010916)
(0.0599609 -0.000685267 -4.27416e-05)
(0.0543072 -0.000415926 -0.000105283)
(0.0705073 -0.000503392 -0.000119485)
(0.0593469 -0.00064173 -4.65926e-05)
(0.0537971 -0.000395154 -0.000105889)
(0.0701656 -0.00048335 -0.000127483)
(0.0587787 -0.000605489 -4.84716e-05)
(0.0533044 -0.000378579 -0.000107129)
(0.0698235 -0.000462714 -0.000132406)
(0.058223 -0.000575771 -5.15304e-05)
(0.0528256 -0.000365111 -0.000107939)
(0.0694919 -0.000452356 -0.000140178)
(0.0576928 -0.000550301 -5.25613e-05)
(0.0523583 -0.000353476 -0.000107913)
(0.0691694 -0.000440483 -0.000144604)
(0.0571823 -0.000528754 -5.40612e-05)
(0.0688453 -0.000430122 -0.000148395)
(0.0566806 -0.00051164 -5.74993e-05)
(0.0899063 -0.000761394 -6.86618e-06)
(0.0964459 -0.000874814 -0.000183893)
(0.0939141 -0.0010649 9.15965e-05)
(0.0897476 -0.000727785 -4.77595e-05)
(0.0964612 -0.000832101 -0.000226363)
(0.0937424 -0.00100948 6.70901e-05)
(0.089596 -0.000698939 -8.28821e-05)
(0.096473 -0.000788475 -0.000262552)
(0.093583 -0.000954189 4.81951e-05)
(0.0894489 -0.000677934 -0.000113375)
(0.0964996 -0.000757378 -0.000296035)
(0.0934492 -0.000908451 2.9213e-05)
(0.0893053 -0.000657669 -0.000136631)
(0.0965111 -0.000734583 -0.000324212)
(0.0933139 -0.000869698 1.03849e-05)
(0.0891614 -0.000638831 -0.00015464)
(0.0965325 -0.000712786 -0.000345062)
(0.0931966 -0.000833832 -5.92102e-06)
(0.0890148 -0.000618686 -0.000167919)
(0.0965405 -0.000694575 -0.000361727)
(0.0930761 -0.000804572 -2.31269e-05)
(0.0888669 -0.000602495 -0.000179913)
(0.096551 -0.000673521 -0.000373097)
(0.0929644 -0.000773501 -3.5718e-05)
(0.0887138 -0.000591997 -0.000191838)
(0.0965538 -0.000663806 -0.000387447)
(0.092852 -0.000753598 -4.96808e-05)
(0.0885599 -0.000578214 -0.000200215)
(0.0965518 -0.000654578 -0.000398521)
(0.0927426 -0.000732205 -6.11724e-05)
(0.096543 -0.000646364 -0.000407558)
(0.0926329 -0.000711504 -7.01947e-05)
(0.103774 -0.000849226 -0.000417352)
(0.106895 -0.000663809 -0.000615907)
(0.106611 -0.00110303 -0.000235309)
(0.103986 -0.000807563 -0.000456019)
(0.107169 -0.000634456 -0.00065234)
(0.106831 -0.00104786 -0.000262822)
(0.104194 -0.000772933 -0.000491626)
(0.107434 -0.000610437 -0.000685202)
(0.107049 -0.000998567 -0.00028933)
(0.104397 -0.000745693 -0.000523398)
(0.107697 -0.000592136 -0.000714415)
(0.107273 -0.000956726 -0.000315096)
(0.104594 -0.000722328 -0.000549426)
(0.107946 -0.000578458 -0.000739237)
(0.10749 -0.00092145 -0.000339102)
(0.104784 -0.000699615 -0.000568895)
(0.108191 -0.000565977 -0.000758524)
(0.10771 -0.000889433 -0.000359182)
(0.104971 -0.000678829 -0.000583585)
(0.108424 -0.000554204 -0.000772848)
(0.107925 -0.00085959 -0.000375852)
(0.105149 -0.000665165 -0.000597487)
(0.108651 -0.000544122 -0.000783518)
(0.10814 -0.000833271 -0.000389267)
(0.10532 -0.000658438 -0.000611221)
(0.108869 -0.000541877 -0.000794038)
(0.108351 -0.000815132 -0.000405024)
(0.105484 -0.000655439 -0.00062316)
(0.109074 -0.000541876 -0.000802879)
(0.108556 -0.000800799 -0.000418995)
(0.109273 -0.000544857 -0.000810685)
(0.108759 -0.000788703 -0.000430098)
(0.11054 -0.000474318 -0.000868262)
(0.112006 -0.000335089 -0.00106781)
(0.112829 -0.000670221 -0.000641383)
(0.110874 -0.000461026 -0.000898539)
(0.112346 -0.000335292 -0.00108818)
(0.113195 -0.000642778 -0.000665071)
(0.111198 -0.000451957 -0.000924619)
(0.112675 -0.00033876 -0.0011049)
(0.113554 -0.000620195 -0.00068695)
(0.111511 -0.000446451 -0.000946491)
(0.112993 -0.000344142 -0.00111776)
(0.113906 -0.000601613 -0.000706556)
(0.111813 -0.000443849 -0.000964255)
(0.1133 -0.000351252 -0.00112712)
(0.114249 -0.000586942 -0.000723703)
(0.112102 -0.000443235 -0.000978192)
(0.113595 -0.000359068 -0.00113299)
(0.114584 -0.000575042 -0.000737721)
(0.112381 -0.000443676 -0.000988338)
(0.11388 -0.000367589 -0.00113582)
(0.11491 -0.000565471 -0.000749093)
(0.112648 -0.000445926 -0.000995374)
(0.114154 -0.000376232 -0.00113546)
(0.115228 -0.00055744 -0.000757542)
(0.112904 -0.000451206 -0.00100069)
(0.114419 -0.000387058 -0.00113274)
(0.115538 -0.000552923 -0.000765152)
(0.11315 -0.00045931 -0.00100515)
(0.114672 -0.000399093 -0.0011283)
(0.115838 -0.000551456 -0.000771744)
(0.114919 -0.000411341 -0.00112277)
(0.116132 -0.000552324 -0.000777433)
(0.113882 -0.000187421 -0.00129705)
(0.115935 -0.000300909 -0.00103956)
(0.114217 -0.000205264 -0.00130333)
(0.116329 -0.000305152 -0.00104477)
(0.114541 -0.000224117 -0.00130632)
(0.116712 -0.000311178 -0.00104816)
(0.114853 -0.000243229 -0.00130617)
(0.117085 -0.00031832 -0.00104955)
(0.115154 -0.000261927 -0.00130316)
(0.117448 -0.000326159 -0.00104901)
(0.115444 -0.000279824 -0.00129747)
(0.117801 -0.000334159 -0.00104643)
(0.115725 -0.000296905 -0.00128941)
(0.118146 -0.000342273 -0.00104174)
(0.115996 -0.000313374 -0.00127897)
(0.118482 -0.000350383 -0.00103528)
(0.116259 -0.00032929 -0.0012662)
(0.118809 -0.000358788 -0.00102684)
(0.116514 -0.000344293 -0.00125142)
(0.11913 -0.000367412 -0.00101695)
(0.119443 -0.000375771 -0.00100607)
(0.0683047 -0.00124327 2.15827e-05)
(0.082563 -0.00128668 7.94516e-05)
(0.0727456 -0.00144807 1.47287e-05)
(0.0674168 -0.00115479 1.59157e-05)
(0.0819849 -0.00120419 7.76571e-05)
(0.0717715 -0.00136066 3.68708e-05)
(0.0665978 -0.00107007 7.87463e-06)
(0.0814604 -0.00112403 7.31313e-05)
(0.0708677 -0.00127462 5.43136e-05)
(0.0658406 -0.00099337 9.82943e-07)
(0.0809825 -0.00105035 6.66516e-05)
(0.0700225 -0.00119552 6.22394e-05)
(0.0651365 -0.000927169 -3.16356e-06)
(0.080541 -0.000985791 6.02321e-05)
(0.0692316 -0.00112607 6.53795e-05)
(0.0644761 -0.000870667 -5.87248e-06)
(0.0801336 -0.000930984 5.35563e-05)
(0.0684858 -0.00106583 6.55344e-05)
(0.0638519 -0.000823234 -9.19832e-06)
(0.0797519 -0.000883671 4.58293e-05)
(0.0677817 -0.00101234 6.39439e-05)
(0.0632572 -0.00078351 -1.30859e-05)
(0.0793936 -0.000844779 3.67761e-05)
(0.0671113 -0.000966331 6.03341e-05)
(0.0626859 -0.000749313 -1.65318e-05)
(0.0790517 -0.000811237 2.84495e-05)
(0.0664704 -0.000925809 5.58022e-05)
(0.0621346 -0.000720726 -2.07194e-05)
(0.0787249 -0.00078211 2.08858e-05)
(0.0658558 -0.000890494 5.03422e-05)
(0.0784099 -0.000758353 1.29512e-05)
(0.0652608 -0.000860297 4.39638e-05)
(0.0981371 -0.00135455 0.000135879)
(0.103739 -0.00143146 2.15495e-05)
(0.100671 -0.00158062 8.48397e-05)
(0.0979697 -0.00127502 0.000136003)
(0.103752 -0.00135459 1.75631e-05)
(0.100489 -0.00150151 0.0001098)
(0.0978261 -0.00120107 0.000133788)
(0.10378 -0.00128266 1.13649e-05)
(0.100326 -0.00142631 0.000130284)
(0.0977031 -0.00113526 0.000128206)
(0.103827 -0.00121811 2.58008e-06)
(0.100185 -0.00135762 0.000145283)
(0.0975971 -0.00107834 0.000119252)
(0.10388 -0.00116224 -9.01222e-06)
(0.100057 -0.0012956 0.000154673)
(0.0975046 -0.00102945 0.000107227)
(0.103946 -0.00111399 -2.2287e-05)
(0.0999479 -0.00123942 0.000159714)
(0.0974241 -0.000987223 9.33656e-05)
(0.104018 -0.00107206 -3.69026e-05)
(0.0998485 -0.00118818 0.000160226)
(0.0973512 -0.000951219 7.94829e-05)
(0.104097 -0.00103439 -5.09956e-05)
(0.0997631 -0.00114245 0.000156461)
(0.0972856 -0.000919104 6.67075e-05)
(0.10418 -0.00100248 -6.49724e-05)
(0.0996865 -0.00110265 0.000149619)
(0.0972264 -0.000889738 5.52843e-05)
(0.104265 -0.000973047 -7.79252e-05)
(0.0996169 -0.00106553 0.000143135)
(0.104355 -0.000946057 -8.9217e-05)
(0.0995572 -0.00103104 0.00013676)
(0.109894 -0.00133122 -0.000107008)
(0.112524 -0.00111552 -0.000269852)
(0.111487 -0.0015081 -6.69815e-05)
(0.110123 -0.00126649 -0.00011786)
(0.112832 -0.00106087 -0.000280987)
(0.111717 -0.00144351 -5.98317e-05)
(0.110358 -0.00120834 -0.000131175)
(0.113141 -0.00101216 -0.000293919)
(0.111951 -0.00138374 -5.68527e-05)
(0.110597 -0.00115691 -0.00014644)
(0.113451 -0.000968994 -0.000307935)
(0.112188 -0.00132894 -5.69332e-05)
(0.11084 -0.00111173 -0.000162705)
(0.11376 -0.000931333 -0.000322617)
(0.112429 -0.00127961 -5.93787e-05)
(0.111085 -0.0010716 -0.000178763)
(0.114069 -0.000898045 -0.000336819)
(0.112673 -0.00123533 -6.28667e-05)
(0.111332 -0.0010355 -0.000193668)
(0.114376 -0.000868309 -0.000349944)
(0.112919 -0.00119541 -6.68197e-05)
(0.11158 -0.00100371 -0.000207885)
(0.114681 -0.000842053 -0.000361408)
(0.113166 -0.00115873 -7.14148e-05)
(0.111829 -0.000976659 -0.000222126)
(0.114983 -0.000820376 -0.000372668)
(0.113413 -0.00112595 -7.77564e-05)
(0.112078 -0.000952356 -0.00023504)
(0.115283 -0.000802396 -0.000383612)
(0.113662 -0.00109691 -8.51379e-05)
(0.115581 -0.00078587 -0.00039273)
(0.11391 -0.00106865 -9.22251e-05)
(0.115643 -0.000857808 -0.000453633)
(0.11684 -0.000661979 -0.000618373)
(0.116796 -0.0009881 -0.000314886)
(0.116037 -0.000819939 -0.000466929)
(0.117263 -0.00063689 -0.000625765)
(0.117204 -0.000948403 -0.000318977)
(0.116426 -0.000786746 -0.000480582)
(0.117678 -0.000615306 -0.000633415)
(0.117606 -0.000912191 -0.000324564)
(0.11681 -0.000757961 -0.000493959)
(0.118087 -0.000596754 -0.000640756)
(0.118003 -0.000879394 -0.000330971)
(0.117189 -0.000733107 -0.000506449)
(0.118489 -0.000581075 -0.000647464)
(0.118395 -0.000850076 -0.00033769)
(0.117563 -0.000711522 -0.000517533)
(0.118884 -0.000567856 -0.000653026)
(0.118782 -0.000823967 -0.00034391)
(0.117932 -0.000692835 -0.000527021)
(0.119273 -0.000556809 -0.000657191)
(0.119163 -0.000800763 -0.00034907)
(0.118294 -0.000677294 -0.000535339)
(0.119655 -0.000547676 -0.000659926)
(0.11954 -0.000780259 -0.000353391)
(0.118652 -0.000665184 -0.000543097)
(0.120031 -0.000540903 -0.000661737)
(0.119912 -0.000762718 -0.000357483)
(0.119004 -0.000655691 -0.000550047)
(0.120401 -0.000536626 -0.000662943)
(0.12028 -0.000748149 -0.000361844)
(0.120765 -0.000533452 -0.000663104)
(0.120643 -0.000735097 -0.000366051)
(0.118513 -0.000430174 -0.000797052)
(0.11947 -0.000499071 -0.000580291)
(0.118957 -0.00042173 -0.000798596)
(0.119941 -0.000486114 -0.000579483)
(0.119393 -0.000415204 -0.000799711)
(0.120404 -0.000474856 -0.000579002)
(0.119821 -0.000410279 -0.00080014)
(0.120857 -0.000465086 -0.000578549)
(0.120239 -0.000406705 -0.000799675)
(0.121302 -0.000456684 -0.000577911)
(0.12065 -0.000404323 -0.00079809)
(0.121739 -0.000449525 -0.000576845)
(0.121054 -0.00040297 -0.000795291)
(0.122168 -0.000443563 -0.000575143)
(0.121449 -0.000402599 -0.000791319)
(0.122589 -0.000438633 -0.000572796)
(0.121838 -0.000403362 -0.000786388)
(0.123003 -0.000434797 -0.000569832)
(0.12222 -0.00040496 -0.000780626)
(0.123412 -0.000432156 -0.000566546)
(0.123813 -0.000430031 -0.00056267)
(0.076502 -0.00157935 2.32871e-05)
(0.0894032 -0.00163927 8.21301e-06)
(0.07897 -0.00162962 -1.85752e-05)
(0.0755077 -0.00149693 6.26202e-05)
(0.0887764 -0.0015618 5.61006e-05)
(0.0779899 -0.00156437 3.25575e-05)
(0.0745707 -0.00141915 8.95305e-05)
(0.0881881 -0.00148775 9.46317e-05)
(0.077049 -0.00149888 7.41057e-05)
(0.073687 -0.00134835 0.000105604)
(0.0876361 -0.00141985 0.000122507)
(0.0761477 -0.00143678 0.000105167)
(0.0728506 -0.00128468 0.000114372)
(0.0871169 -0.0013575 0.000142772)
(0.0752834 -0.00137921 0.000125969)
(0.0720566 -0.00122681 0.000117738)
(0.0866287 -0.00129954 0.000156375)
(0.0744545 -0.00132584 0.000138963)
(0.0713015 -0.00117411 0.000117414)
(0.0861682 -0.00124526 0.00016482)
(0.0736587 -0.00127592 0.000146992)
(0.0705813 -0.00112662 0.000114527)
(0.0857337 -0.00119615 0.00016741)
(0.072894 -0.00122973 0.000150758)
(0.069892 -0.0010841 0.000109815)
(0.0853222 -0.00115163 0.000166363)
(0.0721581 -0.00118747 0.000151164)
(0.0692296 -0.00104643 0.000103451)
(0.0849303 -0.00111191 0.00016301)
(0.0714481 -0.00114863 0.000148816)
(0.0845571 -0.00107528 0.000158188)
(0.0707632 -0.00111346 0.000144189)
(0.103154 -0.00174058 4.63709e-05)
(0.10805 -0.00177305 -3.63795e-06)
(0.104328 -0.00177705 -5.5308e-05)
(0.102979 -0.00166572 9.36693e-05)
(0.108068 -0.00170242 3.45293e-05)
(0.104194 -0.0017204 5.27626e-06)
(0.102818 -0.00159555 0.000133652)
(0.108093 -0.0016351 6.63914e-05)
(0.104065 -0.00166499 5.92105e-05)
(0.102671 -0.00153018 0.000166412)
(0.108127 -0.00157218 9.26913e-05)
(0.10394 -0.00160971 0.000106448)
(0.10254 -0.00146836 0.000192263)
(0.10817 -0.00151348 0.000113778)
(0.103823 -0.00155627 0.000146445)
(0.102422 -0.0014093 0.000211664)
(0.108223 -0.00145874 0.000130322)
(0.103712 -0.00150469 0.000179405)
(0.102319 -0.00135405 0.000223536)
(0.108282 -0.00140737 0.000142403)
(0.103608 -0.0014547 0.000205699)
(0.102227 -0.00130389 0.000228242)
(0.10835 -0.00135996 0.000148817)
(0.103512 -0.0014079 0.000223905)
(0.102147 -0.00125856 0.000228712)
(0.108424 -0.0013167 0.000150939)
(0.103424 -0.00136403 0.000236644)
(0.102077 -0.0012161 0.000227031)
(0.108503 -0.00127727 0.000150457)
(0.103342 -0.00132339 0.000245085)
(0.108589 -0.00123877 0.000148626)
(0.103266 -0.00128174 0.000250147)
(0.113384 -0.00162846 -2.52212e-05)
(0.115662 -0.00137742 -0.000107594)
(0.113926 -0.00163496 -1.98708e-05)
(0.113619 -0.00156888 -3.34051e-06)
(0.115987 -0.00132686 -9.26313e-05)
(0.114186 -0.00158969 9.40295e-06)
(0.113856 -0.00151236 1.41133e-05)
(0.116309 -0.00127879 -8.12575e-05)
(0.114444 -0.00154527 3.48856e-05)
(0.114096 -0.00145948 2.81624e-05)
(0.116629 -0.00123352 -7.26451e-05)
(0.114699 -0.00150195 5.71929e-05)
(0.114337 -0.00141087 3.95122e-05)
(0.116948 -0.00119158 -6.61429e-05)
(0.114953 -0.00146047 7.6815e-05)
(0.114582 -0.00136677 4.84624e-05)
(0.117267 -0.00115344 -6.09934e-05)
(0.115205 -0.00142155 9.40754e-05)
(0.114827 -0.00132623 5.50274e-05)
(0.117584 -0.00111903 -5.68705e-05)
(0.115456 -0.00138544 0.000109124)
(0.115073 -0.00128837 5.89697e-05)
(0.117899 -0.00108735 -5.3855e-05)
(0.115706 -0.00135131 0.000121774)
(0.115321 -0.00125331 6.03007e-05)
(0.118213 -0.0010582 -5.24676e-05)
(0.115955 -0.00131893 0.000131751)
(0.115569 -0.00121992 5.9833e-05)
(0.118525 -0.00103172 -5.25738e-05)
(0.116203 -0.00128864 0.000139214)
(0.118836 -0.00100588 -5.36214e-05)
(0.11645 -0.00125804 0.000144726)
(0.118408 -0.00108324 -0.000177221)
(0.119424 -0.000839581 -0.000266816)
(0.118663 -0.00107915 -5.06221e-05)
(0.118824 -0.00104519 -0.000173236)
(0.119881 -0.0008117 -0.000262653)
(0.119095 -0.00104959 -4.43036e-05)
(0.119235 -0.00100929 -0.000171107)
(0.120329 -0.00078546 -0.000259952)
(0.119519 -0.00102106 -3.91934e-05)
(0.11964 -0.000975831 -0.000170391)
(0.120771 -0.000760963 -0.000258412)
(0.119936 -0.000993671 -3.51935e-05)
(0.120039 -0.000945105 -0.000170389)
(0.121205 -0.000738393 -0.000257654)
(0.120346 -0.00096768 -3.20555e-05)
(0.120434 -0.000917226 -0.000170308)
(0.121632 -0.000717884 -0.000257104)
(0.12075 -0.000943351 -2.93651e-05)
(0.120825 -0.000892044 -0.000169915)
(0.122054 -0.000699434 -0.000256294)
(0.121149 -0.000920767 -2.67338e-05)
(0.121212 -0.000869352 -0.00016957)
(0.12247 -0.000682833 -0.000255307)
(0.121542 -0.000899812 -2.42119e-05)
(0.121595 -0.000849111 -0.000169669)
(0.122881 -0.000668 -0.000254401)
(0.12193 -0.000880403 -2.19782e-05)
(0.121974 -0.000830653 -0.000170356)
(0.123287 -0.000655024 -0.000253791)
(0.122314 -0.000862659 -2.02267e-05)
(0.123687 -0.000642892 -0.000253391)
(0.122694 -0.000845414 -1.89737e-05)
(0.120939 -0.000557139 -0.000355457)
(0.121073 -0.000321912 -0.000436688)
(0.121073 -0.000541814 -0.000140197)
(0.121429 -0.000541256 -0.000352618)
(0.121577 -0.000313158 -0.000429943)
(0.121576 -0.000528506 -0.000139359)
(0.12191 -0.00052662 -0.000350523)
(0.12207 -0.000305017 -0.000423768)
(0.12207 -0.000515971 -0.000138957)
(0.122381 -0.000513227 -0.00034894)
(0.122554 -0.000297465 -0.00041809)
(0.122553 -0.000504229 -0.000138866)
(0.122845 -0.000501086 -0.000347624)
(0.123028 -0.000290522 -0.000412838)
(0.123028 -0.000493329 -0.000138948)
(0.1233 -0.000490187 -0.000346335)
(0.123495 -0.000284197 -0.000407904)
(0.123494 -0.00048329 -0.000139053)
(0.123748 -0.000480477 -0.000344926)
(0.123953 -0.000278492 -0.000403187)
(0.123952 -0.000474109 -0.000139044)
(0.124189 -0.0004719 -0.000343366)
(0.124403 -0.000273387 -0.000398644)
(0.124403 -0.000465741 -0.000138846)
(0.124623 -0.00046446 -0.000341732)
(0.124847 -0.000268876 -0.000394275)
(0.124846 -0.000458168 -0.000138455)
(0.125052 -0.000457893 -0.000340007)
(0.125285 -0.000265003 -0.000390188)
(0.125284 -0.000451441 -0.000137941)
(0.125716 -0.000261468 -0.000386089)
(0.125714 -0.000445083 -0.000137231)
(0.121716 -7.84008e-05 -0.00051162)
(0.121821 -4.01637e-05 -0.000258954)
(0.122222 -7.74008e-05 -0.000501507)
(0.122342 -3.98074e-05 -0.000253798)
(0.122719 -7.63648e-05 -0.000491715)
(0.122853 -3.94449e-05 -0.000248828)
(0.123205 -7.52768e-05 -0.000482332)
(0.123353 -3.90454e-05 -0.000244079)
(0.123683 -7.41516e-05 -0.000473428)
(0.123844 -3.8598e-05 -0.000239572)
(0.124152 -7.30244e-05 -0.000465033)
(0.124326 -3.8108e-05 -0.000235314)
(0.124613 -7.19342e-05 -0.000457152)
(0.124799 -3.75963e-05 -0.000231303)
(0.125067 -7.09147e-05 -0.000449772)
(0.125264 -3.70813e-05 -0.000227526)
(0.125513 -6.99971e-05 -0.000442922)
(0.125722 -3.65854e-05 -0.000223971)
(0.125954 -6.91671e-05 -0.000436438)
(0.126173 -3.6125e-05 -0.000220679)
(0.126617 -3.56771e-05 -0.000217443)
(0.0805035 -0.00161561 -1.25654e-05)
(0.0925518 -0.00165333 -8.89028e-05)
(0.0805866 -0.00153025 -5.64076e-06)
(0.0795769 -0.00156756 4.15346e-05)
(0.0920201 -0.00161245 -2.6113e-05)
(0.0797336 -0.00150426 4.55015e-05)
(0.078671 -0.00151783 8.85977e-05)
(0.0914945 -0.00156948 3.02407e-05)
(0.0788799 -0.00147279 9.30915e-05)
(0.0777894 -0.00146895 0.000125901)
(0.0909792 -0.00152437 8.03618e-05)
(0.078031 -0.00143868 0.000132037)
(0.0769329 -0.00142177 0.000151658)
(0.090476 -0.00147987 0.000120249)
(0.0771916 -0.00140335 0.000160316)
(0.0761017 -0.00137648 0.000169478)
(0.0899859 -0.00143664 0.000151522)
(0.0763654 -0.0013675 0.000180479)
(0.0752956 -0.00133314 0.000181888)