/*--------------------------------*- C++ -*----------------------------------*\
| =========                 |                                                 |
| \\      /  F ield         | OpenFOAM: The Open Source CFD Toolbox           |
|  \\    /   O peration     | Version:  2212                                  |
|   \\  /    A nd           | Website:  www.openfoam.com                      |
|    \\/     M anipulation  |                                                 |
\*---------------------------------------------------------------------------*/
FoamFile
{
    version     2.0;
    format      ascii;
    arch        "LSB;label=32;scalar=64";
    class       surfaceVectorField;
    location    "2.75";
    object      Uf;
}
// * * * * * * * * * * * * * * * * * * * * * * * * * * * * * * * * * * * * * //

dimensions      [0 1 -1 0 0 0 0];

internalField   nonuniform List<vector> 
1812
(
(0.0316857 -0.000100734 0.000230025)
(0.0391247 -3.1481e-05 0.000411688)
(0.0396092 -0.000729686 0.000146777)
(0.0309143 -8.00076e-05 0.000139035)
(0.0383911 -2.70805e-05 0.000255834)
(0.0383636 -0.000503608 0.000102941)
(0.0302965 -5.95139e-05 7.81654e-05)
(0.0378174 -9.84327e-06 0.000144221)
(0.0374638 -0.000387831 5.74685e-05)
(0.0297673 -4.64248e-05 3.8412e-05)
(0.0372938 -1.10239e-06 6.61821e-05)
(0.0367171 -0.000314426 2.786e-05)
(0.0292974 -3.99394e-05 1.27634e-05)
(0.0368124 -4.91384e-06 1.10264e-05)
(0.0360832 -0.000255322 1.12898e-05)
(0.0288635 -3.90494e-05 -3.39577e-06)
(0.0363563 -1.71741e-05 -2.77553e-05)
(0.0355253 -0.000207767 3.33486e-06)
(0.0284499 -4.16798e-05 -1.23372e-05)
(0.0358995 -3.16973e-05 -5.37022e-05)
(0.0349996 -0.000172594 1.24433e-06)
(0.0354783 -5.04785e-05 -7.0279e-05)
(0.0345312 -0.00014214 6.61118e-06)
(0.0494373 -4.75566e-05 0.000469439)
(0.0568719 -0.000198738 0.00062011)
(0.0633873 -0.000857292 0.000464457)
(0.0489074 -2.89849e-05 0.000275168)
(0.0564422 -0.000169847 0.000336757)
(0.0626135 -0.00064959 0.00033429)
(0.0484415 -2.02917e-05 0.000130496)
(0.0560648 -0.00015541 0.000128226)
(0.0619882 -0.000496464 0.000227125)
(0.0479853 -2.80777e-05 2.45232e-05)
(0.0556693 -0.000163599 -2.54543e-05)
(0.0614248 -0.000392259 0.000136184)
(0.0475179 -4.79364e-05 -5.28512e-05)
(0.0552532 -0.000182474 -0.000139297)
(0.0609049 -0.000325287 6.27485e-05)
(0.0470373 -7.24216e-05 -0.000107886)
(0.0548136 -0.000205848 -0.000223165)
(0.0604099 -0.000279217 7.42425e-06)
(0.0465458 -0.000100967 -0.000146179)
(0.0543457 -0.00022451 -0.000283244)
(0.0599216 -0.00025184 -3.27271e-05)
(0.0538775 -0.000254292 -0.000327946)
(0.0594555 -0.000225554 -5.72909e-05)
(0.0659055 -0.000334278 0.00091348)
(0.0701047 -0.000163421 0.00102663)
(0.0784502 -0.00121142 0.000829908)
(0.0656799 -0.000286614 0.000490514)
(0.0701657 -9.69561e-05 0.000572108)
(0.0782155 -0.00102009 0.000516025)
(0.0654095 -0.000256194 0.000180316)
(0.0701391 -8.53357e-05 0.000222378)
(0.0779987 -0.000854569 0.00027173)
(0.0651054 -0.00024357 -4.59278e-05)
(0.0700315 -8.90797e-05 -4.10034e-05)
(0.077804 -0.000717928 8.44961e-05)
(0.0647657 -0.000250554 -0.000214102)
(0.0698354 -0.00010959 -0.000240531)
(0.0776093 -0.000624136 -6.48468e-05)
(0.0643881 -0.000268078 -0.000339629)
(0.0695591 -0.00013976 -0.000391977)
(0.0774044 -0.000561222 -0.000184222)
(0.0639741 -0.000288078 -0.000432729)
(0.0692128 -0.000173246 -0.000506511)
(0.0771857 -0.00051882 -0.000279058)
(0.0635242 -0.000311316 -0.000502726)
(0.0688091 -0.000207517 -0.00059427)
(0.076953 -0.000486849 -0.000352507)
(0.0683499 -0.000244567 -0.000661852)
(0.0766965 -0.000469559 -0.000412236)
(0.0723021 0.00029727 0.00215786)
(0.0749048 0.000684173 0.00157032)
(0.0832849 -0.000289341 0.00143165)
(0.0734934 8.12139e-05 0.00163098)
(0.0757549 0.000476192 0.00123055)
(0.0840767 -0.000639346 0.0010742)
(0.0743187 7.87376e-05 0.00111631)
(0.0767186 0.000411007 0.000831304)
(0.0848201 -0.000622375 0.000791271)
(0.0748682 0.000117194 0.000667759)
(0.077457 0.000421683 0.000449424)
(0.0854303 -0.000485092 0.000511561)
(0.0752343 0.000109958 0.00029356)
(0.077928 0.000377739 0.000115692)
(0.0858691 -0.000378554 0.000241539)
(0.0754146 6.7569e-05 -6.98138e-06)
(0.0781921 0.000288169 -0.00015863)
(0.0861822 -0.000322942 -6.1973e-06)
(0.0754293 1.21014e-05 -0.000242614)
(0.078286 0.000185045 -0.00037675)
(0.0863951 -0.000288122 -0.000204933)
(0.0753086 -4.49452e-05 -0.000425174)
(0.078227 8.44512e-05 -0.000550105)
(0.0865179 -0.000268857 -0.00036355)
(0.0750742 -0.000100804 -0.000565762)
(0.078032 -1.06749e-05 -0.0006869)
(0.0865588 -0.000263898 -0.000491348)
(0.0747434 -0.000155229 -0.000675517)
(0.0777253 -9.76827e-05 -0.000792852)
(0.086528 -0.000269561 -0.000593837)
(0.0743324 -0.000208223 -0.000761551)
(0.0773258 -0.000171906 -0.000875743)
(0.0864345 -0.000283461 -0.000677679)
(0.076848 -0.000248014 -0.000933145)
(0.0862855 -0.000301882 -0.000743747)
(0.0784909 0.000847719 0.000596503)
(0.0812167 0.0012339 6.99988e-05)
(0.0885134 0.00036501 0.000194723)
(0.0793452 0.000866509 0.000379314)
(0.0816339 0.0012601 -0.000164008)
(0.0889889 0.000424082 -1.91297e-05)
(0.0801198 0.000840113 0.000115418)
(0.0822214 0.00118551 -0.000411686)
(0.0896227 0.000481825 -0.00016605)
(0.0807056 0.000757575 -0.000143458)
(0.082647 0.00105471 -0.000628951)
(0.0902262 0.000494166 -0.000319499)
(0.0810838 0.000626702 -0.000372158)
(0.0828521 0.000891569 -0.000810724)
(0.0907141 0.000443892 -0.000494972)
(0.0812715 0.000473993 -0.000560475)
(0.0828583 0.00070559 -0.000949446)
(0.0910713 0.000361733 -0.000649036)
(0.0812881 0.000318739 -0.000712569)
(0.0827091 0.000516718 -0.00104953)
(0.0913165 0.00026715 -0.000775552)
(0.0811538 0.000171407 -0.000836827)
(0.0824256 0.000336542 -0.00112124)
(0.0914571 0.000172268 -0.000875413)
(0.0808872 3.80941e-05 -0.00093654)
(0.0820179 0.00016742 -0.00117392)
(0.0914989 7.94328e-05 -0.000953534)
(0.0805099 -7.82571e-05 -0.00101272)
(0.0815132 2.18351e-05 -0.00120986)
(0.0914561 -1.07307e-05 -0.00101486)
(0.0800402 -0.000181153 -0.0010649)
(0.0809338 -9.84779e-05 -0.00122963)
(0.09134 -9.57466e-05 -0.00106156)
(0.0802979 -0.000203902 -0.00123255)
(0.0911605 -0.000177814 -0.00109284)
(0.0843971 0.00157996 -0.000678473)
(0.086491 0.00169589 -0.00113714)
(0.0931829 0.00107147 -0.00086879)
(0.0846853 0.00156759 -0.000963154)
(0.0863649 0.0017938 -0.00154466)
(0.0933577 0.00119497 -0.00115341)
(0.0848477 0.00141705 -0.00117412)
(0.0862261 0.00165662 -0.00178817)
(0.0936073 0.00119297 -0.00132582)
(0.0848421 0.00121058 -0.0013152)
(0.0858647 0.0014208 -0.00188325)
(0.0938031 0.00110633 -0.00143461)
(0.0846638 0.000986727 -0.00140382)
(0.0852909 0.0011522 -0.00189646)
(0.0938953 0.00097422 -0.00150792)
(0.0843327 0.00076181 -0.00145206)
(0.0845638 0.000880571 -0.00186391)
(0.0938786 0.000811783 -0.00155065)
(0.0838735 0.000547716 -0.00147039)
(0.0837402 0.000624292 -0.00181013)
(0.0937665 0.000640964 -0.00157145)
(0.0833097 0.000342771 -0.00146829)
(0.0828541 0.000388693 -0.00174449)
(0.0935714 0.000470874 -0.00156993)
(0.0826628 0.000154235 -0.00145362)
(0.081924 0.000177136 -0.00167089)
(0.0933032 0.000301207 -0.00154875)
(0.0819536 -2.07971e-06 -0.00142981)
(0.0809789 3.55049e-06 -0.00159314)
(0.092979 0.000148119 -0.00151739)
(0.0812036 -0.00012716 -0.0013987)
(0.0800417 -0.000127381 -0.0015155)
(0.092614 1.657e-05 -0.00148145)
(0.0791234 -0.000231861 -0.00144076)
(0.0922206 -9.62353e-05 -0.0014417)
(0.0884607 0.00193201 -0.00200107)
(0.0891468 0.00199724 -0.00230378)
(0.0958818 0.00140508 -0.00188639)
(0.087969 0.00188448 -0.00235661)
(0.0881292 0.00206207 -0.00302025)
(0.0957428 0.00152623 -0.00227977)
(0.0872353 0.0016412 -0.00247486)
(0.0869054 0.00177588 -0.00311145)
(0.0955452 0.00145725 -0.00244767)
(0.0862873 0.00133576 -0.00243995)
(0.0853283 0.00138063 -0.00295193)
(0.0951728 0.00128619 -0.0024702)
(0.0851796 0.00101859 -0.00233328)
(0.0835843 0.000974635 -0.00272612)
(0.09464 0.00105952 -0.00241482)
(0.083977 0.000717938 -0.00220144)
(0.0818275 0.000627286 -0.00247892)
(0.0939928 0.000816032 -0.00231896)
(0.0827315 0.000443892 -0.00206685)
(0.0801397 0.000344603 -0.00223818)
(0.0932789 0.000576979 -0.00220037)
(0.0814821 0.000206318 -0.00193321)
(0.0785513 0.000118405 -0.00201711)
(0.092532 0.000355006 -0.00207327)
(0.0802636 1.52305e-05 -0.00180046)
(0.077079 -5.82168e-05 -0.00181975)
(0.0917791 0.000164969 -0.00193978)
(0.0790984 -0.000127613 -0.00167266)
(0.0757323 -0.00018118 -0.00164767)
(0.0910454 9.87009e-06 -0.00180941)
(0.0779976 -0.000234523 -0.0015541)
(0.0745092 -0.000257359 -0.00150333)
(0.0903462 -0.000110771 -0.00168809)
(0.0733962 -0.000312206 -0.00138297)
(0.0896868 -0.000209824 -0.00157663)
(0.089091 0.00205269 -0.00323634)
(0.0871319 0.00210484 -0.00343215)
(0.0952861 0.00159703 -0.00286296)
(0.0872445 0.00182306 -0.00364815)
(0.0843966 0.00191787 -0.0042058)
(0.0947003 0.00153977 -0.00349193)
(0.0850507 0.0014116 -0.00348429)
(0.0813881 0.00134101 -0.00386508)
(0.0938256 0.00128851 -0.00345216)
(0.0827133 0.000960397 -0.00316808)
(0.078136 0.000755363 -0.00331144)
(0.0925972 0.000961331 -0.00321249)
(0.0803855 0.000551045 -0.00282458)
(0.0751386 0.000316102 -0.00278157)
(0.0911894 0.000617562 -0.00293675)
(0.0781892 0.00023478 -0.00248355)
(0.0725631 3.70717e-05 -0.00231887)
(0.0897567 0.000324947 -0.00263341)
(0.0761831 8.17837e-06 -0.00216873)
(0.070394 -0.000140063 -0.00193982)
(0.0883954 9.65698e-05 -0.0023341)
(0.07439 -0.000149183 -0.00189542)
(0.068574 -0.00023881 -0.0016313)
(0.0871425 -6.83721e-05 -0.0020615)
(0.0728052 -0.000251355 -0.00166786)
(0.0670412 -0.000287727 -0.00139011)
(0.0860149 -0.000185954 -0.00182885)
(0.0714106 -0.000305082 -0.00148469)
(0.0657288 -0.000303855 -0.00121517)
(0.0850166 -0.000260114 -0.00163527)
(0.0701798 -0.000329185 -0.00134122)
(0.064591 -0.000298131 -0.00109478)
(0.0841381 -0.000301216 -0.00147911)
(0.0833671 -0.000323832 -0.00135267)
(0.083683 0.00182756 -0.00421452)
(0.0770291 0.00173473 -0.0041372)
(0.0897768 0.00152312 -0.00404456)
(0.0793051 0.0012938 -0.00424511)
(0.0715933 0.00109782 -0.00416006)
(0.0882061 0.00125922 -0.00449266)
(0.074977 0.00063681 -0.00360697)
(0.0667396 0.000298474 -0.00320698)
(0.0861062 0.000699377 -0.00385125)
(0.0712201 0.000176586 -0.00295072)
(0.0624331 -0.000108913 -0.00241578)
(0.0836649 0.000215102 -0.00315558)
(0.0680891 -6.86454e-05 -0.00237529)
(0.0592199 -0.000242268 -0.00175259)
(0.0813913 -7.5348e-05 -0.00255956)
(0.0655736 -0.000197011 -0.00190181)
(0.0569423 -0.000253477 -0.00132479)
(0.0794748 -0.000230291 -0.00206464)
(0.0635876 -0.000259797 -0.0015304)
(0.0552376 -0.000238731 -0.00106536)
(0.0779049 -0.000311643 -0.00167372)
(0.0620156 -0.000273864 -0.00124343)
(0.0538882 -0.000209407 -0.000884433)
(0.0766296 -0.000330288 -0.00137497)
(0.060741 -0.000261251 -0.00103981)
(0.0527948 -0.000174341 -0.000743244)
(0.0755917 -0.000319193 -0.00115866)
(0.0596649 -0.000235459 -0.00091415)
(0.0518647 -0.000142518 -0.000644133)
(0.0747289 -0.000289921 -0.00101394)
(0.0510732 -0.000109465 -0.000584747)
(0.0739938 -0.00025142 -0.000918583)
(0.069229 0.000819142 -0.00382315)
(0.0585946 0.000536503 -0.00347783)
(0.0761173 0.000824727 -0.00536614)
(0.0613033 0.000498547 -0.00351738)
(0.0498789 3.24069e-05 -0.00229623)
(0.0728587 0.000630414 -0.00445006)
(0.0558181 9.80156e-05 -0.00262051)
(0.0450464 -0.00010025 -0.00151128)
(0.0694878 0.000124867 -0.0030495)
(0.0523139 -0.000139996 -0.00171354)
(0.0416971 -0.000139569 -0.00112035)
(0.0663416 -0.000221549 -0.00198571)
(0.0500468 -0.00021091 -0.00105151)
(0.0396456 -0.000145583 -0.000727885)
(0.0640807 -0.000363487 -0.0012489)
(0.0484777 -0.000182902 -0.0007322)
(0.0383967 -0.000103314 -0.000501608)
(0.0625864 -0.00034436 -0.000845067)
(0.0473045 -0.000137432 -0.000587833)
(0.0374859 -5.8096e-05 -0.000388166)
(0.0615029 -0.000286478 -0.000635133)
(0.0463642 -9.94826e-05 -0.000495831)
(0.0367306 -2.82285e-05 -0.000315866)
(0.0606263 -0.000218008 -0.000513665)
(0.0455753 -7.22642e-05 -0.000419275)
(0.0360925 -1.11276e-05 -0.000256243)
(0.0598926 -0.000156675 -0.000428317)
(0.0448784 -5.46897e-05 -0.000356666)
(0.0355207 -2.56651e-06 -0.000209385)
(0.0592453 -0.000105725 -0.000368801)
(0.0350246 -1.15313e-06 -0.000171431)
(0.0586809 -7.28564e-05 -0.0003109)
(0.046804 0.000160381 -0.00258196)
(0.0535181 -1.42556e-05 -0.00370239)
(0.0383152 -0.00034875 -0.000883354)
(0.0460799 -0.000405972 -0.00187543)
(0.0346463 -0.000441113 -0.000204849)
(0.0425703 -0.000634976 -0.000527283)
(0.0327868 -0.000348206 -0.000118192)
(0.0403924 -0.0005866 -7.23153e-05)
(0.031702 -0.000229585 -0.000100313)
(0.0391614 -0.00041199 -3.07501e-05)
(0.0309341 -0.000138838 -8.01664e-05)
(0.0384227 -0.000254849 -2.72306e-05)
(0.0303112 -7.82774e-05 -6.04535e-05)
(0.0378375 -0.00014305 -1.19734e-05)
(0.029775 -3.87624e-05 -4.70769e-05)
(0.0373059 -6.59433e-05 -3.14673e-06)
(0.0293019 -1.30294e-05 -4.02409e-05)
(0.0368207 -1.17137e-05 -5.55028e-06)
(0.0288647 3.23956e-06 -3.82949e-05)
(0.0363507 2.72094e-05 -1.69176e-05)
(0.0359227 5.36229e-05 -2.96768e-05)
(0.0500017 -0.00105672 0.000210481)
(0.0640626 -0.00124871 0.000368573)
(0.0591832 -0.00176827 0.000235158)
(0.0484337 -0.00073042 0.000184342)
(0.0625751 -0.000850326 0.000344747)
(0.0569123 -0.00132216 0.000257065)
(0.0472764 -0.000582856 0.000139391)
(0.0614954 -0.00063691 0.00028464)
(0.0552206 -0.00105252 0.000246491)
(0.0463498 -0.000491966 0.000101129)
(0.060621 -0.000511932 0.0002179)
(0.0538797 -0.000874524 0.00021402)
(0.0455664 -0.000416882 7.35867e-05)
(0.0598886 -0.00042658 0.000157357)
(0.0527894 -0.000740103 0.00017617)
(0.0448741 -0.000353999 5.67023e-05)
(0.0592517 -0.000360827 0.000109492)
(0.0518689 -0.00064636 0.000140968)
(0.0442381 -0.000303593 4.82822e-05)
(0.0586674 -0.000316295 7.15192e-05)
(0.0510507 -0.000579624 0.000114055)
(0.0581355 -0.000274011 4.87743e-05)
(0.0503297 -0.000541189 8.6058e-05)
(0.0801162 -0.00141056 0.000525869)
(0.0862578 -0.00170068 0.00054329)
(0.0874597 -0.00210849 0.000465748)
(0.079166 -0.001065 0.000466594)
(0.0856249 -0.00133022 0.000458701)
(0.0864987 -0.00168137 0.000484863)
(0.0783968 -0.000832326 0.000381366)
(0.0851307 -0.00107681 0.000353093)
(0.085671 -0.00136627 0.000449379)
(0.077756 -0.000674439 0.000287164)
(0.0847335 -0.000903705 0.00023864)
(0.0849602 -0.00113962 0.000375383)
(0.0772004 -0.000563114 0.000200802)
(0.0844041 -0.000782468 0.000129814)
(0.0843541 -0.000981145 0.000296965)
(0.0767015 -0.000488118 0.000126292)
(0.0841196 -0.000690965 3.57237e-05)
(0.0838327 -0.000862863 0.000224079)
(0.0762302 -0.000426078 6.94113e-05)
(0.0838638 -0.00063086 -4.559e-05)
(0.0833781 -0.000784836 0.000155383)
(0.0836113 -0.000570028 -0.000105576)
(0.0829594 -0.00070549 0.000103633)
(0.092847 -0.0018701 0.000580388)
(0.0951946 -0.00159684 0.000480223)
(0.0980771 -0.00231568 0.000480932)
(0.092688 -0.00154278 0.000464833)
(0.0953031 -0.00130054 0.000347016)
(0.0980364 -0.00201392 0.000463277)
(0.0925757 -0.00127688 0.000328728)
(0.0954053 -0.00106603 0.000201748)
(0.0979726 -0.00174853 0.000389717)
(0.0925053 -0.00107512 0.000189074)
(0.0955244 -0.000880047 5.81102e-05)
(0.0979263 -0.00152454 0.000289109)
(0.0924682 -0.000929319 5.63517e-05)
(0.0956542 -0.000745243 -7.99283e-05)
(0.0979051 -0.00134725 0.000178355)
(0.0924536 -0.000823423 -6.30252e-05)
(0.0957819 -0.000651304 -0.000205513)
(0.0979069 -0.001208 7.01541e-05)
(0.0924476 -0.00074451 -0.000166197)
(0.0959016 -0.000586698 -0.000315782)
(0.0979297 -0.00109894 -3.06097e-05)
(0.0924457 -0.000684444 -0.000252928)
(0.0960082 -0.000542366 -0.000409124)
(0.0979695 -0.0010134 -0.000121126)
(0.0960955 -0.000509567 -0.000486878)
(0.0980175 -0.000942581 -0.000198983)
(0.0963914 -0.00109056 0.00057252)
(0.0981128 -0.00046071 0.00017191)
(0.101101 -0.00119569 0.000354455)
(0.0969324 -0.00119859 0.000490282)
(0.0985131 -0.000518595 8.82298e-05)
(0.101498 -0.0013557 0.000406496)
(0.0974497 -0.00110354 0.000368484)
(0.0988955 -0.000509145 -2.91509e-07)
(0.101872 -0.001377 0.000342436)
(0.0978801 -0.000934759 0.000221164)
(0.0993542 -0.000423542 -0.000108876)
(0.102307 -0.00127693 0.000251466)
(0.0982696 -0.000774481 6.25677e-05)
(0.0998074 -0.000333196 -0.00024098)
(0.102729 -0.00114362 0.000138917)
(0.0986381 -0.000640422 -8.83589e-05)
(0.100221 -0.000269858 -0.000376182)
(0.103113 -0.00101525 1.59052e-05)
(0.098979 -0.000537538 -0.000228331)
(0.100601 -0.000228641 -0.000502851)
(0.103477 -0.000900022 -0.000106852)
(0.0992893 -0.000467835 -0.000357318)
(0.100947 -0.000206089 -0.000612022)
(0.103822 -0.000807808 -0.000226822)
(0.0995667 -0.000424953 -0.000472368)
(0.101255 -0.000202945 -0.000704709)
(0.104145 -0.000739353 -0.0003392)
(0.0998093 -0.000401395 -0.000571945)
(0.101523 -0.000216527 -0.000785016)
(0.104446 -0.000689807 -0.000440631)
(0.100018 -0.000390291 -0.000655503)
(0.101751 -0.000241584 -0.000853161)
(0.104726 -0.000655083 -0.00052987)
(0.101941 -0.000271912 -0.000908183)
(0.104984 -0.000629523 -0.000606151)
(0.100097 -1.07975e-05 -0.000294057)
(0.101534 0.000268671 -0.000757958)
(0.104027 -0.000350674 -0.000386918)
(0.100467 0.000110035 -0.00039978)
(0.10176 0.000437963 -0.000887234)
(0.104381 -0.000238728 -0.000398833)
(0.100923 0.000175981 -0.000492624)
(0.102043 0.000516662 -0.000985296)
(0.104752 -0.000186626 -0.0004568)
(0.10139 0.000206145 -0.000592042)
(0.102418 0.000543997 -0.0010704)
(0.105221 -0.000152441 -0.000526315)
(0.10185 0.000203342 -0.000701682)
(0.102807 0.000526936 -0.00115126)
(0.105716 -0.000133702 -0.00061065)
(0.102281 0.000173648 -0.000812708)
(0.103164 0.000468346 -0.00122834)
(0.10619 -0.000134651 -0.000704418)
(0.102669 0.000132724 -0.000907939)
(0.103475 0.000387899 -0.00129705)
(0.106634 -0.000148247 -0.00079714)
(0.103012 8.66766e-05 -0.000979569)
(0.103737 0.000300631 -0.0013386)
(0.107049 -0.000166441 -0.000874621)
(0.10331 3.0944e-05 -0.00103601)
(0.103955 0.000208317 -0.00135366)
(0.107431 -0.000192844 -0.000937984)
(0.103564 -3.42859e-05 -0.00108331)
(0.104133 0.000111758 -0.00135828)
(0.107779 -0.000229036 -0.000992336)
(0.103774 -0.00010374 -0.00112149)
(0.104272 1.43766e-05 -0.00135886)
(0.108094 -0.000271363 -0.00103799)
(0.104378 -7.84771e-05 -0.00135436)
(0.108378 -0.000315482 -0.00107456)
(0.1031 0.000655363 -0.00133527)
(0.103524 0.000717137 -0.00166654)
(0.106295 0.00025586 -0.00128728)
(0.103301 0.000811357 -0.00146756)
(0.103699 0.000893872 -0.00189234)
(0.106568 0.000417889 -0.00137667)
(0.103576 0.000870663 -0.00156498)
(0.103904 0.000976716 -0.00203941)
(0.106872 0.000497765 -0.00146536)
(0.103867 0.000855703 -0.0016332)
(0.104114 0.000961484 -0.00210954)
(0.107234 0.00051412 -0.00153442)
(0.10414 0.000783559 -0.00168145)
(0.104281 0.000875809 -0.00212953)
(0.107608 0.000485103 -0.00158547)
(0.104375 0.000673256 -0.00171545)
(0.104383 0.000742622 -0.0021188)
(0.10796 0.000419622 -0.00162278)
(0.10456 0.000545434 -0.00172968)
(0.104421 0.000587803 -0.00207989)
(0.108277 0.000334239 -0.00164769)
(0.104695 0.000411994 -0.00171423)
(0.104407 0.000431155 -0.00201421)
(0.108555 0.000239818 -0.00165148)
(0.10479 0.000279897 -0.00167728)
(0.104359 0.000283827 -0.00192476)
(0.1088 0.000143295 -0.00163235)
(0.104852 0.000152196 -0.00163498)
(0.10429 0.000147996 -0.00183238)
(0.109014 4.82006e-05 -0.00160258)
(0.104886 3.20384e-05 -0.00159257)
(0.104205 2.38241e-05 -0.00174631)
(0.109201 -4.38109e-05 -0.00157004)
(0.104113 -8.60612e-05 -0.00166534)
(0.109367 -0.000129443 -0.00153569)
(0.104058 0.000934886 -0.00220764)
(0.102817 0.000949736 -0.00239442)
(0.106743 0.000604946 -0.00200105)
(0.104268 0.00103162 -0.00244393)
(0.103178 0.0010208 -0.00285601)
(0.107052 0.000682535 -0.0022588)
(0.104444 0.00103522 -0.00256115)
(0.103394 0.000987854 -0.00302939)
(0.107341 0.000714724 -0.00241845)
(0.104528 0.000950081 -0.00258353)
(0.10344 0.000858592 -0.00299301)
(0.107615 0.000680334 -0.00247868)
(0.104519 0.000805688 -0.00254607)
(0.103313 0.000681131 -0.00287436)
(0.107831 0.000592285 -0.00247159)
(0.104427 0.000631255 -0.00246468)
(0.103054 0.00048839 -0.002701)
(0.107975 0.000472404 -0.00242154)
(0.104271 0.000451295 -0.00234846)
(0.102728 0.000300997 -0.00249594)
(0.108057 0.000338597 -0.00233387)
(0.104077 0.000283755 -0.00221108)
(0.102374 0.000139059 -0.00228669)
(0.108096 0.000208221 -0.00222466)
(0.103866 0.000135362 -0.00206827)
(0.102021 7.26038e-06 -0.00208901)
(0.108109 9.08575e-05 -0.00210207)
(0.103653 6.0904e-06 -0.00193431)
(0.101688 -9.83435e-05 -0.00191432)
(0.10811 -1.19349e-05 -0.00198021)
(0.103445 -0.000104548 -0.0018119)
(0.101382 -0.000182518 -0.00176356)
(0.108106 -0.00010071 -0.00186622)
(0.101111 -0.000246818 -0.00163362)
(0.108103 -0.000175302 -0.00176145)
(0.101912 0.00103469 -0.00302208)
(0.0984369 0.00102167 -0.0031417)
(0.104518 0.000784044 -0.00255349)
(0.10235 0.000928699 -0.00338744)
(0.0992136 0.000914794 -0.00379582)
(0.105004 0.000708764 -0.0030518)
(0.102467 0.00075492 -0.00340274)
(0.0994095 0.00064885 -0.00374658)
(0.105328 0.000589642 -0.00322277)
(0.102287 0.000546387 -0.00323591)
(0.0991389 0.000347232 -0.00337125)
(0.105503 0.000434419 -0.00315303)
(0.101913 0.000334285 -0.00299355)
(0.0985823 9.41956e-05 -0.0029602)
(0.105506 0.000268493 -0.00299169)
(0.101434 0.000142225 -0.00270938)
(0.0979196 -8.91724e-05 -0.00256691)
(0.105379 0.000113813 -0.00276992)
(0.100919 -1.44235e-05 -0.00242335)
(0.0972543 -0.000211065 -0.00221393)
(0.105192 -1.57105e-05 -0.00252274)
(0.100414 -0.000131671 -0.0021629)
(0.0966315 -0.000275627 -0.00191854)
(0.104986 -0.000112409 -0.00228663)
(0.099945 -0.000215485 -0.0019394)
(0.0960745 -0.00031141 -0.00168456)
(0.104784 -0.000180152 -0.00207251)
(0.0995264 -0.000273499 -0.00175183)
(0.0955936 -0.000320545 -0.00150388)
(0.104606 -0.000223047 -0.00188684)
(0.0991617 -0.000311005 -0.00159572)
(0.0951781 -0.000316786 -0.00135597)
(0.104458 -0.000249808 -0.00172754)
(0.104348 -0.000261796 -0.0015932)
(0.0959422 0.000911657 -0.00387778)
(0.0887517 0.000655814 -0.00411903)
(0.0989034 0.000611889 -0.00303177)
(0.096559 0.000609402 -0.00409346)
(0.0898474 0.000537657 -0.00439768)
(0.0996685 0.000477237 -0.00361921)
(0.0963897 0.000225143 -0.00367385)
(0.0895642 8.893e-05 -0.00367569)
(0.0998998 0.000187969 -0.0035382)
(0.0957396 -8.08587e-05 -0.00309821)
(0.088543 -0.000280277 -0.00277207)
(0.0997581 -7.6064e-05 -0.00315062)
(0.0949146 -0.000275828 -0.00257056)
(0.0874312 -0.000455081 -0.00212276)
(0.0993909 -0.000251199 -0.00272601)
(0.0940836 -0.000379231 -0.00212573)
(0.0864677 -0.000483883 -0.00167202)
(0.0989555 -0.000340583 -0.00233645)
(0.0933213 -0.00041111 -0.00176937)
(0.0856526 -0.000453048 -0.00135514)
(0.0985338 -0.000366715 -0.00200255)
(0.0926563 -0.000399526 -0.00150134)
(0.0849514 -0.000376866 -0.00113509)
(0.09816 -0.000342825 -0.00173454)
(0.0920908 -0.000367532 -0.00130777)
(0.0843505 -0.000297176 -0.000980409)
(0.0978507 -0.000300615 -0.00152679)
(0.0916194 -0.000321886 -0.00116328)
(0.0838315 -0.000219578 -0.000874506)
(0.0976095 -0.000243977 -0.00137124)
(0.0833724 -0.000157532 -0.000774878)
(0.0974192 -0.000185062 -0.0012447)
(0.0837782 0.000552401 -0.00478009)
(0.0690422 0.000140732 -0.00456318)
(0.0876405 0.00011492 -0.00343614)
(0.0838521 0.00022907 -0.00413354)
(0.0675641 1.20851e-05 -0.00391873)
(0.0882731 -5.54177e-06 -0.00365179)
(0.0826417 -0.000209082 -0.00297501)
(0.0660369 -0.000440725 -0.00228865)
(0.0879187 -0.000311661 -0.00308294)
(0.0812647 -0.000463743 -0.00201521)
(0.0645232 -0.00054936 -0.00124382)
(0.087057 -0.000506771 -0.00229645)
(0.0800822 -0.000518915 -0.00141718)
(0.0634059 -0.000463956 -0.000859778)
(0.086228 -0.000537448 -0.00171414)
(0.0791358 -0.000470244 -0.00104986)
(0.0626226 -0.000333345 -0.000645529)
(0.0855932 -0.000459394 -0.00132409)
(0.0783797 -0.000386256 -0.000820422)
(0.061993 -0.000226904 -0.000495552)
(0.0851098 -0.000355804 -0.00106982)
(0.0777467 -0.000288707 -0.000670563)
(0.061428 -0.000135664 -0.000394082)
(0.0847202 -0.000238889 -0.000902299)
(0.0771936 -0.000197433 -0.000571307)
(0.0609074 -6.28888e-05 -0.000326593)
(0.0843949 -0.000129271 -0.000782894)
(0.076687 -0.000126066 -0.000488068)
(0.0604021 -5.10168e-06 -0.000286093)
(0.084113 -3.0777e-05 -0.000702915)
(0.0599326 3.16233e-05 -0.000245969)
(0.083853 3.79113e-05 -0.00061765)
(0.0576069 -0.000725258 -0.00335579)
(0.0606591 -0.00170234 -0.00306577)
(0.0533625 -0.000705315 -0.00213596)
(0.0593573 -0.00132854 -0.00229412)
(0.0511129 -0.000825143 -0.000695074)
(0.0584148 -0.00123383 -0.00086072)
(0.050129 -0.000700014 -0.000114794)
(0.0575397 -0.00096794 -0.000247707)
(0.0494815 -0.000469596 -4.52755e-05)
(0.0569058 -0.000621864 -0.000182086)
(0.0489472 -0.000272139 -3.55548e-05)
(0.0564659 -0.00033411 -0.000175909)
(0.0484652 -0.000127866 -2.84954e-05)
(0.0560778 -0.000124243 -0.000170991)
(0.0479967 -2.42149e-05 -3.26062e-05)
(0.0556764 2.75966e-05 -0.000173882)
(0.0475241 5.17759e-05 -4.83832e-05)
(0.0552579 0.000139286 -0.000186274)
(0.0470382 0.000107547 -7.20097e-05)
(0.054807 0.000222374 -0.000203162)
(0.0543633 0.000285294 -0.000230948)
(0.0712117 -0.0029645 -0.000180059)
(0.0836651 -0.00316346 -0.000214137)
(0.0781296 -0.00332107 -0.000755693)
(0.0680832 -0.00237953 6.90588e-05)
(0.0813971 -0.00257041 7.48869e-05)
(0.0751315 -0.00278754 -0.000314069)
(0.065571 -0.00189153 0.000203198)
(0.0794829 -0.00206354 0.000232326)
(0.0725598 -0.00231378 -3.22333e-05)
(0.0635895 -0.00151684 0.000265592)
(0.0779117 -0.00166512 0.000314707)
(0.0703929 -0.00192866 0.000145216)
(0.0620197 -0.00123661 0.00027609)
(0.0766342 -0.00136893 0.000331386)
(0.0685726 -0.00162332 0.000240984)
(0.060744 -0.00104137 0.000260305)
(0.0755935 -0.00115701 0.000319007)
(0.0670385 -0.00138876 0.00028742)
(0.0596661 -0.00091584 0.00023478)
(0.0747275 -0.00101494 0.000288685)
(0.0657253 -0.00121884 0.000302099)
(0.0587185 -0.000840022 0.000203712)
(0.0739886 -0.000917205 0.000251325)
(0.0645797 -0.00109561 0.000297439)
(0.0733399 -0.000852719 0.000211637)
(0.0635653 -0.00101302 0.000281591)
(0.0957584 -0.00309637 8.50495e-05)
(0.0997684 -0.00314285 8.03516e-05)
(0.099145 -0.00336783 -0.000339956)
(0.0949347 -0.00257576 0.000277025)
(0.0994071 -0.00272233 0.000253375)
(0.0985952 -0.0029589 -8.87435e-05)
(0.0941015 -0.00213257 0.000377896)
(0.0989691 -0.00234067 0.000340242)
(0.0979305 -0.00257097 8.82451e-05)
(0.0933318 -0.00177421 0.00040918)
(0.0985424 -0.00200862 0.000365432)
(0.0972601 -0.00221854 0.000207019)
(0.0926587 -0.00150371 0.0003981)
(0.0981636 -0.00173898 0.000341681)
(0.0966323 -0.00192201 0.000271927)
(0.0920886 -0.00130641 0.000367183)
(0.0978498 -0.00152882 0.000299957)
(0.0960712 -0.00168654 0.000308771)
(0.0916115 -0.00116372 0.000321442)
(0.0976025 -0.00136886 0.000244164)
(0.0955855 -0.00150297 0.00031964)
(0.0912157 -0.00105285 0.000272451)
(0.0974156 -0.00125017 0.000183017)
(0.0951727 -0.00136196 0.000312649)
(0.0972741 -0.00114666 0.000125825)
(0.0948198 -0.00124083 0.000300722)
(0.103871 -0.00258052 0.000230919)
(0.105539 -0.0022052 0.000140736)
(0.106246 -0.00274853 -2.24633e-05)
(0.103935 -0.00232452 0.000293332)
(0.1058 -0.00201088 0.000173562)
(0.106461 -0.00256241 8.85084e-05)
(0.103956 -0.00207497 0.000300947)
(0.106005 -0.00180896 0.00016299)
(0.106587 -0.00235142 0.000159348)
(0.103966 -0.00184974 0.000269312)
(0.106189 -0.00161728 0.000119793)
(0.106671 -0.00213689 0.000193296)
(0.103986 -0.00165702 0.000214454)
(0.10637 -0.00144838 5.64322e-05)
(0.106742 -0.00194158 0.000198817)
(0.10403 -0.00149738 0.000147644)
(0.106557 -0.00130744 -1.60223e-05)
(0.106813 -0.00176634 0.000185235)
(0.104102 -0.00136834 7.59994e-05)
(0.106753 -0.00119297 -9.16288e-05)
(0.106898 -0.00161573 0.000156524)
(0.104201 -0.00126163 6.20007e-06)
(0.106961 -0.00110149 -0.00016562)
(0.107001 -0.00148945 0.000121096)
(0.107178 -0.00102388 -0.000233629)
(0.107124 -0.0013789 8.44445e-05)
(0.106478 -0.00161414 -5.46143e-05)
(0.107348 -0.00113458 -0.000355075)
(0.108432 -0.00164513 -0.000237072)
(0.106798 -0.00167384 4.26937e-05)
(0.107697 -0.0011574 -0.000257315)
(0.108834 -0.00172106 -0.000145449)
(0.107206 -0.00165603 7.91527e-05)
(0.108059 -0.00115308 -0.000222949)
(0.109226 -0.0017521 -7.7667e-05)
(0.107619 -0.00157028 7.07719e-05)
(0.108503 -0.00110612 -0.000227629)
(0.109686 -0.00171639 -4.20277e-05)
(0.108017 -0.00145179 3.07925e-05)
(0.108964 -0.00103328 -0.000261312)
(0.110146 -0.00163597 -3.25544e-05)
(0.108402 -0.00132464 -3.01858e-05)
(0.109409 -0.000953401 -0.00031437)
(0.110577 -0.00153207 -4.26069e-05)
(0.108772 -0.00120373 -0.000104152)
(0.109837 -0.000876338 -0.000378923)
(0.110983 -0.0014195 -6.8782e-05)
(0.109131 -0.00109831 -0.000184014)
(0.110252 -0.000810483 -0.000447006)
(0.111372 -0.00131084 -0.000105847)
(0.109481 -0.00101101 -0.000264383)
(0.110652 -0.000758826 -0.000513771)
(0.111747 -0.0012124 -0.000149926)
(0.109824 -0.000940357 -0.00034156)
(0.111038 -0.000720041 -0.000576878)
(0.112111 -0.00112666 -0.000197391)
(0.110161 -0.000883064 -0.000413044)
(0.11141 -0.000691953 -0.000634812)
(0.112468 -0.00105317 -0.00024519)
(0.111769 -0.00067159 -0.000686485)
(0.112817 -0.000989794 -0.000290814)
(0.108515 -0.000640162 -0.000574137)
(0.109073 -0.000333657 -0.000947384)
(0.110398 -0.000760985 -0.000580726)
(0.108941 -0.000603472 -0.000538601)
(0.109482 -0.000265362 -0.000942526)
(0.110844 -0.000728384 -0.000526753)
(0.109416 -0.000572361 -0.00054548)
(0.10988 -0.000230537 -0.000963707)
(0.111276 -0.000718768 -0.000515745)
(0.10991 -0.000538898 -0.000576105)
(0.110341 -0.000207989 -0.000994399)
(0.111771 -0.000703677 -0.000521511)
(0.110406 -0.000507228 -0.000622795)
(0.110825 -0.000195225 -0.00103022)
(0.112291 -0.000680461 -0.000538709)
(0.110895 -0.000481147 -0.00067884)
(0.1113 -0.000194773 -0.00106844)
(0.112806 -0.00065525 -0.000566101)
(0.111372 -0.000461846 -0.000737009)
(0.111757 -0.000204194 -0.0011044)
(0.113308 -0.00062992 -0.000598998)
(0.111831 -0.000451088 -0.000791671)
(0.112196 -0.000220939 -0.00113392)
(0.113797 -0.00060648 -0.000631345)
(0.112268 -0.000449528 -0.000840577)
(0.112614 -0.000244642 -0.00115454)
(0.11427 -0.000587836 -0.000661185)
(0.112684 -0.000455562 -0.000883518)
(0.113008 -0.000273874 -0.00116735)
(0.114724 -0.00057505 -0.00068894)