/*--------------------------------*- C++ -*----------------------------------*\
| =========                 |                                                 |
| \\      /  F ield         | OpenFOAM: The Open Source CFD Toolbox           |
|  \\    /   O peration     | Version:  2212                                  |
|   \\  /    A nd           | Website:  www.openfoam.com                      |
|    \\/     M anipulation  |                                                 |
\*---------------------------------------------------------------------------*/
FoamFile
{
    version     2.0;
    format      ascii;
    arch        "LSB;label=32;scalar=64";
    class       volScalarField;
    location    "1.45";
    object      nut;
}
// * * * * * * * * * * * * * * * * * * * * * * * * * * * * * * * * * * * * * //

dimensions      [0 2 -1 0 0 0 0];

internalField   nonuniform List<scalar> 
6840
(
4.5356e-05
2.3208e-05
1.65396e-05
1.36493e-05
1.18966e-05
1.06844e-05
9.76072e-06
9.05704e-06
8.49462e-06
8.03117e-06
7.64028e-06
7.31175e-06
7.02382e-06
6.75911e-06
6.52647e-06
6.32335e-06
6.14445e-06
5.98604e-06
5.84705e-06
5.70264e-06
0.000107685
6.77183e-05
5.06311e-05
4.14159e-05
3.54048e-05
3.10366e-05
2.77136e-05
2.50815e-05
2.29332e-05
2.11504e-05
1.96502e-05
1.83706e-05
1.72621e-05
1.62924e-05
1.54482e-05
1.4719e-05
1.40821e-05
1.35213e-05
1.30294e-05
1.2606e-05
0.000160509
0.00010736
8.07408e-05
6.55975e-05
5.54896e-05
4.83025e-05
4.3131e-05
3.9079e-05
3.57391e-05
3.29497e-05
3.05781e-05
2.85353e-05
2.67747e-05
2.52473e-05
2.39105e-05
2.27324e-05
2.16922e-05
2.07721e-05
1.99638e-05
1.9251e-05
0.000198681
0.0001383
0.000105187
8.55269e-05
7.25012e-05
6.28901e-05
5.60611e-05
5.07593e-05
4.63881e-05
4.27219e-05
3.96255e-05
3.69558e-05
3.46341e-05
3.26044e-05
3.0821e-05
2.92461e-05
2.78495e-05
2.66065e-05
2.54986e-05
2.45335e-05
0.000218609
0.000155003
0.000118661
9.65069e-05
8.18824e-05
7.08356e-05
6.30857e-05
5.71437e-05
5.22487e-05
4.80967e-05
4.45834e-05
4.15734e-05
3.89546e-05
3.66624e-05
3.46449e-05
3.286e-05
3.12736e-05
2.98582e-05
2.85966e-05
2.75296e-05
0.000218609
0.000155003
0.000118661
9.65069e-05
8.18824e-05
7.08356e-05
6.30856e-05
5.71436e-05
5.22486e-05
4.80966e-05
4.45831e-05
4.15729e-05
3.89537e-05
3.66607e-05
3.4642e-05
3.28557e-05
3.1267e-05
2.98484e-05
2.85847e-05
2.75382e-05
0.000198681
0.0001383
0.000105187
8.55269e-05
7.25012e-05
6.28901e-05
5.6061e-05
5.07592e-05
4.63879e-05
4.27216e-05
3.96249e-05
3.69547e-05
3.46321e-05
3.26009e-05
3.08153e-05
2.92373e-05
2.78358e-05
2.65852e-05
2.5472e-05
2.45629e-05
0.000160509
0.00010736
8.07408e-05
6.55975e-05
5.54896e-05
4.83025e-05
4.31309e-05
3.90789e-05
3.5739e-05
3.29493e-05
3.05775e-05
2.85343e-05
2.6773e-05
2.52444e-05
2.39056e-05
2.27248e-05
2.16804e-05
2.07537e-05
1.99355e-05
1.92573e-05
0.000107685
6.77183e-05
5.06311e-05
4.14159e-05
3.54048e-05
3.10366e-05
2.77136e-05
2.50815e-05
2.29332e-05
2.11502e-05
1.965e-05
1.83703e-05
1.72615e-05
1.62907e-05
1.54456e-05
1.47151e-05
1.40758e-05
1.3512e-05
1.30234e-05
1.26279e-05
4.5356e-05
2.3208e-05
1.65396e-05
1.36493e-05
1.18966e-05
1.06844e-05
9.76072e-06
9.05704e-06
8.49461e-06
8.03116e-06
7.64027e-06
7.31176e-06
7.02381e-06
6.7591e-06
6.52646e-06
6.32336e-06
6.14448e-06
5.98609e-06
5.84718e-06
5.70297e-06
0.000107685
6.77183e-05
5.06311e-05
4.14159e-05
3.54048e-05
3.10366e-05
2.77136e-05
2.50815e-05
2.29332e-05
2.11503e-05
1.965e-05
1.83703e-05
1.72615e-05
1.62908e-05
1.54455e-05
1.4715e-05
1.40757e-05
1.35118e-05
1.30232e-05
1.26274e-05
0.000528907
0.000369984
0.000305097
0.000261371
0.000228527
0.000202475
0.000181112
0.000163071
0.000147535
0.000133978
0.00012204
0.000111453
0.000102115
9.38333e-05
8.64103e-05
7.9589e-05
7.33537e-05
6.76899e-05
6.34391e-05
5.55798e-05
0.000663952
0.000488458
0.000404619
0.000347248
0.000305035
0.000272127
0.000245318
0.000222888
0.000203755
0.000187178
0.000172652
0.000159812
0.00014837
0.000138115
0.000128876
0.000120646
0.000113228
0.000106463
0.000100706
9.41301e-05
0.00071288
0.000556432
0.000466397
0.000402355
0.000354426
0.00031705
0.000286675
0.000261256
0.000239583
0.000220848
0.000204447
0.000189957
0.000177058
0.000165495
0.000155067
0.000145622
0.00013704
0.000129211
0.000122055
0.000115839
0.000728543
0.000588231
0.000496002
0.000429132
0.00037851
0.000338935
0.000306819
0.000279975
0.000257075
0.00023726
0.000219916
0.000204587
0.000190932
0.000178686
0.000167645
0.000157629
0.000148512
0.000140176
0.000132512
0.000125462
0.000728543
0.000588231
0.000496002
0.000429132
0.00037851
0.000338935
0.000306819
0.000279975
0.000257075
0.000237259
0.000219914
0.000204583
0.000190924
0.00017867
0.000167617
0.000157586
0.000148444
0.000140067
0.000132346
0.000125332
0.00071288
0.000556432
0.000466397
0.000402355
0.000354426
0.00031705
0.000286675
0.000261255
0.000239582
0.000220846
0.000204443
0.000189949
0.000177041
0.000165461
0.000155009
0.000145529
0.000136883
0.000128941
0.000121612
0.000115463
0.000663952
0.000488458
0.000404619
0.000347248
0.000305035
0.000272127
0.000245317
0.000222887
0.000203753
0.000187175
0.000172648
0.000159804
0.000148355
0.000138083
0.00012883
0.000120566
0.000113081
0.000106185
0.000100196
9.42483e-05
0.000528907
0.000369984
0.000305097
0.000261371
0.000228527
0.000202475
0.000181112
0.000163071
0.000147535
0.000133978
0.00012204
0.000111453
0.000102115
9.38277e-05
8.64148e-05
7.95922e-05
7.33568e-05
6.76937e-05
6.34434e-05
5.55972e-05
0.000107685
6.77183e-05
5.06311e-05
4.14159e-05
3.54048e-05
3.10366e-05
2.77136e-05
2.50815e-05
2.29332e-05
2.11504e-05
1.96502e-05
1.83706e-05
1.72621e-05
1.62924e-05
1.54482e-05
1.47191e-05
1.40821e-05
1.35215e-05
1.30298e-05
1.26075e-05
0.000160509
0.00010736
8.07408e-05
6.55975e-05
5.54896e-05
4.83025e-05
4.31309e-05
3.90789e-05
3.5739e-05
3.29493e-05
3.05775e-05
2.85344e-05
2.67731e-05
2.52446e-05
2.39054e-05
2.27247e-05
2.16804e-05
2.07537e-05
1.99355e-05
1.92576e-05
0.000663952
0.000488458
0.000404619
0.000347248
0.000305035
0.000272127
0.000245317
0.000222887
0.000203753
0.000187175
0.000172648
0.000159804
0.000148357
0.000138089
0.000128824
0.000120563
0.00011308
0.000106186
0.000100192
9.42494e-05
0.000786827
0.000662293
0.000567974
0.000495805
0.000439463
0.000394561
0.000357973
0.000327449
0.000301486
0.000279044
0.000259389
0.000241989
0.000226452
0.000212479
0.000199835
0.000188359
0.000177884
0.000168265
0.000159391
0.000150342
0.000809324
0.000713906
0.000631505
0.000562574
0.000505377
0.000457785
0.000417841
0.000383939
0.000354803
0.000329448
0.000307154
0.000287376
0.000269696
0.00025379
0.000239398
0.000226313
0.000214362
0.000203377
0.000193143
0.000183086
0.000814958
0.000730426
0.000654634
0.000589044
0.000533067
0.000485439
0.000444764
0.000409795
0.000379473
0.000352935
0.000329497
0.000308638
0.000289953
0.000273122
0.000257883
0.000244018
0.000231346
0.000219688
0.000208806
0.000198233
0.000814958
0.000730426
0.000654634
0.000589044
0.000533067
0.000485439
0.000444764
0.000409795
0.000379473
0.000352935
0.000329497
0.000308638
0.000289952
0.000273116
0.000257874
0.000244006
0.000231327
0.000219655
0.000208732
0.000198012
0.000809324
0.000713906
0.000631505
0.000562574
0.000505377
0.000457785
0.00041784
0.000383939
0.000354803
0.000329448
0.000307154
0.000287375
0.000269693
0.000253781
0.000239385
0.000226293
0.000214327
0.000203309
0.000192997
0.000182632
0.000786827
0.000662293
0.000567974
0.000495805
0.000439463
0.000394561
0.000357973
0.000327449
0.000301486
0.000279044
0.000259389
0.000241989
0.000226451
0.000212476
0.000199838
0.000188361
0.000177886
0.000168267
0.00015939
0.000150321
0.000663952
0.000488458
0.000404619
0.000347248
0.000305035
0.000272127
0.000245318
0.000222888
0.000203754
0.000187178
0.000172652
0.000159812
0.000148371
0.000138114
0.000128877
0.000120647
0.000113231
0.000106467
0.000100711
9.4133e-05
0.000160509
0.00010736
8.07408e-05
6.55975e-05
5.54896e-05
4.83025e-05
4.3131e-05
3.9079e-05
3.57391e-05
3.29497e-05
3.05781e-05
2.85354e-05
2.67748e-05
2.52474e-05
2.39103e-05
2.27322e-05
2.16921e-05
2.0772e-05
1.99636e-05
1.92552e-05
0.000198681
0.0001383
0.000105187
8.55269e-05
7.25012e-05
6.28901e-05
5.60611e-05
5.07592e-05
4.63879e-05
4.27216e-05
3.96249e-05
3.69548e-05
3.46323e-05
3.26011e-05
3.08151e-05
2.92372e-05
2.78357e-05
2.65852e-05
2.54721e-05
2.45633e-05
0.00071288
0.000556432
0.000466397
0.000402355
0.000354426
0.00031705
0.000286675
0.000261255
0.000239582
0.000220846
0.000204444
0.00018995
0.000177044
0.000165465
0.000155006
0.000145528
0.000136883
0.000128944
0.000121617
0.000115476
0.000809324
0.000713906
0.000631505
0.000562574
0.000505377
0.000457785
0.000417841
0.000383939
0.000354803
0.000329448
0.000307154
0.000287376
0.000269695
0.000253784
0.000239382
0.000226292
0.000214327
0.000203311
0.000193001
0.000182659
0.000823497
0.000753987
0.000688491
0.000628748
0.000575387
0.000528266
0.000486845
0.000450441
0.000418361
0.000389971
0.000364724
0.000342156
0.000321885
0.00030359
0.000287005
0.000271908
0.000258093
0.000245343
0.000233305
0.000221041
0.000826292
0.000764347
0.000706102
0.000651937
0.00060223
0.000557104
0.000516428
0.000479913
0.000447181
0.000417833
0.000391476
0.000367751
0.000346333
0.00032694
0.000309323
0.00029326
0.000278545
0.000264936
0.000252021
0.000238711
0.000826292
0.000764347
0.000706102
0.000651937
0.00060223
0.000557104
0.000516428
0.000479912
0.000447181
0.000417833
0.000391476
0.00036775
0.000346332
0.000326938
0.00030932
0.000293257
0.00027854
0.000264927
0.000252002
0.000238739
0.000823497
0.000753987
0.000688491
0.000628748
0.000575387
0.000528266
0.000486845
0.000450441
0.000418361
0.000389971
0.000364724
0.000342156
0.000321885
0.000303589
0.000287006
0.000271908
0.000258093
0.000245344
0.000233304
0.000221022
0.000809324
0.000713906
0.000631504
0.000562574
0.000505377
0.000457785
0.000417841
0.000383939
0.000354803
0.000329448
0.000307154
0.000287376
0.000269697
0.00025379
0.000239398
0.000226314
0.000214363
0.00020338
0.000193147
0.000183081
0.00071288
0.000556432
0.000466397
0.000402355
0.000354426
0.00031705
0.000286675
0.000261256
0.000239583
0.000220848
0.000204447
0.000189957
0.000177059
0.000165497
0.000155065
0.000145621
0.00013704
0.000129212
0.000122057
0.000115843
0.000198681
0.0001383
0.000105187
8.55269e-05
7.25012e-05
6.28901e-05
5.60611e-05
5.07593e-05
4.63881e-05
4.27219e-05
3.96255e-05
3.69558e-05
3.46341e-05
3.26045e-05
3.08208e-05
2.92459e-05
2.78493e-05
2.66063e-05
2.54985e-05
2.45335e-05
0.000218609
0.000155003
0.000118661
9.65069e-05
8.18824e-05
7.08356e-05
6.30857e-05
5.71436e-05
5.22486e-05
4.80966e-05
4.45831e-05
4.15729e-05
3.89537e-05
3.66608e-05
3.46421e-05
3.28558e-05
3.12671e-05
2.98485e-05
2.85851e-05
2.75399e-05
0.000728543
0.000588231
0.000496002
0.000429132
0.00037851
0.000338935
0.000306819
0.000279975
0.000257075
0.000237259
0.000219914
0.000204584
0.000190925
0.000178673
0.000167618
0.000157588
0.000148446
0.000140072
0.000132353
0.000125345
0.000814958
0.000730426
0.000654634
0.000589044
0.000533067
0.000485439
0.000444764
0.000409795
0.000379473
0.000352935
0.000329498
0.000308638
0.000289953
0.000273118
0.000257875
0.000244007
0.00023133
0.000219658
0.000208737
0.000198034
0.000826292
0.000764347
0.000706102
0.000651937
0.00060223
0.000557104
0.000516428
0.000479912
0.000447181
0.000417833
0.000391476
0.000367751
0.000346333
0.000326939
0.000309321
0.000293258
0.000278541
0.000264929
0.000252004
0.000238749
0.000828382
0.0007726
0.000721138
0.00067296
0.000627782
0.00058562
0.000546547
0.000510579
0.000477648
0.000447615
0.000420287
0.000395445
0.000372861
0.000352312
0.00033358
0.000316462
0.000300745
0.00028615
0.000272134
0.000257244
0.000828382
0.0007726
0.000721138
0.00067296
0.000627782
0.00058562
0.000546547
0.000510579
0.000477648
0.000447615
0.000420286
0.000395445
0.000372861
0.000352312
0.00033358
0.000316462
0.000300745
0.00028615
0.000272132
0.000257238
0.000826292
0.000764347
0.000706102
0.000651937
0.00060223
0.000557104
0.000516428
0.000479912
0.000447181
0.000417833
0.000391476
0.000367751
0.000346333
0.00032694
0.000309323
0.00029326
0.000278545
0.000264938
0.000252023
0.000238707
0.000814958
0.000730426
0.000654634
0.000589044
0.000533067
0.000485439
0.000444764
0.000409795
0.000379473
0.000352935
0.000329497
0.000308638
0.000289955
0.000273123
0.000257882
0.000244017
0.000231347
0.000219691
0.000208811
0.000198231
0.000728543
0.000588231
0.000496002
0.000429132
0.00037851
0.000338935
0.000306819
0.000279975
0.000257075
0.00023726
0.000219915
0.000204587
0.000190933
0.00017869
0.000167642
0.000157627
0.00014851
0.000140175
0.000132511
0.000125459
0.000218609
0.000155003
0.000118661
9.65069e-05
8.18824e-05
7.08356e-05
6.30857e-05
5.71436e-05
5.22486e-05
4.80967e-05
4.45834e-05
4.15734e-05
3.89546e-05
3.66624e-05
3.46449e-05
3.286e-05
3.12736e-05
2.98581e-05
2.85965e-05
2.75294e-05
0.000218609
0.000155003
0.000118661
9.65069e-05
8.18824e-05
7.08356e-05
6.30857e-05
5.71437e-05
5.22487e-05
4.80967e-05
4.45834e-05
4.15734e-05
3.89546e-05
3.66624e-05
3.46449e-05
3.28601e-05
3.12737e-05
2.98583e-05
2.85968e-05
2.75299e-05
0.000728543
0.000588231
0.000496002
0.000429132
0.00037851
0.000338935
0.000306819
0.000279975
0.000257075
0.00023726
0.000219915
0.000204587
0.000190932
0.000178686
0.000167645
0.00015763
0.000148513
0.000140178
0.000132515
0.000125468
0.000814958
0.000730426
0.000654634
0.000589044
0.000533067
0.000485439
0.000444764
0.000409795
0.000379473
0.000352935
0.000329497
0.000308638
0.000289953
0.000273122
0.000257883
0.000244018
0.000231347
0.00021969
0.000208807
0.000198233
0.000826292
0.000764347
0.000706102
0.000651937
0.00060223
0.000557104
0.000516428
0.000479912
0.000447181
0.000417833
0.000391476
0.00036775
0.000346333
0.00032694
0.000309323
0.00029326
0.000278545
0.000264937
0.000252022
0.000238709
0.000828382
0.0007726
0.000721138
0.00067296
0.000627782
0.00058562
0.000546547
0.000510579
0.000477648
0.000447615
0.000420286
0.000395445
0.000372861
0.000352311
0.00033358
0.000316462
0.000300745
0.00028615
0.000272134
0.000257242
0.000828382
0.0007726
0.000721138
0.00067296
0.000627782
0.00058562
0.000546547
0.000510579
0.000477648
0.000447615
0.000420286
0.000395445
0.000372861
0.000352311
0.00033358
0.000316462
0.000300745
0.00028615
0.000272133
0.00025724
0.000826292
0.000764347
0.000706102
0.000651937
0.00060223
0.000557104
0.000516428
0.000479912
0.000447181
0.000417833
0.000391476
0.00036775
0.000346332
0.000326939
0.000309321
0.000293258
0.000278541
0.000264929
0.000252005
0.000238743
0.000814958
0.000730426
0.000654634
0.000589044
0.000533067
0.000485439
0.000444764
0.000409795
0.000379473
0.000352935
0.000329497
0.000308638
0.000289952
0.000273118
0.000257875
0.000244007
0.000231328
0.000219656
0.000208735
0.000198024
0.000728543
0.000588231
0.000496002
0.000429132
0.00037851
0.000338935
0.000306819
0.000279975
0.000257075
0.000237259
0.000219914
0.000204583
0.000190924
0.000178673
0.000167617
0.000157586
0.000148443
0.000140066
0.000132342
0.00012533
0.000218609
0.000155003
0.000118661
9.65069e-05
8.18824e-05
7.08356e-05
6.30856e-05
5.71436e-05
5.22485e-05
4.80966e-05
4.45831e-05
4.15728e-05
3.89536e-05
3.66607e-05
3.46422e-05
3.28559e-05
3.12671e-05
2.98484e-05
2.85848e-05
2.75397e-05
0.000198681
0.0001383
0.000105187
8.55269e-05
7.25012e-05
6.28901e-05
5.60611e-05
5.07593e-05
4.63881e-05
4.27219e-05
3.96255e-05
3.69558e-05
3.46341e-05
3.26044e-05
3.0821e-05
2.9246e-05
2.78495e-05
2.66065e-05
2.54987e-05
2.45338e-05
0.00071288
0.000556432
0.000466397
0.000402355
0.000354426
0.00031705
0.000286675
0.000261256
0.000239583
0.000220847
0.000204447
0.000189956
0.000177057
0.000165494
0.000155067
0.000145621
0.00013704
0.000129211
0.000122055
0.000115842
0.000809324
0.000713906
0.000631505
0.000562574
0.000505377
0.000457785
0.000417841
0.000383939
0.000354803
0.000329448
0.000307153
0.000287375
0.000269696
0.000253789
0.000239397
0.000226312
0.00021436
0.000203375
0.000193143
0.000183079
0.000823497
0.000753987
0.000688491
0.000628748
0.000575387
0.000528266
0.000486845
0.000450441
0.000418361
0.000389971
0.000364723
0.000342156
0.000321885
0.000303589
0.000287005
0.000271907
0.000258091
0.000245342
0.000233305
0.000221028
0.000826292
0.000764347
0.000706102
0.000651937
0.00060223
0.000557104
0.000516428
0.000479912
0.000447181
0.000417833
0.000391476
0.00036775
0.000346332
0.000326938
0.00030932
0.000293257
0.00027854
0.000264928
0.000252003
0.000238747
0.000826292
0.000764347
0.000706102
0.000651937
0.00060223
0.000557104
0.000516428
0.000479912
0.000447181
0.000417833
0.000391476
0.00036775
0.000346333
0.00032694
0.000309323
0.00029326
0.000278545
0.000264937
0.000252022
0.000238705
0.000823497
0.000753987
0.000688491
0.000628748
0.000575387
0.000528266
0.000486845
0.000450441
0.000418361
0.000389971
0.000364723
0.000342156
0.000321884
0.000303589
0.000287006
0.000271908
0.000258093
0.000245343
0.000233307
0.000221027
0.000809324
0.000713906
0.000631504
0.000562574
0.000505377
0.000457785
0.00041784
0.000383939
0.000354803
0.000329448
0.000307153
0.000287375
0.000269692
0.000253781
0.000239385
0.000226293
0.000214326
0.000203307
0.000192995
0.000182645
0.00071288
0.000556432
0.000466397
0.000402355
0.000354426
0.00031705
0.000286675
0.000261255
0.000239582
0.000220846
0.000204443
0.000189949
0.000177041
0.000165461
0.000155009
0.000145529
0.000136882
0.00012894
0.000121608
0.000115464
0.000198681
0.0001383
0.000105187
8.55269e-05
7.25012e-05
6.28901e-05
5.6061e-05
5.07592e-05
4.63879e-05
4.27216e-05
3.96249e-05
3.69547e-05
3.46321e-05
3.26009e-05
3.08154e-05
2.92374e-05
2.78358e-05
2.65853e-05
2.54721e-05
2.45632e-05
0.000160509
0.00010736
8.07408e-05
6.55975e-05
5.54896e-05
4.83025e-05
4.3131e-05
3.9079e-05
3.57391e-05
3.29497e-05
3.05781e-05
2.85353e-05
2.67747e-05
2.52473e-05
2.39105e-05
2.27323e-05
2.16922e-05
2.0772e-05
1.99638e-05
1.92511e-05
0.000663952
0.000488458
0.000404619
0.000347248
0.000305035
0.000272127
0.000245318
0.000222888
0.000203754
0.000187177
0.000172652
0.000159811
0.000148369
0.000138114
0.000128875
0.000120644
0.000113225
0.000106457
0.000100706
9.41212e-05
0.000786827
0.000662293
0.000567974
0.000495805
0.000439463
0.000394561
0.000357973
0.000327449
0.000301486
0.000279044
0.000259388
0.000241988
0.000226451
0.000212477
0.000199834
0.000188356
0.000177879
0.000168258
0.000159381
0.000150327
0.000809324
0.000713906
0.000631504
0.000562574
0.000505377
0.000457785
0.00041784
0.000383939
0.000354803
0.000329448
0.000307153
0.000287375
0.000269694
0.000253782
0.000239381
0.00022629
0.000214323
0.000203305
0.000192992
0.000182645
0.000814958
0.000730426
0.000654634
0.000589044
0.000533067
0.000485439
0.000444764
0.000409795
0.000379472
0.000352935
0.000329497
0.000308638
0.000289953
0.000273118
0.000257874
0.000244006
0.000231328
0.000219656
0.000208733
0.000198029
0.000814958
0.000730426
0.000654634
0.000589044
0.000533067
0.000485439
0.000444764
0.000409795
0.000379472
0.000352935
0.000329497
0.000308638
0.000289953
0.000273122
0.000257883
0.000244018
0.000231347
0.00021969
0.000208809
0.000198226
0.000809324
0.000713906
0.000631504
0.000562574
0.000505377
0.000457785
0.000417841
0.000383939
0.000354803
0.000329448
0.000307153
0.000287375
0.000269696
0.00025379
0.000239397
0.000226312
0.000214361
0.000203376
0.000193145
0.000183082
0.000786827
0.000662293
0.000567974
0.000495805
0.000439463
0.000394561
0.000357973
0.000327449
0.000301486
0.000279044
0.000259388
0.000241988
0.00022645
0.000212475
0.000199837
0.000188359
0.000177882
0.000168261
0.000159384
0.000150334
0.000663952
0.000488458
0.000404619
0.000347248
0.000305035
0.000272127
0.000245317
0.000222887
0.000203753
0.000187175
0.000172648
0.000159804
0.000148355
0.000138083
0.000128829
0.000120565
0.00011308
0.000106184
0.000100192
9.42454e-05
0.000160509
0.00010736
8.07408e-05
6.55975e-05
5.54896e-05
4.83025e-05
4.31309e-05
3.90789e-05
3.5739e-05
3.29493e-05
3.05775e-05
2.85343e-05
2.6773e-05
2.52444e-05
2.39056e-05
2.27248e-05
2.16805e-05
2.07537e-05
1.99355e-05
1.92576e-05
0.000107685
6.77183e-05
5.06311e-05
4.14159e-05
3.54048e-05
3.10366e-05
2.77136e-05
2.50815e-05
2.29332e-05
2.11503e-05
1.96501e-05
1.83706e-05
1.72621e-05
1.62924e-05
1.54482e-05
1.4719e-05
1.4082e-05
1.35212e-05
1.30293e-05
1.26058e-05
0.000528907
0.000369984
0.000305097
0.000261371
0.000228527
0.000202475
0.000181112
0.000163071
0.000147535
0.000133978
0.00012204
0.000111452
0.000102114
9.38324e-05
8.64094e-05
7.95875e-05
7.33514e-05
6.76868e-05
6.34344e-05
5.55709e-05
0.000663952
0.000488458
0.000404619
0.000347248
0.000305035
0.000272127
0.000245317
0.000222887
0.000203753
0.000187175
0.000172648
0.000159804
0.000148356
0.000138089
0.000128823
0.000120561
0.000113077
0.000106182
0.000100183
9.42413e-05
0.00071288
0.000556432
0.000466397
0.000402355
0.000354426
0.00031705
0.000286675
0.000261255
0.000239582
0.000220846
0.000204444
0.000189949
0.000177043
0.000165464
0.000155005
0.000145527
0.000136882
0.000128941
0.000121611
0.00011547
0.000728543
0.000588231
0.000496002
0.000429132
0.00037851
0.000338935
0.000306819
0.000279975
0.000257075
0.000237259
0.000219914
0.000204583
0.000190925
0.000178672
0.000167618
0.000157587
0.000148445
0.00014007
0.00013235
0.000125342
0.000728543
0.000588231
0.000496002
0.000429132
0.00037851
0.000338935
0.000306819
0.000279975
0.000257075
0.000237259
0.000219915
0.000204587
0.000190932
0.000178687
0.000167646
0.00015763
0.000148513
0.000140178
0.000132515
0.000125461
0.00071288
0.000556432
0.000466397
0.000402355
0.000354426
0.00031705
0.000286675
0.000261256
0.000239582
0.000220847
0.000204447
0.000189956
0.000177058
0.000165497
0.000155065
0.00014562
0.000137039
0.00012921
0.000122054
0.000115838
0.000663952
0.000488458
0.000404619
0.000347248
0.000305035
0.000272127
0.000245318
0.000222888
0.000203754
0.000187177
0.000172652
0.000159811
0.00014837
0.000138113
0.000128875
0.000120644
0.000113226
0.000106458
0.000100705
9.41252e-05
0.000528907
0.000369984
0.000305097
0.000261371
0.000228527
0.000202475
0.000181112
0.000163071
0.000147535
0.000133978
0.00012204
0.000111453
0.000102115
9.38272e-05
8.6414e-05
7.95909e-05
7.33546e-05
6.76907e-05
6.34389e-05
5.55799e-05
0.000107685
6.77183e-05
5.06311e-05
4.14159e-05
3.54048e-05
3.10366e-05
2.77136e-05
2.50815e-05
2.29332e-05
2.11503e-05
1.965e-05
1.83703e-05
1.72615e-05
1.62907e-05
1.54456e-05
1.47151e-05
1.40757e-05
1.35119e-05
1.30233e-05
1.26275e-05
4.5356e-05
2.3208e-05
1.65396e-05
1.36493e-05
1.18966e-05
1.06844e-05
9.76072e-06
9.05704e-06
8.49461e-06
8.03116e-06
7.64027e-06
7.31174e-06
7.02381e-06
6.75909e-06
6.52645e-06
6.32331e-06
6.14441e-06
5.98599e-06
5.84701e-06
5.70252e-06
0.000107685
6.77183e-05
5.06311e-05
4.14159e-05
3.54048e-05
3.10366e-05
2.77136e-05
2.50815e-05
2.29332e-05
2.11502e-05
1.965e-05
1.83703e-05
1.72615e-05
1.62908e-05
1.54454e-05
1.47149e-05
1.40755e-05
1.35115e-05
1.30228e-05
1.26267e-05
0.000160509
0.00010736
8.07408e-05
6.55975e-05
5.54896e-05
4.83025e-05
4.31309e-05
3.90789e-05
3.5739e-05
3.29493e-05
3.05775e-05
2.85343e-05
2.67731e-05
2.52445e-05
2.39054e-05
2.27246e-05
2.16802e-05
2.07535e-05
1.99352e-05
1.92572e-05
0.000198681
0.0001383
0.000105187
8.55269e-05
7.25012e-05
6.28901e-05
5.6061e-05
5.07592e-05
4.63879e-05
4.27216e-05
3.96249e-05
3.69547e-05
3.46323e-05
3.26011e-05
3.0815e-05
2.92372e-05
2.78357e-05
2.65852e-05
2.54721e-05
2.45634e-05
0.000218609
0.000155003
0.000118661
9.65069e-05
8.18824e-05
7.08356e-05
6.30856e-05
5.71436e-05
5.22485e-05
4.80966e-05
4.45831e-05
4.15729e-05
3.89537e-05
3.66608e-05
3.46421e-05
3.28558e-05
3.12671e-05
2.98486e-05
2.85852e-05
2.75417e-05
0.000218609
0.000155003
0.000118661
9.65069e-05
8.18824e-05
7.08356e-05
6.30857e-05
5.71436e-05
5.22486e-05
4.80967e-05
4.45834e-05
4.15734e-05
3.89546e-05
3.66624e-05
3.46449e-05
3.28601e-05
3.12737e-05
2.98584e-05
2.85968e-05
2.75299e-05
0.000198681
0.0001383
0.000105187
8.55269e-05
7.25012e-05
6.28901e-05
5.60611e-05
5.07593e-05
4.63881e-05
4.27219e-05
3.96255e-05
3.69558e-05
3.46341e-05
3.26045e-05
3.08208e-05
2.92459e-05
2.78494e-05
2.66065e-05
2.54986e-05
2.45336e-05
0.000160509
0.00010736
8.07408e-05
6.55975e-05
5.54896e-05
4.83025e-05
4.3131e-05
3.9079e-05
3.57391e-05
3.29497e-05
3.05781e-05
2.85353e-05
2.67748e-05
2.52474e-05
2.39103e-05
2.27322e-05
2.1692e-05
2.07719e-05
1.99636e-05
1.92513e-05
0.000107685
6.77183e-05
5.06311e-05
4.14159e-05
3.54048e-05
3.10366e-05
2.77136e-05
2.50815e-05
2.29332e-05
2.11503e-05
1.96502e-05
1.83706e-05
1.72621e-05
1.62924e-05
1.54481e-05
1.4719e-05
1.4082e-05
1.35213e-05
1.30294e-05
1.26062e-05
4.5356e-05
2.3208e-05
1.65396e-05
1.36493e-05
1.18966e-05
1.06844e-05
9.76072e-06
9.05704e-06
8.49461e-06
8.03116e-06
7.64027e-06
7.31176e-06
7.02381e-06
6.7591e-06
6.52645e-06
6.32334e-06
6.14446e-06
5.98606e-06
5.84713e-06
5.70271e-06
4.80439e-06
4.66423e-06
4.52401e-06
4.4157e-06
4.33313e-06
4.27256e-06
4.21727e-06
4.16673e-06
4.11677e-06
4.07361e-06
4.03477e-06
3.99946e-06
3.96234e-06
3.92663e-06
3.89089e-06
3.85777e-06
3.82463e-06
3.79392e-06
3.76382e-06
3.73507e-06
3.70683e-06
3.67885e-06
3.65264e-06
3.62667e-06
3.60205e-06
3.57764e-06
3.5534e-06
3.52907e-06
3.50493e-06
3.48035e-06
3.45716e-06
3.43395e-06
3.41026e-06
3.38664e-06
3.36247e-06
3.34163e-06
3.32179e-06
3.30163e-06
3.28448e-06
3.25718e-06
1.02614e-05
9.77946e-06
9.47138e-06
9.22506e-06
9.0274e-06
8.87325e-06
8.72233e-06
8.5882e-06
8.44965e-06
8.32624e-06
8.21599e-06
8.12036e-06
8.02371e-06
7.93675e-06
7.84726e-06
7.76327e-06
7.68302e-06
7.60843e-06
7.53778e-06
7.47039e-06
7.40555e-06
7.3424e-06
7.28278e-06
7.22565e-06
7.17192e-06
7.12019e-06
7.06942e-06
7.01923e-06
6.96929e-06
6.91889e-06
6.86912e-06
6.82104e-06
6.77394e-06
6.72666e-06
6.6804e-06
6.63502e-06
6.59187e-06
6.55077e-06
6.51169e-06
6.46652e-06
1.51873e-05
1.48204e-05
1.44215e-05
1.40254e-05
1.36588e-05
1.33438e-05
1.30686e-05
1.28191e-05
1.25939e-05
1.2382e-05
1.21834e-05
1.19988e-05
1.18313e-05
1.1688e-05
1.15334e-05
1.13915e-05
1.12584e-05
1.11373e-05
1.10204e-05
1.09068e-05
1.08002e-05
1.06887e-05
1.05852e-05
1.04865e-05
1.03988e-05
1.03138e-05
1.02304e-05
1.01485e-05
1.0069e-05
9.99086e-06
9.91287e-06
9.83717e-06
9.76346e-06
9.69254e-06
9.62494e-06
9.55771e-06
9.4909e-06
9.42596e-06
9.36338e-06
9.29884e-06
1.95068e-05
1.90049e-05
1.84833e-05
1.79793e-05
1.75111e-05
1.70791e-05
1.66798e-05
1.63115e-05
1.5971e-05
1.56564e-05
1.53651e-05
1.50942e-05
1.48396e-05
1.46102e-05
1.4396e-05
1.41954e-05
1.40062e-05
1.38351e-05
1.36598e-05
1.34846e-05
1.33288e-05
1.31798e-05
1.30372e-05
1.28989e-05
1.27696e-05
1.26458e-05
1.2529e-05
1.24156e-05
1.23066e-05
1.22012e-05
1.20944e-05
1.19919e-05
1.18925e-05
1.1798e-05
1.1707e-05
1.16188e-05
1.15332e-05
1.14499e-05
1.13699e-05
1.12915e-05
2.29065e-05
2.21104e-05
2.1381e-05
2.07146e-05
2.01074e-05
1.95554e-05
1.90542e-05
1.85969e-05
1.81745e-05
1.77834e-05
1.74206e-05
1.70828e-05
1.67652e-05
1.64762e-05
1.62066e-05
1.59582e-05
1.57243e-05
1.55038e-05
1.52963e-05
1.51003e-05
1.49218e-05
1.47411e-05
1.45601e-05
1.43944e-05
1.42385e-05
1.40912e-05
1.39512e-05
1.38175e-05
1.36897e-05
1.35683e-05
1.34457e-05
1.33258e-05
1.32114e-05
1.31004e-05
1.29917e-05
1.28894e-05
1.27913e-05
1.26951e-05
1.26024e-05
1.2514e-05
2.42774e-05
2.33245e-05
2.24824e-05
2.17266e-05
2.1046e-05
2.04307e-05
1.98744e-05
1.93667e-05
1.89009e-05
1.847e-05
1.80709e-05
1.77e-05
1.73535e-05
1.70349e-05
1.67384e-05
1.64623e-05
1.62056e-05
1.59699e-05
1.57492e-05
1.55426e-05
1.53497e-05
1.51684e-05
1.50012e-05
1.48377e-05
1.4667e-05
1.4503e-05
1.43509e-05
1.42094e-05
1.40788e-05
1.39514e-05
1.38306e-05
1.3709e-05
1.3576e-05
1.34613e-05
1.33419e-05
1.32383e-05
1.31337e-05
1.30343e-05
1.29364e-05
1.2843e-05
2.32356e-05
2.23051e-05
2.14785e-05
2.07439e-05
2.00823e-05
1.94838e-05
1.89422e-05
1.84513e-05
1.79997e-05
1.75844e-05
1.72028e-05
1.68513e-05
1.6526e-05
1.62266e-05
1.59493e-05
1.5692e-05
1.54533e-05
1.52321e-05
1.50281e-05
1.48378e-05
1.46614e-05
1.44938e-05
1.43329e-05
1.41813e-05
1.40202e-05
1.38711e-05
1.37313e-05
1.36002e-05
1.34763e-05
1.33503e-05
1.3231e-05
1.31013e-05
1.29897e-05
1.28671e-05
1.27681e-05
1.2665e-05
1.25611e-05
1.24585e-05
1.23571e-05
1.22593e-05
2.01146e-05
1.93313e-05
1.86386e-05
1.80141e-05
1.74437e-05
1.69251e-05
1.64621e-05
1.60449e-05
1.56687e-05
1.53273e-05
1.50181e-05
1.47316e-05
1.44668e-05
1.42236e-05
1.39989e-05
1.37897e-05
1.35973e-05
1.34174e-05
1.32502e-05
1.30931e-05
1.29503e-05
1.28049e-05
1.26632e-05
1.2534e-05
1.24086e-05
1.22898e-05
1.21734e-05
1.20627e-05
1.19484e-05
1.18323e-05
1.17213e-05
1.16188e-05
1.15206e-05
1.14232e-05
1.13261e-05
1.12293e-05
1.11296e-05
1.10324e-05
1.0938e-05
1.08471e-05
1.5572e-05
1.49869e-05
1.44634e-05
1.39941e-05
1.35492e-05
1.3168e-05
1.28388e-05
1.25558e-05
1.22987e-05
1.20648e-05
1.18516e-05
1.16549e-05
1.14794e-05
1.13138e-05
1.11687e-05
1.10096e-05
1.08664e-05
1.07325e-05
1.06127e-05
1.04947e-05
1.03865e-05
1.02801e-05
1.01791e-05
1.00829e-05
9.98656e-06
9.89597e-06
9.80819e-06
9.72408e-06
9.64203e-06
9.559e-06
9.47788e-06
9.39974e-06
9.32276e-06
9.24805e-06
9.17042e-06
9.09293e-06
9.01308e-06
8.93699e-06
8.86753e-06
8.80036e-06
1.03066e-05
9.92653e-06
9.54894e-06
9.24573e-06
8.9972e-06
8.79412e-06
8.62096e-06
8.47233e-06
8.32262e-06
8.19182e-06
8.07771e-06
7.97762e-06
7.88605e-06
7.78379e-06
7.68898e-06
7.59849e-06
7.51266e-06
7.43153e-06
7.35491e-06
7.28227e-06
7.21352e-06
7.14872e-06
7.08899e-06
7.03085e-06
6.9751e-06
6.92132e-06
6.86859e-06
6.81667e-06
6.76453e-06
6.71074e-06
6.65941e-06
6.61037e-06
6.56188e-06
6.51389e-06
6.46554e-06
6.41422e-06
6.36494e-06
6.31815e-06
6.27671e-06
6.22823e-06
4.80382e-06
4.66285e-06
4.52284e-06
4.41483e-06
4.33447e-06
4.27484e-06
4.2195e-06
4.16884e-06
4.11861e-06
4.07466e-06
4.036e-06
3.99921e-06
3.96306e-06
3.92744e-06
3.89224e-06
3.85868e-06
3.82566e-06
3.79445e-06
3.76395e-06
3.73522e-06
3.70656e-06
3.67899e-06
3.65258e-06
3.627e-06
3.60229e-06
3.57813e-06
3.55376e-06
3.52937e-06
3.50515e-06
3.48048e-06
3.45739e-06
3.43424e-06
3.41088e-06
3.38784e-06
3.36535e-06
3.34349e-06
3.32186e-06
3.30093e-06
3.28275e-06
3.25412e-06
1.03077e-05
9.9278e-06
9.5515e-06
9.24843e-06
8.99344e-06