/*--------------------------------*- C++ -*----------------------------------*\
| =========                 |                                                 |
| \\      /  F ield         | OpenFOAM: The Open Source CFD Toolbox           |
|  \\    /   O peration     | Version:  2212                                  |
|   \\  /    A nd           | Website:  www.openfoam.com                      |
|    \\/     M anipulation  |                                                 |
\*---------------------------------------------------------------------------*/
FoamFile
{
    version     2.0;
    format      ascii;
    arch        "LSB;label=32;scalar=64";
    class       volScalarField;
    location    "1.45";
    object      p;
}
// * * * * * * * * * * * * * * * * * * * * * * * * * * * * * * * * * * * * * //

dimensions      [0 2 -2 0 0 0 0];

internalField   nonuniform List<scalar> 
6840
(
0.017845
0.0107306
0.00843913
0.00790131
0.00762695
0.00740476
0.00721817
0.00705181
0.00689075
0.00673147
0.0065741
0.00641858
0.0062641
0.0061097
0.00595558
0.00580247
0.00565066
0.00550048
0.00534838
0.00518484
0.0106662
0.00993235
0.00883946
0.00817349
0.0077709
0.00749719
0.00728604
0.00709985
0.0069255
0.00675827
0.00659569
0.00643609
0.00627808
0.00612083
0.0059644
0.00580921
0.00565515
0.00549917
0.005335
0.00515113
0.0103179
0.0094664
0.00870214
0.008143
0.00776683
0.00749878
0.00728308
0.00709009
0.00691156
0.00674287
0.00657912
0.00641806
0.0062591
0.00610191
0.00594586
0.00578985
0.00563258
0.00547232
0.00531016
0.00514541
0.00990861
0.00914588
0.00852711
0.00807578
0.00773178
0.0074627
0.00724298
0.00705401
0.00688591
0.00672805
0.00657169
0.0064153
0.00625941
0.00610437
0.00595003
0.00579603
0.00564192
0.00548748
0.00533335
0.00518119
0.00977438
0.0090332
0.00844501
0.00803687
0.00771488
0.00744807
0.00722641
0.00703553
0.00686438
0.00670706
0.00655616
0.00640466
0.00625149
0.00609811
0.00594549
0.00579405
0.00564385
0.005495
0.0053471
0.0052015
0.00977439
0.0090332
0.00844502
0.00803689
0.0077149
0.00744811
0.00722647
0.00703564
0.00686457
0.00670736
0.00655667
0.00640552
0.00625295
0.00610055
0.00594949
0.00580042
0.00565393
0.00551061
0.00536948
0.00523147
0.00990863
0.0091459
0.00852714
0.00807581
0.00773182
0.00746277
0.00724312
0.00705428
0.00688638
0.00672884
0.00657302
0.0064175
0.006263
0.00611018
0.00595949
0.00581149
0.00566721
0.0055279
0.00539264
0.00525996
0.0103179
0.00946642
0.00870216
0.00814303
0.00776688
0.00749887
0.00728324
0.00709037
0.00691203
0.00674369
0.00658055
0.00642044
0.00626299
0.00610826
0.00595633
0.00580737
0.00566222
0.00552242
0.0053885
0.00526186
0.0106662
0.00993236
0.00883947
0.0081735
0.00777093
0.00749723
0.0072861
0.00709996
0.00692569
0.00675862
0.00659628
0.00643707
0.00627979
0.0061241
0.00597049
0.00581985
0.00567269
0.00552816
0.00538541
0.00523615
0.017845
0.0107306
0.00843915
0.00790133
0.00762697
0.00740478
0.0072182
0.00705183
0.00689077
0.0067315
0.00657413
0.0064186
0.00626413
0.00610971
0.00595557
0.00580247
0.00565068
0.00550051
0.00534839
0.00518471
0.0106662
0.00993235
0.00883946
0.00817349
0.00777091
0.00749721
0.00728608
0.00709994
0.00692567
0.0067586
0.00659625
0.00643705
0.00627977
0.0061241
0.0059705
0.00581985
0.00567268
0.00552814
0.00538539
0.00523619
0.00994962
0.00991792
0.00918971
0.00847922
0.00803289
0.00771699
0.00745817
0.00723063
0.00702624
0.00683819
0.00666098
0.0064911
0.00632584
0.00616372
0.00600445
0.00584783
0.005694
0.00554434
0.00540777
0.00530315
0.00902414
0.00915033
0.00884746
0.00843126
0.00806413
0.00774551
0.00746698
0.00722658
0.00701405
0.00681959
0.00663649
0.00646148
0.00629268
0.00612835
0.0059672
0.00580837
0.0056514
0.00549673
0.00534658
0.00521177
0.00860575
0.00864926
0.00848368
0.00822075
0.00794036
0.00766902
0.00741798
0.00719157
0.00698844
0.00680166
0.00662437
0.00645337
0.00628716
0.00612485
0.00596548
0.00580807
0.00565202
0.00549736
0.00534527
0.00519843
0.00838975
0.00841158
0.00828437
0.00806683
0.00783438
0.00760518
0.0073823
0.00716904
0.00696812
0.00678054
0.00660373
0.00643421
0.00627024
0.00611057
0.00595378
0.00579924
0.0056471
0.00549737
0.00535016
0.0052046
0.00838977
0.00841159
0.00828439
0.00806688
0.00783444
0.00760526
0.00738243
0.00716923
0.00696836
0.00678096
0.0066045
0.00643554
0.0062724
0.00611399
0.00595914
0.00580709
0.00565809
0.00551332
0.00537244
0.00523059
0.00860579
0.0086493
0.00848374
0.00822082
0.00794047
0.00766915
0.00741817
0.00719185
0.0069889
0.00680263
0.00662628
0.00645664
0.00629206
0.0061317
0.00597554
0.00582367
0.00567634
0.00553449
0.00539798
0.00526038
0.00902417
0.00915036
0.0088475
0.00843131
0.00806419
0.00774559
0.00746713
0.00722685
0.00701455
0.00682045
0.00663782
0.00646357
0.00629592
0.0061336
0.00597573
0.00582207
0.00567301
0.00553003
0.00539377
0.00526648
0.00994964
0.00991794
0.00918972
0.00847924
0.00803291
0.00771701
0.0074582
0.00723065
0.00702627
0.00683822
0.00666102
0.00649113
0.00632587
0.00616375
0.00600447
0.00584786
0.00569405
0.0055444
0.00540788
0.00530333
0.0106662
0.00993237
0.00883948
0.00817351
0.00777092
0.00749721
0.00728607
0.00709988
0.00692553
0.0067583
0.00659572
0.00643612
0.00627811
0.00612085
0.00596441
0.00580924
0.00565519
0.00549921
0.00533502
0.00515103
0.0103179
0.00946641
0.00870215
0.00814302
0.00776686
0.00749886
0.00728323
0.00709035
0.00691202
0.00674367
0.00658053
0.00642042
0.00626297
0.00610825
0.00595632
0.00580736
0.00566219
0.00552238
0.00538844
0.00526172
0.00902415
0.00915035
0.00884749
0.00843129
0.00806417
0.00774558
0.00746711
0.00722683
0.00701453
0.00682042
0.00663779
0.00646353
0.00629589
0.00613356
0.00597569
0.00582203
0.00567295
0.00552993
0.0053936
0.00526618
0.00845466
0.00855564
0.00844409
0.00821864
0.00796292
0.00770457
0.00744626
0.00720479
0.00698715
0.00678727
0.00660023
0.00642299
0.00625316
0.00608873
0.00592851
0.00577157
0.00561715
0.00546519
0.00531425
0.00516143
0.00808665
0.00815471
0.00810233
0.00795536
0.00777051
0.00756542
0.00735479
0.00714796
0.00694696
0.00675471
0.00657238
0.00639817
0.00623011
0.00606688
0.0059075
0.0057511
0.00559686
0.00544436
0.00529387
0.00514253
0.00790357
0.007968
0.00793853
0.00781367
0.00765464
0.00748093
0.00729462
0.00710657
0.00692039
0.00673692
0.00655773
0.00638383
0.00621559
0.00605236
0.00589348
0.00573857
0.00558665
0.00543707
0.00529125
0.00514567
0.00790358
0.00796801
0.00793854
0.00781372
0.00765472
0.00748105
0.00729475
0.00710673
0.00692061
0.00673726
0.00655826
0.0063846
0.00621664
0.00605372
0.0058954
0.00574132
0.00559004
0.00544089
0.00529383
0.0051435
0.00808668
0.00815475
0.00810238
0.00795544
0.00777062
0.00756555
0.00735494
0.00714816
0.00694726
0.0067552
0.00657322
0.00639947
0.006232
0.00606953
0.00591132
0.00575635
0.00560345
0.00545282
0.00530304
0.00514788
0.00845468
0.00855566
0.00844411
0.00821866
0.00796294
0.00770459
0.00744628
0.00720482
0.00698718
0.0067873
0.00660026
0.00642303
0.0062532
0.00608879
0.00592858
0.00577164
0.00561723
0.0054653
0.00531441
0.00516165
0.00902416
0.00915035
0.00884748
0.00843128
0.00806415
0.00774553
0.00746701
0.00722661
0.00701408
0.00681963
0.00663653
0.00646152
0.00629272
0.00612841
0.00596726
0.00580844
0.00565149
0.00549687
0.00534681
0.00521218
0.0103179
0.00946642
0.00870216
0.00814303
0.00776686
0.00749881
0.00728311
0.00709012
0.0069116
0.00674291
0.00657916
0.00641809
0.00625914
0.00610195
0.0059459
0.00578989
0.00563264
0.0054724
0.0053103
0.00514565
0.00990863
0.0091459
0.00852713
0.0080758
0.00773181
0.00746276
0.00724311
0.00705427
0.00688636
0.00672882
0.00657301
0.00641749
0.00626298
0.00611016
0.00595947
0.00581147
0.00566718
0.00552785
0.00539256
0.00525981
0.00860578
0.00864929
0.00848373
0.00822081
0.00794046
0.00766914
0.00741816
0.00719184
0.00698889
0.00680261
0.00662626
0.00645662
0.00629203
0.00613167
0.00597551
0.00582364
0.0056763
0.00553444
0.00539789
0.00526026
0.00808667
0.00815474
0.00810237
0.00795543
0.00777061
0.00756553
0.00735493
0.00714815
0.00694724
0.00675518
0.00657319
0.00639945
0.00623198
0.0060695
0.00591128
0.00575632
0.00560342
0.0054528
0.00530304
0.00514792
0.00778878
0.00784792
0.00783599
0.00774061
0.007601
0.00743554
0.00725539
0.00707099
0.00688712
0.00670691
0.006532
0.00636227
0.00619715
0.00603604
0.00587841
0.00572366
0.0055711
0.00542064
0.00527303
0.00512262
0.00763765
0.00770054
0.0077043
0.00763065
0.00751052
0.00736412
0.00720121
0.00702977
0.00685563
0.00668209
0.00651101
0.0063433
0.00617926
0.00601881
0.00586169
0.00570759
0.00555603
0.0054073
0.00526348
0.00511728
0.00763766
0.00770056
0.00770432
0.00763067
0.00751055
0.00736416
0.00720127
0.00702985
0.00685572
0.00668221
0.00651117
0.00634349
0.00617951
0.00601917
0.00586224
0.00570837
0.00555695
0.00540811
0.00526352
0.00511603
0.00778879
0.00784793
0.007836
0.00774062
0.00760101
0.00743555
0.00725541
0.00707101
0.00688714
0.00670693
0.00653203
0.0063623
0.00619718
0.00603607
0.00587845
0.00572369
0.00557112
0.00542065
0.00527302
0.00512256
0.00808667
0.00815473
0.00810235
0.00795538
0.00777054
0.00756544
0.00735482
0.00714799
0.00694699
0.00675474
0.00657242
0.00639821
0.00623016
0.00606693
0.00590756
0.00575117
0.00559694
0.00544444
0.00529395
0.00514259
0.00860577
0.00864928
0.00848371
0.00822077
0.00794039
0.00766905
0.00741801
0.0071916
0.00698848
0.0068017
0.00662441
0.00645342
0.00628721
0.00612491
0.00596554
0.00580814
0.00565211
0.00549747
0.00534539
0.00519856
0.00990864
0.00914591
0.00852714
0.0080758
0.0077318
0.00746272
0.00724301
0.00705405
0.00688595
0.00672808
0.00657173
0.00641534
0.00625946
0.00610441
0.00595008
0.00579609
0.00564199
0.00548756
0.00533345
0.00518133
0.00977438
0.0090332
0.00844502
0.00803688
0.0077149
0.00744811
0.00722646
0.00703563
0.00686456
0.00670735
0.00655666
0.00640551
0.00625294
0.00610054
0.00594948
0.0058004
0.0056539
0.00551057
0.00536941
0.00523136
0.00838977
0.00841159
0.00828439
0.00806687
0.00783444
0.00760526
0.00738242
0.00716922
0.00696836
0.00678095
0.00660449
0.00643553
0.00627239
0.00611397
0.00595913
0.00580708
0.00565809
0.00551332
0.00537245
0.00523062
0.00790358
0.00796801
0.00793854
0.00781371
0.00765472
0.00748104
0.00729474
0.00710672
0.00692061
0.00673726
0.00655825
0.00638459
0.00621663
0.00605371
0.0058954
0.00574133
0.00559007
0.00544094
0.00529392
0.00514366
0.00763766
0.00770055
0.00770431
0.00763066
0.00751054
0.00736415
0.00720126
0.00702984
0.00685571
0.0066822
0.00651116
0.00634348
0.00617951
0.00601916
0.00586224
0.00570837
0.00555696
0.00540813
0.00526357
0.00511612
0.00749485
0.00756436
0.00758649
0.00753394
0.00743268
0.00730174
0.00715182
0.00699083
0.00682435
0.00665606
0.00648835
0.00632266
0.00615976
0.00599998
0.00584336
0.00568971
0.0055386
0.0053903
0.00524648
0.00510343
0.00749486
0.00756437
0.00758649
0.00753394
0.00743269
0.00730175
0.00715182
0.00699084
0.00682435
0.00665607
0.00648836
0.00632267
0.00615977
0.00599999
0.00584337
0.00568972
0.0055386
0.0053903
0.00524648
0.00510342
0.00763766
0.00770056
0.00770432
0.00763066
0.00751054
0.00736414
0.00720123
0.00702979
0.00685565
0.00668211
0.00651104
0.00634333
0.00617929
0.00601885
0.00586173
0.00570763
0.00555607
0.00540734
0.00526352
0.0051173
0.00790359
0.00796802
0.00793855
0.00781369
0.00765466
0.00748095
0.00729464
0.0071066
0.00692042
0.00673695
0.00655776
0.00638387
0.00621564
0.00605242
0.00589354
0.00573864
0.00558672
0.00543716
0.00529136
0.00514579
0.00838978
0.0084116
0.00828439
0.00806686
0.00783441
0.0076052
0.00738233
0.00716907
0.00696815
0.00678057
0.00660377
0.00643425
0.00627029
0.00611063
0.00595384
0.00579931
0.00564718
0.00549745
0.00535026
0.0052047
0.00977441
0.00903322
0.00844504
0.0080369
0.0077149
0.0074481
0.00722644
0.00703556
0.00686442
0.00670709
0.0065562
0.0064047
0.00625153
0.00609816
0.00594555
0.0057941
0.00564391
0.00549507
0.00534718
0.00520157
0.00977439
0.0090332
0.00844502
0.00803687
0.00771488
0.00744808
0.00722641
0.00703553
0.00686439
0.00670706
0.00655617
0.00640467
0.0062515
0.00609812
0.0059455
0.00579405
0.00564386
0.005495
0.00534709
0.00520148
0.00838976
0.00841158
0.00828437
0.00806683
0.00783438
0.00760518
0.0073823
0.00716905
0.00696812
0.00678054
0.00660373
0.00643422
0.00627025
0.00611059
0.00595379
0.00579927
0.00564713
0.0054974
0.00535021
0.00520466
0.00790357
0.007968
0.00793853
0.00781368
0.00765464
0.00748093
0.00729462
0.00710657
0.0069204
0.00673693
0.00655774
0.00638384
0.00621561
0.00605238
0.0058935
0.0057386
0.00558669
0.00543712
0.00529132
0.00514577
0.00763765
0.00770055
0.00770431
0.00763065
0.00751053
0.00736413
0.00720122
0.00702978
0.00685563
0.0066821
0.00651102
0.00634331
0.00617927
0.00601883
0.00586171
0.00570761
0.00555606
0.00540734
0.00526352
0.00511732
0.00749485
0.00756437
0.00758649
0.00753394
0.00743269
0.00730175
0.00715182
0.00699084
0.00682435
0.00665607
0.00648836
0.00632267
0.00615977
0.00599999
0.00584336
0.00568972
0.00553861
0.00539031
0.00524649
0.00510344
0.00749486
0.00756437
0.00758649
0.00753395
0.00743269
0.00730175
0.00715183
0.00699084
0.00682436
0.00665607
0.00648836
0.00632267
0.00615977
0.00599999
0.00584337
0.00568972
0.00553861
0.00539031
0.00524649
0.00510344
0.00763767
0.00770057
0.00770433
0.00763068
0.00751056
0.00736417
0.00720128
0.00702986
0.00685574
0.00668222
0.00651118
0.00634351
0.00617954
0.00601919
0.00586227
0.00570841
0.00555699
0.00540816
0.00526359
0.00511613
0.0079036
0.00796803
0.00793856
0.00781374
0.00765474
0.00748107
0.00729477
0.00710675
0.00692064
0.00673729
0.00655829
0.00638463
0.00621667
0.00605376
0.00589545
0.00574137
0.0055901
0.00544097
0.00529395
0.00514367
0.00838979
0.00841162
0.00828441
0.0080669
0.00783447
0.00760529
0.00738245
0.00716925
0.00696839
0.00678099
0.00660453
0.00643557
0.00627244
0.00611403
0.00595919
0.00580714
0.00565815
0.00551338
0.00537251
0.00523066
0.00977441
0.00903322
0.00844505
0.00803691
0.00771493
0.00744814
0.00722649
0.00703566
0.0068646
0.00670739
0.0065567
0.00640555
0.00625298
0.00610059
0.00594954
0.00580047
0.00565399
0.00551068
0.00536955
0.00523153
0.00990862
0.00914589
0.00852712
0.00807578
0.00773178
0.0074627
0.00724299
0.00705402
0.00688592
0.00672806
0.00657171
0.00641532
0.00625944
0.00610439
0.00595006
0.00579607
0.00564196
0.00548752
0.0053334
0.00518127
0.00860575
0.00864926
0.00848369
0.00822075
0.00794037
0.00766903
0.00741799
0.00719158
0.00698846
0.00680167
0.00662439
0.0064534
0.00628719
0.00612488
0.00596552
0.00580811
0.00565208
0.00549743
0.00534535
0.00519853
0.00808666
0.00815472
0.00810234
0.00795537
0.00777052
0.00756543
0.00735481
0.00714797
0.00694697
0.00675473
0.0065724
0.00639819
0.00623014
0.00606691
0.00590753
0.00575115
0.00559692
0.00544442
0.00529395
0.00514264
0.00778879
0.00784793
0.007836
0.00774062
0.00760101
0.00743555
0.00725541
0.007071
0.00688713
0.00670692
0.00653202
0.00636229
0.00619717
0.00603606
0.00587844
0.00572369
0.00557113
0.00542068
0.00527308
0.00512267
0.00763767
0.00770056
0.00770432
0.00763068
0.00751055
0.00736416
0.00720127
0.00702985
0.00685573
0.00668222
0.00651117
0.0063435
0.00617952
0.00601918
0.00586226
0.00570839
0.00555699
0.00540816
0.00526359
0.00511615
0.00763766
0.00770056
0.00770432
0.00763067
0.00751054
0.00736414
0.00720123
0.00702979
0.00685565
0.00668211
0.00651103
0.00634332
0.00617929
0.00601884
0.00586172
0.00570763
0.00555607
0.00540735
0.00526354
0.00511735
0.0077888
0.00784794
0.00783601
0.00774063
0.00760102
0.00743556
0.00725542
0.00707101
0.00688714
0.00670694
0.00653203
0.00636231
0.00619719
0.00603608
0.00587846
0.00572371
0.00557115
0.00542069
0.00527309
0.0051227
0.0080867
0.00815476
0.00810239
0.00795546
0.00777064
0.00756556
0.00735496
0.00714818
0.00694727
0.00675522
0.00657323
0.00639949
0.00623202
0.00606955
0.00591134
0.00575637
0.00560347
0.00545285
0.0053031
0.00514798
0.00860581
0.00864931
0.00848376
0.00822084
0.00794049
0.00766917
0.00741819
0.00719187
0.00698892
0.00680265
0.00662631
0.00645666
0.00629208
0.00613173
0.00597558
0.00582371
0.00567637
0.00553451
0.00539797
0.00526033
0.00990865
0.00914592
0.00852716
0.00807583
0.00773184
0.00746279
0.00724314
0.0070543
0.0068864
0.00672886
0.00657305
0.00641753
0.00626303
0.00611021
0.00595953
0.00581154
0.00566727
0.00552797
0.00539271
0.00526002
0.0103179
0.00946641
0.00870215
0.00814301
0.00776684
0.00749879
0.00728309
0.00709011
0.00691158
0.00674289
0.00657914
0.00641808
0.00625913
0.00610195
0.0059459
0.00578989
0.00563263
0.00547236
0.00531021
0.00514546
0.00902415
0.00915034
0.00884747
0.00843127
0.00806414
0.00774552
0.007467
0.0072266
0.00701407
0.00681962
0.00663651
0.00646151
0.00629272
0.0061284
0.00596725
0.00580842
0.00565146
0.0054968
0.00534666
0.00521188
0.00845467
0.00855565
0.0084441
0.00821866
0.00796294
0.00770458
0.00744628
0.00720481
0.00698718
0.00678729
0.00660025
0.00642303
0.00625319
0.00608877
0.00592856
0.00577162
0.00561721
0.00546526
0.00531433
0.00516154
0.00808669
0.00815475
0.00810238
0.00795544
0.00777063
0.00756555
0.00735495
0.00714817
0.00694726
0.0067552
0.00657322
0.00639947
0.006232
0.00606953
0.00591132
0.00575636
0.00560346
0.00545285
0.00530309
0.00514797
0.00790359
0.00796802
0.00793856
0.00781373
0.00765474
0.00748106
0.00729476
0.00710674
0.00692063
0.00673728
0.00655827
0.00638461
0.00621665
0.00605374
0.00589543
0.00574135
0.00559009
0.00544096
0.00529395
0.00514369
0.00790358
0.00796802
0.00793855
0.00781369
0.00765466
0.00748095
0.00729464
0.00710659
0.00692041
0.00673694
0.00655775
0.00638385
0.00621562
0.0060524
0.00589352
0.00573862
0.00558671
0.00543715
0.00529138
0.00514587
0.00808667
0.00815474
0.00810236
0.00795539
0.00777054
0.00756545
0.00735482
0.00714799
0.00694699
0.00675474
0.00657241
0.0063982
0.00623015
0.00606692
0.00590755
0.00575115
0.00559693
0.00544444
0.00529398
0.00514271
0.00845469
0.00855567
0.00844412
0.00821867
0.00796295
0.0077046
0.00744629
0.00720483
0.00698719
0.0067873
0.00660026
0.00642303
0.0062532
0.00608879
0.00592857
0.00577163
0.00561721
0.00546527
0.00531436
0.00516159
0.00902418
0.00915038
0.00884752
0.00843132
0.0080642
0.00774561
0.00746715
0.00722686
0.00701456
0.00682046
0.00663783
0.00646357
0.00629593
0.00613361
0.00597574
0.00582209
0.00567302
0.00553001
0.00539369
0.0052663
0.0103179
0.00946644
0.00870217
0.00814304
0.00776689
0.00749889
0.00728326
0.00709038
0.00691205
0.00674371
0.00658057
0.00642046
0.00626301
0.00610829
0.00595636
0.00580741
0.00566227
0.00552248
0.00538856
0.0052619
0.0106662
0.00993236
0.00883947
0.0081735
0.00777091
0.0074972
0.00728606
0.00709987
0.00692552
0.00675829
0.00659571
0.00643612
0.00627811
0.00612086
0.00596443
0.00580926
0.0056552
0.00549921
0.00533505
0.00515116
0.00994963
0.00991793
0.00918972
0.00847923
0.00803291
0.00771701
0.00745819
0.00723065
0.00702627
0.00683822
0.00666101
0.00649113
0.00632588
0.00616376
0.0060045
0.00584789
0.00569406
0.00554441
0.00540785
0.00530324
0.00902417
0.00915036
0.0088475
0.00843131
0.00806419
0.0077456
0.00746714
0.00722685
0.00701455
0.00682045
0.00663782
0.00646357
0.00629593
0.0061336
0.00597573
0.00582209
0.00567302
0.00553001
0.0053937
0.00526631
0.0086058
0.0086493
0.00848375
0.00822083
0.00794048
0.00766916
0.00741818
0.00719186
0.00698891
0.00680264
0.00662629
0.00645664
0.00629207
0.00613171
0.00597555
0.00582369
0.00567636
0.0055345
0.00539797
0.00526034
0.00838978
0.00841161
0.0082844
0.00806689
0.00783446
0.00760528
0.00738244
0.00716924
0.00696838
0.00678097
0.00660451
0.00643555
0.00627241
0.006114
0.00595916
0.00580711
0.00565812
0.00551336
0.00537249
0.00523064
0.00838977
0.0084116
0.00828439
0.00806685
0.0078344
0.0076052
0.00738232
0.00716906
0.00696814
0.00678056
0.00660375
0.00643423
0.00627027
0.0061106
0.0059538
0.00579927
0.00564714
0.00549742
0.00535024
0.00520473
0.00860577
0.00864928
0.00848371
0.00822077
0.00794039
0.00766904
0.00741801
0.0071916
0.00698847
0.00680168
0.00662439
0.0064534
0.00628719
0.00612488
0.00596551
0.0058081
0.00565206
0.00549741
0.00534533
0.00519852
0.00902417
0.00915036
0.00884748
0.00843128
0.00806416
0.00774554
0.00746701
0.00722661
0.00701408
0.00681962
0.00663652
0.00646151
0.00629271
0.00612839
0.00596724
0.00580841
0.00565143
0.00549677
0.00534663
0.00521185
0.00994965
0.00991795
0.00918973
0.00847925
0.00803292
0.00771702
0.0074582
0.00723066
0.00702627
0.00683822
0.00666102
0.00649113
0.00632587
0.00616375
0.00600447
0.00584786
0.00569404
0.00554438
0.00540779
0.00530314
0.0106662
0.00993238
0.00883949
0.00817352
0.00777094
0.00749724
0.00728611
0.00709997
0.0069257
0.00675863
0.00659628
0.00643707
0.0062798
0.00612412
0.00597051
0.00581988
0.00567272
0.0055282
0.00538547
0.00523626
0.017845
0.0107306
0.00843915
0.00790132
0.00762697
0.00740478
0.00721819
0.00705183
0.00689077
0.0067315
0.00657413
0.00641861
0.00626413
0.00610974
0.00595561
0.00580251
0.0056507
0.00550053
0.00534843
0.00518488
0.0106662
0.00993236
0.00883947
0.00817351
0.00777093
0.00749723
0.00728611
0.00709997
0.0069257
0.00675863
0.00659628
0.00643708
0.00627981
0.00612414
0.00597054
0.0058199
0.00567274
0.00552821
0.00538548
0.00523628
0.0103179
0.00946643
0.00870216
0.00814304
0.00776689
0.00749888
0.00728325
0.00709038
0.00691204
0.0067437
0.00658056
0.00642045
0.00626301
0.00610829
0.00595637
0.00580741
0.00566226
0.00552247
0.00538855
0.00526189
0.00990865
0.00914592
0.00852715
0.00807582
0.00773183
0.00746278
0.00724314
0.00705429
0.00688639
0.00672885
0.00657303
0.00641751
0.00626301
0.00611019
0.00595951
0.00581151
0.00566724
0.00552794
0.00539269
0.00525999
0.0097744
0.00903322
0.00844504
0.0080369
0.00771492
0.00744813
0.00722648
0.00703565
0.00686458
0.00670737
0.00655668
0.00640553
0.00625296
0.00610056
0.00594951
0.00580043
0.00565395
0.00551063
0.0053695
0.00523148
0.0097744
0.00903322
0.00844503
0.00803689
0.0077149
0.00744809
0.00722643
0.00703555
0.0068644
0.00670707
0.00655618
0.00640467
0.0062515
0.00609813
0.00594551
0.00579406
0.00564386
0.00549501
0.00534709
0.00520146
0.00990863
0.0091459
0.00852713
0.0080758
0.0077318
0.00746272
0.007243
0.00705403
0.00688593
0.00672807
0.00657171
0.00641531
0.00625943
0.00610438
0.00595005
0.00579605
0.00564193
0.00548748
0.00533335
0.00518118
0.0103179
0.00946642
0.00870216
0.00814303
0.00776686
0.0074988
0.0072831
0.00709011
0.00691158
0.00674289
0.00657914
0.00641808
0.00625912
0.00610193
0.00594588
0.00578986
0.0056326
0.00547232
0.00531014
0.00514534
0.0106662
0.00993237
0.00883948
0.00817351
0.00777092
0.00749721
0.00728606
0.00709987
0.00692552
0.00675829
0.00659571
0.00643611
0.0062781
0.00612084
0.0059644
0.00580923
0.00565517
0.00549918
0.00533498
0.00515101
0.017845
0.0107306
0.00843916
0.00790133
0.00762698
0.00740479
0.0072182
0.00705183
0.00689077
0.0067315
0.00657413
0.0064186
0.00626412
0.00610971
0.00595558
0.00580248
0.00565068
0.0055005
0.00534839
0.00518481
0.00534573
0.00491104
0.0046296
0.0044968
0.00437189
0.00423247
0.00409339
0.00395681
0.00382016
0.00368318
0.00354711
0.00341329
0.00328038
0.00314813
0.00301674
0.00288613
0.00275677
0.00262871
0.00250282
0.00237791
0.00225459
0.00213221
0.00201127
0.00189176
0.00177235
0.00165398
0.00153677
0.00142046
0.00130618
0.00119226
0.00107623
0.000960733
0.000847258
0.000735415
0.000624569
0.000512109
0.000397645
0.000282936
0.00017111
5.2949e-05
0.005223
0.00490911
0.00467238
0.00453366
0.00439913
0.00425442
0.00411084
0.00397019
0.00382946
0.00368872
0.0035495
0.00341297
0.00327756
0.00314291
0.00300953
0.00287745
0.00274727
0.00261883
0.00249264
0.00236769
0.00224439
0.00212249
0.00200257
0.00188399
0.00176502
0.00164664
0.0015293
0.00141302
0.00129872
0.00118488
0.00106933
0.000954365
0.000841341
0.000729944
0.000619214
0.000506904
0.000393001
0.000279367
0.000168063
5.20528e-05
0.00504064
0.00486527
0.00468332
0.00453148
0.00439115
0.0042478
0.00410305
0.0039596
0.00381766
0.00367722
0.00353819
0.00340133
0.00326519
0.00313037
0.00299768
0.00286671
0.0027375
0.00260978
0.00248399
0.0023591
0.00223581
0.00211381
0.00199364
0.00187478
0.00175599
0.00163805
0.00152099
0.00140497
0.00129077
0.00117746
0.00106299
0.000949025
0.000836468
0.000724906
0.000614823
0.000503698
0.000390051
0.000276869
0.000166559
5.12397e-05
0.00499687
0.00485208
0.00469424
0.00454154
0.00439673
0.00425324
0.00410982
0.00396737
0.00382632
0.00368655
0.00354814
0.00341151
0.0032763
0.00314239
0.00300992
0.00287894
0.00274957
0.0026215
0.00249502
0.00236943
0.0022451
0.0021216
0.00199875
0.00187707
0.0017568
0.00163812
0.00152089
0.00140479
0.00129022
0.00117696
0.00106253
0.000948274
0.000835256
0.000723759
0.000614331
0.000503795
0.000390362
0.000277277
0.000167002
5.10025e-05
0.00504743
0.004882
0.0047112
0.00454998
0.00439632
0.00424705
0.00410147
0.00395967
0.00382044
0.00368259
0.00354602
0.00341062
0.00327642
0.00314356
0.00301204
0.00288192
0.00275307
0.00262548
0.00249916
0.00237409
0.00225046
0.00212798
0.00200603
0.00188472
0.00176436
0.00164545
0.00152818
0.00141217
0.0012974
0.00118295
0.00106758
0.000952549
0.000838799
0.000726832
0.000616906
0.000505861
0.00039222
0.000278681
0.000167685
5.09762e-05
0.00507952
0.00490464
0.00472229
0.00455423
0.00439716
0.00424631
0.00409993
0.00395792
0.00381927
0.00368217
0.00354587
0.00341067
0.00327679
0.00314424
0.00301302
0.0028833
0.00275483
0.0026276
0.00250164
0.00237696
0.00225358
0.00213144
0.00201051
0.0018902
0.00176993
0.00165038
0.00153233
0.00141596
0.00130132
0.00118727
0.00107286
0.000958779
0.00084535
0.000733094
0.000622334
0.000510478
0.000396562
0.000282163
0.000169877
5.21671e-05
0.00511339
0.0049281
0.00473243
0.00455705
0.00439736
0.0042452
0.00409792
0.00395525
0.0038161
0.0036786
0.00354234
0.00340748
0.00327412
0.00314194
0.0030111
0.00288179
0.00275392
0.00262718
0.00250166
0.00237739
0.00225436
0.00213255
0.00201187
0.00189178
0.00177151
0.00165237
0.00153492
0.00141902
0.00130518
0.00119144
0.00107664
0.00096246
0.000849137
0.000737081
0.00062718
0.000516031
0.000402197
0.000287073
0.00017347
5.40927e-05
0.00516666
0.00495893
0.00473914
0.00455067
0.00438579
0.00423272
0.00408651
0.00394517
0.00380674
0.00367033
0.00353556
0.00340228
0.00327001
0.0031381
0.00300716
0.00287779
0.00275015
0.00262387
0.00249883
0.00237493
0.00225205
0.0021304
0.00200982
0.00189065
0.00177229
0.00165522
0.00153907
0.00142369
0.0013103
0.00119649
0.00108084
0.000966191
0.000853118
0.000741026
0.000630462
0.000519557
0.000405951
0.000289452
0.000174285
5.47364e-05
0.00524504
0.00497375
0.00470558
0.00451103
0.00435082
0.00420245
0.00406089
0.00392454
0.00379075
0.00365821
0.0035266
0.00339562
0.00326492
0.00313551
0.0030079
0.00288008
0.00275271
0.0026263
0.00250109
0.00237706
0.00225386
0.00213186
0.00201108
0.00189235
0.00177439
0.00165763
0.00154145
0.00142568
0.00131187
0.00119772
0.00108133
0.000965765
0.00085218
0.000740028
0.000629368
0.000518301
0.00040428
0.000287239
0.000171962
5.38635e-05
0.00533741
0.00494716
0.00462926
0.00446609
0.00433926
0.00420572
0.00407167
0.00394002
0.00380798
0.00367491
0.00354234
0.00341095
0.00328038
0.00315146
0.00302382
0.00289537
0.00276689
0.00263942
0.00251334
0.00238869
0.00226503
0.00214199
0.00202031
0.00190069
0.00178156
0.0016632
0.00154617
0.00142995
0.00131583
0.0012016
0.00108483
0.000968509
0.000854325
0.000741609
0.000630606
0.000520055
0.000406433
0.000289274
0.000173513
5.45053e-05
0.0053458
0.00491086
0.00462877
0.00449515
0.00437115
0.00423342
0.00409454
0.0039576
0.0038207
0.00368347
0.00354738
0.00341314
0.00328003
0.00314801
0.00301705
0.00288658
0.00275707
0.00262907
0.00250275
0.00237795
0.00225433
0.00213175
0.00201099
0.00189201
0.00177298
0.00165438
0.00153724
0.00142087
0.00130653
0.00119253
0.00107637
0.000960711
0.000847053
0.000734687
0.000623967
0.000513665
0.000400588
0.000284407
0.00017119
5.27768e-05
0.00533732
0.00494713
0.00462992
0.00446788
0.00434018
0.00420485
0.00407054
0.00393922
0.00380741
0.00367456
0.00354201
0.00341098
0.0032806
0.00315158
0.00302341
0.00289476
0.00276638
0.00263885
0.00251322
0.00238847
0.00226517
0.00214229
0.00202042
0.00190028
0.00178079
0.00166261
0.00154556
0.00142945
0.00131541
0.0012013
0.00108468
0.000968579
0.000854708
0.000742798
0.00063171
0.00051848
0.000402989
0.000287245
0.000173045
5.44458e-05
0.0051534
0.00491451
0.00469183
0.00452853
0.00438294
0.00424086
0.00410221
0.00396567
0.00382968
0.00369425
0.00355919
0.00342551
0.00329175
0.00315883
0.00302713
0.00289664
0.0027675
0.00263973
0.00251409
0.00238895
0.00226566
0.00214308
0.00202166
0.00190164
0.00178173
0.00166307
0.00154523
0.00142846
0.00131412
0.00120005
0.00108337
0.000967021
0.000852681
0.000740083
0.000630021
0.000518128
0.000402224
0.00028632
0.000173383
5.48605e-05
0.00500788
0.00483709
0.00467696
0.00452032
0.00437249
0.00423015
0.00408972
0.00395037
0.00381298
0.0036772
0.00354223
0.00340763
0.00327417
0.00314213
0.00301136
0.00288178
0.00275319
0.00262623
0.00250074
0.00237587
0.0022518
0.002129
0.00200736
0.00188689
0.00176754
0.00164935
0.00153219
0.0014157
0.00130037
0.00118596
0.00107085
0.000955884
0.00084156
0.000728105
0.000617092
0.000506076
0.000392705
0.000279495
0.000169054
5.33247e-05
0.00496459
0.00481138
0.00467307
0.00452606
0.00438013
0.00423761
0.00409685
0.00395783
0.00382045
0.00368411
0.00354878
0.00341416
0.00328117
0.00314931
0.00301815
0.00288796
0.00275888
0.00263128
0.0025048
0.00237974
0.00225545
0.0021321
0.00201011
0.0018893
0.00176952
0.00165056
0.00153281
0.00141575
0.00129934
0.00118351
0.00106801
0.000952966
0.000838444
0.000724945
0.00061251
0.000500325
0.000388363
0.000276815
0.00016652
5.29122e-05
0.00500221
0.00484268
0.00469287
0.00454304
0.00439569
0.0042507
0.00410741
0.00396602
0.00382658
0.0036889
0.00355273
0.00341792
0.0032845
0.0031523
0.00302119
0.00289124
0.00276243
0.00263485
0.00250836
0.00238313
0.00225877
0.00213517
0.00201284
0.0018918
0.00177198
0.00165341
0.00153574
0.00141864
0.00130197
0.00118544
0.0010696
0.00095442
0.00084004
0.000726019
0.000611589
0.00049757
0.000385166
0.00027393
0.000164142
5.26313e-05
0.00503199
0.00487058
0.00471732
0.00456619
0.00441651
0.00426901
0.00412382
0.00398034
0.00383855
0.00369883
0.00356115
0.00342513
0.00329055
0.00315735
0.0030254
0.00289475
0.00276538
0.0026373
0.00251046
0.00238492
0.00226049