/*--------------------------------*- C++ -*----------------------------------*\
| =========                 |                                                 |
| \\      /  F ield         | OpenFOAM: The Open Source CFD Toolbox           |
|  \\    /   O peration     | Version:  2212                                  |
|   \\  /    A nd           | Website:  www.openfoam.com                      |
|    \\/     M anipulation  |                                                 |
\*---------------------------------------------------------------------------*/
FoamFile
{
    version     2.0;
    format      ascii;
    arch        "LSB;label=32;scalar=64";
    class       surfaceScalarField;
    location    "1.45";
    object      phi;
}
// * * * * * * * * * * * * * * * * * * * * * * * * * * * * * * * * * * * * * //

dimensions      [0 3 -1 0 0 0 0];

oriented        oriented;

internalField   nonuniform List<scalar> 
19019
(
3.32249e-07
1.09681e-09
1.09687e-09
2.7919e-07
2.65296e-08
2.65296e-08
2.49217e-07
1.49866e-08
1.49865e-08
2.29253e-07
9.98241e-09
9.98226e-09
2.14832e-07
7.21083e-09
7.21004e-09
2.03194e-07
5.81966e-09
5.81848e-09
1.93762e-07
4.71702e-09
4.71418e-09
1.85989e-07
3.88957e-09
3.88424e-09
1.79329e-07
3.33449e-09
3.32488e-09
1.73483e-07
2.93164e-09
2.91441e-09
1.68282e-07
2.61507e-09
2.58625e-09
1.6361e-07
2.35995e-09
2.31171e-09
1.59369e-07
2.16174e-09
2.08007e-09
1.55474e-07
2.02283e-09
1.87171e-09
1.51884e-07
1.93282e-09
1.65741e-09
1.48597e-07
1.86842e-09
1.41897e-09
1.45631e-07
1.81607e-09
1.15058e-09
1.43157e-07
1.68194e-09
7.92545e-10
1.41171e-07
1.86134e-09
1.25134e-10
-1.8918e-09
-4.1539e-09
6.3138e-07
3.58766e-09
7.40287e-09
6.14563e-07
2.26462e-08
2.07004e-08
5.86444e-07
2.43766e-08
1.87292e-08
5.61723e-07
1.88559e-08
1.58473e-08
5.39613e-07
1.55714e-08
1.37496e-08
5.2063e-07
1.35135e-08
1.12893e-08
5.0468e-07
1.19572e-08
8.70941e-09
4.9092e-07
1.08086e-08
6.84061e-09
4.78688e-07
9.96232e-09
5.60451e-09
4.67589e-07
9.263e-09
4.76803e-09
4.57385e-07
8.65662e-09
4.16202e-09
4.47927e-07
8.12452e-09
3.69309e-09
4.391e-07
7.66026e-09
3.32877e-09
4.30795e-07
7.26904e-09
3.05951e-09
4.22927e-07
6.95545e-09
2.84531e-09
4.15525e-07
6.69372e-09
2.57753e-09
4.08785e-07
6.4134e-09
2.1426e-09
4.03332e-07
5.82458e-09
1.31066e-09
4.00046e-07
5.17571e-09
-2.75885e-11
2.48549e-09
-5.83482e-09
8.90375e-07
2.85273e-09
6.33233e-09
8.82486e-07
1.34091e-08
1.71257e-08
8.70359e-07
1.78683e-08
1.86356e-08
8.55111e-07
1.69569e-08
1.71466e-08
8.39981e-07
1.53423e-08
1.53593e-08
8.25534e-07
1.41726e-08
1.37881e-08
8.11767e-07
1.33838e-08
1.23397e-08
7.98777e-07
1.26824e-08
1.1117e-08
7.8671e-07
1.18979e-08
1.01308e-08
7.75579e-07
1.10597e-08
9.33429e-09
7.65249e-07
1.02633e-08
8.724e-09
7.55574e-07
9.53125e-09
8.26834e-09
7.46437e-07
8.87506e-09
7.92244e-09
7.37775e-07
8.28983e-09
7.64132e-09
7.29595e-07
7.74852e-09
7.38673e-09
7.21991e-07
7.19841e-09
7.10003e-09
7.1521e-07
6.52792e-09
6.66688e-09
7.09499e-07
5.60038e-09
5.93562e-09
7.05278e-07
4.4761e-09
4.92119e-09
2.83303e-09
3.08831e-09
1.07432e-06
1.06494e-09
5.56886e-09
1.06824e-06
5.58707e-09
1.39001e-08
1.06138e-06
8.465e-09
1.62614e-08
1.05339e-06
9.04138e-09
1.59078e-08
1.04511e-06
8.62001e-09
1.49996e-08
1.03723e-06
8.1236e-09
1.39292e-08
1.02985e-06
7.79106e-09
1.29709e-08
1.02287e-06
7.56084e-09
1.21051e-08
1.01606e-06
7.37805e-09
1.13295e-08
1.00935e-06
7.09853e-09
1.06663e-08
1.00279e-06
6.66765e-09
1.01554e-08
9.96372e-07
6.18377e-09
9.76882e-09
9.90065e-07
5.71245e-09
9.4696e-09
9.83864e-07
5.25406e-09
9.2371e-09
9.7778e-07
4.79405e-09
9.03872e-09
9.71837e-07
4.30414e-09
8.83732e-09
9.66087e-07
3.69872e-09
8.57931e-09
9.6057e-07
2.89973e-09
8.2185e-09
9.55454e-07
1.8245e-09
7.76776e-09
4.56369e-10
7.66326e-09
1.16914e-06
-3.89734e-14
4.90652e-09
1.16312e-06
-2.11219e-13
1.16084e-08
1.15731e-06
-5.60124e-13
1.42752e-08
1.15202e-06
-1.05512e-12
1.43327e-08
1.14692e-06
-1.87578e-12
1.3728e-08
1.14208e-06
-3.41152e-12
1.29651e-08
1.13778e-06
-6.29303e-12
1.20941e-08
1.13406e-06
-1.10483e-11
1.12974e-08
1.13082e-06
-1.91793e-11
1.06322e-08
1.12779e-06
-3.26398e-11
1.01606e-08
1.12467e-06
-5.47777e-11
9.84856e-09
1.12133e-06
-9.13132e-11
9.61494e-09
1.11774e-06
-1.51668e-10
9.45238e-09
1.11388e-06
-2.51505e-10
9.36351e-09
1.10974e-06
-4.06375e-10
9.33792e-09
1.10534e-06
-6.46472e-10
9.3538e-09
1.10067e-06
-1.0275e-09
9.39369e-09
1.09574e-06
-1.61421e-09
9.44527e-09
1.09048e-06
-2.44185e-09
9.52849e-09
-3.78537e-09
9.9691e-09
1.16914e-06
-1.06506e-09
4.90654e-09
1.16312e-06
-5.58747e-09
1.16084e-08
1.15731e-06
-8.46573e-09
1.42752e-08
1.15202e-06
-9.04262e-09
1.43329e-08
1.14691e-06
-8.62257e-09
1.3729e-08
1.14207e-06
-8.12876e-09
1.29672e-08
1.13777e-06
-7.80088e-09
1.20974e-08
1.13403e-06
-7.57836e-09
1.13029e-08
1.13078e-06
-7.40968e-09
1.06419e-08
1.12772e-06
-7.15223e-09
1.01774e-08
1.12455e-06
-6.75581e-09
9.87672e-09
1.12112e-06
-6.32812e-09
9.66242e-09
1.11739e-06
-5.94952e-09
9.53336e-09
1.11329e-06
-5.64978e-09
9.49792e-09
1.10878e-06
-5.44797e-09
9.5521e-09
1.10381e-06
-5.38044e-09
9.69807e-09
1.09833e-06
-5.48552e-09
9.93998e-09
1.09225e-06
-5.81616e-09
1.02848e-08
1.0855e-06
-6.36729e-09
1.06729e-08
-7.65453e-09
1.08778e-08
1.07432e-06
-2.85272e-09
5.56884e-09
1.06824e-06
-1.34091e-08
1.39001e-08
1.06138e-06
-1.78682e-08
1.62617e-08
1.05338e-06
-1.69568e-08
1.5909e-08
1.0451e-06
-1.53425e-08
1.50021e-08
1.03721e-06
-1.41737e-08
1.39331e-08
1.02982e-06
-1.33862e-08
1.29768e-08
1.02281e-06
-1.26864e-08
1.21148e-08
1.01596e-06
-1.19056e-08
1.13461e-08
1.00919e-06
-1.1073e-08
1.0695e-08
1.00251e-06
-1.02849e-08
1.02065e-08
9.95896e-07
-9.56703e-09
9.85548e-09
9.89267e-07
-8.9386e-09
9.61825e-09
9.82541e-07
-8.40918e-09
9.48622e-09
9.75612e-07
-7.97719e-09
9.45748e-09
9.68332e-07
-7.64256e-09
9.54229e-09
9.60497e-07
-7.42271e-09
9.77237e-09
9.51867e-07
-7.37683e-09
1.01905e-08
9.42439e-07
-7.66791e-09
1.07286e-08
-8.49887e-09
1.0498e-08
8.90375e-07
-3.58765e-09
6.33237e-09
8.82485e-07
-2.2646e-08
1.71261e-08
8.70357e-07
-2.43763e-08
1.86366e-08
8.55107e-07
-1.88555e-08
1.71483e-08
8.39973e-07
-1.55702e-08
1.53617e-08
8.2552e-07
-1.35113e-08
1.37913e-08
8.11742e-07
-1.19532e-08
1.23449e-08
7.98731e-07
-1.08021e-08
1.11263e-08
7.86631e-07
-9.95111e-09
1.01459e-08
7.75442e-07
-9.24305e-09
9.35892e-09
7.65013e-07
-8.62108e-09
8.76513e-09
7.55173e-07
-8.06596e-09
8.33931e-09
7.4576e-07
-7.57105e-09
8.04597e-09
7.36635e-07
-7.13528e-09
7.85083e-09
7.27672e-07
-6.75557e-09
7.74175e-09
7.18686e-07
-6.38856e-09
7.73218e-09
7.09413e-07
-6.00618e-09
7.85603e-09
6.99441e-07
-5.57576e-09
8.17061e-09
6.88259e-07
-5.19797e-09
8.71204e-09
-4.56563e-09
8.17621e-09
6.3138e-07
-1.09689e-09
7.40291e-09
6.14563e-07
-2.65296e-08
2.07006e-08
5.86444e-07
-1.49866e-08
1.87297e-08
5.61722e-07
-9.98229e-09
1.58483e-08
5.39611e-07
-7.21009e-09
1.37509e-08
5.20626e-07
-5.81853e-09
1.12919e-08
5.04674e-07
-4.71424e-09
8.71355e-09
4.90909e-07
-3.88431e-09
6.84752e-09
4.78666e-07
-3.32497e-09
5.61634e-09
4.67549e-07
-2.91451e-09
4.78877e-09
4.57311e-07
-2.58637e-09
4.20356e-09
4.4779e-07
-2.31183e-09
3.76681e-09
4.3885e-07
-2.08007e-09
3.44941e-09
4.30364e-07
-1.87185e-09
3.2225e-09
4.22202e-07
-1.65775e-09
3.06435e-09
4.1428e-07
-1.41919e-09
2.95256e-09
4.06535e-07
-1.15069e-09
2.88925e-09
3.98912e-07
-7.92168e-10
2.83974e-09
3.91538e-07
-1.23257e-10
2.2994e-09
4.15805e-09
7.45437e-10
3.32249e-07
1.0968e-09
2.7919e-07
2.65296e-08
2.49217e-07
1.49865e-08
2.29252e-07
9.98239e-09
2.14832e-07
7.2108e-09
2.03193e-07
5.81963e-09
1.93762e-07
4.71698e-09
1.85988e-07
3.88953e-09
1.79329e-07
3.33444e-09
1.73483e-07
2.93158e-09
1.68282e-07
2.61501e-09
1.6361e-07
2.3599e-09
1.59368e-07
2.16159e-09
1.55474e-07
2.02258e-09
1.51884e-07
1.93248e-09
1.48597e-07
1.86788e-09
1.45631e-07
1.81537e-09
1.43158e-07
1.68072e-09
1.41176e-07
1.85872e-09
-1.89499e-09
6.3138e-07
7.40291e-09
3.58763e-09
6.14563e-07
2.07006e-08
2.2646e-08
5.86444e-07
1.87297e-08
2.43763e-08
5.61722e-07
1.58483e-08
1.88555e-08
5.39611e-07
1.37509e-08
1.55701e-08
5.20626e-07
1.12919e-08
1.35112e-08
5.04674e-07
8.71354e-09
1.19531e-08
4.90909e-07
6.84751e-09
1.0802e-08
4.78666e-07
5.61633e-09
9.95095e-09
4.67549e-07
4.78876e-09
9.24286e-09
4.57311e-07
4.20354e-09
8.62085e-09
4.4779e-07
3.76681e-09
8.06571e-09
4.3885e-07
3.44969e-09
7.5707e-09
4.30364e-07
3.22261e-09
7.13506e-09
4.22202e-07
3.06424e-09
6.75551e-09
4.1428e-07
2.9529e-09
6.38838e-09
4.06534e-07
2.89009e-09
6.00614e-09
3.98909e-07
2.84175e-09
5.57665e-09
3.91529e-07
2.3034e-09
5.20172e-09
7.47332e-10
4.57304e-09
9.23616e-07
7.03401e-09
7.03394e-09
9.25317e-07
1.98504e-08
1.98501e-08
9.17181e-07
2.27978e-08
2.27972e-08
9.04269e-07
2.23042e-08
2.2303e-08
8.90523e-07
2.0624e-08
2.0622e-08
8.77391e-07
1.78585e-08
1.78547e-08
8.65409e-07
1.47057e-08
1.46994e-08
8.5471e-07
1.21988e-08
1.21887e-08
8.45235e-07
1.03571e-08
1.03392e-08
8.36832e-07
8.99598e-09
8.96381e-09
8.29308e-07
7.97293e-09
7.91629e-09
8.22464e-07
7.19961e-09
7.10449e-09
8.16155e-07
6.62066e-09
6.46664e-09
8.10316e-07
6.18158e-09
5.93983e-09
8.04915e-07
5.84693e-09
5.46371e-09
7.99865e-07
5.59499e-09
4.98538e-09
7.95028e-07
5.4091e-09
4.46046e-09
7.90011e-07
5.2965e-09
3.87359e-09
7.84451e-07
4.94443e-09
2.89081e-09
3.63777e-09
4.39888e-10
1.1589e-06
5.28158e-09
6.10261e-09
1.1657e-06
1.39995e-08
1.61829e-08
1.16844e-06
1.79794e-08
2.07065e-08
1.16661e-06
1.91812e-08
2.21046e-08
1.16221e-06
1.88796e-08
2.15051e-08
1.15653e-06
1.75509e-08
1.9769e-08
1.15046e-06
1.56938e-08
1.74239e-08
1.14455e-06
1.3899e-08
1.5327e-08
1.13911e-06
1.23053e-08
1.36252e-08
1.13426e-06
1.09188e-08
1.22615e-08
1.13e-06
9.77967e-09
1.11761e-08
1.12629e-06
8.85949e-09
1.0317e-08
1.12309e-06
8.11171e-09
9.62946e-09
1.12036e-06
7.49987e-09
9.05544e-09
1.11806e-06
6.97946e-09
8.55081e-09
1.11617e-06
6.51757e-09
8.07017e-09
1.11463e-06
6.07512e-09
7.54609e-09
1.11329e-06
5.63085e-09
6.9332e-09
1.11192e-06
5.07806e-09
6.15771e-09
4.25065e-09
5.24671e-09
1.32762e-06
2.71843e-09
4.93109e-09
1.33539e-06
7.12145e-09
1.30089e-08
1.34286e-06
9.55452e-09
1.72157e-08
1.34848e-06
1.05795e-08
1.88988e-08
1.35198e-06
1.08773e-08
1.95e-08
1.35376e-06
1.05836e-08
1.91133e-08
1.35443e-06
9.89634e-09
1.80979e-08
1.35458e-06
9.05294e-09
1.68069e-08
1.35455e-06
8.20417e-09
1.54572e-08
1.3545e-06
7.40817e-09
1.42218e-08
1.35451e-06
6.70051e-09
1.32274e-08
1.35462e-06
6.07762e-09
1.2438e-08
1.35487e-06
5.52752e-09
1.18071e-08
1.35527e-06
5.04249e-09
1.12978e-08
1.35583e-06
4.58282e-09
1.08728e-08
1.35658e-06
4.11295e-09
1.0492e-08
1.35752e-06
3.59795e-09
1.01164e-08
1.35866e-06
3.00476e-09
9.7091e-09
1.35993e-06
2.30867e-09
9.26484e-09
1.50402e-09
8.97256e-09
1.41518e-06
-1.01613e-13
4.19285e-09
1.42279e-06
-3.01272e-13
1.11158e-08
1.43152e-06
-5.19943e-13
1.50984e-08
1.43981e-06
-1.01503e-12
1.66288e-08
1.44714e-06
-1.99237e-12
1.72738e-08
1.45319e-06
-3.60741e-12
1.75066e-08
1.45804e-06
-6.01406e-12
1.71479e-08
1.46197e-06
-9.87965e-12
1.64285e-08
1.46528e-06
-1.68018e-11
1.55353e-08
1.46824e-06
-3.01153e-11
1.46428e-08
1.47103e-06
-5.35775e-11
1.38122e-08
1.47373e-06
-9.04733e-11
1.30812e-08
1.47634e-06
-1.45949e-10
1.25179e-08
1.47884e-06
-2.2778e-10
1.21311e-08
1.48125e-06
-3.54141e-10
1.18688e-08
1.48359e-06
-5.48869e-10
1.16794e-08
1.48588e-06
-8.39957e-10
1.15389e-08
1.48815e-06
-1.26421e-09
1.1442e-08
1.49044e-06
-1.82376e-09
1.13716e-08
-2.43113e-09
1.14212e-08
1.41518e-06
-2.71855e-09
4.1929e-09
1.42279e-06
-7.12178e-09
1.1116e-08
1.43152e-06
-9.55511e-09
1.50986e-08
1.4398e-06
-1.05807e-08
1.66295e-08
1.44714e-06
-1.08797e-08
1.72754e-08
1.45318e-06
-1.05879e-08
1.75095e-08
1.45802e-06
-9.90369e-09
1.71527e-08
1.46194e-06
-9.0653e-09
1.6436e-08
1.46525e-06
-8.2254e-09
1.55465e-08
1.46818e-06
-7.44931e-09
1.46611e-08
1.47094e-06
-6.77628e-09
1.38441e-08
1.47358e-06
-6.2032e-09
1.31372e-08
1.47607e-06
-5.72316e-09
1.26152e-08
1.47838e-06
-5.33306e-09
1.22936e-08
1.48049e-06
-5.03742e-09
1.21289e-08
1.48241e-06
-4.84568e-09
1.20727e-08
1.48416e-06
-4.77e-09
1.2117e-08
1.48573e-06
-4.84452e-09
1.22951e-08
1.48707e-06
-5.05277e-09
1.25599e-08
-5.07756e-09
1.25812e-08
1.32762e-06
-5.28153e-09
4.93121e-09
1.33539e-06
-1.39994e-08
1.30093e-08
1.34286e-06
-1.79793e-08
1.72166e-08
1.34847e-06
-1.9181e-08
1.89012e-08
1.35197e-06
-1.88792e-08
1.95044e-08
1.35374e-06
-1.755e-08
1.91201e-08
1.3544e-06
-1.56929e-08
1.81085e-08
1.35452e-06
-1.3899e-08
1.68237e-08
1.35447e-06
-1.23051e-08
1.54828e-08
1.35437e-06
-1.09176e-08
1.42639e-08
1.35427e-06
-9.7765e-09
1.33005e-08
1.35421e-06
-8.84924e-09
1.25617e-08
1.35419e-06
-8.09171e-09
1.20103e-08
1.35418e-06
-7.46359e-09
1.16262e-08
1.35413e-06
-6.93277e-09
1.14019e-08
1.35396e-06
-6.4807e-09
1.1346e-08
1.35359e-06
-6.10574e-09
1.14846e-08
1.35295e-06
-5.83428e-09
1.18179e-08
1.35197e-06
-5.54665e-09
1.22058e-08
-4.65002e-09
1.19863e-08
1.1589e-06
-7.03395e-09
6.10276e-09
1.16569e-06
-1.98501e-08
1.61836e-08
1.16844e-06
-2.27972e-08
2.07081e-08
1.1666e-06
-2.23031e-08
2.21072e-08
1.1622e-06
-2.06221e-08
2.1509e-08
1.15652e-06
-1.78548e-08
1.97744e-08
1.15044e-06
-1.46995e-08
1.74328e-08
1.14451e-06
-1.21889e-08
1.53426e-08
1.13904e-06
-1.03394e-08
1.36522e-08
1.13414e-06
-8.9641e-09
1.23066e-08
1.1298e-06
-7.91664e-09
1.12508e-08
1.12595e-06
-7.10485e-09
1.04395e-08
1.12254e-06
-6.46675e-09
9.8298e-09
1.11949e-06
-5.94055e-09
9.38277e-09
1.11668e-06
-5.46506e-09
9.08119e-09
1.11398e-06
-4.98639e-09
8.93563e-09
1.11122e-06
-4.46124e-09
8.97302e-09
1.10821e-06
-3.87398e-09
9.22168e-09
1.10477e-06
-2.89169e-09
9.49774e-09
-4.45485e-10
8.89891e-09
9.23616e-07
-7.40287e-09
7.03401e-09
9.25317e-07
-2.07004e-08
1.98504e-08
9.17181e-07
-1.87292e-08
2.27978e-08
9.04269e-07
-1.58473e-08
2.23042e-08
8.90523e-07
-1.37497e-08
2.0624e-08
8.77391e-07
-1.12894e-08
1.78586e-08
8.65409e-07
-8.70946e-09
1.47057e-08
8.5471e-07
-6.84068e-09
1.21987e-08
8.45234e-07
-5.6046e-09
1.03571e-08
8.36831e-07
-4.76814e-09
8.99595e-09
8.29307e-07
-4.16217e-09
7.97288e-09
8.22463e-07
-3.69321e-09
7.19952e-09
8.16154e-07
-3.32864e-09
6.62019e-09
8.10314e-07
-3.05943e-09
6.1813e-09
8.04912e-07
-2.84547e-09
5.84686e-09
7.99862e-07
-2.57761e-09
5.59439e-09
7.95024e-07
-2.14242e-09
5.40809e-09
7.90005e-07
-1.30945e-09
5.29457e-09
7.8444e-07
3.13653e-11
4.9416e-09
5.83882e-09
3.63556e-09
6.3138e-07
3.58764e-09
6.14563e-07
2.26462e-08
5.86444e-07
2.43765e-08
5.61723e-07
1.88559e-08
5.39613e-07
1.55714e-08
5.20629e-07
1.35135e-08
5.0468e-07
1.19572e-08
4.9092e-07
1.08086e-08
4.78688e-07
9.96227e-09
4.67588e-07
9.26295e-09
4.57384e-07
8.65658e-09
4.47927e-07
8.12451e-09
4.39099e-07
7.66034e-09
4.30794e-07
7.26871e-09
4.22926e-07
6.95461e-09
4.15524e-07
6.69283e-09
4.08784e-07
6.41225e-09
4.03334e-07
5.82197e-09
4.00056e-07
5.16813e-09
2.4698e-09
8.90375e-07
6.33237e-09
2.8527e-09
8.82485e-07
1.71261e-08
1.3409e-08
8.70357e-07
1.86366e-08
1.78682e-08
8.55107e-07
1.71483e-08
1.69567e-08
8.39973e-07
1.53617e-08
1.53425e-08
8.2552e-07
1.37913e-08
1.41736e-08
8.11742e-07
1.23448e-08
1.3386e-08
7.98731e-07
1.11263e-08
1.26862e-08
7.86631e-07
1.0146e-08
1.19053e-08
7.75442e-07
9.35894e-09
1.10726e-08
7.65014e-07
8.76517e-09
1.02845e-08
7.55173e-07
8.33941e-09
9.5665e-09
7.4576e-07
8.04611e-09
8.93793e-09
7.36636e-07
7.85101e-09
8.4085e-09
7.27672e-07
7.74215e-09
7.97649e-09
7.18686e-07
7.73293e-09
7.64159e-09
7.09414e-07
7.85728e-09
7.42149e-09
6.99442e-07
8.17275e-09
7.3758e-09
6.8826e-07
8.7159e-09
7.66749e-09
8.18247e-09
8.49933e-09
1.1589e-06
6.10276e-09
5.28151e-09
1.16569e-06
1.61836e-08
1.39993e-08
1.16844e-06
2.07081e-08
1.79792e-08
1.1666e-06
2.21072e-08
1.91809e-08
1.1622e-06
2.1509e-08
1.88791e-08
1.15652e-06
1.97744e-08
1.75498e-08
1.15044e-06
1.74328e-08
1.56927e-08
1.14451e-06
1.53427e-08
1.38988e-08
1.13904e-06
1.36523e-08
1.23047e-08
1.13414e-06
1.23067e-08
1.09171e-08
1.1298e-06
1.12509e-08
9.77593e-09
1.12595e-06
1.04397e-08
8.84858e-09
1.12254e-06
9.83023e-09
8.09097e-09
1.11949e-06
9.38296e-09
7.46222e-09
1.11668e-06
9.0813e-09
6.93086e-09
1.11399e-06
8.9362e-09
6.47871e-09
1.11123e-06
8.9739e-09
6.10343e-09
1.10822e-06
9.22255e-09
5.83117e-09
1.10478e-06
9.49825e-09
5.54213e-09
8.89891e-09
4.6438e-09
1.37712e-06
4.57759e-09
4.57743e-09
1.38565e-06
1.19179e-08
1.19174e-08
1.39417e-06
1.64486e-08
1.64476e-08
1.40126e-06
1.85632e-08
1.85616e-08
1.40641e-06
1.89339e-08
1.89311e-08
1.4095e-06
1.82271e-08
1.82229e-08
1.41091e-06
1.67241e-08
1.67171e-08
1.41148e-06
1.50558e-08
1.50449e-08
1.41174e-06
1.352e-08
1.35023e-08
1.41194e-06
1.21952e-08
1.21669e-08
1.41226e-06
1.10759e-08
1.10306e-08
1.41279e-06
1.01506e-08
1.00776e-08
1.41357e-06
9.39916e-09
9.28133e-09
1.4146e-06
8.79838e-09
8.60827e-09
1.41588e-06
8.32988e-09
8.03039e-09
1.41736e-06
7.98679e-09
7.53082e-09
1.41905e-06
7.75973e-09
7.07967e-09
1.42093e-06
7.62252e-09
6.64806e-09
1.42301e-06
7.42953e-09
6.14706e-09
6.94842e-09
5.5099e-09
1.53312e-06
2.36627e-09
3.6493e-09
1.54218e-06
6.23951e-09
9.63387e-09
1.55328e-06
8.87459e-09
1.36918e-08
1.56445e-06
1.03493e-08
1.59368e-08
1.57507e-06
1.09033e-08
1.6912e-08
1.5847e-06
1.07606e-08
1.69458e-08
1.593e-06
1.01527e-08
1.6377e-08
1.60007e-06
9.34588e-09
1.54465e-08
1.60622e-06
8.483e-09
1.43455e-08
1.61171e-06
7.67423e-09
1.32525e-08
1.61678e-06
6.96685e-09
1.22617e-08
1.62161e-06
6.36392e-09
1.13995e-08
1.6263e-06
5.84911e-09
1.06664e-08
1.63094e-06
5.40908e-09
1.00461e-08
1.63559e-06
5.02625e-09
9.51962e-09
1.64032e-06
4.69106e-09
9.0642e-09
1.64515e-06
4.38462e-09
8.65512e-09
1.65015e-06
4.08392e-09
8.25344e-09
1.65528e-06
3.73735e-09
7.82225e-09
3.3128e-09
7.42903e-09
1.61424e-06
-8.22859e-14
3.09274e-09
1.62332e-06
-1.96069e-13
8.27378e-09
1.63534e-06
-3.4921e-13
1.19567e-08
1.6482e-06
-6.41397e-13
1.41138e-08
1.66118e-06
-1.18127e-12
1.51989e-08
1.67387e-06
-1.94618e-12
1.55805e-08
1.68575e-06
-3.24614e-12
1.54258e-08
1.69658e-06
-5.18941e-12
1.49519e-08
1.70633e-06
-8.69567e-12
1.42744e-08
1.71517e-06
-1.50072e-11
1.34943e-08
1.72327e-06
-2.54112e-11
1.26994e-08
1.7308e-06
-4.09389e-11
1.19545e-08
1.73793e-06
-6.25069e-11
1.13036e-08
1.7448e-06
-9.23033e-11
1.07645e-08
1.7515e-06
-1.384e-10
1.03327e-08
1.75807e-06
-2.05807e-10
9.99834e-09
1.76457e-06
-3.0386e-10
9.7342e-09
1.77102e-06
-4.3319e-10
9.51186e-09
1.77739e-06
-5.68308e-10
9.30326e-09
-7.04031e-10
9.15085e-09
1.61424e-06
-2.36634e-09
3.09282e-09
1.62332e-06
-6.23965e-09
8.27404e-09
1.63534e-06
-8.87482e-09
1.19573e-08
1.6482e-06
-1.03497e-08
1.41149e-08
1.66118e-06
-1.09039e-08
1.5201e-08
1.67386e-06
-1.07613e-08
1.55838e-08
1.68573e-06
-1.0154e-08
1.54305e-08
1.69655e-06
-9.34831e-09
1.49587e-08
1.70629e-06
-8.4873e-09
1.42849e-08
1.71511e-06
-7.68327e-09
1.35108e-08
1.72319e-06
-6.98461e-09
1.27263e-08
1.73068e-06
-6.39392e-09
1.19986e-08
1.73775e-06
-5.89441e-09
1.13749e-08
1.74455e-06
-5.47278e-09
1.08774e-08
1.75115e-06
-5.12064e-09
1.05085e-08
1.7576e-06
-4.83585e-09
1.02607e-08
1.76392e-06
-4.61236e-09
1.01055e-08
1.7702e-06
-4.44155e-09
1.00217e-08
1.7765e-06
-4.25869e-09
9.94446e-09
-4.02855e-09
9.81521e-09
1.53312e-06
-4.57744e-09
3.64951e-09
1.54218e-06
-1.19175e-08
9.6345e-09
1.55327e-06
-1.64477e-08
1.36931e-08
1.56445e-06
-1.85617e-08
1.59391e-08
1.57506e-06
-1.89313e-08
1.69159e-08
1.58469e-06
-1.82231e-08
1.6952e-08
1.59298e-06
-1.67174e-08
1.63864e-08
1.60004e-06
-1.50453e-08
1.54616e-08
1.60617e-06
-1.35028e-08
1.43686e-08
1.61163e-06
-1.21675e-08
1.32882e-08
1.61666e-06
-1.10313e-08
1.23184e-08
1.62141e-06
-1.00785e-08
1.14911e-08
1.626e-06
-9.28246e-09
1.08141e-08
1.63047e-06
-8.60991e-09
1.02843e-08
1.63489e-06
-8.03262e-09
9.89455e-09
1.6393e-06
-7.5336e-09
9.63553e-09
1.64376e-06
-7.0833e-09
9.49627e-09
1.64834e-06
-6.6529e-09
9.44968e-09
1.65307e-06
-6.15326e-09
9.37564e-09
-5.51702e-09
9.1109e-09
1.37712e-06
-6.10261e-09
4.57759e-09
1.38565e-06
-1.61829e-08
1.19179e-08
1.39417e-06
-2.07065e-08
1.64486e-08
1.40126e-06
-2.21046e-08
1.85632e-08
1.40641e-06
-2.15052e-08
1.89339e-08
1.4095e-06
-1.97691e-08
1.82271e-08
1.41091e-06
-1.74241e-08
1.6724e-08
1.41148e-06
-1.53272e-08
1.50557e-08
1.41174e-06
-1.36255e-08
1.35199e-08
1.41194e-06
-1.22619e-08
1.21951e-08
1.41226e-06
-1.11766e-08
1.10757e-08
1.41279e-06
-1.03176e-08
1.01504e-08
1.41357e-06
-9.63013e-09
9.39883e-09
1.4146e-06
-9.05641e-09
8.79813e-09
1.41587e-06
-8.55213e-09
8.32971e-09
1.41736e-06
-8.07184e-09
7.98655e-09
1.41904e-06
-7.54832e-09
7.75956e-09
1.42092e-06
-6.93612e-09
7.62259e-09
1.423e-06
-6.16114e-09
7.42985e-09
-5.24865e-09
6.9489e-09
1.1589e-06
-6.33233e-09
5.28158e-09
1.1657e-06
-1.71257e-08
1.39995e-08
1.16844e-06
-1.86356e-08
1.79794e-08
1.16661e-06
-1.71467e-08
1.91812e-08
1.16221e-06
-1.53594e-08
1.88796e-08
1.15653e-06
-1.37882e-08
1.75509e-08
1.15046e-06
-1.23398e-08
1.56938e-08
1.14455e-06
-1.11171e-08
1.3899e-08
1.13911e-06
-1.01309e-08
1.23053e-08
1.13426e-06
-9.33447e-09
1.09187e-08
1.13e-06
-8.72423e-09
9.77959e-09
1.12629e-06
-8.26864e-09
8.85938e-09
1.12309e-06
-7.92283e-09
8.11149e-09
1.12036e-06
-7.64155e-09
7.49963e-09
1.11806e-06
-7.38674e-09
6.97927e-09
1.11617e-06
-7.10017e-09
6.5174e-09
1.11462e-06
-6.66715e-09
6.07513e-09
1.11328e-06
-5.93562e-09
5.63131e-09
1.1119e-06
-4.91908e-09
5.07903e-09
-3.08262e-09
4.25049e-09
8.90375e-07
2.85272e-09
8.82486e-07
1.34091e-08
8.70359e-07
1.78683e-08
8.55111e-07
1.69569e-08
8.39981e-07
1.53423e-08
8.25533e-07
1.41726e-08
8.11767e-07
1.33838e-08
7.98776e-07
1.26823e-08
7.8671e-07
1.18978e-08
7.75579e-07
1.10596e-08
7.65248e-07
1.02632e-08
7.55573e-07
9.53119e-09
7.46435e-07
8.87503e-09
7.37773e-07
8.28963e-09
7.29592e-07
7.74807e-09
7.21987e-07
7.19798e-09
7.15205e-07
6.5276e-09
7.09491e-07
5.60014e-09
7.05265e-07
4.4758e-09
2.83329e-09
1.07432e-06
5.56884e-09
1.06504e-09
1.06824e-06
1.39001e-08
5.58743e-09
1.06138e-06
1.62617e-08
8.46569e-09
1.05338e-06
1.5909e-08
9.04257e-09
1.0451e-06
1.50021e-08
8.62249e-09
1.03721e-06
1.39331e-08
8.12864e-09
1.02982e-06
1.29768e-08
7.8007e-09
1.02281e-06
1.21148e-08
7.57812e-09
1.01596e-06
1.13461e-08
7.40935e-09
1.00919e-06
1.0695e-08
7.15179e-09
1.00251e-06
1.02066e-08
6.75523e-09
9.95896e-07
9.85556e-09
6.32738e-09
9.89267e-07
9.61839e-09
5.94859e-09
9.82541e-07
9.48639e-09
5.64871e-09
9.75612e-07
9.45771e-09
5.44671e-09
9.68333e-07
9.54254e-09
5.37877e-09
9.60498e-07
9.7726e-09
5.48324e-09
9.5187e-07
1.01907e-08
5.81319e-09
9.42445e-07
1.0729e-08
6.36315e-09
1.04989e-08
7.65002e-09
1.32762e-06
4.93121e-09
2.71854e-09
1.33539e-06
1.30093e-08
7.12175e-09
1.34286e-06
1.72166e-08
9.55505e-09
1.34847e-06
1.89012e-08
1.05806e-08
1.35197e-06
1.95044e-08
1.08796e-08
1.35374e-06
1.91202e-08
1.05877e-08
1.3544e-06
1.81086e-08
9.90341e-09
1.35453e-06
1.68238e-08
9.06493e-09
1.35447e-06
1.54828e-08
8.22493e-09
1.35437e-06
1.4264e-08
7.44872e-09
1.35427e-06
1.33007e-08
6.77556e-09
1.35421e-06
1.2562e-08
6.20232e-09
1.35419e-06
1.20106e-08
5.72204e-09
1.35418e-06
1.16264e-08
5.33149e-09
1.35413e-06
1.1402e-08
5.03536e-09
1.35396e-06
1.13464e-08
4.84319e-09
1.35359e-06
1.14849e-08
4.76685e-09
1.35295e-06
1.18181e-08
4.84037e-09
1.35197e-06
1.22058e-08
5.04736e-09
1.19875e-08
5.07137e-09
1.53312e-06
3.64951e-09
2.36632e-09
1.54218e-06
9.63451e-09
6.23959e-09
1.55327e-06
1.36931e-08
8.87474e-09
1.56445e-06
1.59391e-08
1.03496e-08
1.57506e-06
1.6916e-08
1.09037e-08
1.58469e-06
1.6952e-08
1.0761e-08
1.59298e-06
1.63865e-08
1.01537e-08
1.60004e-06
1.54617e-08
9.34787e-09
1.60617e-06
1.43687e-08
8.48674e-09
1.61163e-06
1.32884e-08
7.68257e-09
1.61666e-06
1.23186e-08
6.98375e-09
1.62141e-06
1.14914e-08
6.39286e-09
1.626e-06
1.08145e-08
5.89304e-09
1.63048e-06
1.02847e-08
5.47094e-09
1.63489e-06
9.895e-09
5.11827e-09
1.6393e-06
9.63612e-09
4.83292e-09
1.64376e-06
9.49701e-09
4.60875e-09
1.64834e-06
9.45067e-09
4.4371e-09
1.65306e-06
9.37742e-09
4.25352e-09
9.11502e-09
4.02369e-09
1.68027e-06
1.89123e-09
1.89113e-09
1.68934e-06
5.09988e-09
5.09955e-09
1.70179e-06
7.46524e-09
7.46459e-09
1.71578e-06
8.94777e-09
8.94667e-09
1.73021e-06
9.69579e-09
9.69398e-09
1.74438e-06
9.86522e-09
9.86231e-09
1.75783e-06
9.65873e-09
9.65431e-09
1.77033e-06
9.20879e-09
9.20224e-09
1.7818e-06
8.62769e-09
8.61822e-09
1.79234e-06
8.00957e-09
7.99579e-09
1.8021e-06
7.42016e-09
7.3994e-09
1.81123e-06
6.89327e-09
6.8607e-09
1.81988e-06
6.4419e-09
6.38934e-09
1.82816e-06
6.0676e-09
5.9826e-09
1.83618e-06
5.76522e-09
5.63224e-09
1.84403e-06
5.52269e-09
5.3278e-09
1.8518e-06
5.32516e-09
5.06216e-09
1.85954e-06
5.14986e-09
4.80948e-09
1.86725e-06
4.95159e-09
4.53858e-09
4.72785e-09
4.2884e-09
1.7569e-06
-2.03349e-14
1.61321e-09
1.76589e-06
-9.3761e-15
4.38406e-09
1.77878e-06
1.54454e-14
6.53167e-09
1.79389e-06
5.38585e-14
7.95086e-09
1.81003e-06
1.26306e-13
8.75531e-09
1.82639e-06
2.53799e-13
9.08495e-09
1.8424e-06
4.10812e-13
9.07085e-09
1.85773e-06
4.24727e-13
8.83392e-09
1.87217e-06
2.36018e-13
8.45901e-09
1.88567e-06
-1.56054e-13
8.01191e-09
1.89824e-06
-5.67755e-13
7.54348e-09
1.91e-06
-4.24551e-13
7.09012e-09
1.92107e-06
1.14479e-12
6.67505e-09
1.93159e-06
4.91776e-12
6.31019e-09
1.94167e-06
1.06268e-11
5.99914e-09
1.95144e-06
1.57726e-11
5.7412e-09
1.96095e-06
1.73593e-11
5.52602e-09
1.97027e-06
1.55322e-11
5.33321e-09
1.97938e-06
1.02767e-11
5.12989e-09
4.00767e-12
4.99894e-09
1.7569e-06
-1.89116e-09
1.61328e-09
1.76589e-06
-5.09961e-09
4.38429e-09
1.77878e-06
-7.46469e-09
6.53213e-09
1.79389e-06
-8.94681e-09
7.95168e-09
1.81003e-06
-9.69419e-09
8.75664e-09
1.82639e-06
-9.8626e-09
9.087e-09
1.8424e-06
-9.65467e-09
9.07381e-09
1.85772e-06
-9.2027e-09
8.83818e-09
1.87216e-06
-8.6188e-09
8.46527e-09
1.88565e-06
-7.9965e-09
8.02129e-09
1.89822e-06
-7.4003e-09
7.55776e-09
1.90996e-06
-6.86182e-09
7.11208e-09
1.92102e-06
-6.39076e-09
6.70889e-09
1.93153e-06
-5.98439e-09
6.36216e-09
1.9416e-06
-5.63447e-09
6.07802e-09
1.95135e-06
-5.33049e-09
5.85722e-09
1.96085e-06
-5.06537e-09
5.68634e-09
1.97016e-06
-4.81321e-09
5.54138e-09
1.97928e-06
-4.54262e-09
5.37815e-09
-4.2921e-09
5.26902e-09
1.68027e-06
-3.64932e-09
1.89123e-09
1.68934e-06
-9.63391e-09
5.09988e-09
1.70179e-06
-1.36919e-08
7.46523e-09
1.71578e-06
-1.59369e-08
8.94774e-09
1.73021e-06
-1.69122e-08
9.69574e-09
1.74438e-06
-1.6946e-08
9.86514e-09
1.75783e-06
-1.63773e-08
9.65862e-09
1.77033e-06
-1.54469e-08
9.20865e-09
1.7818e-06
-1.4346e-08
8.62752e-09
1.79234e-06
-1.32531e-08
8.00936e-09
1.8021e-06
-1.22625e-08
7.4199e-09
1.81123e-06
-1.14005e-08
6.89294e-09
1.81988e-06
-1.06677e-08
6.44149e-09
1.82816e-06
-1.00477e-08
6.0671e-09
1.83618e-06
-9.5217e-09
5.76459e-09
1.84403e-06
-9.06685e-09
5.52181e-09
1.8518e-06
-8.6585e-09
5.32389e-09
1.85954e-06
-8.25767e-09
5.14792e-09
1.86725e-06
-7.8272e-09
4.94841e-09
-7.43414e-09
4.72265e-09
1.53312e-06
-4.9311e-09
2.36627e-09
1.54218e-06
-1.3009e-08
6.23951e-09
1.55328e-06
-1.72157e-08
8.87459e-09
1.56445e-06
-1.88989e-08
1.03493e-08
1.57507e-06
-1.95001e-08
1.09033e-08
1.5847e-06
-1.91134e-08
1.07605e-08
1.593e-06
-1.80981e-08
1.01526e-08
1.60007e-06
-1.68072e-08
9.34579e-09
1.60622e-06
-1.54576e-08
8.48289e-09
1.61171e-06
-1.42223e-08
7.67409e-09
1.61678e-06
-1.32279e-08
6.96669e-09
1.6216e-06
-1.24387e-08
6.36372e-09
1.62629e-06
-1.1808e-08
5.84888e-09
1.63094e-06
-1.12988e-08
5.40885e-09
1.63559e-06
-1.08741e-08
5.02601e-09
1.64031e-06
-1.04938e-08
4.69076e-09
1.64515e-06
-1.01187e-08
4.38418e-09
1.65014e-06
-9.7122e-09
4.08321e-09
1.65528e-06
-9.26842e-09
3.73592e-09
-8.97499e-09
3.30986e-09
1.32762e-06
-5.56886e-09
2.71842e-09
1.33539e-06
-1.39001e-08
7.12145e-09
1.34286e-06
-1.62614e-08
9.55452e-09
1.34848e-06
-1.59078e-08
1.05795e-08
1.35198e-06
-1.49996e-08
1.08773e-08
1.35376e-06
-1.39292e-08
1.05836e-08
1.35443e-06
-1.2971e-08
9.89631e-09
1.35457e-06
-1.21052e-08
9.0529e-09
1.35455e-06
-1.13296e-08
8.20411e-09
1.3545e-06
-1.06665e-08
7.40811e-09
1.35451e-06
-1.01557e-08
6.70044e-09
1.35462e-06
-9.76919e-09
6.07754e-09
1.35487e-06
-9.47005e-09
5.52745e-09
1.35526e-06
-9.23752e-09
5.04238e-09
1.35583e-06
-9.03913e-09
4.58273e-09
1.35657e-06
-8.83794e-09
4.11294e-09
1.35751e-06
-8.58024e-09
3.59803e-09
1.35865e-06
-8.21982e-09
3.00499e-09
1.35992e-06
-7.7695e-09
2.30891e-09
-7.66513e-09
1.50311e-09
1.07432e-06
1.06494e-09
1.06824e-06
5.58707e-09
1.06138e-06
8.46499e-09
1.05339e-06
9.04137e-09
1.04511e-06
8.62e-09
1.03723e-06
8.12357e-09
1.02985e-06
7.79103e-09
1.02287e-06
7.56079e-09
1.01606e-06
7.378e-09
1.00935e-06
7.09847e-09
1.00279e-06
6.66758e-09
9.96371e-07
6.18369e-09
9.90063e-07
5.71239e-09
9.83861e-07
5.25399e-09
9.77776e-07
4.79394e-09
9.71832e-07
4.30408e-09
9.66081e-07
3.69873e-09
9.60562e-07
2.8999e-09
9.55443e-07
1.82511e-09
4.58337e-10
1.16914e-06
4.90653e-09
2.56689e-14
1.16312e-06
1.16084e-08
1.77529e-13
1.15731e-06
1.42752e-08
5.28431e-13
1.15202e-06
1.43329e-08
1.00202e-12
1.14691e-06
1.3729e-08
1.78904e-12
1.14207e-06
1.29672e-08
3.28319e-12
1.13777e-06
1.20974e-08
6.11177e-12
1.13403e-06
1.13029e-08
1.08003e-11
1.13078e-06
1.0642e-08
1.88456e-11
1.12772e-06
1.01775e-08
3.21934e-11
1.12455e-06
9.87678e-09
5.41854e-11
1.12112e-06
9.66249e-09
9.05323e-11
1.11739e-06
9.53346e-09
1.50664e-10
1.11329e-06
9.49803e-09
2.5025e-10
1.10878e-06
9.55216e-09
4.04819e-10
1.10381e-06
9.69796e-09
6.44477e-10
1.09833e-06
9.93955e-09
1.02483e-09
1.09225e-06
1.02839e-08
1.61063e-09
1.0855e-06
1.06713e-08
2.43674e-09
1.08763e-08
3.77865e-09
1.41518e-06
4.1929e-09
8.44403e-14
1.42279e-06
1.1116e-08
2.62889e-13
1.43152e-06
1.50986e-08
4.5137e-13
1.4398e-06
1.66295e-08
9.0212e-13
1.44714e-06
1.72755e-08
1.82487e-12
1.45318e-06
1.75096e-08
3.37537e-12
1.45802e-06
1.71528e-08
5.70645e-12
1.46194e-06
1.64361e-08
9.4819e-12
1.46525e-06
1.55466e-08
1.6297e-11
1.46818e-06
1.46612e-08
2.94819e-11
1.47094e-06
1.38443e-08
5.27907e-11
1.47357e-06
1.31375e-08
8.9494e-11
1.47607e-06
1.26155e-08
1.44724e-10
1.47838e-06
1.2294e-08
2.26214e-10
1.48049e-06
1.21292e-08
3.52158e-10
1.48241e-06
1.2073e-08
5.4644e-10
1.48416e-06
1.21172e-08
8.36976e-10
1.48573e-06
1.22951e-08
1.26054e-09
1.48707e-06
1.256e-08
1.81942e-09
1.2583e-08
2.42673e-09
1.61424e-06
3.09282e-09
5.82362e-14
1.62332e-06
8.27405e-09
1.38737e-13
1.63534e-06
1.19573e-08
2.5123e-13
1.6482e-06
1.41149e-08
4.90787e-13
1.66118e-06
1.52011e-08
9.6773e-13
1.67386e-06
1.55839e-08