/*--------------------------------*- C++ -*----------------------------------*\
| =========                 |                                                 |
| \\      /  F ield         | OpenFOAM: The Open Source CFD Toolbox           |
|  \\    /   O peration     | Version:  2212                                  |
|   \\  /    A nd           | Website:  www.openfoam.com                      |
|    \\/     M anipulation  |                                                 |
\*---------------------------------------------------------------------------*/
FoamFile
{
    version     2.0;
    format      ascii;
    arch        "LSB;label=32;scalar=64";
    class       volVectorField;
    location    "1.45";
    object      U;
}
// * * * * * * * * * * * * * * * * * * * * * * * * * * * * * * * * * * * * * //

dimensions      [0 1 -1 0 0 0 0];

internalField   nonuniform List<vector> 
6840
(
(0.0956456 -0.00836005 -0.00836005)
(0.0904939 0.00152205 0.00152201)
(0.0790682 0.00242979 0.00242972)
(0.071301 0.00148783 0.00148767)
(0.0661791 0.000830638 0.000830284)
(0.0623221 0.000563968 0.000563379)
(0.0592199 0.000426966 0.000425532)
(0.0566833 0.000325065 0.000322496)
(0.0545472 0.000254939 0.000250689)
(0.0526929 0.000205777 0.000198742)
(0.0510516 0.00017184 0.000159661)
(0.0495843 0.000149651 0.000129079)
(0.0482584 0.000135501 0.00010223)
(0.047045 0.000127654 7.64825e-05)
(0.0459282 0.000126099 4.72568e-05)
(0.044899 0.000133276 2.14827e-05)
(0.0439629 0.000160904 -8.38276e-06)
(0.0431345 0.000215535 -9.04744e-05)
(0.0425126 0.000278514 -0.000222385)
(0.0412335 -0.000144609 -0.00103722)
(0.0999088 0.001297 0.00071255)
(0.0969668 0.00365595 0.00274721)
(0.0935345 0.00264031 0.00211804)
(0.0895891 0.00182064 0.00162044)
(0.0858317 0.00152921 0.00139033)
(0.0825893 0.00135197 0.00116066)
(0.0798639 0.00118053 0.000896319)
(0.0775648 0.00104261 0.000690859)
(0.0755541 0.000946446 0.000558356)
(0.0737449 0.000872013 0.000476253)
(0.0720907 0.000804263 0.000425977)
(0.0705621 0.000738852 0.000393744)
(0.0691397 0.0006812 0.000371072)
(0.0678066 0.000636892 0.000358126)
(0.0665479 0.000607804 0.000352733)
(0.0653562 0.00059071 0.000331573)
(0.0642508 0.000580309 0.000272595)
(0.0632715 0.000550053 0.000132431)
(0.0625822 0.00058392 8.74454e-06)
(0.0614044 0.00044549 -0.000618737)
(0.099413 0.00034525 0.000270228)
(0.0988664 0.00201914 0.00187485)
(0.0979216 0.00257333 0.00218885)
(0.096366 0.00238023 0.00190813)
(0.0946337 0.00211472 0.00162626)
(0.0929729 0.00192777 0.00141792)
(0.0913653 0.00180318 0.00126998)
(0.089856 0.00170834 0.00115801)
(0.0884583 0.00160976 0.00106665)
(0.0871642 0.00150259 0.000993025)
(0.0859673 0.00139745 0.000941922)
(0.084854 0.0013022 0.000909668)
(0.0838071 0.00121811 0.000890483)
(0.0828155 0.00114284 0.000878628)
(0.0818753 0.001074 0.000868689)
(0.0809907 0.00100925 0.00085376)
(0.08018 0.0009407 0.000820035)
(0.0794699 0.000849692 0.000746844)
(0.0789156 0.000743945 0.000652789)
(0.0783176 0.000499617 0.000461707)
(0.0995405 0.000245047 0.000321898)
(0.0992576 0.00105564 0.00154091)
(0.098849 0.0015024 0.00211437)
(0.0981251 0.00157952 0.00209148)
(0.0973376 0.0015149 0.00188588)
(0.0965864 0.00144647 0.00166545)
(0.0958679 0.00141012 0.00149736)
(0.095202 0.00137891 0.00137051)
(0.0945763 0.00133292 0.00128306)
(0.0939359 0.00126155 0.00122626)
(0.0933153 0.0011716 0.00118694)
(0.0927137 0.00107511 0.00116139)
(0.0921246 0.000981649 0.00114511)
(0.0915449 0.000893145 0.00113647)
(0.090975 0.000807982 0.00113092)
(0.0904164 0.000721354 0.00112337)
(0.0898716 0.000618262 0.00110712)
(0.0893462 0.000485343 0.00107784)
(0.0888455 0.000304876 0.0010418)
(0.0883579 6.45e-05 0.00109686)
(0.0993802 3.37715e-05 5.89769e-05)
(0.0992678 0.000274363 0.00120002)
(0.0989806 0.000432297 0.0018884)
(0.098475 0.000483304 0.00200626)
(0.0979964 0.000478524 0.00191428)
(0.0975725 0.000464868 0.00173409)
(0.0971839 0.000451566 0.0015463)
(0.096836 0.000440011 0.00138697)
(0.0965388 0.000432108 0.00126741)
(0.0962891 0.000421406 0.00119519)
(0.0960226 0.000399667 0.00116544)
(0.0957414 0.000368475 0.00115975)
(0.0954466 0.000331754 0.00116318)
(0.0951307 0.000290291 0.00117019)
(0.0947902 0.000244219 0.00118119)
(0.0944261 0.000191774 0.00119663)
(0.0940393 0.000123663 0.00121675)
(0.093631 2.8525e-05 0.00123967)
(0.0931931 -0.000101632 0.00127112)
(0.092695 -0.00027211 0.00137653)
(0.0993802 -3.3785e-05 5.89991e-05)
(0.0992678 -0.00027443 0.00120003)
(0.0989806 -0.000432449 0.0018884)
(0.098475 -0.000483577 0.00200629)
(0.0979962 -0.000479014 0.00191438)
(0.0975721 -0.00046578 0.00173431)
(0.0971831 -0.000453279 0.00154662)
(0.0968345 -0.000443041 0.00138753)
(0.0965363 -0.000437364 0.00126851)
(0.0962847 -0.000430375 0.00119723)
(0.0960152 -0.000414742 0.00116895)
(0.0957285 -0.000393515 0.00116559)
(0.0954243 -0.000373065 0.00117293)
(0.0950926 -0.000358462 0.00118629)
(0.0947267 -0.000354213 0.00120675)
(0.0943234 -0.00036759 0.00123862)
(0.0938804 -0.000404993 0.00128422)
(0.0933938 -0.000473651 0.00134331)
(0.0928363 -0.000577708 0.0014068)
(0.0921907 -0.000786663 0.0014545)
(0.0995405 -0.000245052 0.000321896)
(0.0992576 -0.00105566 0.0015409)
(0.098849 -0.00150244 0.00211442)
(0.0981249 -0.00157959 0.00209158)
(0.097337 -0.00151512 0.00188605)
(0.0965852 -0.00144699 0.00166572)
(0.0958659 -0.00141112 0.00149765)
(0.0951984 -0.00138062 0.00137103)
(0.0945698 -0.00133614 0.00128426)
(0.0939247 -0.00126683 0.00122913)
(0.0932958 -0.00117972 0.00119307)
(0.0926805 -0.00108803 0.00117234)
(0.0920684 -0.00100299 0.0011637)
(0.0914511 -0.000930466 0.00116545)
(0.0908201 -0.000872902 0.00117794)
(0.0901644 -0.000832501 0.00120286)
(0.089469 -0.000812261 0.00124435)
(0.0887177 -0.000818248 0.00131115)
(0.0878689 -0.000847117 0.00140886)
(0.0868419 -0.00101221 0.00138543)
(0.099413 -0.000345245 0.000270231)
(0.0988664 -0.00201911 0.00187489)
(0.0979214 -0.00257325 0.00218899)
(0.0963657 -0.00238007 0.00190837)
(0.0946331 -0.00211447 0.0016266)
(0.0929717 -0.00192736 0.0014184)
(0.0913632 -0.00180258 0.00127076)
(0.0898523 -0.00170738 0.00115933)
(0.0884516 -0.00160814 0.00106879)
(0.0871529 -0.00149989 0.000996532)
(0.0859478 -0.0013929 0.000947417)
(0.0848203 -0.00129474 0.000919201)
(0.0837499 -0.00120663 0.000907244)
(0.0827189 -0.0011266 0.000907409)
(0.0817128 -0.00105321 0.000917888)
(0.0807156 -0.000986714 0.000940678)
(0.0797046 -0.000926749 0.000981424)
(0.0786478 -0.000873552 0.00105094)
(0.0774725 -0.000855778 0.00117913)
(0.0758137 -0.000870687 0.00118658)
(0.0999088 -0.001297 0.000712562)
(0.0969668 -0.0036559 0.00274726)
(0.0935345 -0.00264025 0.00211816)
(0.089589 -0.00182051 0.00162066)
(0.0858315 -0.00152887 0.00139066)
(0.0825889 -0.00135143 0.00116125)
(0.0798633 -0.00117954 0.000897279)
(0.0775635 -0.00104091 0.000692443)
(0.0755516 -0.000943438 0.000561046)
(0.0737405 -0.000866614 0.000480879)
(0.0720824 -0.000794553 0.000435178)
(0.0705466 -0.000722276 0.000410167)
(0.0691107 -0.000654232 0.00039761)
(0.0677556 -0.000594106 0.000391455)
(0.0664625 -0.000538563 0.000392129)
(0.0652119 -0.000468202 0.000400245)
(0.0639953 -0.000373839 0.000419475)
(0.0627941 -0.000256622 0.00045338)
(0.0616355 -0.000114372 0.000495418)
(0.059874 9.65134e-05 0.000661311)
(0.0956456 0.00836005 -0.00836005)
(0.0904939 -0.00152201 0.00152205)
(0.0790682 -0.00242972 0.00242979)
(0.071301 -0.00148767 0.00148782)
(0.0661791 -0.000830291 0.000830634)
(0.0623221 -0.000563387 0.000563961)
(0.0592199 -0.000425547 0.000426953)
(0.0566833 -0.000322518 0.000325045)
(0.0545471 -0.000250716 0.000254912)
(0.0526929 -0.000198776 0.000205742)
(0.0510516 -0.000159705 0.000171793)
(0.0495842 -0.000129133 0.000149588)
(0.0482583 -0.000102279 0.0001354)
(0.0470449 -7.65642e-05 0.000127546)
(0.0459281 -4.7376e-05 0.000125978)
(0.0448989 -2.15595e-05 0.000133112)
(0.0439628 8.2629e-06 0.000160691)
(0.0431346 9.03504e-05 0.000215279)
(0.0425135 0.000222313 0.000278179)
(0.0412352 0.00103723 -0.000144867)
(0.0999088 0.000712562 0.001297)
(0.0969668 0.00274726 0.0036559)
(0.0935345 0.00211816 0.00264024)
(0.089589 0.00162066 0.0018205)
(0.0858315 0.00139066 0.00152885)
(0.082589 0.00116125 0.00135141)
(0.0798633 0.000897284 0.00117953)
(0.0775636 0.000692453 0.00104089)
(0.0755517 0.000561063 0.00094341)
(0.0737405 0.000480903 0.000866579)
(0.0720825 0.000435212 0.000794508)
(0.0705466 0.000410219 0.000722219)
(0.0691107 0.000397681 0.000654179)
(0.0677558 0.00039155 0.000594049)
(0.0664625 0.000392259 0.000538468)
(0.065212 0.000400405 0.000468051)
(0.0639953 0.000419698 0.000373691)
(0.0627938 0.000453757 0.000256553)
(0.0616347 0.000496114 0.000114555)
(0.0598725 0.000662235 -9.60215e-05)
(0.100226 0.000720824 0.000720812)
(0.09996 0.00198279 0.00198271)
(0.0997822 0.00245199 0.00245181)
(0.0987879 0.0024199 0.00241958)
(0.0972751 0.00220123 0.00220075)
(0.0957739 0.0018121 0.00181121)
(0.0943913 0.00138337 0.00138191)
(0.0931613 0.00107182 0.00106933)
(0.0920724 0.000856918 0.000852557)
(0.0911072 0.00070681 0.000699081)
(0.0902495 0.000598791 0.000584404)
(0.089476 0.000520156 0.000495868)
(0.0887649 0.000465907 0.000427106)
(0.088107 0.00042889 0.000371741)
(0.0874993 0.000405291 0.000318027)
(0.0869359 0.000397738 0.000253058)
(0.0864026 0.000411302 0.000164182)
(0.0858714 0.000446751 4.03721e-05)
(0.0852916 0.000428203 -0.000210658)
(0.0850831 0.000200672 -0.000773539)
(0.10014 0.00077504 0.00086924)
(0.100454 0.00196248 0.00196353)
(0.100911 0.00242769 0.0023344)
(0.100978 0.00252688 0.00244107)
(0.100694 0.00242673 0.00233644)
(0.100224 0.00219828 0.00211199)
(0.0997084 0.00191801 0.00182248)
(0.0991828 0.00166793 0.00157418)
(0.0986876 0.00146643 0.00138758)
(0.0982398 0.0013023 0.00124646)
(0.0978459 0.00116847 0.00114098)
(0.0975023 0.00106062 0.00106322)
(0.0972048 0.000974917 0.00100385)
(0.096949 0.00090759 0.000953684)
(0.096732 0.000856054 0.000906926)
(0.0965515 0.000817054 0.00085637)
(0.0964035 0.000786282 0.000789068)
(0.0962812 0.000765161 0.000693063)
(0.0961587 0.000737834 0.000556534)
(0.096268 0.000660104 0.000365933)
(0.100093 0.000445948 0.000763194)
(0.100504 0.00119456 0.001749)
(0.101105 0.00158694 0.00212949)
(0.101635 0.00174063 0.0022345)
(0.101979 0.00178261 0.00228668)
(0.102172 0.00172962 0.00223532)
(0.102253 0.00160907 0.00211499)
(0.102278 0.00146191 0.00196324)
(0.102281 0.00130776 0.00180015)
(0.102275 0.0011607 0.00164961)
(0.102271 0.00103506 0.00153873)
(0.102274 0.000929909 0.00145877)
(0.102287 0.000839159 0.00139954)
(0.102312 0.000760806 0.00135463)
(0.102347 0.000688627 0.00131872)
(0.102396 0.000619208 0.00128621)
(0.10246 0.000549241 0.00125144)
(0.102537 0.000474196 0.00120877)
(0.102628 0.000388591 0.00115974)
(0.10283 0.000286368 0.00113694)
(0.100087 0.00014439 0.000707009)
(0.100477 0.000390505 0.00161776)
(0.101066 0.000541135 0.0020346)
(0.101695 0.000610174 0.00211749)
(0.102269 0.000636006 0.00214977)
(0.102743 0.000626743 0.00217905)
(0.103125 0.000594657 0.00213301)
(0.10343 0.00054902 0.00204267)
(0.103683 0.000503272 0.00193263)
(0.103903 0.000459721 0.00182563)
(0.104104 0.000415046 0.00172568)
(0.104297 0.000369996 0.00163638)
(0.104486 0.0003273 0.0015716)
(0.104667 0.000286347 0.00153344)
(0.10484 0.000243176 0.00151321)
(0.105007 0.00019387 0.00150186)
(0.105171 0.000134495 0.00149568)
(0.105332 6.11077e-05 0.00149454)
(0.105494 -2.71657e-05 0.00149844)
(0.105725 -0.000125813 0.00152751)
(0.100087 -0.000144415 0.00070701)
(0.100477 -0.000390582 0.00161776)
(0.101066 -0.000541267 0.00203459)
(0.101694 -0.000610416 0.00211753)
(0.102269 -0.000636485 0.00214994)
(0.102742 -0.000627625 0.00217938)
(0.103124 -0.000596128 0.00213355)
(0.103428 -0.000551454 0.00204352)
(0.103681 -0.000507493 0.00193388)
(0.1039 -0.000467387 0.00182764)
(0.104098 -0.000428732 0.00172917)
(0.104289 -0.000393052 0.00164259)
(0.104472 -0.000364206 0.00158261)
(0.104643 -0.000343238 0.00155194)
(0.104798 -0.000330963 0.00154277)
(0.10494 -0.000330771 0.00154706)
(0.105069 -0.000346399 0.00156355)
(0.10519 -0.000381581 0.00159724)
(0.105299 -0.000435754 0.00164294)
(0.105482 -0.000493132 0.00163762)
(0.100093 -0.00044595 0.000763197)
(0.100504 -0.00119456 0.00174901)
(0.101105 -0.00158695 0.00212957)
(0.101634 -0.00174068 0.0022348)
(0.101979 -0.00178271 0.00228728)
(0.102171 -0.00172978 0.0022362)
(0.102252 -0.00160943 0.00211633)
(0.102275 -0.00146259 0.00196528)
(0.102276 -0.00130887 0.00180319)
(0.102267 -0.00116311 0.00165448)
(0.102258 -0.00103954 0.00154733)
(0.102251 -0.000936704 0.00147344)
(0.102248 -0.000849022 0.00142414)
(0.102247 -0.000774603 0.00139534)
(0.102246 -0.000712747 0.00138545)
(0.102239 -0.000661468 0.00139569)
(0.10222 -0.000620158 0.00143023)
(0.102184 -0.00059507 0.00149065)
(0.102133 -0.000585125 0.00155522)
(0.102193 -0.000547647 0.00149522)
(0.10014 -0.000775026 0.000869261)
(0.100454 -0.00196244 0.00196363)
(0.100911 -0.0024276 0.00233467)
(0.100978 -0.00252667 0.00244152)
(0.100693 -0.00242636 0.00233709)
(0.100223 -0.00219762 0.00211283)
(0.0997071 -0.00191698 0.0018238)
(0.0991805 -0.00166645 0.00157658)
(0.0986835 -0.00146385 0.00139175)
(0.0982324 -0.00129759 0.00125345)
(0.0978328 -0.00116048 0.00115277)
(0.0974799 -0.00104701 0.00108285)
(0.0971678 -0.000952286 0.00103632)
(0.0968902 -0.000869307 0.00100707)
(0.0966389 -0.000792948 0.000993767)
(0.0964039 -0.00072048 0.000999544)
(0.0961707 -0.000649668 0.00102962)
(0.0959274 -0.000578552 0.00109123)
(0.0956469 -0.000492345 0.00115698)
(0.095564 -0.000331611 0.00103223)
(0.100226 -0.000720813 0.000720824)
(0.09996 -0.00198271 0.00198279)
(0.0997822 -0.00245182 0.00245199)
(0.0987879 -0.00241959 0.00241989)
(0.0972751 -0.00220076 0.00220123)
(0.0957739 -0.00181123 0.00181209)
(0.0943913 -0.00138193 0.00138336)
(0.0931613 -0.00106935 0.00107181)
(0.0920724 -0.000852593 0.000856897)
(0.0911071 -0.000699129 0.000706779)
(0.0902495 -0.000584468 0.000598746)
(0.0894759 -0.000495942 0.000520087)
(0.0887648 -0.000427128 0.000465749)
(0.0881069 -0.000371852 0.000428779)
(0.0874991 -0.000318272 0.000405222)
(0.0869356 -0.000253274 0.000397535)
(0.0864022 -0.000164388 0.000411008)
(0.0858709 -4.05336e-05 0.00044631)
(0.0852909 0.00021042 0.000427724)
(0.0850813 0.000772375 0.000200929)
(0.0999088 -0.000712549 0.001297)
(0.0969668 -0.00274721 0.00365595)
(0.0935345 -0.00211804 0.00264031)
(0.0895891 -0.00162044 0.00182064)
(0.0858317 -0.00139034 0.0015292)
(0.0825893 -0.00116067 0.00135196)
(0.0798639 -0.000896331 0.00118052)
(0.0775648 -0.000690876 0.0010426)
(0.075554 -0.000558379 0.000946424)
(0.0737448 -0.000476283 0.000871982)
(0.0720907 -0.000426018 0.000804224)
(0.070562 -0.000393792 0.0007388)
(0.0691396 -0.000371132 0.00068112)
(0.0678064 -0.000358148 0.000636748)
(0.0665478 -0.000352735 0.000607602)
(0.065356 -0.000331649 0.000590482)
(0.0642507 -0.000272686 0.000580036)
(0.0632716 -0.000132398 0.000549619)
(0.062583 -8.38111e-06 0.000583022)
(0.0614065 0.000619331 0.000444002)
(0.099413 0.000270231 0.000345242)
(0.0988664 0.00187489 0.0020191)
(0.0979214 0.00218899 0.00257325)
(0.0963658 0.00190837 0.00238006)
(0.0946331 0.0016266 0.00211445)
(0.0929718 0.0014184 0.00192734)
(0.0913632 0.00127077 0.00180255)
(0.0898523 0.00115935 0.00170735)
(0.0884516 0.00106881 0.0016081)
(0.0871529 0.000996559 0.00149984)
(0.0859478 0.000947452 0.00139284)
(0.0848203 0.000919251 0.00129467)
(0.08375 0.000907304 0.00120652)
(0.082719 0.000907506 0.00112648)
(0.0817128 0.000918045 0.0010531)
(0.0807157 0.000940875 0.000986575)
(0.0797047 0.000981682 0.000926589)
(0.0786479 0.00105133 0.000873432)
(0.0774725 0.00117978 0.000855859)
(0.0758143 0.00118747 0.000870982)
(0.10014 0.000869261 0.000775024)
(0.100454 0.00196363 0.00196243)
(0.100911 0.00233467 0.00242759)
(0.100978 0.00244152 0.00252666)
(0.100693 0.00233709 0.00242634)
(0.100223 0.00211284 0.0021976)
(0.0997071 0.00182381 0.00191695)
(0.0991805 0.00157659 0.00166641)
(0.0986836 0.00139177 0.00146381)
(0.0982325 0.00125348 0.00129752)
(0.0978328 0.00115282 0.0011604)
(0.09748 0.00108292 0.00104692)
(0.0971678 0.00103643 0.000952183)
(0.0968902 0.00100715 0.000869112)
(0.0966391 0.000993858 0.000792683)
(0.0964041 0.000999735 0.000720214)
(0.096171 0.0010299 0.00064938)
(0.095928 0.00109157 0.000578195)
(0.0956479 0.00115737 0.000491865)
(0.0955656 0.00103274 0.000330985)
(0.10006 0.000641431 0.000641401)
(0.100501 0.00164517 0.00164507)
(0.101149 0.00221268 0.00221246)
(0.101738 0.00244045 0.00244007)
(0.102204 0.00244264 0.00244203)
(0.102501 0.00231454 0.00231359)
(0.102644 0.00209422 0.00209264)
(0.102712 0.00187173 0.00186921)
(0.102737 0.00167547 0.00167133)
(0.102749 0.00151196 0.00150511)
(0.102766 0.00137808 0.00136683)
(0.102796 0.00127035 0.00125203)
(0.102843 0.001186 0.00115642)
(0.102908 0.00112259 0.001075)
(0.102992 0.00107867 0.00100277)
(0.103093 0.00105445 0.000935017)
(0.103208 0.00105163 0.000866001)
(0.103339 0.00106865 0.000792145)
(0.103485 0.00108298 0.000705336)
(0.103749 0.00104954 0.000608304)
(0.100046 0.00039575 0.000540238)
(0.10048 0.00104496 0.00138408)
(0.101154 0.00147555 0.00192293)
(0.101913 0.00170557 0.00219247)
(0.102632 0.00178064 0.00229389)
(0.103301 0.00174572 0.00227795)
(0.103894 0.00163562 0.00218511)
(0.10439 0.00149379 0.00205169)
(0.104817 0.00134864 0.0019037)
(0.105195 0.00121538 0.00176371)
(0.105538 0.00109905 0.00164025)
(0.105859 0.00100051 0.0015346)
(0.106168 0.000917495 0.00144628)
(0.106472 0.000848056 0.00137242)
(0.106775 0.000790119 0.00130996)
(0.107081 0.000742912 0.00125497)
(0.107392 0.000704195 0.00120323)
(0.107712 0.000670394 0.00115087)
(0.108049 0.000631491 0.00109506)
(0.108464 0.000578452 0.00104678)
(0.100039 0.000131342 0.000478758)
(0.100448 0.000350523 0.00123475)
(0.101114 0.000505127 0.00174641)
(0.101909 0.000597275 0.00202669)
(0.102729 0.000638715 0.00215185)
(0.10353 0.000638464 0.002186)
(0.104298 0.000604846 0.00215256)
(0.105008 0.000559769 0.00207828)
(0.105645 0.000510893 0.00197908)
(0.106219 0.000463056 0.00187098)
(0.106742 0.000419007 0.00176549)
(0.107226 0.000379503 0.00166988)
(0.107678 0.000344233 0.00158924)
(0.10811 0.000312279 0.00152553)
(0.108531 0.000281781 0.00147669)
(0.108943 0.000252141 0.00143992)
(0.109347 0.00022161 0.00141137)
(0.109747 0.000188613 0.0013886)
(0.110153 0.000152076 0.00136788)
(0.110613 0.000113047 0.00135274)
(0.100039 -0.000131361 0.000478767)
(0.100448 -0.000350571 0.00123478)
(0.101114 -0.000505213 0.00174648)
(0.101909 -0.000597419 0.00202681)
(0.102729 -0.000638965 0.0021521)
(0.103529 -0.000638875 0.00218641)
(0.104298 -0.000605565 0.00215317)
(0.105007 -0.000560948 0.0020792)
(0.105643 -0.000512892 0.00198048)
(0.106216 -0.000466532 0.00187322)
(0.106738 -0.00042494 0.00176924)
(0.10722 -0.000389127 0.00167627)
(0.107669 -0.000359031 0.00160005)
(0.108097 -0.000334294 0.0015434)
(0.108513 -0.000314828 0.0015052)
(0.108918 -0.000301171 0.00148264)
(0.109312 -0.000294344 0.00147251)
(0.109702 -0.000293378 0.00147467)
(0.110099 -0.000292412 0.00148041)
(0.110537 -0.000292692 0.00147417)
(0.100046 -0.000395741 0.000540264)
(0.10048 -0.00104493 0.00138417)
(0.101154 -0.0014755 0.00192311)
(0.101913 -0.00170549 0.00219281)
(0.102631 -0.00178048 0.00229446)
(0.103301 -0.00174545 0.00227889)
(0.103893 -0.00163515 0.00218658)
(0.104388 -0.00149306 0.00205408)
(0.104815 -0.00134746 0.00190738)
(0.105191 -0.00121371 0.00176944)
(0.105531 -0.00109672 0.00164947)
(0.105849 -0.000996885 0.00154974)
(0.106152 -0.000911434 0.00147106)
(0.106448 -0.000837594 0.00141303)
(0.106738 -0.000773718 0.00137485)
(0.107026 -0.000719762 0.00135629)
(0.107313 -0.000673289 0.0013584)
(0.107611 -0.000632201 0.00137801)
(0.107918 -0.000588684 0.00139685)
(0.108284 -0.000538044 0.00138205)
(0.10006 -0.000641403 0.000641431)
(0.100501 -0.00164507 0.00164517)
(0.101149 -0.00221247 0.00221268)
(0.101738 -0.00244009 0.00244045)
(0.102204 -0.00244205 0.00244264)
(0.102501 -0.00231362 0.00231453)
(0.102644 -0.00209268 0.00209421)
(0.102712 -0.00186926 0.00187171)
(0.102737 -0.00167139 0.00167545)
(0.102749 -0.00150518 0.00151193)
(0.102766 -0.00136692 0.00137804)
(0.102795 -0.00125214 0.00127029)
(0.102842 -0.00115655 0.00118592)
(0.102908 -0.0010752 0.00112251)
(0.102992 -0.00100305 0.00107859)
(0.103093 -0.000935359 0.00105434)
(0.103208 -0.000866443 0.00105151)
(0.103339 -0.000792726 0.00106854)
(0.103484 -0.000706104 0.00108288)
(0.103748 -0.000609304 0.00104947)
(0.10014 -0.000869241 0.000775039)
(0.100454 -0.00196353 0.00196248)
(0.100911 -0.00233441 0.00242769)
(0.100978 -0.00244108 0.00252688)
(0.100694 -0.00233645 0.00242673)
(0.100224 -0.002112 0.00219827)
(0.0997084 -0.0018225 0.001918)
(0.0991828 -0.00157422 0.00166792)
(0.0986876 -0.00138763 0.00146641)
(0.0982397 -0.00124651 0.00130228)
(0.0978458 -0.00114106 0.00116844)
(0.0975022 -0.00106331 0.00106057)
(0.0972047 -0.00100396 0.000974845)
(0.0969489 -0.000953819 0.000907495)
(0.0967317 -0.000907091 0.000855944)
(0.0965511 -0.000856581 0.000816933)
(0.0964029 -0.000789342 0.000786156)
(0.0962802 -0.000693388 0.000765017)
(0.0961572 -0.000556755 0.00073758)
(0.0962658 -0.000365384 0.000659352)
(0.099413 -0.000270228 0.000345248)
(0.0988664 -0.00187485 0.00201914)
(0.0979216 -0.00218885 0.00257332)
(0.096366 -0.00190814 0.00238022)
(0.0946337 -0.00162627 0.00211471)
(0.0929728 -0.00141793 0.00192776)
(0.0913653 -0.00127 0.00180316)
(0.089856 -0.00115803 0.00170832)
(0.0884582 -0.00106668 0.00160973)
(0.0871642 -0.000993061 0.00150257)
(0.0859672 -0.000941967 0.00139742)
(0.0848539 -0.000909728 0.00130217)
(0.083807 -0.000890566 0.00121808)
(0.0828153 -0.000878694 0.00114277)
(0.081875 -0.00086872 0.00107387)
(0.0809903 -0.000853811 0.0010091)
(0.0801795 -0.000820114 0.000940549)
(0.0794692 -0.000746905 0.000849477)
(0.0789145 -0.000652576 0.000743453)
(0.0783163 -0.000461496 0.000498561)
(0.0995405 0.000321896 0.00024505)
(0.0992576 0.0015409 0.00105566)
(0.098849 0.00211442 0.00150243)
(0.0981249 0.00209158 0.00157958)
(0.097337 0.00188605 0.00151511)
(0.0965852 0.00166572 0.00144697)
(0.0958659 0.00149766 0.0014111)
(0.0951984 0.00137103 0.00138059)
(0.0945698 0.00128427 0.00133609)
(0.0939247 0.00122915 0.00126677)
(0.0932959 0.00119309 0.00117964)
(0.0926805 0.00117237 0.00108792)
(0.0920684 0.00116374 0.00100286)
(0.0914512 0.00116551 0.000930315)
(0.0908201 0.00117801 0.000872727)
(0.0901644 0.00120294 0.000832262)
(0.0894691 0.00124444 0.000811934)
(0.0887179 0.00131125 0.000817855)
(0.0878692 0.001409 0.00084665)
(0.0868427 0.00138562 0.00101182)
(0.100093 0.000763197 0.000445948)
(0.100504 0.00174901 0.00119456)
(0.101105 0.00212957 0.00158694)
(0.101634 0.0022348 0.00174066)
(0.101979 0.00228728 0.00178269)
(0.102171 0.00223621 0.00172975)
(0.102252 0.00211634 0.0016094)
(0.102275 0.00196529 0.00146254)
(0.102276 0.00180321 0.00130881)
(0.102267 0.00165451 0.00116303)
(0.102258 0.00154737 0.00103945)
(0.102252 0.00147349 0.000936588)
(0.102248 0.0014242 0.000848876)
(0.102247 0.00139539 0.00077439)
(0.102246 0.00138551 0.000712463)
(0.102239 0.00139579 0.000661129)
(0.10222 0.00143035 0.000619733)
(0.102184 0.00149077 0.000594513)
(0.102133 0.00155535 0.000584383)
(0.102193 0.00149547 0.000546738)
(0.100046 0.000540264 0.000395738)
(0.10048 0.00138417 0.00104493)
(0.101154 0.00192311 0.00147549)
(0.101913 0.00219281 0.00170548)
(0.102631 0.00229447 0.00178046)
(0.103301 0.0022789 0.00174542)
(0.103893 0.00218659 0.00163511)
(0.104388 0.0020541 0.00149301)
(0.104815 0.00190741 0.00134739)
(0.105191 0.00176947 0.00121362)
(0.105531 0.00164951 0.00109661)
(0.105849 0.00154979 0.000996751)
(0.106152 0.00147112 0.00091126)
(0.106448 0.00141309 0.000837354)
(0.106738 0.00137492 0.000773401)
(0.107026 0.00135639 0.000719365)
(0.107313 0.0013585 0.000672786)
(0.107611 0.00137813 0.000631556)
(0.107918 0.00139704 0.000587892)
(0.108284 0.00138256 0.000537224)
(0.100036 0.000323168 0.000323145)
(0.100429 0.00086875 0.000868679)
(0.10108 0.00126254 0.0012624)
(0.101891 0.00150462 0.00150439)
(0.102756 0.00162199 0.0016216)
(0.103616 0.00164338 0.00164277)
(0.104445 0.00160558 0.00160467)
(0.105223 0.00152774 0.00152634)
(0.105937 0.00142895 0.00142681)
(0.106592 0.00132521 0.0013219)
(0.107195 0.00122719 0.00122202)
(0.107756 0.00114016 0.00113202)
(0.108285 0.00106603 0.00105323)
(0.108788 0.00100511 0.000985151)
(0.109272 0.000956949 0.000926516)
(0.109744 0.000920348 0.000875784)
(0.110208 0.000893003 0.000831607)
(0.11067 0.000871807 0.000789131)
(0.111139 0.000848982 0.000743769)
(0.111659 0.000819779 0.000703342)
(0.100031 0.000107088 0.000281374)
(0.100395 0.000293082 0.000768612)
(0.101024 0.000434148 0.00113304)
(0.101844 0.000526347 0.00136915)
(0.102751 0.000576545 0.00150136)
(0.103689 0.00059205 0.00155409)
(0.104618 0.000582801 0.00154902)
(0.105516 0.000558373 0.00150797)
(0.106367 0.000524989 0.00144412)
(0.107164 0.000488186 0.00136767)
(0.107906 0.000452264 0.0012872)
(0.108599 0.000419659 0.00120918)
(0.109248 0.000391438 0.00113792)
(0.109861 0.000367712 0.00107562)
(0.110447 0.00034783 0.0010231)
(0.111012 0.000330278 0.000980537)
(0.11156 0.000313973 0.000946145)
(0.112096 0.000297555 0.000916758)
(0.112632 0.000278838 0.000889645)
(0.113215 0.00025993 0.00086757)
(0.100031 -0.00010709 0.000281384)
(0.100395 -0.00029308 0.000768645)
(0.101024 -0.000434138 0.00113311)
(0.101843 -0.000526326 0.00136929)
(0.102751 -0.000576502 0.00150158)
(0.103688 -0.000591968 0.00155443)
(0.104617 -0.000582666 0.0015495)
(0.105515 -0.000558219 0.00150866)
(0.106366 -0.000524861 0.00144516)
(0.107163 -0.000488126 0.00136927)
(0.107905 -0.000452264 0.00128969)
(0.108597 -0.000419585 0.00121307)
(0.109245 -0.000390929 0.00114391)
(0.109858 -0.000366165 0.00108477)
(0.110444 -0.000344671 0.00103694)
(0.111008 -0.000325592 0.00100108)
(0.111555 -0.000308714 0.000974908)
(0.11209 -0.00029294 0.00095504)
(0.112625 -0.000276336 0.000936533)
(0.113205 -0.00026069 0.000918331)
(0.100036 -0.000323148 0.000323167)
(0.100429 -0.000868686 0.000868749)
(0.10108 -0.00126241 0.00126254)
(0.101891 -0.0015044 0.00150462)
(0.102756 -0.00162163 0.00162199)
(0.103616 -0.0016428 0.00164336)
(0.104445 -0.00160472 0.00160556)
(0.105223 -0.0015264 0.00152772)
(0.105937 -0.00142688 0.00142892)
(0.106592 -0.00132199 0.00132518)
(0.107195 -0.00122213 0.00122715)
(0.107756 -0.00113215 0.00114011)
(0.108285 -0.0010534 0.00106597)
(0.108788 -0.000985374 0.00100503)
(0.109272 -0.000926798 0.000956859)
(0.109744 -0.000876135 0.000920231)
(0.110208 -0.00083204 0.000892845)
(0.11067 -0.000789658 0.000871581)
(0.111139 -0.000744372 0.000848623)
(0.11166 -0.000703949 0.000819179)
(0.100046 -0.00054024 0.000395749)
(0.10048 -0.00138408 0.00104496)
(0.101154 -0.00192294 0.00147555)
(0.101913 -0.00219249 0.00170556)
(0.102632 -0.0022939 0.00178063)
(0.103301 -0.00227797 0.00174571)
(0.103894 -0.00218515 0.00163561)
(0.10439 -0.00205173 0.00149378)
(0.104817 -0.00190376 0.00134862)
(0.105195 -0.00176378 0.00121535)
(0.105537 -0.00164034 0.00109902)
(0.105859 -0.00153471 0.00100047)
(0.106168 -0.00144643 0.000917442)
(0.106472 -0.0013726 0.000847999)
(0.106775 -0.0013102 0.000790062)
(0.10708 -0.00125528 0.000742844)
(0.107392 -0.00120363 0.000704118)
(0.107712 -0.00115138 0.000670307)
(0.108048 -0.00109567 0.000631366)
(0.108464 -0.00104744 0.000578223)
(0.100093 -0.000763195 0.000445948)
(0.100504 -0.001749 0.00119456)
(0.101105 -0.00212949 0.00158694)
(0.101635 -0.00223451 0.00174063)
(0.101979 -0.00228669 0.00178261)
(0.102172 -0.00223533 0.00172962)
(0.102253 -0.00211502 0.00160906)
(0.102278 -0.00196327 0.0014619)
(0.102281 -0.00180019 0.00130775)
(0.102275 -0.00164966 0.00116068)
(0.102271 -0.0015388 0.00103504)
(0.102274 -0.00145886 0.00092988)
(0.102287 -0.00139964 0.000839123)
(0.102311 -0.00135474 0.000760757)
(0.102347 -0.00131885 0.000688578)
(0.102396 -0.00128639 0.000619168)
(0.102459 -0.0012517 0.000549218)
(0.102536 -0.0012091 0.000474215)
(0.102628 -0.00116009 0.000388677)
(0.102829 -0.00113698 0.000286365)
(0.0995405 -0.000321898 0.000245046)
(0.0992576 -0.00154091 0.00105564)
(0.098849 -0.00211437 0.0015024)
(0.0981251 -0.00209148 0.00157952)
(0.0973376 -0.00188588 0.0015149)
(0.0965864 -0.00166546 0.00144646)
(0.0958679 -0.00149737 0.00141011)
(0.095202 -0.00137053 0.0013789)
(0.0945762 -0.00128308 0.0013329)
(0.0939359 -0.00122629 0.00126153)
(0.0933152 -0.00118698 0.00117157)
(0.0927135 -0.00116145 0.00107508)
(0.0921245 -0.00114518 0.000981618)
(0.0915447 -0.00113653 0.000893102)
(0.0909747 -0.00113097 0.000807922)
(0.090416 -0.00112345 0.0007213)
(0.0898711 -0.00110724 0.000618221)
(0.0893455 -0.001078 0.000485331)
(0.0888446 -0.00104202 0.000304961)
(0.0883569 -0.00109729 6.4951e-05)
(0.0993802 5.89955e-05 3.37839e-05)
(0.0992678 0.00120003 0.000274425)
(0.0989806 0.0018884 0.000432444)
(0.098475 0.00200629 0.000483569)
(0.0979962 0.00191438 0.000479002)
(0.0975721 0.00173432 0.000465762)
(0.0971831 0.00154662 0.000453254)
(0.0968345 0.00138753 0.000443007)
(0.0965363 0.00126851 0.000437318)
(0.0962847 0.00119724 0.000430312)
(0.0960151 0.00116896 0.000414659)
(0.0957285 0.0011656 0.000393407)
(0.0954243 0.00117293 0.000372928)
(0.0950925 0.0011863 0.000358297)
(0.0947266 0.00120676 0.000354012)
(0.0943234 0.00123861 0.00036733)
(0.0938804 0.00128416 0.000404642)
(0.0933939 0.00134318 0.000473175)
(0.0928366 0.00140656 0.000576987)
(0.0921912 0.00145413 0.000785775)
(0.100087 0.00070701 0.000144413)
(0.100477 0.00161776 0.000390577)
(0.101066 0.00203459 0.000541258)
(0.101694 0.00211753 0.000610401)
(0.102269 0.00214995 0.000636463)
(0.102742 0.00217939 0.000627595)
(0.103124 0.00213356 0.000596087)
(0.103428 0.00204353 0.000551402)
(0.103681 0.0019339 0.000507427)
(0.1039 0.00182767 0.000467305)
(0.104098 0.00172919 0.00042863)
(0.104289 0.00164262 0.000392925)
(0.104472 0.00158265 0.000364047)
(0.104643 0.00155198 0.000343031)
(0.104798 0.00154281 0.000330694)
(0.10494 0.00154709 0.000330438)
(0.105069 0.00156356 0.00034598)
(0.10519 0.0015972 0.000381046)
(0.105299 0.00164289 0.000435086)
(0.105481 0.00163784 0.000492415)
(0.100039 0.000478767 0.000131358)
(0.100448 0.00123478 0.000350564)