/*--------------------------------*- C++ -*----------------------------------*\
| =========                 |                                                 |
| \\      /  F ield         | OpenFOAM: The Open Source CFD Toolbox           |
|  \\    /   O peration     | Version:  2212                                  |
|   \\  /    A nd           | Website:  www.openfoam.com                      |
|    \\/     M anipulation  |                                                 |
\*---------------------------------------------------------------------------*/
FoamFile
{
    version     2.0;
    format      ascii;
    arch        "LSB;label=32;scalar=64";
    class       volScalarField;
    location    "2.6";
    object      epsilon;
}
// * * * * * * * * * * * * * * * * * * * * * * * * * * * * * * * * * * * * * //

dimensions      [0 2 -3 0 0 0 0];

internalField   nonuniform List<scalar> 
682
(
0.0252424
0.0239636
0.0228109
0.0217687
0.0208251
0.0199695
0.0191925
0.0184923
0.0178505
0.0172633
0.0167111
0.0253682
0.0240824
0.0229286
0.0218886
0.0209498
0.0201005
0.0193293
0.0186323
0.0180041
0.0174219
0.0168735
0.0270356
0.0257294
0.0245619
0.023505
0.0225605
0.0217051
0.0209256
0.0202109
0.0195694
0.0189412
0.0183215
0.0333636
0.0318641
0.0305378
0.0293166
0.0281135
0.0270708
0.0261127
0.0252584
0.0244516
0.0237263
0.0230207
0.022376
0.0478695
0.0460216
0.0443282
0.042734
0.041263
0.0399106
0.0386616
0.0375337
0.0364791
0.0355216
0.0346712
0.0339026
0.128693
0.125032
0.121606
0.11832
0.1153
0.112421
0.109765
0.107273
0.104917
0.102672
0.100637
0.0987286
0.0131412
0.0122198
0.0114025
0.0106747
0.0100242
0.00944094
0.00891665
0.00844407
0.00801743
0.00763181
0.00728856
0.0130657
0.0121674
0.0113668
0.0106509
0.0100093
0.00943303
0.0089134
0.00844495
0.00802122
0.00763783
0.00729573
0.0134872
0.0126303
0.0118581
0.0111599
0.0105246
0.00995484
0.00942581
0.00895686
0.0085252
0.00813611
0.00780661
0.0161552
0.0151991
0.014325
0.0135347
0.0128539
0.0121045
0.0116113
0.0108997
0.0105189
0.00994127
0.00961386
0.00910747
0.0230529
0.0220617
0.0209799
0.0201084
0.019184
0.0183889
0.0176187
0.0169471
0.0163052
0.0157258
0.0151387
0.0146442
0.0505553
0.0488161
0.0472206
0.0456655
0.0442611
0.0429523
0.0417632
0.040655
0.039628
0.0386459
0.037747
0.0369217
0.0126809
0.0116358
0.0107122
0.0098933
0.00916437
0.00851284
0.00792963
0.00740656
0.00693567
0.00651454
0.00611829
0.0124975
0.0114813
0.0105824
0.00978423
0.00907411
0.00843829
0.00786872
0.00735722
0.00689655
0.00648238
0.0060944
0.0122582
0.0113028
0.0104558
0.00969763
0.00902251
0.00840457
0.0078593
0.00737151
0.00693923
0.00653527
0.00617547
0.0135029
0.0125205
0.0116205
0.0108469
0.0101084
0.00947472
0.00882671
0.00836493
0.00792032
0.00758548
0.00709957
0.00680329
0.0168159
0.0160389
0.0149144
0.0143099
0.0134114
0.012911
0.0121901
0.0117737
0.011167
0.0108307
0.010296
0.00998983
0.0362873
0.0348693
0.033567
0.0323006
0.0311967
0.0301704
0.0292537
0.028386
0.0275813
0.0267754
0.0260036
0.0252956
0.0137373
0.0125371
0.0114789
0.0105429
0.00971209
0.00897211
0.00831108
0.00771911
0.00718739
0.00671081
0.00626906
0.0134784
0.0123097
0.0112789
0.0103662
0.00955494
0.00883147
0.00818461
0.00760577
0.00708577
0.00661959
0.00618687
0.0128468
0.011766
0.0108112
0.00996543
0.0092131
0.00854018
0.00793852
0.0073982
0.00691135
0.00647513
0.00606193
0.0135101
0.0124087
0.0114385
0.0105766
0.00981109
0.00912712
0.00850708
0.00795912
0.00746471
0.00702856
0.00662651
0.00620212
0.0150985
0.0141119
0.0132234
0.0124312
0.0117174
0.0110932
0.0105111
0.0100299
0.00948481
0.00913997
0.00860827
0.00831881
0.0303496
0.02893
0.0276596
0.0265189
0.0254788
0.0245252
0.0236665
0.02286
0.022046
0.0213012
0.0206462
0.0200128
0.0143661
0.0130924
0.0119696
0.0109766
0.0100953
0.00931077
0.00861022
0.00798304
0.00741997
0.00691422
0.00644891
0.0134941
0.0123236
0.0112915
0.0103781
0.00956687
0.00884381
0.00819744
0.00761809
0.00709707
0.00663013
0.00619613
0.0137851
0.0126178
0.0115901
0.0106811
0.00987435
0.0091557
0.00851324
0.00793704
0.0074194
0.00695214
0.00653474
0.00613584
0.0144424
0.0134223
0.0125164
0.0117089
0.0109868
0.01034
0.00975843
0.00923455
0.0087588
0.00833083
0.00793807
0.00759638
0.0277
0.0262988
0.0250359
0.0238936
0.0228569
0.0219184
0.0210673
0.0202819
0.0195618
0.0188946
0.0183079
0.0176821
0.0146975
0.0133869
0.0122316
0.0112099
0.0103035
0.00949672
0.00877653
0.00813187
0.00755328
0.0070337
0.0065572
0.0137378
0.0125363
0.011477
0.0105397
0.00970764
0.00896638
0.00830398
0.00771055
0.00717734
0.00669892
0.00625672
0.0138676
0.0126799
0.0116342
0.0107098
0.00988997
0.00915987
0.00850757
0.00792337
0.00739935
0.0069273
0.00650507
0.00610887
0.0141715
0.0131365
0.0122189
0.011402
0.0106737
0.0100223
0.00943817
0.00891303
0.00843961
0.0080121
0.00762556
0.00728107
0.0266661
0.0252432
0.023964
0.0228109
0.0217687
0.0208253
0.01997
0.0191932
0.0184936
0.0178525
0.0172663
0.0167149
0.0143676
0.0130934
0.0119703
0.0109771
0.0100958
0.00931115
0.00861051
0.00798323
0.00742011
0.00691428
0.00644886
0.0134803
0.0123107
0.0112793
0.0103661
0.00955447
0.00883072
0.00818347
0.00760432
0.00708409
0.00661751
0.00618469
0.0136561
0.0124994
0.0114815
0.0105814
0.00978286
0.00907181
0.00843585
0.00786547
0.00735412
0.00689244
0.00647854
0.00608997
0.0140795
0.0130672
0.012168
0.0113664
0.0106502
0.0100078
0.00943116
0.00891117
0.00844253
0.00801827
0.00763494
0.00729201
0.0268064
0.0253658
0.0240797
0.022926
0.0218862
0.0209477
0.0200989
0.0193283
0.0186318
0.018004
0.0174234
0.0168766
0.0134931
0.0123236
0.0112924
0.0103799
0.00956955
0.0088473
0.00820173
0.0076232
0.00710307
0.00663717
0.00620332
0.0128456
0.0117648
0.0108103
0.00996462
0.00921265
0.00853986
0.00793813
0.00739814
0.00691168
0.00647585
0.00606248
0.0133421
0.01226
0.011304
0.0104538
0.00969791
0.00901798
0.00840366
0.00785431
0.00737266
0.00693028
0.00653913
0.00616714
0.0144636
0.0134971
0.0126357
0.011858
0.0111617
0.0105212
0.00995218
0.00942306
0.00895624
0.00852029
0.0081391
0.00779198
0.0285002
0.0270325
0.0257266
0.0245593
0.0235029
0.0225586
0.0217041
0.0209255
0.0202115
0.0195694
0.0189453
0.0183283
0.0126169
0.0115898
0.0106819
0.00987617
0.00915826
0.00851652
0.00794107
0.00742393
0.00695777
0.0065416
0.00614284
0.0124066
0.0114364
0.0105758
0.00981092
0.00912593
0.00850742
0.00795598
0.0074671
0.00702589
0.00663157
0.0062016
0.0135054
0.0125042
0.0116329
0.0108317
0.0101363
0.00944071
0.00884219
0.00833565
0.00797077
0.00749361
0.00718587
0.00674465
0.0161642
0.0151806
0.0143551
0.0135051
0.0128907
0.012076
0.0115996
0.0108932
0.0105205
0.00993415
0.0096193
0.00910022
0.0333749
0.0318779
0.0305472
0.0293298
0.0281212
0.0270779
0.0261194
0.0252653
0.0244547
0.0237322
0.0230268
0.0223862
0.0134225
0.0125153
0.0117082
0.0109871
0.0103407
0.00976017
0.00923646
0.00876218
0.00833611
0.00794377
0.00760681
0.014101
0.0132239
0.0124282
0.0117217
0.0110854
0.010521
0.0100062
0.00949905
0.00913509
0.00862033
0.00832271
0.0169322
0.015883
0.0151284
0.0141502
0.0135849
0.0127643
0.0123115
0.0116532
0.0112718
0.0107189
0.0103867
0.00992249
0.0230941
0.0220138
0.0210794
0.0200607
0.019228
0.0183718
0.0176537
0.0169445
0.0163288
0.0157159
0.0151607
0.014638
0.047911
0.0460845
0.0443358
0.042775
0.0412711
0.0399334
0.0386682
0.0375387
0.0364833
0.0355322
0.0346828
0.0339163
0.0262941
0.0250294
0.0238858
0.0228481
0.0219088
0.0210562
0.0202695
0.0195486
0.0188813
0.0182925
0.0176661
0.0289426
0.0276692
0.0265243
0.0254817
0.0245251
0.0236658
0.0228576
0.022042
0.0212961
0.0206396
0.0200044
0.0363128
0.0348855
0.0335875
0.0323309
0.0312002
0.0301877
0.0292546
0.0283996
0.0275853
0.0267867
0.0260079
0.0252995
0.0505964
0.0488744
0.0472393
0.0457145
0.0442754
0.0429834
0.0417734
0.0406732
0.039636
0.0386617
0.0377587
0.036934
0.128787
0.125156
0.121639
0.118419
0.115306
0.112492
0.109759
0.107308
0.10492
0.102713
0.100658
0.0987754
)
;

boundaryField
{
    inlet
    {
        type            fixedValue;
        value           nonuniform List<scalar> 0();
    }
    ami1
    {
        type            cyclicAMI;
        value           nonuniform List<scalar> 0();
    }
    walls
    {
        type            epsilonWallFunction;
        blending        stepwise;
        value           nonuniform List<scalar> 
259
(
0.0333636
0.0478695
0.128693
0.0252424
0.0253682
0.0270356
0.0318641
0.0460216
0.125032
0.0239636
0.0240824
0.0257294
0.0305378
0.0443282
0.121606
0.0228109
0.0229286
0.0245619
0.0293166
0.042734
0.11832
0.0217687
0.0218886
0.023505
0.0281135
0.041263
0.1153
0.0208251
0.0209498
0.0225605
0.0270708
0.0399106
0.112421
0.0199695
0.0201005
0.0217051
0.0261127
0.0386616
0.109765
0.0191925
0.0193293
0.0209256
0.0252584
0.0375337
0.107273
0.0184923
0.0186323
0.0202109
0.0244516
0.0364791
0.104917
0.0178505
0.0180041
0.0195694
0.0237263
0.0355216
0.102672
0.0172633
0.0174219
0.0189412
0.0230207
0.0346712
0.100637
0.0167111
0.0168735
0.0183215
0.022376
0.0339026
0.0987286
0.128693
0.0505553
0.0362873
0.0303496
0.0277
0.0266661
0.0268064
0.0285002
0.0333749
0.047911
0.128787
0.125032
0.0488161
0.0348693
0.02893
0.0262988
0.0252432
0.0253658
0.0270325
0.0318779
0.0460845
0.125156
0.121606
0.0472206
0.033567
0.0276596
0.0250359
0.023964
0.0240797
0.0257266
0.0305472
0.0443358
0.121639
0.11832
0.0456655
0.0323006
0.0265189
0.0238936
0.0228109
0.022926
0.0245593
0.0293298
0.042775
0.118419
0.1153
0.0442611
0.0311967
0.0254788
0.0228569
0.0217687
0.0218862
0.0235029
0.0281212
0.0412711
0.115306
0.112421
0.0429523
0.0301704
0.0245252
0.0219184
0.0208253
0.0209477
0.0225586
0.0270779
0.0399334
0.112492
0.109765
0.0417632
0.0292537
0.0236665
0.0210673
0.01997
0.0200989
0.0217041
0.0261194
0.0386682
0.109759
0.107273
0.040655
0.028386
0.02286
0.0202819
0.0191932
0.0193283
0.0209255
0.0252653
0.0375387
0.107308
0.104917
0.039628
0.0275813
0.022046
0.0195618
0.0184936
0.0186318
0.0202115
0.0244547
0.0364833
0.10492
0.102672
0.0386459
0.0267754
0.0213012
0.0188946
0.0178525
0.018004
0.0195694
0.0237322
0.0355322
0.102713
0.100637
0.037747
0.0260036
0.0206462
0.0183079
0.0172663
0.0174234
0.0189453
0.0230268
0.0346828
0.100658
0.0987286
0.0369217
0.0252956
0.0200128
0.0176821
0.0167149
0.0168766
0.0183283
0.0223862
0.0339163
0.0987754
0.0363128
0.0505964
0.128787
0.0262941
0.0289426
0.0348855
0.0488744
0.125156
0.0250294
0.0276692
0.0335875
0.0472393
0.121639
0.0238858
0.0265243
0.0323309
0.0457145
0.118419
0.0228481
0.0254817
0.0312002
0.0442754
0.115306
0.0219088
0.0245251
0.0301877
0.0429834
0.112492
0.0210562
0.0236658
0.0292546
0.0417734
0.109759
0.0202695
0.0228576
0.0283996
0.0406732
0.107308
0.0195486
0.022042
0.0275853
0.039636
0.10492
0.0188813
0.0212961
0.0267867
0.0386617
0.102713
0.0182925
0.0206396
0.0260079
0.0377587
0.100658
0.0176661
0.0200044
0.0252995
0.036934
0.0987754
)
;
    }
    ami2
    {
        type            cyclicAMI;
        value           nonuniform List<scalar> 0();
    }
    outlet
    {
        type            zeroGradient;
    }
    procBoundary9to0
    {
        type            processor;
        value           nonuniform List<scalar> 
40
(
0.0266802
0.0268225
0.0285075
0.0285075
0.0350624
0.0497758
0.132342
0.0141702
0.0140849
0.0144756
0.0144756
0.0172619
0.0243542
0.0523231
0.0138754
0.0136673
0.0133574
0.0133574
0.0146691
0.0181382
0.0378699
0.0151015
0.0148098
0.014077
0.014077
0.0147688
0.0162694
0.031903
0.0158101
0.014821
0.014821
0.0151221
0.0156128
0.029261
0.0161823
0.0151005
0.0151005
0.0152324
0.0153222
0.0282703
)
;
    }
    procBoundary9to1
    {
        type            processor;
        value           nonuniform List<scalar> 
30
(
0.0158111
0.014808
0.014808
0.0149936
0.0152277
0.0284496
0.0148193
0.0140719
0.0140719
0.0145983
0.015583
0.0301701
0.013788
0.0135064
0.0135064
0.0146577
0.0172503
0.0350705
0.0144548
0.0151215
0.0151215
0.018061
0.024306
0.049848
0.0276981
0.0303452
0.0303452
0.0378948
0.0523868
0.132487
)
;
    }
    procBoundary9to7
    {
        type            processor;
        value           nonuniform List<scalar> 
59
(
0.0162405
0.0163644
0.017807
0.021809
0.0332258
0.0970097
0.00698146
0.00698671
0.00740443
0.00881794
0.0141249
0.0361882
0.0057924
0.00576839
0.00583104
0.00640576
0.00951361
0.0246723
0.00590047
0.00582415
0.00571277
0.00585401
0.00788796
0.0194378
0.00605719
0.00583387
0.00580596
0.00725312
0.0171176
0.00615539
0.00588729
0.00578156
0.00697234
0.0162488
0.00605722
0.00582246
0.00576536
0.00698402
0.0163687
0.00584183
0.00571617
0.0058425
0.00741852
0.017814
0.00581408
0.00586028
0.00649146
0.00884906
0.0218164
0.00725722
0.00789217
0.00959715
0.0141423
0.0332419
0.0171005
0.0194285
0.0246716
0.0361983
0.0970505
)
;
    }
    procBoundary9to8
    {
        type            processor;
        value           nonuniform List<scalar> 
132
(
0.0262957
0.0250333
0.0238913
0.0228549
0.0219168
0.0210656
0.0202799
0.0195597
0.0188922
0.0183025
0.0176754
0.0134212
0.0125153
0.011709
0.0109883
0.0103426
0.00976247
0.00923861
0.00876556
0.00833635
0.00794707
0.00759788
0.01262
0.0115924
0.010684
0.00987814
0.00916066
0.00851897
0.00794381
0.00742691
0.00696068
0.00654521
0.00614586
0.0134941
0.012324
0.0112924
0.0103798
0.00956941
0.00884726
0.00820184
0.0076234
0.00710335
0.00663766
0.00620416
0.0146968
0.0133866
0.0122317
0.0112105
0.0103046
0.0094984
0.00877881
0.00813479
0.00755685
0.00703805
0.00656175
0.0146968
0.0133866
0.0122317
0.0112105
0.0103046
0.0094984
0.00877881
0.00813479
0.00755685
0.00703805
0.00656175
0.0150606
0.0137106
0.0125207
0.0114685
0.0105351
0.00970433
0.00896286
0.00829924
0.0077037
0.00716875
0.00667953
0.0146977
0.0133863
0.0122305
0.0112085
0.0103017
0.00949468
0.00877417
0.00812914
0.00755012
0.00703003
0.00655318
0.0137358
0.0125352
0.0114766
0.01054
0.00970845
0.00896765
0.00830568
0.00771261
0.00717969
0.00670164
0.00625937
0.0126784
0.0116338
0.0107103
0.00989128
0.00916162
0.00850946
0.00792551
0.00740154
0.00692944
0.00650752
0.00611141
0.0131424
0.0122205
0.0114026
0.0106744
0.0100234
0.00943951
0.00891466
0.00844155
0.00801427
0.00762824
0.00728367
0.0252236
0.0239421
0.0227873
0.0217439
0.0208005
0.0199452
0.0191688
0.0184691
0.0178283
0.0172419
0.0166921
)
;
    }
}


// ************************************************************************* //
