/*--------------------------------*- C++ -*----------------------------------*\
| =========                 |                                                 |
| \\      /  F ield         | OpenFOAM: The Open Source CFD Toolbox           |
|  \\    /   O peration     | Version:  2212                                  |
|   \\  /    A nd           | Website:  www.openfoam.com                      |
|    \\/     M anipulation  |                                                 |
\*---------------------------------------------------------------------------*/
FoamFile
{
    version     2.0;
    format      ascii;
    arch        "LSB;label=32;scalar=64";
    class       volScalarField;
    location    "2.6";
    object      k;
}
// * * * * * * * * * * * * * * * * * * * * * * * * * * * * * * * * * * * * * //

dimensions      [0 2 -2 0 0 0 0];

internalField   nonuniform List<scalar> 
682
(
0.00219876
0.00212359
0.0020547
0.00199143
0.00193327
0.00187982
0.00183067
0.00178579
0.00174418
0.00170568
0.0016692
0.00215299
0.00207927
0.00201204
0.00195051
0.00189419
0.00184252
0.00179501
0.00175156
0.00171196
0.00167477
0.00163957
0.00208024
0.00201241
0.00195078
0.00189417
0.00184297
0.00179596
0.00175261
0.0017124
0.00167605
0.00163969
0.00160373
0.00207301
0.00201006
0.00195367
0.00190065
0.0018481
0.00180211
0.0017593
0.00172064
0.00168376
0.00165035
0.00161721
0.00158699
0.00205045
0.00199707
0.00194758
0.0019003
0.00185629
0.00181545
0.00177735
0.00174261
0.00170986
0.00167987
0.00165306
0.00162862
0.00238255
0.00233722
0.00229437
0.0022529
0.00221443
0.00217746
0.00214306
0.00211058
0.00207959
0.00204991
0.00202283
0.00199726
0.00299825
0.00283117
0.00267949
0.00254134
0.00241512
0.00229946
0.00219324
0.00209542
0.00200527
0.00192155
0.00184426
0.00293832
0.00277788
0.00263175
0.00249816
0.00237572
0.00226317
0.00215955
0.00206389
0.00197527
0.00189337
0.00181573
0.00272299
0.00257607
0.0024414
0.00231731
0.00220349
0.00209803
0.0020013
0.00191149
0.00182791
0.00175094
0.00167444
0.00245997
0.00231999
0.00219118
0.00207241
0.00196052
0.00186211
0.00176562
0.00168477
0.00160375
0.00153214
0.00146321
0.00140062
0.00192285
0.00181463
0.0017193
0.00162655
0.00154778
0.00147437
0.00140953
0.00135183
0.00129283
0.00123841
0.00119657
0.00116128
0.0021258
0.00207693
0.00203136
0.00198659
0.00194572
0.00190724
0.00187194
0.00183874
0.0018077
0.00177779
0.00175017
0.00172469
0.00391724
0.00368715
0.00347734
0.00328554
0.00310975
0.00294824
0.00279951
0.00266221
0.00253526
0.00241737
0.00230809
0.00381769
0.00359606
0.00339379
0.00320868
0.00303884
0.0028826
0.0027386
0.00260555
0.00248234
0.00236793
0.00226152
0.00351016
0.00330874
0.00312444
0.00295535
0.00279987
0.00265665
0.00252462
0.0024025
0.00228904
0.00218368
0.00208504
0.00319776
0.00300944
0.00283763
0.00267929
0.0025346
0.0024007
0.00227902
0.00216568
0.00206159
0.00196253
0.0018738
0.00178868
0.00251485
0.00237516
0.00225665
0.00214011
0.00204102
0.00194347
0.00186089
0.00177861
0.00170704
0.00163384
0.00157149
0.00150771
0.00219117
0.00213405
0.00208042
0.00202798
0.00198162
0.00193801
0.00189859
0.00186091
0.00182564
0.00178987
0.00175543
0.00172345
0.00461764
0.00434236
0.00409128
0.00386166
0.00365112
0.00345761
0.00327934
0.00311473
0.00296242
0.00282112
0.00269002
0.00449167
0.00422524
0.00398218
0.00375984
0.00355591
0.00336842
0.00319565
0.00303606
0.00288835
0.00275125
0.00262398
0.00411507
0.00387293
0.00365183
0.00344941
0.00326359
0.00309261
0.00293496
0.00278932
0.00265447
0.00252919
0.00241282
0.00373844
0.00351384
0.0033092
0.00312215
0.00295086
0.00279351
0.0026489
0.00251556
0.00239262
0.00227854
0.00217245
0.0020743
0.0028874
0.00272439
0.00257655
0.00244189
0.00231948
0.00220701
0.00210494
0.00200971
0.00192462
0.0018424
0.00177075
0.00169916
0.00224608
0.00217561
0.00211146
0.00205308
0.00199909
0.00194895
0.00190315
0.00185976
0.0018154
0.00177425
0.0017377
0.00170199
0.00491538
0.00462114
0.00435273
0.00410724
0.00388214
0.00367524
0.00348463
0.00330864
0.0031458
0.00299476
0.00285461
0.00448977
0.00422258
0.00397884
0.00375588
0.00355142
0.00336347
0.0031903
0.00303039
0.00288244
0.00274514
0.0026177
0.00406084
0.00381413
0.00358969
0.00338496
0.00319775
0.00302613
0.00286846
0.00272329
0.00258933
0.00246559
0.00235026
0.00224279
0.00310299
0.00292326
0.00276052
0.00261275
0.00247827
0.0023555
0.00224328
0.0021403
0.00204556
0.00195899
0.00187514
0.00179469
0.00228267
0.00220494
0.00213367
0.00206817
0.00200783
0.00195244
0.00190151
0.00185392
0.00180974
0.00176831
0.00173151
0.00169184
0.0050606
0.00475701
0.00448009
0.00422683
0.00399463
0.00378122
0.00358464
0.00340315
0.00323524
0.00307952
0.00293505
0.004618
0.00434272
0.00409167
0.00386208
0.0036516
0.00345815
0.00327995
0.00311542
0.0029632
0.002822
0.00269101
0.00417085
0.00391784
0.00368777
0.00347799
0.00328622
0.00311048
0.00294903
0.00280038
0.00266319
0.00253635
0.00241861
0.00230945
0.00318332
0.00299873
0.00283163
0.00267992
0.00254175
0.00241555
0.00229995
0.00219381
0.00209611
0.00200608
0.00192259
0.00184537
0.00228095
0.0021988
0.00212361
0.0020547
0.00199143
0.00193328
0.00187985
0.00183071
0.00178587
0.0017443
0.00170586
0.00166943
0.00491541
0.00462119
0.0043528
0.00410733
0.00388226
0.00367539
0.0034848
0.00330882
0.003146
0.00299498
0.00285485
0.00449213
0.0042257
0.00398267
0.00376036
0.00355647
0.00336901
0.00319627
0.00303673
0.00288905
0.00275199
0.00262476
0.00406174
0.00381826
0.00359669
0.0033945
0.00320946
0.00303968
0.00288351
0.00273957
0.00260658
0.00248344
0.00236909
0.00226275
0.00311502
0.0029384
0.002778
0.00263195
0.00249843
0.00237608
0.00226362
0.00216012
0.00206453
0.00197605
0.00189421
0.00181674
0.00223409
0.00215289
0.00207914
0.00201192
0.0019504
0.00189409
0.00184245
0.00179497
0.00175154
0.00171196
0.00167487
0.00163976
0.00448967
0.0042225
0.00397877
0.00375582
0.00355136
0.0033634
0.00319021
0.00303027
0.00288229
0.00274495
0.00261746
0.00411566
0.00387352
0.00365245
0.00345004
0.00326423
0.00309326
0.00293563
0.00278998
0.00265511
0.00252982
0.00241343
0.00373175
0.00351112
0.00330973
0.00312558
0.0029565
0.00280112
0.00265792
0.00252602
0.0024038
0.00229049
0.00218503
0.00208654
0.00288358
0.00272329
0.0025763
0.00244197
0.00231785
0.00220426
0.00209892
0.00200237
0.00191241
0.00182921
0.0017518
0.00167619
0.00215515
0.00208016
0.00201233
0.00195071
0.00189413
0.00184294
0.00179597
0.00175267
0.00171249
0.00167608
0.00163998
0.00160415
0.00381352
0.00358913
0.00338444
0.00319723
0.00302561
0.00286791
0.00272271
0.0025887
0.0024649
0.00234943
0.00224187
0.00351422
0.00330958
0.00312266
0.00295133
0.00279405
0.00264937
0.00251614
0.0023931
0.00227904
0.00217284
0.0020746
0.00319912
0.00301164
0.00283907
0.00268154
0.00253576
0.00240298
0.00228042
0.00216824
0.00206216
0.0019659
0.00187437
0.00179126
0.0024616
0.00232337
0.00219218
0.00207569
0.00196142
0.00186462
0.00176793
0.00168703
0.00160502
0.00153483
0.00146425
0.00140333
0.00207349
0.00201069
0.00195413
0.0019013
0.0018485
0.0018025
0.00175968
0.00172104
0.00168398
0.00165068
0.00161755
0.00158748
0.00292214
0.00275944
0.00261171
0.0024772
0.00235444
0.00224213
0.00213913
0.00204427
0.00195767
0.00187336
0.00179261
0.00272464
0.00257663
0.00244219
0.00231941
0.00220736
0.00210466
0.00201028
0.00192449
0.00184256
0.0017704
0.0016986
0.00251455
0.00238124
0.0022543
0.0021452
0.00203859
0.00194811
0.00185941
0.00178302
0.00170638
0.00163807
0.00157132
0.00151022
0.00192678
0.00182215
0.00171741
0.00163208
0.0015472
0.00147819
0.00140978
0.00135321
0.00129306
0.00124048
0.00119749
0.00116291
0.00205178
0.00199904
0.00194785
0.00190156
0.0018566
0.00181621
0.00177765
0.00174286
0.00171006
0.00168026
0.00165346
0.00162907
0.00220465
0.00213328
0.00206771
0.0020073
0.00195185
0.00190083
0.00185314
0.0018089
0.00176746
0.00173052
0.00169081
0.00217619
0.00211191
0.00205333
0.00199921
0.00194891
0.00190308
0.0018596
0.00181515
0.00177395
0.00173731
0.0017015
0.00219208
0.00213463
0.00208125
0.00202923
0.00198174
0.00193872
0.0018986
0.00186149
0.00182581
0.00179036
0.00175561
0.00172359
0.00212704
0.00207861
0.0020319
0.001988
0.00194614
0.00190817
0.00187227
0.00183932
0.00180798
0.00177829
0.00175054
0.00172506
0.00238382
0.00233883
0.00229481
0.0022542
0.00221454
0.00217842
0.00214305
0.00211109
0.00207967
0.00205047
0.00202312
0.00199788
)
;

boundaryField
{
    inlet
    {
        type            fixedValue;
        value           nonuniform List<scalar> 0();
    }
    ami1
    {
        type            cyclicAMI;
        value           nonuniform List<scalar> 0();
    }
    walls
    {
        type            kqRWallFunction;
        value           nonuniform List<scalar> 
259
(
0.00207301
0.00205045
0.00238255
0.00219876
0.00215299
0.00208024
0.00201006
0.00199707
0.00233722
0.00212359
0.00207927
0.00201241
0.00195367
0.00194758
0.00229437
0.0020547
0.00201204
0.00195078
0.00190065
0.0019003
0.0022529
0.00199143
0.00195051
0.00189417
0.0018481
0.00185629
0.00221443
0.00193327
0.00189419
0.00184297
0.00180211
0.00181545
0.00217746
0.00187982
0.00184252
0.00179596
0.0017593
0.00177735
0.00214306
0.00183067
0.00179501
0.00175261
0.00172064
0.00174261
0.00211058
0.00178579
0.00175156
0.0017124
0.00168376
0.00170986
0.00207959
0.00174418
0.00171196
0.00167605
0.00165035
0.00167987
0.00204991
0.00170568
0.00167477
0.00163969
0.00161721
0.00165306
0.00202283
0.0016692
0.00163957
0.00160373
0.00158699
0.00162862
0.00199726
0.00238255
0.0021258
0.00219117
0.00224608
0.00228267
0.00228095
0.00223409
0.00215515
0.00207349
0.00205178
0.00238382
0.00233722
0.00207693
0.00213405
0.00217561
0.00220494
0.0021988
0.00215289
0.00208016
0.00201069
0.00199904
0.00233883
0.00229437
0.00203136
0.00208042
0.00211146
0.00213367
0.00212361
0.00207914
0.00201233
0.00195413
0.00194785
0.00229481
0.0022529
0.00198659
0.00202798
0.00205308
0.00206817
0.0020547
0.00201192
0.00195071
0.0019013
0.00190156
0.0022542
0.00221443
0.00194572
0.00198162
0.00199909
0.00200783
0.00199143
0.0019504
0.00189413
0.0018485
0.0018566
0.00221454
0.00217746
0.00190724
0.00193801
0.00194895
0.00195244
0.00193328
0.00189409
0.00184294
0.0018025
0.00181621
0.00217842
0.00214306
0.00187194
0.00189859
0.00190315
0.00190151
0.00187985
0.00184245
0.00179597
0.00175968
0.00177765
0.00214305
0.00211058
0.00183874
0.00186091
0.00185976
0.00185392
0.00183071
0.00179497
0.00175267
0.00172104
0.00174286
0.00211109
0.00207959
0.0018077
0.00182564
0.0018154
0.00180974
0.00178587
0.00175154
0.00171249
0.00168398
0.00171006
0.00207967
0.00204991
0.00177779
0.00178987
0.00177425
0.00176831
0.0017443
0.00171196
0.00167608
0.00165068
0.00168026
0.00205047
0.00202283
0.00175017
0.00175543
0.0017377
0.00173151
0.00170586
0.00167487
0.00163998
0.00161755
0.00165346
0.00202312
0.00199726
0.00172469
0.00172345
0.00170199
0.00169184
0.00166943
0.00163976
0.00160415
0.00158748
0.00162907
0.00199788
0.00219208
0.00212704
0.00238382
0.00220465
0.00217619
0.00213463
0.00207861
0.00233883
0.00213328
0.00211191
0.00208125
0.0020319
0.00229481
0.00206771
0.00205333
0.00202923
0.001988
0.0022542
0.0020073
0.00199921
0.00198174
0.00194614
0.00221454
0.00195185
0.00194891
0.00193872
0.00190817
0.00217842
0.00190083
0.00190308
0.0018986
0.00187227
0.00214305
0.00185314
0.0018596
0.00186149
0.00183932
0.00211109
0.0018089
0.00181515
0.00182581
0.00180798
0.00207967
0.00176746
0.00177395
0.00179036
0.00177829
0.00205047
0.00173052
0.00173731
0.00175561
0.00175054
0.00202312
0.00169081
0.0017015
0.00172359
0.00172506
0.00199788
)
;
    }
    ami2
    {
        type            cyclicAMI;
        value           nonuniform List<scalar> 0();
    }
    outlet
    {
        type            zeroGradient;
    }
    procBoundary9to0
    {
        type            processor;
        value           nonuniform List<scalar> 
40
(
0.00228196
0.00223513
0.00215552
0.00215552
0.00214312
0.00210463
0.00242723
0.0031817
0.0031132
0.00288162
0.00288162
0.00261006
0.00202115
0.00217475
0.00416963
0.0040603
0.00373034
0.00373034
0.0034037
0.00265997
0.00225406
0.00492008
0.00478427
0.00438113
0.00438113
0.00398645
0.00306784
0.00232213
0.00523876
0.00478354
0.00478354
0.0043329
0.00330189
0.00236797
0.00539425
0.00492051
0.00492051
0.00444923
0.00338641
0.00237202
)
;
    }
    procBoundary9to1
    {
        type            processor;
        value           nonuniform List<scalar> 
30
(
0.00523879
0.00478479
0.00478479
0.00432926
0.00330819
0.00232516
0.00478336
0.00438167
0.00438167
0.00397389
0.0030576
0.00223897
0.00406014
0.00373928
0.00373928
0.00340527
0.00261188
0.00214344
0.00310145
0.00288776
0.00288776
0.00266472
0.00202733
0.00210646
0.00228277
0.00224602
0.00224602
0.00225507
0.00217645
0.00242897
)
;
    }
    procBoundary9to7
    {
        type            processor;
        value           nonuniform List<scalar> 
59
(
0.00163766
0.00160614
0.00157359
0.00156011
0.00160693
0.0019741
0.00176809
0.00174484
0.00160991
0.00134903
0.00113273
0.00170185
0.00220597
0.00216285
0.00199456
0.00171468
0.00145664
0.00169513
0.00256769
0.00250534
0.0023045
0.0019839
0.00163801
0.00166926
0.0027238
0.00249876
0.00214319
0.00172658
0.00165566
0.00280018
0.00256876
0.00220752
0.00176989
0.00163819
0.00272403
0.00250611
0.0021641
0.0017462
0.00160642
0.00249844
0.002305
0.00199579
0.00161115
0.00157402
0.00214208
0.00198402
0.00171497
0.00134955
0.00156053
0.00172422
0.00163717
0.00145662
0.00113347
0.00160745
0.00165454
0.00166871
0.00169508
0.00170214
0.00197463
)
;
    }
    procBoundary9to8
    {
        type            processor;
        value           nonuniform List<scalar> 
132
(
0.00220473
0.0021335
0.00206803
0.0020077
0.00195233
0.00190141
0.0018538
0.00180962
0.00176818
0.0017312
0.00169145
0.00292259
0.00275995
0.00261225
0.00247777
0.00235503
0.00224267
0.00213975
0.00204468
0.00195822
0.00187375
0.00179331
0.00381371
0.00358925
0.00338448
0.00319722
0.00302554
0.00286777
0.00272251
0.00258839
0.00246455
0.00234897
0.00224137
0.00448972
0.00422249
0.0039787
0.00375569
0.00355116
0.00336312
0.00318986
0.00302985
0.0028818
0.00274439
0.00261684
0.00506056
0.00475697
0.00448004
0.00422676
0.00399454
0.00378111
0.00358449
0.00340297
0.00323502
0.00307927
0.00293475
0.00506056
0.00475697
0.00448004
0.00422676
0.00399454
0.00378111
0.00358449
0.00340297
0.00323502
0.00307927
0.00293475
0.00521325
0.00489998
0.0046142
0.00435284
0.00411321
0.00389299
0.00369013
0.00350285
0.0033296
0.00316896
0.0030199
0.00506046
0.00475689
0.00447999
0.00422674
0.00399456
0.00378117
0.0035846
0.00340312
0.00323523
0.00307954
0.00293509
0.00461749
0.00434225
0.0040912
0.00386162
0.00365113
0.00345767
0.00327944
0.0031149
0.00296266
0.00282144
0.00269043
0.00391667
0.00368659
0.00347679
0.00328499
0.00310921
0.00294772
0.00279902
0.00266177
0.00253489
0.0024171
0.00230791
0.00299672
0.00282952
0.00267773
0.00253951
0.00241323
0.00229755
0.00219134
0.00209355
0.00200348
0.00191982
0.00184271
0.00219772
0.00212239
0.00205336
0.00198998
0.0019318
0.00187833
0.00182918
0.0017843
0.00174273
0.00170425
0.0016679
)
;
    }
}


// ************************************************************************* //
