/*--------------------------------*- C++ -*----------------------------------*\
| =========                 |                                                 |
| \\      /  F ield         | OpenFOAM: The Open Source CFD Toolbox           |
|  \\    /   O peration     | Version:  2212                                  |
|   \\  /    A nd           | Website:  www.openfoam.com                      |
|    \\/     M anipulation  |                                                 |
\*---------------------------------------------------------------------------*/
FoamFile
{
    version     2.0;
    format      ascii;
    arch        "LSB;label=32;scalar=64";
    class       volScalarField;
    location    "1.9";
    object      p;
}
// * * * * * * * * * * * * * * * * * * * * * * * * * * * * * * * * * * * * * //

dimensions      [0 2 -2 0 0 0 0];

internalField   nonuniform List<scalar> 
678
(
0.00118911
0.0010752
0.000960558
0.00084638
0.000733871
0.00118227
0.00106888
0.000954844
0.000841142
0.000728971
0.00117648
0.00106384
0.000950544
0.000837521
0.000725803
0.00117564
0.00106234
0.000948559
0.000835449
0.000723882
0.000613555
0.0011815
0.00106675
0.000952105
0.000838617
0.000726477
0.000615472
0.00118624
0.0010723
0.000958705
0.000845801
0.000733423
0.000621742
0.000509665
0.00118976
0.00107595
0.000961807
0.000848388
0.000736387
0.000625732
0.000514728
0.00119417
0.00108016
0.000965253
0.000851383
0.000739434
0.000628198
0.000517626
0.00119468
0.0010804
0.000965134
0.000850753
0.000738201
0.00062659
0.000515982
0.00119656
0.00108212
0.00096677
0.00085201
0.000738941
0.000626939
0.00118926
0.00107535
0.000960658
0.00084644
0.000733774
0.00062206
0.0011963
0.00108188
0.000966622
0.000851941
0.000739119
0.000627226
0.00119657
0.00108221
0.000966692
0.000851828
0.000738868
0.00118784
0.00107367
0.000959074
0.000845284
0.000732506
0.000621006
0.00118741
0.00107184
0.00095712
0.000843529
0.000730459
0.000618155
0.00119064
0.00107475
0.000959976
0.000846196
0.000732565
0.000618801
0.00119303
0.00107755
0.000962824
0.000848785
0.000734813
0.000620904
0.00119118
0.00107589
0.000961563
0.000847516
0.000733056
0.000619149
0.00118906
0.00107475
0.000960872
0.000847638
0.000734931
0.000623111
0.00051016
0.00119303
0.00107877
0.00096382
0.000849768
0.000737083
0.00062536
0.000513895
0.00119677
0.00108239
0.000966796
0.000851869
0.000738779
0.000626868
0.000516345
0.00118228
0.00106891
0.000954868
0.000841168
0.000728839
0.000617416
0.00119433
0.00108006
0.000964922
0.000850673
0.000738256
0.00062684
0.000514943
0.00119277
0.00107849
0.000963685
0.000849676
0.000736655
0.00062474
0.00117035
0.00105617
0.000943682
0.000831486
0.000718461
0.00060561
0.00116102
0.00104561
0.000932462
0.000820021
0.000707505
0.000595105
0.00115518
0.00103972
0.000925696
0.000812485
0.000699903
0.000587448
0.00115494
0.00103967
0.000925312
0.000811594
0.000698909
0.000586254
0.00115409
0.00103886
0.000925472
0.000812762
0.000700344
0.000587127
0.00116013
0.00104529
0.000932988
0.000821195
0.000708965
0.000596514
0.00117049
0.00105628
0.000943649
0.000831519
0.000719093
0.000606815
0.00118799
0.00107384
0.000959225
0.00084547
0.000733107
0.000621865
0.000510143
0.00117642
0.0010638
0.000950547
0.000837534
0.000725835
0.000614966
0.00119389
0.00107983
0.000965069
0.000851347
0.000739368
0.000628135
0.000517061
0.0011887
0.00107456
0.000961108
0.000848057
0.000734979
0.000622481
0.000509669
0.00116033
0.00104565
0.00093312
0.000821075
0.000708756
0.000595984
0.00114796
0.0010325
0.00091921
0.000807034
0.000695301
0.000582779
0.00113822
0.00102319
0.000910008
0.000797746
0.000685758
0.000573218
0.00113642
0.00102141
0.000908152
0.000795734
0.000683554
0.000571282
0.00113729
0.00102241
0.000909486
0.000797276
0.000684997
0.00114763
0.00103228
0.000919437
0.000807534
0.000695625
0.000582738
0.00116094
0.00104555
0.000932511
0.00082022
0.000707631
0.000594639
0.00118752
0.00107201
0.000957308
0.000843827
0.000731166
0.000618807
0.00117568
0.00106242
0.000948635
0.000835536
0.000724201
0.000613813
0.00118951
0.00107565
0.000961667
0.000848421
0.000736383
0.000625457
0.00119111
0.00107613
0.00096207
0.000848132
0.000733811
0.00061887
0.0011545
0.00103923
0.000925391
0.000812435
0.000699716
0.00113737
0.00102226
0.000909063
0.000796652
0.000684081
0.00112733
0.00101214
0.000899042
0.000786727
0.000674179
0.00112542
0.00101004
0.000896723
0.000784399
0.000671979
0.00112728
0.00101206
0.00089892
0.000786542
0.000673874
0.00113797
0.00102293
0.000909703
0.000797159
0.000684516
0.00115477
0.00103935
0.000925402
0.0008122
0.000699072
0.00119051
0.00107468
0.00096009
0.000846496
0.000733005
0.00118178
0.00106707
0.000952289
0.000838804
0.00072722
0.000615534
0.00118636
0.00107235
0.000958817
0.000845639
0.000733273
0.000621565
0.00119316
0.00107783
0.000963418
0.00084993
0.000735616
0.000619939
0.0011548
0.0010396
0.000925222
0.000811897
0.00113611
0.00102116
0.00090757
0.000794285
0.00112525
0.00101002
0.000896509
0.000783305
0.00112251
0.00100691
0.000893273
0.000780612
0.000668429
0.00112532
0.00100989
0.00089651
0.000784003
0.000671474
0.00113614
0.00102104
0.000907622
0.000794819
0.000681997
0.00115454
0.00103918
0.000924687
0.000810964
0.000697507
0.00119282
0.00107737
0.000962724
0.000848803
0.000734645
0.00118622
0.0010724
0.000958847
0.000845784
0.00073389
0.00129654
0.00118178
0.0010666
0.000951924
0.000838615
0.000726991
0.00130655
0.00119032
0.00107475
0.000960216
0.00084645
0.000732633
0.00127059
0.00115437
0.00103957
0.000925646
0.000812468
0.000699244
0.00125443
0.00113822
0.00102356
0.00090995
0.000796927
0.000683846
0.00124434
0.00112785
0.00101303
0.000899462
0.000786439
0.000673377
0.00112557
0.0010103
0.00089678
0.000784122
0.000671529
0.00112729
0.00101206
0.000898862
0.000786359
0.000673601
0.00113708
0.00102211
0.000908957
0.000796359
0.000683444
0.00115381
0.00103848
0.000924819
0.000811786
0.000698246
0.00119085
0.00107558
0.000961303
0.000847266
0.000732467
0.00118938
0.00107564
0.000961635
0.000848296
0.000736874
0.0012897
0.00117548
0.00106149
0.000947794
0.000835087
0.000724211
0.00130296
0.00118719
0.00107163
0.000956884
0.000843087
0.000730253
0.0012762
0.00116005
0.00104583
0.000932692
0.000819835
0.000706696
0.00126347
0.00114712
0.00103278
0.000919644
0.000807148
0.000694241
0.00125381
0.00113773
0.0010232
0.000909676
0.000796739
0.000683667
0.00113638
0.00102154
0.00090796
0.000794941
0.000682031
0.00113786
0.00102285
0.00090954
0.000796805
0.000683897
0.00114733
0.00103194
0.000918825
0.000806618
0.00069368
0.00115965
0.00104485
0.000932361
0.000820446
0.000707131
0.00118853
0.00107422
0.000960442
0.000847249
0.000734554
0.00119365
0.00107963
0.000964839
0.000851023
0.000739818
0.00128995
0.00117621
0.00106263
0.000949496
0.000837072
0.000725803
0.00130197
0.00118728
0.00107238
0.000957988
0.000844614
0.000732568
0.00128456
0.00116951
0.00105609
0.000943288
0.000830265
0.000717448
0.001275
0.0011592
0.00104566
0.000932912
0.000820042
0.000707022
0.00126963
0.00115368
0.001039
0.000925298
0.000811969
0.000698493
0.00115421
0.00103925
0.000925057
0.000811164
0.000697607
0.00115445
0.00103909
0.000925116
0.000811866
0.00069862
0.00116038
0.00104504
0.000931877
0.000819598
0.000706448
0.00116978
0.00105571
0.000942988
0.000830807
0.000718033
0.00119241
0.00107805
0.00096317
0.000849105
0.000736987
0.00119407
0.00107973
0.00096457
0.000850125
0.00073809
0.00129629
0.00118199
0.00106757
0.000953609
0.000840516
0.000728629
0.00131101
0.00119603
0.00108026
0.000964912
0.000850921
0.000738466
0.00130647
0.00119173
0.00107654
0.000961977
0.000848595
0.000736419
0.00130269
0.00118764
0.00107339
0.000959605
0.000846185
0.000733641
0.00130574
0.00118983
0.00107483
0.000960537
0.000846318
0.000731727
0.00119201
0.00107656
0.000961979
0.000847859
0.000733957
0.00118974
0.00107384
0.000959151
0.00084545
0.000731884
0.00118666
0.00107119
0.000956358
0.000842757
0.000730084
0.0011872
0.00107299
0.000958355
0.000844489
0.000732471
0.00119612
0.00108149
0.000966022
0.00085103
0.000738423
0.00119598
0.00108142
0.000966158
0.000851355
0.0007386
0.0013033
0.00118859
0.00107354
0.000958964
0.000845431
0.000733181
0.00131067
0.0011955
0.00107986
0.000964682
0.000850716
0.000738108
0.00130827
0.00119333
0.00107776
0.000962862
0.00130698
0.00119247
0.00107743
0.000963026
0.000849992
0.00130279
0.00118803
0.00107363
0.000959708
0.000846752
0.00118516
0.00107084
0.000956941
0.000844182
0.000732298
0.00118074
0.00106578
0.000950821
0.000837347
0.00072564
0.00117469
0.00106125
0.000947433
0.000834282
0.00072314
0.00117563
0.00106268
0.000949518
0.000836497
0.000724976
0.00118155
0.00106793
0.000953929
0.000840174
0.00072803
0.00118861
0.00107451
0.000959894
0.000845612
0.000733146
)
;

boundaryField
{
    inlet
    {
        type            zeroGradient;
    }
    ami1
    {
        type            cyclicAMI;
        value           nonuniform List<scalar> 0();
    }
    walls
    {
        type            zeroGradient;
    }
    ami2
    {
        type            cyclicAMI;
        value           nonuniform List<scalar> 0();
    }
    outlet
    {
        type            fixedValue;
        value           nonuniform List<scalar> 0();
    }
    procBoundary5to6
    {
        type            processor;
        value           nonuniform List<scalar> 
177
(
0.000622247
0.000622247
0.000617614
0.000615034
0.000615034
0.000615034
0.000502966
0.000504188
0.000504188
0.000395883
0.000506513
0.000401325
0.000505226
0.000404993
0.000402993
0.000515977
0.000515977
0.000515977
0.000511243
0.000514585
0.000627382
0.000514585
0.000627382
0.000627382
0.000627382
0.000509749
0.00050605
0.000504685
0.000506513
0.000505226
0.000505226
0.000396324
0.000482903
0.000400714
0.000493329
0.000403704
0.000506739
0.000506739
0.000400641
0.000513571
0.000513571
0.000513571
0.000493665
0.000483442
0.000475749
0.000474337
0.000474204
0.000572405
0.000482903
0.000493329
0.000493329
0.000396382
0.000504479
0.00050574
0.000504479
0.000403756
0.000513899
0.000396597
0.000482728
0.000503722
0.000482728
0.000586306
0.000471196
0.00057201
0.000462624
0.000562642
0.000461351
0.000572405
0.000560832
0.000572405
0.000572405
0.000470649
0.000572663
0.000482144
0.000586526
0.00050574
0.000618588
0.000502904
0.000513899
0.000503722
0.000586306
0.000586306
0.000698574
0.00057201
0.000681594
0.000562642
0.000670865
0.000560832
0.000562642
0.000572663
0.000586526
0.000618588
0.000618588
0.000502517
0.000621272
0.000508674
0.000615514
0.000698574
0.000504676
0.000585075
0.000618221
0.000698574
0.000698574
0.000681594
0.000681594
0.000670865
0.000670865
0.000670865
0.000558661
0.000560955
0.000570872
0.000585379
0.000620212
0.000621272
0.000615514
0.000618221
0.000586532
0.000572434
0.000562525
0.000561038
0.000562733
0.000572147
0.000586021
0.000617776
0.000624992
0.000613259
0.00061767
0.0005942
0.000582129
0.000572196
0.000571021
0.000572685
0.000581971
0.000594537
0.000621656
0.000628053
0.000614615
0.000620596
0.000604804
0.000594475
0.000586222
0.000585631
0.000586619
0.000594097
0.000605059
0.000624619
0.000626012
0.000617004
0.0006265
0.000849452
0.000624294
0.000737329
0.000621008
0.000738636
0.000617103
0.000735383
0.000619631
0.000617726
0.00061725
0.000620342
0.00062637
0.000626282
0.000621285
0.000849452
0.000625803
0.000737329
0.000849452
0.000849452
0.000738636
0.000735383
0.000735383
0.000619721
0.000613722
0.000612031
0.000613762
0.000616366
0.000621166
)
;
    }
    procBoundary5to7
    {
        type            processor;
        value           nonuniform List<scalar> 
131
(
0.0013035
0.0012963
0.00128985
0.00128961
0.00129647
0.00130067
0.00130365
0.00130784
0.00130894
0.00131132
0.00130366
0.00131103
0.0013111
0.00130206
0.00130314
0.00130665
0.00130853
0.00130678
0.00130354
0.00130702
0.00131131
0.00129632
0.00130865
0.00130691
0.0012854
0.00127707
0.00127108
0.00127093
0.00127042
0.00127597
0.00128539
0.00130212
0.00128978
0.00130784
0.00130339
0.00127581
0.00126448
0.00125519
0.00125376
0.00125444
0.00126438
0.00127704
0.00130316
0.00128949
0.0013036
0.0013065
0.00127043
0.00125448
0.00124499
0.00124317
0.00124496
0.00125498
0.00127095
0.00130663
0.0012963
0.00130069
0.00130069
0.00130868
0.00130868
0.00127072
0.00127072
0.00125314
0.00125314
0.00124271
0.00124271
0.0012402
0.00124308
0.00125351
0.00127071
0.00130837
0.00130043
0.00141177
0.00142295
0.00138742
0.00137213
0.0013626
0.0012429
0.0012429
0.00124496
0.00125427
0.00127028
0.00130646
0.00130313
0.00140474
0.00141908
0.00139268
0.00138034
0.00137164
0.00125322
0.00125322
0.00125485
0.00126408
0.00127552
0.00130303
0.00130733
0.0014048
0.00141716
0.00140016
0.00139089
0.00138617
0.00127016
0.00127016
0.00127059
0.00127651
0.00128474
0.00130644
0.0013084
0.00141165
0.00142698
0.0014218
0.00141855
0.00142177
0.00130766
0.00130766
0.0013059
0.00130238
0.00130139
0.00131069
0.0013108
0.00141901
0.00142674
0.00142386
0.00142221
0.00141834
0.00129979
0.00129979
0.00129546
0.00128864
0.00128909
0.00129567
0.00130307
)
;
    }
}


// ************************************************************************* //
