/*--------------------------------*- C++ -*----------------------------------*\
| =========                 |                                                 |
| \\      /  F ield         | OpenFOAM: The Open Source CFD Toolbox           |
|  \\    /   O peration     | Version:  2212                                  |
|   \\  /    A nd           | Website:  www.openfoam.com                      |
|    \\/     M anipulation  |                                                 |
\*---------------------------------------------------------------------------*/
FoamFile
{
    version     2.0;
    format      ascii;
    arch        "LSB;label=32;scalar=64";
    class       volScalarField;
    location    "2.85";
    object      epsilon;
}
// * * * * * * * * * * * * * * * * * * * * * * * * * * * * * * * * * * * * * //

dimensions      [0 2 -3 0 0 0 0];

internalField   nonuniform List<scalar> 
689
(
0.167041
0.15827
0.151491
0.145652
0.140721
0.136616
0.132727
0.1292
0.0690976
0.0653075
0.0620983
0.059254
0.0567142
0.054561
0.0525668
0.0508377
0.0579034
0.0533613
0.0496728
0.0466035
0.0439833
0.0416955
0.0396672
0.0378891
0.0362787
0.0753623
0.0644069
0.0569524
0.0515711
0.0472786
0.0437389
0.0407309
0.038132
0.0358593
0.0338529
0.0320666
0.0304638
0.0697486
0.061161
0.0545787
0.049331
0.0450287
0.0414278
0.0383857
0.0357621
0.0334548
0.0314105
0.0295882
0.0279517
0.0665372
0.059723
0.0538933
0.0489177
0.0446703
0.0410182
0.0378709
0.0351512
0.032756
0.0306204
0.028718
0.0270171
0.0705229
0.062753
0.0562534
0.0507584
0.0461057
0.0421033
0.0386644
0.0356921
0.0330949
0.0308255
0.0288376
0.0270897
0.0795888
0.0690296
0.0606363
0.0539672
0.0487117
0.0442232
0.0404672
0.0373131
0.0346336
0.0323377
0.0303591
0.0286395
0.0949311
0.0801216
0.0688329
0.0600464
0.0536958
0.0490356
0.0452619
0.0421203
0.039465
0.0371971
0.0352416
0.126331
0.106763
0.0905154
0.0790644
0.0712249
0.0657675
0.0614826
0.0579034
0.0549868
0.0524742
0.0504482
0.287633
0.239743
0.20124
0.179927
0.167206
0.158746
0.151958
0.145981
0.140942
0.136539
0.132906
0.0711788
0.0655056
0.0612207
0.0577209
0.0548484
0.0525139
0.0503093
0.0485156
0.0354675
0.0319596
0.0295198
0.0275846
0.025939
0.0245019
0.0232227
0.0218951
0.0320906
0.028725
0.0261289
0.0239534
0.0220662
0.0204275
0.0190136
0.017723
0.0166888
0.0468966
0.0412425
0.0356572
0.0312133
0.0275257
0.0245482
0.0223442
0.0204976
0.0188655
0.0174263
0.0161568
0.0150388
0.0464329
0.0404381
0.0354221
0.0312311
0.0277295
0.0247657
0.0220135
0.0198867
0.0182789
0.0168414
0.0155565
0.0144132
0.0455402
0.0400163
0.0352504
0.0311735
0.0277075
0.0247591
0.0221322
0.0197511
0.0179745
0.0165726
0.0152972
0.0141503
0.0464706
0.0402502
0.0352289
0.0310292
0.0275144
0.0245241
0.0217971
0.0195623
0.0179075
0.0164807
0.0152001
0.0140595
0.0500637
0.0415663
0.0355506
0.0308141
0.0271304
0.0240917
0.0216914
0.0198294
0.0182035
0.0167801
0.0155287
0.0144332
0.053586
0.0430744
0.0363385
0.0317527
0.0281908
0.0254627
0.0232081
0.0213132
0.0196912
0.0182972
0.0170662
0.0611453
0.0528704
0.044548
0.038823
0.0347312
0.031693
0.0293776
0.0274984
0.0258787
0.0245093
0.0230533
0.102202
0.0897257
0.0802478
0.0738775
0.0692539
0.0655855
0.0623501
0.0594279
0.0568613
0.0545367
0.0527017
0.0600969
0.053712
0.0490207
0.0452082
0.0420675
0.0394481
0.0372151
0.0352526
0.0335484
0.0319097
0.0281687
0.0253997
0.0231419
0.0212535
0.0196408
0.0182602
0.0170241
0.015945
0.0300978
0.0265277
0.02361
0.0211879
0.0191471
0.0174068
0.0159097
0.014608
0.0134695
0.0479524
0.0415691
0.0361826
0.0316585
0.0278771
0.0247114
0.022055
0.0198035
0.0178766
0.0162149
0.0147734
0.0135141
0.0494944
0.0430245
0.0375502
0.0329293
0.0290282
0.025718
0.0228882
0.0204784
0.0184292
0.0166651
0.0151343
0.0137986
0.0502349
0.0436075
0.0380628
0.0333905
0.0294362
0.0260743
0.0231959
0.0207194
0.0186071
0.0168011
0.0152398
0.0138794
0.0499832
0.0431396
0.0375347
0.0328676
0.0289444
0.0256189
0.0227794
0.0203562
0.0182925
0.0165224
0.0149942
0.0136657
0.0477992
0.0413035
0.0358929
0.0313829
0.027622
0.0244627
0.0218027
0.0195589
0.0176497
0.0160111
0.0145894
0.0133488
0.0455672
0.0396916
0.0344301
0.0300933
0.026552
0.023642
0.0212125
0.0191662
0.0174213
0.0159231
0.0146173
0.0494679
0.0432311
0.0367462
0.0319614
0.0287209
0.0261478
0.0239308
0.0220388
0.0203987
0.0190014
0.0176952
0.0845008
0.0715652
0.0636976
0.0579868
0.0534163
0.0497038
0.0466426
0.0440309
0.0417367
0.0397099
0.0378812
0.0539133
0.0486811
0.0442117
0.0404609
0.0373037
0.0346244
0.032336
0.030367
0.0286552
0.0306886
0.0271422
0.0240659
0.021662
0.0198128
0.0181924
0.0167719
0.0155218
0.0144198
0.0314056
0.0276386
0.0244696
0.0218041
0.0195579
0.0176482
0.0160093
0.0145878
0.0133466
0.0519546
0.0449976
0.0391697
0.0342702
0.0301388
0.0266428
0.0236755
0.0211458
0.0189776
0.0171096
0.0154914
0.0140825
0.0558622
0.0482014
0.0418719
0.0365924
0.0321545
0.0284013
0.025208
0.0224768
0.0201302
0.0181069
0.0163542
0.0148285
0.0573374
0.0494034
0.0428715
0.0374398
0.0328837
0.0290338
0.025759
0.0229576
0.0205502
0.0184728
0.0166726
0.0151058
0.0557024
0.0481313
0.0418323
0.036565
0.0321333
0.0283822
0.0251893
0.0224588
0.020114
0.0180912
0.0163385
0.0148128
0.0519608
0.0449869
0.0391434
0.034245
0.0301197
0.0266304
0.0236678
0.021141
0.0189746
0.0171074
0.0154899
0.0140801
0.0479529
0.041629
0.0362053
0.0316761
0.0278922
0.0247213
0.0220637
0.0198117
0.0178831
0.0162197
0.014778
0.0467052
0.0412808
0.035649
0.0312277
0.0275554
0.02456
0.0223495
0.020501
0.018867
0.0174264
0.0161586
0.0754348
0.0644813
0.0570008
0.0516035
0.0473015
0.0437583
0.0407468
0.0381441
0.0358681
0.033857
0.0320657
0.0506148
0.0460164
0.0420477
0.0386308
0.0356698
0.0330781
0.0308124
0.028829
0.0270834
0.0311224
0.0275607
0.0245517
0.0217893
0.0195574
0.0179106
0.0164832
0.0152015
0.0140596
0.0328834
0.028959
0.0256272
0.0227815
0.0203558
0.0182919
0.0165219
0.014994
0.0136658
0.0556724
0.0481133
0.0418301
0.0365695
0.0321383
0.0283856
0.0251912
0.0224599
0.0201147
0.018092
0.0163393
0.0148139
0.060259
0.0519989
0.045143
0.0394184
0.0346072
0.0305387
0.027078
0.0241185
0.0215747
0.0193781
0.0174728
0.0158133
0.06216
0.0535198
0.0463987
0.0404782
0.0355158
0.0313262
0.027766
0.0247228
0.0221076
0.0198492
0.0178899
0.0161834
0.0602612
0.0519985
0.0451419
0.0394165
0.034605
0.0305366
0.0270761
0.0241169
0.0215734
0.019377
0.0174718
0.0158125
0.0558599
0.0482095
0.0418753
0.0365903
0.0321498
0.028396
0.0252028
0.0224725
0.0201269
0.0181043
0.016352
0.0148257
0.049498
0.0430276
0.0375542
0.0329335
0.0290319
0.0257221
0.0228885
0.0204799
0.0184323
0.0166678
0.0151365
0.0464243
0.0404319
0.0354202
0.031234
0.0277336
0.0247676
0.0220141
0.0198889
0.0182809
0.0168426
0.0155582
0.0697498
0.0611606
0.054576
0.0493273
0.0450241
0.0414224
0.0383801
0.0357563
0.0334486
0.0314034
0.0295747
0.0573431
0.0494076
0.0428755
0.0374425
0.0328847
0.0290331
0.0257575
0.022956
0.020549
0.018472
0.0166722
0.0151058
0.0621556
0.0535181
0.0463986
0.0404787
0.0355165
0.0313268
0.0277665
0.0247233
0.0221081
0.0198497
0.0178906
0.0161841
0.0635803
0.0548704
0.0476211
0.0415622
0.0364698
0.0321648
0.0285043
0.0253747
0.0226848
0.0203615
0.0183458
0.0165898
0.0621555
0.0535156
0.0463972
0.0404777
0.0355153
0.0313255
0.0277651
0.0247219
0.0221068
0.0198485
0.0178895
0.0161832
0.0573539
0.0494204
0.0428863
0.0374492
0.0328881
0.0290344
0.0257575
0.0229551
0.0205477
0.0184707
0.0166707
0.0151036
0.0501977
0.043618
0.038083
0.0334071
0.0294469
0.0260793
0.0231971
0.0207188
0.018607
0.0168017
0.0152403
0.0455194
0.0400278
0.0352654
0.0311851
0.0277153
0.0247586
0.0221292
0.0197519
0.0179787
0.0165755
0.0152996
0.0664881
0.0596797
0.0538541
0.0488852
0.0446428
0.0409942
0.0378496
0.0351316
0.0327375
0.0306025
0.0286949
)
;

boundaryField
{
    inlet
    {
        type            fixedValue;
        value           nonuniform List<scalar> 0();
    }
    ami1
    {
        type            cyclicAMI;
        value           nonuniform List<scalar> 0();
    }
    walls
    {
        type            epsilonWallFunction;
        blending        stepwise;
        value           nonuniform List<scalar> 
227
(
0.0753623
0.0697486
0.0665372
0.0705229
0.0795888
0.0949311
0.126331
0.287633
0.0644069
0.061161
0.059723
0.062753
0.0690296
0.0801216
0.106763
0.239743
0.0569524
0.0545787
0.0538933
0.0562534
0.0606363
0.0688329
0.0905154
0.20124
0.0579034
0.0515711
0.049331
0.0489177
0.0507584
0.0539672
0.0600464
0.0790644
0.179927
0.167041
0.0690976
0.0533613
0.0472786
0.0450287
0.0446703
0.0461057
0.0487117
0.0536958
0.0712249
0.167206
0.15827
0.0653075
0.0496728
0.0437389
0.0414278
0.0410182
0.0421033
0.0442232
0.0490356
0.0657675
0.158746
0.151491
0.0620983
0.0466035
0.0407309
0.0383857
0.0378709
0.0386644
0.0404672
0.0452619
0.0614826
0.151958
0.145652
0.059254
0.0439833
0.038132
0.0357621
0.0351512
0.0356921
0.0373131
0.0421203
0.0579034
0.145981
0.140721
0.0567142
0.0416955
0.0358593
0.0334548
0.032756
0.0330949
0.0346336
0.039465
0.0549868
0.140942
0.136616
0.054561
0.0396672
0.0338529
0.0314105
0.0306204
0.0308255
0.0323377
0.0371971
0.0524742
0.136539
0.132727
0.0525668
0.0378891
0.0320666
0.0295882
0.028718
0.0288376
0.0303591
0.0352416
0.0504482
0.132906
0.1292
0.0508377
0.0362787
0.0304638
0.0279517
0.0270171
0.0270897
0.0286395
0.287633
0.102202
0.0845008
0.0754348
0.0697498
0.0664881
0.239743
0.0897257
0.0715652
0.0644813
0.0611606
0.0596797
0.20124
0.0802478
0.0636976
0.0570008
0.054576
0.0538541
0.179927
0.0738775
0.0579868
0.0516035
0.0493273
0.0488852
0.167206
0.0692539
0.0534163
0.0473015
0.0450241
0.0446428
0.158746
0.0655855
0.0497038
0.0437583
0.0414224
0.0409942
0.151958
0.0623501
0.0466426
0.0407468
0.0383801
0.0378496
0.145981
0.0594279
0.0440309
0.0381441
0.0357563
0.0351316
0.140942
0.0568613
0.0417367
0.0358681
0.0334486
0.0327375
0.136539
0.0545367
0.0397099
0.033857
0.0314034
0.0306025
0.132906
0.0527017
0.0378812
0.0320657
0.0295747
0.0286949
0.0600969
0.0539133
0.0506148
0.167041
0.0711788
0.053712
0.0486811
0.0460164
0.15827
0.0655056
0.0490207
0.0442117
0.0420477
0.151491
0.0612207
0.0452082
0.0404609
0.0386308
0.145652
0.0577209
0.0420675
0.0373037
0.0356698
0.140721
0.0548484
0.0394481
0.0346244
0.0330781
0.136616
0.0525139
0.0372151
0.032336
0.0308124
0.132727
0.0503093
0.0352526
0.030367
0.028829
0.1292
0.0485156
0.0335484
0.0286552
0.0270834
)
;
    }
    ami2
    {
        type            cyclicAMI;
        value           nonuniform List<scalar> 
48
(
0.0793447
0.072511
0.0699186
0.0714465
0.0758642
0.083679
0.100633
0.186552
0.0495091
0.0488772
0.0488391
0.0509559
0.0541015
0.0575366
0.067036
0.107938
0.0511375
0.0534748
0.0546425
0.054156
0.0516297
0.0486541
0.0511234
0.0982332
0.0559878
0.0604586
0.0623055
0.0603947
0.0559907
0.0511386
0.0494162
0.0793831
0.0603807
0.0654026
0.0672547
0.0654032
0.0604569
0.0534772
0.0488735
0.0725117
0.0623099
0.0672531
0.0688304
0.0672525
0.0623138
0.0546244
0.0488287
0.0698923
)
;
    }
    outlet
    {
        type            zeroGradient;
    }
    procBoundary0to1
    {
        type            processor;
        value           nonuniform List<scalar> 
138
(
0.0562515
0.048925
0.0446607
0.0410017
0.0378527
0.0351321
0.0327361
0.0306009
0.0286997
0.027001
0.0351831
0.0311787
0.0277151
0.0247601
0.0221246
0.0197515
0.0179818
0.016578
0.0153008
0.0141528
0.0499924
0.0431595
0.0375581
0.0375581
0.0333998
0.0294403
0.0260739
0.0231932
0.020717
0.0186056
0.0168001
0.0152392
0.0138791
0.0502259
0.0436301
0.0380759
0.0333998
0.0294403
0.0260739
0.0231932
0.020717
0.0186056
0.0168001
0.0152392
0.0138791
0.0558527
0.0481984
0.0418701
0.036591
0.0321533
0.0284003
0.0252072
0.0224761
0.0201295
0.0181063
0.0163538
0.0148284
0.0602588
0.052
0.0451447
0.0394198
0.0346083
0.0305394
0.0270784
0.0241187
0.0215748
0.0193782
0.017473
0.0158136
0.0621581
0.0535151
0.0463964
0.0404775
0.0355157
0.0313263
0.0277661
0.0247228
0.0221076
0.0198493
0.0178902
0.0161838
0.0602588
0.0519997
0.0451442
0.0394189
0.0346071
0.030538
0.0270771
0.0241174
0.0215736
0.019377
0.0174718
0.0158125
0.055696
0.0481172
0.0418269
0.0365657
0.0321357
0.0283839
0.0251895
0.0224579
0.0201125
0.0180896
0.0163369
0.0148108
0.0500269
0.0431641
0.0375576
0.0328866
0.0289573
0.0256272
0.0227816
0.020356
0.0182919
0.0165218
0.0149935
0.0464945
0.0402924
0.0352625
0.0310516
0.0275268
0.0245333
0.0217926
0.0195623
0.0179114
0.0164838
0.0152025
0.0705177
0.0627303
0.0562258
0.0507313
0.0460838
0.0420841
0.0386474
0.0356769
0.0330812
0.0308125
0.0288218
)
;
    }
    procBoundary0to2
    {
        type            processor;
        value           nonuniform List<scalar> 
28
(
0.179879
0.0738502
0.0738502
0.08455
0.0715528
0.0636421
0.0636421
0.0790793
0.0790793
0.038514
0.038514
0.038514
0.0496587
0.0431673
0.0367666
0.0367666
0.0687006
0.0363332
0.0455517
0.0395602
0.0344062
0.0344062
0.0605839
0.0356423
0.0477894
0.0412973
0.0359124
0.0359124
)
;
    }
    procBoundary0to8
    {
        type            processor;
        value           nonuniform List<scalar> 
29
(
0.125472
0.0490799
0.0348712
0.0289982
0.0264632
0.0466284
0.0212734
0.0156171
0.0140749
0.0134108
0.0320046
0.0150329
0.0124974
0.0124146
0.0126245
0.027116
0.0134681
0.0122649
0.0128491
0.0134929
0.0255305
0.0130556
0.012505
0.0134794
0.0143619
0.014692
0.0137364
0.0146923
0.0150553
)
;
    }
    procBoundary0to9
    {
        type            processor;
        value           nonuniform List<scalar> 
40
(
0.0254807
0.025537
0.0271074
0.0335152
0.0335152
0.0484869
0.129009
0.0131308
0.0130531
0.013459
0.0160537
0.0160537
0.0224364
0.0508052
0.0126847
0.0125021
0.0122585
0.0135107
0.0135107
0.0169482
0.036277
0.0137356
0.0134781
0.0128469
0.0135121
0.0135121
0.0150777
0.0304359
0.0143621
0.0134919
0.0137914
0.0137914
0.0144315
0.0279174
0.0146925
0.0137349
0.0138737
0.0138737
0.014159
0.0269762
)
;
    }
}


// ************************************************************************* //
