/*--------------------------------*- C++ -*----------------------------------*\
| =========                 |                                                 |
| \\      /  F ield         | OpenFOAM: The Open Source CFD Toolbox           |
|  \\    /   O peration     | Version:  2212                                  |
|   \\  /    A nd           | Website:  www.openfoam.com                      |
|    \\/     M anipulation  |                                                 |
\*---------------------------------------------------------------------------*/
FoamFile
{
    version     2.0;
    format      ascii;
    arch        "LSB;label=32;scalar=64";
    class       surfaceScalarField;
    location    "2.85";
    object      phi;
}
// * * * * * * * * * * * * * * * * * * * * * * * * * * * * * * * * * * * * * //

dimensions      [0 3 -1 0 0 0 0];

oriented        oriented;

internalField   nonuniform List<scalar> 
1812
(
7.93412e-08
-3.54795e-08
3.76055e-08
7.77836e-08
-3.51591e-08
3.67168e-08
7.6459e-08
-3.49861e-08
3.63109e-08
7.52602e-08
-3.48652e-08
3.60641e-08
7.41594e-08
-3.47403e-08
3.58412e-08
7.31314e-08
-3.46128e-08
3.56409e-08
7.21415e-08
-3.44935e-08
3.54835e-08
-3.43746e-08
3.53423e-08
2.4003e-07
-6.53349e-08
3.16931e-08
2.38196e-07
-6.49868e-08
3.16617e-08
2.36272e-07
-6.4707e-08
3.16448e-08
2.34205e-07
-6.44792e-08
3.16818e-08
2.32032e-07
-6.43321e-08
3.17643e-08
2.29794e-07
-6.42029e-08
3.18284e-08
2.27495e-07
-6.40829e-08
3.18886e-08
-6.39013e-08
3.19024e-08
4.53496e-07
-8.99864e-08
2.5007e-08
4.52304e-07
-9.01827e-08
2.60403e-08
4.50637e-07
-9.01816e-08
2.68616e-08
4.48646e-07
-9.01496e-08
2.74332e-08
4.46356e-07
-9.00549e-08
2.78664e-08
4.43774e-07
-8.99381e-08
2.81875e-08
4.40922e-07
-8.98014e-08
2.84511e-08
4.37816e-07
-8.96453e-08
2.86683e-08
-8.94745e-08
2.8887e-08
6.1928e-07
-1.11517e-07
1.41311e-08
6.27808e-07
-1.11041e-07
1.57063e-08
6.33287e-07
-1.10993e-07
1.67465e-08
6.36795e-07
-1.11109e-07
1.76152e-08
6.3888e-07
-1.10947e-07
1.86797e-08
6.39609e-07
-1.10554e-07
1.96428e-08
6.39113e-07
-1.1008e-07
2.04264e-08
6.37584e-07
-1.09621e-07
2.10963e-08
6.35183e-07
-1.09204e-07
2.16669e-08
6.32028e-07
-1.08809e-07
2.21629e-08
6.2824e-07
-1.08454e-07
2.25973e-08
-1.08089e-07
2.29654e-08
7.6705e-07
-1.24267e-07
9.96713e-09
7.69929e-07
-1.25078e-07
1.1158e-08
7.72386e-07
-1.25203e-07
1.17528e-08
7.73893e-07
-1.24864e-07
1.22484e-08
7.74308e-07
-1.24232e-07
1.28695e-08
7.73626e-07
-1.23432e-07
1.35601e-08
7.71857e-07
-1.22566e-07
1.42552e-08
7.69074e-07
-1.21703e-07
1.4865e-08
7.65379e-07
-1.20899e-07
1.53893e-08
7.60847e-07
-1.20129e-07
1.58518e-08
7.55596e-07
-1.19441e-07
1.62378e-08
-1.18843e-07
1.65438e-08
8.49846e-07
-1.28363e-07
6.29966e-09
8.47938e-07
-1.30325e-07
7.155e-09
8.45362e-07
-1.30293e-07
7.66529e-09
8.41794e-07
-1.29425e-07
8.13e-09
8.37161e-07
-1.28186e-07
8.58625e-09
8.31544e-07
-1.26795e-07
8.9796e-09
8.25113e-07
-1.25437e-07
9.30146e-09
8.18002e-07
-1.24116e-07
9.52372e-09
8.10345e-07
-1.2289e-07
9.64902e-09
8.02271e-07
-1.21768e-07
9.71232e-09
7.9396e-07
-1.20849e-07
9.71925e-09
-1.20105e-07
9.66786e-09
8.47738e-07
-1.23774e-07
1.88256e-09
8.40081e-07
-1.26437e-07
3.76908e-09
8.30832e-07
-1.25668e-07
4.62466e-09
8.20117e-07
-1.2356e-07
4.84897e-09
8.08254e-07
-1.21098e-07
4.77572e-09
7.95737e-07
-1.18815e-07
4.53719e-09
7.83041e-07
-1.16893e-07
4.1528e-09
7.70441e-07
-1.15252e-07
3.73557e-09
7.5821e-07
-1.13865e-07
3.20633e-09
7.46518e-07
-1.12725e-07
2.64921e-09
7.35493e-07
-1.11923e-07
2.09826e-09
-1.11323e-07
1.55968e-09
7.48984e-07
-1.10629e-07
-2.04215e-09
7.33652e-07
-1.12606e-07
1.50031e-09
7.15616e-07
-1.09298e-07
1.66623e-09
6.96432e-07
-1.05095e-07
7.19909e-10
6.77295e-07
-1.01493e-07
-4.69034e-10
6.59166e-07
-9.88008e-08
-1.88506e-09
6.42525e-07
-9.69016e-08
-3.34988e-09
6.27568e-07
-9.55548e-08
-4.7397e-09
6.14264e-07
-9.45769e-08
-5.98396e-09
6.02468e-07
-9.38769e-08
-7.0512e-09
5.91974e-07
-9.35041e-08
-7.92499e-09
-8.66673e-09
5.63276e-07
-8.64762e-08
-3.57502e-09
5.35907e-07
-8.48058e-08
-4.31367e-10
5.08598e-07
-7.84749e-08
-3.51303e-09
4.84724e-07
-7.42351e-08
-6.98647e-09
4.64826e-07
-7.13481e-08
-1.0246e-08
4.48798e-07
-6.97825e-08
-1.29901e-08
4.36063e-07
-6.90514e-08
-1.51156e-08
4.25878e-07
-6.86201e-08
-1.67491e-08
4.17527e-07
-6.82325e-08
-1.79928e-08
4.10423e-07
-6.79001e-08
-1.88728e-08
-6.77743e-08
-1.94498e-08
3.22661e-07
-4.93104e-08
-2.39945e-09
2.88474e-07
-4.33984e-08
-7.22081e-09
2.65189e-07
-4.05819e-08
-1.46081e-08
2.50569e-07
-3.92141e-08
-2.04006e-08
2.41223e-07
-3.76044e-08
-2.43968e-08
2.34767e-07
-3.67058e-08
-2.66212e-08
2.29804e-07
-3.63078e-08
-2.77796e-08
2.25659e-07
-3.60687e-08
-2.84064e-08
2.2209e-07
-3.58477e-08
-2.88158e-08
2.18911e-07
-3.56553e-08
-2.90651e-08
-3.54843e-08
-2.93303e-08
1.08894e-07
-1.60017e-08
9.19537e-08
-2.64582e-08
8.50585e-08
-3.36867e-08
8.15134e-08
-3.56689e-08
7.94185e-08
-3.55095e-08
7.78948e-08
-3.5182e-08
7.6568e-08
-3.4981e-08
7.53422e-08
-3.48428e-08
7.42072e-08
-3.47127e-08
7.31391e-08
-3.45871e-08
-3.44813e-08
2.40917e-07
-2.44016e-08
7.15012e-08
2.34408e-07
-2.6614e-08
6.98397e-08
2.29491e-07
-2.77823e-08
6.9011e-08
2.25439e-07
-2.84152e-08
6.85308e-08
2.21965e-07
-2.88102e-08
6.81255e-08
2.18879e-07
-2.91135e-08
6.78412e-08
2.16009e-07
-2.93219e-08
6.76752e-08
-2.95146e-08
6.7648e-08
5.56082e-07
-4.94111e-08
6.28504e-08
5.51029e-07
-5.13042e-08
6.14054e-08
5.4696e-07
-5.26143e-08
6.05453e-08
5.43537e-07
-5.34816e-08
6.01713e-08
5.40445e-07
-5.40329e-08
6.00794e-08
5.37533e-07
-5.44458e-08
6.0073e-08
5.34697e-07
-5.47375e-08
6.01397e-08
-5.50305e-08
6.01205e-08
8.18552e-07
-7.24682e-08
5.16059e-08
8.18142e-07
-7.38924e-08
5.09314e-08
8.18076e-07
-7.50314e-08
5.06554e-08
8.18242e-07
-7.59504e-08
5.06025e-08
8.18576e-07
-7.6641e-08
5.06923e-08
8.18998e-07
-7.71304e-08
5.08634e-08
8.19392e-07
-7.74703e-08
5.10814e-08
8.19736e-07
-7.77096e-08
5.12965e-08
-7.7881e-08
5.14939e-08
1.00082e-06
-9.33171e-08
3.60278e-08
1.00377e-06
-9.3456e-08
3.59394e-08
1.0075e-06
-9.39163e-08
3.6049e-08
1.01109e-06
-9.45933e-08
3.61551e-08
1.01467e-06
-9.5192e-08
3.64018e-08
1.01819e-06
-9.56353e-08
3.67201e-08
1.02155e-06
-9.59469e-08
3.70651e-08
1.02467e-06
-9.61245e-08
3.74602e-08
1.02749e-06
-9.61673e-08
3.78816e-08
1.02998e-06
-9.6095e-08
3.82961e-08
1.03213e-06
-9.59467e-08
3.8686e-08
-9.57572e-08
3.90346e-08
1.13311e-06
-1.0675e-07
2.20919e-08
1.13666e-06
-1.07863e-07
2.20222e-08
1.14087e-06
-1.08651e-07
2.22763e-08
1.14513e-06
-1.09138e-07
2.25275e-08
1.14929e-06
-1.09319e-07
2.28399e-08
1.15316e-06
-1.09191e-07
2.32445e-08
1.15667e-06
-1.08909e-07
2.37045e-08
1.15981e-06
-1.08511e-07
2.41136e-08
1.16255e-06
-1.07992e-07
2.44778e-08
1.16487e-06
-1.07401e-07
2.4831e-08
1.16679e-06
-1.06785e-07
2.5158e-08
-1.06179e-07
2.5443e-08
1.19712e-06
-1.11092e-07
8.92238e-09
1.19979e-06
-1.12736e-07
9.36111e-09
1.20267e-06
-1.13678e-07
9.81544e-09
1.20536e-06
-1.1389e-07
1.01839e-08
1.20771e-06
-1.13586e-07
1.05066e-08
1.2096e-06
-1.12917e-07
1.08206e-08
1.21094e-06
-1.1205e-07
1.11009e-08
1.21177e-06
-1.1109e-07
1.12682e-08
1.21219e-06
-1.1007e-07
1.13047e-08
1.21231e-06
-1.09082e-07
1.12787e-08
1.21217e-06
-1.08159e-07
1.12324e-08
-1.0732e-07
1.1159e-08
1.17021e-06
-1.07084e-07
-4.72563e-09
1.17307e-06
-1.08798e-07
-3.02637e-09
1.17505e-06
-1.09038e-07
-2.00064e-09
1.17583e-06
-1.08293e-07
-1.52854e-09
1.17551e-06
-1.07109e-07
-1.37798e-09
1.17425e-06
-1.05676e-07
-1.43969e-09
1.17225e-06
-1.04154e-07
-1.75199e-09
1.16982e-06
-1.02737e-07
-2.17889e-09
1.16719e-06
-1.01488e-07
-2.74895e-09
1.16454e-06
-1.00445e-07
-3.34293e-09
1.16199e-06
-9.95869e-08
-3.91833e-09
-9.88852e-08
-4.47351e-09
1.05011e-06
-9.42485e-08
-1.81459e-08
1.05343e-06
-9.57391e-08
-1.48741e-08
1.05399e-06
-9.43332e-08
-1.36073e-08
1.05205e-06
-9.19582e-08
-1.36749e-08
1.04839e-06
-8.96161e-08
-1.42961e-08
1.04373e-06
-8.75295e-08
-1.53681e-08
1.03875e-06
-8.58529e-08
-1.66751e-08
1.0339e-06
-8.46176e-08
-1.80055e-08
1.02936e-06
-8.37366e-08
-1.91987e-08
1.02531e-06
-8.31727e-08
-2.02681e-08
1.02178e-06
-8.27666e-08
-2.12181e-08
-2.20573e-08
8.45835e-07
-7.27314e-08
-3.0227e-08
8.4917e-07
-7.32176e-08
-2.62876e-08
8.47303e-07
-6.95308e-08
-2.64491e-08
8.42106e-07
-6.55511e-08
-2.81958e-08
8.35669e-07
-6.29837e-08
-3.0441e-08
8.29259e-07
-6.14438e-08
-3.26659e-08
8.23466e-07
-6.05361e-08
-3.46394e-08
8.18489e-07
-6.01449e-08
-3.62451e-08
8.14288e-07
-6.00336e-08
-3.74946e-08
8.10798e-07
-6.01323e-08
-3.84231e-08
-6.01213e-08
-3.92017e-08
5.72882e-07
-4.39166e-08
-4.21016e-08
5.74891e-07
-4.22655e-08
-4.01821e-08
5.69242e-07
-3.5955e-08
-4.25346e-08
5.62162e-07
-3.24713e-08
-4.64008e-08
5.55782e-07
-3.16978e-08
-4.93025e-08
5.50653e-07
-3.16533e-08
-5.1283e-08
5.46617e-07
-3.16563e-08
-5.26225e-08
5.43255e-07
-3.16995e-08
-5.34905e-08
5.40234e-07
-3.17671e-08
-5.40608e-08
5.37288e-07
-3.18778e-08
-5.43739e-08
-3.18843e-08
-5.47735e-08
2.60676e-07
-5.5665e-08
2.50149e-07
-5.81974e-08
2.44367e-07
-6.38597e-08
2.4204e-07
-6.58124e-08
2.4035e-07
-6.55177e-08
2.38557e-07
-6.50419e-08
2.36569e-07
-6.46497e-08
2.34404e-07
-6.43767e-08
2.32143e-07
-6.42191e-08
2.29821e-07
-6.41434e-08
-6.39892e-08
4.84664e-07
-6.91666e-09
1.05136e-07
4.64751e-07
-1.01332e-08
1.01546e-07
4.48723e-07
-1.29482e-08
9.88161e-08
4.3602e-07
-1.51433e-08
9.68568e-08
4.25896e-07
-1.68149e-08
9.54701e-08
4.1761e-07
-1.80694e-08
9.44811e-08
4.10565e-07
-1.89317e-08
9.38178e-08
4.04326e-07
-1.95164e-08
9.34305e-08
-1.98882e-08
9.32351e-08
8.42301e-07
-2.82256e-08
9.19144e-08
8.35925e-07
-3.04707e-08
8.95642e-08
8.29563e-07
-3.26797e-08
8.74982e-08
8.23763e-07
-3.46376e-08
8.58393e-08
8.18736e-07
-3.62347e-08
8.46187e-08
8.14482e-07
-3.74832e-08
8.37472e-08
8.10906e-07
-3.84463e-08
8.31631e-08
8.0791e-07
-3.91776e-08
8.27974e-08
-3.98148e-08
8.25282e-08
1.09408e-06
-5.18898e-08
7.26301e-08
1.09573e-06
-5.28402e-08
7.16501e-08
1.09689e-06
-5.39424e-08
7.07534e-08
1.09788e-06
-5.50429e-08
7.0023e-08
1.0989e-06
-5.60381e-08
6.94713e-08
1.10009e-06
-5.68998e-08
6.90948e-08
1.10147e-06
-5.76181e-08
6.88727e-08
1.10306e-06
-5.82103e-08
6.87336e-08
-5.87252e-08
6.86452e-08
1.26811e-06
-7.17261e-08
5.1325e-08
1.2725e-06
-7.16488e-08
5.12264e-08
1.27755e-06
-7.15109e-08
5.1078e-08
1.28262e-06
-7.16482e-08
5.08441e-08
1.28758e-06
-7.20047e-08
5.06088e-08
1.2924e-06
-7.24687e-08
5.04227e-08
1.29708e-06
-7.29528e-08
5.02966e-08
1.30165e-06
-7.33873e-08
5.02459e-08
1.30611e-06
-7.37432e-08
5.02567e-08
1.3105e-06
-7.40213e-08
5.03165e-08
1.31479e-06
-7.4232e-08
5.04124e-08
-7.43911e-08
5.05167e-08
1.39223e-06
-8.36823e-08
3.02251e-08
1.39673e-06
-8.40227e-08
2.98968e-08
1.40206e-06
-8.4332e-08
2.97655e-08
1.4078e-06
-8.45912e-08
2.97252e-08
1.41369e-06
-8.47913e-08
2.97361e-08
1.41959e-06
-8.49158e-08
2.97986e-08
1.4254e-06
-8.49601e-08
2.98969e-08
1.43105e-06
-8.49312e-08
3.0004e-08
1.4365e-06
-8.4825e-08
3.01131e-08
1.44174e-06
-8.46553e-08
3.02285e-08
1.44676e-06
-8.44473e-08
3.03464e-08
-8.4219e-08
3.04585e-08
1.44167e-06
-8.80807e-08
8.72553e-09
1.44666e-06
-8.8563e-08
8.90791e-09
1.45209e-06
-8.90732e-08
9.13109e-09
1.45771e-06
-8.93348e-08
9.30813e-09
1.46331e-06
-8.93386e-08
9.44873e-09
1.46879e-06
-8.91391e-08
9.56632e-09
1.47406e-06
-8.87685e-08
9.64263e-09
1.47906e-06
-8.83282e-08
9.66121e-09
1.48376e-06
-8.78421e-08
9.61763e-09
1.4882e-06
-8.73429e-08
9.53176e-09
1.49241e-06
-8.68544e-08
9.42566e-09
-8.63888e-08
9.30768e-09
1.40481e-06
-8.4693e-08
-1.27207e-08
1.41033e-06
-8.52427e-08
-1.1869e-08
1.41602e-06
-8.55931e-08
-1.11719e-08
1.42139e-06
-8.54558e-08
-1.07749e-08
1.42628e-06
-8.49892e-08
-1.06176e-08
1.43067e-06
-8.43236e-08
-1.06456e-08
1.43455e-06
-8.35589e-08
-1.08449e-08
1.43804e-06
-8.28211e-08
-1.11752e-08
1.44121e-06
-8.21717e-08
-1.15868e-08
1.44419e-06
-8.16203e-08
-1.20448e-08
1.44705e-06
-8.11288e-08
-1.25114e-08
-8.07139e-08
-1.29658e-08
1.28234e-06
-7.24711e-08
-3.34417e-08
1.28776e-06
-7.34094e-08
-3.21251e-08
1.29322e-06
-7.34387e-08
-3.12175e-08
1.29773e-06
-7.26683e-08
-3.09754e-08
1.30133e-06
-7.16891e-08
-3.11903e-08
1.30414e-06
-7.07857e-08
-3.17159e-08
1.3064e-06
-7.00422e-08
-3.24563e-08
1.30835e-06
-6.94753e-08
-3.33034e-08
1.31018e-06
-6.9085e-08
-3.41102e-08
1.31202e-06
-6.88606e-08
-3.48763e-08
1.31397e-06
-6.86799e-08
-3.56074e-08
-3.62583e-08
1.08154e-06
-5.21017e-08
-5.34366e-08
1.08712e-06
-5.32939e-08
-5.19816e-08
1.09134e-06
-5.26938e-08
-5.14094e-08
1.09396e-06
-5.16292e-08
-5.18592e-08
1.09559e-06
-5.09549e-08
-5.28074e-08
1.09674e-06
-5.06769e-08
-5.39186e-08
1.09772e-06
-5.06288e-08
-5.50325e-08
1.09876e-06
-5.07176e-08
-5.60425e-08
1.09998e-06
-5.08808e-08
-5.69163e-08
1.10145e-06
-5.11204e-08
-5.76348e-08
-5.12496e-08
-5.82674e-08
8.17527e-07
-2.17383e-08
-7.17371e-08
8.18837e-07
-2.45004e-08
-7.02854e-08
8.18975e-07
-2.44778e-08
-7.08891e-08
8.18337e-07
-2.49431e-08
-7.24488e-08
8.17878e-07
-2.59298e-08
-7.38688e-08
8.17762e-07
-2.68292e-08
-7.50143e-08
8.17917e-07
-2.74743e-08
-7.59326e-08
8.18273e-07
-2.79372e-08
-7.66262e-08
8.18722e-07
-2.82671e-08
-7.71243e-08
8.19193e-07
-2.85184e-08
-7.74467e-08
-2.87365e-08
-7.77632e-08
4.49745e-07
-8.7947e-08
4.53858e-07
-8.68105e-08
4.54306e-07
-8.87856e-08
4.5359e-07
-9.00394e-08
4.52374e-07
-9.02317e-08
4.50693e-07
-9.01896e-08
4.48687e-07
-9.01187e-08
4.46379e-07
-9.00053e-08
4.43776e-07
-8.98833e-08
4.40874e-07
-8.976e-08
-8.95666e-08
6.9642e-07
7.56563e-10
1.23556e-07
6.77302e-07
-4.40313e-10
1.21104e-07
6.59189e-07
-1.87638e-09
1.18806e-07
6.42557e-07
-3.36873e-09
1.16857e-07
6.27609e-07
-4.7785e-09
1.15197e-07
6.14314e-07
-6.02784e-09
1.13803e-07
6.02535e-07
-7.0912e-09
1.12689e-07
5.92043e-07
-7.96758e-09
1.1189e-07
-8.69788e-09
1.11302e-07
1.0521e-06
-1.36639e-08
1.08274e-07
1.04843e-06
-1.42943e-08
1.07079e-07
1.04377e-06
-1.53647e-08
1.05647e-07
1.03879e-06
-1.66768e-08
1.04129e-07
1.03392e-06
-1.8011e-08
1.02721e-07
1.02936e-06
-1.92042e-08
1.01485e-07
1.02526e-06
-2.02761e-08
1.00451e-07
1.02169e-06
-2.12126e-08
9.96092e-08
-2.20446e-08
9.89185e-08
1.29776e-06
-3.0983e-08
8.54333e-08
1.30136e-06
-3.11997e-08
8.49611e-08
1.30417e-06
-3.17218e-08
8.42991e-08
1.30643e-06
-3.24576e-08
8.35439e-08
1.30837e-06
-3.32981e-08
8.28192e-08
1.31017e-06
-3.40976e-08
8.21836e-08
1.31199e-06
-3.48579e-08
8.16429e-08
1.31392e-06
-3.55774e-08
8.11685e-08
-3.62238e-08
8.07617e-08
1.46053e-06
-4.69291e-08
5.95325e-08
1.46705e-06
-4.68343e-08
5.94207e-08
1.47393e-06
-4.64998e-08
5.94755e-08
1.48069e-06
-4.63291e-08
5.9432e-08
1.48719e-06
-4.63715e-08
5.92798e-08
1.49339e-06
-4.65696e-08
5.90699e-08
1.49928e-06
-4.68788e-08
5.88308e-08
1.50489e-06
-4.72552e-08
5.85936e-08
1.51032e-06
-4.76471e-08
5.83761e-08
1.51561e-06
-4.80251e-08
5.81892e-08
1.52079e-06
-4.83826e-08
5.80358e-08
-4.87115e-08
5.79075e-08
1.57827e-06
-5.66347e-08
3.32678e-08
1.58493e-06
-5.67637e-08
3.31665e-08
1.59192e-06
-5.6806e-08
3.30836e-08
1.59915e-06
-5.68428e-08
3.30111e-08
1.60647e-06
-5.6899e-08
3.29426e-08
1.61379e-06
-5.69682e-08
3.28757e-08
1.62104e-06
-5.70425e-08
3.28145e-08
1.62814e-06
-5.71151e-08
3.27572e-08
1.63508e-06
-5.71758e-08
3.2704e-08
1.64185e-06
-5.72192e-08
3.26581e-08
1.64844e-06
-5.72473e-08
3.26206e-08
-5.72631e-08
3.25891e-08
1.62092e-06
-6.11738e-08
6.33565e-09
1.62772e-06
-6.10967e-08
6.43827e-09
1.63483e-06
-6.12333e-08
6.45193e-09
1.64219e-06
-6.13404e-08
6.44774e-09
1.64965e-06
-6.13652e-08
6.44943e-09
1.65712e-06
-6.13199e-08
6.44821e-09
1.66452e-06
-6.12163e-08
6.42308e-09
1.67177e-06
-6.1074e-08
6.37074e-09
1.67882e-06
-6.09089e-08
6.29189e-09
1.68568e-06
-6.07344e-08
6.19339e-09
1.69233e-06
-6.05616e-08
6.08505e-09
-6.03981e-08
5.97399e-09
1.58074e-06
-5.95396e-08
-2.07295e-08
1.58773e-06
-5.94296e-08
-2.05311e-08
1.59508e-06
-5.94888e-08
-2.02626e-08
1.60249e-06
-5.94486e-08
-2.00779e-08
1.6098e-06
-5.92977e-08
-1.99995e-08
1.61694e-06
-5.9085e-08
-2.00182e-08
1.62385e-06
-5.88406e-08
-2.0123e-08
1.63049e-06
-5.85959e-08
-2.02979e-08
1.63689e-06
-5.83699e-08
-2.05233e-08
1.64306e-06
-5.81746e-08
-2.07803e-08
1.64905e-06
-5.80111e-08
-2.10502e-08
-5.78776e-08
-2.13199e-08
1.46052e-06
-5.13276e-08
-4.69313e-08
1.46703e-06
-5.12266e-08
-4.68347e-08
1.47391e-06
-5.10877e-08
-4.64954e-08
1.48066e-06
-5.08606e-08
-4.63217e-08
1.48717e-06
-5.06286e-08
-4.63628e-08
1.49337e-06
-5.04421e-08
-4.65635e-08
1.49926e-06
-5.03127e-08
-4.68775e-08
1.50488e-06
-5.02561e-08
-4.72601e-08
1.51032e-06
-5.02596e-08
-4.76588e-08
1.51562e-06
-5.03123e-08
-4.80436e-08
1.52081e-06
-5.03907e-08
-4.8409e-08
-4.87413e-08
1.26809e-06
-3.6028e-08
-7.1729e-08
1.27246e-06
-3.59232e-08
-7.16547e-08
1.27751e-06
-3.60433e-08
-7.15063e-08
1.28258e-06
-3.61541e-08
-7.1633e-08
1.28753e-06
-3.64062e-08
-7.19848e-08
1.29235e-06
-3.67323e-08
-7.24513e-08
1.29703e-06
-3.7083e-08
-7.29428e-08
1.3016e-06
-3.74807e-08
-7.33873e-08
1.30608e-06
-3.79016e-08
-7.37536e-08
1.31049e-06
-3.83164e-08
-7.40409e-08
-3.86805e-08
-7.42686e-08
1.00076e-06
-1.41237e-08
-9.33121e-08
1.00371e-06
-1.56943e-08
-9.34603e-08
1.00742e-06
-1.67324e-08
-9.39144e-08
1.011e-06
-1.75936e-08
-9.45854e-08
1.01457e-06
-1.8667e-08
-9.51781e-08
1.01809e-06
-1.9648e-08
-9.56153e-08
1.02144e-06
-2.04427e-08
-9.59278e-08
1.02456e-06
-2.11194e-08
-9.61113e-08
1.0274e-06
-2.1697e-08
-9.61624e-08
1.02993e-06
-2.21997e-08
-9.60962e-08
-2.26479e-08
-9.59724e-08
6.19312e-07
-1.11524e-07
6.27848e-07
-1.11041e-07
6.33328e-07
-1.10998e-07
6.36818e-07
-1.11123e-07
6.38879e-07
-1.1096e-07
6.39594e-07
-1.10552e-07
6.39094e-07
-1.10062e-07
6.37565e-07
-1.09596e-07
6.35163e-07
-1.09178e-07
6.31992e-07
-1.08788e-07
-1.08424e-07
8.20132e-07
4.85335e-09
8.08262e-07
4.78799e-09
7.95737e-07
4.54617e-09
7.83027e-07
4.15371e-09
7.70414e-07
3.72756e-09
7.58168e-07
3.1927e-09
7.46473e-07
2.63509e-09
7.35436e-07
2.08505e-09
1.55112e-09
1.17582e-06
-1.53956e-09
1.1755e-06
-1.38061e-09
1.17423e-06
-1.43625e-09
1.17223e-06
-1.74868e-09
1.16978e-06
-2.1806e-09
1.16715e-06
-2.75303e-09
1.16449e-06
-3.34537e-09
1.16192e-06
-3.91554e-09
-4.46743e-09
1.42138e-06
-1.07811e-08
1.42627e-06
-1.06218e-08
1.43066e-06
-1.06463e-08
1.43454e-06
-1.08428e-08
1.43802e-06
-1.11713e-08
1.44118e-06
-1.15812e-08
1.44415e-06
-1.20359e-08
1.44701e-06
-1.2498e-08
-1.295e-08
1.58074e-06
-2.07257e-08
6.11659e-08
1.58774e-06
-2.05298e-08
6.10854e-08
1.59509e-06
-2.02644e-08
6.12182e-08
1.60249e-06
-2.00811e-08
6.13231e-08
1.60981e-06
-2.00021e-08
6.13485e-08
1.61694e-06
-2.00189e-08
6.13067e-08
1.62384e-06
-2.01209e-08
6.12091e-08
1.63048e-06
-2.02929e-08
6.10744e-08
1.63687e-06
-2.05154e-08
6.09175e-08
1.64305e-06
-2.07694e-08
6.07512e-08
1.64903e-06
-2.10362e-08
6.0586e-08
-2.13047e-08
6.04273e-08
1.69233e-06
-2.75746e-08
3.21672e-08
1.70039e-06
-2.75907e-08
3.21667e-08
1.70862e-06
-2.75779e-08
3.21612e-08
1.71697e-06
-2.75543e-08
3.21421e-08
1.72534e-06
-2.75439e-08
3.21131e-08
1.73368e-06
-2.75558e-08
3.2075e-08
1.74192e-06
-2.75854e-08
3.20347e-08
1.75003e-06
-2.76327e-08
3.19913e-08
1.75796e-06
-2.7694e-08
3.19458e-08
1.76571e-06
-2.77643e-08
3.19006e-08
1.77328e-06
-2.78392e-08
3.18576e-08
-2.79167e-08
3.1816e-08
1.73034e-06
-3.21731e-08
2.26785e-09
1.73902e-06
-3.21743e-08
2.33427e-09
1.74774e-06
-3.21704e-08
2.3308e-09
1.75648e-06
-3.21522e-08
2.3047e-09
1.76522e-06
-3.21227e-08
2.28954e-09
1.77391e-06
-3.20827e-08
2.28067e-09
1.78253e-06
-3.20389e-08
2.25947e-09
1.79103e-06
-3.1991e-08
2.22946e-09
1.79937e-06
-3.19404e-08
2.19234e-09
1.80754e-06
-3.18902e-08
2.15004e-09
1.81553e-06
-3.18428e-08
2.10503e-09
-3.17984e-08
2.05897e-09
1.69232e-06
-3.32741e-08
-2.75768e-08
1.70038e-06
-3.31733e-08
-2.7592e-08
1.70862e-06
-3.30916e-08
-2.75781e-08
1.71696e-06
-3.30204e-08
-2.75538e-08
1.72534e-06
-3.29521e-08
-2.75434e-08
1.73368e-06
-3.2884e-08
-2.75562e-08
1.74192e-06
-3.28202e-08
-2.75874e-08
1.75003e-06
-3.27589e-08
-2.76366e-08
1.75797e-06
-3.27009e-08
-2.77001e-08
1.76572e-06
-3.26502e-08
-2.77725e-08
1.77328e-06
-3.26083e-08
-2.78491e-08
-3.2574e-08
-2.79271e-08
1.57826e-06
-3.02307e-08
-5.66346e-08
1.58492e-06
-2.99015e-08
-5.67627e-08
1.5919e-06
-2.97713e-08
-5.6803e-08
1.59913e-06
-2.97327e-08
-5.68381e-08
1.60646e-06
-2.9745e-08
-5.68939e-08
1.61378e-06
-2.98081e-08
-5.69645e-08
1.62103e-06
-2.99058e-08
-5.70417e-08
1.62814e-06
-3.00102e-08
-5.71182e-08
1.63508e-06
-3.01157e-08
-5.71833e-08
1.64185e-06
-3.02271e-08
-5.72313e-08
1.64843e-06
-3.03403e-08
-5.72639e-08
-5.72822e-08
1.39221e-06
-2.20973e-08
-8.36805e-08
1.3967e-06
-2.20251e-08
-8.40214e-08
1.40203e-06
-2.22768e-08
-8.4328e-08
1.40777e-06
-2.25271e-08
-8.45834e-08
1.41367e-06
-2.28416e-08
-8.47819e-08
1.41956e-06
-2.32505e-08
-8.49073e-08
1.42538e-06
-2.37139e-08
-8.49549e-08
1.43104e-06
-2.41244e-08
-8.49311e-08
1.43649e-06
-2.44887e-08
-8.4831e-08
1.44173e-06
-2.48404e-08
-8.4668e-08
-2.51601e-08
-8.4468e-08
1.13309e-06
-9.9652e-09
-1.06745e-07
1.13662e-06
-1.11577e-08
-1.07861e-07
1.14082e-06
-1.17498e-08
-1.08647e-07
1.14509e-06
-1.22435e-08
-1.09132e-07
1.14924e-06
-1.28658e-08
-1.0931e-07
1.15312e-06
-1.35608e-08
-1.09181e-07
1.15664e-06
-1.42615e-08
-1.08899e-07
1.15978e-06
-1.48762e-08
-1.08504e-07
1.16253e-06
-1.54044e-08
-1.07989e-07
1.16486e-06
-1.5869e-08
-1.07404e-07
-1.6254e-08
-1.06799e-07
7.67045e-07
-1.24273e-07
7.6993e-07
-1.25084e-07
7.72389e-07
-1.25206e-07
7.73887e-07
-1.24866e-07
7.74293e-07
-1.24232e-07
7.73606e-07
-1.23427e-07
7.71838e-07
-1.22555e-07
7.69056e-07
-1.2169e-07
7.65359e-07
-1.20886e-07
7.60821e-07
-1.20119e-07
-1.19431e-07
1.62092e-06
6.34089e-09
1.62772e-06
6.44331e-09
1.63483e-06
6.45661e-09
1.64218e-06
6.45219e-09
1.64965e-06
6.45392e-09
1.65712e-06
6.45297e-09
1.66451e-06
6.428e-09
1.67176e-06
6.37554e-09
1.67882e-06
6.29653e-09
1.68567e-06
6.19818e-09
1.69233e-06
6.09023e-09
5.97924e-09
1.73033e-06
2.27192e-09
1.73902e-06
2.3388e-09
1.74774e-06
2.33562e-09
1.75648e-06
2.30966e-09
1.76522e-06
2.29449e-09
1.77391e-06
2.28555e-09
1.78253e-06
2.26421e-09
1.79103e-06
2.23388e-09
1.79938e-06
2.19635e-09
1.80755e-06
2.15366e-09
1.81553e-06
2.10823e-09
2.06156e-09
1.76727e-06
-2.27144e-09
1.77663e-06
-2.33819e-09
1.78597e-06
-2.33515e-09
1.79521e-06
-2.30912e-09
1.80438e-06
-2.29322e-09
1.81352e-06
-2.28317e-09
1.82257e-06
-2.2605e-09
1.83149e-06
-2.2284e-09
1.84026e-06
-2.18885e-09
1.84886e-06
-2.14412e-09
1.85727e-06
-2.09694e-09
-2.04911e-09
1.73033e-06
-6.33964e-09
1.73902e-06
-6.44209e-09
1.74774e-06
-6.45607e-09
1.75648e-06
-6.45232e-09
1.76522e-06
-6.45402e-09
1.77392e-06
-6.45235e-09
1.78253e-06
-6.42612e-09
1.79103e-06
-6.37182e-09
1.79938e-06
-6.29051e-09
1.80755e-06
-6.1896e-09
1.81553e-06
-6.07937e-09
-5.96665e-09
1.62092e-06
-8.72902e-09
1.62772e-06
-8.90928e-09
1.63482e-06
-9.13282e-09
1.64218e-06
-9.31143e-09
1.64965e-06
-9.45362e-09
1.65712e-06
-9.5723e-09
1.66452e-06
-9.6484e-09
1.67177e-06
-9.66536e-09
1.67883e-06
-9.61947e-09
1.68568e-06
-9.53122e-09
1.69233e-06
-9.42387e-09
1.44165e-06
-8.92413e-09
1.44665e-06
-9.35846e-09
1.45207e-06
-9.81322e-09
1.45769e-06
-1.01838e-08
1.4633e-06
-1.05095e-08
1.46878e-06
-1.08265e-08
1.47405e-06
-1.11079e-08
1.47906e-06
-1.12746e-08
1.48376e-06
-1.13102e-08
1.48819e-06
-1.12824e-08
-1.12339e-08
1.19711e-06
-6.29731e-09
1.19977e-06
-7.15152e-09
1.20264e-06
-7.66269e-09
1.20534e-06
-8.1287e-09
1.20769e-06
-8.58663e-09
1.20958e-06
-8.98211e-09
1.21093e-06
-9.30606e-09
1.21177e-06
-9.53002e-09
1.21219e-06
-9.65652e-09
1.21231e-06
-9.71913e-09
-9.72331e-09
8.49836e-07
8.47924e-07
8.45345e-07
8.41771e-07
8.37134e-07
8.31514e-07
8.25083e-07
8.17973e-07
8.10316e-07
8.02244e-07
)
;

boundaryField
{
    inlet
    {
        type            calculated;
        value           nonuniform List<scalar> 0();
    }
    ami1
    {
        type            cyclicAMI;
        value           nonuniform List<scalar> 0();
    }
    walls
    {
        type            calculated;
        value           nonuniform List<scalar> 
227
(
1.28555e-14
6.40674e-15
1.38811e-22
-6.40674e-15
-1.28555e-14
-1.84387e-14
-2.43942e-14
-2.90979e-14
1.28555e-14
6.40674e-15
1.18132e-22
-6.40674e-15
-1.28555e-14
-1.84387e-14
-2.43942e-14
-2.90979e-14
1.28555e-14
6.40674e-15
1.3726e-22
-6.40674e-15
-1.28555e-14
-1.84387e-14
-2.43942e-14
-2.90979e-14
1.84387e-14
1.28555e-14
6.40674e-15
1.3726e-22
-6.40674e-15
-1.28555e-14
-1.84387e-14
-2.43942e-14
-2.90979e-14
2.90979e-14
2.43942e-14
1.84387e-14
1.28555e-14
6.40674e-15
1.3726e-22
-6.40674e-15
-1.28555e-14
-1.84387e-14
-2.43942e-14
-2.90979e-14
2.90979e-14
2.43942e-14
1.84387e-14
1.28555e-14
6.40674e-15
1.17873e-22
-6.40674e-15
-1.28555e-14
-1.84387e-14
-2.43942e-14
-2.90979e-14
2.90979e-14
2.43942e-14
1.84387e-14
1.28555e-14
6.40674e-15
1.38036e-22
-6.40674e-15
-1.28555e-14
-1.84387e-14
-2.43942e-14
-2.90979e-14
2.90979e-14
2.43942e-14
1.84387e-14
1.28555e-14
6.40674e-15
1.38036e-22
-6.40674e-15
-1.28555e-14
-1.84387e-14
-2.43942e-14
-2.90979e-14
2.90979e-14
2.43942e-14
1.84387e-14
1.28555e-14
6.40674e-15
1.3726e-22
-6.40674e-15
-1.28555e-14
-1.84387e-14
-2.43942e-14
-2.90979e-14
2.90979e-14
2.43942e-14
1.84387e-14
1.28555e-14
6.40674e-15
1.18649e-22
-6.40674e-15
-1.28555e-14
-1.84387e-14
-2.43942e-14
-2.90979e-14
2.90979e-14
2.43942e-14
1.84387e-14
1.28555e-14
6.40674e-15
1.38811e-22
-6.40674e-15
-1.28555e-14
-1.84387e-14
-2.43942e-14
-2.90979e-14
2.90979e-14
2.43942e-14
1.84387e-14
1.28555e-14
6.40674e-15
1.37777e-22
-6.40674e-15
-1.28555e-14
2.90979e-14
2.43942e-14
1.84387e-14
1.28555e-14
6.40674e-15
1.38811e-22
2.90979e-14
2.43942e-14
1.84387e-14
1.28555e-14
6.40674e-15
1.18132e-22
2.90979e-14
2.43942e-14
1.84387e-14
1.28555e-14
6.40674e-15
1.3726e-22
2.90979e-14
2.43942e-14
1.84387e-14
1.28555e-14
6.40674e-15
1.3726e-22
2.90979e-14
2.43942e-14
1.84387e-14
1.28555e-14
6.40674e-15
1.3726e-22
2.90979e-14
2.43942e-14
1.84387e-14
1.28555e-14
6.40674e-15
1.17873e-22
2.90979e-14
2.43942e-14
1.84387e-14
1.28555e-14
6.40674e-15
1.38036e-22
2.90979e-14
2.43942e-14
1.84387e-14
1.28555e-14
6.40674e-15
1.38036e-22
2.90979e-14
2.43942e-14
1.84387e-14
1.28555e-14
6.40674e-15
1.3726e-22
2.90979e-14
2.43942e-14
1.84387e-14
1.28555e-14
6.40674e-15
1.18649e-22
2.90979e-14
2.43942e-14
1.84387e-14
1.28555e-14
6.40674e-15
1.38811e-22
-1.84387e-14
-1.28555e-14
-6.40674e-15
-2.90979e-14
-2.43942e-14
-1.84387e-14
-1.28555e-14
-6.40674e-15
-2.90979e-14
-2.43942e-14
-1.84387e-14
-1.28555e-14
-6.40674e-15
-2.90979e-14
-2.43942e-14
-1.84387e-14
-1.28555e-14
-6.40674e-15
-2.90979e-14
-2.43942e-14
-1.84387e-14
-1.28555e-14
-6.40674e-15
-2.90979e-14
-2.43942e-14
-1.84387e-14
-1.28555e-14
-6.40674e-15
-2.90979e-14
-2.43942e-14
-1.84387e-14
-1.28555e-14
-6.40674e-15
-2.90979e-14
-2.43942e-14
-1.84387e-14
-1.28555e-14
-6.40674e-15
-2.90979e-14
-2.43942e-14
-1.84387e-14
-1.28555e-14
-6.40674e-15
)
;
    }
    ami2
    {
        type            cyclicAMI;
        value           nonuniform List<scalar> 
48
(
-6.09834e-07
-7.64266e-07
-8.5205e-07
-8.5421e-07
-7.60088e-07
-5.83854e-07
-3.57427e-07
-1.42203e-07
-1.00113e-06
-1.1318e-06
-1.1954e-06
-1.16761e-06
-1.04684e-06
-8.407e-07
-5.61994e-07
-2.64929e-07
-1.26511e-06
-1.3884e-06
-1.43707e-06
-1.4002e-06
-1.27927e-06
-1.0787e-06
-8.18255e-07
-4.39202e-07
-1.45525e-06
-1.57161e-06
-1.61399e-06
-1.57436e-06
-1.45524e-06
-1.26509e-06
-1.00109e-06
-6.09858e-07
-1.57437e-06
-1.68438e-06
-1.72167e-06
-1.68438e-06
-1.5716e-06
-1.38839e-06
-1.13178e-06
-7.64261e-07
-1.61399e-06
-1.72167e-06
-1.75819e-06
-1.72167e-06
-1.61399e-06
-1.43706e-06
-1.19539e-06
-8.52042e-07
)
;
    }
    outlet
    {
        type            calculated;
        value           nonuniform List<scalar> 0();
    }
    procBoundary0to1
    {
        type            processor;
        value           nonuniform List<scalar> 
138
(
-8.3086e-07
1.2943e-07
1.28186e-07
1.26784e-07
1.25413e-07
1.24082e-07
1.22856e-07
1.21749e-07
1.20841e-07
1.20109e-07
-1.17502e-06
1.13871e-07
1.13565e-07
1.12896e-07
1.12032e-07
1.11078e-07
1.10067e-07
1.0909e-07
1.0818e-07
1.07351e-07
1.27136e-08
1.18687e-08
-1.41602e-06
1.11766e-08
8.93098e-08
8.93138e-08
8.91197e-08
8.87581e-08
8.83281e-08
8.7853e-08
8.73647e-08
8.68873e-08
8.64286e-08
-8.73126e-09
-8.91172e-09
-9.13408e-09
-9.31081e-09
-9.45198e-09
-9.57072e-09
-9.64758e-09
-9.66589e-09
-9.62236e-09
-9.53742e-09
-9.43273e-09
-9.31575e-09
5.66261e-08
5.6751e-08
5.67895e-08
5.68242e-08
5.68811e-08
5.69541e-08
5.70349e-08
5.71157e-08
5.71854e-08
5.72376e-08
5.72733e-08
5.7294e-08
2.75697e-08
2.75832e-08
2.75683e-08
2.75435e-08
2.75333e-08
2.75473e-08
2.75807e-08
2.76328e-08
2.76997e-08
2.77755e-08
2.78553e-08
2.79364e-08
-2.27446e-09
-2.3421e-09
-2.33976e-09
-2.31412e-09
-2.2982e-09
-2.28789e-09
-2.26484e-09
-2.23224e-09
-2.19209e-09
-2.14668e-09
-2.09868e-09
-2.04984e-09
-3.21746e-08
-3.21759e-08
-3.21716e-08
-3.21529e-08
-3.21232e-08
-3.20833e-08
-3.20401e-08
-3.19932e-08
-3.19439e-08
-3.1895e-08
-3.18486e-08
-3.1804e-08
-6.11742e-08
-6.10977e-08
-6.12333e-08
-6.13385e-08
-6.13623e-08
-6.13171e-08
-6.12146e-08
-6.10744e-08
-6.09119e-08
-6.07402e-08
-6.05703e-08
-6.0409e-08
-8.80787e-08
-8.85628e-08
-8.90722e-08
-8.93318e-08
-8.93344e-08
-8.91352e-08
-8.87658e-08
-8.83276e-08
-8.78446e-08
-8.73492e-08
-8.68654e-08
-1.11087e-07
-1.12731e-07
-1.13673e-07
-1.13886e-07
-1.13582e-07
-1.12914e-07
-1.12048e-07
-1.11088e-07
-1.1007e-07
-1.09085e-07
-1.08167e-07
-1.28365e-07
-1.30323e-07
-1.30289e-07
-1.29421e-07
-1.28181e-07
-1.26789e-07
-1.25431e-07
-1.2411e-07
-1.22886e-07
-1.21766e-07
-1.20849e-07
)
;
    }
    procBoundary0to2
    {
        type            processor;
        value           nonuniform List<scalar> 
28
(
-8.14667e-08
-2.41867e-07
6.56982e-08
8.79417e-08
8.68077e-08
-4.54214e-07
8.87685e-08
-2.50411e-07
-7.43196e-08
-5.6223e-07
4.64332e-08
-6.54998e-08
7.1738e-08
7.02637e-08
-8.19116e-07
7.08837e-08
-5.08564e-07
-8.47407e-07
5.34283e-08
5.19738e-08
-1.09144e-06
5.14235e-08
-7.15597e-07
-1.05403e-06
3.34373e-08
3.21236e-08
-1.29325e-06
3.12213e-08
)
;
    }
    procBoundary0to8
    {
        type            processor;
        value           nonuniform List<scalar> 
29
(
7.11739e-08
2.25119e-07
4.34502e-07
6.23889e-07
7.49806e-07
2.13218e-07
5.31995e-07
8.1998e-07
1.03394e-06
1.16831e-06
3.98627e-07
8.05429e-07
1.10482e-06
1.31898e-06