/*--------------------------------*- C++ -*----------------------------------*\
| =========                 |                                                 |
| \\      /  F ield         | OpenFOAM: The Open Source CFD Toolbox           |
|  \\    /   O peration     | Version:  2212                                  |
|   \\  /    A nd           | Website:  www.openfoam.com                      |
|    \\/     M anipulation  |                                                 |
\*---------------------------------------------------------------------------*/
FoamFile
{
    version     2.0;
    format      ascii;
    arch        "LSB;label=32;scalar=64";
    class       volScalarField;
    location    "0.1";
    object      epsilon;
}
// * * * * * * * * * * * * * * * * * * * * * * * * * * * * * * * * * * * * * //

dimensions      [0 2 -3 0 0 0 0];

internalField   nonuniform List<scalar> 
6840
(
90.5111
12.1525
4.42438
2.52714
1.70326
1.3316
1.14043
1.02342
0.95233
0.908111
0.880857
0.864076
0.853544
0.848
0.844806
0.842115
0.839691
0.837438
0.836258
0.857442
58.5881
14.6068
6.19044
3.52033
2.36818
1.80749
1.50221
1.3232
1.21453
1.14431
1.10048
1.07296
1.05602
1.04709
1.04079
1.03478
1.02933
1.02376
1.01592
1.01665
45.0249
13.498
5.8014
3.20284
2.02357
1.53761
1.27055
1.1082
1.00891
0.947421
0.908807
0.883927
0.868209
0.858346
0.851876
0.847084
0.842931
0.838591
0.834324
0.84798
38.7053
13.0776
5.80526
3.21343
2.03249
1.52453
1.25587
1.09018
0.987863
0.924315
0.884568
0.859519
0.843643
0.833495
0.826791
0.821968
0.817941
0.814011
0.81082
0.822206
36.0597
12.8757
5.8253
3.22259
2.03577
1.51612
1.24833
1.08273
0.979791
0.915473
0.875067
0.849571
0.833395
0.823016
0.816172
0.811323
0.807384
0.803685
0.800868
0.810036
36.0597
12.8757
5.8253
3.22259
2.03577
1.51612
1.24833
1.08273
0.979794
0.915477
0.875074
0.849584
0.833412
0.823013
0.816198
0.811374
0.807458
0.803788
0.800625
0.805579
38.7053
13.0776
5.80526
3.21343
2.03249
1.52453
1.25587
1.09018
0.987871
0.924328
0.884597
0.859592
0.843862
0.833977
0.827189
0.822266
0.81822
0.814362
0.810401
0.80988
45.0249
13.498
5.80139
3.20284
2.02357
1.53761
1.27055
1.1082
1.00892
0.947447
0.908872
0.884083
0.868536
0.858712
0.852077
0.847233
0.84316
0.839073
0.834117
0.829315
58.5881
14.6068
6.19044
3.52032
2.36818
1.80749
1.50221
1.32321
1.21454
1.14434
1.10057
1.07329
1.05806
1.0481
1.0398
1.0338
1.02898
1.02409
1.01727
1.00299
90.5111
12.1525
4.42438
2.52714
1.70326
1.3316
1.14043
1.02342
0.952328
0.908143
0.880958
0.863835
0.854284
0.848778
0.84479
0.841735
0.839336
0.837189
0.836105
0.857258
58.5881
14.6068
6.19044
3.52033
2.36818
1.80749
1.50221
1.3232
1.21453
1.14431
1.10048
1.07296
1.05602
1.0471
1.0408
1.0348
1.0295
1.02436
1.01745
1.00324
16.5382
9.50015
5.04559
2.93255
1.87981
1.32323
1.01617
0.840737
0.740063
0.678393
0.646301
0.625111
0.611884
0.603214
0.598014
0.594315
0.591646
0.589056
0.586801
0.590019
13.6678
8.74292
5.10406
3.11382
2.02585
1.42276
1.07784
0.87451
0.749975
0.673781
0.627577
0.598881
0.583489
0.573286
0.566605
0.562183
0.559002
0.556527
0.555057
0.557655
12.9049
8.34688
5.10306
3.21019
2.12242
1.498
1.13221
0.912753
0.778538
0.695384
0.643067
0.609949
0.588603
0.576598
0.568727
0.563376
0.559657
0.557046
0.555887
0.55868
12.6874
8.16186
5.09491
3.25351
2.17135
1.53867
1.16371
0.936649
0.79687
0.709807
0.655141
0.620564
0.598525
0.584572
0.575723
0.570073
0.566209
0.563505
0.561974
0.563629
12.6874
8.16186
5.09491
3.25351
2.17135
1.53867
1.16371
0.936651
0.796872
0.709809
0.655145
0.620577
0.598581
0.584884
0.575739
0.57
0.566129
0.563321
0.561466
0.561825
12.9049
8.34688
5.10306
3.21019
2.12243
1.498
1.13221
0.912756
0.778542
0.695388
0.643074
0.609944
0.58851
0.575765
0.568336
0.563206
0.559522
0.556702
0.554591
0.554019
13.6678
8.74292
5.10406
3.11382
2.02585
1.42276
1.07784
0.874513
0.749978
0.673786
0.627578
0.598843
0.583382
0.573254
0.566703
0.562257
0.558999
0.556366
0.554309
0.554592
16.5382
9.50015
5.04559
2.93255
1.87981
1.32323
1.01617
0.840738
0.740066
0.678398
0.6463
0.625067
0.611548
0.60349
0.59808
0.59456
0.591667
0.589027
0.586768
0.589994
58.5881
14.6068
6.19044
3.52032
2.36818
1.80749
1.50221
1.3232
1.21454
1.14434
1.10056
1.07328
1.05804
1.04805
1.03973
1.03374
1.02878
1.02347
1.01575
1.01637
45.0249
13.498
5.8014
3.20285
2.02357
1.53761
1.27056
1.1082
1.00891
0.947427
0.908815
0.883941
0.868231
0.858385
0.851947
0.847217
0.843193
0.839136
0.834222
0.829528
13.6678
8.74293
5.10406
3.11382
2.02585
1.42276
1.07784
0.874512
0.749976
0.673782
0.627578
0.598882
0.58349
0.573287
0.566605
0.562175
0.558963
0.556357
0.554292
0.554449
11.859
7.76902
5.01905
3.29079
2.23306
1.59006
1.19785
0.956252
0.805628
0.711139
0.651514
0.613826
0.590297
0.575415
0.565897
0.559606
0.55544
0.552582
0.550525
0.549898
11.6212
7.61036
5.03217
3.39175
2.35593
1.70382
1.29253
1.03175
0.865292
0.758504
0.689793
0.645624
0.617294
0.599248
0.587676
0.580107
0.575004
0.571407
0.568876
0.567613
11.5706
7.57238
5.04329
3.43425
2.4096
1.75662
1.33924
1.07118
0.89805
0.785742
0.712745
0.665333
0.634626
0.614822
0.601999
0.593579
0.587891
0.583849
0.580866
0.578889
11.5706
7.57238
5.04329
3.43425
2.4096
1.75662
1.33924
1.07119
0.898052
0.785743
0.712747
0.665338
0.634637
0.614849
0.60201
0.593572
0.587865
0.583772
0.580642
0.578275
11.6212
7.61036
5.03217
3.39175
2.35593
1.70382
1.29253
1.03175
0.865295
0.758506
0.689795
0.645623
0.61729
0.599187
0.587611
0.580064
0.574952
0.57127
0.568452
0.56636
11.859
7.76902
5.01905
3.29079
2.23307
1.59007
1.19785
0.956254
0.805629
0.71114
0.651514
0.613817
0.590275
0.575404
0.565909
0.559637
0.555471
0.552604
0.550551
0.54996
13.6678
8.74293
5.10406
3.11382
2.02585
1.42276
1.07784
0.874512
0.749977
0.673785
0.627578
0.598857
0.583416
0.57331
0.56673
0.562271
0.559036
0.556536
0.555084
0.557842
45.0249
13.498
5.8014
3.20284
2.02357
1.53761
1.27055
1.1082
1.00891
0.947436
0.908851
0.884039
0.868438
0.858513
0.851836
0.846965
0.842807
0.838482
0.834211
0.847738
38.7053
13.0776
5.80526
3.21343
2.0325
1.52453
1.25587
1.09018
0.987868
0.924321
0.884577
0.859532
0.843665
0.833533
0.826855
0.822078
0.818133
0.814335
0.81042
0.809959
12.9049
8.34688
5.10307
3.21019
2.12243
1.498
1.13221
0.912755
0.77854
0.695385
0.643069
0.60995
0.588602
0.576596
0.568721
0.563355
0.559575
0.556718
0.554587
0.553963
11.6212
7.61036
5.03217
3.39175
2.35593
1.70382
1.29253
1.03175
0.865294
0.758505
0.689794
0.645624
0.617294
0.599246
0.587672
0.580095
0.574964
0.571274
0.568453
0.566368
11.4905
7.5171
5.05247
3.48725
2.48054
1.82835
1.40359
1.12559
0.942847
0.822392
0.742958
0.690697
0.656462
0.63416
0.619587
0.609939
0.603382
0.598642
0.594869
0.591495
11.4725
7.50696
5.06897
3.52661
2.53215
1.88293
1.45539
1.17197
0.983156
0.85705
0.772826
0.71673
0.679557
0.655075
0.638905
0.628096
0.620698
0.615301
0.610895
0.606669
11.4725
7.50696
5.06897
3.52661
2.53215
1.88293
1.45539
1.17197
0.983158
0.857052
0.772831
0.716741
0.679577
0.655109
0.63893
0.628103
0.620693
0.615281
0.610841
0.60654
11.4905
7.5171
5.05247
3.48726
2.48055
1.82835
1.4036
1.1256
0.942851
0.822397
0.742969
0.690724
0.656527
0.634196
0.619572
0.609927
0.603373
0.598635
0.594858
0.591469
11.6212
7.61036
5.03217
3.39175
2.35593
1.70382
1.29253
1.03175
0.865295
0.758508
0.6898
0.645639
0.617327
0.599265
0.587669
0.580104
0.575004
0.571407
0.568872
0.567588
12.9049
8.34688
5.10306
3.21019
2.12243
1.498
1.13221
0.912755
0.77854
0.695387
0.643078
0.609972
0.588663
0.576596
0.568693
0.563368
0.559656
0.557041
0.555869
0.558592
38.7053
13.0776
5.80526
3.21343
2.03249
1.52453
1.25586
1.09018
0.987862
0.924316
0.884576
0.859541
0.843716
0.83357
0.826815
0.821958
0.817922
0.814002
0.810844
0.822318
36.0597
12.8757
5.82531
3.22259
2.03578
1.51613
1.24833
1.08273
0.979794
0.915476
0.87507
0.849577
0.833408
0.823042
0.816208
0.811373
0.807456
0.803791
0.800635
0.805595
12.6874
8.16186
5.09491
3.25351
2.17135
1.53867
1.16371
0.936651
0.796872
0.709808
0.655141
0.620562
0.598514
0.584537
0.575704
0.570059
0.566166
0.563341
0.561481
0.561853
11.5706
7.57238
5.04329
3.43425
2.4096
1.75662
1.33924
1.07119
0.898051
0.785742
0.712745
0.665331
0.63462
0.614809
0.601986
0.593566
0.587866
0.583777
0.580656
0.578317
11.4725
7.50696
5.06897
3.52661
2.53215
1.88293
1.45539
1.17197
0.983157
0.85705
0.772825
0.716727
0.67955
0.655062
0.638892
0.628086
0.620688
0.615284
0.610857
0.606583
11.4609
7.50301
5.08631
3.56388
2.58172
1.93695
1.50826
1.2206
1.02637
0.894835
0.805783
0.745684
0.705356
0.678483
0.660525
0.648392
0.640003
0.633797
0.628602
0.6233
11.4609
7.50301
5.08631
3.56389
2.58172
1.93695
1.50827
1.22061
1.02637
0.894839
0.80579
0.745699
0.705384
0.678528
0.660558
0.648403
0.640005
0.633795
0.628596
0.623285
11.4725
7.50696
5.06897
3.52661
2.53215
1.88293
1.4554
1.17198
0.983163
0.857059
0.772843
0.71677
0.679646
0.655123
0.638879
0.628074
0.620681
0.61529
0.610888
0.606663
11.5706
7.57238
5.0433
3.43425
2.4096
1.75663
1.33924
1.07119
0.898055
0.785748
0.712756
0.665357
0.634672
0.614838
0.601973
0.593557
0.587876
0.58384
0.58086
0.578879
12.6874
8.16186
5.09491
3.25351
2.17135
1.53867
1.16371
0.936652
0.796871
0.709809
0.655146
0.620576
0.598546
0.584562
0.575685
0.570047
0.566198
0.5635
0.561969
0.563602
36.0597
12.8757
5.82531
3.22259
2.03577
1.51612
1.24832
1.08272
0.979786
0.915471
0.875068
0.849577
0.833409
0.823043
0.816198
0.811343
0.807398
0.803703
0.800901
0.810108
36.0597
12.8757
5.8253
3.22259
2.03577
1.51612
1.24833
1.08273
0.979793
0.915474
0.875068
0.849573
0.8334
0.823029
0.816186
0.811336
0.807395
0.803699
0.800888
0.810076
12.6874
8.16186
5.09491
3.25351
2.17135
1.53867
1.16371
0.936651
0.796872
0.709808
0.655141
0.620562
0.598514
0.584538
0.575708
0.570073
0.566213
0.563509
0.561976
0.563618
11.5706
7.57238
5.04329
3.43425
2.4096
1.75662
1.33924
1.07119
0.898052
0.785743
0.712745
0.665331
0.634621
0.61481
0.601989
0.593573
0.587889
0.583852
0.580875
0.578912
11.4725
7.50696
5.06897
3.52661
2.53215
1.88293
1.4554
1.17197
0.983159
0.857052
0.772826
0.716729
0.679552
0.655064
0.638894
0.628088
0.620695
0.615304
0.610908
0.606703
11.4609
7.50301
5.08631
3.56389
2.58172
1.93695
1.50827
1.22061
1.02637
0.894838
0.805785
0.745686
0.705358
0.678483
0.660526
0.648391
0.640002
0.633797
0.628606
0.623309
11.4609
7.50301
5.08631
3.56389
2.58173
1.93696
1.50828
1.22062
1.02637
0.894841
0.805791
0.7457
0.705385
0.678526
0.660556
0.648401
0.640003
0.633795
0.628601
0.623298
11.4725
7.50696
5.06897
3.52662
2.53216
1.88294
1.45541
1.17198
0.983164
0.857059
0.772843
0.71677
0.679644
0.655121
0.638876
0.628069
0.620673
0.615271
0.610842
0.606555
11.5706
7.57238
5.04329
3.43425
2.4096
1.75662
1.33924
1.07119
0.898051
0.785746
0.712756
0.665357
0.634671
0.614836
0.60197
0.593548
0.587851
0.583765
0.58064
0.578279
12.6874
8.16186
5.09491
3.25351
2.17134
1.53866
1.1637
0.93664
0.796867
0.709809
0.655148
0.620577
0.598547
0.584561
0.575681
0.570033
0.566151
0.56333
0.561469
0.561811
36.0597
12.8757
5.82531
3.22259
2.03578
1.51613
1.24831
1.08273
0.979799
0.915484
0.875079
0.849587
0.83342
0.823057
0.816221
0.811381
0.807461
0.803799
0.800659
0.805661
38.7053
13.0776
5.80526
3.21343
2.03249
1.52453
1.25587
1.09018
0.987866
0.924318
0.884571
0.859523
0.843648
0.833502
0.8268
0.821979
0.817953
0.814028
0.810858
0.822316
12.9049
8.34688
5.10306
3.21019
2.12243
1.498
1.13221
0.912756
0.778541
0.695386
0.643069
0.609951
0.588604
0.576598
0.568728
0.563378
0.559659
0.557046
0.555875
0.558601
11.6212
7.61036
5.03217
3.39175
2.35593
1.70382
1.29253
1.03175
0.865297
0.758507
0.689796
0.645627
0.617297
0.59925
0.587678
0.580107
0.575005
0.57141
0.56888
0.567608
11.4905
7.5171
5.05247
3.48726
2.48055
1.82836
1.4036
1.1256
0.942854
0.822397
0.742962
0.690702
0.656467
0.634164
0.619592
0.609939
0.603382
0.598644
0.594872
0.591495
11.4725
7.50696
5.06897
3.52662
2.53216
1.88294
1.45541
1.17199
0.983164
0.857054
0.77283
0.716735
0.679561
0.655076
0.638906
0.628092
0.620689
0.615282
0.61085
0.606559
11.4725
7.50696
5.06897
3.52662
2.53216
1.88296
1.45541
1.17197
0.983154
0.85705
0.772831
0.716742
0.679578
0.655105
0.638926
0.628098
0.620694
0.615298
0.610895
0.606672
11.4905
7.5171
5.05248
3.48726
2.48055
1.82837
1.4036
1.12558
0.942841
0.822392
0.742967
0.690723
0.656523
0.634192
0.619564
0.609919
0.603367
0.598633
0.594862
0.591481
11.6212
7.61036
5.03216
3.39174
2.35592
1.70378
1.29246
1.0317
0.865269
0.758497
0.689796
0.645637
0.617322
0.59926
0.58766
0.580088
0.574961
0.571273
0.568454
0.56636
12.9049
8.34688
5.10306
3.21018
2.12237
1.4978
1.13154
0.912544
0.778482
0.695377
0.643079
0.609973
0.588662
0.576592
0.568684
0.563344
0.559571
0.556715
0.554587
0.553964
38.7053
13.0776
5.80526
3.21344
2.03252
1.52465
1.25619
1.09043
0.988029
0.924415
0.884633
0.859577
0.843745
0.833605
0.826872
0.822058
0.818103
0.81431
0.810408
0.809974
45.0249
13.498
5.8014
3.20284
2.02357
1.53761
1.27055
1.1082
1.00891
0.947424
0.90881
0.883931
0.868213
0.858352
0.851883
0.847091
0.842935
0.838586
0.834282
0.847778
13.6678
8.74292
5.10406
3.11382
2.02585
1.42276
1.07785
0.874514
0.749978
0.673784
0.627581
0.598885
0.583493
0.57329
0.56661
0.562187
0.559006
0.556537
0.555096
0.557857
11.859
7.76902
5.01905
3.29079
2.23307
1.59007
1.19785
0.956258
0.805633
0.711144
0.651519
0.613831
0.590303
0.57542
0.565903
0.559609
0.555443
0.55259
0.55055
0.549969
11.6212
7.61036
5.03217
3.39175
2.35593
1.70382
1.29254
1.03176
0.8653
0.758511
0.6898
0.645631
0.617302
0.599254
0.58768
0.580099
0.574966
0.571277
0.568459
0.566371
11.5706
7.57238
5.0433
3.43425
2.4096
1.75662
1.33924
1.07119
0.898053
0.785746
0.71275
0.66534
0.634633
0.614825
0.602001
0.593571
0.587865
0.583773
0.580645
0.57828
11.5706
7.57238
5.0433
3.43425
2.4096
1.75662
1.33922
1.07116
0.898041
0.785739
0.712748
0.66534
0.63464
0.614846
0.602008
0.593571
0.587882
0.583843
0.580862
0.578879
11.6212
7.61036
5.03217
3.39175
2.35593
1.70381
1.29252
1.03174
0.865287
0.758502
0.689793
0.645622
0.617285
0.599182
0.587605
0.580065
0.574983
0.571398
0.56887
0.56759
11.859
7.76902
5.01904
3.29078
2.23303
1.58998
1.1978
0.956229
0.805616
0.711132
0.651508
0.613811
0.590267
0.575396
0.5659
0.559629
0.555466
0.552601
0.550552
0.549963
13.6678
8.74292
5.10406
3.11381
2.02575
1.42225
1.07765
0.874451
0.749961
0.673779
0.627572
0.59885
0.583408
0.573302
0.566721
0.562256
0.558992
0.556361
0.554309
0.554594
45.0249
13.498
5.8014
3.20285
2.0236
1.53772
1.27076
1.10838
1.00904
0.947503
0.908883
0.884055
0.868454
0.858543
0.851899
0.847092
0.843066
0.839025
0.834115
0.82936
58.5881
14.6068
6.19044
3.52033
2.36819
1.8075
1.50222
1.32322
1.21454
1.14432
1.10049
1.07297
1.05603
1.0471
1.0408
1.03478
1.02932
1.02373
1.01586
1.01645
16.5382
9.50015
5.04559
2.93255
1.87981
1.32323
1.01617
0.840745
0.740071
0.678401
0.646308
0.625117
0.61189
0.603219
0.598018
0.594317
0.591647
0.589055
0.586796
0.590019
13.6678
8.74293
5.10406
3.11383
2.02585
1.42276
1.07785
0.87452
0.749985
0.673791
0.627587
0.59889
0.583497
0.573293
0.566611
0.562178
0.558965
0.55636
0.554316
0.554605
12.9049
8.34688
5.10306
3.21019
2.12243
1.498
1.13221
0.912762
0.778552
0.695398
0.643081
0.609961
0.588613
0.576606
0.568729
0.563358
0.559576
0.556719
0.5546
0.554027
12.6874
8.16186
5.09491
3.25351
2.17134
1.53864
1.16363
0.93663
0.796874
0.70982
0.655155
0.620578
0.598536
0.584578
0.575726
0.570063
0.566163
0.563335
0.561472
0.561827
12.6874
8.16186
5.09491
3.2535
2.17133
1.5386
1.16345
0.936566
0.796851
0.709811
0.655153
0.620586
0.598589
0.584887
0.575744
0.570011
0.566173
0.563489
0.561964
0.563599
12.9049
8.34688
5.10306
3.21018
2.1224
1.49793
1.13218
0.912739
0.778537
0.695388
0.643075
0.609945
0.588509
0.575763
0.568336
0.563221
0.559601
0.557024
0.555865
0.558591
13.6678
8.74292
5.10406
3.11381
2.02576
1.42227
1.07772
0.87448
0.749966
0.673775
0.627565
0.598831
0.583369
0.573243
0.566695
0.562259
0.559037
0.556542
0.555091
0.557848
16.5382
9.50015
5.04559
2.93254
1.87978
1.32313
1.01613
0.840736
0.740065
0.678392
0.646287
0.625052
0.611533
0.603478
0.598069
0.594551
0.591661
0.589025
0.586771
0.590005
58.5881
14.6068
6.19045
3.52032
2.36819
1.80763
1.50237
1.32333
1.21467
1.14438
1.10056
1.07326
1.05801
1.04803
1.03972
1.03373
1.02893
1.02406
1.01727
1.00304
90.5111
12.1525
4.42438
2.52714
1.70326
1.3316
1.14043
1.02343
0.952341
0.908121
0.880866
0.864083
0.853549
0.848004
0.844809
0.842115
0.839686
0.837432
0.836213
0.857285
58.5881
14.6068
6.19044
3.52033
2.36819
1.80751
1.50223
1.32323
1.21455
1.14433
1.1005
1.07298
1.05603
1.0471
1.04081
1.0348
1.02949
1.02433
1.01738
1.00305
45.0249
13.498
5.8014
3.20285
2.02358
1.53763
1.27058
1.10824
1.00895
0.947456
0.908839
0.883958
0.868243
0.858392
0.85195
0.847216
0.843186
0.839113
0.834156
0.829347
38.7053
13.0776
5.80526
3.21344
2.0325
1.52456
1.25593
1.09025
0.98793
0.924372
0.884615
0.859559
0.843682
0.833541
0.826858
0.822077
0.818129
0.814324
0.810392
0.809887
36.0597
12.8757
5.82531
3.2226
2.03579
1.51619
1.24848
1.08288
0.979909
0.91556
0.875128
0.849615
0.833428
0.823046
0.816206
0.81137
0.807454
0.803789
0.800634
0.805598
36.0597
12.8757
5.82531
3.22259
2.03579
1.51619
1.24847
1.08287
0.979901
0.915552
0.875123
0.849612
0.833425
0.823012
0.816184
0.811343
0.807404
0.803706
0.800895
0.810085
38.7053
13.0776
5.80526
3.21344
2.03251
1.52458
1.25593
1.09024
0.98791
0.924352
0.884607
0.859591
0.843848
0.833947
0.827134
0.822169
0.818046
0.814071
0.810878
0.822327
45.0249
13.498
5.8014
3.20285
2.02359
1.53767
1.27063
1.10825
1.00893
0.947433
0.908846
0.884052
0.8685
0.858666
0.852006
0.847108
0.84291
0.838548
0.834249
0.847756
58.5881
14.6068
6.19045
3.52033
2.36819
1.80761
1.50233
1.32328
1.21463
1.14435
1.10054
1.07326
1.05803
1.04807
1.03977
1.03377
1.0288
1.02349
1.01577
1.0164
90.5111
12.1526
4.42436
2.52717
1.70339
1.33146
1.14054
1.02371
0.952482
0.908159
0.88091
0.863781
0.854247
0.848753
0.844774
0.841723
0.83933
0.837187
0.836112
0.857286
1.1625
1.04945
1.0465
1.05289
1.05614
1.0599
1.06296
1.06526
1.06695
1.0682
1.06913
1.06978
1.07008
1.07043
1.07067
1.07077
1.07081
1.07082
1.07083
1.07085
1.07088
1.07093
1.07099
1.07088
1.07102
1.07105
1.07094
1.0709
1.07097
1.07084
1.07099
1.07099
1.0709
1.07084
1.07042
1.0713
1.07131
1.07108
1.07095
1.071
1.10284
1.08122
1.09089
1.10265
1.1101
1.1168
1.1222
1.12636
1.12946
1.13171
1.13331
1.13413
1.13498
1.13567
1.13618
1.13643
1.13656
1.13663
1.13668
1.13671
1.13673
1.13671
1.13646
1.13643
1.13663
1.13672
1.13672
1.13665
1.13636
1.13631
1.13651
1.13664
1.13663
1.13634
1.13555
1.13739
1.13715
1.13685
1.13669
1.13639
0.913594
0.871068
0.868287
0.872866
0.879317
0.885132
0.889806
0.893392
0.896071
0.898042
0.899484
0.900531
0.901304
0.90184
0.902208
0.902435
0.902577
0.902666
0.902725
0.902765
0.902797
0.902829
0.902854
0.902841
0.902781
0.902702
0.902631
0.902585
0.902579
0.902582
0.902569
0.90255
0.902558
0.902705
0.903404
0.903203
0.902923
0.902732
0.902629
0.902594
0.871415
0.835682
0.826779
0.829409
0.834272
0.839171
0.843389
0.846766
0.849355
0.851285
0.852709
0.853785
0.854615
0.855201
0.855608
0.855884
0.856065
0.856181
0.856255
0.856302
0.856331
0.856343
0.856339
0.85626
0.856123
0.855991
0.855893
0.855835
0.855826
0.855823
0.855791
0.855756
0.855718
0.855642
0.855417
0.855612
0.855723
0.85576
0.855769
0.85579
0.846894
0.818626
0.810224
0.810376
0.813666
0.817685
0.821426
0.824545
0.826994
0.828849
0.830231
0.831291
0.832234
0.832937
0.833421
0.833742
0.83395
0.834081
0.834164
0.834214
0.834239
0.83423
0.83415
0.833902
0.833671
0.833502
0.833389
0.833318
0.833276
0.833252
0.833235
0.833223
0.833214
0.833213
0.833247
0.833408
0.83338
0.833321
0.833274
0.833246
0.832459
0.813327
0.807884
0.808628
0.811811
0.815596
0.819141
0.822125
0.824488
0.826287
0.827615
0.828581
0.8293
0.829831
0.830212
0.830478
0.830659
0.830778
0.830855
0.830904
0.830933
0.830943
0.830927
0.830875
0.83081
0.830748
0.830696
0.830656
0.830629
0.830612
0.8306
0.830592
0.830588
0.830587
0.830594
0.83062
0.830619
0.830607
0.830594
0.830585
0.825427
0.817552
0.816155
0.818366
0.822021
0.825932
0.829491
0.832463
0.834808
0.83658
0.837863
0.838744
0.839413
0.839919
0.840281
0.840531
0.840698
0.840808
0.84088
0.840928
0.84096
0.84098
0.840987
0.840982
0.84097
0.84095
0.840928
0.840909
0.840894
0.840886
0.840882
0.840875
0.840869
0.840862
0.840857
0.840848
0.840834
0.840827
0.840828
0.840829
0.836881
0.840447
0.842734
0.846203
0.850377
0.854526
0.858199
0.861228
0.863604
0.865392
0.866652
0.867342
0.868114
0.868671
0.869039
0.869275
0.869425
0.86952
0.869584
0.869629
0.869666
0.869705
0.869755
0.869789
0.869783
0.86976
0.86974
0.869732
0.869751
0.869767
0.869752
0.869725
0.8697
0.86968
0.869654
0.869588
0.86957
0.869581
0.869613
0.869656
0.920065
0.90114
0.901138
0.905056
0.910036
0.914773
0.918813
0.922058
0.92457
0.926485
0.928017
0.929583
0.930022
0.930164
0.930284
0.930391
0.930466
0.930523
0.930567
0.930605
0.930644
0.930694
0.930753
0.930799
0.930816
0.930808
0.930792
0.930789
0.930807
0.930824
0.930819
0.930795
0.93076
0.9307
0.930499
0.929734
0.930055
0.930368
0.930555
0.930658
1.04969
1.07892
1.10618
1.12024
1.12988
1.1371
1.14259
1.14672
1.14978
1.152
1.15334
1.15487
1.15571
1.15615
1.15639
1.15651
1.15658
1.15664
1.15667
1.15671
1.15674
1.15674
1.15649
1.1565
1.15675
1.1569
1.15693
1.15688
1.15659
1.15655
1.15677
1.1569
1.15691
1.15683
1.15653
1.15733
1.15691
1.15674
1.15673
1.15648
1.16219
1.0489
1.04572
1.05121
1.05586
1.05983
1.06288
1.06518
1.06691
1.0682
1.06916
1.06979
1.0702
1.07047
1.0706
1.07065
1.07067
1.07068
1.07069
1.07073
1.07076
1.07082
1.07089
1.07078
1.07094
1.07098
1.0709
1.07087
1.07095
1.07083
1.07096
1.07099
1.0709
1.07086
1.07094
1.07127
1.07121
1.07097
1.07085
1.07091
1.05035
1.07997
1.10736
1.12303
1.13085
1.13754
1.14287
1.14695
1.14999
1.1522
1.15375
1.15453
1.15531
1.15599
1.15644
1.15665
1.15674
1.15678
1.15681
1.15683
1.15685
1.15683
1.15659
1.15658
1.15682
1.15695
1.15696
1.15691
1.15661
1.15657
1.15679
1.15693
1.1569
1.15654
1.15546
1.15725
1.15713
1.15698
1.1569
1.15662
0.634051
0.606794
0.603493
0.605004
0.611777
0.612115
0.613765
0.615499
0.61697
0.618166
0.619371
0.62341
0.624533
0.621541
0.620794
0.620707
0.620729
0.620759
0.620779
0.620802
0.620861
0.62126
0.624748
0.62538
0.622119
0.621155
0.620981
0.62131
0.624762
0.625371
0.622101
0.621153
0.621208
0.623429
0.627537
0.621748
0.62117
0.621008
0.621321
0.624737
0.583045
0.563046
0.555798
0.558247
0.559423
0.560925
0.562639
0.56425
0.565621
0.566736
0.567677
0.568695
0.569304
0.569301
0.569315
0.569365
0.569417
0.569458
0.569488
0.569513
0.569554
0.569677
0.570094
0.570263
0.569951
0.569743
0.56966
0.569721
0.570099
0.570245
0.569923
0.569719
0.569663
0.569668
0.568202
0.569195
0.569527
0.569608
0.569708
0.570069
0.577155
0.560732
0.55285
0.549601
0.549308
0.550286
0.551688
0.553094
0.554327
0.555335
0.556134
0.556764
0.557176
0.557423
0.55759
0.557706
0.557787
0.557842
0.55788
0.557909
0.557937
0.557984
0.558078
0.558169
0.558171
0.558146
0.558122
0.558121
0.558164
0.558186
0.55815
0.558119
0.558125
0.558255
0.558943
0.558318
0.558141
0.558094
0.55809
0.558117
0.573921
0.56096
0.554203
0.551431
0.550904
0.551633
0.552797
0.554021
0.555126
0.556046
0.556762
0.557227
0.557082
0.557137
0.557243
0.557344
0.557423
0.55748
0.55752
0.557552
0.557586
0.557648
0.557828
0.558427
0.558638
0.558705
0.55872
0.558725
0.558748
0.558754
0.558733
0.558718
0.558715
0.558727
0.558721
0.55825
0.558537
0.558639
0.55867
0.558682
0.568105
0.559252
0.554643
0.552874
0.552805
0.553616
0.554774
0.555972
0.557058
0.557972
0.558707
0.559279
0.559652
0.559896
0.560069
0.560191
0.560276
0.560335
0.560376
0.560407
0.560437
0.560477
0.560551
0.560628
0.560651
0.560652
0.560647
0.560648
0.560668
0.560675
0.560657
0.560642
0.560637
0.560645
0.560665
0.560651
0.560645
0.560632
0.560617
0.560608
0.558345
0.553848
0.551618
0.551118
0.551725
0.55288
0.554207
0.555484
0.556605
0.557539
0.558312
0.558981
0.559333
0.559538
0.559694
0.559807
0.559887
0.559941
0.55998
0.560009
0.560038
0.560078
0.560156
0.560198
0.560178
0.560162
0.560151
0.560157
0.560204
0.560218
0.56018
0.560157
0.56015
0.560167
0.560222
0.560284
0.560254
0.560188
0.560149
0.560153
0.552638
0.550665
0.549924
0.550392
0.551637
0.553221
0.554831
0.55629
0.557531
0.558564
0.559526
0.560952
0.560667
0.560702
0.560799
0.560886
0.560951
0.560997
0.56103
0.561057
0.561087
0.561137
0.561228
0.561282
0.561256
0.561221
0.5612
0.561212
0.561274
0.561308
0.561268
0.561226
0.561208
0.561242
0.561386
0.561669
0.561502
0.561319
0.561234
0.561235
0.567004
0.561565
0.559923
0.560822
0.562598
0.564609
0.566529
0.568204
0.569591
0.570741
0.571756
0.571036
0.57232
0.572832
0.573036
0.573141
0.573202
0.57324
0.573267
0.573293
0.573339
0.573477
0.573931
0.574123
0.573794
0.573578
0.573498
0.573579
0.573995
0.574163
0.573816
0.57359
0.573509
0.573625
0.574302
0.576164
0.574423
0.573712
0.573608
0.573952
0.634079
0.606802
0.603725
0.605626
0.608379
0.611074
0.613444
0.61539
0.616969
0.618489
0.622738
0.624028
0.621185
0.620548
0.620528
0.62058
0.620628
0.620661
0.620686
0.620712
0.620776
0.621182
0.624675
0.625317
0.622063
0.621112
0.620947
0.621284
0.624743
0.625357
0.622087
0.621121
0.620948
0.621265
0.624564
0.623151
0.621402
0.621036
0.62128
0.624686
1.10213
1.07998
1.08942
1.10011
1.10931
1.11652
1.12209
1.12629
1.1294
1.13164
1.133
1.13436
1.13524
1.13574
1.13605
1.13621
1.1363
1.13635
1.13639
1.13642
1.13645
1.13645
1.13621
1.13622
1.13646
1.1366
1.13663
1.13659
1.13632
1.13628
1.13649
1.1366
1.13663
1.13658
1.13635
1.13729
1.13686
1.13661
1.13653
1.13627
0.92049
0.901757
0.901655
0.904944
0.910109
0.915001
0.9191
0.922353
0.924848
0.926713
0.928085
0.929045
0.929699
0.930101
0.930383
0.930494
0.930557
0.930593
0.930619
0.930641
0.930668
0.930708
0.930761
0.930804
0.930819
0.93081
0.930795
0.930794
0.930815
0.930836
0.930837
0.930822
0.930791
0.930715
0.930468
0.929856
0.930249
0.930548
0.930698
0.930774
0.566884
0.561482
0.560289
0.562896
0.563772
0.56517
0.566803
0.568346
0.569663
0.570738
0.571657
0.572678
0.573296
0.573244
0.573219
0.573242
0.573272
0.573299
0.573316
0.573335
0.573374
0.573507
0.573956
0.574143
0.573812
0.573592
0.57351
0.573589
0.574005
0.574172
0.573832
0.573616
0.573622
0.574007
0.574829
0.576275
0.574412
0.57373
0.573648
0.573997
0.547487
0.541917
0.539291
0.539277
0.53993
0.540973
0.542185
0.543376
0.544437
0.545334
0.546081
0.546734
0.547186
0.547399
0.547522
0.547605
0.54766
0.547698
0.547724
0.547747
0.547779
0.547846
0.547986
0.548057
0.547997
0.547934
0.547902
0.547925
0.548035
0.548087
0.548016
0.547952
0.547932
0.547952
0.547868
0.548014
0.548024
0.547961
0.547941
0.547994
0.560051
0.555352
0.552473
0.551304
0.551311
0.551924
0.552885
0.553895
0.55483
0.555635
0.556305
0.556859
0.557255
0.557498
0.557657
0.557762
0.55783
0.557875
0.557907
0.557933
0.557963
0.558011
0.558094
0.558147
0.558143
0.558131
0.558119
0.55813
0.558171
0.558192
0.558175
0.558154
0.558163
0.558213
0.558339
0.558329
0.558243
0.55817
0.558123
0.558103
0.570373
0.566495
0.564076
0.563015
0.562963
0.563466
0.564316
0.565242
0.566122
0.566896
0.567549
0.568094
0.568452
0.568656
0.568796
0.568891
0.568955
0.568999
0.569031
0.56906
0.569099
0.569165
0.569288
0.569389
0.569407
0.569406
0.569404
0.569418
0.569463
0.569482
0.569462
0.569442
0.56945
0.569489
0.569586
0.569569
0.569496
0.569438
0.569391
0.569363
0.572422
0.569564
0.567894
0.56729
0.567432
0.568058
0.568931
0.569856
0.570728
0.571499
0.572159
0.572731
0.573138
0.573375
0.57353
0.57363
0.573695
0.573738
0.57377
0.5738
0.573839
0.573902
0.574015
0.574069
0.574053
0.574026
0.574012
0.574025
0.574072
0.574091
0.574068
0.574045
0.574053
0.57409
0.574182
0.574196
0.574134
0.574055
0.573995
0.57396
0.565804
0.56375
0.5627
0.562546
0.56293
0.563744
0.564715
0.565695
0.566597
0.567383
0.568056
0.568636
0.569031
0.569265
0.56942
0.569522
0.56959
0.569635
0.569667
0.569696
0.56973
0.569782
0.569868
0.569914
0.5699
0.569873
0.569861
0.569874
0.56992
0.569941
0.569919
0.569898
0.569907
0.569953
0.570064
0.570068
0.57
0.569916
0.569855
0.56982
0.554183
0.551954
0.550813
0.550705
0.551223
0.552197
0.553293
0.55436
0.555314
0.556133
0.55683
0.557441
0.557786
0.55799
0.558132
0.558228
0.558292
0.558335
0.558366
0.558392
0.558422
0.558469
0.558544
0.558587
0.558577
0.558553
0.558541
0.558554
0.5586
0.558625
0.558604
0.558579
0.558581
0.558618
0.558715
0.558772
0.558716
0.558624
0.558557
0.558527
0.547747
0.542276
0.539502
0.538986
0.539607
0.540747
0.542057
0.543322
0.544416
0.545346
0.546121
0.546582
0.546979
0.547255
0.547431
0.547542
0.547611
0.547654
0.547684
0.54771
0.547745
0.547815
0.547955
0.548029
0.54797
0.547908
0.54788
0.547908
0.54802
0.548075
0.548001
0.547933
0.547909
0.547956
0.54812
0.548216
0.548118
0.547984
0.547927
0.547966
0.584921
0.56543
0.557773
0.557215
0.558618
0.560536
0.562473
0.564192
0.565628
0.566844
0.568079
0.568853
0.568977
0.569071
0.569177
0.569262
0.569325
0.569363
0.56939
0.569415
0.569457
0.569585
0.570006
0.570181
0.569876
0.569681
0.56961
0.569684
0.570073
0.570226
0.569905
0.569698
0.569622
0.569693
0.570084
0.570391
0.569898
0.569678
0.569695
0.570035
0.912832
0.869907
0.867163
0.872837
0.879447
0.88526
0.889923
0.893505
0.896186
0.898161
0.899596
0.900607
0.901278
0.901694
0.901944
0.902092
0.90218
0.902235
0.902274
0.902306
0.90234
0.902385
0.902444
0.902491
0.902507
0.902501
0.90249
0.902494
0.90252
0.902543
0.90254
0.902523
0.902511
0.902523
0.902559
0.902541
0.902567
0.902546
0.902521
0.902517
0.837534
0.841521
0.843884
0.847098
0.851093
0.855145
0.858772
0.861784
0.864157
0.865955
0.867274
0.868205
0.868796
0.86913
0.869347
0.869463
0.869518
0.869552
0.86958
0.869599
0.86962
0.869649
0.869694
0.86973
0.86973
0.869717
0.869709
0.869715
0.869746
0.869772
0.869765
0.869749
0.869741
0.869755
0.869808
0.870063
0.869947
0.869833
0.869775
0.869768
0.551315
0.549009
0.548467
0.550191
0.551717
0.553298
0.554856
0.556276
0.557486
0.558471
0.559262
0.559916
0.560408
0.560687
0.560848
0.560943
0.560999
0.561032
0.561054
0.561071
0.561093
0.561136
0.561221
0.561272
0.561246
0.561212
0.561193
0.561208
0.561274
0.561312
0.561279
0.561248
0.56125
0.561304
0.561319
0.56066
0.561163
0.561224
0.561227