/*--------------------------------*- C++ -*----------------------------------*\
| =========                 |                                                 |
| \\      /  F ield         | OpenFOAM: The Open Source CFD Toolbox           |
|  \\    /   O peration     | Version:  2212                                  |
|   \\  /    A nd           | Website:  www.openfoam.com                      |
|    \\/     M anipulation  |                                                 |
\*---------------------------------------------------------------------------*/
FoamFile
{
    version     2.0;
    format      ascii;
    arch        "LSB;label=32;scalar=64";
    class       volScalarField;
    location    "0.1";
    object      k;
}
// * * * * * * * * * * * * * * * * * * * * * * * * * * * * * * * * * * * * * //

dimensions      [0 2 -2 0 0 0 0];

internalField   nonuniform List<scalar> 
6840
(
0.213576
0.0559883
0.0284963
0.0195731
0.0149841
0.012473
0.0111175
0.0102355
0.00967016
0.00930055
0.00906212
0.00890905
0.00880928
0.0087494
0.00871266
0.0086854
0.00866373
0.00864494
0.00863593
0.00878845
0.264764
0.104811
0.0589519
0.040164
0.0304164
0.0249514
0.0217007
0.0196589
0.0183588
0.0174858
0.016913
0.0165378
0.0162942
0.0161462
0.0160456
0.0159624
0.0158937
0.0158244
0.0157307
0.0157165
0.283369
0.126875
0.0720847
0.0482395
0.0351366
0.0286009
0.0248133
0.0223171
0.020704
0.0196573
0.018973
0.0185159
0.0182123
0.0180131
0.0178793
0.0177828
0.0177039
0.0176271
0.0175532
0.0177368
0.292307
0.141741
0.0823152
0.0551475
0.0402529
0.0324912
0.0281459
0.025233
0.0233114
0.0220533
0.0212317
0.0206943
0.0203421
0.0201072
0.0199481
0.0198349
0.0197451
0.0196633
0.0195972
0.0197718
0.295952
0.148894
0.0875812
0.0586647
0.0428092
0.0343603
0.0297558
0.0266648
0.0246127
0.0232587
0.0223686
0.0217844
0.0214004
0.0211459
0.0209742
0.0208528
0.0207585
0.0206757
0.0206135
0.0207625
0.295952
0.148894
0.0875812
0.0586647
0.0428092
0.0343603
0.0297559
0.0266649
0.0246127
0.0232588
0.0223688
0.0217847
0.0214006
0.0211457
0.0209747
0.020854
0.0207602
0.0206781
0.0206109
0.0206872
0.292307
0.141741
0.0823152
0.0551476
0.0402529
0.0324912
0.0281459
0.025233
0.0233115
0.0220535
0.0212322
0.0206955
0.0203455
0.0201147
0.0199551
0.0198406
0.0197511
0.0196716
0.0195977
0.019568
0.283369
0.126875
0.0720847
0.0482395
0.0351366
0.0286009
0.0248134
0.0223172
0.0207042
0.0196576
0.0189737
0.0185176
0.018216
0.0180177
0.0178828
0.0177861
0.0177087
0.0176368
0.0175556
0.0174762
0.264764
0.104811
0.0589519
0.0401639
0.0304164
0.0249514
0.0217007
0.019659
0.0183589
0.0174861
0.0169135
0.0165401
0.0163072
0.0161539
0.0160389
0.0159572
0.0158926
0.0158306
0.0157513
0.015599
0.213576
0.0559883
0.0284964
0.0195731
0.0149842
0.012473
0.0111175
0.0102356
0.00967015
0.00930061
0.00906288
0.0089078
0.0088121
0.00875351
0.00871287
0.00868396
0.0086622
0.00864372
0.00863508
0.00878733
0.264764
0.104811
0.058952
0.040164
0.0304164
0.0249515
0.0217007
0.0196589
0.0183588
0.0174858
0.0169131
0.0165378
0.0162942
0.0161462
0.0160457
0.0159627
0.0158957
0.0158325
0.0157529
0.0156014
0.311767
0.197815
0.131393
0.0935842
0.071259
0.0576424
0.049213
0.0439246
0.0405626
0.038406
0.0369876
0.0360541
0.0354388
0.0350349
0.034763
0.0345666
0.0343995
0.0342242
0.0339618
0.0333678
0.317573
0.218082
0.152173
0.111047
0.0853067
0.0690868
0.0587864
0.0522027
0.0479707
0.0452308
0.0434367
0.0422537
0.0414626
0.0409323
0.0405714
0.0403122
0.0400982
0.0398837
0.0396144
0.0391841
0.319765
0.227436
0.163372
0.121341
0.0940584
0.0764392
0.0650366
0.0576141
0.052757
0.0495645
0.0474583
0.0460648
0.0451378
0.0445111
0.0440803
0.0437702
0.043523
0.0432924
0.0430456
0.0427429
0.320533
0.231245
0.168347
0.126142
0.0982696
0.0800409
0.0681409
0.0603361
0.0551926
0.051788
0.0495268
0.0480215
0.0470162
0.0463391
0.0458735
0.0455379
0.0452733
0.0450354
0.0447985
0.0445553
0.320533
0.231245
0.168347
0.126142
0.0982696
0.0800409
0.0681409
0.0603361
0.0551927
0.0517882
0.0495271
0.0480218
0.0470165
0.0463392
0.0458747
0.0455401
0.0452763
0.0450391
0.0448024
0.04456
0.319765
0.227436
0.163372
0.121341
0.0940584
0.0764392
0.0650367
0.0576142
0.0527573
0.049565
0.047459
0.0460661
0.0451404
0.0445168
0.0440873
0.0437777
0.0435321
0.0433055
0.0430679
0.0427941
0.317573
0.218082
0.152173
0.111047
0.0853067
0.0690869
0.0587864
0.0522029
0.047971
0.0452313
0.0434376
0.0422553
0.0414654
0.0409381
0.0405788
0.0403189
0.0401066
0.0398969
0.0396375
0.0392171
0.311767
0.197815
0.131393
0.0935842
0.071259
0.0576424
0.049213
0.0439247
0.0405628
0.0384064
0.0369885
0.0360561
0.0354437
0.0350396
0.0347663
0.0345662
0.0343978
0.034222
0.0339589
0.0333628
0.264764
0.104811
0.058952
0.040164
0.0304164
0.0249514
0.0217007
0.019659
0.0183589
0.017486
0.0169135
0.01654
0.016307
0.0161534
0.0160382
0.0159564
0.0158901
0.0158225
0.0157293
0.0157139
0.283369
0.126875
0.0720847
0.0482396
0.0351366
0.028601
0.0248134
0.0223172
0.0207041
0.0196574
0.0189732
0.0185161
0.0182128
0.0180138
0.0178807
0.0177852
0.0177087
0.0176373
0.0175568
0.0174792
0.317573
0.218082
0.152173
0.111047
0.0853068
0.0690869
0.0587864
0.0522028
0.0479708
0.0452309
0.0434369
0.0422541
0.0414633
0.0409335
0.0405735
0.040316
0.0401057
0.0398975
0.0396394
0.0392212
0.322067
0.239503
0.178977
0.136611
0.107688
0.0882546
0.0753178
0.0667356
0.0610403
0.0572516
0.0547227
0.0530311
0.0518924
0.0511196
0.0505853
0.050198
0.0498865
0.0495909
0.0492612
0.048827
0.323378
0.246213
0.189134
0.147916
0.11876
0.0984943
0.0845858
0.0751101
0.068673
0.0643012
0.0613299
0.0593088
0.0579309
0.0569855
0.0563249
0.0558425
0.0554576
0.0551032
0.0547282
0.0542768
0.323811
0.248483
0.192876
0.152413
0.123449
0.103045
0.0888531
0.079059
0.0723256
0.0677024
0.0645292
0.0623514
0.0608552
0.0598217
0.0590953
0.0585629
0.0581385
0.0577511
0.0573455
0.0568613
0.323811
0.248483
0.192876
0.152413
0.123449
0.103046
0.0888532
0.0790591
0.0723257
0.0677025
0.0645294
0.0623517
0.0608557
0.0598224
0.0590961
0.0585639
0.0581396
0.0577522
0.0573458
0.0568587
0.323378
0.246213
0.189134
0.147916
0.11876
0.0984943
0.0845859
0.0751102
0.0686731
0.0643015
0.0613303
0.0593094
0.0579319
0.0569867
0.0563266
0.0558449
0.0554604
0.0551065
0.0547317
0.0542794
0.322067
0.239503
0.178977
0.136611
0.107688
0.0882546
0.0753178
0.0667357
0.0610404
0.0572518
0.0547232
0.0530317
0.0518934
0.0511212
0.0505873
0.0501995
0.0498871
0.0495907
0.0492605
0.0488256
0.317573
0.218082
0.152173
0.111047
0.0853067
0.0690868
0.0587864
0.0522028
0.0479708
0.0452311
0.0434372
0.0422544
0.0414633
0.0409341
0.040574
0.040313
0.0400978
0.0398826
0.0396128
0.0391813
0.283369
0.126875
0.0720847
0.0482395
0.0351366
0.0286009
0.0248134
0.0223171
0.0207041
0.0196574
0.0189734
0.018517
0.0182146
0.0180149
0.0178792
0.0177818
0.0177027
0.0176259
0.0175518
0.0177336
0.292307
0.141741
0.0823152
0.0551476
0.040253
0.0324912
0.028146
0.025233
0.0233115
0.0220534
0.0212319
0.0206946
0.0203426
0.020108
0.0199494
0.0198372
0.0197493
0.0196709
0.0195977
0.0195691
0.319765
0.227436
0.163372
0.121341
0.0940584
0.0764392
0.0650367
0.0576142
0.0527572
0.0495648
0.0474586
0.0460653
0.0451386
0.0445125
0.0440827
0.0437743
0.04353
0.0433046
0.0430682
0.0427956
0.323378
0.246213
0.189134
0.147916
0.11876
0.0984943
0.0845859
0.0751101
0.068673
0.0643013
0.06133
0.059309
0.0579312
0.056986
0.0563257
0.0558439
0.0554597
0.0551062
0.0547319
0.0542803
0.324409
0.251659
0.198192
0.158943
0.130409
0.109928
0.0954042
0.0851957
0.078059
0.0730847
0.0696239
0.0672191
0.0655481
0.0643816
0.0635536
0.0629416
0.0624494
0.0619946
0.0615078
0.0609038
0.324731
0.253315
0.201219
0.162993
0.135039
0.114769
0.100208
0.0898272
0.0824666
0.0772657
0.0736006
0.0710235
0.0692128
0.0679354
0.0670194
0.0663368
0.0657863
0.0652755
0.0647245
0.0640316
0.324731
0.253315
0.201219
0.162993
0.135039
0.114769
0.100208
0.0898272
0.0824666
0.0772658
0.0736008
0.0710238
0.0692131
0.0679358
0.0670198
0.0663372
0.0657866
0.0652757
0.0647245
0.0640308
0.324409
0.251659
0.198192
0.158943
0.130409
0.109928
0.0954043
0.0851958
0.0780592
0.0730849
0.0696242
0.0672196
0.0655489
0.0643822
0.063554
0.062942
0.0624498
0.0619948
0.0615078
0.0609036
0.323378
0.246213
0.189134
0.147916
0.11876
0.0984943
0.0845859
0.0751102
0.0686731
0.0643014
0.0613302
0.0593093
0.0579316
0.0569862
0.0563255
0.0558432
0.0554581
0.0551035
0.0547283
0.0542768
0.319765
0.227436
0.163372
0.121341
0.0940584
0.0764392
0.0650366
0.0576142
0.0527572
0.0495647
0.0474585
0.0460651
0.045138
0.0445117
0.0440814
0.0437711
0.0435235
0.0432929
0.0430463
0.0427443
0.292307
0.141741
0.0823152
0.0551476
0.0402529
0.0324912
0.0281459
0.0252329
0.0233114
0.0220533
0.0212318
0.0206946
0.0203427
0.0201082
0.0199486
0.0198349
0.019745
0.0196633
0.0195976
0.0197734
0.295952
0.148894
0.0875812
0.0586647
0.0428093
0.0343603
0.0297559
0.0266649
0.0246127
0.0232587
0.0223687
0.0217846
0.0214006
0.0211464
0.0209749
0.0208539
0.0207601
0.020678
0.020611
0.0206874
0.320533
0.231245
0.168347
0.126142
0.0982697
0.080041
0.068141
0.0603361
0.0551926
0.0517881
0.049527
0.0480217
0.0470166
0.0463399
0.0458746
0.0455395
0.0452758
0.0450389
0.0448026
0.0445606
0.323811
0.248483
0.192876
0.152413
0.123449
0.103046
0.0888532
0.0790591
0.0723257
0.0677025
0.0645293
0.0623515
0.0608553
0.0598219
0.0590956
0.0585634
0.0581393
0.0577521
0.0573461
0.0568595
0.324731
0.253315
0.201219
0.162993
0.135039
0.114769
0.100208
0.0898272
0.0824666
0.0772657
0.0736006
0.0710235
0.0692127
0.0679353
0.0670194
0.0663369
0.0657864
0.0652757
0.0647247
0.0640313
0.325011
0.254739
0.203927
0.166778
0.139547
0.119647
0.105183
0.0947269
0.0872011
0.0818041
0.0779463
0.0751968
0.0732394
0.07184
0.0708201
0.0700486
0.0694417
0.0688735
0.0682448
0.0674419
0.325011
0.254739
0.203927
0.166778
0.139547
0.119647
0.105183
0.094727
0.0872012
0.0818042
0.0779465
0.075197
0.0732397
0.0718404
0.0708204
0.0700487
0.0694418
0.0688736
0.0682448
0.0674418
0.324731
0.253315
0.201219
0.162993
0.135039
0.114769
0.100208
0.0898274
0.0824668
0.077266
0.073601
0.0710241
0.0692136
0.0679359
0.0670195
0.0663369
0.0657865
0.0652757
0.0647248
0.0640318
0.323811
0.248483
0.192876
0.152413
0.123449
0.103046
0.0888534
0.0790593
0.0723259
0.0677027
0.0645296
0.0623519
0.0608558
0.0598221
0.0590954
0.0585631
0.0581388
0.0577515
0.057346
0.056862
0.320533
0.231245
0.168347
0.126142
0.0982697
0.0800411
0.068141
0.0603362
0.0551927
0.0517883
0.0495271
0.0480218
0.0470166
0.0463396
0.0458741
0.0455384
0.0452738
0.0450359
0.0447993
0.0445567
0.295952
0.148894
0.0875812
0.0586647
0.0428093
0.0343603
0.0297558
0.0266648
0.0246126
0.0232587
0.0223687
0.0217845
0.0214005
0.0211463
0.0209746
0.0208532
0.0207588
0.020676
0.0206141
0.0207636
0.295952
0.148894
0.0875812
0.0586647
0.0428092
0.0343603
0.0297559
0.0266649
0.0246127
0.0232587
0.0223686
0.0217845
0.0214005
0.0211461
0.0209744
0.020853
0.0207586
0.0206759
0.0206139
0.0207632
0.320533
0.231245
0.168347
0.126142
0.0982696
0.080041
0.0681409
0.0603361
0.0551926
0.0517881
0.0495268
0.0480215
0.0470163
0.0463394
0.0458737
0.045538
0.0452734
0.0450356
0.0447989
0.0445561
0.323811
0.248483
0.192876
0.152413
0.123449
0.103046
0.0888532
0.0790591
0.0723257
0.0677025
0.0645293
0.0623514
0.0608552
0.0598217
0.0590952
0.0585629
0.0581385
0.0577513
0.0573459
0.0568619
0.324731
0.253315
0.201219
0.162993
0.135039
0.114769
0.100208
0.0898273
0.0824667
0.0772658
0.0736007
0.0710236
0.0692128
0.0679354
0.0670194
0.0663368
0.0657863
0.0652756
0.0647248
0.064032
0.325011
0.254739
0.203927
0.166778
0.139547
0.119647
0.105183
0.0947271
0.0872012
0.0818042
0.0779465
0.0751969
0.0732395
0.0718401
0.0708202
0.0700486
0.0694418
0.0688736
0.0682449
0.067442
0.325011
0.254739
0.203927
0.166778
0.139547
0.119647
0.105184
0.0947272
0.0872013
0.0818044
0.0779466
0.0751971
0.0732398
0.0718405
0.0708205
0.0700488
0.0694419
0.0688736
0.0682449
0.067442
0.324731
0.253315
0.201219
0.162993
0.135039
0.114769
0.100208
0.0898276
0.082467
0.0772662
0.0736012
0.0710242
0.0692137
0.067936
0.0670196
0.0663371
0.0657867
0.0652759
0.0647248
0.0640313
0.323811
0.248483
0.192876
0.152413
0.12345
0.103046
0.0888537
0.0790597
0.0723263
0.0677031
0.0645299
0.0623522
0.0608561
0.0598224
0.0590959
0.0585638
0.0581396
0.0577524
0.0573463
0.0568596
0.320533
0.231245
0.168347
0.126142
0.0982698
0.0800413
0.0681413
0.0603367
0.0551934
0.0517888
0.0495276
0.0480222
0.0470171
0.0463403
0.045875
0.04554
0.0452762
0.0450393
0.0448032
0.0445616
0.295952
0.148894
0.0875812
0.0586647
0.0428093
0.0343605
0.0297558
0.026665
0.0246129
0.023259
0.0223689
0.0217848
0.0214008
0.0211466
0.0209752
0.0208541
0.0207603
0.0206782
0.0206114
0.0206883
0.292307
0.141741
0.0823152
0.0551476
0.0402529
0.0324912
0.0281459
0.025233
0.0233114
0.0220533
0.0212318
0.0206944
0.0203421
0.0201073
0.0199482
0.019835
0.0197453
0.0196635
0.0195978
0.0197733
0.319765
0.227436
0.163372
0.121341
0.0940584
0.0764392
0.0650367
0.0576142
0.0527571
0.0495646
0.0474584
0.0460649
0.0451379
0.0445112
0.0440805
0.0437704
0.0435232
0.0432928
0.0430463
0.0427443
0.323378
0.246213
0.189134
0.147916
0.11876
0.0984944
0.084586
0.0751102
0.0686731
0.0643014
0.0613301
0.0593089
0.057931
0.0569857
0.056325
0.0558427
0.0554577
0.0551034
0.0547283
0.0542769
0.324409
0.251659
0.198192
0.158944
0.130409
0.109928
0.0954044
0.085196
0.0780593
0.073085
0.0696241
0.0672194
0.0655483
0.0643818
0.0635538
0.0629417
0.0624495
0.0619947
0.0615078
0.0609038
0.324731
0.253315
0.201219
0.162993
0.135039
0.114769
0.100208
0.0898276
0.082467
0.0772661
0.073601
0.0710239
0.0692131
0.0679357
0.0670197
0.0663371
0.0657866
0.0652758
0.0647247
0.0640311
0.324731
0.253315
0.201219
0.162993
0.135039
0.114769
0.100208
0.0898276
0.0824671
0.0772662
0.0736012
0.0710241
0.0692133
0.0679359
0.0670199
0.0663372
0.0657866
0.0652758
0.0647249
0.0640319
0.324409
0.251659
0.198192
0.158944
0.130409
0.109929
0.0954047
0.0851963
0.0780597
0.0730855
0.0696246
0.06722
0.0655491
0.0643823
0.0635541
0.0629421
0.0624499
0.0619949
0.0615081
0.060904
0.323378
0.246213
0.189134
0.147916
0.11876
0.0984946
0.0845865
0.0751113
0.0686743
0.0643025
0.061331
0.0593099
0.0579321
0.0569868
0.0563264
0.0558445
0.0554601
0.0551065
0.054732
0.0542802
0.319765
0.227436
0.163372
0.121341
0.0940583
0.0764396
0.0650406
0.0576189
0.0527606
0.049567
0.04746
0.0460662
0.0451391
0.0445132
0.0440838
0.0437751
0.0435304
0.0433048
0.0430682
0.0427958
0.292307
0.141741
0.0823152
0.0551476
0.0402532
0.032493
0.0281507
0.0252371
0.0233143
0.0220551
0.0212329
0.0206953
0.0203434
0.020109
0.0199499
0.0198372
0.019749
0.0196706
0.0195975
0.0195692
0.283369
0.126875
0.0720847
0.0482395
0.0351366
0.0286009
0.0248134
0.0223171
0.020704
0.0196573
0.0189731
0.0185159
0.0182124
0.0180132
0.0178794
0.0177829
0.0177039
0.017627
0.0175526
0.017734
0.317573
0.218082
0.152173
0.111047
0.0853068
0.0690869
0.0587864
0.0522028
0.0479708
0.0452309
0.0434369
0.0422538
0.0414628
0.0409325
0.0405716
0.0403123
0.0400982
0.0398835
0.0396137
0.039182
0.322067
0.239503
0.178977
0.136611
0.107688
0.0882547
0.075318
0.0667359
0.0610406
0.0572519
0.054723
0.0530314
0.0518927
0.0511199
0.0505855
0.0501982
0.0498865
0.0495907
0.0492607
0.048826
0.323378
0.246213
0.189134
0.147916
0.11876
0.0984945
0.0845862
0.0751106
0.0686736
0.0643019
0.0613306
0.0593094
0.0579316
0.0569864
0.056326
0.0558441
0.0554597
0.0551062
0.0547316
0.0542796
0.323811
0.248483
0.192876
0.152413
0.123449
0.103046
0.0888536
0.0790597
0.0723265
0.0677033
0.06453
0.0623522
0.0608559
0.0598224
0.059096
0.0585638
0.0581396
0.0577522
0.057346
0.056859
0.323811
0.248483
0.192876
0.152413
0.12345
0.103046
0.0888537
0.0790598
0.0723266
0.0677034
0.0645301
0.0623522
0.0608559
0.0598224
0.0590959
0.0585634
0.058139
0.0577516
0.057346
0.0568618
0.323378
0.246213
0.189134
0.147916
0.11876
0.0984948
0.0845867
0.075111
0.068674
0.0643022
0.0613308
0.0593097
0.0579318
0.0569864
0.0563259
0.0558437
0.0554586
0.055104
0.0547287
0.0542771
0.322067
0.239503
0.178977
0.136611
0.107688
0.0882552
0.0753192
0.0667372
0.0610417
0.0572527
0.0547237
0.053032
0.0518935
0.0511212
0.0505873
0.0501995
0.0498872
0.049591
0.0492608
0.0488262
0.317573
0.218082
0.152173
0.111047
0.085307
0.0690902
0.0587916
0.0522071
0.0479737
0.0452328
0.0434383
0.0422551
0.041464
0.0409352
0.0405761
0.0403169
0.0401054
0.0398963
0.0396377
0.0392182
0.283369
0.126875
0.0720847
0.0482396
0.0351369
0.0286039
0.0248168
0.0223199
0.0207061
0.0196587
0.0189742
0.0185175
0.0182151
0.0180156
0.0178805
0.0177842
0.0177075
0.0176361
0.0175555
0.0174767
0.264764
0.104811
0.058952
0.040164
0.0304164
0.0249515
0.0217008
0.0196591
0.018359
0.0174859
0.0169132
0.0165379
0.0162942
0.0161462
0.0160456
0.0159624
0.0158936
0.0158242
0.01573
0.0157146
0.311767
0.197815
0.131393
0.0935842
0.071259
0.0576425
0.0492133
0.0439249
0.0405629
0.0384063
0.0369879
0.0360544
0.035439
0.0350351
0.0347631
0.0345666
0.0343994
0.0342237
0.0339603
0.0333637
0.317573
0.218082
0.152173
0.111047
0.0853069
0.0690871
0.0587869
0.0522034
0.0479714
0.0452315
0.0434375
0.0422545
0.0414636
0.0409337
0.0405736
0.0403161
0.0401056
0.039897
0.0396381
0.0392178
0.319765
0.227436
0.163372
0.121341
0.0940586
0.0764396
0.0650376
0.0576154
0.0527584
0.0495658
0.0474595
0.046066
0.0451391
0.0445128
0.0440829
0.0437744
0.04353
0.0433044
0.0430676
0.0427943
0.320533
0.231245
0.168347
0.126142
0.0982697
0.0800413
0.0681424
0.0603382
0.0551946
0.0517898
0.0495282
0.0480227
0.0470172
0.0463402
0.0458748
0.0455398
0.045276
0.045039
0.0448026
0.0445605
0.320533
0.231245
0.168347
0.126142
0.0982697
0.0800414
0.068143
0.0603388
0.0551949
0.0517899
0.0495282
0.0480225
0.0470168
0.046339
0.045874
0.0455388
0.0452742
0.0450362
0.0447993
0.0445563
0.319765
0.227436
0.163372
0.121341
0.0940585
0.07644
0.0650383
0.057616
0.0527588
0.049566
0.0474595
0.0460662
0.0451399
0.0445158
0.0440852
0.043774
0.0435255
0.0432941
0.043047
0.0427446
0.317573
0.218082
0.152173
0.111047
0.085307
0.0690897
0.0587897
0.052205
0.0479722
0.0452318
0.0434377
0.0422551
0.0414648
0.040937
0.0405769
0.0403152
0.0400995
0.0398837
0.0396135
0.0391818
0.311767
0.197815
0.131393
0.0935844
0.07126
0.0576464
0.0492173
0.0439278
0.0405646
0.0384073
0.0369888
0.0360561
0.0354435
0.0350394
0.0347661
0.034566
0.0343977
0.0342221
0.0339592
0.0333635
0.264764
0.104811
0.058952
0.0401641
0.0304165
0.0249533
0.0217029
0.0196608
0.0183604
0.017487
0.0169139
0.0165401
0.016307
0.0161533
0.0160381
0.0159565
0.0158921
0.0158303
0.0157514
0.0155994
0.213576
0.0559883
0.0284964
0.0195731
0.0149842
0.012473
0.0111175
0.0102356
0.00967023
0.00930061
0.00906218
0.0089091
0.00880932
0.00874943
0.00871268
0.0086854
0.00866369
0.00864489
0.00863564
0.00878747
0.264764
0.104811
0.058952
0.040164
0.0304164
0.0249515
0.0217008
0.0196592
0.0183591
0.017486
0.0169133
0.016538
0.0162943
0.0161463
0.0160458
0.0159627
0.0158956
0.0158322
0.0157522
0.0155995
0.283369
0.126875
0.0720847
0.0482396
0.0351366
0.0286011
0.0248137
0.0223175
0.0207045
0.0196577
0.0189735
0.0185164
0.0182129
0.0180139
0.0178807
0.0177853
0.0177086
0.017637
0.0175559
0.0174765
0.292307
0.141741
0.0823152
0.0551476
0.040253
0.0324915
0.0281466
0.0252339
0.0233123
0.0220541
0.0212325
0.0206951
0.0203428
0.0201081
0.0199495
0.0198372
0.0197492
0.0196707
0.0195973
0.0195681
0.295952
0.148894
0.0875812
0.0586647
0.0428093
0.034361
0.0297578
0.0266669
0.0246144
0.0232601
0.0223697
0.0217852
0.021401
0.0211465
0.0209749
0.0208539
0.0207601
0.020678
0.020611
0.0206874
0.295952
0.148894
0.0875812
0.0586647
0.0428093
0.0343611
0.0297581
0.0266671
0.0246145
0.02326
0.0223696
0.0217851
0.0214008
0.0211456
0.0209743
0.0208532
0.0207589
0.0206761
0.020614
0.0207634
0.292307
0.141741
0.0823152
0.0551476
0.0402531
0.0324921
0.0281471
0.0252341
0.0233124
0.022054
0.0212325
0.0206955
0.0203453
0.0201141
0.0199539
0.0198385
0.0197472
0.0196645
0.0195983
0.0197736
0.283369
0.126875
0.0720847
0.0482396
0.0351369
0.0286034
0.0248153
0.0223183
0.0207047
0.0196578
0.0189737
0.0185174
0.0182156
0.018017
0.0178815
0.0177837
0.0177041
0.0176268
0.0175524
0.0177339
0.264764
0.104811
0.058952
0.0401641
0.0304166
0.0249532
0.0217026
0.0196604
0.0183601
0.0174867
0.0169138
0.0165401
0.0163071
0.0161537
0.0160386
0.0159567
0.0158903
0.0158227
0.0157295
0.0157142
0.213576
0.0559883
0.0284964
0.0195729
0.0149848
0.0124729
0.0111178
0.0102368
0.00967127
0.00930118
0.00906301
0.00890772
0.00881199
0.00875342
0.00871279
0.00868388
0.00866216
0.00864372
0.00863513
0.00878752
0.00961844
0.00889376
0.00886652
0.00889887
0.00891683
0.00894097
0.00896026
0.00897482
0.00898581
0.00899398
0.00899979
0.00900157
0.00900314
0.00900759
0.00901066
0.00901219
0.00901299
0.00901344
0.0090137
0.00901388
0.00901391
0.00901356
0.00901141
0.00900997
0.00901206
0.00901356
0.00901381
0.00901338
0.00901123
0.00900975
0.00901183
0.00901325
0.0090133
0.00901207
0.00900767
0.00901339
0.00901422
0.00901418
0.00901354
0.00901137
0.0147408
0.014516
0.0146142
0.0147228
0.0147878
0.0148562
0.0149113
0.0149536
0.0149854
0.0150089
0.0150255
0.0150275
0.0150327
0.015048
0.0150573
0.015062
0.0150645
0.0150659
0.0150667
0.0150672
0.0150673
0.0150659
0.0150567
0.0150528
0.0150602
0.0150652
0.0150663
0.0150651
0.0150555
0.0150517
0.0150591
0.0150644
0.0150647
0.0150584
0.0150447
0.0150643
0.0150669
0.0150669
0.0150653
0.0150554
0.0167219
0.0161501
0.0161011
0.0161543
0.0162352
0.0163111
0.0163737
0.0164228
0.0164604
0.0164886
0.0165095
0.0165242
0.0165354
0.0165444
0.0165511
0.0165556
0.0165586
0.0165605
0.0165617
0.0165626
0.016563
0.0165631
0.0165623
0.0165614
0.0165613
0.0165611
0.0165607
0.0165602
0.0165589
0.0165583
0.0165587
0.0165592
0.0165596
0.0165611
0.0165697
0.0165669
0.0165637
0.0165617
0.0165605
0.0165591
0.0186204
0.018087
0.0179443
0.0179735
0.0180407
0.0181123
0.0181762
0.018229
0.0182708
0.018303
0.0183273
0.0183458
0.0183603
0.0183712
0.018379
0.0183845
0.0183883
0.0183908
0.0183924
0.0183935
0.0183941
0.0183943
0.0183939
0.0183926
0.018391
0.0183894
0.0183883
0.0183875
0.0183869
0.0183866
0.0183864
0.0183862
0.0183858
0.0183846
0.0183809
0.0183838
0.0183856
0.0183863
0.0183864
0.0183864
0.0196854
0.0192373
0.019092
0.0190836
0.0191301
0.0191925
0.0192536
0.0193067
0.0193499
0.0193839
0.01941
0.0194305
0.0194485
0.0194621
0.0194717
0.0194782
0.0194827
0.0194856
0.0194875
0.0194887
0.0194894
0.0194894
0.0194882
0.0194843
0.0194807
0.0194782
0.0194765
0.0194754
0.0194747
0.0194743
0.0194741
0.0194739
0.0194738
0.0194738
0.0194743
0.0194769
0.0194764
0.0194755
0.0194747
0.0194743
0.0199287
0.0196196
0.0195201
0.0195213
0.0195665
0.0196259
0.0196846
0.0197362
0.0197788
0.0198125
0.0198383
0.0198577
0.0198725
0.0198836
0.0198917
0.0198975
0.0199015
0.0199043
0.0199061
0.0199073
0.0199081
0.0199084
0.0199083
0.0199075
0.0199066
0.0199057
0.019905
0.0199044
0.0199039
0.0199036
0.0199035
0.0199033
0.0199033
0.0199033
0.0199033
0.0199037
0.0199037
0.0199035
0.0199034
0.0199032
0.0193412
0.0192239
0.0191956
0.0192216
0.019273
0.0193323
0.0193892
0.0194389
0.0194798
0.019512
0.0195363
0.0195538
0.0195674
0.0195778
0.0195854
0.0195908
0.0195945
0.019597
0.0195987
0.0195999
0.0196006
0.0196011
0.0196012
0.0196011
0.019601
0.0196008
0.0196005
0.0196003
0.0196
0.0195998
0.0195998
0.0195997
0.0195997
0.0195996
0.0195994
0.0195992
0.0195989
0.0195989
0.019599
0.019599
0.0181434
0.0181694
0.0181964
0.0182391
0.0182938
0.0183514
0.0184049
0.0184508
0.0184883
0.0185176
0.0185388
0.0185513
0.0185654
0.0185761
0.0185834
0.0185883
0.0185916
0.0185937
0.0185951
0.0185961
0.0185968
0.0185972
0.0185975
0.0185977
0.0185978
0.0185978
0.0185978
0.0185976
0.0185975
0.0185974
0.0185974
0.0185974
0.0185973
0.0185969
0.0185961
0.0185947
0.0185947
0.0185952
0.0185958
0.0185961
0.0168691
0.0165569
0.0165372
0.0165796
0.0166383
0.0166965
0.0167479
0.0167906
0.0168245
0.0168509
0.0168713
0.0168928
0.016901
0.0169056
0.0169091
0.0169119
0.0169139
0.0169153
0.0169163
0.016917
0.0169174
0.0169175
0.0169168
0.0169165
0.0169175
0.0169183
0.0169186
0.0169183
0.0169174
0.0169168
0.0169175
0.0169181
0.0169182
0.0169173
0.0169137
0.016903
0.0169077
0.0169126
0.0169152
0.0169156
0.014233
0.0144852
0.0147558
0.0148919
0.0149824
0.0150499
0.0151021
0.0151422
0.0151727
0.0151948
0.0152014
0.0152125
0.0152301
0.0152396
0.0152444
0.015247
0.0152486
0.0152497
0.0152503
0.0152508
0.0152509
0.0152494
0.0152397
0.0152363
0.0152442
0.0152499
0.0152515
0.0152503
0.0152405
0.0152365
0.0152444
0.0152499
0.0152513
0.01525
0.0152401
0.0152445
0.0152463
0.0152486
0.0152483
0.0152394
0.00961676
0.00889084
0.00886277
0.00889197
0.00891853
0.00894202
0.00896043
0.00897468
0.00898554
0.00899353
0.00899721
0.00900088
0.00900583
0.00900912
0.00901089
0.00901185
0.00901242
0.00901276
0.00901301
0.0090132
0.00901325
0.00901295
0.00901076
0.00900947
0.00901163
0.00901318
0.00901354
0.00901318
0.00901108
0.00900965
0.00901172
0.00901323
0.00901354
0.00901315
0.00901108
0.00901246
0.00901311
0.00901324
0.00901284
0.00901088
0.0142387
0.0144943
0.0147655
0.0149101
0.0149793
0.0150478
0.015102
0.0151433
0.0151743
0.0151972
0.0152132
0.0152142
0.0152186
0.0152339
0.0152431
0.0152475
0.0152496
0.0152508
0.0152515
0.0152519
0.0152518
0.0152503
0.0152408
0.0152368
0.0152448
0.0152503
0.0152518
0.0152506
0.0152407
0.0152367
0.0152445
0.0152501
0.0152504
0.0152433
0.0152267
0.0152458
0.0152498
0.0152512
0.0152503
0.0152406
0.0295189
0.0303848
0.0308699
0.0311417
0.0313315
0.0314898
0.031613
0.0317073
0.0317788
0.0318323
0.0318701
0.031888
0.0319048
0.0319282
0.0319446
0.031954
0.0319594
0.0319626
0.0319645
0.0319658
0.0319661
0.0319641
0.0319544
0.0319503
0.0319581
0.031964
0.0319656
0.0319635
0.0319534
0.0319491
0.0319569
0.0319629
0.0319635
0.0319577
0.031949
0.0319538
0.0319612
0.0319644
0.0319631
0.0319535
0.0349868
0.0354404
0.0357822
0.0360479
0.036269
0.0364468
0.0365886
0.0367
0.0367861
0.0368516
0.0369006
0.0369368
0.0369635
0.0369834
0.0369983
0.0370087
0.0370156
0.0370201
0.0370231
0.0370251
0.0370262
0.0370265
0.0370263
0.0370254
0.0370245
0.0370243
0.0370239
0.0370231
0.0370223
0.0370214
0.0370212
0.0370218
0.0370225
0.0370241
0.0370288
0.0370257
0.0370247
0.0370239
0.037023
0.0370223
0.0389094
0.0390738
0.0392463
0.0394333
0.039616
0.0397798
0.0399199
0.0400352
0.0401275
0.0401995
0.0402549
0.0402971
0.0403293
0.0403532
0.0403705
0.0403827
0.0403911
0.0403968
0.0404007
0.0404032
0.0404048
0.0404055
0.0404054
0.040404
0.0404021
0.0404004
0.0403991
0.0403981
0.0403976
0.0403971
0.0403967
0.0403964
0.0403961
0.0403952
0.040393
0.040395
0.0403963
0.0403968
0.0403968
0.0403966
0.041386
0.0413874
0.0414604
0.0415852
0.0417337
0.0418819
0.0420154
0.0421293
0.0422228
0.0422971
0.0423551
0.0424
0.0424352
0.0424614
0.0424804
0.0424939
0.0425032
0.0425096
0.042514
0.0425169
0.0425187
0.0425195
0.0425191
0.0425169
0.0425142
0.0425121
0.0425105
0.0425094
0.0425088
0.0425084
0.0425079
0.0425077
0.0425076
0.0425077
0.0425085
0.0425096
0.0425092
0.0425085
0.0425079
0.0425075
0.0423584
0.0423125
0.042354
0.0424532
0.0425829
0.0427197
0.0428463
0.0429564
0.043048
0.0431214
0.0431789
0.043223
0.0432563
0.0432811
0.0432993
0.0433124
0.0433217
0.0433282
0.0433326
0.0433356
0.0433376
0.0433388
0.0433393
0.0433391
0.0433383
0.0433373
0.0433365
0.0433358
0.0433355
0.0433352
0.0433348
0.0433346
0.0433345
0.0433346
0.0433349
0.043335
0.0433348
0.0433343
0.0433339
0.0433336
0.0419051
0.0418353
0.0418628
0.0419484
0.042067
0.0421955
0.0423157
0.042421
0.0425089
0.0425797
0.0426348
0.042677
0.0427086
0.0427322
0.0427495
0.0427619
0.0427706
0.0427766
0.0427808
0.0427836
0.0427856
0.0427869
0.0427876
0.0427879
0.0427878
0.0427876
0.0427873
0.0427871
0.0427869
0.0427867
0.0427865
0.0427863
0.0427863
0.0427863
0.0427865
0.0427864
0.0427858
0.0427852
0.0427849
0.0427847
0.040005
0.0399328
0.0399601
0.0400456
0.0401646
0.0402921
0.0404095
0.040511
0.0405949
0.0406616
0.0407123
0.0407484
0.0407794
0.0408024
0.0408188
0.0408301
0.0408378
0.0408431
0.0408467
0.0408491
0.0408509
0.040852
0.0408529
0.0408533
0.0408535
0.0408537
0.0408538
0.0408538
0.0408538
0.0408536
0.0408534
0.0408534
0.0408533
0.040853
0.0408527
0.0408529
0.0408517
0.040851
0.040851
0.0408511
0.0363762
0.0364103
0.03652
0.0366731
0.0368317
0.0369745
0.0370962
0.0371962
0.037276
0.037338
0.0373855
0.037423
0.0374479
0.0374656
0.037478
0.0374865
0.0374923
0.0374962
0.0374988
0.0375007
0.0375019
0.0375025
0.0375027
0.0375026
0.0375031
0.0375043
0.0375049
0.0375048
0.0375043
0.0375037
0.0375036
0.0375044
0.0375045
0.0375034
0.0375002
0.037493
0.0374954
0.037499
0.0375008
0.0375014
0.0295062
0.0303656
0.030853
0.0311403
0.0313423
0.0314955
0.0316144
0.0317067
0.0317772
0.0318289
0.0318588
0.0318881
0.0319162
0.0319343
0.0319452
0.0319519
0.0319561
0.0319589
0.0319607
0.031962
0.0319625
0.0319606
0.0319512
0.0319475
0.0319557
0.0319622
0.0319643
0.0319625
0.0319527
0.0319486
0.0319564
0.0319625
0.0319642
0.0319618
0.0319506
0.0319453
0.0319533
0.0319592
0.0319593
0.0319509
0.0147348
0.0145052
0.0146022
0.0147061
0.0147916
0.0148594
0.0149127
0.0149539
0.0149851
0.0150077
0.0150149
0.0150252
0.0150428
0.0150526
0.0150578
0.0150608
0.0150625
0.0150636
0.0150643
0.0150648
0.0150649
0.0150636
0.0150543
0.0150511
0.0150587
0.015064
0.0150655
0.0150644
0.0150551
0.0150514
0.0150589
0.0150641
0.0150655
0.0150644
0.0150555
0.0150612
0.0150628
0.0150642
0.0150635
0.0150543
0.0168742
0.0165647
0.0165429
0.0165758
0.0166358
0.0166967
0.0167498
0.0167933
0.0168276
0.0168538
0.0168733
0.0168866
0.0168961
0.0169037
0.0169092
0.0169127
0.0169148
0.0169161
0.0169169
0.0169174
0.0169177
0.0169177
0.016917
0.0169166
0.0169175
0.0169183
0.0169187
0.0169184
0.0169175
0.0169169
0.0169178
0.0169184
0.0169183
0.0169167
0.0169127
0.0169045
0.0169103
0.016915
0.0169171
0.016917
0.0363857
0.0364224
0.0365307
0.0366749
0.0368321
0.0369763
0.0370993
0.0372002
0.0372804
0.0373426
0.0373894
0.0374236
0.0374481
0.0374661
0.0374795
0.0374886
0.0374946
0.0374984
0.0375009
0.0375026
0.0375036
0.037504
0.037504
0.0375037
0.037504
0.037505
0.0375055
0.0375053
0.0375048
0.0375041
0.0375041
0.037505
0.0375053
0.0375051
0.0375043
0.0374986
0.0375009
0.0375036
0.0375045
0.0375044
0.0449353
0.0450941
0.0452625
0.0454444