/*--------------------------------*- C++ -*----------------------------------*\
| =========                 |                                                 |
| \\      /  F ield         | OpenFOAM: The Open Source CFD Toolbox           |
|  \\    /   O peration     | Version:  2212                                  |
|   \\  /    A nd           | Website:  www.openfoam.com                      |
|    \\/     M anipulation  |                                                 |
\*---------------------------------------------------------------------------*/
FoamFile
{
    version     2.0;
    format      ascii;
    arch        "LSB;label=32;scalar=64";
    class       volScalarField;
    location    "0.1";
    object      nut;
}
// * * * * * * * * * * * * * * * * * * * * * * * * * * * * * * * * * * * * * //

dimensions      [0 2 -1 0 0 0 0];

internalField   nonuniform List<scalar> 
6840
(
4.5357e-05
2.32151e-05
1.65184e-05
1.36437e-05
1.18639e-05
1.05151e-05
9.75417e-06
9.2132e-06
8.83736e-06
8.57276e-06
8.39067e-06
8.26709e-06
8.18271e-06
8.12462e-06
8.08699e-06
8.06215e-06
8.04512e-06
8.03182e-06
8.02639e-06
8.10703e-06
0.000107684
6.7686e-05
5.05263e-05
4.12413e-05
3.51595e-05
3.09997e-05
2.82136e-05
2.62867e-05
2.49761e-05
2.40475e-05
2.3394e-05
2.2941e-05
2.26274e-05
2.24076e-05
2.22632e-05
2.2161e-05
2.20871e-05
2.20141e-05
2.19219e-05
2.18669e-05
0.000160508
0.000107331
8.06114e-05
6.53903e-05
5.49089e-05
4.78803e-05
4.36135e-05
4.04483e-05
3.82384e-05
3.67067e-05
3.56488e-05
3.49071e-05
3.43835e-05
3.40217e-05
3.37729e-05
3.35982e-05
3.34647e-05
3.33466e-05
3.32369e-05
3.33895e-05
0.000198678
0.000138263
0.000105046
8.51777e-05
7.17478e-05
6.23214e-05
5.67713e-05
5.25631e-05
4.95088e-05
4.73552e-05
4.5865e-05
4.48425e-05
4.41443e-05
4.36558e-05
4.33161e-05
4.30771e-05
4.28982e-05
4.27489e-05
4.26293e-05
4.27913e-05
0.000218606
0.000154962
0.000118507
9.6115e-05
8.10192e-05
7.00845e-05
6.38349e-05
5.91017e-05
5.56449e-05
5.31823e-05
5.14612e-05
5.02731e-05
4.94577e-05
4.88973e-05
4.85099e-05
4.82368e-05
4.80346e-05
4.78715e-05
4.77515e-05
4.78959e-05
0.000218606
0.000154962
0.000118507
9.6115e-05
8.10192e-05
7.00845e-05
6.3835e-05
5.91017e-05
5.5645e-05
5.31824e-05
5.14614e-05
5.02734e-05
4.9458e-05
4.88968e-05
4.85108e-05
4.8239e-05
4.80383e-05
4.78764e-05
4.77537e-05
4.78119e-05
0.000198678
0.000138263
0.000105046
8.51777e-05
7.17478e-05
6.23215e-05
5.67714e-05
5.25632e-05
4.9509e-05
4.73555e-05
4.58655e-05
4.48436e-05
4.41478e-05
4.36633e-05
4.33255e-05
4.30865e-05
4.29095e-05
4.27666e-05
4.26531e-05
4.25516e-05
0.000160508
0.000107331
8.06114e-05
6.53903e-05
5.49089e-05
4.78803e-05
4.36136e-05
4.04484e-05
3.82385e-05
3.67068e-05
3.56489e-05
3.49076e-05
3.43845e-05
3.40246e-05
3.37779e-05
3.36046e-05
3.3474e-05
3.33644e-05
3.32543e-05
3.3145e-05
0.000107684
6.7686e-05
5.05263e-05
4.12413e-05
3.51595e-05
3.09997e-05
2.82136e-05
2.62867e-05
2.49762e-05
2.40476e-05
2.33935e-05
2.29404e-05
2.262e-05
2.24076e-05
2.22659e-05
2.21674e-05
2.20914e-05
2.20241e-05
2.19504e-05
2.18343e-05
4.5357e-05
2.32151e-05
1.65184e-05
1.36437e-05
1.18639e-05
1.05151e-05
9.75417e-06
9.21322e-06
8.83736e-06
8.57256e-06
8.39111e-06
8.26708e-06
8.18086e-06
8.1248e-06
8.08755e-06
8.06311e-06
8.04569e-06
8.03195e-06
8.02629e-06
8.10672e-06
0.000107684
6.7686e-05
5.05263e-05
4.12413e-05
3.51595e-05
3.09997e-05
2.82136e-05
2.62867e-05
2.49761e-05
2.40475e-05
2.3394e-05
2.2941e-05
2.26274e-05
2.24077e-05
2.22635e-05
2.21614e-05
2.2089e-05
2.20237e-05
2.19507e-05
2.18356e-05
0.00052895
0.000370706
0.000307946
0.000268783
0.000243113
0.000225991
0.000214505
0.000206537
0.00020009
0.000195686
0.000190511
0.000187152
0.000184727
0.000183136
0.000181872
0.000180942
0.000180005
0.000178959
0.000176901
0.000169837
0.000664095
0.00048958
0.000408322
0.00035642
0.000323298
0.000301927
0.000288563
0.000280455
0.000276152
0.00027327
0.000270576
0.000268306
0.000265169
0.000263029
0.000261458
0.000260158
0.000258869
0.000257245
0.000254456
0.000247798
0.000713101
0.000557744
0.000470722
0.00041279
0.00037515
0.000351045
0.000336226
0.0003273
0.000321754
0.000317951
0.000315217
0.000313103
0.000311531
0.000309247
0.000307488
0.000306057
0.000304619
0.000302814
0.000299995
0.000294311
0.000728812
0.000589653
0.000500627
0.000440159
0.000400269
0.000374733
0.0003591
0.0003498
0.000344046
0.000340064
0.000336968
0.000334447
0.000332396
0.000330598
0.000328967
0.000327384
0.000325799
0.000323931
0.000321405
0.000316991
0.000728812
0.000589653
0.000500627
0.000440159
0.000400269
0.000374733
0.0003591
0.0003498
0.000344046
0.000340065
0.000336969
0.000334445
0.000332369
0.000330423
0.000328975
0.000327458
0.000325889
0.00032409
0.000321753
0.000318077
0.000713101
0.000557744
0.000470722
0.000412791
0.00037515
0.000351045
0.000336227
0.000327301
0.000321755
0.000317954
0.000315224
0.000313123
0.000311615
0.000309775
0.000307797
0.000306254
0.00030482
0.000303183
0.000301007
0.000297499
0.000664095
0.00048958
0.000408322
0.00035642
0.000323298
0.000301928
0.000288563
0.000280456
0.000276154
0.000273274
0.000270587
0.000268344
0.000265254
0.000263118
0.000261509
0.00026021
0.000258978
0.000257489
0.000255096
0.000249586
0.00052895
0.000370706
0.000307946
0.000268783
0.000243113
0.000225991
0.000214505
0.000206538
0.000200091
0.000195688
0.00019052
0.000187186
0.00018488
0.000183101
0.000181886
0.000180863
0.000179981
0.000178944
0.000176882
0.000169793
0.000107684
6.7686e-05
5.05263e-05
4.12413e-05
3.51595e-05
3.09997e-05
2.82136e-05
2.62867e-05
2.49762e-05
2.40476e-05
2.33935e-05
2.29404e-05
2.26198e-05
2.24072e-05
2.22653e-05
2.21668e-05
2.20888e-05
2.20149e-05
2.19216e-05
2.18656e-05
0.000160508
0.000107331
8.06114e-05
6.53903e-05
5.49089e-05
4.78803e-05
4.36136e-05
4.04484e-05
3.82385e-05
3.67069e-05
3.5649e-05
3.49075e-05
3.43842e-05
3.4023e-05
3.37751e-05
3.36022e-05
3.34725e-05
3.33638e-05
3.32547e-05
3.31477e-05
0.000664095
0.00048958
0.000408322
0.00035642
0.000323298
0.000301928
0.000288563
0.000280456
0.000276153
0.000273272
0.000270578
0.000268311
0.000265177
0.000263044
0.000261485
0.000260212
0.000258983
0.000257501
0.000255129
0.000249702
0.000787204
0.000664504
0.000574402
0.0005104
0.000467382
0.000440862
0.000426222
0.000419166
0.000416237
0.000414823
0.00041367
0.000412343
0.000410563
0.00040873
0.000406962
0.00040526
0.000403247
0.000400543
0.000396712
0.000390194
0.000809865
0.000716901
0.000639772
0.000580561
0.000538792
0.000512438
0.000498193
0.000492113
0.000490514
0.000490595
0.000490759
0.000490344
0.000489295
0.000487714
0.000485853
0.000483799
0.000481386
0.000478246
0.000473856
0.000467109
0.000815589
0.000733842
0.000663873
0.000608773
0.000569213
0.000544029
0.000530555
0.000525147
0.000524235
0.000525014
0.000525801
0.000525892
0.000525195
0.000523855
0.000522098
0.000520006
0.000517455
0.000514117
0.000509525
0.000502668
0.000815589
0.000733842
0.000663873
0.000608773
0.000569213
0.000544029
0.000530555
0.000525147
0.000524235
0.000525015
0.000525802
0.000525893
0.000525193
0.000523844
0.000522103
0.000520031
0.000517499
0.000514205
0.000509726
0.000503155
0.000809865
0.000716901
0.000639772
0.000580561
0.000538792
0.000512438
0.000498192
0.000492113
0.000490515
0.000490598
0.000490765
0.000490356
0.000489315
0.000487784
0.000485937
0.000483875
0.000481479
0.000478417
0.00047427
0.000468187
0.000787204
0.000664504
0.000574402
0.0005104
0.000467382
0.000440862
0.000426222
0.000419166
0.000416238
0.000414826
0.000413677
0.000412359
0.000410594
0.000408763
0.000406986
0.000405261
0.000403234
0.000400525
0.000396681
0.000390128
0.000664095
0.00048958
0.000408322
0.00035642
0.000323298
0.000301927
0.000288563
0.000280456
0.000276153
0.000273272
0.000270582
0.000268326
0.000265211
0.00026304
0.000261434
0.000260127
0.000258848
0.000257227
0.000254422
0.000247679
0.000160508
0.000107331
8.06114e-05
6.53903e-05
5.49089e-05
4.78803e-05
4.36135e-05
4.04484e-05
3.82385e-05
3.67067e-05
3.56486e-05
3.49069e-05
3.43829e-05
3.40218e-05
3.3774e-05
3.3599e-05
3.34651e-05
3.33466e-05
3.32362e-05
3.33867e-05
0.000198678
0.000138263
0.000105046
8.51777e-05
7.17478e-05
6.23215e-05
5.67714e-05
5.25632e-05
4.95089e-05
4.73555e-05
4.58654e-05
4.48431e-05
4.41452e-05
4.36573e-05
4.33186e-05
4.30814e-05
4.29062e-05
4.27649e-05
4.26522e-05
4.2552e-05
0.000713101
0.000557744
0.000470722
0.000412791
0.00037515
0.000351045
0.000336227
0.000327301
0.000321755
0.000317953
0.000315221
0.000313109
0.000311543
0.000309268
0.000307525
0.000306125
0.000304763
0.000303163
0.000301014
0.000297549
0.000809865
0.000716901
0.000639772
0.000580561
0.000538792
0.000512438
0.000498193
0.000492113
0.000490514
0.000490596
0.00049076
0.000490347
0.0004893
0.000487724
0.000485871
0.000483832
0.000481456
0.000478409
0.000474274
0.000468197
0.000824305
0.000758259
0.000699695
0.000651995
0.000617035
0.000594841
0.000583628
0.000580358
0.000581631
0.000584544
0.000587211
0.000588764
0.000589051
0.000588256
0.000586706
0.000584563
0.000581711
0.000577806
0.000572376
0.000564392
0.000827242
0.000769305
0.000718889
0.000677987
0.000648145
0.00062959
0.000620959
0.000619643
0.000622552
0.000626916
0.000630847
0.000633419
0.000634438
0.00063408
0.000632714
0.000630559
0.000627528
0.00062324
0.000617183
0.000608245
0.000827242
0.000769305
0.000718889
0.000677987
0.000648145
0.00062959
0.000620959
0.000619643
0.000622552
0.000626916
0.000630845
0.000633414
0.000634425
0.000634054
0.000632697
0.000630559
0.000627538
0.000623264
0.000617236
0.000608361
0.000824305
0.000758259
0.000699695
0.000651995
0.000617035
0.00059484
0.000583628
0.000580357
0.000581631
0.000584543
0.000587208
0.00058875
0.000589007
0.000588234
0.000586728
0.000584582
0.000581726
0.000577817
0.000572386
0.000564411
0.000809865
0.000716901
0.000639772
0.000580561
0.000538792
0.000512438
0.000498192
0.000492113
0.000490514
0.000490596
0.000490759
0.00049034
0.000489281
0.000487711
0.000485871
0.000483812
0.000481394
0.000478251
0.000473862
0.00046713
0.000713101
0.000557744
0.000470722
0.000412791
0.00037515
0.000351045
0.000336226
0.0003273
0.000321754
0.000317952
0.000315215
0.000313095
0.000311502
0.000309258
0.000307522
0.000306073
0.000304628
0.000302822
0.000300014
0.000294378
0.000198678
0.000138263
0.000105046
8.51777e-05
7.17478e-05
6.23215e-05
5.67714e-05
5.25632e-05
4.95089e-05
4.73553e-05
4.5865e-05
4.48423e-05
4.41433e-05
4.36563e-05
4.33171e-05
4.30779e-05
4.28988e-05
4.27493e-05
4.26296e-05
4.27922e-05
0.000218606
0.000154962
0.000118507
9.6115e-05
8.10192e-05
7.00845e-05
6.3835e-05
5.91017e-05
5.5645e-05
5.31824e-05
5.14614e-05
5.02733e-05
4.94582e-05
4.88983e-05
4.85113e-05
4.82388e-05
4.80378e-05
4.78761e-05
4.77536e-05
4.7812e-05
0.000728812
0.000589653
0.000500628
0.000440159
0.000400269
0.000374733
0.0003591
0.0003498
0.000344046
0.000340065
0.00033697
0.000334452
0.000332408
0.000330629
0.000328994
0.000327416
0.00032586
0.000324076
0.000321747
0.00031807
0.000815589
0.000733842
0.000663873
0.000608773
0.000569213
0.00054403
0.000530555
0.000525147
0.000524235
0.000525015
0.000525802
0.000525894
0.000525201
0.000523869
0.000522115
0.000520028
0.000517493
0.000514199
0.000509719
0.000503133
0.000827242
0.000769305
0.000718889
0.000677987
0.000648145
0.00062959
0.000620959
0.000619644
0.000622553
0.000626917
0.000630848
0.000633422
0.000634444
0.000634091
0.000632727
0.00063057
0.000627541
0.000623261
0.000617223
0.000608328
0.000829507
0.000778394
0.000735852
0.00070242
0.000678852
0.000665166
0.000660174
0.000661631
0.000666783
0.000673054
0.000678603
0.000682474
0.000684422
0.000684599
0.000683386
0.000681088
0.000678112
0.000673592
0.000666815
0.000656757
0.000829507
0.000778394
0.000735852
0.00070242
0.000678852
0.000665166
0.000660173
0.000661629
0.000666782
0.000673052
0.0006786
0.000682464
0.000684401
0.000684561
0.000683358
0.000681079
0.000678112
0.000673595
0.000666822
0.00065677
0.000827242
0.000769305
0.000718889
0.000677987
0.000648145
0.00062959
0.000620958
0.000619642
0.000622552
0.000626914
0.000630839
0.000633394
0.000634371
0.000634043
0.000632741
0.000630584
0.000627548
0.000623255
0.000617194
0.000608257
0.000815589
0.000733842
0.000663873
0.000608773
0.000569213
0.00054403
0.000530555
0.000525148
0.000524236
0.000525015
0.000525798
0.00052588
0.000525167
0.000523848
0.000522123
0.00052003
0.000517474
0.000514132
0.000509539
0.000502689
0.000728812
0.000589653
0.000500628
0.000440159
0.000400269
0.000374733
0.0003591
0.0003498
0.000344047
0.000340066
0.000336969
0.000334445
0.000332389
0.000330611
0.000328997
0.000327406
0.000325812
0.000323942
0.00032142
0.000317027
0.000218606
0.000154962
0.000118507
9.6115e-05
8.10193e-05
7.00847e-05
6.38351e-05
5.91019e-05
5.56452e-05
5.31825e-05
5.14614e-05
5.02731e-05
4.94576e-05
4.88976e-05
4.85105e-05
4.82374e-05
4.80351e-05
4.78718e-05
4.77519e-05
4.78968e-05
0.000218606
0.000154962
0.000118507
9.6115e-05
8.10192e-05
7.00845e-05
6.3835e-05
5.91017e-05
5.5645e-05
5.31823e-05
5.14612e-05
5.02731e-05
4.94578e-05
4.88976e-05
4.85101e-05
4.82369e-05
4.80346e-05
4.78715e-05
4.77517e-05
4.78966e-05
0.000728812
0.000589653
0.000500627
0.000440159
0.000400269
0.000374733
0.0003591
0.0003498
0.000344046
0.000340064
0.000336968
0.000334449
0.000332404
0.000330621
0.000328979
0.000327386
0.000325799
0.000323932
0.000321411
0.00031701
0.000815589
0.000733842
0.000663873
0.000608773
0.000569213
0.000544029
0.000530555
0.000525147
0.000524235
0.000525014
0.000525801
0.000525893
0.000525199
0.000523864
0.000522106
0.000520011
0.000517458
0.000514118
0.000509523
0.000502659
0.000827242
0.000769305
0.000718889
0.000677987
0.000648145
0.00062959
0.000620959
0.000619643
0.000622552
0.000626917
0.000630848
0.000633422
0.000634443
0.00063409
0.000632725
0.000630567
0.000627532
0.00062324
0.000617175
0.00060822
0.000829507
0.000778394
0.000735852
0.00070242
0.000678852
0.000665166
0.000660172
0.000661629
0.000666782
0.000673054
0.000678604
0.000682474
0.000684423
0.0006846
0.000683388
0.000681091
0.000678115
0.000673593
0.000666813
0.00065675
0.000829507
0.000778394
0.000735852
0.00070242
0.000678852
0.000665164
0.000660169
0.000661626
0.000666781
0.000673053
0.000678601
0.000682465
0.000684402
0.000684564
0.000683361
0.000681083
0.000678115
0.000673597
0.00066682
0.000656761
0.000827242
0.000769305
0.000718889
0.000677987
0.000648145
0.00062959
0.000620957
0.000619642
0.000622554
0.000626918
0.000630842
0.000633397
0.000634374
0.000634046
0.000632747
0.000630592
0.00062756
0.000623278
0.000617241
0.000608356
0.000815589
0.000733842
0.000663874
0.000608773
0.000569214
0.000544033
0.000530561
0.000525155
0.000524244
0.000525022
0.000525804
0.000525885
0.000525172
0.000523855
0.000522134
0.000520049
0.000517511
0.000514215
0.000509736
0.000503168
0.000728812
0.000589653
0.000500628
0.000440159
0.00040027
0.000374738
0.000359105
0.000349811
0.000344057
0.000340074
0.000336974
0.00033445
0.000332396
0.00033062
0.000329013
0.000327437
0.000325875
0.000324088
0.000321761
0.000318107
0.000218606
0.000154962
0.000118507
9.6115e-05
8.10193e-05
7.00851e-05
6.38358e-05
5.91025e-05
5.56458e-05
5.31831e-05
5.14619e-05
5.02736e-05
4.94582e-05
4.88984e-05
4.85118e-05
4.82393e-05
4.80383e-05
4.78764e-05
4.77538e-05
4.78122e-05
0.000198678
0.000138263
0.000105046
8.51777e-05
7.17478e-05
6.23214e-05
5.67713e-05
5.25631e-05
4.95088e-05
4.73553e-05
4.58651e-05
4.48426e-05
4.41443e-05
4.36559e-05
4.33162e-05
4.30771e-05
4.28982e-05
4.27491e-05
4.26296e-05
4.27921e-05
0.000713101
0.000557744
0.000470722
0.000412791
0.00037515
0.000351045
0.000336226
0.000327301
0.000321754
0.000317951
0.000315218
0.000313104
0.000311532
0.000309249
0.00030749
0.000306058
0.000304621
0.000302818
0.000300011
0.000294372
0.000809865
0.000716901
0.000639772
0.000580561
0.000538792
0.000512438
0.000498193
0.000492113
0.000490514
0.000490596
0.00049076
0.000490345
0.000489295
0.000487715
0.000485854
0.000483801
0.000481388
0.000478246
0.000473855
0.000467115
0.000824305
0.000758259
0.000699695
0.000651995
0.000617035
0.000594841
0.000583628
0.000580357
0.000581631
0.000584545
0.000587213
0.000588764
0.000589051
0.000588257
0.000586706
0.000584565
0.000581713
0.000577807
0.000572374
0.000564391
0.000827242
0.000769305
0.000718889
0.000677987
0.000648145
0.000629589
0.000620955
0.00061964
0.000622554
0.00062692
0.00063085
0.000633422
0.00063444
0.000634084
0.000632719
0.000630569
0.000627543
0.000623265
0.000617231
0.000608348
0.000827242
0.000769305
0.000718889
0.000677987
0.000648144
0.000629585
0.000620956
0.000619651
0.000622561
0.000626925
0.000630852
0.000633419
0.000634428
0.00063406
0.000632702
0.000630563
0.000627538
0.000623249
0.000617189
0.000608249
0.000824305
0.000758259
0.000699695
0.000651996
0.000617036
0.000594841
0.000583633
0.000580372
0.000581645
0.000584555
0.000587217
0.000588756
0.000589014
0.00058824
0.000586736
0.000584591
0.000581733
0.000577822
0.000572388
0.000564408
0.000809865
0.000716902
0.000639772
0.000580562
0.000538797
0.000512453
0.000498229
0.000492153
0.000490546
0.000490619
0.000490775
0.000490352
0.000489293
0.000487726
0.000485892
0.000483849
0.000481467
0.000478414
0.000474274
0.000468201
0.000713101
0.000557745
0.000470722
0.000412792
0.000375158
0.000351095
0.000336466
0.000327429
0.000321821
0.000317986
0.000315235
0.00031311
0.000311518
0.00030928
0.000307559
0.000306142
0.000304771
0.000303166
0.000301014
0.000297552
0.000198678
0.000138263
0.000105046
8.51777e-05
7.17477e-05
6.23233e-05
5.67762e-05
5.25681e-05
4.95126e-05
4.7358e-05
4.58669e-05
4.48438e-05
4.41447e-05
4.36581e-05
4.33198e-05
4.30823e-05
4.29068e-05
4.27651e-05
4.26519e-05
4.25519e-05
0.000160508
0.000107331
8.06114e-05
6.53903e-05
5.49089e-05
4.78803e-05
4.36135e-05
4.04483e-05
3.82384e-05
3.67067e-05
3.56488e-05
3.49071e-05
3.43835e-05
3.40217e-05
3.3773e-05
3.35982e-05
3.34646e-05
3.33465e-05
3.32364e-05
3.33869e-05
0.000664095
0.00048958
0.000408322
0.00035642
0.000323298
0.000301928
0.000288563
0.000280455
0.000276152
0.00027327
0.000270576
0.000268307
0.000265169
0.00026303
0.000261458
0.000260158
0.000258867
0.000257238
0.000254428
0.00024768
0.000787204
0.000664504
0.000574402
0.000510401
0.000467383
0.000440862
0.000426222
0.000419166
0.000416238
0.000414825
0.000413672
0.000412345
0.000410564
0.00040873
0.000406961
0.000405259
0.000403245
0.000400534
0.000396687
0.000390128
0.000809865
0.000716902
0.000639772
0.000580561
0.000538793
0.000512439
0.000498194
0.000492115
0.000490518
0.0004906
0.000490764
0.000490349
0.000489301
0.000487723
0.000485869
0.000483832
0.000481456
0.000478406
0.000474264
0.000468182
0.000815589
0.000733842
0.000663874
0.000608773
0.000569214
0.000544032
0.00053056
0.000525155
0.000524246
0.000525025
0.00052581
0.000525899
0.0005252
0.000523864
0.000522109
0.000520029
0.000517498
0.000514205
0.000509727
0.000503157
0.000815589
0.000733842
0.000663874
0.000608773
0.000569214
0.000544033
0.000530568
0.000525168
0.000524255
0.000525031
0.000525813
0.000525899
0.000525196
0.000523847
0.000522101
0.000520024
0.000517473
0.000514132
0.000509537
0.000502686
0.000809865
0.000716902
0.000639772
0.000580562
0.000538796
0.000512447
0.000498205
0.000492131
0.000490532
0.000490611
0.000490774
0.000490361
0.000489318
0.000487782
0.00048593
0.000483854
0.000481421
0.000478266
0.00047387
0.000467133
0.000787204
0.000664504
0.000574402
0.000510402
0.000467391
0.000440892
0.000426254
0.000419196
0.000416262
0.000414844
0.000413689
0.000412367
0.000410601
0.000408769
0.000406992
0.000405267
0.00040324
0.000400531
0.000396687
0.000390135
0.000664095
0.00048958
0.000408322
0.000356422
0.000323315
0.000302064
0.000288666
0.000280522
0.000276192
0.000273296
0.000270598
0.000268339
0.000265224
0.000263059
0.000261465
0.000260185
0.000258965
0.000257485
0.000255098
0.000249599
0.000160508
0.000107331
8.06114e-05
6.53904e-05
5.49094e-05
4.78866e-05
4.36184e-05
4.04518e-05
3.82411e-05
3.67089e-05
3.56503e-05
3.49084e-05
3.43843e-05
3.40234e-05
3.37764e-05
3.36032e-05
3.3473e-05
3.33638e-05
3.32539e-05
3.31451e-05
0.000107684
6.7686e-05
5.05263e-05
4.12413e-05
3.51595e-05
3.09997e-05
2.82136e-05
2.62867e-05
2.49762e-05
2.40475e-05
2.33941e-05
2.29411e-05
2.26274e-05
2.24077e-05
2.22633e-05
2.2161e-05
2.2087e-05
2.20139e-05
2.19215e-05
2.18656e-05
0.00052895
0.000370706
0.000307946
0.000268783
0.000243113
0.000225992
0.000214506
0.000206538
0.000200091
0.000195687
0.000190512
0.000187153
0.000184728
0.000183136
0.000181871
0.000180941
0.000180004
0.000178954
0.000176888
0.000169795
0.000664095
0.00048958
0.000408322
0.00035642
0.000323298
0.000301929
0.000288566
0.00028046
0.000276156
0.000273275
0.000270581
0.000268313
0.000265178
0.000263044
0.000261484
0.000260211
0.000258981
0.000257493
0.0002551
0.000249589
0.000713101
0.000557744
0.000470722
0.000412791
0.000375151
0.000351049
0.000336236
0.000327312
0.000321765
0.000317961
0.000315227
0.000313113
0.000311544
0.000309267
0.000307523
0.000306125
0.000304762
0.000303159
0.000300998
0.000297497
0.000728812
0.000589653
0.000500628
0.000440159
0.000400271
0.000374742
0.000359139
0.000349832
0.00034407
0.000340081
0.00033698
0.000334456
0.000332404
0.000330609
0.000328985
0.000327417
0.000325865
0.000324081
0.000321752
0.000318082
0.000728812
0.000589653
0.000500628
0.000440159
0.000400272
0.000374753
0.000359201
0.000349862
0.000344083
0.000340087
0.000336981
0.00033445
0.000332369
0.000330419
0.000328963
0.000327433
0.000325833
0.000323952
0.000321423
0.000317023
0.000713101
0.000557745
0.000470722
0.000412792
0.000375155
0.000351068
0.000336252
0.000327328
0.000321775
0.000317968
0.000315231
0.000313124
0.00031161
0.000309761
0.000307768
0.000306193
0.000304685
0.000302849
0.000300025
0.000294382
0.000664095
0.00048958
0.000408322
0.000356422
0.000323314
0.000302055
0.000288629
0.00028049
0.000276172
0.000273285
0.000270594
0.000268347
0.000265252
0.000263109
0.000261487
0.000260163
0.000258869
0.000257238
0.000254428
0.000247682
0.00052895
0.000370706
0.000307947
0.000268785
0.000243123
0.00022604
0.00021455
0.000206567
0.000200109
0.0001957
0.000190528
0.00018719
0.000184883
0.000183103
0.000181887
0.000180864
0.000179982
0.000178946
0.000176884
0.000169797
0.000107684
6.76861e-05
5.05263e-05
4.12416e-05
3.51597e-05
3.1002e-05
2.82163e-05
2.62892e-05
2.49775e-05
2.40492e-05
2.33948e-05
2.29412e-05
2.26203e-05
2.24075e-05
2.22656e-05
2.21671e-05
2.20912e-05
2.2024e-05
2.19504e-05
2.18344e-05
4.5357e-05
2.32151e-05
1.65184e-05
1.36437e-05
1.18639e-05
1.05151e-05
9.75417e-06
9.21321e-06
8.83738e-06
8.57279e-06
8.3907e-06
8.26712e-06
8.18274e-06
8.12464e-06
8.087e-06
8.06215e-06
8.04509e-06
8.03178e-06
8.02628e-06
8.10672e-06
0.000107684
6.7686e-05
5.05263e-05
4.12413e-05
3.51595e-05
3.09997e-05
2.82136e-05
2.62868e-05
2.49763e-05
2.40476e-05
2.33941e-05
2.29411e-05
2.26275e-05
2.24078e-05
2.22635e-05
2.21614e-05
2.2089e-05
2.20235e-05
2.19502e-05
2.18343e-05
0.000160508
0.000107331
8.06114e-05
6.53903e-05
5.49088e-05
4.78803e-05
4.36136e-05
4.04486e-05
3.82387e-05
3.67071e-05
3.56493e-05
3.49078e-05
3.43844e-05
3.40231e-05
3.37752e-05
3.36023e-05
3.34725e-05
3.33636e-05
3.32539e-05
3.31449e-05
0.000198678
0.000138263
0.000105046
8.51777e-05
7.17477e-05
6.23215e-05
5.67715e-05
5.25635e-05
4.95095e-05
4.7356e-05
4.58659e-05
4.48436e-05
4.41456e-05
4.36575e-05
4.33188e-05
4.30815e-05
4.29062e-05
4.27648e-05
4.26521e-05
4.25514e-05
0.000218606
0.000154962
0.000118507
9.61149e-05
8.1019e-05
7.00842e-05
6.38353e-05
5.91026e-05
5.56462e-05
5.31835e-05
5.14624e-05
5.02741e-05
4.94587e-05
4.88984e-05
4.85114e-05
4.82389e-05
4.80379e-05
4.78762e-05
4.77537e-05
4.7812e-05
0.000218606
0.000154962
0.000118507
9.61149e-05
8.10191e-05
7.00847e-05
6.38373e-05
5.9104e-05
5.56469e-05
5.31839e-05
5.14624e-05
5.02739e-05
4.94582e-05
4.88965e-05
4.85099e-05
4.82374e-05
4.80353e-05
4.78721e-05
4.77521e-05
4.78968e-05
0.000198678
0.000138263
0.000105046
8.51777e-05
7.17478e-05
6.23227e-05
5.6773e-05
5.25651e-05
4.95106e-05
4.73567e-05
4.58662e-05
4.48438e-05
4.41474e-05
4.36623e-05
4.33233e-05
4.30824e-05
4.29017e-05
4.27511e-05
4.26306e-05
4.27927e-05
0.000160508
0.000107331
8.06114e-05
6.53904e-05
5.49095e-05
4.78867e-05
4.36176e-05
4.04508e-05
3.82402e-05
3.67081e-05
3.56497e-05
3.49079e-05
3.43842e-05
3.40237e-05
3.3776e-05
3.36008e-05
3.34664e-05
3.33475e-05
3.32368e-05
3.33871e-05
0.000107684
6.76861e-05
5.05263e-05
4.12416e-05
3.51598e-05
3.1002e-05
2.82162e-05
2.62891e-05
2.49773e-05
2.40491e-05
2.33946e-05
2.29411e-05
2.26202e-05
2.24076e-05
2.22656e-05
2.2167e-05
2.20889e-05
2.2015e-05
2.19218e-05
2.18657e-05
4.5357e-05
2.32151e-05
1.65185e-05
1.36433e-05
1.1864e-05
1.05159e-05
9.7537e-06
9.21281e-06
8.83798e-06
8.57347e-06
8.39182e-06
8.26746e-06
8.18102e-06
8.12487e-06
8.08755e-06
8.06308e-06
8.04568e-06
8.03195e-06
8.0263e-06
8.10679e-06
7.16241e-06
6.78349e-06
6.76097e-06
6.76904e-06
6.77549e-06
6.78806e-06
6.79775e-06
6.80517e-06
6.811e-06
6.81542e-06
6.81831e-06
6.81686e-06
6.81734e-06
6.82183e-06
6.82494e-06
6.82663e-06
6.8276e-06
6.82819e-06
6.82855e-06
6.82868e-06
6.82852e-06
6.82771e-06
6.82403e-06
6.82259e-06
6.82485e-06
6.82693e-06
6.82799e-06
6.8276e-06
6.82393e-06
6.82251e-06
6.82468e-06
6.82687e-06
6.82751e-06
6.82602e-06
6.82204e-06
6.82509e-06
6.82626e-06
6.82769e-06
6.82756e-06
6.82393e-06
1.77325e-05
1.75397e-05
1.76202e-05
1.76925e-05
1.77291e-05
1.77861e-05
1.78322e-05
1.78672e-05
1.78941e-05
1.79146e-05
1.79288e-05
1.79205e-05
1.79196e-05
1.79452e-05
1.79593e-05
1.79665e-05
1.79704e-05
1.79726e-05
1.79739e-05
1.79747e-05
1.79745e-05
1.79714e-05
1.79534e-05
1.79445e-05
1.79591e-05
1.79696e-05
1.79722e-05
1.79704e-05
1.79522e-05
1.79438e-05
1.79584e-05
1.79689e-05
1.79699e-05
1.79595e-05
1.79393e-05
1.79569e-05
1.79668e-05
1.79716e-05
1.79703e-05
1.79514e-05
2.7546e-05
2.69489e-05
2.68714e-05
2.69075e-05
2.69783e-05
2.70519e-05
2.71168e-05
2.71704e-05
2.72133e-05
2.72468e-05
2.72719e-05
2.72889e-05
2.73022e-05
2.73159e-05
2.73267e-05
2.73348e-05
2.73403e-05
2.7344e-05
2.73464e-05
2.73478e-05
2.73484e-05
2.73476e-05
2.73442e-05
2.73418e-05
2.73431e-05
2.73449e-05
2.73457e-05
2.73454e-05
2.73413e-05
2.73393e-05
2.73411e-05
2.73432e-05
2.73442e-05
2.73447e-05
2.7352e-05
2.7349e-05
2.7347e-05
2.7346e-05
2.7345e-05
2.73417e-05
3.58093e-05
3.52319e-05
3.50514e-05
3.5054e-05
3.51111e-05
3.51836e-05
3.52549e-05
3.53186e-05
3.53726e-05
3.54169e-05
3.5452e-05
3.54788e-05
3.55003e-05
3.5518e-05
3.55315e-05
3.55412e-05
3.55482e-05
3.5553e-05
3.55563e-05
3.55584e-05
3.55596e-05
3.55599e-05
3.55587e-05
3.55569e-05
3.55562e-05
3.55558e-05
3.55553e-05
3.55548e-05
3.55529e-05
3.55519e-05
3.55524e-05
3.55529e-05
3.55529e-05
3.55516e-05
3.55466e-05
3.55496e-05
3.55521e-05
3.55533e-05
3.55534e-05
3.55525e-05
4.11816e-05
4.06861e-05
4.04892e-05
4.0446e-05
4.0479e-05
4.05434e-05
4.06161e-05
4.06858e-05
4.07473e-05
4.0799e-05
4.08409e-05
4.08749e-05
4.09044e-05
4.0927e-05
4.09435e-05
4.09553e-05
4.09637e-05
4.09695e-05
4.09734e-05
4.09761e-05
4.09777e-05
4.09783e-05
4.09773e-05
4.09728e-05
4.09693e-05
4.0967e-05
4.09654e-05
4.09644e-05
4.09635e-05
4.09629e-05
4.09627e-05
4.09626e-05
4.09625e-05
4.09625e-05
4.09632e-05
4.09662e-05
4.09654e-05
4.09643e-05
4.09635e-05
4.0963e-05
4.29376e-05
4.25949e-05
4.24479e-05
4.24143e-05
4.24437e-05
4.25035e-05
4.25731e-05
4.26415e-05
4.27029e-05
4.27552e-05
4.2798e-05
4.28318e-05
4.28584e-05
4.28788e-05
4.28941e-05
4.29053e-05
4.29134e-05
4.29191e-05
4.29231e-05
4.29258e-05
4.29275e-05
4.29284e-05
4.29285e-05
4.2928e-05
4.29274e-05
4.29268e-05
4.29263e-05
4.29258e-05
4.29253e-05
4.29249e-05
4.29247e-05
4.29246e-05
4.29246e-05
4.29245e-05
4.29245e-05
4.29248e-05
4.29248e-05
4.29247e-05
4.29247e-05
4.29246e-05
4.0788e-05
4.06826e-05
4.06323e-05
4.06327e-05
4.06683e-05
4.07253e-05
4.07897e-05
4.08528e-05
4.09096e-05
4.0958e-05
4.09972e-05
4.10274e-05
4.10517e-05
4.10707e-05
4.1085e-05
4.10954e-05
4.11028e-05
4.11081e-05
4.11117e-05
4.11141e-05
4.11156e-05
4.11165e-05
4.11166e-05
4.11166e-05
4.11167e-05
4.11169e-05
4.11169e-05
4.11167e-05
4.11162e-05
4.11159e-05
4.11159e-05
4.1116e-05
4.11161e-05
4.1116e-05
4.11155e-05
4.1115e-05
4.11148e-05
4.1115e-05
4.11152e-05
4.11153e-05
3.54008e-05
3.53519e-05
3.53608e-05
3.53816e-05
3.54192e-05
3.54696e-05
3.55238e-05
3.55759e-05
3.56225e-05
3.56614e-05
3.56913e-05
3.57109e-05
3.57336e-05
3.57516e-05
3.57647e-05
3.57738e-05
3.57802e-05
3.57845e-05
3.57874e-05
3.57893e-05
3.57903e-05
3.57904e-05
3.57894e-05
3.57886e-05
3.57894e-05
3.57905e-05
3.57911e-05
3.57909e-05
3.57896e-05
3.57887e-05
3.57893e-05
3.57903e-05
3.57907e-05
3.57903e-05
3.57883e-05
3.57857e-05
3.57862e-05
3.57877e-05
3.57887e-05
3.57883e-05
2.78359e-05
2.73784e-05
2.73133e-05
2.73346e-05
2.73779e-05
2.74272e-05
2.7475e-05
2.75178e-05
2.75542e-05
2.75835e-05
2.76047e-05
2.76284e-05
2.76425e-05
2.76531e-05
2.7661e-05
2.76669e-05
2.76713e-05
2.76742e-05
2.76761e-05
2.76773e-05
2.76776e-05
2.76764e-05
2.76724e-05
2.767e-05
2.76726e-05
2.76754e-05
2.7677e-05
2.76762e-05
2.76725e-05
2.76702e-05
2.76727e-05
2.76754e-05
2.76767e-05
2.76756e-05
2.76695e-05
2.76573e-05
2.76632e-05
2.76701e-05
2.76729e-05
2.7671e-05
1.73691e-05
1.75026e-05
1.77151e-05
1.78169e-05
1.78803e-05
1.79273e-05
1.79649e-05
1.79955e-05
1.80199e-05
1.80377e-05
1.80323e-05
1.80348e-05
1.80635e-05
1.8079e-05
1.80866e-05
1.8091e-05
1.80936e-05
1.80952e-05
1.80963e-05
1.80969e-05
1.80965e-05
1.80932e-05
1.80739e-05
1.80658e-05
1.80806e-05
1.80918e-05
1.80951e-05
1.80931e-05
1.80743e-05
1.80655e-05
1.80807e-05
1.80918e-05
1.80951e-05
1.80932e-05
1.80742e-05
1.80722e-05
1.8083e-05
1.80911e-05
1.80907e-05
1.80734e-05
7.1618e-06
6.78253e-06
6.76028e-06
6.76938e-06
6.77991e-06
6.79014e-06
6.79858e-06
6.80545e-06
6.81089e-06
6.81473e-06
6.81422e-06
6.81572e-06
6.82065e-06
6.82391e-06
6.82578e-06
6.82692e-06
6.82764e-06
6.8281e-06
6.82837e-06
6.82846e-06
6.82829e-06
6.82749e-06
6.8237e-06
6.82243e-06
6.82472e-06
6.82678e-06
6.82785e-06
6.82748e-06
6.82384e-06
6.82244e-06
6.82471e-06
6.82679e-06
6.82789e-06
6.82754e-06
6.82388e-06
6.82383e-06
6.8252e-06
6.82698e-06
6.82713e-06
6.82375e-06
1.7372e-05
1.75077e-05
1.77194e-05
1.78161e-05
1.78577e-05
1.79151e-05