/*--------------------------------*- C++ -*----------------------------------*\
| =========                 |                                                 |
| \\      /  F ield         | OpenFOAM: The Open Source CFD Toolbox           |
|  \\    /   O peration     | Version:  2212                                  |
|   \\  /    A nd           | Website:  www.openfoam.com                      |
|    \\/     M anipulation  |                                                 |
\*---------------------------------------------------------------------------*/
FoamFile
{
    version     2.0;
    format      ascii;
    arch        "LSB;label=32;scalar=64";
    class       volScalarField;
    location    "0.1";
    object      p;
}
// * * * * * * * * * * * * * * * * * * * * * * * * * * * * * * * * * * * * * //

dimensions      [0 2 -2 0 0 0 0];

internalField   nonuniform List<scalar> 
6840
(
0.0202717
0.0128464
0.0104857
0.00994645
0.00965837
0.00940496
0.00919
0.00900626
0.00883424
0.00866702
0.00850149
0.00833738
0.00817409
0.00801175
0.00785029
0.00768917
0.00752853
0.00736619
0.00717808
0.00691325
0.012701
0.0120113
0.0109072
0.0102149
0.00977968
0.0094709
0.00923182
0.0090298
0.00884687
0.00867377
0.00850535
0.00833975
0.00817599
0.00801403
0.00785412
0.00769586
0.00753974
0.00738691
0.00723393
0.00705926
0.0123919
0.0115351
0.0107551
0.0101803
0.00978579
0.00949086
0.00924794
0.00903809
0.00884865
0.0086712
0.00850127
0.00833568
0.00817264
0.00801167
0.00785277
0.00769618
0.00754332
0.00739808
0.00727141
0.0071781
0.0119715
0.011211
0.0105848
0.0101223
0.0097687
0.00948534
0.00924492
0.00903395
0.00884377
0.00866713
0.00849783
0.00833241
0.00816965
0.00800874
0.00784928
0.00769158
0.00753629
0.0073846
0.00723856
0.00710296
0.0118395
0.0111024
0.0105093
0.0100938
0.00976513
0.00948926
0.00925129
0.00904
0.00884782
0.00866904
0.00849831
0.00833207
0.0081686
0.00800649
0.00784487
0.00768354
0.00752215
0.00735994
0.00719475
0.00702911
0.0118395
0.0111024
0.0105093
0.0100938
0.00976511
0.00948922
0.00925122
0.00903988
0.00884762
0.00866871
0.00849777
0.0083312
0.0081672
0.00800418
0.00784109
0.0076774
0.00751242
0.007345
0.00717281
0.00699718
0.0119715
0.011211
0.0105848
0.0101223
0.00976866
0.00948525
0.00924476
0.00903366
0.00884327
0.00866629
0.00849645
0.00833013
0.00816592
0.00800271
0.00783933
0.00767475
0.00750814
0.00733848
0.00716442
0.00698606
0.0123919
0.0115352
0.0107551
0.0101803
0.00978576
0.00949078
0.00924778
0.0090378
0.00884814
0.0086703
0.00849978
0.00833326
0.00816877
0.0080052
0.0078413
0.00767581
0.007507
0.00733176
0.00714565
0.00693763
0.012701
0.0120113
0.0109072
0.0102149
0.00977969
0.00947088
0.00923176
0.00902966
0.00884659
0.00867327
0.00850448
0.00833832
0.00817391
0.00801065
0.00784746
0.00768355
0.00751801
0.00734591
0.00714986
0.006883
0.0202717
0.0128464
0.0104858
0.0099465
0.00965842
0.00940502
0.00919005
0.00900631
0.00883426
0.00866699
0.0085014
0.00833729
0.00817429
0.00801229
0.00785053
0.00768896
0.00752841
0.0073663
0.00717838
0.00691377
0.012701
0.0120113
0.0109072
0.0102149
0.0097797
0.0094709
0.00923178
0.00902969
0.00884664
0.00867336
0.00850464
0.00833847
0.00817378
0.00801018
0.00784721
0.00768371
0.00751811
0.00734581
0.00714957
0.00688257
0.0119967
0.0119929
0.0112485
0.0105101
0.0100307
0.00967645
0.0093864
0.00913786
0.00891787
0.00871967
0.00853551
0.00835967
0.00818857
0.0080209
0.00785629
0.00769396
0.00753236
0.00737066
0.00721796
0.00709234
0.0110767
0.0112033
0.0108931
0.0104682
0.0100887
0.00975126
0.00944895
0.00918327
0.00895057
0.00874216
0.00855037
0.00836902
0.00819503
0.00802605
0.00786077
0.00769922
0.00754113
0.00738712
0.00724747
0.00713518
0.0106636
0.0107101
0.0105422
0.0102701
0.00998041
0.00969896
0.00943255
0.00918688
0.00896262
0.00875521
0.0085607
0.00837624
0.00819967
0.00802874
0.00786192
0.00769856
0.00753829
0.00738174
0.00723442
0.00709917
0.0104443
0.0104715
0.0103483
0.010133
0.00989909
0.00966209
0.00942551
0.00919547
0.00897628
0.00876795
0.00857076
0.00838362
0.00820389
0.00802957
0.00785926
0.00769163
0.00752558
0.00736066
0.00719862
0.00703788
0.0104443
0.0104715
0.0103483
0.010133
0.00989906
0.00966204
0.00942541
0.00919533
0.00897604
0.00876757
0.00857013
0.00838261
0.00820226
0.00802693
0.00785508
0.00768526
0.00751604
0.0073467
0.00717867
0.00701017
0.0106636
0.0107101
0.0105422
0.01027
0.00998035
0.00969885
0.00943236
0.00918656
0.00896207
0.00875432
0.00855927
0.00837392
0.00819583
0.00802242
0.00785171
0.00768222
0.00751239
0.00734126
0.00717085
0.006999
0.0110767
0.0112034
0.0108931
0.0104682
0.0100887
0.00975121
0.00944884
0.00918304
0.00895016
0.00874148
0.0085493
0.00836724
0.00819178
0.00802048
0.00785178
0.00768407
0.00751513
0.00734247
0.00716811
0.00699392
0.0119968
0.0119929
0.0112486
0.0105101
0.0100308
0.00967651
0.00938644
0.00913789
0.00891786
0.00871961
0.00853542
0.00835954
0.00818858
0.00802131
0.0078568
0.00769418
0.00753244
0.00737081
0.00721826
0.00709281
0.012701
0.0120114
0.0109073
0.010215
0.0097798
0.00947102
0.00923194
0.00902991
0.00884695
0.0086738
0.00850533
0.00833972
0.00817624
0.00801464
0.00785447
0.00769575
0.00753965
0.00738701
0.00723422
0.00705975
0.0123919
0.0115352
0.0107551
0.0101803
0.00978581
0.00949084
0.00924785
0.00903789
0.00884824
0.00867043
0.00849994
0.0083334
0.00816874
0.00800496
0.00784116
0.00767587
0.00750705
0.00733168
0.00714543
0.00693727
0.0110767
0.0112034
0.0108931
0.0104682
0.0100887
0.00975123
0.00944886
0.00918308
0.00895021
0.00874153
0.00854929
0.0083672
0.00819191
0.00802076
0.00785172
0.00768369
0.00751484
0.00734232
0.00716801
0.00699381
0.0105038
0.0106083
0.0104933
0.0102685
0.0100245
0.00976337
0.00948994
0.00923113
0.00899641
0.00878039
0.00857839
0.00838783
0.00820649
0.00803142
0.00786024
0.00769169
0.00752442
0.0073573
0.00719324
0.00703297
0.0101323
0.0102027
0.0101531
0.0100066
0.00982823
0.00963421
0.00942378
0.00920716
0.00899443
0.00878748
0.00858815
0.00839772
0.00821481
0.00803768
0.00786489
0.00769511
0.00752714
0.00736048
0.00719672
0.00703327
0.00994544
0.0100121
0.00998551
0.00986421
0.00971415
0.0095547
0.00937789
0.00918623
0.00898908
0.00879197
0.00859765
0.00840765
0.0082222
0.00804161
0.00786581
0.00769349
0.00752328
0.00735513
0.00719122
0.00702593
0.00994544
0.0100121
0.0099855
0.00986419
0.00971413
0.00955466
0.00937783
0.00918613
0.00898893
0.00879174
0.00859729
0.0084071
0.00822135
0.00804032
0.00786392
0.00769082
0.00751967
0.00735064
0.00718659
0.00702025
0.0101323
0.0102027
0.0101531
0.0100066
0.0098282
0.00963416
0.00942369
0.00920701
0.00899419
0.0087871
0.00858755
0.00839677
0.00821326
0.00803511
0.00786091
0.00768933
0.00751898
0.00734964
0.00718383
0.00701558
0.0105039
0.0106084
0.0104933
0.0102685
0.0100245
0.00976341
0.00948998
0.00923116
0.00899644
0.00878043
0.00857849
0.00838797
0.00820649
0.00803123
0.00786016
0.00769179
0.00752451
0.00735728
0.00719304
0.00703254
0.0110768
0.0112034
0.0108932
0.0104683
0.0100888
0.00975137
0.00944906
0.00918336
0.00895064
0.00874223
0.00855051
0.00836922
0.00819503
0.00802585
0.00786086
0.00769959
0.00754139
0.00738723
0.00724749
0.00713505
0.012392
0.0115353
0.0107552
0.0101804
0.00978593
0.00949101
0.00924809
0.00903823
0.00884877
0.00867128
0.00850133
0.00833576
0.00817288
0.00801205
0.00785299
0.00769617
0.0075433
0.00739818
0.00727162
0.00717841
0.0119715
0.011211
0.0105849
0.0101223
0.00976872
0.00948532
0.00924485
0.00903376
0.00884338
0.00866641
0.00849658
0.00833028
0.00816605
0.00800271
0.0078392
0.00767467
0.00750812
0.00733847
0.00716439
0.00698602
0.0106636
0.0107102
0.0105422
0.0102701
0.0099804
0.00969891
0.00943243
0.00918663
0.00896216
0.0087544
0.00855933
0.00837393
0.00819584
0.00802246
0.00785169
0.00768214
0.00751234
0.00734125
0.00717089
0.0069991
0.0101323
0.0102027
0.0101531
0.0100066
0.00982821
0.00963418
0.0094237
0.00920702
0.0089942
0.00878709
0.0085875
0.00839667
0.00821316
0.00803513
0.00786103
0.00768943
0.00751906
0.00734974
0.00718398
0.00701579
0.00981808
0.00987892
0.00987045
0.00978202
0.00965045
0.0094957
0.0093249
0.00914306
0.00895599
0.00876731
0.0085799
0.00839586
0.0082158
0.00803935
0.00786577
0.00769431
0.00752438
0.00735686
0.00719501
0.00702905
0.00965699
0.00972163
0.00972891
0.00966222
0.00955303
0.00942081
0.00927161
0.00910872
0.00893617
0.0087579
0.00857723
0.0083969
0.0082186
0.00804265
0.00786873
0.00769658
0.007526
0.00735864
0.00719862
0.00703278
0.00965699
0.00972163
0.00972891
0.00966222
0.00955302
0.00942081
0.0092716
0.0091087
0.00893614
0.00875784
0.00857715
0.00839677
0.00821841
0.00804237
0.00786836
0.00769609
0.0075254
0.007358
0.00719823
0.0070323
0.0098181
0.00987894
0.00987048
0.00978204
0.00965047
0.00949572
0.00932493
0.00914309
0.00895603
0.00876735
0.00857995
0.00839592
0.00821585
0.00803936
0.00786575
0.0076943
0.00752437
0.00735686
0.007195
0.00702903
0.0101324
0.0102028
0.0101531
0.0100067
0.00982831
0.0096343
0.00942386
0.00920724
0.00899451
0.00878756
0.00858824
0.00839782
0.00821488
0.0080377
0.00786492
0.00769518
0.00752722
0.00736054
0.00719677
0.0070333
0.0106637
0.0107102
0.0105423
0.0102702
0.00998054
0.00969909
0.00943268
0.00918701
0.00896273
0.00875531
0.00856082
0.00837636
0.00819976
0.00802882
0.00786209
0.00769879
0.00753846
0.00738182
0.00723442
0.00709909
0.0119716
0.0112111
0.0105849
0.0101224
0.00976885
0.0094855
0.00924509
0.00903411
0.00884392
0.00866726
0.00849795
0.00833253
0.00816977
0.00800891
0.00784948
0.0076917
0.00753634
0.00738463
0.00723858
0.00710299
0.0118395
0.0111025
0.0105094
0.0100939
0.00976517
0.00948929
0.0092513
0.00903996
0.0088477
0.0086688
0.00849785
0.00833126
0.00816723
0.0080042
0.00784111
0.00767744
0.00751247
0.00734504
0.00717284
0.00699719
0.0104443
0.0104715
0.0103483
0.010133
0.00989912
0.00966211
0.00942549
0.0091954
0.00897612
0.00876764
0.00857019
0.00838264
0.00820228
0.00802696
0.00785513
0.00768531
0.00751609
0.00734674
0.00717871
0.00701022
0.00994547
0.0100121
0.00998553
0.00986423
0.00971416
0.0095547
0.00937787
0.00918617
0.00898897
0.00879177
0.00859732
0.00840713
0.00822139
0.00804036
0.00786396
0.00769087
0.00751973
0.0073507
0.00718665
0.00702031
0.009657
0.00972164
0.00972892
0.00966223
0.00955303
0.00942081
0.0092716
0.0091087
0.00893614
0.00875785
0.00857715
0.00839678
0.00821842
0.00804239
0.00786837
0.0076961
0.00752541
0.00735802
0.00719824
0.00703231
0.00950015
0.00957174
0.00959778
0.00955231
0.00946335
0.00934955
0.00921725
0.00906952
0.00890961
0.00874096
0.00856684
0.00838986
0.00821116
0.00803399
0.00786126
0.00769224
0.00752549
0.00736212
0.00720708
0.00704489
0.00950016
0.00957175
0.00959779
0.00955232
0.00946336
0.00934956
0.00921726
0.00906953
0.00890962
0.00874097
0.00856685
0.00838987
0.00821116
0.00803399
0.00786127
0.00769224
0.00752549
0.00736212
0.00720709
0.00704491
0.00965703
0.00972167
0.00972895
0.00966226
0.00955307
0.00942085
0.00927165
0.00910876
0.00893622
0.00875794
0.00857728
0.00839694
0.00821864
0.00804268
0.00786877
0.00769661
0.00752603
0.00735867
0.00719866
0.00703283
0.00994553
0.0100122
0.00998559
0.0098643
0.00971424
0.00955479
0.00937799
0.00918633
0.00898918
0.00879206
0.00859774
0.00840774
0.00822229
0.00804169
0.00786589
0.00769357
0.00752336
0.00735521
0.00719132
0.00702605
0.0104444
0.0104716
0.0103484
0.0101331
0.00989923
0.00966224
0.00942566
0.00919562
0.00897642
0.00876808
0.00857088
0.00838373
0.00820401
0.0080297
0.00785939
0.00769177
0.00752569
0.00736075
0.00719872
0.00703799
0.0118396
0.0111026
0.0105095
0.010094
0.00976527
0.00948941
0.00925145
0.00904016
0.00884798
0.0086692
0.00849846
0.00833221
0.00816875
0.00800664
0.00784502
0.00768365
0.00752221
0.00735998
0.00719478
0.00702912
0.0118395
0.0111025
0.0105094
0.0100939
0.00976519
0.00948933
0.00925137
0.00904007
0.00884789
0.00866912
0.00849838
0.00833214
0.00816867
0.00800655
0.00784492
0.00768359
0.00752219
0.00735998
0.00719479
0.00702913
0.0104444
0.0104715
0.0103484
0.010133
0.00989915
0.00966216
0.00942557
0.00919554
0.00897635
0.00876802
0.00857082
0.00838368
0.00820395
0.00802963
0.00785931
0.00769169
0.00752563
0.00736071
0.00719868
0.00703795
0.00994548
0.0100121
0.00998555
0.00986424
0.00971419
0.00955474
0.00937793
0.00918628
0.00898913
0.00879202
0.0085977
0.0084077
0.00822225
0.00804166
0.00786585
0.00769353
0.00752332
0.00735518
0.00719128
0.007026
0.00965701
0.00972164
0.00972893
0.00966223
0.00955304
0.00942083
0.00927162
0.00910874
0.00893619
0.00875792
0.00857725
0.00839692
0.00821862
0.00804267
0.00786875
0.0076966
0.00752602
0.00735866
0.00719864
0.00703281
0.00950016
0.00957175
0.00959778
0.00955232
0.00946335
0.00934956
0.00921725
0.00906952
0.00890962
0.00874096
0.00856684
0.00838986
0.00821116
0.00803399
0.00786127
0.00769224
0.00752549
0.00736212
0.00720709
0.00704491
0.00950017
0.00957176
0.00959779
0.00955232
0.00946336
0.00934956
0.00921726
0.00906953
0.00890962
0.00874097
0.00856685
0.00838987
0.00821116
0.008034
0.00786127
0.00769225
0.00752549
0.00736213
0.0072071
0.00704491
0.00965703
0.00972167
0.00972895
0.00966226
0.00955306
0.00942084
0.00927163
0.00910873
0.00893617
0.00875788
0.00857718
0.0083968
0.00821844
0.0080424
0.00786839
0.00769612
0.00752543
0.00735804
0.00719827
0.00703235
0.00994552
0.0100122
0.00998558
0.00986428
0.00971422
0.00955476
0.00937792
0.00918621
0.008989
0.0087918
0.00859734
0.00840715
0.00822141
0.00804038
0.00786399
0.00769091
0.00751976
0.00735074
0.0071867
0.00702038
0.0104444
0.0104716
0.0103484
0.0101331
0.0098992
0.00966219
0.00942556
0.00919546
0.00897616
0.00876768
0.00857023
0.00838268
0.00820233
0.00802702
0.0078552
0.00768538
0.00751614
0.00734679
0.00717875
0.00701025
0.0118396
0.0111025
0.0105094
0.0100939
0.00976523
0.00948936
0.00925138
0.00904004
0.00884778
0.00866887
0.00849791
0.00833133
0.00816731
0.00800429
0.0078412
0.0076775
0.00751249
0.00734504
0.00717283
0.00699717
0.0119715
0.011211
0.0105849
0.0101224
0.00976877
0.00948541
0.009245
0.00903403
0.00884384
0.0086672
0.0084979
0.00833248
0.00816971
0.0080088
0.00784934
0.00769164
0.00753635
0.00738467
0.00723863
0.00710302
0.0106636
0.0107102
0.0105422
0.0102701
0.00998046
0.00969901
0.00943261
0.00918694
0.00896268
0.00875527
0.00856076
0.0083763
0.00819972
0.00802879
0.00786197
0.00769861
0.00753835
0.00738178
0.00723441
0.00709909
0.0101323
0.0102027
0.0101531
0.0100067
0.00982827
0.00963425
0.00942382
0.00920721
0.00899448
0.00878752
0.0085882
0.00839777
0.00821485
0.00803773
0.00786493
0.00769515
0.00752717
0.00736051
0.00719674
0.00703328
0.00981809
0.00987893
0.00987047
0.00978203
0.00965047
0.00949572
0.00932492
0.00914308
0.00895601
0.00876733
0.00857992
0.00839588
0.00821582
0.00803936
0.00786578
0.00769432
0.00752438
0.00735686
0.007195
0.00702903
0.00965701
0.00972164
0.00972893
0.00966223
0.00955304
0.00942082
0.00927161
0.00910871
0.00893615
0.00875785
0.00857715
0.00839677
0.00821841
0.00804238
0.00786837
0.0076961
0.00752541
0.00735801
0.00719824
0.00703232
0.00965702
0.00972165
0.00972893
0.00966224
0.00955305
0.00942084
0.00927163
0.00910874
0.00893619
0.00875791
0.00857725
0.00839691
0.00821861
0.00804266
0.00786875
0.00769659
0.00752602
0.00735866
0.00719864
0.00703282
0.00981812
0.00987896
0.00987049
0.00978205
0.00965049
0.00949574
0.00932494
0.00914309
0.00895602
0.00876733
0.00857994
0.00839591
0.00821584
0.00803935
0.00786575
0.0076943
0.00752437
0.00735687
0.00719501
0.00702905
0.0101324
0.0102028
0.0101531
0.0100067
0.0098283
0.00963427
0.00942376
0.00920703
0.00899418
0.00878707
0.00858751
0.00839669
0.00821316
0.00803509
0.00786102
0.00768947
0.0075191
0.00734974
0.00718393
0.0070157
0.0106637
0.0107102
0.0105423
0.0102701
0.00998049
0.00969901
0.0094325
0.00918668
0.00896218
0.00875441
0.00855934
0.00837396
0.00819585
0.00802247
0.0078518
0.00768231
0.00751246
0.0073413
0.00717088
0.00699903
0.0119716
0.0112111
0.0105849
0.0101224
0.00976873
0.00948533
0.00924488
0.00903384
0.00884346
0.00866647
0.00849662
0.00833031
0.0081661
0.00800283
0.00783935
0.00767475
0.00750814
0.00733847
0.00716439
0.00698598
0.0123919
0.0115352
0.0107551
0.0101804
0.00978585
0.00949092
0.00924801
0.00903816
0.00884872
0.00867126
0.00850134
0.00833574
0.0081727
0.00801174
0.00785284
0.00769625
0.00754343
0.00739823
0.00727164
0.00717844
0.0110767
0.0112034
0.0108932
0.0104683
0.0100887
0.00975132
0.00944901
0.00918332
0.00895062
0.00874221
0.00855042
0.00836908
0.00819508
0.00802611
0.00786083
0.00769929
0.00754122
0.00738721
0.00724753
0.0071351
0.0105038
0.0106083
0.0104933
0.0102685
0.0100245
0.00976341
0.00948998
0.00923116
0.00899645
0.00878042
0.00857842
0.00838786
0.00820653
0.00803145
0.00786027
0.00769172
0.00752443
0.00735726
0.00719305
0.00703256
0.0101323
0.0102027
0.0101531
0.0100066
0.00982823
0.0096342
0.00942372
0.00920704
0.00899421
0.0087871
0.00858751
0.00839668
0.00821316
0.00803513
0.00786104
0.00768943
0.00751905
0.00734969
0.00718387
0.00701561
0.00994547
0.0100121
0.00998554
0.00986423
0.00971417
0.00955471
0.00937788
0.00918617
0.00898896
0.00879176
0.0085973
0.00840711
0.00822136
0.00804034
0.00786395
0.00769086
0.00751972
0.00735069
0.00718663
0.0070203
0.00994548
0.0100121
0.00998555
0.00986425
0.0097142
0.00955475
0.00937794
0.00918627
0.00898911
0.008792
0.00859768
0.00840769
0.00822223
0.00804163
0.00786583
0.00769351
0.0075233
0.00735515
0.00719126
0.00702599
0.0101323
0.0102027
0.0101531
0.0100067
0.00982829
0.00963427
0.00942382
0.0092072
0.00899447
0.00878752
0.00858823
0.00839786
0.00821495
0.0080377
0.0078648
0.00769504
0.00752711
0.00736046
0.00719671
0.00703325
0.0105039
0.0106084
0.0104933
0.0102686
0.0100246
0.00976346
0.00948998
0.00923115
0.00899641
0.00878039
0.00857845
0.00838793
0.00820646
0.00803121
0.00786015
0.00769178
0.00752451
0.00735728
0.00719305
0.00703256
0.0110768
0.0112034
0.0108932
0.0104683
0.0100888
0.00975128
0.00944892
0.00918317
0.00895029
0.00874157
0.00854937
0.00836731
0.00819185
0.00802051
0.00785176
0.00768404
0.00751512
0.00734246
0.00716809
0.00699388
0.0123919
0.0115352
0.0107551
0.0101803
0.00978577
0.00949081
0.00924788
0.00903794
0.00884827
0.00867043
0.00849993
0.00833343
0.00816893
0.0080053
0.00784134
0.00767582
0.00750701
0.00733176
0.00714563
0.00693757
0.012701
0.0120113
0.0109073
0.0102149
0.00977974
0.00947096
0.00923188
0.00902986
0.00884693
0.00867383
0.00850541
0.00833981
0.00817605
0.00801409
0.00785419
0.00769594
0.00753986
0.0073871
0.00723425
0.00705978
0.0119967
0.0119929
0.0112485
0.0105101
0.0100307
0.0096765
0.00938644
0.00913791
0.00891792
0.00871971
0.00853555
0.00835971
0.00818861
0.00802095
0.00785636
0.00769405
0.00753252
0.00737091
0.00721836
0.00709291
0.0110767
0.0112034
0.0108931
0.0104683
0.0100887
0.00975126
0.00944889
0.00918311
0.00895024
0.00874156
0.00854932
0.00836722
0.00819194
0.0080208
0.00785177
0.00768375
0.00751494
0.00734245
0.00716817
0.00699399
0.0106636
0.0107102
0.0105422
0.0102701
0.00998041
0.00969892
0.00943244
0.00918665
0.00896217
0.00875441
0.00855934
0.00837394
0.00819585
0.00802247
0.00785171
0.00768216
0.00751237
0.00734129
0.0071709
0.00699906
0.0104443
0.0104715
0.0103483
0.010133
0.00989912
0.00966212
0.0094255
0.0091954
0.00897611
0.00876763
0.00857018
0.00838263
0.00820227
0.00802696
0.00785513
0.00768532
0.00751609
0.00734675
0.00717872
0.00701022
0.0104444
0.0104715
0.0103484
0.010133
0.00989915
0.00966217
0.00942558
0.00919554
0.00897633
0.00876801
0.00857082
0.00838369
0.00820398
0.00802964
0.0078593
0.00769167
0.00752561
0.00736069
0.00719867
0.00703794
0.0106636
0.0107102
0.0105422
0.0102701
0.00998048
0.00969902
0.0094326
0.00918694
0.00896266
0.00875524
0.00856074
0.00837631
0.00819973
0.00802876
0.00786199
0.00769869
0.00753838
0.00738176
0.00723437
0.00709906
0.0110767
0.0112034
0.0108932
0.0104683
0.0100888
0.00975132
0.00944901
0.00918335
0.00895062
0.00874217
0.00855041
0.00836909
0.00819491
0.00802579
0.00786086
0.0076996
0.00754139
0.00738722
0.00724748
0.00713504
0.0119967
0.0119929
0.0112485
0.0105101
0.0100307
0.00967644
0.00938648
0.00913796
0.00891791
0.00871962
0.00853544
0.00835955
0.00818858
0.00802131
0.00785679
0.00769418
0.00753245
0.0073708
0.00721825
0.00709279
0.012701
0.0120113
0.0109072
0.0102149
0.00977964
0.00947082
0.00923172
0.00902968
0.00884668
0.0086734
0.00850463
0.00833847
0.00817405
0.00801075
0.00784751
0.00768357
0.007518
0.0073459
0.00714983
0.00688294
0.0202717
0.0128464
0.0104857
0.00994648
0.0096584
0.009405
0.00919004
0.0090063
0.00883428
0.00866706
0.00850153
0.00833742
0.00817414
0.00801179
0.00785034
0.00768924
0.00752864
0.00736636
0.00717839
0.00691376
0.012701
0.0120113
0.0109072
0.0102149
0.00977971
0.00947091
0.00923179
0.00902971
0.00884666
0.00867339
0.00850466
0.00833849
0.00817381
0.00801021
0.00784726
0.00768377
0.00751822
0.007346
0.00714988
0.00688301
0.0123919
0.0115352
0.0107551
0.0101803
0.0097858
0.00949084
0.00924785
0.00903789
0.00884825
0.00867044
0.00849995
0.00833341
0.00816876
0.00800498
0.00784119
0.00767593
0.00750714
0.00733182
0.00714568
0.00693767
0.0119715
0.011211
0.0105848
0.0101223
0.00976871
0.00948531
0.00924484
0.00903376
0.00884338
0.00866641
0.00849658
0.00833029
0.00816606
0.00800272
0.00783922
0.0076747
0.00750817
0.00733854
0.00716448
0.0069861
0.0118395
0.0111025
0.0105094
0.0100939
0.00976515
0.00948927
0.00925129
0.00903996
0.00884771
0.0086688
0.00849784
0.00833125
0.00816723
0.0080042
0.00784112
0.00767745
0.00751248
0.00734505
0.00717285
0.0069972
0.0118395
0.0111025
0.0105094
0.0100939
0.00976516
0.0094893
0.00925135
0.00904007
0.00884789
0.00866911
0.00849837
0.00833213
0.00816869
0.00800658
0.00784495
0.0076836
0.00752217
0.00735996
0.00719478
0.00702913
0.0119715
0.011211
0.0105848
0.0101223
0.00976873
0.00948537
0.00924498
0.00903402
0.00884382
0.00866715
0.00849782
0.00833237
0.00816961
0.00800883
0.00784949
0.00769173
0.00753635
0.00738463
0.00723859
0.00710299
0.0123919
0.0115352
0.0107551
0.0101803
0.00978578
0.00949086
0.00924799
0.00903815
0.00884867
0.00867117
0.00850122
0.00833565
0.00817278
0.00801199
0.00785298
0.00769619
0.00754332
0.00739819
0.00727163
0.00717842
0.012701
0.0120113
0.0109072
0.0102149
0.00977965
0.00947085
0.00923178
0.0090298
0.00884691
0.00867379
0.00850533
0.00833971
0.00817621
0.00801462
0.00785447
0.00769577
0.00753967
0.00738704
0.00723424
0.00705976
0.0202717
0.0128464
0.0104857
0.00994643
0.00965829
0.00940493
0.00919004
0.00900624
0.00883419
0.00866702
0.00850148
0.00833736
0.00817435
0.00801233
0.00785056
0.00768898
0.00752843
0.00736632
0.00717839
0.00691377
0.00708383
0.00663754
0.00639311
0.0062427
0.00608365
0.00591545
0.00574749
0.00557929
0.00541033
0.00524084
0.00507124
0.0049004
0.00472776
0.00455553
0.0043844
0.00421324
0.00404177
0.00387009
0.00369835
0.00352661
0.00335505
0.00318388
0.00301185
0.00283828
0.00266539
0.00249387
0.00232264
0.00215162
0.00197964
0.00180611
0.00163327
0.00146192
0.00129106
0.00111976
0.000946209
0.000773009
0.000601757
0.000430413
0.000259306
8.70339e-05
0.00715583
0.00673953
0.00642218
0.00624199
0.00608043
0.00591324
0.00574569
0.00557793
0.00540937
0.00524016
0.00507072
0.00489999
0.00472747
0.00455541
0.00438436
0.00421319
0.00404172
0.00387007
0.00369833
0.00352659
0.00335503
0.00318383
0.00301178
0.00283828
0.0026655
0.00249397
0.00232268
0.00215159
0.00197956
0.00180608
0.00163334
0.00146198
0.00129101
0.00111964
0.000946058
0.00077297
0.000601901
0.000430544
0.000259297
8.69595e-05
0.00705583
0.00675015
0.00647643
0.00627717
0.0060996
0.00592485
0.00575235
0.00558157
0.0054113
0.00524096
0.0050704
0.00489938
0.00472792
0.00455647
0.00438506
0.00421353
0.00404187
0.00387012
0.00369832
0.0035265
0.00335469
0.00318287
0.00301086
0.00283858
0.00266647
0.00249452
0.00232264
0.00215074
0.00197868
0.00180638
0.00163425
0.00146231
0.00129039
0.00111823
0.000946087
0.000774241
0.000602497
0.000430533
0.000258495
8.62804e-05
0.00694957
0.00671465
0.00648387
0.00628561
0.00610459
0.00592901
0.00575572
0.00558386
0.0054127
0.00524172
0.00507072
0.00489951
0.00472813
0.00455668
0.00438521
0.00421362
0.00404193
0.00387016
0.00369833
0.00352648
0.00335461
0.00318272
0.00301075
0.00283868
0.00266658
0.00249458
0.00232261
0.00215063
0.00197857
0.00180646
0.00163439
0.00146242
0.00129049
0.00111851
0.000946287
0.000774117
0.000602203
0.00043029
0.000258265
8.61513e-05
0.00689425
0.00668769
0.0064789
0.00628788
0.00610766
0.00593191
0.00575823
0.00558579
0.00541406
0.00524264
0.00507128
0.00489982
0.00472833
0.00455686
0.00438532
0.00421368
0.00404196
0.00387017
0.00369833
0.00352647
0.0033546
0.00318271
0.0030108
0.00283879
0.0026667
0.00249464
0.0023226
0.00215058
0.00197853
0.00180648
0.00163443
0.00146241
0.00129039
0.00111834
0.000946252
0.000774249
0.000602314
0.000430287
0.000258197
8.60995e-05
0.00685559
0.00666211
0.00646705
0.00628354
0.00610616
0.00593151
0.00575839
0.00558618
0.00541447
0.00524301
0.00507159
0.00490011
0.00472858
0.00455704
0.00438544
0.00421375
0.004042
0.00387019
0.00369834
0.00352646
0.00335455
0.00318262
0.00301066
0.00283865
0.00266662
0.00249459
0.00232257
0.00215055
0.00197852
0.00180648
0.00163444
0.00146243
0.00129041
0.00111839
0.000946352
0.000774306
0.00060226
0.000430204
0.00025813
8.60706e-05
0.00681056
0.00663044
0.00645209
0.00627601
0.0061018
0.005929
0.00575702
0.00558547
0.00541412
0.00524284
0.00507152
0.00490008
0.00472858
0.00455706
0.00438546
0.00421377
0.004042
0.00387019
0.00369833
0.00352645
0.00335454
0.00318261
0.00301063
0.00283861
0.00266657
0.00249457
0.00232256
0.00215056
0.00197853
0.00180647
0.00163444
0.00146243
0.00129044
0.00111845
0.000946418
0.000774339
0.000602248
0.000430183
0.000258127
8.60741e-05
0.00672606
0.00657868
0.00642738
0.0062617
0.00609269
0.00592345
0.00575371
0.00558347
0.00541292
0.00524214
0.00507115
0.00489983
0.00472834
0.00455687
0.00438534
0.00421369
0.00404196
0.00387017
0.00369832
0.00352646
0.00335457
0.00318265
0.00301065
0.00283857
0.00266649
0.00249452
0.00232257
0.00215061
0.00197857
0.00180647
0.00163439
0.00146242
0.00129048
0.00111854
0.000946486
0.000774341
0.000602217
0.000430206
0.000258203
8.61287e-05
0.00670511
0.0065727
0.00642237
0.0062582
0.00609063
0.00592186
0.00575245
0.00558258
0.00541233
0.00524178
0.0050707
0.00489951
0.00472841
0.00455696
0.00438533
0.00421366
0.00404193
0.00387015
0.00369833
0.0035265
0.00335468
0.00318287
0.00301083
0.00283849
0.00266635
0.00249442
0.00232259
0.00215076
0.00197872
0.00180639
0.00163425
0.00146235
0.00129057
0.00111884
0.000946936
0.000774421
0.000601936
0.000429993
0.000258226
8.62186e-05
0.00687439
0.00661157
0.00640666
0.0062473
0.00608568
0.00591845
0.00574991
0.00558089
0.00541146
0.0052419
0.0050711
0.00489882
0.00472716
0.0045562
0.004385
0.00421352
0.00404187
0.00387012
0.00369834
0.00352659
0.00335502
0.00318385
0.00301177
0.00283818
0.00266535
0.00249388
0.00232266
0.00215163
0.00197963
0.00180608
0.00163327
0.00146182
0.00129062
0.00111954
0.000947249
0.00077401
0.000601651
0.000430079
0.000259043
8.68976e-05
0.00708427
0.00663742
0.00639219
0.00624086
0.00608262
0.00591624
0.00574846
0.00558001
0.00541095
0.00524164
0.00507099
0.0048988
0.0047271
0.00455614
0.00438496
0.00421351
0.00404187
0.00387013
0.00369835
0.0035266
0.00335502
0.00318385
0.00301181
0.00283823
0.00266533
0.00249383
0.00232263
0.00215162
0.00197965
0.00180612
0.00163325
0.00146176
0.00129057
0.0011195
0.000947289
0.000774109
0.00060164
0.000430049
0.000259071
8.69535e-05
0.00687382
0.00661159
0.00640733
0.00624899
0.00608674
0.00591786
0.00574909
0.00558027
0.00541091
0.00524119
0.00507144
0.00490051
0.00472782
0.00455564
0.00438452
0.00421331
0.0040418
0.00387011
0.00369835
0.0035266
0.00335504
0.00318386
0.00301177
0.00283818
0.00266535
0.00249388
0.00232264
0.0021516
0.0019796
0.00180606
0.00163329
0.001462
0.00129117
0.00111993
0.000946216
0.000772809
0.000601645
0.000430379
0.000259261
8.6976e-05
0.0068827
0.0066584
0.00644209
0.00625976
0.00608852
0.00591816
0.00574852
0.0055793
0.00540985
0.00523997
0.00506963
0.00489881
0.00472764
0.00455628
0.00438485
0.00421335
0.00404176
0.00387006
0.00369828
0.00352647
0.00335465
0.00318274
0.00301067
0.00283853
0.00266644
0.00249446
0.0023226
0.00215068
0.00197858
0.00180642
0.00163432
0.00146237
0.00129043
0.00111834
0.000946485
0.000774399
0.000602119
0.000430292
0.000258429
8.62634e-05
0.00694254
0.00673565
0.00650926
0.00630316
0.00611565
0.00593595
0.0057596
0.00558591
0.00541365
0.00524185
0.00507006
0.0048988
0.00472826
0.00455726
0.00438553
0.00421372
0.00404194
0.00387012
0.00369825
0.00352632
0.00335424
0.00318189
0.00300995
0.00283877
0.00266716
0.00249489
0.00232251
0.00214998
0.00197793
0.00180667
0.00163502
0.00146263
0.00129004
0.00111771
0.000946582
0.000775054
0.000602433
0.000430133
0.000257722
8.57112e-05
0.00687759
0.00669712
0.00650453
0.00631152
0.00612567
0.00594432
0.00576617
0.00559067
0.00541693
0.00524419
0.00507193
0.00490012
0.00472864
0.00455715
0.0043855
0.00421376
0.00404198
0.00387015
0.00369827
0.00352635
0.00335437
0.00318233
0.00301038
0.00283858
0.00266669
0.00249464
0.00232253
0.00215039
0.00197835
0.0018065
0.00163459
0.00146254
0.00129047
0.00111849
0.000946445
0.000774254
0.000602136
0.000430107
0.000258028
8.59468e-05
0.00683175
0.00666327
0.00648817
0.00630611
0.00612469
0.00594531
0.00576802
0.00559262
0.00541863
0.00524558
0.00507309
0.00490104
0.00472921
0.00455742
0.00438563
0.00421384
0.00404202
0.00387017
0.00369829
0.00352637
0.00335442
0.00318243
0.00301041
0.00283844
0.0026665
0.00249453
0.00232252
0.00215049
0.00197847
0.00180647
0.00163447
0.00146243
0.00129038
0.00111834
0.000946369
0.000774348
0.000602242
0.000430183
0.00025813
8.60076e-05
0.00680325
0.00663644
0.0064694
0.00629417
0.00611717
0.00594087
0.00576565
0.00559146
0.00541814
0.0052454
0.00507311
0.00490114
0.00472931
0.0045575
0.00438569
0.00421389
0.00404206
0.00387019
0.0036983
0.00352637
0.00335442
0.00318243
0.00301043
0.00283844
0.00266648
0.0024945
0.0023225
0.00215048
0.00197847
0.00180646
0.00163446
0.00146244
0.0012904
0.00111837
0.000946353
0.000774311
0.000602233
0.000430186
0.000258134
8.60092e-05
0.00677383
0.00660793
0.00644842
0.00627861
0.0061057
0.00593298
0.00576049
0.0055881
0.00541595
0.00524399