/*--------------------------------*- C++ -*----------------------------------*\
| =========                 |                                                 |
| \\      /  F ield         | OpenFOAM: The Open Source CFD Toolbox           |
|  \\    /   O peration     | Version:  2212                                  |
|   \\  /    A nd           | Website:  www.openfoam.com                      |
|    \\/     M anipulation  |                                                 |
\*---------------------------------------------------------------------------*/
FoamFile
{
    version     2.0;
    format      ascii;
    arch        "LSB;label=32;scalar=64";
    class       surfaceScalarField;
    location    "0.1";
    object      phi;
}
// * * * * * * * * * * * * * * * * * * * * * * * * * * * * * * * * * * * * * //

dimensions      [0 3 -1 0 0 0 0];

oriented        oriented;

internalField   nonuniform List<scalar> 
19019
(
3.33382e-07
5.30491e-10
5.30381e-10
2.79507e-07
2.69374e-08
2.69378e-08
2.4958e-07
1.49639e-08
1.49639e-08
2.30284e-07
9.64813e-09
9.64838e-09
2.17285e-07
6.49936e-09
6.49985e-09
2.0786e-07
4.71208e-09
4.71314e-09
2.01349e-07
3.25477e-09
3.25669e-09
1.96998e-07
2.17416e-09
2.17744e-09
1.94066e-07
1.46313e-09
1.46871e-09
1.92078e-07
9.89662e-10
9.98526e-10
1.90741e-07
6.60698e-10
6.75669e-10
1.89855e-07
4.29069e-10
4.5703e-10
1.8927e-07
2.69232e-10
3.16083e-10
1.88886e-07
1.54015e-10
2.30425e-10
1.88629e-07
6.59408e-11
1.90644e-10
1.88438e-07
-1.73793e-11
2.07923e-10
1.8831e-07
-1.38985e-10
2.67483e-10
1.88588e-07
-5.02044e-10
2.24061e-10
1.90208e-07
-1.45951e-09
-1.60595e-10
-5.69289e-09
-5.42342e-09
6.31206e-07
3.40943e-09
7.18903e-09
6.15004e-07
2.2473e-08
2.06661e-08
5.8783e-07
2.39156e-08
1.82228e-08
5.6515e-07
1.75071e-08
1.48217e-08
5.46538e-07
1.29799e-08
1.21313e-08
5.32493e-07
9.49856e-09
9.25856e-09
5.22501e-07
6.73764e-09
6.50919e-09
5.1562e-07
4.6917e-09
4.36384e-09
5.10863e-07
3.30335e-09
2.91713e-09
5.07557e-07
2.36297e-09
1.93282e-09
5.05288e-07
1.66818e-09
1.26099e-09
5.03752e-07
1.15135e-09
8.14263e-10
5.02717e-07
7.68528e-10
5.35983e-10
5.01999e-07
5.03277e-10
3.68401e-10
5.01442e-07
3.53557e-10
2.69617e-10
5.00925e-07
2.75562e-10
2.235e-10
5.0037e-07
2.03921e-10
2.12279e-10
4.99696e-07
5.83063e-11
1.13216e-10
4.98968e-07
-3.93466e-10
-3.37441e-10
2.49306e-09
1.00607e-09
8.90341e-07
2.81457e-09
6.22618e-09
8.82666e-07
1.32912e-08
1.68564e-08
8.71347e-07
1.72598e-08
1.79751e-08
8.57464e-07
1.55178e-08
1.58732e-08
8.44519e-07
1.2624e-08
1.33004e-08
8.33703e-07
9.73626e-09
1.05784e-08
8.25199e-07
7.2151e-09
8.02676e-09
8.1878e-07
5.18942e-09
5.92212e-09
8.14048e-07
3.69583e-09
4.33958e-09
8.10652e-07
2.63194e-09
3.12678e-09
8.08267e-07
1.86435e-09
2.18872e-09
8.06615e-07
1.31212e-09
1.49136e-09
8.05473e-07
9.13308e-10
9.96688e-10
8.04658e-07
6.46758e-10
6.72329e-10
8.04001e-07
5.14165e-10
4.96163e-10
8.03333e-07
4.99324e-10
4.43917e-10
8.02434e-07
5.99123e-10
5.03332e-10
8.00885e-07
8.98478e-10
7.09608e-10
7.97701e-07
1.66907e-09
1.12156e-09
5.03051e-09
3.44788e-09
1.07428e-06
1.0556e-09
5.57321e-09
1.06816e-06
5.52421e-09
1.38909e-08
1.06131e-06
8.18684e-09
1.59209e-08
1.05344e-06
8.25983e-09
1.51314e-08
1.04545e-06
7.07168e-09
1.35393e-08
1.03803e-06
5.65278e-09
1.15011e-08
1.03158e-06
4.30428e-09
9.36647e-09
1.02627e-06
3.12908e-09
7.36567e-09
1.02214e-06
2.22099e-09
5.61005e-09
1.01909e-06
1.57549e-09
4.10699e-09
1.01692e-06
1.12155e-09
2.90586e-09
1.01542e-06
8.01208e-10
2.01849e-09
1.01437e-06
5.85565e-10
1.37718e-09
1.01362e-06
4.59524e-10
9.34982e-10
1.01305e-06
4.26013e-10
6.58208e-10
1.01255e-06
4.83193e-10
5.11796e-10
1.01202e-06
6.56505e-10
4.76915e-10
1.01135e-06
1.01147e-09
5.53647e-10
1.01056e-06
1.69945e-09
7.59565e-10
3.34633e-09
1.67023e-09
1.16915e-06
1.27192e-14
4.88902e-09
1.16299e-06
9.77113e-14
1.16892e-08
1.15687e-06
2.81536e-13
1.43082e-08
1.15105e-06
5.34628e-13
1.407e-08
1.14511e-06
8.9708e-13
1.30152e-08
1.13928e-06
1.57261e-12
1.14838e-08
1.13396e-06
2.72762e-12
9.62371e-09
1.12935e-06
4.63814e-12
7.73241e-09
1.12556e-06
7.76325e-12
6.0057e-09
1.1226e-06
1.28735e-11
4.51314e-09
1.12039e-06
2.11457e-11
3.3107e-09
1.11879e-06
3.44984e-11
2.36844e-09
1.11769e-06
5.57904e-11
1.63485e-09
1.11696e-06
8.9772e-11
1.092e-09
1.11652e-06
1.45775e-10
7.2211e-10
1.11629e-06
2.37106e-10
4.7492e-10
1.11626e-06
3.84419e-10
3.10658e-10
1.11646e-06
6.13162e-10
1.91596e-10
1.1171e-06
9.50708e-10
1.084e-10
1.47358e-09
2.98027e-10
1.16915e-06
-1.05559e-09
4.88901e-09
1.16299e-06
-5.52411e-09
1.16892e-08
1.15687e-06
-8.18652e-09
1.43081e-08
1.15106e-06
-8.25919e-09
1.40697e-08
1.14511e-06
-7.07044e-09
1.30147e-08
1.13928e-06
-5.65046e-09
1.14832e-08
1.13396e-06
-4.30018e-09
9.62268e-09
1.12936e-06
-3.12189e-09
7.73073e-09
1.12557e-06
-2.20874e-09
6.00292e-09
1.12263e-06
-1.55485e-09
4.50862e-09
1.12044e-06
-1.08735e-09
3.30337e-09
1.11886e-06
-7.45203e-10
2.35679e-09
1.11779e-06
-4.94898e-10
1.61595e-09
1.11714e-06
-3.16055e-10
1.06065e-09
1.1168e-06
-1.8678e-10
6.67407e-10
1.11673e-06
-7.24687e-11
3.83507e-10
1.1169e-06
5.5189e-11
1.56754e-10
1.11736e-06
2.16822e-10
-6.62352e-11
1.11821e-06
4.26629e-10
-3.20415e-10
6.03005e-10
-3.88089e-10
1.07428e-06
-2.81464e-09
5.57321e-09
1.06816e-06
-1.32913e-08
1.38908e-08
1.06131e-06
-1.72599e-08
1.59206e-08
1.05344e-06
-1.55178e-08
1.51309e-08
1.04545e-06
-1.26239e-08
1.35385e-08
1.03804e-06
-9.73591e-09
1.14996e-08
1.03159e-06
-7.21431e-09
9.36401e-09
1.0263e-06
-5.18761e-09
7.36162e-09
1.02218e-06
-3.69246e-09
5.60374e-09
1.01915e-06
-2.62539e-09
4.09663e-09
1.01703e-06
-1.8523e-09
2.88882e-09
1.01558e-06
-1.29043e-09
1.99193e-09
1.01463e-06
-8.84921e-10
1.33639e-09
1.01407e-06
-6.16359e-10
8.66457e-10
1.0138e-06
-4.52669e-10
5.32659e-10
1.01378e-06
-3.33199e-10
2.80611e-10
1.01399e-06
-2.12869e-10
5.86184e-11
1.01444e-06
-3.90585e-11
-1.99972e-10
1.01503e-06
4.02798e-10
-5.6642e-10
1.07579e-09
-7.97027e-10
8.90341e-07
-3.40953e-09
6.22616e-09
8.82667e-07
-2.24731e-08
1.68563e-08
8.71348e-07
-2.39158e-08
1.79747e-08
8.57465e-07
-1.75076e-08
1.58726e-08
8.44523e-07
-1.29806e-08
1.32996e-08
8.3371e-07
-9.49976e-09
1.05772e-08
8.2521e-07
-6.7396e-09
8.02467e-09
8.18799e-07
-4.69439e-09
5.91827e-09
8.14081e-07
-3.30716e-09
4.33292e-09
8.10708e-07
-2.36782e-09
3.11563e-09
8.0836e-07
-1.67474e-09
2.17029e-09
8.06769e-07
-1.1602e-09
1.46057e-09
8.0573e-07
-8.01448e-10
9.5554e-10
8.05092e-07
-5.94471e-10
6.15857e-10
8.04751e-07
-4.95647e-10
3.8425e-10
8.04679e-07
-4.591e-10
1.97881e-10
8.04923e-07
-4.65519e-10
8.40978e-12
8.05556e-07
-3.71305e-10
-3.01079e-10
8.0655e-07
3.12428e-10
-9.04364e-10
3.49927e-09
-1.82184e-09
6.31206e-07
-5.30529e-10
7.18897e-09
6.15004e-07
-2.69375e-08
2.0666e-08
5.8783e-07
-1.49641e-08
1.82227e-08
5.6515e-07
-9.64849e-09
1.48214e-08
5.46539e-07
-6.49996e-09
1.21307e-08
5.32495e-07
-4.71321e-09
9.25749e-09
5.22505e-07
-3.25676e-09
6.50742e-09
5.15628e-07
-2.17741e-09
4.36064e-09
5.10877e-07
-1.46851e-09
2.91201e-09
5.07584e-07
-9.97948e-10
1.92393e-09
5.05334e-07
-6.75421e-10
1.25075e-09
5.03828e-07
-4.58392e-10
8.03845e-10
5.02831e-07
-3.15603e-10
5.1142e-10
5.02153e-07
-2.29746e-10
3.12488e-10
5.0168e-07
-1.95452e-10
1.73203e-10
5.01367e-07
-2.12505e-10
6.63616e-11
5.01265e-07
-2.67955e-10
-9.57795e-11
5.0164e-07
-2.23638e-10
-5.22916e-10
5.03663e-07
1.6095e-10
-1.87186e-09
5.42392e-09
-6.62784e-09
3.33382e-07
5.30301e-10
2.79507e-07
2.69376e-08
2.4958e-07
1.49635e-08
2.30284e-07
9.64784e-09
2.17285e-07
6.49903e-09
2.0786e-07
4.71174e-09
2.01349e-07
3.25426e-09
1.96999e-07
2.1734e-09
1.94068e-07
1.46199e-09
1.92082e-07
9.88002e-10
1.90748e-07
6.58896e-10
1.89861e-07
4.28774e-10
1.89278e-07
2.67742e-10
1.88895e-07
1.52772e-10
1.8863e-07
6.973e-11
1.8843e-07
-1.29632e-11
1.88299e-07
-1.36983e-10
1.88577e-07
-5.01122e-10
1.90195e-07
-1.45764e-09
-5.69007e-09
6.31206e-07
7.18912e-09
3.40921e-09
6.15004e-07
2.0666e-08
2.24733e-08
5.8783e-07
1.82223e-08
2.39159e-08
5.6515e-07
1.48211e-08
1.75076e-08
5.46539e-07
1.21305e-08
1.29807e-08
5.32495e-07
9.25747e-09
9.49986e-09
5.22504e-07
6.50766e-09
6.73975e-09
5.15626e-07
4.3614e-09
4.69503e-09
5.10872e-07
2.91363e-09
3.30878e-09
5.07572e-07
1.92643e-09
2.37182e-09
5.05315e-07
1.25024e-09
1.68262e-09
5.03798e-07
7.97289e-10
1.17672e-09
5.02799e-07
5.06396e-10
8.09027e-10
5.02146e-07
3.1456e-10
5.69213e-10
5.01697e-07
1.76439e-10
4.62843e-10
5.01392e-07
6.61209e-11
4.46936e-10
5.0129e-07
-9.79011e-11
4.66761e-10
5.01666e-07
-5.26175e-10
3.74405e-10
5.0369e-07
-1.87439e-09
-3.10575e-10
-6.62693e-09
-3.50016e-09
9.23334e-07
6.96129e-09
6.96135e-09
9.25405e-07
1.96303e-08
1.96305e-08
9.17763e-07
2.20432e-08
2.20437e-08
9.05991e-07
2.07074e-08
2.07081e-08
8.94222e-07
1.80151e-08
1.80161e-08
8.84037e-07
1.43494e-08
1.43511e-08
8.75922e-07
1.05647e-08
1.05674e-08
8.69863e-07
7.39026e-09
7.39447e-09
8.65547e-07
5.07e-09
5.07693e-09
8.62577e-07
3.40868e-09
3.42015e-09
8.60522e-07
2.27358e-09
2.2925e-09
8.59088e-07
1.50736e-09
1.5383e-09
8.58069e-07
1.00518e-09
1.05655e-09
8.57334e-07
6.66346e-10
7.51638e-10
8.56813e-07
4.13172e-10
5.53181e-10
8.56427e-07
2.23537e-10
4.51978e-10
8.56079e-07
4.58613e-11
4.16993e-10
8.55592e-07
-2.56885e-10
3.30879e-10
8.54162e-07
-8.22816e-10
4.07066e-11
-1.58016e-09
-5.83717e-10
1.15882e-06
5.22799e-09
6.06031e-09
1.16559e-06
1.37419e-08
1.59688e-08
1.16836e-06
1.72644e-08
1.99929e-08
1.16668e-06
1.77254e-08
2.05319e-08
1.16278e-06
1.63173e-08
1.88953e-08
1.15807e-06
1.36716e-08
1.59717e-08
1.15344e-06
1.06434e-08
1.2576e-08
1.14942e-06
7.87708e-09
9.4557e-09
1.14623e-06
5.66681e-09
6.93267e-09
1.14383e-06
3.95648e-09
4.97305e-09
1.1421e-06
2.69334e-09
3.49973e-09
1.14086e-06
1.8167e-09
2.42746e-09
1.13995e-06
1.22825e-09
1.68158e-09
1.13926e-06
8.41987e-10
1.1825e-09
1.1387e-06
5.98926e-10
8.70073e-10
1.13819e-06
4.67279e-10
7.13968e-10
1.13762e-06
4.23572e-10
6.93694e-10
1.13683e-06
4.50975e-10
7.92674e-10
1.13549e-06
5.90929e-10
1.04755e-09
1.11521e-09
1.72102e-09
1.32755e-06
2.70599e-09
4.97102e-09
1.33519e-06
6.99654e-09
1.29923e-08
1.34234e-06
9.14906e-09
1.68918e-08
1.34738e-06
9.74775e-09
1.80645e-08
1.35017e-06
9.32924e-09
1.77359e-08
1.35118e-06
8.11134e-09
1.60542e-08
1.35102e-06
6.5606e-09
1.36125e-08
1.3502e-06
5.03796e-09
1.10249e-08
1.34915e-06
3.72228e-09
8.59908e-09
1.34812e-06
2.64767e-09
6.45004e-09
1.34721e-06
1.82767e-09
4.68054e-09
1.34645e-06
1.25363e-09
3.3359e-09
1.34585e-06
8.65743e-10
2.34499e-09
1.34536e-06
6.22812e-10
1.64238e-09
1.34495e-06
4.97024e-10
1.17232e-09
1.34457e-06
4.67019e-10
8.86494e-10
1.3442e-06
5.27428e-10
7.50004e-10
1.34377e-06
6.87961e-10
7.43932e-10
1.34325e-06
9.8462e-10
8.90032e-10
1.45089e-09
1.27742e-09
1.41506e-06
4.49465e-14
4.28061e-09
1.42246e-06
1.49624e-13
1.12829e-08
1.43082e-06
2.85407e-13
1.51027e-08
1.43834e-06
5.24809e-13
1.62935e-08
1.44438e-06
9.06812e-13
1.63059e-08
1.44862e-06
1.51802e-12
1.53478e-08
1.45125e-06
2.4991e-12
1.35542e-08
1.45262e-06
4.06086e-12
1.13939e-08
1.45314e-06
6.53941e-12
9.20671e-09
1.45311e-06
1.05616e-11
7.17938e-09
1.4528e-06
1.71529e-11
5.42478e-09
1.45242e-06
2.79259e-11
3.9823e-09
1.45204e-06
4.58597e-11
2.82942e-09
1.45172e-06
7.51867e-11
1.95661e-09
1.45148e-06
1.21263e-10
1.3387e-09
1.45132e-06
1.91955e-10
9.09838e-10
1.45125e-06
2.99658e-10
6.14467e-10
1.45126e-06
4.58452e-10
4.12368e-10
1.45137e-06
6.77701e-10
3.02633e-10
9.30571e-10
3.51912e-10
1.41506e-06
-2.70596e-09
4.28058e-09
1.42246e-06
-6.9964e-09
1.12828e-08
1.43082e-06
-9.14871e-09
1.51025e-08
1.43834e-06
-9.74708e-09
1.6293e-08
1.44438e-06
-9.32806e-09
1.63051e-08
1.44863e-06
-8.10937e-09
1.53467e-08
1.45126e-06
-6.5573e-09
1.35525e-08
1.45263e-06
-5.03248e-09
1.13912e-08
1.45315e-06
-3.71357e-09
9.20244e-09
1.45313e-06
-2.6337e-09
7.17256e-09
1.45284e-06
-1.805e-09
5.41386e-09
1.45248e-06
-1.2167e-09
3.96522e-09
1.45214e-06
-8.03439e-10
2.80146e-09
1.45189e-06
-5.15088e-10
1.91016e-09
1.45173e-06
-3.15383e-10
1.26216e-09
1.45168e-06
-1.66519e-10
7.8585e-10
1.45175e-06
-3.23544e-11
4.18279e-10
1.45192e-06
1.21168e-10
1.09465e-10
1.45211e-06
3.1293e-10
-1.48888e-10
5.31812e-10
-2.606e-10
1.32755e-06
-5.22807e-09
4.97095e-09
1.33519e-06
-1.3742e-08
1.29921e-08
1.34234e-06
-1.72644e-08
1.68913e-08
1.34738e-06
-1.77254e-08
1.80635e-08
1.35018e-06
-1.63173e-08
1.77344e-08
1.35119e-06
-1.36717e-08
1.60518e-08
1.35103e-06
-1.06436e-08
1.36086e-08
1.35022e-06
-7.87709e-09
1.10186e-08
1.34918e-06
-5.66707e-09
8.58939e-09
1.34817e-06
-3.9576e-09
6.43469e-09
1.34729e-06
-2.69657e-09
4.65584e-09
1.3466e-06
-1.82295e-09
3.29636e-09
1.34608e-06
-1.23258e-09
2.28007e-09
1.34574e-06
-8.37166e-10
1.52971e-09
1.34556e-06
-5.82879e-10
9.78943e-10
1.34554e-06
-4.24154e-10
5.64309e-10
1.34565e-06
-3.07839e-10
2.20782e-10
1.34585e-06
-1.68457e-10
-1.10355e-10
1.34599e-06
4.91321e-11
-4.47661e-10
3.56777e-10
-6.73724e-10
1.15882e-06
-6.96137e-09
6.06025e-09
1.16559e-06
-1.96306e-08
1.59686e-08
1.16836e-06
-2.20435e-08
1.99923e-08
1.16668e-06
-2.07078e-08
2.0531e-08
1.16278e-06
-1.80157e-08
1.88938e-08
1.15807e-06
-1.43506e-08
1.59695e-08
1.15345e-06
-1.05666e-08
1.25723e-08
1.14943e-06
-7.39308e-09
9.44938e-09
1.14625e-06
-5.07478e-09
6.92239e-09
1.14387e-06
-3.41811e-09
4.95703e-09
1.14216e-06
-2.29513e-09
3.47546e-09
1.14096e-06
-1.5525e-09
2.38903e-09
1.14014e-06
-1.0646e-09
1.61297e-09
1.13959e-06
-7.34656e-10
1.06021e-09
1.13927e-06
-5.38734e-10
6.64058e-10
1.13913e-06
-4.5597e-10
3.63197e-10
1.13917e-06
-4.24503e-10
8.87394e-11
1.13928e-06
-3.38432e-10
-2.42571e-10
1.13916e-06
-4.61012e-11
-6.85853e-10
5.8328e-10
-1.09918e-09
9.23334e-07
-7.1892e-09
6.96132e-09
9.25405e-07
-2.06662e-08
1.96304e-08
9.17763e-07
-1.82224e-08
2.20434e-08
9.05991e-07
-1.48213e-08
2.07075e-08
8.94222e-07
-1.21308e-08
1.80151e-08
8.84038e-07
-9.258e-09
1.43492e-08
8.75923e-07
-6.50841e-09
1.05642e-08
8.69864e-07
-4.36259e-09
7.38911e-09
8.65549e-07
-2.91514e-09
5.06803e-09
8.62578e-07
-1.93008e-09
3.40668e-09
8.60519e-07
-1.26126e-09
2.27601e-09
8.5907e-07
-8.20805e-10
1.52075e-09
8.58047e-07
-5.41524e-10
1.0119e-09
8.57341e-07
-3.65756e-10
6.49254e-10
8.5684e-07
-2.64988e-10
4.00407e-10
8.56444e-07
-2.22757e-10
2.29355e-10
8.56082e-07
-2.13582e-10
5.51428e-11
8.55585e-07
-1.17083e-10
-2.4781e-10
8.54149e-07
3.33982e-10
-8.15515e-10
-1.00563e-09
-1.57832e-09
6.31206e-07
3.40906e-09
6.15004e-07
2.2473e-08
5.8783e-07
2.39154e-08
5.65149e-07
1.75071e-08
5.46538e-07
1.29798e-08
5.32493e-07
9.49842e-09
5.22502e-07
6.73725e-09
5.15623e-07
4.69074e-09
5.10868e-07
3.30117e-09
5.07568e-07
2.3583e-09
5.05306e-07
1.65916e-09
5.03781e-07
1.13381e-09
5.02747e-07
7.59623e-10
5.02008e-07
5.26612e-10
5.01426e-07
3.86619e-10
5.00901e-07
2.89002e-10
5.00345e-07
2.05097e-10
4.99671e-07
5.63951e-11
4.98939e-07
-3.91555e-10
2.49605e-09
8.90341e-07
6.22617e-09
2.81446e-09
8.82666e-07
1.68562e-08
1.32912e-08
8.71348e-07
1.79746e-08
1.72598e-08
8.57465e-07
1.58725e-08
1.55179e-08
8.44522e-07
1.32995e-08
1.2624e-08
8.33709e-07
1.05772e-08
9.7361e-09
8.25209e-07
8.025e-09
7.21467e-09
8.18797e-07
5.91921e-09
5.18847e-09
8.14076e-07
4.33488e-09
3.69418e-09
8.107e-07
3.11907e-09
2.62893e-09
8.08348e-07
2.17568e-09
1.85865e-09
8.06755e-07
1.469e-09
1.30146e-09
8.05715e-07
9.569e-10
8.91852e-10
8.05079e-07
6.00712e-10
6.04298e-10
8.04749e-07
3.64905e-10
4.27668e-10
8.04691e-07
1.88747e-10
3.16859e-10
8.04942e-07
6.72646e-12
2.08325e-10
8.05579e-07
-3.00836e-10
3.82372e-11
8.06579e-07
-9.05583e-10
-4.05073e-10
-1.82436e-09
-1.08408e-09
1.15882e-06
6.06024e-09
5.22802e-09
1.16559e-06
1.59685e-08
1.37419e-08
1.16836e-06
1.99922e-08
1.72645e-08
1.16668e-06
2.05309e-08
1.77256e-08
1.16278e-06
1.88938e-08
1.63176e-08
1.15807e-06
1.59696e-08
1.36721e-08
1.15345e-06
1.25727e-08
1.06442e-08
1.14943e-06
9.45024e-09
7.87801e-09
1.14625e-06
6.92368e-09
5.66831e-09
1.14387e-06
4.95825e-09
3.95875e-09
1.14217e-06
3.4751e-09
2.69622e-09
1.14097e-06
2.38595e-09
1.81997e-09
1.14014e-06
1.61116e-09
1.2308e-09
1.13959e-06
1.06234e-09
8.40585e-10
1.13926e-06
6.6405e-10
5.84696e-10
1.13912e-06
3.58631e-10
4.20529e-10
1.13916e-06
8.3442e-11
3.03094e-10
1.13927e-06
-2.47632e-10
1.64454e-10
1.13915e-06
-6.89759e-10
-5.16936e-11
-1.09979e-09
-3.56146e-10
1.37708e-06
4.55392e-09
4.55397e-09
1.38555e-06
1.17351e-08
1.17353e-08
1.39386e-06
1.58385e-08
1.58389e-08
1.40048e-06
1.72187e-08
1.72194e-08
1.40494e-06
1.66647e-08
1.66658e-08
1.40726e-06
1.48116e-08
1.48132e-08
1.40805e-06
1.21773e-08
1.21798e-08
1.40794e-06
9.50587e-09
9.50964e-09
1.40748e-06
7.1557e-09
7.1616e-09
1.40693e-06
5.23594e-09
5.2453e-09
1.4064e-06
3.74095e-09
3.75594e-09
1.40596e-06
2.61884e-09
2.64286e-09
1.4056e-06
1.80606e-09
1.84453e-09
1.40532e-06
1.2296e-09
1.29106e-09
1.40511e-06
8.22742e-10
9.20231e-10
1.40496e-06
5.34827e-10
6.87588e-10
1.40486e-06
3.24178e-10
5.58498e-10
1.40475e-06
1.5596e-10
5.00137e-10
1.40457e-06
3.67104e-11
5.02885e-10
6.77586e-11
6.31629e-10
1.53309e-06
2.36144e-09
3.70723e-09
1.54202e-06
6.1441e-09
9.65539e-09
1.55277e-06
8.54323e-09
1.34301e-08
1.56337e-06
9.58348e-09
1.51061e-08
1.57296e-06
9.53399e-09
1.52682e-08
1.58081e-06
8.69896e-09
1.43188e-08
1.58668e-06
7.38566e-09
1.25368e-08
1.59087e-06
5.92379e-09
1.04165e-08
1.59377e-06
4.55077e-09
8.30844e-09
1.59568e-06
3.37139e-09
6.40082e-09
1.59689e-06
2.42519e-09
4.78691e-09
1.59764e-06
1.71092e-09
3.49546e-09
1.59809e-06
1.19665e-09
2.50537e-09
1.59834e-06
8.39528e-10
1.7756e-09
1.59848e-06
5.98637e-10
1.2588e-09
1.59855e-06
4.43574e-10
9.09561e-10
1.59858e-06
3.53033e-10
6.89293e-10
1.5986e-06
3.1321e-10
5.67795e-10
1.59866e-06
3.2955e-10
5.39336e-10
4.54422e-10
6.72924e-10
1.61421e-06
3.15186e-14
3.20316e-09
1.62319e-06
8.79477e-14
8.45083e-09
1.63486e-06
1.57573e-13
1.19708e-08
1.64705e-06
2.71708e-13
1.36857e-08
1.65882e-06
4.59634e-13
1.40749e-08
1.66931e-06
7.33079e-13
1.35487e-08
1.67797e-06
1.15818e-12
1.22781e-08
1.68473e-06
1.81825e-12
1.05567e-08
1.68978e-06
2.84268e-12
8.70604e-09
1.6934e-06
4.49601e-12
6.92687e-09
1.69591e-06
7.21578e-12
5.3391e-09
1.69759e-06
1.17226e-11
3.99949e-09
1.69868e-06
1.91642e-11
2.91747e-09
1.69936e-06
3.0721e-11
2.0858e-09
1.69978e-06
4.7591e-11
1.46636e-09
1.70005e-06
7.17683e-11
1.01215e-09
1.70023e-06
1.06366e-10
6.83068e-10
1.70035e-06
1.55051e-10
4.49606e-10
1.70045e-06
2.22303e-10
3.08733e-10
3.24097e-10
3.41216e-10
1.61421e-06
-2.36144e-09
3.20311e-09
1.62319e-06
-6.14407e-09
8.4507e-09
1.63486e-06
-8.54313e-09
1.19706e-08
1.64705e-06
-9.58328e-09
1.36853e-08
1.65882e-06
-9.53368e-09
1.40743e-08
1.66932e-06
-8.69847e-09
1.35478e-08
1.67798e-06
-7.38487e-09
1.22766e-08
1.68474e-06
-5.92258e-09
1.05544e-08
1.68979e-06
-4.549e-09
8.70248e-09
1.69342e-06
-3.3687e-09
6.9213e-09
1.69593e-06
-2.42081e-09
5.33033e-09
1.69762e-06
-1.70318e-09
3.98561e-09
1.69873e-06
-1.18218e-09
2.89532e-09
1.69943e-06
-8.13503e-10
2.05059e-09
1.69989e-06
-5.56195e-10
1.41149e-09
1.70019e-06
-3.77704e-10
9.28648e-10
1.70041e-06
-2.50204e-10
5.59306e-10
1.70055e-06
-1.50652e-10
2.72265e-10
1.70063e-06
-7.06019e-11
6.61658e-11
-3.41717e-11
2.44017e-11
1.53309e-06
-4.55402e-09
3.70713e-09
1.54202e-06
-1.17353e-08
9.65511e-09
1.55277e-06
-1.58388e-08
1.34296e-08
1.56337e-06
-1.72192e-08
1.51053e-08
1.57297e-06
-1.66655e-08
1.52669e-08
1.58082e-06
-1.48128e-08
1.43168e-08
1.58668e-06
-1.21793e-08
1.25337e-08
1.59088e-06
-9.509e-09
1.04116e-08
1.59378e-06
-7.16099e-09
8.3009e-09
1.5957e-06
-5.24514e-09
6.38905e-09
1.59692e-06
-3.75681e-09
4.7683e-09
1.5977e-06
-2.64453e-09
3.46558e-09
1.59818e-06
-1.84411e-09
2.45639e-09
1.59849e-06
-1.2873e-09
1.69524e-09
1.5987e-06
-9.17213e-10
1.13066e-09
1.59886e-06
-6.87981e-10
7.10771e-10
1.59901e-06
-5.60763e-10
3.87415e-10
1.59912e-06
-5.0223e-10
1.23517e-10
1.59919e-06
-5.03104e-10
-8.27761e-11
-6.28859e-10
-1.47417e-10
1.37708e-06
-6.06032e-09
4.55389e-09
1.38555e-06
-1.59687e-08
1.17351e-08
1.39386e-06
-1.99927e-08
1.58385e-08
1.40048e-06
-2.05316e-08
1.72188e-08
1.40494e-06
-1.88948e-08
1.66648e-08
1.40726e-06
-1.59711e-08
1.48116e-08
1.40805e-06
-1.25752e-08
1.21773e-08
1.40794e-06
-9.45451e-09
9.5057e-09
1.40747e-06
-6.93111e-09
7.15563e-09
1.40692e-06
-4.97158e-09
5.23639e-09
1.4064e-06
-3.49975e-09
3.74255e-09
1.40595e-06
-2.42979e-09
2.62138e-09
1.40559e-06
-1.68197e-09
1.80655e-09
1.40532e-06
-1.17879e-09
1.2265e-09
1.40511e-06
-8.69157e-10
8.20004e-10
1.40497e-06
-7.1811e-10
5.35247e-10
1.40487e-06
-6.98782e-10
3.26264e-10
1.40477e-06
-7.96984e-10
1.57652e-10
1.40459e-06
-1.04981e-09
3.63596e-11
-1.71741e-09
6.4316e-11
1.15882e-06
-6.22615e-09
5.22797e-09
1.16559e-06
-1.68562e-08
1.37418e-08
1.16836e-06
-1.79748e-08
1.72644e-08
1.16668e-06
-1.58728e-08
1.77254e-08
1.16278e-06
-1.33e-08
1.63172e-08
1.15807e-06
-1.05779e-08
1.36714e-08
1.15344e-06
-8.02596e-09
1.06431e-08
1.14942e-06
-5.92086e-09
7.87647e-09
1.14623e-06
-4.33743e-09
5.66591e-09
1.14383e-06
-3.12327e-09
3.95571e-09
1.14209e-06
-2.18313e-09
2.6939e-09
1.14085e-06
-1.48237e-09
1.81915e-09
1.13994e-06
-9.93544e-10
1.22831e-09
1.13926e-06
-6.85467e-10
8.37746e-10
1.13871e-06
-5.15618e-10
5.98343e-10
1.1382e-06
-4.53532e-10
4.72803e-10
1.13763e-06
-5.04959e-10
4.29472e-10
1.13684e-06
-7.09552e-10
4.55331e-10
1.13551e-06
-1.12393e-09
5.9318e-10
-3.44963e-09
1.11278e-09
8.9034e-07
2.8144e-09
8.82666e-07
1.32911e-08
8.71347e-07
1.72597e-08
8.57463e-07
1.55178e-08
8.44519e-07
1.2624e-08
8.33704e-07
9.73613e-09
8.252e-07
7.2147e-09
8.18782e-07
5.18856e-09
8.14052e-07
3.69398e-09
8.10658e-07
2.62838e-09
8.08276e-07
1.85807e-09
8.06627e-07
1.30113e-09
8.05487e-07
9.05634e-10
8.0467e-07
6.58218e-10
8.04001e-07
5.4018e-10
8.03319e-07
5.17681e-10
8.02414e-07
6.04947e-10
8.00862e-07
8.98676e-10
7.97675e-07
1.67166e-09
5.03807e-09
1.07428e-06
5.57317e-09
1.05547e-09
1.06816e-06
1.38907e-08
5.52395e-09
1.06131e-06
1.59205e-08
8.18638e-09
1.05344e-06
1.51307e-08
8.25911e-09
1.04545e-06
1.35384e-08
7.07045e-09
1.03804e-06
1.14997e-08
5.65059e-09
1.03159e-06
9.36433e-09
4.30055e-09
1.02629e-06
7.36234e-09
3.12267e-09
1.02217e-06
5.60518e-09
2.21016e-09
1.01914e-06
4.0991e-09
1.55732e-09
1.01702e-06
2.89229e-09
1.09133e-09
1.01557e-06
1.99491e-09
7.50869e-10
1.01463e-06
1.33544e-09
5.00278e-10
1.01406e-06
8.60584e-10
3.14771e-10
1.01379e-06
5.24567e-10
1.76832e-10
1.01377e-06
2.73715e-10
6.21681e-11
1.01398e-06
5.42661e-11
-6.09859e-11
1.01444e-06
-2.03493e-10
-2.2024e-10
1.01504e-06
-5.71016e-10
-4.29894e-10
-8.02645e-10
-6.07223e-10
1.32755e-06
4.97097e-09
2.70589e-09
1.33519e-06
1.29921e-08
6.99632e-09
1.34234e-06
1.68912e-08
9.14869e-09
1.34738e-06
1.80634e-08
9.74711e-09
1.35018e-06
1.77343e-08
9.32815e-09
1.35119e-06
1.60518e-08
8.10952e-09
1.35103e-06
1.36089e-08
6.55756e-09
1.35022e-06
1.10191e-08
5.03287e-09
1.34919e-06
8.59018e-09
3.71405e-09
1.34817e-06
6.43564e-09
2.6341e-09
1.3473e-06
4.65629e-09
1.80488e-09
1.34661e-06
3.29504e-09
1.21551e-09
1.34609e-06
2.27607e-09
8.01605e-10
1.34575e-06
1.5262e-09
5.14781e-10
1.34557e-06
9.77304e-10
3.15905e-10
1.34554e-06
5.62392e-10
1.65761e-10
1.34564e-06
2.18625e-10
3.07672e-11
1.34584e-06
-1.12588e-10
-1.22716e-10
1.34598e-06
-4.49744e-10
-3.13823e-10
-6.7513e-10
-5.31478e-10
1.53309e-06
3.70717e-09
2.36139e-09
1.54202e-06
9.65513e-09
6.14401e-09
1.55277e-06
1.34295e-08
8.54313e-09
1.56337e-06
1.51052e-08
9.58334e-09
1.57297e-06
1.52667e-08
9.53377e-09
1.58082e-06
1.43167e-08
8.69856e-09
1.58669e-06
1.25336e-08
7.38497e-09
1.59088e-06
1.04115e-08
5.92265e-09
1.59378e-06
8.30069e-09
4.54891e-09
1.59571e-06
6.38856e-09
3.36827e-09
1.59693e-06
4.76727e-09
2.41984e-09
1.5977e-06
3.46391e-09
1.70182e-09
1.59819e-06
2.45477e-09
1.18143e-09
1.5985e-06
1.69491e-09
8.14614e-10
1.5987e-06
1.13137e-09
5.58483e-10
1.59886e-06
7.11348e-10
3.79522e-10
1.599e-06
3.87648e-10
2.51274e-10
1.59911e-06
1.23867e-10
1.51621e-10
1.59918e-06
-8.17336e-11
7.22196e-11
-1.45376e-10
3.66691e-11
1.68031e-06
1.92984e-09
1.92985e-09
1.68939e-06
5.11633e-09
5.1164e-09
1.70162e-06
7.31472e-09
7.31495e-09
1.71492e-06
8.45265e-09
8.45305e-09
1.72806e-06
8.69859e-09
8.6992e-09
1.74012e-06
8.28649e-09
8.28737e-09
1.7504e-06
7.394e-09
7.39527e-09
1.75872e-06
6.25453e-09
6.25642e-09
1.76519e-06
5.06677e-09
5.0696e-09
1.77006e-06
3.95808e-09
3.96235e-09
1.77362e-06
2.99582e-09
3.00231e-09
1.77616e-06
2.20464e-09
2.21451e-09
1.77794e-06
1.57981e-09
1.59483e-09
1.77918e-06
1.10479e-09
1.1276e-09
1.78003e-06
7.54989e-10
7.89255e-10
1.78059e-06
5.01309e-10
5.51691e-10
1.78096e-06
3.17511e-10
3.89e-10
1.78119e-06
1.8425e-10
2.80654e-10
1.78133e-06
1.00367e-10
2.21932e-10
1.15826e-10
2.57395e-10
1.75698e-06
-1.82542e-14
1.68161e-09
1.76606e-06
-3.68158e-14
4.48702e-09
1.77882e-06
-5.08806e-14
6.53087e-09
1.79328e-06
-6.71953e-14
7.67716e-09
1.808e-06
-7.93658e-14
8.05001e-09
1.822e-06
-8.6206e-14
7.83231e-09
1.8345e-06
-9.39426e-14
7.17879e-09
1.84505e-06
-1.14465e-13
6.25706e-09
1.85359e-06
-1.42016e-13
5.22908e-09
1.86026e-06
-1.48473e-13
4.21538e-09
1.86531e-06
-7.8798e-14
3.29175e-09
1.86902e-06
1.70066e-13
2.49461e-09
1.87169e-06
7.21234e-13
1.82484e-09
1.87358e-06
1.53721e-12
1.3012e-09
1.87488e-06
2.51265e-12
9.16497e-10
1.87575e-06
3.79564e-12
6.35748e-10
1.87631e-06
5.98563e-12
4.34025e-10
1.87664e-06
1.00973e-11
2.92916e-10
1.87684e-06
1.77666e-11
1.9166e-10
3.48644e-11
2.4276e-10
1.75698e-06
-1.92992e-09
1.68158e-09
1.76606e-06
-5.11649e-09
4.48694e-09
1.77882e-06
-7.31496e-09
6.53074e-09
1.79328e-06
-8.45301e-09
7.67695e-09
1.808e-06
-8.69912e-09
8.0497e-09
1.822e-06
-8.28727e-09
7.83185e-09
1.8345e-06
-7.39517e-09
7.17809e-09
1.84505e-06
-6.25633e-09
6.25598e-09
1.8536e-06
-5.06958e-09
5.2274e-09
1.86027e-06
-3.96245e-09
4.21277e-09
1.86531e-06
-3.00251e-09
3.28768e-09
1.86902e-06
-2.21466e-09
2.48825e-09
1.8717e-06
-1.59456e-09
1.81499e-09
1.87359e-06
-1.12665e-09
1.28618e-09
1.8749e-06
-7.87913e-10
8.94105e-10
1.87578e-06
-5.5045e-10
6.03307e-10
1.87634e-06
-3.88036e-10
3.88522e-10
1.87667e-06
-2.79822e-10
2.31546e-10
1.87687e-06
-2.21026e-10
1.12385e-10
-2.56372e-10
1.42227e-10
1.68031e-06
-3.7073e-09
1.9298e-09
1.68939e-06
-9.6554e-09
5.11628e-09
1.70162e-06
-1.343e-08
7.31474e-09
1.71492e-06
-1.51059e-08
8.45274e-09
1.72806e-06
-1.52678e-08
8.69874e-09
1.74012e-06
-1.43184e-08
8.28672e-09
1.7504e-06
-1.25364e-08
7.39433e-09
1.75872e-06
-1.0416e-08
6.25499e-09
1.76519e-06
-8.30793e-09
5.0674e-09
1.77006e-06
-6.40041e-09
3.95891e-09
1.77361e-06
-4.78673e-09
2.99684e-09
1.77615e-06
-3.49542e-09
2.20566e-09
1.77794e-06
-2.50497e-09
1.58037e-09
1.77918e-06
-1.77466e-09
1.1045e-09
1.78002e-06
-1.25812e-09
7.53981e-10
1.78059e-06
-9.09791e-10
5.00055e-10
1.78097e-06
-6.9018e-10
3.16206e-10
1.7812e-06
-5.68836e-10
1.82761e-10
1.78133e-06
-5.402e-10
9.84794e-11
-6.73524e-10
1.13501e-10
1.53309e-06
-4.97104e-09
2.36139e-09
1.54202e-06
-1.29922e-08
6.14403e-09
1.55277e-06
-1.68915e-08
8.54319e-09
1.56337e-06
-1.80641e-08
9.58346e-09
1.57296e-06
-1.77354e-08
9.53398e-09
1.58081e-06
-1.60536e-08
8.69899e-09
1.58668e-06
-1.36118e-08
7.38578e-09
1.59087e-06
-1.10239e-08
5.92406e-09
1.59376e-06
-8.59796e-09
4.55128e-09
1.59567e-06
-6.44873e-09
3.37225e-09
1.59688e-06
-4.67935e-09
2.42643e-09
1.59763e-06
-3.33517e-09
1.7122e-09
1.59808e-06
-2.34519e-09
1.197e-09
1.59834e-06
-1.64364e-09
8.38445e-10
1.59848e-06
-1.17474e-09
5.97104e-10
1.59855e-06
-8.89575e-10
4.42677e-10
1.59859e-06
-7.52631e-10
3.52637e-10
1.59861e-06
-7.46024e-10
3.12627e-10
1.59867e-06
-8.92178e-10
3.28227e-10
-1.28019e-09
4.52276e-10
1.32755e-06
-5.57317e-09
2.70595e-09
1.33519e-06
-1.38907e-08
6.99647e-09
1.34234e-06
-1.59206e-08
9.14899e-09
1.34738e-06
-1.5131e-08
9.74765e-09
1.35017e-06
-1.35388e-08
9.32905e-09
1.35118e-06
-1.15004e-08
8.11107e-09
1.35102e-06
-9.3657e-09
6.5603e-09
1.3502e-06
-7.3647e-09
5.03766e-09
1.34915e-06
-5.60866e-09
3.72203e-09
1.34811e-06
-4.10493e-09
2.64762e-09
1.3472e-06
-2.90316e-09
1.82805e-09
1.34645e-06
-2.01581e-09
1.25438e-09
1.34584e-06
-1.37732e-09
8.66205e-10
1.34536e-06
-9.40174e-10
6.2262e-10
1.34495e-06
-6.65539e-10
4.97474e-10
1.34458e-06
-5.17545e-10
4.68956e-10
1.34421e-06
-4.79589e-10
5.29561e-10
1.34378e-06
-5.55063e-10
6.89308e-10
1.34326e-06
-7.62136e-10
9.84988e-10
-1.67705e-09
1.4504e-09
1.07428e-06
1.05554e-09
1.06816e-06
5.52422e-09
1.06131e-06
8.18686e-09
1.05344e-06
8.25987e-09
1.04545e-06
7.07171e-09
1.03803e-06
5.65268e-09
1.03158e-06
4.3039e-09
1.02627e-06
3.12819e-09
1.02214e-06
2.21948e-09
1.01909e-06
1.57335e-09
1.01693e-06
1.11882e-09
1.01541e-06
7.97778e-10
1.01436e-06
5.83615e-10
1.01361e-06
4.63525e-10
1.01305e-06
4.35596e-10
1.01256e-06
4.92393e-10
1.01202e-06
6.60697e-10
1.01136e-06
1.01253e-09
1.01057e-06
1.70011e-09
3.34892e-09
1.16915e-06
4.88903e-09
-4.0707e-14
1.16299e-06
1.16891e-08
-2.30265e-13
1.15687e-06
1.4308e-08
-4.54837e-13
1.15106e-06
1.40695e-08
-7.02593e-13
1.14511e-06
1.30146e-08
-1.02687e-12
1.13928e-06
1.14831e-08
-1.62973e-12
1.13396e-06
9.62275e-09
-2.65367e-12
1.12936e-06
7.73101e-09
-4.37488e-12
1.12557e-06
6.00345e-09
-7.21321e-12
1.12263e-06
4.50947e-09
-1.19797e-11
1.12044e-06
3.30447e-09
-1.98944e-11
1.11886e-06
2.35812e-09
-3.29703e-11
1.1178e-06
1.61693e-09
-5.4507e-11
1.11715e-06
1.0596e-09
-8.98586e-11
1.11681e-06
6.64431e-10
-1.4817e-10
1.11673e-06
3.80273e-10
-2.40691e-10
1.1169e-06
1.54099e-10
-3.8733e-10
1.11736e-06
-6.86016e-11
-6.15e-10
1.11821e-06
-3.2298e-10
-9.51937e-10
-3.91364e-10
-1.47485e-09
1.41506e-06
4.2806e-09
-8.90856e-14
1.42246e-06
1.12827e-08
-2.43537e-13
1.43082e-06
1.51024e-08
-3.97495e-13
1.43834e-06
1.62928e-08
-6.38456e-13
1.44438e-06
1.6305e-08
-1.00599e-12
1.44863e-06
1.53466e-08
-1.59235e-12
1.45126e-06
1.35524e-08
-2.54491e-12
1.45263e-06
1.13912e-08
-4.0963e-12
1.45315e-06
9.20262e-09
-6.60823e-12
1.45314e-06
7.17279e-09
-1.0756e-11
1.45285e-06
5.41402e-09
-1.7593e-11
1.45249e-06
3.96518e-09
-2.86144e-11
1.45215e-06
2.80117e-09
-4.6498e-11
1.45189e-06
1.90901e-09
-7.53796e-11
1.45173e-06
1.26022e-09
-1.21133e-10
1.45169e-06
7.84038e-10
-1.91915e-10
1.45175e-06
4.16755e-10
-2.99763e-10
1.45191e-06
1.08133e-10
-4.58461e-10
1.4521e-06
-1.50192e-10
-6.77437e-10
-2.61963e-10
-9.30195e-10
1.61421e-06
3.20315e-09
-7.50499e-14
1.62319e-06
8.45071e-09
-1.74595e-13
1.63486e-06
1.19705e-08
-2.59119e-13
1.64705e-06