/*--------------------------------*- C++ -*----------------------------------*\
| =========                 |                                                 |
| \\      /  F ield         | OpenFOAM: The Open Source CFD Toolbox           |
|  \\    /   O peration     | Version:  2212                                  |
|   \\  /    A nd           | Website:  www.openfoam.com                      |
|    \\/     M anipulation  |                                                 |
\*---------------------------------------------------------------------------*/
FoamFile
{
    version     2.0;
    format      ascii;
    arch        "LSB;label=32;scalar=64";
    class       volVectorField;
    location    "0.1";
    object      U;
}
// * * * * * * * * * * * * * * * * * * * * * * * * * * * * * * * * * * * * * //

dimensions      [0 1 -1 0 0 0 0];

internalField   nonuniform List<vector> 
6840
(
(0.095647 -0.0083749 -0.00837489)
(0.090716 0.00158987 0.00158987)
(0.079152 0.00240494 0.00240499)
(0.0714849 0.0014145 0.00141457)
(0.0666238 0.000717606 0.000717703)
(0.063304 0.000430116 0.000430299)
(0.0610159 0.000275412 0.000275792)
(0.0594335 0.000169443 0.000170089)
(0.0583871 0.000106619 0.000107601)
(0.0576719 6.85287e-05 7.02056e-05)
(0.057193 4.42979e-05 4.7031e-05)
(0.0568734 2.74772e-05 3.22229e-05)
(0.0566609 1.60875e-05 2.4071e-05)
(0.0565239 7.34307e-06 1.98842e-05)
(0.0564337 -2.89181e-06 1.83886e-05)
(0.0563683 -1.3821e-05 2.42951e-05)
(0.0563233 -3.1567e-05 3.65182e-05)
(0.0563391 -8.24963e-05 4.1535e-05)
(0.0565474 -0.000173037 4.36404e-05)
(0.0560689 -0.00106487 -0.000571104)
(0.0998881 0.00123971 0.000667377)
(0.0969621 0.00366889 0.00273821)
(0.0936282 0.0025797 0.00206649)
(0.0899221 0.00170479 0.00149856)
(0.0865658 0.0013202 0.00119896)
(0.0839962 0.00101048 0.000925341)
(0.0821454 0.000715726 0.000664363)
(0.080854 0.000489566 0.000456589)
(0.0799776 0.000335102 0.000310883)
(0.079361 0.000231038 0.000211906)
(0.0789393 0.000159551 0.00013766)
(0.078652 0.000107872 8.65913e-05)
(0.078457 7.04427e-05 5.28296e-05)
(0.0783292 4.29655e-05 3.28683e-05)
(0.0782363 2.26159e-05 2.57943e-05)
(0.0781523 4.08499e-06 2.64041e-05)
(0.0780727 -2.1447e-05 3.11084e-05)
(0.0779892 -7.43661e-05 3.43031e-05)
(0.0779023 -0.000224163 4.3243e-05)
(0.0773144 0.000100752 0.000616791)
(0.0993831 0.000304495 0.000219255)
(0.098847 0.00199423 0.00182778)
(0.0979716 0.00249409 0.00210278)
(0.0965509 0.00217531 0.00176813)
(0.0949902 0.00172598 0.00141004)
(0.093613 0.0012868 0.00108677)
(0.0925263 0.000919068 0.00081908)
(0.0917021 0.000642126 0.000611388)
(0.0910851 0.000453509 0.000454705)
(0.0906389 0.000327481 0.000332025)
(0.0903233 0.000235822 0.000234099)
(0.0901029 0.000168384 0.000158202)
(0.0899516 0.000116761 0.000102213)
(0.0898474 8.01223e-05 6.50013e-05)
(0.0897691 6.03516e-05 4.57889e-05)
(0.089698 5.53793e-05 4.23036e-05)
(0.0896145 5.89661e-05 5.22488e-05)
(0.0894818 7.39009e-05 8.04498e-05)
(0.0892577 0.000105615 0.000136624)
(0.0889598 0.000443032 0.000557523)
(0.0995452 0.000246764 0.000328711)
(0.099252 0.00105009 0.0015675)
(0.0988383 0.00145494 0.00208117)
(0.0981199 0.00143478 0.00198619)
(0.0973671 0.00121074 0.00170323)
(0.0966248 0.000957316 0.00139212)
(0.0959678 0.00072751 0.00110118)
(0.0954197 0.000528514 0.000845685)
(0.0949822 0.000373995 0.000631785)
(0.0946502 0.000264588 0.000456253)
(0.0944105 0.000187389 0.000320616)
(0.0942441 0.00013296 0.000219251)
(0.0941294 9.62775e-05 0.000145767)
(0.0940487 7.4007e-05 9.50604e-05)
(0.0939897 6.60489e-05 6.31814e-05)
(0.0939421 7.01407e-05 4.5951e-05)
(0.0938965 9.01638e-05 4.07819e-05)
(0.0938421 0.000138678 4.77055e-05)
(0.0937656 0.000248953 7.28953e-05)
(0.0937229 0.000560431 0.000236641)
(0.0993786 3.26716e-05 5.95666e-05)
(0.0992646 0.000263784 0.00122418)
(0.0989587 0.000409465 0.00191395)
(0.0984206 0.000434658 0.00198309)
(0.0978934 0.000387304 0.00181906)
(0.0973785 0.00031465 0.00155682)
(0.0968942 0.000237791 0.00126102)
(0.096466 0.000169937 0.000974268)
(0.096106 0.000117854 0.000725082)
(0.0958187 8.28146e-05 0.000517106)
(0.0955987 6.04419e-05 0.000360965)
(0.0954379 4.614e-05 0.000248183)
(0.0953247 3.7556e-05 0.000166951)
(0.0952486 3.4512e-05 0.000109229)
(0.0952007 3.84184e-05 6.95701e-05)
(0.0951732 5.10306e-05 4.25779e-05)
(0.0951625 7.58569e-05 2.41933e-05)
(0.0951701 0.000118985 9.61971e-06)
(0.0951872 0.000191843 5.20896e-07)
(0.0952018 0.00032104 5.40654e-05)
(0.0993786 -3.26683e-05 5.95683e-05)
(0.0992646 -0.000263759 0.00122418)
(0.0989587 -0.000409394 0.00191395)
(0.0984206 -0.000434522 0.00198307)
(0.0978936 -0.000387067 0.00181903)
(0.0973788 -0.00031423 0.00155677)
(0.0968946 -0.000237066 0.00126094)
(0.0964666 -0.000168698 0.000974154)
(0.0961071 -0.000115767 0.000724886)
(0.0958204 -7.93395e-05 0.000516782)
(0.0956014 -5.47103e-05 0.00036041)
(0.0954423 -3.67325e-05 0.000247197)
(0.0953318 -2.23418e-05 0.000165366)
(0.09526 -1.0189e-05 0.000106643)
(0.0952193 1.15932e-06 6.48251e-05)
(0.0952028 1.42592e-05 3.51631e-05)
(0.0952077 3.19966e-05 1.13684e-05)
(0.095235 5.66756e-05 -1.26285e-05)
(0.0952786 8.77116e-05 -3.93323e-05)
(0.0953026 0.000120844 -2.433e-05)
(0.0995452 -0.000246768 0.000328713)
(0.099252 -0.00105009 0.0015675)
(0.0988384 -0.00145492 0.00208115)
(0.0981201 -0.00143474 0.00198617)
(0.0973674 -0.00121066 0.00170318)
(0.0966254 -0.000957129 0.00139201)
(0.0959688 -0.000727161 0.00110097)
(0.0954213 -0.000527872 0.000845325)
(0.094985 -0.000372887 0.000631173)
(0.0946547 -0.00026267 0.000455197)
(0.0944179 -0.000184207 0.000318891)
(0.0942559 -0.00012791 0.00021665)
(0.0941484 -8.81604e-05 0.000142046)
(0.0940808 -6.09186e-05 8.94324e-05)
(0.0940432 -4.25296e-05 5.29652e-05)
(0.0940307 -2.73303e-05 2.60002e-05)
(0.0940398 -1.12769e-05 2.35876e-06)
(0.0940698 1.19641e-05 -2.54811e-05)
(0.0941225 4.95311e-05 -6.78302e-05)
(0.0941908 9.9356e-05 -7.76061e-05)
(0.0993831 -0.000304512 0.000219264)
(0.098847 -0.00199426 0.00182778)
(0.0979717 -0.00249413 0.00210274)
(0.096551 -0.00217537 0.00176806)
(0.0949905 -0.00172607 0.00140994)
(0.0936135 -0.00128694 0.00108661)
(0.0925272 -0.000919286 0.000818804)
(0.0917037 -0.000642406 0.000610889)
(0.0910879 -0.00045392 0.000453817)
(0.0906437 -0.000328005 0.000330544)
(0.0903313 -0.000236245 0.000231588)
(0.090116 -0.000168179 0.000153753)
(0.0899743 -0.000118375 9.66586e-05)
(0.0898848 -8.7988e-05 5.8671e-05)
(0.0898317 -7.37949e-05 3.34873e-05)
(0.0898093 -6.76704e-05 1.27378e-05)
(0.0898184 -6.59241e-05 -9.47905e-06)
(0.0898659 -5.8725e-05 -4.38679e-05)
(0.0899733 -1.22654e-05 -0.000118416)
(0.0900652 0.000120016 -0.000232057)
(0.0998881 -0.00123968 0.000667355)
(0.0969621 -0.00366891 0.00273819)
(0.0936283 -0.00257976 0.00206646)
(0.0899221 -0.0017049 0.0014985)
(0.0865659 -0.00132039 0.00119885)
(0.0839964 -0.0010108 0.000925158)
(0.0821459 -0.000716244 0.000664064)
(0.0808548 -0.000490387 0.000456059)
(0.0799792 -0.000336354 0.000310127)
(0.0793641 -0.000232953 0.000210297)
(0.0789446 -0.000162847 0.000135331)
(0.0786597 -0.00011388 8.25095e-05)
(0.0784748 -8.15708e-05 4.74226e-05)
(0.0783516 -6.4692e-05 2.63717e-05)
(0.0782617 -5.96628e-05 1.1516e-05)
(0.0782031 -6.49041e-05 -3.97872e-06)
(0.078173 -8.0788e-05 -2.55747e-05)
(0.0781979 -9.29538e-05 -7.37791e-05)
(0.0783547 -4.65798e-05 -0.000222728)
(0.0782913 0.000333838 -0.000853211)
(0.095647 0.0083749 -0.00837489)
(0.090716 -0.00158987 0.00158983)
(0.079152 -0.00240497 0.00240494)
(0.0714849 -0.00141456 0.00141447)
(0.0666238 -0.000717713 0.00071756)
(0.0633041 -0.00043031 0.000430065)
(0.061016 -0.000275798 0.000275358)
(0.0594337 -0.000170085 0.000169373)
(0.0583876 -0.000107603 0.000106535)
(0.0576729 -7.02728e-05 6.8494e-05)
(0.0571947 -4.71374e-05 4.42586e-05)
(0.0568743 -3.30523e-05 2.8075e-05)
(0.0566641 -2.44284e-05 1.625e-05)
(0.0565284 -1.84574e-05 6.25492e-06)
(0.0564331 -1.8001e-05 -2.94253e-06)
(0.056367 -2.50879e-05 -1.30434e-05)
(0.056321 -3.69252e-05 -3.11317e-05)
(0.0563358 -4.15833e-05 -8.22879e-05)
(0.0565437 -4.35896e-05 -0.000172799)
(0.056066 0.000571215 -0.00106474)
(0.0998882 0.000667392 0.00123972)
(0.0969621 0.00273823 0.00366893)
(0.0936282 0.00206646 0.00257971)
(0.0899221 0.00149849 0.00170485)
(0.0865659 0.00119886 0.00132032)
(0.0839964 0.000925182 0.00101074)
(0.0821458 0.000664126 0.000716189)
(0.0808546 0.000456169 0.00049038)
(0.0799787 0.000310357 0.00033643)
(0.0793629 0.000210844 0.000233227)
(0.0789424 0.000135843 0.000163286)
(0.0786574 8.356e-05 0.000114936)
(0.0784668 4.75681e-05 8.21433e-05)
(0.0783466 2.30631e-05 6.2902e-05)
(0.0782663 8.84241e-06 5.75622e-05)
(0.0782062 -3.79664e-06 6.4277e-05)
(0.0781764 -2.47628e-05 8.10438e-05)
(0.0782019 -7.34094e-05 9.31202e-05)
(0.0783588 -0.000222638 4.67763e-05)
(0.0782954 -0.000853249 -0.00033375)
(0.100215 0.000709547 0.000709557)
(0.0999162 0.00192889 0.00192891)
(0.0997986 0.00236496 0.00236503)
(0.0989007 0.00226363 0.00226374)
(0.0975367 0.00196886 0.00196906)
(0.096301 0.00153639 0.00153671)
(0.0953003 0.00109179 0.00109232)
(0.0945354 0.000732266 0.000733145)
(0.093982 0.000482339 0.000483849)
(0.0936003 0.000309886 0.000312437)
(0.093337 0.000199355 0.000203652)
(0.0931529 0.000127883 0.000135038)
(0.093024 8.287e-05 9.50273e-05)
(0.0929313 5.10922e-05 7.19227e-05)
(0.0928652 2.11434e-05 5.67688e-05)
(0.0928192 -7.84542e-06 5.28585e-05)
(0.0927808 -4.43075e-05 6.0869e-05)
(0.0927336 -0.000117618 6.45531e-05)
(0.0926658 -0.000276246 3.35275e-05)
(0.0926207 -0.000581557 -0.000108314)
(0.100138 0.000766661 0.000866561)
(0.100442 0.00193495 0.00194825)
(0.100901 0.00233943 0.00226249)
(0.100977 0.00232193 0.00228139)
(0.10071 0.00206823 0.00208747)
(0.100307 0.00168461 0.00174492)
(0.099889 0.0012742 0.00135519)
(0.0995116 0.00091575 0.00100479)
(0.0991984 0.000644308 0.000733244)
(0.0989596 0.000444834 0.000523817)
(0.0987834 0.000301463 0.00036489)
(0.0986578 0.00020147 0.000249504)
(0.0985675 0.000134323 0.000170868)
(0.0985 8.93224e-05 0.000119919)
(0.0984477 5.88222e-05 9.00605e-05)
(0.0984037 3.7982e-05 7.83819e-05)
(0.0983582 2.21627e-05 8.41783e-05)
(0.0982974 6.16712e-06 0.000107465)
(0.0982191 -9.11144e-06 0.000151543)
(0.098207 2.26044e-05 0.000258306)
(0.100092 0.000440965 0.00076671)
(0.100496 0.00116729 0.00174593)
(0.101083 0.00151275 0.00209685)
(0.101573 0.00159653 0.00216207)
(0.101877 0.00151671 0.00211782)
(0.102007 0.00130499 0.00191372)
(0.102029 0.00104444 0.00162237)
(0.101986 0.000791974 0.00131536)
(0.10191 0.000575828 0.00102578)
(0.101828 0.000400442 0.000762502)
(0.101753 0.000269076 0.000543836)
(0.10169 0.000180438 0.000381823)
(0.101639 0.000122423 0.000264021)
(0.101598 8.62489e-05 0.000181488)
(0.101564 6.61948e-05 0.000127562)
(0.101535 5.89795e-05 9.5909e-05)
(0.101507 6.34626e-05 8.20512e-05)
(0.101475 8.08105e-05 8.34438e-05)
(0.101445 0.000117449 0.000100033)
(0.101476 0.000184697 0.000144604)
(0.100085 0.000143006 0.00071707)
(0.100463 0.000380469 0.00163855)
(0.101032 0.00051105 0.002034)
(0.101629 0.000554183 0.0020876)
(0.102129 0.000534855 0.00206187)
(0.102491 0.000468291 0.00193808)
(0.102728 0.000378794 0.00170591)
(0.102865 0.000289526 0.00143028)
(0.102926 0.00021286 0.00115268)
(0.102938 0.000152322 0.00089681)
(0.102923 0.00010721 0.000675416)
(0.102896 7.5254e-05 0.000492219)
(0.102867 5.38358e-05 0.000343227)
(0.102842 4.19189e-05 0.000230363)
(0.102822 3.89229e-05 0.00015304)
(0.102808 4.39146e-05 0.000100788)
(0.102799 5.73638e-05 6.49905e-05)
(0.102796 8.07399e-05 3.93768e-05)
(0.102803 0.00011645 2.2198e-05)
(0.102849 0.000160993 2.06973e-05)
(0.100085 -0.000142997 0.000717069)
(0.100463 -0.000380434 0.00163855)
(0.101032 -0.000510982 0.00203399)
(0.101629 -0.000554055 0.00208756)
(0.102129 -0.000534631 0.00206178)
(0.102492 -0.000467916 0.00193797)
(0.102729 -0.000378177 0.00170573)
(0.102866 -0.000288515 0.00142998)
(0.102927 -0.000211221 0.00115221)
(0.102939 -0.000149672 0.000896058)
(0.102925 -0.000102913 0.000674224)
(0.1029 -6.82495e-05 0.000490447)
(0.102873 -4.2285e-05 0.000340323)
(0.102851 -2.29328e-05 0.000225444)
(0.102836 -8.2155e-06 0.000144659)
(0.102829 5.05431e-06 8.6565e-05)
(0.10283 1.9735e-05 4.1595e-05)
(0.102837 3.83527e-05 1.96025e-06)
(0.102855 6.20266e-05 -3.51119e-05)
(0.102899 8.90258e-05 -5.81442e-05)
(0.100092 -0.000440969 0.000766707)
(0.100496 -0.0011673 0.00174592)
(0.101083 -0.00151273 0.00209679)
(0.101573 -0.0015965 0.00216195)
(0.101877 -0.00151666 0.00211764)
(0.102007 -0.00130489 0.00191341)
(0.10203 -0.00104426 0.00162189)
(0.101987 -0.000791679 0.00131459)
(0.101911 -0.0005754 0.00102464)
(0.101831 -0.000399786 0.000760701)
(0.101758 -0.000268013 0.000540909)
(0.101698 -0.000178666 0.000377227)
(0.101652 -0.000119044 0.000256657)
(0.10162 -7.94026e-05 0.000168251)
(0.1016 -5.36059e-05 0.000103722)
(0.101593 -3.66032e-05 5.48441e-05)
(0.101596 -2.30675e-05 1.25688e-05)
(0.101608 -7.50413e-06 -3.19194e-05)
(0.10163 1.38483e-05 -8.36715e-05)
(0.101678 4.02836e-05 -0.000125511)
(0.100138 -0.000766674 0.000866553)
(0.100442 -0.00193497 0.00194822)
(0.100901 -0.00233947 0.0022624)
(0.100977 -0.002322 0.00228124)
(0.10071 -0.00206835 0.00208725)
(0.100308 -0.00168484 0.00174459)
(0.0998896 -0.00127457 0.00135464)
(0.0995125 -0.000916296 0.00100382)
(0.0991999 -0.000645203 0.000731654)
(0.0989619 -0.00044639 0.000521279)
(0.0987873 -0.000304281 0.000360981)
(0.0986646 -0.00020637 0.000243373)
(0.098579 -0.000141966 0.000160334)
(0.098521 -0.000101 0.000101114)
(0.0984847 -7.74699e-05 5.702e-05)
(0.0984656 -6.72133e-05 2.02334e-05)
(0.0984618 -6.56449e-05 -1.89199e-05)
(0.0984682 -6.63244e-05 -7.39806e-05)
(0.0984812 -6.19584e-05 -0.000159139)
(0.0985126 -5.27739e-05 -0.000258232)
(0.100215 -0.000709558 0.000709554)
(0.0999162 -0.00192893 0.0019289)
(0.0997986 -0.00236503 0.00236498)
(0.0989007 -0.00226372 0.00226361)
(0.0975367 -0.00196902 0.00196883)
(0.096301 -0.00153666 0.00153634)
(0.0953004 -0.00109224 0.0010917)
(0.0945355 -0.000733001 0.000732097)
(0.0939822 -0.00048362 0.000482079)
(0.0936005 -0.000312318 0.000309718)
(0.093337 -0.000204457 0.000200092)
(0.093152 -0.000138108 0.000130846)
(0.093021 -9.65254e-05 8.42085e-05)
(0.0929301 -6.77828e-05 4.6928e-05)
(0.092868 -5.31083e-05 1.77149e-05)
(0.0928216 -5.33378e-05 -7.28605e-06)
(0.0927818 -6.21168e-05 -4.2877e-05)
(0.0927334 -6.56141e-05 -0.000116226)
(0.0926646 -3.41436e-05 -0.000275173)
(0.0926192 0.000108406 -0.000581214)
(0.0998881 -0.000667395 0.00123972)
(0.0969621 -0.00273824 0.00366889)
(0.0936282 -0.00206647 0.00257961)
(0.0899221 -0.00149852 0.00170471)
(0.0865658 -0.00119892 0.00132011)
(0.0839962 -0.000925287 0.00101038)
(0.0821455 -0.000664268 0.000715592)
(0.0808542 -0.000456436 0.000489363)
(0.0799781 -0.000310623 0.000334777)
(0.0793622 -0.000211328 0.000230514)
(0.0789414 -0.000137101 0.000158779)
(0.0786541 -8.55459e-05 0.000106482)
(0.0784649 -5.27202e-05 6.96504e-05)
(0.0783342 -3.58856e-05 4.43899e-05)
(0.0782318 -2.82553e-05 2.44879e-05)
(0.0781492 -2.62454e-05 4.76314e-06)
(0.0780694 -3.03479e-05 -2.12316e-05)
(0.0779854 -3.39061e-05 -7.41975e-05)
(0.077898 -4.32601e-05 -0.000223568)
(0.0773101 -0.000616589 0.00010107)
(0.0993831 0.000219259 0.000304475)
(0.0988469 0.00182778 0.00199422)
(0.0979717 0.00210276 0.00249411)
(0.096551 0.00176808 0.00217535)
(0.0949904 0.00140996 0.00172606)
(0.0936134 0.00108664 0.00128692)
(0.0925271 0.00081887 0.000919275)
(0.0917035 0.000611035 0.00064245)
(0.0910875 0.000454116 0.000454065)
(0.0906431 0.000331041 0.000328445)
(0.0903303 0.00023246 0.000237316)
(0.0901147 0.000155471 0.00017061)
(0.089972 9.73572e-05 0.000120175)
(0.0898827 5.63165e-05 8.54778e-05)
(0.0898315 2.98437e-05 6.85184e-05)
(0.08981 1.06714e-05 6.45344e-05)
(0.08982 -9.75093e-06 6.53521e-05)
(0.0898682 -4.35437e-05 5.9008e-05)
(0.0899761 -0.000118356 1.2526e-05)
(0.0900684 -0.000232643 -0.000120517)
(0.100138 0.000866559 0.000766658)
(0.100442 0.00194823 0.00193497)
(0.100901 0.00226241 0.00233948)
(0.100977 0.00228124 0.00232202)
(0.10071 0.00208726 0.00206839)
(0.100308 0.00174462 0.00168488)
(0.0998895 0.00135472 0.00127464)
(0.0995125 0.00100397 0.000916417)
(0.0992 0.000731885 0.000645383)
(0.0989622 0.000521561 0.000446588)
(0.0987878 0.000361096 0.000304312)
(0.0986653 0.000243049 0.000206082)
(0.0985801 0.000159792 0.000141782)
(0.0985215 0.000100761 0.000101265)
(0.0984841 5.67653e-05 7.75234e-05)
(0.098465 1.9866e-05 6.67763e-05)
(0.0984611 -1.93413e-05 6.50923e-05)
(0.0984675 -7.44762e-05 6.5796e-05)
(0.0984806 -0.000159556 6.16356e-05)
(0.0985118 -0.000258077 5.29716e-05)
(0.100059 0.000637396 0.0006374)
(0.1005 0.0016187 0.00161873)
(0.101129 0.00213154 0.00213163)
(0.101708 0.00226113 0.00226127)
(0.102136 0.00214139 0.00214161)
(0.102355 0.00186877 0.00186911)
(0.10246 0.00151161 0.00151215)
(0.10248 0.00116489 0.00116575)
(0.102453 0.000867243 0.000868628)
(0.102412 0.000628975 0.000631226)
(0.102372 0.000446582 0.000450264)
(0.102336 0.000310856 0.000316898)
(0.102307 0.000212419 0.000222354)
(0.102284 0.000141688 0.000158014)
(0.102266 9.00669e-05 0.00011681)
(0.102253 5.0837e-05 9.43545e-05)
(0.102244 1.78752e-05 8.76417e-05)
(0.102236 -1.48544e-05 9.40297e-05)
(0.102229 -4.81259e-05 0.000114205)
(0.102251 -6.66183e-05 0.000157024)
(0.100045 0.000393461 0.000546836)
(0.100476 0.00102612 0.00138608)
(0.101138 0.00141525 0.00188678)
(0.101859 0.00157374 0.00208448)
(0.102544 0.00155147 0.00207664)
(0.103122 0.00140542 0.00191995)
(0.103564 0.00118231 0.00165886)
(0.10389 0.000939622 0.00136443)
(0.104116 0.000715888 0.00107974)
(0.104268 0.000527141 0.000826708)
(0.104367 0.000377452 0.000615279)
(0.104428 0.00026471 0.000447517)
(0.104465 0.000183376 0.000320043)
(0.104486 0.000126444 0.000227087)
(0.104498 8.72848e-05 0.000162401)
(0.104504 6.08782e-05 0.000120377)
(0.104507 4.3584e-05 9.65138e-05)
(0.104507 3.30688e-05 8.76152e-05)
(0.104512 3.07221e-05 9.41868e-05)
(0.104539 4.43506e-05 0.000123672)
(0.100038 0.000130717 0.000491671)
(0.100445 0.000343673 0.00125693)
(0.1011 0.000483363 0.00174757)
(0.101863 0.000549116 0.00196958)
(0.102633 0.000554254 0.00199845)
(0.103337 0.000508242 0.00189993)
(0.103931 0.000434412 0.00170207)
(0.104408 0.000350294 0.00144865)
(0.104772 0.000270055 0.00118427)
(0.105037 0.000200455 0.000934236)
(0.105222 0.000144366 0.000714107)
(0.105348 0.000102103 0.000530842)
(0.105431 7.20934e-05 0.000384631)
(0.105484 5.20007e-05 0.000272594)
(0.105516 3.95331e-05 0.000189856)
(0.105536 3.2988e-05 0.000130357)
(0.105549 3.12612e-05 8.83481e-05)
(0.105557 3.37439e-05 5.94707e-05)
(0.105568 4.09873e-05 4.35855e-05)
(0.105597 5.67594e-05 5.16948e-05)
(0.100038 -0.000130711 0.000491666)
(0.100445 -0.000343654 0.00125692)
(0.1011 -0.000483328 0.00174754)
(0.101863 -0.000549054 0.00196953)
(0.102633 -0.000554151 0.00199837)
(0.103337 -0.000508076 0.0018998)
(0.103931 -0.000434149 0.00170186)
(0.104409 -0.00034988 0.00144833)
(0.104773 -0.000269408 0.00118376)
(0.105037 -0.000199429 0.000933434)
(0.105223 -0.000142711 0.000712829)
(0.10535 -9.93937e-05 0.000528793)
(0.105434 -6.76222e-05 0.00038131)
(0.105487 -4.47577e-05 0.000267205)
(0.105522 -2.82349e-05 0.000181248)
(0.105544 -1.58651e-05 0.000116922)
(0.105559 -5.72143e-06 6.7885e-05)
(0.105569 3.81387e-06 2.92485e-05)
(0.105582 1.3567e-05 7.91744e-07)
(0.105612 2.33036e-05 -4.76502e-06)
(0.100045 -0.00039347 0.000546824)
(0.100476 -0.00102614 0.00138604)
(0.101138 -0.00141527 0.00188671)
(0.101859 -0.00157377 0.00208435)
(0.102544 -0.00155152 0.00207644)
(0.103123 -0.0014055 0.00191964)
(0.103564 -0.00118243 0.00165836)
(0.10389 -0.000939824 0.00136363)
(0.104117 -0.000716226 0.00107848)
(0.104269 -0.00052771 0.000824723)
(0.104368 -0.000378373 0.000612116)
(0.104431 -0.000266076 0.000442405)
(0.10447 -0.0001852 0.000311612)
(0.104494 -0.000128866 0.000213122)
(0.10451 -9.08332e-05 0.000139698)
(0.104521 -6.60705e-05 8.41972e-05)
(0.104531 -5.03586e-05 3.99186e-05)
(0.104539 -4.02652e-05 1.50343e-06)
(0.104551 -3.50145e-05 -3.14619e-05)
(0.104582 -3.95339e-05 -4.66427e-05)
(0.100059 -0.000637412 0.000637387)
(0.1005 -0.00161874 0.00161869)
(0.101129 -0.00213161 0.00213156)
(0.101708 -0.00226123 0.00226114)
(0.102136 -0.00214156 0.0021414)
(0.102355 -0.00186905 0.00186876)
(0.10246 -0.00151206 0.00151158)
(0.10248 -0.00116564 0.00116484)
(0.102453 -0.000868511 0.000867194)
(0.102412 -0.000631162 0.000628988)
(0.102371 -0.000450349 0.000446761)
(0.102336 -0.000317137 0.000311214)
(0.102306 -0.000222306 0.000212509)
(0.102283 -0.000157462 0.000141275)
(0.102266 -0.000116416 8.97848e-05)
(0.102254 -9.45153e-05 5.10763e-05)
(0.102245 -8.80857e-05 1.83756e-05)
(0.102237 -9.44654e-05 -1.43712e-05)
(0.102231 -0.00011442 -4.78476e-05)
(0.102252 -0.000156839 -6.66718e-05)
(0.100138 -0.000866567 0.000766646)
(0.100442 -0.00194826 0.00193494)
(0.100901 -0.00226247 0.00233942)
(0.100977 -0.00228135 0.00232193)
(0.10071 -0.00208742 0.00206822)
(0.100307 -0.00174485 0.00168459)
(0.099889 -0.00135509 0.00127415)
(0.0995115 -0.00100462 0.000915651)
(0.0991983 -0.000733004 0.000644151)
(0.0989593 -0.000523527 0.000444655)
(0.0987829 -0.000364734 0.000301429)
(0.0986571 -0.000249673 0.00020169)
(0.0985664 -0.000171099 0.000134374)
(0.0984995 -0.000119957 8.90578e-05)
(0.0984483 -9.0182e-05 5.89877e-05)
(0.0984044 -7.87344e-05 3.8793e-05)
(0.0983591 -8.46049e-05 2.30154e-05)
(0.0982984 -0.000107889 6.87681e-06)
(0.0982202 -0.000151744 -8.70224e-06)
(0.0982088 -0.00025757 2.22113e-05)
(0.099383 -0.000219218 0.000304438)
(0.0988469 -0.00182777 0.00199417)
(0.0979716 -0.00210278 0.00249406)
(0.0965509 -0.00176812 0.00217528)
(0.0949902 -0.00141002 0.00172596)
(0.093613 -0.00108673 0.00128677)
(0.0925264 -0.000819009 0.000919007)
(0.0917022 -0.000611249 0.000642019)
(0.0910854 -0.000454427 0.000453277)
(0.0906395 -0.000331558 0.000326949)
(0.0903242 -0.000233249 0.000234608)
(0.0901039 -0.000156503 0.000165854)
(0.0899537 -0.000101384 0.000114599)
(0.0898493 -6.71513e-05 8.21462e-05)
(0.0897693 -4.94451e-05 6.57067e-05)
(0.089697 -4.43824e-05 5.87426e-05)
(0.0896126 -5.25215e-05 5.98373e-05)
(0.0894795 -8.01554e-05 7.34829e-05)
(0.0892551 -0.000136837 0.000105454)
(0.088957 -0.000558007 0.000443437)
(0.0995451 0.000328704 0.00024675)
(0.099252 0.0015675 0.00105007)
(0.0988383 0.00208114 0.00145489)
(0.09812 0.00198616 0.00143472)
(0.0973674 0.00170318 0.00121065)
(0.0966253 0.00139203 0.000957136)
(0.0959687 0.00110103 0.0007272)
(0.0954212 0.000845435 0.000527968)
(0.0949847 0.000631399 0.000373076)
(0.0946543 0.000455602 0.000263022)
(0.0944173 0.000319521 0.000184775)
(0.0942555 0.000217325 0.000128596)
(0.0941483 0.000142296 8.85653e-05)
(0.0940801 8.8716e-05 6.03412e-05)
(0.0940423 5.14276e-05 4.10029e-05)
(0.0940295 2.45091e-05 2.61254e-05)
(0.0940389 1.43053e-06 1.06476e-05)
(0.0940693 -2.60927e-05 -1.23937e-05)
(0.0941227 -6.85819e-05 -5.01524e-05)
(0.0941914 -7.85151e-05 -0.000100343)
(0.100092 0.000766713 0.000440958)
(0.100496 0.00174591 0.00116728)
(0.101083 0.00209679 0.00151273)
(0.101573 0.00216194 0.00159651)
(0.101877 0.00211763 0.00151668)
(0.102007 0.00191343 0.00130492)
(0.10203 0.00162194 0.00104431)
(0.101987 0.00131468 0.000791739)
(0.101912 0.0010248 0.000575475)
(0.101831 0.000760918 0.000399842)
(0.101758 0.000541088 0.000267964)
(0.101699 0.000377093 0.000178416)
(0.101653 0.000255871 0.000118726)
(0.101621 0.000167427 7.94973e-05)
(0.101601 0.000103377 5.38616e-05)
(0.101593 5.46083e-05 3.65276e-05)
(0.101596 1.23196e-05 2.27906e-05)
(0.101607 -3.22319e-05 7.19967e-06)
(0.101629 -8.40444e-05 -1.40655e-05)
(0.101677 -0.000125881 -4.03008e-05)
(0.100045 0.000546829 0.000393459)
(0.100476 0.00138604 0.00102613)
(0.101138 0.00188669 0.00141528)
(0.101859 0.00208433 0.00157378)
(0.102544 0.00207642 0.00155154)
(0.103123 0.00191963 0.00140553)
(0.103564 0.00165836 0.00118246)
(0.10389 0.00136365 0.000939857)
(0.104117 0.0010785 0.000716244)
(0.10427 0.000824717 0.000527681)
(0.104369 0.000612038 0.000378266)
(0.104431 0.00044222 0.000265928)
(0.10447 0.000311384 0.00018519)
(0.104495 0.000212992 0.000129125)
(0.10451 0.000139635 9.11529e-05)
(0.104522 8.40841e-05 6.6222e-05)
(0.104531 3.9763e-05 5.03694e-05)
(0.104538 1.35906e-06 4.02665e-05)
(0.10455 -3.15339e-05 3.51409e-05)
(0.104581 -4.65929e-05 3.98494e-05)
(0.100037 0.000329192 0.000329195)
(0.100432 0.000870973 0.000870994)
(0.101081 0.0012367 0.00123675)
(0.10187 0.00141981 0.0014199)
(0.102674 0.00145484 0.00145498)
(0.103442 0.00138287 0.00138307)
(0.104113 0.00123029 0.00123059)
(0.104668 0.00103747 0.00103792)
(0.105106 0.000838134 0.000838823)
(0.105441 0.000653101 0.000654164)
(0.105688 0.000493209 0.000494861)
(0.105866 0.000362386 0.000364956)
(0.105991 0.000259653 0.00026364)
(0.106079 0.000181606 0.000187745)
(0.106139 0.000123574 0.000132901)
(0.106179 8.06635e-05 9.45413e-05)
(0.106206 4.85849e-05 6.86334e-05)
(0.106222 2.42705e-05 5.20982e-05)
(0.106239 7.83389e-06 4.46262e-05)
(0.106272 6.74991e-06 5.36891e-05)
(0.100032 0.000109249 0.000292811)
(0.100403 0.000293653 0.000786391)
(0.101035 0.000424465 0.00113312)
(0.101837 0.000495774 0.00132214)
(0.102688 0.000515181 0.00138137)
(0.103522 0.000493827 0.00134303)
(0.104286 0.0004435 0.00122983)
(0.104946 0.000377616 0.00106997)
(0.10549 0.000307793 0.000892391)
(0.105921 0.000241756 0.00071806)
(0.106251 0.000183799 0.000559991)
(0.106497 0.000135577 0.000424893)
(0.106675 9.68992e-05 0.000315047)
(0.106802 6.73239e-05 0.000230516)
(0.10689 4.60207e-05 0.000165786)
(0.10695 3.13451e-05 0.000116114)
(0.106989 2.15926e-05 7.84926e-05)
(0.107013 1.54388e-05 5.10007e-05)
(0.107035 1.26831e-05 3.36422e-05)
(0.10707 1.68041e-05 3.2833e-05)
(0.100032 -0.000109255 0.000292806)
(0.100403 -0.000293663 0.000786377)
(0.101035 -0.00042448 0.00113309)
(0.101837 -0.000495794 0.0013221)
(0.102688 -0.000515206 0.00138131)
(0.103522 -0.000493856 0.00134295)
(0.104286 -0.000443534 0.0012297)
(0.104946 -0.00037766 0.00106976)
(0.10549 -0.000307852 0.000892078)
(0.105921 -0.000241829 0.000717574)
(0.106251 -0.000183873 0.000559233)
(0.106497 -0.000135616 0.000423706)
(0.106676 -9.68454e-05 0.00031319)
(0.106803 -6.71229e-05 0.000227647)
(0.106891 -4.56463e-05 0.000161461)
(0.106952 -3.07373e-05 0.000109773)
(0.106991 -2.05382e-05 6.94773e-05)
(0.107015 -1.34311e-05 3.8635e-05)
(0.107037 -8.70623e-06 1.73446e-05)
(0.107073 -8.84252e-06 1.17353e-05)
(0.100037 -0.000329206 0.000329184)
(0.100432 -0.000871003 0.000870966)
(0.101081 -0.00123675 0.0012367)
(0.10187 -0.00141988 0.00141983)
(0.102674 -0.00145495 0.00145486)
(0.103442 -0.00138304 0.0013829)
(0.104113 -0.00123056 0.00123033)
(0.104668 -0.00103788 0.00103751)
(0.105106 -0.000838796 0.000838203)
(0.10544 -0.000654152 0.000653202)
(0.105687 -0.000494864 0.00049335)
(0.105865 -0.000364956 0.000362547)
(0.105991 -0.000263586 0.000259764)
(0.106078 -0.000187615 0.000181587)
(0.106139 -0.000132755 0.000123447)
(0.106179 -9.44505e-05 8.0513e-05)
(0.106206 -6.86055e-05 4.84369e-05)
(0.106223 -5.21008e-05 2.40957e-05)
(0.10624 -4.46246e-05 7.59047e-06)
(0.106273 -5.36674e-05 6.42544e-06)
(0.100045 -0.000546844 0.000393453)
(0.100476 -0.00138608 0.00102611)
(0.101138 -0.00188675 0.00141525)
(0.101859 -0.00208443 0.00157374)
(0.102544 -0.00207658 0.00155147)
(0.103122 -0.00191989 0.00140543)
(0.103564 -0.00165878 0.00118232)
(0.10389 -0.00136433 0.000939646)
(0.104116 -0.00107963 0.000715939)
(0.104268 -0.000826607 0.000527246)
(0.104366 -0.000615209 0.000377632)
(0.104428 -0.000447486 0.00026491)
(0.104465 -0.000320001 0.000183409)
(0.104486 -0.000227023 0.000126222)
(0.104498 -0.000162421 8.70285e-05)
(0.104504 -0.000120538 6.07832e-05)
(0.104507 -9.67441e-05 4.35869e-05)
(0.104508 -8.78444e-05 3.30286e-05)
(0.104512 -9.4379e-05 3.05207e-05)
(0.10454 -0.000123819 4.39559e-05)
(0.100092 -0.000766716 0.000440957)
(0.100496 -0.00174592 0.00116728)
(0.101083 -0.00209681 0.00151274)
(0.101573 -0.00216201 0.00159652)
(0.101877 -0.00211775 0.0015167)
(0.102007 -0.00191362 0.00130496)
(0.102029 -0.00162226 0.00104441)
(0.101985 -0.00131523 0.000791936)
(0.101909 -0.00102561 0.000575792)
(0.101827 -0.000762268 0.000400435)
(0.101752 -0.000543575 0.000269153)
(0.101689 -0.000381623 0.000180586)
(0.101638 -0.000264105 0.000122444)
(0.101597 -0.000181911 8.6031e-05)
(0.101564 -0.000128118 6.61332e-05)
(0.101535 -9.63856e-05 5.92907e-05)
(0.101508 -8.23801e-05 6.38606e-05)
(0.101475 -8.37263e-05 8.11161e-05)
(0.101445 -0.000100459 0.000117641)
(0.101477 -0.000145336 0.000184772)
(0.0995451 -0.000328704 0.000246753)
(0.099252 -0.0015675 0.00105009)
(0.0988383 -0.00208115 0.00145493)
(0.0981199 -0.00198616 0.00143477)
(0.0973671 -0.00170318 0.00121073)
(0.0966249 -0.00139206 0.000957288)
(0.0959679 -0.0011011 0.000727451)
(0.0954198 -0.000845576 0.000528393)
(0.0949824 -0.000631604 0.000373781)
(0.0946505 -0.000455958 0.000264251)
(0.0944108 -0.000320201 0.000186943)
(0.0942442 -0.00021882 0.000132415)
(0.0941289 -0.000145758 9.61471e-05)
(0.094048 -9.5894e-05 7.50053e-05)
(0.0939894 -6.44239e-05 6.77559e-05)
(0.0939426 -4.70119e-05 7.16104e-05)
(0.0938972 -4.12638e-05 9.07746e-05)
(0.0938426 -4.78611e-05 0.000138973)
(0.0937659 -7.31177e-05 0.000249427)
(0.0937232 -0.000237567 0.000561444)
(0.0993786 5.95643e-05 3.26608e-05)
(0.0992646 0.00122415 0.000263739)
(0.0989586 0.00191393 0.000409371)
(0.0984206 0.00198305 0.000434503)
(0.0978935 0.00181901 0.000387055)
(0.0973787 0.00155677 0.000314232)
(0.0968945 0.00126097 0.000237092)
(0.0964666 0.000974202 0.000168763)
(0.096107 0.000724972 0.000115896)
(0.0958204 0.000516925 7.95614e-05)
(0.0956015 0.000360591 5.50584e-05)
(0.0954425 0.000247425 3.72492e-05)
(0.0953322 0.000165531 2.28902e-05)
(0.0952608 0.000106542 1.02736e-05)
(0.0952198 6.44885e-05 -1.78723e-06)
(0.0952029 3.47156e-05 -1.51624e-05)
(0.0952076 1.09643e-05 -3.27125e-05)
(0.0952349 -1.2995e-05 -5.7122e-05)
(0.0952786 -3.97245e-05 -8.80103e-05)
(0.0953027 -2.4829e-05 -0.000121202)
(0.100085 0.000717068 0.000142988)
(0.100463 0.00163854 0.000380419)
(0.101032 0.00203396 0.000510969)
(0.101629 0.00208753 0.000554045)
(0.102129 0.00206175 0.000534625)
(0.102492 0.00193795 0.000467916)