/*--------------------------------*- C++ -*----------------------------------*\
| =========                 |                                                 |
| \\      /  F ield         | OpenFOAM: The Open Source CFD Toolbox           |
|  \\    /   O peration     | Version:  2212                                  |
|   \\  /    A nd           | Website:  www.openfoam.com                      |
|    \\/     M anipulation  |                                                 |
\*---------------------------------------------------------------------------*/
FoamFile
{
    version     2.0;
    format      ascii;
    arch        "LSB;label=32;scalar=64";
    class       surfaceVectorField;
    location    "0.1";
    object      Uf;
}
// * * * * * * * * * * * * * * * * * * * * * * * * * * * * * * * * * * * * * //

dimensions      [0 1 -1 0 0 0 0];

internalField   nonuniform List<vector> 
19019
(
(0.0996828 -0.00339251 -0.00339251)
(0.0973461 0.000990534 -0.00153467)
(0.0973462 -0.00153468 0.000990519)
(0.083574 0.00199741 0.00199743)
(0.0932185 0.00331896 0.00257292)
(0.0932185 0.00257294 0.00331901)
(0.0746255 0.00190972 0.00190978)
(0.0849517 0.00163835 0.00178115)
(0.0849517 0.0017811 0.00163838)
(0.0688559 0.00106605 0.00106614)
(0.0788716 0.00104637 0.00116551)
(0.0788716 0.00116545 0.00104645)
(0.0649691 0.000573861 0.000574001)
(0.0746133 0.00071486 0.000768022)
(0.0746134 0.000767938 0.000714997)
(0.062151 0.000352764 0.000353046)
(0.0715941 0.000523691 0.000547549)
(0.0715942 0.000547407 0.000523961)
(0.0602042 0.000222428 0.000222941)
(0.0694812 0.000361429 0.000378719)
(0.0694814 0.000378448 0.000361931)
(0.0589031 0.000138031 0.000138845)
(0.0680154 0.000241843 0.000252276)
(0.0680156 0.000251808 0.000242704)
(0.0580266 8.75738e-05 8.89031e-05)
(0.0670371 0.000163357 0.000168735)
(0.0670376 0.000168086 0.000164735)
(0.0574321 5.64133e-05 5.86183e-05)
(0.0663614 0.000110783 0.000113639)
(0.0663622 0.000112443 0.000113067)
(0.0570325 3.58875e-05 3.9627e-05)
(0.0659054 7.48997e-05 7.42526e-05)
(0.0659067 7.22894e-05 7.87246e-05)
(0.0567676 2.17823e-05 2.81469e-05)
(0.0655988 4.89294e-05 4.77273e-05)
(0.0656009 4.44076e-05 5.58703e-05)
(0.0565926 1.17153e-05 2.19776e-05)
(0.0653933 3.00643e-05 3.10409e-05)
(0.0653972 2.54251e-05 4.17255e-05)
(0.0564776 2.22563e-06 1.91364e-05)
(0.06526 1.51298e-05 2.13016e-05)
(0.0652669 1.19674e-05 3.42507e-05)
(0.0564009 -8.35639e-06 2.13418e-05)
(0.0651687 1.36732e-06 1.78773e-05)
(0.0651807 1.36402e-06 3.33199e-05)
(0.0563439 -2.2694e-05 3.04067e-05)
(0.0650958 -1.49527e-05 2.02931e-05)
(0.0651174 -8.66586e-06 4.22652e-05)
(0.0563055 -5.70316e-05 3.90266e-05)
(0.065037 -4.04961e-05 2.67739e-05)
(0.0650785 -2.43396e-05 6.20703e-05)
(0.0563886 -0.000127766 4.25877e-05)
(0.065013 -0.000103967 2.42066e-05)
(0.0650982 -6.84461e-05 8.00395e-05)
(0.056873 -0.000618953 -0.000263732)
(0.065103 -0.000262919 2.98104e-06)
(0.0652859 -0.000175956 7.39461e-05)
(0.0645807 -0.000870388 -0.000254219)
(0.0649737 -0.000946372 -0.000418239)
(0.09843 0.0024543 0.0017028)
(0.0996623 0.000424082 0.000311321)
(0.100033 0.00102351 0.000730278)
(0.0959036 0.00312429 0.00240235)
(0.0978048 0.00271712 0.00225163)
(0.0982715 0.00280353 0.00215833)
(0.091666 0.00214224 0.00178252)
(0.0955702 0.00295141 0.00224331)
(0.0963634 0.00237609 0.00194398)
(0.0881292 0.00151249 0.00134876)
(0.0928858 0.00213575 0.00170549)
(0.093902 0.00185703 0.00161333)
(0.0852269 0.00116534 0.00106215)
(0.0903323 0.00156277 0.00131728)
(0.0914288 0.00151508 0.00132255)
(0.0830368 0.000863103 0.000794852)
(0.0882959 0.00113095 0.000996314)
(0.0894505 0.00116286 0.00100657)
(0.0814787 0.000602646 0.000560476)
(0.0867867 0.000793702 0.000728469)
(0.0879765 0.000819743 0.000706731)
(0.0804057 0.000412334 0.000383736)
(0.0857042 0.000547069 0.000521606)
(0.0869185 0.000551895 0.000472811)
(0.0796638 0.00028307 0.000261395)
(0.0849438 0.000382869 0.00037316)
(0.0861853 0.000369796 0.000315694)
(0.0791483 0.000195294 0.000174783)
(0.0844034 0.000274362 0.000265691)
(0.0856728 0.000245737 0.000208866)
(0.0787945 0.000133712 0.000112126)
(0.0840291 0.000195991 0.000181694)
(0.0853213 0.000163569 0.000134884)
(0.0785549 8.91576e-05 6.97105e-05)
(0.0837717 0.000137533 0.000119629)
(0.0850798 0.000107485 8.63064e-05)
(0.0783935 5.67041e-05 4.28489e-05)
(0.0835962 9.33948e-05 7.57876e-05)
(0.0849141 6.98504e-05 5.71939e-05)
(0.0782816 3.27907e-05 2.93313e-05)
(0.083479 6.17633e-05 4.80908e-05)
(0.0848018 4.28739e-05 4.14969e-05)
(0.0781947 1.33505e-05 2.60992e-05)
(0.0833926 4.25478e-05 3.59326e-05)
(0.0847208 2.01083e-05 3.51641e-05)
(0.0781141 -8.681e-06 2.87563e-05)
(0.0833144 3.04745e-05 3.48664e-05)
(0.0846536 -1.69961e-06 3.6964e-05)
(0.0780275 -4.79066e-05 3.27058e-05)
(0.0832331 1.64694e-05 4.13295e-05)
(0.0845923 -3.02992e-05 4.73116e-05)
(0.0779225 -0.000149264 3.8773e-05)
(0.0831276 -1.16347e-05 5.35413e-05)
(0.0845249 -8.97773e-05 5.65523e-05)
(0.0778089 -6.17052e-05 0.000330017)
(0.0829793 -9.37014e-05 7.83413e-05)
(0.0844464 -0.000243094 4.87033e-05)
(0.082521 0.000179452 0.000561175)
(0.0840992 -0.000218419 0.000256058)
(0.0993715 0.00114936 0.00102352)
(0.0994593 0.000348711 0.000288044)
(0.0997304 0.000590559 0.00076976)
(0.098515 0.00224416 0.00196528)
(0.0990375 0.00156231 0.0017083)
(0.0995809 0.00199209 0.00196975)
(0.0972516 0.0023347 0.00193545)
(0.0983793 0.0020563 0.00210498)
(0.0993196 0.00237938 0.00202637)
(0.095702 0.00195064 0.00158908)
(0.0972889 0.00185255 0.00187689)
(0.0985876 0.00217418 0.0017682)
(0.0942573 0.00150639 0.0012484)
(0.0961082 0.00150096 0.00155214)
(0.0976222 0.00181432 0.00148377)
(0.0930502 0.00110293 0.000952926)
(0.0950296 0.00114855 0.00123445)
(0.0966933 0.00141163 0.00118923)
(0.092101 0.000780597 0.000715234)
(0.0941451 0.000841443 0.000954793)
(0.0959142 0.00103782 0.000912047)
(0.0913845 0.000547817 0.000533047)
(0.0934507 0.000596302 0.000723437)
(0.0952955 0.000735834 0.000681583)
(0.0908564 0.000390495 0.000393365)
(0.0929181 0.000418986 0.000538693)
(0.0948184 0.00051879 0.000505377)
(0.0904774 0.000281652 0.000283062)
(0.0925257 0.000296785 0.000390186)
(0.0944676 0.000365842 0.00036645)
(0.0902112 0.000202103 0.00019615)
(0.0922457 0.000210751 0.000274238)
(0.0942162 0.000255133 0.000256789)
(0.0900268 0.000142572 0.000130207)
(0.0920507 0.000149908 0.000186477)
(0.0940394 0.000176086 0.00017432)
(0.0898994 9.84415e-05 8.36071e-05)
(0.0919166 0.000106125 0.000122456)
(0.0939161 0.000119649 0.000115928)
(0.0898083 7.0237e-05 5.53951e-05)
(0.0918235 7.70042e-05 7.90811e-05)
(0.0938288 8.0838e-05 7.81635e-05)
(0.089735 5.78654e-05 4.40462e-05)
(0.0917543 6.33561e-05 5.40483e-05)
(0.0937625 5.73774e-05 5.8345e-05)
(0.0896605 5.71727e-05 4.72762e-05)
(0.0916942 6.35111e-05 4.43074e-05)
(0.0937038 4.58865e-05 5.37844e-05)
(0.0895602 6.64335e-05 6.63493e-05)
(0.0916286 7.75071e-05 4.7793e-05)
(0.0936379 4.12132e-05 6.41249e-05)
(0.0893872 8.97582e-05 0.000108537)
(0.0915327 0.000117092 6.81334e-05)
(0.0935382 4.32668e-05 9.47151e-05)
(0.0890319 0.000274324 0.000347074)
(0.091378 0.00021961 0.000117942)
(0.0933812 5.57001e-05 0.000153385)
(0.0912001 0.000641101 0.000441233)
(0.0932148 0.000257327 0.000446522)
(0.0996462 0.000648428 0.000948105)
(0.0994641 0.000127646 0.000196056)
(0.0998012 0.000373001 0.000742345)
(0.0990782 0.00125252 0.00182433)
(0.0992581 0.00062507 0.00139556)
(0.099834 0.00113287 0.00181582)
(0.098443 0.00144486 0.00203368)
(0.0988969 0.000934455 0.00199844)
(0.0998887 0.00147566 0.00205116)
(0.0977127 0.00132276 0.00184471)
(0.0982662 0.000946479 0.00198447)
(0.099736 0.00148786 0.00193497)
(0.0969719 0.00108403 0.00154767)
(0.0976231 0.000803387 0.00175878)
(0.0994777 0.00132598 0.00173228)
(0.0962839 0.000842413 0.00124665)
(0.0969914 0.00063462 0.00147106)
(0.0991435 0.00109307 0.00147715)
(0.0956851 0.000628012 0.000973433)
(0.0964184 0.000476568 0.00117745)
(0.0988045 0.000852826 0.00120932)
(0.095193 0.000451255 0.000738735)
(0.0959286 0.000340562 0.000906656)
(0.0984925 0.000633479 0.00095729)
(0.0948094 0.000319292 0.000544019)
(0.0955289 0.000237975 0.000675837)
(0.0982242 0.000454505 0.00073386)
(0.0945265 0.000225989 0.000388434)
(0.0952186 0.000168171 0.000484923)
(0.0980092 0.000318028 0.000539734)
(0.0943258 0.000160175 0.000269933)
(0.0949884 0.000120364 0.000339629)
(0.0978466 0.000218487 0.000382989)
(0.094186 0.000114619 0.000182509)
(0.0948248 8.71143e-05 0.000232904)
(0.0977286 0.000150259 0.00026629)
(0.0940886 8.51423e-05 0.000120414)
(0.0947108 6.53433e-05 0.000155796)
(0.0976437 0.000105147 0.000181239)
(0.0940193 7.0028e-05 7.91209e-05)
(0.0946324 5.36533e-05 0.000101819)
(0.0975816 7.74505e-05 0.000122018)
(0.0939664 6.80948e-05 5.45662e-05)
(0.0945787 5.30005e-05 6.63344e-05)
(0.0975345 6.45728e-05 8.41957e-05)
(0.0939204 8.01522e-05 4.33665e-05)
(0.0945409 6.36692e-05 4.46384e-05)
(0.0974957 6.38705e-05 6.31526e-05)
(0.0938708 0.000114421 4.42437e-05)
(0.0945123 8.96646e-05 3.34636e-05)
(0.0974582 7.69559e-05 5.58938e-05)
(0.093809 0.000193816 6.03004e-05)
(0.094488 0.00014059 3.05152e-05)
(0.0974141 0.00011105 6.12078e-05)
(0.0937358 0.000404692 0.000154768)
(0.0944571 0.000237573 3.95969e-05)
(0.0973593 0.000186164 7.82442e-05)
(0.0944422 0.000459469 0.000149633)
(0.0973511 0.000381737 0.000176734)
(0.0996732 0.000148228 0.000641873)
(0.0993786 1.78741e-09 5.95675e-05)
(0.0997116 0.000102276 0.000685559)
(0.0991476 0.000336625 0.00156907)
(0.0992646 1.37312e-08 0.00122418)
(0.0998294 0.000330739 0.00163431)
(0.0986257 0.000422061 0.00194852)
(0.0989587 3.95637e-08 0.00191395)
(0.0999359 0.000458837 0.00199747)
(0.0981304 0.000410981 0.00190107)
(0.0984206 7.51304e-08 0.00198308)
(0.0999326 0.000487076 0.00196221)
(0.0976236 0.000350977 0.00168794)
(0.0978935 1.26065e-07 0.00181904)
(0.0998895 0.000450244 0.00181513)
(0.0971263 0.000276221 0.00140892)
(0.0973786 2.20996e-07 0.0015568)
(0.0997879 0.000379591 0.00160255)
(0.0966726 0.000203864 0.00111764)
(0.0968944 3.83307e-07 0.00126098)
(0.0996435 0.000297189 0.00134414)
(0.0962798 0.000143895 0.000849675)
(0.0964663 6.5179e-07 0.000974211)
(0.0994815 0.000220268 0.00108101)
(0.0959564 0.000100334 0.000621094)
(0.0961066 1.09096e-06 0.000724984)
(0.0993199 0.000157821 0.000840351)
(0.0957049 7.16283e-05 0.000439036)
(0.0958196 1.80908e-06 0.000516944)
(0.0991736 0.000111995 0.000631872)
(0.0955165 5.3291e-05 0.000304574)
(0.0956001 2.97156e-06 0.000360687)
(0.0990501 7.99465e-05 0.000463646)
(0.0953799 4.1848e-05 0.000207567)
(0.0954401 4.848e-06 0.00024769)
(0.0989524 5.81024e-05 0.000331636)
(0.0952857 3.6034e-05 0.00013809)
(0.0953282 7.84013e-06 0.000166159)
(0.0988792 4.404e-05 0.000228698)
(0.0952241 3.64652e-05 8.93996e-05)
(0.0952543 1.26155e-05 0.000107936)
(0.0988271 3.72233e-05 0.000152324)
(0.0951864 4.47245e-05 5.6074e-05)
(0.09521 2.04855e-05 6.71976e-05)
(0.0987924 3.81586e-05 9.99733e-05)
(0.0951669 6.34438e-05 3.33856e-05)
(0.095188 3.33201e-05 3.88705e-05)
(0.0987711 4.73709e-05 6.451e-05)
(0.0951636 9.74209e-05 1.69065e-05)
(0.0951851 5.40217e-05 1.77809e-05)
(0.0987613 6.69626e-05 4.01937e-05)
(0.0951813 0.000155414 5.0703e-06)
(0.0952025 8.61666e-05 -1.50439e-06)
(0.0987636 0.000100841 2.14725e-05)
(0.0952359 0.000256442 2.72931e-05)
(0.0952329 0.000133601 -1.94057e-05)
(0.0987761 0.000156086 6.63209e-06)
(0.0952522 0.000207079 1.48677e-05)
(0.0988055 0.000245071 2.84865e-05)
(0.0996732 -0.000148214 0.000641874)
(0.0994641 -0.000127644 0.000196058)
(0.0997116 -0.00010227 0.000685559)
(0.0991476 -0.000336577 0.00156906)
(0.0992581 -0.000625055 0.00139556)
(0.0998294 -0.000330709 0.00163431)
(0.0986258 -0.000421958 0.00194851)
(0.0988969 -0.00093441 0.00199843)
(0.0999359 -0.000458768 0.00199747)
(0.0981305 -0.000410795 0.00190105)
(0.0982663 -0.00094639 0.00198445)
(0.0999327 -0.000486945 0.00196219)
(0.0976238 -0.000350649 0.0016879)
(0.0976233 -0.000803216 0.00175873)
(0.0998896 -0.000450013 0.00181508)
(0.0971267 -0.000275648 0.00140886)
(0.0969918 -0.000634299 0.00147098)
(0.0997881 -0.000379193 0.00160248)
(0.0966731 -0.000202882 0.00111755)
(0.0964191 -0.000476002 0.0011773)
(0.0996439 -0.000296516 0.00134403)
(0.0962806 -0.000142233 0.00084952)
(0.0959298 -0.000339566 0.000906408)
(0.0994821 -0.000219138 0.00108084)
(0.0959578 -9.75532e-05 0.000620834)
(0.0955308 -0.000236279 0.000675415)
(0.0993209 -0.000155947 0.000840064)
(0.0957071 -6.70249e-05 0.000438596)
(0.0952217 -0.000165314 0.000484202)
(0.0991751 -0.000108912 0.000631405)
(0.09552 -4.57214e-05 0.000303804)
(0.0949936 -0.000115629 0.000338437)
(0.0990526 -7.48962e-05 0.00046289)
(0.0953855 -2.95371e-05 0.000206281)
(0.094833 -7.93525e-05 0.00023102)
(0.0989565 -4.98368e-05 0.00033045)
(0.0952947 -1.62654e-05 0.000136004)
(0.094724 -5.27486e-05 0.000152994)
(0.0988856 -3.0568e-05 0.000226776)
(0.0952389 -4.51485e-06 8.57339e-05)
(0.0946544 -3.37096e-05 9.75093e-05)
(0.0988374 -1.54412e-05 0.000149105)
(0.0952103 7.70925e-06 4.99941e-05)
(0.0946153 -1.98124e-05 5.85636e-05)
(0.0988088 -2.7996e-06 9.42085e-05)
(0.095204 2.31279e-05 2.32658e-05)
(0.0946008 -6.79255e-06 3.04213e-05)
(0.0987966 1.01774e-05 5.47908e-05)
(0.0952187 4.43361e-05 -6.30024e-07)
(0.0946079 8.66262e-06 6.87e-06)
(0.0987994 2.63289e-05 2.36299e-05)
(0.0952581 7.21936e-05 -2.59804e-05)
(0.0946366 2.87305e-05 -1.86507e-05)
(0.0988175 4.8093e-05 -6.68601e-06)
(0.0953301 0.000104278 -3.18311e-05)
(0.0946848 5.47057e-05 -5.24121e-05)
(0.0988489 7.58159e-05 -4.10801e-05)
(0.0947316 8.03211e-05 -4.82664e-05)
(0.0988822 0.000106334 -4.89485e-05)
(0.0996462 -0.00064843 0.000948106)
(0.0994593 -0.000348721 0.00028805)
(0.0998012 -0.000373005 0.000742344)
(0.0990782 -0.00125251 0.00182432)
(0.0990375 -0.00156232 0.0017083)
(0.099834 -0.00113287 0.00181582)
(0.0984431 -0.00144483 0.00203366)
(0.0983793 -0.00205631 0.00210495)
(0.0998888 -0.00147565 0.00205112)
(0.0977129 -0.0013227 0.00184467)
(0.097289 -0.00185257 0.00187685)
(0.0997362 -0.00148782 0.00193491)
(0.0969723 -0.00108389 0.0015476)
(0.0961085 -0.00150097 0.00155207)
(0.0994779 -0.00132592 0.00173218)
(0.0962846 -0.000842145 0.00124649)
(0.0950301 -0.00114854 0.00123431)
(0.0991439 -0.00109293 0.00147696)
(0.0956863 -0.000627517 0.000973149)
(0.094146 -0.000841385 0.000954547)
(0.0988054 -0.000852563 0.00120901)
(0.0951951 -0.00045038 0.000738249)
(0.0934523 -0.000596138 0.000723001)
(0.0984939 -0.000633008 0.000956785)
(0.094813 -0.000317778 0.000543185)
(0.0929209 -0.00041867 0.000537932)
(0.0982265 -0.000453729 0.00073308)
(0.0945323 -0.000223438 0.000387044)
(0.0925303 -0.000296124 0.000388896)
(0.098013 -0.000316722 0.000538457)
(0.0943353 -0.000156059 0.000267771)
(0.0922534 -0.000209479 0.000272096)
(0.0978528 -0.000216328 0.000380892)
(0.0942011 -0.000108035 0.000179348)
(0.0920632 -0.000147544 0.000182926)
(0.0977388 -0.000146791 0.00026304)
(0.0941133 -7.45395e-05 0.000115739)
(0.0919376 -0.000103048 0.000117737)
(0.0976601 -9.93344e-05 0.000176329)
(0.0940608 -5.17241e-05 7.11988e-05)
(0.0918584 -7.39981e-05 7.28348e-05)
(0.097609 -6.74493e-05 0.000113808)
(0.094036 -3.493e-05 3.94827e-05)
(0.0918126 -5.70925e-05 4.21647e-05)
(0.0975799 -4.64263e-05 6.91236e-05)
(0.0940342 -1.93036e-05 1.41795e-05)
(0.0917948 -4.51571e-05 1.81177e-05)
(0.0975697 -3.09608e-05 3.53133e-05)
(0.0940536 3.43624e-07 -1.15611e-05)
(0.091804 -3.30273e-05 -5.65529e-06)
(0.0975761 -1.65461e-05 5.66919e-06)
(0.0940958 3.07476e-05 -4.66556e-05)
(0.0918432 -1.49665e-05 -3.77679e-05)
(0.0975974 2.8409e-06 -2.84222e-05)
(0.0941506 7.44436e-05 -7.27181e-05)
(0.0919249 3.58368e-05 -9.92383e-05)
(0.0976358 3.30068e-05 -7.6277e-05)
(0.0920057 0.000120715 -0.000161936)
(0.0976948 7.22088e-05 -0.000102967)
(0.0993715 -0.00114939 0.00102352)
(0.0996623 -0.000424097 0.000311322)
(0.0997304 -0.000590572 0.000769753)
(0.098515 -0.0022442 0.00196526)
(0.0978048 -0.00271715 0.00225162)
(0.0995809 -0.00199212 0.00196973)
(0.0972517 -0.00233475 0.0019354)
(0.0955702 -0.00295146 0.00224328)
(0.0993196 -0.00237942 0.00202631)
(0.0957023 -0.00195072 0.001589)
(0.0928859 -0.00213584 0.00170543)
(0.0985877 -0.00217425 0.0017681)
(0.0942577 -0.0015065 0.00124827)
(0.0903325 -0.00156292 0.00131718)
(0.0976224 -0.00181443 0.00148361)
(0.0930509 -0.00110311 0.000952706)
(0.0882962 -0.00113121 0.000996147)
(0.0966938 -0.00141181 0.00118899)
(0.0921023 -0.000780846 0.000714847)
(0.0867874 -0.000794122 0.000728195)
(0.0959149 -0.00103811 0.000911649)
(0.0913867 -0.000548163 0.000532353)
(0.0857054 -0.000547694 0.000521108)
(0.0952968 -0.00073624 0.000680883)
(0.0908601 -0.000390963 0.00039218)
(0.0849459 -0.000383791 0.000372363)
(0.0948206 -0.000519428 0.000504184)
(0.0904836 -0.000282125 0.000281066)
(0.0844072 -0.000275734 0.00026417)
(0.0944712 -0.000366838 0.000364474)
(0.0902216 -0.000202212 0.00019267)
(0.0840356 -0.000197989 0.000179278)
(0.0942222 -0.000256638 0.000253565)
(0.090044 -0.000143277 0.000125206)
(0.0837818 -0.000140632 0.000115332)
(0.0940495 -0.000178215 0.000169047)
(0.089928 -0.000103182 7.76648e-05)
(0.0836162 -0.000100739 7.04987e-05)
(0.0939337 -0.00012413 0.000108404)
(0.0898569 -8.08914e-05 4.60791e-05)
(0.0835081 -7.86723e-05 4.2209e-05)
(0.0938587 -9.06552e-05 6.67734e-05)
(0.0898188 -7.07326e-05 2.31125e-05)
(0.0834346 -7.03499e-05 2.30506e-05)
(0.0938133 -7.33019e-05 3.67984e-05)
(0.0898107 -6.67973e-05 1.62938e-06)
(0.0833922 -7.13565e-05 5.53825e-06)
(0.0937924 -6.58879e-05 1.07754e-05)
(0.089838 -6.23246e-05 -2.66735e-05)
(0.0833797 -8.07405e-05 -1.57938e-05)
(0.0937956 -6.47185e-05 -1.75309e-05)
(0.0899086 -3.54952e-05 -8.11418e-05)
(0.0834147 -8.23983e-05 -5.85459e-05)
(0.0938242 -6.06484e-05 -6.31399e-05)
(0.0900196 5.38751e-05 -0.000175236)
(0.0835494 -2.05757e-05 -0.000180266)
(0.0938881 -3.25104e-05 -0.000146175)
(0.0835554 0.000322121 -0.000608351)
(0.0939522 4.57518e-05 -0.000262151)
(0.09843 -0.0024543 0.00170277)
(0.0973461 -0.00099054 -0.00153467)
(0.100033 -0.0010235 0.000730272)
(0.0959036 -0.00312434 0.00240233)
(0.0932184 -0.00331898 0.00257289)
(0.0982715 -0.00280355 0.0021583)
(0.0916661 -0.00214233 0.00178248)
(0.0849517 -0.00163841 0.00178112)
(0.0963634 -0.00237616 0.00194394)
(0.0881293 -0.00151264 0.00134868)
(0.0788716 -0.00104647 0.00116545)
(0.093902 -0.00185713 0.00161324)
(0.0852271 -0.00116559 0.00106201)
(0.0746134 -0.000715033 0.000767912)
(0.0914289 -0.00151525 0.00132237)
(0.0830371 -0.000863521 0.000794611)
(0.0715942 -0.000523996 0.000547371)
(0.0894506 -0.00116315 0.00100628)
(0.0814793 -0.000603315 0.000560062)
(0.0694814 -0.000361972 0.0003784)
(0.0879768 -0.000820212 0.000706245)
(0.0804069 -0.00041337 0.000383093)
(0.0680158 -0.000242738 0.000251741)
(0.086919 -0.000552644 0.000471972)
(0.0796661 -0.000284654 0.000260212)
(0.0670381 -0.000164763 0.000167976)
(0.0861863 -0.000371002 0.000314351)
(0.0791524 -0.0001979 0.000172814)
(0.0663632 -0.000113077 0.00011225)
(0.0856746 -0.00024779 0.00020655)
(0.0788016 -0.000138364 0.00010892)
(0.0659086 -7.87627e-05 7.2148e-05)
(0.0853242 -0.000167476 0.000131562)
(0.0785668 -9.77255e-05 6.49661e-05)
(0.0656024 -5.60982e-05 4.44347e-05)
(0.0850836 -0.000115035 8.14053e-05)
(0.0784113 -7.31314e-05 3.68972e-05)
(0.0654023 -4.16406e-05 2.54235e-05)
(0.0849226 -8.15988e-05 4.82129e-05)
(0.0783056 -6.21774e-05 1.89438e-05)
(0.0652716 -3.38319e-05 1.24769e-05)
(0.0848137 -6.14086e-05 2.45453e-05)
(0.0782318 -6.22834e-05 3.76863e-06)
(0.0651785 -3.36634e-05 2.24961e-06)
(0.0847362 -5.3038e-05 5.52108e-06)
(0.078183 -7.2846e-05 -1.47767e-05)
(0.0651154 -4.28902e-05 -8.33188e-06)
(0.0846829 -5.64537e-05 -1.32566e-05)
(0.0781671 -8.68709e-05 -4.96769e-05)
(0.0650758 -6.21972e-05 -2.44124e-05)
(0.0846486 -6.77799e-05 -4.43665e-05)
(0.0782256 -6.97668e-05 -0.000148254)
(0.0650946 -7.99836e-05 -6.848e-05)
(0.084641 -7.12575e-05 -0.000115107)
(0.0785411 0.000143629 -0.00053797)
(0.0652821 -7.38246e-05 -0.000175857)
(0.0846978 -1.40425e-05 -0.000309498)
(0.0649704 0.000418373 -0.000946297)
(0.0846424 0.000321288 -0.000938028)
(0.0996828 0.00339251 -0.00339253)
(0.0973461 0.00153468 0.000990508)
(0.083574 -0.00199742 0.00199739)
(0.0932184 -0.00257295 0.00331897)
(0.0746255 -0.00190976 0.00190971)
(0.0849517 -0.00178112 0.0016383)
(0.0688559 -0.00106613 0.00106602)
(0.0788716 -0.00116549 0.00104633)
(0.0649691 -0.000574011 0.000573813)
(0.0746134 -0.000768016 0.000714805)
(0.0621511 -0.000353054 0.000352712)
(0.0715942 -0.00054754 0.000523633)
(0.0602043 -0.000222941 0.000222365)
(0.0694813 -0.000378691 0.000361354)
(0.0589035 -0.000138844 0.000137954)
(0.0680156 -0.000252224 0.000241738)
(0.0580273 -8.8938e-05 8.75143e-05)
(0.0670376 -0.000168648 0.000163204)
(0.0574335 -5.87051e-05 5.63763e-05)
(0.0663625 -0.000113468 0.000110586)
(0.0570345 -4.00949e-05 3.61668e-05)
(0.0659073 -7.41375e-05 7.46445e-05)
(0.0567693 -2.87403e-05 2.21625e-05)
(0.0656002 -4.78491e-05 4.88054e-05)
(0.0565949 -2.14429e-05 1.12524e-05)
(0.0653983 -3.11478e-05 2.97354e-05)
(0.0564805 -1.82292e-05 1.65619e-06)
(0.0652646 -2.15041e-05 1.47892e-05)
(0.0564012 -2.15445e-05 -7.99294e-06)
(0.0651665 -1.84215e-05 1.72782e-06)
(0.0563415 -3.10065e-05 -2.20875e-05)
(0.0650938 -2.0623e-05 -1.43549e-05)
(0.0563023 -3.92543e-05 -5.67098e-05)
(0.0650343 -2.67334e-05 -4.01142e-05)
(0.0563853 -4.25865e-05 -0.000127543)
(0.0650095 -2.40976e-05 -0.000103739)
(0.0568692 0.000263813 -0.000618769)
(0.0650991 -2.94298e-06 -0.000262563)
(0.0645773 0.000254199 -0.000869894)
(0.09843 0.00170281 0.00245433)
(0.100033 0.000730287 0.00102352)
(0.0996623 0.000311318 0.000424046)
(0.0959036 0.00240234 0.00312432)
(0.0982715 0.00215831 0.00280355)
(0.0978048 0.00225165 0.00271716)
(0.091666 0.00178247 0.00214228)
(0.0963634 0.00194389 0.00237611)
(0.0955702 0.0022433 0.00295146)
(0.0881293 0.00134867 0.00151259)
(0.093902 0.0016132 0.0018571)
(0.0928859 0.00170545 0.00213585)
(0.0852271 0.00106202 0.00116553)
(0.0914289 0.00132235 0.00151522)
(0.0903325 0.00131721 0.00156292)
(0.0830371 0.000794654 0.000863467)
(0.0894506 0.00100628 0.00116313)
(0.0882962 0.00099619 0.00113121)
(0.0814792 0.000560147 0.000603285)
(0.0879768 0.000706287 0.000820202)
(0.0867873 0.00072827 0.000794118)
(0.0804065 0.000383263 0.000413405)
(0.0869188 0.000472076 0.000552691)
(0.0857052 0.000521247 0.000547743)
(0.0796652 0.0002606 0.000284829)
(0.0861859 0.000314558 0.000371131)
(0.0849455 0.00037264 0.000383942)
(0.0791507 0.000173344 0.000198257)
(0.0856739 0.000206878 0.000247974)
(0.0844063 0.000264725 0.000276158)
(0.0787987 0.000109702 0.000139111)
(0.0853231 0.000131525 0.000167365)
(0.0840339 0.000180045 0.00019895)
(0.0785622 6.55641e-05 9.85396e-05)
(0.0850828 8.06721e-05 0.000114259)
(0.08378 0.000116832 0.00014269)
(0.0784063 3.53156e-05 7.25226e-05)
(0.0849195 4.75689e-05 8.11974e-05)
(0.0836108 7.08706e-05 0.000101807)
(0.0783044 1.59528e-05 6.02321e-05)
(0.0848115 2.45283e-05 6.22382e-05)
(0.0835044 3.90539e-05 7.5863e-05)
(0.0782345 2.52289e-06 6.09196e-05)
(0.0847375 5.80692e-06 5.35994e-05)
(0.0834371 1.97681e-05 6.63821e-05)
(0.0781869 -1.42797e-05 7.26604e-05)
(0.0846836 -1.31098e-05 5.6017e-05)
(0.0833943 4.75687e-06 6.97146e-05)
(0.0781711 -4.90861e-05 8.7082e-05)
(0.08465 -4.45378e-05 6.73739e-05)
(0.0833823 -1.54036e-05 8.07866e-05)
(0.0782297 -0.000148024 6.99482e-05)
(0.0846433 -0.000115481 7.08955e-05)
(0.0834179 -5.81486e-05 8.27391e-05)
(0.0785453 -0.000537944 -0.000143487)
(0.0847006 -0.000309852 1.39092e-05)
(0.0835529 -0.000180176 2.08369e-05)
(0.0846453 -0.000937962 -0.000321097)
(0.0835591 -0.000608585 -0.000322171)
(0.100049 0.00131922 0.00131923)
(0.100179 0.000790116 0.000798038)
(0.100179 0.000798034 0.000790126)
(0.100274 0.00214693 0.00214697)
(0.10016 0.00228852 0.0020408)
(0.10016 0.00204078 0.00228855)
(0.0994458 0.00231429 0.00231438)
(0.10031 0.00254632 0.00237315)
(0.10031 0.00237308 0.0025464)
(0.0981701 0.00211624 0.0021164)
(0.0998647 0.00237288 0.00229563)
(0.0998648 0.00229552 0.00237301)
(0.0968948 0.00175262 0.00175288)
(0.09901 0.00205342 0.00203512)
(0.0990101 0.00203492 0.00205363)
(0.0957913 0.00131409 0.00131451)
(0.098161 0.00162997 0.00164052)
(0.0981612 0.00164022 0.0016303)
(0.094912 0.000912027 0.000912731)
(0.0974307 0.00119651 0.00122014)
(0.097431 0.00121965 0.00119704)
(0.0942554 0.000607303 0.000608497)
(0.0968457 0.000833957 0.00086402)
(0.0968461 0.000863193 0.000834814)
(0.0937877 0.000396113 0.000398143)
(0.0964038 0.000569174 0.000602992)
(0.0964046 0.000601585 0.000570595)
(0.093466 0.00025462 0.000258045)
(0.0960885 0.000380514 0.000412875)
(0.0960897 0.000410513 0.000382877)
(0.0932433 0.000163619 0.000169345)
(0.0958656 0.00025243 0.000280145)
(0.0958677 0.000276167 0.000256351)
(0.0930879 0.000105377 0.000115033)
(0.0957087 0.000166299 0.000189407)
(0.0957122 0.000182718 0.000172762)
(0.0929775 6.69811e-05 8.3475e-05)
(0.0955977 0.000109532 0.000131038)
(0.0956035 0.000119626 0.000120352)
(0.0928978 3.61178e-05 6.43458e-05)
(0.0955167 7.0366e-05 9.46459e-05)
(0.0955266 7.50122e-05 8.8529e-05)
(0.0928414 6.64898e-06 5.48137e-05)
(0.095457 3.96424e-05 7.25152e-05)
(0.0954739 3.86945e-05 6.99166e-05)
(0.0927996 -2.60764e-05 5.68638e-05)
(0.0954119 1.4049e-05 6.48865e-05)
(0.0954404 6.47805e-06 6.43751e-05)
(0.0927618 -8.09628e-05 6.27111e-05)
(0.0953702 -1.39151e-05 7.15559e-05)
(0.095418 -3.06605e-05 6.99584e-05)
(0.0927091 -0.000196932 4.90403e-05)
(0.0953167 -6.18695e-05 8.39793e-05)
(0.0953957 -9.45243e-05 7.57555e-05)
(0.0925542 -0.000428901 -3.73934e-05)
(0.095244 -0.000146539 8.99579e-05)
(0.0953654 -0.000215831 6.82117e-05)
(0.0952143 -0.000253408 7.56401e-05)
(0.0953558 -0.000412127 3.3306e-05)
(0.100164 0.0013508 0.00140741)
(0.100116 0.000570076 0.000811466)
(0.1001 0.000693233 0.000696166)
(0.10075 0.00213719 0.00210537)
(0.100468 0.0015496 0.00184821)
(0.100469 0.00179495 0.00184067)
(0.100989 0.00233068 0.00227194)
(0.100988 0.00197087 0.00218808)
(0.101009 0.00226116 0.00230175)
(0.100844 0.00219508 0.00218443)
(0.101262 0.00202583 0.00223346)
(0.101323 0.0023118 0.00236586)
(0.100507 0.00187642 0.0019162)
(0.101268 0.00185501 0.00211109)
(0.101385 0.00211601 0.00217956)
(0.100099 0.00147941 0.00155006)
(0.10112 0.00154274 0.00183283)
(0.101276 0.00177972 0.00184409)
(0.0996991 0.00109498 0.00117999)
(0.100913 0.00119011 0.00148767)
(0.101105 0.00139135 0.001454)
(0.0993516 0.000780029 0.000869015)
(0.100695 0.000870916 0.00115597)
(0.100915 0.0010364 0.00109517)
(0.0990759 0.000544571 0.000628531)
(0.100496 0.000618833 0.000874523)
(0.100738 0.000751207 0.000804665)
(0.098869 0.000373149 0.000444354)
(0.100332 0.000427021 0.000638634)
(0.100593 0.000532679 0.000578441)
(0.0987194 0.000251467 0.000307197)
(0.100204 0.0002878 0.000450838)
(0.10048 0.00037062 0.000407914)
(0.0986117 0.000167897 0.000210186)
(0.100108 0.000192524 0.000313014)
(0.100397 0.000253646 0.000283612)
(0.0985332 0.000111823 0.000145394)
(0.100037 0.000129451 0.000215586)
(0.100336 0.000171664 0.000197269)
(0.0984739 7.40723e-05 0.00010499)
(0.0999822 8.84371e-05 0.000149483)
(0.100289 0.000114488 0.000139956)
(0.0984256 4.84021e-05 8.42212e-05)
(0.0999389 6.2599e-05 0.000108048)
(0.100254 7.40521e-05 0.000104998)
(0.0983812 3.00724e-05 8.12801e-05)
(0.099902 4.83844e-05 8.68319e-05)
(0.100224 4.47359e-05 8.93373e-05)
(0.0983321 1.41649e-05 9.58215e-05)
(0.0998648 4.30239e-05 8.33583e-05)
(0.100196 2.12049e-05 9.12133e-05)
(0.0982637 -1.47216e-06 0.000129504)
(0.0998176 4.44282e-05 9.64291e-05)
(0.10016 -2.12116e-06 0.000109452)
(0.0981479 6.7465e-06 0.000204924)
(0.0997623 5.79097e-05 0.000128059)
(0.100116 -2.4574e-05 0.000148961)
(0.0997709 0.000115575 0.000206673)
(0.100119 -1.38313e-05 0.000239466)
(0.100236 0.00080413 0.00125632)
(0.100089 0.000292137 0.000742147)
(0.10007 0.0004121 0.000608451)
(0.100813 0.00134002 0.00192139)
(0.10048 0.000774869 0.00169273)
(0.100486 0.00110144 0.00158743)
(0.101352 0.00155464 0.00212946)
(0.101058 0.00102596 0.0020664)
(0.101109 0.00147346 0.00205907)
(0.101733 0.00155662 0.00213995)
(0.101601 0.00109956 0.00212677)
(0.10171 0.00159433 0.00219986)
(0.101944 0.00141085 0.00201577)
(0.102 0.00104752 0.00209143)
(0.102195 0.0015408 0.00216269)
(0.10202 0.00117471 0.00176805)
(0.102244 0.000901464 0.00192619)
(0.102539 0.00135818 0.00196186)
(0.102008 0.000918206 0.00146887)
(0.102372 0.000720013 0.00166343)
(0.102762 0.00111353 0.00166791)
(0.101946 0.000683901 0.00117057)
(0.102416 0.000544774 0.00137155)
(0.102895 0.000864372 0.0013552)
(0.101867 0.000488135 0.000894143)
(0.102407 0.000396079 0.00108777)
(0.102963 0.000643744 0.00106055)
(0.101789 0.000334759 0.000653169)
(0.102371 0.000277036 0.000828123)
(0.102993 0.000461493 0.000797982)
(0.10172 0.000224757 0.00046283)
(0.102326 0.000188086 0.000608135)
(0.103001 0.000321135 0.000580661)
(0.101663 0.00015143 0.000322922)
(0.102281 0.000127403 0.000435763)
(0.102997 0.000220857 0.000414778)
(0.101618 0.000104336 0.000222754)
(0.102241 8.78278e-05 0.000302728)
(0.102988 0.000151666 0.000291986)
(0.101581 7.62218e-05 0.000154525)
(0.102207 6.42519e-05 0.000205402)
(0.102977 0.000105592 0.000204574)
(0.10155 6.25871e-05 0.000111735)
(0.102181 5.3333e-05 0.000140084)
(0.102965 7.64616e-05 0.000145898)
(0.101521 6.1221e-05 8.89801e-05)
(0.102159 5.29808e-05 9.84181e-05)
(0.102953 6.01717e-05 0.000110053)
(0.101493 7.21365e-05 8.27475e-05)
(0.10214 6.30485e-05 7.39172e-05)
(0.102939 5.44065e-05 9.27021e-05)
(0.101461 9.91299e-05 9.17382e-05)
(0.102122 8.51894e-05 6.22413e-05)
(0.102923 5.8709e-05 9.14011e-05)
(0.101421 0.000151073 0.000122319)
(0.10211 0.000124216 6.25366e-05)
(0.102909 7.73518e-05 0.000108526)
(0.102148 0.000183671 8.48298e-05)
(0.102938 0.000120023 0.000154716)
(0.100235 0.000261737 0.00117781)
(0.100085 5.84105e-09 0.000717069)
(0.100063 0.000134809 0.000548714)
(0.100759 0.000445759 0.00183628)
(0.100463 1.94444e-08 0.00163855)
(0.100455 0.000362462 0.00144603)
(0.101351 0.000532616 0.0020608)
(0.101032 3.70902e-08 0.00203399)
(0.101065 0.000499244 0.00193505)
(0.101884 0.000544519 0.00207473)
(0.101629 6.82018e-08 0.00208758)
(0.101741 0.000553895 0.00208703)
(0.102312 0.000501573 0.00199997)