/*--------------------------------*- C++ -*----------------------------------*\
| =========                 |                                                 |
| \\      /  F ield         | OpenFOAM: The Open Source CFD Toolbox           |
|  \\    /   O peration     | Version:  2212                                  |
|   \\  /    A nd           | Website:  www.openfoam.com                      |
|    \\/     M anipulation  |                                                 |
\*---------------------------------------------------------------------------*/
FoamFile
{
    version     2.0;
    format      ascii;
    arch        "LSB;label=32;scalar=64";
    class       surfaceVectorField;
    location    "0.3";
    object      Uf;
}
// * * * * * * * * * * * * * * * * * * * * * * * * * * * * * * * * * * * * * //

dimensions      [0 1 -1 0 0 0 0];

internalField   nonuniform List<vector> 
1795
(
(0.0556958 0.000289883 0.000294633)
(0.0651369 0.000462477 0.00037751)
(0.0651381 0.000374614 0.000466763)
(0.0537713 0.000225218 0.000232936)
(0.0631196 0.000402624 0.000293023)
(0.0631216 0.000288331 0.000409886)
(0.052129 0.000175235 0.000187684)
(0.0613938 0.000350207 0.000235446)
(0.0613973 0.000227929 0.000362274)
(0.0507268 0.00013387 0.000153994)
(0.059906 0.000299234 0.000195334)
(0.0599119 0.00018327 0.000319082)
(0.0495365 9.74605e-05 0.000130317)
(0.0586296 0.000247749 0.000167687)
(0.0586398 0.00014817 0.0002803)
(0.0485385 6.14722e-05 0.000115763)
(0.057531 0.000193463 0.000150192)
(0.0575488 0.000118225 0.000247234)
(0.0566191 0.0001355 0.000142233)
(0.0566502 8.9242e-05 0.000225089)
(0.0767316 0.000954086 0.000575857)
(0.0831885 0.00132937 0.000850808)
(0.0845811 0.000963527 0.000673044)
(0.0749485 0.000843953 0.0004519)
(0.0815512 0.00120805 0.000708949)
(0.0830557 0.000812832 0.000523879)
(0.073396 0.000741367 0.000369478)
(0.0801202 0.0010845 0.000599713)
(0.0817348 0.000694447 0.000424818)
(0.0720439 0.000639198 0.000314201)
(0.0788723 0.00095328 0.000512846)
(0.0805906 0.000593621 0.000359312)
(0.0708691 0.000535503 0.000278016)
(0.0777893 0.000817827 0.000444603)
(0.0796047 0.000502118 0.000316774)
(0.0698506 0.000431065 0.000257407)
(0.0768473 0.000679937 0.000392574)
(0.0787562 0.000416284 0.000292667)
(0.076036 0.000545486 0.00035772)
(0.0780354 0.000330536 0.000282735)
(0.0893312 0.00157637 0.00100029)
(0.0924767 0.001522 0.00117104)
(0.0942296 0.00158618 0.00112406)
(0.0881082 0.00143145 0.000869924)
(0.0915282 0.00139469 0.00102594)
(0.0933081 0.00141607 0.000977019)
(0.0870362 0.00126924 0.000750919)
(0.0906621 0.00124381 0.000895831)
(0.0924907 0.00124653 0.000850195)
(0.0861049 0.00109918 0.000646526)
(0.0898975 0.00108593 0.000776599)
(0.091781 0.00108027 0.000741834)
(0.0852982 0.000928959 0.000559601)
(0.0892284 0.000928057 0.000671492)
(0.0911697 0.000921253 0.000652532)
(0.0845969 0.000764524 0.000492226)
(0.0886413 0.000775219 0.000582273)
(0.0906445 0.000770098 0.000581605)
(0.0881197 0.000633389 0.000512973)
(0.0901893 0.000627596 0.000531066)
(0.0949943 0.00128398 0.00119902)
(0.0960576 0.000873525 0.00129008)
(0.098563 0.00134065 0.00141406)
(0.0944434 0.00118895 0.00106236)
(0.0956393 0.000836944 0.0011364)
(0.0982682 0.00122297 0.00126576)
(0.0939286 0.00106838 0.000937365)
(0.0952528 0.000783488 0.00100411)
(0.0979669 0.00108856 0.00112489)
(0.0934585 0.000932698 0.000818494)
(0.0949011 0.00070395 0.000881883)
(0.0976887 0.000945737 0.000992853)
(0.0930332 0.000795149 0.000710059)
(0.0945768 0.000612311 0.000770859)
(0.0974377 0.000807686 0.000874287)
(0.0926446 0.000665965 0.000617149)
(0.0942801 0.000524855 0.000671075)
(0.0972074 0.000680302 0.000769492)
(0.0940012 0.000450444 0.00058675)
(0.0969903 0.000566134 0.000683512)
(0.0967334 0.000414695 0.00122967)
(0.0968769 3.17839e-06 0.00131145)
(0.0999561 0.000464606 0.00148061)
(0.0964884 0.000399331 0.00107731)
(0.0966047 5.29623e-06 0.0011468)
(0.0999262 0.000432915 0.00133841)
(0.0962812 0.000379036 0.000946398)
(0.0963909 8.76491e-06 0.00100592)
(0.0999069 0.000402603 0.00120547)
(0.0960899 0.000349826 0.000832551)
(0.0961974 1.44464e-05 0.000883704)
(0.0998805 0.000367676 0.00108226)
(0.0959055 0.000315912 0.000730923)
(0.0960072 2.3716e-05 0.000776438)
(0.0998413 0.000328034 0.000960121)
(0.0957255 0.00028662 0.000639852)
(0.0958318 3.86964e-05 0.000677825)
(0.0997964 0.000291057 0.000841525)
(0.0956653 6.27664e-05 0.00058943)
(0.0997417 0.000265073 0.000739314)
(0.0967374 -0.000406609 0.00122858)
(0.0960628 -0.000868706 0.00128919)
(0.099959 -0.00045909 0.00147972)
(0.0964952 -0.000385898 0.00107541)
(0.0956482 -0.000829096 0.00113453)
(0.099931 -0.000423579 0.00133685)
(0.0962928 -0.00035688 0.000943227)
(0.0952679 -0.000770709 0.00100088)
(0.0999149 -0.000387177 0.00120299)
(0.0961093 -0.000313428 0.00082759)
(0.0949262 -0.000682884 0.000876715)
(0.099894 -0.000342602 0.00107848)
(0.095937 -0.000256325 0.00072334)
(0.0946184 -0.000577124 0.000762277)
(0.0998632 -0.00028718 0.000954098)
(0.0957764 -0.000189442 0.000627403)
(0.0943487 -0.000466568 0.000656595)
(0.0998316 -0.000224561 0.000831321)
(0.0997981 -0.000157356 0.000721659)
(0.095004 -0.0012799 0.00119743)
(0.0924838 -0.00152144 0.00116955)
(0.0985694 -0.00133837 0.00141212)
(0.0944598 -0.00118262 0.00105932)
(0.0915405 -0.00139404 0.00102322)
(0.0982791 -0.0012195 0.0012628)
(0.0939559 -0.00105813 0.000932398)
(0.0906828 -0.00124288 0.000891229)
(0.0979856 -0.00108326 0.00112009)
(0.093504 -0.000915334 0.000810146)
(0.0899319 -0.00108413 0.000769058)
(0.0977197 -0.000937003 0.000984509)
(0.0931089 -0.000765716 0.000695386)
(0.089286 -0.000924241 0.000658374)
(0.0974887 -0.000792182 0.000859626)
(0.0887381 -0.000767699 0.000559162)
(0.0972913 -0.000653829 0.000743958)
(0.0893406 -0.0015789 0.000997737)
(0.0831932 -0.00133273 0.000848662)
(0.0942354 -0.00158865 0.00112124)
(0.0881242 -0.00143561 0.000865713)
(0.0815594 -0.00121376 0.000705412)
(0.0933181 -0.00142032 0.000972394)
(0.0870629 -0.00127586 0.000743888)
(0.0801342 -0.00109399 0.000593901)
(0.0925076 -0.00125355 0.000842499)
(0.0861496 -0.00110939 0.000634456)
(0.0788959 -0.000968772 0.00050322)
(0.091809 -0.00109138 0.000728864)
(0.0853738 -0.000944477 0.000538451)
(0.0778292 -0.000842857 0.00042845)
(0.0912168 -0.000938741 0.000630428)
(0.0769155 -0.000720381 0.000365042)
(0.0907237 -0.000797577 0.000543655)
(0.0767356 -0.000959805 0.000572606)
(0.0651381 -0.000466794 0.000374655)
(0.0845827 -0.000967709 0.000669315)
(0.0749552 -0.000853667 0.000446586)
(0.0631217 -0.000409901 0.000288367)
(0.0830586 -0.000819964 0.000517629)
(0.0734076 -0.000757592 0.000360802)
(0.0613973 -0.00036228 0.000227958)
(0.0817397 -0.000706385 0.000414434)
(0.0720637 -0.000666005 0.000300028)
(0.0599121 -0.000319073 0.000183271)
(0.0805989 -0.000613339 0.000342107)
(0.0709031 -0.000579645 0.000254628)
(0.05864 -0.000280229 0.000148142)
(0.0796191 -0.000534579 0.000288315)
(0.0575494 -0.000247173 0.000118206)
(0.078781 -0.000469803 0.000245238)
(0.0556958 -0.00029463 0.000289897)
(0.0651369 -0.000377483 0.000462449)
(0.0537714 -0.00023292 0.000225222)
(0.0631197 -0.000292997 0.000402606)
(0.0521291 -0.00018764 0.000175206)
(0.0613938 -0.00023542 0.000350195)
(0.0507269 -0.000153902 0.000133775)
(0.0599061 -0.00019529 0.000299206)
(0.0495371 -0.00013025 9.73563e-05)
(0.0586298 -0.000167628 0.00024763)
(0.0575317 -0.00015016 0.000193291)
(0.0767355 0.000572577 0.000959821)
(0.0845827 0.000669327 0.000967736)
(0.0831932 0.00084862 0.00133272)
(0.0749552 0.000446558 0.000853698)
(0.0830585 0.000517638 0.000820004)
(0.0815594 0.000705379 0.00121377)
(0.0734075 0.000360789 0.000757645)
(0.0817396 0.000414438 0.000706433)
(0.0801341 0.000593874 0.00109402)
(0.0720634 0.000299988 0.000666084)
(0.0805988 0.000342141 0.000613418)
(0.0788957 0.000503234 0.000968847)
(0.0709028 0.000254537 0.000579719)
(0.0796189 0.000288341 0.000534693)
(0.077829 0.000428416 0.000842959)
(0.0699097 0.000218095 0.000503907)
(0.0787809 0.000245244 0.000469891)
(0.0769153 0.000364963 0.000720397)
(0.0780786 0.000202787 0.000418857)
(0.0761528 0.000310473 0.000611055)
(0.0927095 0.000942108 0.000948183)
(0.0960077 0.00136396 0.00127899)
(0.0960097 0.00127479 0.00136808)
(0.0917419 0.000749668 0.000759834)
(0.0952277 0.00113194 0.00105613)
(0.0952312 0.00104906 0.00113899)
(0.0909139 0.000609289 0.000626115)
(0.0945486 0.000948521 0.000887447)
(0.0945546 0.000875724 0.000960244)
(0.0902118 0.000501989 0.000529768)
(0.0939689 0.000798597 0.00075769)
(0.0939786 0.000738274 0.000817773)
(0.0896225 0.000415999 0.000461974)
(0.0934792 0.000670767 0.000657163)
(0.0934953 0.000624909 0.000702192)
(0.0891312 0.000339144 0.000415417)
(0.0930706 0.000559589 0.000583003)
(0.0930974 0.000529227 0.000611186)
(0.0927278 0.000452822 0.000527781)
(0.0927721 0.000437927 0.000537384)
(0.0989658 0.00149433 0.00138999)
(0.100684 0.00153139 0.00167192)
(0.100857 0.00170501 0.00168196)
(0.098512 0.00127877 0.00118847)
(0.100435 0.00132245 0.00145558)
(0.100607 0.00147157 0.00145057)
(0.098115 0.00109001 0.00102374)
(0.100201 0.00112864 0.00126087)
(0.100374 0.00126496 0.00125311)
(0.0977759 0.000923917 0.000889567)
(0.0999958 0.000954032 0.00109415)
(0.100172 0.00108166 0.0010843)
(0.0974885 0.000776518 0.000782774)
(0.0998197 0.000802172 0.000956223)
(0.100001 0.000918235 0.000941578)
(0.097246 0.0006418 0.000700421)
(0.0996674 0.000669113 0.000843359)
(0.0998598 0.000771058 0.000824259)
(0.0995323 0.000548222 0.000754267)
(0.099744 0.000633509 0.00073011)
(0.102289 0.00132123 0.00174738)
(0.102841 0.000977018 0.0018862)
(0.103271 0.00142722 0.00193439)
(0.10228 0.00115088 0.00154028)
(0.102961 0.000865654 0.00169985)
(0.10346 0.00125668 0.00172794)
(0.102258 0.00098388 0.00134434)
(0.103049 0.000756526 0.00151002)
(0.103606 0.00108836 0.00152357)
(0.102231 0.000831577 0.00117363)
(0.103115 0.000650011 0.00133219)
(0.103722 0.000929551 0.00133515)
(0.1022 0.000699365 0.00102883)
(0.103167 0.000553754 0.001166)
(0.103818 0.000788581 0.00116857)
(0.102165 0.000584344 0.000908182)
(0.103205 0.000470708 0.00101597)
(0.103894 0.000664377 0.00102381)
(0.103226 0.000401886 0.000893173)
(0.103952 0.000553663 0.000902918)
(0.103535 0.000499731 0.00184015)
(0.103414 2.60533e-06 0.0019219)
(0.104151 0.00053547 0.00198669)
(0.103755 0.000448531 0.00167155)
(0.103658 4.41485e-06 0.00175664)
(0.104562 0.000479504 0.00181703)
(0.103938 0.000399488 0.00150008)
(0.10386 7.28431e-06 0.00158369)
(0.104914 0.0004257 0.0016383)
(0.104089 0.00035087 0.00132669)
(0.104027 1.1688e-05 0.00141236)
(0.105213 0.000373769 0.00146009)
(0.104212 0.000305927 0.00115475)
(0.104166 1.88301e-05 0.00123464)
(0.105466 0.000324936 0.00128228)
(0.104309 0.000270836 0.00100193)
(0.104282 3.03601e-05 0.00106392)
(0.105676 0.000282866 0.00111495)
(0.104375 4.86704e-05 0.000921082)
(0.105849 0.000250844 0.000971664)
(0.103539 -0.000493025 0.00183839)
(0.102845 -0.000973958 0.00188384)
(0.104153 -0.000531799 0.00198516)
(0.103761 -0.000437296 0.00166878)
(0.102968 -0.000860278 0.00169636)
(0.104565 -0.000473276 0.0018146)
(0.103947 -0.00038132 0.00149597)
(0.10306 -0.000747861 0.00150452)
(0.10492 -0.000415502 0.00163442)
(0.104104 -0.000321673 0.00132031)
(0.103135 -0.000636245 0.0013231)
(0.105222 -0.000357468 0.00145409)
(0.104236 -0.000258761 0.00114381)
(0.103199 -0.000530807 0.00115066)
(0.10548 -0.000298692 0.00127254)
(0.104348 -0.00019485 0.000983071)
(0.103255 -0.000432849 0.000989818)
(0.1057 -0.000240599 0.00109865)
(0.105886 -0.000183235 0.00094488)
(0.102296 -0.00131964 0.00174334)
(0.100689 -0.00153243 0.00166825)
(0.103275 -0.0014271 0.00193076)
(0.102292 -0.00114849 0.00153418)
(0.100443 -0.00132442 0.00144985)
(0.103467 -0.0012564 0.00172234)
(0.10228 -0.000980219 0.00133407)
(0.100215 -0.00113222 0.00125158)
(0.103618 -0.00108809 0.00151452)
(0.102266 -0.000824979 0.00115594)
(0.10002 -0.000959661 0.00107835)
(0.103742 -0.000929156 0.00131989)
(0.102256 -0.000687351 0.000998877)
(0.0998585 -0.000810409 0.00092953)
(0.103849 -0.000787077 0.00114313)
(0.099731 -0.000681562 0.000798453)
(0.103945 -0.000661085 0.000981739)
(0.0989717 -0.00149859 0.00138465)
(0.0960097 -0.00136808 0.00127482)
(0.100859 -0.00170857 0.00167766)
(0.0985221 -0.00128601 0.00117961)
(0.0952312 -0.00113898 0.00104908)
(0.100611 -0.00147757 0.00144337)
(0.0981317 -0.0011018 0.00100903)
(0.0945546 -0.000960214 0.000875734)
(0.100381 -0.00127488 0.00124127)
(0.0978036 -0.000942832 0.000864975)
(0.0939787 -0.00081772 0.000738261)
(0.100183 -0.00109772 0.00106475)
(0.0975343 -0.00080694 0.000741534)
(0.0934954 -0.000702142 0.00062489)
(0.100019 -0.000944266 0.000909153)
(0.0930975 -0.000611187 0.000529255)
(0.0998903 -0.000813246 0.000770491)
(0.0927095 -0.000948162 0.000942131)
(0.0845811 -0.000673062 0.000963555)
(0.0960078 -0.00127897 0.00136395)
(0.0917419 -0.000759801 0.000749683)
(0.0830558 -0.000523887 0.000812856)
(0.0952277 -0.00105611 0.00113194)
(0.0909139 -0.000626062 0.000609286)
(0.0817349 -0.000424821 0.000694467)
(0.0945487 -0.00088741 0.000948513)
(0.0902119 -0.000529683 0.000501949)
(0.0805907 -0.000359279 0.000593606)
(0.0939689 -0.000757628 0.000798569)
(0.0896226 -0.000461874 0.00041593)
(0.0796049 -0.000316748 0.000502046)
(0.0934793 -0.000657075 0.000670723)
(0.0787564 -0.000292662 0.000416177)
(0.0930706 -0.000582899 0.000559527)
(0.0767317 -0.000575845 0.000954091)
(0.0831885 -0.000850786 0.00132933)
(0.0749485 -0.00045189 0.000843961)
(0.0815512 -0.000708923 0.00120801)
(0.0733961 -0.000369454 0.000741358)
(0.0801203 -0.000599688 0.00108445)
(0.0720441 -0.0003142 0.000639145)
(0.0788724 -0.000512784 0.000953195)
(0.0708694 -0.000278058 0.000535393)
(0.0777894 -0.000444579 0.000817698)
(0.0768474 -0.000392575 0.000679827)
(0.0893406 0.000997715 0.00157893)
(0.0942353 0.00112123 0.00158867)
(0.0924838 0.00116953 0.00152148)
(0.0881241 0.000865703 0.00143565)
(0.0933181 0.000972391 0.00142036)
(0.0915405 0.00102321 0.00139409)
(0.0870628 0.0007439 0.00127593)
(0.0925075 0.000842504 0.0012536)
(0.0906827 0.000891239 0.00124294)
(0.0861495 0.000634481 0.00110948)
(0.0918089 0.000728889 0.00109147)
(0.0899318 0.000769105 0.00108422)
(0.0853737 0.000538443 0.000944531)
(0.0912167 0.000630431 0.000938827)
(0.0892858 0.000658435 0.000924318)
(0.0847251 0.00045519 0.000788081)
(0.0907236 0.000543574 0.000797576)
(0.0887379 0.00055922 0.000767733)
(0.0903224 0.000465545 0.000670483)
(0.0882823 0.000472545 0.00061996)
(0.0989716 0.00138464 0.00149862)
(0.100859 0.00167766 0.00170859)
(0.100689 0.00166823 0.00153244)
(0.0985221 0.00117961 0.00128605)
(0.100611 0.00144337 0.0014776)
(0.100443 0.00144984 0.00132446)
(0.0981317 0.00100904 0.00110187)
(0.100381 0.00124129 0.00127493)
(0.100215 0.00125159 0.00113228)
(0.0978035 0.00086498 0.000942908)
(0.100183 0.00106478 0.0010978)
(0.100019 0.00107837 0.000959735)
(0.0975343 0.000741471 0.000806974)
(0.100019 0.000909182 0.000944364)
(0.0998585 0.000929528 0.000810475)
(0.0973217 0.000630885 0.000690487)
(0.0998902 0.000770477 0.00081332)
(0.099731 0.000798281 0.000681521)
(0.0997943 0.000641092 0.000701491)
(0.0996358 0.00067815 0.00056676)
(0.102693 0.00167713 0.00168264)
(0.103489 0.00163557 0.00187279)
(0.10349 0.00186882 0.00163837)
(0.10269 0.00145395 0.00146298)
(0.103683 0.00142669 0.001659)
(0.103685 0.00165262 0.00143119)
(0.102676 0.00125395 0.00126873)
(0.103835 0.00123522 0.0014582)
(0.103838 0.0014478 0.00124255)
(0.10266 0.00107441 0.00109858)
(0.103958 0.00106141 0.00127491)
(0.103964 0.00125779 0.00107338)
(0.10265 0.000912049 0.000951523)
(0.104063 0.000904692 0.00111084)
(0.104072 0.0010828 0.000924056)
(0.102649 0.000762545 0.000826688)
(0.104153 0.000763235 0.000967492)
(0.104168 0.000921776 0.000794447)
(0.104235 0.000632494 0.000845525)
(0.104257 0.000771534 0.000682452)
(0.104541 0.00135648 0.00185272)
(0.104642 0.00100262 0.00196122)
(0.104738 0.00145251 0.00172601)
(0.104901 0.00118928 0.00165969)
(0.105134 0.000886118 0.00178739)
(0.105266 0.00130212 0.00156213)
(0.105202 0.00103039 0.00147065)
(0.105555 0.000772744 0.00160494)
(0.105721 0.00114905 0.00139183)
(0.105454 0.000884064 0.00129364)
(0.105914 0.000667228 0.00142541)
(0.106112 0.00100105 0.00122722)
(0.105667 0.000751888 0.00113315)
(0.106217 0.000572596 0.00125498)
(0.106448 0.000862868 0.00107444)
(0.105847 0.000632389 0.000992401)
(0.106474 0.000488655 0.00109855)
(0.106736 0.000735746 0.000936773)
(0.106689 0.000413726 0.000960817)
(0.106982 0.000618622 0.000816562)
(0.10525 0.000513133 0.00189629)
(0.104953 1.23326e-06 0.00197274)
(0.105191 0.000538811 0.00172453)
(0.105805 0.000454923 0.0017337)
(0.105546 2.02077e-06 0.00181777)
(0.105885 0.000487662 0.0015988)
(0.106284 0.00039842 0.00156113)
(0.106064 3.24669e-06 0.00164634)
(0.106503 0.000433847 0.00145369)
(0.106697 0.000346511 0.00138827)
(0.10651 5.15409e-06 0.00147064)
(0.107046 0.000381253 0.00130188)
(0.107047 0.000300764 0.00122176)
(0.106892 8.23027e-06 0.00129737)
(0.107517 0.000332291 0.00115081)
(0.10734 0.000261761 0.00106808)
(0.107215 1.30954e-05 0.00113239)
(0.107921 0.000288107 0.00100701)
(0.107487 2.06231e-05 0.000981695)
(0.108266 0.000249098 0.00087655)
(0.105252 -0.000510098 0.00189422)
(0.104645 -0.00100199 0.0019585)
(0.105192 -0.000537643 0.00172313)
(0.105808 -0.000450004 0.00173041)
(0.105138 -0.00088501 0.00178313)
(0.105887 -0.000485721 0.0015966)
(0.10629 -0.000390532 0.00155585)
(0.105561 -0.000770937 0.00159806)
(0.106506 -0.000430704 0.0014502)
(0.106705 -0.00033388 0.00137975)
(0.105923 -0.000664314 0.00141409)
(0.10705 -0.000376217 0.00129633)
(0.10706 -0.000280587 0.001208)
(0.106232 -0.000567761 0.00123651)
(0.107524 -0.000324197 0.00114197)
(0.107361 -0.00022977 0.00104601)
(0.106497 -0.000480803 0.00106857)
(0.107932 -0.000275168 0.000992917)
(0.108281 -0.000228584 0.000854338)
(0.104544 -0.00135785 0.00184787)
(0.10349 -0.00163836 0.00186883)
(0.10474 -0.00145411 0.00172291)
(0.104907 -0.00119143 0.00165193)
(0.103685 -0.00143118 0.00165262)
(0.105268 -0.00130459 0.00155731)
(0.105211 -0.00103387 0.0014579)
(0.103838 -0.00124251 0.00144779)
(0.105724 -0.00115299 0.00138409)
(0.105469 -0.000889558 0.00127264)
(0.103964 -0.00107332 0.00125778)
(0.106118 -0.0010074 0.00121452)
(0.105691 -0.000760438 0.00109888)
(0.104072 -0.00092396 0.00108278)
(0.106458 -0.000872881 0.00105384)
(0.104168 -0.000794325 0.000921763)
(0.106751 -0.000751516 0.000903676)
(0.102693 -0.00168263 0.00167714)
(0.100857 -0.00168196 0.00170502)
(0.103489 -0.00187278 0.00163558)
(0.10269 -0.00146295 0.00145395)
(0.100607 -0.00145056 0.00147158)
(0.103683 -0.00165898 0.0014267)
(0.102676 -0.00126867 0.00125394)
(0.100374 -0.00125308 0.00126497)
(0.103835 -0.00145815 0.00123522)
(0.10266 -0.00109848 0.00107438)
(0.100172 -0.00108425 0.00108165)
(0.103958 -0.00127484 0.0010614)
(0.10265 -0.000951386 0.000912003)
(0.100001 -0.000941494 0.000918205)
(0.104063 -0.00111073 0.00090467)
(0.0998598 -0.000824143 0.000771015)
(0.104153 -0.000967348 0.000763213)
(0.0989658 -0.00138998 0.00149434)
(0.0942296 -0.00112407 0.00158618)
(0.100684 -0.00167192 0.00153139)
(0.0985121 -0.00118845 0.00127878)
(0.0933081 -0.000977019 0.00141606)
(0.100435 -0.00145557 0.00132245)
(0.098115 -0.0010237 0.00109001)
(0.0924907 -0.000850188 0.00124652)
(0.100201 -0.00126085 0.00112865)
(0.097776 -0.000889508 0.000923899)
(0.091781 -0.000741804 0.00108025)
(0.0999958 -0.00109411 0.000954031)
(0.0974885 -0.000782683 0.000776484)
(0.0911698 -0.000652489 0.000921215)
(0.0998197 -0.000956161 0.000802168)
(0.0906445 -0.000581549 0.000770069)
(0.0996674 -0.000843266 0.00066911)
(0.0893313 -0.00100028 0.00157635)
(0.0924767 -0.00117104 0.00152198)
(0.0881083 -0.000869911 0.00143142)
(0.0915283 -0.00102594 0.00139467)
(0.0870362 -0.00075089 0.00126921)
(0.0906621 -0.00089582 0.00124379)
(0.0861049 -0.00064648 0.00109913)
(0.0898976 -0.000776573 0.00108591)
(0.0852982 -0.00055956 0.000928918)
(0.0892284 -0.000671468 0.000928077)
(0.0886413 -0.000582266 0.00077528)
(0.095004 0.00119743 0.00127996)
(0.0985694 0.00141211 0.00133842)
(0.0960628 0.00128918 0.000868781)
(0.0944598 0.00105934 0.00118271)
(0.0982791 0.00126281 0.00121955)
(0.0956482 0.00113453 0.000829185)
(0.0939558 0.000932453 0.00105825)
(0.0979856 0.00112012 0.00108334)
(0.0952678 0.00100091 0.000770824)
(0.0935038 0.000810254 0.000915491)
(0.0977197 0.000984574 0.00093711)
(0.0949261 0.000876778 0.000683043)
(0.0931086 0.000695558 0.000765925)
(0.0974886 0.00085972 0.000792301)
(0.0946182 0.000762392 0.00057736)
(0.0927699 0.000591619 0.00061823)
(0.0972912 0.000744006 0.000653907)
(0.0943485 0.000656779 0.000466934)
(0.0971279 0.000639121 0.000522899)
(0.0941144 0.000561843 0.000356248)
(0.102296 0.00174334 0.00131967)
(0.103275 0.00193076 0.00142711)
(0.102845 0.00188383 0.000973982)
(0.102292 0.00153419 0.00114853)
(0.103467 0.00172234 0.00125643)
(0.102968 0.00169636 0.000860313)
(0.10228 0.0013341 0.000980282)
(0.103618 0.00151454 0.00108813)
(0.10306 0.00150454 0.000747913)
(0.102266 0.00115596 0.000825039)
(0.103742 0.00131992 0.00092922)
(0.103135 0.00132313 0.000636311)
(0.102257 0.000998758 0.000687311)
(0.103849 0.00114314 0.000787133)
(0.103199 0.00115069 0.00053086)
(0.102255 0.000857276 0.000563323)
(0.103945 0.000981599 0.000661048)
(0.103255 0.000989746 0.000432803)
(0.104033 0.0008333 0.000547056)
(0.103307 0.000848743 0.000339998)
(0.104544 0.00184786 0.00135787)
(0.10474 0.0017229 0.00145412)
(0.104645 0.0019585 0.00100199)
(0.104907 0.00165193 0.00119146)
(0.105268 0.00155731 0.00130461)
(0.105138 0.00178313 0.000885024)
(0.105211 0.0014579 0.00103391)
(0.105724 0.0013841 0.00115303)
(0.105561 0.00159806 0.000770961)
(0.105469 0.00127265 0.000889617)
(0.106118 0.00121453 0.00100745)
(0.105923 0.0014141 0.000664349)
(0.105691 0.00109887 0.0007605)
(0.106458 0.00105384 0.000872957)
(0.106232 0.00123651 0.000567798)
(0.105884 0.000936879 0.000645671)
(0.106751 0.000903639 0.000751595)
(0.106497 0.00106855 0.000480822)
(0.107006 0.000763771 0.000643236)
(0.106725 0.000912536 0.000401053)
(0.105493 0.00139776 0.00140053)
(0.105298 0.00100486 0.00145413)
(0.105298 0.00145249 0.00100594)
(0.106121 0.00126287 0.00126725)
(0.106032 0.000917638 0.00134204)
(0.106032 0.00133948 0.000919306)
(0.106673 0.00112162 0.00112862)
(0.106688 0.000822079 0.0012148)
(0.106689 0.00121073 0.000824707)
(0.107154 0.000982259 0.000993422)
(0.107268 0.000725554 0.00108318)
(0.107269 0.0010767 0.000729732)
(0.107571 0.000849292 0.000866973)
(0.107774 0.000632379 0.000954329)
(0.107776 0.000944061 0.000638976)
(0.107931 0.000724511 0.000752245)
(0.108214 0.000544561 0.000833101)
(0.108216 0.000816926 0.000554909)
(0.108592 0.000462671 0.000722864)
(0.108595 0.000697678 0.000478699)
(0.105844 0.000512899 0.0013956)
(0.105442 2.86803e-08 0.00144295)
(0.105515 0.000528051 0.000987507)
(0.106607 0.000466485 0.00128994)
(0.106244 7.23155e-08 0.00134683)
(0.106364 0.000489647 0.000922712)
(0.107292 0.000416834 0.00116997)
(0.106969 1.29062e-07 0.00123083)
(0.107141 0.000444855 0.00084455)
(0.107898 0.000367338 0.00104482)
(0.107615 2.10782e-07 0.0011056)
(0.107838 0.000397585 0.000760139)
(0.108429 0.000319981 0.000921216)
(0.108183 3.49154e-07 0.000978539)
(0.108456 0.000350471 0.000674685)
(0.108887 0.000275719 0.000804433)
(0.108677 5.77688e-07 0.000855271)
(0.108997 0.000305114 0.000591999)
(0.109103 9.60697e-07 0.000740194)
(0.109465 0.000262343 0.00051492)
(0.105844 -0.000512909 0.00139418)
(0.105298 -0.00100594 0.0014525)
(0.105516 -0.000528252 0.000986765)
(0.106608 -0.000466454 0.00128772)
(0.106032 -0.000919292 0.00133948)
(0.106365 -0.000489922 0.000921563)
(0.107293 -0.000416754 0.00116647)
(0.106689 -0.00082468 0.00121073)
(0.107141 -0.000445256 0.000842757)
(0.1079 -0.000367176 0.00103932)
(0.107269 -0.000729687 0.00107669)
(0.107839 -0.000398186 0.000757338)
(0.108432 -0.000319664 0.000912595)
(0.107776 -0.000638911 0.000944056)
(0.108458 -0.000351367 0.000670315)
(0.108892 -0.000275106 0.000791033)
(0.108216 -0.000554833 0.000816926)
(0.108999 -0.000306438 0.000585219)
(0.109468 -0.00026425 0.000504531)
(0.105493 -0.00140052 0.00139777)
(0.104738 -0.00172601 0.00145252)
(0.105298 -0.00145412 0.00100487)
(0.106121 -0.00126722 0.00126288)
(0.105266 -0.00156211 0.00130213)
(0.106032 -0.00134202 0.000917643)
(0.106673 -0.00112857 0.00112162)
(0.105721 -0.0013918 0.00114905)
(0.106688 -0.00121476 0.000822079)
(0.107154 -0.000993348 0.000982259)
(0.106112 -0.00122716 0.00100105)
(0.107268 -0.00108311 0.000725549)
(0.107571 -0.000866878 0.000849299)
(0.106448 -0.00107434 0.000862862)
(0.107774 -0.000954242 0.000632371)
(0.106736 -0.000936654 0.000735747)
(0.108214 -0.000833003 0.000544557)
(0.104541 -0.0018527 0.00135649)
(0.103271 -0.00193439 0.00142723)
(0.104642 -0.00196121 0.00100263)
(0.104901 -0.00165966 0.00118929)
(0.10346 -0.00172793 0.00125669)
(0.105134 -0.00178736 0.000886127)
(0.105202 -0.00147059 0.00103039)
(0.103606 -0.00152354 0.00108837)
(0.105555 -0.0016049 0.000772749)
(0.105454 -0.00129356 0.000884057)
(0.103723 -0.00133511 0.000929556)
(0.105914 -0.00142534 0.000667226)
(0.105667 -0.00113303 0.000751876)
(0.103818 -0.00116849 0.000788583)
(0.106217 -0.00125488 0.000572586)
(0.103894 -0.00102371 0.000664381)
(0.106474 -0.00109843 0.000488642)
(0.102289 -0.00174737 0.00132124)
(0.098563 -0.00141406 0.00134064)
(0.102841 -0.00188619 0.000977026)
(0.10228 -0.00154027 0.00115089)
(0.0982682 -0.00126576 0.00122297)
(0.102961 -0.00169984 0.000865662)
(0.102259 -0.00134432 0.000983891)
(0.0979669 -0.00112489 0.00108857)
(0.103049 -0.00151 0.000756536)
(0.102231 -0.00117359 0.00083159)
(0.0976888 -0.000992835 0.000945743)
(0.103115 -0.00133217 0.000650022)
(0.102201 -0.00102876 0.00069938)
(0.0974378 -0.000874257 0.000807708)
(0.103167 -0.00116595 0.000553767)
(0.0972075 -0.000769457 0.000680344)
(0.103205 -0.00101591 0.000470725)
(0.0949944 -0.00119902 0.00128397)
(0.0960576 -0.00129009 0.00087352)
(0.0944435 -0.00106235 0.00118894)
(0.0956394 -0.0011364 0.000836936)
(0.0939286 -0.000937356 0.00106837)
(0.0952528 -0.0010041 0.000783481)
(0.0934585 -0.000818481 0.000932712)
(0.0949011 -0.000881877 0.000703945)
(0.0930332 -0.000710053 0.000795196)
(0.0945769 -0.00077085 0.000612321)
(0.0942802 -0.000671068 0.00052488)
(0.0967374 0.00122858 0.000406685)
(0.099959 0.00147971 0.000459137)
(0.0968769 0.00131144 -3.09961e-06)
(0.0964952 0.00107542 0.000385991)
(0.099931 0.00133686 0.000423637)
(0.0966047 0.0011468 -5.20565e-06)
(0.0962928 0.000943255 0.000357)
(0.0999149 0.001203 0.000387252)
(0.0963909 0.00100593 -8.65907e-06)
(0.0961093 0.00082765 0.000313592)
(0.099894 0.00107851 0.0003427)
(0.0961974 0.000883725 -1.43224e-05)
(0.095937 0.000723446 0.000256568)
(0.0998632 0.000954168 0.000287309)
(0.0960073 0.000776485 -2.35688e-05)
(0.0957764 0.00062757 0.000189783)
(0.0998316 0.000831449 0.000224743)
(0.0958318 0.000677906 -3.85167e-05)
(0.0997982 0.000721812 0.000157593)
(0.0956654 0.000589554 -6.25265e-05)
(0.103539 0.00183839 0.000493051)
(0.104153 0.00198516 0.000531811)
(0.103414 0.0019219 -2.58392e-06)
(0.103761 0.00166878 0.000437333)
(0.104565 0.0018146 0.000473297)
(0.103658 0.00175663 -4.38482e-06)
(0.103947 0.00149598 0.00038137)
(0.10492 0.00163442 0.000415533)
(0.10386 0.00158369 -7.24505e-06)
(0.104104 0.00132035 0.000321731)
(0.105222 0.0014541 0.000357508)
(0.104028 0.00141238 -1.16413e-05)
(0.104236 0.00114388 0.000258819)
(0.10548 0.00127256 0.000298735)
(0.104167 0.00123468 -1.87832e-05)
(0.104348 0.000983176 0.000194912)
(0.1057 0.0010987 0.000240638)
(0.104282 0.00106399 -3.03198e-05)
(0.105886 0.000944948 0.000183288)
(0.104375 0.000921174 -4.861e-05)
(0.105252 0.00189421 0.000510103)
(0.105192 0.00172312 0.000537645)
(0.104953 0.00197273 -1.23357e-06)
(0.105808 0.00173041 0.000450016)
(0.105887 0.0015966 0.00048573)
(0.105546 0.00181776 -2.01484e-06)
(0.10629 0.00155585 0.000390552)
(0.106506 0.0014502 0.000430721)
(0.106064 0.00164634 -3.23355e-06)
(0.106705 0.00137975 0.000333905)
(0.10705 0.00129634 0.000376245)
(0.10651 0.00147064 -5.13347e-06)
(0.10706 0.00120801 0.000280611)
(0.107524 0.00114198 0.000324233)
(0.106892 0.00129738 -8.20295e-06)
(0.107361 0.00104602 0.0002298)
(0.107932 0.000992937 0.000275207)
(0.107215 0.00113241 -1.30626e-05)
(0.108281 0.000854364 0.000228633)
(0.107487 0.00098172 -2.05796e-05)
(0.105844 0.00139418 0.000512914)
(0.105516 0.000986762 0.000528256)
(0.105442 0.00144295 -3.04667e-08)
(0.106608 0.00128772 0.000466468)
(0.106365 0.000921563 0.000489934)
(0.106244 0.00134683 -6.70128e-08)
(0.107293 0.00116647 0.000416779)
(0.107141 0.00084276 0.000445277)
(0.106969 0.00123083 -1.15072e-07)
(0.107901 0.00103933 0.000367214)
(0.107839 0.000757347 0.00039822)
(0.107615 0.00110561 -1.85025e-07)
(0.108432 0.000912608 0.000319715)
(0.108458 0.00067033 0.000351415)
(0.108183 0.00097855 -3.10345e-07)
(0.108892 0.00079105 0.000275164)
(0.108999 0.000585239 0.000306497)
(0.108677 0.000855287 -5.28568e-07)
(0.109468 0.000504553 0.000264309)
(0.109103 0.000740212 -9.08041e-07)
(0.106041 0.000504717 0.0005052)
(0.10559 -1.73607e-07 0.000521366)
(0.10559 0.000521368 1.78614e-07)
(0.106904 0.000468063 0.000468799)
(0.106488 -2.60555e-07 0.000488552)
(0.106488 0.000488557 2.71638e-07)
(0.107693 0.000425744 0.00042687)
(0.107317 -3.9759e-07 0.000448307)
(0.107317 0.000448315 4.16295e-07)
(0.108403 0.000380911 0.000382635)
(0.108068 -6.10163e-07 0.0004043)
(0.108068 0.000404313 6.39103e-07)
(0.109032 0.000335818 0.000338446)
(0.108738 -9.36217e-07 0.000359232)
(0.108738 0.000359251 9.77777e-07)
(0.109583 0.000291951 0.000295909)
(0.109327 -1.43078e-06 0.000315012)
(0.109327 0.000315036 1.48204e-06)
(0.10984 -2.15779e-06 0.000272825)
(0.10984 0.000272848 2.20851e-06)
(0.106041 -0.000505189 0.000504717)
(0.105515 -0.000987496 0.000528055)
(0.10559 -0.000521353 -1.73198e-07)
(0.106904 -0.000468779 0.00046806)
(0.106364 -0.000922692 0.000489649)
(0.106488 -0.000488533 -2.64036e-07)
(0.107693 -0.00042684 0.000425736)
(0.107141 -0.000844517 0.000444852)
(0.107317 -0.000448279 -4.06442e-07)
(0.108403 -0.000382592 0.000380896)
(0.107838 -0.00076009 0.000397576)