/*--------------------------------*- C++ -*----------------------------------*\
| =========                 |                                                 |
| \\      /  F ield         | OpenFOAM: The Open Source CFD Toolbox           |
|  \\    /   O peration     | Version:  2212                                  |
|   \\  /    A nd           | Website:  www.openfoam.com                      |
|    \\/     M anipulation  |                                                 |
\*---------------------------------------------------------------------------*/
FoamFile
{
    version     2.0;
    format      ascii;
    arch        "LSB;label=32;scalar=64";
    class       volScalarField;
    location    "0.7";
    object      epsilon;
}
// * * * * * * * * * * * * * * * * * * * * * * * * * * * * * * * * * * * * * //

dimensions      [0 2 -3 0 0 0 0];

internalField   nonuniform List<scalar> 
6840
(
90.5034
12.1248
4.3887
2.46659
1.63316
1.18307
0.902014
0.720684
0.594585
0.502533
0.43271
0.379335
0.336393
0.300059
0.270486
0.24661
0.227297
0.21203
0.203466
0.194928
58.5856
14.5696
6.08947
3.33295
2.08217
1.40267
0.998655
0.740288
0.565913
0.443935
0.35604
0.290956
0.24146
0.203053
0.173193
0.149967
0.131585
0.117026
0.106004
0.0986513
45.0226
13.4729
5.73075
3.07322
1.86023
1.22699
0.873571
0.649774
0.497007
0.389472
0.311283
0.252971
0.208977
0.17522
0.148838
0.127922
0.111182
0.0976664
0.0867564
0.0783569
38.7028
13.0541
5.74336
3.08733
1.88066
1.2275
0.86947
0.645375
0.492582
0.384769
0.307011
0.24903
0.204961
0.170967
0.144373
0.123291
0.106365
0.0926103
0.0813845
0.0731814
36.0571
12.8529
5.76645
3.10211
1.89475
1.22669
0.866496
0.643978
0.492246
0.383961
0.305796
0.247923
0.203928
0.169961
0.143353
0.122227
0.10523
0.0913812
0.0800186
0.0712609
36.0571
12.8529
5.76645
3.10211
1.89476
1.22669
0.8665
0.643985
0.492254
0.383972
0.305813
0.247946
0.203961
0.170008
0.143422
0.122328
0.105382
0.0916087
0.080387
0.0721089
38.7028
13.0541
5.74336
3.08733
1.88066
1.2275
0.86948
0.645389
0.4926
0.384793
0.307048
0.24908
0.20503
0.171066
0.144515
0.123499
0.106674
0.0930749
0.08204
0.0737397
45.0226
13.4729
5.73075
3.07323
1.86023
1.227
0.873581
0.649787
0.497025
0.389503
0.311322
0.253025
0.209051
0.175322
0.148988
0.128142
0.111511
0.0981661
0.0875153
0.0793676
58.5856
14.5696
6.08947
3.33295
2.08218
1.40267
0.998658
0.740292
0.565919
0.443947
0.356058
0.290984
0.241503
0.203139
0.173311
0.15014
0.131869
0.117526
0.106911
0.0999472
90.5034
12.1248
4.3887
2.46659
1.63316
1.18307
0.902014
0.720684
0.594586
0.502533
0.43271
0.379336
0.336394
0.300059
0.270487
0.246611
0.2273
0.212033
0.20347
0.194934
58.5856
14.5696
6.08947
3.33295
2.08218
1.40267
0.998658
0.740292
0.565918
0.443946
0.356057
0.290984
0.241503
0.203139
0.17331
0.15014
0.131868
0.117524
0.106909
0.0999449
16.5373
9.49239
5.0127
2.8606
1.75746
1.1476
0.786934
0.562053
0.415373
0.315956
0.246345
0.19624
0.159246
0.131288
0.109832
0.093278
0.0802562
0.0697084
0.0608703
0.0568187
13.6679
8.73671
5.07741
3.05388
1.92224
1.26609
0.869291
0.618633
0.453963
0.34204
0.263659
0.207323
0.165919
0.13487
0.111174
0.0927224
0.0782146
0.0666722
0.0572293
0.0499549
12.9054
8.33993
5.07879
3.15547
2.02775
1.3512
0.933536
0.666457
0.489545
0.368595
0.283605
0.222389
0.177332
0.143534
0.117754
0.0977803
0.0820982
0.0696371
0.0596217
0.0513916
12.6882
8.1544
5.07113
3.20038
2.07939
1.39506
0.967828
0.692718
0.509634
0.384013
0.2955
0.231645
0.18459
0.149261
0.122292
0.101392
0.0849803
0.0719408
0.0614752
0.0530433
12.6882
8.1544
5.07113
3.20038
2.07939
1.39506
0.967831
0.692722
0.509638
0.384018
0.295507
0.231654
0.184602
0.149278
0.122313
0.101417
0.0850107
0.071977
0.0615178
0.0531052
12.9054
8.33993
5.07879
3.15547
2.02775
1.35121
0.933542
0.666464
0.489554
0.368606
0.28362
0.222409
0.177357
0.143568
0.117794
0.0978313
0.0821625
0.0697175
0.0597211
0.0515247
13.6679
8.73671
5.07741
3.05388
1.92224
1.2661
0.869295
0.618638
0.453969
0.342048
0.263669
0.207338
0.165938
0.134896
0.111204
0.0927601
0.0782606
0.0667253
0.0572812
0.0502888
16.5373
9.49239
5.01271
2.8606
1.75746
1.1476
0.786934
0.562054
0.415373
0.315956
0.246345
0.19624
0.159246
0.131291
0.109829
0.0932771
0.080256
0.0697079
0.0608706
0.0568187
58.5856
14.5696
6.08947
3.33295
2.08217
1.40267
0.998656
0.740288
0.565914
0.443935
0.35604
0.290957
0.24146
0.203053
0.173193
0.149967
0.131586
0.117027
0.106006
0.0986537
45.0226
13.4729
5.73075
3.07323
1.86023
1.227
0.873581
0.649786
0.497025
0.389503
0.311322
0.253025
0.20905
0.175322
0.148988
0.128142
0.111511
0.0981653
0.0875142
0.0793663
13.6679
8.73671
5.07741
3.05388
1.92224
1.2661
0.869295
0.618638
0.453969
0.342048
0.263669
0.207337
0.165937
0.134894
0.111206
0.0927609
0.0782608
0.0667251
0.0572819
0.0502881
11.8601
7.76395
4.99734
3.24076
2.1442
1.45499
1.01411
0.725639
0.532162
0.399157
0.305556
0.238236
0.188844
0.151941
0.12391
0.102285
0.085381
0.0720022
0.0612861
0.0527197
11.6229
7.60535
5.0103
3.34209
2.26848
1.57142
1.11236
0.804588
0.594205
0.447518
0.343212
0.267636
0.211904
0.170127
0.138335
0.113799
0.0946209
0.0794555
0.0673369
0.0575748
11.5726
7.56718
5.02065
3.38344
2.32103
1.62326
1.15828
0.843153
0.625688
0.472846
0.363481
0.28385
0.224903
0.180588
0.146791
0.120668
0.100229
0.0840564
0.071128
0.0606887
11.5726
7.56718
5.02065
3.38344
2.32103
1.62326
1.15828
0.843156
0.625691
0.47285
0.363486
0.283856
0.224911
0.180599
0.146804
0.120683
0.100247
0.0840778
0.0711541
0.0607265
11.6229
7.60535
5.01031
3.34209
2.26848
1.57142
1.11236
0.804592
0.59421
0.447524
0.34322
0.267647
0.211918
0.170145
0.138355
0.113824
0.094652
0.0794931
0.067382
0.0576469
11.8601
7.76395
4.99734
3.24076
2.1442
1.45499
1.01411
0.725639
0.532162
0.399157
0.305556
0.238236
0.188845
0.151942
0.123909
0.102285
0.0853808
0.0720022
0.0612863
0.0527197
13.6679
8.73671
5.07741
3.05388
1.92224
1.26609
0.869291
0.618633
0.453963
0.34204
0.263659
0.207324
0.165919
0.134871
0.111173
0.0927214
0.0782141
0.0666717
0.057229
0.0499535
45.0226
13.4729
5.73075
3.07322
1.86023
1.22699
0.873571
0.649774
0.497008
0.389473
0.311283
0.252972
0.208978
0.17522
0.148838
0.127922
0.111183
0.0976672
0.0867576
0.0783581
38.7028
13.0541
5.74336
3.08733
1.88066
1.2275
0.86948
0.645389
0.4926
0.384793
0.307048
0.249079
0.20503
0.171065
0.144515
0.123499
0.106674
0.0930744
0.0820394
0.073739
12.9054
8.33993
5.07879
3.15547
2.02775
1.35121
0.933542
0.666464
0.489554
0.368606
0.28362
0.222408
0.177356
0.143566
0.117796
0.0978321
0.0821627
0.0697175
0.0597211
0.0515246
11.6229
7.60535
5.01031
3.34209
2.26848
1.57142
1.11236
0.804592
0.59421
0.447524
0.34322
0.267646
0.211916
0.170144
0.138356
0.113825
0.0946523
0.0794932
0.0673821
0.0576472
11.4933
7.5119
5.02843
3.434
2.3892
1.6928
1.22112
0.896488
0.669458
0.508125
0.39166
0.306291
0.242792
0.194899
0.158297
0.129975
0.107807
0.0902675
0.0762461
0.0648891
11.4757
7.50136
5.04297
3.47002
2.43665
1.74299
1.26863
0.938712
0.705584
0.538336
0.416593
0.326729
0.259501
0.208561
0.169492
0.139179
0.115405
0.0965663
0.081481
0.0691814
11.4757
7.50136
5.04297
3.47002
2.43665
1.74299
1.26863
0.938713
0.705585
0.538337
0.416595
0.326731
0.259503
0.208564
0.169495
0.139182
0.115409
0.0965712
0.0814852
0.069162
11.4933
7.5119
5.02843
3.434
2.3892
1.6928
1.22112
0.896488
0.669458
0.508125
0.39166
0.306291
0.242793
0.194899
0.158296
0.129975
0.107807
0.0902673
0.0762459
0.0648878
11.6229
7.60535
5.0103
3.34209
2.26848
1.57142
1.11236
0.804588
0.594205
0.447518
0.343213
0.267637
0.211904
0.170128
0.138334
0.113798
0.0946207
0.0794555
0.0673371
0.0575739
12.9054
8.33993
5.07879
3.15547
2.02775
1.3512
0.933536
0.666457
0.489545
0.368595
0.283605
0.22239
0.177332
0.143535
0.117753
0.0977794
0.0820977
0.0696368
0.0596214
0.0513909
38.7028
13.0541
5.74336
3.08733
1.88066
1.2275
0.86947
0.645375
0.492582
0.384769
0.307012
0.24903
0.204961
0.170967
0.144373
0.123291
0.106365
0.0926108
0.081385
0.0731818
36.0571
12.8529
5.76645
3.10211
1.89476
1.22669
0.8665
0.643985
0.492254
0.383972
0.305813
0.247946
0.20396
0.170008
0.143422
0.122328
0.105382
0.0916087
0.0803869
0.0721086
12.6882
8.1544
5.07113
3.20038
2.07939
1.39506
0.967831
0.692722
0.509638
0.384018
0.295507
0.231654
0.184602
0.149277
0.122313
0.101416
0.0850104
0.0719768
0.0615176
0.0531051
11.5726
7.56718
5.02065
3.38344
2.32103
1.62326
1.15828
0.843156
0.625691
0.47285
0.363486
0.283856
0.224911
0.180598
0.146803
0.120683
0.100247
0.0840777
0.071154
0.0607264
11.4757
7.50136
5.04297
3.47002
2.43665
1.74299
1.26863
0.938713
0.705585
0.538337
0.416595
0.326731
0.259503
0.208564
0.169495
0.139182
0.115409
0.0965712
0.0814853
0.0691629
11.4647
7.49683
5.0577
3.50272
2.48038
1.79068
1.31522
0.981305
0.742925
0.57021
0.443351
0.348969
0.27789
0.223739
0.182026
0.149554
0.124021
0.10375
0.0874856
0.0741741
11.4647
7.49683
5.0577
3.50272
2.48038
1.79068
1.31522
0.981305
0.742925
0.57021
0.443351
0.348969
0.277891
0.22374
0.182026
0.149554
0.124021
0.10375
0.0874856
0.0741736
11.4757
7.50136
5.04297
3.47002
2.43665
1.74299
1.26863
0.938712
0.705584
0.538336
0.416594
0.326729
0.259502
0.208562
0.169491
0.139178
0.115404
0.0965663
0.0814811
0.0691811
11.5726
7.56718
5.02065
3.38344
2.32103
1.62326
1.15828
0.843153
0.625688
0.472846
0.363481
0.28385
0.224904
0.180588
0.14679
0.120667
0.100229
0.0840565
0.0711284
0.0606885
12.6882
8.1544
5.07113
3.20038
2.07939
1.39506
0.967828
0.692718
0.509634
0.384013
0.2955
0.231645
0.184591
0.149262
0.12229
0.101391
0.0849796
0.0719403
0.0614748
0.0530426
36.0571
12.8529
5.76645
3.10211
1.89475
1.22669
0.866496
0.643979
0.492246
0.383961
0.305796
0.247923
0.203928
0.169961
0.143353
0.122227
0.10523
0.0913814
0.0800188
0.0712609
36.0571
12.8529
5.76645
3.10211
1.89475
1.22669
0.866496
0.643979
0.492246
0.383961
0.305796
0.247923
0.203928
0.169961
0.143353
0.122227
0.10523
0.0913814
0.0800188
0.0712609
12.6882
8.1544
5.07113
3.20038
2.07939
1.39506
0.967828
0.692718
0.509634
0.384013
0.2955
0.231645
0.18459
0.149261
0.122292
0.101392
0.0849802
0.0719406
0.061475
0.053043
11.5726
7.56718
5.02065
3.38344
2.32103
1.62326
1.15828
0.843153
0.625688
0.472846
0.363481
0.28385
0.224903
0.180588
0.146791
0.120668
0.100229
0.0840563
0.0711278
0.0606879
11.4757
7.50136
5.04297
3.47002
2.43665
1.74299
1.26863
0.938712
0.705584
0.538336
0.416594
0.326729
0.259501
0.208561
0.169492
0.139179
0.115405
0.0965664
0.0814811
0.0691813
11.4647
7.49683
5.0577
3.50272
2.48038
1.79068
1.31522
0.981305
0.742925
0.57021
0.443351
0.348969
0.27789
0.223739
0.182026
0.149554
0.124021
0.10375
0.0874859
0.0741743
11.4647
7.49683
5.0577
3.50272
2.48038
1.79068
1.31522
0.981305
0.742925
0.57021
0.443351
0.348969
0.277891
0.22374
0.182026
0.149554
0.124021
0.10375
0.087486
0.0741745
11.4757
7.50136
5.04297
3.47002
2.43665
1.74299
1.26863
0.938713
0.705585
0.538337
0.416595
0.326731
0.259504
0.208564
0.169494
0.139182
0.115409
0.0965715
0.0814858
0.069163
11.5726
7.56718
5.02065
3.38344
2.32103
1.62326
1.15828
0.843156
0.625691
0.47285
0.363486
0.283857
0.224912
0.180599
0.146802
0.120682
0.100247
0.0840782
0.0711549
0.0607272
12.6882
8.1544
5.07113
3.20038
2.07939
1.39506
0.967831
0.692722
0.509638
0.384018
0.295508
0.231654
0.184603
0.149279
0.12231
0.101415
0.0850098
0.0719764
0.0615173
0.0531044
36.0571
12.8529
5.76645
3.10211
1.89476
1.22669
0.866501
0.643985
0.492254
0.383972
0.305813
0.247946
0.203961
0.170008
0.143422
0.122328
0.105382
0.0916087
0.080387
0.0721086
38.7028
13.0541
5.74336
3.08733
1.88066
1.2275
0.86947
0.645375
0.492582
0.384769
0.307012
0.24903
0.204961
0.170967
0.144373
0.123291
0.106365
0.0926107
0.0813849
0.0731817
12.9054
8.33993
5.07879
3.15547
2.02775
1.3512
0.933536
0.666457
0.489545
0.368595
0.283605
0.222389
0.177332
0.143534
0.117754
0.0977804
0.0820984
0.0696373
0.0596217
0.0513916
11.6229
7.60535
5.0103
3.34209
2.26848
1.57142
1.11236
0.804588
0.594205
0.447518
0.343212
0.267636
0.211904
0.170127
0.138335
0.113799
0.0946212
0.0794558
0.0673371
0.057574
11.4933
7.5119
5.02843
3.434
2.3892
1.6928
1.22112
0.896488
0.669458
0.508125
0.39166
0.306291
0.242792
0.194899
0.158297
0.129975
0.107807
0.090268
0.0762466
0.0648887
11.4757
7.50136
5.04297
3.47002
2.43665
1.74299
1.26863
0.938713
0.705585
0.538337
0.416595
0.326731
0.259503
0.208564
0.169495
0.139183
0.115409
0.0965719
0.081486
0.0691631
11.4757
7.50136
5.04297
3.47002
2.43665
1.74299
1.26863
0.938712
0.705584
0.538336
0.416594
0.326729
0.259501
0.208562
0.169492
0.139179
0.115405
0.0965669
0.0814818
0.0691824
11.4933
7.5119
5.02843
3.434
2.3892
1.6928
1.22112
0.896488
0.669458
0.508125
0.39166
0.306291
0.242793
0.194899
0.158296
0.129975
0.107807
0.090268
0.0762468
0.0648896
11.6229
7.60535
5.01031
3.34209
2.26848
1.57142
1.11236
0.804592
0.59421
0.447524
0.343221
0.267647
0.211918
0.170145
0.138355
0.113824
0.0946524
0.0794938
0.0673831
0.0576481
12.9054
8.33993
5.07879
3.15547
2.02775
1.35121
0.933542
0.666464
0.489554
0.368606
0.28362
0.222409
0.177357
0.143568
0.117794
0.0978309
0.0821621
0.0697171
0.0597207
0.0515239
38.7028
13.0541
5.74336
3.08733
1.88066
1.2275
0.86948
0.645389
0.4926
0.384793
0.307048
0.24908
0.20503
0.171066
0.144515
0.123499
0.106674
0.0930746
0.0820397
0.0737392
45.0226
13.4729
5.73075
3.07322
1.86023
1.22699
0.873571
0.649774
0.497008
0.389473
0.311283
0.252972
0.208978
0.17522
0.148838
0.127922
0.111182
0.097667
0.0867572
0.0783578
13.6679
8.73671
5.07741
3.05388
1.92224
1.26609
0.869291
0.618633
0.453963
0.34204
0.263659
0.207324
0.165919
0.13487
0.111175
0.0927228
0.0782152
0.066673
0.0572291
0.0499552
11.8601
7.76395
4.99734
3.24076
2.1442
1.45499
1.01411
0.725639
0.532162
0.399157
0.305556
0.238236
0.188844
0.151941
0.12391
0.102286
0.0853818
0.0720031
0.0612872
0.0527204
11.6229
7.60535
5.01031
3.34209
2.26848
1.57142
1.11236
0.804592
0.59421
0.447524
0.34322
0.267647
0.211917
0.170144
0.138357
0.113825
0.0946531
0.0794943
0.0673833
0.0576482
11.5726
7.56718
5.02065
3.38344
2.32103
1.62326
1.15828
0.843156
0.625691
0.47285
0.363486
0.283857
0.224911
0.180598
0.146804
0.120684
0.100248
0.0840788
0.0711553
0.0607274
11.5726
7.56718
5.02065
3.38344
2.32103
1.62326
1.15828
0.843153
0.625688
0.472846
0.363481
0.28385
0.224903
0.180589
0.146791
0.120669
0.10023
0.0840572
0.0711289
0.0606892
11.6229
7.60535
5.0103
3.34209
2.26848
1.57142
1.11236
0.804588
0.594205
0.447518
0.343213
0.267637
0.211905
0.170128
0.138335
0.113799
0.0946213
0.0794561
0.0673377
0.0575752
11.8601
7.76395
4.99734
3.24076
2.1442
1.45499
1.01411
0.725639
0.532162
0.399157
0.305556
0.238236
0.188845
0.151942
0.123909
0.102285
0.0853813
0.072003
0.0612871
0.0527209
13.6679
8.73671
5.07741
3.05388
1.92224
1.2661
0.869295
0.618638
0.453969
0.342048
0.263669
0.207338
0.165938
0.134896
0.111204
0.0927599
0.0782604
0.066725
0.0572807
0.0502885
45.0226
13.4729
5.73075
3.07323
1.86023
1.227
0.873581
0.649787
0.497025
0.389503
0.311322
0.253025
0.20905
0.175322
0.148988
0.128142
0.111511
0.0981657
0.0875149
0.0793671
58.5856
14.5696
6.08947
3.33295
2.08217
1.40267
0.998656
0.740288
0.565914
0.443935
0.35604
0.290957
0.24146
0.203053
0.173194
0.149968
0.131586
0.117027
0.106005
0.0986534
16.5373
9.49239
5.01271
2.8606
1.75746
1.1476
0.786934
0.562054
0.415373
0.315956
0.246345
0.19624
0.159246
0.131289
0.109832
0.0932784
0.0802566
0.0697084
0.0608707
0.0568187
13.6679
8.73671
5.07741
3.05388
1.92224
1.2661
0.869295
0.618638
0.453969
0.342048
0.263669
0.207338
0.165937
0.134894
0.111207
0.0927612
0.0782609
0.0667251
0.0572818
0.050288
12.9054
8.33993
5.07879
3.15547
2.02775
1.35121
0.933542
0.666464
0.489554
0.368607
0.28362
0.222409
0.177357
0.143566
0.117797
0.0978324
0.0821629
0.0697176
0.059721
0.0515241
12.6882
8.1544
5.07113
3.20038
2.07939
1.39506
0.967831
0.692722
0.509638
0.384018
0.295507
0.231654
0.184602
0.149277
0.122313
0.101417
0.0850106
0.0719768
0.0615175
0.0531044
12.6882
8.1544
5.07113
3.20038
2.07939
1.39506
0.967828
0.692718
0.509634
0.384013
0.2955
0.231645
0.18459
0.149261
0.122293
0.101392
0.0849802
0.0719405
0.0614748
0.0530423
12.9054
8.33993
5.07879
3.15547
2.02775
1.3512
0.933536
0.666457
0.489545
0.368595
0.283605
0.22239
0.177332
0.143536
0.117753
0.0977798
0.082098
0.069637
0.0596214
0.051391
13.6679
8.73671
5.07741
3.05388
1.92224
1.26609
0.869291
0.618633
0.453963
0.34204
0.263659
0.207324
0.16592
0.134872
0.111173
0.0927218
0.0782146
0.0666724
0.0572286
0.0499548
16.5373
9.49239
5.01271
2.8606
1.75746
1.1476
0.786934
0.562054
0.415373
0.315956
0.246345
0.19624
0.159246
0.131291
0.109829
0.0932768
0.0802555
0.0697071
0.0608696
0.0568173
58.5856
14.5696
6.08947
3.33295
2.08218
1.40267
0.998658
0.740292
0.565919
0.443947
0.356058
0.290984
0.241503
0.203139
0.17331
0.15014
0.131868
0.117525
0.10691
0.0999465
90.5034
12.1248
4.3887
2.46659
1.63316
1.18307
0.902014
0.720684
0.594586
0.502534
0.43271
0.379336
0.336394
0.30006
0.270488
0.246612
0.2273
0.212033
0.20347
0.194934
58.5856
14.5696
6.08947
3.33295
2.08218
1.40267
0.998658
0.740292
0.565919
0.443947
0.356058
0.290984
0.241503
0.20314
0.173311
0.15014
0.131869
0.117525
0.10691
0.0999469
45.0226
13.4729
5.73075
3.07323
1.86023
1.227
0.873581
0.649787
0.497025
0.389503
0.311322
0.253025
0.209051
0.175322
0.148988
0.128142
0.111511
0.0981659
0.087515
0.0793674
38.7028
13.0541
5.74336
3.08733
1.88066
1.2275
0.86948
0.645389
0.4926
0.384793
0.307048
0.24908
0.20503
0.171066
0.144515
0.123499
0.106674
0.0930747
0.0820398
0.0737393
36.0571
12.8529
5.76645
3.10211
1.89476
1.22669
0.866501
0.643985
0.492254
0.383972
0.305813
0.247946
0.203961
0.170008
0.143422
0.122328
0.105382
0.0916087
0.0803869
0.0721084
36.0571
12.8529
5.76645
3.10211
1.89475
1.22669
0.866496
0.643979
0.492246
0.383961
0.305796
0.247923
0.203928
0.169961
0.143354
0.122227
0.10523
0.0913811
0.0800185
0.0712606
38.7028
13.0541
5.74336
3.08733
1.88066
1.2275
0.86947
0.645375
0.492582
0.384769
0.307012
0.24903
0.204961
0.170967
0.144373
0.123291
0.106365
0.0926105
0.0813846
0.0731814
45.0226
13.4729
5.73075
3.07322
1.86023
1.22699
0.873571
0.649774
0.497008
0.389473
0.311283
0.252972
0.208978
0.17522
0.148838
0.127922
0.111182
0.0976668
0.0867571
0.0783576
58.5856
14.5696
6.08947
3.33295
2.08217
1.40267
0.998656
0.740288
0.565914
0.443935
0.35604
0.290957
0.24146
0.203053
0.173193
0.149967
0.131585
0.117027
0.106005
0.098653
90.5034
12.1248
4.3887
2.46659
1.63316
1.18307
0.902014
0.720684
0.594586
0.502533
0.43271
0.379336
0.336394
0.300059
0.270486
0.246611
0.227299
0.212032
0.203469
0.194932
0.383045
0.301212
0.237504
0.202915
0.183574
0.17215
0.164231
0.158319
0.153803
0.15024
0.147228
0.144783
0.142784
0.141036
0.139532
0.13824
0.137138
0.13623
0.135487
0.134875
0.134369
0.133969
0.133665
0.133432
0.133209
0.132986
0.132774
0.132603
0.132497
0.132437
0.132379
0.132303
0.132221
0.132168
0.132161
0.132152
0.132167
0.132153
0.13212
0.132058
0.141317
0.116207
0.0978404
0.0855205
0.0776649
0.0723384
0.0683931
0.065209
0.0625902
0.06044
0.0586224
0.0572361
0.0561716
0.0551843
0.0543057
0.0535993
0.052999
0.0525081
0.0521139
0.0517956
0.0515337
0.0513235
0.0511526
0.0510088
0.0508751
0.050758
0.0506601
0.0505849
0.0505293
0.0504864
0.0504447
0.0504098
0.0503862
0.0503716
0.0503674
0.0503638
0.0503575
0.0503537
0.0503549
0.050356
0.095022
0.0812634
0.0712615
0.0633338
0.0581658
0.0539994
0.05055
0.0477738
0.0455245
0.0436785
0.0421679
0.0408999
0.0398569
0.0389901
0.038258
0.037647
0.0371406
0.0367215
0.0363752
0.0360908
0.0358574
0.0356681
0.0355099
0.0353731
0.0352464
0.0351437
0.0350627
0.0350018
0.0349539
0.0349143
0.0348726
0.0348434
0.0348274
0.034825
0.034835
0.0348244
0.0348181
0.0348134
0.0348128
0.0348159
0.073294
0.0658852
0.0596378
0.0544521
0.0501581
0.0465591
0.0435397
0.0410034
0.0388726
0.0370827
0.0355799
0.0343189
0.0332593
0.0323681
0.0316261
0.0310095
0.0304978
0.0300756
0.0297264
0.0294395
0.029203
0.0290097
0.0288467
0.028706
0.0285785
0.0284761
0.0283964
0.0283362
0.0282882
0.0282486
0.0282075
0.0281793
0.0281642
0.0281577
0.0281589
0.0281624
0.028155
0.0281518
0.028152
0.0281551
0.0688945
0.0609965
0.0548513
0.0499358
0.0459309
0.0426564
0.0399045
0.0375615
0.0355659
0.0338681
0.0324258
0.0312013
0.0301617
0.0292811
0.0285436
0.0279285
0.0274176
0.0269947
0.0266454
0.0263565
0.0261177
0.0259203
0.0257548
0.0256125
0.0254829
0.0253798
0.0253
0.0252392
0.0251905
0.0251508
0.0251104
0.0250827
0.0250674
0.0250606
0.0250602
0.0250677
0.0250614
0.0250603
0.0250597
0.025061
0.0713581
0.0606897
0.0537811
0.0485649
0.0444539
0.041158
0.0384622
0.0361744
0.0342245
0.032563
0.0311489
0.0299456
0.0289213
0.0280548
0.0273299
0.0267259
0.0262246
0.0258099
0.0254676
0.0251846
0.0249505
0.0247567
0.0245927
0.0244505
0.0243233
0.0242219
0.0241431
0.0240827
0.0240336
0.0239929
0.0239523
0.0239248
0.023909
0.0239016
0.0238974
0.0239072
0.0239178
0.0239096
0.0239047
0.0239038
0.0717769
0.0607037
0.0539732
0.04884
0.0447798
0.0415063
0.0387848
0.036472
0.0345088
0.0328451
0.031438
0.0302481
0.0292409
0.0283919
0.0276835
0.0270947
0.0266071
0.0262042
0.0258718
0.0255966
0.02537
0.025183
0.0250227
0.0248816
0.0247557
0.0246549
0.0245765
0.0245169
0.0244677
0.0244253
0.0243837
0.0243555
0.0243405
0.0243316
0.0243286
0.0243408
0.0243479
0.0243395
0.024331
0.0243329
0.0712506
0.0629207
0.0564175
0.0512608
0.0471308
0.0437363
0.0409112
0.0385546
0.0365842
0.0349328
0.0335458
0.0323759
0.0313878
0.0305563
0.0298653
0.0292922
0.0288212
0.02843
0.0281078
0.0278409
0.0276229
0.0274438
0.027289
0.0271495
0.0270237
0.0269231
0.0268456
0.026788
0.0267393
0.0266955
0.0266524
0.0266235
0.0266078
0.0266032
0.0266021
0.0266068
0.0266131
0.0266082
0.0266029
0.0266015
0.0833661
0.0727741
0.064553
0.0581781
0.0533318
0.049561
0.0465523
0.0441257
0.0421343
0.0404854
0.0391149
0.0379681
0.0369942
0.036174
0.0354831
0.0349117
0.0344416
0.0340524
0.0337305
0.0334663
0.0332497
0.0330737
0.0329224
0.0327857
0.0326597
0.0325579
0.0324788
0.0324202
0.0323718
0.0323276
0.0322834
0.0322525
0.0322364
0.0322302
0.0322282
0.0322351
0.0322384
0.0322266
0.0322171
0.0322135
0.133993
0.111116
0.0922629
0.0800986
0.0724634
0.0675619
0.0640838
0.0613331
0.0591168
0.0573339
0.0558531
0.0545733
0.0535
0.0525888
0.0517828
0.0510739
0.0504917
0.0499874
0.0495604
0.0492103
0.0489298
0.0487202
0.0485522
0.048407
0.0482715
0.0481515
0.0480498
0.0479716
0.0479152
0.0478689
0.0478236
0.0477838
0.047756
0.0477393
0.0477334
0.0477416
0.0477312
0.047713
0.047698
0.0476885
0.383047
0.301214
0.23751
0.202916
0.183578
0.172163
0.164256
0.158354
0.153846
0.150275
0.147278
0.144834
0.142808
0.141048
0.139534
0.138242
0.137149
0.136252
0.13552
0.134916
0.134415
0.13402
0.133722
0.13349
0.133269
0.133042
0.132824
0.132649
0.132542
0.132481
0.132416
0.132333
0.132248
0.13219
0.132171
0.1322
0.132203
0.132149
0.132085
0.131995
0.133992
0.111114
0.0922597
0.0800986
0.0724601
0.0675522
0.0640667
0.0613116
0.0590908
0.0573087
0.0558226
0.054548
0.0534919
0.0525891
0.0517874
0.0510766
0.0504904
0.0499811
0.0495489
0.0491927
0.0489117
0.0487001
0.0485317
0.0483897
0.048255
0.0481354
0.0480347
0.0479579
0.0479019
0.047858
0.0478149
0.0477778
0.0477517
0.0477348
0.0477446
0.0477409
0.047721
0.0477114
0.0477102
0.0477071
0.0638903
0.0556733
0.0474012
0.0408547
0.0368043
0.0338899
0.0316849
0.029915
0.02844
0.0272131
0.026144
0.0251387
0.0247355
0.0239847
0.0233972
0.022956
0.0225701
0.0222513
0.0219999
0.0217812
0.0216106
0.0214869
0.0211902
0.0216001
0.021267
0.0212095
0.0210962
0.0210162
0.0208989
0.0213504
0.0211096
0.0209435
0.0209336
0.0209894
0.0214408
0.0211292
0.0209458
0.0208916
0.0208674
0.0208665
0.0551406
0.0451041
0.0379885
0.0328553
0.0296557
0.0270397
0.0249154
0.0231987
0.0216623
0.0205437
0.0192393
0.0184745
0.0177557
0.0172087
0.0165204
0.0161933
0.0157373
0.0153997
0.0151834
0.0149138
0.0147846
0.0146053
0.0143832
0.0146816
0.0145358
0.0144268
0.0143545
0.0141887
0.0141617
0.0144965
0.0143347
0.0142287
0.0142005
0.0140878
0.0141685
0.0144672
0.0143054
0.0141872
0.0141789
0.0140658
0.0480749
0.041489
0.0361585
0.0318238
0.0279139
0.0252331
0.0231737
0.0214032
0.0198828
0.0185838
0.0174792
0.0165843
0.0159276
0.0151706
0.0145392
0.0140337
0.0136256
0.013183
0.0129895
0.0126396
0.012534
0.0123341
0.0120393
0.012397
0.0122388
0.0120762
0.0120113
0.0118587
0.0119462
0.0122191
0.012025
0.0118944
0.0118436
0.0117325
0.0118553
0.0121566
0.0119764
0.0118859
0.011842
0.0117103
0.0458552
0.0402961
0.0355269
0.0314945
0.0280891
0.0250128
0.0224547
0.0207326
0.0192223
0.0179074
0.0167779
0.0158615
0.0151929
0.0144081
0.0137655
0.0132322
0.0127867
0.0124161
0.0121089
0.0118545
0.0116278
0.0114913
0.0113673
0.0115418
0.0113069
0.0111555
0.0110333
0.0109658
0.0110023
0.0112416
0.0110485
0.0109394
0.0108455
0.0108211
0.0108953
0.0111742
0.0110014
0.0109071
0.0108443
0.0108026
0.0465638
0.0406108
0.0356327
0.0314845
0.028026
0.0251199
0.0223368
0.0203798
0.018931
0.0176354
0.0165048
0.015582
0.0148936
0.0141042
0.0134575
0.01292
0.0124711
0.0120966
0.011785
0.0115265
0.0113153
0.0111597
0.0110779
0.0112215
0.0109871
0.0108318
0.0107217
0.0106436
0.0106849
0.0109244
0.0107306
0.0106163
0.010546
0.0105031
0.0105798
0.010861
0.0106863
0.0105875
0.0105272
0.010482
0.0465628
0.0404845
0.0354388
0.031261
0.0277748
0.024789
0.0221254
0.0203815
0.0189192
0.0176334
0.0165302
0.0156398
0.0149691
0.0141891
0.0135573
0.0130363
0.0125992
0.0122409
0.0119365
0.0117013
0.0114584
0.011344
0.0112355
0.0114629
0.011234
0.0110867
0.0109725
0.0109047
0.0109522
0.0111949
0.0110024
0.0108918
0.0108346
0.0107146
0.0108385
0.0111644
0.0109741
0.0108505
0.010806
0.0107292
0.0468107
0.0404649
0.0352296
0.0309187
0.0272357
0.0243086
0.0223884
0.0207137
0.019277
0.0180495
0.0170106
0.0162064
0.0155657
0.0148141
0.0142192
0.0137555
0.0132769
0.0130185
0.0126186
0.0124968
0.0122135
0.0121457
0.0120526
0.0123085
0.0120886
0.0119166
0.011843
0.0116823
0.0117877
0.0120619
0.0118705
0.0117226
0.0116839
0.0115505
0.0115372
0.0117303
0.0119721
0.0117965
0.0117265
0.0115633
0.0533218
0.0434671
0.036919
0.0316352
0.0283033
0.0259554
0.0239858
0.0223414
0.0209839
0.0198252
0.0188144
0.0180696
0.0173652
0.0165574
0.0161727
0.0156305
0.0153488
0.014982
0.0147339
0.014514
0.0143375
0.0142215
0.0139461
0.0143516
0.0141744
0.0140488
0.0139173
0.0138074
0.0139075
0.0142123
0.014004
0.0138395
0.0137877
0.0136877
0.013763
0.0138518
0.0141489
0.0138373
0.0138165
0.0137212
0.0638885
0.0556742
0.0473986
0.0408794
0.0367485
0.0338753
0.0316845
0.0299194
0.0284476
0.027233
0.0260373
0.0254972
0.0245793
0.0239361
0.0233784
0.0229476
0.0225562
0.0222544
0.0219884
0.0217843
0.0216056
0.0214904
0.0211878
0.0216237
0.021274
0.0212103
0.0210889
0.0210008
0.0210334
0.021459
0.0210648
0.0210165
0.0209132
0.0208693
0.0209218
0.0207832
0.0212048
0.0210452
0.0209451
0.0208589
0.141316
0.116207
0.0978394
0.0855189
0.077666
0.0723441
0.068403
0.0652216
0.0626067
0.0604558
0.0586428
0.057253
0.0561768
0.0551781
0.054301
0.053597
0.0530016
0.0525165
0.0521282
0.0518155
0.0515584
0.051352
0.0511835
0.0510371
0.050905
0.0507887
0.0506904
0.0506142
0.0505578
0.0505116
0.050468
0.05043
0.0504029
0.0503854
0.0503811
0.0503856
0.0503757
0.0503558
0.0503404
0.0503359
0.0833648
0.0727711
0.0645508
0.0581764
0.0533241
0.0495485
0.0465355
0.0441058
0.0421126
0.0404621
0.0390916
0.0379475
0.0369893
0.0361725
0.0354844
0.0349136
0.0344419
0.0340511
0.0337273
0.0334618
0.0332439
0.0330678
0.0329208
0.0327904
0.0326679
0.0325677
0.0324882
0.0324293
0.0323841
0.0323441
0.032302
0.0322707
0.0322514
0.0322426
0.0322408
0.0322603
0.0322573
0.0322366
0.0322269
0.032225
0.0533234
0.0434722
0.0369091
0.0316782
0.0283166
0.0259522
0.0239749
0.0223241
0.020959
0.0198227
0.0187471
0.0179291
0.017282
0.0166923
0.0160701
0.0156177
0.01532
0.0149398
0.014723
0.0144848
0.0143141
0.0141955
0.0138984
0.0143507
0.0140881
0.0139653
0.0139071
0.0137827
0.0138784
0.0141988
0.0139953
0.0137688
0.0137888
0.0136861
0.0137253
0.0141019
0.0139479
0.013739
0.0137307
0.0136529
0.04672
0.0404587
0.0350487
0.030541
0.0269349
0.0240532
0.0217157
0.0197955
0.0181964
0.0168588
0.0157243
0.014722
0.0139898
0.0133303
0.0128391
0.0123695
0.0119142
0.0115242
0.0112308
0.0109933
0.0107953
0.0106346
0.0104221
0.0107984
0.0106542
0.0105247
0.0103305
0.0102898
0.0103045
0.0105943
0.010458
0.0102687
0.0102578
0.0101535
0.0102104
0.0105599
0.010436
0.0102531
0.0102504
0.0101277
0.0480775
0.0417561
0.0364317
0.0319619
0.0281974
0.0250905
0.0225098
0.0203492
0.018531
0.0169936
0.0156929
0.014557
0.0137879
0.0129354
0.012246
0.0116647
0.0111083
0.0107461
0.0104804
0.0102394
0.0100399
0.00981716
0.00975962
0.00999118
0.00978275
0.00961618
0.00947396
0.00937612
0.00946043
0.00969736
0.00952661
0.00942399
0.0093186
0.00923083
0.00937101
0.00965906
0.00950241
0.00940675
0.00933561
0.00920957
0.0499708
0.0433112
0.0377903
0.033182
0.0293141
0.0260428
0.0232839
0.0209851
0.019048
0.017404
0.0160059
0.0148012
0.0139861
0.0130815
0.0123308
0.0116963
0.0111577
0.0107017
0.010308
0.0099844
0.00982774
0.00968674
0.00962366
0.00978653
0.00956038
0.00939045
0.00926111
0.00917586
0.00923254
0.00945115
0.00927655
0.00915457
0.00907272
0.00900633
0.00912708
0.00939587
0.00923976
0.00913684
0.00905553
0.00899596
0.0504499
0.0438021
0.0382553
0.0336056
0.029693
0.0263851
0.0235643
0.0211994
0.0192168
0.0175386
0.0161118
0.014888
0.0140431
0.013124
0.0123602
0.0117179
0.0111725
0.0107037
0.0103118
0.00996121
0.00972633
0.00962603
0.00957622
0.00974061
0.00951485
0.00934373
0.00921289
0.00913095
0.00918793
0.00940472
0.00922828
0.00910582
0.00902382
0.00898921
0.00909475
0.00935375
0.0091962
0.00908913
0.00900621
0.00894268
0.049642
0.0431133
0.0376412
0.0330478
0.0291825
0.0259219
0.0231669
0.0208666
0.0189316
0.0172986
0.0159153
0.0147323
0.0139058
0.0130015
0.0122589
0.0116332
0.0110941
0.0106381
0.0102582
0.00991453
0.00976827
0.00962857
0.00956813
0.00976186
0.00955114
0.00939405
0.00927239
0.00918889
0.00925337
0.00947406
0.00930437
0.00918983
0.00910704
0.00907755
0.00922179
0.0094565
0.0092936
0.00917599
0.00908454
0.00900061
0.0478
0.0414501
0.0361246
0.0316516
0.0279161
0.0248128
0.0222564
0.0201305
0.0183532
0.0168555
0.0155774
0.0145048
0.0137316
0.0128875
0.0122089
0.0116412
0.0111172
0.0107021
0.0104651
0.0102431