/*--------------------------------*- C++ -*----------------------------------*\
| =========                 |                                                 |
| \\      /  F ield         | OpenFOAM: The Open Source CFD Toolbox           |
|  \\    /   O peration     | Version:  2212                                  |
|   \\  /    A nd           | Website:  www.openfoam.com                      |
|    \\/     M anipulation  |                                                 |
\*---------------------------------------------------------------------------*/
FoamFile
{
    version     2.0;
    format      ascii;
    arch        "LSB;label=32;scalar=64";
    class       volScalarField;
    location    "0.7";
    object      k;
}
// * * * * * * * * * * * * * * * * * * * * * * * * * * * * * * * * * * * * * //

dimensions      [0 2 -2 0 0 0 0];

internalField   nonuniform List<scalar> 
6840
(
0.213564
0.055916
0.0283994
0.0193412
0.0146928
0.0118512
0.00989071
0.00851624
0.00749144
0.00669666
0.00606111
0.00555182
0.00512449
0.00474837
0.00443095
0.00416608
0.00394535
0.00376664
0.00366367
0.00356386
0.264759
0.104702
0.0585298
0.0391631
0.02862
0.0219935
0.0175362
0.0143634
0.0120085
0.0102142
0.008817
0.00770676
0.00680577
0.00606335
0.00545318
0.00495387
0.00454011
0.00419841
0.00393122
0.0037505
0.283364
0.126774
0.071702
0.0473282
0.0338663
0.0256616
0.0204608
0.016797
0.0140486
0.011941
0.0102839
0.00895577
0.00788471
0.00701084
0.00628802
0.00568402
0.00517652
0.00474793
0.00438738
0.00409885
0.292299
0.141633
0.0819301
0.0541653
0.038923
0.0292873
0.0232721
0.0190784
0.0159338
0.0135145
0.0116261
0.0101118
0.00888053
0.00786912
0.00703014
0.00632769
0.00573415
0.00522819
0.00479624
0.00446638
0.295943
0.148782
0.0871941
0.0576749
0.0415193
0.0310721
0.0246448
0.0202207
0.0169045
0.0143242
0.0123074
0.0107008
0.00939402
0.00831933
0.00742638
0.00667709
0.00604216
0.00549883
0.00503203
0.00465901
0.295943
0.148782
0.0871941
0.0576749
0.0415193
0.0310721
0.0246449
0.0202208
0.0169047
0.0143245
0.0123078
0.0107014
0.0093949
0.00832067
0.00742844
0.00668032
0.00604722
0.00550676
0.00504523
0.00468851
0.292299
0.141633
0.0819301
0.0541654
0.0389231
0.0292874
0.0232723
0.0190786
0.0159341
0.013515
0.0116269
0.010113
0.00888226
0.00787174
0.00703415
0.00633388
0.0057438
0.00524338
0.00481872
0.00448856
0.283364
0.126774
0.071702
0.0473282
0.0338663
0.0256617
0.0204609
0.0167972
0.0140489
0.0119416
0.0102847
0.00895686
0.0078863
0.00701319
0.00629167
0.00568965
0.00518532
0.00476185
0.00440919
0.00413139
0.264759
0.104702
0.0585298
0.0391631
0.02862
0.0219935
0.0175362
0.0143635
0.0120086
0.0102143
0.00881726
0.00770719
0.00680648
0.00606485
0.00545532
0.00495715
0.00454566
0.00420848
0.00394997
0.0037761
0.213564
0.055916
0.0283994
0.0193412
0.0146928
0.0118512
0.00989071
0.00851625
0.00749145
0.00669667
0.00606111
0.00555182
0.00512449
0.00474838
0.00443097
0.0041661
0.00394538
0.00376667
0.00366372
0.00356393
0.264759
0.104702
0.0585298
0.0391631
0.02862
0.0219935
0.0175362
0.0143635
0.0120086
0.0102143
0.00881725
0.00770718
0.00680647
0.00606484
0.00545531
0.00495713
0.00454564
0.00420844
0.00394993
0.00377605
0.311746
0.197541
0.130357
0.0911457
0.0668023
0.0508112
0.0397946
0.0319124
0.0260946
0.0216879
0.0182775
0.01559
0.0134432
0.0117015
0.0102722
0.00908721
0.0080955
0.00726262
0.00656884
0.00589347
0.31754
0.217754
0.151085
0.108549
0.0807155
0.0618725
0.0486772
0.0391416
0.0320585
0.0266713
0.0224898
0.019187
0.0165387
0.0143866
0.0126174
0.0111493
0.00992002
0.0088824
0.0080031
0.00724936
0.319723
0.227073
0.162232
0.118772
0.0893609
0.0689926
0.0545303
0.0439841
0.0360993
0.0300741
0.0253812
0.021664
0.0186762
0.0162432
0.0142393
0.0125716
0.0111706
0.0099834
0.00896876
0.00808763
0.320484
0.23086
0.167176
0.123531
0.0935157
0.0724822
0.0574403
0.0464208
0.0381531
0.0318163
0.0268697
0.0229451
0.0197859
0.01721
0.0150857
0.0133156
0.0118264
0.0105619
0.00947857
0.0085365
0.320484
0.23086
0.167176
0.123531
0.0935158
0.0724823
0.0574405
0.046421
0.0381534
0.0318168
0.0268703
0.022946
0.0197873
0.017212
0.0150886
0.0133198
0.0118325
0.0105709
0.00949138
0.00855873
0.319723
0.227073
0.162232
0.118772
0.0893611
0.0689928
0.0545306
0.0439845
0.0360999
0.0300749
0.0253825
0.0216659
0.0186788
0.0162471
0.0142449
0.0125798
0.0111828
0.0100012
0.00899463
0.00813599
0.31754
0.217754
0.151086
0.108549
0.0807156
0.0618727
0.0486775
0.0391419
0.0320589
0.026672
0.0224908
0.0191884
0.0165407
0.0143895
0.0126215
0.0111552
0.00992881
0.00889574
0.0080242
0.00727767
0.311746
0.197541
0.130357
0.0911457
0.0668023
0.0508112
0.0397946
0.0319124
0.0260946
0.0216879
0.0182775
0.01559
0.0134432
0.0117015
0.0102723
0.00908724
0.00809553
0.00726267
0.00656889
0.00589352
0.264759
0.104702
0.0585298
0.0391631
0.02862
0.0219935
0.0175362
0.0143634
0.0120085
0.0102142
0.008817
0.00770677
0.00680578
0.00606335
0.00545319
0.00495389
0.00454013
0.00419845
0.00393126
0.00375055
0.283364
0.126774
0.071702
0.0473282
0.0338663
0.0256617
0.0204609
0.0167972
0.0140489
0.0119416
0.0102847
0.00895685
0.00788629
0.00701318
0.00629166
0.00568964
0.0051853
0.00476183
0.00440917
0.00413135
0.31754
0.217754
0.151086
0.108549
0.0807156
0.0618727
0.0486775
0.0391419
0.0320589
0.026672
0.0224908
0.0191884
0.0165407
0.0143895
0.0126215
0.0111552
0.00992879
0.00889572
0.00802416
0.00727765
0.322005
0.239026
0.177588
0.133616
0.102323
0.079867
0.0635106
0.0513822
0.0422219
0.0351798
0.0296763
0.0253103
0.0217996
0.018942
0.0165903
0.014636
0.0129975
0.0116128
0.0104304
0.00937531
0.323293
0.245617
0.187499
0.144537
0.112864
0.0894039
0.0718632
0.0585864
0.0483995
0.0404743
0.0342248
0.0292335
0.0251996
0.0219035
0.0191832
0.0169173
0.0150137
0.0134012
0.0120217
0.0108135
0.323714
0.247819
0.191099
0.14881
0.117249
0.0935706
0.0756572
0.0619604
0.0513625
0.0430609
0.0364789
0.0311991
0.0269173
0.0234091
0.0205074
0.0180861
0.0160489
0.0143207
0.0128396
0.0115414
0.323714
0.247819
0.191099
0.14881
0.117249
0.0935707
0.0756573
0.0619605
0.0513627
0.0430612
0.0364792
0.0311996
0.026918
0.0234101
0.0205088
0.018088
0.0160515
0.014324
0.0128432
0.0115403
0.323293
0.245617
0.187499
0.144537
0.112864
0.089404
0.0718634
0.0585866
0.0483998
0.0404747
0.0342254
0.0292343
0.0252008
0.0219052
0.0191855
0.0169205
0.0150181
0.0134075
0.0120308
0.0108307
0.322005
0.239026
0.177588
0.133616
0.102323
0.079867
0.0635106
0.0513822
0.0422219
0.0351798
0.0296764
0.0253104
0.0217996
0.018942
0.0165903
0.014636
0.0129975
0.0116128
0.0104304
0.00937525
0.31754
0.217754
0.151085
0.108549
0.0807155
0.0618725
0.0486772
0.0391416
0.0320585
0.0266713
0.0224899
0.0191871
0.0165387
0.0143866
0.0126174
0.0111493
0.00992004
0.00888243
0.00800314
0.00724938
0.283364
0.126774
0.071702
0.0473282
0.0338663
0.0256616
0.0204608
0.016797
0.0140486
0.011941
0.010284
0.00895578
0.00788472
0.00701085
0.00628802
0.00568403
0.00517653
0.00474795
0.00438741
0.00409889
0.292299
0.141633
0.0819301
0.0541654
0.0389231
0.0292874
0.0232723
0.0190786
0.0159341
0.013515
0.0116269
0.010113
0.00888225
0.00787173
0.00703414
0.00633387
0.00574379
0.00524336
0.0048187
0.00448854
0.319723
0.227073
0.162232
0.118772
0.0893611
0.0689928
0.0545306
0.0439845
0.0360998
0.0300749
0.0253825
0.0216659
0.0186788
0.0162471
0.0142449
0.0125798
0.0111827
0.0100012
0.00899462
0.00813598
0.323293
0.245617
0.187499
0.144537
0.112864
0.089404
0.0718634
0.0585866
0.0483998
0.0404747
0.0342254
0.0292343
0.0252007
0.0219052
0.0191855
0.0169205
0.0150182
0.0134075
0.0120308
0.0108307
0.324288
0.250862
0.19613
0.154888
0.123591
0.09968
0.0812742
0.0669839
0.055785
0.0469226
0.0398399
0.0341243
0.0294685
0.0256417
0.0224694
0.0198186
0.0175864
0.0156917
0.014066
0.012636
0.32459
0.252403
0.19891
0.158543
0.12769
0.103871
0.08532
0.0707499
0.0592099
0.0499927
0.0425685
0.0365385
0.0316009
0.0275257
0.0241365
0.021297
0.0189011
0.0168634
0.0151101
0.0135554
0.32459
0.252403
0.19891
0.158543
0.12769
0.103871
0.0853201
0.0707499
0.05921
0.0499928
0.0425686
0.0365387
0.0316011
0.0275259
0.0241368
0.0212975
0.0189016
0.0168638
0.0151087
0.0135424
0.324288
0.250862
0.19613
0.154888
0.123591
0.09968
0.0812742
0.0669839
0.055785
0.0469226
0.03984
0.0341244
0.0294685
0.0256417
0.0224694
0.0198186
0.0175864
0.0156917
0.014066
0.0126358
0.323293
0.245617
0.187499
0.144537
0.112864
0.0894039
0.0718632
0.0585864
0.0483995
0.0404743
0.0342248
0.0292335
0.0251996
0.0219036
0.0191832
0.0169173
0.0150137
0.0134012
0.0120216
0.0108133
0.319723
0.227073
0.162232
0.118772
0.0893609
0.0689926
0.0545303
0.0439841
0.0360993
0.0300741
0.0253813
0.0216641
0.0186762
0.0162433
0.0142393
0.0125716
0.0111706
0.00998341
0.00896877
0.0080876
0.292299
0.141633
0.0819301
0.0541653
0.038923
0.0292873
0.0232721
0.0190784
0.0159338
0.0135145
0.0116261
0.0101118
0.00888054
0.00786913
0.00703015
0.0063277
0.00573416
0.0052282
0.00479626
0.00446639
0.295943
0.148782
0.0871941
0.0576749
0.0415193
0.0310721
0.0246449
0.0202208
0.0169047
0.0143245
0.0123078
0.0107014
0.00939489
0.00832066
0.00742844
0.00668031
0.00604722
0.00550675
0.00504523
0.00468851
0.320484
0.23086
0.167176
0.123531
0.0935158
0.0724823
0.0574405
0.046421
0.0381534
0.0318168
0.0268703
0.022946
0.0197872
0.017212
0.0150886
0.0133198
0.0118325
0.0105709
0.00949138
0.00855872
0.323714
0.247819
0.191099
0.14881
0.117249
0.0935707
0.0756573
0.0619605
0.0513627
0.0430612
0.0364792
0.0311996
0.026918
0.0234101
0.0205088
0.018088
0.0160515
0.014324
0.0128432
0.0115403
0.32459
0.252403
0.19891
0.158543
0.12769
0.103871
0.0853201
0.0707499
0.05921
0.0499928
0.0425686
0.0365387
0.0316011
0.0275259
0.0241368
0.0212975
0.0189016
0.0168638
0.0151088
0.0135425
0.324844
0.253685
0.20131
0.161836
0.131535
0.107943
0.0893701
0.0746126
0.0627921
0.0532536
0.0455016
0.0391577
0.0339309
0.0295955
0.0259757
0.0229339
0.020361
0.0181685
0.0162778
0.0145989
0.324844
0.253685
0.20131
0.161836
0.131535
0.107943
0.0893701
0.0746126
0.0627921
0.0532536
0.0455016
0.0391577
0.0339309
0.0295955
0.0259757
0.0229339
0.020361
0.0181685
0.0162778
0.0145989
0.32459
0.252403
0.19891
0.158543
0.12769
0.103871
0.08532
0.0707499
0.0592099
0.0499927
0.0425685
0.0365385
0.0316009
0.0275257
0.0241364
0.021297
0.018901
0.0168634
0.0151101
0.0135553
0.323714
0.247819
0.191099
0.14881
0.117249
0.0935706
0.0756572
0.0619604
0.0513625
0.0430609
0.0364789
0.0311991
0.0269173
0.0234091
0.0205074
0.0180861
0.0160489
0.0143206
0.0128395
0.0115413
0.320484
0.23086
0.167176
0.123531
0.0935157
0.0724822
0.0574403
0.0464208
0.0381531
0.0318163
0.0268697
0.0229451
0.0197859
0.01721
0.0150857
0.0133156
0.0118264
0.0105619
0.00947857
0.00853645
0.295943
0.148782
0.0871941
0.0576749
0.0415193
0.0310721
0.0246448
0.0202207
0.0169045
0.0143242
0.0123074
0.0107009
0.00939403
0.00831934
0.00742638
0.00667709
0.00604216
0.00549883
0.00503203
0.00465901
0.295943
0.148782
0.0871941
0.0576749
0.0415193
0.0310721
0.0246448
0.0202207
0.0169045
0.0143242
0.0123074
0.0107008
0.00939403
0.00831934
0.00742638
0.00667709
0.00604217
0.00549883
0.00503203
0.00465901
0.320484
0.23086
0.167176
0.123531
0.0935157
0.0724822
0.0574403
0.0464208
0.0381531
0.0318163
0.0268697
0.0229451
0.0197859
0.01721
0.0150857
0.0133156
0.0118264
0.010562
0.00947858
0.00853648
0.323714
0.247819
0.191099
0.14881
0.117249
0.0935706
0.0756572
0.0619604
0.0513625
0.0430609
0.0364789
0.0311991
0.0269173
0.0234091
0.0205074
0.0180861
0.0160489
0.0143207
0.0128396
0.0115414
0.32459
0.252403
0.19891
0.158543
0.12769
0.103871
0.08532
0.0707499
0.0592099
0.0499927
0.0425685
0.0365385
0.0316009
0.0275257
0.0241365
0.021297
0.0189011
0.0168634
0.0151101
0.0135554
0.324844
0.253685
0.20131
0.161836
0.131535
0.107943
0.0893701
0.0746126
0.0627921
0.0532536
0.0455016
0.0391577
0.0339309
0.0295955
0.0259757
0.0229339
0.020361
0.0181685
0.0162778
0.0145989
0.324844
0.253685
0.20131
0.161836
0.131535
0.107943
0.0893701
0.0746126
0.0627921
0.0532536
0.0455016
0.0391577
0.0339309
0.0295955
0.0259757
0.0229339
0.020361
0.0181685
0.0162778
0.0145989
0.32459
0.252403
0.19891
0.158543
0.12769
0.103871
0.0853201
0.0707499
0.05921
0.0499928
0.0425686
0.0365387
0.0316011
0.0275259
0.0241368
0.0212975
0.0189016
0.0168638
0.0151087
0.0135424
0.323714
0.247819
0.191099
0.14881
0.117249
0.0935707
0.0756573
0.0619605
0.0513627
0.0430612
0.0364792
0.0311996
0.026918
0.0234101
0.0205088
0.018088
0.0160514
0.014324
0.0128432
0.0115402
0.320484
0.23086
0.167176
0.123531
0.0935158
0.0724823
0.0574405
0.046421
0.0381534
0.0318168
0.0268704
0.022946
0.0197873
0.017212
0.0150886
0.0133198
0.0118325
0.0105709
0.00949137
0.0085587
0.295943
0.148782
0.0871941
0.0576749
0.0415193
0.0310721
0.0246449
0.0202208
0.0169047
0.0143245
0.0123078
0.0107014
0.0093949
0.00832067
0.00742844
0.00668031
0.00604722
0.00550675
0.00504523
0.0046885
0.292299
0.141633
0.0819301
0.0541653
0.038923
0.0292873
0.0232721
0.0190784
0.0159338
0.0135145
0.0116261
0.0101118
0.00888054
0.00786913
0.00703015
0.0063277
0.00573416
0.0052282
0.00479625
0.00446639
0.319723
0.227073
0.162232
0.118772
0.0893609
0.0689926
0.0545303
0.0439841
0.0360993
0.0300741
0.0253813
0.0216641
0.0186762
0.0162433
0.0142393
0.0125716
0.0111706
0.00998342
0.00896878
0.00808761
0.323293
0.245617
0.187499
0.144537
0.112864
0.0894039
0.0718632
0.0585864
0.0483995
0.0404743
0.0342248
0.0292335
0.0251996
0.0219035
0.0191832
0.0169173
0.0150137
0.0134012
0.0120217
0.0108134
0.324288
0.250862
0.19613
0.154888
0.123591
0.09968
0.0812742
0.0669839
0.055785
0.0469226
0.03984
0.0341244
0.0294685
0.0256417
0.0224695
0.0198186
0.0175864
0.0156917
0.014066
0.0126359
0.32459
0.252403
0.19891
0.158543
0.12769
0.103871
0.0853201
0.0707499
0.05921
0.0499928
0.0425686
0.0365387
0.0316011
0.0275259
0.0241368
0.0212975
0.0189016
0.0168638
0.0151088
0.0135424
0.32459
0.252403
0.19891
0.158543
0.12769
0.103871
0.08532
0.0707499
0.0592099
0.0499927
0.0425685
0.0365385
0.0316009
0.0275257
0.0241365
0.0212971
0.0189011
0.0168634
0.0151101
0.0135554
0.324288
0.250862
0.19613
0.154888
0.123591
0.09968
0.0812742
0.0669839
0.055785
0.0469226
0.03984
0.0341244
0.0294685
0.0256417
0.0224694
0.0198186
0.0175864
0.0156917
0.014066
0.0126359
0.323293
0.245617
0.187499
0.144537
0.112864
0.089404
0.0718634
0.0585866
0.0483998
0.0404747
0.0342254
0.0292343
0.0252008
0.0219052
0.0191855
0.0169205
0.0150181
0.0134074
0.0120307
0.0108307
0.319723
0.227073
0.162232
0.118772
0.0893611
0.0689928
0.0545306
0.0439845
0.0360999
0.0300749
0.0253825
0.0216659
0.0186788
0.0162471
0.0142449
0.0125798
0.0111827
0.0100012
0.00899461
0.00813597
0.292299
0.141633
0.0819301
0.0541654
0.0389231
0.0292874
0.0232723
0.0190786
0.0159341
0.013515
0.0116269
0.010113
0.00888226
0.00787174
0.00703414
0.00633387
0.00574379
0.00524337
0.00481871
0.00448855
0.283364
0.126774
0.071702
0.0473282
0.0338663
0.0256616
0.0204608
0.016797
0.0140486
0.011941
0.010284
0.00895577
0.00788472
0.00701085
0.00628803
0.00568403
0.00517653
0.00474795
0.0043874
0.00409888
0.31754
0.217754
0.151085
0.108549
0.0807155
0.0618725
0.0486772
0.0391416
0.0320585
0.0266713
0.0224899
0.0191871
0.0165387
0.0143866
0.0126174
0.0111493
0.00992004
0.00888242
0.00800313
0.00724936
0.322005
0.239026
0.177588
0.133616
0.102323
0.079867
0.0635106
0.0513822
0.0422219
0.0351798
0.0296764
0.0253104
0.0217996
0.018942
0.0165904
0.014636
0.0129976
0.0116128
0.0104304
0.00937526
0.323293
0.245617
0.187499
0.144537
0.112864
0.089404
0.0718634
0.0585866
0.0483998
0.0404747
0.0342254
0.0292343
0.0252007
0.0219052
0.0191855
0.0169205
0.0150182
0.0134075
0.0120308
0.0108307
0.323714
0.247819
0.191099
0.14881
0.117249
0.0935707
0.0756573
0.0619605
0.0513627
0.0430612
0.0364792
0.0311996
0.026918
0.0234101
0.0205088
0.0180881
0.0160515
0.014324
0.0128432
0.0115403
0.323714
0.247819
0.191099
0.14881
0.117249
0.0935707
0.0756572
0.0619604
0.0513625
0.0430609
0.0364789
0.0311991
0.0269173
0.0234092
0.0205075
0.0180861
0.0160489
0.0143207
0.0128395
0.0115413
0.323293
0.245617
0.187499
0.144537
0.112864
0.0894039
0.0718632
0.0585864
0.0483995
0.0404743
0.0342248
0.0292335
0.0251996
0.0219036
0.0191832
0.0169173
0.0150137
0.0134012
0.0120216
0.0108134
0.322005
0.239026
0.177588
0.133616
0.102323
0.079867
0.0635106
0.0513822
0.0422219
0.0351798
0.0296764
0.0253104
0.0217997
0.018942
0.0165903
0.014636
0.0129975
0.0116127
0.0104304
0.00937525
0.31754
0.217754
0.151086
0.108549
0.0807156
0.0618727
0.0486775
0.0391419
0.0320589
0.026672
0.0224908
0.0191884
0.0165407
0.0143895
0.0126215
0.0111552
0.00992879
0.00889572
0.00802418
0.00727765
0.283364
0.126774
0.071702
0.0473282
0.0338663
0.0256617
0.0204609
0.0167972
0.0140489
0.0119416
0.0102847
0.00895686
0.0078863
0.00701318
0.00629166
0.00568964
0.00518531
0.00476184
0.00440918
0.00413137
0.264759
0.104702
0.0585298
0.0391631
0.02862
0.0219935
0.0175362
0.0143634
0.0120085
0.0102142
0.008817
0.00770676
0.00680578
0.00606336
0.00545319
0.00495389
0.00454013
0.00419844
0.00393125
0.00375054
0.311746
0.197541
0.130357
0.0911457
0.0668023
0.0508112
0.0397946
0.0319124
0.0260946
0.0216879
0.0182775
0.01559
0.0134432
0.0117015
0.0102723
0.00908723
0.00809552
0.00726265
0.00656887
0.0058935
0.31754
0.217754
0.151086
0.108549
0.0807156
0.0618727
0.0486775
0.039142
0.0320589
0.026672
0.0224908
0.0191884
0.0165407
0.0143895
0.0126215
0.0111552
0.00992881
0.00889574
0.00802419
0.00727766
0.319723
0.227073
0.162232
0.118772
0.0893611
0.0689928
0.0545306
0.0439845
0.0360999
0.0300749
0.0253825
0.0216659
0.0186788
0.0162471
0.0142449
0.0125798
0.0111828
0.0100012
0.00899463
0.00813598
0.320484
0.23086
0.167176
0.123531
0.0935158
0.0724824
0.0574405
0.046421
0.0381534
0.0318168
0.0268704
0.022946
0.0197873
0.017212
0.0150886
0.0133198
0.0118325
0.0105709
0.00949138
0.00855871
0.320484
0.23086
0.167176
0.123531
0.0935157
0.0724823
0.0574403
0.0464208
0.0381531
0.0318163
0.0268697
0.0229451
0.0197859
0.01721
0.0150857
0.0133156
0.0118264
0.0105619
0.00947857
0.00853645
0.319723
0.227073
0.162232
0.118772
0.0893609
0.0689926
0.0545303
0.0439841
0.0360993
0.0300741
0.0253813
0.0216641
0.0186762
0.0162433
0.0142393
0.0125716
0.0111706
0.0099834
0.00896875
0.00808758
0.31754
0.217754
0.151085
0.108549
0.0807155
0.0618725
0.0486772
0.0391416
0.0320585
0.0266713
0.0224899
0.0191871
0.0165387
0.0143866
0.0126174
0.0111493
0.00992002
0.0088824
0.00800311
0.00724934
0.311746
0.197541
0.130357
0.0911457
0.0668023
0.0508112
0.0397946
0.0319124
0.0260946
0.0216879
0.0182775
0.01559
0.0134432
0.0117015
0.0102723
0.00908723
0.00809551
0.00726265
0.00656888
0.00589351
0.264759
0.104702
0.0585298
0.0391631
0.02862
0.0219935
0.0175362
0.0143635
0.0120086
0.0102143
0.00881725
0.00770719
0.00680648
0.00606484
0.00545531
0.00495714
0.00454565
0.00420846
0.00394995
0.00377608
0.213564
0.055916
0.0283994
0.0193412
0.0146928
0.0118512
0.00989071
0.00851625
0.00749145
0.00669667
0.00606111
0.00555183
0.00512449
0.00474838
0.00443097
0.0041661
0.00394538
0.00376667
0.00366372
0.00356393
0.264759
0.104702
0.0585298
0.0391631
0.02862
0.0219935
0.0175362
0.0143635
0.0120086
0.0102143
0.00881726
0.00770719
0.00680648
0.00606485
0.00545532
0.00495715
0.00454565
0.00420847
0.00394996
0.0037761
0.283364
0.126774
0.071702
0.0473282
0.0338663
0.0256617
0.0204609
0.0167972
0.0140489
0.0119416
0.0102847
0.00895686
0.0078863
0.00701319
0.00629167
0.00568965
0.00518532
0.00476184
0.00440919
0.00413138
0.292299
0.141633
0.0819301
0.0541654
0.0389231
0.0292874
0.0232723
0.0190786
0.0159341
0.013515
0.0116269
0.010113
0.00888226
0.00787174
0.00703415
0.00633388
0.0057438
0.00524337
0.00481872
0.00448855
0.295943
0.148782
0.0871941
0.0576749
0.0415193
0.0310721
0.0246449
0.0202208
0.0169047
0.0143245
0.0123078
0.0107014
0.0093949
0.00832067
0.00742845
0.00668032
0.00604722
0.00550676
0.00504523
0.0046885
0.295943
0.148782
0.0871941
0.0576749
0.0415193
0.0310721
0.0246448
0.0202207
0.0169045
0.0143242
0.0123074
0.0107009
0.00939403
0.00831934
0.00742639
0.00667709
0.00604216
0.00549883
0.00503202
0.004659
0.292299
0.141633
0.0819301
0.0541653
0.038923
0.0292873
0.0232721
0.0190784
0.0159338
0.0135145
0.0116261
0.0101118
0.00888054
0.00786913
0.00703015
0.0063277
0.00573415
0.00522819
0.00479625
0.00446638
0.283364
0.126774
0.071702
0.0473282
0.0338663
0.0256616
0.0204608
0.016797
0.0140486
0.011941
0.010284
0.00895577
0.00788472
0.00701084
0.00628802
0.00568402
0.00517652
0.00474794
0.00438739
0.00409887
0.264759
0.104702
0.0585298
0.0391631
0.02862
0.0219935
0.0175362
0.0143634
0.0120085
0.0102142
0.008817
0.00770676
0.00680578
0.00606335
0.00545318
0.00495388
0.00454012
0.00419844
0.00393124
0.00375053
0.213564
0.055916
0.0283994
0.0193412
0.0146928
0.0118512
0.00989071
0.00851625
0.00749145
0.00669667
0.00606111
0.00555182
0.00512449
0.00474838
0.00443096
0.00416609
0.00394537
0.00376666
0.0036637
0.0035639
0.00495374
0.00421585
0.00359063
0.00322844
0.00301506
0.00288397
0.00279104
0.00271915
0.00266225
0.00261717
0.00257904
0.00254737
0.00252075
0.00249716
0.00247654
0.00245846
0.00244311
0.00243047
0.00242
0.0024113
0.00240405
0.00239816
0.00239363
0.00238999
0.00238662
0.00238333
0.00238019
0.00237758
0.00237582
0.00237465
0.00237361
0.00237247
0.00237128
0.00237042
0.0023702
0.00237
0.00237012
0.00236992
0.00236948
0.00236865
0.004214
0.00370136
0.00329287
0.00300819
0.00281825
0.0026852
0.00258403
0.00250029
0.00242873
0.00236815
0.00231792
0.0022783
0.00224487
0.00221593
0.0021907
0.00216944
0.00215141
0.0021363
0.0021238
0.0021135
0.00210495
0.0020979
0.00209232
0.00208737
0.00208296
0.00207904
0.00207569
0.00207301
0.002071
0.0020692
0.00206767
0.00206646
0.00206554
0.00206489
0.00206445
0.00206428
0.00206421
0.00206413
0.00206414
0.00206411
0.00413524
0.00373064
0.00341915
0.00316421
0.00298557
0.00283941
0.00271494
0.00261168
0.00252575
0.00245382
0.00239295
0.00234144
0.00229738
0.0022606
0.00222927
0.00220248
0.00217998
0.00216108
0.00214525
0.00213208
0.00212114
0.0021121
0.00210469
0.00209806
0.00209195
0.00208692
0.00208284
0.00207971
0.00207724
0.00207501
0.00207284
0.00207129
0.00207032
0.00206984
0.00207003
0.00206951
0.00206926
0.0020691
0.00206897
0.00206911
0.00401528
0.00374531
0.0035057
0.00329855
0.0031212
0.00296798
0.00283566
0.00272141
0.00262285
0.00253795
0.00246495
0.00240234
0.00234862
0.0023026
0.00226352
0.00223049
0.00220266
0.00217928
0.00215975
0.00214342
0.00212984
0.00211853
0.00210912
0.00210081
0.0020933
0.00208726
0.00208237
0.00207856
0.00207548
0.00207282
0.00207023
0.00206836
0.00206718
0.00206655
0.00206638
0.0020663
0.00206592
0.00206573
0.00206572
0.00206585
0.00421303
0.00386348
0.00358973
0.00336635
0.0031796
0.00302265
0.00288816
0.00277071
0.0026681
0.0025786
0.00250075
0.00243317
0.00237457
0.00232395
0.00228067
0.00224393
0.00221287
0.00218676
0.00216488
0.00214659
0.00213125
0.00211841
0.00210767
0.0020983
0.00208979
0.00208273
0.00207712
0.00207272
0.00206917
0.00206618
0.00206327
0.00206116
0.0020598
0.00205912
0.00205864
0.00205879
0.00205851
0.00205848
0.00205844
0.00205847
0.00437443
0.0039294
0.00362523
0.00338481
0.00318806
0.00302436
0.00288742
0.00276843
0.00266416
0.00257296
0.00249343
0.00242423
0.00236408
0.00231226
0.00226807
0.00223053
0.00219881
0.00217214
0.00214982
0.00213115
0.00211552
0.0021024
0.0020913
0.00208158
0.00207287
0.00206575
0.00206004
0.00205553
0.00205186
0.00204871
0.0020457
0.00204352
0.00204209
0.00204129
0.00204082
0.00204135
0.00204182
0.00204128
0.00204096
0.00204079
0.00430282
0.00384225
0.0035486
0.00331753
0.00312784
0.00296937
0.00283474
0.00271703
0.00261433
0.00252501
0.00244757
0.00238061
0.00232275
0.00227309
0.00223086
0.00219512
0.00216501
0.00213975
0.00211862
0.00210097
0.00208619
0.00207387
0.00206332
0.00205395
0.00204559
0.00203875
0.00203327
0.00202897
0.00202541
0.00202227
0.00201928
0.00201715
0.00201579
0.00201503
0.00201456
0.00201472
0.00201516
0.00201477
0.00201448
0.00201445
0.00394627
0.00364391
0.00338962
0.00317719
0.00299983
0.00285012
0.00272171
0.00261157
0.00251692
0.0024356
0.00236581
0.00230572
0.00225401
0.00220978
0.00217231
0.00214076
0.00211424
0.00209212
0.00207355
0.00205806
0.00204514
0.00203443
0.00202522
0.00201684
0.00200931
0.00200318
0.00199833
0.00199458
0.0019914
0.00198845
0.00198568
0.00198374
0.00198259
0.00198201
0.00198176
0.00198185
0.00198196
0.00198174
0.00198153
0.00198142
0.00385943
0.00350371
0.00322277
0.00299853
0.00282223
0.00268388
0.00256964
0.00247479
0.0023947
0.00232703
0.00226987
0.00222102
0.00217917
0.00214339
0.00211304
0.00208729
0.00206553
0.00204731
0.00203205
0.00201935
0.00200879
0.00200009
0.00199281
0.00198597
0.00197975
0.00197466
0.0019706
0.0019675
0.00196487
0.00196232
0.00196001
0.00195839
0.00195742
0.00195696
0.00195671
0.00195693
0.00195697
0.00195656
0.00195617
0.00195596
0.00410638
0.00362334
0.00318831
0.00289366
0.00269961
0.00257052
0.00247652
0.002401
0.00233611
0.0022841
0.00224095
0.00220436
0.00217224
0.00214315
0.00211799
0.00209439
0.00207489
0.00205943
0.00204657
0.00203591
0.00202712
0.00202008
0.00201463
0.00200949
0.00200506
0.0020011
0.00199767
0.00199493
0.00199279
0.00199071
0.00198921
0.00198793
0.00198695
0.00198629
0.00198591
0.00198612
0.00198566
0.00198523
0.00198481
0.00198447
0.00495375
0.00421585
0.00359066
0.00322843
0.00301507
0.00288408
0.00279126
0.00271948
0.00266269
0.00261757
0.00257957
0.0025479
0.00252099
0.00249726
0.00247652
0.00245844
0.00244321
0.00243069
0.00242035
0.00241176
0.00240457
0.00239875
0.00239429
0.00239065
0.0023873
0.00238398
0.00238077
0.00237812
0.00237637
0.00237517
0.00237409
0.00237286
0.00237162
0.00237069
0.0023703
0.00237051
0.00237051
0.00236986
0.00236906
0.00236787
0.00410637
0.0036233
0.00318826
0.00289369
0.00269954
0.00257031
0.00247617
0.00240054
0.00233552
0.00228348
0.00224019
0.0022039
0.00217201
0.0021431
0.0021181
0.00209456
0.00207492
0.00205935
0.00204635
0.00203554
0.00202668
0.00201957
0.0020141
0.00200907
0.00200466
0.00200071
0.0019973
0.00199458
0.00199256
0.00199058
0.00198903
0.00198784
0.00198688
0.00198609
0.00198602
0.00198593
0.00198552
0.00198529
0.00198519
0.00198503
0.00423529
0.00376817
0.00340579
0.00319666
0.0030157
0.00286132
0.00272266
0.00259554
0.00247457
0.00236572
0.00227213
0.00219639
0.00212755
0.00206866
0.00201841
0.00197554
0.00193915
0.00190848
0.00188266
0.00186117
0.00184323
0.00182842
0.00181779
0.00180288
0.00179166
0.0017818
0.00177458
0.00176972
0.00176616
0.00175847
0.00175437
0.00175239
0.0017511
0.00175021
0.00174664
0.00174666
0.00174795
0.00174876
0.00174964
0.00175079
0.00547762
0.00501648
0.00460887
0.0042637
0.00396872
0.00371635
0.00349681
0.00330387
0.00313511
0.00298701
0.00285966
0.00274869
0.00265021
0.00256339
0.00248966
0.00242546
0.00237219
0.00232705
0.00228833
0.00225624
0.00222862
0.00220599
0.00218903
0.00216672
0.00214804
0.0021335
0.00212231
0.00211568
0.00211023
0.00209949
0.00209272
0.00208846
0.00208667
0.00208722
0.00208716
0.00208481
0.00208376
0.00208408
0.00208495
0.00208718
0.00683904
0.00612909
0.00555807
0.00508671
0.00469804
0.00436651
0.0040785
0.00382696
0.00360741
0.00341589
0.00324969
0.00310537
0.00297799
0.00286906
0.00277602
0.00269668
0.00262934
0.00257272
0.00252374
0.00248346
0.00244843
0.00241944
0.00239654
0.00236858
0.00234647
0.00232958
0.00231628
0.00230749
0.00229851
0.002287
0.00227915
0.00227449
0.00227237
0.00227262
0.0022717
0.00226874
0.0022681
0.00226913
0.00227016
0.00227246
0.00730065
0.00665073
0.00607189
0.00556675
0.00512878
0.00475441
0.00443437
0.00415258
0.00390462
0.00368743
0.00349802
0.00333306
0.00318739
0.00306309
0.00295671
0.00286593
0.0027888
0.00272369
0.00266887
0.00262257
0.00258333
0.00254981
0.00252096
0.00249066
0.0024675
0.00244918
0.00243491
0.0024241
0.00241426
0.00240176
0.00239364
0.00238849
0.00238611
0.00238566
0.00238475
0.00238209
0.00238262
0.00238334
0.00238432
0.0023856
0.00755524
0.00685538
0.00625512
0.0057371
0.00528836
0.00489981
0.00456925
0.00428046
0.00402428
0.00379892
0.00360205
0.00343036
0.00327907
0.0031495
0.00303847
0.00294363
0.00286304
0.00279492
0.00273768
0.00268959
0.00264869
0.00261384
0.00258317
0.00255224
0.00252819
0.00250911
0.00249412
0.00248261
0.0024721
0.00245917
0.00245081
0.0024456
0.00244262
0.00244222
0.00244223
0.00244117
0.00243944
0.00244013
0.00244089
0.00244201
0.0073116
0.00666796
0.00609364
0.00559292
0.00515935
0.00478735
0.00447057
0.00419154
0.00394527
0.00372936
0.00354099
0.00337666
0.00323197
0.00310836
0.00300248
0.0029121
0.0028355
0.00277071
0.00271635
0.00267016
0.00263137
0.00259815
0.0025694
0.00253902
0.00251529
0.00249649
0.0024817
0.00247055
0.0024601
0.00244721
0.00243881
0.00243351
0.00243045
0.00243051
0.00242969
0.00242682
0.00242685
0.00242746
0.00242856
0.0024301
0.00684271
0.00615082
0.00558605
0.00511862
0.00473206
0.00440723
0.00412376
0.00387514
0.00365724
0.00346671
0.00330093
0.0031556
0.00302801
0.00291986
0.00282698
0.00274781
0.00268142
0.00262447
0.00257719
0.00253598
0.00250226
0.00247352
0.00244868
0.00242069
0.00239878
0.00238174
0.00236825
0.00235941
0.00235002
0.00233743
0.00232926
0.00232451
0.00232204
0.0023225
0.00232277
0.00232236
0.00232013
0.00232041
0.00232065
0.00232248
0.00553884
0.00504056
0.00460163
0.00426163
0.00398019
0.00373484
0.00351815
0.00332558
0.00315322
0.00300227
0.00287165
0.00275589
0.00265601
0.00256993
0.00249363
0.00242973
0.002375
0.00232976
0.00229122
0.00225883
0.0022316
0.00220893
0.00219149
0.00216702
0.00214786
0.00213296
0.00212218
0.00211535
0.00210796
0.00209651
0.00208944
0.00208557
0.00208431
0.00208505
0.00208482
0.00208541
0.0020833
0.00208264
0.00208245
0.00208401
0.00423531
0.00376819
0.00340575
0.00319637
0.00301624
0.00286199
0.00272345
0.00259651
0.0024758
0.00236697
0.00227456
0.00219491
0.00212771
0.0020686
0.00201816
0.00197533
0.00193919
0.00190873
0.00188333
0.00186206
0.00184447
0.00182981
0.00181912
0.00180359
0.00179241
0.00178259
0.00177546
0.00177064
0.00176602
0.00175793
0.00175469
0.00175216
0.00175134
0.00175144
0.00175109
0.00175194
0.00174847
0.00174729
0.00174768
0.00174927
0.00421399
0.00370135
0.00329284
0.00300813
0.00281829
0.00268532
0.00258424
0.00250057
0.0024291
0.00236854
0.00231837
0.00227866
0.00224502
0.00221586