/*--------------------------------*- C++ -*----------------------------------*\
| =========                 |                                                 |
| \\      /  F ield         | OpenFOAM: The Open Source CFD Toolbox           |
|  \\    /   O peration     | Version:  2212                                  |
|   \\  /    A nd           | Website:  www.openfoam.com                      |
|    \\/     M anipulation  |                                                 |
\*---------------------------------------------------------------------------*/
FoamFile
{
    version     2.0;
    format      ascii;
    arch        "LSB;label=32;scalar=64";
    class       volScalarField;
    location    "0.7";
    object      p;
}
// * * * * * * * * * * * * * * * * * * * * * * * * * * * * * * * * * * * * * //

dimensions      [0 2 -2 0 0 0 0];

internalField   nonuniform List<scalar> 
6840
(
0.0178573
0.0107428
0.00845139
0.00791354
0.00763915
0.0074169
0.00723017
0.00706361
0.00690225
0.00674247
0.00658429
0.00642744
0.00627053
0.00611188
0.0059512
0.00578699
0.00561717
0.00543457
0.00518326
0.0047042
0.0106785
0.00994462
0.00885171
0.00818572
0.00778311
0.00750932
0.00729808
0.00711175
0.00693717
0.00676957
0.00660637
0.00644575
0.006286
0.00612597
0.00596514
0.00580214
0.00563264
0.00544627
0.00520923
0.00483189
0.0103302
0.00947871
0.00871443
0.00815529
0.00777913
0.00751111
0.00729546
0.00710255
0.00692414
0.00675564
0.00659218
0.00643155
0.00627323
0.0061169
0.00596177
0.0058066
0.00564944
0.00548857
0.00532817
0.0051775
0.00992097
0.00915824
0.00853948
0.00808816
0.00774421
0.00747524
0.00725571
0.00706708
0.00689951
0.00674248
0.00658746
0.00643322
0.00628076
0.00613117
0.00598588
0.00584735
0.00571894
0.0056046
0.00551516
0.00546963
0.00978678
0.00904559
0.00845743
0.00804933
0.00772742
0.00746076
0.00723934
0.0070489
0.00687847
0.00672232
0.00657336
0.00642502
0.00627693
0.00613172
0.00599297
0.00586508
0.00575387
0.00566707
0.00562217
0.0056458
0.00978678
0.00904559
0.00845742
0.00804931
0.00772739
0.00746072
0.00723928
0.00704878
0.00687826
0.00672197
0.00657276
0.00642399
0.0062752
0.00612887
0.00598789
0.00585566
0.00573744
0.00564055
0.0055791
0.00557492
0.00992096
0.00915822
0.00853946
0.00808814
0.00774417
0.00747516
0.00725558
0.00706681
0.00689905
0.00674169
0.00658614
0.00643103
0.00627718
0.0061253
0.00597584
0.00582961
0.00568821
0.00555425
0.00543568
0.00534842
0.0103302
0.0094787
0.00871442
0.00815527
0.00777909
0.00751103
0.00729532
0.00710231
0.00692373
0.00675493
0.00659096
0.00642955
0.00627005
0.00611184
0.00595358
0.00579343
0.00562799
0.00545333
0.0052698
0.00507164
0.0106785
0.00994461
0.0088517
0.00818572
0.0077831
0.0075093
0.00729803
0.00711166
0.00693701
0.00676928
0.0066059
0.00644497
0.00628458
0.00612334
0.00596075
0.00579515
0.00562177
0.00542834
0.0051749
0.00474447
0.0178573
0.0107428
0.00845138
0.00791354
0.00763915
0.0074169
0.00723017
0.0070636
0.00690225
0.00674247
0.00658429
0.00642744
0.00627053
0.00611188
0.0059512
0.00578699
0.00561717
0.00543455
0.00518322
0.00470415
0.0106785
0.00994461
0.00885171
0.00818572
0.0077831
0.0075093
0.00729803
0.00711166
0.00693701
0.00676929
0.0066059
0.00644497
0.00628458
0.00612333
0.00596075
0.00579514
0.00562178
0.00542835
0.00517493
0.00474452
0.00996187
0.00993016
0.00920192
0.00849139
0.00804501
0.00772898
0.00746997
0.00724214
0.00703726
0.0068484
0.00666994
0.00649795
0.00632901
0.0061609
0.00599215
0.00582029
0.00564115
0.00545013
0.00526228
0.00515696
0.00903642
0.0091626
0.00885971
0.00844347
0.00807631
0.00775764
0.00747905
0.00723852
0.00702582
0.00683103
0.00664731
0.00647128
0.00630079
0.0061338
0.00596822
0.00580219
0.00563332
0.00545903
0.00528068
0.00510813
0.00861808
0.00866159
0.00849603
0.00823311
0.00795275
0.00768144
0.00743051
0.00720425
0.00700142
0.00681521
0.00663872
0.00646894
0.00630438
0.00614404
0.00598787
0.00583627
0.00568979
0.00554991
0.00542289
0.00532297
0.00840214
0.00842396
0.00829678
0.00807931
0.00784695
0.00761788
0.00739521
0.00718229
0.00698192
0.00679533
0.00662011
0.0064533
0.00629347
0.00613912
0.00599035
0.00584958
0.00571809
0.00559564
0.00548531
0.00539036
0.00840212
0.00842395
0.00829676
0.00807927
0.00784688
0.00761779
0.00739508
0.0071821
0.00698164
0.00679483
0.00661921
0.00645169
0.00629095
0.00613565
0.00598515
0.0058411
0.00570527
0.00557858
0.00546425
0.00536204
0.00861805
0.00866156
0.00849598
0.00823305
0.00795266
0.00768132
0.00743033
0.00720396
0.00700093
0.00681427
0.00663696
0.00646598
0.00630007
0.00613784
0.00597804
0.00581995
0.00566345
0.00550933
0.00536112
0.00521709
0.0090364
0.00916258
0.00885968
0.00844344
0.00807627
0.00775758
0.00747893
0.0072383
0.00702542
0.00683037
0.00664629
0.00646976
0.00629845
0.00613015
0.00596265
0.00579387
0.00562193
0.00544522
0.0052694
0.00510839
0.00996187
0.00993015
0.00920192
0.00849139
0.008045
0.00772898
0.00746996
0.00724213
0.00703725
0.00684839
0.00666993
0.00649794
0.006329
0.00616089
0.00599214
0.00582028
0.00564113
0.00545009
0.00526222
0.00515685
0.0106785
0.00994461
0.0088517
0.00818572
0.0077831
0.00750931
0.00729807
0.00711174
0.00693716
0.00676956
0.00660637
0.00644574
0.006286
0.00612597
0.00596514
0.00580213
0.00563262
0.00544625
0.00520919
0.00483182
0.0103302
0.0094787
0.00871442
0.00815527
0.00777909
0.00751103
0.00729532
0.00710231
0.00692373
0.00675493
0.00659096
0.00642955
0.00627005
0.00611184
0.00595358
0.00579343
0.005628
0.00545335
0.00526982
0.00507167
0.00903641
0.00916258
0.00885968
0.00844344
0.00807627
0.00775758
0.00747894
0.00723831
0.00702543
0.00683038
0.0066463
0.00646976
0.00629846
0.00613016
0.00596267
0.00579389
0.00562195
0.00544525
0.00526945
0.00510846
0.00846692
0.0085679
0.00845633
0.00823083
0.00797505
0.00771661
0.00745813
0.00721638
0.00699828
0.00679768
0.00660956
0.00643064
0.0062581
0.00608954
0.00592335
0.00575819
0.0055934
0.00543093
0.00527852
0.00513676
0.00809897
0.00816704
0.00811467
0.0079677
0.00778284
0.00757771
0.00736706
0.0071602
0.00695911
0.00676674
0.00658425
0.00640977
0.00624131
0.00607755
0.00591764
0.00576066
0.00560579
0.00545269
0.00530182
0.00514728
0.00791595
0.00798038
0.00795092
0.00782611
0.00766716
0.00749355
0.00730735
0.00711946
0.00693351
0.00675035
0.00657153
0.00639809
0.00623046
0.00606889
0.00591359
0.00576373
0.00561706
0.00547192
0.00532805
0.00517572
0.00791594
0.00798037
0.00795091
0.00782607
0.00766707
0.00749344
0.00730722
0.00711929
0.00693326
0.00674997
0.00657096
0.00639726
0.00622933
0.00606726
0.00591117
0.0057602
0.00561253
0.0054671
0.00532532
0.00517849
0.00809895
0.00816701
0.00811463
0.00796764
0.00778275
0.0075776
0.00736693
0.00716
0.0069588
0.00676623
0.00658338
0.00640839
0.00623921
0.00607437
0.00591275
0.00575324
0.00559475
0.005437
0.00528125
0.00512111
0.00846692
0.00856789
0.00845632
0.00823083
0.00797504
0.0077166
0.00745813
0.00721638
0.00699828
0.00679767
0.00660955
0.00643063
0.00625808
0.00608953
0.00592333
0.00575817
0.00559337
0.00543089
0.00527847
0.00513668
0.00903641
0.00916259
0.0088597
0.00844347
0.0080763
0.00775764
0.00747904
0.00723851
0.00702581
0.00683102
0.0066473
0.00647127
0.00630077
0.00613379
0.0059682
0.00580216
0.00563329
0.00545899
0.00528062
0.00510803
0.0103302
0.0094787
0.00871443
0.00815528
0.00777912
0.0075111
0.00729545
0.00710254
0.00692413
0.00675563
0.00659217
0.00643154
0.00627322
0.0061169
0.00596176
0.00580659
0.00564943
0.00548855
0.00532814
0.00517745
0.00992096
0.00915822
0.00853946
0.00808814
0.00774417
0.00747516
0.00725558
0.00706681
0.00689905
0.0067417
0.00658614
0.00643103
0.00627718
0.0061253
0.00597585
0.00582962
0.00568821
0.00555426
0.00543569
0.00534842
0.00861805
0.00866156
0.00849598
0.00823305
0.00795267
0.00768133
0.00743033
0.00720397
0.00700093
0.00681428
0.00663697
0.00646599
0.00630008
0.00613785
0.00597805
0.00581996
0.00566346
0.00550935
0.00536114
0.00521713
0.00809895
0.00816702
0.00811463
0.00796764
0.00778275
0.0075776
0.00736693
0.00716
0.0069588
0.00676623
0.00658339
0.0064084
0.00623922
0.00607439
0.00591276
0.00575326
0.00559477
0.00543703
0.00528128
0.00512115
0.00780107
0.00786021
0.00784828
0.00775288
0.00761326
0.00744776
0.00726754
0.00708303
0.006899
0.00671853
0.00654327
0.00637301
0.00620709
0.00604491
0.00588585
0.00572907
0.00557358
0.00541902
0.00526619
0.00510607
0.00764999
0.00771288
0.00771664
0.007643
0.00752289
0.00737653
0.00721367
0.00704229
0.00686818
0.00669465
0.00652353
0.00635573
0.00619158
0.00603111
0.00587416
0.00571997
0.00556739
0.00541622
0.00526757
0.00511165
0.00764998
0.00771287
0.00771663
0.00764298
0.00752287
0.0073765
0.00721362
0.00704222
0.00686809
0.00669454
0.0065234
0.00635558
0.00619139
0.00603087
0.00587384
0.00571965
0.00556731
0.00541681
0.00526986
0.00511661
0.00780107
0.00786021
0.00784827
0.00775288
0.00761325
0.00744775
0.00726754
0.00708303
0.00689899
0.00671853
0.00654326
0.006373
0.00620708
0.0060449
0.00588584
0.00572905
0.00557356
0.005419
0.00526617
0.00510605
0.00809897
0.00816703
0.00811466
0.0079677
0.00778284
0.00757771
0.00736706
0.00716019
0.0069591
0.00676673
0.00658424
0.00640976
0.00624129
0.00607753
0.00591762
0.00576064
0.00560576
0.00545266
0.00530178
0.00514724
0.00861808
0.00866158
0.00849602
0.0082331
0.00795274
0.00768143
0.0074305
0.00720424
0.00700141
0.0068152
0.0066387
0.00646893
0.00630437
0.00614403
0.00598785
0.00583625
0.00568977
0.00554988
0.00542284
0.0053229
0.00992096
0.00915823
0.00853947
0.00808815
0.0077442
0.00747523
0.0072557
0.00706707
0.0068995
0.00674247
0.00658745
0.00643321
0.00628075
0.00613117
0.00598587
0.00584734
0.00571893
0.00560459
0.00551513
0.0054696
0.00978678
0.00904559
0.00845742
0.00804931
0.00772739
0.00746072
0.00723928
0.00704878
0.00687826
0.00672196
0.00657276
0.00642399
0.0062752
0.00612887
0.00598789
0.00585566
0.00573743
0.00564054
0.00557909
0.0055749
0.00840212
0.00842395
0.00829676
0.00807926
0.00784688
0.00761779
0.00739508
0.0071821
0.00698164
0.00679483
0.00661921
0.00645169
0.00629095
0.00613566
0.00598515
0.0058411
0.00570527
0.00557858
0.00546424
0.00536203
0.00791594
0.00798037
0.00795091
0.00782607
0.00766707
0.00749344
0.00730722
0.00711929
0.00693326
0.00674997
0.00657096
0.00639727
0.00622933
0.00606726
0.00591117
0.0057602
0.00561253
0.0054671
0.00532532
0.00517849
0.00764998
0.00771287
0.00771663
0.00764298
0.00752287
0.0073765
0.00721362
0.00704222
0.00686809
0.00669454
0.0065234
0.00635558
0.00619139
0.00603087
0.00587384
0.00571966
0.00556731
0.00541681
0.00526986
0.00511661
0.0075072
0.00757671
0.00759883
0.00754629
0.00744505
0.00731413
0.00716423
0.00700326
0.00683677
0.00666845
0.00650067
0.00633486
0.00617176
0.00601171
0.00585464
0.00569985
0.00554622
0.00539315
0.00524094
0.00507954
0.0075072
0.00757671
0.00759883
0.00754629
0.00744505
0.00731413
0.00716423
0.00700326
0.00683677
0.00666845
0.00650067
0.00633485
0.00617176
0.00601171
0.00585463
0.00569984
0.00554621
0.00539315
0.00524094
0.00507954
0.00764998
0.00771288
0.00771664
0.00764299
0.00752289
0.00737653
0.00721367
0.00704228
0.00686817
0.00669464
0.00652352
0.00635572
0.00619157
0.0060311
0.00587415
0.00571996
0.00556737
0.00541621
0.00526756
0.00511164
0.00791594
0.00798038
0.00795092
0.0078261
0.00766715
0.00749354
0.00730734
0.00711945
0.0069335
0.00675034
0.00657152
0.00639808
0.00623044
0.00606887
0.00591357
0.00576371
0.00561704
0.0054719
0.00532803
0.0051757
0.00840213
0.00842396
0.00829677
0.0080793
0.00784694
0.00761787
0.0073952
0.00718228
0.00698191
0.00679532
0.0066201
0.00645329
0.00629346
0.0061391
0.00599033
0.00584956
0.00571807
0.00559562
0.00548529
0.00539033
0.00978677
0.00904559
0.00845742
0.00804932
0.00772741
0.00746075
0.00723933
0.00704889
0.00687846
0.00672231
0.00657335
0.00642501
0.00627692
0.00613171
0.00599296
0.00586507
0.00575387
0.00566706
0.00562217
0.00564581
0.00978678
0.00904559
0.00845742
0.00804932
0.00772742
0.00746076
0.00723934
0.00704889
0.00687846
0.00672231
0.00657336
0.00642501
0.00627692
0.00613171
0.00599295
0.00586506
0.00575385
0.00566704
0.00562213
0.00564576
0.00840213
0.00842396
0.00829678
0.0080793
0.00784694
0.00761787
0.0073952
0.00718229
0.00698192
0.00679532
0.0066201
0.00645329
0.00629346
0.0061391
0.00599033
0.00584955
0.00571806
0.0055956
0.00548527
0.0053903
0.00791594
0.00798038
0.00795092
0.00782611
0.00766715
0.00749355
0.00730734
0.00711946
0.0069335
0.00675034
0.00657152
0.00639808
0.00623044
0.00606887
0.00591357
0.00576371
0.00561704
0.00547189
0.00532802
0.00517569
0.00764998
0.00771288
0.00771664
0.00764299
0.00752289
0.00737653
0.00721367
0.00704228
0.00686817
0.00669464
0.00652352
0.00635572
0.00619157
0.0060311
0.00587415
0.00571995
0.00556737
0.0054162
0.00526755
0.00511163
0.0075072
0.00757671
0.00759883
0.00754629
0.00744505
0.00731413
0.00716422
0.00700326
0.00683677
0.00666845
0.00650067
0.00633485
0.00617176
0.0060117
0.00585463
0.00569984
0.00554621
0.00539314
0.00524093
0.00507953
0.00750719
0.00757671
0.00759883
0.00754629
0.00744505
0.00731413
0.00716422
0.00700326
0.00683677
0.00666845
0.00650067
0.00633485
0.00617176
0.0060117
0.00585463
0.00569984
0.00554621
0.00539314
0.00524093
0.00507953
0.00764998
0.00771287
0.00771662
0.00764298
0.00752287
0.00737649
0.00721362
0.00704222
0.00686808
0.00669453
0.00652339
0.00635557
0.00619138
0.00603086
0.00587383
0.00571965
0.0055673
0.0054168
0.00526985
0.0051166
0.00791593
0.00798037
0.0079509
0.00782606
0.00766707
0.00749343
0.00730721
0.00711928
0.00693325
0.00674996
0.00657095
0.00639726
0.00622932
0.00606725
0.00591116
0.00576019
0.00561252
0.00546709
0.00532531
0.0051785
0.00840211
0.00842394
0.00829675
0.00807926
0.00784687
0.00761778
0.00739507
0.00718209
0.00698163
0.00679482
0.0066192
0.00645168
0.00629094
0.00613564
0.00598514
0.00584109
0.00570527
0.00557858
0.00546425
0.00536205
0.00978677
0.00904558
0.00845741
0.0080493
0.00772738
0.00746072
0.00723927
0.00704877
0.00687826
0.00672196
0.00657275
0.00642398
0.00627519
0.00612886
0.00598788
0.00585566
0.00573744
0.00564056
0.00557912
0.00557494
0.00992097
0.00915824
0.00853947
0.00808816
0.00774421
0.00747523
0.00725571
0.00706707
0.0068995
0.00674247
0.00658745
0.0064332
0.00628074
0.00613115
0.00598585
0.00584731
0.0057189
0.00560455
0.00551509
0.00546956
0.00861808
0.00866158
0.00849602
0.00823311
0.00795275
0.00768144
0.0074305
0.00720424
0.00700141
0.0068152
0.0066387
0.00646892
0.00630436
0.00614402
0.00598783
0.00583622
0.00568974
0.00554985
0.00542281
0.00532287
0.00809897
0.00816703
0.00811466
0.0079677
0.00778284
0.00757771
0.00736705
0.00716019
0.0069591
0.00676673
0.00658423
0.00640976
0.00624128
0.00607752
0.0059176
0.00576062
0.00560574
0.00545263
0.00530176
0.00514722
0.00780106
0.00786021
0.00784827
0.00775287
0.00761325
0.00744775
0.00726753
0.00708302
0.00689899
0.00671852
0.00654326
0.00637299
0.00620708
0.00604489
0.00588583
0.00572904
0.00557354
0.00541899
0.00526615
0.00510604
0.00764997
0.00771286
0.00771662
0.00764297
0.00752286
0.00737649
0.00721361
0.00704221
0.00686808
0.00669453
0.00652339
0.00635557
0.00619138
0.00603085
0.00587383
0.00571964
0.00556729
0.00541679
0.00526984
0.00511659
0.00764998
0.00771287
0.00771663
0.00764299
0.00752288
0.00737652
0.00721366
0.00704228
0.00686817
0.00669463
0.00652352
0.00635572
0.00619156
0.0060311
0.00587414
0.00571995
0.00556737
0.0054162
0.00526755
0.00511163
0.00780106
0.0078602
0.00784827
0.00775287
0.00761325
0.00744775
0.00726753
0.00708302
0.00689899
0.00671852
0.00654326
0.00637299
0.00620708
0.00604489
0.00588583
0.00572905
0.00557355
0.005419
0.00526617
0.00510605
0.00809894
0.00816701
0.00811462
0.00796763
0.00778274
0.00757759
0.00736692
0.00715999
0.00695879
0.00676622
0.00658337
0.00640838
0.0062392
0.00607436
0.00591274
0.00575324
0.00559475
0.005437
0.00528126
0.00512113
0.00861804
0.00866155
0.00849598
0.00823304
0.00795266
0.00768132
0.00743032
0.00720396
0.00700092
0.00681426
0.00663695
0.00646598
0.00630006
0.00613783
0.00597804
0.00581994
0.00566345
0.00550934
0.00536114
0.00521713
0.00992095
0.00915822
0.00853945
0.00808813
0.00774416
0.00747516
0.00725557
0.00706681
0.00689904
0.00674168
0.00658613
0.00643102
0.00627717
0.00612529
0.00597583
0.00582961
0.00568821
0.00555426
0.0054357
0.00534845
0.0103302
0.00947871
0.00871443
0.00815528
0.00777912
0.0075111
0.00729545
0.00710254
0.00692413
0.00675563
0.00659216
0.00643153
0.00627321
0.00611687
0.00596173
0.00580655
0.00564939
0.0054885
0.00532809
0.0051774
0.00903641
0.00916259
0.0088597
0.00844347
0.0080763
0.00775763
0.00747904
0.00723851
0.00702581
0.00683101
0.00664729
0.00647126
0.00630076
0.00613377
0.00596818
0.00580213
0.00563325
0.00545895
0.00528058
0.00510799
0.00846691
0.00856789
0.00845632
0.00823082
0.00797503
0.00771659
0.00745812
0.00721637
0.00699827
0.00679766
0.00660953
0.00643061
0.00625807
0.00608951
0.0059233
0.00575814
0.00559334
0.00543086
0.00527843
0.00513665
0.00809894
0.008167
0.00811462
0.00796763
0.00778273
0.00757759
0.00736691
0.00715998
0.00695878
0.00676621
0.00658337
0.00640837
0.00623919
0.00607436
0.00591273
0.00575322
0.00559473
0.00543698
0.00528123
0.00512109
0.00791592
0.00798036
0.0079509
0.00782605
0.00766706
0.00749342
0.00730721
0.00711928
0.00693324
0.00674995
0.00657094
0.00639725
0.00622931
0.00606724
0.00591115
0.00576018
0.00561251
0.00546707
0.00532529
0.00517847
0.00791593
0.00798037
0.00795091
0.0078261
0.00766714
0.00749354
0.00730733
0.00711945
0.00693349
0.00675033
0.00657151
0.00639807
0.00623044
0.00606887
0.00591356
0.0057637
0.00561703
0.00547189
0.00532802
0.00517568
0.00809896
0.00816702
0.00811465
0.00796769
0.00778283
0.0075777
0.00736705
0.00716019
0.0069591
0.00676672
0.00658423
0.00640975
0.00624128
0.00607753
0.00591761
0.00576063
0.00560575
0.00545265
0.00530178
0.00514724
0.00846691
0.00856789
0.00845632
0.00823082
0.00797504
0.00771659
0.00745812
0.00721637
0.00699827
0.00679766
0.00660954
0.00643062
0.00625807
0.00608952
0.00592332
0.00575817
0.00559337
0.0054309
0.00527848
0.00513671
0.00903639
0.00916257
0.00885967
0.00844343
0.00807626
0.00775757
0.00747892
0.0072383
0.00702541
0.00683036
0.00664628
0.00646975
0.00629844
0.00613014
0.00596265
0.00579387
0.00562193
0.00544523
0.00526943
0.00510844
0.0103302
0.00947869
0.00871441
0.00815526
0.00777908
0.00751102
0.00729531
0.0071023
0.00692372
0.00675492
0.00659094
0.00642954
0.00627003
0.00611183
0.00595357
0.00579342
0.00562799
0.00545334
0.00526982
0.00507167
0.0106785
0.00994461
0.0088517
0.00818571
0.0077831
0.00750931
0.00729806
0.00711173
0.00693715
0.00676955
0.00660635
0.00644572
0.00628597
0.00612594
0.0059651
0.00580209
0.00563258
0.00544621
0.00520915
0.00483178
0.00996186
0.00993015
0.00920191
0.00849138
0.00804499
0.00772897
0.00746995
0.00724212
0.00703724
0.00684838
0.00666991
0.00649792
0.00632898
0.00616086
0.00599211
0.00582024
0.00564108
0.00545005
0.00526218
0.00515681
0.00903639
0.00916257
0.00885967
0.00844343
0.00807625
0.00775757
0.00747892
0.00723829
0.0070254
0.00683035
0.00664627
0.00646974
0.00629843
0.00613013
0.00596262
0.00579384
0.00562189
0.00544518
0.00526937
0.00510835
0.00861804
0.00866154
0.00849597
0.00823303
0.00795265
0.00768131
0.00743031
0.00720394
0.00700091
0.00681425
0.00663694
0.00646597
0.00630005
0.00613782
0.00597802
0.00581992
0.00566342
0.0055093
0.00536108
0.00521706
0.00840211
0.00842394
0.00829674
0.00807925
0.00784686
0.00761777
0.00739506
0.00718208
0.00698162
0.00679481
0.00661919
0.00645167
0.00629093
0.00613563
0.00598513
0.00584108
0.00570525
0.00557855
0.00546421
0.005362
0.00840212
0.00842395
0.00829676
0.00807929
0.00784693
0.00761786
0.00739519
0.00718227
0.0069819
0.00679531
0.00662009
0.00645328
0.00629345
0.0061391
0.00599032
0.00584955
0.00571805
0.0055956
0.00548527
0.0053903
0.00861807
0.00866157
0.00849601
0.00823309
0.00795274
0.00768143
0.00743049
0.00720423
0.0070014
0.00681519
0.0066387
0.00646892
0.00630436
0.00614402
0.00598784
0.00583624
0.00568976
0.00554987
0.00542283
0.0053229
0.0090364
0.00916259
0.00885969
0.00844346
0.00807629
0.00775763
0.00747903
0.00723851
0.0070258
0.00683101
0.00664729
0.00647126
0.00630077
0.00613378
0.0059682
0.00580216
0.00563328
0.00545899
0.00528063
0.00510806
0.00996186
0.00993015
0.00920191
0.00849138
0.00804499
0.00772897
0.00746996
0.00724212
0.00703724
0.00684838
0.00666992
0.00649793
0.00632899
0.00616088
0.00599213
0.00582027
0.00564112
0.0054501
0.00526224
0.0051569
0.0106785
0.0099446
0.0088517
0.00818571
0.00778309
0.00750929
0.00729802
0.00711165
0.006937
0.00676927
0.00660589
0.00644496
0.00628457
0.00612332
0.00596074
0.00579513
0.00562176
0.00542834
0.00517491
0.00474451
0.0178572
0.0107428
0.00845137
0.00791353
0.00763914
0.00741689
0.00723016
0.00706359
0.00690223
0.00674245
0.00658427
0.00642741
0.0062705
0.00611185
0.00595116
0.00578695
0.00561712
0.00543451
0.00518318
0.00470411
0.0106785
0.0099446
0.00885169
0.0081857
0.00778308
0.00750928
0.00729801
0.00711164
0.00693699
0.00676926
0.00660588
0.00644494
0.00628455
0.0061233
0.00596071
0.0057951
0.00562173
0.00542829
0.00517486
0.00474442
0.0103302
0.00947868
0.0087144
0.00815525
0.00777907
0.00751101
0.0072953
0.00710228
0.00692371
0.00675491
0.00659093
0.00642952
0.00627002
0.00611181
0.00595355
0.00579339
0.00562795
0.0054533
0.00526976
0.0050716
0.00992094
0.00915821
0.00853944
0.00808812
0.00774415
0.00747514
0.00725556
0.00706679
0.00689902
0.00674167
0.00658612
0.00643101
0.00627716
0.00612527
0.00597582
0.00582959
0.00568818
0.00555422
0.00543565
0.00534838
0.00978676
0.00904557
0.0084574
0.00804929
0.00772737
0.00746071
0.00723926
0.00704876
0.00687825
0.00672195
0.00657274
0.00642397
0.00627519
0.00612885
0.00598787
0.00585564
0.00573741
0.00564053
0.00557907
0.00557488
0.00978676
0.00904558
0.00845741
0.00804931
0.0077274
0.00746074
0.00723933
0.00704888
0.00687845
0.0067223
0.00657334
0.006425
0.00627691
0.0061317
0.00599295
0.00586506
0.00575385
0.00566704
0.00562214
0.00564577
0.00992096
0.00915822
0.00853946
0.00808815
0.0077442
0.00747522
0.0072557
0.00706706
0.00689949
0.00674246
0.00658744
0.0064332
0.00628074
0.00613116
0.00598586
0.00584733
0.00571892
0.00560457
0.00551512
0.00546959
0.0103302
0.0094787
0.00871442
0.00815527
0.00777911
0.00751109
0.00729544
0.00710253
0.00692413
0.00675562
0.00659216
0.00643153
0.00627322
0.00611689
0.00596175
0.00580658
0.00564942
0.00548854
0.00532813
0.00517745
0.0106785
0.0099446
0.00885169
0.00818571
0.00778309
0.00750931
0.00729806
0.00711173
0.00693715
0.00676955
0.00660636
0.00644573
0.00628599
0.00612596
0.00596513
0.00580213
0.00563262
0.00544625
0.0052092
0.00483185
0.0178572
0.0107428
0.00845137
0.00791353
0.00763914
0.00741689
0.00723016
0.0070636
0.00690224
0.00674246
0.00658428
0.00642743
0.00627052
0.00611187
0.00595119
0.00578698
0.00561716
0.00543455
0.00518324
0.00470418
0.00563181
0.00492322
0.00443381
0.00430781
0.00421116
0.00408882
0.00396282
0.00383799
0.00371164
0.00358414
0.00345634
0.00332918
0.00320377
0.00307949
0.00295554
0.00283219
0.00271032
0.0025899
0.00247063
0.00235231
0.0022348
0.00211811
0.00200227
0.00188663
0.00177028
0.00165346
0.00153723
0.00142211
0.00130778
0.00119343
0.00107861
0.000963625
0.000849184
0.00073564
0.000622435
0.000508985
0.000395267
0.000281569
0.000168401
5.58189e-05
0.00570756
0.00500822
0.00450322
0.00431279
0.00419475
0.0040721
0.003948
0.00382546
0.00370145
0.00357594
0.00344961
0.0033237
0.0031993
0.00307572
0.00295228
0.00282938
0.00270796
0.00258784
0.00246883
0.00235076
0.00223345
0.00211687
0.00200109
0.0018856
0.00176934
0.00165256
0.00153638
0.00142139
0.00130718
0.00119288
0.00107814
0.000963203
0.000848843
0.000735446
0.000622315
0.000508891
0.000395184
0.000281543
0.000168393
5.58873e-05
0.00543317
0.00503167
0.00466334
0.00443921
0.00427312
0.0041198
0.00397786
0.00384413
0.00371325
0.00358387
0.00345528
0.00332813
0.00320251
0.00307754
0.00295328
0.00282993
0.00270832
0.00258785
0.00246865
0.0023505
0.00223313
0.0021166
0.00200076
0.00188502
0.00176853
0.00165174
0.00153577
0.00142106
0.00130697
0.00119259
0.00107767
0.000962723
0.000848507
0.00073525
0.000622307
0.000508893
0.000395069
0.000281399
0.00016834
5.59428e-05
0.00514487
0.00494717
0.00471102
0.00450629
0.00433207
0.00417337
0.00402366
0.00388031
0.00374147
0.00360582
0.00347286
0.00334224
0.00321332
0.00308579
0.00295971
0.00283527
0.00271269
0.0025914
0.00247149
0.00235284
0.00223513
0.00211851
0.00200238
0.00188586
0.0017688
0.00165201
0.00153624
0.00142163
0.0013075
0.00119282
0.00107757
0.00096265
0.000848607
0.000735478
0.000622601
0.000509034
0.000394958
0.000281273
0.000168296
5.59465e-05
0.00493638
0.00485227
0.00470007
0.00452569
0.00435803
0.0041995
0.00404818
0.00390223
0.0037599
0.00362092
0.00348525
0.0033523
0.0032213
0.00309201
0.00296472
0.00283941
0.00271592
0.00259402
0.00247364
0.00235468
0.00223682
0.00211987
0.0020035
0.00188664
0.00176926
0.00165247
0.00153674
0.0014221
0.0013079
0.00119301
0.00107759
0.000962698
0.000848684
0.000735572
0.000622713
0.000509045
0.000394889
0.00028123
0.000168283
5.59337e-05
0.00485924
0.00480386
0.00468682
0.00452685
0.00436226
0.00420455
0.00405344
0.00390805
0.00376581
0.00362639
0.00349007
0.00335656
0.00322519
0.00309556
0.00296788
0.00284215
0.00271824
0.00259598
0.00247529
0.0023561
0.00223813
0.00212113
0.00200468
0.00188767
0.00177007
0.00165315
0.00153737
0.0014227
0.00130845
0.0011934
0.00107779
0.0009628
0.000848782
0.000735681
0.000622816
0.000509108
0.000394884
0.000281199
0.000168248
5.59117e-05
0.00489017
0.00482413
0.00468951
0.00452115
0.00435471
0.00419738
0.00404839
0.00390457
0.00376352
0.00362524
0.00348985
0.00335707
0.00322603
0.0030965
0.00296883
0.00284308
0.00271909
0.00259679
0.00247608
0.0023569
0.00223893
0.00212207
0.00200585
0.00188877
0.00177104
0.00165393
0.00153796
0.00142326
0.00130909
0.00119397
0.00107816
0.000962948
0.000848823
0.000735698
0.00062285
0.000509234
0.000395063
0.00028128
0.000168223
5.58604e-05
0.00502504
0.00489191
0.00468601
0.00449454
0.00432926
0.00417762
0.00403226
0.00389093
0.00375283
0.00361735
0.00348424
0.00335293
0.00322271
0.00309376
0.00296646
0.00284116
0.00271746
0.00259565
0.00247545
0.00235644
0.00223857
0.00212183
0.00200588
0.00188905
0.00177142
0.00165416
0.00153809
0.00142342
0.00130929
0.00119426
0.00107845
0.000963018
0.000848635
0.000735281
0.000622306
0.000509238
0.000395624
0.000281747
0.000168419
5.58781e-05
0.00533433
0.00498923
0.00464911
0.00443147
0.00427498
0.00413403
0.00399718
0.00386393
0.0037323
0.00360117
0.00347087
0.00334135
0.00321342
0.0030867
0.00296085
0.00283648
0.00271356
0.00259251
0.00247284
0.00235429
0.00223674
0.0021203
0.00200461
0.00188836
0.00177121
0.00165404
0.00153781
0.00142297
0.00130891
0.00119422
0.00107869
0.000963191
0.000848574
0.000735088
0.000622158
0.000509135
0.000395664
0.000281856
0.000168418
5.58007e-05
0.005616
0.00498643
0.00453249
0.00436165
0.00424119
0.00410763
0.00397578
0.00384807
0.00372029
0.00359154
0.00346274
0.00333485
0.00320843
0.00308303
0.00295826
0.00283453
0.00271221
0.00259152
0.00247213
0.00235373
0.00223623
0.00211963
0.00200394
0.00188821
0.00177153
0.00165446
0.00153808
0.00142289
0.00130866
0.00119427
0.00107904
0.000963629
0.000848912
0.000735213
0.000622206
0.000509255
0.000395825
0.000282064
0.000168562
5.57992e-05
0.00563183
0.00492324
0.00443383
0.00430777
0.0042111
0.00408879
0.00396283
0.00383802
0.00371173
0.00358421
0.00345654
0.00332955
0.00320397
0.00307937
0.00295523
0.00283195
0.00271004
0.00258967
0.00247052
0.00235229
0.00223489
0.00211835
0.00200268
0.00188705
0.00177057
0.0016537
0.00153746
0.00142233
0.00130813
0.00119382
0.00107876
0.000963523
0.000848919
0.000735274
0.000622254
0.000509189
0.000395622
0.000281849
0.000168461
5.57347e-05
0.005616
0.00498644
0.00453251
0.00436171
0.0042413
0.00410772
0.00397582
0.00384806
0.0037202
0.00359146
0.00346242
0.00333432
0.003208
0.00308284
0.00295833
0.00283451
0.00271224
0.00259154
0.00247205
0.00235357
0.00223598
0.00211926
0.00200337
0.00188767
0.00177123
0.00165433
0.00153803
0.00142289
0.00130851
0.00119402
0.00107912
0.000964043
0.00084954
0.000735983
0.00062266
0.000509027
0.000395215
0.000281512
0.000168301
5.57655e-05
0.00542621
0.00499173
0.00463185
0.00441569
0.0042565
0.00411015
0.00397215
0.00384086
0.00371156
0.00358302
0.00345487
0.00332812
0.00320312
0.00307895
0.00295544
0.00283227
0.00271066
0.00259031
0.00247106
0.0023528
0.00223534
0.00211883
0.00200308
0.00188733
0.00177076
0.00165383
0.00153762
0.00142266
0.00130841
0.0011939
0.00107889
0.000963788
0.000849316
0.000735902
0.000622941
0.000509389
0.00039532
0.000281446
0.00016824
5.58073e-05
0.00520269
0.00494449
0.00470019
0.00448623
0.00430595
0.00414442
0.00399418
0.00385266
0.00371665
0.00358399
0.00345385
0.00332596
0.0032001
0.0030755
0.00295151
0.00282864
0.00270735
0.00258737
0.0024684
0.00235035
0.00223314
0.00211711
0.00200138
0.00188472
0.00176767
0.00165142
0.00153605
0.00142151
0.00130742
0.00119274
0.00107771
0.000963079
0.000849055
0.000735752
0.0006228
0.000509235
0.000395183
0.000281529
0.000168519
5.60197e-05
0.00505411
0.00487384
0.00468568
0.00449495
0.00432141
0.00416189
0.00401059
0.00386593
0.00372711
0.0035923
0.00346051
0.00333112
0.00320355
0.00307763
0.00295317
0.00283022
0.00270864
0.00258848
0.00246917
0.00235078
0.00223334
0.00211674
0.00200038
0.00188352
0.00176683
0.00165106
0.00153591
0.00142126
0.0013069
0.00119216
0.00107736
0.00096315
0.000849402
0.000735975
0.000622703
0.000509084
0.000395298
0.000281899
0.000168915
5.61795e-05
0.00488056
0.00473026
0.00460155
0.00445072
0.00429689
0.00414893
0.00400529
0.003865
0.0037283
0.00359458
0.00346312
0.00333361
0.00320599
0.00307999
0.00295541
0.00283215
0.00271009
0.00258934
0.00246989
0.00235158
0.00223402
0.00211693
0.00200009
0.00188331
0.00176696
0.0016513
0.00153616
0.00142134
0.00130666
0.00119193
0.0010774
0.000963317
0.000849611
0.000736088
0.000622605
0.000509021
0.000395467
0.000282166
0.000169137
5.62778e-05
0.00478059
0.00464489
0.00455118
0.00442216
0.00427948
0.00413932
0.00400192
0.00386507
0.00372986
0.00359679
0.00346557
0.00333614
0.00320849
0.00308235
0.00295752
0.002834
0.00271178
0.00259081
0.00247106
0.00235258
0.00223501