/*--------------------------------*- C++ -*----------------------------------*\
| =========                 |                                                 |
| \\      /  F ield         | OpenFOAM: The Open Source CFD Toolbox           |
|  \\    /   O peration     | Version:  2212                                  |
|   \\  /    A nd           | Website:  www.openfoam.com                      |
|    \\/     M anipulation  |                                                 |
\*---------------------------------------------------------------------------*/
FoamFile
{
    version     2.0;
    format      ascii;
    arch        "LSB;label=32;scalar=64";
    class       surfaceScalarField;
    location    "0.7";
    object      phi;
}
// * * * * * * * * * * * * * * * * * * * * * * * * * * * * * * * * * * * * * //

dimensions      [0 3 -1 0 0 0 0];

oriented        oriented;

internalField   nonuniform List<scalar> 
19019
(
3.3225e-07
1.09685e-09
1.09679e-09
2.79191e-07
2.65294e-08
2.65295e-08
2.49218e-07
1.49862e-08
1.49863e-08
2.29255e-07
9.98166e-09
9.98182e-09
2.14835e-07
7.20926e-09
7.21e-09
2.032e-07
5.81702e-09
5.81814e-09
1.93773e-07
4.71225e-09
4.71486e-09
1.86006e-07
3.88094e-09
3.88579e-09
1.79359e-07
3.31919e-09
3.32785e-09
1.73533e-07
2.90538e-09
2.92059e-09
1.68366e-07
2.57138e-09
2.59626e-09
1.63752e-07
2.2861e-09
2.32705e-09
1.59606e-07
2.03635e-09
2.10976e-09
1.55861e-07
1.80281e-09
1.94227e-09
1.52539e-07
1.54186e-09
1.7798e-09
1.49698e-07
1.23218e-09
1.60892e-09
1.47516e-07
8.07316e-10
1.37454e-09
1.47238e-07
-2.52663e-10
5.30893e-10
1.51112e-07
-2.58588e-09
-1.28894e-09
-2.55004e-08
-1.75185e-08
6.3138e-07
3.58746e-09
7.4029e-09
6.14564e-07
2.26451e-08
2.07005e-08
5.86446e-07
2.43749e-08
1.87295e-08
5.61727e-07
1.88529e-08
1.58475e-08
5.3962e-07
1.55658e-08
1.37501e-08
5.20641e-07
1.3504e-08
1.12921e-08
5.04698e-07
1.19411e-08
8.71392e-09
4.90951e-07
1.07815e-08
6.84734e-09
4.78738e-07
9.91628e-09
5.61541e-09
4.67671e-07
9.18562e-09
4.78696e-09
4.57517e-07
8.52651e-09
4.19861e-09
4.4814e-07
7.90754e-09
3.75554e-09
4.39444e-07
7.30494e-09
3.42741e-09
4.31369e-07
6.69089e-09
3.18656e-09
4.2392e-07
6.00632e-09
2.98453e-09
4.17257e-07
5.13559e-09
2.7589e-09
4.11834e-07
3.85452e-09
2.37578e-09
4.09267e-07
1.21877e-09
1.0958e-09
4.14089e-07
-4.27333e-09
-3.13468e-09
-2.24665e-08
-2.25527e-08
8.90375e-07
2.85246e-09
6.33236e-09
8.82486e-07
1.34078e-08
1.7126e-08
8.70359e-07
1.78658e-08
1.86365e-08
8.55111e-07
1.69524e-08
1.71482e-08
8.39979e-07
1.53354e-08
1.5362e-08
8.25529e-07
1.41619e-08
1.37928e-08
8.11757e-07
1.33656e-08
1.23474e-08
7.98757e-07
1.26512e-08
1.113e-08
7.86675e-07
1.18463e-08
1.01514e-08
7.7552e-07
1.09737e-08
9.3677e-09
7.65146e-07
1.012e-08
8.77983e-09
7.554e-07
9.29329e-09
8.36013e-09
7.46155e-07
8.48334e-09
8.06669e-09
7.3734e-07
7.64965e-09
7.85581e-09
7.28938e-07
6.69944e-09
7.70871e-09
7.21008e-07
5.48106e-09
7.58437e-09
7.1367e-07
3.78261e-09
7.41036e-09
7.06816e-07
1.07465e-09
6.99772e-09
6.99902e-07
-3.6147e-09
6.25497e-09
-9.42423e-09
4.47866e-09
1.07432e-06
1.06474e-09
5.56888e-09
1.06824e-06
5.58629e-09
1.39003e-08
1.06138e-06
8.46359e-09
1.62622e-08
1.05338e-06
9.03914e-09
1.59102e-08
1.04509e-06
8.61684e-09
1.5005e-08
1.0372e-06
8.11892e-09
1.39382e-08
1.02979e-06
7.78395e-09
1.29849e-08
1.02277e-06
7.54992e-09
1.21273e-08
1.01589e-06
7.36202e-09
1.13653e-08
1.00906e-06
7.07138e-09
1.07261e-08
1.00231e-06
6.62134e-09
1.02536e-08
9.95568e-07
6.10495e-09
9.92953e-09
9.88734e-07
5.58077e-09
9.73648e-09
9.81653e-07
5.05094e-09
9.67959e-09
9.74091e-07
4.48824e-09
9.77276e-09
9.65711e-07
3.80026e-09
1.00608e-08
9.55916e-07
2.93067e-09
1.06465e-08
9.4374e-07
1.6099e-09
1.1641e-08
9.27831e-07
-5.04117e-10
1.27981e-08
-1.86224e-09
1.75233e-08
1.16914e-06
3.37614e-14
4.90658e-09
1.16312e-06
1.89607e-13
1.16086e-08
1.15731e-06
5.15084e-13
1.42759e-08
1.15201e-06
9.7767e-13
1.43349e-08
1.14689e-06
1.75593e-12
1.37339e-08
1.14203e-06
3.22725e-12
1.29759e-08
1.1377e-06
6.01193e-12
1.21108e-08
1.13391e-06
1.06773e-11
1.13243e-08
1.13058e-06
1.87099e-11
1.06767e-08
1.12739e-06
3.2104e-11
1.02339e-08
1.12399e-06
5.44775e-11
9.96607e-09
1.12019e-06
9.16365e-11
9.80722e-09
1.11584e-06
1.53651e-10
9.78008e-09
1.1107e-06
2.60207e-10
9.93529e-09
1.10442e-06
4.42502e-10
1.03168e-08
1.09646e-06
7.33184e-10
1.10288e-08
1.08587e-06
1.23294e-09
1.22904e-08
1.07103e-06
2.05764e-09
1.43939e-08
1.04954e-06
3.47128e-09
1.75152e-08
6.9395e-09
2.62514e-08
1.16914e-06
-1.06465e-09
4.90657e-09
1.16312e-06
-5.58596e-09
1.16086e-08
1.15731e-06
-8.46296e-09
1.4276e-08
1.15201e-06
-9.03806e-09
1.43347e-08
1.1469e-06
-8.61458e-09
1.3733e-08
1.14204e-06
-8.11429e-09
1.2974e-08
1.13771e-06
-7.77511e-09
1.21077e-08
1.13394e-06
-7.53416e-09
1.1319e-08
1.13062e-06
-7.33376e-09
1.06675e-08
1.12746e-06
-7.02388e-09
1.02179e-08
1.12412e-06
-6.54317e-09
9.93948e-09
1.12043e-06
-5.97806e-09
9.76231e-09
1.11625e-06
-5.372e-09
9.69973e-09
1.11143e-06
-4.70034e-09
9.78574e-09
1.10573e-06
-3.91387e-09
1.00523e-08
1.09873e-06
-2.83219e-09
1.05647e-08
1.08973e-06
-1.25497e-09
1.14908e-08
1.07761e-06
1.15821e-09
1.30161e-08
1.06089e-06
4.94802e-09
1.52436e-08
1.16013e-08
1.92277e-08
1.07432e-06
-2.85248e-09
5.5689e-09
1.06824e-06
-1.34079e-08
1.39003e-08
1.06138e-06
-1.78659e-08
1.62619e-08
1.05338e-06
-1.69527e-08
1.59091e-08
1.0451e-06
-1.53354e-08
1.50028e-08
1.03721e-06
-1.41613e-08
1.39346e-08
1.02982e-06
-1.33641e-08
1.29795e-08
1.02282e-06
-1.26489e-08
1.21186e-08
1.01598e-06
-1.18421e-08
1.13505e-08
1.00922e-06
-1.09667e-08
1.07e-08
1.00258e-06
-1.01095e-08
1.02086e-08
9.96028e-07
-9.27767e-09
9.84996e-09
9.89516e-07
-8.45927e-09
9.59901e-09
9.82984e-07
-7.61153e-09
9.44269e-09
9.76351e-07
-6.64515e-09
9.36435e-09
9.69533e-07
-5.34861e-09
9.33469e-09
9.62431e-07
-3.4965e-09
9.34318e-09
9.54688e-07
-5.16156e-10
9.41772e-09
9.45552e-07
4.46694e-09
9.61659e-09
1.39469e-08
9.84822e-09
8.90375e-07
-3.58748e-09
6.33233e-09
8.82486e-07
-2.26454e-08
1.71257e-08
8.7036e-07
-2.43752e-08
1.86356e-08
8.55114e-07
-1.88534e-08
1.71467e-08
8.39986e-07
-1.55671e-08
1.53599e-08
8.25541e-07
-1.35062e-08
1.37899e-08
8.11779e-07
-1.19449e-08
1.23428e-08
7.98796e-07
-1.07879e-08
1.11217e-08
7.86743e-07
-9.92714e-09
1.0138e-08
7.75636e-07
-9.20454e-09
9.34552e-09
7.65343e-07
-8.5594e-09
8.74262e-09
7.55729e-07
-7.96074e-09
8.29634e-09
7.46698e-07
-7.3881e-09
7.9599e-09
7.38231e-07
-6.82677e-09
7.68245e-09
7.30394e-07
-6.22376e-09
7.41582e-09
7.2348e-07
-5.48358e-09
7.04889e-09
7.17934e-07
-4.36709e-09
6.41687e-09
7.14089e-07
-1.73377e-09
5.06222e-09
7.1233e-07
3.49908e-09
2.72743e-09
1.86737e-08
-3.05508e-09
6.3138e-07
-1.09679e-09
7.40286e-09
6.14564e-07
-2.65295e-08
2.07003e-08
5.86446e-07
-1.49863e-08
1.87291e-08
5.61728e-07
-9.9818e-09
1.58467e-08
5.39622e-07
-7.20997e-09
1.37489e-08
5.20644e-07
-5.81811e-09
1.12898e-08
5.04704e-07
-4.71483e-09
8.71021e-09
4.9096e-07
-3.88575e-09
6.84118e-09
4.78756e-07
-3.32779e-09
5.60497e-09
4.67703e-07
-2.92052e-09
4.76887e-09
4.57577e-07
-2.59618e-09
4.16309e-09
4.48249e-07
-2.32695e-09
3.69401e-09
4.39628e-07
-2.10966e-09
3.34181e-09
4.31656e-07
-1.94213e-09
3.08775e-09
4.24372e-07
-1.77963e-09
2.83966e-09
4.17984e-07
-1.60864e-09
2.51292e-09
4.13105e-07
-1.37418e-09
1.88682e-09
4.11814e-07
-5.30201e-10
8.69766e-11
4.18835e-07
1.28967e-09
-4.81184e-09
1.75212e-08
-2.21915e-08
3.3225e-07
1.09685e-09
2.79191e-07
2.65294e-08
2.49218e-07
1.49862e-08
2.29255e-07
9.98167e-09
2.14835e-07
7.20928e-09
2.032e-07
5.81703e-09
1.93773e-07
4.71228e-09
1.86006e-07
3.88096e-09
1.79359e-07
3.31922e-09
1.73533e-07
2.90541e-09
1.68366e-07
2.57141e-09
1.63753e-07
2.28612e-09
1.59607e-07
2.03636e-09
1.55862e-07
1.80283e-09
1.5254e-07
1.54195e-09
1.49699e-07
1.23229e-09
1.47518e-07
8.07442e-10
1.4724e-07
-2.52531e-10
1.51115e-07
-2.58576e-09
-2.55012e-08
6.3138e-07
7.40286e-09
3.58749e-09
6.14564e-07
2.07002e-08
2.26454e-08
5.86446e-07
1.87291e-08
2.43752e-08
5.61728e-07
1.58467e-08
1.88534e-08
5.39622e-07
1.37489e-08
1.55671e-08
5.20644e-07
1.12898e-08
1.35062e-08
5.04703e-07
8.71021e-09
1.1945e-08
4.9096e-07
6.84119e-09
1.0788e-08
4.78756e-07
5.60498e-09
9.92727e-09
4.67703e-07
4.76889e-09
9.2047e-09
4.57576e-07
4.16312e-09
8.55961e-09
4.48248e-07
3.69408e-09
7.96101e-09
4.39628e-07
3.3419e-09
7.38841e-09
4.31655e-07
3.08789e-09
6.82721e-09
4.2437e-07
2.83975e-09
6.2244e-09
4.17982e-07
2.51294e-09
5.48457e-09
4.13101e-07
1.88679e-09
4.36835e-09
4.11809e-07
8.70038e-11
1.73583e-09
4.18828e-07
-4.81212e-09
-3.49618e-09
-2.21901e-08
-1.86692e-08
9.23617e-07
7.03373e-09
7.0338e-09
9.25318e-07
1.98493e-08
1.98496e-08
9.17185e-07
2.27959e-08
2.27964e-08
9.04276e-07
2.23007e-08
2.23018e-08
8.90536e-07
2.06187e-08
2.06205e-08
8.77414e-07
1.78504e-08
1.78538e-08
8.65449e-07
1.46918e-08
1.46976e-08
8.54778e-07
1.21749e-08
1.21841e-08
8.45351e-07
1.03155e-08
1.03318e-08
8.37028e-07
8.92532e-09
8.95384e-09
8.29631e-07
7.85511e-09
7.90387e-09
8.22987e-07
7.00625e-09
7.08662e-09
8.17021e-07
6.30452e-09
6.43133e-09
8.11769e-07
5.66381e-09
5.86241e-09
8.07326e-07
4.9772e-09
5.28974e-09
8.0383e-07
4.14662e-09
4.62134e-09
8.01449e-07
2.96743e-09
3.67601e-09
7.99562e-07
1.01842e-09
2.05123e-09
7.949e-07
-2.24327e-09
-1.04071e-09
-7.82702e-09
-6.46757e-09
1.1589e-06
5.28114e-09
6.10257e-09
1.1657e-06
1.39981e-08
1.61829e-08
1.16844e-06
1.79768e-08
2.07067e-08
1.16661e-06
1.91771e-08
2.21052e-08
1.16221e-06
1.88733e-08
2.15069e-08
1.15654e-06
1.75401e-08
1.97722e-08
1.15048e-06
1.56755e-08
1.7429e-08
1.14458e-06
1.3869e-08
1.53361e-08
1.13915e-06
1.2254e-08
1.3641e-08
1.13432e-06
1.08332e-08
1.22874e-08
1.1301e-06
9.63942e-09
1.12187e-08
1.12645e-06
8.63136e-09
1.03844e-08
1.12336e-06
7.73397e-09
9.72757e-09
1.12083e-06
6.86557e-09
9.18671e-09
1.11886e-06
5.93716e-09
8.71873e-09
1.11748e-06
4.84774e-09
8.25795e-09
1.1167e-06
3.4397e-09
7.71582e-09
1.11631e-06
1.47759e-09
6.92956e-09
1.11603e-06
-1.37153e-09
5.66432e-09
-5.35492e-09
4.04246e-09
1.32762e-06
2.71813e-09
4.93116e-09
1.33539e-06
7.12053e-09
1.30092e-08
1.34286e-06
9.55286e-09
1.72165e-08
1.34847e-06
1.05772e-08
1.89016e-08
1.35197e-06
1.08741e-08
1.95063e-08
1.35375e-06
1.05786e-08
1.91236e-08
1.3544e-06
9.8882e-09
1.8114e-08
1.35453e-06
9.03965e-09
1.68324e-08
1.35447e-06
8.18322e-09
1.54964e-08
1.35436e-06
7.37842e-09
1.42853e-08
1.35427e-06
6.6513e-09
1.33338e-08
1.35422e-06
5.99849e-09
1.26136e-08
1.3542e-06
5.39571e-09
1.20911e-08
1.35419e-06
4.81141e-09
1.17472e-08
1.35412e-06
4.19966e-09
1.15793e-08
1.35389e-06
3.52659e-09
1.16087e-08
1.35335e-06
2.73688e-09
1.18915e-08
1.3522e-06
1.78088e-09
1.2488e-08
1.34957e-06
6.49038e-10
1.34087e-08
-1.46262e-10
1.50118e-08
1.41518e-06
8.80262e-14
4.19297e-09
1.42279e-06
2.63286e-13
1.11163e-08
1.43152e-06
4.5436e-13
1.50994e-08
1.4398e-06
9.01501e-13
1.66314e-08
1.44712e-06
1.806e-12
1.72805e-08
1.45316e-06
3.34023e-12
1.75191e-08
1.45798e-06
5.70343e-12
1.71675e-08
1.46188e-06
9.53646e-12
1.64591e-08
1.46514e-06
1.6383e-11
1.55844e-08
1.46799e-06
2.89867e-11
1.47241e-08
1.47062e-06
5.02024e-11
1.39448e-08
1.47303e-06
8.58509e-11
1.33062e-08
1.47516e-06
1.38695e-10
1.29052e-08
1.47694e-06
2.18082e-10
1.27532e-08
1.4783e-06
3.46023e-10
1.28089e-08
1.47915e-06
5.40282e-10
1.31608e-08
1.47941e-06
8.35477e-10
1.39333e-08
1.47906e-06
1.2703e-09
1.5252e-08
1.47822e-06
1.89816e-09
1.71065e-08
2.85861e-09
1.91898e-08
1.41518e-06
-2.71803e-09
4.19292e-09
1.42279e-06
-7.12027e-09
1.11162e-08
1.43152e-06
-9.55239e-09
1.50992e-08
1.4398e-06
-1.05763e-08
1.66308e-08
1.44713e-06
-1.08721e-08
1.7279e-08
1.45316e-06
-1.05748e-08
1.75164e-08
1.458e-06
-9.88168e-09
1.71628e-08
1.4619e-06
-9.02858e-09
1.64517e-08
1.46518e-06
-8.16415e-09
1.55731e-08
1.46806e-06
-7.34312e-09
1.47052e-08
1.47073e-06
-6.58952e-09
1.39124e-08
1.47322e-06
-5.8942e-09
1.32483e-08
1.47549e-06
-5.23831e-09
1.28042e-08
1.47748e-06
-4.56877e-09
1.25915e-08
1.47912e-06
-3.80758e-09
1.25636e-08
1.48037e-06
-2.88698e-09
1.27422e-08
1.48114e-06
-1.69477e-09
1.32448e-08
1.48141e-06
-1.27514e-10
1.41522e-08
1.48114e-06
2.00996e-09
1.54017e-08
4.60029e-09
1.66515e-08
1.32763e-06
-5.2812e-09
4.93106e-09
1.33539e-06
-1.39982e-08
1.30088e-08
1.34287e-06
-1.7977e-08
1.72157e-08
1.34848e-06
-1.91774e-08
1.88995e-08
1.35198e-06
-1.88738e-08
1.95023e-08
1.35376e-06
-1.75413e-08
1.91173e-08
1.35443e-06
-1.56769e-08
1.81042e-08
1.35458e-06
-1.38703e-08
1.68169e-08
1.35455e-06
-1.22569e-08
1.54727e-08
1.3545e-06
-1.0839e-08
1.42469e-08
1.3545e-06
-9.65009e-09
1.32673e-08
1.3546e-06
-8.65214e-09
1.25016e-08
1.35484e-06
-7.77871e-09
1.1908e-08
1.35521e-06
-6.9506e-09
1.14501e-08
1.35575e-06
-6.07299e-09
1.10929e-08
1.35643e-06
-5.04323e-09
1.08064e-08
1.35721e-06
-3.70094e-09
1.05704e-08
1.35796e-06
-1.83727e-09
1.03748e-08
1.35856e-06
8.0039e-10
1.02271e-08
4.48538e-09
1.01476e-08
1.1589e-06
-7.03379e-09
6.10243e-09
1.1657e-06
-1.98496e-08
1.61823e-08
1.16845e-06
-2.27964e-08
2.07053e-08
1.16661e-06
-2.23017e-08
2.21028e-08
1.16222e-06
-2.06205e-08
2.15034e-08
1.15655e-06
-1.78538e-08
1.97673e-08
1.1505e-06
-1.46975e-08
1.74211e-08
1.14461e-06
-1.2184e-08
1.53222e-08
1.1392e-06
-1.03316e-08
1.36173e-08
1.13442e-06
-8.95364e-09
1.22482e-08
1.13026e-06
-7.9036e-09
1.1154e-08
1.12671e-06
-7.08624e-09
1.02801e-08
1.12376e-06
-6.43079e-09
9.56148e-09
1.12143e-06
-5.86174e-09
8.92654e-09
1.11975e-06
-5.28898e-09
8.31097e-09
1.11876e-06
-4.62035e-09
7.61441e-09
1.11846e-06
-3.67467e-09
6.68552e-09
1.11842e-06
-2.04923e-09
5.31954e-09
1.1176e-06
1.04337e-09
3.29836e-09
6.47254e-09
7.39237e-10
9.23617e-07
-7.4029e-09
7.03373e-09
9.25318e-07
-2.07005e-08
1.98493e-08
9.17185e-07
-1.87295e-08
2.27959e-08
9.04276e-07
-1.58475e-08
2.23007e-08
8.90536e-07
-1.37501e-08
2.06187e-08
8.77414e-07
-1.12921e-08
1.78503e-08
8.65449e-07
-8.71389e-09
1.46918e-08
8.54778e-07
-6.8473e-09
1.21749e-08
8.45352e-07
-5.61536e-09
1.03155e-08
8.37028e-07
-4.7869e-09
8.92528e-09
8.29631e-07
-4.19852e-09
7.85504e-09
8.22988e-07
-3.75541e-09
7.00612e-09
8.17022e-07
-3.42721e-09
6.30429e-09
8.11771e-07
-3.18636e-09
5.66352e-09
8.07329e-07
-2.98438e-09
4.97694e-09
8.03834e-07
-2.75876e-09
4.14632e-09
8.01455e-07
-2.3756e-09
2.96698e-09
7.99571e-07
-1.0955e-09
1.01756e-09
7.94912e-07
3.13505e-09
-2.24461e-09
2.25546e-08
-7.82993e-09
6.3138e-07
3.58747e-09
6.14564e-07
2.26452e-08
5.86446e-07
2.43749e-08
5.61727e-07
1.88529e-08
5.3962e-07
1.55658e-08
5.20641e-07
1.3504e-08
5.04699e-07
1.19411e-08
4.90951e-07
1.07815e-08
4.78738e-07
9.91627e-09
4.67671e-07
9.18561e-09
4.57518e-07
8.52649e-09
4.48141e-07
7.90748e-09
4.39445e-07
7.30484e-09
4.31371e-07
6.69074e-09
4.23922e-07
6.00606e-09
4.1726e-07
5.13524e-09
4.11838e-07
3.85384e-09
4.09273e-07
1.21778e-09
4.14097e-07
-4.27487e-09
-2.24697e-08
8.90375e-07
6.33233e-09
2.85249e-09
8.82486e-07
1.71257e-08
1.34079e-08
8.7036e-07
1.86356e-08
1.78659e-08
8.55114e-07
1.71467e-08
1.69527e-08
8.39986e-07
1.53599e-08
1.53354e-08
8.25541e-07
1.37899e-08
1.41613e-08
8.11779e-07
1.23428e-08
1.33642e-08
7.98796e-07
1.11217e-08
1.26491e-08
7.86743e-07
1.0138e-08
1.18423e-08
7.75635e-07
9.34554e-09
1.0967e-08
7.65342e-07
8.74264e-09
1.01099e-08
7.55729e-07
8.29637e-09
9.27817e-09
7.46697e-07
7.95994e-09
8.45993e-09
7.3823e-07
7.68251e-09
7.61243e-09
7.30392e-07
7.41595e-09
6.64637e-09
7.23477e-07
7.04915e-09
5.35044e-09
7.17929e-07
6.41724e-09
3.49878e-09
7.14083e-07
5.06285e-09
5.18969e-10
7.12322e-07
2.72816e-09
-4.46264e-09
-3.0546e-09
-1.39415e-08
1.1589e-06
6.10243e-09
5.28121e-09
1.1657e-06
1.61823e-08
1.39982e-08
1.16845e-06
2.07053e-08
1.7977e-08
1.16661e-06
2.21028e-08
1.91774e-08
1.16222e-06
2.15034e-08
1.88739e-08
1.15655e-06
1.97673e-08
1.75413e-08
1.15049e-06
1.74211e-08
1.5677e-08
1.14461e-06
1.53222e-08
1.38704e-08
1.1392e-06
1.36173e-08
1.22571e-08
1.13442e-06
1.22482e-08
1.08393e-08
1.13026e-06
1.11541e-08
9.65053e-09
1.12671e-06
1.02802e-08
8.65275e-09
1.12376e-06
9.56168e-09
7.77954e-09
1.12142e-06
8.92678e-09
6.95169e-09
1.11974e-06
8.31127e-09
6.07438e-09
1.11875e-06
7.61484e-09
5.0451e-09
1.11846e-06
6.6862e-09
3.70343e-09
1.11841e-06
5.32059e-09
1.84065e-09
1.11759e-06
3.2999e-09
-7.957e-10
7.41403e-10
-4.47941e-09
1.37712e-06
4.57703e-09
4.57718e-09
1.38565e-06
1.19162e-08
1.19167e-08
1.39417e-06
1.64453e-08
1.64462e-08
1.40126e-06
1.85577e-08
1.85593e-08
1.40642e-06
1.89257e-08
1.89283e-08
1.40953e-06
1.82152e-08
1.82191e-08
1.41096e-06
1.67044e-08
1.6711e-08
1.41156e-06
1.50242e-08
1.50345e-08
1.41186e-06
1.34686e-08
1.34854e-08
1.41215e-06
1.21124e-08
1.21395e-08
1.41259e-06
1.09428e-08
1.09865e-08
1.41331e-06
9.9368e-09
1.00068e-08
1.41438e-06
9.05334e-09
9.16639e-09
1.41584e-06
8.23953e-09
8.41983e-09
1.41769e-06
7.44805e-09
7.72553e-09
1.41993e-06
6.61183e-09
7.02831e-09
1.4224e-06
5.65568e-09
6.26888e-09
1.42474e-06
4.51746e-09
5.39506e-09
1.42607e-06
3.209e-09
4.42108e-09
2.08762e-09
3.71467e-09
1.53312e-06
2.36588e-09
3.64938e-09
1.54218e-06
6.23841e-09
9.63409e-09
1.55327e-06
8.87267e-09
1.36923e-08
1.56445e-06
1.03461e-08
1.59379e-08
1.57507e-06
1.08981e-08
1.69141e-08
1.58471e-06
1.07522e-08
1.69494e-08
1.593e-06
1.01398e-08
1.63831e-08
1.60008e-06
9.32569e-09
1.54571e-08
1.60623e-06
8.45123e-09
1.43614e-08
1.61172e-06
7.62596e-09
1.32768e-08
1.6168e-06
6.89344e-09
1.2302e-08
1.62164e-06
6.25175e-09
1.14661e-08
1.62633e-06
5.6749e-09
1.0775e-08
1.63097e-06
5.12958e-09
1.02224e-08
1.6356e-06
4.59651e-09
9.79845e-09
1.64027e-06
4.05389e-09
9.49908e-09
1.64501e-06
3.47648e-09
9.32857e-09
1.64989e-06
2.84096e-09
9.28792e-09
1.65502e-06
2.15123e-09
9.33332e-09
1.53349e-09
9.46633e-09
1.61424e-06
7.15418e-14
3.09295e-09
1.62332e-06
1.70226e-13
8.27437e-09
1.63533e-06
3.07144e-13
1.19579e-08
1.64819e-06
5.80877e-13
1.41159e-08
1.66117e-06
1.10223e-12
1.5203e-08
1.67385e-06
1.84425e-12
1.55875e-08
1.68572e-06
3.15225e-12
1.54367e-08
1.69653e-06
5.09499e-12
1.49689e-08
1.70625e-06
8.5554e-12
1.43013e-08
1.71505e-06
1.45303e-11
1.35377e-08
1.72309e-06
2.41087e-11
1.27706e-08
1.73054e-06
3.86435e-11
1.20725e-08
1.73756e-06
5.87786e-11
1.14988e-08
1.74428e-06
8.69927e-11
1.10848e-08
1.7507e-06
1.30287e-10
1.08534e-08
1.75689e-06
2.05846e-10
1.08184e-08
1.76299e-06
3.11853e-10
1.09996e-08
1.76922e-06
4.52037e-10
1.14021e-08
1.77591e-06
6.20997e-10
1.19512e-08
8.30089e-10
1.24866e-08
1.61424e-06
-2.36583e-09
3.09288e-09
1.62332e-06
-6.23833e-09
8.27413e-09
1.63533e-06
-8.87252e-09
1.19574e-08
1.6482e-06
-1.03458e-08
1.41149e-08
1.66117e-06
-1.08977e-08
1.5201e-08
1.67386e-06
-1.07516e-08
1.55843e-08
1.68573e-06
-1.01386e-08
1.54322e-08
1.69655e-06
-9.32357e-09
1.4962e-08
1.70629e-06
-8.44749e-09
1.42907e-08
1.7151e-06
-7.61835e-09
1.35207e-08
1.72318e-06
-6.87897e-09
1.27429e-08
1.73066e-06
-6.22659e-09
1.20271e-08
1.73774e-06
-5.63719e-09
1.14252e-08
1.74452e-06
-5.0765e-09
1.09688e-08
1.75106e-06
-4.51334e-09
1.06745e-08
1.75737e-06
-3.90723e-09
1.05412e-08
1.76357e-06
-3.22485e-09
1.05799e-08
1.76981e-06
-2.42318e-09
1.07865e-08
1.77622e-06
-1.48203e-09
1.10957e-08
-4.79275e-10
1.13575e-08
1.53312e-06
-4.57718e-09
3.64919e-09
1.54218e-06
-1.19167e-08
9.6335e-09
1.55328e-06
-1.64462e-08
1.36912e-08
1.56445e-06
-1.85592e-08
1.59357e-08
1.57508e-06
-1.89282e-08
1.69104e-08
1.58472e-06
-1.8219e-08
1.69436e-08
1.59302e-06
-1.67109e-08
1.63743e-08
1.6001e-06
-1.50343e-08
1.54428e-08
1.60628e-06
-1.34852e-08
1.43393e-08
1.6118e-06
-1.21391e-08
1.32424e-08
1.61693e-06
-1.0986e-08
1.22464e-08
1.62183e-06
-1.00062e-08
1.13768e-08
1.62664e-06
-9.16557e-09
1.06298e-08
1.63144e-06
-8.41878e-09
9.98853e-09
1.63632e-06
-7.7242e-09
9.4296e-09
1.64132e-06
-7.02657e-09
8.92533e-09
1.64648e-06
-6.26655e-09
8.45118e-09
1.65184e-06
-5.39194e-09
7.98697e-09
1.65747e-06
-4.41698e-09
7.52363e-09
-3.70967e-09
7.14916e-09
1.37712e-06
-6.10257e-09
4.57703e-09
1.38565e-06
-1.61829e-08
1.19162e-08
1.39417e-06
-2.07067e-08
1.64453e-08
1.40126e-06
-2.21052e-08
1.85577e-08
1.40642e-06
-2.15069e-08
1.89257e-08
1.40953e-06
-1.97722e-08
1.82152e-08
1.41096e-06
-1.7429e-08
1.67044e-08
1.41156e-06
-1.5336e-08
1.50242e-08
1.41186e-06
-1.36409e-08
1.34685e-08
1.41215e-06
-1.22872e-08
1.21124e-08
1.41259e-06
-1.12185e-08
1.09427e-08
1.41331e-06
-1.0384e-08
9.9366e-09
1.41438e-06
-9.72704e-09
9.05303e-09
1.41584e-06
-9.18605e-09
8.23912e-09
1.4177e-06
-8.71793e-09
7.44751e-09
1.41993e-06
-8.25688e-09
6.61105e-09
1.42241e-06
-7.71434e-09
5.65449e-09
1.42475e-06
-6.92748e-09
4.51566e-09
1.42608e-06
-5.66143e-09
3.20638e-09
-4.03881e-09
2.08416e-09
1.1589e-06
-6.33236e-09
5.28114e-09
1.1657e-06
-1.7126e-08
1.39981e-08
1.16845e-06
-1.86365e-08
1.79768e-08
1.16661e-06
-1.71482e-08
1.91771e-08
1.16221e-06
-1.5362e-08
1.88733e-08
1.15654e-06
-1.37928e-08
1.75401e-08
1.15048e-06
-1.23474e-08
1.56755e-08
1.14458e-06
-1.113e-08
1.38689e-08
1.13915e-06
-1.01514e-08
1.22539e-08
1.13432e-06
-9.36762e-09
1.08332e-08
1.1301e-06
-8.77973e-09
9.63929e-09
1.12645e-06
-8.35999e-09
8.63114e-09
1.12336e-06
-8.0665e-09
7.73363e-09
1.12083e-06
-7.85558e-09
6.86512e-09
1.11886e-06
-7.70839e-09
5.9366e-09
1.11749e-06
-7.5839e-09
4.84692e-09
1.11671e-06
-7.40968e-09
3.43846e-09
1.11632e-06
-6.99683e-09
1.47573e-09
1.11604e-06
-6.25376e-09
-1.37465e-09
-4.47701e-09
-5.35918e-09
8.90375e-07
2.85247e-09
8.82486e-07
1.34078e-08
8.70359e-07
1.78658e-08
8.55111e-07
1.69524e-08
8.39979e-07
1.53354e-08
8.25529e-07
1.41619e-08
8.11757e-07
1.33656e-08
7.98757e-07
1.26512e-08
7.86676e-07
1.18462e-08
7.7552e-07
1.09736e-08
7.65147e-07
1.01199e-08
7.55401e-07
9.29311e-09
7.46157e-07
8.48308e-09
7.37342e-07
7.64925e-09
7.28941e-07
6.69883e-09
7.21012e-07
5.48021e-09
7.13675e-07
3.78117e-09
7.06823e-07
1.07287e-09
6.99912e-07
-3.61751e-09
-9.42844e-09
1.07432e-06
5.5689e-09
1.06466e-09
1.06824e-06
1.39003e-08
5.58597e-09
1.06138e-06
1.62619e-08
8.46298e-09
1.05338e-06
1.59091e-08
9.03808e-09
1.0451e-06
1.50028e-08
8.61461e-09
1.03721e-06
1.39346e-08
8.11436e-09
1.02982e-06
1.29795e-08
7.77522e-09
1.02282e-06
1.21187e-08
7.53432e-09
1.01598e-06
1.13505e-08
7.33399e-09
1.00922e-06
1.07001e-08
7.02421e-09
1.00258e-06
1.02087e-08
6.54362e-09
9.96027e-07
9.85004e-09
5.97869e-09
9.89515e-07
9.59912e-09
5.37286e-09
9.82983e-07
9.44285e-09
4.70149e-09
9.7635e-07
9.36457e-09
3.9154e-09
9.69531e-07
9.33504e-09
2.83438e-09
9.62429e-07
9.34361e-09
1.25776e-09
9.54684e-07
9.41817e-09
-1.15467e-09
9.45548e-07
9.61707e-09
-4.94356e-09
9.84888e-09
-1.15948e-08
1.32763e-06
4.93105e-09
2.71803e-09
1.33539e-06
1.30088e-08
7.12028e-09
1.34287e-06
1.72157e-08
9.55241e-09
1.34848e-06
1.88995e-08
1.05763e-08
1.35198e-06
1.95023e-08
1.08722e-08
1.35376e-06
1.91173e-08
1.05749e-08
1.35443e-06
1.81042e-08
9.88184e-09
1.35458e-06
1.68169e-08
9.0288e-09
1.35455e-06
1.54727e-08
8.16446e-09
1.3545e-06
1.42469e-08
7.34354e-09
1.3545e-06
1.32673e-08
6.59009e-09
1.3546e-06
1.25017e-08
5.89497e-09
1.35483e-06
1.19081e-08
5.23936e-09
1.35521e-06
1.14503e-08
4.57018e-09
1.35574e-06
1.10932e-08
3.80944e-09
1.35643e-06
1.08068e-08
2.88945e-09
1.35721e-06
1.0571e-08
1.698e-09
1.35796e-06
1.03755e-08
1.31713e-10
1.35856e-06
1.02282e-08
-2.00453e-09
1.01492e-08
-4.59345e-09
1.53312e-06
3.64919e-09
2.36584e-09
1.54218e-06
9.6335e-09
6.23835e-09
1.55328e-06
1.36911e-08
8.87255e-09
1.56445e-06
1.59357e-08
1.03459e-08
1.57508e-06
1.69104e-08
1.08978e-08
1.58472e-06
1.69436e-08
1.07517e-08
1.59302e-06
1.63743e-08
1.01388e-08
1.6001e-06
1.54428e-08
9.32381e-09
1.60628e-06
1.43393e-08
8.44781e-09
1.6118e-06
1.32424e-08
7.61879e-09
1.61693e-06
1.22465e-08
6.87955e-09
1.62183e-06
1.13769e-08
6.22737e-09
1.62664e-06
1.063e-08
5.63823e-09
1.63144e-06
9.98881e-09
5.07784e-09
1.63632e-06
9.42997e-09
4.51507e-09
1.64132e-06
8.92586e-09
3.90946e-09
1.64648e-06
8.45195e-09
3.22771e-09
1.65183e-06
7.9881e-09
2.4268e-09
1.65747e-06
7.5252e-09
1.48648e-09
7.1512e-09
4.84178e-10
1.68027e-06
1.8909e-09
1.891e-09
1.68934e-06
5.09895e-09
5.09926e-09
1.7018e-06
7.46355e-09
7.46415e-09
1.71578e-06
8.94488e-09
8.94591e-09
1.73022e-06
9.69099e-09
9.69268e-09
1.74439e-06
9.85785e-09
9.86057e-09
1.75785e-06
9.64764e-09
9.65182e-09
1.77036e-06
9.19207e-09
9.19834e-09
1.78185e-06
8.60257e-09
8.61179e-09
1.79241e-06
7.97186e-09
7.98554e-09
1.80221e-06
7.36326e-09
7.38425e-09
1.81141e-06
6.80647e-09
6.83968e-09
1.82014e-06
6.30797e-09
6.36182e-09
1.82855e-06
5.86067e-09
5.94737e-09
1.83674e-06
5.45016e-09
5.58311e-09
1.84484e-06
5.06575e-09
5.25839e-09
1.85296e-06
4.69784e-09
4.96503e-09
1.86121e-06
4.33486e-09
4.69235e-09
1.86968e-06
3.97602e-09
4.41233e-09
3.69984e-09
4.13344e-09
1.7569e-06
1.17105e-14
1.61322e-09
1.76589e-06
-5.79654e-15
4.38416e-09
1.77878e-06
-3.71091e-14
6.53192e-09
1.79389e-06
-7.98768e-14
7.95138e-09
1.81003e-06
-1.5296e-13
8.7563e-09
1.82639e-06
-2.80176e-13
9.08675e-09
1.8424e-06
-4.45726e-13
9.07383e-09
1.85772e-06
-4.84451e-13
8.83868e-09
1.87216e-06
-3.77629e-13
8.46645e-09
1.88564e-06
-1.98636e-13
8.02358e-09
1.89822e-06
-2.29453e-13
7.56212e-09
1.90997e-06
-1.02791e-12
7.12063e-09
1.92106e-06
-3.47294e-12
6.72644e-09
1.93161e-06
-8.08353e-12
6.39949e-09
1.94177e-06
-1.30297e-11
6.15759e-09
1.95166e-06
-1.51514e-11
6.00712e-09
1.96143e-06
-1.43254e-11
5.94716e-09
1.97121e-06
-1.3907e-11
5.96796e-09
1.9811e-06
-8.80725e-12
6.04324e-09
2.75956e-11
6.10552e-09
1.7569e-06
-1.89099e-09
1.61315e-09
1.76589e-06
-5.09924e-09
4.38394e-09
1.77878e-06
-7.46412e-09
6.53148e-09
1.79389e-06
-8.94585e-09
7.95059e-09
1.81003e-06
-9.6926e-09
8.75501e-09
1.82639e-06
-9.86046e-09
9.08477e-09
1.8424e-06
-9.65166e-09
9.07097e-09
1.85773e-06
-9.19812e-09
8.83447e-09
1.87217e-06
-8.61149e-09
8.46016e-09
1.88566e-06
-7.98515e-09
8.0141e-09
1.89824e-06
-7.38374e-09
7.54765e-09
1.91e-06
-6.83901e-09
7.09841e-09
1.92109e-06
-6.36094e-09
6.69223e-09
1.93166e-06
-5.94627e-09
6.34688e-09
1.94182e-06
-5.58174e-09
6.07731e-09
1.95171e-06
-5.25669e-09
5.88943e-09
1.96146e-06
-4.96292e-09
5.78308e-09
1.97117e-06
-4.6898e-09
5.751e-09
1.98089e-06
-4.40942e-09
5.77505e-09
-4.13045e-09
5.7905e-09
1.68027e-06
-3.64937e-09
1.89091e-09
1.68934e-06
-9.63408e-09
5.09896e-09
1.7018e-06
-1.36923e-08
7.46355e-09
1.71578e-06
-1.59379e-08
8.94489e-09
1.73022e-06
-1.6914e-08
9.691e-09
1.74439e-06
-1.69493e-08
9.85786e-09
1.75785e-06
-1.6383e-08
9.64766e-09
1.77036e-06
-1.54569e-08
9.19207e-09
1.78185e-06
-1.43611e-08
8.60257e-09
1.79241e-06
-1.32765e-08
7.97183e-09
1.80221e-06
-1.23015e-08
7.3632e-09
1.81141e-06
-1.14656e-08
6.80635e-09
1.82014e-06
-1.07743e-08
6.30777e-09
1.82855e-06
-1.02215e-08
5.8604e-09
1.83674e-06
-9.79735e-09
5.44978e-09
1.84484e-06
-9.49768e-09
5.06521e-09
1.85296e-06
-9.32674e-09
4.69708e-09
1.86121e-06
-9.28558e-09
4.3338e-09
1.86968e-06
-9.33042e-09
3.97464e-09
-9.46317e-09
3.69826e-09
1.53312e-06
-4.93115e-09
2.36588e-09
1.54218e-06
-1.30092e-08
6.23841e-09
1.55327e-06
-1.72165e-08
8.87267e-09
1.56445e-06
-1.89016e-08
1.03461e-08
1.57507e-06
-1.95063e-08
1.08981e-08
1.58471e-06
-1.91235e-08
1.07521e-08
1.593e-06
-1.81139e-08
1.01397e-08
1.60008e-06
-1.68322e-08
9.32565e-09
1.60623e-06
-1.54962e-08
8.45117e-09
1.61172e-06
-1.42851e-08
7.62587e-09
1.61681e-06
-1.33336e-08
6.89329e-09
1.62164e-06
-1.26132e-08
6.25151e-09
1.62633e-06
-1.20906e-08
5.67455e-09
1.63097e-06
-1.17466e-08
5.12909e-09
1.6356e-06
-1.15785e-08
4.59583e-09
1.64027e-06
-1.16078e-08
4.05293e-09
1.64501e-06
-1.18902e-08
3.4751e-09
1.64989e-06
-1.24862e-08
2.83902e-09
1.65502e-06
-1.34063e-08
2.1486e-09
-1.50088e-08
1.5303e-09
1.32762e-06
-5.56888e-09
2.71813e-09
1.33539e-06
-1.39003e-08
7.12053e-09
1.34286e-06
-1.62622e-08
9.55286e-09
1.34847e-06
-1.59102e-08
1.05772e-08
1.35197e-06
-1.5005e-08
1.08741e-08
1.35375e-06
-1.39382e-08
1.05785e-08
1.3544e-06
-1.29848e-08
9.88817e-09
1.35453e-06
-1.21272e-08
9.0396e-09
1.35447e-06
-1.13652e-08
8.18314e-09
1.35436e-06
-1.0726e-08
7.3783e-09
1.35427e-06
-1.02535e-08
6.65111e-09
1.35422e-06
-9.92936e-09
5.9982e-09
1.3542e-06
-9.73626e-09
5.39529e-09
1.35419e-06
-9.6793e-09
4.81082e-09
1.35412e-06
-9.77236e-09
4.19885e-09
1.3539e-06
-1.00603e-08
3.52543e-09
1.35336e-06
-1.06458e-08
2.73521e-09
1.35221e-06
-1.16402e-08
1.77847e-09
1.34958e-06
-1.27971e-08
6.45609e-10
-1.75218e-08
-1.51242e-10
1.07432e-06
1.06475e-09
1.06824e-06
5.5863e-09
1.06138e-06
8.46359e-09
1.05338e-06
9.03914e-09
1.04509e-06
8.61683e-09
1.0372e-06
8.11891e-09
1.02979e-06
7.78393e-09
1.02277e-06
7.54988e-09
1.01589e-06
7.36195e-09
1.00906e-06
7.07127e-09
1.00231e-06
6.62117e-09
9.95569e-07
6.10472e-09
9.88735e-07
5.58043e-09
9.81655e-07
5.05041e-09
9.74094e-07
4.48746e-09
9.65714e-07
3.79914e-09
9.55921e-07
2.9289e-09
9.43746e-07
1.60756e-09
9.27838e-07
-5.07276e-10
-1.86638e-09
1.16914e-06
4.90657e-09
-2.9573e-14
1.16312e-06
1.16086e-08
-1.76762e-13
1.15731e-06
1.4276e-08
-5.0132e-13
1.15201e-06
1.43347e-08
-9.58286e-13
1.1469e-06
1.3733e-08
-1.72154e-12
1.14204e-06
1.29739e-08
-3.16886e-12
1.13771e-06
1.21077e-08
-5.91766e-12
1.13394e-06
1.1319e-08
-1.05335e-11
1.13062e-06
1.06675e-08
-1.84987e-11
1.12746e-06
1.02179e-08
-3.18007e-11
1.12412e-06
9.93951e-09
-5.40497e-11
1.12043e-06
9.76237e-09
-9.10377e-11
1.11625e-06
9.69981e-09
-1.52822e-10
1.11143e-06
9.78585e-09
-2.59076e-10
1.10573e-06
1.00524e-08
-4.40974e-10
1.09873e-06
1.05648e-08
-7.31133e-10
1.08973e-06
1.14908e-08
-1.2301e-09
1.07761e-06
1.3016e-08
-2.05405e-09
1.06089e-06
1.52434e-08
-3.46667e-09
1.92278e-08
-6.93339e-09
1.41518e-06
4.19292e-09
-8.10071e-14
1.42279e-06
1.11162e-08
-2.47602e-13
1.43152e-06
1.50992e-08
-4.29436e-13
1.4398e-06
1.66308e-08
-8.57517e-13
1.44713e-06
1.7279e-08
-1.73244e-12
1.45316e-06
1.75163e-08
-3.22534e-12
1.458e-06
1.71627e-08
-5.53461e-12
1.4619e-06
1.64517e-08
-9.29776e-12
1.46518e-06
1.5573e-08
-1.60533e-11
1.46806e-06
1.47052e-08
-2.8538e-11
1.47073e-06
1.39124e-08
-4.95948e-11
1.47322e-06
1.32484e-08
-8.50262e-11
1.47549e-06
1.28043e-08
-1.37575e-10
1.47748e-06
1.25916e-08
-2.16571e-10
1.47912e-06
1.25637e-08
-3.44017e-10
1.48037e-06
1.27422e-08
-5.3765e-10
1.48114e-06
1.32447e-08
-8.32036e-10
1.48141e-06
1.41521e-08
-1.26581e-09
1.48113e-06
1.54016e-08
-1.89238e-09
1.66515e-08
-2.85141e-09
1.61424e-06
3.09287e-09
-6.07624e-14
1.62332e-06
8.27412e-09
-1.47475e-13
1.63533e-06
1.19573e-08
-2.70896e-13
1.6482e-06
1.41149e-08
-5.21585e-13