/*--------------------------------*- C++ -*----------------------------------*\
| =========                 |                                                 |
| \\      /  F ield         | OpenFOAM: The Open Source CFD Toolbox           |
|  \\    /   O peration     | Version:  2212                                  |
|   \\  /    A nd           | Website:  www.openfoam.com                      |
|    \\/     M anipulation  |                                                 |
\*---------------------------------------------------------------------------*/
FoamFile
{
    version     2.0;
    format      ascii;
    arch        "LSB;label=32;scalar=64";
    class       surfaceVectorField;
    location    "0.7";
    object      Uf;
}
// * * * * * * * * * * * * * * * * * * * * * * * * * * * * * * * * * * * * * //

dimensions      [0 1 -1 0 0 0 0];

internalField   nonuniform List<vector> 
19019
(
(0.0993441 -0.00341903 -0.00341901)
(0.0973536 0.00106247 -0.00148427)
(0.0973536 -0.00148428 0.00106247)
(0.0834792 0.00197583 0.00197587)
(0.0930873 0.00326895 0.0025335)
(0.0930873 0.00253346 0.00326899)
(0.0745173 0.00195864 0.00195875)
(0.0848642 0.00163577 0.00179241)
(0.0848642 0.00179233 0.00163583)
(0.0685482 0.00115895 0.00115918)
(0.0786284 0.00107337 0.00122151)
(0.0786284 0.00122133 0.0010735)
(0.0642367 0.000696729 0.000697156)
(0.0740536 0.000785066 0.000865408)
(0.0740536 0.000865092 0.000785381)
(0.0607578 0.000494276 0.000495188)
(0.0704434 0.000650057 0.000669832)
(0.0704435 0.000669293 0.000650572)
(0.057939 0.000373814 0.000375615)
(0.0674931 0.000545852 0.000509626)
(0.0674933 0.000508498 0.000546977)
(0.0556167 0.000286263 0.000289322)
(0.0650532 0.000467277 0.000389353)
(0.0650536 0.000387399 0.000469286)
(0.0536292 0.000224183 0.000229199)
(0.0629698 0.000412498 0.000310965)
(0.0629706 0.000307754 0.00041592)
(0.0518872 0.000178454 0.000186871)
(0.061138 0.00036811 0.000260133)
(0.0611394 0.000254855 0.000373912)
(0.0503421 0.000143271 0.000157385)
(0.0594986 0.00032671 0.000228656)
(0.0595013 0.000219248 0.000336653)
(0.0489627 0.000114005 0.000136533)
(0.0580186 0.000286332 0.000210367)
(0.0580236 0.000194489 0.000302926)
(0.047723 8.68379e-05 0.00012105)
(0.0566734 0.000247661 0.00020005)
(0.0566822 0.000176818 0.000274355)
(0.0466032 5.72147e-05 0.0001097)
(0.0554434 0.000208938 0.000194789)
(0.0554575 0.0001642 0.000251745)
(0.0456099 2.85712e-05 0.000102093)
(0.0543248 0.000161768 0.0001956)
(0.0543469 0.00014968 0.000231146)
(0.0447604 -3.99236e-06 9.95747e-05)
(0.053327 0.00010387 0.00019985)
(0.0533617 0.000134388 0.00020949)
(0.0441079 -8.99411e-05 8.18309e-05)
(0.05249 2.18144e-05 0.000210177)
(0.0525492 0.000102219 0.000186322)
(0.0440247 -0.000245717 1.05141e-05)
(0.0519733 -0.00014951 0.000178717)
(0.0520827 -2.99042e-05 0.000112455)
(0.0451833 -0.00154298 -0.0010228)
(0.0523112 -0.000482238 3.34038e-05)
(0.052559 -0.000253749 -8.25732e-05)
(0.0510023 -0.00332851 -0.0021159)
(0.0509617 -0.00223333 -0.00183161)
(0.0984572 0.0024764 0.00172992)
(0.0996871 0.000439211 0.000345485)
(0.100049 0.00105637 0.000750977)
(0.0958349 0.00314796 0.00243274)
(0.0978162 0.00273267 0.00228232)
(0.0982937 0.00280914 0.00216151)
(0.0914501 0.00223016 0.00186943)
(0.095496 0.00300151 0.00230322)
(0.0963041 0.00244251 0.00199791)
(0.0875955 0.00167428 0.00150569)
(0.0926193 0.002299 0.00183896)
(0.0936671 0.00198044 0.00172716)
(0.0841482 0.00143944 0.00127612)
(0.0897675 0.00189125 0.00153597)
(0.0909051 0.00171922 0.00149819)
(0.0811886 0.00126439 0.00102956)
(0.0872324 0.00165531 0.00129529)
(0.0884352 0.00145375 0.00121255)
(0.0787025 0.00110844 0.000795349)
(0.0850071 0.00149005 0.00107822)
(0.0863061 0.00118219 0.000910033)
(0.0765587 0.000989119 0.000627571)
(0.0830615 0.00136822 0.000915135)
(0.0844827 0.000980741 0.000693068)
(0.0746542 0.000899971 0.000522249)
(0.0813255 0.0012729 0.000804706)
(0.0828836 0.000841284 0.000552638)
(0.0729284 0.000822195 0.00046002)
(0.0797479 0.00118454 0.000731553)
(0.0814536 0.000737838 0.000462313)
(0.0713451 0.000744439 0.00042549)
(0.0783 0.001096 0.000688112)
(0.0801609 0.000650743 0.000403964)
(0.0698828 0.000665611 0.000407002)
(0.0769598 0.0010058 0.000665318)
(0.0789799 0.000571847 0.000365686)
(0.0685267 0.000588091 0.000398133)
(0.0757094 0.000913087 0.000655629)
(0.0778931 0.000501928 0.000342224)
(0.0672676 0.000505928 0.000398306)
(0.0745373 0.000814841 0.000655389)
(0.0768955 0.000438381 0.000330204)
(0.0661059 0.000400082 0.000405749)
(0.0734392 0.000701002 0.00066612)
(0.0759889 0.000366376 0.000328079)
(0.065067 0.00024706 0.000411908)
(0.072421 0.00055395 0.000685526)
(0.0751827 0.000269549 0.000332686)
(0.0642213 -1.12312e-05 0.000370848)
(0.0715091 0.00034173 0.000703534)
(0.0745077 0.000122818 0.000332986)
(0.063821 -0.000514232 0.000194491)
(0.070789 -6.44109e-05 0.000662737)
(0.0740395 -0.000160949 0.000246159)
(0.0645729 -0.002195 -0.000921474)
(0.0704817 -0.000879441 0.00049797)
(0.0739294 -0.000806424 -0.000165216)
(0.0693258 -0.00331848 -0.000713752)
(0.0733705 -0.00316838 -0.00230902)
(0.0993753 0.00118206 0.00107258)
(0.099473 0.000349736 0.000307059)
(0.0997475 0.000610953 0.000779889)
(0.0984948 0.00229591 0.002032)
(0.0990504 0.0015767 0.00172048)
(0.0995971 0.00201819 0.00200294)
(0.0971413 0.00247617 0.00204878)
(0.0983577 0.00213089 0.00216898)
(0.0992973 0.00246131 0.00210257)
(0.0954395 0.00224644 0.00176766)
(0.0971932 0.00203541 0.0020026)
(0.0984883 0.00237408 0.00190289)
(0.0937506 0.00201956 0.00152291)
(0.095905 0.00185506 0.0017547)
(0.0974223 0.00218023 0.00168916)
(0.0921378 0.00186265 0.00134539)
(0.0946713 0.00173182 0.00154325)
(0.0963095 0.00198361 0.00150904)
(0.0906007 0.00175099 0.00121638)
(0.0934809 0.00165118 0.00138744)
(0.0952044 0.00179971 0.00134394)
(0.0891498 0.00165104 0.00111615)
(0.0923665 0.00157411 0.00126716)
(0.0941476 0.00164148 0.00120585)
(0.0878013 0.00154282 0.00103598)
(0.0913288 0.00147683 0.00117468)
(0.093165 0.00149937 0.00109918)
(0.0865562 0.00142784 0.000977325)
(0.0903371 0.0013632 0.00110815)
(0.0922599 0.00136589 0.00101947)
(0.0853985 0.00131307 0.000941632)
(0.0894029 0.00124662 0.00106539)
(0.0914317 0.00124253 0.000966432)
(0.0843107 0.00119944 0.000925603)
(0.0885163 0.00112911 0.00104297)
(0.090671 0.00112876 0.00093603)
(0.0832788 0.00108094 0.000925149)
(0.0876619 0.00101003 0.00103732)
(0.0899667 0.00101923 0.000923485)
(0.082295 0.000947132 0.000937357)
(0.0868272 0.000883815 0.00104655)
(0.089312 0.000904591 0.000924908)
(0.0813573 0.000783629 0.000960823)
(0.086001 0.000736704 0.00107049)
(0.0887037 0.000774138 0.000940568)
(0.0804722 0.000565066 0.000992691)
(0.0851737 0.000545748 0.00111078)
(0.0881444 0.000611135 0.000969126)
(0.0796531 0.00021267 0.0010257)
(0.0843304 0.000278576 0.00117097)
(0.0876383 0.000386821 0.00100799)
(0.0788882 -0.000411691 0.00106063)
(0.0834306 -0.000146346 0.0012626)
(0.0871848 1.87321e-05 0.00105254)
(0.0781166 -0.00156423 0.00106116)
(0.0824354 -0.000867575 0.00136104)
(0.0867636 -0.000590748 0.00111731)
(0.081147 -0.00185227 0.00185902)
(0.0861294 -0.00163895 0.00115328)
(0.0996493 0.000650239 0.000931416)
(0.0994625 0.000129363 0.000192496)
(0.0997993 0.000375098 0.000741364)
(0.0990854 0.00127875 0.00182774)
(0.0992625 0.000636814 0.00137062)
(0.0998409 0.00115027 0.00181423)
(0.0984491 0.00154047 0.00210318)
(0.0989128 0.000973288 0.00200363)
(0.0999047 0.00153628 0.00209022)
(0.0977074 0.00154644 0.00198917)
(0.0982948 0.00104982 0.00205082)
(0.0997672 0.00163135 0.00202324)
(0.0969387 0.00147948 0.00177654)
(0.0976568 0.00100717 0.00189999)
(0.0995092 0.00160908 0.00189617)
(0.0962064 0.00142629 0.00158284)
(0.0970636 0.000959571 0.00169894)
(0.0991989 0.00154678 0.00175253)
(0.0955197 0.00139116 0.00143626)
(0.0965035 0.000932427 0.00152172)
(0.0988535 0.00147334 0.00162718)
(0.094868 0.00135049 0.00133075)
(0.0959889 0.000915447 0.00138083)
(0.0985086 0.00139081 0.00151721)
(0.0942298 0.00128829 0.00126173)
(0.0955172 0.000900224 0.00128137)
(0.0981735 0.00129611 0.00142312)
(0.0935968 0.00120159 0.00121852)
(0.0950573 0.000865722 0.00122187)
(0.097824 0.00118884 0.00134891)
(0.0929702 0.0010985 0.00119344)
(0.0945931 0.000804986 0.00119263)
(0.0974817 0.00107775 0.00129943)
(0.092345 0.000987532 0.0011847)
(0.0941214 0.00073225 0.00118533)
(0.0971471 0.000967712 0.00127124)
(0.0917111 0.000871346 0.00119171)
(0.0936321 0.000656587 0.00119366)
(0.0968124 0.000858099 0.00126191)
(0.0910543 0.000743946 0.00121625)
(0.0931073 0.000578158 0.00121885)
(0.0964703 0.000744704 0.0012729)
(0.0903529 0.00059049 0.00126339)
(0.0925277 0.000492258 0.00126804)
(0.0961105 0.000617269 0.00130795)
(0.0895756 0.00038997 0.00134411)
(0.0918627 0.000384687 0.0013501)
(0.0957173 0.000462187 0.00137586)
(0.0886671 9.46663e-05 0.00147889)
(0.0910646 0.000244807 0.00148751)
(0.0952654 0.000259745 0.00149481)
(0.0875376 -0.000379541 0.00165159)
(0.090025 3.0653e-05 0.0017108)
(0.0946969 -3.88315e-05 0.00168915)
(0.086062 -0.00100656 0.00225799)
(0.0886449 -0.0003032 0.00199145)
(0.093963 -0.000492811 0.00193331)
(0.0871427 -0.000632761 0.0031623)
(0.0933318 -0.000984248 0.00269955)
(0.0996725 0.00015405 0.000629486)
(0.0993801 4.74443e-09 5.89331e-05)
(0.0997132 0.000103918 0.00068795)
(0.099159 0.000353303 0.00154428)
(0.0992677 2.66452e-08 0.00120002)
(0.0998376 0.000341621 0.00162231)
(0.0986635 0.000457776 0.00194757)
(0.0989803 7.23839e-08 0.00188853)
(0.0999629 0.000485439 0.00199143)
(0.0982119 0.000480907 0.00196078)
(0.0984744 1.3739e-07 0.00200659)
(0.0999916 0.000539584 0.00199675)
(0.0977755 0.000471757 0.00182509)
(0.0979951 2.46758e-07 0.00191492)
(0.100009 0.000546342 0.0019114)
(0.0973612 0.000458453 0.00164163)
(0.0975699 4.53519e-07 0.00173511)
(0.100007 0.000533427 0.00180495)
(0.0969918 0.00044635 0.00146895)
(0.0971791 8.44845e-07 0.0015479)
(0.0999796 0.000511383 0.00168386)
(0.0966691 0.000437177 0.00133109)
(0.0968277 1.50046e-06 0.0013896)
(0.0999362 0.000484926 0.00157412)
(0.0963849 0.000428761 0.0012379)
(0.0965247 2.62927e-06 0.00127182)
(0.0998936 0.000461029 0.00148389)
(0.0961126 0.000413931 0.00119132)
(0.0962652 4.51152e-06 0.00120253)
(0.0998572 0.000437202 0.00142262)
(0.0958228 0.000389659 0.00118071)
(0.0959827 7.65563e-06 0.00117752)
(0.0997969 0.00040733 0.00138641)
(0.0954993 0.000359175 0.00119156)
(0.0956752 1.28775e-05 0.00117949)
(0.099717 0.000372868 0.00136587)
(0.0951282 0.000326753 0.00121899)
(0.0953366 2.15923e-05 0.00119598)
(0.0996119 0.000337582 0.001364)
(0.0946896 0.000297076 0.00127009)
(0.0949462 3.65664e-05 0.0012277)
(0.0994645 0.000303193 0.00138786)
(0.094155 0.000268987 0.00135626)
(0.0944845 6.2184e-05 0.00128501)
(0.0992637 0.000271975 0.00144354)
(0.0934763 0.000239459 0.00149817)
(0.0939206 0.000103033 0.00137944)
(0.098988 0.000239568 0.00154601)
(0.0925732 0.000205675 0.00172876)
(0.0932029 0.000173263 0.00153692)
(0.0986006 0.000206444 0.00172623)
(0.0913079 0.00016598 0.00206709)
(0.0922247 0.000289157 0.00178626)
(0.0980322 0.000168916 0.00202573)
(0.0894758 0.000269053 0.00293314)
(0.0908759 0.000487813 0.00213267)
(0.0972218 0.0001322 0.0024691)
(0.0895181 0.000975196 0.00313491)
(0.0964432 0.000281553 0.00369599)
(0.0996725 -0.000154015 0.000629471)
(0.0994625 -0.000129351 0.000192487)
(0.0997132 -0.000103902 0.000687949)
(0.099159 -0.000353204 0.00154427)
(0.0992625 -0.000636767 0.00137062)
(0.0998376 -0.000341559 0.0016223)
(0.0986635 -0.000457583 0.00194755)
(0.0989129 -0.000973202 0.00200361)
(0.099963 -0.000485312 0.00199144)
(0.098212 -0.000480556 0.00196072)
(0.098295 -0.00104968 0.00205075)
(0.0999917 -0.000539353 0.00199674)
(0.0977758 -0.000471105 0.00182494)
(0.0976572 -0.00100686 0.00189986)
(0.100009 -0.000545902 0.0019113)
(0.0973618 -0.00045722 0.00164138)
(0.0970644 -0.000958938 0.00169871)
(0.100007 -0.000532596 0.00180471)
(0.096993 -0.000444101 0.00146854)
(0.0965049 -0.000931202 0.00152142)
(0.0999804 -0.000509881 0.0016835)
(0.0966712 -0.000433221 0.00133032)
(0.0959914 -0.000913259 0.00138032)
(0.0999376 -0.000482309 0.00157352)
(0.0963886 -0.000421948 0.00123645)
(0.0955217 -0.000896326 0.00128026)
(0.0998961 -0.000456459 0.00148284)
(0.096119 -0.000402372 0.00118873)
(0.0950652 -0.000859228 0.0012195)
(0.0998614 -0.000429262 0.00142079)
(0.0958341 -0.000370275 0.0011763)
(0.0946067 -0.000794353 0.00118828)
(0.0998041 -0.000393784 0.0013834)
(0.0955193 -0.000326847 0.00118391)
(0.0941449 -0.000715095 0.00117735)
(0.0997293 -0.000350127 0.00136079)
(0.0951635 -0.000272351 0.00120469)
(0.0936727 -0.000628425 0.00117999)
(0.0996337 -0.000300304 0.00135471)
(0.0947521 -0.000205263 0.00124261)
(0.093178 -0.000530988 0.00119484)
(0.0995036 -0.000241763 0.00137013)
(0.0942665 -0.000117577 0.00130819)
(0.092649 -0.000415456 0.00122461)
(0.0993288 -0.000170672 0.00141178)
(0.0936698 1.08864e-05 0.0014182)
(0.0920696 -0.000255596 0.00127385)
(0.0990965 -7.73841e-05 0.00148943)
(0.0929023 0.000212556 0.00159443)
(0.0914142 -2.16377e-05 0.00135306)
(0.0987784 5.72175e-05 0.00162787)
(0.0918693 0.000535 0.00185185)
(0.0906283 0.000337005 0.00148014)
(0.0983242 0.000259935 0.00185482)
(0.0904439 0.00110542 0.00233444)
(0.0896472 0.000898879 0.00166799)
(0.0976931 0.000565982 0.00218681)
(0.0887307 0.00188993 0.00203767)
(0.0973036 0.00108125 0.00277883)
(0.0996493 -0.000650228 0.000931421)
(0.099473 -0.000349739 0.000307059)
(0.0997993 -0.000375096 0.000741366)
(0.0990855 -0.00127873 0.00182772)
(0.0990504 -0.00157671 0.00172047)
(0.0998409 -0.00115026 0.00181424)
(0.0984493 -0.00154043 0.00210311)
(0.0983578 -0.00213093 0.00216889)
(0.0999048 -0.00153627 0.00209018)
(0.0977077 -0.00154633 0.00198904)
(0.0971935 -0.00203549 0.00200244)
(0.0997675 -0.00163132 0.00202308)
(0.0969395 -0.00147917 0.00177633)
(0.0959055 -0.00185512 0.00175446)
(0.0995097 -0.00160896 0.00189586)
(0.0962079 -0.00142566 0.00158257)
(0.0946724 -0.00173181 0.00154289)
(0.0991999 -0.00154651 0.00175205)
(0.0955224 -0.00139005 0.00143587)
(0.0934828 -0.00165108 0.0013869)
(0.0988553 -0.0014728 0.0016265)
(0.0948727 -0.00134851 0.00132992)
(0.0923698 -0.00157398 0.00126628)
(0.0985117 -0.00138987 0.00151612)
(0.0942381 -0.00128497 0.00125975)
(0.0913347 -0.00147659 0.0011731)
(0.0981789 -0.00129444 0.00142127)
(0.0936113 -0.00119639 0.00121449)
(0.0903473 -0.00136289 0.00110512)
(0.0978332 -0.00118602 0.00134562)
(0.0929952 -0.00109058 0.00118571)
(0.0894203 -0.00124631 0.00106021)
(0.0974975 -0.00107335 0.00129368)
(0.0923876 -0.000975172 0.001171)
(0.0885461 -0.00112909 0.0010335)
(0.0971741 -0.000960922 0.00126089)
(0.0917836 -0.000851458 0.0011688)
(0.0877123 -0.00101037 0.00102117)
(0.0968587 -0.000848158 0.00124372)
(0.0911778 -0.000713458 0.001177)
(0.0869117 -0.000884672 0.00101964)
(0.0965481 -0.00072951 0.00124123)
(0.0905625 -0.000538889 0.00119304)
(0.0861418 -0.00073982 0.00102434)
(0.0962398 -0.00059437 0.0012528)
(0.0899301 -0.000294207 0.00121588)
(0.085408 -0.000546506 0.00102642)
(0.0959298 -0.000418994 0.00127823)
(0.0892713 6.68012e-05 0.00125271)
(0.084729 -0.000272852 0.00101911)
(0.0956129 -0.000178665 0.00132018)
(0.0885531 0.000622566 0.00131957)
(0.0841186 0.000161568 0.000982858)
(0.0952737 0.000168875 0.00138983)
(0.0877057 0.00155221 0.00141017)
(0.0835999 0.000886921 0.000918164)
(0.0948925 0.000681253 0.00150539)
(0.0828008 0.00222687 0.00063019)
(0.094552 0.00147663 0.00167363)
(0.0993753 -0.00118208 0.00107256)
(0.0996871 -0.000439216 0.000345478)
(0.0997475 -0.000610963 0.00077988)
(0.0984949 -0.00229596 0.00203191)
(0.0978162 -0.00273272 0.00228228)
(0.0995971 -0.00201823 0.00200288)
(0.0971414 -0.00247629 0.00204861)
(0.0954961 -0.00300159 0.00230311)
(0.0992974 -0.0024614 0.00210241)
(0.0954398 -0.00224665 0.0017674)
(0.0926194 -0.00229916 0.00183875)
(0.0984885 -0.00237427 0.00190261)
(0.0937514 -0.00201989 0.00152253)
(0.0897678 -0.00189156 0.00153568)
(0.0974228 -0.00218054 0.00168875)
(0.0921391 -0.00186317 0.0013448)
(0.087233 -0.00165585 0.00129482)
(0.0963104 -0.00198412 0.00150845)
(0.0906032 -0.00175181 0.0012154)
(0.0850082 -0.00149095 0.00107747)
(0.0952058 -0.0018005 0.001343)
(0.0891541 -0.00165244 0.00111456)
(0.0830635 -0.00136972 0.000913885)
(0.0941503 -0.00164272 0.00120424)
(0.0878089 -0.00154518 0.00103336)
(0.0813292 -0.00127546 0.000802618)
(0.0931696 -0.00150153 0.00109652)
(0.0865692 -0.00143182 0.000973141)
(0.0797542 -0.00118895 0.000728029)
(0.0922679 -0.00136963 0.00101503)
(0.0854204 -0.00131971 0.000934631)
(0.0783111 -0.00110374 0.000681804)
(0.0914453 -0.00124871 0.00095901)
(0.0843474 -0.0012102 0.000913442)
(0.0769792 -0.00101865 0.000654258)
(0.0906941 -0.00113915 0.000923367)
(0.0833395 -0.00109777 0.000904369)
(0.0757425 -0.000932916 0.000639008)
(0.0900045 -0.00103661 0.000902291)
(0.0823944 -0.000972797 0.000901996)
(0.074591 -0.000845326 0.000633117)
(0.0893725 -0.000933096 0.000890417)
(0.0815197 -0.000820434 0.000897031)
(0.0735255 -0.000749534 0.000631122)
(0.0887996 -0.000818285 0.000883461)
(0.0807481 -0.000618855 0.000877125)
(0.0725612 -0.000635788 0.000618879)
(0.0882973 -0.000675619 0.000869432)
(0.080129 -0.000288219 0.000807463)
(0.0717497 -0.000472783 0.000578535)
(0.0878888 -0.000480505 0.000830563)
(0.0796999 0.000298514 0.000656325)
(0.0712144 -0.000118053 0.000407482)
(0.0875931 -0.000146487 0.000722796)
(0.0795035 0.00154515 0.000213233)
(0.0713028 0.00058788 7.01916e-05)
(0.0874276 0.000410008 0.000531476)
(0.0699716 0.00256606 -0.00108388)
(0.0870596 0.00158526 -1.33667e-06)
(0.0984572 -0.00247643 0.00172989)
(0.0973536 -0.00106247 -0.00148428)
(0.100049 -0.00105638 0.000750967)
(0.0958349 -0.00314802 0.00243266)
(0.0930873 -0.00326898 0.00253346)
(0.0982937 -0.0028092 0.00216146)
(0.0914502 -0.00223026 0.00186928)
(0.0848642 -0.00163583 0.00179233)
(0.0963041 -0.00244262 0.00199779)
(0.0875956 -0.0016745 0.00150544)
(0.0786284 -0.0010735 0.00122133)
(0.0936671 -0.00198064 0.00172693)
(0.0841484 -0.00143986 0.00127571)
(0.0740536 -0.000785376 0.000865093)
(0.0909052 -0.0017196 0.00149784)
(0.081189 -0.0012651 0.00102887)
(0.0704435 -0.000650566 0.000669295)
(0.0884354 -0.00145439 0.00121191)
(0.0787033 -0.00110967 0.000794219)
(0.0674933 -0.000546967 0.000508504)
(0.0863064 -0.00118327 0.000908973)
(0.0765602 -0.000991265 0.000625684)
(0.0650536 -0.000469272 0.000387409)
(0.0844833 -0.000982579 0.000691289)
(0.074657 -0.000903752 0.000519049)
(0.0629707 -0.000415902 0.000307768)
(0.0828847 -0.000844486 0.000549584)
(0.0729334 -0.000828841 0.000454074)
(0.0611394 -0.000373889 0.000254873)
(0.0814557 -0.000743438 0.000456997)
(0.0713543 -0.000755751 0.000414685)
(0.0595013 -0.000336624 0.000219272)
(0.0801646 -0.000660756 0.000393945)
(0.0698998 -0.000684049 0.000390855)
(0.0580237 -0.00030289 0.00019452)
(0.078987 -0.000588344 0.00034869)
(0.0685555 -0.000618331 0.000379117)
(0.0566823 -0.000274313 0.000176861)
(0.0779056 -0.000526972 0.000317689)
(0.0673123 -0.000556527 0.000375069)
(0.0554576 -0.000251693 0.000164247)
(0.0769153 -0.000476631 0.000297909)
(0.0661765 -0.000490308 0.000366233)
(0.0543471 -0.000231083 0.000149736)
(0.0760198 -0.000428698 0.000278074)
(0.0651803 -0.000400385 0.000333734)
(0.0533621 -0.000209411 0.00013444)
(0.0752314 -0.000377061 0.000247061)
(0.0644194 -0.000218198 0.000206198)
(0.0525496 -0.00018621 0.000102299)
(0.0745905 -0.000298738 0.000178859)
(0.0642182 0.000147165 -8.45375e-05)
(0.0520833 -0.000112281 -2.98183e-05)
(0.0741923 -0.000104681 -3.04311e-05)
(0.065313 0.000872113 -0.000802952)
(0.0525598 8.27836e-05 -0.000253614)
(0.0742747 0.000397457 -0.000611156)
(0.0509628 0.00183206 -0.00223339)
(0.0733155 0.00187138 -0.00280224)
(0.0993441 0.00341901 -0.00341903)
(0.0973536 0.00148427 0.00106247)
(0.0834792 -0.00197587 0.00197583)
(0.0930873 -0.0025335 0.00326895)
(0.0745173 -0.00195875 0.00195864)
(0.0848642 -0.00179241 0.00163578)
(0.0685482 -0.00115918 0.00115895)
(0.0786284 -0.00122151 0.00107338)
(0.0642367 -0.000697152 0.000696733)
(0.0740536 -0.000865406 0.00078507)
(0.0607578 -0.000495181 0.000494283)
(0.0704434 -0.000669828 0.000650062)
(0.057939 -0.000375603 0.000373826)
(0.0674931 -0.000509618 0.00054586)
(0.0556167 -0.000289306 0.000286279)
(0.0650532 -0.000389342 0.000467288)
(0.0536293 -0.000229179 0.000224204)
(0.0629699 -0.000310951 0.000412511)
(0.0518873 -0.000186848 0.00017848)
(0.061138 -0.000260116 0.000368126)
(0.0503421 -0.000157358 0.000143305)
(0.0594987 -0.000228635 0.000326728)
(0.0489628 -0.0001365 0.000114047)
(0.0580187 -0.000210339 0.000286352)
(0.0477231 -0.000121012 8.68889e-05)
(0.0566735 -0.000200012 0.000247683)
(0.0466034 -0.00010966 5.7278e-05)
(0.0554436 -0.000194751 0.000208964)
(0.0456102 -0.000102049 2.86295e-05)
(0.054325 -0.000195563 0.000161805)
(0.0447607 -9.95079e-05 -3.9349e-06)
(0.0533273 -0.000199817 0.00010391)
(0.0441084 -8.17383e-05 -8.9865e-05)
(0.0524904 -0.000210125 2.18672e-05)
(0.0440254 -1.04148e-05 -0.000245627)
(0.051974 -0.00017866 -0.000149453)
(0.0451841 0.00102302 -0.00154299)
(0.0523121 -3.33482e-05 -0.000482184)
(0.0510035 0.00211607 -0.00332855)
(0.0984572 0.00172989 0.00247643)
(0.100049 0.000750967 0.00105638)
(0.0996871 0.000345479 0.000439217)
(0.0958349 0.00243266 0.00314802)
(0.0982937 0.00216146 0.0028092)
(0.0978162 0.00228228 0.00273273)
(0.0914502 0.00186928 0.00223026)
(0.0963041 0.00199779 0.00244262)
(0.0954961 0.00230311 0.0030016)
(0.0875956 0.00150544 0.00167451)
(0.0936671 0.00172693 0.00198064)
(0.0926194 0.00183875 0.00229916)
(0.0841484 0.00127571 0.00143986)
(0.0909052 0.00149784 0.0017196)
(0.0897678 0.00153568 0.00189157)
(0.081189 0.00102887 0.00126511)
(0.0884353 0.00121191 0.00145439)
(0.087233 0.00129482 0.00165586)
(0.0787033 0.000794216 0.00110968)
(0.0863064 0.00090897 0.00118328)
(0.0850082 0.00107747 0.00149097)
(0.0765602 0.000625679 0.00099128)
(0.0844833 0.000691285 0.000982592)
(0.0830635 0.00091388 0.00136974)
(0.074657 0.000519041 0.000903773)
(0.0828847 0.000549578 0.000844505)
(0.0813292 0.000802611 0.00127549)
(0.0729334 0.000454061 0.000828871)
(0.0814556 0.000456989 0.000743464)
(0.0797542 0.000728019 0.00118898)
(0.0713543 0.000414667 0.000755792)
(0.0801646 0.000393935 0.000660792)
(0.078311 0.000681788 0.00110378)
(0.0698997 0.000390826 0.0006841)
(0.0789869 0.000348679 0.000588394)
(0.0769792 0.000654236 0.0010187)
(0.0685554 0.000379082 0.000618395)
(0.0779054 0.000317675 0.000527039)
(0.0757424 0.000638973 0.000932981)
(0.0673121 0.000375035 0.00055661)
(0.0769151 0.000297898 0.00047671)
(0.0745909 0.000633079 0.00084541)
(0.0661761 0.000366188 0.000490421)
(0.0760196 0.000278049 0.000428788)
(0.0735253 0.000631085 0.000749651)
(0.0651799 0.000333664 0.000400539)
(0.075231 0.000247014 0.00037718)
(0.0725608 0.000618839 0.000635962)
(0.0644188 0.000206105 0.000218419)
(0.0745899 0.000178788 0.000298889)
(0.0717493 0.000578483 0.000473005)
(0.0642173 -8.4677e-05 -0.000146831)
(0.0741915 -3.05232e-05 0.000104908)
(0.0712138 0.000407413 0.000118411)
(0.0653119 -0.000803028 -0.000871573)
(0.0742737 -0.000611338 -0.000397138)
(0.071302 7.00704e-05 -0.000587368)
(0.0733142 -0.00280228 -0.00187075)
(0.0699705 -0.00108389 -0.00256535)
(0.10008 0.00135173 0.00135177)
(0.100186 0.000798738 0.000804954)
(0.100186 0.000804939 0.000798752)
(0.100264 0.0022172 0.00221731)
(0.10019 0.00231177 0.0020715)
(0.10019 0.00207142 0.00231183)
(0.0993831 0.00243557 0.00243579)
(0.100307 0.00263354 0.00245317)
(0.100307 0.00245297 0.00263368)
(0.0979844 0.00230996 0.00231032)
(0.0998052 0.00256012 0.00245612)
(0.0998053 0.00245578 0.00256037)
(0.0964955 0.00200581 0.00200642)
(0.098863 0.00236403 0.00228124)
(0.0988632 0.00228074 0.00236444)
(0.0950736 0.00159643 0.00159748)
(0.0978412 0.00204845 0.00196865)
(0.0978415 0.00196787 0.00204918)
(0.0937771 0.00122531 0.00122707)
(0.0968621 0.00169024 0.00160557)
(0.0968626 0.00160432 0.00169144)
(0.0926209 0.000960271 0.000963301)
(0.0959607 0.00140284 0.00132302)
(0.0959616 0.00132086 0.00140481)
(0.0915994 0.000774718 0.000779988)
(0.0951501 0.00118852 0.0011212)
(0.0951517 0.00111748 0.00119198)
(0.0906975 0.000640066 0.000649523)
(0.0944293 0.00102656 0.000976314)
(0.0944321 0.00096994 0.00103257)
(0.089896 0.000537665 0.000553753)
(0.093794 0.000899843 0.000871804)
(0.0937987 0.000860527 0.000910242)
(0.0891762 0.000458502 0.000483103)
(0.0932309 0.000796972 0.000797115)
(0.093239 0.000778608 0.000814088)
(0.0885296 0.000395394 0.000430894)
(0.0927291 0.000709264 0.000744616)
(0.0927419 0.000716337 0.000736006)
(0.0879606 0.000334599 0.000388657)
(0.0922899 0.000626301 0.000706678)
(0.0923091 0.000664473 0.00066758)
(0.0874792 0.000262887 0.000348703)
(0.0919172 0.000533987 0.000677837)
(0.091946 0.000610762 0.000599139)
(0.0871003 0.000161496 0.000302189)
(0.0916182 0.000419465 0.000652833)
(0.0916603 0.00054522 0.000520078)
(0.0868424 -1.83402e-05 0.000212326)
(0.091402 0.000255296 0.000622817)
(0.0914614 0.000441394 0.00041147)
(0.0866379 -0.000403208 -5.39811e-05)
(0.0912554 -9.46307e-06 0.000550367)
(0.0913333 0.000250583 0.000228366)
(0.0861326 -0.00139186 -0.00084657)
(0.0910718 -0.000425826 0.000336496)
(0.0911583 -0.000129525 -0.000115174)
(0.091164 -0.00108037 -0.000231587)
(0.0912479 -0.000984799 -0.000663892)
(0.100171 0.00136863 0.00141644)
(0.100118 0.000577381 0.00081131)
(0.100102 0.000699737 0.00070069)
(0.100759 0.0021948 0.00214914)
(0.100478 0.00158278 0.00185879)
(0.100477 0.00182246 0.00186467)
(0.100996 0.00247675 0.0023881)
(0.101004 0.00205862 0.00224261)
(0.101024 0.00234663 0.00238301)
(0.100838 0.00247591 0.00238939)
(0.101292 0.00220326 0.0023523)
(0.101338 0.0025057 0.00254383)
(0.100457 0.00231102 0.00222523)
(0.101309 0.00216701 0.00232253)
(0.101409 0.00245017 0.00247255)
(0.0999675 0.00205561 0.00196882)
(0.101156 0.00201018 0.00217937)
(0.101302 0.00226399 0.00227084)
(0.0994432 0.00178878 0.00170099)
(0.100926 0.00179259 0.00196943)
(0.101099 0.00200794 0.0019993)
(0.0989332 0.00156016 0.0014854)
(0.100663 0.00158153 0.00176731)
(0.100855 0.00176819 0.00175895)
(0.098464 0.00137244 0.00132453)
(0.100406 0.00139172 0.00159293)
(0.100608 0.0015655 0.00156597)
(0.0980468 0.00121577 0.00120616)
(0.100169 0.0012229 0.00144983)
(0.10038 0.001396 0.00141338)
(0.0976817 0.00108263 0.00112251)
(0.09996 0.00107785 0.00134734)
(0.100185 0.00125365 0.00129461)
(0.0973663 0.00096497 0.00106597)
(0.0997802 0.000952217 0.00127833)
(0.100025 0.00113211 0.00120393)
(0.0970992 0.000852886 0.0010285)
(0.0996271 0.000837123 0.00123502)
(0.0999021 0.0010241 0.001135)
(0.0968802 0.00073571 0.00100574)
(0.0995001 0.000722301 0.00121229)
(0.0998172 0.000920411 0.00108116)
(0.09671 0.000599574 0.000994968)
(0.0993975 0.000595588 0.00121003)
(0.0997713 0.000811582 0.00103837)
(0.0965911 0.0004237 0.000991484)
(0.0993178 0.000443113 0.00122844)
(0.0997657 0.000683436 0.00100039)
(0.0965239 0.000177067 0.000987073)
(0.0992568 0.000242628 0.00127127)
(0.0997986 0.000517 0.000958816)
(0.0964901 -0.00018135 0.000966118)
(0.0992017 -3.82362e-05 0.00133923)
(0.0998586 0.000284189 0.000896818)
(0.0964658 -0.000681881 0.00089782)
(0.0991244 -0.000443042 0.00142105)
(0.0999203 -4.48525e-05 0.000788013)
(0.0992494 -0.00100368 0.00150577)
(0.100125 -0.000448035 0.000644852)
(0.100242 0.000820123 0.00125613)
(0.10009 0.000294321 0.000735354)
(0.100071 0.000415649 0.000602777)
(0.100828 0.00139046 0.00193936)
(0.100491 0.000791944 0.00168402)
(0.100492 0.00112434 0.001587)
(0.101392 0.00166332 0.00218236)
(0.101086 0.00107765 0.00208342)
(0.101128 0.0015407 0.00209413)
(0.101816 0.00176089 0.00226149)
(0.101664 0.00120423 0.00217915)
(0.101767 0.00173251 0.00229434)
(0.10208 0.00175489 0.0022626)
(0.102121 0.00123958 0.00222242)
(0.102291 0.00178956 0.00236755)
(0.102214 0.00166732 0.00217764)
(0.10245 0.00120167 0.00221087)
(0.102711 0.00174326 0.00232239)
(0.102264 0.00153217 0.00204292)
(0.102678 0.00111799 0.00212745)
(0.103036 0.00162519 0.00220281)
(0.102273 0.00137933 0.0018875)
(0.102838 0.00101668 0.00200713)
(0.103285 0.00147776 0.00205072)
(0.102268 0.00122541 0.00173399)
(0.102962 0.000915543 0.00187272)
(0.10349 0.00132468 0.00189211)
(0.102261 0.00108359 0.00160914)
(0.103062 0.000820354 0.00174817)
(0.103665 0.00118022 0.00174899)
(0.102254 0.00095925 0.00152351)
(0.103151 0.000733111 0.00165001)
(0.103824 0.00105239 0.00163821)
(0.10225 0.000846718 0.00146969)
(0.103235 0.000653408 0.00157781)
(0.103975 0.000940122 0.00155615)
(0.102248 0.000737072 0.00144304)
(0.103314 0.000577575 0.00153708)
(0.104121 0.000836158 0.00149924)
(0.102247 0.000621031 0.0014433)
(0.103381 0.000501382 0.00152868)
(0.104266 0.000733656 0.00146573)
(0.102242 0.00048928 0.001474)
(0.103434 0.000419079 0.00154921)
(0.104409 0.000625668 0.0014561)
(0.102225 0.000328973 0.00154482)
(0.10347 0.000325256 0.00160966)
(0.104549 0.000504884 0.00147401)
(0.102184 0.000119825 0.0016699)
(0.103476 0.000211084 0.00172796)
(0.104682 0.000359079 0.00152826)
(0.102097 -0.000159434 0.00185762)
(0.10344 6.81472e-05 0.00192586)
(0.104798 0.000173964 0.0016285)
(0.101899 -0.000476271 0.00213242)
(0.103357 -0.000105451 0.00221079)
(0.104892 -5.90811e-05 0.00177711)
(0.103556 -0.000242035 0.00258012)
(0.105182 -0.000285738 0.00201505)
(0.100243 0.000267428 0.00116241)
(0.100087 1.14395e-08 0.000707021)
(0.100064 0.000135817 0.000537335)
(0.100782 0.000465776 0.00182625)
(0.100477 3.42155e-08 0.00161781)
(0.100463 0.000370912 0.00142416)
(0.101401 0.000575596 0.00207625)
(0.101065 5.90467e-08 0.0020347)
(0.101089 0.000525214 0.00193363)
(0.101987 0.000623053 0.00213431)
(0.101694 1.17155e-07 0.00211779)
(0.101797 0.000605967 0.00212877)
(0.102506 0.000631405 0.00216595)
(0.102268 2.347e-07 0.00215075)
(0.102489 0.000639482 0.00221148)
(0.102933 0.000610811 0.00215856)
(0.102741 4.34082e-07 0.00218091)
(0.103119 0.000634482 0.00224254)
(0.103275 0.000572056 0.00209172)
(0.103123 7.41193e-07 0.00213579)
(0.103685 0.000601434 0.0021983)
(0.103551 0.000526666 0.00199376)
(0.103426 1.23932e-06 0.00204697)
(0.104183 0.000555681 0.0021084)
(0.103782 0.000482766 0.00188898)
(0.103676 2.12906e-06 0.00193951)
(0.104618 0.000508192 0.00199703)