/*--------------------------------*- C++ -*----------------------------------*\
| =========                 |                                                 |
| \\      /  F ield         | OpenFOAM: The Open Source CFD Toolbox           |
|  \\    /   O peration     | Version:  2212                                  |
|   \\  /    A nd           | Website:  www.openfoam.com                      |
|    \\/     M anipulation  |                                                 |
\*---------------------------------------------------------------------------*/
FoamFile
{
    version     2.0;
    format      ascii;
    arch        "LSB;label=32;scalar=64";
    class       volScalarField;
    location    "1.4";
    object      nut;
}
// * * * * * * * * * * * * * * * * * * * * * * * * * * * * * * * * * * * * * //

dimensions      [0 2 -1 0 0 0 0];

internalField   nonuniform List<scalar> 
693
(
3.62475e-06
3.60008e-06
3.57559e-06
3.55123e-06
3.52683e-06
3.50262e-06
7.22303e-06
7.16925e-06
7.11767e-06
7.06692e-06
7.01673e-06
6.96699e-06
1.04847e-05
1.03972e-05
1.03124e-05
1.02294e-05
1.01479e-05
1.00689e-05
1.28976e-05
1.27682e-05
1.26446e-05
1.2528e-05
1.24156e-05
1.2307e-05
1.43938e-05
1.42374e-05
1.409e-05
1.39499e-05
1.38169e-05
1.3689e-05
1.48376e-05
1.4666e-05
1.4501e-05
1.43483e-05
1.42068e-05
1.40762e-05
1.41795e-05
1.40176e-05
1.38676e-05
1.37266e-05
1.3595e-05
1.34709e-05
1.25306e-05
1.24043e-05
1.22843e-05
1.21669e-05
1.20556e-05
1.19406e-05
1.00788e-05
9.98132e-06
9.88987e-06
9.80139e-06
9.71651e-06
9.63369e-06
7.02654e-06
6.97017e-06
6.91596e-06
6.86279e-06
6.81045e-06
6.75815e-06
3.62493e-06
3.60011e-06
3.57588e-06
3.55139e-06
3.52693e-06
3.50268e-06
7.02627e-06
6.97023e-06
6.91609e-06
6.86302e-06
6.81093e-06
6.75888e-06
8.68298e-06
8.30023e-06
7.99201e-06
7.67869e-06
7.37911e-06
7.10431e-06
2.00448e-05
1.92409e-05
1.83473e-05
1.7485e-05
1.68052e-05
1.60833e-05
2.95308e-05
2.87409e-05
2.72519e-05
2.65327e-05
2.51084e-05
2.46526e-05
3.58006e-05
3.44757e-05
3.3485e-05
3.22733e-05
3.11164e-05
2.99558e-05
3.88191e-05
3.70248e-05
3.56389e-05
3.45248e-05
3.34667e-05
3.23761e-05
3.79682e-05
3.63603e-05
3.52293e-05
3.34497e-05
3.24844e-05
3.09455e-05
3.13645e-05
2.95007e-05
2.86067e-05
2.68226e-05
2.59569e-05
2.44452e-05
1.92807e-05
1.81263e-05
1.74758e-05
1.63564e-05
1.57793e-05
1.48734e-05
8.72581e-06
8.29173e-06
8.00459e-06
7.67436e-06
7.37557e-06
7.10052e-06
7.22428e-06
7.17057e-06
7.11898e-06
7.06828e-06
7.01792e-06
6.96811e-06
1.00795e-05
9.98271e-06
9.89134e-06
9.80324e-06
9.71876e-06
9.63643e-06
1.91498e-05
1.83031e-05
1.74491e-05
1.64137e-05
1.58463e-05
1.49554e-05
4.09058e-05
3.8852e-05
3.73734e-05
3.52326e-05
3.38236e-05
3.20897e-05
5.86094e-05
5.59611e-05
5.32679e-05
5.1286e-05
4.84804e-05
4.74899e-05
6.93708e-05
6.71691e-05
6.48069e-05
6.18058e-05
5.88894e-05
5.62593e-05
7.3706e-05
7.11358e-05
6.89071e-05
6.58115e-05
6.37211e-05
6.08401e-05
7.1455e-05
6.89583e-05
6.67463e-05
6.40497e-05
6.10978e-05
5.81874e-05
6.13038e-05
5.81895e-05
5.53432e-05
5.22745e-05
5.07072e-05
4.81056e-05
4.11529e-05
3.86861e-05
3.73833e-05
3.50406e-05
3.37363e-05
3.19182e-05
2.03133e-05
1.91076e-05
1.84895e-05
1.74923e-05
1.68296e-05
1.61039e-05
1.04878e-05
1.03998e-05
1.0316e-05
1.02331e-05
1.01515e-05
1.00723e-05
1.25326e-05
1.24075e-05
1.2286e-05
1.21704e-05
1.20589e-05
1.19456e-05
3.0843e-05
2.99579e-05
2.82454e-05
2.73558e-05
2.57185e-05
2.47218e-05
6.12695e-05
5.84911e-05
5.55838e-05
5.30236e-05
5.01915e-05
4.89408e-05
8.23023e-05
7.93931e-05
7.64748e-05
7.3599e-05
7.07452e-05
6.80982e-05
9.43907e-05
9.13621e-05
8.83336e-05
8.52512e-05
8.21935e-05
7.91985e-05
9.86011e-05
9.55549e-05
9.25264e-05
8.94053e-05
8.63565e-05
8.32407e-05
9.52522e-05
9.22023e-05
8.91658e-05
8.60851e-05
8.30004e-05
7.99191e-05
8.23024e-05
7.93752e-05
7.64569e-05
7.35616e-05
7.06919e-05
6.80331e-05
5.87664e-05
5.60246e-05
5.35084e-05
5.13014e-05
4.85151e-05
4.75203e-05
3.01248e-05
2.85066e-05
2.76447e-05
2.65561e-05
2.52245e-05
2.47483e-05
1.29009e-05
1.27715e-05
1.26488e-05
1.25327e-05
1.24204e-05
1.2312e-05
1.41849e-05
1.40228e-05
1.38721e-05
1.37317e-05
1.36003e-05
1.34768e-05
3.808e-05
3.65479e-05
3.52927e-05
3.37097e-05
3.26148e-05
3.11557e-05
7.16706e-05
6.92238e-05
6.70977e-05
6.44781e-05
6.13477e-05
5.84113e-05
9.5544e-05
9.25289e-05
8.95248e-05
8.6454e-05
8.34064e-05
8.02552e-05
0.00010861
0.000105349
0.000102119
9.88722e-05
9.55701e-05
9.31492e-05
0.000112611
0.000109332
0.000106076
0.000102801
9.94651e-05
9.70351e-05
0.000108384
0.000105154
0.000101941
9.86977e-05
9.53857e-05
9.30001e-05
9.46328e-05
9.16171e-05
8.85918e-05
8.5469e-05
8.24169e-05
7.93769e-05
6.96631e-05
6.74982e-05
6.51249e-05
6.20151e-05
5.91337e-05
5.64753e-05
3.60036e-05
3.46343e-05
3.37032e-05
3.22681e-05
3.13763e-05
3.00469e-05
1.43968e-05
1.42412e-05
1.40942e-05
1.39542e-05
1.38216e-05
1.36939e-05
1.48428e-05
1.46721e-05
1.45071e-05
1.43547e-05
1.4213e-05
1.4083e-05
3.9048e-05
3.72318e-05
3.58367e-05
3.4731e-05
3.35169e-05
3.26465e-05
7.41362e-05
7.16793e-05
6.92968e-05
6.6506e-05
6.4261e-05
6.08526e-05
9.92632e-05
9.62075e-05
9.31538e-05
9.00155e-05
8.70944e-05
8.34434e-05
0.000113151
0.000109828
0.000106536
0.000103216
9.99815e-05
9.69679e-05
0.000117373
0.000113986
0.000110634
0.000107275
0.000103891
0.000101318
0.000112768
0.000109468
0.000106197
0.000102899
9.95588e-05
9.71124e-05
9.90187e-05
9.59405e-05
9.28933e-05
8.97053e-05
8.6682e-05
8.35281e-05
7.40222e-05
7.14903e-05
6.92275e-05
6.60164e-05
6.41019e-05
6.10889e-05
3.90149e-05
3.72102e-05
3.58107e-05
3.46808e-05
3.35228e-05
3.25993e-05
1.48406e-05
1.46698e-05
1.45049e-05
1.43523e-05
1.42106e-05
1.40802e-05
1.4398e-05
1.4242e-05
1.40947e-05
1.39562e-05
1.3823e-05
3.59819e-05
3.44888e-05
3.38382e-05
3.243e-05
3.15244e-05
6.97569e-05
6.76046e-05
6.53553e-05
6.22013e-05
5.93211e-05
9.48727e-05
9.18717e-05
8.88809e-05
8.57012e-05
8.35954e-05
0.000108835
0.000105604
0.000102401
9.91061e-05
9.6662e-05
0.000112925
0.000109624
0.000106351
0.000103057
9.98185e-05
9.67953e-05
0.000108392
0.000105183
0.000101986
9.87603e-05
9.55034e-05
9.31002e-05
9.53287e-05
9.22998e-05
8.92979e-05
8.62276e-05
8.31993e-05
8.00905e-05
7.15645e-05
6.90763e-05
6.68392e-05
6.42503e-05
6.13398e-05
5.83967e-05
3.80476e-05
3.64616e-05
3.5281e-05
3.3434e-05
3.26429e-05
3.1135e-05
1.4182e-05
1.40201e-05
1.38702e-05
1.37292e-05
1.35978e-05
1.34742e-05
1.27713e-05
1.26488e-05
1.25321e-05
1.24201e-05
2.87866e-05
2.74175e-05
2.61956e-05
2.57228e-05
5.87612e-05
5.60725e-05
5.36004e-05
5.09935e-05
4.96127e-05
8.2474e-05
7.95835e-05
7.67153e-05
7.36861e-05
7.1917e-05
9.55479e-05
9.25537e-05
8.95943e-05
8.64813e-05
8.42853e-05
9.89585e-05
9.5919e-05
9.28808e-05
8.97473e-05
8.68078e-05
8.39785e-05
9.43993e-05
9.14331e-05
8.84372e-05
8.53894e-05
8.24474e-05
7.94597e-05
8.22367e-05
7.93089e-05
7.64123e-05
7.35089e-05
7.0733e-05
6.8087e-05
6.1251e-05
5.82369e-05
5.54273e-05
5.23531e-05
5.07314e-05
4.81515e-05
3.13952e-05
2.9544e-05
2.86469e-05
2.68965e-05
2.60354e-05
2.45479e-05
1.25321e-05
1.24055e-05
1.2286e-05
1.2169e-05
1.20579e-05
1.19443e-05
1.03998e-05
1.03156e-05
1.02315e-05
1.01505e-05
1.93256e-05
1.83433e-05
1.7354e-05
1.70228e-05
4.08391e-05
3.88708e-05
3.74438e-05
3.5086e-05
3.42948e-05
6.13187e-05
5.85377e-05
5.56745e-05
5.27645e-05
5.11906e-05
7.16609e-05
6.92096e-05
6.70579e-05
6.4445e-05
6.15195e-05
7.39567e-05
7.14877e-05
6.90261e-05
6.60435e-05
6.43364e-05
6.08364e-05
6.94617e-05
6.72924e-05
6.48497e-05
6.20712e-05
5.92838e-05
5.66139e-05
5.86524e-05
5.58995e-05
5.34541e-05
5.11965e-05
4.85789e-05
4.75185e-05
4.08225e-05
3.8679e-05
3.73585e-05
3.50354e-05
3.38042e-05
3.19386e-05
1.9177e-05
1.82618e-05
1.74432e-05
1.6392e-05
1.58279e-05
1.49386e-05
1.00788e-05
9.98197e-06
9.89108e-06
9.80289e-06
9.71855e-06
9.63603e-06
7.17075e-06
7.119e-06
7.06769e-06
7.01736e-06
8.3613e-06
7.9557e-06
7.684e-06
7.39162e-06
1.9221e-05
1.82754e-05
1.74844e-05
1.64238e-05
1.58588e-05
3.10035e-05
2.99163e-05
2.85419e-05
2.68742e-05
2.63242e-05
3.81152e-05
3.66024e-05
3.53359e-05
3.38827e-05
3.27061e-05
3.8992e-05
3.72111e-05
3.58282e-05
3.46541e-05
3.3692e-05
3.2421e-05
3.59175e-05
3.45456e-05
3.3679e-05
3.22915e-05
3.13606e-05
3.00751e-05
3.00704e-05
2.84639e-05
2.76065e-05
2.65562e-05
2.52285e-05
2.47786e-05
2.02348e-05
1.91137e-05
1.84825e-05
1.74925e-05
1.68591e-05
1.61161e-05
8.71747e-06
8.30908e-06
8.01096e-06
7.70284e-06
7.40319e-06
7.12878e-06
7.02646e-06
6.97052e-06
6.91665e-06
6.86384e-06
6.81186e-06
6.75988e-06
3.60021e-06
3.57605e-06
3.55148e-06
3.52696e-06
6.97138e-06
6.91698e-06
6.86366e-06
6.81132e-06
1.00815e-05
9.98402e-06
9.89294e-06
9.80454e-06
9.72037e-06
1.25353e-05
1.2409e-05
1.22893e-05
1.21715e-05
1.20621e-05
1.41865e-05
1.40246e-05
1.38746e-05
1.37334e-05
1.36043e-05
1.48425e-05
1.4672e-05
1.45075e-05
1.4355e-05
1.42148e-05
1.40833e-05
1.43959e-05
1.42406e-05
1.4094e-05
1.39545e-05
1.38223e-05
1.36953e-05
1.28993e-05
1.27701e-05
1.26475e-05
1.25318e-05
1.24196e-05
1.23117e-05
1.0486e-05
1.03986e-05
1.03146e-05
1.02318e-05
1.01505e-05
1.00717e-05
7.22378e-06
7.17013e-06
7.11882e-06
7.06831e-06
7.01825e-06
6.9687e-06
3.62494e-06
3.6003e-06
3.57607e-06
3.55178e-06
3.5274e-06
3.50322e-06
)
;

boundaryField
{
    inlet
    {
        type            calculated;
        value           nonuniform List<scalar> 0();
    }
    ami1
    {
        type            cyclicAMI;
        value           nonuniform List<scalar> 0();
    }
    walls
    {
        type            nutkWallFunction;
        blending        stepwise;
        value           uniform 0;
    }
    ami2
    {
        type            cyclicAMI;
        value           nonuniform List<scalar> 0();
    }
    outlet
    {
        type            calculated;
        value           nonuniform List<scalar> 0();
    }
    procBoundary7to5
    {
        type            processor;
        value           nonuniform List<scalar> 
131
(
3.47793e-06
6.91659e-06
9.99118e-06
1.22027e-05
1.35693e-05
1.39485e-05
1.33433e-05
1.18233e-05
9.54958e-06
6.70354e-06
3.47799e-06
6.70437e-06
6.58999e-06
1.49551e-05
2.29969e-05
2.84226e-05
3.08363e-05
2.89227e-05
2.24852e-05
1.36502e-05
6.58574e-06
6.91757e-06
9.55298e-06
1.37179e-05
2.95043e-05
4.3873e-05
5.29775e-05
5.65063e-05
5.44419e-05
4.44109e-05
2.93758e-05
1.49673e-05
9.99415e-06
1.18271e-05
2.25866e-05
4.50448e-05
6.2764e-05
7.32848e-05
7.70547e-05
7.38973e-05
6.27062e-05
4.39034e-05
2.30545e-05
1.22072e-05
1.33498e-05
2.9112e-05
5.43188e-05
7.41599e-05
8.65379e-05
9.03007e-05
8.6439e-05
7.34836e-05
5.31852e-05
2.82865e-05
1.35731e-05
1.39544e-05
1.36963e-05
3.07164e-05
2.98526e-05
5.65865e-05
5.59492e-05
7.72e-05
7.79411e-05
9.02164e-05
9.05216e-05
9.44887e-05
9.03895e-05
7.73564e-05
5.67438e-05
3.07404e-05
1.39525e-05
1.36963e-05
2.98526e-05
5.59492e-05
7.79411e-05
9.05216e-05
9.05216e-05
9.01071e-05
8.65245e-05
7.40938e-05
5.46609e-05
2.91042e-05
1.33472e-05
1.23125e-05
2.41952e-05
4.63103e-05
6.6784e-05
7.85317e-05
7.85317e-05
7.78875e-05
7.35381e-05
6.28015e-05
4.45022e-05
2.25744e-05
1.18253e-05
1.00715e-05
1.58813e-05
3.15255e-05
4.76099e-05
5.76866e-05
5.76866e-05
5.66266e-05
5.32656e-05
4.39731e-05
2.94404e-05
1.37109e-05
9.55235e-06
6.96691e-06
6.93506e-06
1.45601e-05
2.42745e-05
3.10098e-05
3.10098e-05
3.07241e-05
2.83363e-05
2.30958e-05
1.49972e-05
6.61131e-06
6.70527e-06
3.50205e-06
6.7566e-06
9.63589e-06
1.1945e-05
1.34767e-05
1.34767e-05
1.3957e-05
1.35763e-05
1.22076e-05
9.994e-06
6.91834e-06
3.47842e-06
)
;
    }
    procBoundary7to8
    {
        type            processor;
        value           nonuniform List<scalar> 
68
(
3.65081e-06
7.28023e-06
1.05837e-05
1.30357e-05
1.45598e-05
7.08537e-06
9.09643e-06
2.12176e-05
3.13841e-05
3.72165e-05
1.01794e-05
2.04882e-05
4.28779e-05
6.211e-05
7.23857e-05
1.26663e-05
3.28493e-05
6.34336e-05
8.57669e-05
9.80957e-05
1.4336e-05
4.0029e-05
7.47513e-05
9.91954e-05
0.000112551
0.000116654
1.50033e-05
4.11374e-05
7.73247e-05
0.000102957
0.000117122
0.000121478
1.45639e-05
1.29012e-05
3.73982e-05
2.99269e-05
7.27368e-05
9.84876e-05
0.000112709
0.000116927
1.29012e-05
2.99269e-05
2.99269e-05
6.22478e-05
8.58678e-05
9.91852e-05
0.000102702
1.04871e-05
2.02737e-05
2.02737e-05
4.29616e-05
6.34583e-05
7.47196e-05
7.71631e-05
7.22484e-06
8.76504e-06
8.76504e-06
2.05067e-05
3.28967e-05
4.00653e-05
4.10954e-05
3.62562e-06
7.02873e-06
7.02873e-06
1.01805e-05
1.26676e-05
1.43368e-05
1.5003e-05
)
;
    }
    procBoundary7to9
    {
        type            processor;
        value           nonuniform List<scalar> 
59
(
1.50003e-05
1.43314e-05
1.26605e-05
1.0176e-05
7.08525e-06
3.65067e-06
4.09418e-05
3.98647e-05
3.2553e-05
2.04327e-05
9.10556e-06
7.28098e-06
7.69553e-05
7.4528e-05
6.33228e-05
4.28384e-05
2.11482e-05
1.05846e-05
0.000102402
9.89645e-05
8.57413e-05
6.209e-05
3.1227e-05
1.30374e-05
0.000112337
9.82977e-05
7.2631e-05
3.73735e-05
1.45629e-05
0.000116796
0.00010276
7.71964e-05
4.11079e-05
1.50015e-05
0.000112333
9.90018e-05
7.46025e-05
3.99513e-05
1.43332e-05
9.80736e-05
8.56594e-05
6.33443e-05
3.25979e-05
1.26622e-05
7.24186e-05
6.2003e-05
4.30102e-05
2.04784e-05
1.01771e-05
3.7221e-05
3.1157e-05
2.11901e-05
9.10365e-06
7.08506e-06
1.45619e-05
1.30358e-05
1.05832e-05
7.2802e-06
3.65069e-06
)
;
    }
}


// ************************************************************************* //
