/*--------------------------------*- C++ -*----------------------------------*\
| =========                 |                                                 |
| \\      /  F ield         | OpenFOAM: The Open Source CFD Toolbox           |
|  \\    /   O peration     | Version:  2212                                  |
|   \\  /    A nd           | Website:  www.openfoam.com                      |
|    \\/     M anipulation  |                                                 |
\*---------------------------------------------------------------------------*/
FoamFile
{
    version     2.0;
    format      ascii;
    arch        "LSB;label=32;scalar=64";
    class       volScalarField;
    location    "1.4";
    object      p;
}
// * * * * * * * * * * * * * * * * * * * * * * * * * * * * * * * * * * * * * //

dimensions      [0 2 -2 0 0 0 0];

internalField   nonuniform List<scalar> 
693
(
0.00187752
0.00175867
0.00164092
0.00152432
0.00140862
0.00129498
0.00186996
0.0017515
0.00163364
0.00151688
0.00140117
0.0012875
0.00186096
0.00174265
0.00162518
0.00150865
0.00139321
0.00127963
0.00186314
0.00174338
0.00162519
0.00150849
0.00139298
0.00127906
0.00187069
0.00175085
0.00163247
0.00151577
0.00140039
0.00128631
0.00187618
0.00175645
0.00163744
0.00151997
0.00140421
0.00129021
0.00187776
0.00175801
0.00163941
0.00152255
0.00140725
0.00129405
0.00187661
0.00175888
0.00164236
0.00152674
0.00141192
0.00129916
0.00187829
0.00176097
0.00164477
0.0015291
0.00141387
0.00130065
0.00188652
0.00176804
0.00165026
0.00153377
0.00141808
0.0013045
0.00187788
0.00175942
0.00164141
0.00152485
0.00140905
0.00129531
0.00188598
0.00176712
0.00164959
0.00153314
0.0014176
0.00130415
0.00188723
0.00176788
0.00164981
0.00153261
0.00141646
0.00130275
0.00187259
0.00175376
0.00163611
0.00151951
0.00140363
0.00128894
0.00187485
0.00175562
0.00163719
0.00152002
0.00140355
0.00128778
0.00187715
0.00175791
0.00163991
0.00152282
0.0014063
0.00129024
0.0018788
0.00175938
0.00164134
0.0015242
0.00140773
0.00129196
0.0018776
0.00175792
0.00163925
0.00152206
0.001406
0.00129021
0.0018753
0.00175606
0.00163724
0.00151959
0.0014035
0.0012886
0.00187589
0.00175812
0.00164104
0.00152467
0.001409
0.00129492
0.0018877
0.00176876
0.00165029
0.00153318
0.00141693
0.00130313
0.00187022
0.00175213
0.00163402
0.00151732
0.00140157
0.00128781
0.00187773
0.00176013
0.0016442
0.00152854
0.00141348
0.0013003
0.00187552
0.0017575
0.00164037
0.00152417
0.00140873
0.00129449
0.00184895
0.00173162
0.00161446
0.00149825
0.00138221
0.00126578
0.00184267
0.00172398
0.0016063
0.00148932
0.00137311
0.00125659
0.00183803
0.00171928
0.00160135
0.0014837
0.00136671
0.00124992
0.00183754
0.00171856
0.00160082
0.00148356
0.00136654
0.00124959
0.00183795
0.00171857
0.00160011
0.00148261
0.00136569
0.00124839
0.00184108
0.00172183
0.00160381
0.00148698
0.00137094
0.00125396
0.00184882
0.00173135
0.00161471
0.00149819
0.00138221
0.00126607
0.00187284
0.00175416
0.00163648
0.00151992
0.00140397
0.00128927
0.00186122
0.00174319
0.00162539
0.00150905
0.00139357
0.00127993
0.00187624
0.00175818
0.00164172
0.00152626
0.00141183
0.00129879
0.00187495
0.00175576
0.00163683
0.00151961
0.00140342
0.00128824
0.00184119
0.00172235
0.00160425
0.00148723
0.00137103
0.00125453
0.00183113
0.00171115
0.00159256
0.00147491
0.00135845
0.0012416
0.00182402
0.00170434
0.00158527
0.00146669
0.0013489
0.00123124
0.0018233
0.00170362
0.00158461
0.00146611
0.00134802
0.00122982
0.00182453
0.00170463
0.00158555
0.00146694
0.00134887
0.00123092
0.00183097
0.00171081
0.00159223
0.00147484
0.0013583
0.00124109
0.00184246
0.00172359
0.00160626
0.00148912
0.001373
0.00125652
0.0018748
0.00175551
0.00163746
0.00152022
0.00140376
0.00128808
0.00186328
0.00174376
0.00162535
0.00150891
0.00139335
0.00127948
0.0018774
0.00175766
0.00163912
0.00152236
0.00140728
0.00129411
0.00187727
0.0017577
0.00163911
0.00152215
0.00140617
0.00129067
0.00183801
0.00171877
0.00160036
0.00148267
0.00136576
0.00124878
0.0018246
0.00170478
0.00158569
0.00146691
0.00134871
0.00123072
0.00181455
0.00169455
0.00157529
0.00145648
0.00133816
0.00121978
0.00181239
0.00169239
0.00157314
0.00145438
0.00133612
0.0012177
0.00181454
0.00169452
0.00157525
0.00145646
0.00133818
0.00121982
0.00182403
0.00170425
0.00158508
0.0014665
0.00134871
0.00123098
0.00183801
0.0017192
0.00160118
0.00148352
0.00136657
0.00124956
0.00187708
0.00175787
0.00164006
0.00152295
0.00140648
0.00129036
0.00187067
0.00175101
0.0016328
0.00151614
0.00140077
0.00128707
0.00187583
0.00175623
0.00163737
0.00152014
0.00140453
0.00129075
0.00187847
0.00175917
0.00164125
0.00152428
0.00140809
0.00129234
0.00183754
0.00171856
0.00160078
0.00148334
0.00136624
0.00124918
0.00182339
0.00170364
0.00158455
0.0014659
0.0013474
0.00122908
0.00181241
0.00169232
0.00157299
0.00145416
0.00133559
0.00121709
0.00180954
0.00168948
0.00157017
0.00145136
0.00133305
0.00121462
0.00181242
0.00169238
0.0015731
0.00145433
0.00133606
0.00121761
0.00182337
0.0017036
0.0015845
0.00146599
0.00134788
0.00122957
0.00183759
0.00171854
0.00160072
0.00148343
0.00136646
0.0012493
0.0018787
0.00175933
0.00164134
0.00152425
0.00140792
0.00129212
0.00187605
0.00175648
0.00163763
0.00152024
0.00140448
0.00129075
0.0018705
0.0017507
0.00163238
0.00151583
0.0014009
0.00187688
0.00175759
0.00163975
0.00152306
0.00140666
0.00183785
0.00171921
0.00160126
0.00148362
0.0013662
0.00182404
0.00170433
0.00158511
0.00146652
0.00134812
0.00181458
0.00169455
0.00157524
0.00145651
0.00133747
0.00181241
0.00169237
0.00157309
0.00145434
0.0013359
0.00121744
0.00181459
0.0016946
0.00157536
0.0014566
0.00133828
0.00121984
0.00182455
0.00170466
0.00158559
0.00146702
0.00134891
0.00123084
0.00183793
0.00171856
0.00160005
0.00148267
0.00136588
0.00124848
0.00187748
0.00175781
0.00163913
0.00152201
0.00140607
0.00129033
0.0018776
0.00175794
0.00163946
0.00152248
0.00140703
0.00129401
0.00174364
0.00162575
0.00150846
0.0013932
0.0017551
0.00163668
0.00151993
0.00140394
0.00184256
0.00172346
0.00160556
0.00148935
0.00137287
0.00183101
0.00171093
0.0015921
0.00147493
0.00135768
0.00182455
0.00170469
0.00158556
0.00146697
0.0013483
0.0018233
0.00170355
0.0015845
0.00146606
0.00134771
0.00122944
0.001824
0.00170429
0.00158524
0.00146674
0.00134885
0.001231
0.00183095
0.00171088
0.00159227
0.00147483
0.00135826
0.00124101
0.00184104
0.00172195
0.00160386
0.00148699
0.00137093
0.00125389
0.00187515
0.00175592
0.00163704
0.00151947
0.00140341
0.00128854
0.00187634
0.0017586
0.00164214
0.00152651
0.00141173
0.00129909
0.00174302
0.00162583
0.00150853
0.00139311
0.00175349
0.00163595
0.00151916
0.0014035
0.00184888
0.001731
0.00161383
0.00149778
0.00138182
0.00184095
0.00172206
0.0016036
0.0014871
0.00137078
0.00183789
0.00171864
0.00160018
0.00148259
0.00136537
0.00183746
0.00171843
0.00160061
0.00148329
0.00136593
0.00124882
0.00183794
0.0017192
0.00160121
0.0014835
0.00136645
0.00124943
0.0018424
0.00172365
0.00160623
0.00148904
0.00137289
0.00125638
0.00184882
0.0017314
0.00161455
0.0014981
0.00138213
0.00126593
0.00187572
0.00175776
0.00164065
0.00152434
0.0014087
0.0012947
0.00187795
0.0017605
0.00164451
0.00152879
0.00141358
0.00130048
0.00175184
0.00163424
0.00151684
0.00140135
0.00176807
0.00165021
0.00153246
0.00141662
0.0018755
0.00175715
0.00164022
0.00152359
0.00140806
0.00187471
0.00175547
0.0016365
0.001519
0.00140297
0.00187709
0.0017575
0.00163873
0.00152173
0.0014058
0.00187836
0.001759
0.00164095
0.00152372
0.0014073
0.00129158
0.00187678
0.00175751
0.00163956
0.00152228
0.00140584
0.00128984
0.00187455
0.00175517
0.00163701
0.00151971
0.00140323
0.00128756
0.0018726
0.00175374
0.00163602
0.00151945
0.00140348
0.00128881
0.00188728
0.00176814
0.00164982
0.00153266
0.00141642
0.00130271
0.00188611
0.0017675
0.00164986
0.00153335
0.00141771
0.00130426
0.00175894
0.00164134
0.00152414
0.00140871
0.00176736
0.00164985
0.00153286
0.00141767
0.00187764
0.00176009
0.00164407
0.00152817
0.00141339
0.00187603
0.00175792
0.00164174
0.00152571
0.00141108
0.00187714
0.00175734
0.00163867
0.00152171
0.00140669
0.00187554
0.00175585
0.00163691
0.00151945
0.00140387
0.00128999
0.00187012
0.00175031
0.001632
0.00151532
0.00139999
0.00128624
0.00186277
0.00174318
0.00162471
0.00150822
0.00139265
0.00127878
0.00186077
0.00174262
0.00162482
0.00150845
0.00139298
0.00127938
0.00186979
0.00175156
0.00163345
0.0015167
0.00140099
0.00128731
0.00187747
0.00175885
0.00164092
0.00152433
0.00140856
0.00129492
)
;

boundaryField
{
    inlet
    {
        type            zeroGradient;
    }
    ami1
    {
        type            cyclicAMI;
        value           nonuniform List<scalar> 0();
    }
    walls
    {
        type            zeroGradient;
    }
    ami2
    {
        type            cyclicAMI;
        value           nonuniform List<scalar> 0();
    }
    outlet
    {
        type            fixedValue;
        value           nonuniform List<scalar> 0();
    }
    procBoundary7to5
    {
        type            processor;
        value           nonuniform List<scalar> 
131
(
0.00118171
0.00117433
0.00116695
0.00116648
0.00117264
0.00117683
0.00118099
0.00118601
0.00118713
0.00119086
0.00118193
0.00119065
0.00118938
0.00117523
0.00117268
0.00117439
0.00117651
0.00117505
0.00117428
0.00118114
0.00118963
0.00117455
0.0011869
0.0011809
0.00115106
0.00114029
0.00113343
0.00113327
0.00113231
0.0011384
0.00115118
0.0011755
0.00116717
0.00118584
0.00117423
0.00113881
0.00112477
0.00111451
0.0011129
0.00111421
0.00112454
0.00114027
0.00117303
0.00116688
0.0011811
0.00117556
0.00113256
0.00111402
0.00110256
0.00110026
0.00110254
0.00111426
0.00113311
0.00117458
0.00117343
0.00117742
0.00128714
0.00117681
0.00129028
0.00113291
0.00124899
0.00111262
0.00123021
0.00110015
0.00121893
0.00109709
0.00110014
0.00111257
0.00113279
0.00117662
0.00117758
0.00128714
0.00129028
0.00124899
0.00123021
0.00121893
0.00121893
0.00110038
0.00110254
0.00111404
0.00113223
0.00117519
0.00118117
0.00127979
0.00128821
0.00125572
0.00124018
0.00123027
0.00123027
0.00111305
0.0011143
0.00112444
0.00113831
0.00117427
0.00118608
0.00127981
0.00128936
0.00126587
0.00125392
0.00124848
0.00124848
0.00113304
0.00113313
0.00114016
0.00115109
0.00118095
0.00118704
0.00128742
0.00130276
0.00129434
0.00128796
0.00129005
0.00129005
0.00117617
0.00117408
0.00117256
0.00117504
0.00118915
0.00119067
0.00129474
0.00130354
0.00129963
0.00129792
0.00129297
0.00129297
0.00117618
0.00117243
0.00116613
0.00116649
0.00117398
0.00118152
)
;
    }
    procBoundary7to8
    {
        type            processor;
        value           nonuniform List<scalar> 
68
(
0.00199645
0.00198802
0.00197934
0.00198428
0.00199148
0.00200549
0.00200669
0.0019925
0.0019951
0.00199764
0.00199632
0.00199428
0.00196777
0.00196288
0.00195828
0.00199526
0.00199465
0.00196099
0.00195231
0.00194486
0.00199701
0.00199755
0.00195856
0.0019457
0.00193569
0.00193352
0.00199548
0.00199914
0.00195842
0.00194441
0.00193358
0.00193068
0.00199099
0.00186281
0.00199747
0.00187484
0.00195827
0.00194493
0.00193573
0.00193355
0.00186281
0.00187484
0.00187484
0.00196312
0.0019523
0.00194567
0.00194429
0.00186053
0.00187259
0.00187259
0.00196795
0.00196096
0.00195849
0.00195831
0.0018694
0.0018869
0.0018869
0.0019941
0.0019945
0.00199746
0.00199905
0.00187705
0.00188561
0.00188561
0.00199604
0.00199492
0.00199678
0.0019953
)
;
    }
    procBoundary7to9
    {
        type            processor;
        value           nonuniform List<scalar> 
59
(
0.00199593
0.00199729
0.00199515
0.00199634
0.00200544
0.00199624
0.00199948
0.00199802
0.00199509
0.00199433
0.00200647
0.0019877
0.00195842
0.00195872
0.00196154
0.00196815
0.00199251
0.00197911
0.00194432
0.00194574
0.00195243
0.00196316
0.0019952
0.00198401
0.0019357
0.00194495
0.00195836
0.00199761
0.00199123
0.00193357
0.00194441
0.00195848
0.00199935
0.00199567
0.00193571
0.00194573
0.00195865
0.00199787
0.00199709
0.00194485
0.00195233
0.00196137
0.00199487
0.00199496
0.00195821
0.00196304
0.00196798
0.00199417
0.00199626
0.00199737
0.00199504
0.00199234
0.00200631
0.00200527
0.00199088
0.00198363
0.00197877
0.0019875
0.00199606
)
;
    }
}


// ************************************************************************* //
