/*--------------------------------*- C++ -*----------------------------------*\
| =========                 |                                                 |
| \\      /  F ield         | OpenFOAM: The Open Source CFD Toolbox           |
|  \\    /   O peration     | Version:  2212                                  |
|   \\  /    A nd           | Website:  www.openfoam.com                      |
|    \\/     M anipulation  |                                                 |
\*---------------------------------------------------------------------------*/
FoamFile
{
    version     2.0;
    format      ascii;
    arch        "LSB;label=32;scalar=64";
    class       volScalarField;
    location    "0.15";
    object      p;
}
// * * * * * * * * * * * * * * * * * * * * * * * * * * * * * * * * * * * * * //

dimensions      [0 2 -2 0 0 0 0];

internalField   nonuniform List<scalar> 
680
(
0.0194509
0.0122479
0.00993634
0.00939643
0.00911874
0.00888892
0.00868552
0.01216
0.0114377
0.0103405
0.00966628
0.00925026
0.00895948
0.00872957
0.0118175
0.0109636
0.0101943
0.00962873
0.00924292
0.00895941
0.00872746
0.0114064
0.0106433
0.0100205
0.00956337
0.00921437
0.00893676
0.0087038
0.0112717
0.0105318
0.00994149
0.00952967
0.00920421
0.00893338
0.00870265
0.0112717
0.0105318
0.00994147
0.00952963
0.00920416
0.00893329
0.00870252
0.0114064
0.0106432
0.0100204
0.00956328
0.00921424
0.00893656
0.00870347
0.0118175
0.0109635
0.0101942
0.00962864
0.00924278
0.00895919
0.00872711
0.01216
0.0114376
0.0103405
0.00966621
0.00925016
0.00895934
0.00872937
0.0194509
0.0122479
0.00993631
0.00939639
0.0091187
0.00888888
0.00868548
0.01216
0.0114377
0.0103406
0.00966629
0.00925024
0.00895942
0.00872945
0.0114437
0.0114192
0.0106871
0.0099651
0.00950195
0.00916428
0.00888412
0.0105185
0.010643
0.0103356
0.00991481
0.00954145
0.00921199
0.00891995
0.0101014
0.0101448
0.00997578
0.00970767
0.00942134
0.00914206
0.00888253
0.00988422
0.0099072
0.00978011
0.00956167
0.00932685
0.0090937
0.00886484
0.00988419
0.00990717
0.00978008
0.00956161
0.00932676
0.00909358
0.00886466
0.0101013
0.0101447
0.00997569
0.00970756
0.00942118
0.00914183
0.00888218
0.0105185
0.0106429
0.0103355
0.00991474
0.00954134
0.00921183
0.00891969
0.0114437
0.0114192
0.010687
0.00996507
0.00950193
0.00916425
0.00888409
0.01216
0.0114377
0.0103405
0.00966628
0.00925026
0.00895948
0.00872957
0.0118176
0.0109636
0.0101943
0.00962873
0.00924287
0.00895927
0.00872719
0.0105185
0.010643
0.0103355
0.00991478
0.00954138
0.00921186
0.00891973
0.00994667
0.010048
0.00993491
0.00971016
0.00945859
0.00919935
0.00893588
0.00957852
0.00964676
0.00959475
0.009447
0.00926364
0.00906567
0.0088591
0.00939454
0.00945925
0.00942979
0.00930492
0.00914829
0.00898245
0.00880818
0.00939452
0.00945923
0.00942976
0.00930487
0.00914822
0.00898236
0.00880805
0.00957847
0.00964671
0.00959469
0.00944692
0.00926353
0.00906552
0.00885887
0.00994665
0.010048
0.0099349
0.00971014
0.00945857
0.00919933
0.00893586
0.0105185
0.010643
0.0103356
0.00991481
0.00954144
0.00921198
0.00891994
0.0118176
0.0109636
0.0101943
0.00962876
0.00924294
0.00895943
0.00872748
0.0114065
0.0106433
0.0100205
0.00956335
0.0092143
0.00893661
0.00870353
0.0101014
0.0101448
0.00997574
0.0097076
0.00942122
0.00914186
0.0088822
0.0095785
0.00964674
0.00959471
0.00944694
0.00926354
0.00906553
0.00885888
0.00927576
0.00933488
0.00932353
0.00922992
0.00909332
0.00893363
0.00876177
0.00912135
0.00918403
0.0091881
0.00911653
0.00900082
0.00886134
0.00870921
0.00912134
0.00918402
0.00918809
0.00911651
0.00900079
0.00886131
0.00870917
0.00927575
0.00933487
0.00932351
0.00922991
0.00909331
0.00893362
0.00876176
0.00957852
0.00964676
0.00959474
0.00944699
0.00926363
0.00906565
0.00885907
0.0101014
0.0101448
0.00997579
0.00970768
0.00942135
0.00914205
0.00888251
0.0114065
0.0106433
0.0100205
0.00956339
0.00921439
0.00893677
0.00870381
0.0112718
0.0105318
0.00994151
0.00952967
0.00920419
0.00893332
0.00870254
0.00988424
0.00990721
0.00978011
0.00956164
0.00932678
0.00909359
0.00886467
0.00939454
0.00945925
0.00942977
0.00930488
0.00914822
0.00898236
0.00880804
0.00912135
0.00918403
0.00918809
0.00911651
0.0090008
0.00886131
0.00870916
0.00897391
0.00904316
0.00906549
0.00901458
0.00891789
0.00879559
0.00865844
0.0089739
0.00904316
0.00906549
0.00901457
0.00891789
0.00879559
0.00865844
0.00912134
0.00918403
0.00918809
0.00911652
0.00900081
0.00886133
0.00870919
0.00939455
0.00945925
0.00942978
0.00930492
0.00914828
0.00898244
0.00880815
0.00988425
0.00990722
0.00978013
0.00956168
0.00932685
0.00909369
0.00886483
0.0112718
0.0105318
0.00994152
0.00952969
0.00920423
0.00893339
0.00870266
0.0112718
0.0105318
0.00994152
0.00952969
0.00920423
0.00893339
0.00870266
0.00988425
0.00990722
0.00978013
0.00956168
0.00932685
0.0090937
0.00886484
0.00939455
0.00945926
0.00942979
0.00930492
0.00914829
0.00898244
0.00880816
0.00912135
0.00918403
0.0091881
0.00911652
0.00900081
0.00886134
0.0087092
0.0089739
0.00904316
0.00906549
0.00901458
0.00891789
0.0087956
0.00865844
0.0089739
0.00904315
0.00906548
0.00901457
0.00891789
0.00879559
0.00865844
0.00912133
0.00918401
0.00918808
0.0091165
0.00900079
0.0088613
0.00870916
0.00939452
0.00945923
0.00942975
0.00930487
0.00914821
0.00898235
0.00880803
0.00988422
0.00990719
0.00978009
0.00956162
0.00932677
0.00909358
0.00886466
0.0112718
0.0105318
0.00994149
0.00952965
0.00920418
0.00893331
0.00870253
0.0114064
0.0106433
0.0100205
0.00956338
0.00921438
0.00893676
0.0087038
0.0101014
0.0101448
0.00997578
0.00970767
0.00942134
0.00914205
0.00888251
0.00957852
0.00964676
0.00959474
0.00944699
0.00926363
0.00906565
0.00885908
0.00927576
0.00933487
0.00932352
0.00922991
0.00909331
0.00893362
0.00876177
0.00912133
0.00918402
0.00918808
0.00911651
0.00900079
0.00886131
0.00870917
0.00912133
0.00918402
0.00918808
0.00911651
0.00900081
0.00886133
0.00927573
0.00933485
0.0093235
0.0092299
0.0090933
0.00893361
0.00957847
0.00964671
0.00959468
0.00944691
0.00926353
0.00906552
0.0101014
0.0101447
0.0099757
0.00970756
0.00942119
0.00914184
0.0114064
0.0106432
0.0100204
0.0095633
0.00921425
0.00893656
0.0118176
0.0109636
0.0101943
0.00962874
0.00924293
0.00895942
0.00872747
0.0105185
0.010643
0.0103356
0.00991481
0.00954144
0.00921198
0.00891994
0.00994666
0.010048
0.0099349
0.00971015
0.00945858
0.00919934
0.00893587
0.00957848
0.00964672
0.0095947
0.00944693
0.00926354
0.00906553
0.00885888
0.00939452
0.00945923
0.00942975
0.00930487
0.00914822
0.00898236
0.00880804
0.00939452
0.00945923
0.00942976
0.0093049
0.00914828
0.00898244
0.00957848
0.00964672
0.00959471
0.00944696
0.0092636
0.00906563
0.00994662
0.010048
0.00993486
0.00971011
0.00945854
0.00919929
0.0105184
0.0106429
0.0103355
0.00991472
0.00954131
0.0092118
0.0118175
0.0109635
0.0101942
0.00962866
0.0092428
0.00895921
0.01216
0.0114377
0.0103405
0.00966628
0.00925026
0.00895948
0.00872956
0.0114437
0.0114192
0.0106871
0.00996509
0.00950194
0.00916426
0.0088841
0.0105185
0.0106429
0.0103355
0.00991476
0.00954136
0.00921185
0.00891972
0.0101014
0.0101447
0.00997572
0.00970758
0.00942121
0.00914186
0.0088822
0.00988419
0.00990717
0.00978008
0.00956161
0.00932676
0.00909358
0.00886467
0.0098842
0.00990718
0.00978009
0.00956165
0.00932682
0.00909368
0.0101014
0.0101447
0.00997573
0.00970762
0.0094213
0.00914201
0.0105184
0.0106429
0.0103355
0.00991475
0.00954138
0.00921192
0.0114437
0.0114192
0.010687
0.00996504
0.00950189
0.00916422
0.01216
0.0114376
0.0103405
0.00966621
0.00925017
0.00895935
0.0194509
0.0122479
0.00993632
0.00939641
0.00911872
0.00888889
0.00868549
0.01216
0.0114376
0.0103405
0.00966624
0.00925019
0.00895937
0.0087294
0.0118175
0.0109635
0.0101943
0.00962868
0.00924282
0.00895923
0.00872715
0.0114064
0.0106432
0.0100204
0.00956331
0.00921426
0.00893658
0.0087035
0.0112717
0.0105318
0.00994147
0.00952964
0.00920416
0.00893329
0.00870252
0.0112717
0.0105318
0.00994148
0.00952965
0.00920419
0.00893336
0.0114064
0.0106432
0.0100204
0.00956333
0.00921433
0.00893672
0.0118175
0.0109635
0.0101942
0.00962868
0.00924287
0.00895937
0.01216
0.0114376
0.0103405
0.00966622
0.0092502
0.00895943
0.0194509
0.0122479
0.00993628
0.00939637
0.00911869
0.00888885
)
;

boundaryField
{
    inlet
    {
        type            zeroGradient;
    }
    ami1
    {
        type            cyclicAMI;
        value           nonuniform List<scalar> 0();
    }
    walls
    {
        type            zeroGradient;
    }
    ami2
    {
        type            cyclicAMI;
        value           nonuniform List<scalar> 0();
    }
    outlet
    {
        type            fixedValue;
        value           nonuniform List<scalar> 0();
    }
    procBoundary4to3
    {
        type            processor;
        value           nonuniform List<scalar> 
109
(
0.00849784
0.00852633
0.00852162
0.00849881
0.0084983
0.00849808
0.00849828
0.00852107
0.00852603
0.00849781
0.0085261
0.00863767
0.00866416
0.00864715
0.00864479
0.00864451
0.00864656
0.00866372
0.00863765
0.00852633
0.00852114
0.00866376
0.00868931
0.00865268
0.00862598
0.00862578
0.00865234
0.00868929
0.00866414
0.00852163
0.00849832
0.00864658
0.00865234
0.00858543
0.00854981
0.00854975
0.00858542
0.00865265
0.00864713
0.00849881
0.00849809
0.00864451
0.00862577
0.00854975
0.0085118
0.0085118
0.0085498
0.00862595
0.00864477
0.00849829
0.00849829
0.00864478
0.00862596
0.00854981
0.0085118
0.0085118
0.0087092
0.00854975
0.00876176
0.00862575
0.00885886
0.00864449
0.00888218
0.00849809
0.00870349
0.0084988
0.00864713
0.00865267
0.00858543
0.00854975
0.0087092
0.0087092
0.00876176
0.00885886
0.00888218
0.00870349
0.00852162
0.00866414
0.0086893
0.00865235
0.00862577
0.00880816
0.00880816
0.00885906
0.00893584
0.00891968
0.00872713
0.00852632
0.00863766
0.00866376
0.00864658
0.00864451
0.00886483
0.00886483
0.00888248
0.00891989
0.00888406
0.00872936
0.00849781
0.00852606
0.0085211
0.0084983
0.00849808
0.00870263
0.00870263
0.00870376
0.00872741
0.0087295
0.00868544
)
;
    }
}


// ************************************************************************* //
