/*--------------------------------*- C++ -*----------------------------------*\
| =========                 |                                                 |
| \\      /  F ield         | OpenFOAM: The Open Source CFD Toolbox           |
|  \\    /   O peration     | Version:  2212                                  |
|   \\  /    A nd           | Website:  www.openfoam.com                      |
|    \\/     M anipulation  |                                                 |
\*---------------------------------------------------------------------------*/
FoamFile
{
    version     2.0;
    format      ascii;
    arch        "LSB;label=32;scalar=64";
    class       volVectorField;
    location    "0.15";
    object      U;
}
// * * * * * * * * * * * * * * * * * * * * * * * * * * * * * * * * * * * * * //

dimensions      [0 1 -1 0 0 0 0];

internalField   nonuniform List<vector> 
680
(
(0.0956452 -0.00836634 -0.00836634)
(0.0905584 0.00154546 0.00154547)
(0.0790914 0.00241882 0.00241888)
(0.071333 0.00147613 0.00147625)
(0.0662901 0.000803202 0.000803418)
(0.0625534 0.000513571 0.00051396)
(0.0597187 0.000360456 0.000361102)
(0.0999003 0.00127586 0.00069637)
(0.0969568 0.00366018 0.00274051)
(0.0935601 0.00262923 0.00209429)
(0.0897096 0.00178167 0.00155684)
(0.0860986 0.00146334 0.0012874)
(0.083146 0.00122314 0.00101978)
(0.0808555 0.000959423 0.000739668)
(0.099413 0.000344418 0.000269879)
(0.0988625 0.00202688 0.001866)
(0.0979461 0.00255958 0.00215098)
(0.0964573 0.00232436 0.00183292)
(0.0948139 0.0019784 0.00150152)
(0.0933242 0.00165262 0.00119744)
(0.0920412 0.00136932 0.000944828)
(0.0995415 0.000245997 0.000324434)
(0.0992599 0.00105536 0.00154679)
(0.098856 0.00149153 0.00208863)
(0.0981475 0.00153425 0.00202449)
(0.0974068 0.00139692 0.00176528)
(0.0966836 0.00122009 0.0014819)
(0.0960345 0.00104964 0.0012179)
(0.0993803 3.37311e-05 6.00104e-05)
(0.0992701 0.000271211 0.00120462)
(0.0989792 0.000425232 0.00188677)
(0.0984712 0.000466271 0.00197686)
(0.0979884 0.000441758 0.00184048)
(0.0975467 0.000393984 0.00160654)
(0.0971211 0.000338253 0.00135071)
(0.0993803 -3.37129e-05 5.99743e-05)
(0.0992701 -0.000271117 0.00120461)
(0.0989792 -0.000425048 0.00188676)
(0.0984713 -0.000465955 0.00197683)
(0.0979887 -0.000441223 0.00184044)
(0.0975471 -0.000393069 0.00160647)
(0.0971219 -0.000336713 0.00135057)
(0.0995415 -0.00024599 0.000324434)
(0.09926 -0.00105532 0.00154678)
(0.0988561 -0.00149146 0.00208859)
(0.0981477 -0.00153413 0.00202443)
(0.0974074 -0.00139669 0.00176519)
(0.0966847 -0.00121967 0.00148172)
(0.0960363 -0.00104888 0.00121761)
(0.099413 -0.000344426 0.000269878)
(0.0988625 -0.00202693 0.00186598)
(0.0979462 -0.00255966 0.0021509)
(0.0964576 -0.00232447 0.00183277)
(0.0948144 -0.00197857 0.00150132)
(0.0933252 -0.00165291 0.00119713)
(0.0920431 -0.00136984 0.000944335)
(0.0999003 -0.00127587 0.000696368)
(0.0969568 -0.00366024 0.00274046)
(0.0935601 -0.00262936 0.00209422)
(0.0897098 -0.00178189 0.0015567)
(0.0860988 -0.0014637 0.00128719)
(0.0831464 -0.00122377 0.00101939)
(0.0808563 -0.000960404 0.000739029)
(0.0956452 0.00836635 -0.00836635)
(0.0905584 -0.0015455 0.00154543)
(0.0790914 -0.0024189 0.00241878)
(0.071333 -0.00147628 0.00147608)
(0.0662901 -0.000803445 0.000803137)
(0.0625534 -0.000513981 0.000513499)
(0.0597187 -0.000361116 0.00036038)
(0.0999003 0.000696374 0.00127586)
(0.0969568 0.00274049 0.0036602)
(0.0935601 0.00209422 0.00262928)
(0.0897098 0.0015567 0.00178181)
(0.0860988 0.00128721 0.00146363)
(0.0831464 0.00101942 0.0012237)
(0.0808563 0.000739063 0.000960344)
(0.10022 0.000715487 0.000715496)
(0.0999393 0.0019461 0.00194614)
(0.0997973 0.00239531 0.00239543)
(0.0988413 0.00234784 0.00234806)
(0.0973813 0.00211396 0.00211431)
(0.0960043 0.00169883 0.00169952)
(0.0948064 0.00125716 0.00125836)
(0.100139 0.000772371 0.000867691)
(0.100454 0.00194916 0.00195126)
(0.100912 0.00238867 0.00229375)
(0.100979 0.00244473 0.00235838)
(0.100712 0.00227535 0.00219784)
(0.100272 0.00195588 0.00190005)
(0.0998002 0.00158102 0.00153499)
(0.100094 0.000444102 0.000763112)
(0.100503 0.00118351 0.00174134)
(0.101098 0.0015586 0.00210457)
(0.101615 0.00168204 0.00218202)
(0.10194 0.00167006 0.00217773)
(0.102103 0.00152432 0.00204178)
(0.102162 0.00130607 0.00180205)
(0.100087 0.000143747 0.000708553)
(0.100473 0.000386128 0.00161846)
(0.101054 0.000528556 0.00202234)
(0.101669 0.000586531 0.00208859)
(0.102209 0.000588998 0.00209062)
(0.102631 0.000548737 0.0020332)
(0.102931 0.00047499 0.00186557)
(0.100087 -0.000143716 0.000708549)
(0.100473 -0.000386041 0.00161845)
(0.101054 -0.000528403 0.00202232)
(0.101669 -0.000586259 0.00208852)
(0.10221 -0.000588516 0.00209047)
(0.102631 -0.000547913 0.00203296)
(0.102932 -0.000473643 0.00186518)
(0.100094 -0.000444098 0.000763106)
(0.100503 -0.0011835 0.00174132)
(0.101098 -0.00155857 0.0021045)
(0.101615 -0.00168197 0.0021818)
(0.10194 -0.00166994 0.00217731)
(0.102104 -0.00152412 0.00204116)
(0.102163 -0.00130575 0.0018011)
(0.100139 -0.000772388 0.000867674)
(0.100454 -0.0019492 0.00195119)
(0.100912 -0.00238875 0.00229357)
(0.100979 -0.00244489 0.00235808)
(0.100712 -0.00227563 0.00219738)
(0.100273 -0.00195641 0.00189937)
(0.0998013 -0.00158191 0.00153394)
(0.10022 -0.000715498 0.000715478)
(0.0999393 -0.00194616 0.0019461)
(0.0997973 -0.00239543 0.00239528)
(0.0988413 -0.00234806 0.00234781)
(0.0973813 -0.00211431 0.00211392)
(0.0960043 -0.00169951 0.00169878)
(0.0948064 -0.00125834 0.00125712)
(0.0999003 -0.00069638 0.00127586)
(0.0969567 -0.0027405 0.00366012)
(0.09356 -0.00209428 0.00262915)
(0.0897096 -0.00155681 0.00178157)
(0.0860986 -0.00128737 0.00146325)
(0.083146 -0.00101974 0.00122305)
(0.0808555 -0.000739621 0.000959335)
(0.099413 0.000269885 0.000344414)
(0.0988625 0.001866 0.00202689)
(0.0979462 0.00215092 0.00255962)
(0.0964576 0.0018328 0.00232444)
(0.0948144 0.00150135 0.00197856)
(0.0933252 0.00119717 0.00165291)
(0.092043 0.000944376 0.00136984)
(0.100139 0.000867684 0.000772378)
(0.100454 0.00195121 0.00194919)
(0.100912 0.00229359 0.00238875)
(0.100979 0.0023581 0.0024449)
(0.100712 0.0021974 0.00227565)
(0.100273 0.00189939 0.00195643)
(0.0998013 0.00153396 0.00158194)
(0.10006 0.000638522 0.00063854)
(0.100503 0.00162881 0.00162887)
(0.101141 0.00217045 0.0021706)
(0.101721 0.00235478 0.00235503)
(0.102164 0.00229307 0.00229349)
(0.102412 0.00208377 0.00208449)
(0.102521 0.00176689 0.00176804)
(0.100046 0.000393531 0.000540749)
(0.100477 0.00103404 0.00137894)
(0.101144 0.00144643 0.00189923)
(0.101882 0.00164411 0.00213455)
(0.102578 0.00167154 0.00218048)
(0.1032 0.0015715 0.00207861)
(0.103699 0.00138809 0.00187207)
(0.100039 0.000130639 0.000481745)
(0.100446 0.000346523 0.00123808)
(0.101103 0.000494263 0.00173857)
(0.10188 0.000573228 0.00199105)
(0.102672 0.000596803 0.00206496)
(0.103424 0.000568523 0.00202116)
(0.104097 0.000511 0.00188764)
(0.100039 -0.000130617 0.000481735)
(0.100446 -0.000346469 0.00123805)
(0.101103 -0.000494169 0.00173852)
(0.101881 -0.000573072 0.00199095)
(0.102672 -0.000596546 0.00206478)
(0.103425 -0.000568098 0.00202088)
(0.104097 -0.00051034 0.0018872)
(0.100046 -0.000393538 0.000540725)
(0.100477 -0.00103406 0.00137887)
(0.101144 -0.00144645 0.00189909)
(0.101882 -0.00164415 0.00213431)
(0.102578 -0.00167161 0.00218008)
(0.1032 -0.00157166 0.00207797)
(0.1037 -0.00138836 0.001871)
(0.10006 -0.000638548 0.000638514)
(0.100503 -0.00162888 0.00162879)
(0.101141 -0.0021706 0.00217044)
(0.101721 -0.00235502 0.00235478)
(0.102164 -0.00229347 0.00229307)
(0.102412 -0.00208445 0.00208377)
(0.102521 -0.00176799 0.00176688)
(0.100139 -0.0008677 0.000772361)
(0.100454 -0.00195127 0.00194914)
(0.100912 -0.00229375 0.00238865)
(0.100979 -0.00235837 0.00244471)
(0.100712 -0.00219782 0.00227534)
(0.100272 -0.00190002 0.00195586)
(0.0998002 -0.00153495 0.001581)
(0.099413 -0.000269883 0.000344405)
(0.0988625 -0.00186601 0.00202685)
(0.0979461 -0.00215098 0.00255954)
(0.0964573 -0.00183292 0.00232432)
(0.0948139 -0.00150152 0.00197837)
(0.0933242 -0.00119743 0.0016526)
(0.0920413 -0.000944811 0.0013693)
(0.0995415 0.000324436 0.000245986)
(0.0992599 0.0015468 0.00105531)
(0.0988561 0.0020886 0.00149144)
(0.0981477 0.00202443 0.00153412)
(0.0974073 0.0017652 0.00139669)
(0.0966847 0.00148173 0.00121968)
(0.0960363 0.00121762 0.0010489)
(0.100094 0.000763113 0.000444092)
(0.100503 0.00174133 0.00118349)
(0.101098 0.0021045 0.00155857)
(0.101615 0.0021818 0.00168197)
(0.10194 0.00217731 0.00166995)
(0.102104 0.00204116 0.00152414)
(0.102163 0.00180111 0.00130578)
(0.100046 0.000540733 0.000393532)
(0.100477 0.00137888 0.00103405)
(0.101144 0.00189909 0.00144645)
(0.101882 0.0021343 0.00164415)
(0.102578 0.00218007 0.00167163)
(0.1032 0.00207796 0.00157169)
(0.1037 0.001871 0.0013884)
(0.100036 0.000324272 0.000324284)
(0.100428 0.000866539 0.000866578)
(0.101075 0.0012478 0.00124789)
(0.101872 0.00146347 0.00146361)
(0.102706 0.00153853 0.00153877)
(0.103515 0.00150878 0.00150916)
(0.104255 0.00139621 0.00139682)
(0.100031 0.0001076 0.000284853)
(0.100397 0.00029244 0.000773284)
(0.101024 0.000428915 0.00112953)
(0.101833 0.000511204 0.00134359)
(0.102711 0.00054584 0.00143907)
(0.103591 0.000540821 0.0014413)
(0.104432 0.000505523 0.00137143)
(0.100031 -0.000107597 0.000284844)
(0.100397 -0.000292437 0.000773258)
(0.101024 -0.000428915 0.00112949)
(0.101833 -0.000511205 0.00134351)
(0.102711 -0.000545844 0.00143893)
(0.103591 -0.000540828 0.00144111)
(0.104432 -0.000505521 0.00137113)
(0.100036 -0.000324289 0.000324266)
(0.100428 -0.000866585 0.00086653)
(0.101075 -0.00124789 0.0012478)
(0.101872 -0.00146361 0.00146346)
(0.102706 -0.00153875 0.00153853)
(0.103515 -0.00150913 0.00150878)
(0.104255 -0.00139678 0.00139622)
(0.100046 -0.000540756 0.000393525)
(0.100477 -0.00137895 0.00103403)
(0.101144 -0.00189922 0.00144642)
(0.101882 -0.00213453 0.0016441)
(0.102578 -0.00218045 0.00167153)
(0.1032 -0.00207856 0.00157149)
(0.103699 -0.001872 0.00138808)
(0.100094 -0.000763118 0.000444096)
(0.100503 -0.00174135 0.0011835)
(0.101098 -0.00210455 0.00155859)
(0.101615 -0.002182 0.00168203)
(0.10194 -0.00217769 0.00167004)
(0.102103 -0.00204172 0.00152429)
(0.102162 -0.00180198 0.00130604)
(0.0995415 -0.000324436 0.000245991)
(0.0992599 -0.0015468 0.00105535)
(0.098856 -0.00208863 0.00149151)
(0.0981475 -0.00202448 0.00153424)
(0.0974068 -0.00176526 0.00139692)
(0.0966836 -0.00148187 0.00122009)
(0.0960345 -0.00121786 0.00104963)
(0.0993803 5.99974e-05 3.37141e-05)
(0.0992701 0.00120459 0.000271125)
(0.0989792 0.00188675 0.000425048)
(0.0984713 0.00197682 0.000465955)
(0.0979887 0.00184042 0.000441227)
(0.0975471 0.00160644 0.000393077)
(0.0971218 0.00135056 0.00033673)
(0.100087 0.000708552 0.000143715)
(0.100473 0.00161845 0.000386036)
(0.101054 0.00202231 0.000528398)
(0.101669 0.0020885 0.000586256)
(0.10221 0.00209044 0.000588517)
(0.102631 0.00203293 0.000547918)
(0.102932 0.00186516 0.000473655)
(0.100039 0.000481741 0.000130616)
(0.100446 0.00123806 0.000346465)
(0.101103 0.00173851 0.000494166)
(0.101881 0.00199093 0.000573072)
(0.102672 0.00206475 0.000596548)
(0.103425 0.00202086 0.000568104)
(0.104097 0.00188718 0.00051035)
(0.100031 0.000284849 0.000107596)
(0.100397 0.000773265 0.000292433)
(0.101024 0.00112949 0.00042891)
(0.101833 0.0013435 0.000511202)
(0.102711 0.00143892 0.000545844)
(0.103591 0.00144109 0.000540831)
(0.104432 0.00137111 0.000505528)
(0.100048 7.37908e-05 7.37916e-05)
(0.100369 0.000252836 0.000252844)
(0.100967 0.000385295 0.000385311)
(0.101771 0.000469376 0.000469406)
(0.102678 0.000510297 0.000510347)
(0.103613 0.000515403 0.00051548)
(0.104523 0.000492607 0.000492721)
(0.100048 -7.37954e-05 7.37911e-05)
(0.100369 -0.00025285 0.000252836)
(0.100967 -0.000385319 0.000385294)
(0.101771 -0.000469414 0.000469376)
(0.102678 -0.000510353 0.000510301)
(0.103613 -0.000515482 0.00051541)
(0.104523 -0.000492717 0.000492617)
(0.100031 -0.000284859 0.000107598)
(0.100397 -0.000773291 0.000292435)
(0.101024 -0.00112954 0.000428908)
(0.101833 -0.00134359 0.000511196)
(0.102711 -0.00143905 0.000545834)
(0.103591 -0.00144128 0.000540816)
(0.104432 -0.0013714 0.000505521)
(0.100039 -0.000481751 0.000130637)
(0.100446 -0.00123808 0.000346517)
(0.101103 -0.00173856 0.000494253)
(0.10188 -0.00199103 0.000573214)
(0.102672 -0.00206492 0.000596783)
(0.103424 -0.00202111 0.000568498)
(0.104097 -0.00188758 0.000510977)
(0.100087 -0.000708555 0.000143746)
(0.100473 -0.00161846 0.000386126)
(0.101054 -0.00202231 0.000528552)
(0.101669 -0.00208855 0.000586523)
(0.102209 -0.00209056 0.00058898)
(0.102631 -0.00203312 0.000548705)
(0.102931 -0.00186549 0.000474955)
(0.0993803 -6.00145e-05 3.37315e-05)
(0.0992701 -0.00120461 0.000271213)
(0.0989791 -0.00188675 0.000425242)
(0.0984712 -0.00197682 0.000466284)
(0.0979884 -0.00184043 0.000441776)
(0.0975467 -0.00160648 0.000394)
(0.097121 -0.00135065 0.000338259)
(0.0993803 6.00051e-05 -3.37268e-05)
(0.0992701 0.00120462 -0.000271198)
(0.0989791 0.00188676 -0.000425223)
(0.0984712 0.00197684 -0.000466264)
(0.0979884 0.00184046 -0.000441753)
(0.0975467 0.00160652 -0.000393979)
(0.0971211 0.00135069 -0.000338247)
(0.100087 0.000708556 -0.000143744)
(0.100473 0.00161846 -0.000386126)
(0.101054 0.00202232 -0.000528558)
(0.101669 0.00208856 -0.000586536)
(0.102209 0.00209058 -0.000589005)
(0.102631 0.00203316 -0.000548743)
(0.102931 0.00186554 -0.000474996)
(0.100039 0.00048175 -0.000130636)
(0.100446 0.00123808 -0.000346522)
(0.101103 0.00173856 -0.000494266)
(0.10188 0.00199103 -0.000573235)
(0.102672 0.00206493 -0.000596812)
(0.103424 0.00202112 -0.000568533)
(0.104097 0.00188761 -0.000511012)
(0.100031 0.000284858 -0.000107599)
(0.100397 0.000773289 -0.00029244)
(0.101024 0.00112953 -0.00042892)
(0.101833 0.00134358 -0.000511213)
(0.102711 0.00143904 -0.000545853)
(0.103591 0.00144128 -0.000540835)
(0.104432 0.0013714 -0.000505537)
(0.100048 7.37953e-05 -7.37929e-05)
(0.100369 0.000252844 -0.000252843)
(0.100967 0.000385309 -0.000385304)
(0.101771 0.000469399 -0.00046939)
(0.102678 0.000510335 -0.000510315)
(0.103613 0.000515465 -0.000515421)
(0.104523 0.000492705 -0.000492621)
(0.100048 -7.3791e-05 -7.37921e-05)
(0.100369 -0.000252838 -0.000252848)
(0.100967 -0.000385305 -0.000385321)
(0.101771 -0.000469391 -0.000469418)
(0.102678 -0.000510315 -0.000510358)
(0.103613 -0.00051542 -0.000515486)
(0.104523 -0.000492619 -0.00049272)
(0.100031 -0.000284849 -0.000107595)
(0.100397 -0.000773266 -0.000292436)
(0.101024 -0.00112949 -0.000428919)
(0.101833 -0.00134351 -0.000511215)
(0.102711 -0.00143893 -0.000545858)
(0.103591 -0.0014411 -0.000540843)
(0.104432 -0.00137111 -0.000505534)
(0.100039 -0.000481741 -0.000130614)
(0.100446 -0.00123805 -0.000346467)
(0.101103 -0.0017385 -0.000494174)
(0.101881 -0.00199093 -0.000573089)
(0.102672 -0.00206476 -0.000596577)
(0.103425 -0.00202086 -0.000568141)
(0.104097 -0.00188717 -0.00051038)
(0.100087 -0.00070855 -0.000143711)
(0.100473 -0.00161844 -0.00038603)
(0.101054 -0.00202229 -0.000528393)
(0.101669 -0.00208848 -0.000586256)
(0.10221 -0.00209043 -0.000588527)
(0.102631 -0.00203291 -0.000547952)
(0.102932 -0.00186513 -0.000473711)
(0.0993803 -5.99755e-05 -3.37076e-05)
(0.0992701 -0.00120459 -0.000271098)
(0.0989792 -0.00188673 -0.000425014)
(0.0984713 -0.00197677 -0.000465906)
(0.0979887 -0.00184036 -0.000441152)
(0.0975471 -0.00160637 -0.000392972)
(0.0971218 -0.00135048 -0.000336623)
(0.0995415 0.000324435 -0.00024599)
(0.0992599 0.00154679 -0.00105534)
(0.098856 0.00208863 -0.00149151)
(0.0981475 0.00202449 -0.00153424)
(0.0974068 0.00176527 -0.00139692)
(0.0966836 0.00148189 -0.00122009)
(0.0960345 0.00121789 -0.00104964)
(0.100094 0.000763116 -0.000444096)
(0.100503 0.00174134 -0.0011835)
(0.101098 0.00210456 -0.0015586)
(0.101615 0.00218201 -0.00168204)
(0.10194 0.00217771 -0.00167006)
(0.102103 0.00204175 -0.00152432)
(0.102162 0.00180202 -0.00130608)
(0.100046 0.000540754 -0.000393527)
(0.100477 0.00137894 -0.00103403)
(0.101144 0.00189921 -0.00144643)
(0.101882 0.00213453 -0.00164411)
(0.102578 0.00218045 -0.00167155)
(0.1032 0.00207857 -0.00157152)
(0.103699 0.00187203 -0.00138811)
(0.100036 0.000324288 -0.000324269)
(0.100428 0.000866581 -0.000866536)
(0.101075 0.00124788 -0.00124781)
(0.101872 0.00146359 -0.00146348)
(0.102706 0.00153874 -0.00153854)
(0.103515 0.00150912 -0.0015088)
(0.104255 0.00139678 -0.00139624)
(0.100031 0.000107598 -0.000284846)
(0.100397 0.000292435 -0.000773262)
(0.101024 0.000428905 -0.00112949)
(0.101833 0.00051119 -0.00134351)
(0.102711 0.000545826 -0.00143894)
(0.103591 0.000540811 -0.00144112)
(0.104432 0.000505508 -0.00137114)
(0.100031 -0.000107598 -0.000284853)
(0.100397 -0.000292441 -0.000773285)
(0.101024 -0.000428922 -0.00112953)
(0.101833 -0.000511216 -0.00134359)
(0.102711 -0.000545856 -0.00143907)
(0.103591 -0.000540837 -0.0014413)
(0.100036 -0.00032427 -0.000324282)
(0.100428 -0.000866537 -0.000866576)
(0.101075 -0.0012478 -0.00124788)
(0.101872 -0.00146347 -0.00146361)
(0.102706 -0.00153854 -0.00153876)
(0.103515 -0.00150879 -0.00150914)
(0.100046 -0.00054073 -0.000393529)
(0.100477 -0.00137887 -0.00103404)
(0.101144 -0.00189908 -0.00144645)
(0.101882 -0.0021343 -0.00164415)
(0.102578 -0.00218008 -0.00167162)
(0.1032 -0.00207798 -0.00157168)
(0.100094 -0.000763108 -0.000444088)
(0.100503 -0.00174131 -0.00118348)
(0.101098 -0.00210447 -0.00155855)
(0.101615 -0.00218178 -0.00168196)
(0.10194 -0.00217734 -0.00166995)
(0.102104 -0.00204128 -0.00152419)
(0.0995415 -0.000324433 -0.000245978)
(0.09926 -0.00154678 -0.00105529)
(0.0988561 -0.00208854 -0.00149141)
(0.0981478 -0.00202435 -0.00153406)
(0.0974074 -0.00176507 -0.00139659)
(0.0966848 -0.0014816 -0.00121955)
(0.099413 0.000269881 -0.000344409)
(0.0988625 0.00186601 -0.00202686)
(0.0979461 0.00215098 -0.00255956)
(0.0964573 0.00183292 -0.00232434)
(0.0948139 0.00150152 -0.00197838)
(0.0933242 0.00119743 -0.0016526)
(0.0920413 0.000944814 -0.0013693)
(0.100139 0.000867695 -0.000772365)
(0.100454 0.00195126 -0.00194914)
(0.100912 0.00229374 -0.00238866)
(0.100979 0.00235837 -0.00244472)
(0.100712 0.00219782 -0.00227534)
(0.100272 0.00190002 -0.00195587)
(0.0998002 0.00153496 -0.00158102)
(0.10006 0.000638545 -0.000638517)
(0.100503 0.00162888 -0.0016288)
(0.101141 0.00217058 -0.00217044)
(0.101721 0.00235501 -0.00235478)
(0.102164 0.00229346 -0.00229307)
(0.102412 0.00208445 -0.00208378)
(0.102521 0.00176799 -0.0017669)
(0.100046 0.000393538 -0.000540728)
(0.100477 0.00103405 -0.00137887)
(0.101144 0.00144644 -0.00189909)
(0.101882 0.00164413 -0.00213431)
(0.102578 0.00167159 -0.00218008)
(0.1032 0.00157164 -0.00207798)
(0.1037 0.00138836 -0.00187102)
(0.100039 0.00013062 -0.000481735)
(0.100446 0.000346468 -0.00123805)
(0.101103 0.00049416 -0.00173851)
(0.101881 0.000573057 -0.00199094)
(0.102672 0.000596527 -0.00206477)
(0.103425 0.000568079 -0.00202089)
(0.104097 0.000510322 -0.00188721)
(0.100039 -0.000130634 -0.000481744)
(0.100446 -0.00034652 -0.00123808)
(0.101103 -0.000494264 -0.00173856)
(0.10188 -0.000573233 -0.00199103)
(0.102672 -0.000596808 -0.00206494)
(0.103424 -0.000568524 -0.00202115)
(0.100046 -0.000393527 -0.000540746)
(0.100477 -0.00103403 -0.00137893)
(0.101144 -0.00144642 -0.00189921)
(0.101882 -0.0016441 -0.00213452)
(0.102578 -0.00167152 -0.00218045)
(0.1032 -0.00157148 -0.00207857)
(0.10006 -0.000638518 -0.000638537)
(0.100503 -0.00162879 -0.00162886)
(0.101141 -0.00217043 -0.00217057)
(0.101721 -0.00235476 -0.00235501)
(0.102164 -0.00229305 -0.00229345)
(0.102412 -0.00208373 -0.00208441)
(0.100139 -0.00086768 -0.000772376)
(0.100454 -0.00195118 -0.00194918)
(0.100912 -0.00229355 -0.00238873)
(0.100979 -0.00235806 -0.00244488)
(0.100712 -0.00219739 -0.00227564)
(0.100273 -0.00189939 -0.00195638)
(0.099413 -0.000269882 -0.000344412)
(0.0988625 -0.00186598 -0.00202689)
(0.0979463 -0.00215087 -0.0025596)
(0.0964577 -0.00183273 -0.0023244)
(0.0948145 -0.00150125 -0.00197847)
(0.0933254 -0.00119706 -0.00165279)
(0.0999003 0.00069637 -0.00127585)
(0.0969567 0.0027405 -0.00366014)
(0.09356 0.00209427 -0.00262917)
(0.0897096 0.00155681 -0.00178161)
(0.0860986 0.00128737 -0.00146328)
(0.083146 0.00101975 -0.00122307)
(0.0808555 0.000739625 -0.000959361)
(0.10022 0.000715498 -0.000715482)
(0.0999392 0.00194615 -0.00194609)
(0.0997973 0.00239542 -0.00239527)
(0.0988413 0.00234805 -0.0023478)
(0.0973813 0.0021143 -0.00211391)
(0.0960043 0.0016995 -0.00169879)
(0.0948064 0.00125833 -0.00125713)
(0.100139 0.000772385 -0.000867675)
(0.100454 0.00194919 -0.00195118)
(0.100912 0.00238874 -0.00229356)
(0.100979 0.00244488 -0.00235806)
(0.100712 0.00227562 -0.00219737)
(0.100273 0.00195639 -0.00189937)
(0.0998012 0.00158189 -0.00153394)
(0.100094 0.0004441 -0.000763106)
(0.100503 0.0011835 -0.00174132)
(0.101098 0.00155857 -0.00210448)
(0.101615 0.00168196 -0.00218178)
(0.10194 0.00166993 -0.0021773)
(0.102104 0.00152411 -0.00204117)
(0.102163 0.00130573 -0.00180113)
(0.100087 0.000143721 -0.000708547)
(0.100473 0.000386045 -0.00161844)
(0.101054 0.000528401 -0.0020223)
(0.101669 0.000586253 -0.0020885)
(0.10221 0.000588507 -0.00209046)
(0.102631 0.000547904 -0.00203298)
(0.102932 0.000473628 -0.00186521)
(0.100087 -0.000143741 -0.000708551)
(0.100473 -0.000386119 -0.00161845)
(0.101054 -0.00052855 -0.00202231)
(0.101669 -0.000586526 -0.00208856)
(0.102209 -0.00058899 -0.0020906)
(0.102631 -0.000548723 -0.00203321)
(0.100094 -0.000444097 -0.00076311)
(0.100503 -0.0011835 -0.00174133)
(0.101098 -0.00155858 -0.00210454)
(0.101615 -0.00168202 -0.002182)
(0.10194 -0.00167003 -0.0021777)
(0.102103 -0.00152427 -0.00204174)
(0.100139 -0.000772368 -0.00086769)
(0.100454 -0.00194914 -0.00195125)
(0.100912 -0.00238865 -0.00229371)
(0.100979 -0.0024447 -0.00235834)
(0.100712 -0.00227532 -0.00219779)
(0.100272 -0.00195579 -0.00189997)
(0.10022 -0.000715485 -0.000715497)
(0.0999393 -0.0019461 -0.00194615)
(0.0997973 -0.00239527 -0.0023954)
(0.0988413 -0.0023478 -0.00234803)
(0.0973813 -0.00211392 -0.00211429)
(0.0960043 -0.00169878 -0.0016995)
(0.0999003 -0.000696371 -0.00127587)
(0.0969568 -0.00274046 -0.0036602)
(0.0935601 -0.00209419 -0.00262928)
(0.0897098 -0.00155667 -0.00178181)
(0.0860989 -0.00128714 -0.0014636)
(0.0831466 -0.00101933 -0.00122364)
(0.0956452 -0.00836634 0.00836635)
(0.0905584 0.00154549 -0.00154544)
(0.0790914 0.0024189 -0.00241878)
(0.071333 0.00147627 -0.00147608)
(0.0662901 0.000803438 -0.000803148)
(0.0625535 0.000513972 -0.000513514)
(0.0597187 0.000361105 -0.000360398)
(0.0999003 0.00127587 -0.00069637)
(0.0969568 0.00366023 -0.00274047)
(0.0935601 0.00262934 -0.00209421)
(0.0897097 0.00178187 -0.00155669)
(0.0860988 0.00146367 -0.00128718)
(0.0831464 0.00122374 -0.00101939)
(0.0808563 0.000960373 -0.000739032)
(0.099413 0.000344425 -0.00026988)
(0.0988625 0.00202692 -0.00186598)
(0.0979462 0.00255966 -0.00215089)
(0.0964576 0.00232447 -0.00183276)
(0.0948144 0.00197858 -0.00150131)
(0.0933252 0.00165292 -0.00119712)
(0.0920431 0.00136984 -0.000944337)
(0.0995415 0.000245995 -0.000324434)
(0.0992599 0.00105534 -0.00154678)
(0.0988561 0.00149147 -0.00208857)
(0.0981477 0.00153414 -0.0020244)
(0.0974074 0.00139671 -0.00176516)
(0.0966847 0.0012197 -0.0014817)
(0.0960363 0.00104891 -0.00121761)
(0.0993803 3.37198e-05 -5.99848e-05)
(0.0992701 0.00027114 -0.0012046)
(0.0989792 0.000425078 -0.00188673)
(0.0984713 0.000465985 -0.00197679)
(0.0979887 0.000441257 -0.00184039)
(0.0975472 0.000393111 -0.00160641)
(0.0971219 0.00033676 -0.00135054)
(0.0993803 -3.37251e-05 -6.00002e-05)
(0.0992701 -0.000271187 -0.00120462)
(0.0989792 -0.000425201 -0.00188675)
(0.0984712 -0.000466239 -0.00197682)
(0.0979885 -0.000441724 -0.00184044)
(0.0975467 -0.000393947 -0.00160649)
(0.0995415 -0.000245991 -0.000324434)
(0.0992599 -0.00105534 -0.00154679)
(0.098856 -0.00149151 -0.00208861)
(0.0981475 -0.00153422 -0.00202445)
(0.0974068 -0.00139688 -0.00176521)
(0.0966837 -0.00122005 -0.00148183)
(0.099413 -0.000344414 -0.000269879)
(0.0988625 -0.00202688 -0.00186599)
(0.0979462 -0.00255957 -0.00215095)
(0.0964574 -0.00232432 -0.00183287)
(0.094814 -0.00197831 -0.00150143)
(0.0933243 -0.00165248 -0.0011973)
(0.0999003 -0.00127586 -0.000696367)
(0.0969568 -0.00366016 -0.00274048)
(0.0935601 -0.00262921 -0.00209426)
(0.0897096 -0.00178164 -0.00155681)
(0.0860987 -0.00146327 -0.00128734)
(0.0831461 -0.00122302 -0.00101968)
(0.0956452 0.00836635 0.00836635)
(0.0905584 -0.00154545 -0.00154547)
(0.0790914 -0.00241881 -0.00241888)
(0.071333 -0.00147607 -0.00147622)
(0.06629 -0.000803156 -0.000803412)
(0.0625533 -0.000513524 -0.00051396)
)
;

boundaryField
{
    inlet
    {
        type            fixedValue;
        value           uniform (0.1 0 0);
    }
    ami1
    {
        type            cyclicAMI;
        value           nonuniform List<vector> 0();
    }
    walls
    {
        type            noSlip;
    }
    ami2
    {
        type            cyclicAMI;
        value           nonuniform List<vector> 0();
    }
    outlet
    {
        type            zeroGradient;
    }
    procBoundary4to3
    {
        type            processor;
        value           nonuniform List<vector> 
109
(
(0.0576132 0.000253782 0.000254982)
(0.0791265 0.000740433 0.000516962)
(0.090959 0.00111304 0.000739012)
(0.0954844 0.000882495 0.000977743)
(0.0967473 0.000280121 0.00109423)
(0.0967487 -0.000277534 0.00109399)
(0.0954877 -0.000881284 0.00097718)
(0.0909621 -0.00111391 0.000738223)
(0.0791278 -0.000742026 0.000515954)
(0.0576132 -0.000254999 0.000253705)
(0.0791278 0.000515993 0.000741959)
(0.093828 0.000905089 0.000907102)
(0.0993469 0.00123163 0.00120131)
(0.102145 0.00107042 0.00152569)
(0.103138 0.000392786 0.00163175)
(0.103139 -0.000390549 0.00163115)
(0.102147 -0.00106983 0.00152421)
(0.0993489 -0.00123303 0.00119948)
(0.093828 -0.000907085 0.000905045)
(0.0791265 -0.000516913 0.000740362)
(0.0909621 0.00073827 0.00111391)
(0.0993489 0.00119951 0.00123307)
(0.102542 0.00144038 0.00144224)
(0.104084 0.00116558 0.00161162)
(0.104657 0.000435224 0.0016777)
(0.104657 -0.000434176 0.001677)
(0.104085 -0.00116601 0.00160992)
(0.102542 -0.00144217 0.00144036)
(0.099347 -0.00120126 0.00123161)
(0.090959 -0.000738993 0.00111303)
(0.0954876 0.000977212 0.000881324)
(0.102147 0.00152423 0.00106988)
(0.104085 0.00160993 0.00116606)
(0.104894 0.00123079 0.00123174)
(0.105189 0.000449746 0.00124484)
(0.10519 -0.000449736 0.00124437)
(0.104894 -0.00123169 0.00123079)
(0.104084 -0.00161154 0.00116556)
(0.102145 -0.00152562 0.00107039)
(0.0954845 -0.0009777 0.000882481)
(0.0967487 0.00109399 0.000277564)
(0.103139 0.00163114 0.00039057)
(0.104657 0.00167698 0.00043419)
(0.10519 0.00124435 0.000449749)
(0.105368 0.000449622 0.000449793)
(0.105368 -0.000449782 0.000449635)
(0.105189 -0.0012448 0.000449748)
(0.104657 -0.00167763 0.000435205)
(0.103138 -0.00163167 0.000392748)
(0.0967473 -0.00109417 0.000280102)
(0.0967473 0.00109422 -0.000280108)
(0.103138 0.00163172 -0.000392791)
(0.104657 0.00167767 -0.000435237)
(0.105189 0.00124482 -0.000449759)
(0.105368 0.000449776 -0.000449631)
(0.105368 -0.000449628 -0.000449786)
(0.104432 -0.000505536 -0.00137143)
(0.105189 -0.00124433 -0.000449745)
(0.104255 -0.00139622 -0.0013968)
(0.104657 -0.00167695 -0.0004342)
(0.1037 -0.001871 -0.00138838)
(0.103139 -0.00163111 -0.000390616)
(0.102163 -0.00180119 -0.00130581)
(0.0967486 -0.00109394 -0.000277523)
(0.0960366 -0.00121757 -0.0010488)
(0.0954844 0.000977736 -0.0008825)
(0.102145 0.00152567 -0.00107044)
(0.104084 0.00161158 -0.0011656)
(0.104894 0.00123171 -0.00123081)
(0.10519 0.000449727 -0.00124437)
(0.104432 -0.000505536 -0.00137143)
(0.104432 -0.000505536 -0.00137143)
(0.104255 -0.00139622 -0.0013968)
(0.1037 -0.001871 -0.00138838)
(0.102163 -0.00180119 -0.00130581)
(0.0960366 -0.00121757 -0.0010488)
(0.090959 0.000739 -0.00111302)
(0.0993469 0.00120128 -0.00123163)
(0.102542 0.0014422 -0.0014404)
(0.104085 0.00116601 -0.00160996)
(0.104657 0.000434162 -0.00167701)
(0.104097 -0.000511 -0.00188763)
(0.104097 -0.000511 -0.00188763)
(0.103699 -0.00138806 -0.00187202)
(0.102521 -0.00176685 -0.00176796)
(0.0998012 -0.00153395 -0.00158186)
(0.0920433 -0.000944368 -0.00136973)
(0.0791266 0.000516923 -0.000740375)
(0.093828 0.000907076 -0.000905061)
(0.0993488 0.00123303 -0.00119951)
(0.102147 0.00106983 -0.00152425)
(0.103139 0.00039054 -0.00163116)
(0.102931 -0.000474965 -0.00186559)
(0.102931 -0.000474965 -0.00186559)
(0.102162 -0.00130601 -0.00180201)
(0.0998002 -0.00158092 -0.00153489)
(0.0948064 -0.00125706 -0.00125827)
(0.0808565 -0.000739039 -0.000960271)
(0.0576132 0.000254977 -0.000253722)
(0.0791279 0.000741986 -0.000515972)
(0.0909621 0.0011139 -0.000738238)
(0.0954876 0.000881317 -0.0009772)
(0.0967487 0.000277578 -0.00109399)
(0.0971211 -0.00033822 -0.00135067)
(0.0971211 -0.00033822 -0.00135067)
(0.0960346 -0.00104962 -0.00121785)
(0.0920414 -0.00136918 -0.000944744)
(0.0808557 -0.000959272 -0.000739603)
(0.0597189 -0.000360306 -0.000361004)
)
;
    }
}


// ************************************************************************* //
