/*--------------------------------*- C++ -*----------------------------------*\
| =========                 |                                                 |
| \\      /  F ield         | OpenFOAM: The Open Source CFD Toolbox           |
|  \\    /   O peration     | Version:  2212                                  |
|   \\  /    A nd           | Website:  www.openfoam.com                      |
|    \\/     M anipulation  |                                                 |
\*---------------------------------------------------------------------------*/
FoamFile
{
    version     2.0;
    format      ascii;
    arch        "LSB;label=32;scalar=64";
    class       volScalarField;
    location    "1.55";
    object      nut;
}
// * * * * * * * * * * * * * * * * * * * * * * * * * * * * * * * * * * * * * //

dimensions      [0 2 -1 0 0 0 0];

internalField   nonuniform List<scalar> 
689
(
4.36224e-06
4.29916e-06
4.23894e-06
4.18529e-06
4.13377e-06
4.0865e-06
4.04435e-06
4.0071e-06
9.11198e-06
8.94095e-06
8.77481e-06
8.63042e-06
8.49165e-06
8.36001e-06
8.24222e-06
8.1422e-06
1.40925e-05
1.37363e-05
1.34125e-05
1.31241e-05
1.28635e-05
1.26303e-05
1.2416e-05
1.22148e-05
1.20279e-05
2.02155e-05
1.93959e-05
1.87113e-05
1.81234e-05
1.76094e-05
1.71549e-05
1.67396e-05
1.63631e-05
1.60165e-05
1.56968e-05
1.5401e-05
1.51261e-05
2.32118e-05
2.22988e-05
2.15071e-05
2.08078e-05
2.0182e-05
1.9618e-05
1.91079e-05
1.86436e-05
1.82154e-05
1.78195e-05
1.74523e-05
1.71115e-05
2.41661e-05
2.32559e-05
2.24456e-05
2.17149e-05
2.10476e-05
2.04395e-05
1.98866e-05
1.93819e-05
1.89169e-05
1.84858e-05
1.80861e-05
1.77142e-05
2.29419e-05
2.21027e-05
2.13456e-05
2.06557e-05
2.00278e-05
1.94547e-05
1.89305e-05
1.84494e-05
1.80044e-05
1.75934e-05
1.72133e-05
1.68623e-05
1.9832e-05
1.91356e-05
1.85094e-05
1.79333e-05
1.74021e-05
1.69194e-05
1.64754e-05
1.60674e-05
1.5694e-05
1.5355e-05
1.50398e-05
1.47486e-05
1.53776e-05
1.48227e-05
1.43962e-05
1.39641e-05
1.35664e-05
1.3206e-05
1.28883e-05
1.25983e-05
1.23339e-05
1.20939e-05
1.18767e-05
1.00653e-05
9.81118e-06
9.54236e-06
9.26669e-06
9.03852e-06
8.84019e-06
8.66352e-06
8.50875e-06
8.36225e-06
8.22314e-06
8.09976e-06
4.63403e-06
4.60708e-06
4.53708e-06
4.44439e-06
4.3665e-06
4.30316e-06
4.24344e-06
4.18885e-06
4.13699e-06
4.0886e-06
4.04635e-06
9.02302e-06
8.82586e-06
8.65094e-06
8.49923e-06
8.35306e-06
8.21676e-06
8.09339e-06
7.99325e-06
2.64464e-05
2.49815e-05
2.34415e-05
2.20116e-05
2.03718e-05
1.89406e-05
1.77044e-05
1.67789e-05
5.68024e-05
5.37881e-05
5.07267e-05
4.7867e-05
4.51529e-05
4.25735e-05
4.02062e-05
3.78815e-05
3.61576e-05
8.83601e-05
8.35992e-05
7.94584e-05
7.57862e-05
7.29255e-05
7.01775e-05
6.64612e-05
6.2865e-05
5.95223e-05
5.64278e-05
5.35487e-05
5.08794e-05
0.000104569
9.78671e-05
9.24002e-05
8.76446e-05
8.33561e-05
7.9691e-05
7.67035e-05
7.37758e-05
6.99163e-05
6.63896e-05
6.31404e-05
6.01332e-05
0.00010934
0.000102933
9.72412e-05
9.21572e-05
8.7581e-05
8.33913e-05
8.03044e-05
7.74666e-05
7.41222e-05
7.04081e-05
6.70491e-05
6.39923e-05
0.000101152
9.63878e-05
9.18852e-05
8.76852e-05
8.38001e-05
8.06168e-05
7.78154e-05
7.50481e-05
7.14368e-05
6.8079e-05
6.50146e-05
6.22017e-05
8.35306e-05
8.09687e-05
7.83226e-05
7.56448e-05
7.34941e-05
7.13386e-05
6.82716e-05
6.48704e-05
6.16994e-05
5.87332e-05
5.59566e-05
5.33214e-05
6.22136e-05
6.05379e-05
5.90671e-05
5.76868e-05
5.51434e-05
5.20915e-05
4.9228e-05
4.65407e-05
4.38563e-05
4.1317e-05
3.89698e-05
3.52824e-05
3.24252e-05
3.03873e-05
2.85987e-05
2.70487e-05
2.53292e-05
2.36655e-05
2.21578e-05
2.05051e-05
1.90143e-05
1.7816e-05
1.01162e-05
9.85228e-06
9.60148e-06
9.34535e-06
9.1362e-06
8.96048e-06
8.79031e-06
8.64123e-06
8.50121e-06
8.36631e-06
8.24929e-06
1.39581e-05
1.3554e-05
1.31904e-05
1.2873e-05
1.25861e-05
1.23242e-05
1.20865e-05
1.18705e-05
1.16735e-05
5.69942e-05
5.4563e-05
5.1662e-05
4.89086e-05
4.63024e-05
4.36728e-05
4.11939e-05
3.88221e-05
3.67047e-05
0.000101252
9.70091e-05
9.29124e-05
8.89576e-05
8.51273e-05
8.13641e-05
7.77192e-05
7.41858e-05
7.08733e-05
0.000152879
0.000144563
0.000137345
0.000131015
0.000125357
0.000120189
0.000115253
0.000110585
0.000106156
0.000101929
9.7883e-05
9.40304e-05
0.000170594
0.000162346
0.000154762
0.000147819
0.000141443
0.000135572
0.000130176
0.00012517
0.000120353
0.000115747
0.000111368
0.00010722
0.000175469
0.000167601
0.000160185
0.000153249
0.000146786
0.000140767
0.000135238
0.000130147
0.000125335
0.00012071
0.00011629
0.000112103
0.00016884
0.000161308
0.000154268
0.000147703
0.000141608
0.000135979
0.000130777
0.000125925
0.000121297
0.000116896
0.000112699
0.0001087
0.000151235
0.000143928
0.000137307
0.000131341
0.000125943
0.000120973
0.000116267
0.000111749
0.000107404
0.000103224
9.92275e-05
9.54128e-05
0.00011795
0.000111816
0.000106484
0.000101883
9.75966e-05
9.34123e-05
8.93629e-05
8.54511e-05
8.16207e-05
7.79191e-05
7.43581e-05
6.9365e-05
6.25459e-05
5.98339e-05
5.75365e-05
5.43483e-05
5.11282e-05
4.81522e-05
4.53586e-05
4.27151e-05
4.03302e-05
3.78761e-05
1.5666e-05
1.50364e-05
1.45597e-05
1.41405e-05
1.37634e-05
1.34294e-05
1.31377e-05
1.28748e-05
1.26385e-05
1.24226e-05
1.22185e-05
1.79606e-05
1.74102e-05
1.69171e-05
1.64689e-05
1.60598e-05
1.56873e-05
1.53491e-05
1.50359e-05
1.47477e-05
7.55237e-05
7.34079e-05
7.12303e-05
6.81227e-05
6.47527e-05
6.16116e-05
5.86771e-05
5.59097e-05
5.33478e-05
0.000131044
0.000125697
0.000120761
0.000116081
0.000111591
0.000107274
0.00010312
9.91418e-05
9.5387e-05
0.000191389
0.00018219
0.000173843
0.000166297
0.000159437
0.000153156
0.000147364
0.000141935
0.000136825
0.000131994
0.000127408
0.000123052
0.000210018
0.000200993
0.000192617
0.000184827
0.000177578
0.000170823
0.000164513
0.000158612
0.000153087
0.000147883
0.000142946
0.000138265
0.000215315
0.000206667
0.000198478
0.000190743
0.000183456
0.000176603
0.000170172
0.00016414
0.000158478
0.000153146
0.000148108
0.000143336
0.00021029
0.000201296
0.000192903
0.000185094
0.000177831
0.000171074
0.000164779
0.000158898
0.000153379
0.000148183
0.000143275
0.000138625
0.000191414
0.000182177
0.000173869
0.000166358
0.000159518
0.000153245
0.000147453
0.00014202
0.000136901
0.000132058
0.000127463
0.000123078
0.000152885
0.000144729
0.000137621
0.000131319
0.000125657
0.000120458
0.000115485
0.000110781
0.000106318
0.00010206
9.79983e-05
8.86324e-05
8.38398e-05
7.97231e-05
7.602e-05
7.31586e-05
7.03385e-05
6.65674e-05
6.29494e-05
5.95866e-05
5.64767e-05
5.35755e-05
2.02269e-05
1.94154e-05
1.87271e-05
1.81344e-05
1.7618e-05
1.71605e-05
1.67458e-05
1.63676e-05
1.60201e-05
1.56996e-05
1.54023e-05
2.0691e-05
2.00448e-05
1.94619e-05
1.89325e-05
1.8449e-05
1.80031e-05
1.75921e-05
1.72125e-05
1.68624e-05
8.8058e-05
8.3996e-05
8.07605e-05
7.78702e-05
7.50555e-05
7.14456e-05
6.80983e-05
6.50391e-05
6.22345e-05
0.00014775
0.000141646
0.000136006
0.000130788
0.000125926
0.000121295
0.000116895
0.0001127
0.000108707
0.000210303
0.000201372
0.000192995
0.00018518
0.000177904
0.000171132
0.000164822
0.000158928
0.000153401
0.000148199
0.000143286
0.000138636
0.000231484
0.000222071
0.000213293
0.000205091
0.000197417
0.000190225
0.000183475
0.000177133
0.000171167
0.000165544
0.000160232
0.00015521
0.000238287
0.000228668
0.000219753
0.000211442
0.000203663
0.000196361
0.000189494
0.000183029
0.000176936
0.000171186
0.000165753
0.000160615
0.000231471
0.000222065
0.000213287
0.000205085
0.000197408
0.000190214
0.000183463
0.00017712
0.000171152
0.000165528
0.000160216
0.00015519
0.000210011
0.000201004
0.000192645
0.000184866
0.00017762
0.000170864
0.000164548
0.000158639
0.000153106
0.000147895
0.000142952
0.000138247
0.000170619
0.000162321
0.000154763
0.000147853
0.000141499
0.000135639
0.000130235
0.00012522
0.000120399
0.000115787
0.000111406
0.000104626
9.79205e-05
9.24278e-05
8.76592e-05
8.3364e-05
7.96977e-05
7.6701e-05
7.37674e-05
6.99084e-05
6.63831e-05
6.31316e-05
2.32143e-05
2.23037e-05
2.15111e-05
2.08102e-05
2.01827e-05
1.96177e-05
1.91072e-05
1.86429e-05
1.82148e-05
1.7819e-05
1.74511e-05
0.000215457
0.00020683
0.000198639
0.000190889
0.000183579
0.0001767
0.000170243
0.000164189
0.000158509
0.000153161
0.000148108
0.000143321
0.000238344
0.00022873
0.000219818
0.000211507
0.000203724
0.000196416
0.00018954
0.000183067
0.000176964
0.000171206
0.000165765
0.000160618
0.000245992
0.000235974
0.000226753
0.000218207
0.00021024
0.000202777
0.000195763
0.000189157
0.000182926
0.000177041
0.000171477
0.000166213
0.000238339
0.00022875
0.000219844
0.000211527
0.000203733
0.000196413
0.000189528
0.000183047
0.00017694
0.000171179
0.000165737
0.000160588
0.000215384
0.000206802
0.000198613
0.000190855
0.000183538
0.000176656
0.000170198
0.000164144
0.000158464
0.00015312
0.000148073
0.00014327
0.00017549
0.000167628
0.00016021
0.00015327
0.000146801
0.000140772
0.000135234
0.000130124
0.000125309
0.000120686
0.000116271
0.000109601
0.000103078
9.73096e-05
9.21896e-05
8.75904e-05
8.33563e-05
8.02752e-05
7.74506e-05
7.41118e-05
7.03915e-05
6.70368e-05
2.41781e-05
2.32672e-05
2.24534e-05
2.17192e-05
2.10497e-05
2.044e-05
1.98865e-05
1.93817e-05
1.89167e-05
1.84857e-05
1.80859e-05
)
;

boundaryField
{
    inlet
    {
        type            calculated;
        value           nonuniform List<scalar> 0();
    }
    ami1
    {
        type            cyclicAMI;
        value           nonuniform List<scalar> 0();
    }
    walls
    {
        type            nutkWallFunction;
        blending        stepwise;
        value           uniform 0;
    }
    ami2
    {
        type            cyclicAMI;
        value           nonuniform List<scalar> 
48
(
2.13486e-05
2.46182e-05
2.58401e-05
2.48296e-05
2.17511e-05
1.70495e-05
1.12872e-05
5.20552e-06
9.48415e-05
0.000108605
0.000112777
0.000106939
9.26071e-05
7.18065e-05
4.17135e-05
1.07941e-05
0.000157227
0.000174607
0.000179721
0.000173633
0.000156277
0.000124061
7.47495e-05
1.65277e-05
0.000195321
0.000214948
0.000220894
0.00021509
0.000195335
0.000157232
9.49761e-05
2.13553e-05
0.000215098
0.000236925
0.000243908
0.000236918
0.000214948
0.000174622
0.000108635
2.46201e-05
0.000220969
0.00024394
0.000251435
0.000243937
0.000220933
0.000179735
0.000112912
2.58468e-05
)
;
    }
    outlet
    {
        type            calculated;
        value           nonuniform List<scalar> 0();
    }
    procBoundary0to1
    {
        type            processor;
        value           nonuniform List<scalar> 
138
(
2.13548e-05
2.17113e-05
2.10464e-05
2.04385e-05
1.98854e-05
1.93806e-05
1.89159e-05
1.84851e-05
1.80857e-05
1.77141e-05
9.17622e-05
9.20873e-05
8.75614e-05
8.33617e-05
8.02914e-05
7.74685e-05
7.41279e-05
7.04115e-05
6.70497e-05
6.3987e-05
0.00016886
0.000161337
0.000154263
0.000154263
0.000153285
0.00014681
0.000140777
0.000135236
0.000130138
0.000125322
0.000120692
0.000116267
0.000112074
0.000175509
0.000167652
0.000160227
0.000153285
0.00014681
0.000140777
0.000135236
0.000130138
0.000125322
0.000120692
0.000116267
0.000112074
0.000210093
0.000201062
0.000192686
0.000184895
0.000177639
0.000170874
0.000164553
0.00015864
0.000153104
0.000147888
0.000142941
0.000138247
0.00023145
0.000222084
0.000213333
0.000205146
0.000197475
0.00019028
0.000183524
0.000177173
0.000171196
0.000165562
0.000160241
0.000155206
0.000238289
0.00022871
0.000219819
0.00021152
0.000203743
0.000196435
0.000189559
0.000183082
0.000176976
0.000171215
0.000165771
0.00016062
0.000231458
0.000222103
0.000213345
0.000205145
0.000197462
0.000190256
0.000183492
0.000177138
0.00017116
0.000165528
0.000160208
0.000155173
0.000210367
0.000201406
0.000193029
0.00018521
0.000177921
0.000171132
0.000164806
0.000158898
0.00015336
0.000148149
0.000143229
0.000138538
0.000168973
0.000161546
0.000154511
0.000147912
0.000141769
0.000136095
0.000130838
0.000125953
0.000121307
0.000116893
0.000112695
0.000101178
9.64422e-05
9.19547e-05
8.77677e-05
8.38913e-05
8.0707e-05
7.78857e-05
7.5111e-05
7.15e-05
6.81278e-05
6.50768e-05
2.29436e-05
2.21033e-05
2.13449e-05
2.06558e-05
2.00291e-05
1.94574e-05
1.89341e-05
1.84535e-05
1.80087e-05
1.75974e-05
1.72165e-05
)
;
    }
    procBoundary0to2
    {
        type            processor;
        value           nonuniform List<scalar> 
28
(
4.44418e-06
9.33084e-06
9.33084e-06
1.56439e-05
1.50167e-05
1.45386e-05
1.45386e-05
9.26346e-06
9.26346e-06
2.85195e-05
2.85195e-05
2.85195e-05
6.93246e-05
6.24834e-05
5.98513e-05
5.98513e-05
1.43998e-05
5.9468e-05
0.000117839
0.000111908
0.00010655
0.00010655
1.85163e-05
7.85887e-05
0.000151193
0.000143905
0.000137301
0.000137301
)
;
    }
    procBoundary0to8
    {
        type            processor;
        value           nonuniform List<scalar> 
29
(
3.96843e-06
8.03966e-06
1.18559e-05
1.48702e-05
1.67916e-05
7.89541e-06
1.55703e-05
3.35345e-05
4.83698e-05
5.73564e-05
1.14916e-05
3.43123e-05
6.74926e-05
9.03076e-05
0.000103218
1.44789e-05
5.07248e-05
9.16259e-05
0.00011882
0.000133751
1.65366e-05
5.95118e-05
0.000104742
0.000134135
0.000150405
0.000155699
0.000138717
0.000155705
0.000161195
)
;
    }
    procBoundary0to9
    {
        type            processor;
        value           nonuniform List<scalar> 
40
(
1.73674e-05
1.65357e-05
1.44791e-05
1.16733e-05
1.16733e-05
7.99416e-06
4.00737e-06
6.11709e-05
5.94781e-05
5.07073e-05
3.66022e-05
3.66022e-05
1.67746e-05
8.14199e-06
0.000108039
0.000104727
9.16244e-05
7.09012e-05
7.09012e-05
3.63074e-05
1.20276e-05
0.000138733
0.000134122
0.000118816
9.40605e-05
9.40605e-05
5.0923e-05
1.51231e-05
0.000150379
0.000133723
0.000107206
0.000107206
6.01746e-05
1.71076e-05
0.000155673
0.00013867
0.000112011
0.000112011
6.40015e-05
1.77129e-05
)
;
    }
}


// ************************************************************************* //
