/*--------------------------------*- C++ -*----------------------------------*\
| =========                 |                                                 |
| \\      /  F ield         | OpenFOAM: The Open Source CFD Toolbox           |
|  \\    /   O peration     | Version:  2212                                  |
|   \\  /    A nd           | Website:  www.openfoam.com                      |
|    \\/     M anipulation  |                                                 |
\*---------------------------------------------------------------------------*/
FoamFile
{
    version     2.0;
    format      ascii;
    arch        "LSB;label=32;scalar=64";
    class       volScalarField;
    location    "1.55";
    object      p;
}
// * * * * * * * * * * * * * * * * * * * * * * * * * * * * * * * * * * * * * //

dimensions      [0 2 -2 0 0 0 0];

internalField   nonuniform List<scalar> 
689
(
0.00438678
0.00424219
0.00410002
0.00396184
0.0038246
0.00368681
0.00354959
0.0034149
0.00439743
0.00425117
0.00410671
0.0039658
0.00382589
0.00368586
0.00354683
0.00341055
0.00452951
0.00438256
0.00423714
0.00409277
0.0039504
0.00380958
0.00367015
0.00353209
0.00339622
0.00508628
0.00489623
0.00470525
0.00454065
0.00438931
0.0042432
0.00410004
0.00395878
0.00381923
0.00368085
0.00354364
0.00340791
0.00507151
0.0048919
0.00471208
0.00454673
0.00439142
0.00424191
0.0040968
0.00395581
0.0038174
0.00368012
0.00354382
0.00340877
0.00506692
0.0048925
0.00471594
0.00455027
0.00439462
0.00424468
0.00409896
0.00395742
0.003819
0.00368205
0.00354593
0.00341087
0.00508031
0.00490263
0.00471839
0.00454991
0.00439428
0.00424474
0.00409931
0.00395768
0.00381884
0.00368135
0.00354498
0.00340997
0.00510807
0.00491977
0.00471903
0.00454447
0.00438796
0.00423857
0.00409369
0.00395232
0.00381346
0.00367636
0.00354079
0.0034067
0.00514711
0.0049241
0.00469269
0.00451626
0.00436402
0.00421777
0.00407507
0.00393669
0.00380105
0.00366652
0.00353303
0.00518601
0.00491673
0.00466787
0.00450849
0.00437086
0.00423034
0.00409077
0.00395462
0.00382003
0.00368476
0.00354982
0.00517429
0.00489088
0.00466229
0.00451914
0.00438593
0.00424358
0.00410172
0.00396303
0.00382547
0.00368741
0.00355012
0.00437202
0.00422917
0.00408913
0.00395341
0.00381912
0.00368407
0.00354916
0.00341632
0.00439898
0.00425372
0.00411145
0.0039722
0.00383435
0.00369743
0.00356133
0.00342708
0.00453506
0.00438372
0.00423771
0.00409432
0.00395309
0.00381404
0.00367719
0.00354189
0.00340726
0.00502149
0.00486023
0.00470111
0.00454478
0.00439356
0.00424644
0.00410243
0.00396133
0.00382254
0.00368533
0.00354953
0.00341451
0.00500922
0.00485029
0.00470391
0.00455394
0.00440401
0.00425665
0.00411171
0.00396911
0.00382884
0.00369066
0.0035541
0.00341905
0.0050044
0.00485068
0.00471203
0.00456557
0.00441686
0.00426995
0.00412487
0.00398134
0.0038396
0.00369993
0.00356224
0.00342626
0.00501309
0.00486783
0.00472846
0.00457907
0.00442858
0.00427987
0.00413276
0.00398747
0.00384435
0.00370343
0.00356457
0.00342733
0.00503181
0.00489287
0.00474173
0.00458311
0.00442736
0.00427483
0.00412519
0.0039788
0.00383563
0.00369514
0.00355632
0.00341916
0.00505642
0.00489908
0.00472291
0.00455793
0.00440296
0.00425162
0.00410394
0.00395967
0.00381844
0.00368029
0.00354405
0.00514152
0.00492725
0.00471067
0.00454559
0.00439894
0.00425471
0.00411263
0.00397323
0.00383517
0.00369807
0.00356175
0.00516585
0.00491454
0.0046864
0.00453488
0.00439684
0.00425286
0.00410857
0.00396703
0.00382667
0.00368635
0.00354717
0.00451795
0.00436414
0.00421674
0.00407389
0.00393576
0.00380032
0.00366596
0.00353244
0.00340026
0.00455752
0.00440223
0.00425138
0.00410373
0.00395928
0.00381803
0.00367991
0.00354381
0.00340902
0.00452449
0.00436817
0.00421631
0.00406835
0.00392383
0.00378259
0.00364428
0.00350838
0.00337354
0.00494295
0.00479429
0.0046545
0.00450635
0.00435684
0.00420928
0.00406402
0.00392139
0.00378131
0.0036435
0.00350764
0.00337323
0.00493245
0.00477863
0.00464486
0.00450163
0.00435445
0.00420906
0.00406559
0.00392323
0.00378252
0.00364416
0.0035079
0.00337337
0.00492874
0.00477665
0.00464723
0.00450624
0.00436012
0.00421566
0.00407297
0.00393087
0.00378958
0.00365013
0.00351294
0.00337777
0.00493524
0.00478942
0.00466047
0.00451786
0.00437038
0.00422432
0.00407984
0.00393607
0.00379356
0.00365333
0.00351533
0.00337918
0.00494864
0.00481093
0.00467767
0.00452891
0.00437675
0.00422645
0.00407829
0.00393262
0.00378977
0.00364961
0.00351163
0.00337548
0.00497113
0.0048312
0.00468425
0.00452657
0.00436882
0.00421594
0.00406787
0.00392352
0.00378237
0.00364409
0.00350827
0.00504854
0.00487865
0.00469884
0.00453555
0.00438444
0.00423798
0.00409455
0.00395342
0.00381436
0.00367741
0.00354202
0.00510761
0.00489869
0.00469059
0.00452859
0.00438305
0.00423844
0.00409398
0.00395122
0.00381006
0.00367043
0.00353203
0.0045451
0.00438804
0.00423819
0.00409312
0.0039517
0.00381288
0.00367585
0.00354031
0.00340635
0.00458216
0.00442696
0.00427476
0.0041251
0.00397861
0.00383541
0.00369492
0.00355621
0.00341895
0.00452752
0.00437623
0.00422649
0.00407847
0.00393281
0.00378997
0.00364979
0.00351183
0.00337556
0.00490747
0.0047594
0.0046293
0.00448846
0.00434327
0.00419899
0.00405606
0.00391449
0.0037746
0.00363648
0.00350011
0.00336527
0.00488771
0.00473565
0.00460873
0.00447145
0.00432857
0.00418642
0.0040456
0.00390562
0.00376674
0.00362933
0.00349348
0.00335908
0.0048806
0.00472883
0.00460425
0.00446862
0.00432681
0.00418555
0.00404547
0.00390603
0.00376741
0.00363007
0.00349421
0.0033598
0.00488813
0.00473788
0.00461228
0.00447538
0.00433265
0.00419062
0.00404976
0.00390963
0.00377048
0.00363274
0.00349651
0.00336172
0.00490783
0.00475988
0.00462999
0.00448909
0.00434348
0.0041989
0.00405588
0.0039143
0.00377441
0.0036363
0.00349993
0.00336514
0.00494333
0.00479471
0.00465533
0.00450718
0.00435699
0.00420897
0.00406367
0.00392112
0.0037811
0.00364333
0.00350753
0.00502145
0.0048602
0.00470141
0.00454519
0.00439359
0.00424633
0.00410244
0.00396146
0.00382269
0.00368542
0.00354969
0.00508576
0.00489579
0.00470486
0.00454044
0.00438945
0.00424372
0.00410067
0.00395933
0.0038196
0.00368106
0.00354365
0.00454972
0.00439418
0.00424459
0.00409908
0.00395738
0.0038185
0.00368101
0.00354465
0.00340967
0.00457876
0.00442835
0.00427968
0.00413256
0.00398727
0.00384417
0.00370327
0.00356442
0.00342716
0.00451755
0.00437015
0.00422419
0.00407977
0.00393603
0.00379355
0.00365334
0.00351535
0.00337917
0.00488792
0.00473763
0.00461203
0.00447515
0.00433251
0.00419056
0.00404975
0.00390963
0.0037705
0.00363277
0.00349655
0.00336175
0.0048646
0.00471242
0.00458856
0.00445412
0.00431339
0.00417298
0.00403362
0.00389488
0.00375693
0.00362011
0.00348458
0.00335038
0.00485706
0.00470435
0.00458151
0.00444779
0.0043077
0.00416807
0.00402942
0.00389116
0.00375358
0.00361705
0.00348177
0.00334777
0.00486468
0.00471251
0.00458866
0.00445421
0.00431345
0.004173
0.00403363
0.00389488
0.00375691
0.00362008
0.00348455
0.00335034
0.0048879
0.00473585
0.00460897
0.00447167
0.00432868
0.00418643
0.00404555
0.00390555
0.00376666
0.00362925
0.00349339
0.003359
0.00493272
0.00477885
0.00464508
0.00450182
0.00435451
0.00420902
0.00406551
0.00392317
0.00378247
0.00364411
0.00350787
0.00500929
0.00485028
0.00470388
0.00455392
0.00440398
0.00425666
0.00411178
0.0039692
0.00382893
0.00369071
0.00355415
0.00507126
0.00489171
0.00471194
0.00454665
0.00439149
0.00424218
0.00409717
0.00395613
0.00381761
0.00368021
0.00354377
0.00488052
0.00472874
0.00460416
0.00446853
0.00432671
0.00418544
0.00404537
0.00390594
0.00376733
0.00363
0.00349415
0.00335975
0.00485706
0.00470433
0.00458148
0.00444775
0.00430764
0.004168
0.00402935
0.0038911
0.00375352
0.003617
0.00348173
0.00334775
0.0048506
0.00469656
0.00457394
0.0044406
0.00430073
0.00416159
0.00402371
0.00388615
0.00374909
0.00361297
0.003478
0.00334425
0.0048571
0.00470438
0.00458153
0.00444779
0.00430768
0.00416803
0.00402937
0.00389112
0.00375354
0.00361701
0.00348173
0.00334774
0.00488069
0.0047289
0.00460431
0.00446866
0.0043268
0.0041855
0.00404541
0.00390596
0.00376735
0.00363
0.00349414
0.00335974
0.00492886
0.00477668
0.00464723
0.00450626
0.00436012
0.00421562
0.00407294
0.00393084
0.00378955
0.00365009
0.0035129
0.00500443
0.00485066
0.004712
0.00456558
0.00441689
0.00426998
0.00412492
0.00398139
0.00383963
0.00369992
0.00356221
0.00506675
0.00489245
0.00471596
0.00455032
0.00439473
0.00424485
0.00409913
0.00395755
0.00381908
0.00368206
0.00354587
)
;

boundaryField
{
    inlet
    {
        type            zeroGradient;
    }
    ami1
    {
        type            cyclicAMI;
        value           nonuniform List<scalar> 0();
    }
    walls
    {
        type            zeroGradient;
    }
    ami2
    {
        type            cyclicAMI;
        value           nonuniform List<scalar> 
48
(
0.00514429
0.00514295
0.0051396
0.00514353
0.00515242
0.00516224
0.00518999
0.00519211
0.00511188
0.00511372
0.00511228
0.00511357
0.00511574
0.0051197
0.00518083
0.00518327
0.00504568
0.00504627
0.0050462
0.00504733
0.00504927
0.00505942
0.00512059
0.00514792
0.00501862
0.00500688
0.00500289
0.00500694
0.00501889
0.00504595
0.00511181
0.00514383
0.00500677
0.00498724
0.00498101
0.00498732
0.00500705
0.00504649
0.00511377
0.00514269
0.00500282
0.004981
0.00497453
0.00498105
0.00500297
0.00504632
0.00511231
0.00513942
)
;
    }
    outlet
    {
        type            fixedValue;
        value           nonuniform List<scalar> 0();
    }
    procBoundary0to1
    {
        type            processor;
        value           nonuniform List<scalar> 
138
(
0.00471823
0.00455007
0.00439446
0.00424454
0.0040988
0.00395723
0.00381881
0.00368184
0.00354571
0.00341062
0.00472826
0.00456548
0.00441674
0.00426981
0.00412473
0.0039812
0.00383947
0.00369979
0.00356209
0.00342609
0.004935
0.00478915
0.00466017
0.00466017
0.00450617
0.00436004
0.00421557
0.0040729
0.00393082
0.00378952
0.00365007
0.00351287
0.0033777
0.0049285
0.0047764
0.00464708
0.00450617
0.00436004
0.00421557
0.0040729
0.00393082
0.00378952
0.00365007
0.00351287
0.0033777
0.00488777
0.00473571
0.00460881
0.00447151
0.00432854
0.00418633
0.00404547
0.00390549
0.00376661
0.00362921
0.00349337
0.00335898
0.00486467
0.00471249
0.00458863
0.00445416
0.00431338
0.00417292
0.00403355
0.00389481
0.00375685
0.00362002
0.00348449
0.0033503
0.00485709
0.00470438
0.00458154
0.00444781
0.00430769
0.00416803
0.00402937
0.00389111
0.00375352
0.00361699
0.00348171
0.00334771
0.00486468
0.0047125
0.00458865
0.00445419
0.00431342
0.00417297
0.0040336
0.00389485
0.00375689
0.00362005
0.00348451
0.00335031
0.0048882
0.00473792
0.00461228
0.00447534
0.00433259
0.00419053
0.00404967
0.00390955
0.0037704
0.00363266
0.0034964
0.00336165
0.00493533
0.00478952
0.00466056
0.00451791
0.00437038
0.00422427
0.00407976
0.00393598
0.00379346
0.00365322
0.00351517
0.00501309
0.00486791
0.0047286
0.00457922
0.00442868
0.00427992
0.00413278
0.00398746
0.00384432
0.00370338
0.00356447
0.0050802
0.00490255
0.00471836
0.00454991
0.00439432
0.00424483
0.00409942
0.00395777
0.00381891
0.00368138
0.003545
)
;
    }
    procBoundary0to2
    {
        type            processor;
        value           nonuniform List<scalar> 
28
(
0.00452147
0.00453716
0.00453716
0.00510833
0.00489944
0.00469176
0.00469176
0.0045111
0.0045111
0.00454747
0.00454747
0.00454747
0.00504889
0.00487905
0.00469916
0.00469916
0.00469403
0.00472338
0.00497113
0.00483114
0.0046828
0.0046828
0.00471954
0.00474124
0.00494858
0.00481068
0.0046765
0.0046765
)
;
    }
    procBoundary0to8
    {
        type            processor;
        value           nonuniform List<scalar> 
29
(
0.00328142
0.00327548
0.00326107
0.00327344
0.00327504
0.00328469
0.00329305
0.00327387
0.00328124
0.00328543
0.00326858
0.00327534
0.00324108
0.00324057
0.00324041
0.00327338
0.0032836
0.00324138
0.00323205
0.00322611
0.00327597
0.00329151
0.00324474
0.00322842
0.00321753
0.00321509
0.00322677
0.00321508
0.00321175
)
;
    }
    procBoundary0to9
    {
        type            processor;
        value           nonuniform List<scalar> 
40
(
0.00327707
0.00327626
0.00327363
0.00340056
0.00340056
0.00341667
0.00341505
0.00329177
0.00329173
0.00328387
0.00340923
0.00340923
0.00342696
0.00341053
0.00324423
0.0032448
0.00324143
0.00337387
0.00337387
0.00340739
0.00339575
0.00322679
0.00322841
0.003232
0.00337325
0.00337325
0.00341482
0.00340775
0.0032175
0.00322608
0.00337337
0.00337337
0.00341909
0.00340861
0.00321508
0.00322679
0.00337775
0.00337775
0.00342622
0.00341074
)
;
    }
}


// ************************************************************************* //
