/*--------------------------------*- C++ -*----------------------------------*\
| =========                 |                                                 |
| \\      /  F ield         | OpenFOAM: The Open Source CFD Toolbox           |
|  \\    /   O peration     | Version:  2212                                  |
|   \\  /    A nd           | Website:  www.openfoam.com                      |
|    \\/     M anipulation  |                                                 |
\*---------------------------------------------------------------------------*/
FoamFile
{
    version     2.0;
    format      ascii;
    arch        "LSB;label=32;scalar=64";
    class       volVectorField;
    location    "1.55";
    object      U;
}
// * * * * * * * * * * * * * * * * * * * * * * * * * * * * * * * * * * * * * //

dimensions      [0 1 -1 0 0 0 0];

internalField   nonuniform List<vector> 
689
(
(0.0318188 5.93253e-05 0.000120671)
(0.0312406 2.27161e-05 9.47389e-05)
(0.0307151 -3.69354e-06 7.15962e-05)
(0.0302287 -1.47771e-05 5.72282e-05)
(0.0297615 -2.27312e-05 4.98127e-05)
(0.0293263 -2.76061e-05 4.56094e-05)
(0.0289085 -2.95847e-05 4.32641e-05)
(0.0285211 -2.87227e-05 4.14169e-05)
(0.0506765 1.42519e-05 0.000191271)
(0.0501141 -6.53718e-05 0.000165255)
(0.049573 -0.000128518 0.000143413)
(0.0490308 -0.000176183 0.00013575)
(0.0484635 -0.000209349 0.000136224)
(0.0479081 -0.000229111 0.000134951)
(0.0473566 -0.000240423 0.000131508)
(0.0468355 -0.000245841 0.000127825)
(0.0685786 -0.000595701 0.000493093)
(0.0679485 -0.000624304 0.000379721)
(0.0673952 -0.000671048 0.000313169)
(0.0668724 -0.000717288 0.000270749)
(0.0663467 -0.000762772 0.000250546)
(0.065809 -0.00080134 0.000241684)
(0.0652612 -0.000826429 0.000229839)
(0.0646933 -0.000837912 0.00021287)
(0.0641305 -0.000848108 0.000202561)
(0.0825553 -0.00135847 0.000729507)
(0.0817624 -0.00133325 0.000623458)
(0.0811562 -0.00121668 0.000361098)
(0.0805153 -0.00112947 0.000149432)
(0.0799076 -0.00108898 2.99742e-05)
(0.0793377 -0.00108137 -2.57146e-05)
(0.0787658 -0.00109366 -4.67091e-05)
(0.078178 -0.00111553 -5.12069e-05)
(0.0775673 -0.00113956 -4.97921e-05)
(0.0769325 -0.00116138 -4.58725e-05)
(0.0762713 -0.00117786 -4.11355e-05)
(0.0755848 -0.0011915 -3.1779e-05)
(0.0894366 -0.00147425 0.000317848)
(0.0887554 -0.00156654 0.000186867)
(0.0881107 -0.00156644 -1.44049e-05)
(0.0874168 -0.00153897 -0.000161549)
(0.0867072 -0.00151388 -0.00024164)
(0.0859962 -0.00149698 -0.000270524)
(0.0852829 -0.00148977 -0.000264443)
(0.0845604 -0.00149221 -0.000240275)
(0.0838155 -0.0014995 -0.000210775)
(0.0830527 -0.00150654 -0.00018093)
(0.0822712 -0.00151028 -0.000151415)
(0.0814703 -0.00150895 -0.000121322)
(0.0918876 -0.00151441 -0.000123538)
(0.0912234 -0.00171495 -0.000294541)
(0.0905101 -0.00180105 -0.000445929)
(0.0897027 -0.00183034 -0.000523394)
(0.0888246 -0.0018332 -0.000543987)
(0.0879101 -0.00182019 -0.000529465)
(0.0869783 -0.00179974 -0.000494946)
(0.0860325 -0.00178131 -0.000449116)
(0.0850729 -0.00176599 -0.000401592)
(0.0841033 -0.00174879 -0.000352178)
(0.083132 -0.00172648 -0.000302695)
(0.0821628 -0.00169834 -0.000252576)
(0.0901984 -0.00152447 -0.000599605)
(0.0894012 -0.00181826 -0.000805502)
(0.0885082 -0.00193327 -0.00084305)
(0.0874635 -0.00197331 -0.000804702)
(0.0863115 -0.00197706 -0.0007496)
(0.0851193 -0.00195699 -0.000680796)
(0.0839131 -0.0019231 -0.000603983)
(0.0827047 -0.0018837 -0.000523693)
(0.0815013 -0.00183953 -0.000443157)
(0.0803235 -0.00178897 -0.000366887)
(0.0791838 -0.00173185 -0.000298185)
(0.0780886 -0.00167038 -0.000238446)
(0.0840311 -0.00146617 -0.000952003)
(0.0829344 -0.00185861 -0.00105539)
(0.0816729 -0.00193662 -0.000946668)
(0.0802389 -0.00193687 -0.000813954)
(0.0787165 -0.0019086 -0.000684724)
(0.0772157 -0.00185701 -0.000565749)
(0.0757597 -0.00179019 -0.000459213)
(0.0743684 -0.00171337 -0.000363505)
(0.073063 -0.00162765 -0.000289729)
(0.0718515 -0.00153821 -0.000234166)
(0.0707301 -0.00144657 -0.00019646)
(0.0696919 -0.00135882 -0.000172621)
(0.0724215 -0.00124339 -0.0010055)
(0.0709506 -0.00171537 -0.00103723)
(0.069331 -0.00172483 -0.000858898)
(0.0674979 -0.00166128 -0.000683945)
(0.0657742 -0.00155809 -0.000528139)
(0.064254 -0.00142963 -0.000415248)
(0.0629356 -0.00129339 -0.00033462)
(0.0617924 -0.00116313 -0.000284607)
(0.060783 -0.0010459 -0.000259515)
(0.0598769 -0.000943136 -0.000245813)
(0.0590528 -0.000855862 -0.000234511)
(0.0552327 -0.000758865 -0.00045092)
(0.0537205 -0.00107961 -0.000502308)
(0.052202 -0.00104852 -0.000356325)
(0.0505431 -0.00084159 -0.000207403)
(0.0491835 -0.000607947 -0.000106635)
(0.0481553 -0.000467482 -7.28415e-05)
(0.0473072 -0.000385171 -6.54184e-05)
(0.0465613 -0.000326907 -7.08093e-05)
(0.0458635 -0.000272297 -7.37223e-05)
(0.0452284 -0.00022325 -7.06949e-05)
(0.0446453 -0.000183425 -6.48104e-05)
(0.0360207 -0.000490402 -9.85484e-05)
(0.0347441 -0.000377844 8.05398e-05)
(0.0336618 -0.000210076 0.000133377)
(0.0326173 -0.000141856 9.62735e-05)
(0.031838 -0.000119317 5.89322e-05)
(0.0312671 -9.31005e-05 2.32963e-05)
(0.0307462 -7.10322e-05 -3.83242e-06)
(0.030258 -5.7435e-05 -1.50573e-05)
(0.029787 -5.04421e-05 -2.2778e-05)
(0.0293445 -4.65644e-05 -2.74557e-05)
(0.0289257 -4.43906e-05 -2.89065e-05)
(0.0491385 -0.00011017 0.000608724)
(0.0481109 -7.29908e-05 0.000466782)
(0.0472654 -6.32069e-05 0.000383462)
(0.046524 -6.86404e-05 0.000325149)
(0.0458304 -7.23088e-05 0.000271261)
(0.045205 -6.98835e-05 0.00022253)
(0.0446223 -6.48428e-05 0.000183243)
(0.0440929 -6.0898e-05 0.000153282)
(0.0782189 0.000116665 0.000523814)
(0.0777808 0.000110346 0.000428534)
(0.0774083 9.33852e-05 0.000339255)
(0.0770681 7.21097e-05 0.000261312)
(0.0767558 4.59927e-05 0.000206314)
(0.0764468 1.07278e-05 0.000179376)
(0.0761198 -2.63169e-05 0.000167352)
(0.0757902 -4.84527e-05 0.000151843)
(0.0921535 -0.000512671 0.00067505)
(0.0921237 -0.000481227 0.000575995)
(0.0921227 -0.000484293 0.000490023)
(0.0921433 -0.000507984 0.000421943)
(0.0921747 -0.000541951 0.000369856)
(0.0922156 -0.000579856 0.000329901)
(0.0922534 -0.000613882 0.000296565)
(0.092286 -0.000649897 0.000275041)
(0.092297 -0.000669593 0.000249205)
(0.0992941 -0.00122111 0.00051783)
(0.099503 -0.00125966 0.000551775)
(0.0996763 -0.0012024 0.000463892)
(0.0998141 -0.00114443 0.000338009)
(0.0999321 -0.00111414 0.000226077)
(0.100044 -0.00109316 0.000130189)
(0.100163 -0.0010795 5.15551e-05)
(0.100284 -0.00108258 -3.70885e-06)
(0.100401 -0.00109766 -3.87955e-05)
(0.100511 -0.00111868 -5.82982e-05)
(0.100611 -0.0011413 -6.61094e-05)
(0.100693 -0.00116225 -6.70047e-05)
(0.103437 -0.00152205 0.000246314)
(0.103704 -0.00162119 0.000200928)
(0.103918 -0.00163877 9.05636e-05)
(0.104115 -0.00161954 -2.88461e-05)
(0.104284 -0.00159796 -0.000127361)
(0.104421 -0.00158593 -0.000197656)
(0.104531 -0.00158124 -0.000241682)
(0.104619 -0.00157375 -0.00026604)
(0.104695 -0.00156715 -0.000273981)
(0.104758 -0.00156906 -0.000266289)
(0.104806 -0.00157425 -0.000247051)
(0.104838 -0.00157858 -0.000219425)
(0.104829 -0.00163707 -6.54826e-05)
(0.105112 -0.00181003 -0.000164145)
(0.10532 -0.00189376 -0.000276982)
(0.105509 -0.00192132 -0.000366105)
(0.105652 -0.00192891 -0.000424751)
(0.10574 -0.00193396 -0.000452435)
(0.105781 -0.00193873 -0.000449647)
(0.105782 -0.00193167 -0.000430023)
(0.105755 -0.00190789 -0.000402273)
(0.105707 -0.00187871 -0.000365543)
(0.105645 -0.00185051 -0.000318885)
(0.105571 -0.00182501 -0.000269069)
(0.103601 -0.00158857 -0.000366107)
(0.10386 -0.00184931 -0.000499817)
(0.10402 -0.00199146 -0.000576215)
(0.10413 -0.00204642 -0.000595362)
(0.104162 -0.00206664 -0.000577843)
(0.104118 -0.00207217 -0.000534715)
(0.104018 -0.00206505 -0.000472963)
(0.103879 -0.00203326 -0.000399477)
(0.10372 -0.00197789 -0.000324679)
(0.103549 -0.0019192 -0.000255969)
(0.103377 -0.00185946 -0.000195214)
(0.103209 -0.00179954 -0.0001408)
(0.0995651 -0.00137576 -0.000544617)
(0.0997487 -0.00173732 -0.000675434)
(0.0998083 -0.00193164 -0.000663693)
(0.0997628 -0.00198057 -0.00058207)
(0.0996077 -0.00197883 -0.000480001)
(0.099385 -0.00193413 -0.000368101)
(0.0991376 -0.00185518 -0.000258631)
(0.0988891 -0.00176138 -0.000167257)
(0.0986533 -0.00166469 -9.93919e-05)
(0.0984367 -0.00157256 -4.93187e-05)
(0.0982409 -0.0014846 -2.29854e-05)
(0.0980708 -0.00139997 -4.08393e-06)
(0.0921889 -0.000996091 -0.000616277)
(0.0922728 -0.00143227 -0.000740649)
(0.092188 -0.00158202 -0.000597779)
(0.0919183 -0.00155904 -0.000401567)
(0.0915765 -0.00144967 -0.000236465)
(0.0912532 -0.00131418 -0.000121184)
(0.090962 -0.00118021 -5.40357e-05)
(0.0907035 -0.00105709 -2.32158e-05)
(0.0904852 -0.000951855 -1.97649e-05)
(0.0902992 -0.000868131 -3.23957e-05)
(0.0901341 -0.00079886 -4.96089e-05)
(0.0799649 -0.000437284 -0.000161364)
(0.0796671 -0.000770796 -0.000242695)
(0.0793217 -0.000755577 -6.02108e-05)
(0.0787695 -0.000646069 7.92199e-05)
(0.0782278 -0.000536647 0.000105689)
(0.0777856 -0.000427156 0.000111258)
(0.077416 -0.000335207 9.57233e-05)
(0.0770788 -0.000259617 7.31907e-05)
(0.0767655 -0.000205812 4.68414e-05)
(0.0764564 -0.00018038 1.11586e-05)
(0.0761263 -0.000166797 -2.4004e-05)
(0.0540646 -0.000718129 -0.000317187)
(0.0529138 -0.00067841 -0.000221934)
(0.0522038 -0.000447478 2.63898e-05)
(0.051397 -0.000248301 6.73825e-05)
(0.0507274 -0.000181399 1.99955e-05)
(0.0501662 -0.000159734 -6.15188e-05)
(0.0496217 -0.000143536 -0.000128806)
(0.049073 -0.000138421 -0.00017758)
(0.0484997 -0.000140042 -0.000210446)
(0.0479345 -0.000138758 -0.000229495)
(0.0473815 -0.000135752 -0.000240135)
(0.0674782 -0.000697748 0.0016736)
(0.0657462 -0.00054356 0.00157035)
(0.0642228 -0.000421437 0.00143428)
(0.0629035 -0.000332264 0.00129178)
(0.0617619 -0.00027873 0.00115862)
(0.0607568 -0.000252882 0.0010404)
(0.0598579 -0.00023992 0.000937956)
(0.0590357 -0.000229369 0.000850949)
(0.0582821 -0.000224467 0.000786122)
(0.0919223 -0.000396196 0.00155071)
(0.0915916 -0.000235761 0.00144978)
(0.0912699 -0.000121307 0.00131642)
(0.0909777 -5.3318e-05 0.00118169)
(0.0907175 -2.18643e-05 0.00105757)
(0.0904976 -1.84227e-05 0.000951979)
(0.0903091 -3.04452e-05 0.000866806)
(0.0901443 -5.02992e-05 0.00080119)
(0.089994 -7.10703e-05 0.000743503)
(0.101663 -0.000590669 0.00120154)
(0.101868 -0.000521506 0.00118209)
(0.102062 -0.000476735 0.00113244)
(0.102254 -0.000454932 0.00106921)
(0.102452 -0.000450388 0.000999455)
(0.102659 -0.0004593 0.000930961)
(0.102874 -0.0004778 0.000869934)
(0.1031 -0.000503183 0.000818503)
(0.103326 -0.000529485 0.000771914)
(0.106167 -0.00104467 0.000627889)
(0.1065 -0.00106765 0.00070368)
(0.106845 -0.00104953 0.000730479)
(0.107217 -0.00101514 0.000712587)
(0.10759 -0.000984252 0.00067094)
(0.107953 -0.000960738 0.000616617)
(0.108311 -0.000945668 0.000558051)
(0.108665 -0.000940833 0.00050253)
(0.109017 -0.000945436 0.000454092)
(0.109366 -0.000956883 0.00041384)
(0.109712 -0.000973013 0.000381784)
(0.110054 -0.000990707 0.000355516)
(0.10914 -0.00131006 0.000310321)
(0.109534 -0.00136641 0.000312449)
(0.10992 -0.00139858 0.000285248)
(0.110344 -0.00140977 0.000243605)
(0.110776 -0.00141138 0.000199303)
(0.111193 -0.00140935 0.000156701)
(0.111596 -0.00140634 0.000118616)
(0.111986 -0.0014034 8.82756e-05)
(0.112364 -0.00140134 6.7555e-05)
(0.11273 -0.00140122 5.57753e-05)
(0.113086 -0.00140268 5.15393e-05)
(0.113432 -0.00140486 5.27285e-05)
(0.110141 -0.00143283 -1.76857e-05)
(0.110547 -0.00153528 -6.01559e-05)
(0.110936 -0.00161758 -0.000110561)
(0.111365 -0.00167106 -0.000152352)
(0.111796 -0.00170422 -0.000182478)
(0.112205 -0.00172402 -0.000200839)
(0.112592 -0.00173368 -0.000208027)
(0.112958 -0.00173315 -0.000205336)
(0.113305 -0.00172314 -0.000194326)
(0.113634 -0.00170638 -0.000177128)
(0.113948 -0.001686 -0.000155463)
(0.114251 -0.00166356 -0.00013227)
(0.109207 -0.00139742 -0.000323029)
(0.109581 -0.00154909 -0.000385751)
(0.109944 -0.00167445 -0.000427228)
(0.110342 -0.00175692 -0.000438091)
(0.110728 -0.00180678 -0.000427377)
(0.111082 -0.0018317 -0.000402238)
(0.111409 -0.00183375 -0.000367519)
(0.111715 -0.00181734 -0.000327674)
(0.112003 -0.00178627 -0.000287975)
(0.112277 -0.00174581 -0.000251143)
(0.11254 -0.00170053 -0.000218517)
(0.112799 -0.0016524 -0.000189631)
(0.106245 -0.00120273 -0.000556095)
(0.106551 -0.00139522 -0.000606954)
(0.106866 -0.00153854 -0.000606226)
(0.1072 -0.00161929 -0.000567891)
(0.107508 -0.00165284 -0.00051122)
(0.107783 -0.00164806 -0.000446552)
(0.108038 -0.00161377 -0.000388759)
(0.108284 -0.00156071 -0.000336848)
(0.108524 -0.00149879 -0.000298891)
(0.108764 -0.00143338 -0.000274402)
(0.109007 -0.00136927 -0.000260654)
(0.109255 -0.00130713 -0.000254202)
(0.100957 -0.000881862 -0.000725004)
(0.101189 -0.00107942 -0.000755666)
(0.101426 -0.00118127 -0.000685771)
(0.101651 -0.00120723 -0.000595086)
(0.101853 -0.00118601 -0.000523779)
(0.102044 -0.00113393 -0.000476785)
(0.102234 -0.00106927 -0.000453999)
(0.102431 -0.000999252 -0.000449442)
(0.102639 -0.000930929 -0.000458637)
(0.102856 -0.0008701 -0.000477415)
(0.103083 -0.000817839 -0.000502291)
(0.0920521 -0.000659834 -0.000713496)
(0.0921342 -0.000788894 -0.0006992)
(0.0921827 -0.000771771 -0.000599437)
(0.0921489 -0.000677005 -0.000515367)
(0.0921105 -0.000573158 -0.000476834)
(0.0921094 -0.000487305 -0.000479288)
(0.0921313 -0.000421269 -0.000505001)
(0.0921648 -0.000370786 -0.00054077)
(0.0922074 -0.000332279 -0.000580122)
(0.0922469 -0.000298065 -0.000612979)
(0.0922812 -0.000278078 -0.00065051)
(0.0710052 -0.00107833 -0.00101806)
(0.0699677 -0.000966805 -0.000871007)
(0.0693031 -0.000695056 -0.000656382)
(0.0686055 -0.000478905 -0.000583364)
(0.0679789 -0.000363931 -0.000611926)
(0.0674252 -0.00030789 -0.000666847)
(0.0669014 -0.000274368 -0.000719416)
(0.0663732 -0.00025825 -0.00076703)
(0.0658308 -0.000250448 -0.00080564)
(0.0652803 -0.000238026 -0.000830015)
(0.0647063 -0.000219888 -0.000839559)
(0.0802362 -0.000824796 0.00194688)
(0.0787124 -0.000694511 0.00191736)
(0.077211 -0.000570412 0.00186172)
(0.075753 -0.000458993 0.00179122)
(0.0743606 -0.000359789 0.00171197)
(0.0730555 -0.000284492 0.00162448)
(0.0718459 -0.000228696 0.00153422)
(0.0707263 -0.000190878 0.0014418)
(0.0696924 -0.000168329 0.00135456)
(0.0997697 -0.000580765 0.00198176)
(0.0996176 -0.000478908 0.0019822)
(0.0993973 -0.000367035 0.00193616)
(0.0991513 -0.000257376 0.00185567)
(0.098903 -0.000165775 0.00176089)
(0.0986664 -9.77591e-05 0.00166348)
(0.0984483 -4.74491e-05 0.00157045)
(0.0982519 -2.17967e-05 0.0014829)
(0.0980792 -3.30359e-06 0.00139866)
(0.107208 -0.000562781 0.00161629)
(0.107517 -0.000507372 0.00165097)
(0.107794 -0.000444637 0.00164735)
(0.108052 -0.000388349 0.00161357)
(0.108298 -0.00033708 0.00156054)
(0.108539 -0.000299316 0.00149848)
(0.108778 -0.000274883 0.00143286)
(0.109021 -0.000261245 0.00136904)
(0.109268 -0.000254333 0.00130687)
(0.110129 -0.000745096 0.000852728)
(0.110536 -0.000760356 0.000938517)
(0.110943 -0.000756464 0.00100295)
(0.111397 -0.000736679 0.00103509)
(0.111864 -0.000710187 0.0010426)
(0.112323 -0.000680904 0.00103009)
(0.112773 -0.000652028 0.00100167)
(0.113213 -0.000626728 0.000963187)
(0.113645 -0.00060744 0.000920085)
(0.114069 -0.000594779 0.000876045)
(0.114487 -0.000588218 0.00083337)
(0.114901 -0.000586267 0.000792801)
(0.112326 -0.000932213 0.000435106)
(0.112797 -0.000956343 0.000461084)
(0.113253 -0.000972012 0.000473104)
(0.113759 -0.000975811 0.000472767)
(0.114284 -0.000971718 0.00046436)
(0.114806 -0.000962952 0.000450102)
(0.115321 -0.00095152 0.000431658)
(0.115829 -0.000938806 0.000411295)
(0.116327 -0.000926289 0.000391157)
(0.116814 -0.000915417 0.000372538)
(0.117291 -0.000906805 0.000356047)
(0.117758 -0.00090028 0.000341734)
(0.113056 -0.0010267 1.18938e-05)
(0.113547 -0.00107506 4.46044e-06)
(0.114016 -0.00111681 -7.32083e-06)
(0.114533 -0.00114451 -1.81552e-05)
(0.115069 -0.00116055 -2.67686e-05)
(0.115601 -0.00116791 -3.28496e-05)
(0.116124 -0.00116781 -3.63538e-05)
(0.116639 -0.00116106 -3.74147e-05)
(0.117143 -0.00114862 -3.62474e-05)
(0.117634 -0.00113225 -3.30556e-05)
(0.118112 -0.00111402 -2.85027e-05)
(0.118579 -0.00109511 -2.31668e-05)
(0.112345 -0.00100284 -0.000390799)
(0.112811 -0.00107557 -0.000411177)
(0.113261 -0.00113917 -0.000423512)
(0.113759 -0.00118186 -0.000424342)
(0.114273 -0.00120606 -0.000416748)
(0.114781 -0.00121487 -0.000403058)
(0.115279 -0.00121048 -0.000385311)
(0.115767 -0.00119485 -0.000365854)
(0.116244 -0.00117053 -0.000346928)
(0.116708 -0.00114079 -0.000329923)
(0.117162 -0.00110835 -0.000315416)
(0.117606 -0.00107479 -0.00030345)
(0.110127 -0.000853141 -0.000745283)
(0.110532 -0.000939358 -0.000760944)
(0.110938 -0.00100533 -0.000758062)
(0.111392 -0.00103888 -0.000738989)
(0.111858 -0.00104611 -0.00071207)
(0.112316 -0.00103253 -0.000681862)
(0.112765 -0.00100312 -0.000652202)
(0.113204 -0.000963941 -0.000626446)
(0.113635 -0.000920391 -0.000606939)
(0.114059 -0.000876104 -0.000594192)
(0.114478 -0.000833227 -0.000587608)
(0.114891 -0.000792726 -0.00058581)
(0.106164 -0.000628322 -0.00104445)
(0.106496 -0.000704561 -0.00106743)
(0.106838 -0.000733243 -0.00104938)
(0.107209 -0.000717477 -0.00101484)
(0.107581 -0.000675308 -0.000983258)
(0.107942 -0.000619196 -0.000959192)
(0.108299 -0.000559259 -0.000944147)
(0.108652 -0.000503057 -0.000939718)
(0.109004 -0.000454337 -0.000944795)
(0.109353 -0.000413958 -0.000956564)
(0.1097 -0.000381755 -0.000972809)
(0.0992926 -0.000518156 -0.00122132)
(0.0994998 -0.000550652 -0.00125753)
(0.0996721 -0.000462114 -0.00119831)
(0.0998063 -0.000337323 -0.00113893)
(0.0999231 -0.000226535 -0.00110865)
(0.100035 -0.000130715 -0.00108868)
(0.100153 -5.26447e-05 -0.00107704)
(0.100276 1.68891e-06 -0.00108204)
(0.100394 3.61228e-05 -0.00109828)
(0.100505 5.55072e-05 -0.00111954)
(0.100607 6.32842e-05 -0.0011423)
(0.0825613 -0.000727204 -0.00135618)
(0.0817702 -0.000619596 -0.00132988)
(0.0811663 -0.000354333 -0.00121141)
(0.0805268 -0.000140771 -0.00112243)
(0.0799196 -2.45853e-05 -0.00108401)
(0.0793489 2.57998e-05 -0.00107994)
(0.0787768 4.29034e-05 -0.00109477)
(0.0781892 4.54093e-05 -0.00111793)
(0.0775785 4.36005e-05 -0.00114217)
(0.0769434 3.98851e-05 -0.00116372)
(0.0762816 3.65356e-05 -0.00117855)
(0.0874662 -0.000809348 0.00197675)
(0.0863157 -0.000753678 0.00197983)
(0.0851251 -0.000682913 0.00195866)
(0.0839192 -0.000603877 0.0019237)
(0.0827107 -0.000521695 0.00188325)
(0.0815072 -0.000439875 0.00183813)
(0.0803297 -0.000362995 0.00178688)
(0.0791906 -0.00029405 0.00172923)
(0.0780965 -0.000234593 0.00166761)
(0.104132 -0.000595393 0.00205139)
(0.104166 -0.000576706 0.00206867)
(0.104123 -0.000533324 0.00207287)
(0.104024 -0.0004713 0.00206463)
(0.103885 -0.000397643 0.00203173)
(0.103726 -0.000322821 0.00197599)
(0.103555 -0.000254139 0.00191705)
(0.103383 -0.000193671 0.00185708)
(0.103214 -0.000139406 0.00179702)
(0.110347 -0.000434569 0.00175648)
(0.110733 -0.00042398 0.00180626)
(0.111087 -0.000399848 0.00183128)
(0.111416 -0.000366043 0.00183318)
(0.111722 -0.000326863 0.00181654)
(0.11201 -0.000287635 0.00178526)
(0.112283 -0.000251125 0.00174462)
(0.112547 -0.000218757 0.00169926)
(0.112805 -0.000189861 0.00165102)
(0.112347 -0.000390089 0.00100222)
(0.112814 -0.000409925 0.00107469)
(0.113263 -0.000421492 0.00113786)
(0.113762 -0.000421794 0.00118019)
(0.114276 -0.000414388 0.00120434)
(0.114784 -0.000401337 0.0012134)
(0.115283 -0.00038428 0.00120931)
(0.115771 -0.000365403 0.00119394)
(0.116248 -0.000346933 0.00116979)
(0.116713 -0.000330263 0.00114015)
(0.117167 -0.000315989 0.00110777)
(0.117611 -0.000304095 0.00107418)
(0.114074 -0.000479332 0.000518684)
(0.114603 -0.000491897 0.000547152)
(0.115106 -0.000500096 0.000568954)
(0.115655 -0.000502649 0.000582812)
(0.116225 -0.000500853 0.000589849)
(0.116795 -0.000495513 0.000590739)
(0.117361 -0.000487052 0.000585774)
(0.117922 -0.000477035 0.000576537)
(0.118474 -0.000466637 0.000564342)
(0.119015 -0.000456757 0.000550394)
(0.119546 -0.000447945 0.000535673)
(0.120067 -0.000440349 0.000520777)
(0.114632 -0.000533574 1.40117e-05)
(0.115186 -0.000550773 1.63194e-05)
(0.115704 -0.00056866 1.6987e-05)
(0.11627 -0.000577031 1.72233e-05)
(0.116857 -0.000580035 1.73638e-05)
(0.117444 -0.000581078 1.756e-05)
(0.118026 -0.000580112 1.78028e-05)
(0.118603 -0.000575521 1.79817e-05)
(0.119173 -0.000568126 1.80546e-05)
(0.119733 -0.00055898 1.80115e-05)
(0.120282 -0.000548998 1.78376e-05)
(0.12082 -0.000538756 1.75168e-05)
(0.114074 -0.000519618 -0.000480095)
(0.114602 -0.000548356 -0.000492943)
(0.115105 -0.000570414 -0.000501405)
(0.115654 -0.000584447 -0.000504113)
(0.116224 -0.000591469 -0.000502245)
(0.116794 -0.000592168 -0.000496607)
(0.11736 -0.000586993 -0.000487811)
(0.11792 -0.000577577 -0.000477497)
(0.118472 -0.000565219 -0.000466833)
(0.119013 -0.000551145 -0.000456727)
(0.119544 -0.000536341 -0.000447736)
(0.120064 -0.000521408 -0.000440039)
(0.112325 -0.000436112 -0.000932576)
(0.112796 -0.000462674 -0.000956886)
(0.113252 -0.00047543 -0.000972715)
(0.113757 -0.000475594 -0.000976602)
(0.114281 -0.000467037 -0.000972398)
(0.114803 -0.000452231 -0.000963387)
(0.115318 -0.000433204 -0.000951718)
(0.115825 -0.000412363 -0.000938839)
(0.116323 -0.000391873 -0.00092622)
(0.11681 -0.00037302 -0.000915282)
(0.117286 -0.00035638 -0.000906609)
(0.117753 -0.000342042 -0.000900068)
(0.109139 -0.000311061 -0.00130973)
(0.109532 -0.000313767 -0.00136579)
(0.109917 -0.000287637 -0.00139778)
(0.110341 -0.000246799 -0.00140883)
(0.110772 -0.00020225 -0.00141038)
(0.111189 -0.000158839 -0.0014084)
(0.111592 -0.000120042 -0.00140562)
(0.111981 -8.92991e-05 -0.001403)
(0.112359 -6.84022e-05 -0.00140126)
(0.112725 -5.65522e-05 -0.00140133)
(0.11308 -5.23226e-05 -0.00140277)
(0.103435 -0.000246206 -0.0015213)
(0.103702 -0.000200567 -0.00161922)
(0.103916 -9.04993e-05 -0.00163581)
(0.104112 2.83627e-05 -0.00161622)
(0.104281 0.000126764 -0.00159501)
(0.104417 0.000197003 -0.00158386)
(0.104527 0.000240684 -0.00158023)
(0.104616 0.000264507 -0.00157373)
(0.104692 0.000271978 -0.00156775)
(0.104756 0.000264063 -0.00156978)
(0.104804 0.000244466 -0.0015753)
(0.0894385 -0.000316056 -0.00147231)
(0.0887575 -0.000184252 -0.00156423)
(0.088113 1.74902e-05 -0.00156389)
(0.0874189 0.000164578 -0.00153651)
(0.0867086 0.000243607 -0.00151204)
(0.0859973 0.000270507 -0.00149608)
(0.0852845 0.000262504 -0.0014897)
(0.084563 0.00023711 -0.00149259)
(0.0838192 0.000207201 -0.0015)
(0.0830575 0.000177526 -0.00150684)
(0.0822768 0.000148682 -0.00150979)
(0.113057 1.29518e-05 0.00102603)
(0.113548 5.96841e-06 0.00107407)
(0.114017 -5.37602e-06 0.00111563)
(0.114534 -1.59428e-05 0.00114326)
(0.11507 -2.46677e-05 0.00115929)
(0.115602 -3.11633e-05 0.00116675)
(0.116126 -3.51744e-05 0.00116678)
(0.116641 -3.67146e-05 0.00116016)
(0.117144 -3.59534e-05 0.00114779)
(0.117635 -3.30797e-05 0.00113142)
(0.118114 -2.87607e-05 0.00111314)
(0.11858 -2.35593e-05 0.00109417)
(0.114632 1.49869e-05 0.000532956)
(0.115186 1.76189e-05 0.000550035)
(0.115705 1.85601e-05 0.000567816)
(0.116271 1.89337e-05 0.000576137)
(0.116857 1.90026e-05 0.000579046)
(0.117445 1.89431e-05 0.000580006)
(0.118027 1.88213e-05 0.000579083)
(0.118604 1.86496e-05 0.000574551)
(0.119174 1.84068e-05 0.000567209)
(0.119733 1.80957e-05 0.000558105)
(0.120282 1.77074e-05 0.000548155)
(0.12082 1.72333e-05 0.000537955)
(0.115138 6.40362e-08 -5.82262e-07)
(0.115713 1.29775e-07 -6.7905e-07)
(0.116252 1.95146e-07 -7.54744e-07)
(0.116835 2.2136e-07 -7.94983e-07)
(0.117436 1.90001e-07 -7.88658e-07)
(0.118037 1.14851e-07 -7.81059e-07)
(0.118636 1.35615e-08 -7.24374e-07)
(0.11923 -9.13447e-08 -6.44462e-07)
(0.119819 -1.92582e-07 -5.56758e-07)
(0.120398 -2.88804e-07 -4.6748e-07)
(0.120967 -3.79535e-07 -3.79875e-07)
(0.121525 -4.60932e-07 -3.03734e-07)
(0.114632 -1.47988e-05 -0.000534168)
(0.115185 -1.72975e-05 -0.000551487)
(0.115704 -1.81334e-05 -0.000569424)
(0.11627 -1.84814e-05 -0.000577773)
(0.116857 -1.8648e-05 -0.000580711)
(0.117444 -1.87979e-05 -0.000581637)
(0.118026 -1.8956e-05 -0.00058049)
(0.118603 -1.90331e-05 -0.000575729)
(0.119173 -1.90073e-05 -0.00056818)
(0.119733 -1.88844e-05 -0.000558892)
(0.120282 -1.86629e-05 -0.000548774)
(0.120819 -1.83246e-05 -0.000538454)
(0.113056 -1.2673e-05 -0.00102715)
(0.113547 -5.54704e-06 -0.0010755)
(0.114015 5.86283e-06 -0.00111715)
(0.114533 1.6385e-05 -0.00114479)
(0.115068 2.48874e-05 -0.00116077)
(0.1156 3.1048e-05 -0.00116806)
(0.116124 3.4734e-05 -0.0011679)
(0.116639 3.60088e-05 -0.00116109)
(0.117142 3.5046e-05 -0.00114861)
(0.117633 3.20081e-05 -0.00113218)
(0.118111 2.75454e-05 -0.00111383)
(0.118578 2.22759e-05 -0.00109486)
(0.11014 1.71445e-05 -0.00143285)
(0.110547 5.94655e-05 -0.00153505)
(0.110935 0.000109608 -0.00161716)
(0.111365 0.000151066 -0.00167062)
(0.111795 0.000180985 -0.00170385)
(0.112204 0.000199275 -0.00172377)
(0.112591 0.000206457 -0.00173356)
(0.112957 0.000203787 -0.00173318)
(0.113304 0.000192784 -0.00172331)
(0.113633 0.000175597 -0.00170657)
(0.113947 0.000153852 -0.00168592)
(0.104828 6.54373e-05 -0.00163681)
(0.105111 0.000164316 -0.00180812)
(0.105319 0.000277322 -0.00189141)
(0.105507 0.000366405 -0.00191931)
(0.10565 0.000424815 -0.0019273)
(0.105739 0.000452063 -0.00193299)
(0.10578 0.000448723 -0.00193866)
(0.105781 0.000428714 -0.0019322)
(0.105753 0.000400634 -0.00190852)
(0.105706 0.000363634 -0.00187922)
(0.105644 0.000316773 -0.00185106)
(0.0918899 0.000124377 -0.00151335)
(0.0912254 0.000295294 -0.00171354)
(0.0905116 0.000446531 -0.00179956)
(0.0897038 0.000523829 -0.0018289)
(0.0888254 0.000543988 -0.00183204)
(0.0879106 0.000528818 -0.00181944)
(0.0869791 0.000493647 -0.00179937)
(0.0860341 0.000447383 -0.00178119)
(0.0850754 0.000399715 -0.00176599)
(0.0841067 0.000350475 -0.00174876)
(0.0831363 0.000301477 -0.00172615)
)
;

boundaryField
{
    inlet
    {
        type            fixedValue;
        value           nonuniform List<vector> 0();
    }
    ami1
    {
        type            cyclicAMI;
        value           nonuniform List<vector> 0();
    }
    walls
    {
        type            noSlip;
    }
    ami2
    {
        type            cyclicAMI;
        value           nonuniform List<vector> 
48
(
(0.0831467 -0.00126617 0.000690532)
(0.0898562 -0.00139 0.000329379)
(0.0922667 -0.00142592 -6.7909e-05)
(0.0906821 -0.00142187 -0.000502194)
(0.0848239 -0.00134306 -0.000833203)
(0.0738479 -0.00110779 -0.000928586)
(0.0574282 -0.000609762 -0.00042516)
(0.0386578 -0.000265193 1.79799e-05)
(0.0991494 -0.00115202 0.000479703)
(0.103234 -0.00144911 0.00024015)
(0.104618 -0.00155685 -4.21618e-05)
(0.103416 -0.00150084 -0.000319184)
(0.0994423 -0.00127588 -0.000485595)
(0.092166 -0.00086416 -0.000525623)
(0.0802478 -0.000279654 -5.74664e-05)
(0.0557813 -0.000569799 -0.000233514)
(0.105951 -0.00102765 0.000608856)
(0.108872 -0.0012913 0.000308749)
(0.10986 -0.00140651 -6.73838e-06)
(0.108954 -0.00136337 -0.000304927)
(0.106053 -0.00115968 -0.000536215)
(0.100832 -0.000823339 -0.000689253)
(0.092031 -0.00055205 -0.000626931)
(0.0718258 -0.000917393 -0.000901591)
(0.109857 -0.000739987 0.00083558)
(0.112002 -0.000928525 0.00043012)
(0.112715 -0.00101998 1.44191e-05)
(0.112024 -0.000989558 -0.000385127)
(0.109855 -0.000835909 -0.00074)
(0.105949 -0.000609094 -0.00102726)
(0.0991488 -0.000479807 -0.00115193)
(0.0831509 -0.000688867 -0.00126447)
(0.112026 -0.000384641 0.000989032)
(0.113713 -0.000476742 0.00051325)
(0.114261 -0.000529079 1.36345e-05)
(0.113713 -0.000514017 -0.000477326)
(0.112001 -0.000430887 -0.00092876)
(0.108871 -0.00030927 -0.00129101)
(0.103233 -0.000240059 -0.00144859)
(0.0898579 -0.000327958 -0.0013884)
(0.112716 1.52444e-05 0.00101941)
(0.114261 1.44214e-05 0.000528507)
(0.114759 2.96618e-08 -5.23043e-07)
(0.114261 -1.43146e-05 -0.000529568)
(0.112715 -1.50818e-05 -0.00102033)
(0.109859 6.29533e-06 -0.00140653)
(0.104617 4.21688e-05 -0.00155666)
(0.0922683 6.86953e-05 -0.00142502)
)
;
    }
    outlet
    {
        type            zeroGradient;
    }
    procBoundary0to1
    {
        type            processor;
        value           nonuniform List<vector> 
138
(
(0.088508 -0.000846013 0.001935)
(0.0897028 -0.00052428 0.00183035)
(0.0888257 -0.000544929 0.00183307)
(0.0879124 -0.000529643 0.00181979)
(0.0869819 -0.00049392 0.00179896)
(0.0860375 -0.000447 0.00178013)
(0.085079 -0.000398851 0.00176445)
(0.0841103 -0.000349089 0.00174698)
(0.0831398 -0.000299563 0.00172446)
(0.0821714 -0.000249739 0.00169623)
(0.104022 -0.000577723 0.00199514)
(0.105512 -0.000365988 0.00192274)
(0.105655 -0.000424185 0.00192995)
(0.105743 -0.000451489 0.00193435)
(0.105784 -0.000448276 0.00193873)
(0.105785 -0.000428398 0.00193113)
(0.105757 -0.000400535 0.00190672)
(0.10571 -0.000363639 0.00187702)
(0.105647 -0.000317079 0.00184845)
(0.105574 -0.000267418 0.0018227)
(0.109209 -0.000323159 0.00139748)
(0.109585 -0.00038547 0.00154926)
(0.109949 -0.000425326 0.00167437)
(0.109949 -0.000425326 0.00167437)
(0.111368 -0.000150371 0.00167019)
(0.111799 -0.000180418 0.00170335)
(0.112208 -0.0001991 0.00172316)
(0.112595 -0.0002067 0.00173284)
(0.112961 -0.000204356 0.00173229)
(0.113308 -0.00019365 0.00172218)
(0.113637 -0.000176703 0.00170524)
(0.113951 -0.000155255 0.00168466)
(0.114254 -0.000132155 0.00166204)
(0.110142 -1.70566e-05 0.00143236)
(0.110549 -5.92053e-05 0.00153454)
(0.110938 -0.000109093 0.00161671)
(0.111368 -0.000150371 0.00167019)
(0.111799 -0.000180418 0.00170335)
(0.112208 -0.0001991 0.00172316)
(0.112595 -0.0002067 0.00173284)
(0.112961 -0.000204356 0.00173229)
(0.113308 -0.00019365 0.00172218)
(0.113637 -0.000176703 0.00170524)
(0.113951 -0.000155255 0.00168466)
(0.114254 -0.000132155 0.00166204)
(0.112326 0.000436395 0.000931546)
(0.112797 0.00046296 0.000955334)
(0.113253 0.000475626 0.00097081)
(0.113758 0.000475622 0.000974574)
(0.114283 0.000466845 0.00097046)
(0.114805 0.000451816 0.000961689)
(0.115321 0.000432611 0.00095034)
(0.115828 0.000411663 0.000937751)
(0.116326 0.000391126 0.000925353)
(0.116813 0.00037226 0.000914562)
(0.11729 0.000355632 0.000905992)
(0.117757 0.000341265 0.000899502)