/*--------------------------------*- C++ -*----------------------------------*\
| =========                 |                                                 |
| \\      /  F ield         | OpenFOAM: The Open Source CFD Toolbox           |
|  \\    /   O peration     | Version:  2212                                  |
|   \\  /    A nd           | Website:  www.openfoam.com                      |
|    \\/     M anipulation  |                                                 |
\*---------------------------------------------------------------------------*/
FoamFile
{
    version     2.0;
    format      ascii;
    arch        "LSB;label=32;scalar=64";
    class       volScalarField;
    location    "0.8";
    object      epsilon;
}
// * * * * * * * * * * * * * * * * * * * * * * * * * * * * * * * * * * * * * //

dimensions      [0 2 -3 0 0 0 0];

internalField   nonuniform List<scalar> 
678
(
0.116465
0.116306
0.116104
0.115883
0.115728
0.0435951
0.0435006
0.0434275
0.0433621
0.043305
0.0297822
0.0296918
0.0296205
0.0295694
0.0295398
0.0236038
0.0235166
0.0234356
0.0233814
0.023345
0.0233174
0.020771
0.0206814
0.0206095
0.0205559
0.0205173
0.0204922
0.0196671
0.0195775
0.019508
0.0194554
0.0194176
0.0193899
0.019391
0.0199428
0.0198519
0.0197817
0.0197308
0.0196955
0.0196713
0.0196766
0.0218495
0.0217542
0.0216838
0.0216364
0.0216036
0.0215849
0.021583
0.0268504
0.026727
0.0266516
0.0266086
0.0265792
0.0265597
0.0265609
0.040693
0.0405988
0.0405329
0.0404771
0.040432
0.0404038
0.116472
0.116315
0.116112
0.115906
0.115768
0.115709
0.0407081
0.0406151
0.0405485
0.040486
0.0404185
0.0403913
0.0175846
0.0173698
0.0171715
0.0170679
0.0171184
0.0117959
0.0116199
0.0114848
0.011313
0.0112457
0.0113985
0.0097779
0.00961547
0.00949518
0.00929662
0.00921561
0.00931666
0.00892325
0.00876175
0.00864132
0.008463
0.00841014
0.00846897
0.00863672
0.0084673
0.00832967
0.00821719
0.00814068
0.00818818
0.00882914
0.00866835
0.00854983
0.008368
0.00831444
0.00838258
0.00951555
0.009351
0.00922949
0.00903394
0.00891676
0.008906
0.00911401
0.0112856
0.0111029
0.0109429
0.0107643
0.0106772
0.0107376
0.0108946
0.0175844
0.0173657
0.0171598
0.0170633
0.0170181
0.0170522
0.0171066
0.0436055
0.0435086
0.0434344
0.0433715
0.0433265
0.0432982
0.0268733
0.0267528
0.0266807
0.0266354
0.0266042
0.0265806
0.0265817
0.0112765
0.0110898
0.0109092
0.0107413
0.0106666
0.0108307
0.00830052
0.00816577
0.00801282
0.00779965
0.0077125
0.0078449
0.00754371
0.00740586
0.00728131
0.00707717
0.00698748
0.00708439
0.00736317
0.00720937
0.00707079
0.00695555
0.00682224
0.00691011
0.00732967
0.00717347
0.00703588
0.00691874
0.00680788
0.00689157
0.00736841
0.00722252
0.00708825
0.00695646
0.00684092
0.00698248
0.00752432
0.00740071
0.00728626
0.00708107
0.00694407
0.00707824
0.0083059
0.00818113
0.00803473
0.00782726
0.0077085
0.00784093
0.0118123
0.0116365
0.0114544
0.0112921
0.0112058
0.0112641
0.0114428
0.029802
0.0297085
0.0296348
0.0295819
0.0295447
0.0295242
0.0218764
0.0217804
0.0217101
0.0216627
0.0216317
0.021612
0.0216114
0.00950506
0.00933144
0.0092019
0.00898684
0.00894624
0.00896399
0.00915849
0.00751517
0.00738253
0.00725266
0.00706322
0.00694196
0.00707861
0.00712483
0.00704467
0.00684793
0.0066628
0.00655133
0.00657975
0.00711961
0.00703373
0.00684835
0.00666045
0.00655417
0.00659354
0.0071478
0.00706082
0.00687588
0.00667685
0.00667358
0.00671696
0.00712357
0.00703957
0.00685545
0.00667886
0.00675583
0.00711758
0.0070381
0.00685856
0.00667142
0.00657242
0.00664052
0.00755085
0.00741178
0.00729349
0.0070826
0.00699618
0.00716133
0.00977947
0.00961101
0.00948051
0.00928419
0.0092122
0.00937643
0.0236354
0.023544
0.0234567
0.0233986
0.0233564
0.0233224
0.0199713
0.0198781
0.0198062
0.0197556
0.0197204
0.0197009
0.00882189
0.00865088
0.00851495
0.00835884
0.00831007
0.0084199
0.00734708
0.00719724
0.00706229
0.00694469
0.00698702
0.00708863
0.00702089
0.00683445
0.00668241
0.00679673
0.0071872
0.00711006
0.00691856
0.00675592
0.00683749
0.00724193
0.00715803
0.00698779
0.00680451
0.00686353
0.00717928
0.00710132
0.00693133
0.00675247
0.00682902
0.00710543
0.00702047
0.00683199
0.00663885
0.00670003
0.00734782
0.00719554
0.00706137
0.00694328
0.00699129
0.00891678
0.00875119
0.00862096
0.00846737
0.00851041
0.0207956
0.0207024
0.0206263
0.0205686
0.020524
0.0205003
0.0197006
0.0196049
0.0195309
0.0194763
0.0194369
0.0194169
0.00865165
0.00846958
0.0083221
0.00822667
0.00813801
0.00826015
0.00732823
0.0071662
0.00703999
0.00704825
0.00712439
0.00705099
0.00683966
0.00688539
0.00726549
0.00716455
0.00696544
0.00699626
0.00731237
0.00722326
0.00703587
0.0068649
0.00689801
0.00722742
0.00714517
0.00696963
0.00679162
0.00683972
0.00710884
0.00703586
0.00684624
0.00665523
0.00672017
0.00730755
0.0071505
0.00701413
0.00691035
0.00695652
0.00862437
0.0084514
0.00831326
0.00820144
0.00822656
0.0196853
0.0195929
0.0195198
0.0194644
0.0194241
0.0208942
0.0207862
0.0206971
0.0206268
0.0205732
0.0205355
0.00901838
0.00884379
0.00870841
0.00852363
0.0084427
0.00848859
0.00744982
0.00728414
0.00713901
0.0070133
0.00688411
0.00695398
0.00723207
0.00713988
0.006932
0.0067396
0.0066152
0.00675408
0.00734517
0.00723374
0.00701167
0.00681594
0.00669573
0.00684006
0.00724885
0.00715727
0.00694988
0.00678052
0.00687286
0.00718038
0.00709466
0.00690882
0.00673115
0.00678678
0.00708146
0.0070048
0.00683095
0.00663451
0.0066956
0.00734741
0.00719761
0.00706907
0.00693125
0.00698792
0.00881714
0.00864747
0.0085173
0.00836545
0.00841517
0.0199532
0.0198606
0.0197879
0.0197353
0.0196975
0.0237252
0.0236151
0.0235174
0.0234446
0.0233932
0.0233586
0.00985951
0.00968978
0.00949238
0.00938579
0.0092304
0.00931196
0.00765739
0.00749373
0.00735337
0.00713086
0.00700404
0.00705858
0.00726967
0.00715752
0.00692401
0.00671584
0.00654832
0.00662685
0.00724589
0.00713398
0.0069098
0.00671202
0.0065553
0.00656565
0.00712355
0.00704238
0.00681832
0.00663979
0.00663955
0.00710065
0.00700918
0.00681504
0.00663439
0.00663062
0.00709333
0.00701267
0.00683514
0.00664444
0.00664064
0.00751283
0.007383
0.00725582
0.00706121
0.00714434
0.00950026
0.00932994
0.00919033
0.00899535
0.00907033
0.0218562
0.0217596
0.0216869
0.0216374
0.0216022
0.0298621
0.0297518
0.0296686
0.0296083
0.0295682
0.0295421
0.0118767
0.0116859
0.0115137
0.0113353
0.0112325
0.0113286
0.00840335
0.00824583
0.00806257
0.00784261
0.00769966
0.00780825
0.00762886
0.00746477
0.00730638
0.00709394
0.00694404
0.00700863
0.00745052
0.00726905
0.00711907
0.00698231
0.00681937
0.00689751
0.00732473
0.00715011
0.00699789
0.00688514
0.00692516
0.00734236
0.00718475
0.00704894
0.00692455
0.00696923
0.00753714
0.00739701
0.00727334
0.00707047
0.0071505
0.00830167
0.0081721
0.00800208
0.00780929
0.00789405
0.0112732
0.0110882
0.0108971
0.0107284
0.0108091
0.0268594
0.0267352
0.0266563
0.026611
0.0265757
0.0436931
0.0435766
0.0434868
0.0434161
0.0433612
0.0433207
0.0176319
0.0174031
0.0171857
0.0170807
0.017028
0.0170999
0.011338
0.0111223
0.010925
0.0107355
0.0106537
0.0107656
0.00956473
0.00936976
0.00919375
0.00899722
0.00891903
0.00900027
0.00887945
0.00868567
0.00852241
0.00839273
0.00827514
0.0083393
0.00863779
0.00844196
0.00829082
0.00816818
0.00819481
0.00890504
0.00873114
0.00859542
0.00844674
0.00848241
0.00976023
0.00959138
0.00943081
0.00927847
0.00932605
0.0118028
0.0116262
0.0114275
0.0112786
0.0113433
0.0175778
0.0173445
0.0171339
0.0170456
0.0171023
0.0406967
0.0405986
0.0405302
0.0404729
0.0404106
0.116699
0.116495
0.116258
0.116026
0.115863
0.115825
0.0408017
0.0406886
0.0406079
0.0405422
0.0404967
0.0404488
0.0269393
0.0268135
0.026728
0.0266779
0.0219521
0.0218408
0.0217582
0.0217027
0.0216749
0.0200503
0.019942
0.0198578
0.0197965
0.019757
0.0196962
0.0195967
0.0195219
0.0194698
0.0194389
0.0207876
0.0206943
0.0206194
0.0205644
0.0205271
0.0236147
0.0235272
0.0234438
0.0233855
0.0233607
0.0297831
0.0296917
0.0296192
0.0295702
0.0295354
0.0435968
0.0434957
0.0434223
0.0433606
0.0433089
0.116456
0.11629
0.11608
0.115874
0.115789
)
;

boundaryField
{
    inlet
    {
        type            fixedValue;
        value           nonuniform List<scalar> 0();
    }
    ami1
    {
        type            cyclicAMI;
        value           nonuniform List<scalar> 0();
    }
    walls
    {
        type            epsilonWallFunction;
        blending        stepwise;
        value           nonuniform List<scalar> 
250
(
0.116465
0.0435951
0.0297822
0.0236038
0.020771
0.0196671
0.0199428
0.0218495
0.0268504
0.040693
0.116472
0.116306
0.0435006
0.0296918
0.0235166
0.0206814
0.0195775
0.0198519
0.0217542
0.026727
0.0405988
0.116315
0.116104
0.0434275
0.0296205
0.0234356
0.0206095
0.019508
0.0197817
0.0216838
0.0266516
0.0405329
0.116112
0.115883
0.0433621
0.0295694
0.0233814
0.0205559
0.0194554
0.0197308
0.0216364
0.0266086
0.0404771
0.115906
0.115728
0.043305
0.0295398
0.023345
0.0205173
0.0194176
0.0196955
0.0216036
0.0265792
0.040432
0.115768
0.0233174
0.0204922
0.0193899
0.0196713
0.0215849
0.0265597
0.0404038
0.115709
0.019391
0.0196766
0.021583
0.0265609
0.116472
0.0436055
0.029802
0.0236354
0.0207956
0.0196853
0.0199532
0.0218562
0.0268594
0.0406967
0.116456
0.116315
0.0435086
0.0297085
0.023544
0.0207024
0.0195929
0.0198606
0.0217596
0.0267352
0.0405986
0.11629
0.116112
0.0434344
0.0296348
0.0234567
0.0206263
0.0195198
0.0197879
0.0216869
0.0266563
0.0405302
0.11608
0.115906
0.0433715
0.0295819
0.0233986
0.0205686
0.0194644
0.0197353
0.0216374
0.026611
0.0404729
0.115874
0.115768
0.0433265
0.0295447
0.0233564
0.020524
0.0194241
0.0196975
0.0216022
0.0265757
0.0404106
0.115789
0.115709
0.0432982
0.0295242
0.0233224
0.0205003
0.116699
0.0408017
0.0269393
0.0219521
0.0200503
0.116495
0.0406886
0.0268135
0.0218408
0.019942
0.0196962
0.0207876
0.0236147
0.0297831
0.0435968
0.116456
0.116258
0.0406079
0.026728
0.0217582
0.0198578
0.0195967
0.0206943
0.0235272
0.0296917
0.0434957
0.11629
0.116026
0.0405422
0.0266779
0.0217027
0.0197965
0.0195219
0.0206194
0.0234438
0.0296192
0.0434223
0.11608
0.115863
0.0404967
0.0216749
0.019757
0.0194698
0.0205644
0.0233855
0.0295702
0.0433606
0.115874
0.115825
0.0404488
0.0194389
0.0205271
0.0233607
0.0295354
0.0433089
0.115789
0.0208942
0.0237252
0.0298621
0.0436931
0.116699
0.116465
0.0407081
0.0268733
0.0218764
0.0199713
0.0197006
0.0207862
0.0236151
0.0297518
0.0435766
0.116495
0.116306
0.0406151
0.0267528
0.0217804
0.0198781
0.0196049
0.0206971
0.0235174
0.0296686
0.0434868
0.116258
0.116104
0.0405485
0.0266807
0.0217101
0.0198062
0.0195309
0.0206268
0.0234446
0.0296083
0.0434161
0.116026
0.115883
0.040486
0.0266354
0.0216627
0.0197556
0.0194763
0.0205732
0.0233932
0.0295682
0.0433612
0.115863
0.115728
0.0404185
0.0266042
0.0216317
0.0197204
0.0194369
0.0205355
0.0233586
0.0295421
0.0433207
0.115825
0.0403913
0.0265806
0.021612
0.0197009
0.0194169
0.0265817
0.0216114
)
;
    }
    ami2
    {
        type            cyclicAMI;
        value           nonuniform List<scalar> 0();
    }
    outlet
    {
        type            zeroGradient;
    }
    procBoundary5to6
    {
        type            processor;
        value           nonuniform List<scalar> 
177
(
0.115703
0.115703
0.0432655
0.029539
0.029539
0.029539
0.0233193
0.0204965
0.0204965
0.0194175
0.00845499
0.0196985
0.00869132
0.0215905
0.0265669
0.0404155
0.0404155
0.0404155
0.115758
0.0403863
0.0174306
0.0403863
0.0174306
0.0174306
0.0174306
0.0116652
0.00961339
0.00873781
0.00845499
0.00869132
0.00869132
0.00940972
0.00740414
0.0111709
0.0081851
0.017389
0.0433064
0.0433064
0.0265878
0.0111339
0.0111339
0.0111339
0.00816703
0.0073703
0.00717994
0.00715583
0.00723602
0.00700886
0.00740414
0.0081851
0.0081851
0.0116581
0.0295258
0.00964746
0.0295258
0.0216248
0.0197066
0.00940176
0.00734963
0.00871042
0.00734963
0.00725778
0.00695193
0.00700859
0.0069319
0.00708013
0.00701345
0.00700886
0.00713217
0.00700886
0.00700886
0.00694281
0.006959
0.00742515
0.00723973
0.00964746
0.0087805
0.023328
0.0197066
0.00871042
0.00725778
0.00725778
0.00729879
0.00700859
0.00712885
0.00708013
0.0072501
0.00713217
0.0070562
0.006959
0.00723973
0.0087805
0.0087805
0.0205126
0.0193975
0.0194206
0.0205199
0.00729879
0.00851675
0.00716031
0.0087795
0.00729879
0.00729879
0.00712885
0.00712885
0.0072501
0.0072501
0.0072501
0.00719899
0.00711876
0.00697284
0.00719118
0.00847699
0.0193975
0.0205199
0.0087795
0.0072087
0.00695154
0.00703941
0.00708899
0.00705427
0.00695649
0.00723347
0.00868372
0.0196698
0.0233086
0.00960556
0.00736816
0.00689359
0.00691796
0.00696933
0.00696205
0.00700084
0.00742284
0.00936729
0.0215705
0.0295167
0.0116353
0.00813353
0.00732753
0.00716082
0.00716706
0.00721466
0.00742504
0.00818864
0.0111189
0.026525
0.0432888
0.0173858
0.0266527
0.0110992
0.0266386
0.00932168
0.0216737
0.00863292
0.0197351
0.00845435
0.00874723
0.00960615
0.0116371
0.0173754
0.0403481
0.115812
0.0266527
0.0404088
0.0266386
0.0266527
0.0266527
0.0216737
0.0197351
0.0197351
0.0193979
0.0204862
0.0232978
0.0294995
0.0432608
0.115734
)
;
    }
    procBoundary5to7
    {
        type            processor;
        value           nonuniform List<scalar> 
131
(
0.116674
0.0437148
0.0298691
0.0237012
0.0208555
0.0197508
0.0200298
0.0219412
0.0269596
0.0408371
0.116687
0.0408454
0.0173904
0.0115833
0.00956119
0.00872732
0.00844306
0.00862181
0.00929193
0.0110562
0.0173881
0.0437321
0.0269844
0.0110336
0.00806741
0.00734148
0.00718388
0.0071397
0.00718457
0.00732057
0.00806796
0.0115821
0.0298949
0.0219709
0.00925986
0.00730543
0.00693171
0.00694903
0.0069811
0.00695208
0.00693447
0.00734214
0.00955144
0.023735
0.0200613
0.00860269
0.00715073
0.00684162
0.00696997
0.00705852
0.0069931
0.00692651
0.00716194
0.00871213
0.0208854
0.0197854
0.0197854
0.00846541
0.00846541
0.00715384
0.00715384
0.00688319
0.00688319
0.00712528
0.00712528
0.00716241
0.00704143
0.00687575
0.00711543
0.00842001
0.0197734
0.020995
0.00876974
0.00726861
0.00702773
0.00716494
0.00708893
0.00708893
0.00698445
0.00687459
0.00715492
0.00860223
0.0200433
0.0238387
0.0096364
0.00747554
0.00708703
0.00704402
0.00690137
0.00690137
0.00691784
0.00690568
0.00730216
0.00925532
0.0219509
0.0299719
0.0116459
0.00818245
0.00743905
0.00726915
0.00715276
0.00715276
0.00715259
0.00732335
0.00805795
0.0110271
0.0269719
0.043836
0.0174161
0.0110968
0.00933806
0.0086732
0.00845318
0.00845318
0.00869624
0.0095244
0.0115645
0.0173706
0.0408471
0.116967
0.0409622
0.0270782
0.0220685
0.0201589
0.0197763
0.0197763
0.0208706
0.0237115
0.0298733
0.0437272
0.116682
)
;
    }
}


// ************************************************************************* //
