/*--------------------------------*- C++ -*----------------------------------*\
| =========                 |                                                 |
| \\      /  F ield         | OpenFOAM: The Open Source CFD Toolbox           |
|  \\    /   O peration     | Version:  2212                                  |
|   \\  /    A nd           | Website:  www.openfoam.com                      |
|    \\/     M anipulation  |                                                 |
\*---------------------------------------------------------------------------*/
FoamFile
{
    version     2.0;
    format      ascii;
    arch        "LSB;label=32;scalar=64";
    class       volScalarField;
    location    "0.8";
    object      nut;
}
// * * * * * * * * * * * * * * * * * * * * * * * * * * * * * * * * * * * * * //

dimensions      [0 2 -1 0 0 0 0];

internalField   nonuniform List<scalar> 
678
(
3.70639e-06
3.70301e-06
3.69882e-06
3.69419e-06
3.69043e-06
7.36556e-06
7.35517e-06
7.34672e-06
7.33936e-06
7.33191e-06
1.06816e-05
1.06594e-05
1.06414e-05
1.06277e-05
1.06165e-05
1.30741e-05
1.3055e-05
1.30369e-05
1.30181e-05
1.30029e-05
1.29932e-05
1.45635e-05
1.45368e-05
1.45046e-05
1.44764e-05
1.44549e-05
1.44347e-05
1.49829e-05
1.49493e-05
1.49124e-05
1.48829e-05
1.48597e-05
1.48412e-05
1.48269e-05
1.43265e-05
1.42918e-05
1.42571e-05
1.42295e-05
1.42097e-05
1.41942e-05
1.41771e-05
1.26889e-05
1.26581e-05
1.2632e-05
1.2611e-05
1.25963e-05
1.2587e-05
1.25745e-05
1.02149e-05
1.01979e-05
1.01773e-05
1.01636e-05
1.0155e-05
1.01472e-05
1.01434e-05
7.15916e-06
7.14769e-06
7.13948e-06
7.13265e-06
7.1268e-06
7.12171e-06
3.70598e-06
3.70256e-06
3.69856e-06
3.69441e-06
3.69131e-06
3.68971e-06
7.16103e-06
7.14981e-06
7.1416e-06
7.13402e-06
7.12587e-06
7.11862e-06
1.00793e-05
1.00526e-05
1.0114e-05
1.01616e-05
1.00953e-05
2.13315e-05
2.11983e-05
2.11917e-05
2.14308e-05
2.15098e-05
2.11105e-05
3.06317e-05
3.05271e-05
3.05046e-05
3.09588e-05
3.11173e-05
3.06098e-05
3.68474e-05
3.67829e-05
3.67762e-05
3.72488e-05
3.72806e-05
3.68566e-05
3.97324e-05
3.97351e-05
3.98305e-05
4.00089e-05
4.01593e-05
3.97517e-05
3.83534e-05
3.82822e-05
3.82565e-05
3.87576e-05
3.88247e-05
3.83814e-05
3.20344e-05
3.19076e-05
3.18695e-05
3.23495e-05
3.26768e-05
3.26688e-05
3.18021e-05
2.10851e-05
2.09434e-05
2.09879e-05
2.12804e-05
2.14526e-05
2.12959e-05
2.08747e-05
1.00614e-05
1.00337e-05
1.00988e-05
1.01464e-05
1.01766e-05
1.01402e-05
1.00754e-05
7.36649e-06
7.35559e-06
7.34703e-06
7.33988e-06
7.33364e-06
7.32932e-06
1.02216e-05
1.0203e-05
1.01826e-05
1.01693e-05
1.01605e-05
1.01515e-05
1.01477e-05
2.1191e-05
2.10562e-05
2.1159e-05
2.14404e-05
2.15735e-05
2.11482e-05
4.07754e-05
4.05078e-05
4.06177e-05
4.13721e-05
4.161e-05
4.0657e-05
5.62797e-05
5.60452e-05
5.60068e-05
5.69417e-05
5.72186e-05
5.59808e-05
6.54424e-05
6.53389e-05
6.54314e-05
6.56155e-05
6.62303e-05
6.50887e-05
6.91508e-05
6.907e-05
6.91589e-05
6.93575e-05
6.96757e-05
6.8635e-05
6.68635e-05
6.67099e-05
6.67676e-05
6.71135e-05
6.75604e-05
6.60844e-05
5.76631e-05
5.73285e-05
5.71993e-05
5.81559e-05
5.87897e-05
5.75755e-05
4.07118e-05
4.03693e-05
4.04193e-05
4.11108e-05
4.15389e-05
4.06342e-05
2.13263e-05
2.11787e-05
2.12528e-05
2.14718e-05
2.16107e-05
2.14404e-05
2.09684e-05
1.0686e-05
1.06633e-05
1.06443e-05
1.06302e-05
1.06199e-05
1.06121e-05
1.26979e-05
1.26668e-05
1.264e-05
1.26189e-05
1.26042e-05
1.25952e-05
1.2585e-05
3.22523e-05
3.21518e-05
3.21506e-05
3.27102e-05
3.27656e-05
3.26255e-05
3.18097e-05
5.78945e-05
5.76404e-05
5.76552e-05
5.85032e-05
5.90456e-05
5.76738e-05
7.75649e-05
7.66427e-05
7.73812e-05
7.84069e-05
7.88894e-05
7.80579e-05
8.88216e-05
8.77778e-05
8.8389e-05
8.94698e-05
8.98688e-05
8.92062e-05
9.2716e-05
9.16082e-05
9.22e-05
9.34384e-05
9.23601e-05
9.16863e-05
8.93188e-05
8.82449e-05
8.88427e-05
8.97465e-05
8.81193e-05
7.75497e-05
7.66063e-05
7.71323e-05
7.81478e-05
7.85351e-05
7.78954e-05
5.62579e-05
5.6007e-05
5.58944e-05
5.68687e-05
5.70686e-05
5.53547e-05
3.07411e-05
3.06482e-05
3.06369e-05
3.10772e-05
3.11561e-05
3.03501e-05
1.30804e-05
1.30619e-05
1.30427e-05
1.30229e-05
1.30072e-05
1.2994e-05
1.43381e-05
1.43022e-05
1.42673e-05
1.42387e-05
1.422e-05
1.42035e-05
3.86303e-05
3.86e-05
3.86523e-05
3.90363e-05
3.90689e-05
3.84126e-05
6.73197e-05
6.72203e-05
6.72915e-05
6.74812e-05
6.66127e-05
8.9975e-05
8.87101e-05
8.93551e-05
8.99689e-05
8.77223e-05
0.000102222
0.000100832
0.000101504
0.000102208
0.000100801
0.000106254
0.000104852
0.000105157
0.000106113
0.000104928
0.000102214
0.000100806
0.000101142
0.000102077
0.000100396
8.89369e-05
8.78601e-05
8.85054e-05
8.9639e-05
8.82163e-05
6.56555e-05
6.5514e-05
6.55358e-05
6.57315e-05
6.45225e-05
3.70304e-05
3.69708e-05
3.69865e-05
3.73044e-05
3.68087e-05
1.4573e-05
1.45446e-05
1.45116e-05
1.44813e-05
1.446e-05
1.44314e-05
1.49936e-05
1.49599e-05
1.49222e-05
1.48913e-05
1.48715e-05
1.48482e-05
3.9906e-05
3.99623e-05
4.00993e-05
4.01579e-05
4.04053e-05
3.95667e-05
6.95263e-05
6.94945e-05
6.94333e-05
6.84095e-05
9.3405e-05
9.21063e-05
9.30154e-05
9.13075e-05
0.000106146
0.000105042
0.000105743
0.000104141
0.000110466
0.000109084
0.000109621
0.000110461
0.000109737
0.000106397
0.000104967
0.000105355
0.000106227
0.000105157
9.31641e-05
9.18497e-05
9.25041e-05
9.36415e-05
9.21129e-05
6.93901e-05
6.93035e-05
6.93601e-05
6.94121e-05
6.81383e-05
3.99503e-05
3.99552e-05
4.00269e-05
4.01851e-05
3.97196e-05
1.49893e-05
1.49546e-05
1.49172e-05
1.4887e-05
1.48615e-05
1.46141e-05
1.45792e-05
1.45431e-05
1.45105e-05
1.44825e-05
1.44691e-05
3.72984e-05
3.71926e-05
3.71272e-05
3.74945e-05
3.75454e-05
3.70998e-05
6.63798e-05
6.61675e-05
6.60992e-05
6.61479e-05
6.65397e-05
6.53294e-05
8.97263e-05
8.84502e-05
8.9048e-05
8.98947e-05
9.02657e-05
8.76083e-05
0.000102635
0.000101363
0.000102127
0.000102996
0.000103105
0.000100484
0.000106313
0.000105051
0.000105873
0.000106602
0.000104835
0.000102154
0.000100871
0.00010145
0.000102411
0.000101049
8.97527e-05
8.85653e-05
8.90282e-05
9.0232e-05
8.87892e-05
6.70041e-05
6.68783e-05
6.68682e-05
6.729e-05
6.60011e-05
3.84909e-05
3.84594e-05
3.84772e-05
3.88408e-05
3.82812e-05
1.43301e-05
1.42948e-05
1.42597e-05
1.42317e-05
1.42079e-05
1.31061e-05
1.30817e-05
1.30601e-05
1.3039e-05
1.30217e-05
1.30088e-05
3.08689e-05
3.0724e-05
3.09039e-05
3.09705e-05
3.13499e-05
3.0894e-05
5.6577e-05
5.63409e-05
5.62649e-05
5.72008e-05
5.76648e-05
5.67627e-05
7.76632e-05
7.67895e-05
7.7685e-05
7.87744e-05
7.97757e-05
7.8013e-05
9.00192e-05
8.89417e-05
8.97804e-05
9.07557e-05
9.15832e-05
9.08069e-05
9.32174e-05
9.19945e-05
9.30957e-05
9.40598e-05
9.34758e-05
8.89384e-05
8.79572e-05
8.86927e-05
8.96755e-05
8.91317e-05
7.76728e-05
7.67284e-05
7.72407e-05
7.83066e-05
7.77391e-05
5.7651e-05
5.73602e-05
5.7334e-05
5.82266e-05
5.69679e-05
3.21362e-05
3.20331e-05
3.20541e-05
3.25366e-05
3.20131e-05
1.26909e-05
1.26601e-05
1.2633e-05
1.26118e-05
1.25952e-05
1.07024e-05
1.06773e-05
1.06561e-05
1.06397e-05
1.06281e-05
1.06193e-05
2.13625e-05
2.12292e-05
2.12726e-05
2.14952e-05
2.16782e-05
2.14157e-05
4.08345e-05
4.05732e-05
4.07499e-05
4.14543e-05
4.19957e-05
4.11473e-05
5.8007e-05
5.77933e-05
5.78731e-05
5.87902e-05
5.95084e-05
5.8501e-05
6.76637e-05
6.75986e-05
6.76028e-05
6.78266e-05
6.86535e-05
6.719e-05
6.9358e-05
6.94145e-05
6.96369e-05
6.97912e-05
6.87294e-05
6.56114e-05
6.55429e-05
6.56048e-05
6.58795e-05
6.47458e-05
5.62092e-05
5.59798e-05
5.59253e-05
5.68636e-05
5.56722e-05
4.06328e-05
4.03323e-05
4.05104e-05
4.11506e-05
4.03759e-05
2.11498e-05
2.10101e-05
2.11116e-05
2.13795e-05
2.11178e-05
1.0218e-05
1.01998e-05
1.01784e-05
1.0164e-05
1.01526e-05
7.37472e-06
7.36268e-06
7.35333e-06
7.34516e-06
7.33846e-06
7.33214e-06
1.01104e-05
1.00834e-05
1.01498e-05
1.02009e-05
1.02384e-05
1.01591e-05
2.12879e-05
2.119e-05
2.12909e-05
2.16003e-05
2.17703e-05
2.14669e-05
3.24774e-05
3.23945e-05
3.24991e-05
3.29512e-05
3.3108e-05
3.26277e-05
3.89724e-05
3.89614e-05
3.90561e-05
3.92227e-05
3.95256e-05
3.89368e-05
3.99019e-05
4.00222e-05
4.0191e-05
4.04448e-05
4.00221e-05
3.70398e-05
3.70389e-05
3.71009e-05
3.7428e-05
3.69675e-05
3.07459e-05
3.06775e-05
3.07903e-05
3.10874e-05
3.06946e-05
2.13125e-05
2.11838e-05
2.12978e-05
2.14967e-05
2.12633e-05
1.00723e-05
1.00544e-05
1.01248e-05
1.01654e-05
1.00831e-05
7.15978e-06
7.14802e-06
7.13925e-06
7.13107e-06
7.12269e-06
3.7102e-06
3.70626e-06
3.70184e-06
3.69723e-06
3.69352e-06
3.6917e-06
7.16989e-06
7.1572e-06
7.14823e-06
7.14067e-06
7.13346e-06
7.12649e-06
1.02417e-05
1.02171e-05
1.0195e-05
1.01803e-05
1.27253e-05
1.26894e-05
1.26589e-05
1.26348e-05
1.2618e-05
1.43742e-05
1.43327e-05
1.4293e-05
1.4261e-05
1.42366e-05
1.49918e-05
1.49574e-05
1.49189e-05
1.48906e-05
1.48611e-05
1.45722e-05
1.45463e-05
1.45122e-05
1.44825e-05
1.44555e-05
1.30778e-05
1.30604e-05
1.30416e-05
1.30222e-05
1.30031e-05
1.0683e-05
1.06614e-05
1.06426e-05
1.06279e-05
1.06175e-05
7.36538e-06
7.35474e-06
7.34576e-06
7.33808e-06
7.33073e-06
3.70574e-06
3.70219e-06
3.69783e-06
3.69332e-06
3.69049e-06
)
;

boundaryField
{
    inlet
    {
        type            calculated;
        value           nonuniform List<scalar> 0();
    }
    ami1
    {
        type            cyclicAMI;
        value           nonuniform List<scalar> 0();
    }
    walls
    {
        type            nutkWallFunction;
        blending        stepwise;
        value           uniform 0;
    }
    ami2
    {
        type            cyclicAMI;
        value           nonuniform List<scalar> 0();
    }
    outlet
    {
        type            calculated;
        value           nonuniform List<scalar> 0();
    }
    procBoundary5to6
    {
        type            processor;
        value           nonuniform List<scalar> 
177
(
3.68863e-06
3.68863e-06
7.32466e-06
1.0599e-05
1.0599e-05
1.0599e-05
1.29865e-05
1.4433e-05
1.4433e-05
1.4829e-05
3.80914e-05
1.41804e-05
3.66682e-05
1.25754e-05
1.01411e-05
7.11946e-06
7.11946e-06
7.11946e-06
3.68974e-06
7.11599e-06
9.80423e-06
7.11599e-06
9.80423e-06
9.80423e-06
9.80423e-06
2.03647e-05
2.93662e-05
3.54994e-05
3.80914e-05
3.66682e-05
3.66682e-05
3.07645e-05
5.49812e-05
2.02645e-05
3.86007e-05
9.81228e-06
7.32752e-06
7.32752e-06
1.01471e-05
2.03451e-05
2.03451e-05
2.03451e-05
3.85297e-05
5.33471e-05
6.26734e-05
6.59954e-05
6.36513e-05
8.51541e-05
5.49812e-05
3.86007e-05
3.86007e-05
2.042e-05
1.06071e-05
2.92422e-05
1.06071e-05
1.25871e-05
1.42013e-05
3.0976e-05
5.55593e-05
3.71514e-05
5.55593e-05
6.41998e-05
7.35355e-05
8.46915e-05
8.49365e-05
9.73078e-05
8.75948e-05
8.51541e-05
0.000101036
8.51541e-05
8.51541e-05
7.45587e-05
8.50326e-05
5.34334e-05
6.1484e-05
2.92422e-05
3.52649e-05
1.29875e-05
1.42013e-05
3.71514e-05
6.41998e-05
6.41998e-05
6.59595e-05
8.46915e-05
8.81114e-05
9.73078e-05
0.000100575
0.000101036
9.73888e-05
8.50326e-05
6.1484e-05
3.52649e-05
3.52649e-05
1.44377e-05
1.48248e-05
1.48459e-05
1.44187e-05
6.59595e-05
3.84253e-05
6.67513e-05
3.5475e-05
6.59595e-05
6.59595e-05
8.81114e-05
8.81114e-05
0.000100575
0.000100575
0.000100575
0.000105117
0.000101076
8.88479e-05
6.5033e-05
3.79739e-05
1.48248e-05
1.44187e-05
3.5475e-05
6.24546e-05
8.45557e-05
9.72945e-05
0.000101653
9.73867e-05
8.55073e-05
6.29121e-05
3.65665e-05
1.41814e-05
1.29958e-05
2.95832e-05
5.35879e-05
7.41664e-05
8.6121e-05
8.91532e-05
8.49349e-05
7.36461e-05
5.40484e-05
3.0589e-05
1.25809e-05
1.06107e-05
2.06251e-05
3.89805e-05
5.51371e-05
6.40347e-05
6.62772e-05
6.1803e-05
5.27793e-05
3.83087e-05
2.0254e-05
1.01423e-05
7.32758e-06
9.85853e-06
1.01655e-05
2.05775e-05
1.016e-05
3.11364e-05
1.25908e-05
3.71979e-05
1.42097e-05
3.83018e-05
3.54933e-05
2.94293e-05
2.04734e-05
9.78084e-06
7.11478e-06
3.69072e-06
1.01655e-05
7.12081e-06
1.016e-05
1.01655e-05
1.01655e-05
1.25908e-05
1.42097e-05
1.42097e-05
1.48712e-05
1.44399e-05
1.30008e-05
1.06092e-05
7.32477e-06
3.68875e-06
)
;
    }
    procBoundary5to7
    {
        type            processor;
        value           nonuniform List<scalar> 
131
(
3.71101e-06
7.37806e-06
1.07068e-05
1.3121e-05
1.46077e-05
1.50259e-05
1.43659e-05
1.2721e-05
1.0245e-05
7.17502e-06
3.71074e-06
7.17651e-06
1.04295e-05
2.22721e-05
3.21265e-05
3.86401e-05
4.17193e-05
4.03174e-05
3.36578e-05
2.21155e-05
1.04223e-05
7.37923e-06
1.02519e-05
2.22714e-05
4.31526e-05
5.95123e-05
6.90429e-05
7.30584e-05
7.05287e-05
6.09269e-05
4.30905e-05
2.23288e-05
1.07115e-05
1.27309e-05
3.4e-05
6.12462e-05
8.1981e-05
9.35003e-05
9.75153e-05
9.40163e-05
8.18436e-05
5.95424e-05
3.23191e-05
1.313e-05
1.43777e-05
4.06823e-05
7.11352e-05
9.57401e-05
0.000108185
0.00011188
0.000107719
9.37473e-05
6.93552e-05
3.89342e-05
1.46179e-05
1.50381e-05
1.50381e-05
4.18931e-05
4.18931e-05
7.3138e-05
7.3138e-05
9.91152e-05
9.91152e-05
0.000110934
0.000110934
0.000115662
0.000112072
9.89671e-05
7.33636e-05
4.20358e-05
1.50328e-05
1.46647e-05
3.94896e-05
7.02441e-05
9.51444e-05
0.000108307
0.000111425
0.000111425
0.000107771
9.49873e-05
7.08056e-05
4.04944e-05
1.43691e-05
1.31618e-05
3.25096e-05
5.98766e-05
8.22335e-05
9.54384e-05
9.86581e-05
9.86581e-05
9.37697e-05
8.2039e-05
6.10074e-05
3.38565e-05
1.27233e-05
1.07312e-05
2.23999e-05
4.33084e-05
6.14313e-05
7.16083e-05
7.29435e-05
7.29435e-05
6.9318e-05
5.95345e-05
4.30659e-05
2.22209e-05
1.02477e-05
7.38948e-06
1.04868e-05
2.24112e-05
3.42943e-05
4.11238e-05
4.18329e-05
4.18329e-05
3.8905e-05
3.23171e-05
2.23218e-05
1.04438e-05
7.17598e-06
3.71586e-06
7.18765e-06
1.02747e-05
1.27647e-05
1.44212e-05
1.50368e-05
1.50368e-05
1.46164e-05
1.31267e-05
1.07075e-05
7.37841e-06
3.71073e-06
)
;
    }
}


// ************************************************************************* //
