/*--------------------------------*- C++ -*----------------------------------*\
| =========                 |                                                 |
| \\      /  F ield         | OpenFOAM: The Open Source CFD Toolbox           |
|  \\    /   O peration     | Version:  2212                                  |
|   \\  /    A nd           | Website:  www.openfoam.com                      |
|    \\/     M anipulation  |                                                 |
\*---------------------------------------------------------------------------*/
FoamFile
{
    version     2.0;
    format      ascii;
    arch        "LSB;label=32;scalar=64";
    class       volScalarField;
    location    "0.3";
    object      nut;
}
// * * * * * * * * * * * * * * * * * * * * * * * * * * * * * * * * * * * * * //

dimensions      [0 2 -1 0 0 0 0];

internalField   nonuniform List<scalar> 
690
(
4.77019e-06
4.77139e-06
4.77268e-06
4.77398e-06
4.77529e-06
4.7766e-06
4.77783e-06
4.77897e-06
4.77998e-06
4.78086e-06
4.7816e-06
1.03207e-05
1.03241e-05
1.0328e-05
1.03322e-05
1.03366e-05
1.0341e-05
1.03453e-05
1.03492e-05
1.03528e-05
1.03559e-05
1.03584e-05
1.5472e-05
1.54752e-05
1.54799e-05
1.54857e-05
1.54921e-05
1.54987e-05
1.55052e-05
1.55114e-05
1.55171e-05
1.5522e-05
1.5526e-05
1.96713e-05
1.96732e-05
1.96781e-05
1.9685e-05
1.96931e-05
1.97017e-05
1.97104e-05
1.97188e-05
1.97264e-05
1.97331e-05
1.97384e-05
2.2393e-05
2.23927e-05
2.23967e-05
2.24036e-05
2.24123e-05
2.24219e-05
2.24317e-05
2.24413e-05
2.24501e-05
2.24578e-05
2.24638e-05
1.03088e-05
1.03127e-05
1.03168e-05
1.03212e-05
1.03257e-05
1.03301e-05
1.03343e-05
1.03382e-05
1.03418e-05
1.03448e-05
1.03474e-05
5.64766e-05
5.65468e-05
5.66149e-05
5.66807e-05
5.67431e-05
5.68007e-05
5.68528e-05
5.68987e-05
5.69375e-05
5.69677e-05
5.69879e-05
9.36613e-05
9.37701e-05
9.388e-05
9.39883e-05
9.40917e-05
9.41874e-05
9.4274e-05
9.43498e-05
9.44119e-05
9.44555e-05
9.44757e-05
0.000120929
0.000121076
0.000121224
0.000121369
0.000121506
0.000121632
0.000121745
0.000121841
0.000121915
0.000121956
0.000121943
0.000138329
0.000138536
0.000138725
0.0001389
0.000139063
0.000139211
0.000139343
0.000139454
0.000139535
0.000139561
0.000139469
1.55307e-05
1.55338e-05
1.55384e-05
1.5544e-05
1.55502e-05
1.55567e-05
1.55631e-05
1.55692e-05
1.55747e-05
1.55796e-05
1.55836e-05
9.72574e-05
9.73334e-05
9.7422e-05
9.75164e-05
9.76114e-05
9.77029e-05
9.77877e-05
9.78633e-05
9.79265e-05
9.79721e-05
9.79961e-05
0.000167772
0.000167956
0.000168154
0.000168356
0.000168553
0.000168738
0.000168906
0.000169051
0.000169162
0.000169221
0.000169206
0.000214025
0.00021433
0.000214641
0.000214949
0.000215244
0.000215514
0.000215754
0.000215952
0.000216086
0.000216112
0.000215926
0.000240413
0.000240789
0.000241169
0.000241557
0.000241931
0.000242274
0.000242572
0.000242808
0.000242949
0.000242921
0.000242575
1.97236e-05
1.97246e-05
1.97287e-05
1.97349e-05
1.97423e-05
1.97504e-05
1.97587e-05
1.97666e-05
1.97741e-05
1.97806e-05
1.97859e-05
0.00012491
0.000124994
0.000125102
0.000125221
0.000125343
0.000125461
0.00012557
0.000125667
0.000125745
0.000125794
0.000125801
0.000215734
0.000216029
0.000216333
0.000216636
0.000216927
0.000217198
0.000217439
0.00021764
0.00021778
0.000217818
0.00021766
0.000274344
0.000274867
0.000275266
0.000275714
0.000276157
0.000276569
0.000276928
0.000277218
0.000277405
0.000277421
0.000277142
0.000306966
0.00030735
0.000307864
0.000308482
0.000309054
0.000309565
0.000310009
0.000310365
0.000310593
0.000310599
0.000310201
2.24425e-05
2.24405e-05
2.24429e-05
2.24485e-05
2.24562e-05
2.24651e-05
2.24744e-05
2.24836e-05
2.24921e-05
2.24997e-05
2.25057e-05
0.000140924
0.000140988
0.000141099
0.000141236
0.000141379
0.000141519
0.000141648
0.000141761
0.000141849
0.000141895
0.000141857
0.000242123
0.000242525
0.000242935
0.000243334
0.000243714
0.000244061
0.000244365
0.000244612
0.000244776
0.000244798
0.000244553
0.00030778
0.000308198
0.000308855
0.00030937
0.000309967
0.00031048
0.00031093
0.000311296
0.000311542
0.000311593
0.00031129
0.000344305
0.000344776
0.000345562
0.000346281
0.000346865
0.000347472
0.000348055
0.000348503
0.000348799
0.000348833
0.000348373
0.000355903
0.0003563
0.000357132
0.000357896
0.000358626
0.000359269
0.000359772
0.00036028
0.000360598
0.000360588
0.000359962
2.33544e-05
2.33518e-05
2.33541e-05
2.33599e-05
2.3368e-05
2.33773e-05
2.33872e-05
2.33969e-05
2.3406e-05
2.3414e-05
2.34204e-05
0.000145279
0.000145417
0.000145574
0.00014574
0.000145903
0.000146057
0.000146196
0.000146316
0.000146409
0.000146455
0.000146411
0.000249598
0.000250112
0.000250603
0.000251069
0.000251496
0.000251882
0.000252217
0.000252486
0.000252662
0.000252678
0.0002524
0.000317876
0.000318388
0.000319157
0.000319837
0.000320391
0.000320981
0.000321485
0.000321885
0.000322157
0.000322218
0.000321893
0.00035618
0.000356678
0.000357575
0.000358365
0.000359095
0.000359752
0.00036027
0.000360774
0.000361116
0.000361166
0.000360695
0.000368268
0.000368739
0.000369687
0.000370551
0.000371339
0.000372013
0.000372533
0.000373024
0.000373403
0.000373437
0.000372835
2.23926e-05
2.23917e-05
2.23952e-05
2.24016e-05
2.24099e-05
2.24193e-05
2.2429e-05
2.24385e-05
2.24473e-05
2.24551e-05
2.24613e-05
0.000138154
0.000138305
0.000138468
0.000138633
0.000138792
0.00013894
0.000139074
0.000139189
0.000139278
0.000139323
0.000139276
0.000240389
0.000240821
0.000241262
0.000241686
0.000242083
0.000242444
0.000242758
0.000243012
0.000243179
0.0002432
0.000242953
0.000306999
0.000307491
0.000308218
0.000308772
0.000309355
0.000309922
0.000310389
0.000310769
0.000311025
0.000311083
0.000310779
0.000344247
0.000344755
0.000345606
0.000346368
0.000347071
0.000347636
0.000348188
0.000348682
0.000348996
0.000349049
0.000348627
0.000355907
0.000356399
0.000357319
0.000358147
0.000358888
0.000359547
0.000360111
0.000360551
0.000360909
0.000360937
0.000360392
1.96708e-05
1.96725e-05
1.9677e-05
1.96837e-05
1.96916e-05
1.97e-05
1.97086e-05
1.97169e-05
1.97246e-05
1.97314e-05
1.97369e-05
1.97416e-05
0.000120889
0.000121031
0.000121178
0.000121322
0.000121459
0.000121587
0.000121701
0.000121801
0.000121882
0.000121936
0.000121966
0.000122081
0.000213995
0.00021434
0.000214682
0.000215013
0.000215322
0.000215603
0.000215851
0.000216056
0.000216197
0.000216233
0.000216068
0.00027432
0.000274913
0.000275364
0.000275838
0.0002763
0.000276725
0.000277095
0.000277393
0.000277584
0.000277596
0.000277278
0.000307752
0.000308216
0.000308891
0.000309416
0.000310012
0.000310532
0.000310984
0.000311351
0.000311594
0.000311632
0.000311303
0.000317857
0.000318316
0.000319035
0.000319677
0.000320218
0.000320815
0.000321302
0.000321696
0.00032195
0.000321963
0.000321535
1.54718e-05
1.54748e-05
1.54795e-05
1.54852e-05
1.54915e-05
1.5498e-05
1.55045e-05
1.55107e-05
1.55163e-05
1.55213e-05
1.55253e-05
1.55287e-05
9.36512e-05
9.37605e-05
9.38724e-05
9.39821e-05
9.40865e-05
9.4183e-05
9.42703e-05
9.43469e-05
9.44102e-05
9.44548e-05
9.44815e-05
9.45118e-05
0.000167772
0.000167973
0.000168183
0.000168392
0.000168593
0.000168781
0.000168951
0.000169095
0.000169204
0.000169253
0.000169223
0.0002158
0.000216105
0.000216414
0.00021672
0.000217011
0.00021728
0.000217518
0.000217714
0.000217845
0.000217868
0.000217693
0.000242293
0.000242663
0.000243042
0.000243421
0.000243784
0.000244118
0.000244411
0.000244646
0.000244796
0.000244796
0.000244518
0.000249806
0.000250294
0.000250676
0.000251081
0.000251478
0.000251845
0.000252163
0.000252415
0.000252564
0.000252533
0.000252173
1.03206e-05
1.0324e-05
1.03278e-05
1.0332e-05
1.03364e-05
1.03408e-05
1.0345e-05
1.0349e-05
1.03525e-05
1.03556e-05
1.03582e-05
1.03602e-05
5.64727e-05
5.65438e-05
5.66131e-05
5.66799e-05
5.67429e-05
5.68011e-05
5.68536e-05
5.68997e-05
5.69384e-05
5.69671e-05
5.69938e-05
5.71648e-05
9.72551e-05
9.73361e-05
9.74305e-05
9.75284e-05
9.76253e-05
9.77179e-05
9.78032e-05
9.78786e-05
9.79383e-05
9.797e-05
9.79307e-05
0.000124911
0.000125009
0.000125126
0.000125249
0.000125372
0.000125489
0.000125597
0.00012569
0.000125762
0.000125798
0.000125773
0.000140861
0.000140985
0.000141125
0.000141272
0.000141417
0.000141555
0.00014168
0.000141788
0.000141869
0.000141904
0.000141851
0.000145348
0.000145496
0.000145657
0.000145822
0.000145981
0.000146131
0.000146266
0.00014638
0.000146462
0.000146491
0.000146423
4.77018e-06
4.77137e-06
4.77265e-06
4.77394e-06
4.77525e-06
4.77655e-06
4.77778e-06
4.77891e-06
4.77992e-06
4.78081e-06
4.78153e-06
4.7822e-06
1.03088e-05
1.03126e-05
1.03167e-05
1.03211e-05
1.03257e-05
1.03301e-05
1.03344e-05
1.03383e-05
1.03418e-05
1.03449e-05
1.03474e-05
1.03496e-05
1.55305e-05
1.55336e-05
1.55383e-05
1.5544e-05
1.55503e-05
1.55568e-05
1.55633e-05
1.55694e-05
1.5575e-05
1.55798e-05
1.55833e-05
1.9723e-05
1.97241e-05
1.97283e-05
1.97346e-05
1.97422e-05
1.97504e-05
1.97588e-05
1.97669e-05
1.97743e-05
1.97807e-05
1.97858e-05
2.24404e-05
2.24388e-05
2.24418e-05
2.24478e-05
2.24559e-05
2.24651e-05
2.24746e-05
2.24839e-05
2.24925e-05
2.25e-05
2.25058e-05
2.33536e-05
2.33511e-05
2.33538e-05
2.33599e-05
2.33683e-05
2.33779e-05
2.3388e-05
2.33979e-05
2.3407e-05
2.3415e-05
2.34211e-05
)
;

boundaryField
{
    inlet
    {
        type            calculated;
        value           nonuniform List<scalar> 0();
    }
    ami1
    {
        type            cyclicAMI;
        value           nonuniform List<scalar> 0();
    }
    walls
    {
        type            nutkWallFunction;
        blending        stepwise;
        value           uniform 0;
    }
    ami2
    {
        type            cyclicAMI;
        value           nonuniform List<scalar> 0();
    }
    outlet
    {
        type            calculated;
        value           nonuniform List<scalar> 0();
    }
    procBoundary8to0
    {
        type            processor;
        value           nonuniform List<scalar> 
29
(
4.7692e-06
1.03179e-05
1.5471e-05
1.96736e-05
2.23993e-05
1.03052e-05
5.64027e-05
9.35576e-05
0.000120821
0.000138164
1.55295e-05
9.72002e-05
0.000167673
0.000213939
0.000240444
1.97265e-05
0.000124895
0.000215684
0.000274339
0.000307102
2.24506e-05
0.000141048
0.000242101
0.000307738
0.000344308
0.000356161
0.000317721
0.000356066
0.000368356
)
;
    }
    procBoundary8to1
    {
        type            processor;
        value           nonuniform List<scalar> 
33
(
2.33634e-05
0.000145277
0.000249536
2.23993e-05
0.000138098
0.000240327
0.000306874
0.000344131
0.000355978
1.96732e-05
0.000120792
0.0002139
0.000274303
0.000307748
0.00031799
1.54709e-05
9.35498e-05
0.000167675
0.000215748
0.000242294
0.000249898
1.03179e-05
5.63997e-05
9.71968e-05
0.000124888
0.000140863
0.000145335
4.76922e-06
1.03052e-05
1.55294e-05
1.9726e-05
2.24478e-05
2.33628e-05
)
;
    }
    procBoundary8to7
    {
        type            processor;
        value           nonuniform List<scalar> 
68
(
4.78222e-06
1.03605e-05
1.55292e-05
1.97426e-05
2.24682e-05
1.03495e-05
5.69986e-05
9.44763e-05
0.000121913
0.000139309
1.55869e-05
9.8002e-05
0.000169161
0.000215823
0.000242423
1.97902e-05
0.000125795
0.000217574
0.000276949
0.000309935
2.25107e-05
0.000141834
0.000244418
0.000311015
0.000348007
0.000359647
2.34257e-05
0.000146377
0.000252245
0.000321606
0.00036032
0.000372431
2.24662e-05
2.24662e-05
0.000139157
0.000139157
0.0002428
0.000310499
0.00034827
0.000360001
1.97453e-05
0.000121977
0.000215963
0.000215963
0.000277083
0.000311003
0.000321201
1.55315e-05
9.45096e-05
0.000169122
0.000169122
0.00021757
0.000244353
0.000251988
1.03626e-05
5.70587e-05
9.7611e-05
9.7611e-05
0.000125712
0.000141807
0.000146363
4.78251e-06
1.03511e-05
1.55852e-05
1.55852e-05
1.97898e-05
2.25103e-05
2.34262e-05
)
;
    }
    procBoundary8to9
    {
        type            processor;
        value           nonuniform List<scalar> 
132
(
2.33534e-05
2.33508e-05
2.33533e-05
2.33594e-05
2.33676e-05
2.33771e-05
2.3387e-05
2.33968e-05
2.34059e-05
2.34138e-05
2.34199e-05
0.000145325
0.000145452
0.000145599
0.000145757
0.000145913
0.000146062
0.000146198
0.000146313
0.000146399
0.00014643
0.000146351
0.000249789
0.000250192
0.000250514
0.000250894
0.000251279
0.000251639
0.000251955
0.000252205
0.000252355
0.000252322
0.000251937
0.000317759
0.000318095
0.000318732
0.000319254
0.000319913
0.000320471
0.000320938
0.00032132
0.00032156
0.000321546
0.000321051
0.000317759
0.000318095
0.000318732
0.000319254
0.000319913
0.000320471
0.000320938
0.00032132
0.00032156
0.000321546
0.000321051
0.000344189
0.000344554
0.000345323
0.000346042
0.000346719
0.000347262
0.000347822
0.000348289
0.000348587
0.000348603
0.000348066
0.000355921
0.000356331
0.000357218
0.000358025
0.000358765
0.000359423
0.000359927
0.000360409
0.000360778
0.000360813
0.000360238
0.000343963
0.000344383
0.000345241
0.000346013
0.000346729
0.000347362
0.000347863
0.000348349
0.000348679
0.000348704
0.000348172
0.0003069
0.000307284
0.000307962
0.000308495
0.000309112
0.000309661
0.00031013
0.000310508
0.000310752
0.000310764
0.000310335
0.000240416
0.00024082
0.000241234
0.000241647
0.00024204
0.000242397
0.000242705
0.000242949
0.000243095
0.000243068
0.000242713
0.000138336
0.000138556
0.000138757
0.000138941
0.000139109
0.000139261
0.000139395
0.000139507
0.000139587
0.000139612
0.000139526
2.23933e-05
2.23929e-05
2.23968e-05
2.24038e-05
2.24126e-05
2.24224e-05
2.24324e-05
2.24421e-05
2.24511e-05
2.24588e-05
2.24648e-05
)
;
    }
}


// ************************************************************************* //
