/*--------------------------------*- C++ -*----------------------------------*\
| =========                 |                                                 |
| \\      /  F ield         | OpenFOAM: The Open Source CFD Toolbox           |
|  \\    /   O peration     | Version:  2212                                  |
|   \\  /    A nd           | Website:  www.openfoam.com                      |
|    \\/     M anipulation  |                                                 |
\*---------------------------------------------------------------------------*/
FoamFile
{
    version     2.0;
    format      ascii;
    arch        "LSB;label=32;scalar=64";
    class       volScalarField;
    location    "2.85";
    object      nut;
}
// * * * * * * * * * * * * * * * * * * * * * * * * * * * * * * * * * * * * * //

dimensions      [0 2 -1 0 0 0 0];

internalField   nonuniform List<scalar> 
6840
(
4.5356e-05
2.3208e-05
1.65396e-05
1.36493e-05
1.18966e-05
1.06844e-05
9.76072e-06
9.05705e-06
8.49463e-06
8.03119e-06
7.64034e-06
7.31189e-06
7.02417e-06
6.7598e-06
6.52764e-06
6.3257e-06
6.14936e-06
5.99453e-06
5.87497e-06
5.72177e-06
0.000107685
6.77183e-05
5.06311e-05
4.14159e-05
3.54048e-05
3.10366e-05
2.77136e-05
2.50815e-05
2.29333e-05
2.11504e-05
1.96504e-05
1.8371e-05
1.72629e-05
1.62938e-05
1.54507e-05
1.47241e-05
1.40928e-05
1.35457e-05
1.30894e-05
1.2731e-05
0.000160509
0.00010736
8.07409e-05
6.55976e-05
5.54896e-05
4.83026e-05
4.31311e-05
3.90792e-05
3.57394e-05
3.29502e-05
3.05789e-05
2.85365e-05
2.67765e-05
2.52503e-05
2.39154e-05
2.27407e-05
2.17065e-05
2.07961e-05
2.00004e-05
1.93264e-05
0.000198681
0.0001383
0.000105187
8.55269e-05
7.25013e-05
6.28902e-05
5.60612e-05
5.07595e-05
4.63884e-05
4.27223e-05
3.96262e-05
3.69568e-05
3.46356e-05
3.26067e-05
3.08245e-05
2.92516e-05
2.78582e-05
2.66198e-05
2.55184e-05
2.45554e-05
0.000218609
0.000155003
0.000118661
9.65069e-05
8.18824e-05
7.08356e-05
6.30857e-05
5.71437e-05
5.22487e-05
4.80967e-05
4.45834e-05
4.15733e-05
3.89544e-05
3.6662e-05
3.4644e-05
3.28587e-05
3.12718e-05
2.98561e-05
2.85999e-05
2.76006e-05
0.000218609
0.000155003
0.000118661
9.65069e-05
8.18823e-05
7.08355e-05
6.30855e-05
5.71433e-05
5.22482e-05
4.8096e-05
4.45822e-05
4.15714e-05
3.89515e-05
3.66572e-05
3.46365e-05
3.28474e-05
3.12547e-05
2.9831e-05
2.85659e-05
2.7574e-05
0.000198681
0.0001383
0.000105187
8.55269e-05
7.25012e-05
6.289e-05
5.60609e-05
5.07589e-05
4.63874e-05
4.27209e-05
3.96237e-05
3.6953e-05
3.46295e-05
3.25968e-05
3.08089e-05
2.92273e-05
2.78202e-05
2.65614e-05
2.54394e-05
2.45779e-05
0.000160509
0.00010736
8.07408e-05
6.55975e-05
5.54895e-05
4.83024e-05
4.31308e-05
3.90788e-05
3.57387e-05
3.29487e-05
3.05767e-05
2.85331e-05
2.67713e-05
2.52418e-05
2.39012e-05
2.27176e-05
2.16686e-05
2.07329e-05
1.98958e-05
1.91653e-05
0.000107685
6.77183e-05
5.06311e-05
4.14159e-05
3.54048e-05
3.10366e-05
2.77136e-05
2.50815e-05
2.29332e-05
2.11502e-05
1.96498e-05
1.83701e-05
1.72612e-05
1.62898e-05
1.54441e-05
1.47126e-05
1.40713e-05
1.35032e-05
1.30049e-05
1.25685e-05
4.5356e-05
2.3208e-05
1.65396e-05
1.36493e-05
1.18966e-05
1.06844e-05
9.76072e-06
9.05706e-06
8.49463e-06
8.0312e-06
7.64033e-06
7.31193e-06
7.02415e-06
6.75987e-06
6.52764e-06
6.32572e-06
6.14941e-06
5.99462e-06
5.87515e-06
5.72208e-06
0.000107685
6.77183e-05
5.06311e-05
4.14159e-05
3.54048e-05
3.10366e-05
2.77136e-05
2.50815e-05
2.29332e-05
2.11501e-05
1.96498e-05
1.83701e-05
1.72611e-05
1.62897e-05
1.5444e-05
1.47125e-05
1.40711e-05
1.35029e-05
1.30044e-05
1.25678e-05
0.000528907
0.000369984
0.000305097
0.00026137
0.000228527
0.000202474
0.000181112
0.00016307
0.000147534
0.000133976
0.000122037
0.000111448
0.000102108
9.38214e-05
8.6406e-05
7.95786e-05
7.3335e-05
6.77331e-05
6.33602e-05
5.54497e-05
0.000663952
0.000488458
0.000404619
0.000347248
0.000305036
0.000272128
0.000245319
0.00022289
0.000203757
0.000187182
0.000172659
0.000159822
0.000148387
0.000138143
0.000128934
0.000120726
0.000113353
0.000106657
0.000101016
9.47983e-05
0.00071288
0.000556432
0.000466397
0.000402355
0.000354426
0.000317051
0.000286676
0.000261259
0.000239586
0.000220853
0.000204455
0.000189969
0.000177076
0.00016552
0.000155112
0.000145682
0.000137127
0.000129336
0.00012222
0.000115987
0.000728543
0.000588231
0.000496002
0.000429132
0.00037851
0.000338935
0.000306819
0.000279975
0.000257075
0.00023726
0.000219915
0.000204585
0.000190928
0.000178674
0.000167619
0.000157594
0.000148459
0.000140093
0.000132372
0.000125162
0.000728543
0.000588231
0.000496002
0.000429132
0.000378509
0.000338934
0.000306817
0.000279971
0.00025707
0.000237251
0.000219902
0.000204564
0.000190893
0.000178616
0.000167519
0.000157451
0.000148247
0.000139774
0.000131898
0.000124487
0.00071288
0.000556432
0.000466396
0.000402354
0.000354425
0.000317049
0.000286672
0.000261251
0.000239575
0.000220836
0.000204428
0.000189924
0.000177003
0.000165393
0.000154911
0.000145382
0.00013666
0.000128603
0.000121078
0.000113722
0.000663952
0.000488458
0.000404618
0.000347247
0.000305035
0.000272126
0.000245316
0.000222884
0.000203749
0.000187169
0.000172638
0.000159789
0.000148334
0.000138051
0.00012878
0.000120493
0.000112977
0.000106036
9.99846e-05
9.24333e-05
0.000528907
0.000369984
0.000305097
0.000261371
0.000228527
0.000202474
0.000181112
0.000163071
0.000147534
0.000133976
0.000122038
0.000111449
0.00010211
9.38259e-05
8.64042e-05
7.95794e-05
7.33385e-05
6.77376e-05
6.33691e-05
5.54607e-05
0.000107685
6.77183e-05
5.06311e-05
4.14159e-05
3.54048e-05
3.10366e-05
2.77136e-05
2.50815e-05
2.29333e-05
2.11505e-05
1.96504e-05
1.83711e-05
1.72629e-05
1.6294e-05
1.54507e-05
1.47241e-05
1.40928e-05
1.35458e-05
1.30895e-05
1.27312e-05
0.000160509
0.00010736
8.07408e-05
6.55975e-05
5.54895e-05
4.83024e-05
4.31308e-05
3.90787e-05
3.57387e-05
3.29487e-05
3.05767e-05
2.85331e-05
2.67712e-05
2.52418e-05
2.39011e-05
2.27175e-05
2.16685e-05
2.07326e-05
1.98955e-05
1.91647e-05
0.000663952
0.000488458
0.000404618
0.000347247
0.000305035
0.000272126
0.000245316
0.000222884
0.000203749
0.000187168
0.000172637
0.000159788
0.000148332
0.000138055
0.000128775
0.000120489
0.000112971
0.000106026
9.9975e-05
9.24269e-05
0.000786827
0.000662293
0.000567974
0.000495805
0.000439463
0.000394561
0.000357973
0.00032745
0.000301487
0.000279045
0.00025939
0.000241992
0.000226457
0.000212491
0.000199862
0.00018839
0.000177929
0.000168333
0.000159509
0.000150652
0.000809324
0.000713906
0.000631505
0.000562574
0.000505377
0.000457786
0.000417842
0.000383941
0.000354806
0.000329453
0.000307161
0.000287386
0.000269712
0.000253814
0.000239438
0.000226367
0.000214438
0.000203484
0.000193291
0.000183209
0.000814958
0.000730426
0.000654634
0.000589044
0.000533068
0.000485439
0.000444764
0.000409795
0.000379473
0.000352936
0.000329498
0.000308639
0.000289954
0.00027312
0.000257879
0.000244013
0.00023134
0.000219672
0.000208746
0.00019795
0.000814958
0.000730426
0.000654634
0.000589044
0.000533067
0.000485438
0.000444763
0.000409792
0.000379469
0.00035293
0.000329489
0.000308626
0.000289934
0.000273088
0.000257827
0.000243941
0.000231233
0.000219507
0.000208428
0.000196918
0.000809324
0.000713905
0.000631504
0.000562573
0.000505377
0.000457785
0.000417839
0.000383937
0.0003548
0.000329443
0.000307146
0.000287364
0.000269679
0.000253758
0.000239351
0.000226242
0.000214251
0.000203193
0.00019275
0.000181535
0.000786827
0.000662293
0.000567974
0.000495805
0.000439463
0.000394561
0.000357973
0.00032745
0.000301487
0.000279046
0.000259391
0.000241993
0.00022646
0.000212494
0.00019986
0.000188392
0.000177933
0.000168341
0.000159522
0.000150664
0.000663952
0.000488458
0.000404619
0.000347248
0.000305036
0.000272128
0.000245319
0.000222891
0.000203758
0.000187182
0.000172659
0.000159823
0.000148389
0.000138152
0.000128927
0.000120724
0.000113353
0.000106659
0.00010102
9.4803e-05
0.000160509
0.00010736
8.07409e-05
6.55976e-05
5.54896e-05
4.83026e-05
4.31311e-05
3.90792e-05
3.57394e-05
3.29502e-05
3.05789e-05
2.85365e-05
2.67766e-05
2.52504e-05
2.39153e-05
2.27407e-05
2.17064e-05
2.0796e-05
2.00004e-05
1.93264e-05
0.000198681
0.0001383
0.000105187
8.55269e-05
7.25012e-05
6.289e-05
5.60609e-05
5.07589e-05
4.63874e-05
4.27209e-05
3.96237e-05
3.6953e-05
3.46295e-05
3.2597e-05
3.08087e-05
2.92272e-05
2.782e-05
2.65611e-05
2.54391e-05
2.45776e-05
0.00071288
0.000556432
0.000466396
0.000402354
0.000354425
0.000317049
0.000286672
0.000261251
0.000239575
0.000220835
0.000204427
0.000189924
0.000177003
0.000165403
0.000154902
0.000145376
0.000136655
0.000128597
0.00012107
0.000113712
0.000809324
0.000713905
0.000631504
0.000562573
0.000505377
0.000457785
0.000417839
0.000383937
0.0003548
0.000329443
0.000307146
0.000287364
0.000269678
0.00025376
0.000239348
0.00022624
0.000214248
0.000203189
0.000192745
0.000181523
0.000823497
0.000753987
0.000688491
0.000628748
0.000575387
0.000528266
0.000486845
0.000450441
0.000418361
0.000389972
0.000364724
0.000342157
0.000321887
0.000303595
0.000287015
0.00027192
0.000258111
0.000245376
0.000233376
0.000221241
0.000826292
0.000764347
0.000706102
0.000651937
0.00060223
0.000557104
0.000516428
0.000479912
0.000447181
0.000417833
0.000391477
0.000367752
0.000346335
0.000326944
0.00030933
0.000293272
0.000278566
0.000264982
0.000252158
0.000239403
0.000826292
0.000764347
0.000706102
0.000651936
0.00060223
0.000557103
0.000516428
0.000479912
0.00044718
0.000417831
0.000391474
0.000367748
0.000346329
0.000326935
0.000309316
0.000293253
0.000278537
0.000264931
0.000252029
0.000238846
0.000823497
0.000753987
0.000688491
0.000628748
0.000575387
0.000528266
0.000486845
0.000450441
0.000418361
0.000389972
0.000364724
0.000342158
0.000321888
0.000303595
0.000287014
0.00027192
0.000258112
0.000245378
0.000233379
0.000221242
0.000809324
0.000713906
0.000631505
0.000562574
0.000505378
0.000457786
0.000417842
0.000383941
0.000354806
0.000329453
0.000307161
0.000287387
0.000269714
0.000253817
0.000239435
0.000226367
0.00021444
0.000203488
0.000193296
0.000183214
0.00071288
0.000556432
0.000466397
0.000402355
0.000354426
0.000317051
0.000286677
0.000261259
0.000239587
0.000220853
0.000204456
0.000189969
0.000177076
0.000165529
0.000155105
0.00014568
0.000137127
0.000129336
0.000122219
0.000115981
0.000198681
0.0001383
0.000105187
8.55269e-05
7.25013e-05
6.28902e-05
5.60613e-05
5.07595e-05
4.63884e-05
4.27224e-05
3.96262e-05
3.69569e-05
3.46357e-05
3.26068e-05
3.08245e-05
2.92516e-05
2.78582e-05
2.66198e-05
2.55184e-05
2.45554e-05
0.000218609
0.000155003
0.000118661
9.65069e-05
8.18823e-05
7.08355e-05
6.30855e-05
5.71433e-05
5.22482e-05
4.8096e-05
4.45822e-05
4.15714e-05
3.89515e-05
3.66573e-05
3.46365e-05
3.28474e-05
3.12547e-05
2.9831e-05
2.85659e-05
2.75738e-05
0.000728543
0.000588231
0.000496002
0.000429132
0.000378509
0.000338934
0.000306817
0.000279971
0.00025707
0.000237251
0.000219902
0.000204564
0.000190893
0.000178619
0.000167517
0.00015745
0.000148247
0.000139775
0.000131899
0.00012449
0.000814958
0.000730426
0.000654634
0.000589044
0.000533067
0.000485438
0.000444763
0.000409792
0.000379469
0.00035293
0.000329489
0.000308626
0.000289934
0.000273089
0.000257826
0.00024394
0.000231233
0.000219507
0.00020843
0.000196916
0.000826292
0.000764347
0.000706102
0.000651936
0.00060223
0.000557103
0.000516428
0.000479911
0.00044718
0.000417831
0.000391474
0.000367748
0.000346329
0.000326935
0.000309316
0.000293252
0.000278537
0.000264931
0.000252028
0.000238841
0.000828382
0.0007726
0.000721138
0.00067296
0.000627782
0.00058562
0.000546547
0.000510579
0.000477648
0.000447614
0.000420287
0.000395445
0.000372863
0.000352316
0.000333589
0.000316477
0.000300773
0.000286216
0.00027233
0.000257932
0.000828382
0.0007726
0.000721138
0.00067296
0.000627782
0.00058562
0.000546547
0.000510579
0.000477648
0.000447614
0.000420287
0.000395445
0.000372863
0.000352316
0.000333589
0.000316477
0.000300774
0.000286217
0.000272332
0.00025793
0.000826292
0.000764347
0.000706102
0.000651937
0.00060223
0.000557104
0.000516428
0.000479912
0.000447181
0.000417833
0.000391477
0.000367752
0.000346335
0.000326944
0.000309329
0.000293272
0.000278566
0.000264982
0.000252159
0.000239384
0.000814958
0.000730426
0.000654634
0.000589044
0.000533068
0.000485439
0.000444764
0.000409795
0.000379473
0.000352936
0.000329498
0.000308639
0.000289954
0.000273121
0.000257879
0.000244014
0.00023134
0.000219672
0.000208743
0.000197935
0.000728543
0.000588231
0.000496002
0.000429132
0.00037851
0.000338935
0.00030682
0.000279975
0.000257076
0.00023726
0.000219915
0.000204585
0.000190926
0.000178676
0.000167621
0.000157596
0.000148461
0.000140094
0.000132369
0.000125141
0.000218609
0.000155003
0.000118661
9.65069e-05
8.18824e-05
7.08356e-05
6.30857e-05
5.71437e-05
5.22487e-05
4.80968e-05
4.45834e-05
4.15733e-05
3.89543e-05
3.66619e-05
3.46442e-05
3.28589e-05
3.1272e-05
2.98563e-05
2.86e-05
2.75993e-05
0.000218609
0.000155003
0.000118661
9.65069e-05
8.18824e-05
7.08356e-05
6.30857e-05
5.71437e-05
5.22487e-05
4.80967e-05
4.45834e-05
4.15733e-05
3.89544e-05
3.6662e-05
3.4644e-05
3.28588e-05
3.12719e-05
2.98562e-05
2.86002e-05
2.76011e-05
0.000728543
0.000588231
0.000496002
0.000429132
0.00037851
0.000338935
0.00030682
0.000279975
0.000257075
0.00023726
0.000219915
0.000204586
0.000190929
0.000178676
0.000167619
0.000157595
0.000148463
0.000140099
0.000132381
0.000125175
0.000814958
0.000730426
0.000654634
0.000589044
0.000533068
0.000485439
0.000444764
0.000409795
0.000379473
0.000352936
0.000329498
0.000308639
0.000289955
0.000273121
0.000257878
0.000244014
0.000231341
0.000219676
0.00020875
0.000197951
0.000826292
0.000764347
0.000706102
0.000651937
0.00060223
0.000557104
0.000516428
0.000479912
0.000447181
0.000417833
0.000391477
0.000367752
0.000346335
0.000326944
0.00030933
0.000293272
0.000278567
0.000264982
0.000252159
0.000239403
0.000828382
0.0007726
0.000721138
0.00067296
0.000627782
0.00058562
0.000546547
0.000510579
0.000477648
0.000447614
0.000420287
0.000395445
0.000372863
0.000352316
0.000333589
0.000316477
0.000300774
0.000286217
0.000272331
0.000257927
0.000828382
0.0007726
0.000721138
0.00067296
0.000627782
0.00058562
0.000546547
0.000510579
0.000477648
0.000447615
0.000420287
0.000395445
0.000372863
0.000352316
0.000333589
0.000316477
0.000300774
0.000286217
0.000272332
0.000257927
0.000826292
0.000764347
0.000706102
0.000651936
0.00060223
0.000557103
0.000516428
0.000479912
0.00044718
0.000417832
0.000391474
0.000367748
0.000346329
0.000326935
0.000309316
0.000293253
0.000278537
0.00026493
0.000252027
0.000238825
0.000814958
0.000730426
0.000654634
0.000589044
0.000533067
0.000485438
0.000444763
0.000409792
0.000379469
0.00035293
0.000329489
0.000308625
0.000289932
0.000273086
0.00025783
0.000243942
0.000231232
0.000219504
0.000208421
0.000196899
0.000728543
0.000588231
0.000496002
0.000429132
0.000378509
0.000338934
0.000306817
0.000279971
0.00025707
0.000237251
0.000219902
0.000204563
0.00019089
0.000178611
0.000167528
0.000157456
0.00014825
0.000139775
0.000131896
0.000124481
0.000218609
0.000155003
0.000118661
9.65069e-05
8.18823e-05
7.08355e-05
6.30855e-05
5.71434e-05
5.22482e-05
4.8096e-05
4.45822e-05
4.15714e-05
3.89514e-05
3.66571e-05
3.46368e-05
3.28477e-05
3.1255e-05
2.98312e-05
2.85661e-05
2.7574e-05
0.000198681
0.0001383
0.000105187
8.55269e-05
7.25013e-05
6.28902e-05
5.60612e-05
5.07595e-05
4.63884e-05
4.27223e-05
3.96262e-05
3.69568e-05
3.46357e-05
3.26068e-05
3.08245e-05
2.92517e-05
2.78583e-05
2.662e-05
2.55186e-05
2.45552e-05
0.00071288
0.000556432
0.000466397
0.000402355
0.000354426
0.000317051
0.000286676
0.000261259
0.000239586
0.000220853
0.000204456
0.00018997
0.000177077
0.000165521
0.000155113
0.000145684
0.000137131
0.000129343
0.000122229
0.000115997
0.000809324
0.000713906
0.000631505
0.000562574
0.000505377
0.000457786
0.000417842
0.000383941
0.000354806
0.000329453
0.000307161
0.000287387
0.000269713
0.000253815
0.000239439
0.000226369
0.000214441
0.000203489
0.000193296
0.000183217
0.000823497
0.000753987
0.000688491
0.000628748
0.000575387
0.000528266
0.000486845
0.000450441
0.000418361
0.000389972
0.000364724
0.000342157
0.000321887
0.000303595
0.000287016
0.000271921
0.000258113
0.000245377
0.000233378
0.000221249
0.000826292
0.000764347
0.000706102
0.000651936
0.00060223
0.000557103
0.000516428
0.000479912
0.00044718
0.000417831
0.000391474
0.000367748
0.000346329
0.000326935
0.000309316
0.000293253
0.000278537
0.000264931
0.000252031
0.000238837
0.000826292
0.000764347
0.000706102
0.000651937
0.00060223
0.000557104
0.000516428
0.000479912
0.000447181
0.000417833
0.000391477
0.000367752
0.000346335
0.000326944
0.00030933
0.000293272
0.000278566
0.000264982
0.000252159
0.0002394
0.000823497
0.000753987
0.000688491
0.000628748
0.000575387
0.000528266
0.000486845
0.000450441
0.000418361
0.000389972
0.000364724
0.000342158
0.000321888
0.000303596
0.000287014
0.00027192
0.000258112
0.000245376
0.000233376
0.00022124
0.000809324
0.000713905
0.000631504
0.000562573
0.000505377
0.000457785
0.000417839
0.000383937
0.0003548
0.000329443
0.000307146
0.000287364
0.000269678
0.000253759
0.000239351
0.000226241
0.000214248
0.000203189
0.000192745
0.000181532
0.00071288
0.000556432
0.000466397
0.000402354
0.000354425
0.000317049
0.000286672
0.000261251
0.000239576
0.000220836
0.000204428
0.000189924
0.000177003
0.000165394
0.000154913
0.000145383
0.000136661
0.000128604
0.000121079
0.000113733
0.000198681
0.0001383
0.000105187
8.55269e-05
7.25012e-05
6.289e-05
5.60609e-05
5.07589e-05
4.63875e-05
4.27209e-05
3.96237e-05
3.6953e-05
3.46295e-05
3.25969e-05
3.0809e-05
2.92275e-05
2.78204e-05
2.65615e-05
2.54396e-05
2.45786e-05
0.000160509
0.00010736
8.07409e-05
6.55976e-05
5.54896e-05
4.83026e-05
4.31311e-05
3.90792e-05
3.57394e-05
3.29502e-05
3.05789e-05
2.85365e-05
2.67765e-05
2.52503e-05
2.39154e-05
2.27408e-05
2.17066e-05
2.07962e-05
2.00006e-05
1.93267e-05
0.000663952
0.000488458
0.000404619
0.000347248
0.000305036
0.000272128
0.000245319
0.00022289
0.000203757
0.000187182
0.000172659
0.000159822
0.000148387
0.000138143
0.000128936
0.000120729
0.000113356
0.000106662
0.000101017
9.48052e-05
0.000786827
0.000662293
0.000567974
0.000495805
0.000439463
0.000394561
0.000357973
0.00032745
0.000301487
0.000279045
0.000259391
0.000241992
0.000226457
0.000212491
0.000199864
0.000188393
0.000177931
0.000168336
0.000159514
0.000150666
0.000809324
0.000713905
0.000631504
0.000562573
0.000505377
0.000457785
0.000417839
0.000383937
0.0003548
0.000329443
0.000307146
0.000287364
0.000269677
0.00025376
0.00023935
0.000226241
0.000214248
0.000203188
0.000192746
0.00018153
0.000814958
0.000730426
0.000654634
0.000589044
0.000533067
0.000485438
0.000444763
0.000409792
0.000379469
0.00035293
0.000329489
0.000308625
0.000289933
0.000273088
0.000257826
0.00024394
0.000231231
0.000219503
0.000208423
0.00019691
0.000814958
0.000730426
0.000654634
0.000589044
0.000533068
0.000485439
0.000444764
0.000409795
0.000379473
0.000352936
0.000329498
0.000308639
0.000289955
0.000273121
0.000257877
0.000244013
0.000231339
0.000219672
0.000208744
0.000197949
0.000809324
0.000713906
0.000631505
0.000562574
0.000505377
0.000457786
0.000417842
0.000383941
0.000354806
0.000329453
0.000307161
0.000287387
0.000269714
0.000253817
0.000239434
0.000226367
0.00021444
0.000203488
0.000193296
0.000183219
0.000786827
0.000662293
0.000567974
0.000495805
0.000439463
0.000394561
0.000357973
0.00032745
0.000301487
0.000279046
0.000259391
0.000241993
0.00022646
0.000212494
0.00019986
0.000188391
0.000177931
0.000168338
0.000159518
0.000150674
0.000663952
0.000488458
0.000404618
0.000347247
0.000305035
0.000272126
0.000245316
0.000222885
0.000203749
0.000187169
0.000172638
0.000159789
0.000148334
0.000138051
0.00012878
0.000120493
0.000112977
0.000106035
9.99781e-05
9.25052e-05
0.000160509
0.00010736
8.07408e-05
6.55975e-05
5.54895e-05
4.83024e-05
4.31308e-05
3.90788e-05
3.57387e-05
3.29487e-05
3.05767e-05
2.85331e-05
2.67713e-05
2.52418e-05
2.39012e-05
2.27177e-05
2.16687e-05
2.07329e-05
1.98958e-05
1.91655e-05
0.000107685
6.77183e-05
5.06311e-05
4.14159e-05
3.54048e-05
3.10366e-05
2.77136e-05
2.50815e-05
2.29333e-05
2.11504e-05
1.96504e-05
1.8371e-05
1.72629e-05
1.62938e-05
1.54507e-05
1.47241e-05
1.40929e-05
1.35458e-05
1.30896e-05
1.27311e-05
0.000528907
0.000369984
0.000305097
0.00026137
0.000228527
0.000202474
0.000181112
0.000163071
0.000147534
0.000133976
0.000122037
0.000111448
0.000102107
9.38206e-05
8.64066e-05
7.95788e-05
7.33349e-05
6.77329e-05
6.33586e-05
5.54518e-05
0.000663952
0.000488458
0.000404618
0.000347247
0.000305035
0.000272126
0.000245316
0.000222884
0.000203749
0.000187168
0.000172637
0.000159787
0.000148331
0.000138054
0.000128775
0.000120489
0.00011297
0.000106025
9.99747e-05
9.24257e-05
0.00071288
0.000556432
0.000466396
0.000402354
0.000354425
0.000317049
0.000286672
0.000261251
0.000239575
0.000220835
0.000204427
0.000189923
0.000177003
0.000165403
0.000154901
0.000145376
0.000136654
0.000128596
0.00012107
0.000113711
0.000728543
0.000588231
0.000496002
0.000429132
0.000378509
0.000338934
0.000306818
0.000279971
0.00025707
0.000237251
0.000219902
0.000204564
0.000190893
0.000178619
0.000167516
0.00015745
0.000148246
0.000139773
0.000131895
0.000124485
0.000728543
0.000588231
0.000496002
0.000429132
0.00037851
0.000338935
0.00030682
0.000279975
0.000257075
0.00023726
0.000219915
0.000204586
0.000190929
0.000178677
0.000167617
0.000157594
0.000148462
0.000140098
0.000132378
0.000125173
0.00071288
0.000556432
0.000466397
0.000402355
0.000354426
0.000317051
0.000286677
0.000261258
0.000239586
0.000220853
0.000204456
0.00018997
0.000177077
0.000165528
0.000155106
0.000145681
0.000137129
0.000129341
0.000122227
0.000115996
0.000663952
0.000488458
0.000404619
0.000347248
0.000305036
0.000272128
0.000245319
0.00022289
0.000203757
0.000187182
0.000172659
0.000159822
0.000148388
0.000138153
0.000128927
0.000120724
0.000113353
0.00010666
0.000101015
9.48156e-05
0.000528907
0.000369984
0.000305097
0.000261371
0.000228527
0.000202474
0.000181112
0.00016307
0.000147534
0.000133976
0.000122038
0.000111449
0.000102109
9.38258e-05
8.64035e-05
7.9578e-05
7.3336e-05
6.77349e-05
6.33614e-05
5.54708e-05
0.000107685
6.77183e-05
5.06311e-05
4.14159e-05
3.54048e-05
3.10366e-05
2.77136e-05
2.50815e-05
2.29332e-05
2.11502e-05
1.96498e-05
1.83701e-05
1.72612e-05
1.62898e-05
1.54441e-05
1.47126e-05
1.40712e-05
1.35031e-05
1.30047e-05
1.25682e-05
4.5356e-05
2.3208e-05
1.65396e-05
1.36493e-05
1.18966e-05
1.06844e-05
9.76072e-06
9.05705e-06
8.49463e-06
8.03119e-06
7.64034e-06
7.31189e-06
7.02417e-06
6.7598e-06
6.52764e-06
6.32571e-06
6.14937e-06
5.99457e-06
5.87503e-06
5.72191e-06
0.000107685
6.77183e-05
5.06311e-05
4.14159e-05
3.54048e-05
3.10366e-05
2.77136e-05
2.50815e-05
2.29332e-05
2.11501e-05
1.96498e-05
1.83701e-05
1.72611e-05
1.62897e-05
1.5444e-05
1.47125e-05
1.40711e-05
1.35028e-05
1.30043e-05
1.25678e-05
0.000160509
0.00010736
8.07408e-05
6.55975e-05
5.54895e-05
4.83024e-05
4.31308e-05
3.90787e-05
3.57387e-05
3.29487e-05
3.05767e-05
2.85331e-05
2.67712e-05
2.52418e-05
2.39011e-05
2.27175e-05
2.16684e-05
2.07325e-05
1.98954e-05
1.91643e-05
0.000198681
0.0001383
0.000105187
8.55269e-05
7.25012e-05
6.289e-05
5.60609e-05
5.07589e-05
4.63874e-05
4.27209e-05
3.96237e-05
3.6953e-05
3.46295e-05
3.2597e-05
3.08087e-05
2.92271e-05
2.782e-05
2.65611e-05
2.5439e-05
2.45776e-05
0.000218609
0.000155003
0.000118661
9.65069e-05
8.18823e-05
7.08355e-05
6.30855e-05
5.71433e-05
5.22482e-05
4.8096e-05
4.45822e-05
4.15714e-05
3.89515e-05
3.66573e-05
3.46365e-05
3.28474e-05
3.12548e-05
2.9831e-05
2.8566e-05
2.75742e-05
0.000218609
0.000155003
0.000118661
9.65069e-05
8.18824e-05
7.08356e-05
6.30857e-05
5.71437e-05
5.22487e-05
4.80968e-05
4.45834e-05
4.15733e-05
3.89544e-05
3.6662e-05
3.4644e-05
3.28588e-05
3.12719e-05
2.98563e-05
2.86003e-05
2.76012e-05
0.000198681
0.0001383
0.000105187
8.55269e-05
7.25013e-05
6.28902e-05
5.60613e-05
5.07595e-05
4.63884e-05
4.27224e-05
3.96262e-05
3.69569e-05
3.46357e-05
3.26069e-05
3.08245e-05
2.92517e-05
2.78583e-05
2.662e-05
2.55186e-05
2.45559e-05
0.000160509
0.00010736
8.07409e-05
6.55976e-05
5.54896e-05
4.83026e-05
4.31311e-05
3.90792e-05
3.57394e-05
3.29502e-05
3.05789e-05
2.85365e-05
2.67766e-05
2.52504e-05
2.39154e-05
2.27407e-05
2.17065e-05
2.07961e-05
2.00005e-05
1.93267e-05
0.000107685
6.77183e-05
5.06311e-05
4.14159e-05
3.54048e-05
3.10366e-05
2.77137e-05
2.50815e-05
2.29333e-05
2.11505e-05
1.96504e-05
1.83711e-05
1.72629e-05
1.6294e-05
1.54507e-05
1.47241e-05
1.40928e-05
1.35458e-05
1.30896e-05
1.27313e-05
4.5356e-05
2.3208e-05
1.65396e-05
1.36493e-05
1.18966e-05
1.06844e-05
9.76072e-06
9.05705e-06
8.49463e-06
8.0312e-06
7.64033e-06
7.31192e-06
7.02414e-06
6.75987e-06
6.52763e-06
6.32571e-06
6.14939e-06
5.99461e-06
5.87508e-06
5.72213e-06
4.99449e-06
4.75317e-06
4.53967e-06
4.40693e-06
4.31903e-06
4.25577e-06
4.20215e-06
4.15163e-06
4.10455e-06
4.06532e-06
4.02878e-06
3.99445e-06
3.95768e-06
3.9205e-06
3.88603e-06
3.85185e-06
3.82053e-06
3.78951e-06
3.76032e-06
3.73227e-06
3.70367e-06
3.67606e-06
3.65009e-06
3.62345e-06
3.60039e-06
3.57707e-06
3.55471e-06
3.53281e-06
3.51201e-06
3.49069e-06
3.47124e-06
3.45192e-06
3.43353e-06
3.41591e-06
3.39864e-06
3.38203e-06
3.36671e-06
3.35173e-06
3.33948e-06
3.31739e-06
1.00425e-05
9.6495e-06
9.33568e-06
9.11878e-06
8.9399e-06
8.79371e-06
8.65864e-06
8.52821e-06
8.39851e-06
8.28697e-06
8.18623e-06
8.09804e-06
8.00608e-06
7.91861e-06
7.83229e-06
7.74775e-06
7.67015e-06
7.59703e-06
7.52803e-06
7.46343e-06
7.39946e-06
7.33707e-06
7.27812e-06
7.22132e-06
7.16893e-06
7.11984e-06
7.07219e-06
7.02608e-06
6.98118e-06
6.93687e-06
6.89411e-06
6.85294e-06
6.81338e-06
6.77518e-06
6.73869e-06
6.70353e-06
6.67008e-06
6.63794e-06
6.60805e-06
6.57413e-06
1.61941e-05
1.50075e-05
1.43654e-05
1.39324e-05
1.3574e-05
1.32607e-05
1.29855e-05
1.27412e-05
1.25195e-05
1.2311e-05
1.21194e-05
1.19441e-05
1.17863e-05
1.16482e-05
1.14983e-05
1.13557e-05
1.12272e-05
1.11069e-05
1.09947e-05
1.08864e-05
1.07829e-05
1.06747e-05
1.05743e-05
1.0482e-05
1.03992e-05
1.03196e-05
1.02417e-05
1.01661e-05
1.00931e-05
1.00222e-05
9.95373e-06
9.88671e-06
9.82273e-06
9.76097e-06
9.70238e-06
9.64647e-06
9.59332e-06
9.54125e-06
9.49186e-06
9.44058e-06
2.00998e-05
1.92194e-05
1.85193e-05
1.79248e-05
1.74151e-05
1.69686e-05
1.65682e-05
1.62051e-05
1.58731e-05
1.55681e-05
1.52864e-05
1.50242e-05
1.47757e-05
1.45518e-05
1.43436e-05
1.41479e-05
1.39644e-05
1.37937e-05
1.3631e-05
1.34637e-05
1.33077e-05
1.3166e-05
1.30283e-05
1.28971e-05
1.27737e-05
1.26578e-05
1.25473e-05
1.24427e-05
1.23413e-05
1.22447e-05
1.21526e-05
1.20596e-05
1.19735e-05
1.18866e-05
1.18126e-05
1.17329e-05
1.16669e-05
1.15959e-05
1.15313e-05
1.14626e-05
2.27198e-05
2.19447e-05
2.12198e-05
2.05605e-05
1.99634e-05
1.94227e-05
1.89354e-05
1.84912e-05
1.8081e-05
1.77007e-05
1.73473e-05
1.70169e-05
1.67045e-05
1.64217e-05
1.61576e-05
1.59108e-05
1.56843e-05
1.54697e-05
1.52673e-05
1.50773e-05
1.48983e-05
1.47337e-05
1.45605e-05
1.43994e-05
1.42507e-05
1.41095e-05
1.39767e-05
1.38507e-05
1.37304e-05
1.36182e-05
1.351e-05
1.34094e-05
1.33011e-05
1.32089e-05
1.31191e-05
1.30297e-05
1.29479e-05
1.28668e-05
1.27918e-05
1.27211e-05
2.37663e-05
2.29907e-05
2.22493e-05
2.15559e-05
2.09148e-05
2.03272e-05
1.97895e-05
1.9299e-05
1.88449e-05
1.84212e-05
1.80267e-05
1.76587e-05
1.73129e-05
1.6998e-05
1.67047e-05
1.64317e-05
1.61776e-05
1.59424e-05
1.57257e-05
1.55231e-05
1.53342e-05
1.51575e-05
1.49899e-05
1.48444e-05
1.46834e-05
1.45233e-05
1.43764e-05
1.42415e-05
1.41161e-05
1.40015e-05
1.38917e-05
1.37882e-05
1.36905e-05
1.35723e-05
1.34993e-05
1.33884e-05
1.33229e-05
1.32344e-05
1.31595e-05
1.30878e-05
2.33435e-05
2.23879e-05
2.15531e-05
2.0806e-05
2.0133e-05
1.95198e-05
1.89641e-05
1.84595e-05
1.79981e-05
1.75749e-05
1.71864e-05
1.68291e-05
1.64989e-05
1.61986e-05
1.59211e-05
1.56644e-05
1.54268e-05
1.52068e-05
1.50037e-05
1.48155e-05
1.46424e-05
1.44757e-05
1.43211e-05
1.41783e-05
1.4022e-05
1.38746e-05
1.3741e-05
1.36176e-05
1.35013e-05
1.33909e-05
1.32864e-05
1.31904e-05
1.30899e-05
1.30013e-05
1.29052e-05
1.28334e-05
1.27571e-05
1.26818e-05
1.26085e-05
1.25385e-05
2.06486e-05
1.96803e-05
1.88574e-05
1.81537e-05
1.75259e-05
1.69686e-05
1.64806e-05
1.60496e-05
1.56637e-05
1.5314e-05
1.49963e-05
1.47075e-05
1.44389e-05
1.41938e-05
1.39674e-05
1.3758e-05
1.35652e-05
1.33866e-05
1.32205e-05
1.30648e-05
1.29245e-05
1.27792e-05
1.2644e-05
1.25131e-05
1.23933e-05
1.22774e-05
1.21699e-05
1.20684e-05
1.19642e-05
1.1865e-05
1.17751e-05
1.16964e-05
1.16189e-05
1.15424e-05
1.14689e-05
1.13985e-05
1.13314e-05
1.12642e-05
1.11994e-05
1.11367e-05
1.62303e-05
1.53836e-05
1.46611e-05
1.40186e-05
1.35587e-05
1.31634e-05
1.28346e-05
1.25455e-05
1.22829e-05
1.20443e-05
1.18294e-05
1.1634e-05
1.14564e-05
1.12874e-05
1.1134e-05
1.09754e-05
1.08313e-05
1.07044e-05
1.05833e-05
1.04699e-05
1.03622e-05
1.02576e-05
1.01619e-05
1.00641e-05
9.97013e-06
9.88248e-06
9.80194e-06
9.72547e-06
9.65429e-06
9.58548e-06
9.52161e-06
9.46031e-06
9.40158e-06
9.34462e-06
9.29049e-06
9.23915e-06
9.1886e-06
9.13795e-06
9.08946e-06
9.04114e-06
1.06986e-05
1.01585e-05
9.65821e-06
9.27162e-06
8.99063e-06
8.78602e-06
8.6166e-06
8.45892e-06
8.31214e-06
8.18218e-06
8.07448e-06
7.9779e-06
7.87656e-06
7.76469e-06
7.66912e-06
7.5798e-06
7.49643e-06
7.41854e-06
7.34411e-06
7.2738e-06
7.20566e-06
7.14086e-06
7.08079e-06
7.02032e-06
6.96581e-06
6.91446e-06
6.8658e-06
6.81924e-06
6.77462e-06
6.73078e-06
6.68962e-06
6.65027e-06
6.61263e-06
6.57654e-06
6.54194e-06
6.50936e-06
6.47686e-06
6.44567e-06
6.41754e-06
6.38607e-06
4.99461e-06
4.75313e-06
4.54056e-06
4.40678e-06
4.31977e-06
4.25991e-06
4.20774e-06
4.1568e-06
4.10866e-06
4.06556e-06
4.02994e-06
3.99323e-06
3.95463e-06
3.91729e-06
3.88286e-06
3.84974e-06
3.81853e-06
3.78806e-06
3.75906e-06
3.73074e-06
3.70263e-06
3.67503e-06
3.64948e-06
3.62281e-06
3.60004e-06
3.57661e-06
3.55461e-06
3.53288e-06
3.51235e-06
3.49148e-06
3.47211e-06
3.45292e-06
3.43471e-06
3.41713e-06
3.40018e-06
3.38419e-06
3.36824e-06
3.35327e-06
3.34073e-06
3.31845e-06
1.06993e-05
1.01577e-05
9.65382e-06
9.27233e-06
8.99153e-06
8.77711e-06