/*--------------------------------*- C++ -*----------------------------------*\
| =========                 |                                                 |
| \\      /  F ield         | OpenFOAM: The Open Source CFD Toolbox           |
|  \\    /   O peration     | Version:  2212                                  |
|   \\  /    A nd           | Website:  www.openfoam.com                      |
|    \\/     M anipulation  |                                                 |
\*---------------------------------------------------------------------------*/
FoamFile
{
    version     2.0;
    format      ascii;
    arch        "LSB;label=32;scalar=64";
    class       volScalarField;
    location    "2.85";
    object      p;
}
// * * * * * * * * * * * * * * * * * * * * * * * * * * * * * * * * * * * * * //

dimensions      [0 2 -2 0 0 0 0];

internalField   nonuniform List<scalar> 
6840
(
0.0178116
0.0106971
0.00840572
0.0078679
0.00759355
0.00737137
0.00718478
0.00701841
0.00685735
0.00669805
0.00654062
0.00638491
0.00622981
0.00607431
0.00591852
0.00576262
0.00560735
0.00545103
0.00527858
0.00497942
0.0106328
0.00989892
0.00880603
0.00814006
0.00773747
0.00746374
0.00725255
0.0070663
0.00689183
0.0067244
0.00656147
0.00640121
0.00624183
0.00608222
0.00592214
0.00576112
0.00559527
0.00541338
0.00518263
0.00483897
0.0102845
0.00943297
0.0086687
0.00810956
0.00773338
0.00746529
0.00724954
0.00705646
0.00687778
0.00670881
0.00654456
0.00638269
0.00622244
0.00606299
0.00590282
0.00573959
0.00556976
0.00538839
0.00519122
0.00497287
0.00987518
0.00911245
0.00849368
0.00804234
0.00769833
0.00742924
0.0072095
0.00702048
0.00685229
0.00669427
0.00653765
0.00638082
0.00622422
0.00606796
0.00591154
0.00575422
0.00559527
0.00543458
0.00527396
0.00511379
0.00974097
0.00899979
0.00841161
0.00800347
0.00768149
0.0074147
0.00719306
0.00700223
0.00683114
0.00667391
0.00652317
0.00637189
0.00621904
0.0060661
0.00591416
0.0057638
0.00561558
0.00546964
0.00532488
0.0051852
0.00974099
0.00899981
0.00841164
0.00800352
0.00768157
0.00741483
0.00719327
0.00700257
0.00683172
0.00667485
0.00652471
0.00637442
0.00622318
0.00607276
0.00592473
0.00578061
0.00564187
0.00550948
0.00538099
0.00525897
0.00987524
0.00911251
0.00849375
0.00804245
0.0076985
0.00742951
0.00720998
0.00702131
0.0068537
0.0066966
0.00654148
0.00638704
0.00623425
0.00608412
0.00593778
0.00579711
0.00566483
0.00554395
0.0054372
0.00535005
0.0102845
0.00943302
0.00866876
0.00810965
0.00773353
0.00746558
0.00725004
0.00705731
0.00687919
0.00671119
0.00654856
0.00638929
0.0062332
0.00608065
0.00593212
0.0057887
0.00565308
0.00552906
0.00542844
0.00536916
0.0106328
0.00989893
0.00880605
0.0081401
0.00773754
0.00746387
0.00725279
0.00706671
0.00689255
0.00672563
0.00656351
0.0064046
0.00624769
0.00609263
0.00594037
0.00579234
0.00564812
0.00550822
0.00537925
0.00529452
0.0178116
0.0106971
0.00840571
0.00786789
0.00759355
0.00737136
0.00718477
0.0070184
0.00685734
0.00669803
0.0065406
0.00638488
0.00622978
0.00607428
0.00591848
0.00576256
0.00560727
0.00545095
0.00527849
0.00497926
0.0106328
0.00989894
0.00880606
0.0081401
0.00773755
0.00746387
0.00725279
0.00706672
0.00689256
0.00672564
0.00656353
0.00640462
0.00624772
0.00609266
0.00594041
0.0057924
0.0056482
0.00550832
0.00537938
0.00529472
0.0099162
0.0098845
0.00915629
0.0084458
0.00799948
0.00768358
0.00742475
0.00719719
0.00699277
0.00680465
0.00662735
0.00645716
0.00629115
0.00612774
0.00596645
0.00580646
0.00564721
0.00548768
0.00533661
0.00521655
0.00899071
0.00911689
0.00881401
0.0083978
0.00803067
0.00771202
0.00743344
0.00719294
0.00698024
0.0067855
0.00660191
0.00642613
0.00625599
0.00608943
0.00592465
0.00576
0.00559439
0.00542722
0.00526099
0.00510919
0.0085723
0.00861581
0.00845023
0.00818729
0.00790689
0.00763552
0.00738445
0.00715797
0.00695471
0.0067677
0.00658995
0.00641828
0.00625133
0.00608767
0.00592585
0.00576495
0.00560449
0.00544522
0.0052898
0.00514344
0.00835633
0.00837816
0.00825095
0.00803342
0.00780097
0.00757178
0.00734891
0.00713567
0.00693479
0.00674727
0.00657055
0.00640119
0.00623758
0.00607811
0.00592132
0.00576756
0.00561731
0.00547064
0.00532898
0.00519246
0.00835637
0.0083782
0.00825101
0.00803352
0.00780112
0.00757199
0.00734924
0.00713616
0.00693551
0.00674847
0.00657259
0.00640459
0.00624297
0.00608643
0.00593372
0.00578554
0.00564334
0.00550763
0.00537829
0.00524963
0.00857239
0.0086159
0.00845036
0.00818746
0.00790714
0.00763587
0.00738499
0.00715883
0.00695615
0.00677032
0.00659464
0.00642593
0.00626268
0.00610444
0.00595172
0.0058053
0.00566621
0.00553637
0.005419
0.00531066
0.00899075
0.00911694
0.00881409
0.0083979
0.0080308
0.00771224
0.00743383
0.00719363
0.00698146
0.00678754
0.00660515
0.00643123
0.00626413
0.00610266
0.00594615
0.00579452
0.00564887
0.00551119
0.00538766
0.00529744
0.00991619
0.00988449
0.00915628
0.00844579
0.00799947
0.00768357
0.00742474
0.00719718
0.00699276
0.00680464
0.00662733
0.00645714
0.00629113
0.00612771
0.00596641
0.00580641
0.00564715
0.00548761
0.00533652
0.00521642
0.0106328
0.00989891
0.00880602
0.00814005
0.00773746
0.00746372
0.00725254
0.00706629
0.00689182
0.00672438
0.00656145
0.00640119
0.0062418
0.0060822
0.00592212
0.00576107
0.00559521
0.00541331
0.00518254
0.00483885
0.0102845
0.00943303
0.00866877
0.00810965
0.00773354
0.00746559
0.00725005
0.00705732
0.0068792
0.0067112
0.00654858
0.0063893
0.00623322
0.00608068
0.00593215
0.00578875
0.00565314
0.00552915
0.00542855
0.00536935
0.00899075
0.00911695
0.0088141
0.00839791
0.00803081
0.00771225
0.00743384
0.00719364
0.00698147
0.00678755
0.00660516
0.00643124
0.00626414
0.00610268
0.00594618
0.00579455
0.0056489
0.00551123
0.00538772
0.00529748
0.00842125
0.00852222
0.00841067
0.00818523
0.00792951
0.00767115
0.00741283
0.00717135
0.00695365
0.00675367
0.00656646
0.00638892
0.00621849
0.0060532
0.00589178
0.0057332
0.00557656
0.00542149
0.00526703
0.00511124
0.00805322
0.00812128
0.0080689
0.00792191
0.00773704
0.00753193
0.00732129
0.00711441
0.00691331
0.0067209
0.00653828
0.00636362
0.00619494
0.00603078
0.00587003
0.00571167
0.00555469
0.0053983
0.0052417
0.00508279
0.00787015
0.00793458
0.00790512
0.00778025
0.00762122
0.00744752
0.00726123
0.0070732
0.00688702
0.00670353
0.00652427
0.00635023
0.00618178
0.00601834
0.0058594
0.00570465
0.00555317
0.0054039
0.0052573
0.00510966
0.00787018
0.00793461
0.00790515
0.00778034
0.00762139
0.00744776
0.00726153
0.00707359
0.00688759
0.0067044
0.0065256
0.0063522
0.00618459
0.00602249
0.00586565
0.00571354
0.00556545
0.00542133
0.00528278
0.00514162
0.00805327
0.00812133
0.00806898
0.00792206
0.00773726
0.0075322
0.00732164
0.00711493
0.00691412
0.00672219
0.00654042
0.00636697
0.00619993
0.00603822
0.00588113
0.00572771
0.00557793
0.00543294
0.00529358
0.00515069
0.00842124
0.00852221
0.00841066
0.00818522
0.0079295
0.00767114
0.00741282
0.00717133
0.00695364
0.00675366
0.00656645
0.00638891
0.00621848
0.00605318
0.00589176
0.00573319
0.00557655
0.00542148
0.00526703
0.00511127
0.0089907
0.00911688
0.008814
0.00839779
0.00803065
0.00771201
0.00743343
0.00719293
0.00698022
0.00678548
0.00660189
0.00642611
0.00625597
0.0060894
0.00592462
0.00575996
0.00559435
0.00542717
0.00526093
0.00510912
0.0102845
0.00943296
0.00866869
0.00810955
0.00773336
0.00746528
0.00724953
0.00705645
0.00687777
0.00670879
0.00654454
0.00638266
0.00622241
0.00606296
0.00590279
0.00573954
0.00556969
0.00538831
0.00519112
0.00497274
0.00987525
0.00911252
0.00849376
0.00804245
0.0076985
0.00742952
0.00720998
0.00702132
0.00685371
0.00669661
0.00654149
0.00638705
0.00623426
0.00608414
0.0059378
0.00579713
0.00566486
0.005544
0.00543727
0.00535014
0.0085724
0.00861591
0.00845036
0.00818747
0.00790715
0.00763588
0.007385
0.00715883
0.00695616
0.00677033
0.00659465
0.00642594
0.00626269
0.00610445
0.00595173
0.00580531
0.00566622
0.00553639
0.00541901
0.00531062
0.00805328
0.00812134
0.00806899
0.00792207
0.00773727
0.00753221
0.00732165
0.00711494
0.00691412
0.0067222
0.00654043
0.00636697
0.00619994
0.00603823
0.00588113
0.0057277
0.00557793
0.00543292
0.00529355
0.00515062
0.00775535
0.00781449
0.00780256
0.00770718
0.00756758
0.00740212
0.00722197
0.00703755
0.00685365
0.00667339
0.00649841
0.00632856
0.00616324
0.00600185
0.0058438
0.00568839
0.00553487
0.00538262
0.00523187
0.00507675
0.00760422
0.00766711
0.00767087
0.00759722
0.00747709
0.0073307
0.00716779
0.00699635
0.00682218
0.0066486
0.00647742
0.00630953
0.00614521
0.00598434
0.00582661
0.00567161
0.00551855
0.00536681
0.00521673
0.00506252
0.00760423
0.00766712
0.00767089
0.00759725
0.00747713
0.00733076
0.00716789
0.0069965
0.00682239
0.00664888
0.00647781
0.00631008
0.00614601
0.00598556
0.0058285
0.00567429
0.00552213
0.00537171
0.00522429
0.00507239
0.00775534
0.00781449
0.00780256
0.00770718
0.00756757
0.00740211
0.00722196
0.00703754
0.00685364
0.00667338
0.0064984
0.00632855
0.00616323
0.00600184
0.0058438
0.00568839
0.00553487
0.00538262
0.00523187
0.00507676
0.00805321
0.00812127
0.00806889
0.0079219
0.00773703
0.00753192
0.00732128
0.0071144
0.0069133
0.00672088
0.00653827
0.00636361
0.00619493
0.00603076
0.00587001
0.00571166
0.00555467
0.00539828
0.0052417
0.00508281
0.00857229
0.0086158
0.00845022
0.00818727
0.00790688
0.00763551
0.00738443
0.00715795
0.00695469
0.00676768
0.00658993
0.00641826
0.0062513
0.00608763
0.0059258
0.0057649
0.00560443
0.00544514
0.00528972
0.00514338
0.00987517
0.00911244
0.00849367
0.00804233
0.00769832
0.00742923
0.00720949
0.00702046
0.00685227
0.00669425
0.00653763
0.00638079
0.00622418
0.00606792
0.00591149
0.00575416
0.00559517
0.00543444
0.00527375
0.00511349
0.009741
0.00899982
0.00841165
0.00800353
0.00768158
0.00741484
0.00719327
0.00700258
0.00683173
0.00667486
0.00652472
0.00637443
0.00622318
0.00607276
0.00592473
0.00578061
0.00564187
0.0055095
0.00538102
0.005259
0.00835638
0.00837821
0.00825102
0.00803353
0.00780113
0.007572
0.00734925
0.00713617
0.00693552
0.00674848
0.0065726
0.0064046
0.00624298
0.00608643
0.00593372
0.00578554
0.00564334
0.00550763
0.0053783
0.00524961
0.00787018
0.00793462
0.00790516
0.00778035
0.00762139
0.00744777
0.00726154
0.0070736
0.0068876
0.00670441
0.00652561
0.0063522
0.0061846
0.0060225
0.00586565
0.00571354
0.00556544
0.00542133
0.00528277
0.00514158
0.00760424
0.00766713
0.0076709
0.00759725
0.00747714
0.00733077
0.0071679
0.00699651
0.0068224
0.00664889
0.00647782
0.00631008
0.00614601
0.00598556
0.0058285
0.00567429
0.00552212
0.0053717
0.00522427
0.00507236
0.00746142
0.00753093
0.00755305
0.00750051
0.00739926
0.00726832
0.00711839
0.0069574
0.00679089
0.00662255
0.00645475
0.00628891
0.00612581
0.00596574
0.00580872
0.00565443
0.00550227
0.00535233
0.00520621
0.00505555
0.00746141
0.00753093
0.00755305
0.0075005
0.00739925
0.00726832
0.00711839
0.00695739
0.00679088
0.00662254
0.00645474
0.00628891
0.0061258
0.00596574
0.00580872
0.00565444
0.00550227
0.00535233
0.00520621
0.00505555
0.00760421
0.0076671
0.00767086
0.00759721
0.00747709
0.00733069
0.00716778
0.00699634
0.00682218
0.00664859
0.00647741
0.00630952
0.0061452
0.00598433
0.00582661
0.00567161
0.00551854
0.00536681
0.00521673
0.00506253
0.00787014
0.00793458
0.00790511
0.00778024
0.00762121
0.00744751
0.00726122
0.00707319
0.00688701
0.00670352
0.00652426
0.00635021
0.00618176
0.00601832
0.00585938
0.00570464
0.00555317
0.0054039
0.00525736
0.00510985
0.00835632
0.00837815
0.00825094
0.0080334
0.00780095
0.00757176
0.00734889
0.00713566
0.00693478
0.00674726
0.00657053
0.00640117
0.00623755
0.00607808
0.00592129
0.00576752
0.00561726
0.00547058
0.00532895
0.00519256
0.00974096
0.00899978
0.0084116
0.00800346
0.00768148
0.00741469
0.00719305
0.00700221
0.00683113
0.0066739
0.00652315
0.00637187
0.00621901
0.00606607
0.00591411
0.00576373
0.00561548
0.00546948
0.00532462
0.00518477
0.00974099
0.0089998
0.00841162
0.00800348
0.0076815
0.00741472
0.00719307
0.00700224
0.00683115
0.00667392
0.00652318
0.0063719
0.00621905
0.00606611
0.00591416
0.0057638
0.00561557
0.00546963
0.00532486
0.00518518
0.00835634
0.00837817
0.00825096
0.00803343
0.00780098
0.00757179
0.00734892
0.00713568
0.0069348
0.00674728
0.00657056
0.0064012
0.00623759
0.00607811
0.00592133
0.00576757
0.00561731
0.00547065
0.00532898
0.00519248
0.00787015
0.00793459
0.00790512
0.00778026
0.00762123
0.00744753
0.00726124
0.00707321
0.00688703
0.00670354
0.00652428
0.00635024
0.00618179
0.00601835
0.0058594
0.00570466
0.00555318
0.00540391
0.00525732
0.00510969
0.00760422
0.00766712
0.00767087
0.00759722
0.0074771
0.0073307
0.0071678
0.00699635
0.00682219
0.0066486
0.00647743
0.00630954
0.00614522
0.00598434
0.00582662
0.00567162
0.00551855
0.00536681
0.00521673
0.00506251
0.00746142
0.00753093
0.00755305
0.00750051
0.00739926
0.00726832
0.00711839
0.0069574
0.00679089
0.00662255
0.00645475
0.00628891
0.00612581
0.00596574
0.00580872
0.00565443
0.00550226
0.00535232
0.0052062
0.00505554
0.00746141
0.00753093
0.00755305
0.00750051
0.00739925
0.00726832
0.00711839
0.0069574
0.00679088
0.00662254
0.00645474
0.00628891
0.0061258
0.00596574
0.00580872
0.00565443
0.00550226
0.00535232
0.0052062
0.00505554
0.00760423
0.00766712
0.00767089
0.00759724
0.00747713
0.00733076
0.00716789
0.0069965
0.00682239
0.00664888
0.00647781
0.00631007
0.006146
0.00598555
0.00582849
0.00567428
0.0055221
0.00537167
0.00522425
0.00507234
0.00787017
0.0079346
0.00790514
0.00778034
0.00762138
0.00744775
0.00726152
0.00707358
0.00688758
0.00670439
0.00652559
0.00635218
0.00618458
0.00602248
0.00586563
0.00571352
0.00556541
0.00542129
0.00528274
0.0051416
0.00835636
0.00837819
0.008251
0.00803351
0.00780111
0.00757198
0.00734923
0.00713615
0.0069355
0.00674845
0.00657258
0.00640457
0.00624295
0.00608641
0.00593369
0.00578551
0.0056433
0.00550757
0.00537823
0.00524954
0.00974098
0.0089998
0.00841163
0.00800351
0.00768156
0.00741482
0.00719325
0.00700256
0.00683171
0.00667484
0.0065247
0.0063744
0.00622315
0.00607273
0.0059247
0.00578057
0.00564182
0.00550942
0.00538091
0.00525888
0.00987519
0.00911246
0.00849369
0.00804235
0.00769835
0.00742926
0.00720952
0.00702049
0.0068523
0.00669429
0.00653766
0.00638083
0.00622423
0.00606796
0.00591154
0.00575422
0.00559525
0.00543455
0.00527391
0.00511371
0.00857231
0.00861582
0.00845024
0.0081873
0.0079069
0.00763553
0.00738446
0.00715798
0.00695472
0.00676771
0.00658996
0.00641829
0.00625134
0.00608768
0.00592586
0.00576495
0.00560449
0.00544521
0.00528979
0.00514343
0.00805322
0.00812129
0.00806891
0.00792192
0.00773705
0.00753194
0.0073213
0.00711442
0.00691333
0.00672091
0.00653829
0.00636363
0.00619495
0.00603079
0.00587004
0.00571168
0.00555469
0.00539831
0.00524171
0.0050828
0.00775535
0.0078145
0.00780257
0.00770719
0.00756758
0.00740212
0.00722197
0.00703755
0.00685366
0.0066734
0.00649841
0.00632856
0.00616324
0.00600185
0.00584381
0.00568839
0.00553487
0.00538261
0.00523185
0.00507671
0.00760423
0.00766713
0.00767089
0.00759725
0.00747714
0.00733077
0.0071679
0.00699651
0.0068224
0.00664889
0.00647782
0.00631008
0.00614601
0.00598556
0.0058285
0.00567428
0.00552211
0.00537169
0.00522426
0.00507235
0.00760421
0.00766711
0.00767087
0.00759722
0.00747709
0.0073307
0.00716779
0.00699635
0.00682218
0.0066486
0.00647742
0.00630953
0.00614521
0.00598433
0.0058266
0.0056716
0.00551853
0.00536679
0.0052167
0.00506248
0.00775534
0.00781449
0.00780256
0.00770718
0.00756757
0.00740211
0.00722196
0.00703754
0.00685364
0.00667338
0.0064984
0.00632855
0.00616322
0.00600183
0.00584379
0.00568837
0.00553484
0.00538257
0.0052318
0.00507664
0.00805326
0.00812133
0.00806897
0.00792205
0.00773725
0.0075322
0.00732163
0.00711493
0.00691411
0.00672219
0.00654041
0.00636696
0.00619992
0.00603821
0.00588111
0.00572767
0.00557789
0.00543287
0.00529346
0.00515046
0.00857238
0.00861589
0.00845035
0.00818745
0.00790713
0.00763586
0.00738498
0.00715882
0.00695614
0.00677031
0.00659463
0.00642592
0.00626267
0.00610443
0.0059517
0.00580528
0.00566618
0.00553634
0.00541893
0.00531041
0.00987523
0.0091125
0.00849375
0.00804244
0.00769849
0.0074295
0.00720997
0.0070213
0.00685369
0.00669659
0.00654147
0.00638703
0.00623424
0.00608411
0.00593776
0.0057971
0.00566482
0.00554395
0.00543721
0.00535008
0.0102845
0.00943298
0.00866871
0.00810957
0.00773339
0.00746531
0.00724956
0.00705648
0.0068778
0.00670883
0.00654458
0.00638271
0.00622246
0.006063
0.00590283
0.00573959
0.00556975
0.00538838
0.00519118
0.0049728
0.00899072
0.0091169
0.00881402
0.00839782
0.00803068
0.00771203
0.00743346
0.00719295
0.00698025
0.00678551
0.00660193
0.00642614
0.00625601
0.00608944
0.00592466
0.00576
0.00559439
0.0054272
0.00526097
0.00510916
0.00842125
0.00852223
0.00841068
0.00818523
0.00792952
0.00767116
0.00741284
0.00717136
0.00695366
0.00675368
0.00656647
0.00638893
0.00621851
0.00605321
0.00589179
0.00573321
0.00557657
0.00542149
0.00526703
0.00511124
0.00805328
0.00812134
0.00806899
0.00792207
0.00773727
0.00753221
0.00732165
0.00711495
0.00691413
0.00672221
0.00654043
0.00636698
0.00619994
0.00603823
0.00588113
0.0057277
0.00557792
0.00543291
0.00529352
0.00515056
0.00787018
0.00793461
0.00790516
0.00778035
0.00762139
0.00744777
0.00726153
0.0070736
0.0068876
0.00670441
0.00652561
0.0063522
0.00618459
0.00602249
0.00586564
0.00571353
0.00556543
0.00542131
0.00528273
0.00514153
0.00787015
0.00793458
0.00790512
0.00778025
0.00762122
0.00744752
0.00726123
0.0070732
0.00688702
0.00670353
0.00652427
0.00635022
0.00618177
0.00601833
0.00585939
0.00570464
0.00555316
0.00540387
0.00525727
0.00510963
0.00805321
0.00812128
0.00806889
0.00792191
0.00773704
0.00753192
0.00732128
0.0071144
0.00691331
0.00672089
0.00653827
0.00636361
0.00619493
0.00603076
0.00587001
0.00571165
0.00555466
0.00539826
0.00524164
0.00508267
0.00842124
0.00852221
0.00841066
0.00818522
0.0079295
0.00767114
0.00741282
0.00717133
0.00695364
0.00675366
0.00656645
0.00638891
0.00621848
0.00605317
0.00589176
0.00573318
0.00557653
0.00542144
0.00526693
0.00511096
0.00899074
0.00911694
0.00881408
0.0083979
0.00803079
0.00771223
0.00743383
0.00719363
0.00698146
0.00678753
0.00660515
0.00643122
0.00626412
0.00610265
0.00594615
0.00579452
0.00564887
0.0055112
0.00538764
0.00529729
0.0102845
0.00943301
0.00866875
0.00810964
0.00773352
0.00746558
0.00725004
0.00705731
0.00687919
0.00671118
0.00654856
0.00638928
0.0062332
0.00608065
0.00593211
0.00578871
0.00565311
0.00552912
0.00542855
0.00536947
0.0106328
0.00989893
0.00880604
0.00814007
0.00773748
0.00746375
0.00725257
0.00706632
0.00689185
0.00672442
0.00656149
0.00640123
0.00624185
0.00608224
0.00592215
0.00576112
0.00559527
0.00541337
0.0051826
0.00483893
0.0099162
0.00988451
0.00915629
0.00844581
0.00799949
0.00768359
0.00742476
0.0071972
0.00699279
0.00680467
0.00662736
0.00645718
0.00629117
0.00612775
0.00596645
0.00580646
0.00564721
0.00548768
0.0053366
0.00521654
0.00899076
0.00911696
0.0088141
0.00839792
0.00803082
0.00771226
0.00743385
0.00719365
0.00698148
0.00678756
0.00660517
0.00643125
0.00626415
0.00610269
0.00594619
0.00579456
0.00564891
0.00551124
0.00538774
0.00529751
0.0085724
0.00861591
0.00845036
0.00818747
0.00790715
0.00763589
0.007385
0.00715884
0.00695616
0.00677033
0.00659466
0.00642595
0.0062627
0.00610446
0.00595173
0.00580531
0.00566622
0.00553639
0.00541902
0.00531062
0.00835638
0.0083782
0.00825101
0.00803353
0.00780113
0.007572
0.00734925
0.00713617
0.00693552
0.00674847
0.0065726
0.0064046
0.00624298
0.00608643
0.00593372
0.00578554
0.00564334
0.00550762
0.00537828
0.00524957
0.00835633
0.00837816
0.00825095
0.00803342
0.00780097
0.00757178
0.00734891
0.00713568
0.00693479
0.00674727
0.00657055
0.00640119
0.00623758
0.0060781
0.00592131
0.00576755
0.0056173
0.00547062
0.00532894
0.00519242
0.0085723
0.00861581
0.00845023
0.00818728
0.00790688
0.00763552
0.00738444
0.00715796
0.0069547
0.00676769
0.00658994
0.00641827
0.00625132
0.00608765
0.00592583
0.00576492
0.00560447
0.00544518
0.00528974
0.00514334
0.0089907
0.00911689
0.00881401
0.0083978
0.00803066
0.00771201
0.00743344
0.00719293
0.00698023
0.00678549
0.0066019
0.00642611
0.00625598
0.00608941
0.00592463
0.00575997
0.00559437
0.0054272
0.00526094
0.00510907
0.00991619
0.00988449
0.00915627
0.00844579
0.00799947
0.00768357
0.00742474
0.00719718
0.00699276
0.00680464
0.00662733
0.00645714
0.00629113
0.00612771
0.00596642
0.00580643
0.00564719
0.00548769
0.00533666
0.00521678
0.0106328
0.00989893
0.00880605
0.00814009
0.00773753
0.00746386
0.00725278
0.00706671
0.00689255
0.00672563
0.00656351
0.0064046
0.00624769
0.00609263
0.00594038
0.00579236
0.00564816
0.0055083
0.00537941
0.00529493
0.0178116
0.0106972
0.00840573
0.00786791
0.00759357
0.00737139
0.0071848
0.00701843
0.00685737
0.00669806
0.00654064
0.00638493
0.00622982
0.00607432
0.00591852
0.00576262
0.00560734
0.00545101
0.00527855
0.00497941
0.0106328
0.00989895
0.00880607
0.00814011
0.00773756
0.00746388
0.00725281
0.00706673
0.00689257
0.00672566
0.00656354
0.00640463
0.00624773
0.00609267
0.00594041
0.00579239
0.00564819
0.00550831
0.00537937
0.00529472
0.0102845
0.00943303
0.00866877
0.00810966
0.00773354
0.0074656
0.00725006
0.00705733
0.00687921
0.00671121
0.00654858
0.00638931
0.00623323
0.00608068
0.00593216
0.00578875
0.00565314
0.00552915
0.00542857
0.00536938
0.00987525
0.00911252
0.00849376
0.00804246
0.00769851
0.00742952
0.00720999
0.00702133
0.00685371
0.00669661
0.00654149
0.00638706
0.00623427
0.00608414
0.0059378
0.00579714
0.00566487
0.005544
0.00543729
0.00535017
0.00974099
0.00899981
0.00841165
0.00800353
0.00768158
0.00741484
0.00719327
0.00700258
0.00683173
0.00667486
0.00652472
0.00637443
0.00622318
0.00607276
0.00592474
0.00578062
0.00564188
0.00550951
0.00538103
0.00525901
0.00974097
0.00899979
0.00841161
0.00800347
0.00768149
0.00741471
0.00719307
0.00700223
0.00683115
0.00667391
0.00652317
0.00637189
0.00621904
0.0060661
0.00591415
0.00576379
0.00561557
0.00546962
0.00532485
0.00518515
0.00987518
0.00911245
0.00849368
0.00804234
0.00769833
0.00742924
0.0072095
0.00702048
0.00685228
0.00669427
0.00653764
0.00638081
0.00622421
0.00606795
0.00591153
0.00575421
0.00559525
0.00543455
0.00527392
0.00511374
0.0102845
0.00943296
0.00866869
0.00810955
0.00773337
0.00746528
0.00724953
0.00705646
0.00687777
0.0067088
0.00654454
0.00638267
0.00622242
0.00606298
0.00590281
0.00573957
0.00556974
0.00538839
0.00519124
0.00497291
0.0106328
0.00989891
0.00880602
0.00814005
0.00773746
0.00746372
0.00725254
0.00706629
0.00689182
0.00672438
0.00656145
0.00640119
0.0062418
0.0060822
0.00592213
0.00576109
0.00559526
0.0054134
0.00518272
0.00483927
0.0178116
0.0106971
0.00840571
0.00786789
0.00759354
0.00737136
0.00718477
0.00701841
0.00685734
0.00669803
0.0065406
0.00638489
0.00622978
0.00607428
0.00591849
0.00576258
0.00560731
0.00545101
0.00527857
0.00497969
0.00541551
0.0048307
0.00451965
0.00439151
0.00427899
0.00414828
0.00401473
0.00388176
0.00374779
0.00361405
0.00348091
0.00334961
0.00321969
0.00308759
0.00295688
0.00282777
0.00269974
0.00257356
0.00244863
0.00232565
0.00220333
0.00208178
0.00196259
0.00184423
0.00172535
0.00160761
0.00149172
0.00137684
0.00126337
0.00115054
0.00103784
0.000926393
0.000815903
0.000706174
0.000596853
0.000488102
0.000379995
0.000271501
0.000164309
5.0787e-05
0.00525431
0.00485479
0.00458171
0.00444671
0.00432301
0.00418355
0.00404354
0.00390471
0.0037654
0.00362684
0.00348942
0.00335456
0.0032208
0.00308541
0.00295228
0.00282164
0.00269268
0.0025658
0.00244042
0.00231711
0.00219473
0.00207374
0.00195545
0.00183771
0.00171912
0.00160148
0.00148564
0.00137087
0.00125751
0.00114485
0.00103256
0.000921579
0.000811568
0.000702334
0.00059341
0.000484977
0.000377272
0.000269375
0.000162206
5.02564e-05
0.00506668
0.00488035
0.00465908
0.00449051
0.00434646
0.00420058
0.00405333
0.00390795
0.00376502
0.00362405
0.00348504
0.00334778
0.00321192
0.00307694
0.00294439
0.00281428
0.00268584
0.00255915
0.00243378
0.00231015
0.00218709
0.00206587
0.00194695
0.001829
0.00171133
0.0015943
0.00147887
0.00136439
0.00125114
0.00113876
0.0010274
0.000917234
0.000807969
0.000699174
0.000590547
0.000482675
0.000375531
0.000268068
0.000161467
4.98676e-05
0.00489455
0.00479583
0.00464531
0.00449427
0.00435059
0.004207
0.00406225
0.00391813
0.00377547
0.00363438
0.00349517
0.00335791
0.0032224
0.00308816
0.00295592
0.00282563
0.00269696
0.00256985
0.00244396
0.00231953
0.0021957
0.0020725
0.00195059
0.00183048
0.00171197
0.00159471
0.00147885
0.00136424
0.00125091
0.0011385
0.00102717
0.000916292
0.000806457
0.000697501
0.000589009
0.000481517
0.000374667
0.000267375
0.000161031
4.93923e-05
0.00492173
0.00480681
0.0046538
0.00449682
0.00434571
0.00419764
0.00405143
0.0039082
0.00376747
0.00362822
0.00349066
0.00335513
0.0032211
0.00308841
0.00295742
0.00282802
0.00269998
0.00257318
0.00244762
0.00232334
0.0022003
0.00207844
0.00195757
0.00183762
0.00171889
0.00160143
0.00148542
0.00137081
0.00125727
0.00114454
0.00103231
0.00092023
0.00080929
0.000699782
0.00059111
0.000483403
0.000375999
0.000268147
0.00016141
4.93818e-05
0.00497722
0.00482717
0.00465923
0.004495
0.00433879
0.0041882
0.00404175
0.00389938
0.00376055
0.00362356
0.00348777
0.00335306
0.00321966
0.00308792
0.00295754
0.00282849
0.0027008
0.00257437
0.00244921
0.00232531
0.00220263
0.00208114
0.0019609
0.00184171
0.00172327
0.0016055
0.00148886
0.00137356
0.00125966
0.00114695
0.001035
0.000923919
0.000813945
0.000704754
0.000595916
0.000487579
0.000379341
0.00027066
0.000163055
5.03655e-05
0.00506509
0.00487745
0.00467759
0.0044996
0.00433743
0.00418343
0.0040354
0.00389254
0.00375376
0.00361724
0.00348221
0.00334828
0.00321546
0.00308408
0.00295429
0.00282612
0.00269925
0.00257345
0.00244879
0.00232536
0.00220314
0.002082
0.00196203
0.00184275
0.00172399
0.00160621
0.00148999
0.00137499
0.00126146
0.00114896
0.00103698
0.000926262
0.00081629
0.000706758
0.000597933
0.000489855
0.000381797
0.000273282
0.000165324
5.19607e-05
0.005181
0.00494692
0.00469736
0.00449504
0.00432352
0.00416669
0.00401871
0.00387719
0.00373999
0.00360554
0.00347257
0.00334049
0.00320878
0.00307758
0.00294799
0.00282046
0.0026943
0.00256927
0.00244534
0.00232246
0.00220077
0.00208001
0.00196077
0.00184191
0.00172407
0.00160779
0.00149266
0.00137842
0.00126518
0.00115248
0.00104013
0.000929309
0.000819245
0.000709437
0.00060043
0.000492353
0.000384078
0.000275332
0.00016678
5.29832e-05
0.00533555
0.00499169
0.00466386
0.00444672
0.00427803
0.00412601
0.0039841
0.00384926
0.0037185
0.00358926
0.00346064
0.00333153
0.00320234
0.00307513
0.00294869
0.00282245
0.00269603
0.00257077
0.00244692
0.002324
0.00220215
0.0020809
0.00196153
0.00184305
0.0017259
0.00160981
0.00149445
0.00137986
0.00126628
0.00115327
0.00104053
0.000929261
0.000818915
0.000708945
0.000599427
0.000491047
0.000382671
0.000273802
0.00016522
5.23253e-05
0.0054507
0.00493084
0.00452757
0.00435057
0.00423116
0.00410731
0.00398119
0.00385509
0.00372805
0.00359917
0.00347209
0.00334511
0.00321598
0.00308863
0.00296196
0.00283497
0.00270793
0.00258215
0.00245785
0.00233481
0.00221268
0.0020907
0.00197062
0.0018513
0.00173215
0.00161458
0.0014984
0.00138335
0.00126958
0.00115646
0.00104345
0.000931689
0.000820898
0.000710665
0.000600872
0.000492239
0.000383702
0.000274561
0.000165899
5.25576e-05
0.00541559
0.00483072
0.00451942
0.00438987
0.00427724
0.00414891
0.00401622
0.00388298
0.0037491
0.00361432
0.00348234
0.00335123
0.00321804
0.00308656
0.00295656
0.00282767
0.00269975
0.0025734
0.00244868
0.00232538
0.0022032
0.00208169
0.00196239
0.00184373
0.0017247
0.00160729
0.00149127
0.0013764
0.00126278
0.00114988
0.0010373
0.000925979
0.000815634
0.000705893
0.000596539
0.000488277
0.000380141
0.000271399
0.000164433
5.07696e-05
0.00545061
0.00493092
0.0045279
0.0043527
0.00423328
0.00410658
0.00397932
0.00385342
0.00372648
0.00359873
0.00347036
0.00334336
0.00321737
0.00308939
0.00296213
0.00283487
0.00270779
0.00258221
0.00245774
0.00233503
0.00221278
0.00209089
0.00197095
0.00185197
0.00173279
0.0016148
0.00149877
0.0013838
0.00127024
0.00115719
0.00104403
0.000932105
0.000821155
0.000710968
0.000601234
0.000492065
0.000383418
0.000274466
0.00016563
5.24313e-05
0.00512265
0.00483029
0.00459678
0.00443429
0.00429097
0.00415258
0.00401844
0.00388646
0.00375455
0.00362229
0.00349021
0.00335896
0.00322834
0.00309688
0.00296653
0.00283736
0.00270951
0.00258345
0.00245862
0.00233555
0.00221274
0.00209126
0.00197141
0.00185258
0.00173386
0.00161543
0.0014991
0.00138384
0.00127001
0.00115694
0.00104409
0.000932251
0.000821336
0.000710984
0.000601197
0.000492381
0.000384048
0.000275319
0.000167151
5.32421e-05
0.00499652
0.00479586
0.00461853
0.00445016
0.0042993
0.00415827
0.00401943
0.00388257
0.0037476
0.00361327
0.00347951
0.0033459
0.00321317
0.00308292
0.0029536
0.00282504
0.00269782
0.00257199
0.00244747
0.00232373
0.00220075
0.00207896
0.00195792
0.00183865
0.00172142
0.00160485
0.00148932
0.00137483
0.00126122
0.00114856
0.00103696
0.000925757
0.000815392
0.000705541
0.000596511
0.0004888
0.000381167
0.000272756
0.000165382
5.25698e-05
0.0048832
0.00472235
0.00458633
0.00444385
0.00430264
0.00416386
0.00402608
0.00388971
0.00375447
0.00361993
0.00348602
0.0033529
0.00322074
0.00308999
0.00296004
0.00283099
0.00270332
0.00257694
0.0024519
0.00232771
0.00220497
0.002083
0.00196163
0.00184197
0.00172426
0.00160759
0.0014915
0.00137668
0.00126273
0.00114964
0.00103727
0.000925367
0.000814556
0.000704652
0.000596015
0.000488264
0.000380129
0.00027182
0.000164486
5.26345e-05
0.00487926
0.004732
0.00460269
0.00446218
0.00431824
0.00417616
0.00403602
0.00389722
0.00375977
0.0036239
0.00348935
0.00335592
0.00322372
0.00309283
0.00296295
0.0028342
0.00270665
0.00258025
0.0024551
0.002331
0.00220806
0.00208604
0.00196506
0.0018455
0.00172719
0.00160988
0.00149369
0.00137906
0.00126564
0.00115267
0.00103993
0.000928207
0.00081745
0.000707415
0.000598409
0.000489637
0.000380404
0.000271402
0.000163533
5.27994e-05
0.00494593
0.00478651
0.00464178
0.00449349
0.00434468
0.00419865
0.00405502
0.00391282
0.00377202
0.00363351
0.00349711
0.00336229
0.00322884
0.00309693
0.0029663
0.00283693
0.00270888
0.00258215
0.0024567
0.0023325
0.00220944
0.00208742
0.00196646