/*--------------------------------*- C++ -*----------------------------------*\
| =========                 |                                                 |
| \\      /  F ield         | OpenFOAM: The Open Source CFD Toolbox           |
|  \\    /   O peration     | Version:  2212                                  |
|   \\  /    A nd           | Website:  www.openfoam.com                      |
|    \\/     M anipulation  |                                                 |
\*---------------------------------------------------------------------------*/
FoamFile
{
    version     2.0;
    format      ascii;
    arch        "LSB;label=32;scalar=64";
    class       surfaceScalarField;
    location    "2.85";
    object      phi;
}
// * * * * * * * * * * * * * * * * * * * * * * * * * * * * * * * * * * * * * //

dimensions      [0 3 -1 0 0 0 0];

oriented        oriented;

internalField   nonuniform List<scalar> 
19019
(
3.32249e-07
1.09684e-09
1.09683e-09
2.7919e-07
2.65297e-08
2.65294e-08
2.49217e-07
1.49868e-08
1.49862e-08
2.29253e-07
9.98268e-09
9.9817e-09
2.14832e-07
7.21147e-09
7.20901e-09
2.03195e-07
5.8206e-09
5.8168e-09
1.93765e-07
4.71896e-09
4.71114e-09
1.85993e-07
3.89306e-09
3.87895e-09
1.79337e-07
3.34042e-09
3.31579e-09
1.73496e-07
2.94162e-09
2.89903e-09
1.68305e-07
2.63045e-09
2.56024e-09
1.63654e-07
2.38363e-09
2.26722e-09
1.59441e-07
2.2068e-09
2.00634e-09
1.55589e-07
2.10554e-09
1.74707e-09
1.5209e-07
2.06096e-09
1.43805e-09
1.48966e-07
2.06457e-09
1.0592e-09
1.46301e-07
2.12049e-09
5.45329e-10
1.44515e-07
2.19457e-09
-4.08694e-10
1.44801e-07
2.64243e-09
-2.92791e-09
-5.19936e-09
-1.92258e-08
6.3138e-07
3.58766e-09
7.40284e-09
6.14563e-07
2.26463e-08
2.07002e-08
5.86444e-07
2.43765e-08
1.8729e-08
5.61724e-07
1.88559e-08
1.58468e-08
5.39615e-07
1.55715e-08
1.37489e-08
5.20634e-07
1.35137e-08
1.12881e-08
5.04688e-07
1.19576e-08
8.70745e-09
4.90934e-07
1.08092e-08
6.83752e-09
4.78712e-07
9.96296e-09
5.59927e-09
4.67632e-07
9.2638e-09
4.75869e-09
4.57462e-07
8.65678e-09
4.14281e-09
4.48066e-07
8.11981e-09
3.66035e-09
4.39332e-07
7.64848e-09
3.2924e-09
4.31177e-07
7.24573e-09
3.01485e-09
4.23594e-07
6.90151e-09
2.74285e-09
4.16788e-07
6.553e-09
2.31774e-09
4.11222e-07
6.05561e-09
1.63028e-09
4.08531e-07
4.77916e-09
1.07022e-10
4.11941e-07
2.39788e-09
-3.16482e-09
-4.83537e-09
-1.41658e-08
8.90375e-07
2.8527e-09
6.3323e-09
8.82486e-07
1.34089e-08
1.71255e-08
8.7036e-07
1.78678e-08
1.86351e-08
8.55114e-07
1.69561e-08
1.71459e-08
8.39986e-07
1.53408e-08
1.53585e-08
8.25542e-07
1.417e-08
1.37873e-08
8.11782e-07
1.3379e-08
1.23385e-08
7.98803e-07
1.26742e-08
1.11149e-08
7.86754e-07
1.1884e-08
1.01274e-08
7.75654e-07
1.10358e-08
9.32855e-09
7.65373e-07
1.02227e-08
8.71459e-09
7.55781e-07
9.46166e-09
8.25065e-09
7.46788e-07
8.75564e-09
7.88552e-09
7.38382e-07
8.08355e-09
7.56842e-09
7.30648e-07
7.39184e-09
7.24367e-09
7.23863e-07
6.54019e-09
6.79818e-09
7.18505e-07
5.35226e-09
6.06117e-09
7.15043e-07
3.53246e-09
4.70925e-09
7.14046e-07
9.18085e-10
2.4763e-09
-5.01192e-09
-2.18027e-09
1.07432e-06
1.06481e-09
5.56886e-09
1.06824e-06
5.58659e-09
1.39001e-08
1.06138e-06
8.46406e-09
1.62613e-08
1.05339e-06
9.0398e-09
1.59075e-08
1.04511e-06
8.61723e-09
1.49992e-08
1.03724e-06
8.11862e-09
1.39289e-08
1.02986e-06
7.78234e-09
1.29707e-08
1.02288e-06
7.54604e-09
1.21049e-08
1.01609e-06
7.3531e-09
1.13294e-08
1.0094e-06
7.05688e-09
1.06658e-08
1.00287e-06
6.59842e-09
1.01545e-08
9.96498e-07
6.07e-09
9.76248e-09
9.90275e-07
5.52363e-09
9.4556e-09
9.84205e-07
4.94681e-09
9.20652e-09
9.78308e-07
4.31565e-09
8.97281e-09
9.72642e-07
3.51786e-09
8.68853e-09
9.673e-07
2.42149e-09
8.27328e-09
9.62341e-07
8.50358e-10
7.64044e-09
9.57742e-07
-1.27574e-09
6.7927e-09
-4.30065e-09
6.03186e-09
1.16914e-06
-1.18188e-13
4.90652e-09
1.16312e-06
-5.74042e-13
1.16083e-08
1.15731e-06
-1.36717e-12
1.42753e-08
1.15202e-06
-2.48197e-12
1.4333e-08
1.14691e-06
-4.30895e-12
1.37287e-08
1.14207e-06
-7.61704e-12
1.29663e-08
1.13777e-06
-1.35901e-11
1.20961e-08
1.13404e-06
-2.34186e-11
1.13006e-08
1.1308e-06
-3.99957e-11
1.06378e-08
1.12775e-06
-6.73329e-11
1.01701e-08
1.1246e-06
-1.12257e-10
9.86385e-09
1.12122e-06
-1.8578e-10
9.63874e-09
1.11756e-06
-3.06822e-10
9.48967e-09
1.11358e-06
-5.03607e-10
9.42746e-09
1.10925e-06
-8.09221e-10
9.451e-09
1.10454e-06
-1.29689e-09
9.53114e-09
1.09938e-06
-2.08225e-09
9.6579e-09
1.0937e-06
-3.30098e-09
9.83493e-09
1.08735e-06
-4.96677e-09
1.0042e-08
-8.11838e-09
1.05532e-08
1.16914e-06
-1.06508e-09
4.90656e-09
1.16312e-06
-5.58752e-09
1.16085e-08
1.15731e-06
-8.46584e-09
1.42753e-08
1.15202e-06
-9.04285e-09
1.43335e-08
1.14691e-06
-8.6231e-09
1.37305e-08
1.14206e-06
-8.12982e-09
1.29701e-08
1.13775e-06
-7.8028e-09
1.2102e-08
1.13399e-06
-7.58174e-09
1.13105e-08
1.13071e-06
-7.41565e-09
1.06549e-08
1.12761e-06
-7.16156e-09
1.01993e-08
1.12435e-06
-6.77027e-09
9.91197e-09
1.1208e-06
-6.35072e-09
9.71954e-09
1.11685e-06
-5.98738e-09
9.6276e-09
1.11241e-06
-5.71883e-09
9.65974e-09
1.10735e-06
-5.58876e-09
9.8376e-09
1.10153e-06
-5.64288e-09
1.01702e-08
1.09473e-06
-5.99075e-09
1.07039e-08
1.08671e-06
-6.769e-09
1.14889e-08
1.07741e-06
-8.13107e-09
1.24589e-08
-1.14162e-08
1.31189e-08
1.07432e-06
-2.85265e-09
5.56885e-09
1.06824e-06
-1.34088e-08
1.39002e-08
1.06138e-06
-1.78677e-08
1.6262e-08
1.05338e-06
-1.69559e-08
1.59098e-08
1.04509e-06
-1.53412e-08
1.50038e-08
1.0372e-06
-1.41718e-08
1.3936e-08
1.0298e-06
-1.3383e-08
1.29813e-08
1.02278e-06
-1.26806e-08
1.21222e-08
1.0159e-06
-1.18957e-08
1.13585e-08
1.00908e-06
-1.10561e-08
1.07158e-08
1.00232e-06
-1.02563e-08
1.0241e-08
9.95576e-07
-9.51998e-09
9.91322e-09
9.88739e-07
-8.86336e-09
9.71349e-09
9.81662e-07
-8.28958e-09
9.64752e-09
9.74125e-07
-7.78603e-09
9.73458e-09
9.65793e-07
-7.33548e-09
1.00246e-08
9.56172e-07
-6.99019e-09
1.06195e-08
9.44588e-07
-6.81959e-09
1.1635e-08
9.30431e-07
-7.06215e-09
1.30876e-08
-9.5867e-09
1.46249e-08
8.90374e-07
-3.58753e-09
6.33239e-09
8.82485e-07
-2.26456e-08
1.71262e-08
8.70356e-07
-2.43757e-08
1.86369e-08
8.55106e-07
-1.88544e-08
1.71488e-08
8.3997e-07
-1.55683e-08
1.53627e-08
8.25513e-07
-1.35082e-08
1.3793e-08
8.11731e-07
-1.19482e-08
1.23478e-08
7.98713e-07
-1.07936e-08
1.11312e-08
7.866e-07
-9.93678e-09
1.01539e-08
7.7539e-07
-9.21902e-09
9.37215e-09
7.64926e-07
-8.5803e-09
8.788e-09
7.55025e-07
-7.99663e-09
8.37829e-09
7.45513e-07
-7.45811e-09
8.10633e-09
7.36231e-07
-6.95141e-09
7.94439e-09
7.2699e-07
-6.44311e-09
7.89748e-09
7.17494e-07
-5.84726e-09
8.0081e-09
7.07285e-07
-5.13275e-09
8.35137e-09
6.95535e-07
-4.11845e-09
9.04946e-09
6.80963e-07
-2.44691e-09
9.95642e-09
-3.30383e-10
1.33889e-08
6.3138e-07
-1.09682e-09
7.40293e-09
6.14563e-07
-2.65294e-08
2.07007e-08
5.86444e-07
-1.49861e-08
1.87299e-08
5.61722e-07
-9.98165e-09
1.58486e-08
5.39611e-07
-7.20896e-09
1.37514e-08
5.20627e-07
-5.81673e-09
1.12931e-08
5.04674e-07
-4.71106e-09
8.71538e-09
4.90909e-07
-3.87886e-09
6.85049e-09
4.78667e-07
-3.31569e-09
5.62114e-09
4.6755e-07
-2.89891e-09
4.79643e-09
4.57314e-07
-2.56008e-09
4.21594e-09
4.47797e-07
-2.26701e-09
3.78753e-09
4.38858e-07
-2.00606e-09
3.48699e-09
4.30367e-07
-1.74669e-09
3.28661e-09
4.222e-07
-1.43769e-09
3.16144e-09
4.14326e-07
-1.05894e-09
3.08546e-09
4.06626e-07
-5.44893e-10
3.11205e-09
3.98983e-07
4.09322e-10
3.11536e-09
3.91172e-07
2.92932e-09
2.43614e-09
1.92281e-08
-1.54283e-10
3.32249e-07
1.09685e-09
2.7919e-07
2.65298e-08
2.49217e-07
1.49868e-08
2.29253e-07
9.98272e-09
2.14832e-07
7.21153e-09
2.03195e-07
5.82065e-09
1.93765e-07
4.71902e-09
1.85993e-07
3.89313e-09
1.79337e-07
3.34049e-09
1.73496e-07
2.94168e-09
1.68306e-07
2.63052e-09
1.63655e-07
2.38373e-09
1.59442e-07
2.20697e-09
1.55589e-07
2.10566e-09
1.52091e-07
2.06095e-09
1.48967e-07
2.06454e-09
1.46302e-07
2.12046e-09
1.44517e-07
2.19449e-09
1.44805e-07
2.64203e-09
-5.20196e-09
6.3138e-07
7.40293e-09
3.58754e-09
6.14563e-07
2.07007e-08
2.26456e-08
5.86444e-07
1.87299e-08
2.43757e-08
5.61722e-07
1.58486e-08
1.88545e-08
5.39611e-07
1.37514e-08
1.55684e-08
5.20627e-07
1.12931e-08
1.35084e-08
5.04674e-07
8.71536e-09
1.19484e-08
4.90909e-07
6.85047e-09
1.07938e-08
4.78666e-07
5.62111e-09
9.93704e-09
4.67549e-07
4.7964e-09
9.21935e-09
4.57313e-07
4.21588e-09
8.58074e-09
4.47796e-07
3.78739e-09
7.99727e-09
4.38856e-07
3.48674e-09
7.45896e-09
4.30365e-07
3.28662e-09
6.95209e-09
4.22197e-07
3.16165e-09
6.4437e-09
4.14323e-07
3.08555e-09
5.8483e-09
4.06621e-07
3.11239e-09
5.13438e-09
3.98975e-07
3.11627e-09
4.12105e-09
3.91158e-07
2.4386e-09
2.45121e-09
-1.47049e-10
3.34092e-10
9.23616e-07
7.03402e-09
7.03384e-09
9.25317e-07
1.98504e-08
1.98497e-08
9.17181e-07
2.27979e-08
2.27966e-08
9.0427e-07
2.23044e-08
2.2302e-08
8.90526e-07
2.06243e-08
2.06204e-08
8.77396e-07
1.78594e-08
1.78519e-08
8.65417e-07
1.4707e-08
1.46947e-08
8.54723e-07
1.22007e-08
1.21809e-08
8.45258e-07
1.03603e-08
1.03255e-08
8.36871e-07
9.00122e-09
8.94061e-09
8.29371e-07
7.98132e-09
7.87765e-09
8.22565e-07
7.21223e-09
7.04134e-09
8.1634e-07
6.63809e-09
6.36532e-09
8.10671e-07
6.20223e-09
5.76823e-09
8.05552e-07
5.86018e-09
5.16398e-09
8.00932e-07
5.56911e-09
4.45358e-09
7.96834e-07
5.28658e-09
3.55441e-09
7.92915e-07
4.88593e-09
2.25628e-09
7.88347e-07
3.85379e-09
-1.19659e-11
6.31535e-10
-3.59354e-09
1.1589e-06
5.28156e-09
6.10248e-09
1.1657e-06
1.39993e-08
1.61825e-08
1.16844e-06
1.7979e-08
2.07056e-08
1.16661e-06
1.91806e-08
2.21032e-08
1.16221e-06
1.88787e-08
2.15032e-08
1.15654e-06
1.75495e-08
1.97664e-08
1.15048e-06
1.56911e-08
1.74198e-08
1.14458e-06
1.38939e-08
1.532e-08
1.13916e-06
1.22966e-08
1.36136e-08
1.13434e-06
1.09039e-08
1.22425e-08
1.13014e-06
9.75432e-09
1.11448e-08
1.12652e-06
8.81599e-09
1.02652e-08
1.12346e-06
8.03798e-09
9.53872e-09
1.12097e-06
7.36667e-09
8.8989e-09
1.11905e-06
6.7397e-09
8.28514e-09
1.1177e-06
6.09821e-09
7.6157e-09
1.11692e-06
5.35047e-09
6.77742e-09
1.11644e-06
4.39677e-09
5.67756e-09
1.11557e-06
3.00107e-09
4.20347e-09
8.44095e-10
2.61897e-09
1.32763e-06
2.71828e-09
4.93101e-09
1.33539e-06
7.12102e-09
1.30087e-08
1.34287e-06
9.55372e-09
1.72152e-08
1.34848e-06
1.05782e-08
1.8898e-08
1.35198e-06
1.08749e-08
1.94988e-08
1.35377e-06
1.05795e-08
1.91117e-08
1.35445e-06
9.88962e-09
1.80956e-08
1.3546e-06
9.04176e-09
1.68036e-08
1.35459e-06
8.18557e-09
1.54525e-08
1.35457e-06
7.37662e-09
1.42149e-08
1.35461e-06
6.64662e-09
1.32153e-08
1.35479e-06
5.98585e-09
1.24179e-08
1.35512e-06
5.3848e-09
1.17742e-08
1.35565e-06
4.80905e-09
1.12407e-08
1.35639e-06
4.19185e-09
1.07712e-08
1.35738e-06
3.48511e-09
1.03151e-08
1.35856e-06
2.62603e-09
9.8214e-09
1.35979e-06
1.54169e-09
9.25889e-09
1.36075e-06
1.57698e-10
8.67708e-09
-1.42902e-09
8.40939e-09
1.41518e-06
-2.3291e-13
4.19283e-09
1.42279e-06
-6.73522e-13
1.11158e-08
1.43152e-06
-1.16376e-12
1.50984e-08
1.43981e-06
-2.1818e-12
1.66289e-08
1.44714e-06
-4.1333e-12
1.72742e-08
1.45319e-06
-7.33185e-12
1.75077e-08
1.45803e-06
-1.21752e-11
1.71497e-08
1.46196e-06
-2.00519e-11
1.64318e-08
1.46528e-06
-3.39144e-11
1.55416e-08
1.46823e-06
-5.89582e-11
1.46546e-08
1.47101e-06
-1.01011e-10
1.38331e-08
1.47368e-06
-1.68516e-10
1.31175e-08
1.47625e-06
-2.69626e-10
1.25815e-08
1.47868e-06
-4.2479e-10
1.2231e-08
1.48098e-06
-6.66996e-10
1.2009e-08
1.48316e-06
-1.03649e-09
1.18758e-08
1.48519e-06
-1.5809e-09
1.18343e-08
1.48702e-06
-2.35553e-09
1.18949e-08
1.48854e-06
-3.37852e-09
1.20636e-08
-4.47989e-09
1.24306e-08
1.41518e-06
-2.71854e-09
4.19296e-09
1.42279e-06
-7.12173e-09
1.11162e-08
1.43152e-06
-9.55502e-09
1.5099e-08
1.4398e-06
-1.05807e-08
1.66303e-08
1.44713e-06
-1.08799e-08
1.72774e-08
1.45317e-06
-1.05881e-08
1.75131e-08
1.458e-06
-9.90418e-09
1.71585e-08
1.46191e-06
-9.06634e-09
1.64454e-08
1.4652e-06
-8.22758e-09
1.55626e-08
1.46811e-06
-7.45345e-09
1.46889e-08
1.47081e-06
-6.78205e-09
1.38911e-08
1.47335e-06
-6.21017e-09
1.3218e-08
1.47568e-06
-5.72775e-09
1.27541e-08
1.47774e-06
-5.34166e-09
1.25149e-08
1.47952e-06
-5.05601e-09
1.24503e-08
1.481e-06
-4.88618e-09
1.25397e-08
1.48214e-06
-4.86668e-09
1.2853e-08
1.48291e-06
-5.04479e-09
1.34036e-08
1.48329e-06
-5.40369e-09
1.41016e-08
-5.77008e-09
1.46046e-08
1.32762e-06
-5.28141e-09
4.93128e-09
1.33539e-06
-1.3999e-08
1.30095e-08
1.34286e-06
-1.79786e-08
1.72171e-08
1.34847e-06
-1.918e-08
1.89023e-08
1.35196e-06
-1.88777e-08
1.95067e-08
1.35373e-06
-1.75474e-08
1.91239e-08
1.35438e-06
-1.56886e-08
1.81146e-08
1.3545e-06
-1.3892e-08
1.68338e-08
1.35442e-06
-1.22927e-08
1.5499e-08
1.35429e-06
-1.08962e-08
1.42909e-08
1.35414e-06
-9.74117e-09
1.33464e-08
1.354e-06
-8.79152e-09
1.26375e-08
1.35385e-06
-7.99358e-09
1.2133e-08
1.35363e-06
-7.29984e-09
1.18235e-08
1.35325e-06
-6.66212e-09
1.17212e-08
1.35258e-06
-6.05033e-09
1.18632e-08
1.35148e-06
-5.44629e-09
1.22907e-08
1.34986e-06
-4.82141e-09
1.30357e-08
1.34752e-06
-3.98319e-09
1.40065e-08
-3.0375e-09
1.46685e-08
1.1589e-06
-7.03384e-09
6.10281e-09
1.16569e-06
-1.98497e-08
1.61838e-08
1.16844e-06
-2.27966e-08
2.07084e-08
1.1666e-06
-2.23019e-08
2.21079e-08
1.1622e-06
-2.06203e-08
2.15102e-08
1.15652e-06
-1.78518e-08
1.97763e-08
1.15044e-06
-1.46946e-08
1.7436e-08
1.14451e-06
-1.21807e-08
1.53483e-08
1.13903e-06
-1.03253e-08
1.36619e-08
1.13413e-06
-8.94034e-09
1.23226e-08
1.12977e-06
-7.87732e-09
1.12774e-08
1.12592e-06
-7.04096e-09
1.04823e-08
1.1225e-06
-6.36481e-09
9.89457e-09
1.11944e-06
-5.76734e-09
9.4789e-09
1.1166e-06
-5.16282e-09
9.23026e-09
1.11384e-06
-4.45239e-09
9.17183e-09
1.11097e-06
-3.55283e-09
9.33389e-09
1.1077e-06
-2.25399e-09
9.74638e-09
1.10344e-06
1.58237e-11
1.02198e-08
3.60008e-09
1.06072e-08
9.23616e-07
-7.40284e-09
7.03403e-09
9.25317e-07
-2.07002e-08
1.98504e-08
9.17181e-07
-1.8729e-08
2.27979e-08
9.0427e-07
-1.58467e-08
2.23044e-08
8.90526e-07
-1.37489e-08
2.06243e-08
8.77396e-07
-1.12881e-08
1.78594e-08
8.65417e-07
-8.7074e-09
1.4707e-08
8.54723e-07
-6.83745e-09
1.22007e-08
8.45258e-07
-5.59917e-09
1.03603e-08
8.36872e-07
-4.75854e-09
9.00125e-09
8.29371e-07
-4.14259e-09
7.98138e-09
8.22566e-07
-3.6601e-09
7.21239e-09
8.16341e-07
-3.2922e-09
6.63848e-09
8.10673e-07
-3.01436e-09
6.20197e-09
8.05554e-07
-2.74194e-09
5.85947e-09
8.00935e-07
-2.31678e-09
5.56886e-09
7.96837e-07
-1.62909e-09
5.28617e-09
7.92919e-07
-1.05357e-10
4.88507e-09
7.88352e-07
3.16735e-09
3.85191e-09
1.41702e-08
6.2725e-10
6.3138e-07
3.58767e-09
6.14563e-07
2.26463e-08
5.86444e-07
2.43766e-08
5.61725e-07
1.88559e-08
5.39616e-07
1.55716e-08
5.20634e-07
1.35138e-08
5.04688e-07
1.19577e-08
4.90935e-07
1.08093e-08
4.78713e-07
9.96301e-09
4.67632e-07
9.26385e-09
4.57463e-07
8.65682e-09
4.48067e-07
8.11984e-09
4.39333e-07
7.64859e-09
4.31178e-07
7.24602e-09
4.23596e-07
6.9018e-09
4.1679e-07
6.55313e-09
4.11226e-07
6.05564e-09
4.08536e-07
4.779e-09
4.11948e-07
2.39792e-09
-4.83434e-09
8.90374e-07
6.33239e-09
2.85266e-09
8.82485e-07
1.71262e-08
1.34088e-08
8.70356e-07
1.86369e-08
1.78678e-08
8.55106e-07
1.71489e-08
1.6956e-08
8.3997e-07
1.53627e-08
1.53414e-08
8.25513e-07
1.3793e-08
1.4172e-08
8.11731e-07
1.23478e-08
1.33832e-08
7.98712e-07
1.11312e-08
1.26809e-08
7.86599e-07
1.0154e-08
1.18961e-08
7.7539e-07
9.37219e-09
1.10566e-08
7.64925e-07
8.78805e-09
1.02569e-08
7.55023e-07
8.37841e-09
9.52073e-09
7.45511e-07
8.10668e-09
8.86428e-09
7.36228e-07
7.94464e-09
8.29063e-09
7.26987e-07
7.89762e-09
7.78733e-09
7.17489e-07
8.00871e-09
7.33729e-09
7.07278e-07
8.35261e-09
6.99283e-09
6.95523e-07
9.05198e-09
6.82338e-09
6.80945e-07
9.9612e-09
7.06775e-09
1.33943e-08
9.59361e-09
1.1589e-06
6.10281e-09
5.28142e-09
1.16569e-06
1.61838e-08
1.3999e-08
1.16844e-06
2.07085e-08
1.79787e-08
1.1666e-06
2.21079e-08
1.91801e-08
1.1622e-06
2.15102e-08
1.88778e-08
1.15652e-06
1.97763e-08
1.75475e-08
1.15044e-06
1.7436e-08
1.56888e-08
1.14451e-06
1.53483e-08
1.38923e-08
1.13903e-06
1.36619e-08
1.2293e-08
1.13413e-06
1.23227e-08
1.08966e-08
1.12977e-06
1.12774e-08
9.74162e-09
1.12592e-06
1.04824e-08
8.79208e-09
1.1225e-06
9.89484e-09
7.99448e-09
1.11943e-06
9.47924e-09
7.3008e-09
1.1166e-06
9.23053e-09
6.66309e-09
1.11384e-06
9.17227e-09
6.05172e-09
1.11096e-06
9.3346e-09
5.44818e-09
1.1077e-06
9.74784e-09
4.82416e-09
1.10344e-06
1.02227e-08
3.98728e-09
1.06105e-08
3.0423e-09
1.37712e-06
4.57761e-09
4.57729e-09
1.38565e-06
1.19179e-08
1.1917e-08
1.39417e-06
1.64486e-08
1.64468e-08
1.40126e-06
1.85632e-08
1.85603e-08
1.40641e-06
1.89339e-08
1.89291e-08
1.4095e-06
1.82272e-08
1.82198e-08
1.41092e-06
1.67243e-08
1.6712e-08
1.4115e-06
1.50559e-08
1.50366e-08
1.41177e-06
1.35201e-08
1.34887e-08
1.41199e-06
1.21951e-08
1.21447e-08
1.41234e-06
1.10754e-08
1.09943e-08
1.41292e-06
1.01486e-08
1.00183e-08
1.41378e-06
9.39343e-09
9.18282e-09
1.41493e-06
8.7841e-09
8.44717e-09
1.41637e-06
8.30065e-09
7.77574e-09
1.41809e-06
7.93303e-09
7.12989e-09
1.42009e-06
7.66255e-09
6.4506e-09
1.42238e-06
7.44965e-09
5.68787e-09
1.42491e-06
7.15029e-09
4.74082e-09
6.47836e-09
3.81029e-09
1.53312e-06
2.36617e-09
3.64921e-09
1.54218e-06
6.23923e-09
9.63359e-09
1.55328e-06
8.87408e-09
1.36913e-08
1.56445e-06
1.03484e-08
1.59358e-08
1.57507e-06
1.09018e-08
1.69104e-08
1.58471e-06
1.07581e-08
1.69434e-08
1.59301e-06
1.01488e-08
1.63737e-08
1.60009e-06
9.33942e-09
1.54416e-08
1.60625e-06
8.47244e-09
1.4338e-08
1.61176e-06
7.65696e-09
1.3241e-08
1.61687e-06
6.93892e-09
1.22436e-08
1.62175e-06
6.31911e-09
1.13718e-08
1.62651e-06
5.77996e-09
1.06212e-08
1.63126e-06
5.29975e-09
9.97471e-09
1.63607e-06
4.85153e-09
9.4104e-09
1.641e-06
4.41837e-09
8.89966e-09
1.6461e-06
3.97011e-09
8.41074e-09
1.65143e-06
3.4707e-09
7.91157e-09
1.657e-06
2.84692e-09
7.40713e-09
2.10429e-09
7.08344e-09
1.61424e-06
-1.63743e-13
3.09277e-09
1.62332e-06
-3.94083e-13
8.27383e-09
1.63534e-06
-7.01691e-13
1.19568e-08
1.6482e-06
-1.27593e-12
1.41138e-08
1.66118e-06
-2.32732e-12
1.5199e-08
1.67387e-06
-3.8735e-12
1.55809e-08
1.68575e-06
-6.46465e-12
1.54268e-08
1.69658e-06
-1.0421e-11
1.49538e-08
1.70633e-06
-1.73158e-11
1.42779e-08
1.71517e-06
-2.91794e-11
1.35005e-08
1.72328e-06
-4.82554e-11
1.27104e-08
1.73082e-06
-7.72148e-11
1.19739e-08
1.73796e-06
-1.18934e-10
1.1337e-08
1.74485e-06
-1.81458e-10
1.08199e-08
1.75157e-06
-2.78639e-10
1.04222e-08
1.75815e-06
-4.23756e-10
1.01414e-08
1.76462e-06
-6.35782e-10
9.96493e-09
1.77103e-06
-9.24202e-10
9.87845e-09
1.77739e-06
-1.30428e-09
9.85964e-09
-1.67341e-09
9.91412e-09
1.61424e-06
-2.36627e-09
3.09294e-09
1.62332e-06
-6.23944e-09
8.27434e-09
1.63533e-06
-8.87447e-09
1.19578e-08
1.6482e-06
-1.03491e-08
1.41158e-08
1.66117e-06
-1.09029e-08
1.52027e-08
1.67385e-06
-1.07597e-08
1.55867e-08
1.68572e-06
-1.01518e-08
1.54352e-08
1.69654e-06
-9.34486e-09
1.49662e-08
1.70627e-06
-8.48198e-09
1.4297e-08
1.71507e-06
-7.67531e-09
1.35309e-08
1.72313e-06
-6.97266e-09
1.27597e-08
1.73059e-06
-6.37577e-09
1.2054e-08
1.73762e-06
-5.86597e-09
1.1466e-08
1.74436e-06
-5.42792e-09
1.10247e-08
1.75085e-06
-5.05243e-09
1.0739e-08
1.75709e-06
-4.73825e-09
1.06097e-08
1.76314e-06
-4.47728e-09
1.06455e-08
1.76903e-06
-4.2523e-09
1.08396e-08
1.77473e-06
-4.02311e-09
1.1122e-08
-3.77612e-09
1.13153e-08
1.53312e-06
-4.57727e-09
3.64963e-09
1.54218e-06
-1.1917e-08
9.63478e-09
1.55327e-06
-1.64467e-08
1.36935e-08
1.56445e-06
-1.85602e-08
1.594e-08
1.57506e-06
-1.8929e-08
1.69173e-08
1.58469e-06
-1.82196e-08
1.69543e-08
1.59297e-06
-1.67118e-08
1.63903e-08
1.60003e-06
-1.50364e-08
1.54683e-08
1.60616e-06
-1.34884e-08
1.43792e-08
1.61161e-06
-1.21443e-08
1.33054e-08
1.61663e-06
-1.09939e-08
1.23469e-08
1.62137e-06
-1.00178e-08
1.15379e-08
1.62593e-06
-9.18209e-09
1.08905e-08
1.63037e-06
-8.44608e-09
1.04065e-08
1.63472e-06
-7.77435e-09
1.00864e-08
1.63904e-06
-7.12835e-09
9.93459e-09
1.64334e-06
-6.44881e-09
9.96197e-09
1.64765e-06
-5.68563e-09
1.01585e-08
1.65193e-06
-4.73797e-09
1.04407e-08
-3.80697e-09
1.0518e-08
1.37712e-06
-6.10247e-09
4.57761e-09
1.38565e-06
-1.61825e-08
1.19179e-08
1.39417e-06
-2.07055e-08
1.64485e-08
1.40126e-06
-2.21031e-08
1.85631e-08
1.40641e-06
-2.15031e-08
1.89338e-08
1.4095e-06
-1.97663e-08
1.82272e-08
1.41092e-06
-1.74197e-08
1.67242e-08
1.4115e-06
-1.53199e-08
1.50558e-08
1.41177e-06
-1.36134e-08
1.352e-08
1.41199e-06
-1.22423e-08
1.2195e-08
1.41234e-06
-1.11444e-08
1.10754e-08
1.41292e-06
-1.02648e-08
1.01485e-08
1.41378e-06
-9.53826e-09
9.39337e-09
1.41493e-06
-8.89773e-09
8.78389e-09
1.41637e-06
-8.28338e-09
8.30042e-09
1.41809e-06
-7.61395e-09
7.93296e-09
1.42009e-06
-6.77525e-09
7.66258e-09
1.42238e-06
-5.67463e-09
7.4496e-09
1.42491e-06
-4.19937e-09
7.1499e-09
-2.61316e-09
6.47811e-09
1.1589e-06
-6.33229e-09
5.28156e-09
1.1657e-06
-1.71255e-08
1.39993e-08
1.16844e-06
-1.86351e-08
1.7979e-08
1.16661e-06
-1.71459e-08
1.91806e-08
1.16221e-06
-1.53584e-08
1.88787e-08
1.15654e-06
-1.37872e-08
1.75495e-08
1.15048e-06
-1.23385e-08
1.5691e-08
1.14458e-06
-1.11148e-08
1.38939e-08
1.13916e-06
-1.01273e-08
1.22966e-08
1.13434e-06
-9.32835e-09
1.09039e-08
1.13014e-06
-8.7143e-09
9.75432e-09
1.12652e-06
-8.25027e-09
8.81606e-09
1.12347e-06
-7.88511e-09
8.03827e-09
1.12097e-06
-7.56775e-09
7.36653e-09
1.11905e-06
-7.24262e-09
6.73926e-09
1.1177e-06
-6.7968e-09
6.09817e-09
1.11692e-06
-6.05916e-09
5.3505e-09
1.11644e-06
-4.70628e-09
4.39658e-09
1.11557e-06
-2.47252e-09
3.0005e-09
2.18477e-09
8.43923e-10
8.90375e-07
2.85271e-09
8.82486e-07
1.34089e-08
8.7036e-07
1.78679e-08
8.55114e-07
1.69561e-08
8.39986e-07
1.53409e-08
8.25543e-07
1.417e-08
8.11783e-07
1.3379e-08
7.98803e-07
1.26742e-08
7.86755e-07
1.1884e-08
7.75654e-07
1.10359e-08
7.65374e-07
1.02227e-08
7.55782e-07
9.46173e-09
7.4679e-07
8.75579e-09
7.38384e-07
8.08403e-09
7.3065e-07
7.3926e-09
7.23865e-07
6.54104e-09
7.18509e-07
5.35318e-09
7.15048e-07
3.53361e-09
7.14053e-07
9.20188e-10
-5.00544e-09
1.07432e-06
5.56885e-09
1.06509e-09
1.06824e-06
1.39002e-08
5.58758e-09
1.06138e-06
1.6262e-08
8.46595e-09
1.05338e-06
1.59098e-08
9.043e-09
1.04509e-06
1.50038e-08
8.62329e-09
1.0372e-06
1.3936e-08
8.13006e-09
1.0298e-06
1.29814e-08
7.8031e-09
1.02277e-06
1.21222e-08
7.58211e-09
1.0159e-06
1.13586e-08
7.41609e-09
1.00907e-06
1.07159e-08
7.1621e-09
1.00232e-06
1.02411e-08
6.7709e-09
9.95575e-07
9.91341e-09
6.35146e-09
9.88737e-07
9.71385e-09
5.98826e-09
9.8166e-07
9.64791e-09
5.72e-09
9.74121e-07
9.73512e-09
5.59031e-09
9.65788e-07
1.00257e-08
5.6449e-09
9.56166e-07
1.06212e-08
5.99348e-09
9.44579e-07
1.16375e-08
6.77264e-09
9.30418e-07
1.3092e-08
8.13608e-09
1.46314e-08
1.14227e-08
1.32762e-06
4.93128e-09
2.71856e-09
1.33539e-06
1.30095e-08
7.12179e-09
1.34286e-06
1.72171e-08
9.5551e-09
1.34847e-06
1.89024e-08
1.05808e-08
1.35196e-06
1.95068e-08
1.088e-08
1.35373e-06
1.9124e-08
1.05883e-08
1.35438e-06
1.81147e-08
9.90442e-09
1.3545e-06
1.68339e-08
9.06665e-09
1.35442e-06
1.54991e-08
8.22795e-09
1.35429e-06
1.4291e-08
7.45392e-09
1.35414e-06
1.33466e-08
6.78262e-09
1.354e-06
1.26377e-08
6.21088e-09
1.35385e-06
1.21335e-08
5.72868e-09
1.35363e-06
1.18238e-08
5.3426e-09
1.35325e-06
1.17214e-08
5.05699e-09
1.35257e-06
1.18638e-08
4.88754e-09
1.35148e-06
1.22916e-08
4.8684e-09
1.34986e-06
1.3037e-08
5.04687e-09
1.34753e-06
1.40082e-08
5.40602e-09
1.46697e-08
5.77192e-09
1.53312e-06
3.64963e-09
2.36629e-09
1.54218e-06
9.63479e-09
6.2395e-09
1.55327e-06
1.36936e-08
8.87455e-09
1.56445e-06
1.594e-08
1.03492e-08
1.57506e-06
1.69174e-08
1.09031e-08
1.58469e-06
1.69544e-08
1.07599e-08
1.59297e-06
1.63904e-08
1.0152e-08
1.60003e-06
1.54684e-08
9.34516e-09
1.60616e-06
1.43793e-08
8.48235e-09
1.61161e-06
1.33055e-08
7.67576e-09
1.61663e-06
1.2347e-08
6.9732e-09
1.62137e-06
1.1538e-08
6.37643e-09
1.62593e-06
1.08907e-08
5.86678e-09
1.63037e-06
1.04067e-08
5.42885e-09
1.63472e-06
1.00865e-08
5.05345e-09
1.63904e-06
9.93459e-09
4.73943e-09
1.64335e-06
9.96186e-09
4.47853e-09
1.64766e-06
1.01581e-08
4.25353e-09
1.65194e-06
1.04398e-08
4.02406e-09
1.05156e-08
3.77616e-09
1.68027e-06
1.89126e-09
1.89109e-09
1.68934e-06
5.09995e-09
5.09941e-09
1.70179e-06
7.46535e-09
7.46431e-09
1.71578e-06
8.94789e-09
8.94615e-09
1.73022e-06
9.69592e-09
9.69309e-09
1.74439e-06
9.86548e-09
9.86095e-09
1.75784e-06
9.65921e-09
9.65228e-09
1.77034e-06
9.20959e-09
9.1992e-09
1.78182e-06
8.62899e-09
8.61374e-09
1.79236e-06
8.01182e-09
7.98919e-09
1.80214e-06
7.42436e-09
7.38967e-09
1.8113e-06
6.90112e-09
6.84623e-09
1.81999e-06
6.45608e-09
6.36726e-09
1.82833e-06
6.09166e-09
5.94896e-09
1.83644e-06
5.8029e-09
5.58231e-09
1.84443e-06
5.5797e-09
5.2603e-09
1.85242e-06
5.41399e-09
4.97305e-09
1.8605e-06
5.28896e-09
4.69612e-09
1.86876e-06
5.16226e-09
4.42576e-09
4.94893e-09
4.21458e-09
1.7569e-06
-1.23945e-14
1.61321e-09
1.76589e-06
2.29581e-14
4.38406e-09
1.77878e-06
6.98529e-14
6.53163e-09
1.79389e-06
1.2748e-13
7.95078e-09
1.81003e-06
2.18677e-13
8.7552e-09
1.82639e-06
3.60009e-13
9.0849e-09
1.84241e-06
4.97157e-13
9.07099e-09
1.85774e-06
3.51148e-13
8.83438e-09
1.87218e-06
-2.01317e-13
8.45996e-09
1.88568e-06
-1.18036e-12
8.01363e-09
1.89827e-06
-2.35666e-12
7.54638e-09
1.91006e-06
-3.12554e-12
7.09491e-09
1.92117e-06
-2.48271e-12
6.68297e-09
1.93176e-06
-3.79432e-13
6.32377e-09
1.94196e-06
1.14557e-12
6.02374e-09
1.9519e-06
-4.37648e-12
5.78555e-09
1.9617e-06
-2.36278e-11
5.60238e-09
1.97147e-06
-6.39082e-11
5.45614e-09
1.98131e-06
-1.31446e-10
5.31689e-09
-2.30019e-10
5.19595e-09
1.7569e-06
-1.89107e-09
1.61335e-09
1.76589e-06
-5.09935e-09
4.38445e-09
1.77878e-06
-7.46422e-09
6.5324e-09
1.79389e-06
-8.94604e-09
7.95213e-09
1.81003e-06
-9.69293e-09
8.75741e-09
1.82639e-06
-9.86074e-09
9.08832e-09
1.8424e-06
-9.65201e-09
9.07601e-09
1.85772e-06
-9.19887e-09
8.84171e-09
1.87216e-06
-8.61333e-09
8.47089e-09
1.88565e-06
-7.9887e-09
8.03021e-09
1.89822e-06
-7.38908e-09
7.57188e-09
1.90999e-06
-6.84552e-09
7.13446e-09
1.92107e-06
-6.3664e-09
6.74451e-09
1.93162e-06
-5.94792e-09
6.41927e-09
1.94178e-06
-5.58108e-09
6.17017e-09
1.95164e-06
-5.25888e-09
6.0013e-09
1.96132e-06
-4.97147e-09
5.90781e-09
1.97092e-06
-4.6944e-09
5.87156e-09
1.98049e-06
-4.42404e-09
5.84655e-09
-4.21315e-09
5.76369e-09
1.68027e-06
-3.6492e-09
1.89126e-09
1.68934e-06
-9.63355e-09
5.09993e-09
1.70179e-06
-1.36912e-08
7.4653e-09
1.71578e-06
-1.59357e-08
8.94782e-09
1.73022e-06
-1.69103e-08
9.69582e-09
1.74439e-06
-1.69432e-08
9.86536e-09
1.75784e-06
-1.63735e-08
9.65908e-09
1.77034e-06
-1.54413e-08
9.20945e-09
1.78182e-06
-1.43376e-08
8.62883e-09
1.79236e-06
-1.32406e-08
8.01167e-09
1.80214e-06
-1.22431e-08
7.42422e-09
1.8113e-06
-1.13712e-08
6.90101e-09
1.81999e-06
-1.06204e-08
6.45601e-09
1.82833e-06
-9.9736e-09
6.09166e-09
1.83644e-06
-9.40897e-09
5.80304e-09
1.84443e-06
-8.89798e-09
5.58006e-09
1.85242e-06
-8.40877e-09
5.41469e-09
1.8605e-06
-7.90922e-09
5.29016e-09
1.86876e-06
-7.40457e-09
5.16429e-09
-7.08132e-09
4.95249e-09
1.53312e-06
-4.931e-09
2.36617e-09
1.54218e-06
-1.30087e-08
6.23922e-09
1.55328e-06
-1.72152e-08
8.87404e-09
1.56445e-06
-1.88979e-08
1.03483e-08
1.57507e-06
-1.94987e-08
1.09018e-08
1.58471e-06
-1.91116e-08
1.0758e-08
1.59301e-06
-1.80955e-08
1.01487e-08
1.60009e-06
-1.68035e-08
9.33931e-09
1.60625e-06
-1.54523e-08
8.47234e-09
1.61176e-06
-1.42146e-08
7.65687e-09
1.61687e-06
-1.32149e-08
6.93886e-09
1.62175e-06
-1.24174e-08
6.31909e-09
1.62651e-06
-1.17736e-08
5.77998e-09
1.63126e-06
-1.12396e-08
5.29972e-09
1.63607e-06
-1.07696e-08
4.85152e-09
1.641e-06
-1.03131e-08
4.4186e-09
1.6461e-06
-9.81875e-09
3.97064e-09
1.65143e-06
-9.25519e-09
3.4715e-09
1.657e-06
-8.67258e-09
2.84788e-09
-8.40801e-09
2.10573e-09
1.32763e-06
-5.56885e-09
2.71828e-09
1.33539e-06
-1.39001e-08
7.12101e-09
1.34287e-06
-1.62613e-08
9.5537e-09
1.34848e-06
-1.59075e-08
1.05781e-08
1.35198e-06
-1.49992e-08
1.08749e-08
1.35377e-06
-1.39288e-08
1.05795e-08
1.35445e-06
-1.29706e-08
9.88955e-09
1.3546e-06
-1.21048e-08
9.04169e-09
1.35459e-06
-1.13293e-08
8.18549e-09
1.35457e-06
-1.06656e-08
7.37655e-09
1.35461e-06
-1.01543e-08
6.64657e-09
1.35479e-06
-9.76214e-09
5.98585e-09
1.35512e-06
-9.45519e-09
5.38492e-09
1.35565e-06
-9.20594e-09
4.80903e-09
1.3564e-06
-8.97189e-09
4.19171e-09
1.35738e-06
-8.68701e-09
3.48515e-09
1.35856e-06
-8.27063e-09
2.62616e-09
1.3598e-06
-7.63599e-09
1.54175e-09
1.36075e-06
-6.78599e-09
1.57678e-10
-6.02511e-09
-1.42628e-09
1.07432e-06
1.06481e-09
1.06824e-06
5.5866e-09
1.06138e-06
8.46407e-09
1.05339e-06
9.03979e-09
1.04511e-06
8.61722e-09
1.03724e-06
8.11861e-09
1.02986e-06
7.78232e-09
1.02289e-06
7.54602e-09
1.01609e-06
7.35307e-09
1.0094e-06
7.05686e-09
1.00287e-06
6.59841e-09
9.965e-07
6.07001e-09
9.90277e-07
5.52369e-09
9.84207e-07
4.94709e-09
9.78312e-07
4.31618e-09
9.72647e-07
3.51841e-09
9.67308e-07
2.4218e-09
9.62355e-07
8.50381e-10
9.57765e-07
-1.27584e-09
-4.29967e-09
1.16914e-06
4.90655e-09
1.21126e-13
1.16312e-06
1.16085e-08
6.21898e-13
1.15731e-06
1.42754e-08
1.49136e-12
1.15202e-06
1.43336e-08
2.64018e-12
1.14691e-06
1.37306e-08
4.50998e-12
1.14206e-06
1.29701e-08
7.86855e-12
1.13775e-06
1.2102e-08
1.38989e-11
1.13399e-06
1.13106e-08
2.37946e-11
1.13071e-06
1.0655e-08
4.04484e-11
1.12761e-06
1.01994e-08
6.7872e-11
1.12435e-06
9.9121e-09
1.12895e-10
1.1208e-06
9.71969e-09
1.86528e-10
1.11685e-06
9.62781e-09
3.07702e-10
1.11241e-06
9.66005e-09
5.04683e-10
1.10735e-06
9.83806e-09
8.10593e-10
1.10152e-06
1.01709e-08
1.29864e-09
1.09473e-06
1.07047e-08
2.08453e-09
1.08671e-06
1.14902e-08
3.30399e-09
1.07741e-06
1.24609e-08
4.97072e-09
1.31218e-08
8.12362e-09
1.41518e-06
4.19296e-09
2.5072e-13
1.42279e-06
1.11162e-08
7.36977e-13
1.43152e-06
1.5099e-08
1.2545e-12
1.4398e-06
1.66303e-08
2.30331e-12
1.44713e-06
1.72775e-08
4.29621e-12
1.45317e-06
1.75132e-08
7.54649e-12
1.458e-06
1.71586e-08
1.24479e-11
1.46191e-06
1.64456e-08
2.03917e-11
1.4652e-06
1.55627e-08
3.43319e-11
1.46811e-06
1.46891e-08
5.94655e-11
1.47081e-06
1.38913e-08
1.01625e-10
1.47335e-06
1.32183e-08
1.69253e-10
1.47568e-06
1.27544e-08
2.70498e-10
1.47774e-06
1.25151e-08
4.25762e-10
1.47952e-06
1.24506e-08
6.68068e-10
1.481e-06
1.25402e-08
1.03773e-09
1.48214e-06
1.28536e-08
1.5823e-09
1.48291e-06
1.34044e-08
2.35698e-09
1.4833e-06
1.41025e-08
3.37967e-09
1.46049e-08
4.47979e-09
1.61424e-06
3.09295e-09
1.86131e-13
1.62332e-06
8.27436e-09
4.52778e-13
1.63533e-06
1.19578e-08
7.85587e-13
1.6482e-06
1.41159e-08
1.39064e-12
1.66117e-06
1.52028e-08
2.48332e-12
1.67385e-06