/*--------------------------------*- C++ -*----------------------------------*\
| =========                 |                                                 |
| \\      /  F ield         | OpenFOAM: The Open Source CFD Toolbox           |
|  \\    /   O peration     | Version:  2212                                  |
|   \\  /    A nd           | Website:  www.openfoam.com                      |
|    \\/     M anipulation  |                                                 |
\*---------------------------------------------------------------------------*/
FoamFile
{
    version     2.0;
    format      ascii;
    arch        "LSB;label=32;scalar=64";
    class       volVectorField;
    location    "2.85";
    object      U;
}
// * * * * * * * * * * * * * * * * * * * * * * * * * * * * * * * * * * * * * //

dimensions      [0 1 -1 0 0 0 0];

internalField   nonuniform List<vector> 
6840
(
(0.0956456 -0.00836005 -0.00836005)
(0.0904939 0.00152206 0.00152198)
(0.0790682 0.00242983 0.00242967)
(0.0713011 0.00148791 0.00148756)
(0.0661793 0.000830798 0.000830118)
(0.0623224 0.000564188 0.000563073)
(0.0592204 0.000427448 0.000424948)
(0.0566843 0.000325891 0.000321546)
(0.0545488 0.000256276 0.000249131)
(0.0526957 0.000207965 0.00019621)
(0.0510567 0.000175466 0.000155451)
(0.0495939 0.000155359 0.000122022)
(0.0482752 0.000144059 9.09716e-05)
(0.0470718 0.000140936 5.82674e-05)
(0.0459712 0.000147393 2.04547e-05)
(0.0449783 0.000169186 -9.54203e-06)
(0.0441103 0.000221871 -9.41751e-05)
(0.0434238 0.000300928 -0.000252137)
(0.0432795 0.00035725 -0.000571104)
(0.0418732 -0.000905652 -0.00259249)
(0.0999088 0.001297 0.000712544)
(0.0969668 0.00365598 0.00274719)
(0.0935345 0.00264036 0.00211801)
(0.0895892 0.0018207 0.00162036)
(0.085832 0.00152933 0.00139023)
(0.0825899 0.00135216 0.00116051)
(0.0798649 0.00118094 0.000896031)
(0.0775665 0.00104329 0.00069046)
(0.0755569 0.000947565 0.000557712)
(0.0737498 0.000873878 0.000475142)
(0.0720997 0.000807082 0.000423697)
(0.0705785 0.000743004 0.000389746)
(0.0691673 0.000689004 0.000367142)
(0.0678521 0.000651267 0.000354703)
(0.0666249 0.000629916 0.000341936)
(0.0654985 0.000620466 0.000298231)
(0.0645284 0.000615339 0.000216042)
(0.0638399 0.000572699 -8.01925e-07)
(0.0638152 0.000618695 -0.000250665)
(0.0618489 0.00030859 -0.000755382)
(0.099413 0.000345249 0.000270225)
(0.0988664 0.00201913 0.00187483)
(0.0979216 0.00257331 0.00218881)
(0.0963662 0.00238019 0.00190806)
(0.0946341 0.00211465 0.00162618)
(0.0929736 0.00192767 0.00141788)
(0.0913666 0.00180293 0.00126996)
(0.0898582 0.00170786 0.00115797)
(0.088462 0.00160891 0.00106662)
(0.0871705 0.00150108 0.00099297)
(0.0859778 0.00139478 0.000942051)
(0.0848717 0.00129721 0.000909573)
(0.0838369 0.00120833 0.000889613)
(0.0828666 0.0011243 0.00087582)
(0.0819632 0.00104066 0.000861136)
(0.0811446 0.000948432 0.00083116)
(0.0804535 0.000828747 0.000772112)
(0.0799477 0.000643751 0.00063423)
(0.0796871 0.000300091 0.000399116)
(0.0790229 -0.000772905 -0.000133545)
(0.0995405 0.000245037 0.000321897)
(0.0992576 0.00105559 0.00154091)
(0.0988491 0.00150229 0.00211436)
(0.0981252 0.00157933 0.00209148)
(0.0973379 0.00151454 0.00188591)
(0.0965868 0.00144579 0.00166554)
(0.0958687 0.00140892 0.00149758)
(0.0952032 0.00137687 0.00137089)
(0.0945783 0.00132951 0.00128366)
(0.0939393 0.00125591 0.00122708)
(0.0933206 0.00116228 0.00118817)
(0.0927226 0.00106 0.00116226)
(0.0921396 0.000956438 0.00114664)
(0.0915698 0.000851837 0.00113807)
(0.0910143 0.000741916 0.0011304)
(0.090476 0.000607284 0.00111586)
(0.0899611 0.000427702 0.00108568)
(0.0894792 0.000165744 0.00103259)
(0.0890442 -0.000217064 0.000964622)
(0.0885172 -0.000772578 0.000952999)
(0.0993801 3.37585e-05 5.89522e-05)
(0.0992678 0.000274297 0.00120001)
(0.0989805 0.000432158 0.00188842)
(0.098475 0.000483065 0.00200631)
(0.0979963 0.000478114 0.00191438)
(0.0975723 0.000464157 0.00173424)
(0.0971835 0.000450329 0.00154653)
(0.0968352 0.00043791 0.00138737)
(0.0965374 0.000428567 0.00126806)
(0.0962866 0.000415459 0.00119625)
(0.0960184 0.000389729 0.00116715)
(0.0957343 0.000352037 0.0011624)
(0.0954349 0.000304569 0.00116726)
(0.0951112 0.000246155 0.00117749)
(0.094758 0.000177152 0.0011963)
(0.0943735 8.60924e-05 0.00122448)
(0.0939553 -4.55346e-05 0.00126071)
(0.0934974 -0.000238 0.00130683)
(0.0929711 -0.000501901 0.00136379)
(0.0923499 -0.00089609 0.00148384)
(0.0993802 -3.3791e-05 5.90029e-05)
(0.0992677 -0.000274462 0.00120004)
(0.0989805 -0.000432519 0.00188843)
(0.0984748 -0.000483703 0.00200638)
(0.0979958 -0.000479234 0.00191455)
(0.0975713 -0.000466173 0.00173462)
(0.0971816 -0.000453976 0.00154709)
(0.096832 -0.00044424 0.00138833)
(0.096532 -0.00043938 0.00126989)
(0.0962774 -0.00043368 0.00119959)
(0.0960027 -0.000420111 0.00117285)
(0.0957077 -0.000402168 0.00117193)
(0.0953897 -0.000387081 0.00118324)
(0.0950349 -0.000381606 0.00120438)
(0.0946319 -0.00039567 0.00124249)
(0.0941722 -0.000438359 0.00130331)
(0.0936399 -0.000524995 0.00138901)
(0.0930235 -0.000674373 0.00150909)
(0.0922574 -0.00089102 0.00166059)
(0.0913364 -0.00142801 0.0017326)
(0.0995405 -0.000245048 0.000321897)
(0.0992576 -0.00105564 0.00154091)
(0.0988489 -0.0015024 0.00211447)
(0.0981247 -0.00157952 0.00209168)
(0.0973366 -0.00151504 0.00188623)
(0.0965843 -0.00144685 0.00166604)
(0.0958643 -0.00141087 0.00149817)
(0.0951957 -0.00138016 0.00137189)
(0.0945651 -0.00133537 0.00128591)
(0.0939166 -0.00126542 0.00123212)
(0.0932822 -0.00117727 0.00119795)
(0.0926577 -0.00108395 0.00118039)
(0.0920308 -0.000996875 0.00117652)
(0.0913888 -0.000921626 0.00118699)
(0.0907154 -0.000860275 0.00121524)
(0.0899877 -0.000813614 0.00126884)
(0.0891676 -0.000792123 0.00136369)
(0.0882019 -0.000807348 0.00151704)
(0.087008 -0.000890033 0.0017458)
(0.0856963 -0.00119886 0.00199235)
(0.099413 -0.000345229 0.000270232)
(0.0988664 -0.00201903 0.00187491)
(0.0979214 -0.00257311 0.00218905)
(0.0963656 -0.00237984 0.00190847)
(0.0946329 -0.00211411 0.00162677)
(0.0929712 -0.0019268 0.00141872)
(0.0913623 -0.00180166 0.00127134)
(0.0898507 -0.00170583 0.0011603)
(0.0884489 -0.00160553 0.00107037)
(0.0871484 -0.00149551 0.000999158)
(0.0859403 -0.00138562 0.000951811)
(0.0848077 -0.00128259 0.000926567)
(0.0837287 -0.00118612 0.000919192)
(0.082684 -0.00109253 0.000926743)
(0.0816548 -0.00099814 0.000950075)
(0.0806164 -0.000898907 0.000995705)
(0.0795303 -0.000788841 0.0010778)
(0.0783093 -0.000660891 0.0012204)
(0.0768822 -0.000516175 0.00140131)
(0.0754564 -0.000564949 0.00225766)
(0.0999088 -0.00129699 0.000712563)
(0.0969668 -0.00365583 0.00274729)
(0.0935345 -0.00264013 0.00211821)
(0.089589 -0.00182031 0.00162075)
(0.0858315 -0.00152849 0.00139079)
(0.082589 -0.00135084 0.00116154)
(0.0798634 -0.00117855 0.000897734)
(0.0775636 -0.00103919 0.000693216)
(0.0755517 -0.000940512 0.000562325)
(0.0737405 -0.000861678 0.000482955)
(0.0720827 -0.000785979 0.000438848)
(0.0705473 -0.000707774 0.000416187)
(0.0691116 -0.00063212 0.000406003)
(0.0677561 -0.000558768 0.000404037)
(0.0664619 -0.000473259 0.000412508)
(0.0652151 -0.000344017 0.000432147)
(0.0640032 -0.000174896 0.000478026)
(0.0627946 7.66962e-05 0.000546962)
(0.0615436 0.000526881 0.000631762)
(0.0603377 0.00172758 0.000765503)
(0.0956456 0.00836005 -0.00836004)
(0.0904939 -0.00152198 0.00152207)
(0.0790682 -0.00242967 0.00242983)
(0.0713011 -0.00148756 0.00148792)
(0.0661793 -0.000830109 0.000830808)
(0.0623224 -0.000563062 0.000564199)
(0.0592205 -0.000424935 0.000427462)
(0.0566843 -0.00032153 0.000325905)
(0.0545488 -0.000249114 0.000256291)
(0.0526958 -0.000196191 0.000207977)
(0.0510568 -0.000155431 0.000175476)
(0.0495941 -0.000121997 0.000155366)
(0.0482753 -9.0945e-05 0.000144061)
(0.0470721 -5.82322e-05 0.000140909)
(0.0459714 -2.04237e-05 0.000147343)
(0.0449786 9.55338e-06 0.000169159)
(0.0441107 9.41921e-05 0.000221855)
(0.0434244 0.000252155 0.000300908)
(0.0432804 0.000571133 0.000357038)
(0.0418746 0.00259278 -0.00090601)
(0.0999088 0.000712563 0.00129699)
(0.0969668 0.00274729 0.00365584)
(0.0935345 0.00211821 0.00264014)
(0.089589 0.00162075 0.00182032)
(0.0858315 0.00139079 0.00152851)
(0.082589 0.00116153 0.00135086)
(0.0798633 0.00089773 0.00117858)
(0.0775635 0.000693212 0.00103922)
(0.0755516 0.000562322 0.000940548)
(0.0737405 0.000482954 0.00086172)
(0.0720826 0.000438851 0.000786029)
(0.0705472 0.000416196 0.000707835)
(0.0691113 0.000406029 0.00063219)
(0.0677558 0.000404073 0.000558822)
(0.0664616 0.000412558 0.000473299)
(0.0652146 0.000432222 0.000344065)
(0.0640026 0.000478145 0.00017498)
(0.0627936 0.000547165 -7.65776e-05)
(0.061542 0.000632141 -0.000526633)
(0.0603349 0.000766304 -0.00172668)
(0.100226 0.000720833 0.000720801)
(0.09996 0.0019828 0.00198266)
(0.0997822 0.00245206 0.00245172)
(0.098788 0.00242001 0.0024194)
(0.0972753 0.00220142 0.00220047)
(0.0957743 0.00181246 0.00181075)
(0.0943919 0.00138396 0.00138116)
(0.0931623 0.00107279 0.00106806)
(0.0920742 0.000858535 0.000850382)
(0.0911104 0.000709524 0.000695356)
(0.0902551 0.000603443 0.000577762)
(0.0894844 0.000527676 0.000485157)
(0.0887785 0.000477954 0.000411961)
(0.0881339 0.000448309 0.000347828)
(0.0875507 0.00043619 0.00027514)
(0.0870242 0.000445707 0.000171744)
(0.0865505 0.000481507 2.12374e-05)
(0.0861154 0.000535286 -0.000227532)
(0.0856671 0.000515896 -0.000707267)
(0.0855235 0.000176099 -0.00164664)
(0.10014 0.000775042 0.000869227)
(0.100454 0.00196248 0.00196347)
(0.100911 0.00242768 0.00233429)
(0.100978 0.00252689 0.00244091)
(0.100694 0.00242677 0.00233622)
(0.100225 0.00219834 0.00211173)
(0.0997094 0.00191805 0.0018221)
(0.0991846 0.00166791 0.00157353)
(0.0986907 0.00146634 0.0013865)
(0.0982451 0.00130213 0.00124466)
(0.0978548 0.00116799 0.00113797)
(0.0975174 0.00105976 0.00105817)
(0.0972295 0.000972788 0.000994355)
(0.0969894 0.000902739 0.000936835)
(0.0967982 0.000845476 0.00087803)
(0.0966566 0.000794514 0.000805722)
(0.0965648 0.000740741 0.000697554)
(0.0965162 0.000676506 0.00053161)
(0.0964625 0.000562764 0.000284366)
(0.0965491 0.000288679 -3.07302e-05)
(0.100093 0.000445937 0.000763191)
(0.100504 0.00119452 0.00174899)
(0.101105 0.00158686 0.00212947)
(0.101635 0.00174049 0.00223443)
(0.10198 0.00178236 0.00228659)
(0.102172 0.00172919 0.00223525)
(0.102254 0.00160833 0.00211493)
(0.102279 0.00146066 0.00196319)
(0.102283 0.0013057 0.00180018)
(0.102278 0.00115717 0.00164974)
(0.102276 0.00102911 0.00153884)
(0.102284 0.000919625 0.00145872)
(0.102303 0.000823246 0.00139904)
(0.102334 0.000733687 0.00135305)
(0.102381 0.000641851 0.00131462)
(0.102447 0.000542595 0.00127636)
(0.102529 0.000426031 0.00122981)
(0.102622 0.000279583 0.001168)
(0.102711 8.87211e-05 0.00109656)
(0.102913 -0.000144511 0.00105461)
(0.100087 0.000144369 0.000707008)
(0.100477 0.00039044 0.00161776)
(0.101066 0.000541019 0.00203462)
(0.101694 0.000609976 0.00211753)
(0.102269 0.000635648 0.00214988)
(0.102743 0.000626122 0.00217928)
(0.103125 0.000593634 0.00213339)
(0.10343 0.000547339 0.00204333)
(0.103683 0.000500471 0.00193383)
(0.103903 0.000455006 0.00182775)
(0.104103 0.000407119 0.00172922)
(0.104295 0.000356743 0.00164217)
(0.104482 0.000306238 0.00158137)
(0.104658 0.000252601 0.00154901)
(0.104824 0.000188422 0.0015357)
(0.104984 0.000108668 0.00153274)
(0.105133 7.7864e-06 0.00154092)
(0.105269 -0.000122886 0.00156189)
(0.105395 -0.000289927 0.00159611)
(0.105627 -0.000470982 0.00166153)
(0.100087 -0.000144424 0.000707014)
(0.100477 -0.000390607 0.00161777)
(0.101066 -0.000541309 0.00203461)
(0.101694 -0.000610495 0.00211761)
(0.102269 -0.000636639 0.00215021)
(0.102742 -0.000627906 0.00217989)
(0.103124 -0.000596597 0.00213434)
(0.103427 -0.000552254 0.00204483)
(0.103679 -0.000508916 0.0019361)
(0.103896 -0.000469813 0.00183143)
(0.104092 -0.000432563 0.00173531)
(0.104277 -0.000399007 0.00165284)
(0.104452 -0.000373269 0.00160019)
(0.104608 -0.000357598 0.00158059)
(0.104741 -0.000354032 0.00158535)
(0.104858 -0.000368474 0.00160912)
(0.104952 -0.000406821 0.00166367)
(0.10502 -0.000474633 0.0017514)
(0.105071 -0.000574003 0.00186039)
(0.105268 -0.00069125 0.00193289)
(0.100093 -0.000445939 0.000763204)
(0.100504 -0.00119452 0.00174903)
(0.101105 -0.00158688 0.00212962)
(0.101634 -0.00174058 0.00223498)
(0.101979 -0.00178255 0.00228766)
(0.10217 -0.0017295 0.00223681)
(0.102251 -0.00160899 0.00211729)
(0.102273 -0.00146187 0.00196679)
(0.102273 -0.00130763 0.00180558)
(0.102263 -0.00116107 0.00165838)
(0.10225 -0.00103606 0.00155396)
(0.102239 -0.000930883 0.00148445)
(0.102228 -0.00083884 0.00144219)
(0.102215 -0.00075833 0.00142491)
(0.102194 -0.000685904 0.0014344)
(0.102157 -0.000619062 0.0014765)
(0.102091 -0.000560468 0.00155874)
(0.10199 -0.000513772 0.00169134)
(0.101856 -0.00047045 0.00185951)
(0.101996 -0.000422599 0.00196759)
(0.10014 -0.000775004 0.000869272)
(0.100454 -0.00196237 0.00196368)
(0.100911 -0.00242747 0.00233477)
(0.100978 -0.00252645 0.0024417)
(0.100693 -0.00242601 0.00233739)
(0.100223 -0.00219703 0.00211329)
(0.0997069 -0.00191601 0.00182454)
(0.0991802 -0.00166486 0.00157786)
(0.098683 -0.00146111 0.00139392)
(0.0982315 -0.00129293 0.00125707)
(0.0978314 -0.00115299 0.00115885)
(0.0974776 -0.00103476 0.00109282)
(0.0971647 -0.000931348 0.00105166)
(0.0968862 -0.000833789 0.00103069)
(0.0966337 -0.000734824 0.00103198)
(0.0963949 -0.000627286 0.00106311)
(0.0961548 -0.000499351 0.00113263)
(0.0958903 -0.000334511 0.00125271)
(0.0955678 -9.8763e-05 0.00139258)
(0.0955759 0.000172505 0.00148181)
(0.100226 -0.000720801 0.000720833)
(0.09996 -0.00198266 0.00198281)
(0.0997822 -0.00245171 0.00245207)
(0.098788 -0.0024194 0.00242002)
(0.0972753 -0.00220046 0.00220143)
(0.0957743 -0.00181074 0.00181246)
(0.0943919 -0.00138114 0.00138396)
(0.0931624 -0.00106804 0.00107279)
(0.0920743 -0.00085036 0.000858542)
(0.0911104 -0.000695329 0.000709532)
(0.0902552 -0.00057773 0.000603455)
(0.0894845 -0.000485132 0.000527699)
(0.0887786 -0.000411956 0.000477993)
(0.0881341 -0.000347738 0.000448254)
(0.0875509 -0.000274977 0.000436086)
(0.0870245 -0.000171638 0.000445673)
(0.0865509 -2.11178e-05 0.000481452)
(0.0861158 0.000227688 0.000535185)
(0.0856675 0.000707556 0.000515662)
(0.085524 0.00164733 0.000175431)
(0.0999088 -0.000712544 0.001297)
(0.0969668 -0.00274719 0.00365598)
(0.0935345 -0.00211801 0.00264036)
(0.0895892 -0.00162035 0.00182071)
(0.085832 -0.00139023 0.00152935)
(0.0825899 -0.00116051 0.00135217)
(0.0798649 -0.000896026 0.00118096)
(0.0775665 -0.000690453 0.00104331)
(0.075557 -0.0005577 0.000947579)
(0.0737499 -0.000475126 0.000873891)
(0.0720998 -0.000423672 0.000807092)
(0.0705786 -0.000389714 0.000743014)
(0.0691675 -0.000367112 0.000689026)
(0.0678523 -0.000354687 0.000651285)
(0.0666251 -0.000341891 0.000629902)
(0.0654989 -0.000298132 0.000620438)
(0.0645289 -0.000215895 0.000615334)
(0.0638406 9.98482e-07 0.000572705)
(0.0638162 0.00025089 0.000618768)
(0.0618499 0.000755833 0.000308593)
(0.099413 0.000270232 0.000345231)
(0.0988664 0.00187491 0.00201904)
(0.0979214 0.00218905 0.00257313)
(0.0963656 0.00190847 0.00237986)
(0.0946329 0.00162677 0.00211414)
(0.0929712 0.00141872 0.00192683)
(0.0913623 0.00127134 0.0018017)
(0.0898507 0.0011603 0.00170587)
(0.0884489 0.00107037 0.00160558)
(0.0871483 0.000999163 0.00149557)
(0.0859402 0.000951824 0.00138569)
(0.0848076 0.000926595 0.00128269)
(0.0837285 0.000919242 0.00118625)
(0.0826838 0.000926797 0.00109266)
(0.0816544 0.000950135 0.000998256)
(0.0806159 0.000995819 0.000899073)
(0.0795296 0.001078 0.00078909)
(0.0783083 0.00122077 0.000661279)
(0.0768805 0.00140191 0.000516717)
(0.0754538 0.00225801 0.000565392)
(0.10014 0.000869272 0.000775006)
(0.100454 0.00196368 0.00196238)
(0.100911 0.00233477 0.00242748)
(0.100978 0.0024417 0.00252646)
(0.100693 0.00233739 0.00242602)
(0.100223 0.00211329 0.00219705)
(0.0997069 0.00182454 0.00191603)
(0.0991802 0.00157786 0.00166489)
(0.098683 0.00139392 0.00146115)
(0.0982315 0.00125707 0.00129298)
(0.0978313 0.00115886 0.00115304)
(0.0974775 0.00109283 0.00103482)
(0.0971646 0.00105172 0.000931455)
(0.0968861 0.00103073 0.000833901)
(0.0966336 0.00103199 0.000734925)
(0.0963947 0.00106317 0.000627432)
(0.0961547 0.00113274 0.000499549)
(0.0958902 0.00125295 0.00033481)
(0.0955678 0.00139308 9.92551e-05)
(0.0955761 0.00148243 -0.000171932)
(0.10006 0.000641441 0.000641379)
(0.100501 0.0016452 0.001645)
(0.101149 0.00221272 0.00221233)
(0.101738 0.00244053 0.00243985)
(0.102205 0.0024428 0.0024417)
(0.102501 0.0023148 0.00231309)
(0.102645 0.00209465 0.00209182)
(0.102713 0.00187242 0.0018679)
(0.102739 0.0016766 0.0016692)
(0.102752 0.00151379 0.00150162)
(0.10277 0.00138104 0.00136115)
(0.102803 0.00127501 0.00124277)
(0.102854 0.00119316 0.00114114)
(0.102927 0.00113334 0.00104975)
(0.103021 0.0010946 0.000961445)
(0.103136 0.00107771 0.000867688)
(0.103272 0.00108434 0.000759195)
(0.103428 0.00111208 0.000629686)
(0.103606 0.00114315 0.000468894)
(0.103919 0.00112506 0.000330361)
(0.100046 0.000395744 0.000540226)
(0.10048 0.00104494 0.00138404)
(0.101154 0.00147551 0.00192286)
(0.101913 0.00170549 0.00219236)
(0.102632 0.00178051 0.00229371)
(0.103302 0.00174553 0.00227768)
(0.103894 0.00163533 0.00218472)
(0.104391 0.0014933 0.0020511)
(0.104819 0.00134783 0.00190282)
(0.105198 0.00121401 0.00176239)
(0.105542 0.00109678 0.00163818)
(0.105866 0.000996676 0.00153151)
(0.106179 0.000911507 0.00144104)
(0.106489 0.000838345 0.00136384)
(0.1068 0.000774437 0.00129619)
(0.107118 0.000718211 0.00123295)
(0.107445 0.000665856 0.00116983)
(0.107785 0.000611924 0.00110492)
(0.108143 0.000543239 0.00104233)
(0.108573 0.000447746 0.0010185)
(0.100039 0.000131326 0.000478759)
(0.100448 0.00035048 0.00123475)
(0.101114 0.00050505 0.00174642)
(0.101909 0.000597142 0.00202671)
(0.102729 0.000638493 0.00215189)
(0.10353 0.000638095 0.00218609)
(0.104298 0.000604228 0.00215275)
(0.105008 0.000558743 0.00207863)
(0.105645 0.000509219 0.00197973)
(0.106219 0.000460343 0.00187217)
(0.106743 0.000414659 0.00176766)
(0.107226 0.000372626 0.00167377)
(0.10768 0.000333551 0.001596)
(0.108113 0.000295508 0.00153632)
(0.108535 0.00025535 0.00149271)
(0.108948 0.000211807 0.00146375)
(0.109352 0.000161824 0.00144804)
(0.10975 0.000101578 0.00144546)
(0.110153 2.69834e-05 0.00145448)
(0.110626 -4.93063e-05 0.00147724)
(0.100039 -0.000131362 0.00047878)
(0.100448 -0.000350573 0.00123481)
(0.101114 -0.000505217 0.00174654)
(0.101909 -0.000597425 0.00202693)
(0.102728 -0.000638987 0.00215233)
(0.103529 -0.000638916 0.00218681)
(0.104297 -0.00060565 0.00215385)
(0.105007 -0.000561086 0.00208029)
(0.105642 -0.000513153 0.0019823)
(0.106214 -0.000467015 0.0018763)
(0.106735 -0.000425783 0.00177454)
(0.107215 -0.000390538 0.00168537)
(0.107662 -0.000361289 0.00161541)
(0.108088 -0.00033784 0.00156783)
(0.108499 -0.000320218 0.00154165)
(0.108894 -0.000310725 0.00153599)
(0.109274 -0.000311168 0.00155397)
(0.109643 -0.000319421 0.00159613)
(0.110016 -0.000334122 0.00165175)
(0.110486 -0.000346045 0.0016954)
(0.100046 -0.000395722 0.00054028)
(0.10048 -0.00104488 0.00138421)
(0.101154 -0.0014754 0.00192319)
(0.101913 -0.00170533 0.00219296)
(0.102631 -0.00178021 0.00229473)
(0.103301 -0.00174502 0.00227934)
(0.103893 -0.00163449 0.00218732)
(0.104388 -0.001492 0.00205536)
(0.104814 -0.00134574 0.00190941)
(0.10519 -0.00121098 0.00177274)
(0.10553 -0.00109236 0.00165498)
(0.105847 -0.000989898 0.00155881)
(0.106149 -0.000900099 0.00148587)
(0.106443 -0.000819661 0.00143652)
(0.10673 -0.000746709 0.00141155)
(0.107011 -0.000679 0.00141357)
(0.107293 -0.000611394 0.00144596)
(0.107574 -0.000540245 0.0015067)
(0.107869 -0.000458599 0.00158502)
(0.108297 -0.000379619 0.00163438)
(0.10006 -0.000641378 0.000641441)
(0.100501 -0.00164499 0.0016452)
(0.101149 -0.00221232 0.00221272)
(0.101738 -0.00243985 0.00244053)
(0.102205 -0.00244169 0.00244279)
(0.102501 -0.00231308 0.00231479)
(0.102645 -0.0020918 0.00209464)
(0.102713 -0.00186788 0.00187241)
(0.102739 -0.00166917 0.0016766)
(0.102752 -0.00150159 0.00151379)
(0.10277 -0.00136111 0.00138103)
(0.102803 -0.00124271 0.00127501)
(0.102854 -0.00114106 0.00119315)
(0.102927 -0.00104962 0.00113331)
(0.103021 -0.000961266 0.00109455)
(0.103136 -0.000867489 0.00107768)
(0.103272 -0.00075895 0.00108432)
(0.103428 -0.000629369 0.00111204)
(0.103606 -0.000468445 0.00114303)
(0.103918 -0.000329713 0.00112493)
(0.10014 -0.000869226 0.000775043)
(0.100454 -0.00196347 0.00196248)
(0.100911 -0.00233429 0.00242769)
(0.100978 -0.0024409 0.00252689)
(0.100694 -0.00233621 0.00242677)
(0.100225 -0.00211172 0.00219834)
(0.0997094 -0.00182209 0.00191805)
(0.0991846 -0.00157352 0.00166791)
(0.0986907 -0.00138647 0.00146634)
(0.0982451 -0.00124463 0.00130213)
(0.0978548 -0.00113794 0.00116799)
(0.0975174 -0.00105813 0.00105977)
(0.0972296 -0.000994321 0.000972829)
(0.0969895 -0.000936698 0.000902717)
(0.0967983 -0.000877798 0.000845407)
(0.0966568 -0.000805501 0.000794504)
(0.0965649 -0.000697274 0.000740747)
(0.0965164 -0.000531207 0.000676491)
(0.0964625 -0.000283798 0.0005627)
(0.096549 3.1464e-05 0.000288544)
(0.099413 -0.000270225 0.00034525)
(0.0988664 -0.00187483 0.00201913)
(0.0979216 -0.0021888 0.00257331)
(0.0963662 -0.00190806 0.00238019)
(0.0946341 -0.00162618 0.00211465)
(0.0929736 -0.00141787 0.00192767)
(0.0913666 -0.00126995 0.00180293)
(0.0898583 -0.00115796 0.00170787)
(0.0884621 -0.0010666 0.00160892)
(0.0871706 -0.000992951 0.00150109)
(0.0859779 -0.000942024 0.00139479)
(0.0848718 -0.000909536 0.00129721)
(0.0838371 -0.000889561 0.00120834)
(0.0828668 -0.000875775 0.00112434)
(0.0819634 -0.000861078 0.00104073)
(0.0811448 -0.000831042 0.000948528)
(0.0804539 -0.000771897 0.000828863)
(0.0799482 -0.000633885 0.000643921)
(0.0796877 -0.000398635 0.000300468)
(0.0790236 0.000134181 -0.000771852)
(0.0995405 0.000321897 0.00024505)
(0.0992576 0.00154091 0.00105565)
(0.0988489 0.00211447 0.00150241)
(0.0981247 0.00209168 0.00157954)
(0.0973366 0.00188623 0.00151506)
(0.0965843 0.00166604 0.00144689)
(0.0958643 0.00149817 0.00141091)
(0.0951957 0.00137189 0.00138021)
(0.094565 0.00128592 0.00133543)
(0.0939166 0.00123213 0.00126549)
(0.0932822 0.00119797 0.00117735)
(0.0926576 0.00118042 0.00108405)
(0.0920307 0.00117655 0.000996996)
(0.0913886 0.00118705 0.000921773)
(0.0907152 0.00121534 0.000860471)
(0.0899873 0.00126898 0.000813884)
(0.089167 0.00136391 0.000792501)
(0.0882012 0.00151737 0.000807846)
(0.087007 0.00174641 0.000890729)
(0.0856946 0.00199323 0.00119981)
(0.100093 0.000763204 0.000445941)
(0.100504 0.00174903 0.00119453)
(0.101105 0.00212962 0.00158689)
(0.101634 0.00223498 0.00174059)
(0.101979 0.00228766 0.00178257)
(0.10217 0.00223682 0.00172953)
(0.102251 0.00211729 0.00160901)
(0.102273 0.0019668 0.0014619)
(0.102273 0.00180559 0.00130768)
(0.102263 0.00165839 0.00116113)
(0.10225 0.00155397 0.00103612)
(0.102239 0.00148448 0.000930966)
(0.102228 0.00144225 0.000838954)
(0.102215 0.00142494 0.000758438)
(0.102194 0.00143441 0.000686016)
(0.102157 0.00147659 0.000619234)
(0.102091 0.00155889 0.000560701)
(0.10199 0.00169157 0.000514068)
(0.101856 0.00185988 0.00047082)
(0.101997 0.00196801 0.000422997)
(0.100046 0.00054028 0.000395724)
(0.10048 0.00138421 0.00104488)
(0.101154 0.00192319 0.0014754)
(0.101913 0.00219296 0.00170534)
(0.102631 0.00229474 0.00178023)
(0.103301 0.00227935 0.00174504)
(0.103893 0.00218733 0.00163451)
(0.104388 0.00205537 0.00149203)
(0.104814 0.00190943 0.00134578)
(0.10519 0.00177276 0.00121103)
(0.10553 0.001655 0.00109242)
(0.105847 0.00155883 0.000989973)
(0.106149 0.0014859 0.000900195)
(0.106443 0.00143655 0.00081978)
(0.10673 0.00141157 0.000746851)
(0.107011 0.0014136 0.000679166)
(0.107293 0.00144598 0.000611582)
(0.107574 0.00150672 0.000540456)
(0.107869 0.00158502 0.000458813)
(0.108298 0.00163423 0.000379777)
(0.100036 0.000323178 0.000323135)
(0.100429 0.000868773 0.000868647)
(0.10108 0.00126258 0.00126234)
(0.101891 0.00150468 0.00150428)
(0.102756 0.00162208 0.00162141)
(0.103616 0.00164351 0.00164249)
(0.104446 0.00160581 0.00160427)
(0.105223 0.00152814 0.00152573)
(0.105938 0.0014296 0.00142588)
(0.106593 0.00132628 0.00132047)
(0.107197 0.00122895 0.0012198)
(0.107759 0.00114306 0.0011286)
(0.108289 0.00107079 0.00104796)
(0.108796 0.00101282 0.000977157)
(0.109285 0.0009692 0.00091472)
(0.109763 0.00093956 0.000859102)
(0.110238 0.000923629 0.000807615)
(0.110715 0.000920176 0.000755398)
(0.111209 0.000920298 0.000703753)
(0.111766 0.000905346 0.000665548)
(0.100031 0.000107088 0.000281376)
(0.100395 0.000293078 0.000768613)
(0.101024 0.000434139 0.00113304)
(0.101844 0.000526329 0.00136914)
(0.102751 0.000576512 0.00150134)
(0.103689 0.000591998 0.00155409)
(0.104618 0.000582721 0.00154906)
(0.105516 0.000558233 0.00150807)
(0.106367 0.000524754 0.00144432)
(0.107164 0.000487824 0.00136803)
(0.107908 0.000451752 0.00128782)
(0.108601 0.00041898 0.00121023)
(0.109252 0.000390564 0.00113972)
(0.109869 0.000366476 0.00107883)
(0.11046 0.000345637 0.00102902)
(0.111032 0.00032625 0.000991143)
(0.111593 0.000307138 0.000964185)
(0.112149 0.000286633 0.000945477)
(0.112714 0.000263894 0.000930736)
(0.113323 0.000236428 0.000920094)
(0.100031 -0.000107084 0.000281396)
(0.100395 -0.000293063 0.000768675)
(0.101024 -0.000434109 0.00113316)
(0.101843 -0.00052628 0.00136937)
(0.102751 -0.000576432 0.00150173)
(0.103688 -0.000591864 0.00155468)
(0.104617 -0.000582521 0.00154989)
(0.105515 -0.000558029 0.00150929)
(0.106366 -0.000524627 0.00144617)
(0.107163 -0.000487849 0.0013709)
(0.107905 -0.000451935 0.00129231)
(0.108598 -0.000419177 0.00121726)
(0.109247 -0.000390359 0.00115064)
(0.109862 -0.0003653 0.00109572)
(0.110451 -0.000343335 0.00105498)
(0.11102 -0.000324305 0.00102967)
(0.111575 -0.000308437 0.0010195)
(0.112123 -0.000295403 0.00102204)
(0.112679 -0.000284691 0.00102941)
(0.11329 -0.000276704 0.00102682)
(0.100036 -0.000323132 0.000323177)
(0.100429 -0.000868641 0.000868772)
(0.10108 -0.00126233 0.00126257)
(0.101891 -0.00150426 0.00150468)
(0.102756 -0.0016214 0.00162207)
(0.103616 -0.00164246 0.0016435)
(0.104446 -0.00160424 0.0016058)
(0.105223 -0.0015257 0.00152812)
(0.105938 -0.00142583 0.00142959)
(0.106593 -0.00132042 0.00132626)
(0.107197 -0.00121974 0.00122894)
(0.107759 -0.00112852 0.00114305)
(0.10829 -0.00104786 0.00107078)
(0.108796 -0.000977029 0.00101282)
(0.109285 -0.000914562 0.00096921)
(0.109763 -0.000858917 0.000939591)
(0.110238 -0.000807408 0.000923687)
(0.110715 -0.000755166 0.000920279)
(0.111209 -0.000703513 0.000920485)
(0.111766 -0.000665358 0.000905726)
(0.100046 -0.000540224 0.000395744)
(0.10048 -0.00138404 0.00104494)
(0.101154 -0.00192285 0.00147551)
(0.101913 -0.00219235 0.00170548)
(0.102632 -0.0022937 0.0017805)
(0.103302 -0.00227766 0.00174552)
(0.103894 -0.0021847 0.00163532)
(0.104391 -0.00205107 0.00149329)
(0.104819 -0.00190278 0.00134782)
(0.105198 -0.00176235 0.001214)
(0.105542 -0.00163812 0.00109677)
(0.105866 -0.00153144 0.000996676)
(0.106179 -0.00144095 0.00091151)
(0.106489 -0.0013637 0.000838339)
(0.1068 -0.001296 0.000774434)
(0.107118 -0.00123272 0.000718234)
(0.107445 -0.00116954 0.000665901)
(0.107785 -0.00110455 0.000611973)
(0.108143 -0.00104189 0.000543262)
(0.108572 -0.00101807 0.00044777)
(0.100093 -0.00076319 0.000445937)
(0.100504 -0.00174899 0.00119452)
(0.101105 -0.00212947 0.00158686)
(0.101635 -0.00223443 0.00174048)
(0.10198 -0.00228658 0.00178235)
(0.102172 -0.00223524 0.00172919)
(0.102254 -0.00211492 0.00160833)
(0.102279 -0.00196317 0.00146065)
(0.102283 -0.00180016 0.00130569)
(0.102278 -0.00164971 0.00115717)
(0.102276 -0.0015388 0.00102911)
(0.102284 -0.00145867 0.000919629)
(0.102303 -0.00139899 0.000823269)
(0.102335 -0.00135292 0.000733684)
(0.102382 -0.00131441 0.00064183)
(0.102447 -0.0012761 0.000542615)
(0.102529 -0.00122942 0.000426072)
(0.102622 -0.00116741 0.000279616)
(0.102711 -0.00109581 8.87134e-05)
(0.102912 -0.00105458 -0.000144404)
(0.0995405 -0.000321897 0.000245038)
(0.0992576 -0.00154091 0.00105559)
(0.0988491 -0.00211436 0.00150229)
(0.0981252 -0.00209147 0.00157933)
(0.0973379 -0.0018859 0.00151454)
(0.0965868 -0.00166553 0.00144579)
(0.0958687 -0.00149757 0.00140892)
(0.0952032 -0.00137088 0.00137688)
(0.0945783 -0.00128365 0.00132951)
(0.0939393 -0.00122706 0.00125591)
(0.0933207 -0.00118814 0.00116228)
(0.0927227 -0.00116222 0.00106001)
(0.0921397 -0.00114659 0.000956455)
(0.09157 -0.00113802 0.000851896)
(0.0910146 -0.00113032 0.000742019)
(0.0904764 -0.0011157 0.00060742)
(0.0899617 -0.00108536 0.000427857)
(0.0894802 -0.00103203 0.000165953)
(0.0890459 -0.000963741 -0.000216724)
(0.0885194 -0.000951706 -0.000771786)
(0.0993802 5.90018e-05 3.37927e-05)
(0.0992677 0.00120005 0.000274469)
(0.0989805 0.00188844 0.000432536)
(0.0984748 0.00200638 0.000483725)
(0.0979958 0.00191456 0.000479262)
(0.0975713 0.00173462 0.000466208)
(0.0971816 0.0015471 0.000454019)
(0.096832 0.00138834 0.000444291)
(0.0965319 0.00126991 0.000439443)
(0.0962773 0.0011996 0.000433754)
(0.0960026 0.00117286 0.000420199)
(0.0957076 0.00117194 0.000402271)
(0.0953896 0.00118325 0.000387202)
(0.0950348 0.00120441 0.000381762)
(0.0946317 0.00124255 0.000395875)
(0.094172 0.0013034 0.000438623)
(0.0936396 0.00138913 0.000525338)
(0.0930232 0.00150925 0.000674823)
(0.092257 0.00166086 0.00089161)
(0.0913359 0.00173302 0.00142878)
(0.100087 0.000707015 0.000144427)
(0.100477 0.00161777 0.000390614)
(0.101066 0.00203461 0.00054132)
(0.101694 0.00211761 0.000610511)
(0.102269 0.00215022 0.000636659)
(0.102742 0.0021799 0.000627933)
(0.103124 0.00213436 0.000596631)
(0.103427 0.00204484 0.000552297)
(0.103679 0.00193611 0.000508969)
(0.103896 0.00183145 0.000469877)
(0.104092 0.00173533 0.000432641)
(0.104277 0.00165287 0.000399101)
(0.104452 0.00160023 0.000373382)
(0.104607 0.00158062 0.000357725)
(0.104741 0.00158538 0.000354171)
(0.104858 0.00160918 0.000368639)
(0.104952 0.00166377 0.000407011)
(0.10502 0.00175154 0.000474841)
(0.105071 0.00186059 0.000574188)
(0.105269 0.0019331 0.000691315)
(0.100039 0.00047878 0.000131365)