/*--------------------------------*- C++ -*----------------------------------*\
| =========                 |                                                 |
| \\      /  F ield         | OpenFOAM: The Open Source CFD Toolbox           |
|  \\    /   O peration     | Version:  2212                                  |
|   \\  /    A nd           | Website:  www.openfoam.com                      |
|    \\/     M anipulation  |                                                 |
\*---------------------------------------------------------------------------*/
FoamFile
{
    version     2.0;
    format      ascii;
    arch        "LSB;label=32;scalar=64";
    class       surfaceVectorField;
    location    "2.85";
    object      Uf;
}
// * * * * * * * * * * * * * * * * * * * * * * * * * * * * * * * * * * * * * //

dimensions      [0 1 -1 0 0 0 0];

internalField   nonuniform List<vector> 
19019
(
(0.0993441 -0.00341899 -0.00341903)
(0.0973536 0.00106248 -0.00148428)
(0.0973536 -0.00148427 0.00106247)
(0.0834792 0.00197595 0.00197583)
(0.0930872 0.00326905 0.00253343)
(0.0930872 0.00253352 0.00326893)
(0.0745171 0.00195887 0.00195862)
(0.084864 0.00163594 0.00179229)
(0.084864 0.00179245 0.00163574)
(0.0685477 0.00115935 0.00115884)
(0.0786281 0.00107371 0.00122124)
(0.078628 0.00122159 0.00107333)
(0.0642359 0.000697493 0.000696596)
(0.074053 0.000785751 0.00086491)
(0.0740528 0.000865512 0.00078496)
(0.0607562 0.000495818 0.000494011)
(0.0704423 0.000651197 0.000668976)
(0.070442 0.00067 0.00064992)
(0.0579366 0.000376669 0.000373247)
(0.0674914 0.00054806 0.000507898)
(0.0674908 0.000509979 0.000545447)
(0.0556127 0.000291083 0.000285338)
(0.0650505 0.000471171 0.000386398)
(0.0650493 0.000389907 0.000466598)
(0.0536224 0.000232121 0.00022267)
(0.0629655 0.000419103 0.000306156)
(0.0629633 0.000311898 0.000411344)
(0.051876 0.000191715 0.00017583)
(0.0611308 0.00037922 0.000252208)
(0.0611271 0.000261668 0.000366078)
(0.050324 0.000165412 0.000138736)
(0.0594873 0.000345543 0.0002145)
(0.0594805 0.000231401 0.000323115)
(0.0489334 0.000149709 0.000106497)
(0.0580012 0.000317655 0.000186601)
(0.0579886 0.000215174 0.000280148)
(0.0476736 0.000142498 7.46195e-05)
(0.0566454 0.000298877 0.000164554)
(0.056623 0.000208055 0.000237619)
(0.0465217 0.000144164 3.93611e-05)
(0.0553972 0.000291746 0.000145723)
(0.0553586 0.000207205 0.000191718)
(0.0454755 0.00015829 5.45636e-06)
(0.0542459 0.000296698 0.000123568)
(0.0541804 0.000213337 0.00013284)
(0.0445416 0.000195529 -5.18586e-05)
(0.0531995 0.000314986 9.33382e-05)
(0.0530858 0.000229811 5.54317e-05)
(0.0437445 0.000261399 -0.000173156)
(0.0522906 0.000366367 2.24403e-05)
(0.0520799 0.000278631 -6.50167e-05)
(0.0432106 0.000329089 -0.000411621)
(0.0516033 0.000462988 -0.000120409)
(0.0511841 0.000345373 -0.000274689)
(0.0432961 -0.000274201 -0.0015818)
(0.0515069 0.000662831 -0.00032552)
(0.0505962 0.000361416 -0.000734866)
(0.0498762 7.61977e-06 -0.0016074)
(0.0492697 -0.000696043 -0.00303427)
(0.0984572 0.00247649 0.00172987)
(0.0996871 0.000439247 0.000345476)
(0.100049 0.00105639 0.000750959)
(0.0958348 0.00314817 0.0024326)
(0.0978161 0.00273288 0.00228224)
(0.0982936 0.00280928 0.00216141)
(0.09145 0.00223053 0.00186918)
(0.095496 0.00300185 0.00230301)
(0.0963039 0.00244278 0.0019977)
(0.0875951 0.00167502 0.00150529)
(0.0926192 0.00229962 0.0018386)
(0.0936667 0.00198096 0.00172681)
(0.0841475 0.00144075 0.00127537)
(0.0897674 0.00189238 0.00153542)
(0.0909044 0.00172014 0.0014976)
(0.0811875 0.00126655 0.00102827)
(0.0872324 0.00165727 0.0012943)
(0.0884341 0.00145518 0.00121131)
(0.0787009 0.00111212 0.000793245)
(0.0850073 0.00149331 0.00107664)
(0.0863042 0.00118453 0.000907988)
(0.0765561 0.000995428 0.000624086)
(0.0830621 0.00137368 0.000912512)
(0.0844796 0.000984848 0.000689729)
(0.0746503 0.000910722 0.000516427)
(0.0813268 0.00128205 0.000800441)
(0.0828785 0.000848357 0.000547012)
(0.0729223 0.00084048 0.00044942)
(0.0797502 0.00119983 0.000724497)
(0.0814451 0.000749906 0.000452595)
(0.0713365 0.000775043 0.000406722)
(0.0783046 0.0011217 0.000675766)
(0.0801474 0.000671721 0.000385991)
(0.0698712 0.000716004 0.000378444)
(0.076969 0.00104793 0.000644544)
(0.0789588 0.000606491 0.000335511)
(0.0685093 0.000670136 0.000360922)
(0.0757261 0.000980506 0.000623971)
(0.0778603 0.000557101 0.000296859)
(0.0672376 0.000640591 0.000348319)
(0.0745651 0.000921243 0.000610603)
(0.0768423 0.000524707 0.000265636)
(0.0660551 0.000625191 0.000320084)
(0.0734827 0.00087153 0.000596779)
(0.0759006 0.000508372 0.00022848)
(0.0649937 0.000617903 0.000257137)
(0.0724939 0.000829717 0.000561031)
(0.0750401 0.000507933 0.000159734)
(0.0641259 0.000594019 0.00010762)
(0.0716485 0.000777559 0.000490829)
(0.0742901 0.000519313 4.34195e-05)
(0.0637062 0.000595697 -0.000125734)
(0.0710417 0.000647837 0.00030011)
(0.0737139 0.000513633 -0.000201162)
(0.0642379 0.000463643 -0.000503024)
(0.0709115 0.000382759 3.23242e-06)
(0.0735014 0.000463637 -0.000710426)
(0.0695274 -0.000532543 -0.000617432)
(0.072343 -0.000201461 -0.00221131)
(0.0993753 0.00118219 0.00107253)
(0.099473 0.000349772 0.000307055)
(0.0997475 0.000611002 0.000779864)
(0.0984949 0.00229622 0.00203182)
(0.0990504 0.00157688 0.00172043)
(0.0995971 0.00201839 0.0020028)
(0.0971414 0.00247675 0.00204843)
(0.0983579 0.00213126 0.00216875)
(0.0992973 0.0024617 0.00210225)
(0.0954398 0.00224742 0.00176712)
(0.0971936 0.00203605 0.00200223)
(0.0984884 0.0023748 0.00190234)
(0.0937514 0.00202116 0.00152203)
(0.0959058 0.00185602 0.00175408)
(0.0974226 0.00218139 0.00168829)
(0.0921393 0.0018653 0.00134392)
(0.0946731 0.00173328 0.00154219)
(0.0963101 0.00198554 0.00150764)
(0.0906036 0.00175539 0.00121397)
(0.0934842 0.00165358 0.00138575)
(0.0952055 0.00180292 0.00134166)
(0.0891549 0.00165839 0.00111229)
(0.0923723 0.00157818 0.00126442)
(0.0941497 0.00164673 0.00120203)
(0.0878101 0.00155499 0.00102979)
(0.0913388 0.00148353 0.00117017)
(0.0931687 0.00150821 0.00109298)
(0.0865712 0.00144793 0.00096751)
(0.0903542 0.00137434 0.00110031)
(0.0922664 0.00138062 0.00100927)
(0.0854238 0.001346 0.000925812)
(0.0894316 0.00126493 0.00105284)
(0.0914429 0.00126643 0.000949623)
(0.0843531 0.00125277 0.000899593)
(0.0885644 0.00115923 0.00102202)
(0.0906905 0.00116768 0.00090817)
(0.0833495 0.00116631 0.000882717)
(0.0877421 0.00105885 0.00100299)
(0.0899994 0.00108249 0.000877717)
(0.0824113 0.00108248 0.000868478)
(0.0869602 0.000961846 0.000990856)
(0.0893651 0.00100717 0.000851655)
(0.0815481 0.000994544 0.000846148)
(0.0862205 0.000861971 0.000978529)
(0.0887894 0.000937453 0.000822812)
(0.0807908 0.000888589 0.000801636)
(0.0855337 0.000741327 0.000953762)
(0.0882823 0.000865121 0.000776473)
(0.0801928 0.000736249 0.000703171)
(0.0849254 0.000576683 0.000904218)
(0.087867 0.000774741 0.000691303)
(0.0798064 0.000471921 0.000516673)
(0.0844309 0.000331246 0.000800342)
(0.0875716 0.000641026 0.000525754)
(0.0796952 -0.000236407 0.000132785)
(0.0840883 -2.02163e-05 0.00064642)
(0.0874061 0.000395714 0.000259425)
(0.0834886 -0.000833308 0.000362833)
(0.0870874 -0.000327497 -0.000234488)
(0.0996493 0.000650312 0.000931404)
(0.0994625 0.000129372 0.0001925)
(0.0997993 0.000375134 0.000741354)
(0.0990855 0.00127894 0.00182764)
(0.0992626 0.000636859 0.0013706)
(0.0998409 0.00115041 0.00181419)
(0.0984495 0.00154081 0.00210292)
(0.098913 0.000973373 0.00200349)
(0.0999049 0.00153655 0.00209004)
(0.0977082 0.00154693 0.00198869)
(0.0982954 0.00104995 0.0020505)
(0.0997677 0.00163177 0.00202277)
(0.0969406 0.00148016 0.00177572)
(0.0976581 0.00100729 0.00189939)
(0.0995102 0.00160969 0.00189523)
(0.0962099 0.00142735 0.00158156)
(0.0970662 0.000959645 0.00169795)
(0.0992009 0.00154773 0.00175102)
(0.0955259 0.0013929 0.00143423)
(0.0965082 0.000932375 0.0015202)
(0.098857 0.00147486 0.00162488)
(0.0948788 0.00135319 0.00132727)
(0.095997 0.000915184 0.00137833)
(0.0985148 0.00139329 0.00151356)
(0.0942482 0.00129271 0.00125537)
(0.0955312 0.000899459 0.00127702)
(0.098184 0.00130005 0.00141727)
(0.0936279 0.00120909 0.00120762)
(0.095081 0.000864557 0.00121411)
(0.0978419 0.00119517 0.00133912)
(0.0930222 0.00111114 0.00117521)
(0.0946328 0.000803202 0.00117988)
(0.0975118 0.00108827 0.00128333)
(0.0924313 0.00100822 0.00115445)
(0.0941875 0.000729752 0.00116397)
(0.0971972 0.000984686 0.00124422)
(0.091854 0.000904137 0.00114236)
(0.0937425 0.000652564 0.0011582)
(0.096896 0.000885943 0.00121659)
(0.091291 0.000796876 0.00113424)
(0.0932924 0.0005703 0.00115877)
(0.0966076 0.00078947 0.00119693)
(0.090744 0.0006746 0.00112313)
(0.0928353 0.000479761 0.00116391)
(0.0963341 0.000688915 0.00118019)
(0.0902184 0.000517493 0.00110077)
(0.0923718 0.000365364 0.00117004)
(0.0960784 0.000571589 0.00115898)
(0.0897229 0.000296723 0.00105913)
(0.0919039 0.000208887 0.00117214)
(0.0958427 0.000422035 0.0011243)
(0.089263 -2.56598e-05 0.000998606)
(0.0914337 -1.45031e-05 0.00116786)
(0.0956298 0.000214287 0.00106803)
(0.0888364 -0.000494821 0.000958811)
(0.0909543 -0.000316942 0.00116328)
(0.0954404 -7.92341e-05 0.00099523)
(0.0903814 -0.000754614 0.00122027)
(0.0952542 -0.000486489 0.000954261)
(0.0996725 0.000154028 0.00062948)
(0.0993802 -1.66088e-08 5.89776e-05)
(0.0997132 0.000103908 0.000687942)
(0.0991592 0.000353227 0.00154421)
(0.0992678 -8.06692e-08 0.00120003)
(0.0998377 0.000341584 0.00162227)
(0.0986639 0.000457611 0.00194736)
(0.0989805 -1.92127e-07 0.00188843)
(0.0999632 0.000485353 0.00199134)
(0.0982128 0.000480589 0.00196034)
(0.0984749 -3.48786e-07 0.00200634)
(0.0999921 0.000539404 0.00199649)
(0.0977774 0.000471136 0.00182431)
(0.097996 -6.0553e-07 0.00191447)
(0.10001 0.000545963 0.00191068)
(0.0973648 0.000457243 0.00164038)
(0.0975718 -1.07041e-06 0.00173443)
(0.100009 0.000532664 0.00180362)
(0.0969982 0.00044412 0.00146695)
(0.0971826 -1.90979e-06 0.00154681)
(0.0999834 0.000509993 0.00168185)
(0.0966801 0.000433238 0.00132771)
(0.0968336 -3.29098e-06 0.00138785)
(0.0999428 0.000482483 0.00157092)
(0.0964035 0.000422013 0.00123215)
(0.0965347 -5.62053e-06 0.00126898)
(0.0999048 0.000456704 0.00147863)
(0.0961438 0.000402594 0.0011817)
(0.096282 -9.46218e-06 0.00119792)
(0.0998757 0.000429648 0.00141401)
(0.095875 0.000370883 0.00116477)
(0.0960105 -1.57753e-05 0.00117)
(0.099828 0.000394618 0.00137266)
(0.0955866 0.000328303 0.00116483)
(0.095721 -2.61074e-05 0.00116716)
(0.0997684 0.000351733 0.00134322)
(0.0952746 0.000275362 0.00117238)
(0.0954123 -4.31171e-05 0.00117525)
(0.0996982 0.000303263 0.00132485)
(0.0949355 0.000211653 0.0011869)
(0.0950731 -7.0771e-05 0.00119093)
(0.09961 0.000247332 0.00131917)
(0.0945667 0.000131622 0.00121039)
(0.0946949 -0.000113718 0.00121939)
(0.0995015 0.00018079 0.0013262)
(0.0941646 2.02789e-05 0.00124259)
(0.0942728 -0.000182249 0.00126389)
(0.0993734 9.52021e-05 0.0013423)
(0.0937252 -0.000141767 0.00128377)
(0.0937976 -0.000292615 0.00132486)
(0.0992226 -2.18568e-05 0.00136674)
(0.0932407 -0.000369951 0.00133531)
(0.0932604 -0.000463882 0.00140796)
(0.0990448 -0.000185211 0.00140087)
(0.0926992 -0.000698996 0.00142382)
(0.0926143 -0.000697972 0.00151219)
(0.0988258 -0.000403735 0.00144232)
(0.0918431 -0.00114086 0.00160822)
(0.0986065 -0.0006978 0.00153098)
(0.0996725 -0.000154126 0.000629523)
(0.0994625 -0.000129407 0.000192526)
(0.0997132 -0.00010395 0.000687945)
(0.0991591 -0.000353491 0.00154424)
(0.0992625 -0.00063699 0.00137062)
(0.0998377 -0.000341749 0.00162228)
(0.0986637 -0.000458111 0.00194741)
(0.0989129 -0.000973618 0.00200355)
(0.0999631 -0.00048568 0.00199133)
(0.0982125 -0.000481469 0.00196047)
(0.098295 -0.00105037 0.00205064)
(0.0999919 -0.000539985 0.00199653)
(0.0977767 -0.000472704 0.00182458)
(0.0976572 -0.0010081 0.00189964)
(0.100009 -0.000547019 0.00191088)
(0.0973634 -0.000460075 0.00164086)
(0.0970644 -0.000961188 0.00169839)
(0.100008 -0.000534568 0.00180406)
(0.0969957 -0.000449108 0.00146771)
(0.0965051 -0.000935223 0.00152078)
(0.0999817 -0.000513312 0.0016825)
(0.0966758 -0.00044181 0.00132911)
(0.0959916 -0.000920155 0.00137933)
(0.0999398 -0.000488139 0.00157199)
(0.0963963 -0.00043653 0.00123474)
(0.0955218 -0.000908129 0.00127912)
(0.0998999 -0.000466393 0.00148052)
(0.0961315 -0.000426895 0.00118622)
(0.0950649 -0.000878976 0.0012184)
(0.0998676 -0.000446244 0.00141722)
(0.0958541 -0.000411139 0.00117239)
(0.0946055 -0.00082677 0.00118781)
(0.0998145 -0.000422637 0.00137791)
(0.0955511 -0.000394624 0.00117758)
(0.0941412 -0.000768111 0.00117811)
(0.099746 -0.000398089 0.00135207)
(0.0952146 -0.000384343 0.00119381)
(0.0936646 -0.000715929 0.00118161)
(0.0996601 -0.000378368 0.00134017)
(0.0948357 -0.000388638 0.00122343)
(0.0931623 -0.000675825 0.00119741)
(0.0995459 -0.000368265 0.00134527)
(0.0944044 -0.000417014 0.0012729)
(0.0926204 -0.000653419 0.00123072)
(0.0993959 -0.000374157 0.00137009)
(0.0939079 -0.000481677 0.00134616)
(0.0920231 -0.00065444 0.00128832)
(0.0992078 -0.000403647 0.00141548)
(0.0933286 -0.000599684 0.00144905)
(0.0913429 -0.000693403 0.00137964)
(0.0989708 -0.000467576 0.00148737)
(0.0926447 -0.000782696 0.00158484)
(0.0905472 -0.000788175 0.00151846)
(0.0986768 -0.000578516 0.00159219)
(0.0918523 -0.00115952 0.0016966)
(0.0895613 -0.00095974 0.0017124)
(0.0982955 -0.000739713 0.00172035)
(0.0884397 -0.0014087 0.00187743)
(0.0979016 -0.00107903 0.00179477)
(0.0996493 -0.000650345 0.000931404)
(0.099473 -0.000349764 0.000307059)
(0.0997993 -0.00037514 0.000741352)
(0.0990854 -0.00127902 0.00182769)
(0.0990504 -0.00157685 0.00172047)
(0.0998409 -0.00115044 0.00181419)
(0.0984491 -0.00154096 0.00210307)
(0.0983576 -0.00213119 0.00216893)
(0.0999046 -0.00153661 0.00209014)
(0.0977073 -0.00154728 0.00198895)
(0.097193 -0.00203594 0.00200253)
(0.0997671 -0.00163191 0.00202308)
(0.0969388 -0.00148094 0.00177613)
(0.0959046 -0.00185597 0.00175454)
(0.099509 -0.00161003 0.00189583)
(0.0962066 -0.00142886 0.0015821)
(0.0946707 -0.00173338 0.00154289)
(0.0991986 -0.00154843 0.00175193)
(0.0955201 -0.00139551 0.00143503)
(0.0934798 -0.00165393 0.00138678)
(0.0988531 -0.00147618 0.00162618)
(0.0948686 -0.00135776 0.0013289)
(0.0923648 -0.00157872 0.00126614)
(0.098508 -0.00139558 0.00151566)
(0.0942306 -0.0013004 0.00125902)
(0.0913257 -0.00148454 0.00117322)
(0.0981726 -0.00130404 0.0014208)
(0.0935979 -0.00122134 0.00121504)
(0.0903319 -0.00137598 0.00110599)
(0.0978226 -0.00120195 0.0013452)
(0.0929713 -0.00113061 0.00118917)
(0.0893936 -0.00126754 0.00106272)
(0.0974793 -0.00109922 0.00129397)
(0.0923457 -0.00104041 0.00117846)
(0.0885 -0.0011636 0.00103976)
(0.0971418 -0.00100221 0.00126303)
(0.0917115 -0.000959251 0.00118175)
(0.0876337 -0.00106758 0.00103307)
(0.0968029 -0.000914145 0.00124909)
(0.0910551 -0.000890951 0.00120112)
(0.0867783 -0.000980227 0.00104141)
(0.0964553 -0.000837447 0.00125255)
(0.090356 -0.000836944 0.00124204)
(0.0859165 -0.000899249 0.00106654)
(0.0960875 -0.000771634 0.00127628)
(0.0895831 -0.000802868 0.00131627)
(0.0850242 -0.000820522 0.0011149)
(0.0956828 -0.000716057 0.00132762)
(0.0886908 -0.000799736 0.00144037)
(0.0840633 -0.000748052 0.00120201)
(0.0952157 -0.000677799 0.00142009)
(0.0876163 -0.000848691 0.00163142)
(0.0829624 -0.000686909 0.00134953)
(0.0946546 -0.000664945 0.00156904)
(0.0863031 -0.00104445 0.00186907)
(0.0816449 -0.000672295 0.00155856)
(0.0939568 -0.000689571 0.00177482)
(0.0802728 -0.000905944 0.00214325)
(0.0933245 -0.000834179 0.00197252)
(0.0993753 -0.00118213 0.00107257)
(0.0996871 -0.000439221 0.000345487)
(0.0997475 -0.000610973 0.000779887)
(0.0984947 -0.00229607 0.00203198)
(0.0978161 -0.00273274 0.00228232)
(0.099597 -0.00201829 0.00200293)
(0.097141 -0.00247648 0.00204876)
(0.0954958 -0.00300163 0.00230322)
(0.0992971 -0.00246149 0.00210257)
(0.0954389 -0.00224698 0.00176762)
(0.0926188 -0.00229922 0.00183899)
(0.0984879 -0.0023744 0.0019029)
(0.0937496 -0.00202046 0.00152274)
(0.0897666 -0.00189164 0.00153598)
(0.0974215 -0.00218075 0.00168911)
(0.0921361 -0.00186423 0.00134503)
(0.0872309 -0.00165603 0.0012952)
(0.0963082 -0.00198447 0.00150881)
(0.0905978 -0.00175375 0.00121582)
(0.0850045 -0.00149122 0.00107812)
(0.095202 -0.0018013 0.00134353)
(0.0891448 -0.00165568 0.00111533)
(0.0830572 -0.00137023 0.000914966)
(0.0941436 -0.00164421 0.00120524)
(0.0877929 -0.00155052 0.00103476)
(0.081318 -0.00127626 0.000804521)
(0.0931581 -0.00150392 0.00109824)
(0.0865418 -0.00144056 0.000975485)
(0.0797352 -0.00118998 0.000731341)
(0.0922482 -0.00137329 0.00101799)
(0.0853739 -0.0013341 0.000939189)
(0.0782785 -0.00110466 0.000688006)
(0.0914119 -0.00125449 0.000964189)
(0.0842688 -0.00123435 0.000922879)
(0.0769231 -0.00101982 0.000665942)
(0.0906376 -0.00114823 0.00093312)
(0.0832072 -0.00113933 0.000922967)
(0.0756469 -0.000936781 0.000657764)
(0.0899112 -0.00105145 0.000920119)
(0.0821712 -0.00104534 0.000938409)
(0.0744304 -0.000854689 0.000660174)
(0.0892191 -0.000958395 0.000922669)
(0.0811399 -0.000948523 0.00097289)
(0.0732546 -0.000767075 0.000676021)
(0.0885472 -0.000863976 0.000943008)
(0.08008 -0.000843874 0.00103675)
(0.072101 -0.00065832 0.00071005)
(0.0878767 -0.000762985 0.000989072)
(0.0789406 -0.000724866 0.0011491)
(0.0709454 -0.000519047 0.00077347)
(0.08718 -0.000647364 0.00107456)
(0.0776291 -0.000588533 0.00131086)
(0.0697312 -0.000317503 0.000873292)
(0.0863991 -0.000506568 0.00122101)
(0.0760027 -0.000540562 0.00182948)
(0.0684015 -3.04993e-07 0.000999657)
(0.0854802 -0.000327817 0.00141007)
(0.0670973 0.000534117 0.00149864)
(0.0847142 -0.000241171 0.0019542)
(0.0984572 -0.00247641 0.00172993)
(0.0973536 -0.00106247 -0.00148427)
(0.100049 -0.00105637 0.000750984)
(0.0958348 -0.00314798 0.00243275)
(0.0930872 -0.00326893 0.00253352)
(0.0982936 -0.00280915 0.00216155)
(0.0914498 -0.00223022 0.00186948)
(0.084864 -0.00163574 0.00179245)
(0.0963039 -0.0024425 0.00199797)
(0.0875948 -0.0016744 0.00150577)
(0.078628 -0.00107332 0.0012216)
(0.0936666 -0.00198047 0.00172731)
(0.0841468 -0.00143967 0.00127616)
(0.0740528 -0.000784946 0.000865518)
(0.0909042 -0.00171926 0.00149839)
(0.0811864 -0.0012647 0.00102964)
(0.070442 -0.000649903 0.000670008)
(0.0884336 -0.00145373 0.00121273)
(0.0786987 -0.00110887 0.000795475)
(0.0674908 -0.000545427 0.000509989)
(0.0863034 -0.00118203 0.000910341)
(0.0765522 -0.000989853 0.00062777)
(0.0650494 -0.000466576 0.000389917)
(0.084478 -0.000980583 0.000693646)
(0.0746431 -0.000901095 0.00052264)
(0.0629634 -0.00041132 0.000311908)
(0.0828756 -0.000841013 0.000553682)
(0.0729096 -0.000823829 0.000460901)
(0.0611272 -0.000366051 0.000261677)
(0.08144 -0.0007372 0.00046412)
(0.0713134 -0.000746877 0.000427517)
(0.0594806 -0.000323084 0.000231407)
(0.080138 -0.000649253 0.000407408)
(0.0698293 -0.000669947 0.000411095)
(0.0579888 -0.000280111 0.000215175)
(0.0789415 -0.000569248 0.000371978)
(0.0684353 -0.000595444 0.00040502)
(0.0566231 -0.000237574 0.000208046)
(0.0778293 -0.000498542 0.000353325)
(0.0671112 -0.000516013 0.000408273)
(0.0553589 -0.000191669 0.000207172)
(0.076789 -0.000433298 0.00034859)
(0.0658377 -0.000408638 0.000422328)
(0.0541807 -0.000132806 0.000213287)
(0.0758099 -0.000358611 0.000360067)
(0.0646099 -0.000259456 0.000455087)
(0.0530861 -5.54103e-05 0.000229767)
(0.0748824 -0.00024899 0.000394383)
(0.0634092 -4.90999e-05 0.000512494)
(0.0520804 6.5061e-05 0.000278573)
(0.0739978 -9.94085e-05 0.000462332)
(0.0622174 0.000301788 0.000589362)
(0.0511848 0.000274747 0.00034528)
(0.0731321 0.000134793 0.000562505)
(0.0609992 0.00112723 0.000698632)
(0.0505974 0.000734963 0.000361149)
(0.0722369 0.00058069 0.000642067)
(0.0492717 0.00303448 -0.000696393)
(0.0715019 0.00162325 0.000665565)
(0.0993441 0.00341904 -0.00341899)
(0.0973536 0.00148428 0.00106248)
(0.0834792 -0.00197582 0.00197595)
(0.0930872 -0.00253343 0.00326905)
(0.0745171 -0.00195861 0.00195887)
(0.084864 -0.00179229 0.00163595)
(0.0685477 -0.00115883 0.00115936)
(0.0786281 -0.00122124 0.00107372)
(0.0642359 -0.000696586 0.000697503)
(0.074053 -0.000864905 0.000785764)
(0.0607562 -0.000493998 0.000495831)
(0.0704424 -0.000668969 0.000651211)
(0.0579366 -0.000373232 0.000376684)
(0.0674914 -0.00050789 0.000548077)
(0.0556127 -0.000285322 0.000291098)
(0.0650505 -0.000386387 0.000471189)
(0.0536225 -0.000222653 0.000232134)
(0.0629655 -0.000306144 0.000419122)
(0.0518761 -0.000175811 0.000191727)
(0.0611309 -0.000252195 0.000379239)
(0.0503241 -0.000138714 0.000165421)
(0.0594874 -0.000214484 0.000345564)
(0.0489335 -0.000106471 0.000149713)
(0.0580013 -0.000186585 0.000317682)
(0.0476738 -7.45886e-05 0.000142485)
(0.0566455 -0.000164543 0.000298915)
(0.0465219 -3.9328e-05 0.000144126)
(0.0553975 -0.000145716 0.000291772)
(0.0454758 -5.43515e-06 0.000158251)
(0.0542461 -0.000123556 0.000296704)
(0.0445419 5.18727e-05 0.000195507)
(0.0531998 -9.33126e-05 0.000314994)
(0.043745 0.000173174 0.000261382)
(0.052291 -2.23911e-05 0.00036639)
(0.0432112 0.000411644 0.000328973)
(0.0516039 0.000120478 0.000463013)
(0.0432972 0.00158196 -0.000274486)
(0.0515079 0.000325589 0.0006628)
(0.0498775 0.00160777 7.3724e-06)
(0.0984572 0.00172992 0.00247641)
(0.100049 0.000750984 0.00105637)
(0.0996871 0.000345487 0.000439223)
(0.0958348 0.00243275 0.00314799)
(0.0982936 0.00216155 0.00280915)
(0.0978161 0.00228232 0.00273275)
(0.0914498 0.00186948 0.00223023)
(0.0963039 0.00199796 0.00244251)
(0.0954958 0.00230322 0.00300164)
(0.0875948 0.00150577 0.00167442)
(0.0936666 0.00172731 0.00198048)
(0.0926188 0.00183899 0.00229924)
(0.0841468 0.00127616 0.00143969)
(0.0909041 0.00149838 0.00171927)
(0.0897666 0.00153598 0.00189166)
(0.0811864 0.00102963 0.00126472)
(0.0884336 0.00121272 0.00145374)
(0.0872309 0.0012952 0.00165606)
(0.0786987 0.000795471 0.0011089)
(0.0863034 0.000910331 0.00118204)
(0.0850045 0.00107812 0.00149125)
(0.0765521 0.000627767 0.000989886)
(0.084478 0.000693634 0.000980605)
(0.0830571 0.000914963 0.00137026)
(0.074643 0.000522638 0.000901134)
(0.0828755 0.000553668 0.000841039)
(0.081318 0.00080452 0.0012763)
(0.0729095 0.000460902 0.000823875)
(0.08144 0.000464102 0.00073723)
(0.0797351 0.000731344 0.00119003)
(0.0713132 0.000427524 0.000746932)
(0.0801379 0.000407385 0.000649286)
(0.0782784 0.000688015 0.00110472)
(0.0698291 0.000411113 0.000670012)
(0.0789414 0.000371941 0.000569279)
(0.076923 0.000665965 0.00101992)
(0.0684351 0.000405051 0.000595506)
(0.0778291 0.000353276 0.000498564)
(0.0756467 0.000657809 0.0009369)
(0.0671109 0.000408315 0.000516061)
(0.0767887 0.000348573 0.000433343)
(0.0744301 0.00066022 0.00085478)
(0.0658373 0.00042239 0.000408682)
(0.0758097 0.000360074 0.000358677)
(0.0732543 0.000676075 0.00076715)
(0.0646094 0.000455184 0.000259523)
(0.0748821 0.000394377 0.000249038)
(0.0721005 0.000710152 0.000658447)
(0.0634084 0.000512655 4.92011e-05)
(0.0739973 0.000462357 9.94802e-05)
(0.0709447 0.000773641 0.000519242)
(0.0622161 0.000589653 -0.000301605)
(0.0731314 0.000562605 -0.000134681)
(0.0697302 0.000873592 0.000317803)
(0.060997 0.000699223 -0.00112666)
(0.0722358 0.000642358 -0.000580434)
(0.0683998 0.00100018 7.90983e-07)
(0.0715001 0.00066638 -0.00162241)
(0.0670945 0.00149912 -0.000533713)
(0.10008 0.00135182 0.00135173)
(0.100186 0.000798787 0.000804935)
(0.100186 0.000804971 0.00079875)
(0.100264 0.00221743 0.00221719)
(0.10019 0.00231195 0.0020714)
(0.100189 0.00207156 0.00231181)
(0.0993827 0.00243604 0.00243556)
(0.100306 0.00263391 0.00245291)
(0.100306 0.00245331 0.00263361)
(0.0979837 0.00231072 0.00230994)
(0.0998049 0.00256079 0.00245568)
(0.0998047 0.00245637 0.00256024)
(0.0964944 0.00200694 0.00200561)
(0.0988625 0.00236507 0.00228052)
(0.0988621 0.00228156 0.00236419)
(0.0950716 0.00159821 0.00159595)
(0.0978404 0.00205015 0.00196737)
(0.0978398 0.00196899 0.00204858)
(0.0937736 0.00122837 0.00122461)
(0.0968607 0.00169306 0.00160351)
(0.0968595 0.0016061 0.0016905)
(0.0926149 0.000965661 0.00095922)
(0.0959583 0.0014076 0.00131961)
(0.0959562 0.00132408 0.00140341)
(0.0915893 0.000784029 0.000772869)
(0.0951461 0.00119674 0.00111544)
(0.0951425 0.00112311 0.00118944)
(0.0906805 0.000656483 0.000636559)
(0.0944228 0.00104051 0.000966491)
(0.0944165 0.000979604 0.00102785)
(0.0898678 0.00056556 0.000531459)
(0.0937834 0.000923327 0.000854516)
(0.0937725 0.000877634 0.000901466)
(0.0891304 0.000502815 0.000448559)
(0.0932139 0.000835361 0.000768683)
(0.0931953 0.000807049 0.00079925)
(0.0884559 0.000463132 0.000379895)
(0.092702 0.000770857 0.000700566)
(0.0926719 0.000761673 0.000713256)
(0.0878416 0.000442249 0.000311484)
(0.0922453 0.000724423 0.000640072)
(0.0921973 0.000735922 0.000633172)
(0.0872869 0.000440948 0.000223442)
(0.091844 0.000693238 0.000574375)
(0.0917676 0.000729489 0.000546465)
(0.0867863 0.000463607 9.64905e-05)
(0.0914963 0.000676116 0.000485827)
(0.0913747 0.000747873 0.000437044)
(0.0863423 0.000508397 -0.000103147)
(0.0911998 0.000672282 0.00035554)
(0.0910095 0.000797587 0.000290923)
(0.0859176 0.000525591 -0.0004674)
(0.0909442 0.000673989 0.000146008)
(0.0906535 0.000880903 7.66364e-05)
(0.0854227 0.000345997 -0.00117695)
(0.0906791 0.000628471 -0.00022069)
(0.0902637 0.000940407 -0.000272967)
(0.0906423 0.000341664 -0.000863745)
(0.0901906 0.000838395 -0.000768474)
(0.100171 0.00136876 0.00141635)
(0.100118 0.000577443 0.000811284)
(0.100102 0.000699803 0.000700664)
(0.100759 0.00219508 0.00214888)
(0.100478 0.00158297 0.00185868)
(0.100477 0.00182268 0.00186456)
(0.100996 0.00247729 0.0023876)
(0.101004 0.00205897 0.00224232)
(0.101024 0.00234706 0.00238276)
(0.100838 0.00247683 0.00238856)
(0.101292 0.00220386 0.00235168)
(0.101337 0.00250647 0.0025434)
(0.100457 0.00231255 0.00222398)
(0.101309 0.00216796 0.00232137)
(0.101408 0.00245133 0.0024718)
(0.0999674 0.0020582 0.00196692)
(0.101157 0.00201178 0.00217764)
(0.101301 0.00226585 0.00226968)
(0.0994431 0.00179298 0.00169782)
(0.100927 0.00179519 0.00196676)
(0.101098 0.00201104 0.00199742)
(0.0989333 0.00156713 0.00148001)
(0.100665 0.00158572 0.00176302)
(0.100853 0.00177315 0.00175575)
(0.0984646 0.00138423 0.00131558)
(0.100409 0.0013988 0.0015861)
(0.100605 0.00157378 0.00156056)
(0.0980482 0.00123506 0.00119132)
(0.100175 0.00123456 0.00143879)
(0.100376 0.00140982 0.00140447)
(0.0976849 0.00111387 0.00109807)
(0.0999703 0.00109689 0.00132894)
(0.100179 0.00127598 0.00128001)
(0.0973722 0.00101627 0.00102626)
(0.0997979 0.000982933 0.00124806)
(0.100017 0.00116847 0.00118033)
(0.0971083 0.000937764 0.000965595)
(0.0996569 0.000887637 0.00118554)
(0.0998897 0.00108364 0.00109723)
(0.0968926 0.000874108 0.000907433)
(0.0995468 0.00080516 0.00113298)
(0.0997975 0.00101814 0.0010222)
(0.0967266 0.000819995 0.000841876)
(0.0994696 0.000728226 0.00108336)
(0.0997412 0.000969239 0.000947474)
(0.0966102 0.000767627 0.000751638)
(0.0994271 0.000650569 0.0010267)
(0.0997211 0.000933874 0.000862405)
(0.0965428 0.000708623 0.000614582)
(0.0994183 0.000562457 0.000947242)
(0.0997367 0.000908289 0.000752172)
(0.0965013 0.000619635 0.000407988)
(0.0994374 0.000452924 0.000830052)
(0.099785 0.000887847 0.00060494)
(0.0964258 0.000425721 0.000126818)
(0.0994524 0.00029147 0.000664982)
(0.099841 0.000844987 0.000410676)
(0.0995938 2.94953e-05 0.000479238)
(0.100034 0.000700361 0.0002214)
(0.100242 0.000820228 0.00125609)
(0.10009 0.000294343 0.000735338)
(0.100071 0.000415707 0.000602751)
(0.100828 0.00139069 0.00193923)
(0.100491 0.000792013 0.00168397)
(0.100493 0.00112452 0.00158691)
(0.101392 0.00166367 0.00218195)
(0.101086 0.00107778 0.00208328)
(0.101129 0.00154102 0.00209392)
(0.101816 0.00176142 0.00226051)
(0.101664 0.0012044 0.0021787)
(0.101768 0.001733 0.0022938)
(0.102081 0.00175578 0.00226092)
(0.102121 0.00123979 0.00222128)
(0.102291 0.00179035 0.00236646)
(0.102216 0.00166876 0.00217509)
(0.102452 0.00120196 0.00220896)
(0.102712 0.00174456 0.00232068)
(0.102267 0.0015345 0.00203906)
(0.102681 0.00111843 0.00212458)
(0.103037 0.00162724 0.00220015)
(0.102278 0.00138318 0.00188169)
(0.102843 0.00101733 0.00200279)
(0.103287 0.00148105 0.00204655)
(0.102277 0.00123144 0.00172496)
(0.102969 0.000916426 0.00186608)
(0.103494 0.00133005 0.0018857)
(0.102276 0.00109314 0.00159429)
(0.103074 0.000821029 0.0017376)
(0.103672 0.00118839 0.00173874)
(0.102279 0.000974366 0.00149878)
(0.103171 0.000733972 0.00163291)
(0.103835 0.00106545 0.00162104)
(0.102293 0.000871436 0.00142888)
(0.103269 0.000654192 0.00154946)
(0.103994 0.000960415 0.00152795)
(0.102318 0.000778467 0.00137604)
(0.10337 0.00058027 0.00148923)
(0.104154 0.000869384 0.00145354)
(0.102357 0.000687769 0.00133383)
(0.103472 0.000507876 0.00144987)
(0.104318 0.000787647 0.00139259)
(0.102414 0.000592223 0.00129549)
(0.103578 0.000428889 0.00142369)
(0.104491 0.000709089 0.00133973)
(0.102488 0.000484313 0.00125308)
(0.103689 0.000337675 0.00140259)
(0.104677 0.000630275 0.00128866)
(0.102577 0.000352807 0.00119891)
(0.103804 0.000226309 0.00138263)
(0.104876 0.000544282 0.00123347)
(0.102671 0.000184152 0.00113228)
(0.103918 8.54174e-05 0.00136118)
(0.105087 0.000442108 0.00117106)
(0.102743 -2.78947e-05 0.00107559)
(0.104026 -9.50624e-05 0.00134138)
(0.105305 0.000310241 0.00110956)
(0.104242 -0.000304841 0.00135184)
(0.105615 0.000144764 0.00109342)
(0.100243 0.000267404 0.00116238)
(0.100087 -3.02679e-08 0.000707011)
(0.100064 0.000135812 0.000537317)
(0.100782 0.00046573 0.00182619)
(0.100477 -8.7528e-08 0.00161777)
(0.100463 0.000370899 0.00142409)
(0.101401 0.000575497 0.00207607)
(0.101066 -1.51237e-07 0.00203461)
(0.101089 0.000525192 0.0019335)
(0.101988 0.000622812 0.00213371)
(0.101694 -2.83537e-07 0.00211757)
(0.101798 0.000605905 0.00212845)
(0.102507 0.000630885 0.00216458)
(0.102269 -5.37146e-07 0.00215005)
(0.10249 0.000639299 0.00221067)
(0.102935 0.000609878 0.00215634)
(0.102742 -9.52815e-07 0.00217959)
(0.10312 0.0006341 0.00224107)
(0.103279 0.000570486 0.00208836)
(0.103124 -1.58224e-06 0.00213387)
(0.103688 0.000600753 0.00219603)
(0.103557 0.000523905 0.00198858)
(0.103428 -2.60586e-06 0.00204408)
(0.104187 0.000554514 0.00210491)
(0.103792 0.000477738 0.00188079)
(0.103681 -4.40736e-06 0.00193496)