/*--------------------------------*- C++ -*----------------------------------*\
| =========                 |                                                 |
| \\      /  F ield         | OpenFOAM: The Open Source CFD Toolbox           |
|  \\    /   O peration     | Version:  2212                                  |
|   \\  /    A nd           | Website:  www.openfoam.com                      |
|    \\/     M anipulation  |                                                 |
\*---------------------------------------------------------------------------*/
FoamFile
{
    version     2.0;
    format      ascii;
    arch        "LSB;label=32;scalar=64";
    class       volScalarField;
    location    "0.3";
    object      k;
}
// * * * * * * * * * * * * * * * * * * * * * * * * * * * * * * * * * * * * * //

dimensions      [0 2 -2 0 0 0 0];

internalField   nonuniform List<scalar> 
682
(
0.0055892
0.00559339
0.00559829
0.00560349
0.00560868
0.00561365
0.00561826
0.0056224
0.005626
0.00562896
0.00563119
0.00554665
0.00555074
0.00555551
0.00556058
0.00556562
0.00557045
0.00557491
0.00557893
0.00558242
0.00558531
0.00558753
0.00537099
0.00537574
0.00538084
0.00538596
0.00539091
0.00539553
0.00539976
0.00540352
0.00540679
0.0054095
0.00541163
0.00505735
0.00506201
0.00506642
0.00507093
0.00507544
0.00507981
0.00508391
0.00508764
0.00509096
0.00509384
0.00509623
0.00509812
0.0047079
0.0047138
0.00471902
0.00472375
0.00472813
0.00473219
0.00473588
0.00473918
0.00474207
0.00474453
0.00474657
0.00474819
0.0041606
0.00416379
0.00416678
0.00416951
0.00417201
0.00417429
0.00417636
0.00417819
0.00417978
0.00418114
0.00418227
0.00418317
0.0104874
0.0104951
0.0105046
0.0105152
0.010526
0.0105366
0.0105464
0.0105554
0.0105633
0.0105698
0.010575
0.0103956
0.0104029
0.0104122
0.0104226
0.0104331
0.0104434
0.0104531
0.0104619
0.0104696
0.010476
0.0104812
0.00996886
0.00997787
0.00998823
0.00999897
0.0100096
0.0100197
0.010029
0.0100375
0.0100448
0.010051
0.0100558
0.00915914
0.00916941
0.00917988
0.00919058
0.00920119
0.00921139
0.00922095
0.00922967
0.00923744
0.00924417
0.00924976
0.0092542
0.00774577
0.00775816
0.00776936
0.00777991
0.00778982
0.00779901
0.00780738
0.00781485
0.00782139
0.00782698
0.00783158
0.00783517
0.00467913
0.00468461
0.0046897
0.00469445
0.00469889
0.00470298
0.0047067
0.00471001
0.00471291
0.00471538
0.00471743
0.00471906
0.0134119
0.0134173
0.0134259
0.0134366
0.0134483
0.0134601
0.0134716
0.0134824
0.0134922
0.0135008
0.0135086
0.0132133
0.013219
0.0132279
0.0132386
0.0132504
0.0132622
0.0132736
0.0132843
0.0132939
0.0133024
0.0133098
0.0125073
0.0125156
0.0125262
0.0125379
0.01255
0.0125619
0.0125732
0.0125835
0.0125927
0.0126007
0.0126074
0.0111937
0.0112038
0.0112155
0.0112278
0.0112402
0.0112523
0.0112638
0.0112745
0.011284
0.0112924
0.0112995
0.0113053
0.00894487
0.00895749
0.00896988
0.00898186
0.00899327
0.00900395
0.00901376
0.00902262
0.00903046
0.0090372
0.00904279
0.00904718
0.00497848
0.0049834
0.00498844
0.00499344
0.00499826
0.00500278
0.00500695
0.00501072
0.00501405
0.00501693
0.00501932
0.00502123
0.015293
0.0152942
0.0152999
0.0153086
0.0153193
0.0153309
0.0153425
0.0153539
0.0153648
0.0153751
0.0153854
0.0150036
0.0150059
0.0150124
0.0150218
0.0150329
0.0150447
0.0150565
0.0150679
0.0150786
0.0150885
0.015098
0.0140795
0.0140851
0.0140939
0.0141048
0.0141168
0.014129
0.0141409
0.0141521
0.0141623
0.0141714
0.0141797
0.012425
0.0124318
0.0124415
0.012453
0.0124653
0.0124778
0.0124899
0.0125014
0.0125118
0.0125211
0.0125291
0.0125358
0.00975208
0.00976255
0.00977392
0.00978565
0.00979729
0.00980848
0.00981896
0.00982855
0.00983712
0.00984456
0.00985075
0.0098556
0.00531456
0.00531903
0.00532402
0.00532923
0.00533441
0.00533939
0.00534406
0.00534833
0.00535214
0.00535544
0.00535821
0.0053604
0.0160385
0.0160373
0.0160413
0.0160488
0.0160585
0.0160696
0.0160811
0.0160926
0.0161038
0.0161148
0.0161258
0.0149829
0.0149851
0.0149916
0.015001
0.0150122
0.0150241
0.015036
0.0150475
0.0150582
0.0150681
0.0150775
0.013144
0.0131466
0.0131534
0.0131631
0.0131745
0.0131866
0.0131987
0.0132103
0.0132211
0.0132309
0.0132393
0.0132467
0.0102594
0.0102665
0.0102758
0.0102864
0.0102974
0.0103085
0.0103191
0.0103289
0.0103378
0.0103456
0.0103521
0.0103572
0.00550737
0.00551094
0.00551542
0.0055204
0.00552554
0.00553061
0.00553544
0.00553991
0.00554394
0.00554746
0.00555041
0.00555273
0.0163839
0.0163806
0.0163831
0.0163896
0.0163987
0.0164093
0.0164207
0.0164322
0.0164435
0.0164548
0.0164663
0.015293
0.0152932
0.0152984
0.0153069
0.0153175
0.0153291
0.0153409
0.0153524
0.0153633
0.0153735
0.0153833
0.0134119
0.013412
0.0134169
0.0134253
0.0134359
0.0134476
0.0134595
0.0134711
0.013482
0.0134918
0.0135005
0.013508
0.0104837
0.010488
0.0104954
0.0105048
0.0105152
0.0105258
0.0105362
0.010546
0.0105549
0.0105627
0.0105693
0.0105746
0.00558745
0.00559016
0.00559405
0.00559865
0.00560358
0.00560853
0.00561331
0.00561777
0.00562181
0.00562535
0.00562831
0.00563063
0.0160398
0.0160378
0.0160413
0.0160485
0.0160581
0.0160691
0.0160807
0.0160923
0.0161035
0.0161145
0.0161254
0.015005
0.0150062
0.0150122
0.0150213
0.0150322
0.015044
0.0150559
0.0150674
0.0150782
0.0150882
0.0150975
0.013213
0.0132136
0.013219
0.0132277
0.0132385
0.0132502
0.0132621
0.0132736
0.0132843
0.013294
0.0133024
0.0133097
0.0103934
0.0103972
0.0104041
0.0104131
0.0104232
0.0104336
0.0104438
0.0104534
0.0104621
0.0104698
0.0104762
0.0104813
0.00554614
0.00554857
0.00555221
0.0055566
0.00556135
0.00556616
0.00557081
0.00557515
0.00557908
0.00558251
0.00558538
0.0055876
0.014983
0.0149854
0.0149919
0.0150013
0.0150124
0.0150243
0.0150363
0.0150478
0.0150586
0.0150687
0.0150782
0.0140796
0.0140849
0.0140936
0.0141045
0.0141165
0.0141288
0.0141408
0.0141521
0.0141625
0.0141717
0.0141799
0.0125024
0.0125074
0.0125157
0.0125262
0.0125379
0.0125501
0.012562
0.0125734
0.0125838
0.0125931
0.012601
0.0126077
0.00996425
0.0099707
0.00997932
0.00998927
0.00999973
0.0100102
0.0100202
0.0100295
0.0100379
0.0100452
0.0100514
0.0100562
0.00536911
0.00537276
0.00537711
0.00538185
0.0053867
0.00539145
0.00539595
0.00540009
0.0054038
0.00540702
0.00540971
0.00541183
0.0131467
0.0131535
0.0131632
0.0131746
0.0131868
0.013199
0.0132107
0.0132217
0.0132315
0.01324
0.0132474
0.0124319
0.0124414
0.0124528
0.0124652
0.0124779
0.0124902
0.0125018
0.0125125
0.0125219
0.0125299
0.0125365
0.0111939
0.011204
0.0112155
0.0112278
0.0112403
0.0112525
0.0112642
0.011275
0.0112846
0.0112931
0.0113002
0.0113059
0.00915889
0.00916902
0.00917978
0.00919071
0.00920148
0.00921177
0.00922139
0.00923016
0.00923796
0.00924471
0.00925031
0.00925471
0.00505651
0.0050611
0.00506594
0.0050708
0.00507552
0.00507999
0.00508413
0.00508788
0.0050912
0.00509407
0.00509645
0.00509834
0.0102669
0.0102766
0.0102877
0.0102992
0.0103107
0.0103216
0.0103317
0.0103408
0.0103487
0.0103551
0.01036
0.00976218
0.00977406
0.00978634
0.00979848
0.0098101
0.00982095
0.00983083
0.00983962
0.00984719
0.00985339
0.00985807
0.0089459
0.00895851
0.00897067
0.00898261
0.00899413
0.00900501
0.00901504
0.0090241
0.0090321
0.00903895
0.00904457
0.00904888
0.00774622
0.00775865
0.00776985
0.00778043
0.00779042
0.00779972
0.00780819
0.00781577
0.0078224
0.00782804
0.00783266
0.00783622
0.00470805
0.00471387
0.00471909
0.00472388
0.00472833
0.00473244
0.00473618
0.00473952
0.00474243
0.00474491
0.00474695
0.00474856
0.00551131
0.00551643
0.00552201
0.00552767
0.00553316
0.00553832
0.00554304
0.00554725
0.00555087
0.00555381
0.0055559
0.00531853
0.00532399
0.00532972
0.00533536
0.00534073
0.00534571
0.0053502
0.00535418
0.0053576
0.00536039
0.00536248
0.00497953
0.00498446
0.00498923
0.0049941
0.00499894
0.00500357
0.00500787
0.00501176
0.00501519
0.00501814
0.00502057
0.00502244
0.00467957
0.0046852
0.00469025
0.00469494
0.00469936
0.00470348
0.00470726
0.00471064
0.00471359
0.00471611
0.00471818
0.0047198
0.00416083
0.00416403
0.004167
0.00416973
0.00417224
0.00417454
0.00417664
0.0041785
0.00418011
0.00418148
0.00418261
0.00418351
)
;

boundaryField
{
    inlet
    {
        type            fixedValue;
        value           nonuniform List<scalar> 0();
    }
    ami1
    {
        type            cyclicAMI;
        value           nonuniform List<scalar> 0();
    }
    walls
    {
        type            kqRWallFunction;
        value           nonuniform List<scalar> 
259
(
0.00505735
0.0047079
0.0041606
0.0055892
0.00554665
0.00537099
0.00506201
0.0047138
0.00416379
0.00559339
0.00555074
0.00537574
0.00506642
0.00471902
0.00416678
0.00559829
0.00555551
0.00538084
0.00507093
0.00472375
0.00416951
0.00560349
0.00556058
0.00538596
0.00507544
0.00472813
0.00417201
0.00560868
0.00556562
0.00539091
0.00507981
0.00473219
0.00417429
0.00561365
0.00557045
0.00539553
0.00508391
0.00473588
0.00417636
0.00561826
0.00557491
0.00539976
0.00508764
0.00473918
0.00417819
0.0056224
0.00557893
0.00540352
0.00509096
0.00474207
0.00417978
0.005626
0.00558242
0.00540679
0.00509384
0.00474453
0.00418114
0.00562896
0.00558531
0.0054095
0.00509623
0.00474657
0.00418227
0.00563119
0.00558753
0.00541163
0.00509812
0.00474819
0.00418317
0.0041606
0.00467913
0.00497848
0.00531456
0.00550737
0.00558745
0.00554614
0.00536911
0.00505651
0.00470805
0.00416083
0.00416379
0.00468461
0.0049834
0.00531903
0.00551094
0.00559016
0.00554857
0.00537276
0.0050611
0.00471387
0.00416403
0.00416678
0.0046897
0.00498844
0.00532402
0.00551542
0.00559405
0.00555221
0.00537711
0.00506594
0.00471909
0.004167
0.00416951
0.00469445
0.00499344
0.00532923
0.0055204
0.00559865
0.0055566
0.00538185
0.0050708
0.00472388
0.00416973
0.00417201
0.00469889
0.00499826
0.00533441
0.00552554
0.00560358
0.00556135
0.0053867
0.00507552
0.00472833
0.00417224
0.00417429
0.00470298
0.00500278
0.00533939
0.00553061
0.00560853
0.00556616
0.00539145
0.00507999
0.00473244
0.00417454
0.00417636
0.0047067
0.00500695
0.00534406
0.00553544
0.00561331
0.00557081
0.00539595
0.00508413
0.00473618
0.00417664
0.00417819
0.00471001
0.00501072
0.00534833
0.00553991
0.00561777
0.00557515
0.00540009
0.00508788
0.00473952
0.0041785
0.00417978
0.00471291
0.00501405
0.00535214
0.00554394
0.00562181
0.00557908
0.0054038
0.0050912
0.00474243
0.00418011
0.00418114
0.00471538
0.00501693
0.00535544
0.00554746
0.00562535
0.00558251
0.00540702
0.00509407
0.00474491
0.00418148
0.00418227
0.00471743
0.00501932
0.00535821
0.00555041
0.00562831
0.00558538
0.00540971
0.00509645
0.00474695
0.00418261
0.00418317
0.00471906
0.00502123
0.0053604
0.00555273
0.00563063
0.0055876
0.00541183
0.00509834
0.00474856
0.00418351
0.00497953
0.00467957
0.00416083
0.00551131
0.00531853
0.00498446
0.0046852
0.00416403
0.00551643
0.00532399
0.00498923
0.00469025
0.004167
0.00552201
0.00532972
0.0049941
0.00469494
0.00416973
0.00552767
0.00533536
0.00499894
0.00469936
0.00417224
0.00553316
0.00534073
0.00500357
0.00470348
0.00417454
0.00553832
0.00534571
0.00500787
0.00470726
0.00417664
0.00554304
0.0053502
0.00501176
0.00471064
0.0041785
0.00554725
0.00535418
0.00501519
0.00471359
0.00418011
0.00555087
0.0053576
0.00501814
0.00471611
0.00418148
0.00555381
0.00536039
0.00502057
0.00471818
0.00418261
0.0055559
0.00536248
0.00502244
0.0047198
0.00418351
)
;
    }
    ami2
    {
        type            cyclicAMI;
        value           nonuniform List<scalar> 0();
    }
    outlet
    {
        type            zeroGradient;
    }
    procBoundary9to0
    {
        type            processor;
        value           nonuniform List<scalar> 
40
(
0.00558621
0.00554375
0.00536711
0.00536711
0.00505184
0.00470135
0.00415711
0.0104826
0.0103913
0.00996207
0.00996207
0.00914911
0.00773127
0.0046733
0.0134102
0.0132113
0.0125018
0.0125018
0.0111856
0.008932
0.00497385
0.0152943
0.0150049
0.0140773
0.0140773
0.0124215
0.00974308
0.00531097
0.0160421
0.0149839
0.0149839
0.0131455
0.0102554
0.0055052
0.0163888
0.0152958
0.0152958
0.0134155
0.0104832
0.00558646
)
;
    }
    procBoundary9to1
    {
        type            processor;
        value           nonuniform List<scalar> 
30
(
0.0160436
0.0150067
0.0150067
0.0132163
0.0103935
0.00554531
0.0149834
0.0140775
0.0140775
0.0125012
0.0099608
0.00536655
0.0131428
0.0124247
0.0124247
0.0111858
0.00914975
0.00505231
0.0102591
0.00975151
0.00975151
0.00893206
0.00773159
0.00470162
0.00550714
0.00531384
0.00531384
0.00497388
0.00467342
0.00415724
)
;
    }
    procBoundary9to7
    {
        type            processor;
        value           nonuniform List<scalar> 
59
(
0.00563289
0.00558927
0.00541329
0.00509958
0.00474941
0.00418387
0.0105791
0.0104853
0.0100598
0.00925764
0.00783786
0.00472032
0.0135147
0.0133158
0.0126129
0.0113099
0.00905059
0.00502272
0.0153926
0.0151055
0.0141864
0.0125413
0.00985953
0.00536215
0.0161339
0.015085
0.0132527
0.0103614
0.0055546
0.0164747
0.015391
0.0135142
0.0105789
0.00563249
0.0161335
0.015105
0.0133158
0.0104855
0.00558938
0.0150855
0.0141866
0.0126132
0.0100601
0.00541349
0.0132533
0.0125419
0.0113105
0.00925813
0.00509978
0.0103636
0.00986157
0.0090521
0.00783882
0.00474977
0.00555711
0.00536396
0.00502382
0.00472101
0.00418419
)
;
    }
    procBoundary9to8
    {
        type            processor;
        value           nonuniform List<scalar> 
132
(
0.0055113
0.00551642
0.00552197
0.00552757
0.005533
0.0055381
0.00554276
0.00554693
0.00555052
0.00555344
0.00555553
0.0102668
0.0102767
0.0102878
0.0102992
0.0103105
0.0103213
0.0103313
0.0103403
0.0103481
0.0103546
0.0103595
0.0131468
0.0131538
0.0131636
0.0131751
0.0131872
0.0131993
0.013211
0.0132218
0.0132315
0.01324
0.0132475
0.0149828
0.0149856
0.0149925
0.0150021
0.0150133
0.0150252
0.0150371
0.0150485
0.0150592
0.0150693
0.015079
0.016383
0.0163804
0.0163834
0.0163901
0.0163994
0.0164101
0.0164214
0.0164329
0.0164443
0.0164556
0.0164673
0.016383
0.0163804
0.0163834
0.0163901
0.0163994
0.0164101
0.0164214
0.0164329
0.0164443
0.0164556
0.0164673
0.0167443
0.0167393
0.0167407
0.0167464
0.016755
0.0167654
0.0167765
0.016788
0.0167995
0.0168111
0.0168231
0.0163836
0.01638
0.0163824
0.0163889
0.0163981
0.0164089
0.0164203
0.0164319
0.0164433
0.0164545
0.0164659
0.0152921
0.0152928
0.0152984
0.0153071
0.0153177
0.0153294
0.0153413
0.0153528
0.0153638
0.015374
0.0153839
0.0134118
0.013417
0.0134255
0.0134361
0.0134478
0.0134598
0.0134715
0.0134824
0.0134923
0.013501
0.0135086
0.0104875
0.0104952
0.0105048
0.0105155
0.0105264
0.010537
0.0105469
0.010556
0.0105639
0.0105705
0.0105756
0.00558935
0.00559359
0.00559853
0.00560378
0.00560901
0.00561401
0.00561865
0.00562281
0.00562642
0.00562938
0.0056316
)
;
    }
}


// ************************************************************************* //
