/*--------------------------------*- C++ -*----------------------------------*\
| =========                 |                                                 |
| \\      /  F ield         | OpenFOAM: The Open Source CFD Toolbox           |
|  \\    /   O peration     | Version:  2212                                  |
|   \\  /    A nd           | Website:  www.openfoam.com                      |
|    \\/     M anipulation  |                                                 |
\*---------------------------------------------------------------------------*/
FoamFile
{
    version     2.0;
    format      ascii;
    arch        "LSB;label=32;scalar=64";
    class       volScalarField;
    location    "1";
    object      epsilon;
}
// * * * * * * * * * * * * * * * * * * * * * * * * * * * * * * * * * * * * * //

dimensions      [0 2 -3 0 0 0 0];

internalField   nonuniform List<scalar> 
6840
(
90.5034
12.1248
4.3887
2.46659
1.63316
1.18307
0.902021
0.720673
0.594601
0.502522
0.432706
0.379325
0.336378
0.299992
0.270387
0.246462
0.227034
0.211699
0.202782
0.194783
58.5856
14.5696
6.08947
3.33296
2.08218
1.40267
0.998658
0.740294
0.565914
0.44394
0.356043
0.290961
0.24146
0.203066
0.173208
0.149997
0.131662
0.117189
0.1065
0.0994534
45.0226
13.4729
5.73075
3.07323
1.86023
1.227
0.873582
0.649787
0.497024
0.389496
0.311311
0.253006
0.209021
0.175275
0.148913
0.128031
0.111353
0.0979454
0.0871987
0.0790204
38.7028
13.0541
5.74337
3.08734
1.88067
1.22751
0.869482
0.64539
0.492599
0.384789
0.307036
0.24906
0.204999
0.171017
0.144442
0.123392
0.106521
0.0928588
0.0817405
0.0733048
36.0571
12.8529
5.76645
3.10212
1.89476
1.22669
0.866503
0.643986
0.492254
0.383969
0.305802
0.247927
0.20393
0.169961
0.143352
0.122227
0.105239
0.0914131
0.0801319
0.0718698
36.0571
12.8529
5.76645
3.10211
1.89475
1.22669
0.866498
0.64398
0.492246
0.383959
0.305787
0.247907
0.203902
0.169921
0.143294
0.122141
0.10511
0.091216
0.0798147
0.0711791
38.7028
13.0541
5.74336
3.08733
1.88066
1.2275
0.869471
0.645376
0.492581
0.384766
0.307003
0.249016
0.204938
0.170932
0.14432
0.123212
0.106252
0.0924506
0.0811663
0.0728947
45.0226
13.4729
5.73075
3.07323
1.86023
1.22699
0.873572
0.649775
0.497007
0.38947
0.311277
0.25296
0.208959
0.175187
0.148784
0.12784
0.111064
0.0975013
0.0865291
0.0782038
58.5856
14.5696
6.08947
3.33296
2.08218
1.40267
0.998656
0.74029
0.565909
0.443931
0.356028
0.290938
0.241425
0.203
0.173115
0.149849
0.131404
0.116707
0.105569
0.0980143
90.5034
12.1248
4.3887
2.46659
1.63316
1.18307
0.902021
0.720673
0.594601
0.502522
0.432706
0.379325
0.336378
0.299992
0.270387
0.246462
0.227034
0.211699
0.202781
0.194784
58.5856
14.5696
6.08947
3.33296
2.08218
1.40267
0.998656
0.74029
0.565909
0.443931
0.356028
0.290938
0.241425
0.203001
0.173115
0.149849
0.131404
0.116707
0.10557
0.0980145
16.5373
9.49239
5.01271
2.8606
1.75746
1.1476
0.786935
0.562054
0.415373
0.315954
0.246341
0.196233
0.159234
0.131267
0.109798
0.0932277
0.0801893
0.0696746
0.0607124
0.0565753
13.6679
8.73671
5.07741
3.05388
1.92224
1.2661
0.869295
0.618638
0.453968
0.342045
0.263665
0.207329
0.165924
0.134873
0.111171
0.0927171
0.0781969
0.0666516
0.0571616
0.0502477
12.9054
8.33993
5.07879
3.15547
2.02775
1.35121
0.933542
0.666464
0.489553
0.368604
0.283615
0.2224
0.177343
0.143544
0.11776
0.0977853
0.0820984
0.0696294
0.0595997
0.051371
12.6882
8.1544
5.07113
3.20038
2.07939
1.39506
0.967832
0.692722
0.509638
0.384016
0.295503
0.231646
0.18459
0.149256
0.122279
0.101373
0.084952
0.0718953
0.061403
0.0529409
12.6882
8.1544
5.07113
3.20038
2.07939
1.39506
0.967829
0.692719
0.509634
0.384011
0.295497
0.231639
0.184581
0.149246
0.122268
0.10136
0.0849368
0.0718814
0.0613926
0.052924
12.9054
8.33993
5.07879
3.15547
2.02775
1.3512
0.933537
0.666458
0.489545
0.368594
0.283603
0.222385
0.177325
0.143524
0.117736
0.0977564
0.0820668
0.0695983
0.0595722
0.0513328
13.6679
8.73671
5.07741
3.05388
1.92224
1.26609
0.869292
0.618634
0.453963
0.342039
0.263657
0.207319
0.165912
0.13486
0.111156
0.0926998
0.0781826
0.0666493
0.0571976
0.0498
16.5373
9.49239
5.01271
2.8606
1.75746
1.1476
0.786935
0.562054
0.415373
0.315954
0.246341
0.196233
0.159233
0.131268
0.109797
0.0932272
0.0801889
0.0696742
0.060712
0.0565757
58.5856
14.5696
6.08947
3.33296
2.08218
1.40267
0.998658
0.740294
0.565914
0.44394
0.356043
0.290961
0.24146
0.203066
0.173208
0.149997
0.131662
0.117189
0.1065
0.0994537
45.0226
13.4729
5.73075
3.07323
1.86023
1.22699
0.873572
0.649775
0.497007
0.38947
0.311277
0.25296
0.208958
0.175187
0.148785
0.12784
0.111064
0.0975015
0.0865288
0.078201
13.6679
8.73671
5.07741
3.05388
1.92224
1.26609
0.869292
0.618634
0.453963
0.342039
0.263657
0.207319
0.165912
0.134859
0.111157
0.0927005
0.0781829
0.0666495
0.057198
0.0497994
11.8601
7.76395
4.99734
3.24076
2.1442
1.45499
1.01411
0.725639
0.532161
0.399156
0.305554
0.238232
0.188837
0.151929
0.123892
0.102261
0.0853477
0.0719601
0.0612251
0.0526395
11.6229
7.60535
5.01031
3.34209
2.26848
1.57142
1.11236
0.804591
0.594208
0.447522
0.343217
0.267641
0.211908
0.17013
0.138336
0.113799
0.0946175
0.0794461
0.0673162
0.0575521
11.5726
7.56718
5.02065
3.38344
2.32103
1.62326
1.15828
0.843155
0.62569
0.472848
0.363482
0.283851
0.224903
0.180585
0.146784
0.120659
0.100215
0.0840342
0.0710929
0.0606337
11.5726
7.56718
5.02065
3.38344
2.32103
1.62326
1.15828
0.843153
0.625687
0.472845
0.363478
0.283846
0.224897
0.180579
0.146777
0.120649
0.100204
0.0840222
0.0710805
0.0606167
11.6229
7.60535
5.0103
3.34209
2.26848
1.57142
1.11236
0.804588
0.594204
0.447517
0.34321
0.267633
0.211899
0.17012
0.138322
0.113781
0.094597
0.0794236
0.0672936
0.0575194
11.8601
7.76395
4.99734
3.24076
2.1442
1.45499
1.01411
0.725639
0.532161
0.399156
0.305554
0.238232
0.188837
0.15193
0.123891
0.10226
0.0853473
0.0719597
0.0612245
0.0526393
13.6679
8.73671
5.07741
3.05388
1.92224
1.2661
0.869295
0.618638
0.453968
0.342045
0.263665
0.207329
0.165924
0.134873
0.111172
0.092717
0.0781967
0.0666513
0.0571612
0.0502482
45.0226
13.4729
5.73075
3.07323
1.86023
1.227
0.873582
0.649787
0.497024
0.389496
0.311311
0.253006
0.209021
0.175275
0.148914
0.128031
0.111353
0.0979454
0.087199
0.0790235
38.7028
13.0541
5.74336
3.08733
1.88066
1.2275
0.869471
0.645376
0.492581
0.384766
0.307003
0.249016
0.204938
0.170932
0.14432
0.123213
0.106252
0.0924507
0.0811662
0.0728943
12.9054
8.33993
5.07879
3.15547
2.02775
1.3512
0.933537
0.666458
0.489545
0.368594
0.283603
0.222385
0.177324
0.143522
0.117737
0.0977569
0.0820669
0.0695982
0.0595719
0.0513334
11.6229
7.60535
5.0103
3.34209
2.26848
1.57142
1.11236
0.804588
0.594204
0.447517
0.34321
0.267633
0.211898
0.170119
0.138323
0.113782
0.0945971
0.0794235
0.0672935
0.0575189
11.4933
7.5119
5.02843
3.434
2.3892
1.6928
1.22111
0.896487
0.669457
0.508124
0.391658
0.306288
0.242788
0.194892
0.158286
0.129961
0.107788
0.0902408
0.0762075
0.0648274
11.4757
7.50136
5.04297
3.47002
2.43665
1.74299
1.26863
0.938712
0.705583
0.538335
0.416593
0.326728
0.259499
0.208558
0.169486
0.139171
0.115393
0.0965486
0.0814518
0.0691107
11.4757
7.50136
5.04297
3.47002
2.43665
1.74299
1.26863
0.938711
0.705582
0.538334
0.416592
0.326727
0.259498
0.208556
0.169484
0.139169
0.115391
0.0965465
0.0814521
0.0691394
11.4933
7.5119
5.02843
3.434
2.3892
1.6928
1.22111
0.896487
0.669457
0.508124
0.391658
0.306288
0.242788
0.194892
0.158286
0.129961
0.107788
0.0902407
0.0762074
0.0648274
11.6229
7.60535
5.01031
3.34209
2.26848
1.57142
1.11236
0.804591
0.594208
0.447522
0.343217
0.267641
0.211908
0.17013
0.138336
0.113799
0.0946172
0.0794457
0.0673157
0.0575516
12.9054
8.33993
5.07879
3.15547
2.02775
1.35121
0.933542
0.666464
0.489553
0.368604
0.283615
0.2224
0.177343
0.143543
0.117761
0.0977857
0.0820986
0.0696294
0.0595997
0.0513709
38.7028
13.0541
5.74337
3.08734
1.88067
1.22751
0.869482
0.64539
0.492599
0.384789
0.307036
0.24906
0.204998
0.171016
0.144442
0.123393
0.106521
0.092859
0.0817407
0.0733054
36.0571
12.8529
5.76645
3.10211
1.89475
1.22669
0.866498
0.64398
0.492246
0.383959
0.305787
0.247907
0.203902
0.169921
0.143294
0.122141
0.10511
0.091216
0.0798146
0.0711787
12.6882
8.1544
5.07113
3.20038
2.07939
1.39506
0.967829
0.692719
0.509634
0.384011
0.295497
0.231639
0.18458
0.149245
0.122268
0.101359
0.0849363
0.0718808
0.0613918
0.0529234
11.5726
7.56718
5.02065
3.38344
2.32103
1.62326
1.15828
0.843153
0.625687
0.472845
0.363478
0.283846
0.224897
0.180578
0.146776
0.120649
0.100204
0.0840217
0.0710799
0.0606158
11.4757
7.50136
5.04297
3.47002
2.43665
1.74299
1.26863
0.938711
0.705582
0.538334
0.416592
0.326727
0.259498
0.208556
0.169484
0.139169
0.115391
0.0965464
0.0814519
0.0691391
11.4647
7.49683
5.0577
3.50272
2.48038
1.79068
1.31522
0.981304
0.742923
0.570209
0.44335
0.348968
0.277889
0.223737
0.182022
0.149548
0.124012
0.103737
0.0874641
0.0741347
11.4647
7.49683
5.0577
3.50272
2.48038
1.79068
1.31522
0.981304
0.742923
0.570209
0.44335
0.348968
0.277889
0.223737
0.182022
0.149548
0.124012
0.103737
0.0874641
0.0741348
11.4757
7.50136
5.04297
3.47002
2.43665
1.74299
1.26863
0.938712
0.705583
0.538335
0.416593
0.326728
0.259499
0.208558
0.169486
0.139171
0.115393
0.0965484
0.0814517
0.0691108
11.5726
7.56718
5.02065
3.38344
2.32103
1.62326
1.15828
0.843155
0.62569
0.472848
0.363482
0.283851
0.224903
0.180585
0.146784
0.120659
0.100215
0.084034
0.0710926
0.0606335
12.6882
8.1544
5.07113
3.20038
2.07939
1.39506
0.967832
0.692722
0.509638
0.384016
0.295503
0.231646
0.184589
0.149255
0.12228
0.101374
0.0849523
0.0718955
0.0614032
0.0529412
36.0571
12.8529
5.76645
3.10212
1.89476
1.22669
0.866503
0.643986
0.492254
0.383969
0.305802
0.247927
0.20393
0.169961
0.143352
0.122228
0.10524
0.0914134
0.0801322
0.0718702
36.0571
12.8529
5.76645
3.10212
1.89476
1.22669
0.866503
0.643986
0.492254
0.383969
0.305802
0.247927
0.203931
0.169961
0.143352
0.122227
0.105239
0.0914131
0.0801319
0.07187
12.6882
8.1544
5.07113
3.20038
2.07939
1.39506
0.967832
0.692722
0.509638
0.384016
0.295503
0.231646
0.18459
0.149256
0.122279
0.101373
0.0849517
0.0718949
0.0614024
0.0529403
11.5726
7.56718
5.02065
3.38344
2.32103
1.62326
1.15828
0.843155
0.62569
0.472848
0.363482
0.283851
0.224903
0.180585
0.146784
0.120659
0.100215
0.084034
0.0710926
0.0606334
11.4757
7.50136
5.04297
3.47002
2.43665
1.74299
1.26863
0.938712
0.705583
0.538335
0.416593
0.326728
0.259499
0.208558
0.169486
0.139171
0.115393
0.0965486
0.0814519
0.069111
11.4647
7.49683
5.0577
3.50272
2.48038
1.79068
1.31522
0.981304
0.742923
0.570209
0.44335
0.348968
0.277889
0.223737
0.182022
0.149548
0.124012
0.103737
0.0874642
0.074135
11.4647
7.49683
5.0577
3.50272
2.48038
1.79068
1.31522
0.981304
0.742923
0.570209
0.44335
0.348968
0.277889
0.223737
0.182022
0.149548
0.124012
0.103737
0.0874642
0.0741349
11.4757
7.50136
5.04297
3.47002
2.43665
1.74299
1.26863
0.938711
0.705582
0.538334
0.416592
0.326727
0.259498
0.208556
0.169484
0.139169
0.115391
0.0965465
0.0814521
0.0691397
11.5726
7.56718
5.02065
3.38344
2.32103
1.62326
1.15828
0.843153
0.625687
0.472845
0.363478
0.283846
0.224897
0.180578
0.146776
0.120649
0.100204
0.0840222
0.0710805
0.0606169
12.6882
8.1544
5.07113
3.20038
2.07939
1.39506
0.967829
0.692719
0.509634
0.384011
0.295497
0.231639
0.184581
0.149245
0.122267
0.101359
0.0849367
0.0718814
0.0613926
0.0529243
36.0571
12.8529
5.76645
3.10211
1.89475
1.22669
0.866498
0.64398
0.492246
0.383959
0.305787
0.247907
0.203902
0.169921
0.143294
0.122141
0.10511
0.091216
0.0798147
0.0711788
38.7028
13.0541
5.74337
3.08734
1.88067
1.22751
0.869482
0.64539
0.492599
0.384789
0.307036
0.24906
0.204999
0.171017
0.144442
0.123392
0.106521
0.0928589
0.0817407
0.0733054
12.9054
8.33993
5.07879
3.15547
2.02775
1.35121
0.933542
0.666464
0.489553
0.368604
0.283615
0.2224
0.177343
0.143544
0.11776
0.0977853
0.0820985
0.0696295
0.0595998
0.0513712
11.6229
7.60535
5.01031
3.34209
2.26848
1.57142
1.11236
0.804591
0.594208
0.447522
0.343217
0.267641
0.211909
0.170131
0.138336
0.113799
0.0946177
0.0794464
0.0673167
0.0575527
11.4933
7.5119
5.02843
3.434
2.3892
1.6928
1.22111
0.896487
0.669457
0.508124
0.391658
0.306288
0.242788
0.194892
0.158286
0.129961
0.107788
0.0902412
0.0762081
0.0648282
11.4757
7.50136
5.04297
3.47002
2.43665
1.74299
1.26863
0.938711
0.705582
0.538334
0.416592
0.326727
0.259498
0.208556
0.169484
0.139169
0.115391
0.0965466
0.0814522
0.0691397
11.4757
7.50136
5.04297
3.47002
2.43665
1.74299
1.26863
0.938712
0.705583
0.538335
0.416593
0.326728
0.259499
0.208558
0.169486
0.139171
0.115393
0.0965485
0.0814518
0.069111
11.4933
7.5119
5.02843
3.434
2.3892
1.6928
1.22111
0.896487
0.669457
0.508124
0.391658
0.306288
0.242788
0.194892
0.158286
0.129961
0.107788
0.0902409
0.0762078
0.0648281
11.6229
7.60535
5.0103
3.34209
2.26848
1.57142
1.11236
0.804588
0.594204
0.447517
0.34321
0.267633
0.211899
0.170119
0.138322
0.113781
0.0945972
0.0794239
0.0672941
0.0575197
12.9054
8.33993
5.07879
3.15547
2.02775
1.3512
0.933537
0.666457
0.489545
0.368594
0.283603
0.222385
0.177325
0.143524
0.117736
0.0977563
0.0820667
0.0695982
0.059572
0.0513331
38.7028
13.0541
5.74336
3.08733
1.88066
1.2275
0.869471
0.645376
0.492581
0.384766
0.307003
0.249016
0.204938
0.170932
0.144319
0.123212
0.106252
0.0924505
0.081166
0.0728944
45.0226
13.4729
5.73075
3.07323
1.86023
1.227
0.873582
0.649787
0.497024
0.389496
0.311311
0.253006
0.209021
0.175275
0.148914
0.128031
0.111353
0.0979455
0.0871993
0.0790241
13.6679
8.73671
5.07741
3.05388
1.92224
1.2661
0.869295
0.618638
0.453968
0.342045
0.263665
0.20733
0.165924
0.134873
0.111172
0.0927174
0.0781975
0.0666522
0.0571622
0.0502496
11.8601
7.76395
4.99734
3.24076
2.1442
1.45499
1.01411
0.725639
0.532161
0.399156
0.305554
0.238232
0.188837
0.15193
0.123892
0.102261
0.0853483
0.0719608
0.061226
0.0526407
11.6229
7.60535
5.0103
3.34209
2.26848
1.57142
1.11236
0.804588
0.594204
0.447517
0.34321
0.267633
0.211898
0.170119
0.138323
0.113782
0.0945976
0.0794242
0.0672943
0.0575198
11.5726
7.56718
5.02065
3.38344
2.32103
1.62326
1.15828
0.843153
0.625687
0.472845
0.363478
0.283846
0.224897
0.180578
0.146777
0.120649
0.100204
0.084022
0.0710803
0.0606163
11.5726
7.56718
5.02065
3.38344
2.32103
1.62326
1.15828
0.843155
0.62569
0.472848
0.363482
0.283851
0.224903
0.180585
0.146784
0.120659
0.100215
0.0840338
0.0710925
0.0606333
11.6229
7.60535
5.01031
3.34209
2.26848
1.57142
1.11236
0.804591
0.594208
0.447522
0.343217
0.267641
0.211908
0.17013
0.138336
0.113799
0.0946175
0.079446
0.0673162
0.0575521
11.8601
7.76395
4.99734
3.24076
2.1442
1.45499
1.01411
0.725639
0.532161
0.399156
0.305554
0.238232
0.188837
0.15193
0.123891
0.102261
0.0853477
0.0719602
0.0612252
0.0526397
13.6679
8.73671
5.07741
3.05388
1.92224
1.26609
0.869292
0.618634
0.453963
0.342039
0.263656
0.207319
0.165912
0.13486
0.111156
0.0926998
0.0781826
0.0666492
0.0571974
0.0497989
45.0226
13.4729
5.73075
3.07323
1.86023
1.22699
0.873572
0.649774
0.497007
0.38947
0.311277
0.25296
0.208959
0.175187
0.148784
0.12784
0.111064
0.0975011
0.0865284
0.0781999
58.5856
14.5696
6.08947
3.33296
2.08218
1.40267
0.998658
0.740294
0.565914
0.44394
0.356043
0.290961
0.24146
0.203066
0.173209
0.149998
0.131663
0.117189
0.106501
0.0994549
16.5373
9.49239
5.01271
2.8606
1.75746
1.1476
0.786935
0.562054
0.415373
0.315954
0.246341
0.196233
0.159234
0.131267
0.109798
0.093228
0.0801897
0.0696749
0.060713
0.0565762
13.6679
8.73671
5.07741
3.05388
1.92224
1.26609
0.869292
0.618634
0.453963
0.342039
0.263657
0.207319
0.165912
0.134859
0.111157
0.0927007
0.0781832
0.0666497
0.0571982
0.0498
12.9054
8.33993
5.07879
3.15547
2.02775
1.3512
0.933537
0.666458
0.489545
0.368594
0.283603
0.222385
0.177324
0.143522
0.117737
0.0977569
0.0820669
0.0695982
0.0595719
0.0513332
12.6882
8.1544
5.07113
3.20038
2.07939
1.39506
0.967829
0.692719
0.509634
0.384011
0.295497
0.231639
0.18458
0.149245
0.122268
0.101359
0.0849362
0.0718807
0.0613917
0.0529232
12.6882
8.1544
5.07113
3.20038
2.07939
1.39506
0.967832
0.692722
0.509638
0.384016
0.295503
0.231646
0.184589
0.149256
0.122278
0.101373
0.0849516
0.0718949
0.0614024
0.0529402
12.9054
8.33993
5.07879
3.15547
2.02775
1.35121
0.933542
0.666464
0.489553
0.368604
0.283615
0.2224
0.177343
0.143543
0.117761
0.0977858
0.0820987
0.0696296
0.0595998
0.0513712
13.6679
8.73671
5.07741
3.05388
1.92224
1.2661
0.869295
0.618638
0.453968
0.342045
0.263665
0.20733
0.165924
0.134873
0.111172
0.0927175
0.0781974
0.066652
0.0571619
0.0502488
16.5373
9.49239
5.01271
2.8606
1.75746
1.1476
0.786935
0.562054
0.415372
0.315954
0.246341
0.196233
0.159234
0.131268
0.109797
0.0932273
0.080189
0.0696744
0.0607122
0.0565756
58.5856
14.5696
6.08947
3.33296
2.08218
1.40267
0.998656
0.74029
0.565909
0.443931
0.356028
0.290938
0.241424
0.203
0.173115
0.149849
0.131404
0.116707
0.105569
0.0980137
90.5034
12.1248
4.3887
2.46659
1.63316
1.18307
0.902021
0.720673
0.594601
0.502522
0.432707
0.379325
0.336378
0.299992
0.270387
0.246462
0.227035
0.211699
0.202782
0.194783
58.5856
14.5696
6.08947
3.33296
2.08218
1.40267
0.998656
0.74029
0.565909
0.443931
0.356028
0.290938
0.241425
0.203001
0.173115
0.149849
0.131404
0.116708
0.10557
0.0980143
45.0226
13.4729
5.73075
3.07323
1.86023
1.22699
0.873572
0.649775
0.497007
0.38947
0.311277
0.25296
0.208958
0.175187
0.148785
0.12784
0.111064
0.0975014
0.0865286
0.0781997
38.7028
13.0541
5.74336
3.08733
1.88066
1.2275
0.869471
0.645376
0.492581
0.384766
0.307003
0.249016
0.204938
0.170932
0.14432
0.123213
0.106252
0.0924505
0.081166
0.0728942
36.0571
12.8529
5.76645
3.10211
1.89475
1.22669
0.866498
0.64398
0.492246
0.383959
0.305787
0.247907
0.203902
0.169921
0.143294
0.122141
0.10511
0.0912158
0.0798144
0.0711787
36.0571
12.8529
5.76645
3.10212
1.89476
1.22669
0.866503
0.643986
0.492254
0.383969
0.305802
0.247927
0.20393
0.16996
0.143352
0.122227
0.105239
0.091413
0.0801318
0.0718697
38.7028
13.0541
5.74337
3.08734
1.88067
1.22751
0.869482
0.64539
0.492599
0.384789
0.307036
0.24906
0.204998
0.171016
0.144442
0.123393
0.106521
0.092859
0.0817407
0.0733056
45.0226
13.4729
5.73075
3.07323
1.86023
1.227
0.873582
0.649787
0.497024
0.389496
0.311311
0.253006
0.209021
0.175275
0.148914
0.128031
0.111353
0.0979455
0.0871992
0.0790244
58.5856
14.5696
6.08947
3.33296
2.08218
1.40267
0.998659
0.740294
0.565914
0.44394
0.356043
0.290961
0.24146
0.203066
0.173209
0.149997
0.131662
0.117189
0.106501
0.0994561
90.5034
12.1248
4.3887
2.46659
1.63316
1.18307
0.902021
0.720673
0.594601
0.502522
0.432706
0.379325
0.336378
0.299992
0.270387
0.246462
0.227034
0.211699
0.202781
0.194783
0.369396
0.291965
0.229134
0.195535
0.176181
0.164733
0.156426
0.149513
0.143859
0.139092
0.13498
0.13122
0.127618
0.12429
0.121168
0.118298
0.115655
0.113251
0.111068
0.109051
0.10721
0.105589
0.104165
0.102872
0.101705
0.100578
0.0995223
0.0985472
0.0977001
0.0969791
0.0963373
0.0956726
0.095053
0.0945225
0.0942194
0.0938192
0.0935867
0.0932974
0.0930397
0.092676
0.124054
0.104266
0.0887232
0.0784969
0.0718843
0.0673285
0.0636914
0.0605285
0.057838
0.0555015
0.0534019
0.0515396
0.0498157
0.0482662
0.0467618
0.0453954
0.0441565
0.0430448
0.0420433
0.0411367
0.040317
0.039615
0.0389934
0.0384579
0.037963
0.0374994
0.0370707
0.0366767
0.0362985
0.0359856
0.0357047
0.0354436
0.0352095
0.0349836
0.0348183
0.0346805
0.0345513
0.0344452
0.0343588
0.0342704
0.0801367
0.0721404
0.065038
0.0592845
0.0546176
0.0506233
0.0473164
0.0445713
0.0422103
0.040147
0.0383336
0.0367362
0.0353235
0.0341063
0.032848
0.0317479
0.0307754
0.0299108
0.0291347
0.0284548
0.0277718
0.0271628
0.0266521
0.0262121
0.0258035
0.0254181
0.0250647
0.0247463
0.0244613
0.0242001
0.0239617
0.0237462
0.0235612
0.02342
0.023299
0.0231508
0.0230505
0.0229562
0.0228837
0.0228296
0.0729058
0.0633076
0.0566906
0.0515133
0.0473077
0.0438125
0.0408231
0.0382389
0.0359817
0.0339939
0.0322323
0.0306643
0.0292611
0.0279986
0.0268803
0.0258729
0.0249648
0.0241508
0.0234247
0.0227603
0.0221119
0.0215524
0.0210413
0.0205914
0.0202198
0.0198754
0.0195583
0.0192776
0.0189894
0.0187289
0.0185361
0.0183656
0.0182088
0.0180701
0.0179384
0.0178247
0.017736
0.0176626
0.0176045
0.0175589
0.0717265
0.0605927
0.0536582
0.0484378
0.0442477
0.0407771
0.0378587
0.0353562
0.0331558
0.0312067
0.0294725
0.0279278
0.0265467
0.0253056
0.0241911
0.0231876
0.0222838
0.0214718
0.0207469
0.0200952
0.0195134
0.0189943
0.0185625
0.0181167
0.0177361
0.0173941
0.0170839
0.0168098
0.01653
0.0162731
0.0161006
0.0159414
0.0157953
0.0156665
0.0155312
0.0154303
0.0153623
0.0153143
0.0152655
0.0152181
0.0709203
0.0601222
0.0530852
0.0477742
0.0435078
0.0399639
0.0369648
0.0344041
0.0321688
0.0301858
0.0284224
0.0268489
0.0254435
0.024186
0.0230602
0.0220543
0.0211557
0.0203523
0.019634
0.0189926
0.0184268
0.0179264
0.0174769
0.0170805
0.0167218
0.0163649
0.0160441
0.0157682
0.0154906
0.0152428
0.0150737
0.0149173
0.0147742
0.0146476
0.0145253
0.0144259
0.014352
0.0143051
0.0142563
0.0141885
0.0671165
0.0598811
0.0537871
0.0486705
0.0443397
0.0406577
0.0375194
0.0348275
0.0324782
0.0304147
0.0285978
0.026995
0.0255755
0.0243115
0.023184
0.0221773
0.0212782
0.0204755
0.0197595
0.0191216
0.0185601
0.0180608
0.017618
0.017225
0.0168736
0.0165152
0.0161846
0.0159003
0.015616
0.0153577
0.0151793
0.015014
0.0148641
0.0147346
0.0146119
0.0145114
0.0144265
0.0143712
0.0143191
0.014261
0.0746616
0.0657354
0.0584713
0.0524346
0.047369
0.0432308
0.0397616
0.0368489
0.034378
0.032241
0.0303783
0.0287448
0.0273004
0.0260153
0.024872
0.023851
0.0229396
0.0221294
0.021414
0.0207758
0.0202039
0.0196965
0.0192376
0.0188184
0.0184375
0.0180829
0.0177542
0.017467
0.0171821
0.0169036
0.01671
0.0165297
0.0163751
0.0162395
0.0161191
0.016022
0.015942
0.0158606
0.0157898
0.0157355
0.0966762
0.0807374
0.0690072
0.0601122
0.0532956
0.0485854
0.0449834
0.0420157
0.0395063
0.0373431
0.0354459
0.0338065
0.0323321
0.0310022
0.029825
0.0287039
0.0276868
0.0267939
0.0260097
0.0252946
0.0246499
0.0240789
0.0235435
0.0230705
0.0226551
0.0222636
0.0219019
0.0215806
0.0212742
0.0209962
0.0207721
0.02058
0.020409
0.0202622
0.0201338
0.0200282
0.0199324
0.0198469
0.019776
0.0197151
0.141857
0.117319
0.0961775
0.0817576
0.0723193
0.066338
0.0620061
0.0584366
0.0555597
0.053075
0.0509007
0.049099
0.0471848
0.0454487
0.0438944
0.0424877
0.0412112
0.0400513
0.0390126
0.0380683
0.0372351
0.0365191
0.035866
0.0352778
0.0347503
0.0342629
0.0338206
0.033422
0.0330309
0.0326956
0.0324174
0.032164
0.0319368
0.0317381
0.0315408
0.0314402
0.0313185
0.031212
0.0311143
0.0310024
0.369397
0.291972
0.229136
0.195545
0.176199
0.16475
0.156443
0.149526
0.143867
0.139092
0.134976
0.131215
0.127607
0.124252
0.121143
0.118272
0.115637
0.113234
0.111054
0.10904
0.107199
0.105584
0.104154
0.102871
0.101675
0.100561
0.0995104
0.0985395
0.0976948
0.0969883
0.0963128
0.0956635
0.0950536
0.0945347
0.0941219
0.0939222
0.0936557
0.0933314
0.0930086
0.0925293
0.141858
0.117316
0.0961825
0.0817435
0.0723049
0.0663256
0.0619977
0.0584316
0.0555566
0.0530741
0.0509037
0.0491054
0.0471848
0.0454611
0.0439032
0.0425083
0.0412264
0.0400697
0.0390291
0.0380826
0.0372489
0.0365331
0.0358807
0.0353022
0.0347729
0.0342877
0.0338455
0.0334461
0.0330529
0.0327253
0.0324429
0.0321903
0.0319625
0.0317401
0.031651
0.0315221
0.0313582
0.031235
0.0311421
0.0310415
0.062794
0.0542764
0.0462167
0.0397737
0.0354815
0.0325417
0.0302562
0.0282738
0.0265999
0.0251554
0.0238597
0.0227085
0.021643
0.0207262
0.0197875
0.0190083
0.0182645
0.0176429
0.0170677
0.016548
0.0160684
0.0156677
0.0152543
0.0151103
0.0148201
0.0145092
0.0142462
0.0140296
0.0138391
0.0139133
0.0136639
0.0134081
0.01324
0.0131604
0.0133783
0.013142
0.0129597
0.0128657
0.0128087
0.0127726
0.0520697
0.0430996
0.03692
0.0318529
0.0285863
0.0260405
0.0238732
0.0220344
0.0204641
0.0190936
0.0178352
0.0168585
0.0156552
0.0150388
0.0140887
0.0135811
0.0128346
0.0124138
0.011844
0.0114739
0.0110996
0.0106611
0.0103853
0.0101656
0.00993981
0.00974736
0.0094856
0.00931817
0.00913382
0.00919522
0.00901342
0.00886227
0.00865224
0.00857061
0.00858078
0.00870067
0.00853971
0.00841382
0.00827405
0.00823524
0.0462171
0.0402994
0.0352708
0.0310552
0.0274151
0.024397
0.0222336
0.0203974
0.0187905
0.0173816
0.0161426
0.0150603
0.014108
0.0132421
0.0124712
0.0117976
0.0112044
0.0106427
0.0102188
0.00968321
0.00938686
0.00892262
0.00867264
0.00840633
0.00824313
0.0079499
0.00782723
0.00758534
0.00748677
0.00749967
0.00734459
0.00722055
0.00701834
0.00696228
0.00686622
0.0070161
0.00690024
0.00681753
0.00666781
0.00664419
0.0465679
0.0403773
0.035298
0.0311043
0.0276085
0.0246876
0.021989
0.0197747
0.0181771
0.0167687
0.0155174
0.0144156
0.0134525
0.0125706
0.0117879
0.0110924
0.0104739
0.00992296
0.00943344
0.00899712
0.0086142
0.00827863
0.00797649
0.00775552
0.00749361
0.00726654
0.00706856
0.00689449
0.0067562
0.00676407
0.00660589
0.00647691
0.00630161
0.00623191
0.00613195
0.00627447
0.00617097
0.00609859
0.00595899
0.00592149
0.0463256
0.0403228
0.035314
0.0311276
0.0276134
0.024662
0.0220749
0.0197099
0.0178867
0.016509
0.0152642
0.0141572
0.0131811
0.01229
0.0114983
0.0107959
0.0101723
0.00961759
0.0091251
0.00868839
0.0083018
0.00796306
0.00768228
0.00746129
0.00719924
0.00697448
0.00677704
0.00660066
0.00646447
0.00648086
0.0063213
0.00617691
0.00605284
0.00595464
0.00588914
0.00602157
0.00591648
0.00580525
0.00575082
0.00563248
0.045639
0.0399933
0.0350903
0.0309183
0.027386
0.0244016
0.0217008
0.0194658
0.0178267
0.0164319
0.0151856
0.0140891
0.0131288
0.0122496
0.0114706
0.0107792
0.0101654
0.00962073
0.00913838
0.00871117
0.00833142
0.00800076
0.00771032
0.00751825
0.00723405
0.00703613
0.00685039
0.00669383
0.00654772
0.00657456
0.00641306
0.00628807
0.00611227
0.0060395
0.00594391
0.00611697
0.0060201
0.00588061
0.0058437
0.00571651
0.0497407
0.0417075
0.0356658
0.0309327
0.0270898
0.0238726
0.0214999
0.0197021
0.0181232
0.0167393
0.0155263
0.0144693
0.0135412
0.0126872
0.0119291
0.0112496
0.0106525
0.010113
0.00964491
0.00923852
0.00882602
0.00853619
0.00815701
0.00800059
0.00772194
0.00757027
0.0073258
0.00720284
0.00700825
0.00707191
0.00690454
0.0067884
0.00657342
0.00651981
0.00638772
0.00644781
0.00661042
0.00648064
0.00638385
0.0062311
0.0543629
0.0439487
0.0368822
0.031424
0.0276821
0.0251529
0.0230259
0.0212103
0.0196484
0.0182919
0.017114
0.0160895
0.0151279
0.0142651
0.0135547
0.0127461
0.0122561
0.0115511
0.0111977
0.0106494
0.0103651
0.00991813
0.00963733
0.00941383
0.00920176
0.00903289
0.00873033
0.00860952
0.00840784
0.00848264
0.0082927
0.00814306
0.00793162
0.00787649
0.00775605
0.00782587
0.00799019
0.00782636
0.0077085
0.0075668
0.0627926
0.0542813
0.046211
0.0397852
0.03544
0.0325342
0.0302577
0.0282769
0.0266028
0.0251602
0.0238447
0.0227584
0.0216484
0.0207039
0.0197797
0.0189959
0.0182601
0.0176361
0.0170624
0.0165491
0.0160535
0.015685
0.0152434
0.0151443
0.0147739
0.0144937
0.0142367
0.0140208
0.0138336
0.0139099
0.0136582
0.0133982
0.0132367
0.0131287
0.0130343
0.0130675
0.0132698
0.0130551
0.0128677
0.012774
0.124053
0.104272
0.0887216
0.0784889
0.0718977
0.0673447
0.0637049
0.0605383
0.0578451
0.0555064
0.0534
0.0515382
0.0498186
0.0482614
0.0467552
0.0453869
0.0441508
0.0430425
0.0420424
0.0411423
0.0403226
0.0396248
0.0390016
0.038466
0.0379684
0.0375044
0.037079
0.0366888
0.0363111
0.0360004
0.0357144
0.0354509
0.0352156
0.0350117
0.0348182
0.0347126
0.0346004
0.0344801
0.0343651
0.0342445
0.0966753
0.0807367
0.0690231
0.0601262
0.0533011
0.0485891
0.0449872
0.0420197
0.0395104
0.0373472
0.0354506
0.033813
0.0323351
0.0310097
0.0298279
0.0287241
0.0277014
0.0268145
0.0260296
0.0253124
0.0246693
0.0240986
0.023565
0.0230947
0.0226806
0.0222904
0.0219336
0.0216138
0.0213091
0.0210338
0.0208075
0.0206133
0.0204411
0.020291
0.0201564
0.0201365
0.0200619
0.0199446
0.0198452
0.0197657
0.0543658
0.0439298
0.0368422
0.0314491
0.0276916
0.0251525
0.0230219
0.0212055
0.019644
0.0182874
0.0171067
0.0160932
0.0150832
0.0143569
0.0134156
0.012884
0.0120833
0.0116673
0.0111174
0.0106589
0.0103662
0.00990768
0.00963214
0.00940856
0.0092034
0.00902225
0.00872314
0.00859173
0.00840139
0.00848526
0.00828883
0.00812918
0.00791858
0.00784145
0.00787748
0.00802131
0.0078641
0.00767986
0.0075843
0.00752552
0.0462359
0.0400498
0.0347009
0.0302027
0.0265125
0.0235481
0.02111
0.0190745
0.0173518
0.0158755
0.0145957
0.0134776
0.0125045
0.0116461
0.0108682
0.0101887
0.00945704
0.00899046
0.00856902
0.00819415
0.00779317
0.0074294
0.00709652
0.00689244
0.00670067
0.00654572
0.00629505
0.0061477
0.0059836
0.00605263
0.005923
0.00579763
0.00559195
0.00550464
0.00549218
0.00563287
0.00552351
0.0054293
0.00526384
0.00521846
0.0477734
0.0414034
0.0360788
0.0316038
0.0278361
0.0246642
0.022015
0.0197699
0.0178516
0.0162007
0.0147723
0.013523
0.0124531
0.0114941
0.0106493
0.00990043
0.00922585
0.00863515
0.00811815
0.00765905
0.00722588
0.00679168
0.00655588
0.00636167
0.00613633
0.005932
0.00575054
0.00555937
0.00541828
0.00545212
0.00531569
0.00519735
0.00504237
0.00493231
0.00490464
0.00502577
0.00492448
0.00484996
0.00468888
0.00463754
0.0493896
0.0429361
0.0374843
0.0328831
0.0289924
0.0256952
0.0228747
0.0204624
0.018416
0.0166615
0.0151427
0.0138168
0.0126833
0.0116709
0.0107786
0.00998975
0.00928982
0.00866887
0.00811453
0.00762369
0.00718256
0.00679372
0.00640264
0.00621077
0.00599583
0.00577883
0.00558505
0.00542129
0.00528661
0.00530175
0.00515515
0.00502092
0.00490171
0.00480159
0.00472037
0.00487162
0.00476416
0.0046658
0.00458719
0.00449451
0.0502894
0.0436365
0.0380615
0.0333724
0.0294117
0.0260529
0.0231838
0.0207137
0.0186031
0.0168037
0.0152527
0.0139022
0.012747
0.0117176
0.0108108
0.0100095
0.00929934
0.00866826
0.00810693
0.00760873
0.00716507
0.00677674
0.00637731
0.00611855
0.005953
0.00577746
0.00550365
0.00528666
0.00521865
0.00524743
0.00510736
0.00497726
0.00485884
0.00476322
0.0046894
0.00484368
0.00473524
0.00463811
0.00455648
0.00445976
0.0500498
0.043223
0.0375882
0.0328876
0.0289385
0.0256016
0.0227604
0.0203392
0.0182823
0.0165216
0.0150043
0.0136866
0.0125615
0.0115569
0.010672
0.00989044
0.00919565
0.00858141
0.00803659
0.00755222
0.00711933
0.00673478
0.00633814
0.00610164
0.00592017
0.00573143
0.00553245
0.00538711
0.00525985
0.00528643
0.00514278
0.00501251
0.00489477