/*--------------------------------*- C++ -*----------------------------------*\
| =========                 |                                                 |
| \\      /  F ield         | OpenFOAM: The Open Source CFD Toolbox           |
|  \\    /   O peration     | Version:  2212                                  |
|   \\  /    A nd           | Website:  www.openfoam.com                      |
|    \\/     M anipulation  |                                                 |
\*---------------------------------------------------------------------------*/
FoamFile
{
    version     2.0;
    format      ascii;
    arch        "LSB;label=32;scalar=64";
    class       volScalarField;
    location    "1";
    object      nut;
}
// * * * * * * * * * * * * * * * * * * * * * * * * * * * * * * * * * * * * * //

dimensions      [0 2 -1 0 0 0 0];

internalField   nonuniform List<scalar> 
6840
(
4.5356e-05
2.3208e-05
1.65396e-05
1.36493e-05
1.18966e-05
1.06844e-05
9.76078e-06
9.05715e-06
8.4948e-06
8.03147e-06
7.6408e-06
7.31267e-06
7.02544e-06
6.76218e-06
6.53163e-06
6.33244e-06
6.16098e-06
6.01781e-06
5.92602e-06
5.86177e-06
0.000107685
6.77183e-05
5.06311e-05
4.14159e-05
3.54049e-05
3.10367e-05
2.77138e-05
2.50818e-05
2.29337e-05
2.1151e-05
1.96512e-05
1.83724e-05
1.72651e-05
1.62968e-05
1.54552e-05
1.47315e-05
1.41054e-05
1.35698e-05
1.31451e-05
1.28474e-05
0.000160509
0.00010736
8.07409e-05
6.55976e-05
5.54897e-05
4.83027e-05
4.31311e-05
3.90793e-05
3.57396e-05
3.29503e-05
3.05791e-05
2.85369e-05
2.67771e-05
2.52512e-05
2.39166e-05
2.2743e-05
2.17109e-05
2.08049e-05
2.00207e-05
1.9393e-05
0.000198681
0.0001383
0.000105187
8.55269e-05
7.25013e-05
6.28902e-05
5.60612e-05
5.07594e-05
4.63882e-05
4.27221e-05
3.96257e-05
3.6956e-05
3.46344e-05
3.26047e-05
3.08213e-05
2.92469e-05
2.78513e-05
2.66104e-05
2.55074e-05
2.45623e-05
0.000218609
0.000155003
0.000118661
9.65069e-05
8.18823e-05
7.08355e-05
6.30855e-05
5.71433e-05
5.22481e-05
4.80958e-05
4.45818e-05
4.15709e-05
3.89506e-05
3.66562e-05
3.46351e-05
3.28449e-05
3.12505e-05
2.98235e-05
2.8553e-05
2.75582e-05
0.000218609
0.000155003
0.000118661
9.65068e-05
8.18823e-05
7.08354e-05
6.30853e-05
5.7143e-05
5.22476e-05
4.80951e-05
4.45806e-05
4.1569e-05
3.89477e-05
3.66515e-05
3.46275e-05
3.28324e-05
3.12299e-05
2.97896e-05
2.84932e-05
2.73893e-05
0.000198681
0.0001383
0.000105187
8.55269e-05
7.25011e-05
6.289e-05
5.60608e-05
5.07589e-05
4.63874e-05
4.27207e-05
3.96234e-05
3.69525e-05
3.46288e-05
3.25958e-05
3.08069e-05
2.92235e-05
2.78128e-05
2.65471e-05
2.54088e-05
2.44515e-05
0.000160509
0.00010736
8.07408e-05
6.55975e-05
5.54896e-05
4.83025e-05
4.31309e-05
3.90789e-05
3.57389e-05
3.29491e-05
3.05773e-05
2.8534e-05
2.67726e-05
2.5244e-05
2.39048e-05
2.27238e-05
2.16789e-05
2.07507e-05
1.99246e-05
1.91957e-05
0.000107685
6.77183e-05
5.06311e-05
4.14159e-05
3.54049e-05
3.10367e-05
2.77138e-05
2.50817e-05
2.29335e-05
2.11508e-05
1.96508e-05
1.83716e-05
1.72636e-05
1.62936e-05
1.54503e-05
1.47231e-05
1.40896e-05
1.35374e-05
1.30787e-05
1.2726e-05
4.5356e-05
2.3208e-05
1.65396e-05
1.36493e-05
1.18966e-05
1.06844e-05
9.76078e-06
9.05715e-06
8.4948e-06
8.03147e-06
7.6408e-06
7.31267e-06
7.02543e-06
6.76218e-06
6.53163e-06
6.33244e-06
6.16097e-06
6.0178e-06
5.926e-06
5.86177e-06
0.000107685
6.77183e-05
5.06311e-05
4.14159e-05
3.54049e-05
3.10367e-05
2.77138e-05
2.50817e-05
2.29335e-05
2.11508e-05
1.96508e-05
1.83716e-05
1.72636e-05
1.62936e-05
1.54503e-05
1.47231e-05
1.40896e-05
1.35374e-05
1.30787e-05
1.27262e-05
0.000528907
0.000369984
0.000305097
0.000261371
0.000228528
0.000202476
0.000181114
0.000163073
0.000147538
0.000133982
0.000122047
0.000111462
0.000102128
9.38514e-05
8.64478e-05
7.96447e-05
7.34461e-05
6.79323e-05
6.37135e-05
5.50186e-05
0.000663952
0.000488459
0.000404619
0.000347248
0.000305036
0.000272128
0.000245319
0.00022289
0.000203758
0.000187183
0.000172659
0.000159821
0.000148384
0.000138136
0.000128912
0.000120707
0.000113331
0.000106653
0.000101077
9.44357e-05
0.00071288
0.000556432
0.000466397
0.000402355
0.000354426
0.000317051
0.000286675
0.000261256
0.000239582
0.000220846
0.000204444
0.00018995
0.000177046
0.000165472
0.000155028
0.000145563
0.000136953
0.000129081
0.000121861
0.000115453
0.000728543
0.000588231
0.000496002
0.000429131
0.000378509
0.000338934
0.000306817
0.000279971
0.000257069
0.000237249
0.000219898
0.000204557
0.000190882
0.000178604
0.000167511
0.000157424
0.000148193
0.000139681
0.000131758
0.000124215
0.000728543
0.000588231
0.000496002
0.000429131
0.000378509
0.000338933
0.000306816
0.000279969
0.000257066
0.000237244
0.00021989
0.000204545
0.000190863
0.000178572
0.000167457
0.000157337
0.00014805
0.000139446
0.000131371
0.000123253
0.00071288
0.000556432
0.000466397
0.000402355
0.000354425
0.000317049
0.000286673
0.000261252
0.000239577
0.000220837
0.00020443
0.000189927
0.000177008
0.00016541
0.000154926
0.000145399
0.00013668
0.000128629
0.000121136
0.000114245
0.000663952
0.000488458
0.000404619
0.000347248
0.000305035
0.000272127
0.000245318
0.000222887
0.000203753
0.000187176
0.000172648
0.000159804
0.000148357
0.000138092
0.000128841
0.00012059
0.000113131
0.000106301
0.000100406
9.45399e-05
0.000528907
0.000369984
0.000305097
0.000261371
0.000228528
0.000202476
0.000181114
0.000163073
0.000147538
0.000133982
0.000122047
0.000111462
0.000102128
9.38505e-05
8.64485e-05
7.9645e-05
7.34463e-05
6.79325e-05
6.37137e-05
5.50175e-05
0.000107685
6.77183e-05
5.06311e-05
4.14159e-05
3.54049e-05
3.10367e-05
2.77138e-05
2.50818e-05
2.29337e-05
2.1151e-05
1.96512e-05
1.83724e-05
1.72651e-05
1.62967e-05
1.54552e-05
1.47315e-05
1.41054e-05
1.35698e-05
1.31451e-05
1.28474e-05
0.000160509
0.00010736
8.07408e-05
6.55975e-05
5.54896e-05
4.83025e-05
4.31309e-05
3.90789e-05
3.57389e-05
3.29491e-05
3.05773e-05
2.8534e-05
2.67726e-05
2.5244e-05
2.39048e-05
2.27238e-05
2.16789e-05
2.07507e-05
1.99246e-05
1.91953e-05
0.000663952
0.000488458
0.000404619
0.000347248
0.000305035
0.000272127
0.000245318
0.000222887
0.000203753
0.000187176
0.000172648
0.000159804
0.000148357
0.000138093
0.00012884
0.000120589
0.00011313
0.000106301
0.000100406
9.45405e-05
0.000786828
0.000662293
0.000567974
0.000495805
0.000439463
0.000394562
0.000357974
0.000327452
0.00030149
0.00027905
0.000259397
0.000242002
0.000226472
0.000212511
0.000199887
0.000188434
0.000177997
0.000168437
0.000159605
0.000150138
0.000809324
0.000713906
0.000631505
0.000562574
0.000505377
0.000457786
0.000417842
0.00038394
0.000354805
0.000329451
0.000307158
0.000287382
0.000269706
0.000253802
0.000239415
0.000226338
0.000214396
0.00020342
0.00019318
0.000182968
0.000814958
0.000730426
0.000654634
0.000589044
0.000533067
0.000485438
0.000444763
0.000409793
0.00037947
0.000352931
0.000329491
0.000308629
0.000289938
0.000273097
0.000257842
0.000243957
0.000231253
0.000219538
0.000208517
0.000197341
0.000814958
0.000730426
0.000654634
0.000589043
0.000533067
0.000485438
0.000444763
0.000409792
0.000379468
0.000352929
0.000329488
0.000308623
0.000289929
0.000273082
0.00025782
0.000243923
0.000231202
0.000219461
0.000208404
0.000197198
0.000809324
0.000713906
0.000631504
0.000562574
0.000505377
0.000457785
0.000417841
0.000383939
0.000354802
0.000329447
0.000307152
0.000287373
0.000269691
0.000253779
0.000239379
0.000226283
0.000214309
0.000203278
0.000192906
0.000182104
0.000786828
0.000662293
0.000567974
0.000495805
0.000439463
0.000394562
0.000357974
0.000327452
0.00030149
0.00027905
0.000259398
0.000242002
0.000226472
0.00021251
0.000199887
0.000188434
0.000177997
0.000168438
0.000159606
0.000150138
0.000663952
0.000488459
0.000404619
0.000347248
0.000305036
0.000272128
0.000245319
0.00022289
0.000203758
0.000187183
0.000172659
0.000159821
0.000148384
0.000138137
0.000128912
0.000120707
0.000113331
0.000106653
0.000101077
9.4435e-05
0.000160509
0.00010736
8.07409e-05
6.55976e-05
5.54897e-05
4.83027e-05
4.31311e-05
3.90793e-05
3.57396e-05
3.29503e-05
3.05791e-05
2.85369e-05
2.67771e-05
2.52512e-05
2.39166e-05
2.2743e-05
2.17109e-05
2.08049e-05
2.00208e-05
1.93931e-05
0.000198681
0.0001383
0.000105187
8.55269e-05
7.25011e-05
6.289e-05
5.60608e-05
5.07589e-05
4.63874e-05
4.27207e-05
3.96234e-05
3.69525e-05
3.46288e-05
3.25958e-05
3.08069e-05
2.92235e-05
2.78128e-05
2.65471e-05
2.54088e-05
2.44515e-05
0.00071288
0.000556432
0.000466397
0.000402355
0.000354425
0.000317049
0.000286673
0.000261252
0.000239577
0.000220837
0.00020443
0.000189927
0.000177008
0.000165411
0.000154925
0.000145398
0.00013668
0.00012863
0.000121136
0.000114242
0.000809324
0.000713906
0.000631504
0.000562574
0.000505377
0.000457785
0.000417841
0.000383939
0.000354802
0.000329447
0.000307152
0.000287373
0.000269691
0.00025378
0.000239378
0.000226282
0.000214309
0.000203278
0.000192906
0.000182103
0.000823497
0.000753987
0.000688491
0.000628748
0.000575387
0.000528266
0.000486845
0.000450441
0.000418362
0.000389973
0.000364726
0.000342159
0.00032189
0.000303598
0.000287018
0.000271925
0.000258118
0.00024538
0.000233361
0.000221178
0.000826292
0.000764347
0.000706102
0.000651936
0.00060223
0.000557103
0.000516428
0.000479912
0.00044718
0.000417832
0.000391475
0.000367749
0.000346331
0.000326937
0.00030932
0.000293258
0.000278543
0.000264933
0.000251996
0.000238617
0.000826292
0.000764347
0.000706102
0.000651936
0.00060223
0.000557103
0.000516427
0.000479911
0.00044718
0.000417831
0.000391474
0.000367747
0.000346329
0.000326934
0.000309314
0.00029325
0.000278533
0.000264926
0.000252027
0.000238869
0.000823497
0.000753987
0.000688491
0.000628748
0.000575387
0.000528266
0.000486845
0.000450441
0.000418362
0.000389973
0.000364726
0.000342159
0.00032189
0.000303598
0.000287018
0.000271925
0.000258118
0.00024538
0.000233362
0.000221181
0.000809324
0.000713906
0.000631505
0.000562574
0.000505377
0.000457786
0.000417842
0.00038394
0.000354805
0.000329451
0.000307158
0.000287382
0.000269706
0.000253803
0.000239415
0.000226338
0.000214396
0.00020342
0.000193181
0.000182971
0.00071288
0.000556432
0.000466397
0.000402355
0.000354426
0.000317051
0.000286675
0.000261256
0.000239582
0.000220846
0.000204444
0.00018995
0.000177046
0.000165473
0.000155027
0.000145563
0.000136953
0.00012908
0.000121861
0.000115456
0.000198681
0.0001383
0.000105187
8.55269e-05
7.25013e-05
6.28902e-05
5.60612e-05
5.07594e-05
4.63882e-05
4.27221e-05
3.96257e-05
3.6956e-05
3.46344e-05
3.26047e-05
3.08213e-05
2.92469e-05
2.78513e-05
2.66105e-05
2.55074e-05
2.45623e-05
0.000218609
0.000155003
0.000118661
9.65068e-05
8.18823e-05
7.08354e-05
6.30853e-05
5.7143e-05
5.22476e-05
4.80951e-05
4.45806e-05
4.1569e-05
3.89477e-05
3.66515e-05
3.46275e-05
3.28324e-05
3.12299e-05
2.97896e-05
2.84932e-05
2.73895e-05
0.000728543
0.000588231
0.000496002
0.000429131
0.000378509
0.000338933
0.000306816
0.000279969
0.000257066
0.000237244
0.00021989
0.000204545
0.000190863
0.000178573
0.000167457
0.000157337
0.000148051
0.000139447
0.000131372
0.000123254
0.000814958
0.000730426
0.000654634
0.000589043
0.000533067
0.000485438
0.000444763
0.000409792
0.000379468
0.000352929
0.000329488
0.000308623
0.00028993
0.000273083
0.00025782
0.000243924
0.000231202
0.000219461
0.000208405
0.000197198
0.000826292
0.000764347
0.000706102
0.000651936
0.00060223
0.000557103
0.000516427
0.000479911
0.00044718
0.000417831
0.000391474
0.000367747
0.000346329
0.000326934
0.000309314
0.00029325
0.000278533
0.000264926
0.000252027
0.000238867
0.000828382
0.0007726
0.000721137
0.00067296
0.000627782
0.00058562
0.000546547
0.000510578
0.000477647
0.000447614
0.000420286
0.000395444
0.000372862
0.000352314
0.000333587
0.000316476
0.000300777
0.000286235
0.00027241
0.000258317
0.000828382
0.0007726
0.000721137
0.00067296
0.000627782
0.00058562
0.000546547
0.000510578
0.000477647
0.000447614
0.000420286
0.000395444
0.000372862
0.000352314
0.000333586
0.000316476
0.000300777
0.000286236
0.00027241
0.000258317
0.000826292
0.000764347
0.000706102
0.000651936
0.00060223
0.000557103
0.000516428
0.000479912
0.00044718
0.000417832
0.000391475
0.000367749
0.000346331
0.000326938
0.00030932
0.000293258
0.000278543
0.000264933
0.000251996
0.000238617
0.000814958
0.000730426
0.000654634
0.000589044
0.000533067
0.000485438
0.000444763
0.000409793
0.00037947
0.000352931
0.000329491
0.000308629
0.000289938
0.000273097
0.000257842
0.000243957
0.000231253
0.000219538
0.000208517
0.000197339
0.000728543
0.000588231
0.000496002
0.000429131
0.000378509
0.000338934
0.000306817
0.000279971
0.000257069
0.000237249
0.000219897
0.000204557
0.000190882
0.000178605
0.00016751
0.000157423
0.000148192
0.00013968
0.000131757
0.000124214
0.000218609
0.000155003
0.000118661
9.65069e-05
8.18823e-05
7.08355e-05
6.30855e-05
5.71433e-05
5.22481e-05
4.80958e-05
4.45818e-05
4.15709e-05
3.89506e-05
3.66562e-05
3.46351e-05
3.28449e-05
3.12505e-05
2.98235e-05
2.85531e-05
2.75582e-05
0.000218609
0.000155003
0.000118661
9.65069e-05
8.18823e-05
7.08355e-05
6.30855e-05
5.71433e-05
5.22481e-05
4.80958e-05
4.45818e-05
4.15709e-05
3.89506e-05
3.66562e-05
3.46351e-05
3.28449e-05
3.12505e-05
2.98235e-05
2.85531e-05
2.75582e-05
0.000728543
0.000588231
0.000496002
0.000429131
0.000378509
0.000338934
0.000306817
0.000279971
0.000257069
0.000237249
0.000219898
0.000204557
0.000190883
0.000178605
0.000167511
0.000157424
0.000148193
0.000139681
0.000131759
0.000124216
0.000814958
0.000730426
0.000654634
0.000589044
0.000533067
0.000485438
0.000444763
0.000409793
0.00037947
0.000352931
0.000329491
0.000308629
0.000289938
0.000273097
0.000257842
0.000243957
0.000231253
0.000219539
0.000208518
0.00019734
0.000826292
0.000764347
0.000706102
0.000651936
0.00060223
0.000557103
0.000516428
0.000479912
0.00044718
0.000417832
0.000391475
0.000367749
0.000346331
0.000326937
0.00030932
0.000293258
0.000278543
0.000264933
0.000251996
0.000238616
0.000828382
0.0007726
0.000721137
0.00067296
0.000627782
0.00058562
0.000546547
0.000510578
0.000477647
0.000447614
0.000420286
0.000395444
0.000372862
0.000352314
0.000333586
0.000316476
0.000300777
0.000286235
0.00027241
0.000258317
0.000828382
0.0007726
0.000721137
0.00067296
0.000627782
0.00058562
0.000546547
0.000510578
0.000477647
0.000447614
0.000420286
0.000395444
0.000372862
0.000352314
0.000333586
0.000316476
0.000300777
0.000286235
0.00027241
0.000258316
0.000826292
0.000764347
0.000706102
0.000651936
0.00060223
0.000557103
0.000516427
0.000479911
0.00044718
0.000417831
0.000391474
0.000367747
0.000346328
0.000326934
0.000309314
0.00029325
0.000278533
0.000264926
0.000252027
0.000238868
0.000814958
0.000730426
0.000654634
0.000589043
0.000533067
0.000485438
0.000444763
0.000409792
0.000379468
0.000352929
0.000329488
0.000308623
0.000289929
0.000273082
0.00025782
0.000243924
0.000231202
0.00021946
0.000208403
0.000197196
0.000728543
0.000588231
0.000496002
0.000429131
0.000378509
0.000338933
0.000306816
0.000279969
0.000257066
0.000237244
0.00021989
0.000204545
0.000190863
0.000178572
0.000167457
0.000157337
0.00014805
0.000139446
0.000131371
0.000123253
0.000218609
0.000155003
0.000118661
9.65068e-05
8.18823e-05
7.08354e-05
6.30853e-05
5.7143e-05
5.22476e-05
4.80951e-05
4.45806e-05
4.1569e-05
3.89477e-05
3.66515e-05
3.46275e-05
3.28324e-05
3.12299e-05
2.97897e-05
2.84932e-05
2.73895e-05
0.000198681
0.0001383
0.000105187
8.55269e-05
7.25013e-05
6.28902e-05
5.60612e-05
5.07594e-05
4.63882e-05
4.27221e-05
3.96257e-05
3.6956e-05
3.46344e-05
3.26047e-05
3.08212e-05
2.92469e-05
2.78512e-05
2.66104e-05
2.55074e-05
2.45624e-05
0.00071288
0.000556432
0.000466397
0.000402355
0.000354426
0.000317051
0.000286675
0.000261256
0.000239582
0.000220846
0.000204444
0.00018995
0.000177046
0.000165472
0.000155028
0.000145563
0.000136953
0.000129081
0.000121861
0.000115456
0.000809324
0.000713906
0.000631505
0.000562574
0.000505377
0.000457786
0.000417842
0.00038394
0.000354805
0.000329451
0.000307158
0.000287382
0.000269705
0.000253802
0.000239415
0.000226338
0.000214395
0.00020342
0.00019318
0.00018297
0.000823497
0.000753987
0.000688491
0.000628748
0.000575387
0.000528266
0.000486845
0.000450441
0.000418362
0.000389973
0.000364726
0.000342159
0.00032189
0.000303598
0.000287018
0.000271925
0.000258118
0.000245379
0.000233361
0.000221179
0.000826292
0.000764347
0.000706102
0.000651936
0.00060223
0.000557103
0.000516427
0.000479911
0.00044718
0.000417831
0.000391474
0.000367747
0.000346329
0.000326934
0.000309314
0.00029325
0.000278533
0.000264926
0.000252027
0.000238868
0.000826292
0.000764347
0.000706102
0.000651936
0.00060223
0.000557103
0.000516428
0.000479912
0.00044718
0.000417832
0.000391475
0.000367749
0.000346331
0.000326937
0.00030932
0.000293258
0.000278543
0.000264933
0.000251996
0.000238616
0.000823497
0.000753987
0.000688491
0.000628748
0.000575387
0.000528266
0.000486845
0.000450441
0.000418362
0.000389973
0.000364726
0.000342159
0.00032189
0.000303598
0.000287018
0.000271925
0.000258118
0.000245379
0.000233361
0.00022118
0.000809324
0.000713906
0.000631504
0.000562574
0.000505377
0.000457785
0.00041784
0.000383939
0.000354802
0.000329447
0.000307152
0.000287373
0.000269691
0.000253779
0.000239379
0.000226282
0.000214308
0.000203277
0.000192905
0.000182102
0.00071288
0.000556432
0.000466397
0.000402355
0.000354425
0.000317049
0.000286673
0.000261252
0.000239577
0.000220837
0.00020443
0.000189927
0.000177008
0.00016541
0.000154926
0.000145399
0.00013668
0.00012863
0.000121136
0.000114243
0.000198681
0.0001383
0.000105187
8.55269e-05
7.25011e-05
6.289e-05
5.60608e-05
5.07589e-05
4.63874e-05
4.27207e-05
3.96234e-05
3.69525e-05
3.46288e-05
3.25958e-05
3.08069e-05
2.92235e-05
2.78128e-05
2.65471e-05
2.54088e-05
2.44515e-05
0.000160509
0.00010736
8.07409e-05
6.55976e-05
5.54897e-05
4.83026e-05
4.31311e-05
3.90793e-05
3.57396e-05
3.29503e-05
3.05791e-05
2.85369e-05
2.67771e-05
2.52512e-05
2.39166e-05
2.2743e-05
2.17109e-05
2.08049e-05
2.00208e-05
1.93932e-05
0.000663952
0.000488459
0.000404619
0.000347248
0.000305036
0.000272128
0.000245319
0.00022289
0.000203758
0.000187182
0.000172659
0.000159821
0.000148384
0.000138136
0.000128912
0.000120707
0.00011333
0.000106652
0.000101076
9.4434e-05
0.000786828
0.000662293
0.000567974
0.000495805
0.000439463
0.000394562
0.000357974
0.000327452
0.00030149
0.00027905
0.000259397
0.000242002
0.000226472
0.00021251
0.000199887
0.000188433
0.000177996
0.000168436
0.000159604
0.000150137
0.000809324
0.000713906
0.000631504
0.000562574
0.000505377
0.000457785
0.00041784
0.000383939
0.000354802
0.000329447
0.000307152
0.000287373
0.000269691
0.00025378
0.000239378
0.000226282
0.000214308
0.000203277
0.000192905
0.000182102
0.000814958
0.000730426
0.000654634
0.000589043
0.000533067
0.000485438
0.000444763
0.000409792
0.000379468
0.000352929
0.000329488
0.000308623
0.000289929
0.000273083
0.00025782
0.000243923
0.000231202
0.000219461
0.000208404
0.000197197
0.000814958
0.000730426
0.000654634
0.000589044
0.000533067
0.000485438
0.000444763
0.000409793
0.00037947
0.000352931
0.000329491
0.000308629
0.000289938
0.000273097
0.000257842
0.000243957
0.000231253
0.000219538
0.000208517
0.000197338
0.000809324
0.000713906
0.000631505
0.000562574
0.000505377
0.000457786
0.000417842
0.00038394
0.000354805
0.000329451
0.000307158
0.000287382
0.000269706
0.000253803
0.000239415
0.000226337
0.000214395
0.00020342
0.00019318
0.00018297
0.000786828
0.000662293
0.000567974
0.000495805
0.000439463
0.000394562
0.000357974
0.000327452
0.00030149
0.00027905
0.000259397
0.000242002
0.000226472
0.00021251
0.000199887
0.000188434
0.000177997
0.000168437
0.000159605
0.000150138
0.000663952
0.000488458
0.000404619
0.000347248
0.000305035
0.000272127
0.000245318
0.000222888
0.000203753
0.000187176
0.000172648
0.000159804
0.000148357
0.000138092
0.000128841
0.00012059
0.000113131
0.000106302
0.000100407
9.45416e-05
0.000160509
0.00010736
8.07408e-05
6.55975e-05
5.54896e-05
4.83025e-05
4.31309e-05
3.90789e-05
3.57389e-05
3.29491e-05
3.05773e-05
2.8534e-05
2.67726e-05
2.5244e-05
2.39048e-05
2.27238e-05
2.16789e-05
2.07507e-05
1.99246e-05
1.91952e-05
0.000107685
6.77183e-05
5.06311e-05
4.14159e-05
3.54049e-05
3.10367e-05
2.77138e-05
2.50818e-05
2.29337e-05
2.1151e-05
1.96512e-05
1.83724e-05
1.72651e-05
1.62967e-05
1.54552e-05
1.47315e-05
1.41054e-05
1.35698e-05
1.31451e-05
1.28474e-05
0.000528907
0.000369984
0.000305097
0.000261371
0.000228528
0.000202476
0.000181114
0.000163073
0.000147538
0.000133982
0.000122047
0.000111462
0.000102128
9.38513e-05
8.64478e-05
7.96447e-05
7.3446e-05
6.79322e-05
6.37133e-05
5.50182e-05
0.000663952
0.000488458
0.000404619
0.000347248
0.000305035
0.000272127
0.000245318
0.000222887
0.000203753
0.000187176
0.000172648
0.000159804
0.000148357
0.000138093
0.00012884
0.000120589
0.00011313
0.000106301
0.000100406
9.45399e-05
0.00071288
0.000556432
0.000466397
0.000402355
0.000354425
0.000317049
0.000286673
0.000261252
0.000239577
0.000220837
0.00020443
0.000189927
0.000177008
0.000165411
0.000154925
0.000145398
0.00013668
0.00012863
0.000121136
0.000114243
0.000728543
0.000588231
0.000496002
0.000429131
0.000378509
0.000338933
0.000306816
0.000279969
0.000257066
0.000237244
0.00021989
0.000204545
0.000190863
0.000178573
0.000167457
0.000157337
0.000148051
0.000139447
0.000131372
0.000123254
0.000728543
0.000588231
0.000496002
0.000429131
0.000378509
0.000338934
0.000306817
0.000279971
0.000257069
0.000237249
0.000219898
0.000204557
0.000190882
0.000178605
0.00016751
0.000157423
0.000148193
0.000139681
0.000131759
0.000124216
0.00071288
0.000556432
0.000466397
0.000402355
0.000354426
0.000317051
0.000286675
0.000261256
0.000239582
0.000220846
0.000204444
0.00018995
0.000177046
0.000165473
0.000155027
0.000145563
0.000136953
0.00012908
0.000121861
0.000115456
0.000663952
0.000488459
0.000404619
0.000347248
0.000305036
0.000272128
0.000245319
0.00022289
0.000203758
0.000187182
0.000172659
0.000159821
0.000148384
0.000138137
0.000128912
0.000120706
0.00011333
0.000106652
0.000101076
9.44343e-05
0.000528907
0.000369984
0.000305097
0.000261371
0.000228528
0.000202476
0.000181114
0.000163073
0.000147538
0.000133982
0.000122047
0.000111462
0.000102128
9.38505e-05
8.64485e-05
7.9645e-05
7.34462e-05
6.79324e-05
6.37136e-05
5.50181e-05
0.000107685
6.77183e-05
5.06311e-05
4.14159e-05
3.54049e-05
3.10367e-05
2.77138e-05
2.50817e-05
2.29335e-05
2.11508e-05
1.96508e-05
1.83716e-05
1.72636e-05
1.62936e-05
1.54503e-05
1.47231e-05
1.40896e-05
1.35374e-05
1.30787e-05
1.27262e-05
4.5356e-05
2.3208e-05
1.65396e-05
1.36493e-05
1.18966e-05
1.06844e-05
9.76078e-06
9.05715e-06
8.4948e-06
8.03147e-06
7.64079e-06
7.31267e-06
7.02543e-06
6.76218e-06
6.53163e-06
6.33244e-06
6.16098e-06
6.01781e-06
5.92602e-06
5.86174e-06
0.000107685
6.77183e-05
5.06311e-05
4.14159e-05
3.54049e-05
3.10367e-05
2.77138e-05
2.50817e-05
2.29335e-05
2.11508e-05
1.96508e-05
1.83716e-05
1.72636e-05
1.62936e-05
1.54503e-05
1.47231e-05
1.40896e-05
1.35374e-05
1.30787e-05
1.27262e-05
0.000160509
0.00010736
8.07408e-05
6.55975e-05
5.54896e-05
4.83025e-05
4.31309e-05
3.90789e-05
3.57389e-05
3.29491e-05
3.05773e-05
2.8534e-05
2.67726e-05
2.5244e-05
2.39048e-05
2.27238e-05
2.16789e-05
2.07507e-05
1.99245e-05
1.91952e-05
0.000198681
0.0001383
0.000105187
8.55269e-05
7.25011e-05
6.289e-05
5.60608e-05
5.07589e-05
4.63874e-05
4.27207e-05
3.96234e-05
3.69525e-05
3.46288e-05
3.25958e-05
3.08069e-05
2.92234e-05
2.78128e-05
2.65471e-05
2.54087e-05
2.44515e-05
0.000218609
0.000155003
0.000118661
9.65068e-05
8.18823e-05
7.08354e-05
6.30853e-05
5.7143e-05
5.22476e-05
4.80951e-05
4.45806e-05
4.1569e-05
3.89477e-05
3.66515e-05
3.46275e-05
3.28324e-05
3.12299e-05
2.97896e-05
2.84932e-05
2.73893e-05
0.000218609
0.000155003
0.000118661
9.65069e-05
8.18823e-05
7.08355e-05
6.30855e-05
5.71433e-05
5.22481e-05
4.80958e-05
4.45818e-05
4.15709e-05
3.89506e-05
3.66561e-05
3.46351e-05
3.28449e-05
3.12505e-05
2.98235e-05
2.85531e-05
2.75582e-05
0.000198681
0.0001383
0.000105187
8.55269e-05
7.25013e-05
6.28902e-05
5.60612e-05
5.07594e-05
4.63882e-05
4.27221e-05
3.96257e-05
3.6956e-05
3.46344e-05
3.26047e-05
3.08213e-05
2.92469e-05
2.78513e-05
2.66105e-05
2.55074e-05
2.45624e-05
0.000160509
0.00010736
8.07409e-05
6.55976e-05
5.54897e-05
4.83027e-05
4.31311e-05
3.90793e-05
3.57396e-05
3.29503e-05
3.05791e-05
2.85369e-05
2.67771e-05
2.52512e-05
2.39166e-05
2.2743e-05
2.17109e-05
2.08049e-05
2.00208e-05
1.93933e-05
0.000107685
6.77183e-05
5.06311e-05
4.14159e-05
3.54049e-05
3.10367e-05
2.77138e-05
2.50818e-05
2.29337e-05
2.1151e-05
1.96512e-05
1.83724e-05
1.72651e-05
1.62967e-05
1.54552e-05
1.47315e-05
1.41054e-05
1.35698e-05
1.31451e-05
1.28474e-05
4.5356e-05
2.3208e-05
1.65396e-05
1.36493e-05
1.18966e-05
1.06844e-05
9.76078e-06
9.05715e-06
8.4948e-06
8.03147e-06
7.6408e-06
7.31267e-06
7.02543e-06
6.76218e-06
6.53163e-06
6.33244e-06
6.16098e-06
6.01781e-06
5.92603e-06
5.86173e-06
5.55221e-06
5.15525e-06
4.77088e-06
4.53818e-06
4.39098e-06
4.29888e-06
4.22982e-06
4.17011e-06
4.11906e-06
4.0746e-06
4.03432e-06
3.99682e-06
3.95825e-06
3.92133e-06
3.88607e-06
3.85216e-06
3.81986e-06
3.78938e-06
3.76097e-06
3.73373e-06
3.70802e-06
3.68462e-06
3.66326e-06
3.64303e-06
3.62417e-06
3.60623e-06
3.58919e-06
3.5729e-06
3.55813e-06
3.54455e-06
3.53225e-06
3.52018e-06
3.50864e-06
3.49836e-06
3.49014e-06
3.48208e-06
3.47644e-06
3.47019e-06
3.46477e-06
3.45718e-06
1.05898e-05
1.00516e-05
9.57879e-06
9.24819e-06
9.00486e-06
8.82024e-06
8.6686e-06
8.53094e-06
8.40788e-06
8.29665e-06
8.19232e-06
8.0991e-06
8.00616e-06
7.91698e-06
7.83079e-06
7.74671e-06
7.67016e-06
7.59727e-06
7.5304e-06
7.46734e-06
7.40654e-06
7.35277e-06
7.30434e-06
7.26124e-06
7.22033e-06
7.18133e-06
7.14461e-06
7.10958e-06
7.07574e-06
7.0451e-06
7.01689e-06
6.99078e-06
6.96705e-06
6.9443e-06
6.92565e-06
6.90911e-06
6.89376e-06
6.88066e-06
6.86938e-06
6.85778e-06
1.52932e-05
1.48167e-05
1.43716e-05
1.39817e-05
1.36122e-05
1.32774e-05
1.29882e-05
1.27374e-05
1.25125e-05
1.23073e-05
1.21212e-05
1.19478e-05
1.17957e-05
1.16514e-05
1.15028e-05
1.13618e-05
1.12381e-05
1.11203e-05
1.10143e-05
1.09125e-05
1.081e-05
1.07114e-05
1.06255e-05
1.05524e-05
1.04819e-05
1.04149e-05
1.03519e-05
1.02936e-05
1.02386e-05
1.01866e-05
1.01385e-05
1.00937e-05
1.00544e-05
1.00216e-05
9.99319e-06
9.96276e-06
9.93722e-06
9.91308e-06
9.89256e-06
9.87517e-06
2.03061e-05
1.91426e-05
1.84264e-05
1.78359e-05
1.73325e-05
1.68945e-05
1.65028e-05
1.61486e-05
1.58254e-05
1.55282e-05
1.52535e-05
1.49983e-05
1.47603e-05
1.45385e-05
1.43363e-05
1.41461e-05
1.39674e-05
1.38021e-05
1.36552e-05
1.34879e-05
1.33412e-05
1.32095e-05
1.30862e-05
1.29698e-05
1.28658e-05
1.27718e-05
1.26841e-05
1.26055e-05
1.25263e-05
1.2454e-05
1.23815e-05
1.23187e-05
1.22672e-05
1.22183e-05
1.21791e-05
1.21433e-05
1.21082e-05
1.20741e-05
1.20451e-05
1.20191e-05
2.32167e-05
2.20204e-05
2.11388e-05
2.0419e-05
1.98048e-05
1.92674e-05
1.87918e-05
1.83645e-05
1.79718e-05
1.76079e-05
1.72697e-05
1.69549e-05
1.66613e-05
1.63882e-05
1.61334e-05
1.58953e-05
1.56722e-05
1.54673e-05
1.52733e-05
1.50917e-05
1.49243e-05
1.47665e-05
1.46166e-05
1.44752e-05
1.43447e-05
1.42279e-05
1.41223e-05
1.40264e-05
1.39303e-05
1.38385e-05
1.37638e-05
1.36881e-05
1.36317e-05
1.35751e-05
1.3536e-05
1.34837e-05
1.34298e-05
1.33847e-05
1.33542e-05
1.33293e-05
2.41783e-05
2.30009e-05
2.20924e-05
2.13451e-05
2.06941e-05
2.01169e-05
1.95972e-05
1.91271e-05
1.86959e-05
1.82951e-05
1.79226e-05
1.75757e-05
1.72523e-05
1.69515e-05
1.66711e-05
1.64098e-05
1.61671e-05
1.59413e-05
1.5731e-05
1.55362e-05
1.53604e-05
1.51973e-05
1.50451e-05
1.49121e-05
1.47597e-05
1.46266e-05
1.45069e-05
1.44024e-05
1.42987e-05
1.42028e-05
1.41222e-05
1.40472e-05
1.39782e-05
1.39172e-05
1.386e-05
1.3796e-05
1.37387e-05
1.3698e-05
1.3671e-05
1.3657e-05
2.27132e-05
2.19358e-05
2.11926e-05
2.05051e-05
1.98778e-05
1.93037e-05
1.87819e-05
1.8308e-05
1.78746e-05
1.74765e-05
1.71105e-05
1.67735e-05
1.64625e-05
1.61752e-05
1.59091e-05
1.56615e-05
1.54312e-05
1.52174e-05
1.5019e-05
1.48355e-05
1.46686e-05
1.45147e-05
1.43714e-05
1.42363e-05
1.4102e-05
1.39696e-05
1.38566e-05
1.37581e-05
1.36539e-05
1.35582e-05
1.34755e-05
1.3399e-05
1.33315e-05
1.32714e-05
1.32185e-05
1.31683e-05
1.31279e-05
1.3078e-05
1.30454e-05
1.30209e-05
2.04739e-05
1.95554e-05
1.87559e-05
1.80603e-05
1.74517e-05
1.69086e-05
1.64239e-05
1.59956e-05
1.56204e-05
1.52833e-05
1.49757e-05
1.46939e-05
1.44346e-05
1.41953e-05
1.39741e-05
1.37677e-05
1.35763e-05
1.34028e-05
1.32406e-05
1.3089e-05
1.29489e-05
1.28182e-05
1.26899e-05
1.25541e-05
1.24573e-05
1.23608e-05
1.22682e-05
1.21835e-05
1.20842e-05
1.20132e-05
1.19292e-05
1.18707e-05
1.18126e-05
1.17598e-05
1.17138e-05
1.16774e-05
1.16436e-05
1.16045e-05
1.15681e-05
1.15388e-05
1.66536e-05
1.56601e-05
1.48409e-05
1.41811e-05
1.35947e-05
1.31635e-05
1.28223e-05
1.25297e-05
1.22714e-05
1.20398e-05
1.18286e-05
1.16378e-05
1.14614e-05
1.12959e-05
1.11497e-05
1.09858e-05
1.08429e-05
1.07171e-05
1.05956e-05
1.04848e-05
1.03773e-05
1.02794e-05
1.01869e-05
1.0099e-05
1.00218e-05
9.94736e-06
9.87812e-06
9.81196e-06
9.75082e-06
9.69697e-06
9.64462e-06
9.59579e-06
9.55579e-06
9.51906e-06
9.48722e-06
9.46069e-06
9.43451e-06
9.40848e-06
9.38276e-06
9.36101e-06
1.13097e-05
1.06335e-05
9.97292e-06
9.46904e-06
9.08846e-06
8.82194e-06
8.62451e-06
8.45695e-06
8.31516e-06
8.19009e-06
8.07457e-06
7.97611e-06
7.86853e-06
7.76486e-06
7.67173e-06
7.57991e-06
7.49446e-06
7.41433e-06
7.3398e-06
7.26946e-06
7.2042e-06
7.1464e-06
7.09401e-06
7.04451e-06
6.99862e-06
6.95555e-06
6.91571e-06
6.87808e-06
6.8416e-06
6.80778e-06
6.77791e-06
6.75084e-06
6.72636e-06
6.70406e-06
6.68221e-06
6.66658e-06
6.64975e-06
6.63564e-06
6.62325e-06
6.60976e-06
5.5523e-06
5.15531e-06
4.77098e-06
4.53846e-06
4.39148e-06
4.29931e-06
4.23017e-06
4.17035e-06
4.11916e-06
4.07457e-06
4.03438e-06
3.99655e-06
3.95819e-06
3.92129e-06
3.88603e-06
3.85198e-06
3.81972e-06
3.78916e-06
3.76071e-06
3.73353e-06
3.70783e-06
3.6846e-06
3.66329e-06
3.64309e-06
3.62407e-06
3.60611e-06
3.58912e-06
3.57289e-06
3.55811e-06
3.54463e-06
3.53209e-06
3.5202e-06
3.50882e-06
3.49857e-06
3.48982e-06
3.48366e-06
3.47719e-06
3.47064e-06
3.46449e-06
3.45542e-06
1.13098e-05
1.06332e-05
9.9727e-06
9.46819e-06
9.08677e-06
8.8205e-06