/*--------------------------------*- C++ -*----------------------------------*\
| =========                 |                                                 |
| \\      /  F ield         | OpenFOAM: The Open Source CFD Toolbox           |
|  \\    /   O peration     | Version:  2212                                  |
|   \\  /    A nd           | Website:  www.openfoam.com                      |
|    \\/     M anipulation  |                                                 |
\*---------------------------------------------------------------------------*/
FoamFile
{
    version     2.0;
    format      ascii;
    arch        "LSB;label=32;scalar=64";
    class       surfaceScalarField;
    location    "1";
    object      phi;
}
// * * * * * * * * * * * * * * * * * * * * * * * * * * * * * * * * * * * * * //

dimensions      [0 3 -1 0 0 0 0];

oriented        oriented;

internalField   nonuniform List<scalar> 
19019
(
3.3225e-07
1.09686e-09
1.09678e-09
2.79191e-07
2.65297e-08
2.65293e-08
2.49218e-07
1.49866e-08
1.49859e-08
2.29254e-07
9.98237e-09
9.98119e-09
2.14835e-07
7.21083e-09
7.20841e-09
2.032e-07
5.81955e-09
5.8158e-09
1.93772e-07
4.71734e-09
4.71011e-09
1.86005e-07
3.89006e-09
3.87727e-09
1.79357e-07
3.33508e-09
3.31312e-09
1.73529e-07
2.93271e-09
2.89545e-09
1.68358e-07
2.61579e-09
2.55492e-09
1.63741e-07
2.35894e-09
2.25873e-09
1.59585e-07
2.16522e-09
1.99088e-09
1.55825e-07
2.03362e-09
1.72636e-09
1.52482e-07
1.92741e-09
1.41502e-09
1.4961e-07
1.85065e-09
1.02201e-09
1.47347e-07
1.78482e-09
4.78276e-10
1.46902e-07
1.33013e-09
-8.85209e-10
1.50476e-07
2.05627e-10
-3.77947e-09
-1.32658e-08
-2.76935e-08
6.3138e-07
3.58759e-09
7.40284e-09
6.14564e-07
2.26458e-08
2.07001e-08
5.86446e-07
2.43757e-08
1.87288e-08
5.61728e-07
1.88543e-08
1.58462e-08
5.39622e-07
1.55684e-08
1.37483e-08
5.20645e-07
1.35084e-08
1.12886e-08
5.04705e-07
1.19488e-08
8.7086e-09
4.90961e-07
1.07943e-08
6.83889e-09
4.78757e-07
9.93781e-09
5.6015e-09
4.67704e-07
9.22236e-09
4.76321e-09
4.57579e-07
8.58845e-09
4.15256e-09
4.48253e-07
8.00758e-09
3.6778e-09
4.3963e-07
7.46569e-09
3.32294e-09
4.31657e-07
6.95238e-09
3.05352e-09
4.24392e-07
6.42236e-09
2.77087e-09
4.18039e-07
5.79746e-09
2.40621e-09
4.13259e-07
4.8497e-09
1.71523e-09
4.12174e-07
2.50893e-09
-9.3462e-11
4.19652e-07
-2.32054e-09
-4.95259e-09
-1.48369e-08
-2.04749e-08
8.90375e-07
2.85255e-09
6.33231e-09
8.82487e-07
1.34082e-08
1.71256e-08
8.70361e-07
1.78662e-08
1.86353e-08
8.55116e-07
1.69532e-08
1.71461e-08
8.39989e-07
1.53362e-08
1.5359e-08
8.25546e-07
1.41626e-08
1.37886e-08
8.11788e-07
1.33663e-08
1.23409e-08
7.98811e-07
1.26527e-08
1.1119e-08
7.86766e-07
1.18487e-08
1.01342e-08
7.7567e-07
1.09778e-08
9.34018e-09
7.65395e-07
1.01277e-08
8.73554e-09
7.55809e-07
9.30743e-09
8.28678e-09
7.46821e-07
8.50831e-09
7.94525e-09
7.38424e-07
7.69161e-09
7.6578e-09
7.30701e-07
6.77596e-09
7.36946e-09
7.23978e-07
5.5613e-09
6.95967e-09
7.18752e-07
3.83617e-09
6.23929e-09
7.15497e-07
1.04232e-09
4.72145e-09
7.14826e-07
-3.66279e-09
2.01377e-09
-1.24792e-08
-3.58317e-09
1.07432e-06
1.06464e-09
5.56887e-09
1.06824e-06
5.58592e-09
1.39002e-08
1.06138e-06
8.46276e-09
1.62615e-08
1.05339e-06
9.03765e-09
1.59082e-08
1.04511e-06
8.61384e-09
1.50012e-08
1.03723e-06
8.11316e-09
1.39324e-08
1.02984e-06
7.77342e-09
1.29765e-08
1.02285e-06
7.53161e-09
1.21145e-08
1.01602e-06
7.33013e-09
1.13453e-08
1.00929e-06
7.01836e-09
1.06935e-08
1.00268e-06
6.53431e-09
1.02003e-08
9.96186e-07
5.96329e-09
9.8388e-09
9.89764e-07
5.34784e-09
9.58273e-09
9.83374e-07
4.66503e-09
9.41595e-09
9.76963e-07
3.87314e-09
9.3139e-09
9.7051e-07
2.7842e-09
9.23012e-09
9.64016e-07
1.2068e-09
9.12326e-09
9.57202e-07
-1.13614e-09
8.99253e-09
9.49277e-07
-4.65576e-09
8.91825e-09
-1.00151e-08
9.25369e-09
1.16914e-06
-1.31137e-13
4.90653e-09
1.16312e-06
-6.03281e-13
1.16084e-08
1.15731e-06
-1.32943e-12
1.42755e-08
1.15202e-06
-2.33064e-12
1.4334e-08
1.1469e-06
-3.93867e-12
1.37314e-08
1.14205e-06
-6.74773e-12
1.29715e-08
1.13773e-06
-1.16487e-11
1.21045e-08
1.13397e-06
-1.97064e-11
1.13147e-08
1.13067e-06
-3.32259e-11
1.0662e-08
1.12753e-06
-5.56444e-11
1.02115e-08
1.12423e-06
-9.28867e-11
9.93226e-09
1.12059e-06
-1.54565e-10
9.75283e-09
1.11651e-06
-2.57288e-10
9.68573e-09
1.11185e-06
-4.34955e-10
9.76419e-09
1.10644e-06
-7.31279e-10
1.00103e-08
1.09998e-06
-1.22419e-09
1.04687e-08
1.09202e-06
-2.08683e-09
1.12586e-08
1.08191e-06
-3.5129e-09
1.24869e-08
1.06923e-06
-6.05365e-09
1.40781e-08
-1.0468e-08
1.61024e-08
1.16914e-06
-1.06491e-09
4.90657e-09
1.16312e-06
-5.58686e-09
1.16086e-08
1.15731e-06
-8.46455e-09
1.42757e-08
1.15201e-06
-9.04069e-09
1.43344e-08
1.1469e-06
-8.6193e-09
1.37328e-08
1.14204e-06
-8.12296e-09
1.29742e-08
1.13771e-06
-7.79053e-09
1.21088e-08
1.13393e-06
-7.56058e-09
1.13218e-08
1.1306e-06
-7.37937e-09
1.06742e-08
1.12741e-06
-7.09953e-09
1.02319e-08
1.12402e-06
-6.66691e-09
9.96525e-09
1.12024e-06
-6.17925e-09
9.80819e-09
1.1159e-06
-5.70393e-09
9.78618e-09
1.11077e-06
-5.2627e-09
9.95295e-09
1.10455e-06
-4.85342e-09
1.03463e-08
1.09669e-06
-4.44007e-09
1.10697e-08
1.08635e-06
-4.07913e-09
1.23317e-08
1.07205e-06
-3.62952e-09
1.44193e-08
1.05189e-06
-3.17589e-09
1.72806e-08
-4.14909e-09
2.27524e-08
1.07432e-06
-2.85253e-09
5.56888e-09
1.06824e-06
-1.34081e-08
1.39003e-08
1.06138e-06
-1.78663e-08
1.62621e-08
1.05338e-06
-1.69533e-08
1.591e-08
1.04509e-06
-1.53368e-08
1.50045e-08
1.0372e-06
-1.41642e-08
1.39375e-08
1.02979e-06
-1.33694e-08
1.29841e-08
1.02276e-06
-1.26572e-08
1.21267e-08
1.01587e-06
-1.18561e-08
1.13657e-08
1.00903e-06
-1.09895e-08
1.07286e-08
1.00225e-06
-1.01455e-08
1.02605e-08
9.95462e-07
-9.33529e-09
9.9445e-09
9.88545e-07
-8.55423e-09
9.76775e-09
9.81311e-07
-7.77065e-09
9.74157e-09
9.73473e-07
-6.90693e-09
9.89215e-09
9.64583e-07
-5.84002e-09
1.02903e-08
9.53849e-07
-4.44117e-09
1.10954e-08
9.39918e-07
-2.20743e-09
1.25096e-08
9.21073e-07
1.18963e-09
1.44797e-08
4.56768e-09
2.25306e-08
8.90375e-07
-3.58745e-09
6.33238e-09
8.82486e-07
-2.26452e-08
1.7126e-08
8.70358e-07
-2.43749e-08
1.86365e-08
8.55109e-07
-1.88529e-08
1.71481e-08
8.39976e-07
-1.55657e-08
1.53619e-08
8.25523e-07
-1.35039e-08
1.37926e-08
8.11748e-07
-1.19411e-08
1.23474e-08
7.98741e-07
-1.07814e-08
1.11304e-08
7.86649e-07
-9.91614e-09
1.01527e-08
7.75474e-07
-9.18574e-09
9.37086e-09
7.65068e-07
-8.52677e-09
8.78743e-09
7.55264e-07
-7.90805e-09
8.37636e-09
7.45919e-07
-7.30673e-09
8.09785e-09
7.36924e-07
-6.69311e-09
7.9174e-09
7.28191e-07
-6.0057e-09
7.83184e-09
7.19672e-07
-5.14916e-09
7.82911e-09
7.1122e-07
-3.9022e-09
7.91315e-09
7.02249e-07
-1.27244e-09
8.03561e-09
6.90838e-07
4.13112e-09
8.46999e-09
2.16972e-08
8.96913e-09
6.3138e-07
-1.09677e-09
7.40292e-09
6.14564e-07
-2.65293e-08
2.07005e-08
5.86445e-07
-1.49859e-08
1.87295e-08
5.61726e-07
-9.98119e-09
1.58476e-08
5.39618e-07
-7.20841e-09
1.37502e-08
5.20638e-07
-5.8158e-09
1.12923e-08
5.04693e-07
-4.71011e-09
8.71447e-09
4.9094e-07
-3.87728e-09
6.84831e-09
4.7872e-07
-3.31312e-09
5.61716e-09
4.6764e-07
-2.89546e-09
4.78982e-09
4.57466e-07
-2.55491e-09
4.20258e-09
4.48054e-07
-2.25871e-09
3.76245e-09
4.39298e-07
-1.99082e-09
3.44037e-09
4.31119e-07
-1.72631e-09
3.21163e-09
4.23495e-07
-1.41498e-09
3.03411e-09
4.16497e-07
-1.02197e-09
2.87032e-09
4.10467e-07
-4.78252e-10
2.60621e-09
4.06732e-07
8.85186e-10
1.57815e-09
4.09046e-07
3.77955e-09
-1.96165e-09
2.76929e-08
-1.91708e-08
3.3225e-07
1.09687e-09
2.79191e-07
2.65297e-08
2.49218e-07
1.49866e-08
2.29254e-07
9.98237e-09
2.14835e-07
7.21082e-09
2.032e-07
5.81955e-09
1.93773e-07
4.71733e-09
1.86005e-07
3.89005e-09
1.79357e-07
3.33506e-09
1.73529e-07
2.9327e-09
1.68358e-07
2.61578e-09
1.63741e-07
2.35893e-09
1.59585e-07
2.1652e-09
1.55825e-07
2.03362e-09
1.52482e-07
1.92744e-09
1.4961e-07
1.85072e-09
1.47347e-07
1.785e-09
1.46901e-07
1.33048e-09
1.50475e-07
2.06282e-10
-1.32655e-08
6.3138e-07
7.40292e-09
3.58746e-09
6.14564e-07
2.07005e-08
2.26452e-08
5.86445e-07
1.87295e-08
2.43749e-08
5.61726e-07
1.58476e-08
1.88529e-08
5.39618e-07
1.37502e-08
1.55657e-08
5.20638e-07
1.12923e-08
1.35039e-08
5.04692e-07
8.71447e-09
1.19411e-08
4.9094e-07
6.84831e-09
1.07814e-08
4.7872e-07
5.61716e-09
9.91614e-09
4.6764e-07
4.78982e-09
9.18574e-09
4.57465e-07
4.20257e-09
8.52678e-09
4.48054e-07
3.76243e-09
7.90808e-09
4.39298e-07
3.44036e-09
7.30677e-09
4.31119e-07
3.21158e-09
6.69318e-09
4.23495e-07
3.03397e-09
6.00577e-09
4.16498e-07
2.87011e-09
5.14916e-09
4.10468e-07
2.60581e-09
3.90208e-09
4.06734e-07
1.57729e-09
1.27199e-09
4.0905e-07
-1.96329e-09
-4.13212e-09
-1.91746e-08
-2.16989e-08
9.23616e-07
7.03389e-09
7.03372e-09
9.25318e-07
1.98498e-08
1.98492e-08
9.17184e-07
2.27966e-08
2.27956e-08
9.04276e-07
2.23021e-08
2.23003e-08
8.90535e-07
2.06211e-08
2.06181e-08
8.77412e-07
1.7855e-08
1.78494e-08
8.65444e-07
1.46998e-08
1.46906e-08
8.5477e-07
1.2188e-08
1.21731e-08
8.45338e-07
1.03383e-08
1.03127e-08
8.37005e-07
8.96466e-09
8.92099e-09
8.29591e-07
7.9215e-09
7.8484e-09
8.22918e-07
7.11558e-09
6.9968e-09
8.1691e-07
6.47985e-09
6.29222e-09
8.11591e-07
5.94035e-09
5.64335e-09
8.07035e-07
5.41493e-09
4.94674e-09
8.03371e-07
4.82611e-09
4.11338e-09
8.00756e-07
3.99795e-09
2.93827e-09
7.9858e-07
2.58069e-09
1.07942e-09
7.93771e-07
-2.19275e-10
-1.88733e-09
-5.04939e-09
-6.41118e-09
1.1589e-06
5.2813e-09
6.10237e-09
1.1657e-06
1.39984e-08
1.61821e-08
1.16845e-06
1.79772e-08
2.07048e-08
1.16662e-06
1.91777e-08
2.21021e-08
1.16222e-06
1.88743e-08
2.15023e-08
1.15655e-06
1.75423e-08
1.97657e-08
1.1505e-06
1.56791e-08
1.74187e-08
1.14461e-06
1.38741e-08
1.53188e-08
1.13921e-06
1.22634e-08
1.36125e-08
1.13442e-06
1.08497e-08
1.22416e-08
1.13027e-06
9.66712e-09
1.11456e-08
1.12672e-06
8.67957e-09
1.02695e-08
1.12377e-06
7.82325e-09
9.54681e-09
1.12145e-06
7.02004e-09
8.90582e-09
1.11977e-06
6.1786e-09
8.28025e-09
1.11878e-06
5.20669e-09
7.57044e-09
1.11844e-06
3.95057e-09
6.62534e-09
1.11826e-06
2.22148e-09
5.26748e-09
1.11687e-06
-1.91814e-10
3.36779e-09
-3.46117e-09
1.55392e-09
1.32763e-06
2.71803e-09
4.93096e-09
1.33539e-06
7.12023e-09
1.30086e-08
1.34287e-06
9.55226e-09
1.72151e-08
1.34848e-06
1.05759e-08
1.88983e-08
1.35198e-06
1.08714e-08
1.95002e-08
1.35377e-06
1.0574e-08
1.91145e-08
1.35444e-06
9.88081e-09
1.81006e-08
1.35459e-06
9.02756e-09
1.68122e-08
1.35457e-06
8.16296e-09
1.54667e-08
1.35453e-06
7.34159e-09
1.42394e-08
1.35455e-06
6.58735e-09
1.32582e-08
1.35469e-06
5.89037e-09
1.24912e-08
1.35497e-06
5.23204e-09
1.18953e-08
1.35542e-06
4.55833e-09
1.14314e-08
1.35606e-06
3.79286e-09
1.10594e-08
1.35688e-06
2.86744e-09
1.07439e-08
1.35783e-06
1.66981e-09
1.04568e-08
1.35875e-06
1.00035e-10
1.01946e-08
1.35944e-06
-1.98103e-09
1.00148e-08
-4.28774e-09
1.03335e-08
1.41518e-06
-2.31395e-13
4.19281e-09
1.42279e-06
-6.59257e-13
1.11158e-08
1.43152e-06
-1.13838e-12
1.50985e-08
1.4398e-06
-2.03194e-12
1.66297e-08
1.44713e-06
-3.65644e-12
1.72767e-08
1.45317e-06
-6.25652e-12
1.75128e-08
1.45801e-06
-1.02344e-11
1.71584e-08
1.46192e-06
-1.66899e-11
1.64464e-08
1.46521e-06
-2.78044e-11
1.55668e-08
1.46811e-06
-4.72202e-11
1.46989e-08
1.4708e-06
-7.92668e-11
1.39084e-08
1.47333e-06
-1.32194e-10
1.32487e-08
1.47564e-06
-2.12354e-10
1.28106e-08
1.47771e-06
-3.36779e-10
1.25987e-08
1.47949e-06
-5.3511e-10
1.25542e-08
1.48096e-06
-8.41985e-10
1.27038e-08
1.48205e-06
-1.30903e-09
1.315e-08
1.48267e-06
-1.99316e-09
1.39597e-08
1.48263e-06
-2.94e-09
1.50742e-08
-3.94382e-09
1.6346e-08
1.41518e-06
-2.71829e-09
4.19293e-09
1.42279e-06
-7.12097e-09
1.11161e-08
1.43152e-06
-9.5536e-09
1.5099e-08
1.4398e-06
-1.05784e-08
1.66307e-08
1.44712e-06
-1.08759e-08
1.7279e-08
1.45316e-06
-1.05815e-08
1.75168e-08
1.45798e-06
-9.8931e-09
1.71648e-08
1.46188e-06
-9.04779e-09
1.64564e-08
1.46514e-06
-8.19666e-09
1.55825e-08
1.468e-06
-7.40027e-09
1.47249e-08
1.47062e-06
-6.68672e-09
1.39518e-08
1.47303e-06
-6.05446e-09
1.33242e-08
1.47515e-06
-5.48532e-09
1.29403e-08
1.47691e-06
-4.95426e-09
1.28077e-08
1.47827e-06
-4.4307e-09
1.28858e-08
1.47912e-06
-3.89751e-09
1.32725e-08
1.47937e-06
-3.31882e-09
1.40945e-08
1.47897e-06
-2.65484e-09
1.54737e-08
1.47784e-06
-1.89372e-09
1.73657e-08
-1.20057e-09
1.9297e-08
1.32762e-06
-5.28119e-09
4.93119e-09
1.33539e-06
-1.39982e-08
1.30092e-08
1.34286e-06
-1.7977e-08
1.72165e-08
1.34847e-06
-1.91774e-08
1.89014e-08
1.35197e-06
-1.88737e-08
1.95058e-08
1.35374e-06
-1.75411e-08
1.91231e-08
1.35439e-06
-1.56774e-08
1.81139e-08
1.35451e-06
-1.38723e-08
1.68334e-08
1.35444e-06
-1.22595e-08
1.54997e-08
1.35432e-06
-1.08422e-08
1.42931e-08
1.3542e-06
-9.65436e-09
1.33503e-08
1.3541e-06
-8.65581e-09
1.26453e-08
1.35401e-06
-7.77382e-09
1.2148e-08
1.35388e-06
-6.93117e-09
1.18454e-08
1.35365e-06
-6.04978e-09
1.17428e-08
1.3532e-06
-5.03933e-09
1.18749e-08
1.35243e-06
-3.76322e-09
1.23136e-08
1.35118e-06
-2.02313e-09
1.31272e-08
1.34907e-06
4.19644e-10
1.42777e-08
4.05203e-09
1.56014e-08
1.1589e-06
-7.03372e-09
6.10264e-09
1.1657e-06
-1.98492e-08
1.6183e-08
1.16844e-06
-2.27956e-08
2.07068e-08
1.16661e-06
-2.23003e-08
2.21054e-08
1.16221e-06
-2.06181e-08
2.15072e-08
1.15654e-06
-1.78494e-08
1.97728e-08
1.15047e-06
-1.46906e-08
1.74303e-08
1.14456e-06
-1.21732e-08
1.53387e-08
1.13912e-06
-1.03128e-08
1.36461e-08
1.13427e-06
-8.92103e-09
1.22971e-08
1.13002e-06
-7.84844e-09
1.12369e-08
1.12632e-06
-6.99683e-09
1.04172e-08
1.12315e-06
-6.2922e-09
9.78458e-09
1.12049e-06
-5.64343e-09
9.2859e-09
1.11833e-06
-4.94695e-09
8.8887e-09
1.11669e-06
-4.11365e-09
8.54452e-09
1.11559e-06
-2.93883e-09
8.19178e-09
1.11497e-06
-1.08059e-09
7.70709e-09
1.11514e-06
1.88553e-09
6.84349e-09
6.40979e-09
5.21896e-09
9.23617e-07
-7.40284e-09
7.03388e-09
9.25318e-07
-2.07001e-08
1.98498e-08
9.17184e-07
-1.87288e-08
2.27966e-08
9.04276e-07
-1.58463e-08
2.23021e-08
8.90535e-07
-1.37483e-08
2.06211e-08
8.77412e-07
-1.12886e-08
1.7855e-08
8.65444e-07
-8.7086e-09
1.46998e-08
8.5477e-07
-6.83889e-09
1.2188e-08
8.45338e-07
-5.6015e-09
1.03383e-08
8.37005e-07
-4.76321e-09
8.96463e-09
8.29591e-07
-4.15255e-09
7.92146e-09
8.22918e-07
-3.67779e-09
7.11554e-09
8.1691e-07
-3.32288e-09
6.47979e-09
8.11591e-07
-3.05348e-09
5.94037e-09
8.07034e-07
-2.77089e-09
5.41507e-09
8.03371e-07
-2.40629e-09
4.82639e-09
8.00755e-07
-1.71547e-09
3.99855e-09
7.98578e-07
9.29427e-11
2.58189e-09
7.93768e-07
4.95181e-09
-2.17519e-10
2.04739e-08
-5.04663e-09
6.3138e-07
3.58759e-09
6.14564e-07
2.26458e-08
5.86446e-07
2.43757e-08
5.61728e-07
1.88543e-08
5.39622e-07
1.55684e-08
5.20645e-07
1.35084e-08
5.04705e-07
1.19488e-08
4.90961e-07
1.07942e-08
4.78757e-07
9.93779e-09
4.67704e-07
9.22234e-09
4.57579e-07
8.58842e-09
4.48253e-07
8.00756e-09
4.3963e-07
7.46569e-09
4.31657e-07
6.95235e-09
4.24392e-07
6.42233e-09
4.18039e-07
5.79755e-09
4.13258e-07
4.84994e-09
4.12172e-07
2.50934e-09
4.19651e-07
-2.32004e-09
-1.48367e-08
8.90375e-07
6.33238e-09
2.85254e-09
8.82486e-07
1.7126e-08
1.34081e-08
8.70358e-07
1.86365e-08
1.78663e-08
8.55109e-07
1.71481e-08
1.69533e-08
8.39976e-07
1.53619e-08
1.53368e-08
8.25523e-07
1.37927e-08
1.41642e-08
8.11748e-07
1.23475e-08
1.33694e-08
7.98741e-07
1.11304e-08
1.26572e-08
7.86649e-07
1.01527e-08
1.1856e-08
7.75474e-07
9.37087e-09
1.09894e-08
7.65068e-07
8.78745e-09
1.01455e-08
7.55264e-07
8.37637e-09
9.33527e-09
7.45919e-07
8.09786e-09
8.55422e-09
7.36924e-07
7.91736e-09
7.77066e-09
7.28192e-07
7.8317e-09
6.90694e-09
7.19672e-07
7.8288e-09
5.83991e-09
7.11221e-07
7.91244e-09
4.44086e-09
7.02252e-07
8.03412e-09
2.20668e-09
6.90845e-07
8.46729e-09
-1.19146e-09
8.96702e-09
-4.56927e-09
1.1589e-06
6.10264e-09
5.28119e-09
1.1657e-06
1.6183e-08
1.39982e-08
1.16844e-06
2.07069e-08
1.7977e-08
1.16661e-06
2.21054e-08
1.91774e-08
1.16221e-06
2.15072e-08
1.88737e-08
1.15654e-06
1.97728e-08
1.7541e-08
1.15047e-06
1.74304e-08
1.56774e-08
1.14456e-06
1.53388e-08
1.38723e-08
1.13912e-06
1.36461e-08
1.22594e-08
1.13427e-06
1.22971e-08
1.08422e-08
1.13002e-06
1.12369e-08
9.65429e-09
1.12632e-06
1.04173e-08
8.65574e-09
1.12315e-06
9.78461e-09
7.77379e-09
1.12049e-06
9.2858e-09
6.93105e-09
1.11833e-06
8.88843e-09
6.04957e-09
1.11669e-06
8.54406e-09
5.03907e-09
1.11559e-06
8.19092e-09
3.76275e-09
1.11497e-06
7.70559e-09
2.02228e-09
1.11513e-06
6.84149e-09
-4.2084e-10
5.21907e-09
-4.05063e-09
1.37712e-06
4.57727e-09
4.57703e-09
1.38565e-06
1.19169e-08
1.19162e-08
1.39417e-06
1.64464e-08
1.64452e-08
1.40126e-06
1.85596e-08
1.85576e-08
1.40642e-06
1.89288e-08
1.89255e-08
1.40952e-06
1.82201e-08
1.82149e-08
1.41095e-06
1.67128e-08
1.67043e-08
1.41155e-06
1.50377e-08
1.50243e-08
1.41185e-06
1.34911e-08
1.34693e-08
1.41212e-06
1.21495e-08
1.21145e-08
1.41255e-06
1.1004e-08
1.09477e-08
1.41326e-06
1.00367e-08
9.9465e-09
1.4143e-06
9.21614e-09
9.07096e-09
1.41572e-06
8.50045e-09
8.26999e-09
1.41754e-06
7.85336e-09
7.49962e-09
1.41973e-06
7.22502e-09
6.69501e-09
1.4222e-06
6.56079e-09
5.78454e-09
1.42466e-06
5.80344e-09
4.71323e-09
1.42646e-06
4.92081e-09
3.48463e-09
4.09823e-09
2.49052e-09
1.53312e-06
2.36585e-09
3.64911e-09
1.54218e-06
6.23833e-09
9.63326e-09
1.55328e-06
8.87247e-09
1.36907e-08
1.56445e-06
1.03457e-08
1.5935e-08
1.57508e-06
1.08976e-08
1.69094e-08
1.58472e-06
1.07515e-08
1.69422e-08
1.59302e-06
1.01386e-08
1.63726e-08
1.6001e-06
9.32374e-09
1.54409e-08
1.60628e-06
8.44802e-09
1.43375e-08
1.6118e-06
7.6197e-09
1.32411e-08
1.61694e-06
6.88208e-09
1.22467e-08
1.62185e-06
6.23316e-09
1.13802e-08
1.62668e-06
5.64974e-09
1.06382e-08
1.63151e-06
5.09744e-09
1.0004e-08
1.63642e-06
4.54686e-09
9.45366e-09
1.64147e-06
3.96127e-09
8.96069e-09
1.64667e-06
3.31033e-09
8.50425e-09
1.65203e-06
2.55581e-09
8.07942e-09
1.65757e-06
1.68546e-09
7.71369e-09
7.89937e-10
7.63357e-09
1.61424e-06
-1.689e-13
3.09277e-09
1.62332e-06
-4.16426e-13
8.27382e-09
1.63533e-06
-7.30616e-13
1.19568e-08
1.6482e-06
-1.26824e-12
1.4114e-08
1.66117e-06
-2.19051e-12
1.51997e-08
1.67386e-06
-3.52254e-12
1.55826e-08
1.68573e-06
-5.72681e-12
1.54301e-08
1.69655e-06
-9.07193e-12
1.49598e-08
1.70629e-06
-1.47299e-11
1.42887e-08
1.71511e-06
-2.40767e-11
1.35196e-08
1.7232e-06
-3.88265e-11
1.27441e-08
1.73071e-06
-6.13747e-11
1.20327e-08
1.73783e-06
-9.38591e-11
1.14376e-08
1.74467e-06
-1.40932e-10
1.0989e-08
1.75129e-06
-2.14929e-10
1.07005e-08
1.75771e-06
-3.31733e-10
1.0572e-08
1.76405e-06
-4.91462e-10
1.0615e-08
1.77043e-06
-6.91882e-10
1.08304e-08
1.77693e-06
-9.03982e-10
1.11667e-08
-1.02087e-09
1.15709e-08
1.61424e-06
-2.36597e-09
3.09292e-09
1.62332e-06
-6.23864e-09
8.27422e-09
1.63533e-06
-8.87304e-09
1.19576e-08
1.64819e-06
-1.03467e-08
1.41154e-08
1.66117e-06
-1.08991e-08
1.52023e-08
1.67385e-06
-1.07538e-08
1.55866e-08
1.68571e-06
-1.01424e-08
1.5436e-08
1.69652e-06
-9.32989e-09
1.49688e-08
1.70624e-06
-8.45807e-09
1.43027e-08
1.71504e-06
-7.63717e-09
1.35422e-08
1.72308e-06
-6.91192e-09
1.27806e-08
1.73054e-06
-6.28203e-09
1.2092e-08
1.73757e-06
-5.72401e-09
1.15327e-08
1.74431e-06
-5.20724e-09
1.11381e-08
1.75077e-06
-4.71995e-09
1.09327e-08
1.75702e-06
-4.24392e-09
1.09324e-08
1.76323e-06
-3.76084e-09
1.11579e-08
1.76965e-06
-3.251e-09
1.16098e-08
1.77664e-06
-2.71939e-09
1.21894e-08
-2.20361e-09
1.26704e-08
1.53312e-06
-4.57703e-09
3.64943e-09
1.54218e-06
-1.19162e-08
9.63413e-09
1.55327e-06
-1.64452e-08
1.36923e-08
1.56445e-06
-1.85576e-08
1.59379e-08
1.57507e-06
-1.89256e-08
1.69142e-08
1.5847e-06
-1.8215e-08
1.69498e-08
1.59299e-06
-1.67044e-08
1.63842e-08
1.60006e-06
-1.50244e-08
1.54595e-08
1.6062e-06
-1.34694e-08
1.43664e-08
1.61169e-06
-1.21146e-08
1.32867e-08
1.61675e-06
-1.09477e-08
1.23202e-08
1.62157e-06
-9.94659e-09
1.14982e-08
1.62623e-06
-9.07106e-09
1.08289e-08
1.63083e-06
-8.27015e-09
1.03096e-08
1.63542e-06
-7.49985e-09
9.93399e-09
1.64004e-06
-6.69531e-09
9.70319e-09
1.64476e-06
-5.78498e-09
9.62566e-09
1.64965e-06
-4.71386e-09
9.69769e-09
1.65484e-06
-3.48532e-09
9.84644e-09
-2.49072e-09
9.89152e-09
1.37712e-06
-6.10237e-09
4.57727e-09
1.38565e-06
-1.61821e-08
1.19169e-08
1.39417e-06
-2.07048e-08
1.64464e-08
1.40126e-06
-2.21021e-08
1.85596e-08
1.40642e-06
-2.15023e-08
1.89288e-08
1.40952e-06
-1.97657e-08
1.82201e-08
1.41095e-06
-1.74188e-08
1.67128e-08
1.41155e-06
-1.53188e-08
1.50377e-08
1.41185e-06
-1.36125e-08
1.34911e-08
1.41212e-06
-1.22417e-08
1.21495e-08
1.41255e-06
-1.11457e-08
1.1004e-08
1.41326e-06
-1.02695e-08
1.00367e-08
1.4143e-06
-9.54691e-09
9.21615e-09
1.41572e-06
-8.90598e-09
8.50054e-09
1.41754e-06
-8.28052e-09
7.85358e-09
1.41973e-06
-7.57092e-09
7.22541e-09
1.4222e-06
-6.62619e-09
6.56143e-09
1.42466e-06
-5.2689e-09
5.80442e-09
1.42647e-06
-3.36995e-09
4.92206e-09
-1.55615e-09
4.09923e-09
1.1589e-06
-6.3323e-09
5.28129e-09
1.1657e-06
-1.71256e-08
1.39984e-08
1.16845e-06
-1.86353e-08
1.79772e-08
1.16662e-06
-1.71461e-08
1.91777e-08
1.16222e-06
-1.5359e-08
1.88743e-08
1.15655e-06
-1.37886e-08
1.75423e-08
1.1505e-06
-1.23409e-08
1.56791e-08
1.14461e-06
-1.1119e-08
1.3874e-08
1.13921e-06
-1.01342e-08
1.22634e-08
1.13442e-06
-9.3402e-09
1.08496e-08
1.13027e-06
-8.73556e-09
9.66707e-09
1.12672e-06
-8.28682e-09
8.67951e-09
1.12377e-06
-7.94531e-09
7.82321e-09
1.12145e-06
-7.65788e-09
7.02003e-09
1.11977e-06
-7.36958e-09
6.17867e-09
1.11878e-06
-6.95999e-09
5.20695e-09
1.11844e-06
-6.23993e-09
3.95112e-09
1.11825e-06
-4.72265e-09
2.2225e-09
1.11687e-06
-2.01586e-09
-1.90293e-10
3.58026e-09
-3.46117e-09
8.90375e-07
2.85255e-09
8.82487e-07
1.34082e-08
8.70361e-07
1.78662e-08
8.55116e-07
1.69532e-08
8.39989e-07
1.53361e-08
8.25546e-07
1.41626e-08
8.11788e-07
1.33663e-08
7.98811e-07
1.26527e-08
7.86765e-07
1.18487e-08
7.7567e-07
1.09777e-08
7.65395e-07
1.01276e-08
7.55809e-07
9.30736e-09
7.46821e-07
8.50824e-09
7.38424e-07
7.69155e-09
7.307e-07
6.77592e-09
7.23977e-07
5.56136e-09
7.1875e-07
3.83638e-09
7.15494e-07
1.04283e-09
7.1482e-07
-3.66165e-09
-1.24772e-08
1.07432e-06
5.56889e-09
1.06492e-09
1.06824e-06
1.39003e-08
5.58687e-09
1.06138e-06
1.62621e-08
8.46455e-09
1.05338e-06
1.591e-08
9.04068e-09
1.04509e-06
1.50045e-08
8.61929e-09
1.0372e-06
1.39375e-08
8.12294e-09
1.02979e-06
1.29841e-08
7.7905e-09
1.02276e-06
1.21268e-08
7.56054e-09
1.01587e-06
1.13657e-08
7.37932e-09
1.00903e-06
1.07286e-08
7.09948e-09
1.00225e-06
1.02605e-08
6.66685e-09
9.95462e-07
9.94448e-09
6.17918e-09
9.88545e-07
9.76771e-09
5.70385e-09
9.81312e-07
9.74148e-09
5.2626e-09
9.73473e-07
9.89196e-09
4.85331e-09
9.64583e-07
1.02899e-08
4.43986e-09
9.53851e-07
1.10946e-08
4.07876e-09
9.39921e-07
1.25081e-08
3.62886e-09
9.21077e-07
1.44773e-08
3.17467e-09
2.25289e-08
4.14812e-09
1.32762e-06
4.9312e-09
2.71829e-09
1.33539e-06
1.30092e-08
7.12096e-09
1.34286e-06
1.72165e-08
9.55359e-09
1.34847e-06
1.89014e-08
1.05783e-08
1.35197e-06
1.95058e-08
1.08759e-08
1.35374e-06
1.91231e-08
1.05814e-08
1.35439e-06
1.8114e-08
9.89305e-09
1.35451e-06
1.68334e-08
9.04773e-09
1.35444e-06
1.54997e-08
8.19659e-09
1.35432e-06
1.42931e-08
7.40019e-09
1.3542e-06
1.33503e-08
6.68663e-09
1.3541e-06
1.26453e-08
6.05437e-09
1.35401e-06
1.2148e-08
5.48522e-09
1.35388e-06
1.18452e-08
4.95413e-09
1.35365e-06
1.17425e-08
4.43053e-09
1.3532e-06
1.18745e-08
3.89735e-09
1.35243e-06
1.23129e-08
3.31866e-09
1.35118e-06
1.3126e-08
2.65471e-09
1.34907e-06
1.42763e-08
1.8939e-09
1.56019e-08
1.20245e-09
1.53312e-06
3.64943e-09
2.36597e-09
1.54218e-06
9.63414e-09
6.23863e-09
1.55327e-06
1.36923e-08
8.87303e-09
1.56445e-06
1.59379e-08
1.03467e-08
1.57507e-06
1.69142e-08
1.0899e-08
1.5847e-06
1.69498e-08
1.07537e-08
1.59299e-06
1.63842e-08
1.01423e-08
1.60006e-06
1.54595e-08
9.32983e-09
1.6062e-06
1.43665e-08
8.458e-09
1.61169e-06
1.32867e-08
7.63709e-09
1.61675e-06
1.23202e-08
6.91183e-09
1.62157e-06
1.14982e-08
6.28193e-09
1.62623e-06
1.08289e-08
5.72391e-09
1.63083e-06
1.03095e-08
5.20712e-09
1.63542e-06
9.93373e-09
4.71985e-09
1.64004e-06
9.70283e-09
4.24388e-09
1.64475e-06
9.62517e-09
3.76093e-09
1.64964e-06
9.69709e-09
3.25133e-09
1.65484e-06
9.84595e-09
2.72026e-09
9.89182e-09
2.20555e-09
1.68027e-06
1.89102e-09
1.89091e-09
1.68934e-06
5.09926e-09
5.09894e-09
1.7018e-06
7.46411e-09
7.46351e-09
1.71578e-06
8.94584e-09
8.94486e-09
1.73022e-06
9.69266e-09
9.69107e-09
1.74439e-06
9.86068e-09
9.85811e-09
1.75785e-06
9.65224e-09
9.64825e-09
1.77035e-06
9.19942e-09
9.19333e-09
1.78184e-06
8.61419e-09
8.60506e-09
1.7924e-06
7.9904e-09
7.97656e-09
1.8022e-06
7.39342e-09
7.37182e-09
1.8114e-06
6.85592e-09
6.8214e-09
1.82015e-06
6.38879e-09
6.33279e-09
1.82857e-06
5.98969e-09
5.90012e-09
1.8368e-06
5.64659e-09
5.51041e-09
1.84496e-06
5.35151e-09
5.15553e-09
1.85316e-06
5.09795e-09
4.82945e-09
1.86154e-06
4.87452e-09
4.52602e-09
1.8702e-06
4.64448e-09
4.25037e-09
4.37924e-09
4.08579e-09
1.7569e-06
-3.63534e-14
1.61312e-09
1.76589e-06
-6.35108e-14
4.38383e-09
1.77878e-06
-9.33973e-14
6.53128e-09
1.79389e-06
-1.37731e-13
7.95032e-09
1.81003e-06
-1.92819e-13
8.75469e-09
1.82639e-06
-2.54041e-13
9.08447e-09
1.8424e-06
-3.62555e-13
9.07083e-09
1.85772e-06
-7.22856e-13
8.83476e-09
1.87217e-06
-1.40188e-12
8.46132e-09
1.88566e-06
-2.40493e-12
8.01677e-09
1.89825e-06
-3.61103e-12
7.55279e-09
1.91004e-06
-4.73392e-12
7.10736e-09
1.92116e-06
-5.2597e-12
6.70685e-09
1.93178e-06
-5.3328e-12
6.36968e-09
1.94202e-06
-7.55748e-12
6.11154e-09
1.95202e-06
-1.45358e-11
5.93828e-09
1.96191e-06
-2.60684e-11
5.85042e-09
1.97181e-06
-3.6539e-11
5.84245e-09
1.98176e-06
-4.51165e-11
5.90042e-09
-5.44107e-11
5.98708e-09
1.7569e-06
-1.89091e-09
1.61322e-09
1.76589e-06
-5.09895e-09
4.3841e-09
1.77878e-06
-7.46353e-09
6.53179e-09
1.79389e-06
-8.94489e-09
7.95119e-09
1.81002e-06
-9.6911e-09
8.75609e-09
1.82638e-06
-9.85815e-09
9.08662e-09
1.84239e-06
-9.6483e-09
9.07399e-09
1.85771e-06
-9.1934e-09
8.8395e-09
1.87215e-06
-8.60513e-09
8.4685e-09
1.88564e-06
-7.97664e-09
8.02776e-09
1.89822e-06
-7.37192e-09
7.56971e-09
1.91e-06
-6.82152e-09
7.13349e-09
1.92111e-06
-6.33291e-09
6.74709e-09
1.93171e-06
-5.90023e-09
6.43121e-09
1.94194e-06
-5.51049e-09
6.20459e-09
1.95194e-06
-5.15553e-09
6.07333e-09
1.96187e-06
-4.82931e-09
6.03518e-09
1.97189e-06
-4.52561e-09
6.07679e-09
1.98212e-06
-4.24952e-09
6.16258e-09
-4.08427e-09
6.20845e-09
1.68027e-06
-3.64911e-09
1.89102e-09
1.68934e-06
-9.63327e-09
5.09926e-09
1.7018e-06
-1.36907e-08
7.4641e-09
1.71578e-06
-1.5935e-08
8.94584e-09
1.73022e-06
-1.69094e-08
9.69266e-09
1.74439e-06
-1.69423e-08
9.86068e-09
1.75785e-06
-1.63727e-08
9.65224e-09
1.77035e-06
-1.5441e-08
9.19943e-09
1.78184e-06
-1.43375e-08
8.6142e-09
1.7924e-06
-1.32412e-08
7.99042e-09
1.8022e-06
-1.22468e-08
7.39345e-09
1.8114e-06
-1.13804e-08
6.85596e-09
1.82015e-06
-1.06384e-08
6.38885e-09
1.82857e-06
-1.00041e-08
5.98978e-09
1.8368e-06
-9.45384e-09
5.64672e-09
1.84496e-06
-8.96091e-09
5.35166e-09
1.85316e-06
-8.50448e-09
5.0981e-09
1.86154e-06
-8.07959e-09
4.87461e-09
1.87021e-06
-7.71349e-09
4.64439e-09
-7.63233e-09
4.37881e-09
1.53312e-06
-4.93096e-09
2.36585e-09
1.54218e-06
-1.30086e-08
6.23832e-09
1.55328e-06
-1.72151e-08
8.87246e-09
1.56445e-06
-1.88983e-08
1.03457e-08
1.57508e-06
-1.95002e-08
1.08976e-08
1.58472e-06
-1.91146e-08
1.07515e-08
1.59302e-06
-1.81006e-08
1.01386e-08
1.6001e-06
-1.68122e-08
9.32373e-09
1.60628e-06
-1.54668e-08
8.44801e-09
1.6118e-06
-1.42394e-08
7.61969e-09
1.61694e-06
-1.32583e-08
6.88207e-09
1.62185e-06
-1.24913e-08
6.23316e-09
1.62668e-06
-1.18954e-08
5.64975e-09
1.63151e-06
-1.14316e-08
5.09747e-09
1.63642e-06
-1.10597e-08
4.54692e-09
1.64147e-06
-1.07443e-08
3.96137e-09
1.64667e-06
-1.04575e-08
3.31045e-09
1.65203e-06
-1.01957e-08
2.55585e-09
1.65757e-06
-1.00158e-08
1.68521e-09
-1.03309e-08
7.89008e-10
1.32763e-06
-5.56887e-09
2.71802e-09
1.33539e-06
-1.39002e-08
7.12022e-09
1.34287e-06
-1.62615e-08
9.55224e-09
1.34848e-06
-1.59082e-08
1.05759e-08
1.35198e-06
-1.50012e-08
1.08714e-08
1.35377e-06
-1.39325e-08
1.0574e-08
1.35444e-06
-1.29765e-08
9.88079e-09
1.35459e-06
-1.21145e-08
9.02754e-09
1.35457e-06
-1.13453e-08
8.16293e-09
1.35453e-06
-1.06935e-08
7.34156e-09
1.35455e-06
-1.02003e-08
6.58731e-09
1.35469e-06
-9.83885e-09
5.89033e-09
1.35497e-06
-9.58282e-09
5.232e-09
1.35542e-06
-9.41608e-09
4.5583e-09
1.35606e-06
-9.31411e-09
3.79285e-09
1.35688e-06
-9.23053e-09
2.86751e-09
1.35783e-06
-9.12402e-09
1.66996e-09
1.35875e-06
-8.99391e-09
1.00225e-10
1.35945e-06
-8.92036e-09
-1.98115e-09
-9.25411e-09
-4.29037e-09
1.07432e-06
1.06464e-09
1.06824e-06
5.58591e-09
1.06138e-06
8.46274e-09
1.05339e-06
9.03762e-09
1.04511e-06
8.61381e-09
1.03723e-06
8.11313e-09
1.02984e-06
7.77338e-09
1.02285e-06
7.53157e-09
1.01602e-06
7.33009e-09
1.00929e-06
7.01831e-09
1.00268e-06
6.53425e-09
9.96186e-07
5.96322e-09
9.89763e-07
5.34777e-09
9.83374e-07
4.66498e-09
9.76962e-07
3.87312e-09
9.70509e-07
2.78425e-09
9.64014e-07
1.20702e-09
9.57198e-07
-1.13558e-09
9.49271e-07
-4.65455e-09
-1.0013e-08
1.16914e-06
4.90657e-09
1.35024e-13
1.16312e-06
1.16086e-08
6.10386e-13
1.15731e-06
1.42757e-08
1.33258e-12
1.15201e-06
1.43344e-08
2.32752e-12
1.1469e-06
1.37328e-08
3.92648e-12
1.14204e-06
1.29743e-08
6.7259e-12
1.13771e-06
1.21088e-08
1.1617e-11
1.13393e-06
1.13218e-08
1.96647e-11
1.1306e-06
1.06742e-08
3.31726e-11
1.12741e-06
1.02319e-08
5.55778e-11
1.12402e-06
9.96524e-09
9.2803e-11
1.12024e-06
9.80817e-09
1.54458e-10
1.1159e-06
9.78612e-09
2.57155e-10
1.11077e-06
9.95284e-09
4.34788e-10
1.10455e-06
1.03461e-08
7.31069e-10
1.09669e-06
1.10694e-08
1.22389e-09
1.08635e-06
1.23312e-08
2.08639e-09
1.07205e-06
1.44184e-08
3.51225e-09
1.0519e-06
1.72789e-08
6.05263e-09
2.27504e-08
1.04666e-08
1.41518e-06
4.19294e-09
2.31757e-13
1.42279e-06
1.11161e-08
6.54227e-13
1.43152e-06
1.5099e-08
1.12605e-12
1.4398e-06
1.66307e-08
2.01096e-12
1.44712e-06
1.7279e-08
3.62557e-12
1.45316e-06
1.75168e-08
6.21528e-12
1.45798e-06
1.71648e-08
1.01833e-11
1.46188e-06
1.64564e-08
1.66289e-11
1.46514e-06
1.55825e-08
2.7733e-11
1.468e-06
1.47249e-08
4.71373e-11
1.47062e-06
1.39517e-08
7.91708e-11
1.47303e-06
1.33242e-08
1.32084e-10
1.47515e-06
1.29402e-08
2.12234e-10
1.47691e-06
1.28076e-08
3.36641e-10
1.47827e-06
1.28855e-08
5.34967e-10
1.47912e-06
1.32722e-08
8.41871e-10
1.47936e-06
1.4094e-08
1.30902e-09
1.47897e-06
1.5473e-08
1.9934e-09
1.47784e-06
1.73647e-08
2.94085e-09
1.92961e-08
3.94611e-09
1.61424e-06
3.09292e-09
1.68099e-13
1.62332e-06
8.27423e-09
4.07982e-13
1.63533e-06
1.19576e-08