/*--------------------------------*- C++ -*----------------------------------*\
| =========                 |                                                 |
| \\      /  F ield         | OpenFOAM: The Open Source CFD Toolbox           |
|  \\    /   O peration     | Version:  2212                                  |
|   \\  /    A nd           | Website:  www.openfoam.com                      |
|    \\/     M anipulation  |                                                 |
\*---------------------------------------------------------------------------*/
FoamFile
{
    version     2.0;
    format      ascii;
    arch        "LSB;label=32;scalar=64";
    class       surfaceVectorField;
    location    "1";
    object      Uf;
}
// * * * * * * * * * * * * * * * * * * * * * * * * * * * * * * * * * * * * * //

dimensions      [0 1 -1 0 0 0 0];

internalField   nonuniform List<vector> 
19019
(
(0.0993441 -0.003419 -0.00341904)
(0.0973536 0.00106248 -0.00148428)
(0.0973536 -0.00148428 0.00106246)
(0.0834792 0.00197591 0.0019758)
(0.0930872 0.00326903 0.00253345)
(0.0930872 0.00253351 0.00326892)
(0.0745173 0.00195882 0.0019586)
(0.0848642 0.00163591 0.0017923)
(0.0848641 0.00179243 0.00163571)
(0.0685481 0.00115927 0.00115886)
(0.0786284 0.00107364 0.00122127)
(0.0786283 0.00122153 0.00107328)
(0.0642367 0.000697287 0.000696617)
(0.0740536 0.000785578 0.00086501)
(0.0740535 0.000865423 0.000784904)
(0.0607577 0.000495391 0.00049413)
(0.0704435 0.000650891 0.000669179)
(0.0704432 0.000669872 0.000649816)
(0.0579388 0.00037589 0.000373624)
(0.0674933 0.000547509 0.000508345)
(0.0674927 0.000509692 0.000545429)
(0.0556164 0.000289742 0.00028602)
(0.0650535 0.000470148 0.000387231)
(0.0650525 0.00038941 0.000466587)
(0.0536285 0.000229898 0.000223822)
(0.0629704 0.000417335 0.000307547)
(0.0629687 0.000311063 0.000411354)
(0.0518859 0.000188012 0.000177936)
(0.0611389 0.000376248 0.00025457)
(0.0611359 0.000260304 0.000366234)
(0.0503399 0.000159163 0.00014254)
(0.0595004 0.000340367 0.000218873)
(0.0594951 0.000228947 0.000323594)
(0.0489592 0.000139231 0.000112855)
(0.0580223 0.000308867 0.000194087)
(0.0580128 0.000210732 0.000281222)
(0.0477165 0.000125694 8.43902e-05)
(0.0566796 0.000284277 0.000176823)
(0.0566635 0.00020022 0.000239424)
(0.0465923 0.000118392 5.17162e-05)
(0.0554524 0.000268516 0.000163475)
(0.0554262 0.000195842 0.000194644)
(0.0455929 0.000118702 1.44222e-05)
(0.0543396 0.000259446 0.000146449)
(0.0542965 0.000199119 0.000137017)
(0.044734 0.000128626 -2.9985e-05)
(0.0533518 0.000257812 0.000125711)
(0.0532789 0.000209632 6.05529e-05)
(0.0440574 0.000134578 -0.000130596)
(0.0525342 0.000266224 9.11098e-05)
(0.0524039 0.000228726 -4.7892e-05)
(0.0439244 0.000108994 -0.000319404)
(0.0520556 0.000262382 -4.17348e-05)
(0.0518092 0.000209389 -0.000280603)
(0.044993 -0.000954273 -0.00175978)
(0.0525062 0.000192904 -0.000267499)
(0.0520046 9.28045e-05 -0.000730496)
(0.0510897 -0.00122399 -0.00197047)
(0.0510259 -0.00207108 -0.00374712)
(0.0984572 0.00247646 0.00172988)
(0.0996871 0.000439233 0.000345479)
(0.100049 0.00105639 0.000750961)
(0.0958349 0.0031481 0.00243263)
(0.0978162 0.00273279 0.00228226)
(0.0982937 0.00280923 0.00216142)
(0.0914502 0.00223039 0.00186922)
(0.0954961 0.0030017 0.00230307)
(0.0963041 0.00244268 0.00199771)
(0.0875957 0.00167472 0.00150535)
(0.0926195 0.00229933 0.00183868)
(0.0936671 0.00198076 0.00172682)
(0.0841485 0.0014402 0.00127557)
(0.089768 0.00189182 0.00153557)
(0.0909052 0.00171978 0.00149766)
(0.0811891 0.00126569 0.00102866)
(0.0872333 0.00165628 0.00129464)
(0.0884353 0.00145468 0.0012116)
(0.0787035 0.0011107 0.000793915)
(0.0850086 0.00149167 0.00107721)
(0.0863063 0.00118379 0.000908491)
(0.0765604 0.000992962 0.000625265)
(0.0830642 0.0013709 0.000913507)
(0.0844831 0.000983461 0.000690542)
(0.0746572 0.000906536 0.000518458)
(0.0813302 0.00127737 0.000802101)
(0.0828844 0.000845929 0.000548407)
(0.0729337 0.000833277 0.000453173)
(0.0797557 0.00119208 0.000727323)
(0.0814549 0.000745785 0.000455082)
(0.0713548 0.000762754 0.000413374)
(0.0783134 0.00110877 0.000680846)
(0.0801635 0.000664393 0.00039069)
(0.0699004 0.000695606 0.000389568)
(0.0769829 0.00102664 0.000653029)
(0.0789848 0.000594128 0.0003436)
(0.0685557 0.000637493 0.000377605)
(0.0757477 0.000945786 0.000637874)
(0.0779015 0.000536726 0.000310479)
(0.0673125 0.000587679 0.000371218)
(0.0745989 0.000866169 0.00063126)
(0.0769087 0.000492677 0.000285534)
(0.0661795 0.000540419 0.000360367)
(0.0735386 0.00078313 0.000626551)
(0.0760097 0.000454997 0.00025573)
(0.0651888 0.000480553 0.000326528)
(0.0725843 0.000688639 0.000612284)
(0.0752172 0.000419568 0.000211673)
(0.0644434 0.000357117 0.000197903)
(0.0717916 0.000554875 0.00056628)
(0.0745728 0.000367526 0.00012177)
(0.0642742 0.000105063 -8.32158e-05)
(0.0712939 0.000251805 0.000382955)
(0.0741774 0.000232833 -0.000114209)
(0.0654405 -0.000314854 -0.000426262)
(0.0714276 -0.000381456 2.50625e-05)
(0.0742571 -0.000165024 -0.000732864)
(0.069926 -0.0021105 -0.000678225)
(0.0730653 -0.00140279 -0.00272325)
(0.0993753 0.00118212 0.00107254)
(0.099473 0.00034975 0.000307057)
(0.0997475 0.000610978 0.000779872)
(0.0984949 0.00229604 0.00203188)
(0.0990504 0.00157676 0.00172045)
(0.0995971 0.00201829 0.00200284)
(0.0971415 0.00247641 0.00204854)
(0.0983579 0.002131 0.00216883)
(0.0992974 0.00246147 0.00210234)
(0.09544 0.00224684 0.00176729)
(0.0971936 0.00203559 0.00200235)
(0.0984886 0.00237439 0.00190248)
(0.0937517 0.0020202 0.00152236)
(0.0959059 0.00185526 0.00175432)
(0.0974229 0.00218074 0.00168855)
(0.0921398 0.00186367 0.00134455)
(0.094673 0.00173206 0.00154268)
(0.0963107 0.00198445 0.00150816)
(0.0906042 0.00175261 0.00121504)
(0.0934838 0.00165149 0.00138659)
(0.0952063 0.00180105 0.00134257)
(0.0891558 0.00165373 0.00111405)
(0.0923715 0.00157466 0.00126582)
(0.0941511 0.0016436 0.00120357)
(0.0878114 0.00154728 0.00103269)
(0.0913373 0.00147772 0.00117251)
(0.0931709 0.00150295 0.00109554)
(0.086573 0.00143527 0.00097232)
(0.0903514 0.00136471 0.00110441)
(0.0922697 0.00137192 0.00101356)
(0.0854262 0.00132534 0.000933706)
(0.0894264 0.0012492 0.00105945)
(0.0914481 0.00125238 0.000956872)
(0.0843563 0.00121929 0.000912416)
(0.0885556 0.0011337 0.00103273)
(0.0906984 0.00114508 0.0009202)
(0.0833532 0.00111242 0.000903145)
(0.0877268 0.00101784 0.00102046)
(0.0900111 0.00104616 0.0008973)
(0.082416 0.000996511 0.000900101)
(0.0869345 0.000896775 0.00101884)
(0.0893825 0.000948326 0.000882265)
(0.081554 0.000858552 0.000893135)
(0.0861779 0.000759652 0.00102278)
(0.0888153 0.000842423 0.000869438)
(0.0808036 0.000678847 0.000868176)
(0.0854653 0.000579179 0.00102212)
(0.0883222 0.000713625 0.000844902)
(0.0802203 0.000384773 0.000787149)
(0.0848211 0.000326274 0.00100711)
(0.0879277 0.000538792 0.000786781)
(0.0798571 -0.00015513 0.000606122)
(0.0842744 -7.59489e-05 0.000952455)
(0.0876582 0.000237704 0.000644774)
(0.0797821 -0.0013569 0.000204278)
(0.0838408 -0.000750756 0.000849791)
(0.0875152 -0.000288565 0.000388295)
(0.0830465 -0.00200993 0.000635682)
(0.0871718 -0.00145843 -0.000118025)
(0.0996493 0.000650242 0.000931412)
(0.0994625 0.00012935 0.000192485)
(0.0997993 0.000375104 0.000741361)
(0.0990855 0.00127875 0.00182768)
(0.0992625 0.000636764 0.0013706)
(0.099841 0.00115028 0.00181421)
(0.0984494 0.00154046 0.00210303)
(0.098913 0.00097318 0.00200355)
(0.0999049 0.00153629 0.00209012)
(0.097708 0.00154636 0.00198891)
(0.0982952 0.00104963 0.00205065)
(0.0997676 0.00163135 0.00202295)
(0.0969401 0.00147921 0.00177614)
(0.0976576 0.00100677 0.00189971)
(0.09951 0.001609 0.00189564)
(0.0962089 0.00142574 0.00158228)
(0.0970651 0.000958802 0.0016985)
(0.0992005 0.00154658 0.00175173)
(0.0955241 0.0013902 0.00143543)
(0.0965062 0.000930999 0.0015211)
(0.0988562 0.00147295 0.00162604)
(0.0948754 0.00134881 0.00132934)
(0.0959934 0.000912951 0.00137985)
(0.0985133 0.00139014 0.00151547)
(0.0942422 0.00128551 0.00125908)
(0.0955249 0.000895879 0.00127966)
(0.0981813 0.00129494 0.00142043)
(0.0936175 0.00119728 0.0012138)
(0.0950701 0.000858521 0.00121882)
(0.097837 0.00118684 0.00134453)
(0.0930047 0.00109196 0.00118508)
(0.0946143 0.000793174 0.00118756)
(0.0975032 0.00107462 0.00129226)
(0.0924023 0.000977324 0.00117049)
(0.0941565 0.000713078 0.00117659)
(0.0971829 0.000962838 0.00125895)
(0.0918066 0.000855063 0.0011684)
(0.0936908 0.000625072 0.00117921)
(0.0968724 0.000851138 0.00124086)
(0.0912139 0.000719856 0.00117641)
(0.0932064 0.000526023 0.00119427)
(0.0965694 0.000734298 0.00123655)
(0.0906193 0.000550646 0.00119091)
(0.0926953 0.000409669 0.00122447)
(0.0962731 0.000602195 0.00124418)
(0.0900207 0.000316705 0.00120827)
(0.0921458 0.000248958 0.00127212)
(0.0959815 0.000432454 0.00126084)
(0.0894184 -2.26282e-05 0.00123174)
(0.0915438 1.58706e-05 0.00134361)
(0.0956929 0.000202614 0.00128433)
(0.0887863 -0.000532991 0.0012748)
(0.0908607 -0.000330541 0.00145156)
(0.0954011 -0.000124944 0.00132093)
(0.0880512 -0.00133744 0.00136587)
(0.0900366 -0.00084938 0.0016004)
(0.0950735 -0.000596037 0.00139001)
(0.0890876 -0.0016399 0.00183112)
(0.0946999 -0.00127755 0.00155397)
(0.0996725 0.000153995 0.00062946)
(0.0993801 -1.84284e-08 5.89461e-05)
(0.0997132 0.000103894 0.000687944)
(0.0991591 0.000353151 0.00154423)
(0.0992677 -8.47781e-08 0.00120002)
(0.0998377 0.000341527 0.00162228)
(0.0986637 0.000457483 0.00194748)
(0.0989804 -1.86823e-07 0.00188848)
(0.099963 0.000485248 0.00199138)
(0.0982123 0.000480388 0.0019606)
(0.0984746 -3.27521e-07 0.00200651)
(0.0999919 0.00053924 0.00199664)
(0.0977764 0.000470829 0.00182476)
(0.0979954 -5.53495e-07 0.00191478)
(0.100009 0.000545713 0.00191108)
(0.0973628 0.000456784 0.00164113)
(0.0975704 -9.48246e-07 0.00173493)
(0.100008 0.000532294 0.00180438)
(0.0969945 0.00044342 0.00146819)
(0.09718 -1.63697e-06 0.00154765)
(0.0999814 0.000509424 0.00168307)
(0.0966737 0.000432136 0.00132984)
(0.0968291 -2.76931e-06 0.00138925)
(0.0999392 0.000481599 0.00157296)
(0.0963925 0.000420178 0.00123584)
(0.0965269 -4.66918e-06 0.00127137)
(0.0998986 0.000455338 0.00148213)
(0.096125 0.000399432 0.00118801)
(0.0962685 -7.81961e-06 0.00120199)
(0.0998652 0.000427448 0.00141999)
(0.0958432 0.000365354 0.00117542)
(0.0959876 -1.30532e-05 0.00117689)
(0.09981 0.000390803 0.00138255)
(0.0955334 0.000318583 0.00118283)
(0.0956826 -2.17207e-05 0.00117876)
(0.0997382 0.000345147 0.00135972)
(0.0951855 0.000258751 0.00120359)
(0.0953476 -3.61562e-05 0.00119531)
(0.0996473 0.00029201 0.00135319)
(0.0947878 0.000184429 0.00124215)
(0.0949629 -6.11235e-05 0.00122809)
(0.0995243 0.000228241 0.00136784)
(0.094327 8.56146e-05 0.00130772)
(0.0945122 -0.000102765 0.00128746)
(0.099363 0.000150501 0.00140697)
(0.0937762 -6.25481e-05 0.00141298)
(0.0939676 -0.000172033 0.00138328)
(0.0991548 4.58816e-05 0.0014776)
(0.0930972 -0.000294965 0.00157324)
(0.0932905 -0.000293259 0.00153823)
(0.0988797 -0.000107806 0.00159785)
(0.0922353 -0.000670488 0.00178883)
(0.0923959 -0.000493662 0.00177978)
(0.0985079 -0.000337908 0.00178435)
(0.0911543 -0.00127885 0.00206984)
(0.0911865 -0.000850709 0.00208087)
(0.0980015 -0.000690706 0.00202896)
(0.0897959 -0.00147105 0.00258545)
(0.0975473 -0.0012053 0.00234385)
(0.0996725 -0.000154094 0.000629504)
(0.0994625 -0.000129385 0.000192511)
(0.0997132 -0.000103936 0.000687948)
(0.0991591 -0.000353407 0.00154427)
(0.0992625 -0.000636895 0.00137062)
(0.0998376 -0.00034169 0.00162229)
(0.0986635 -0.000457958 0.00194751)
(0.0989128 -0.000973429 0.0020036)
(0.099963 -0.000485564 0.00199138)
(0.098212 -0.000481202 0.00196069)
(0.0982948 -0.00105005 0.00205075)
(0.0999917 -0.000539787 0.00199667)
(0.0977758 -0.000472231 0.00182495)
(0.0976569 -0.00100753 0.00189988)
(0.100009 -0.000546669 0.00191122)
(0.0973616 -0.00045922 0.00164145)
(0.0970636 -0.000960164 0.0016988)
(0.100007 -0.000533948 0.00180468)
(0.0969925 -0.000447589 0.00146871)
(0.0965036 -0.000933388 0.00152152)
(0.0999799 -0.000512227 0.00168352)
(0.0966701 -0.000439175 0.00133077)
(0.095989 -0.000916995 0.00138057)
(0.0999367 -0.000486285 0.0015737)
(0.0963864 -0.00043197 0.00123751)
(0.0955173 -0.000902727 0.00128111)
(0.0998945 -0.000463225 0.00148341)
(0.0961146 -0.000419077 0.00119087)
(0.0950571 -0.000869754 0.00122169)
(0.0998583 -0.000440725 0.00142214)
(0.0958255 -0.000397931 0.00118023)
(0.0945923 -0.000811474 0.00119269)
(0.0997984 -0.000412952 0.00138598)
(0.095503 -0.000372552 0.00119124)
(0.0941193 -0.000742778 0.00118585)
(0.0997189 -0.000381803 0.00136551)
(0.095133 -0.000349204 0.00121981)
(0.0936275 -0.000673945 0.00119532)
(0.0996139 -0.000351889 0.00136406)
(0.0946961 -0.000335817 0.0012734)
(0.093098 -0.000607816 0.0012233)
(0.0994665 -0.000327009 0.00138903)
(0.0941654 -0.000336715 0.00136302)
(0.0925102 -0.000543182 0.00127763)
(0.0992672 -0.000312086 0.00144548)
(0.0934959 -0.000358738 0.00150852)
(0.0918298 -0.000473704 0.00136866)
(0.0989939 -0.000307956 0.00154799)
(0.0926144 -0.000413021 0.00174478)
(0.0910066 -0.000404492 0.00152169)
(0.0986152 -0.000322579 0.00172561)
(0.0913951 -0.000527078 0.00207183)
(0.0899241 -0.000310889 0.0017759)
(0.0980652 -0.000361241 0.00201862)
(0.0896765 -0.000621039 0.00259648)
(0.0884683 -0.000209133 0.00209534)
(0.0972874 -0.000450184 0.00241822)
(0.0868081 -0.000219606 0.0031989)
(0.0964918 -0.000480227 0.0031902)
(0.0996493 -0.000650281 0.000931417)
(0.099473 -0.000349745 0.00030706)
(0.0997993 -0.000375113 0.000741361)
(0.0990854 -0.00127885 0.00182773)
(0.0990504 -0.00157675 0.00172048)
(0.0998409 -0.00115033 0.00181422)
(0.0984491 -0.00154064 0.00210314)
(0.0983577 -0.00213097 0.00216896)
(0.0999047 -0.00153638 0.00209019)
(0.0977073 -0.00154671 0.0019891)
(0.0971931 -0.00203556 0.00200256)
(0.0997671 -0.00163152 0.00202317)
(0.0969386 -0.00147991 0.00177643)
(0.0959048 -0.00185529 0.00175463)
(0.099509 -0.00160934 0.00189605)
(0.0962062 -0.00142699 0.00158267)
(0.094671 -0.00173219 0.00154315)
(0.0991986 -0.00154721 0.00175235)
(0.0955193 -0.00139227 0.00143603)
(0.0934803 -0.00165178 0.0013873)
(0.0988531 -0.00147405 0.00162695)
(0.0948672 -0.00135225 0.00133052)
(0.0923655 -0.00157504 0.00126701)
(0.0985079 -0.00139195 0.00151694)
(0.0942282 -0.0012911 0.00126161)
(0.0913271 -0.00147831 0.0011746)
(0.0981722 -0.00129791 0.00142287)
(0.0935939 -0.00120606 0.00121872)
(0.0903341 -0.00136552 0.00110825)
(0.0978217 -0.0011917 0.00134878)
(0.0929648 -0.00110568 0.00119429)
(0.0893975 -0.00125027 0.00106599)
(0.0974776 -0.0010823 0.00129966)
(0.0923352 -0.000999296 0.00118681)
(0.0885068 -0.00113499 0.00104451)
(0.0971399 -0.000974943 0.00127218)
(0.0916935 -0.000891062 0.00119633)
(0.0876453 -0.00101976 0.00104068)
(0.0968 -0.000869916 0.00126442)
(0.0910226 -0.000777345 0.00122582)
(0.0867977 -0.000900157 0.00105337)
(0.0964491 -0.000764198 0.00127855)
(0.0902955 -0.000647666 0.00128266)
(0.0859484 -0.000764235 0.0010842)
(0.0960745 -0.000650106 0.00131965)
(0.0894709 -0.000491846 0.00138246)
(0.0850786 -0.000592604 0.00113769)
(0.0956561 -0.000517824 0.00139961)
(0.0884753 -0.000275623 0.00155444)
(0.0841565 -0.000363341 0.00122528)
(0.0951613 -0.000357599 0.00154312)
(0.0871831 3.68989e-05 0.00180151)
(0.083108 4.07713e-06 0.0013706)
(0.0945225 -0.000128211 0.00178639)
(0.0854351 0.000187006 0.0026932)
(0.0818409 0.000563779 0.00159544)
(0.0936871 0.000181859 0.00212369)
(0.0803743 0.0012701 0.00243662)
(0.0929457 0.000238429 0.00329693)
(0.0993753 -0.00118208 0.00107258)
(0.0996871 -0.000439209 0.000345485)
(0.0997475 -0.000610955 0.000779891)
(0.0984948 -0.00229593 0.00203199)
(0.0978161 -0.00273268 0.00228232)
(0.0995971 -0.00201821 0.00200293)
(0.0971412 -0.00247622 0.00204876)
(0.095496 -0.00300151 0.00230321)
(0.0992972 -0.00246132 0.00210256)
(0.0954393 -0.00224653 0.00176762)
(0.0926191 -0.002299 0.00183894)
(0.0984882 -0.00237411 0.00190287)
(0.0937503 -0.0020197 0.00152284)
(0.0897673 -0.00189125 0.00153594)
(0.0974221 -0.00218027 0.00168913)
(0.0921372 -0.00186288 0.0013453)
(0.087232 -0.00165532 0.00129525)
(0.0963091 -0.00198368 0.00150899)
(0.0905997 -0.00175138 0.0012163)
(0.0850064 -0.00149003 0.00107824)
(0.0952036 -0.00179986 0.0013439)
(0.089148 -0.00165167 0.00111612)
(0.0830602 -0.00136817 0.000915198)
(0.0941464 -0.00164172 0.00120584)
(0.0877984 -0.00154383 0.00103609)
(0.0813233 -0.00127281 0.000804894)
(0.0931629 -0.00149975 0.00109926)
(0.0865512 -0.00142949 0.000977806)
(0.0797441 -0.0011844 0.000731979)
(0.0922563 -0.00136649 0.00101977)
(0.0853897 -0.0013158 0.000942917)
(0.0782936 -0.00109567 0.000689053)
(0.0914256 -0.00124354 0.000967286)
(0.0842955 -0.00120393 0.000928391)
(0.076949 -0.00100518 0.000667109)
(0.0906607 -0.00113048 0.000937983)
(0.0832525 -0.00108828 0.000930706)
(0.0756909 -0.000912231 0.000658549)
(0.0899494 -0.00102201 0.000927391)
(0.0822486 -0.000959076 0.000948284)
(0.0745052 -0.000812967 0.000661079)
(0.0892828 -0.000909359 0.000932835)
(0.0812739 -0.000802907 0.000982015)
(0.0733836 -0.00069652 0.000677307)
(0.0886538 -0.000782522 0.000956748)
(0.080323 -0.000598861 0.0010353)
(0.0723224 -0.000547489 0.00070757)
(0.0880589 -0.000626002 0.00100181)
(0.0793797 -0.000272267 0.00111328)
(0.0713305 -0.000332141 0.000747512)
(0.0874912 -0.000416268 0.00107545)
(0.0783785 0.000300543 0.00124935)
(0.0704541 8.86113e-05 0.000746461)
(0.0869294 -7.54422e-05 0.00119298)
(0.0771049 0.00134176 0.00146884)
(0.0698511 0.000925988 0.000674943)
(0.0863321 0.000470195 0.00141718)
(0.0686849 0.0033432 -0.0003361)
(0.0856993 0.00137421 0.00175528)
(0.0984572 -0.00247639 0.00172992)
(0.0973536 -0.00106246 -0.00148428)
(0.100049 -0.00105637 0.000750982)
(0.0958348 -0.00314793 0.00243273)
(0.0930872 -0.00326892 0.00253351)
(0.0982936 -0.00280912 0.00216153)
(0.0914501 -0.00223011 0.00186943)
(0.0848641 -0.00163571 0.00179242)
(0.096304 -0.00244245 0.00199792)
(0.0875953 -0.00167419 0.00150568)
(0.0786283 -0.00107328 0.00122153)
(0.093667 -0.00198036 0.0017272)
(0.0841479 -0.0014393 0.0012761)
(0.0740535 -0.000784907 0.000865417)
(0.0909049 -0.0017191 0.00149826)
(0.0811881 -0.00126413 0.00102959)
(0.0704432 -0.00064982 0.000669865)
(0.0884349 -0.00145356 0.00121267)
(0.0787016 -0.00110793 0.000795432)
(0.0674927 -0.000545435 0.000509682)
(0.0863056 -0.00118183 0.000910278)
(0.076557 -0.000988229 0.000627727)
(0.0650525 -0.000466595 0.000389398)
(0.0844817 -0.000980129 0.000693487)
(0.0746514 -0.000898484 0.000522541)
(0.0629687 -0.000411363 0.000311049)
(0.0828819 -0.000840259 0.000553358)
(0.0729236 -0.000819613 0.000460548)
(0.0611359 -0.000366244 0.000260288)
(0.0814508 -0.000736145 0.000463498)
(0.071337 -0.000739967 0.000426369)
(0.0594951 -0.000323605 0.000228929)
(0.0801561 -0.000647734 0.000405888)
(0.0698694 -0.000658427 0.000408137)
(0.0580129 -0.000281232 0.00021071)
(0.0789716 -0.000566939 0.000368893)
(0.0685039 -0.000576368 0.000400123)
(0.0566635 -0.000239429 0.000200194)
(0.0778792 -0.000494644 0.000347424)
(0.0672286 -0.000485822 0.000402891)
(0.0554262 -0.00019465 0.000195815)
(0.0768723 -0.000425984 0.000339544)
(0.0660396 -0.000368504 0.000416277)
(0.0542965 -0.000137024 0.000199095)
(0.0759499 -0.000344981 0.00034522)
(0.0649485 -0.000195583 0.000433381)
(0.0532789 -6.05565e-05 0.000209613)
(0.075116 -0.000237304 0.00036447)
(0.0640082 0.000103889 0.000410066)
(0.0524039 4.78888e-05 0.000228713)
(0.0743917 -7.03705e-05 0.000392662)
(0.0634256 0.000689886 0.0002691)
(0.0518091 0.000280604 0.000209397)
(0.0738348 0.000244992 0.000360127)
(0.0637864 0.0024898 -0.000769353)
(0.0520043 0.000730538 9.28514e-05)
(0.0735597 0.000929499 7.7354e-05)
(0.0510257 0.00374713 -0.00207087)
(0.0729761 0.00319228 -0.00175048)
(0.0993441 0.00341904 -0.003419)
(0.0973536 0.00148428 0.00106248)
(0.0834792 -0.00197581 0.00197591)
(0.0930872 -0.00253345 0.00326903)
(0.0745173 -0.0019586 0.00195881)
(0.0848642 -0.0017923 0.00163591)
(0.0685481 -0.00115887 0.00115926)
(0.0786284 -0.00122128 0.00107363)
(0.0642367 -0.000696623 0.000697281)
(0.0740536 -0.000865016 0.000785574)
(0.0607577 -0.000494138 0.000495383)
(0.0704435 -0.000669186 0.000650887)
(0.0579388 -0.000373636 0.000375878)
(0.0674933 -0.000508355 0.000547502)
(0.0556164 -0.000286033 0.000289729)
(0.0650535 -0.000387242 0.00047014)
(0.0536285 -0.000223836 0.000229883)
(0.0629704 -0.00030756 0.000417325)
(0.0518859 -0.000177952 0.000187995)
(0.0611389 -0.000254585 0.000376237)
(0.0503399 -0.000142558 0.000159144)
(0.0595004 -0.00021889 0.000340355)
(0.0489592 -0.000112873 0.000139209)
(0.0580223 -0.000194108 0.000308854)
(0.0477165 -8.44097e-05 0.000125671)
(0.0566795 -0.000176844 0.000284261)
(0.0465923 -5.17381e-05 0.00011837)
(0.0554524 -0.000163501 0.000268501)
(0.0455929 -1.44427e-05 0.000118684)
(0.0543396 -0.000146479 0.000259434)
(0.044734 2.99619e-05 0.000128613)
(0.0533518 -0.000125745 0.000257806)
(0.0440573 0.000130567 0.000134574)
(0.0525341 -9.11571e-05 0.000266229)
(0.0439242 0.000319386 0.000109018)
(0.0520555 4.16719e-05 0.00026241)
(0.0449927 0.00175993 -0.000954256)
(0.052506 0.000267436 0.000192984)
(0.0510897 0.00197053 -0.0012239)
(0.0984572 0.00172992 0.00247639)
(0.100049 0.000750982 0.00105637)
(0.0996871 0.000345486 0.00043921)
(0.0958348 0.00243274 0.00314793)
(0.0982936 0.00216153 0.00280912)
(0.0978161 0.00228232 0.00273268)
(0.0914501 0.00186943 0.00223011)
(0.096304 0.00199793 0.00244245)
(0.095496 0.00230322 0.00300151)
(0.0875953 0.00150568 0.00167418)
(0.093667 0.0017272 0.00198036)
(0.0926191 0.00183895 0.002299)
(0.0841479 0.0012761 0.0014393)
(0.0909049 0.00149826 0.00171909)
(0.0897673 0.00153594 0.00189124)
(0.0811881 0.00102959 0.00126412)
(0.0884349 0.00121268 0.00145355)
(0.087232 0.00129526 0.00165532)
(0.0787016 0.000795439 0.00110792)
(0.0863056 0.000910281 0.00118182)
(0.0850064 0.00107824 0.00149003)
(0.076557 0.000627735 0.00098822)
(0.0844817 0.000693491 0.000980118)
(0.0830602 0.000915207 0.00136817)
(0.0746514 0.000522549 0.000898472)
(0.0828819 0.000553363 0.000840246)
(0.0813233 0.000804904 0.0012728)
(0.0729236 0.000460558 0.0008196)
(0.0814508 0.000463503 0.00073613)
(0.0797441 0.000731991 0.00118439)
(0.071337 0.000426382 0.000739952)
(0.0801561 0.000405895 0.000647716)
(0.0782936 0.000689067 0.00109567)
(0.0698694 0.000408151 0.000658413)
(0.0789716 0.000368899 0.000566919)
(0.0769489 0.000667125 0.00100518)
(0.0685039 0.000400138 0.000576356)
(0.0778792 0.000347431 0.000494626)
(0.0756908 0.000658565 0.000912231)
(0.0672286 0.000402903 0.000485808)
(0.0768723 0.000339545 0.00042596)
(0.0745053 0.000661097 0.000812972)
(0.0660396 0.000416282 0.000368484)
(0.0759499 0.000345212 0.000344946)
(0.0733836 0.000677322 0.000696526)
(0.0649485 0.000433371 0.000195559)
(0.075116 0.000364454 0.000237263)
(0.0723224 0.000707568 0.000547489)
(0.0640082 0.000410023 -0.00010392)
(0.0743917 0.000392622 7.03152e-05)
(0.0713306 0.000747479 0.000332133)
(0.0634259 0.000268995 -0.000689929)
(0.0738349 0.000360025 -0.000245079)
(0.0704543 0.000746363 -8.86437e-05)
(0.0637871 -0.0007696 -0.00248986)
(0.07356 7.71465e-05 -0.000929637)
(0.0698516 0.000674726 -0.000926064)
(0.0729766 -0.00175097 -0.00319258)
(0.0686856 -0.000336463 -0.00334334)
(0.10008 0.00135179 0.00135172)
(0.100186 0.000798768 0.000804932)
(0.100186 0.000804963 0.000798735)
(0.100264 0.00221734 0.00221715)
(0.10019 0.00231187 0.00207139)
(0.10019 0.00207151 0.00231175)
(0.099383 0.00243584 0.00243548)
(0.100307 0.00263373 0.00245289)
(0.100307 0.00245319 0.0026335)
(0.0979843 0.00231042 0.00230982)
(0.0998052 0.00256046 0.00245566)
(0.0998051 0.00245616 0.00256005)
(0.0964954 0.00200659 0.00200558)
(0.0988631 0.00236459 0.00228054)
(0.0988628 0.00228131 0.00236392)
(0.0950734 0.00159775 0.00159607)
(0.0978415 0.00204944 0.00196757)
(0.0978409 0.00196877 0.00204827)
(0.0937766 0.00122754 0.00122476)
(0.0968625 0.00169189 0.00160388)
(0.0968616 0.00160579 0.00168999)
(0.09262 0.000964102 0.000959403)
(0.0959614 0.00140557 0.00132019)
(0.0959598 0.00132342 0.00140246)
(0.091598 0.000781307 0.000773304)
(0.0951512 0.00119323 0.00111645)
(0.0951486 0.00112193 0.0011879)
(0.0906951 0.00065165 0.000637678)
(0.0944313 0.00103462 0.000968338)
(0.0944267 0.000977595 0.00102555)
(0.0898917 0.000557197 0.000533799)
(0.0937974 0.000913557 0.00085799)
(0.0937898 0.000874046 0.000898213)
(0.0891687 0.000488817 0.00045275)
(0.0932363 0.000819448 0.000774741)
(0.0932237 0.000800996 0.000794468)
(0.0885176 0.000440465 0.000386047)
(0.0927374 0.000744795 0.000710519)
(0.0927174 0.000751242 0.000705551)
(0.0879413 0.0004049 0.000318349)
(0.0923019 0.000681853 0.000654597)
(0.0922713 0.000718237 0.000619968)
(0.0874475 0.000376369 0.000235914)
(0.091934 0.000622344 0.000593922)
(0.0918874 0.000698301 0.000523621)
(0.0870506 0.000348948 0.000118038)
(0.0916404 0.000557982 0.000517852)
(0.0915714 0.000688964 0.000404174)
(0.0867673 0.000295474 -8.29999e-05)
(0.0914286 0.000471531 0.000396749)
(0.0913309 0.000686125 0.000232765)
(0.0865315 0.00010181 -0.000481277)
(0.0912849 0.000325124 0.000184154)
(0.0911582 0.000666784 -3.40971e-05)
(0.0860103 -0.000516784 -0.00135044)
(0.0910743 2.9079e-05 -0.000212263)
(0.0909576 0.000548561 -0.000434818)
(0.0911154 -0.000471937 -0.000929676)
(0.0910337 0.000135484 -0.000978718)
(0.100171 0.00136869 0.00141636)
(0.100118 0.000577406 0.000811288)
(0.100102 0.000699772 0.000700655)
(0.100759 0.00219491 0.00214891)
(0.100478 0.00158284 0.00185869)
(0.100477 0.00182256 0.00186453)
(0.100996 0.00247697 0.00238766)
(0.101004 0.00205872 0.00224237)
(0.101024 0.00234682 0.00238271)
(0.100838 0.00247632 0.00238871)
(0.101293 0.00220343 0.0023518)
(0.101338 0.00250605 0.00254333)
(0.100458 0.00231174 0.00222427)
(0.101309 0.0021673 0.00232169)
(0.101409 0.00245075 0.00247179)
(0.0999684 0.00205681 0.00196744)
(0.101157 0.0020107 0.00217821)
(0.101302 0.00226496 0.00226976)
(0.0994449 0.00179067 0.00169872)
(0.100928 0.00179339 0.0019677)
(0.101099 0.00200953 0.00199757)
(0.0989361 0.00156324 0.00148159)
(0.100666 0.00158272 0.00176458)
(0.100856 0.0017707 0.00175607)
(0.0984691 0.00137773 0.00131828)
(0.100411 0.00139378 0.00158868)
(0.100609 0.00156972 0.00156121)
(0.0980554 0.00122453 0.00119598)
(0.100177 0.00122636 0.0014431)
(0.100383 0.00140313 0.00140567)
(0.0976962 0.00109719 0.00110602)
(0.0999733 0.00108362 0.00133632)
(0.10019 0.00126535 0.00128223)
(0.0973896 0.000989722 0.00103939)
(0.0998025 0.000962027 0.00126046)
(0.100033 0.00115158 0.00118427)
(0.0971351 0.000894685 0.000986207)
(0.0996637 0.000854583 0.00120587)
(0.0999149 0.00105651 0.00110372)
(0.0969339 0.000803204 0.000938569)
(0.0995573 0.00075193 0.00116509)
(0.0998366 0.000973546 0.001032)
(0.0967891 0.000704447 0.000886921)
(0.0994859 0.000642506 0.00113286)
(0.0998006 0.000895357 0.000961448)
(0.0967034 0.000581413 0.000812827)
(0.0994522 0.000515181 0.00110085)
(0.0998087 0.000812761 0.000880188)
(0.0966742 0.000409252 0.000690307)
(0.0994547 0.000351389 0.0010552)
(0.0998591 0.000710956 0.000770372)
(0.096658 0.000150227 0.000492275)
(0.0994828 0.000127796 0.000981934)
(0.0999388 0.000569535 0.000611634)
(0.0965386 -0.000258257 0.000219568)
(0.099487 -0.000183314 0.000874347)
(0.0999985 0.000356064 0.000392651)
(0.099634 -0.000613317 0.000776109)
(0.100228 4.64333e-05 0.000204535)
(0.100242 0.00082014 0.0012561)
(0.10009 0.000294309 0.000735341)
(0.100071 0.000415663 0.00060275)
(0.100828 0.00139049 0.00193926)
(0.100491 0.000791908 0.00168398)
(0.100493 0.00112438 0.00158691)
(0.101392 0.00166334 0.00218206)
(0.101086 0.00107758 0.00208332)
(0.101129 0.00154076 0.00209393)
(0.101816 0.00176087 0.00226082)
(0.101664 0.00120408 0.00217884)
(0.101768 0.00173257 0.00229389)
(0.102081 0.00175488 0.00226154)
(0.102121 0.00123928 0.00222173)
(0.102291 0.00178966 0.00236673)
(0.102216 0.0016673 0.00217612)
(0.102451 0.00120116 0.00220982)
(0.102712 0.00174345 0.00232118)
(0.102267 0.00153211 0.00204072)
(0.10268 0.00111715 0.00212596)
(0.103037 0.00162549 0.00220101)
(0.102278 0.00137927 0.00188433)
(0.102841 0.00101527 0.00200502)
(0.103288 0.00147824 0.002048)
(0.102276 0.00122516 0.00172928)
(0.102967 0.000913131 0.00186977)
(0.103494 0.0013255 0.00188809)
(0.102273 0.00108291 0.00160156)
(0.10307 0.00081588 0.00174383)
(0.103672 0.00118126 0.0017428)
(0.102275 0.000957927 0.00151098)
(0.103164 0.000725277 0.00164323)
(0.103835 0.00105392 0.00162805)
(0.102285 0.000845475 0.00144904)
(0.103257 0.000640127 0.00156679)
(0.103994 0.000942358 0.00153973)
(0.102306 0.000737108 0.00140871)
(0.10335 0.000557622 0.00151863)
(0.104153 0.000841064 0.00147281)
(0.10234 0.000621857 0.00138554)
(0.103439 0.000470755 0.00149755)
(0.104317 0.000742815 0.00142297)
(0.102388 0.000488479 0.00137585)
(0.103526 0.000370083 0.00149645)
(0.10449 0.000639397 0.00138587)
(0.102451 0.00032368 0.00137641)
(0.103612 0.000246604 0.00151563)
(0.104674 0.000522836 0.00135774)
(0.102522 0.000109206 0.00138618)
(0.103691 8.49161e-05 0.00156232)
(0.104868 0.000381695 0.00133622)
(0.102592 -0.000170271 0.0014125)
(0.103758 -0.00012874 0.0016435)
(0.105071 0.000202744 0.00132238)
(0.102644 -0.000497891 0.00149495)
(0.103806 -0.000412978 0.00176261)
(0.105278 -2.06013e-05 0.00132457)
(0.103999 -0.000731835 0.00193866)
(0.105584 -0.000262016 0.00139466)
(0.100243 0.000267364 0.00116239)
(0.100087 -3.00711e-08 0.000707014)
(0.100064 0.00013579 0.000537316)
(0.100782 0.000465643 0.0018262)
(0.100477 -8.56742e-08 0.00161778)
(0.100463 0.000370834 0.0014241)
(0.101401 0.000575356 0.00207614)
(0.101066 -1.47939e-07 0.00203464)
(0.101089 0.000525075 0.00193352)
(0.101987 0.000622599 0.00213399)
(0.101694 -2.64063e-07 0.00211768)
(0.101797 0.000605719 0.00212855)
(0.102507 0.00063057 0.00216528)
(0.102269 -4.75175e-07 0.00215046)
(0.102489 0.000639022 0.002211)
(0.102934 0.000609394 0.00215755)
(0.102742 -8.1307e-07 0.00218044)
(0.103119 0.000633679 0.00224175)
(0.103277 0.000569726 0.00209034)
(0.103123 -1.33002e-06 0.00213524)
(0.103687 0.000600095 0.00219718)
(0.103554 0.000522746 0.00199189)
(0.103426 -2.16895e-06 0.00204633)
(0.104185 0.00055349 0.00210683)
(0.103787 0.000475999 0.00188645)
(0.103677 -3.61334e-06 0.00193883)