/*--------------------------------*- C++ -*----------------------------------*\
| =========                 |                                                 |
| \\      /  F ield         | OpenFOAM: The Open Source CFD Toolbox           |
|  \\    /   O peration     | Version:  2212                                  |
|   \\  /    A nd           | Website:  www.openfoam.com                      |
|    \\/     M anipulation  |                                                 |
\*---------------------------------------------------------------------------*/
FoamFile
{
    version     2.0;
    format      ascii;
    arch        "LSB;label=32;scalar=64";
    class       volVectorField;
    location    "1.45";
    object      U;
}
// * * * * * * * * * * * * * * * * * * * * * * * * * * * * * * * * * * * * * //

dimensions      [0 1 -1 0 0 0 0];

internalField   nonuniform List<vector> 
689
(
(0.0315794 0.000126654 0.000109472)
(0.0310305 5.36976e-05 7.54441e-05)
(0.0305454 7.46773e-06 5.02818e-05)
(0.0300819 -1.8915e-05 3.63096e-05)
(0.0296345 -2.8631e-05 3.05564e-05)
(0.0292212 -3.32479e-05 3.00715e-05)
(0.0288224 -3.50982e-05 3.15657e-05)
(0.02845 -3.37125e-05 3.28636e-05)
(0.049955 0.000219777 5.99358e-05)
(0.0495638 6.17587e-05 5.26919e-05)
(0.0491462 -4.33764e-05 4.91696e-05)
(0.048676 -0.000113553 5.71802e-05)
(0.0481691 -0.000161315 7.12504e-05)
(0.0476739 -0.000192089 8.48313e-05)
(0.0471676 -0.00021269 9.67886e-05)
(0.0466792 -0.000225512 0.000107432)
(0.0672451 -8.70169e-05 0.000263334)
(0.066925 -0.000265493 0.000242898)
(0.0665868 -0.000410063 0.000239323)
(0.0662209 -0.000520025 0.000236961)
(0.0658133 -0.000607064 0.000243022)
(0.0653672 -0.000671567 0.000246239)
(0.0648926 -0.000715756 0.000241752)
(0.0643845 -0.000744866 0.000233865)
(0.0638711 -0.000770262 0.000235005)
(0.0791355 -0.000514094 0.000274812)
(0.0789214 -0.000600845 0.000141732)
(0.0787906 -0.000613399 4.89188e-06)
(0.078612 -0.000628231 -9.38892e-05)
(0.0783621 -0.000686877 -0.000126176)
(0.0780748 -0.000768491 -0.000115558)
(0.0777304 -0.00085285 -8.61443e-05)
(0.0773243 -0.000929151 -5.33976e-05)
(0.0768611 -0.000993224 -2.46036e-05)
(0.0763472 -0.00104472 2.33104e-07)
(0.0757835 -0.00108224 2.13407e-05)
(0.0751761 -0.00111096 4.4575e-05)
(0.0872572 -0.00122552 -0.000167317)
(0.0866922 -0.00123956 -0.00033939)
(0.0862824 -0.00121556 -0.000428547)
(0.0858499 -0.00122218 -0.000467536)
(0.0853853 -0.00125667 -0.000454281)
(0.0848909 -0.0012991 -0.000401651)
(0.0843637 -0.00133754 -0.000330325)
(0.0837967 -0.00136989 -0.000256156)
(0.0831795 -0.00139712 -0.000187734)
(0.0825198 -0.00141816 -0.000127324)
(0.0818226 -0.00143119 -7.42598e-05)
(0.0810916 -0.00143689 -2.51534e-05)
(0.0912084 -0.00152853 -0.000457042)
(0.0905363 -0.0016508 -0.000658341)
(0.0899113 -0.00173838 -0.000765196)
(0.0891884 -0.0017946 -0.000771847)
(0.088398 -0.00182002 -0.000712902)
(0.0875581 -0.00182167 -0.000627094)
(0.0866834 -0.00180866 -0.000539113)
(0.0857795 -0.00179051 -0.000452253)
(0.0848507 -0.00177014 -0.000365976)
(0.0839019 -0.00174646 -0.000282389)
(0.0829437 -0.0017179 -0.000206841)
(0.0819855 -0.00168309 -0.000135982)
(0.0911617 -0.001718 -0.000922708)
(0.0903166 -0.00204649 -0.00113164)
(0.0893981 -0.00222672 -0.00113136)
(0.0882755 -0.00226915 -0.00102909)
(0.0870226 -0.00224376 -0.000899202)
(0.0857089 -0.00218961 -0.000761651)
(0.0843736 -0.00212191 -0.000619689)
(0.0830445 -0.00204568 -0.000483469)
(0.0817377 -0.00196314 -0.000360457)
(0.0804765 -0.00187789 -0.000249024)
(0.079271 -0.00179205 -0.000156278)
(0.0781253 -0.00170678 -8.656e-05)
(0.0868628 -0.00190418 -0.00133841)
(0.0855305 -0.00251656 -0.00142274)
(0.0839853 -0.00261685 -0.00125641)
(0.0821547 -0.00254361 -0.0010172)
(0.0802298 -0.00241773 -0.000768822)
(0.0783548 -0.00226217 -0.000538458)
(0.0765874 -0.00209732 -0.000357891)
(0.074955 -0.00193399 -0.000226481)
(0.0734648 -0.00177833 -0.000139129)
(0.0721172 -0.00163688 -7.81078e-05)
(0.0709013 -0.00150783 -4.0587e-05)
(0.0697982 -0.00139433 -2.12086e-05)
(0.0771864 -0.00214602 -0.00142106)
(0.0747704 -0.00283344 -0.00138134)
(0.0721659 -0.00266548 -0.00101406)
(0.0694723 -0.00239117 -0.000602109)
(0.0670564 -0.00209867 -0.000360146)
(0.0650447 -0.00181338 -0.000218789)
(0.0634091 -0.00155461 -0.000136462)
(0.0620676 -0.00133489 -0.00010502)
(0.060944 -0.0011467 -0.000101059)
(0.0599716 -0.00100203 -0.000102766)
(0.0591075 -0.000894375 -0.000105337)
(0.0600065 -0.00168355 -0.000607108)
(0.0565539 -0.00228915 -0.000792173)
(0.0536411 -0.00197087 -0.000475914)
(0.0511307 -0.00145492 -0.000214356)
(0.0493403 -0.000935641 -4.64432e-05)
(0.0481537 -0.000650056 -1.22706e-05)
(0.0472558 -0.000504124 -2.99704e-05)
(0.0464823 -0.000414311 -5.45773e-05)
(0.0457778 -0.000340271 -6.54208e-05)
(0.0451585 -0.000279565 -6.41215e-05)
(0.0445856 -0.000230487 -5.94029e-05)
(0.0391496 -0.00135828 -0.000251217)
(0.035508 -0.000804129 0.000210081)
(0.0337222 -0.000277635 0.00032159)
(0.0324134 -0.000145913 0.000227497)
(0.0315902 -0.000109695 0.00012744)
(0.0310486 -7.47179e-05 5.43289e-05)
(0.030567 -4.97387e-05 7.1803e-06)
(0.0301033 -3.61149e-05 -1.94157e-05)
(0.0296515 -3.06734e-05 -2.90874e-05)
(0.029233 -3.05514e-05 -3.35404e-05)
(0.0288333 -3.21214e-05 -3.47617e-05)
(0.0493116 -5.12557e-05 0.00093737)
(0.0481251 -1.3894e-05 0.000649761)
(0.0472294 -2.84983e-05 0.00050229)
(0.046458 -5.26044e-05 0.0004125)
(0.0457591 -6.36909e-05 0.000339379)
(0.0451458 -6.30089e-05 0.000279103)
(0.0445737 -5.92235e-05 0.000230619)
(0.0440523 -5.56241e-05 0.000193619)
(0.0781067 0.000306147 0.000793515)
(0.0776745 0.000257119 0.000591238)
(0.0773134 0.00019746 0.00043847)
(0.0769911 0.000140745 0.00032205)
(0.0766939 8.38574e-05 0.000255534)
(0.0763876 2.84671e-05 0.000223425)
(0.0760611 -1.92105e-05 0.000203215)
(0.0757335 -4.66956e-05 0.000179157)
(0.0914114 -0.000112522 0.000818265)
(0.0915301 -0.000162963 0.000679562)
(0.0916406 -0.000227716 0.000573994)
(0.0917473 -0.000297146 0.000495627)
(0.0918497 -0.000364846 0.000438339)
(0.0919465 -0.000429127 0.000396152)
(0.0920276 -0.000485385 0.000362434)
(0.0920963 -0.000539753 0.0003429)
(0.0921372 -0.000575599 0.000318484)
(0.0981242 -0.000539777 0.000491119)
(0.0983714 -0.000660651 0.000436157)
(0.0986124 -0.000710989 0.00033875)
(0.0988611 -0.000729212 0.000239422)
(0.099092 -0.00076338 0.000161949)
(0.0993064 -0.000799854 9.77968e-05)
(0.0995201 -0.000835327 4.57312e-05)
(0.0997292 -0.000878944 1.25272e-05)
(0.0999248 -0.00092623 -3.93731e-06)
(0.100104 -0.000972745 -7.21433e-06)
(0.100263 -0.00101555 -1.70154e-06)
(0.100396 -0.00105334 8.42351e-06)
(0.102957 -0.00127404 8.36588e-05)
(0.103156 -0.00133893 -5.98791e-05)
(0.103329 -0.00134816 -0.000162492)
(0.103516 -0.00134663 -0.000242616)
(0.103698 -0.00135659 -0.000298345)
(0.103868 -0.00137849 -0.000325175)
(0.104027 -0.00140862 -0.000327561)
(0.104171 -0.0014325 -0.000316473)
(0.104302 -0.00144937 -0.000294094)
(0.104415 -0.00146735 -0.00025861)
(0.104508 -0.00148465 -0.000214162)
(0.10458 -0.00149944 -0.000165694)
(0.104925 -0.00168213 -0.000236636)
(0.105126 -0.00179038 -0.000343344)
(0.105297 -0.00184392 -0.000449121)
(0.105447 -0.00187588 -0.000528113)
(0.105569 -0.00189905 -0.00056575)
(0.105655 -0.00192248 -0.000560455)
(0.105701 -0.00193986 -0.00052542)
(0.105709 -0.00193823 -0.000479812)
(0.105689 -0.00191631 -0.000424158)
(0.105648 -0.00188604 -0.00035563)
(0.10559 -0.00185393 -0.000283792)
(0.10552 -0.00181966 -0.000212249)
(0.10406 -0.00182095 -0.000558979)
(0.104317 -0.0020702 -0.000625859)
(0.104499 -0.00222047 -0.000682492)
(0.104608 -0.00228623 -0.000690103)
(0.104625 -0.00230776 -0.000649578)
(0.104554 -0.00229916 -0.000576874)
(0.10442 -0.00226333 -0.000484568)
(0.104238 -0.00219884 -0.000383306)
(0.104032 -0.00211089 -0.000288284)
(0.103817 -0.0020236 -0.000199315)
(0.103603 -0.00193986 -0.000121217)
(0.103398 -0.00185865 -5.39535e-05)
(0.100214 -0.00182067 -0.000711427)
(0.100525 -0.00227493 -0.000758221)
(0.100659 -0.00247679 -0.00069365)
(0.100631 -0.00248514 -0.000564053)
(0.100446 -0.00242776 -0.000417603)
(0.100152 -0.00231733 -0.000274896)
(0.0998161 -0.00216028 -0.000147988)
(0.0994789 -0.0019943 -4.95355e-05)
(0.0991569 -0.00184913 2.07672e-05)
(0.0988608 -0.00171172 7.07102e-05)
(0.0985938 -0.00159018 9.50977e-05)
(0.0983619 -0.0014823 0.000108181)
(0.0925983 -0.00175041 -0.000707875)
(0.0929875 -0.00238078 -0.000713538)
(0.0929985 -0.00244421 -0.00044858)
(0.09271 -0.00223625 -0.000180764)
(0.0922849 -0.00197964 3.56895e-06)
(0.0918584 -0.00170112 0.000110518)
(0.0914658 -0.00145808 0.000155223)
(0.0911197 -0.00125744 0.000153072)
(0.0908287 -0.00110289 0.000133774)
(0.0905791 -0.0009861 0.000103677)
(0.0903617 -0.000894225 6.72196e-05)
(0.0792337 -0.00151194 -0.000145047)
(0.0794687 -0.00198393 -0.000153988)
(0.079239 -0.00158222 0.00014784)
(0.0786591 -0.00111764 0.000299585)
(0.0781044 -0.000806588 0.000297404)
(0.077668 -0.000590367 0.000257366)
(0.0773092 -0.0004353 0.000198494)
(0.0769893 -0.000319278 0.000141438)
(0.0766936 -0.000252969 8.46552e-05)
(0.0763885 -0.000222325 2.93056e-05)
(0.0760608 -0.000200496 -1.66321e-05)
(0.0520407 -0.00123258 0.000438979)
(0.0514496 -0.0011509 0.000422222)
(0.0510431 -0.000420409 0.000502146)
(0.0504491 -7.43855e-05 0.000401944)
(0.0499891 -5.33712e-05 0.000225169)
(0.0495991 -4.91719e-05 6.40232e-05)
(0.049179 -4.88359e-05 -4.39909e-05)
(0.0487052 -5.89318e-05 -0.000115454)
(0.0481915 -7.41179e-05 -0.000163111)
(0.0476902 -8.76369e-05 -0.000192967)
(0.0471826 -9.97947e-05 -0.000212626)
(0.0694665 -0.000613139 0.0024026)
(0.0670433 -0.000373047 0.00211199)
(0.0650294 -0.000224437 0.00181881)
(0.0633928 -0.000135067 0.00155363)
(0.0620526 -0.000100337 0.00133017)
(0.0609324 -9.55531e-05 0.00114077)
(0.0599649 -9.78746e-05 0.000996695)
(0.0591022 -0.000101234 0.000889887)
(0.0583217 -0.000112118 0.000818643)
(0.0927131 -0.000177393 0.00223062)
(0.0922994 4.57643e-06 0.001979)
(0.0918753 0.000110526 0.00170255)
(0.0914824 0.000156083 0.0014587)
(0.0911356 0.000154139 0.00125753)
(0.0908429 0.000134509 0.00110324)
(0.0905911 0.00010448 0.000985733)
(0.0903734 6.6301e-05 0.000897122)
(0.0901795 2.96862e-05 0.000822929)
(0.101624 -0.000251454 0.001588)
(0.101901 -0.000205163 0.00150969)
(0.102136 -0.000188101 0.00140642)
(0.102349 -0.000195389 0.00129311)
(0.102552 -0.000219888 0.00118791)
(0.102757 -0.000254067 0.00109393)
(0.102965 -0.000295298 0.00101414)
(0.103182 -0.000340327 0.000948385)
(0.103401 -0.000383007 0.000890255)
(0.105868 -0.000712378 0.000831386)
(0.106173 -0.000689861 0.000845832)
(0.106522 -0.000683026 0.000856416)
(0.106932 -0.000672666 0.00083535)
(0.107349 -0.000667944 0.000790663)
(0.10775 -0.000672766 0.000733417)
(0.10814 -0.000686764 0.00067225)
(0.108522 -0.000710023 0.000614487)
(0.108897 -0.000740621 0.000564826)
(0.109266 -0.000775257 0.000524231)
(0.10963 -0.000811429 0.000492236)
(0.109986 -0.000846422 0.000466201)
(0.109009 -0.00115053 0.000363033)
(0.109404 -0.00119371 0.000305984)
(0.109781 -0.00121182 0.000265583)
(0.110192 -0.00121474 0.000231918)
(0.110614 -0.00121818 0.000200254)
(0.111031 -0.00122609 0.000171577)
(0.111441 -0.00123786 0.000147428)
(0.111843 -0.00125155 0.000130111)
(0.112237 -0.00126557 0.000121296)
(0.112619 -0.00127957 0.000120579)
(0.11299 -0.0012932 0.00012632)
(0.11335 -0.00130555 0.000136727)
(0.110276 -0.00147091 -3.90698e-05)
(0.110685 -0.00156364 -8.80742e-05)
(0.111061 -0.00162298 -0.000130195)
(0.11146 -0.00166163 -0.000163119)
(0.111863 -0.00168885 -0.000183621)
(0.112255 -0.00170823 -0.000190606)
(0.112633 -0.00171909 -0.000185259)
(0.112996 -0.00171971 -0.000170349)
(0.113341 -0.0017104 -0.000148044)
(0.11367 -0.00169346 -0.000120458)
(0.113983 -0.00167177 -8.84806e-05)
(0.114284 -0.00164722 -5.39784e-05)
(0.109566 -0.00160145 -0.000359742)
(0.109911 -0.00174191 -0.000365916)
(0.110258 -0.00186092 -0.000379499)
(0.110636 -0.00194075 -0.000380574)
(0.111008 -0.00198417 -0.000362663)
(0.111352 -0.00199592 -0.000326976)
(0.111668 -0.00198418 -0.000284283)
(0.111961 -0.001949 -0.000238884)
(0.112232 -0.00189877 -0.000194173)
(0.112487 -0.00183929 -0.000152629)
(0.112732 -0.00177714 -0.00011497)
(0.112972 -0.00171443 -8.08806e-05)
(0.10653 -0.00152471 -0.000488764)
(0.106825 -0.00172893 -0.000451015)
(0.107146 -0.00188561 -0.000420174)
(0.107503 -0.0019585 -0.00037318)
(0.107833 -0.00196848 -0.000315012)
(0.108119 -0.00193115 -0.000253916)
(0.108369 -0.00186017 -0.000197998)
(0.108596 -0.00177103 -0.000163096)
(0.108815 -0.00167559 -0.000134285)
(0.109029 -0.00158235 -0.000118675)
(0.109244 -0.00149575 -0.000113514)
(0.109466 -0.00141515 -0.000114847)
(0.100721 -0.00124537 -0.000432427)
(0.101015 -0.00150721 -0.000389886)
(0.101309 -0.00161042 -0.000321033)
(0.101618 -0.00159281 -0.000255191)
(0.101892 -0.00151387 -0.000207815)
(0.102124 -0.00140832 -0.000188949)
(0.102335 -0.00129349 -0.000195159)
(0.102537 -0.00118746 -0.000219329)
(0.102742 -0.0010932 -0.000253452)
(0.102951 -0.00101333 -0.000294677)
(0.103169 -0.000946995 -0.000339457)
(0.0907279 -0.000808859 0.000120412)
(0.091023 -0.00104362 -2.0256e-05)
(0.0912629 -0.000979187 -8.57961e-05)
(0.0914119 -0.000820949 -0.000114396)
(0.0915218 -0.000678226 -0.000159743)
(0.0916308 -0.000572202 -0.000223885)
(0.0917374 -0.000494865 -0.000294725)
(0.0918405 -0.000438658 -0.000363909)
(0.0919387 -0.000397599 -0.000429451)
(0.0920206 -0.000362484 -0.000484522)
(0.0920908 -0.000344496 -0.000540336)
(0.0672304 -0.0007802 0.000488903)
(0.0674376 -0.000732119 0.000236409)
(0.0674712 -0.000405604 8.50914e-05)
(0.0672591 -0.000252482 -7.77478e-05)
(0.0669429 -0.000229621 -0.000255187)
(0.0666052 -0.000234073 -0.000405368)
(0.0662393 -0.000239214 -0.000520461)
(0.0658302 -0.000248702 -0.000609864)
(0.0653811 -0.000252605 -0.000674824)
(0.0649052 -0.00024754 -0.000718519)
(0.0643923 -0.000238242 -0.000745849)
(0.0821588 -0.00102249 0.00255093)
(0.0802343 -0.000775203 0.00242572)
(0.0783594 -0.000541792 0.00226695)
(0.0765909 -0.000357628 0.00209863)
(0.074958 -0.000223882 0.00193274)
(0.0734678 -0.0001355 0.00177552)
(0.0721213 -7.43874e-05 0.00163339)
(0.0709063 -3.69768e-05 0.00150389)
(0.0698062 -1.91185e-05 0.00139147)
(0.100633 -0.000562808 0.00248826)
(0.10045 -0.000415519 0.00243093)
(0.100158 -0.000272728 0.00231878)
(0.0998238 -0.000146045 0.00215931)
(0.0994875 -4.79188e-05 0.00199219)
(0.0991656 2.20136e-05 0.00184686)
(0.0988691 7.16401e-05 0.00170918)
(0.0986022 9.54519e-05 0.00158848)
(0.0983689 0.000108378 0.00148108)
(0.107507 -0.000369145 0.00195687)
(0.107838 -0.000311278 0.00196734)
(0.108125 -0.000251375 0.00193057)
(0.108377 -0.000196598 0.00185971)
(0.108605 -0.000162638 0.00177047)
(0.108824 -0.000134301 0.00167509)
(0.109037 -0.000118965 0.00158183)
(0.109253 -0.000113891 0.0014955)
(0.109474 -0.00011467 0.00141463)
(0.110248 -0.000591336 0.00109263)
(0.110627 -0.000554042 0.00114342)
(0.111021 -0.000533277 0.00119049)
(0.111476 -0.00051481 0.00121404)
(0.111951 -0.000495011 0.00121264)
(0.112418 -0.000475453 0.00119031)
(0.112873 -0.000458399 0.00115081)
(0.113315 -0.000446724 0.00110124)
(0.113745 -0.000441373 0.00104727)
(0.114167 -0.000441938 0.000993474)
(0.11458 -0.000447227 0.000942478)
(0.114988 -0.000455807 0.000894894)
(0.112368 -0.000832718 0.000562259)
(0.112852 -0.000845328 0.000565041)
(0.113315 -0.000850123 0.000562925)
(0.113818 -0.000846509 0.000556604)
(0.114338 -0.000839541 0.000545771)
(0.114857 -0.000832065 0.00053087)
(0.115369 -0.00082519 0.000512631)
(0.115875 -0.000819276 0.0004926)
(0.116372 -0.000814685 0.000472616)
(0.116859 -0.000811941 0.000454096)
(0.117336 -0.000811117 0.000437799)
(0.117803 -0.000811672 0.000423854)
(0.113164 -0.00105065 7.56064e-05)
(0.113673 -0.00110019 6.61123e-05)
(0.114151 -0.00113 5.61943e-05)
(0.114663 -0.00114488 4.7352e-05)
(0.115188 -0.00115246 4.04822e-05)
(0.11571 -0.00115472 3.61196e-05)
(0.116226 -0.00115211 3.43433e-05)
(0.116735 -0.0011445 3.49531e-05)
(0.117233 -0.00113215 3.7589e-05)
(0.11772 -0.00111645 4.1991e-05)
(0.118194 -0.00109885 4.80192e-05)
(0.118658 -0.00108011 5.5175e-05)
(0.112533 -0.00115889 -0.000327937)
(0.113001 -0.00122477 -0.000321711)
(0.113448 -0.00127281 -0.000317141)
(0.113937 -0.00130315 -0.000310973)
(0.114442 -0.00131783 -0.000301019)
(0.114944 -0.00131845 -0.000287237)
(0.115437 -0.00130616 -0.000270951)
(0.11592 -0.00128269 -0.000253994)
(0.11639 -0.00125048 -0.000238016)
(0.116847 -0.00121277 -0.000223992)
(0.117292 -0.00117286 -0.000212237)
(0.117728 -0.00113267 -0.000202707)
(0.110246 -0.001093 -0.000591525)
(0.110625 -0.00114382 -0.000554534)
(0.111017 -0.00119184 -0.000534529)
(0.111472 -0.00121645 -0.000516678)
(0.111947 -0.00121502 -0.000496768)
(0.112413 -0.00119207 -0.000476629)
(0.112867 -0.001152 -0.000458986)
(0.113308 -0.00110204 -0.000446848)
(0.113739 -0.00104778 -0.000441263)
(0.11416 -0.000993809 -0.000441724)
(0.114574 -0.000942689 -0.000447022)
(0.114982 -0.000895237 -0.000455751)
(0.105866 -0.000831515 -0.000712204)
(0.10617 -0.000846475 -0.000690059)
(0.106517 -0.000858492 -0.000683144)
(0.106926 -0.000839279 -0.000672508)
(0.107343 -0.000794472 -0.0006673)
(0.107743 -0.000735832 -0.000671764)
(0.108131 -0.000673464 -0.000685801)
(0.108512 -0.000615013 -0.000709352)
(0.108887 -0.000564994 -0.000740287)
(0.109256 -0.000524205 -0.00077514)
(0.10962 -0.000492169 -0.000811441)
(0.0981247 -0.000491675 -0.000540465)
(0.0983712 -0.000435601 -0.000659522)
(0.0986118 -0.000337716 -0.000708108)
(0.0988583 -0.000239443 -0.000724978)
(0.0990878 -0.000162943 -0.000758858)
(0.0993014 -9.85811e-05 -0.000795977)
(0.0995147 -4.67312e-05 -0.000833115)
(0.0997238 -1.40072e-05 -0.000878348)
(0.09992 2.1963e-06 -0.000926592)
(0.100099 5.65013e-06 -0.000973193)
(0.100259 8.17734e-08 -0.0010162)
(0.0791414 -0.000274595 -0.000512322)
(0.0789293 -0.000140068 -0.000598354)
(0.0788001 -7.10742e-07 -0.00060989)
(0.0786222 0.000100142 -0.000623592)
(0.0783725 0.000130444 -0.000683094)
(0.0780843 0.00011574 -0.000766793)
(0.0777396 8.32347e-05 -0.000852934)
(0.0773339 4.91971e-05 -0.000930116)
(0.0768709 2.03938e-05 -0.000994359)
(0.076357 -4.14931e-06 -0.00104584)
(0.0757926 -2.38211e-05 -0.00108195)
(0.0882811 -0.00102971 0.00226936)
(0.0870301 -0.000900034 0.00224478)
(0.0857187 -0.000762053 0.0021905)
(0.084384 -0.000619165 0.00212235)
(0.083055 -0.000482181 0.00204553)
(0.0817481 -0.000358503 0.00196239)
(0.0804872 -0.00024638 0.00187668)
(0.0792819 -0.000153731 0.00179041)
(0.0781368 -8.45549e-05 0.00170502)
(0.104608 -0.000689236 0.00229056)
(0.104624 -0.000647754 0.00231021)
(0.104553 -0.000574794 0.0022997)
(0.10442 -0.000482432 0.00226246)
(0.104238 -0.00038128 0.0021967)
(0.104033 -0.000286512 0.00210853)
(0.103818 -0.000197836 0.00202116)
(0.103605 -0.000120166 0.00193746)
(0.1034 -5.30895e-05 0.00185626)
(0.110638 -0.000378159 0.00194083)
(0.111011 -0.000360044 0.00198446)
(0.111355 -0.00032476 0.00199599)
(0.11167 -0.000282638 0.00198384)
(0.111963 -0.0002377 0.00194807)
(0.112234 -0.000193381 0.00189746)
(0.112489 -0.000152198 0.00183782)
(0.112734 -0.000114825 0.00177566)
(0.112974 -8.07071e-05 0.00171287)
(0.112534 -0.000327354 0.00115824)
(0.113003 -0.000320821 0.00122421)
(0.113449 -0.000315758 0.00127219)
(0.113938 -0.000309184 0.00130244)
(0.114444 -0.00029925 0.00131716)
(0.114946 -0.000285794 0.00131784)
(0.115439 -0.000269906 0.00130555)
(0.115922 -0.000253316 0.00128201)
(0.116392 -0.000237649 0.00124972)
(0.116849 -0.000223878 0.00121196)
(0.117295 -0.000212318 0.00117203)
(0.11773 -0.000202892 0.00113179)
(0.114168 -0.00041772 0.000606865)
(0.114711 -0.000425836 0.000635097)
(0.115226 -0.000429126 0.000651243)
(0.115781 -0.000427071 0.000658159)
(0.11635 -0.000422288 0.00065963)
(0.116917 -0.00041556 0.000656096)
(0.117479 -0.000407929 0.000648372)
(0.118034 -0.000400196 0.000637194)
(0.118582 -0.00039281 0.00062325)
(0.119119 -0.00038576 0.000606946)
(0.119645 -0.000379108 0.000589035)
(0.120161 -0.000373485 0.000571049)
(0.114716 -0.000544645 7.23234e-05)
(0.115284 -0.000564211 7.48496e-05)
(0.115821 -0.000575813 7.52908e-05)
(0.116394 -0.00057813 7.47782e-05)
(0.116983 -0.000576467 7.4099e-05)
(0.117567 -0.000575139 7.37746e-05)
(0.118145 -0.000572175 7.34679e-05)
(0.118718 -0.000566481 7.29127e-05)
(0.119283 -0.000558737 7.20987e-05)
(0.119838 -0.00054969 7.10775e-05)
(0.120383 -0.000539943 6.99368e-05)
(0.120917 -0.000529886 6.87658e-05)
(0.114168 -0.000607643 -0.000418309)
(0.114711 -0.000636027 -0.000426667)
(0.115226 -0.0006522 -0.000430121)
(0.11578 -0.000659102 -0.000428185)
(0.116349 -0.000660485 -0.000423396)
(0.116916 -0.000656821 -0.000416535)
(0.117478 -0.000649003 -0.000408708)
(0.118033 -0.000637779 -0.000400768)
(0.11858 -0.000623826 -0.000393193)
(0.119117 -0.000607595 -0.000386025)
(0.119644 -0.000589723 -0.000379248)
(0.12016 -0.000571667 -0.000373453)
(0.112368 -0.000563044 -0.000833047)
(0.112851 -0.000566161 -0.000845823)
(0.113313 -0.000564458 -0.000850761)
(0.113817 -0.000558447 -0.000847265)
(0.114337 -0.000547531 -0.000840296)
(0.114854 -0.000532291 -0.000832687)
(0.115367 -0.000513701 -0.000825634)
(0.115872 -0.000493402 -0.000819563)
(0.116369 -0.000473225 -0.000814855)
(0.116855 -0.000454586 -0.000812033)
(0.117332 -0.000438215 -0.000811144)
(0.117799 -0.000424272 -0.000811648)
(0.109007 -0.000363385 -0.00115017)
(0.109402 -0.000306761 -0.00119313)
(0.109778 -0.000267259 -0.00121115)
(0.110189 -0.000234388 -0.00121403)
(0.110611 -0.000202729 -0.00121751)
(0.111028 -0.000173495 -0.00122551)
(0.111437 -0.000148775 -0.00123743)
(0.111839 -0.000131099 -0.00125133)
(0.112232 -0.000122099 -0.00126554)
(0.112614 -0.000121298 -0.00127965)
(0.112985 -0.000127052 -0.00129324)
(0.102956 -8.33101e-05 -0.00127342)
(0.103154 6.02899e-05 -0.00133743)
(0.103327 0.000162461 -0.00134594)
(0.103514 0.000241917 -0.00134411)
(0.103695 0.000297354 -0.00135427)
(0.103865 0.000324137 -0.00137674)
(0.104024 0.000326382 -0.00140758)
(0.104168 0.000315036 -0.00143211)
(0.104299 0.000292421 -0.00144938)
(0.104413 0.000256924 -0.00146737)
(0.104506 0.000212155 -0.00148524)
(0.0872593 0.000168854 -0.00122381)
(0.0866951 0.000341291 -0.00123756)
(0.0862859 0.000430642 -0.00121343)
(0.0858536 0.000469627 -0.00122015)
(0.0853887 0.000455728 -0.00125505)
(0.0848942 0.000401693 -0.00129815)
(0.0843674 0.000328896 -0.00133715)
(0.0838012 0.000253781 -0.00136979)
(0.0831846 0.000185034 -0.00139705)
(0.0825257 0.000124847 -0.00141798)
(0.0818288 7.23981e-05 -0.00143031)
(0.113164 7.64064e-05 0.00105)
(0.113674 6.70859e-05 0.00109936)
(0.114151 5.73598e-05 0.00112917)
(0.114663 4.86694e-05 0.00114422)
(0.115188 4.17711e-05 0.00115196)
(0.11571 3.7246e-05 0.00115434)
(0.116226 3.52762e-05 0.00115175)
(0.116735 3.57015e-05 0.00114408)
(0.117233 3.81537e-05 0.00113161)
(0.11772 4.23678e-05 0.00111577)
(0.118195 4.82123e-05 0.00109801)
(0.118658 5.51972e-05 0.00107914)
(0.114716 7.30157e-05 0.000544101)
(0.115284 7.57222e-05 0.000563607)
(0.115821 7.62937e-05 0.000575196)
(0.116394 7.5841e-05 0.000577565)
(0.116983 7.5122e-05 0.000575957)
(0.117567 7.46903e-05 0.000574669)
(0.118145 7.42493e-05 0.000571743)
(0.118718 7.3553e-05 0.000566049)
(0.119283 7.25954e-05 0.000558275)
(0.119839 7.14247e-05 0.000549176)
(0.120383 7.01281e-05 0.00053938)
(0.120917 6.88008e-05 0.000529318)
(0.115213 1.32408e-08 -4.85331e-07)
(0.115803 5.35707e-08 -5.41401e-07)
(0.116359 9.59436e-08 -5.75557e-07)
(0.116953 1.21247e-07 -5.7003e-07)
(0.117559 1.20728e-07 -5.30261e-07)
(0.11816 1.07899e-07 -5.00356e-07)
(0.118756 7.70466e-08 -4.51045e-07)
(0.119348 3.27272e-08 -3.99496e-07)
(0.119932 -2.25147e-08 -3.52795e-07)
(0.120508 -8.90002e-08 -3.09868e-07)
(0.121072 -1.5975e-07 -2.59504e-07)
(0.121626 -2.24821e-07 -1.92466e-07)
(0.114716 -7.29635e-05 -0.000545119)
(0.115284 -7.56255e-05 -0.000564774)
(0.11582 -7.61469e-05 -0.000576427)
(0.116394 -7.56579e-05 -0.000578735)
(0.116982 -7.49551e-05 -0.000577072)
(0.117567 -7.45772e-05 -0.000575719)
(0.118145 -7.41987e-05 -0.000572636)
(0.118717 -7.35792e-05 -0.000566811)
(0.119283 -7.27195e-05 -0.000558938)
(0.119838 -7.16814e-05 -0.000549761)
(0.120383 -7.05502e-05 -0.000539882)
(0.120917 -6.93631e-05 -0.000529722)
(0.113163 -7.62707e-05 -0.001051)
(0.113673 -6.69958e-05 -0.00110057)
(0.11415 -5.73281e-05 -0.00113037)
(0.114662 -4.86964e-05 -0.00114528)
(0.115187 -4.18957e-05 -0.00115287)
(0.115709 -3.74616e-05 -0.00115509)
(0.116225 -3.55435e-05 -0.00115242)
(0.116734 -3.59979e-05 -0.00114473)
(0.117232 -3.8496e-05 -0.00113229)
(0.117718 -4.27939e-05 -0.0011165)
(0.118193 -4.87599e-05 -0.0010988)
(0.118656 -5.58669e-05 -0.00107997)
(0.110275 3.86005e-05 -0.00147074)
(0.110684 8.74528e-05 -0.00156345)
(0.11106 0.000129307 -0.00162286)
(0.111458 0.000161902 -0.0016616)
(0.111861 0.000182213 -0.00168885)
(0.112253 0.000189176 -0.00170823)
(0.112631 0.000183912 -0.00171908)
(0.112993 0.000169115 -0.00171971)
(0.113339 0.000146898 -0.00171044)
(0.113667 0.000119363 -0.00169349)
(0.11398 8.73337e-05 -0.00167162)
(0.104923 0.000236488 -0.00168179)
(0.105125 0.000343459 -0.00178895)
(0.105295 0.000449294 -0.00184243)
(0.105445 0.00052808 -0.00187467)
(0.105567 0.000565437 -0.00189793)
(0.105653 0.000559815 -0.0019216)
(0.105699 0.000524449 -0.00193949)
(0.105707 0.000478604 -0.00193818)
(0.105686 0.000422753 -0.00191626)
(0.105646 0.000354184 -0.00188574)
(0.105588 0.000282203 -0.00185411)
(0.0912104 0.000457798 -0.00152737)
(0.0905384 0.000659083 -0.00164954)
(0.0899135 0.000765831 -0.00173708)
(0.0891907 0.00077227 -0.00179335)
(0.0884005 0.000712949 -0.00181897)
(0.0875605 0.000626585 -0.00182091)
(0.0866861 0.000538103 -0.00180814)
(0.0857828 0.000450874 -0.00179014)
(0.0848546 0.000364452 -0.00176985)
(0.0839064 0.000280864 -0.00174613)
(0.0829484 0.000205707 -0.0017172)
)
;

boundaryField
{
    inlet
    {
        type            fixedValue;
        value           nonuniform List<vector> 0();
    }
    ami1
    {
        type            cyclicAMI;
        value           nonuniform List<vector> 0();
    }
    walls
    {
        type            noSlip;
    }
    ami2
    {
        type            cyclicAMI;
        value           nonuniform List<vector> 
48
(
(0.0791777 -0.000492564 0.000384388)
(0.0876239 -0.00114981 -4.32748e-05)
(0.0916721 -0.00143467 -0.00034285)
(0.0917357 -0.00157719 -0.000793449)
(0.0877675 -0.00165701 -0.00113669)
(0.0789222 -0.00171049 -0.00117698)
(0.0640976 -0.00130994 -0.00050752)
(0.045536 -0.000838182 0.000123497)
(0.0979134 -0.000532509 0.000540216)
(0.102799 -0.00121817 0.000168167)
(0.104804 -0.00159899 -0.000187486)
(0.103897 -0.00171486 -0.000535032)
(0.100003 -0.00165672 -0.000666991)
(0.0923431 -0.00145614 -0.000614136)
(0.079123 -0.00104601 3.44971e-05)
(0.0532501 -0.000703521 0.00059441)
(0.105642 -0.000741119 0.000853041)
(0.108741 -0.00113866 0.000405192)
(0.110013 -0.00143402 -6.45727e-06)
(0.109359 -0.0015583 -0.000355685)
(0.106337 -0.00147465 -0.000514621)
(0.100507 -0.00115775 -0.000459219)
(0.0906053 -0.000634302 0.000181084)
(0.0669695 -0.00060558 0.000488943)
(0.109994 -0.000613672 0.00108915)
(0.112044 -0.000832652 0.000570284)
(0.112823 -0.00103568 8.55872e-05)
(0.112221 -0.00113927 -0.000328549)
(0.109993 -0.00108955 -0.00061376)
(0.105641 -0.000853096 -0.000740765)
(0.0979141 -0.000540618 -0.00053284)
(0.0791816 -0.000384483 -0.000491391)
(0.112222 -0.000328121 0.00113867)
(0.113803 -0.000416516 0.000602488)
(0.114338 -0.000536662 7.28626e-05)
(0.113803 -0.000603155 -0.000416985)
(0.112043 -0.0005709 -0.000832872)
(0.10874 -0.00040542 -0.00113834)
(0.102798 -0.000167864 -0.00121769)
(0.0876256 4.44783e-05 -0.0011484)
(0.112824 8.62449e-05 0.00103508)
(0.114338 7.34587e-05 0.000536136)
(0.114825 -4.08058e-09 -4.52264e-07)
(0.114338 -7.34353e-05 -0.000537067)
(0.112823 -8.61575e-05 -0.00103595)
(0.110012 6.05932e-06 -0.00143391)
(0.104803 0.000187364 -0.00159881)
(0.0916735 0.000343503 -0.00143365)
)
;
    }
    outlet
    {
        type            zeroGradient;
    }
    procBoundary0to1
    {
        type            processor;
        value           nonuniform List<vector> 
138
(
(0.0894003 -0.00113141 0.00222511)
(0.0891895 -0.000770993 0.00179241)
(0.0884001 -0.000712099 0.00181792)
(0.0875613 -0.000626 0.00182)
(0.0866881 -0.000537539 0.0018073)
(0.0857856 -0.000450423 0.00178931)
(0.084858 -0.000364032 0.00176898)
(0.08391 -0.000280337 0.00174535)
(0.0829525 -0.000204925 0.00171676)
(0.0819949 -0.000134205 0.00168192)
(0.104499 -0.00068305 0.00222305)
(0.105448 -0.000527622 0.00187657)
(0.105569 -0.00056488 0.00189973)
(0.105655 -0.000559241 0.00192264)
(0.105701 -0.00052384 0.00193958)
(0.105708 -0.000477982 0.00193744)
(0.105688 -0.000422208 0.00191503)
(0.105647 -0.000353787 0.00188439)
(0.10559 -0.000282208 0.001852)
(0.10552 -0.00021094 0.00181757)
(0.109567 -0.000359764 0.00160105)
(0.109913 -0.00036581 0.00174185)
(0.11026 -0.000378255 0.00186083)
(0.11026 -0.000378255 0.00186083)
(0.111461 -0.000162003 0.0016609)
(0.111864 -0.000182356 0.00168832)
(0.112256 -0.000189343 0.00170775)
(0.112634 -0.000184042 0.00171854)
(0.112996 -0.000169193 0.00171898)
(0.113341 -0.000147036 0.00170946)
(0.11367 -0.000119641 0.00169231)
(0.113983 -8.78711e-05 0.00167041)
(0.114284 -5.35529e-05 0.00164573)
(0.110277 -3.85487e-05 0.00147031)
(0.110686 -8.74698e-05 0.00156281)
(0.111062 -0.000129379 0.00162207)
(0.111461 -0.000162003 0.0016609)
(0.111864 -0.000182356 0.00168832)
(0.112256 -0.000189343 0.00170775)
(0.112634 -0.000184042 0.00171854)
(0.112996 -0.000169193 0.00171898)
(0.113341 -0.000147036 0.00170946)
(0.11367 -0.000119641 0.00169231)
(0.113983 -8.78711e-05 0.00167041)
(0.114284 -5.35529e-05 0.00164573)
(0.112368 0.000563077 0.000832028)
(0.112852 0.000566067 0.000844417)
(0.113314 0.000564342 0.0008492)
(0.113818 0.000558333 0.000845735)
(0.114338 0.00054741 0.000838927)
(0.114856 0.000532163 0.000831542)
(0.115369 0.000513572 0.000824705)
(0.115874 0.000493275 0.000818788)
(0.116371 0.000473089 0.000814142)
(0.116858 0.000454394 0.000811308)
(0.117334 0.000437928 0.000810394)
(0.117801 0.000423816 0.000810878)
(0.114168 0.000607778 0.00041735)
(0.114711 0.000636297 0.000425491)