/*--------------------------------*- C++ -*----------------------------------*\
| =========                 |                                                 |
| \\      /  F ield         | OpenFOAM: The Open Source CFD Toolbox           |
|  \\    /   O peration     | Version:  2212                                  |
|   \\  /    A nd           | Website:  www.openfoam.com                      |
|    \\/     M anipulation  |                                                 |
\*---------------------------------------------------------------------------*/
FoamFile
{
    version     2.0;
    format      ascii;
    arch        "LSB;label=32;scalar=64";
    class       volScalarField;
    location    "0.5";
    object      epsilon;
}
// * * * * * * * * * * * * * * * * * * * * * * * * * * * * * * * * * * * * * //

dimensions      [0 2 -3 0 0 0 0];

internalField   nonuniform List<scalar> 
680
(
0.720664
0.594721
0.502625
0.43306
0.379892
0.33689
0.30205
0.740462
0.566183
0.444417
0.35675
0.291986
0.243013
0.205325
0.649864
0.497164
0.389775
0.311744
0.253634
0.209893
0.17649
0.64547
0.492745
0.385027
0.307514
0.249716
0.205905
0.172252
0.644074
0.492408
0.384222
0.306294
0.248593
0.204842
0.171196
0.644084
0.492421
0.38424
0.30632
0.248628
0.20489
0.171263
0.645494
0.492776
0.385067
0.307573
0.249795
0.206014
0.649886
0.497193
0.389825
0.311808
0.253721
0.210013
0.740469
0.566192
0.444435
0.356778
0.292028
0.24308
0.720664
0.594722
0.502625
0.43306
0.379893
0.336891
0.740468
0.566192
0.444435
0.356777
0.292027
0.243079
0.205461
0.562109
0.415473
0.316119
0.246602
0.196627
0.159807
0.132128
0.618673
0.454034
0.342161
0.263848
0.207609
0.166335
0.135463
0.666492
0.489607
0.368699
0.283772
0.222638
0.17769
0.14404
0.692755
0.509695
0.384113
0.295662
0.231885
0.184935
0.149747
0.692761
0.509703
0.384123
0.295674
0.2319
0.184956
0.149775
0.666506
0.489624
0.368719
0.283798
0.222671
0.177734
0.618682
0.454045
0.342176
0.263867
0.207633
0.166368
0.56211
0.415473
0.316119
0.246602
0.196627
0.159808
0.740462
0.566183
0.444417
0.356751
0.291986
0.243013
0.649885
0.497193
0.389825
0.311808
0.25372
0.210012
0.176659
0.618682
0.454045
0.342175
0.263866
0.207632
0.166365
0.135501
0.725666
0.532209
0.399236
0.305683
0.23843
0.189133
0.152362
0.804608
0.594239
0.447577
0.343308
0.267785
0.212129
0.170462
0.843173
0.625721
0.472901
0.363569
0.283988
0.225111
0.180898
0.843178
0.625727
0.472908
0.363578
0.283999
0.225127
0.18092
0.804615
0.594248
0.447588
0.343323
0.267806
0.21216
0.725666
0.532209
0.399237
0.305684
0.238433
0.18914
0.618673
0.454034
0.342161
0.263849
0.20761
0.166338
0.649863
0.497164
0.389775
0.311744
0.253634
0.209892
0.645493
0.492775
0.385067
0.307573
0.249794
0.206014
0.172406
0.666506
0.489623
0.368719
0.283797
0.22267
0.177731
0.144091
0.804615
0.594248
0.447588
0.343322
0.267803
0.212152
0.17049
0.896499
0.669477
0.508159
0.391719
0.306388
0.242948
0.195143
0.938718
0.705595
0.538359
0.416636
0.326804
0.259627
0.208766
0.938719
0.705597
0.538361
0.416639
0.326808
0.259634
0.208776
0.896499
0.669478
0.50816
0.39172
0.306392
0.242958
0.804608
0.59424
0.447577
0.343309
0.267788
0.212137
0.666493
0.489608
0.368699
0.283772
0.222639
0.177693
0.64547
0.492745
0.385027
0.307515
0.249716
0.205904
0.644084
0.492421
0.38424
0.30632
0.248627
0.204889
0.171263
0.692761
0.509703
0.384123
0.295674
0.2319
0.184954
0.149771
0.843178
0.625726
0.472908
0.363578
0.283998
0.225125
0.180914
0.938719
0.705597
0.538361
0.416639
0.326807
0.259631
0.20877
0.981303
0.742925
0.570217
0.443372
0.349015
0.27798
0.223897
0.981303
0.742925
0.570217
0.443372
0.349016
0.277982
0.223901
0.938718
0.705596
0.538359
0.416638
0.326808
0.259636
0.843174
0.625721
0.472901
0.36357
0.283991
0.225119
0.692755
0.509695
0.384113
0.295662
0.231886
0.184939
0.644074
0.492408
0.384222
0.306294
0.248593
0.204841
0.644074
0.492407
0.384222
0.306293
0.248593
0.204842
0.171196
0.692754
0.509695
0.384113
0.295662
0.231885
0.184935
0.149746
0.843173
0.625721
0.472901
0.363569
0.283987
0.225111
0.180897
0.938718
0.705595
0.538359
0.416636
0.326804
0.259627
0.208766
0.981303
0.742925
0.570217
0.443372
0.349015
0.27798
0.223898
0.981303
0.742925
0.570218
0.443372
0.349016
0.277982
0.223902
0.93872
0.705597
0.538361
0.41664
0.326811
0.25964
0.843178
0.625727
0.472908
0.363579
0.284002
0.225133
0.692761
0.509704
0.384123
0.295675
0.231901
0.184958
0.644084
0.492421
0.38424
0.30632
0.248628
0.204889
0.64547
0.492745
0.385027
0.307514
0.249716
0.205905
0.172252
0.666493
0.489607
0.368699
0.283772
0.222638
0.17769
0.14404
0.804608
0.594239
0.447577
0.343308
0.267786
0.21213
0.170462
0.896499
0.669477
0.508159
0.391719
0.306389
0.242949
0.195144
0.93872
0.705597
0.538361
0.416639
0.326808
0.259632
0.208772
1.26863
0.938718
0.705595
0.538359
0.416637
0.326806
0.25963
0.208772
1.22112
0.896499
0.669477
0.50816
0.39172
0.306392
0.242958
1.11237
0.804615
0.594248
0.447588
0.343323
0.267807
0.21216
0.933564
0.666506
0.489623
0.368719
0.283798
0.222672
0.177735
0.869537
0.645494
0.492776
0.385067
0.307574
0.249795
0.206014
0.649864
0.497164
0.389775
0.311744
0.253635
0.209893
0.17649
0.618673
0.454034
0.342161
0.263848
0.207609
0.166336
0.135463
0.725666
0.532209
0.399237
0.305683
0.238431
0.189134
0.152362
0.804615
0.594248
0.447588
0.343322
0.267804
0.212152
0.170491
0.843178
0.625727
0.472908
0.363578
0.283999
0.225126
0.180916
1.15829
0.843173
0.625721
0.472901
0.36357
0.283989
0.225114
0.180904
1.11237
0.804607
0.594239
0.447577
0.343309
0.267788
0.212138
1.01412
0.725665
0.532208
0.399237
0.305684
0.238433
0.18914
0.869317
0.618681
0.454045
0.342176
0.263867
0.207633
0.166367
0.873631
0.649886
0.497193
0.389825
0.311808
0.253721
0.210012
0.740462
0.566184
0.444417
0.356751
0.291986
0.243013
0.205326
0.56211
0.415473
0.316119
0.246602
0.196627
0.159807
0.132129
0.618682
0.454045
0.342176
0.263867
0.207632
0.166365
0.135501
0.666506
0.489624
0.368719
0.283798
0.222671
0.177731
0.144091
0.692762
0.509704
0.384123
0.295674
0.2319
0.184955
0.149772
0.967847
0.692754
0.509695
0.384113
0.295662
0.231885
0.184937
0.149751
0.933553
0.666492
0.489607
0.368699
0.283772
0.222639
0.177693
0.86931
0.618673
0.454034
0.342161
0.263849
0.20761
0.166338
0.786963
0.562109
0.415473
0.316119
0.246602
0.196627
0.159808
0.998742
0.740469
0.566192
0.444436
0.356778
0.292029
0.24308
0.720664
0.594721
0.502625
0.43306
0.379892
0.33689
0.302051
0.740469
0.566192
0.444435
0.356778
0.292028
0.24308
0.205461
0.649886
0.497193
0.389825
0.311808
0.25372
0.210013
0.176659
0.645494
0.492776
0.385067
0.307573
0.249795
0.206014
0.172407
0.644085
0.492421
0.38424
0.30632
0.248628
0.20489
0.171264
0.866547
0.644075
0.492408
0.384222
0.306294
0.248593
0.204842
0.171196
0.869518
0.645471
0.492746
0.385027
0.307515
0.249716
0.205905
0.873615
0.649864
0.497164
0.389776
0.311745
0.253635
0.209893
0.998738
0.740462
0.566184
0.444417
0.356751
0.291987
0.243014
0.902044
0.720664
0.594722
0.502625
0.43306
0.379893
0.336891
)
;

boundaryField
{
    inlet
    {
        type            fixedValue;
        value           nonuniform List<scalar> 0();
    }
    ami1
    {
        type            cyclicAMI;
        value           nonuniform List<scalar> 0();
    }
    walls
    {
        type            epsilonWallFunction;
        blending        stepwise;
        value           nonuniform List<scalar> 
271
(
0.869537
0.873631
0.998742
0.902044
0.720664
0.740462
0.649863
0.64547
0.644074
0.644084
0.645494
0.649886
0.740469
0.720664
0.594722
0.566183
0.497164
0.492745
0.492408
0.492421
0.492776
0.497193
0.566192
0.594722
0.502625
0.444417
0.389775
0.385027
0.384222
0.38424
0.385067
0.389825
0.444436
0.502625
0.43306
0.356751
0.311744
0.307515
0.306294
0.30632
0.307574
0.311808
0.356778
0.43306
0.379893
0.291986
0.253634
0.249716
0.248593
0.248628
0.249795
0.253721
0.292029
0.379893
0.336891
0.243013
0.209892
0.205904
0.204841
0.204889
0.206014
0.210012
0.24308
0.336891
0.720664
0.740462
0.649864
0.64547
0.644074
0.644084
0.645494
0.649886
0.740469
0.720664
0.594721
0.566183
0.497164
0.492745
0.492408
0.492421
0.492776
0.497193
0.566192
0.594722
0.502625
0.444417
0.389775
0.385027
0.384222
0.38424
0.385067
0.389825
0.444435
0.502625
0.43306
0.35675
0.311744
0.307514
0.306294
0.30632
0.307573
0.311808
0.356778
0.43306
0.379892
0.291986
0.253634
0.249716
0.248593
0.248628
0.249795
0.253721
0.292028
0.379893
0.33689
0.243013
0.209893
0.205905
0.204842
0.20489
0.206014
0.210013
0.24308
0.336891
0.30205
0.205325
0.17649
0.172252
0.171196
0.171263
0.720664
0.740468
0.649885
0.645493
0.644084
0.644074
0.64547
0.649864
0.740462
0.720664
0.594721
0.566192
0.497193
0.492775
0.492421
0.492407
0.492745
0.497164
0.566184
0.594721
0.502625
0.444435
0.389825
0.385067
0.38424
0.384222
0.385027
0.389775
0.444417
0.502625
0.43306
0.356777
0.311808
0.307573
0.30632
0.306293
0.307514
0.311744
0.356751
0.43306
0.379892
0.292027
0.25372
0.249794
0.248627
0.248593
0.249716
0.253635
0.291986
0.379892
0.33689
0.243079
0.210012
0.206014
0.204889
0.204842
0.205905
0.209893
0.243013
0.33689
0.30205
0.205461
0.176659
0.172406
0.171263
0.171196
0.172252
0.17649
0.205326
0.302051
0.866547
0.869518
0.873615
0.998738
0.902044
0.720664
0.740469
0.649886
0.645494
0.644085
0.644075
0.645471
0.649864
0.740462
0.720664
0.594721
0.566192
0.497193
0.492776
0.492421
0.492408
0.492746
0.497164
0.566184
0.594722
0.502625
0.444435
0.389825
0.385067
0.38424
0.384222
0.385027
0.389776
0.444417
0.502625
0.43306
0.356778
0.311808
0.307573
0.30632
0.306294
0.307515
0.311745
0.356751
0.43306
0.379892
0.292028
0.25372
0.249795
0.248628
0.248593
0.249716
0.253635
0.291987
0.379893
0.33689
0.24308
0.210013
0.206014
0.20489
0.204842
0.205905
0.209893
0.243014
0.336891
0.302051
0.205461
0.176659
0.172407
0.171264
0.171196
)
;
    }
    ami2
    {
        type            cyclicAMI;
        value           nonuniform List<scalar> 0();
    }
    outlet
    {
        type            zeroGradient;
    }
    procBoundary3to2
    {
        type            processor;
        value           nonuniform List<scalar> 
110
(
0.273348
0.176012
0.150644
0.146082
0.145002
0.145097
0.172407
0.172407
0.176659
0.205461
0.30205
0.176209
0.111017
0.111949
0.118448
0.122957
0.122992
0.144095
0.144095
0.135505
0.132131
0.205324
0.150894
0.111997
0.124493
0.138809
0.147231
0.147255
0.170497
0.170497
0.152368
0.135467
0.176489
0.146303
0.118511
0.138843
0.158654
0.169798
0.169806
0.195149
0.195149
0.170468
0.144045
0.172251
0.145098
0.122987
0.147251
0.169803
0.182273
0.182275
0.208771
0.208771
0.180902
0.149752
0.171195
0.145002
0.122956
0.14723
0.169797
0.182273
0.182275
0.208776
0.208776
0.18092
0.149776
0.171263
0.146082
0.118448
0.138809
0.158655
0.169805
0.169802
0.19515
0.19515
0.170496
0.144096
0.172406
0.150644
0.11195
0.124494
0.138844
0.147253
0.147235
0.17047
0.17047
0.152369
0.135505
0.176658
0.176012
0.111018
0.111998
0.118511
0.122988
0.122961
0.144044
0.144044
0.135467
0.13213
0.20546
0.273349
0.17621
0.150894
0.146304
0.145098
0.145001
0.172253
0.172253
0.17649
0.205325
0.302051
)
;
    }
    procBoundary3to4
    {
        type            processor;
        value           nonuniform List<scalar> 
109
(
0.902044
0.998737
0.873614
0.869518
0.866546
0.866554
0.869536
0.873631
0.998742
0.902044
0.998742
0.786962
0.86931
0.933553
0.967847
0.967852
0.933564
0.869317
0.786962
0.998737
0.873631
0.869317
1.01412
1.11237
1.15829
1.1583
1.11237
1.01412
0.86931
0.873614
0.869536
0.933564
1.11237
1.22112
1.26863
1.26863
1.22112
1.11237
0.933553
0.869518
0.866554
0.967852
1.1583
1.26863
1.31522
1.31522
1.26863
1.15829
0.967847
0.866546
0.866546
0.967847
1.15829
1.26863
1.31522
1.31522
1.31522
1.26863
1.26863
1.1583
1.1583
0.967853
0.967853
0.866554
0.866554
0.869518
0.933553
1.11237
1.22112
1.26863
1.26863
1.74299
1.69281
1.57143
1.35122
1.22753
0.873615
0.86931
1.01412
1.11237
1.1583
1.1583
1.62327
1.57143
1.455
1.26611
1.22702
0.998737
0.786963
0.869317
0.933565
0.967852
0.967852
1.39506
1.35121
1.2661
1.14761
1.40271
0.902044
0.998742
0.873631
0.869536
0.866554
0.866554
1.2267
1.22751
1.227
1.40271
1.18307
)
;
    }
}


// ************************************************************************* //
