/*--------------------------------*- C++ -*----------------------------------*\
| =========                 |                                                 |
| \\      /  F ield         | OpenFOAM: The Open Source CFD Toolbox           |
|  \\    /   O peration     | Version:  2212                                  |
|   \\  /    A nd           | Website:  www.openfoam.com                      |
|    \\/     M anipulation  |                                                 |
\*---------------------------------------------------------------------------*/
FoamFile
{
    version     2.0;
    format      ascii;
    arch        "LSB;label=32;scalar=64";
    class       volScalarField;
    location    "3";
    object      k;
}
// * * * * * * * * * * * * * * * * * * * * * * * * * * * * * * * * * * * * * //

dimensions      [0 2 -2 0 0 0 0];

internalField   nonuniform List<scalar> 
680
(
0.00442266
0.00415246
0.00392274
0.00372623
0.00356658
0.00338924
0.00544948
0.00494808
0.00453115
0.00418241
0.0038962
0.00366704
0.00628963
0.00568616
0.00517944
0.00475186
0.00439177
0.00410224
0.00703509
0.00633504
0.00574524
0.00524487
0.00481843
0.00446045
0.00743257
0.00668635
0.00605617
0.00552012
0.00506306
0.00468985
0.00743012
0.00668286
0.00605121
0.00551329
0.00505539
0.00469616
0.00786876
0.00702968
0.00632712
0.00573353
0.00522782
0.00479705
0.00446914
0.00700826
0.00628397
0.00567755
0.00516619
0.00473143
0.00436189
0.00406592
0.00605864
0.00544593
0.00494235
0.00452113
0.00416426
0.00386571
0.0036278
0.00474333
0.00442268
0.0041525
0.00392281
0.00372634
0.00356677
0.00338952
0.00544586
0.00494228
0.00452101
0.00416408
0.00386546
0.00362748
0.0102641
0.00907487
0.00807726
0.0072322
0.0065265
0.00587016
0.0126171
0.0111485
0.00991885
0.00888028
0.00799969
0.00723903
0.0142455
0.0125802
0.011183
0.0100011
0.00899355
0.0081322
0.0150936
0.0133268
0.0118424
0.010585
0.00951151
0.0085914
0.01509
0.0133219
0.0118356
0.0105757
0.00949916
0.00857789
0.0162423
0.0142379
0.0125696
0.0111679
0.00997954
0.00896358
0.00809712
0.0143822
0.0126109
0.0111395
0.00990551
0.00886013
0.00796993
0.00719619
0.0116963
0.0102642
0.00907496
0.00807745
0.00723249
0.00652692
0.00587077
0.00606105
0.00544952
0.00494811
0.00453121
0.00418253
0.00389639
0.00366742
0.00628388
0.00567745
0.00516608
0.0047313
0.00436173
0.00406575
0.0126107
0.0111393
0.00990533
0.00885986
0.0079696
0.00719604
0.0165846
0.0146278
0.0129859
0.0115964
0.010409
0.00936348
0.0191828
0.0169165
0.0150125
0.0133995
0.0120202
0.0108191
0.0205091
0.0180882
0.0160514
0.014324
0.0128449
0.0115583
0.0205073
0.0180858
0.0160483
0.0143197
0.0128387
0.0115458
0.0219012
0.0191798
0.0169125
0.0150069
0.0133917
0.0120085
0.0107949
0.0189381
0.0165846
0.0146278
0.012986
0.0115965
0.0104092
0.00936381
0.0143866
0.0126171
0.0111485
0.00991891
0.00888041
0.00799992
0.00723948
0.00701195
0.00628959
0.00568613
0.00517942
0.00475187
0.0043918
0.00410229
0.00702958
0.00632703
0.00573345
0.00522774
0.00479695
0.004469
0.0142378
0.0125695
0.0111677
0.00997941
0.00896342
0.00809696
0.0191798
0.0169124
0.0150068
0.0133916
0.0120084
0.0107948
0.0224667
0.0198147
0.0175807
0.0156836
0.0140544
0.0126173
0.0241354
0.0212953
0.0188982
0.0168589
0.0151031
0.013546
0.0241349
0.0212947
0.0188975
0.0168579
0.0151016
0.0135428
0.0256398
0.0224667
0.0198147
0.0175808
0.0156837
0.0140546
0.0126175
0.0219034
0.0191828
0.0169166
0.0150125
0.0133996
0.0120204
0.0108195
0.0162477
0.0142455
0.0125802
0.011183
0.0100012
0.00899367
0.0081323
0.00787247
0.00703505
0.00633502
0.00574523
0.00524487
0.00481842
0.00446042
0.00743012
0.00668286
0.0060512
0.00551329
0.00505539
0.0046961
0.0150901
0.0133219
0.0118356
0.0105757
0.00949919
0.00857794
0.0205073
0.0180858
0.0160483
0.0143197
0.0128386
0.0115459
0.0241349
0.0212947
0.0188974
0.0168579
0.0151015
0.0135429
0.0259741
0.0229313
0.0203567
0.0181609
0.0162621
0.0145552
0.0259742
0.0229313
0.0203567
0.0181609
0.0162621
0.0145552
0.0275251
0.0241354
0.0212953
0.0188982
0.016859
0.0151032
0.0135461
0.0234105
0.0205091
0.0180882
0.0160515
0.014324
0.012845
0.0115583
0.0172157
0.0150937
0.0133269
0.0118425
0.010585
0.00951155
0.00859113
0.00832354
0.00743261
0.0066864
0.00605621
0.00552016
0.00506311
0.00469004
0.00743257
0.00668637
0.0060562
0.00552017
0.00506314
0.0046899
0.0150936
0.0133268
0.0118425
0.0105851
0.00951167
0.00859153
0.0205091
0.0180882
0.0160515
0.014324
0.012845
0.0115582
0.0241354
0.0212953
0.0188982
0.0168589
0.0151032
0.013546
0.0259742
0.0229313
0.0203567
0.0181609
0.0162621
0.0145551
0.0259742
0.0229313
0.0203567
0.0181609
0.0162621
0.0145551
0.0275247
0.024135
0.0212947
0.0188975
0.0168579
0.0151016
0.0135425
0.0234092
0.0205074
0.0180859
0.0160483
0.0143197
0.0128386
0.0115451
0.0172132
0.0150902
0.013322
0.0118357
0.0105758
0.00949908
0.00857716
0.00832189
0.00743024
0.00668297
0.00605131
0.00551338
0.00505548
0.00469638
0.0070351
0.00633507
0.00574528
0.00524494
0.00481854
0.00446055
0.0142455
0.0125803
0.0111831
0.0100012
0.00899377
0.00813254
0.0191828
0.0169166
0.0150125
0.0133996
0.0120203
0.0108194
0.0224667
0.0198147
0.0175808
0.0156837
0.0140546
0.0126173
0.0241349
0.0212947
0.0188975
0.0168579
0.0151016
0.0135426
0.0241354
0.0212953
0.0188982
0.0168589
0.0151032
0.0135458
0.0256398
0.0224667
0.0198147
0.0175808
0.0156837
0.0140545
0.0126171
0.0219012
0.0191798
0.0169125
0.0150069
0.0133916
0.0120083
0.0107943
0.0162423
0.014238
0.0125696
0.0111679
0.00997953
0.00896342
0.00809691
0.00786878
0.00702971
0.00632716
0.00573358
0.00522788
0.00479709
0.00446915
0.00628964
0.00568619
0.00517948
0.00475193
0.00439186
0.00410245
0.0126172
0.0111486
0.00991893
0.00888041
0.00799986
0.00723935
0.0165846
0.0146278
0.0129859
0.0115964
0.0104091
0.00936359
0.0191798
0.0169124
0.0150068
0.0133916
0.0120084
0.0107947
0.0205073
0.0180858
0.0160483
0.0143196
0.0128385
0.0115456
0.0205091
0.0180882
0.0160515
0.014324
0.0128449
0.0115583
0.0219034
0.0191828
0.0169166
0.0150125
0.0133996
0.0120203
0.0108191
0.018938
0.0165846
0.0146278
0.0129859
0.0115965
0.010409
0.00936324
0.0143822
0.0126109
0.0111395
0.0099055
0.00886008
0.00796972
0.00719649
0.00700827
0.00628398
0.00567757
0.00516621
0.00473146
0.00436192
0.00406613
0.00544949
0.0049481
0.00453117
0.00418246
0.00389627
0.00366725
0.0102641
0.00907487
0.00807726
0.00723217
0.00652646
0.00587008
0.0126107
0.0111393
0.00990529
0.00885978
0.00796945
0.00719572
0.0142378
0.0125694
0.0111677
0.00997933
0.0089632
0.00809674
0.0150901
0.0133218
0.0118356
0.0105757
0.00949905
0.00857787
0.0150937
0.0133268
0.0118425
0.0105851
0.00951166
0.00859165
0.0162477
0.0142455
0.0125802
0.011183
0.0100012
0.00899376
0.00813255
0.0143866
0.0126171
0.0111485
0.00991887
0.00888037
0.0079998
0.00723945
0.0116962
0.0102641
0.0090749
0.00807735
0.00723235
0.00652657
0.00587113
0.00605863
0.00544591
0.00494233
0.00452108
0.00416419
0.0038656
0.00362791
0.00442266
0.00415246
0.00392274
0.00372623
0.00356663
0.00338921
0.00544584
0.00494225
0.00452096
0.00416399
0.0038653
0.00362719
0.00628386
0.00567743
0.00516606
0.00473127
0.00436166
0.00406563
0.00702957
0.00632703
0.00573345
0.00522774
0.00479693
0.00446906
0.00743012
0.00668287
0.00605123
0.00551332
0.00505544
0.00469627
0.00743259
0.00668638
0.00605622
0.0055202
0.00506318
0.00469004
0.00787248
0.00703506
0.00633504
0.00574526
0.00524493
0.00481854
0.0044606
0.00701194
0.00628959
0.00568613
0.00517942
0.00475188
0.0043918
0.00410218
0.00606103
0.0054495
0.00494808
0.00453117
0.00418247
0.0038963
0.00366753
0.00474332
0.00442267
0.00415247
0.00392277
0.0037263
0.00356673
0.0033895
0.00362789
0.00333729
0.0030796
0.00291474
0.00340939
0.00308397
0.00287649
0.00273401
0.00373939
0.00344234
0.00319051
0.00362365
0.00329788
0.00300087
0.00278854
0.00461451
0.00396018
0.00355243
0.00328776
0.00589105
0.00529536
0.00481292
0.00391336
0.00357353
0.00326348
0.00583117
0.00520942
0.00471941
0.00759449
0.00688168
0.00626303
0.00417005
0.00382165
0.00352426
0.00673242
0.0060729
0.0055179
0.00886478
0.00804687
0.0073309
)
;

boundaryField
{
    inlet
    {
        type            fixedValue;
        value           nonuniform List<scalar> 0();
    }
    ami1
    {
        type            cyclicAMI;
        value           nonuniform List<scalar> 
100
(
0.00342719
0.00368953
0.00404179
0.00434718
0.00463281
0.00469881
0.00452809
0.00416857
0.00375486
0.00342719
0.00375483
0.00550358
0.00682746
0.0077577
0.00824708
0.008216
0.00771163
0.00679446
0.00550397
0.00368995
0.00416838
0.00679463
0.00882802
0.0102579
0.0109693
0.0109513
0.0102142
0.00882819
0.0068281
0.00404187
0.00452777
0.00771141
0.0102141
0.011921
0.0127737
0.0127724
0.0119214
0.0102585
0.00775807
0.00434723
0.00469831
0.00821554
0.0109518
0.0127728
0.0136869
0.0136869
0.0127743
0.0109699
0.00824699
0.00463374
0.00463259
0.00824645
0.0109688
0.0127737
0.0136866
0.0136865
0.0127717
0.0109494
0.00821505
0.00469992
0.00434717
0.00775819
0.0102583
0.0119208
0.012772
0.0127734
0.01192
0.0102117
0.00771023
0.00452783
0.004042
0.00682796
0.00882812
0.010214
0.0109512
0.0109692
0.0102574
0.00882657
0.00679441
0.00416865
0.00369002
0.00550355
0.00679442
0.00771152
0.00821592
0.00824721
0.00775785
0.00682732
0.00550537
0.0037553
0.00342702
0.00375447
0.00416828
0.00452794
0.00469886
0.004633
0.00434732
0.00404256
0.00369167
0.00342767
)
;
    }
    walls
    {
        type            kqRWallFunction;
        value           nonuniform List<scalar> 
283
(
0.00474333
0.00606105
0.00701195
0.00787247
0.00832354
0.00832189
0.00786878
0.00700827
0.00605863
0.00474332
0.00442268
0.00544952
0.00628959
0.00703505
0.00743261
0.00743024
0.00702971
0.00628398
0.00544591
0.00442267
0.0041525
0.00494811
0.00568613
0.00633502
0.0066864
0.00668297
0.00632716
0.00567757
0.00494233
0.00415247
0.00392281
0.00453121
0.00517942
0.00574523
0.00605621
0.00605131
0.00573358
0.00516621
0.00452108
0.00392277
0.00372634
0.00418253
0.00475187
0.00524487
0.00552016
0.00551338
0.00522788
0.00473146
0.00416419
0.0037263
0.00356677
0.00389639
0.0043918
0.00481842
0.00506311
0.00505548
0.00479709
0.00436192
0.0038656
0.00356673
0.00338952
0.00366742
0.00410229
0.00446042
0.00469004
0.00469638
0.00446915
0.00406613
0.00362791
0.0033895
0.00786876
0.00700826
0.00605864
0.00474333
0.00442266
0.00544948
0.00628963
0.00703509
0.00743257
0.00743012
0.00702968
0.00628397
0.00544593
0.00442268
0.00415246
0.00494808
0.00568616
0.00633504
0.00668635
0.00668286
0.00632712
0.00567755
0.00494235
0.0041525
0.00392274
0.00453115
0.00517944
0.00574524
0.00605617
0.00605121
0.00573353
0.00516619
0.00452113
0.00392281
0.00372623
0.00418241
0.00475186
0.00524487
0.00552012
0.00551329
0.00522782
0.00473143
0.00416426
0.00372634
0.00356658
0.0038962
0.00439177
0.00481843
0.00506306
0.00505539
0.00479705
0.00436189
0.00386571
0.00356677
0.00338924
0.00366704
0.00410224
0.00446045
0.00468985
0.00469616
0.00446914
0.00406592
0.0036278
0.00338952
0.00442266
0.00544586
0.00628388
0.00702958
0.00743012
0.00743257
0.0070351
0.00628964
0.00544949
0.00442266
0.00415246
0.00494228
0.00567745
0.00632703
0.00668286
0.00668637
0.00633507
0.00568619
0.0049481
0.00415246
0.00392274
0.00452101
0.00516608
0.00573345
0.0060512
0.0060562
0.00574528
0.00517948
0.00453117
0.00392274
0.00372623
0.00416408
0.0047313
0.00522774
0.00551329
0.00552017
0.00524494
0.00475193
0.00418246
0.00372623
0.00356658
0.00386546
0.00436173
0.00479695
0.00505539
0.00506314
0.00481854
0.00439186
0.00389627
0.00356663
0.00338924
0.00362748
0.00406575
0.004469
0.0046961
0.0046899
0.00446055
0.00410245
0.00366725
0.00338921
0.00787248
0.00701194
0.00606103
0.00474332
0.00442266
0.00544584
0.00628386
0.00702957
0.00743012
0.00743259
0.00703506
0.00628959
0.0054495
0.00442267
0.00415246
0.00494225
0.00567743
0.00632703
0.00668287
0.00668638
0.00633504
0.00568613
0.00494808
0.00415247
0.00392274
0.00452096
0.00516606
0.00573345
0.00605123
0.00605622
0.00574526
0.00517942
0.00453117
0.00392277
0.00372623
0.00416399
0.00473127
0.00522774
0.00551332
0.0055202
0.00524493
0.00475188
0.00418247
0.0037263
0.00356663
0.0038653
0.00436166
0.00479693
0.00505544
0.00506318
0.00481854
0.0043918
0.0038963
0.00356673
0.00338921
0.00362719
0.00406563
0.00446906
0.00469627
0.00469004
0.0044606
0.00410218
0.00366753
0.0033895
0.00362789
0.00340939
0.00373939
0.00333729
0.00308397
0.00344234
0.0030796
0.00287649
0.00319051
0.00291474
0.00273401
0.00362789
0.00362365
0.00391336
0.00417005
0.00333729
0.00329788
0.00357353
0.00382165
0.0030796
0.00300087
0.00326348
0.00352426
0.00291474
0.00278854
)
;
    }
    ami2
    {
        type            cyclicAMI;
        value           nonuniform List<scalar> 
12
(
0.00358826
0.00359354
0.00391683
0.00376512
0.00492485
0.00623027
0.00410315
0.00616812
0.00799232
0.00437296
0.00709114
0.00932958
)
;
    }
    outlet
    {
        type            zeroGradient;
    }
    procBoundary2to0
    {
        type            processor;
        value           nonuniform List<scalar> 
28
(
0.00280104
0.00262103
0.00299539
0.00396637
0.00367745
0.00299539
0.00343428
0.00262729
0.00302169
0.00304564
0.00441546
0.00429914
0.00674973
0.00612105
0.00441546
0.00558046
0.00302169
0.00429914
0.0088935
0.0080808
0.00572404
0.00737027
0.00328226
0.00504298
0.0104714
0.00950704
0.00669937
0.00866797
)
;
    }
    procBoundary2to1
    {
        type            processor;
        value           nonuniform List<scalar> 9(0.0043081 0.00397569 0.00368899 0.00730641 0.006621 0.00602483 0.00969898 0.00880083 0.00801776);
    }
    procBoundary2to3
    {
        type            processor;
        value           nonuniform List<scalar> 
110
(
0.00474324
0.0060609
0.00701185
0.00787239
0.00832354
0.00832194
0.00832194
0.0088804
0.00788314
0.00680266
0.00512177
0.00605857
0.0116961
0.0143864
0.0162476
0.0172157
0.0172132
0.0172132
0.0186757
0.0165358
0.0134396
0.00680366
0.0070083
0.0143822
0.018938
0.0219033
0.0234104
0.0234092
0.0234092
0.025198
0.0217969
0.0165387
0.00788552
0.00786885
0.0162424
0.0219012
0.0256398
0.0275251
0.0275247
0.0275247
0.0294673
0.0251996
0.0186793
0.00888277
0.00832197
0.0172133
0.0234092
0.0275247
0.0295945
0.0295946
0.0295946
0.0316006
0.0269184
0.0197899
0.00939693
0.00832356
0.0172157
0.0234105
0.0275251
0.0295945
0.0295946
0.0295946
0.0316004
0.0269174
0.0197883
0.00939586
0.0078724
0.0162476
0.0219033
0.0256398
0.0275247
0.0275251
0.0275251
0.0294673
0.025198
0.0186757
0.00888041
0.00701186
0.0143864
0.018938
0.0219012
0.0234092
0.0234105
0.0234105
0.0251995
0.0217969
0.0165358
0.00788314
0.00606089
0.011696
0.0143822
0.0162424
0.0172133
0.0172158
0.0172158
0.0186793
0.0165387
0.0134395
0.00680264
0.00474323
0.00605854
0.00700829
0.00786886
0.00832198
0.00832359
0.00832359
0.00888278
0.00788551
0.00680363
0.00512176
)
;
    }
}


// ************************************************************************* //
