/*--------------------------------*- C++ -*----------------------------------*\
| =========                 |                                                 |
| \\      /  F ield         | OpenFOAM: The Open Source CFD Toolbox           |
|  \\    /   O peration     | Version:  2212                                  |
|   \\  /    A nd           | Website:  www.openfoam.com                      |
|    \\/     M anipulation  |                                                 |
\*---------------------------------------------------------------------------*/
FoamFile
{
    version     2.0;
    format      ascii;
    arch        "LSB;label=32;scalar=64";
    class       volScalarField;
    location    "3";
    object      nut;
}
// * * * * * * * * * * * * * * * * * * * * * * * * * * * * * * * * * * * * * //

dimensions      [0 2 -1 0 0 0 0];

internalField   nonuniform List<scalar> 
680
(
6.52623e-06
6.32302e-06
6.14411e-06
5.98524e-06
5.84396e-06
5.69296e-06
1.54477e-05
1.47185e-05
1.40817e-05
1.35221e-05
1.30322e-05
1.26127e-05
2.39114e-05
2.27339e-05
2.16947e-05
2.0776e-05
1.997e-05
1.93214e-05
3.0822e-05
2.92475e-05
2.78516e-05
2.66095e-05
2.55024e-05
2.45343e-05
3.46452e-05
3.28604e-05
3.1274e-05
2.98585e-05
2.85956e-05
2.75186e-05
3.46411e-05
3.28544e-05
3.12651e-05
2.98455e-05
2.85803e-05
2.75246e-05
3.25998e-05
3.08136e-05
2.92348e-05
2.7832e-05
2.65798e-05
2.54653e-05
2.45634e-05
2.52433e-05
2.39039e-05
2.27223e-05
2.16767e-05
2.07479e-05
1.99273e-05
1.925e-05
1.62898e-05
1.54442e-05
1.47129e-05
1.40722e-05
1.35064e-05
1.30148e-05
1.26153e-05
6.75899e-06
6.52625e-06
6.32307e-06
6.14418e-06
5.98536e-06
5.84415e-06
5.69316e-06
1.5444e-05
1.47127e-05
1.4072e-05
1.35061e-05
1.30143e-05
1.26147e-05
8.63756e-05
7.95279e-05
7.32558e-05
6.75967e-05
6.31839e-05
5.48235e-05
0.000128895
0.000120663
0.000113254
0.000106497
0.000100743
9.40436e-05
0.000155102
0.000145663
0.000137095
0.000129283
0.000122139
0.000115911
0.000167661
0.000157653
0.000148544
0.000140217
0.000132553
0.00012545
0.000167592
0.000157559
0.000148408
0.000140015
0.000132261
0.000125125
0.000165425
0.000154964
0.000145464
0.000136787
0.000128798
0.000121403
0.000114956
0.000138052
0.000128783
0.0001205
0.000112988
0.00010605
9.99967e-05
9.2894e-05
9.38068e-05
8.63752e-05
7.95304e-05
7.32614e-05
6.76041e-05
6.31959e-05
5.48391e-05
1.62921e-05
1.54478e-05
1.47186e-05
1.40819e-05
1.35224e-05
1.30327e-05
1.26138e-05
2.39037e-05
2.27221e-05
2.16764e-05
2.07476e-05
1.9927e-05
1.92497e-05
0.000128777
0.000120494
0.00011298
0.000106039
9.99868e-05
9.28948e-05
0.000199836
0.000188353
0.000177873
0.000168246
0.000159338
0.000149873
0.000239421
0.000226342
0.000214402
0.000203432
0.000193216
0.000183106
0.000257893
0.000244033
0.000231369
0.000219722
0.000208858
0.000198402
0.000257857
0.000243986
0.000231301
0.000219619
0.000208679
0.00019793
0.000253765
0.000239362
0.000226261
0.000214281
0.000203244
0.000192891
0.000182326
0.000212477
0.000199835
0.000188355
0.000177879
0.000168255
0.000159349
0.000149889
0.000138127
0.000128888
0.000120662
0.000113256
0.000106502
0.000100751
9.40609e-05
2.5248e-05
2.39113e-05
2.27338e-05
2.16947e-05
2.0776e-05
1.99701e-05
1.93215e-05
3.08133e-05
2.92346e-05
2.78318e-05
2.65796e-05
2.54651e-05
2.4563e-05
0.000154953
0.000145458
0.000136782
0.000128793
0.000121396
0.000114949
0.000239358
0.000226258
0.000214277
0.00020324
0.000192887
0.000182317
0.000287009
0.000271911
0.000258097
0.00024535
0.000233318
0.000221048
0.000309328
0.000293268
0.000278557
0.000264955
0.000252059
0.000238912
0.000309319
0.000293256
0.00027854
0.00026493
0.000252019
0.000238826
0.000303592
0.000287009
0.000271912
0.000258099
0.000245353
0.000233323
0.000221056
0.000253807
0.000239419
0.000226344
0.000214406
0.000203439
0.000193226
0.000183127
0.000165523
0.000155095
0.000145661
0.000137095
0.000129285
0.000122142
0.000115914
3.26053e-05
3.08219e-05
2.92474e-05
2.78515e-05
2.66094e-05
2.55023e-05
2.45339e-05
3.46411e-05
3.28544e-05
3.12651e-05
2.98456e-05
2.85804e-05
2.75243e-05
0.00016759
0.000157559
0.000148409
0.000140017
0.000132264
0.000125129
0.000257855
0.000243985
0.000231301
0.000219619
0.000208678
0.000197932
0.000309319
0.000293256
0.00027854
0.00026493
0.000252018
0.000238828
0.000333585
0.000316468
0.000300753
0.000286167
0.000272183
0.000257382
0.000333585
0.000316468
0.000300754
0.000286168
0.000272184
0.000257381
0.000326944
0.000309328
0.000293269
0.000278558
0.000264957
0.000252063
0.000238905
0.000273131
0.000257893
0.000244035
0.000231371
0.000219724
0.000208862
0.0001984
0.000178703
0.000167661
0.000157654
0.000148546
0.000140218
0.000132553
0.000125442
3.66627e-05
3.46453e-05
3.28605e-05
3.12741e-05
2.98585e-05
2.85957e-05
2.75188e-05
3.46452e-05
3.28604e-05
3.12741e-05
2.98586e-05
2.85958e-05
2.75188e-05
0.00016766
0.000157654
0.000148548
0.000140223
0.000132562
0.00012546
0.000257892
0.000244034
0.000231371
0.000219725
0.000208861
0.000198399
0.000309329
0.000293268
0.000278557
0.000264956
0.000252061
0.000238915
0.000333585
0.000316468
0.000300753
0.000286167
0.000272183
0.000257375
0.000333585
0.000316468
0.000300754
0.000286168
0.000272184
0.000257376
0.000326938
0.00030932
0.000293257
0.00027854
0.000264931
0.000252019
0.000238804
0.000273107
0.000257861
0.000243987
0.000231301
0.000219617
0.000208673
0.000197898
0.000178658
0.000167601
0.000157565
0.000148412
0.000140017
0.000132258
0.000125102
3.66601e-05
3.46414e-05
3.28546e-05
3.12653e-05
2.98458e-05
2.85806e-05
2.75256e-05
3.0822e-05
2.92476e-05
2.78517e-05
2.66096e-05
2.55027e-05
2.45344e-05
0.000155103
0.000145665
0.000137099
0.00012929
0.000122148
0.000115922
0.000239422
0.000226344
0.000214405
0.000203437
0.000193224
0.000183119
0.00028701
0.000271912
0.000258098
0.000245352
0.000233323
0.000221052
0.00030932
0.000293256
0.00027854
0.00026493
0.000252018
0.000238815
0.000309329
0.000293268
0.000278557
0.000264956
0.000252061
0.000238909
0.000303592
0.000287009
0.000271911
0.000258098
0.000245352
0.000233322
0.000221039
0.000253766
0.000239362
0.00022626
0.000214278
0.000203239
0.000192883
0.000182304
0.000165427
0.000154965
0.000145466
0.000136788
0.000128798
0.000121399
0.000114953
3.25998e-05
3.08137e-05
2.92349e-05
2.78322e-05
2.658e-05
2.54654e-05
2.45632e-05
2.39114e-05
2.27339e-05
2.16948e-05
2.07761e-05
1.99702e-05
1.9322e-05
0.000128896
0.000120665
0.000113256
0.000106501
0.000100743
9.40517e-05
0.000199838
0.000188355
0.000177874
0.000168247
0.000159341
0.000149882
0.000239359
0.000226258
0.000214276
0.000203237
0.000192883
0.000182315
0.000257856
0.000243984
0.000231299
0.000219615
0.000208672
0.000197921
0.000257892
0.000244033
0.00023137
0.000219723
0.000208859
0.000198404
0.000253806
0.000239418
0.000226343
0.000214405
0.000203437
0.000193224
0.000183112
0.000212477
0.000199835
0.000188354
0.000177876
0.000168251
0.000159342
0.000149878
0.000138052
0.000128783
0.000120499
0.000112987
0.000106048
9.99887e-05
9.29725e-05
2.52433e-05
2.3904e-05
2.27223e-05
2.16767e-05
2.0748e-05
1.99274e-05
1.92504e-05
1.54477e-05
1.47185e-05
1.40818e-05
1.35222e-05
1.30323e-05
1.26133e-05
8.63758e-05
7.95273e-05
7.32543e-05
6.75943e-05
6.31798e-05
5.48203e-05
0.000128776
0.000120493
0.000112978
0.000106035
9.99814e-05
9.28805e-05
0.000154952
0.000145457
0.000136781
0.00012879
0.00012139
0.000114941
0.000167589
0.000157558
0.000148408
0.000140016
0.00013226
0.000125127
0.000167659
0.000157654
0.000148548
0.000140223
0.000132562
0.000125465
0.000165522
0.000155095
0.000145662
0.000137097
0.000129289
0.000122148
0.000115922
0.000138127
0.000128887
0.00012066
0.000113254
0.000106499
0.000100741
9.40589e-05
9.38063e-05
8.63739e-05
7.95279e-05
7.32573e-05
6.75989e-05
6.31845e-05
5.48477e-05
1.62897e-05
1.54441e-05
1.47128e-05
1.40721e-05
1.35063e-05
1.30146e-05
1.26157e-05
6.52623e-06
6.32302e-06
6.1441e-06
5.98524e-06
5.84396e-06
5.69282e-06
1.5444e-05
1.47127e-05
1.40719e-05
1.35058e-05
1.3014e-05
1.2614e-05
2.39037e-05
2.2722e-05
2.16764e-05
2.07476e-05
1.99268e-05
1.92493e-05
3.08133e-05
2.92346e-05
2.78318e-05
2.65796e-05
2.54651e-05
2.45633e-05
3.46412e-05
3.28544e-05
3.12651e-05
2.98457e-05
2.85806e-05
2.75251e-05
3.46453e-05
3.28605e-05
3.12742e-05
2.98587e-05
2.85959e-05
2.75191e-05
3.26053e-05
3.08219e-05
2.92475e-05
2.78516e-05
2.66096e-05
2.55026e-05
2.45347e-05
2.5248e-05
2.39112e-05
2.27338e-05
2.16947e-05
2.0776e-05
1.99699e-05
1.93202e-05
1.62921e-05
1.54477e-05
1.47185e-05
1.40818e-05
1.35222e-05
1.30324e-05
1.2614e-05
6.75898e-06
6.52623e-06
6.32304e-06
6.14413e-06
5.98531e-06
5.84412e-06
5.69325e-06
4.81418e-06
4.65912e-06
4.50179e-06
4.39173e-06
1.02488e-05
9.72739e-06
9.3999e-06
9.16146e-06
1.52059e-05
1.48228e-05
1.44066e-05
1.03437e-05
9.92278e-06
9.51093e-06
9.19412e-06
3.13505e-05
2.67141e-05
2.55126e-05
2.52594e-05
6.28974e-05
5.84627e-05
5.67032e-05
1.56245e-05
1.50207e-05
1.44993e-05
5.70692e-05
5.69186e-05
5.51714e-05
0.000113956
0.000107739
0.000102607
2.01813e-05
1.9389e-05
1.86854e-05
8.14607e-05
7.96954e-05
7.68818e-05
0.000147995
0.000141116
0.000134683
)
;

boundaryField
{
    inlet
    {
        type            calculated;
        value           nonuniform List<scalar> 0();
    }
    ami1
    {
        type            cyclicAMI;
        value           nonuniform List<scalar> 
100
(
7.32445e-06
1.37512e-05
1.96362e-05
2.47523e-05
2.95946e-05
3.0603e-05
2.75162e-05
2.15103e-05
1.38774e-05
7.32416e-06
1.38755e-05
5.02049e-05
8.64972e-05
0.000110838
0.000123656
0.00012143
0.000107933
8.50955e-05
5.02207e-05
1.37521e-05
2.15097e-05
8.51049e-05
0.000141041
0.000176694
0.000192829
0.000191623
0.000175141
0.000141035
8.65272e-05
1.96367e-05
2.7516e-05
0.000107925
0.000175124
0.000213644
0.000230554
0.000230801
0.000213668
0.000176711
0.000110852
2.4753e-05
3.05961e-05
0.000121387
0.000191607
0.000230817
0.000248121
0.000248121
0.000230572
0.000192855
0.000123745
2.96133e-05
2.9593e-05
0.000123668
0.000192846
0.000230541
0.000248108
0.000248106
0.000230795
0.000191565
0.000121697
3.06592e-05
2.47524e-05
0.000110855
0.000176701
0.000213639
0.000230783
0.000230543
0.000213615
0.000175063
0.000107888
2.75109e-05
1.96372e-05
8.65129e-05
0.000141027
0.000175126
0.000191622
0.000192827
0.000176677
0.000140976
8.51125e-05
2.15098e-05
1.37522e-05
5.02027e-05
8.50913e-05
0.000107926
0.00012143
0.000123666
0.000110822
8.63384e-05
5.01732e-05
1.38825e-05
7.32404e-06
1.3877e-05
2.15121e-05
2.75171e-05
3.06028e-05
2.95952e-05
2.47527e-05
1.96374e-05
1.37584e-05
7.32558e-06
)
;
    }
    walls
    {
        type            nutkWallFunction;
        blending        stepwise;
        value           uniform 0;
    }
    ami2
    {
        type            cyclicAMI;
        value           nonuniform List<scalar> 
12
(
7.564e-06
1.21629e-05
1.81023e-05
1.35894e-05
3.83244e-05
6.87518e-05
1.89325e-05
6.67427e-05
0.000118932
2.30679e-05
8.98994e-05
0.000152599
)
;
    }
    outlet
    {
        type            calculated;
        value           nonuniform List<scalar> 0();
    }
    procBoundary2to0
    {
        type            processor;
        value           nonuniform List<scalar> 
28
(
4.30737e-06
8.96224e-06
1.3953e-05
1.96251e-05
1.90498e-05
1.3953e-05
1.84871e-05
8.9346e-06
1.39563e-05
2.3538e-05
5.46785e-05
5.21294e-05
8.74326e-05
8.17616e-05
5.46785e-05
7.86023e-05
1.39563e-05
5.21294e-05
0.000148449
0.000141377
9.79747e-05
0.000135117
1.80565e-05
7.45831e-05
0.000189946
0.000180777
0.000128619
0.000172634
)
;
    }
    procBoundary2to1
    {
        type            processor;
        value           nonuniform List<scalar> 9(2.32545e-05 2.23345e-05 2.15148e-05 0.000104405 9.83183e-05 9.28535e-05 0.000169352 0.000161515 0.000154044);
    }
    procBoundary2to3
    {
        type            processor;
        value           nonuniform List<scalar> 
110
(
6.75893e-06
1.62919e-05
2.52478e-05
3.2605e-05
3.66627e-05
3.66602e-05
3.66602e-05
3.46314e-05
2.67723e-05
1.7261e-05
7.02371e-06
1.62897e-05
9.38024e-05
0.000138117
0.000165512
0.000178699
0.000178662
0.000178662
0.000177024
0.000148335
0.000102097
1.72618e-05
2.52434e-05
0.000138057
0.000212474
0.000253803
0.000273129
0.000273108
0.000273108
0.000269683
0.000226449
0.000148372
2.67751e-05
3.26e-05
0.000165437
0.000253767
0.000303591
0.000326944
0.000326938
0.000326938
0.000321886
0.000269707
0.000177072
3.46346e-05
3.66603e-05
0.000178665
0.000273109
0.000326938
0.000352314
0.000352315
0.000352315
0.000346336
0.00028996
0.000190942
3.89548e-05
3.66627e-05
0.000178701
0.00027313
0.000326944
0.000352314
0.000352315
0.000352315
0.000346332
0.000289945
0.00019092
3.89533e-05
3.26051e-05
0.000165514
0.000253804
0.000303591
0.000326938
0.000326944
0.000326944
0.000321886
0.000269682
0.000177024
3.46314e-05
2.52478e-05
0.000138116
0.000212473
0.000253766
0.000273108
0.00027313
0.00027313
0.000269706
0.000226448
0.000148335
2.67723e-05
1.62919e-05
9.38012e-05
0.000138055
0.000165436
0.000178666
0.000178703
0.000178703
0.000177072
0.000148371
0.000102095
1.72609e-05
6.75892e-06
1.62897e-05
2.52434e-05
3.26e-05
3.66603e-05
3.66628e-05
3.66628e-05
3.46346e-05
2.67751e-05
1.72617e-05
7.0237e-06
)
;
    }
}


// ************************************************************************* //
