/*--------------------------------*- C++ -*----------------------------------*\
| =========                 |                                                 |
| \\      /  F ield         | OpenFOAM: The Open Source CFD Toolbox           |
|  \\    /   O peration     | Version:  2212                                  |
|   \\  /    A nd           | Website:  www.openfoam.com                      |
|    \\/     M anipulation  |                                                 |
\*---------------------------------------------------------------------------*/
FoamFile
{
    version     2.0;
    format      ascii;
    arch        "LSB;label=32;scalar=64";
    class       volScalarField;
    location    "3";
    object      p;
}
// * * * * * * * * * * * * * * * * * * * * * * * * * * * * * * * * * * * * * //

dimensions      [0 2 -2 0 0 0 0];

internalField   nonuniform List<scalar> 
680
(
0.0059084
0.00575517
0.00560338
0.00545345
0.00530406
0.00513939
0.00591618
0.00576036
0.00560477
0.0054451
0.00527238
0.00506767
0.00589709
0.00573978
0.00558015
0.00541565
0.00524484
0.00505987
0.00590179
0.00574716
0.00559219
0.00543681
0.00528225
0.00513058
0.00589841
0.00574709
0.00559723
0.00544916
0.00530334
0.00516183
0.00590351
0.00575507
0.00560957
0.00546763
0.0053282
0.00519254
0.00606428
0.00591428
0.00576735
0.00562468
0.00548751
0.00535464
0.00522436
0.00606245
0.00591133
0.00576362
0.00562057
0.00548408
0.0053551
0.00523568
0.00607774
0.00592465
0.00577504
0.00562937
0.00548753
0.00535034
0.00521446
0.00606255
0.00590833
0.00575507
0.00560327
0.00545332
0.00530392
0.0051392
0.00592473
0.00577514
0.0056295
0.00548767
0.00535051
0.00521467
0.00595745
0.00580087
0.00564729
0.00549833
0.00536452
0.00526617
0.00591881
0.00575914
0.00560095
0.0054444
0.00529236
0.00515513
0.00591708
0.00575886
0.00560165
0.00544517
0.00528964
0.00513735
0.00590641
0.00575175
0.00559949
0.00544962
0.00530193
0.00515583
0.0059131
0.00576154
0.00561339
0.00546994
0.00533145
0.00519387
0.00608567
0.0059301
0.00577911
0.00563301
0.00549273
0.00535822
0.00522402
0.00608734
0.00593003
0.00577718
0.00562944
0.00548826
0.00535456
0.00523158
0.00611665
0.00595739
0.00580078
0.00564718
0.00549821
0.00536438
0.005266
0.00607305
0.00591612
0.00576027
0.00560467
0.00544499
0.00527225
0.00506753
0.0059114
0.00576371
0.00562068
0.00548422
0.00535526
0.00523588
0.00593009
0.00577725
0.00562952
0.00548836
0.00535467
0.00523169
0.0058814
0.00572456
0.00557037
0.00541893
0.00526969
0.00512078
0.00585972
0.00570299
0.00554824
0.00539493
0.00524311
0.00508994
0.00584591
0.00569081
0.00553851
0.00538824
0.00524087
0.00509308
0.00584863
0.00569472
0.00554362
0.00539475
0.00524798
0.00509794
0.00602281
0.00586485
0.00571016
0.0055577
0.00540815
0.00526057
0.00510861
0.00604157
0.00588137
0.00572453
0.00557034
0.00541888
0.00526965
0.00512076
0.00608043
0.00591877
0.00575909
0.00560089
0.00544434
0.00529229
0.00515502
0.0060538
0.00589705
0.00573972
0.00558008
0.00541557
0.00524474
0.00505975
0.00591434
0.00576742
0.00562478
0.00548763
0.00535479
0.00522453
0.00593014
0.00577917
0.00563309
0.00549283
0.00535832
0.0052241
0.00586488
0.00571019
0.00555774
0.00540819
0.00526062
0.00510863
0.00583107
0.00567619
0.00552344
0.00537264
0.00522436
0.00507305
0.00581417
0.00565991
0.00550812
0.005359
0.00521445
0.00506749
0.0058149
0.00566094
0.00550935
0.00536016
0.00521486
0.00506663
0.00598875
0.00583106
0.00567618
0.00552342
0.00537263
0.00522435
0.00507305
0.0060193
0.0058597
0.00570297
0.00554822
0.00539491
0.0052431
0.00508992
0.00607694
0.00591705
0.00575883
0.00560162
0.00544514
0.00528961
0.00513732
0.00605652
0.00590177
0.00574712
0.00559214
0.00543675
0.00528218
0.00513049
0.00590357
0.00575514
0.00560966
0.00546773
0.00532832
0.00519267
0.00591314
0.00576161
0.00561347
0.00547003
0.00533155
0.00519397
0.00584866
0.00569476
0.00554366
0.0053948
0.00524803
0.00509797
0.00581491
0.00566095
0.00550937
0.00536017
0.00521487
0.00506663
0.0057959
0.00564215
0.00549091
0.00534248
0.00519857
0.00505496
0.00579589
0.00564215
0.00549091
0.00534247
0.00519856
0.00505496
0.0059714
0.00581417
0.00565991
0.00550811
0.00535899
0.00521444
0.00506748
0.00600493
0.00584591
0.0056908
0.00553851
0.00538825
0.00524089
0.00509315
0.00606332
0.0059064
0.00575175
0.00559949
0.00544962
0.00530194
0.00515592
0.00605097
0.0058984
0.00574708
0.0055972
0.0054491
0.00530322
0.00516165
0.00589846
0.00574715
0.0055973
0.00544924
0.00530343
0.00516194
0.00590646
0.00575181
0.00559956
0.0054497
0.00530201
0.00515592
0.00584595
0.00569085
0.00553856
0.00538829
0.00524091
0.00509311
0.00581419
0.00565993
0.00550813
0.00535901
0.00521446
0.00506749
0.0057959
0.00564216
0.00549091
0.00534247
0.00519856
0.00505495
0.00579589
0.00564215
0.0054909
0.00534246
0.00519855
0.00505493
0.00597187
0.0058149
0.00566093
0.00550934
0.00536013
0.00521482
0.00506658
0.0060068
0.00584865
0.00569473
0.00554363
0.00539477
0.00524802
0.00509811
0.00606763
0.00591312
0.00576158
0.00561343
0.00546998
0.00533151
0.00519404
0.00605416
0.00590352
0.00575509
0.00560958
0.00546761
0.00532815
0.00519238
0.00590185
0.00574722
0.00559225
0.00543688
0.00528233
0.00513066
0.00591713
0.00575892
0.00560171
0.00544524
0.00528972
0.00513745
0.00585976
0.00570303
0.00554828
0.00539497
0.00524315
0.00508996
0.00583109
0.0056762
0.00552344
0.00537264
0.00522434
0.00507301
0.00581491
0.00566095
0.00550936
0.00536016
0.00521485
0.00506662
0.00581417
0.00565991
0.0055081
0.00535897
0.00521441
0.00506743
0.00598876
0.00583106
0.00567617
0.0055234
0.00537259
0.00522427
0.00507289
0.00602282
0.00586487
0.00571017
0.00555771
0.00540814
0.00526054
0.00510848
0.00608569
0.00593013
0.00577916
0.00563309
0.00549283
0.00535834
0.00522405
0.0060643
0.00591431
0.0057674
0.00562476
0.0054876
0.00535478
0.00522455
0.00589714
0.00573983
0.0055802
0.00541571
0.00524488
0.00505989
0.00591886
0.00575919
0.00560099
0.00544444
0.00529241
0.0051552
0.00588143
0.00572459
0.0055704
0.00541895
0.00526972
0.00512081
0.00586488
0.00571018
0.00555773
0.00540816
0.00526057
0.00510853
0.00584865
0.00569474
0.00554364
0.00539477
0.005248
0.00509796
0.00584592
0.00569082
0.00553852
0.00538824
0.00524086
0.00509305
0.00601932
0.00585972
0.00570299
0.00554824
0.00539492
0.00524308
0.00508984
0.00604159
0.0058814
0.00572457
0.00557039
0.00541896
0.00526973
0.00512073
0.00608736
0.00593007
0.00577726
0.00562954
0.00548841
0.00535478
0.00523182
0.00606248
0.00591138
0.00576369
0.00562067
0.00548422
0.00535526
0.00523594
0.00591622
0.0057604
0.00560482
0.00544515
0.00527241
0.00506769
0.00595748
0.0058009
0.00564733
0.00549837
0.00536457
0.00526622
0.00593011
0.00577728
0.00562954
0.00548839
0.00535471
0.00523174
0.00593015
0.00577917
0.00563309
0.00549281
0.0053583
0.00522404
0.00591313
0.00576158
0.00561344
0.00546999
0.00533149
0.0051939
0.00590642
0.00575177
0.00559951
0.00544964
0.00530194
0.00515583
0.00607696
0.00591708
0.00575887
0.00560166
0.00544518
0.00528962
0.00513727
0.00608046
0.00591881
0.00575915
0.00560097
0.00544444
0.00529242
0.00515521
0.00611669
0.00595744
0.00580087
0.0056473
0.00549837
0.00536458
0.00526641
0.00607778
0.00592471
0.00577513
0.00562949
0.00548769
0.00535051
0.00521473
0.00590843
0.00575521
0.00560342
0.00545349
0.00530409
0.00513942
0.00592476
0.00577518
0.00562953
0.00548772
0.00535056
0.00521474
0.00591142
0.00576373
0.00562071
0.00548425
0.00535531
0.00523594
0.00591434
0.00576743
0.00562478
0.00548763
0.0053548
0.00522454
0.00590355
0.00575512
0.00560963
0.0054677
0.00532827
0.0051926
0.00589843
0.00574712
0.00559726
0.00544919
0.00530337
0.00516186
0.00605655
0.00590181
0.00574717
0.00559221
0.00543685
0.00528231
0.00513066
0.00605383
0.0058971
0.00573979
0.00558018
0.00541572
0.00524496
0.00506013
0.00607308
0.00591617
0.00576036
0.00560478
0.00544514
0.00527244
0.00506781
0.00606258
0.00590839
0.00575516
0.00560338
0.00545346
0.00530405
0.0051394
0.00532314
0.00486203
0.00457005
0.00443884
0.00518027
0.00485487
0.00461251
0.00447511
0.00499381
0.00481878
0.00463178
0.0053215
0.00490521
0.00457156
0.00440839
0.00510686
0.00485696
0.00463379
0.0044722
0.00494685
0.0047768
0.0046231
0.00521925
0.00493594
0.00465888
0.00503323
0.00486849
0.00469214
0.00489657
0.00476138
0.0046358
0.00512733
0.00491488
0.00469087
0.00501089
0.00487139
0.00472001
0.00490909
0.00476951
0.00464234
)
;

boundaryField
{
    inlet
    {
        type            zeroGradient;
    }
    ami1
    {
        type            cyclicAMI;
        value           nonuniform List<scalar> 
100
(
0.00517653
0.00503977
0.00501213
0.00506338
0.00509479
0.00513284
0.00517975
0.00521971
0.005224
0.00517627
0.0052243
0.00513837
0.00503412
0.00504293
0.00506297
0.00508372
0.00509945
0.0051051
0.00513815
0.00503963
0.00521998
0.00510517
0.0049966
0.00498003
0.00499007
0.0049959
0.0049976
0.00499664
0.00503397
0.00501201
0.00517994
0.00509943
0.00499758
0.00496223
0.00495284
0.00495377
0.00496223
0.00498002
0.00504288
0.0050633
0.00513295
0.00508384
0.00499596
0.00495376
0.00493617
0.00493617
0.00495282
0.00499013
0.00506307
0.00509463
0.00509489
0.00506308
0.0049901
0.00495283
0.00493616
0.00493614
0.00495369
0.00499598
0.00508386
0.00513277
0.00506346
0.00504304
0.00498004
0.00496216
0.00495375
0.00495278
0.00496204
0.00499738
0.00509942
0.00518002
0.00501213
0.00503419
0.00499661
0.00499742
0.00499592
0.00499006
0.00497996
0.00499667
0.00510533
0.00522008
0.00503978
0.00513841
0.00510518
0.00509932
0.00508374
0.005063
0.00504293
0.00503425
0.00513851
0.00522437
0.00517664
0.00522444
0.0052201
0.00517998
0.00513288
0.00509479
0.00506343
0.00501229
0.00503984
0.00517656
)
;
    }
    walls
    {
        type            zeroGradient;
    }
    ami2
    {
        type            cyclicAMI;
        value           nonuniform List<scalar> 
12
(
0.00525641
0.00517086
0.0050471
0.00527486
0.00517358
0.00508683
0.00522439
0.00513169
0.00503682
0.00516838
0.00511382
0.00503025
)
;
    }
    outlet
    {
        type            fixedValue;
        value           nonuniform List<scalar> 0();
    }
    procBoundary2to0
    {
        type            processor;
        value           nonuniform List<scalar> 
28
(
0.00431688
0.00434379
0.00447952
0.00495931
0.00481553
0.00447952
0.00464854
0.00428244
0.00446081
0.00432753
0.00446895
0.00451959
0.00490059
0.00475328
0.00446895
0.00461906
0.00446081
0.00451959
0.00485338
0.00471137
0.00448125
0.00459098
0.00450097
0.00455392
0.00486436
0.00471467
0.00449214
0.00458639
)
;
    }
    procBoundary2to1
    {
        type            processor;
        value           nonuniform List<scalar> 9(0.00506051 0.00487561 0.00468196 0.00499181 0.00484202 0.00469712 0.00491651 0.00476212 0.00462387);
    }
    procBoundary2to3
    {
        type            processor;
        value           nonuniform List<scalar> 
110
(
0.00606261
0.00607309
0.00605383
0.00605654
0.00605098
0.00605415
0.00605415
0.00621664
0.00621666
0.00623312
0.00621699
0.0060778
0.0061167
0.00608047
0.00607696
0.00606333
0.00606762
0.00606762
0.00624564
0.00624932
0.00627878
0.00623058
0.00606251
0.00608738
0.0060416
0.00601932
0.00600493
0.00600679
0.00600679
0.00618511
0.00620599
0.00624506
0.00621135
0.00606433
0.00608571
0.00602283
0.00598877
0.00597141
0.00597187
0.00597187
0.0061499
0.00618267
0.00623949
0.00621181
0.0060542
0.00606766
0.00600682
0.00597189
0.00595259
0.00595259
0.00595259
0.00613192
0.00616825
0.00622302
0.00620432
0.00605102
0.00606337
0.00600497
0.00597142
0.0059526
0.00595259
0.00595259
0.00613225
0.00616961
0.00622576
0.00620627
0.00605659
0.00607701
0.00601935
0.00598878
0.00597189
0.0059714
0.0059714
0.0061499
0.00618512
0.00624565
0.00621665
0.00605387
0.00608051
0.00604163
0.00602284
0.00600681
0.00600494
0.00600494
0.00618269
0.00620601
0.00624934
0.00621668
0.00607313
0.00611674
0.0060874
0.00608571
0.00606764
0.00606334
0.00606334
0.00623951
0.00624508
0.0062788
0.00623314
0.00606264
0.00607783
0.00606252
0.00606433
0.00605419
0.006051
0.006051
0.00621183
0.00621137
0.0062306
0.00621701
)
;
    }
}


// ************************************************************************* //
