/*--------------------------------*- C++ -*----------------------------------*\
| =========                 |                                                 |
| \\      /  F ield         | OpenFOAM: The Open Source CFD Toolbox           |
|  \\    /   O peration     | Version:  2212                                  |
|   \\  /    A nd           | Website:  www.openfoam.com                      |
|    \\/     M anipulation  |                                                 |
\*---------------------------------------------------------------------------*/
FoamFile
{
    version     2.0;
    format      ascii;
    arch        "LSB;label=32;scalar=64";
    class       surfaceScalarField;
    location    "3";
    object      phi;
}
// * * * * * * * * * * * * * * * * * * * * * * * * * * * * * * * * * * * * * //

dimensions      [0 3 -1 0 0 0 0];

oriented        oriented;

internalField   nonuniform List<scalar> 
1769
(
1.51891e-07
1.96525e-09
1.62043e-09
1.48616e-07
1.91567e-09
1.35977e-09
1.45674e-07
1.89141e-09
1.0508e-09
1.4322e-07
1.83444e-09
6.19662e-10
1.41233e-07
2.22711e-09
-2.39702e-10
-1.70181e-09
-5.24067e-09
4.22976e-07
6.97715e-09
2.83436e-09
4.15642e-07
6.71859e-09
2.53214e-09
4.09052e-07
6.43242e-09
2.04911e-09
4.03996e-07
5.7877e-09
1.10298e-09
4.01655e-07
5.05114e-09
-4.82625e-10
1.90703e-09
-7.3166e-09
7.29759e-07
7.71231e-09
7.3705e-09
7.22292e-07
7.12374e-09
7.0624e-09
7.15763e-07
6.37769e-09
6.58327e-09
7.10485e-07
5.30317e-09
5.76333e-09
7.07094e-07
3.88538e-09
4.55681e-09
1.50043e-09
2.20344e-09
9.77884e-07
4.72575e-09
9.03377e-09
9.71988e-07
4.19346e-09
8.82624e-09
9.66287e-07
3.52064e-09
8.55815e-09
9.60792e-07
2.61335e-09
8.18556e-09
9.55575e-07
1.36834e-09
7.7337e-09
-1.3346e-10
7.67757e-09
1.10971e-06
-4.75928e-10
9.35349e-09
1.10528e-06
-7.5387e-10
9.37949e-09
1.10055e-06
-1.18873e-09
9.43365e-09
1.09551e-06
-1.84931e-09
9.50713e-09
1.08998e-06
-2.73755e-09
9.63406e-09
-4.15073e-09
1.0146e-08
1.10861e-06
-5.49797e-09
9.59323e-09
1.10356e-06
-5.46501e-09
9.76188e-09
1.09795e-06
-5.62058e-09
1.00336e-08
1.09172e-06
-6.0251e-09
1.04141e-08
1.08478e-06
-6.63478e-09
1.08289e-08
-8.15526e-09
1.1034e-08
9.8239e-07
-8.41416e-09
9.51793e-09
9.75373e-07
-7.98965e-09
9.50921e-09
9.67951e-07
-7.67052e-09
9.62686e-09
9.59909e-07
-7.48934e-09
9.91121e-09
9.51003e-07
-7.5308e-09
1.04109e-08
9.4129e-07
-7.95365e-09
1.10312e-08
-9.14314e-09
1.08653e-08
7.36512e-07
-7.11742e-09
7.87619e-09
7.27469e-07
-6.72952e-09
7.78293e-09
7.18335e-07
-6.34371e-09
7.80659e-09
7.088e-07
-5.94769e-09
7.99366e-09
6.98378e-07
-5.53128e-09
8.42235e-09
6.86511e-07
-5.15296e-09
9.06589e-09
-4.96575e-09
8.77881e-09
4.30311e-07
-1.85065e-09
3.24112e-09
4.22106e-07
-1.62017e-09
3.09542e-09
4.14124e-07
-1.35958e-09
2.99836e-09
4.06255e-07
-1.05042e-09
2.97115e-09
3.9836e-07
-6.19014e-10
2.9833e-09
3.90535e-07
2.41116e-10
2.43067e-09
5.24298e-09
1.01935e-09
1.55478e-07
2.04249e-09
1.51893e-07
1.96489e-09
1.48618e-07
1.91527e-09
1.45677e-07
1.89093e-09
1.43224e-07
1.83395e-09
1.41238e-07
2.22646e-09
-1.70458e-09
4.22102e-07
3.09582e-09
6.73026e-09
4.14118e-07
2.99872e-09
6.34503e-09
4.06248e-07
2.97176e-09
5.94975e-09
3.98349e-07
2.98445e-09
5.53441e-09
3.90517e-07
2.43328e-09
5.15843e-09
1.02297e-09
4.97185e-09
8.04943e-07
5.8808e-09
5.43046e-09
7.99913e-07
5.64034e-09
4.92045e-09
7.951e-07
5.4769e-09
4.35689e-09
7.90109e-07
5.385e-09
3.69326e-09
7.84507e-07
5.01019e-09
2.54262e-09
3.49452e-09
-2.06067e-10
1.11822e-06
6.96905e-09
8.5158e-09
1.11642e-06
6.49315e-09
8.00673e-09
1.11502e-06
6.02665e-09
7.43357e-09
1.11389e-06
5.53978e-09
6.73966e-09
1.11271e-06
4.92055e-09
5.8294e-09
3.90385e-09
4.73931e-09
1.35595e-06
4.53395e-09
1.08616e-08
1.35677e-06
4.03094e-09
1.04697e-08
1.35781e-06
3.46457e-09
1.00763e-08
1.3591e-06
2.79228e-09
9.64097e-09
1.36064e-06
1.966e-09
9.14834e-09
9.43511e-10
8.7919e-09
1.48125e-06
-4.1011e-10
1.1892e-08
1.48358e-06
-6.37039e-10
1.1711e-08
1.48588e-06
-9.76214e-10
1.15843e-08
1.48813e-06
-1.46989e-09
1.15106e-08
1.49039e-06
-2.13383e-09
1.14761e-08
-2.8697e-09
1.1585e-08
1.48037e-06
-5.06376e-09
1.21825e-08
1.48223e-06
-4.88836e-09
1.2149e-08
1.48389e-06
-4.83552e-09
1.22276e-08
1.48532e-06
-4.94484e-09
1.24604e-08
1.4864e-06
-5.17544e-09
1.27948e-08
-5.22355e-09
1.29202e-08
1.35409e-06
-7.45488e-09
1.16669e-08
1.35398e-06
-6.91872e-09
1.1465e-08
1.35374e-06
-6.46246e-09
1.1445e-08
1.35326e-06
-6.08421e-09
1.16368e-08
1.35251e-06
-5.80642e-09
1.20265e-08
1.35135e-06
-5.45211e-09
1.24664e-08
-4.52638e-09
1.2308e-08
1.11943e-06
-5.91946e-09
9.41564e-09
1.11659e-06
-5.42937e-09
9.1321e-09
1.11384e-06
-4.91925e-09
9.01859e-09
1.111e-06
-4.35524e-09
9.10545e-09
1.10789e-06
-3.69088e-09
9.41285e-09
1.10435e-06
-2.53874e-09
9.6902e-09
2.12911e-10
9.12208e-09
8.10327e-07
-3.05155e-09
6.20329e-09
8.04947e-07
-2.83347e-09
5.87953e-09
7.99918e-07
-2.53125e-09
5.63941e-09
7.95106e-07
-2.04801e-09
5.47576e-09
7.90116e-07
-1.10169e-09
5.3835e-09
7.84516e-07
4.84507e-10
5.00817e-09
7.32001e-09
3.4906e-09
4.30825e-07
7.28277e-09
4.2298e-07
6.97651e-09
4.15646e-07
6.7176e-09
4.09058e-07
6.43101e-09
4.04005e-07
5.7858e-09
4.01667e-07
5.0488e-09
1.90458e-09
7.27463e-07
7.78333e-09
7.99121e-09
7.18328e-07
7.8076e-09
7.67271e-09
7.0879e-07
7.99544e-09
7.49241e-09
6.98363e-07
8.42553e-09
7.53506e-09
6.8649e-07
9.0717e-09
7.95942e-09
8.78712e-09
9.15092e-09
1.11659e-06
9.13282e-09
6.91977e-09
1.11384e-06
9.0197e-09
6.46406e-09
1.11099e-06
9.10703e-09
6.0864e-09
1.10789e-06
9.41535e-09
5.80964e-09
1.10435e-06
9.69445e-09
5.45708e-09
9.12765e-09
4.53287e-09
1.41592e-06
8.35502e-09
8.00876e-09
1.41742e-06
8.02495e-09
7.49602e-09
1.41912e-06
7.81727e-09
7.02397e-09
1.42102e-06
7.70421e-09
6.55614e-09
1.42301e-06
7.53428e-09
5.9986e-09
7.05601e-09
5.30088e-09
1.63569e-06
5.01545e-09
9.51079e-09
1.64046e-06
4.67224e-09
9.04863e-09
1.64537e-06
4.35376e-09
8.62869e-09
1.65047e-06
4.03599e-09
8.20767e-09
1.65574e-06
3.66414e-09
7.74978e-09
3.18933e-09
7.32951e-09
1.75155e-06
-1.62418e-10
1.03479e-08
1.75816e-06
-2.45204e-10
1.00187e-08
1.76471e-06
-3.67667e-10
9.76089e-09
1.77124e-06
-5.31784e-10
9.54677e-09
1.77776e-06
-7.20641e-10
9.34429e-09
-9.15513e-10
9.20032e-09
1.75113e-06
-5.12494e-09
1.05496e-08
1.75756e-06
-4.84381e-09
1.03193e-08
1.76386e-06
-4.62929e-09
1.01894e-08
1.77012e-06
-4.47106e-09
1.01423e-08
1.7764e-06
-4.31298e-09
1.01099e-08
-4.10631e-09
1.00201e-08
1.63045e-06
-8.59423e-09
1.03153e-08
1.63486e-06
-8.00721e-09
9.94147e-09
1.63925e-06
-7.49425e-09
9.70537e-09
1.64368e-06
-7.02184e-09
9.60035e-09
1.64819e-06
-6.55344e-09
9.59955e-09
1.65275e-06
-5.99524e-09
9.58635e-09
-5.29691e-09
9.37443e-09
1.41463e-06
-9.03534e-09
8.81459e-09
1.41592e-06
-8.51394e-09
8.35395e-09
1.41743e-06
-8.00489e-09
8.02381e-09
1.41912e-06
-7.43137e-09
7.816e-09
1.42102e-06
-6.73683e-09
7.70275e-09
1.42301e-06
-5.82577e-09
7.53261e-09
-4.73399e-09
7.05444e-09
1.12045e-06
-7.63356e-09
7.49601e-09
1.11822e-06
-7.36926e-09
6.96762e-09
1.11642e-06
-7.06082e-09
6.4919e-09
1.11502e-06
-6.58109e-09
6.02524e-09
1.11389e-06
-5.76029e-09
5.53802e-09
1.11271e-06
-4.55288e-09
4.91834e-09
-2.19956e-09
3.90128e-09
7.37868e-07
8.27056e-09
7.29763e-07
7.7119e-09
7.22297e-07
7.12302e-09
7.1577e-07
6.37657e-09
7.10494e-07
5.30162e-09
7.07107e-07
3.88352e-09
1.49896e-09
9.75368e-07
9.51001e-09
5.49986e-09
9.67944e-07
9.62823e-09
5.46749e-09
9.59899e-07
9.91331e-09
5.6238e-09
9.50991e-07
1.04141e-08
6.02931e-09
9.41274e-07
1.10358e-08
6.64016e-09
1.08717e-08
8.16188e-09
1.35398e-06
1.14658e-08
5.06508e-09
1.35374e-06
1.14464e-08
4.89024e-09
1.35326e-06
1.16388e-08
4.83795e-09
1.35251e-06
1.20291e-08
4.94791e-09
1.35135e-06
1.24697e-08
5.17918e-09
1.2311e-08
5.22696e-09
1.63486e-06
9.94237e-09
5.12635e-09
1.63925e-06
9.70647e-09
4.84553e-09
1.64368e-06
9.60165e-09
4.63135e-09
1.64819e-06
9.60099e-09
4.47345e-09
1.65275e-06
9.58769e-09
4.31553e-09
9.37468e-09
4.10834e-09
1.83624e-06
5.7825e-09
5.63251e-09
1.84412e-06
5.5463e-09
5.32749e-09
1.85193e-06
5.35733e-09
5.0614e-09
1.85974e-06
5.19281e-09
4.80541e-09
1.86755e-06
5.00307e-09
4.53071e-09
4.77217e-09
4.27377e-09
1.94175e-06
1.16209e-11
6.00566e-09
1.95155e-06
1.58093e-11
5.74933e-09
1.96111e-06
1.55631e-11
5.5358e-09
1.9705e-06
1.02446e-11
5.34457e-09
1.9797e-06
-7.51339e-13
5.14404e-09
-1.29256e-11
5.01056e-09
1.94166e-06
-5.63093e-09
6.09644e-09
1.95144e-06
-5.32559e-09
5.88293e-09
1.96098e-06
-5.05916e-09
5.72147e-09
1.97035e-06
-4.80282e-09
5.58803e-09
1.97955e-06
-4.52787e-09
5.43739e-09
-4.27095e-09
5.33112e-09
1.8282e-06
-1.00401e-08
6.07891e-09
1.83624e-06
-9.50916e-09
5.78159e-09
1.84412e-06
-9.04674e-09
5.54538e-09
1.85193e-06
-8.62647e-09
5.35645e-09
1.85974e-06
-8.20505e-09
5.19208e-09
1.86755e-06
-7.74684e-09
5.00282e-09
-7.32652e-09
4.77312e-09
1.631e-06
-1.12914e-08
5.40249e-09
1.63569e-06
-1.08598e-08
5.0143e-09
1.64046e-06
-1.04677e-08
4.67103e-09
1.64537e-06
-1.00739e-08
4.35249e-09
1.65048e-06
-9.63789e-09
4.03469e-09
1.65574e-06
-9.14462e-09
3.66281e-09
-8.78865e-09
3.18861e-09
1.35535e-06
-9.23457e-09
5.01437e-09
1.35595e-06
-9.03269e-09
4.53259e-09
1.35677e-06
-8.82467e-09
4.0295e-09
1.35782e-06
-8.55576e-09
3.46289e-09
1.35911e-06
-8.18207e-09
2.79019e-09
1.36065e-06
-7.72898e-09
1.96281e-09
-7.6728e-09
9.39811e-10
9.83935e-07
5.21047e-09
9.77889e-07
4.72524e-09
9.71994e-07
4.1928e-09
9.66295e-07
3.51978e-09
9.60802e-07
2.61244e-09
9.55589e-07
1.36795e-09
-1.32525e-10
1.1086e-06
9.59396e-09
4.77679e-10
1.10355e-06
9.76288e-09
7.56135e-10
1.09795e-06
1.00349e-08
1.19159e-09
1.09171e-06
1.04159e-08
1.85299e-09
1.08478e-06
1.0831e-08
2.74223e-09
1.10353e-08
4.15638e-09
1.48036e-06
1.21834e-08
4.11691e-10
1.48223e-06
1.21502e-08
6.39003e-10
1.48389e-06
1.22293e-08
9.78606e-10
1.48532e-06
1.24625e-08
1.47272e-09
1.4864e-06
1.27973e-08
2.13695e-09
1.29216e-08
2.87249e-09
1.75113e-06
1.05506e-08
1.63869e-10
1.75756e-06
1.03205e-08
2.46932e-10
1.76386e-06
1.01908e-08
3.697e-10
1.77012e-06
1.0144e-08
5.34073e-10
1.7764e-06
1.01116e-08
7.23024e-10
1.00212e-08
9.17642e-10
1.94166e-06
6.0974e-09
-1.00848e-11
1.95144e-06
5.88397e-09
-1.39719e-11
1.96098e-06
5.72257e-09
-1.3529e-11
1.97035e-06
5.58909e-09
-7.65333e-12
1.97955e-06
5.43825e-09
3.6803e-12
5.33144e-09
1.61802e-11
2.04099e-06
2.37233e-11
-2.20223e-11
2.05262e-06
3.35767e-11
-3.15189e-11
2.06388e-06
4.46197e-11
-4.21548e-11
2.07481e-06
5.55072e-11
-5.26105e-11
2.08539e-06
6.45561e-11
-6.12115e-11
7.28915e-11
-6.8876e-11
2.04099e-06
-6.00402e-09
2.27963e-11
2.05262e-06
-5.74732e-09
3.26126e-11
2.06388e-06
-5.53342e-09
4.3685e-11
2.07481e-06
-5.34183e-09
5.47183e-11
2.08539e-06
-5.14099e-09
6.40085e-11
-5.00739e-09
7.3143e-11
1.93164e-06
-1.07745e-08
5.109e-12
1.94175e-06
-1.03463e-08
1.07314e-11
1.95155e-06
-1.00169e-08
1.49371e-11
1.96112e-06
-9.75874e-09
1.4853e-11
1.9705e-06
-9.54446e-09
9.87318e-12
1.97971e-06
-9.34215e-09
-2.9693e-13
-9.19968e-09
-1.10554e-11
1.74483e-06
-1.21468e-08
-1.07925e-10
1.75156e-06
-1.18905e-08
-1.63616e-10
1.75817e-06
-1.17092e-08
-2.46524e-10
1.76471e-06
-1.15819e-08
-3.69026e-10
1.77124e-06
-1.15073e-08
-5.32975e-10
1.77776e-06
-1.14726e-08
-7.21755e-10
-1.1589e-08
-9.15089e-10
1.47885e-06
-9.37147e-09
-2.63499e-10
1.48125e-06
-9.35246e-09
-4.1155e-10
1.48359e-06
-9.37783e-09
-6.38809e-10
1.48588e-06
-9.43084e-09
-9.78405e-10
1.48814e-06
-9.50235e-09
-1.47242e-09
1.49039e-06
-9.62685e-09
-2.13719e-09
-1.01422e-08
-2.87482e-09
1.11387e-06
-2.96732e-10
1.10972e-06
-4.76981e-10
1.10529e-06
-7.55319e-10
1.10057e-06
-1.19072e-09
1.09553e-06
-1.85203e-09
1.09001e-06
-2.73956e-09
-4.15625e-09
1.10971e-06
9.35376e-09
-4.72416e-09
1.10528e-06
9.37986e-09
-4.19147e-09
1.10055e-06
9.43408e-09
-3.51823e-09
1.09551e-06
9.50761e-09
-2.61036e-09
1.08998e-06
9.63455e-09
-1.36447e-09
1.01467e-08
1.38109e-10
1.48125e-06
1.18929e-08
-4.53256e-09
1.48358e-06
1.17122e-08
-4.02927e-09
1.48587e-06
1.15857e-08
-3.46258e-09
1.48813e-06
1.15124e-08
-2.78996e-09
1.49039e-06
1.14783e-08
-1.96352e-09
1.15883e-08
-9.41515e-10
1.75155e-06
1.0349e-08
-5.01418e-09
1.75816e-06
1.00201e-08
-4.67071e-09
1.76471e-06
9.76255e-09
-4.35195e-09
1.77124e-06
9.5487e-09
-4.03392e-09
1.77776e-06
9.34647e-09
-3.66187e-09
9.20284e-09
-3.18678e-09
1.94175e-06
6.00678e-09
-5.78113e-09
1.95155e-06
5.75058e-09
-5.54464e-09
1.96112e-06
5.53719e-09
-5.35531e-09
1.9705e-06
5.34609e-09
-5.19038e-09
1.97971e-06
5.14559e-09
-5.00014e-09
5.01175e-09
-4.76848e-09
2.04099e-06
-2.09185e-11
-6.09586e-09
2.05262e-06
-3.02932e-11
-5.88211e-09
2.06388e-06
-4.0805e-11
-5.72032e-09
2.07481e-06
-5.11673e-11
-5.5864e-09
2.08539e-06
-5.97757e-11
-5.43509e-09
-6.77457e-11
-5.32763e-09
2.04099e-06
-6.0948e-09
-6.005e-09
2.05262e-06
-5.88089e-09
-5.74841e-09
2.06388e-06
-5.71895e-09
-5.53454e-09
2.07481e-06
-5.58493e-09
-5.34281e-09
2.08539e-06
-5.43367e-09
-5.1416e-09
-5.32661e-09
-5.00699e-09
1.93157e-06
-1.09042e-08
-5.98313e-09
1.94166e-06
-1.05484e-08
-5.63193e-09
1.95144e-06
-1.03179e-08
-5.32671e-09
1.96098e-06
-1.01877e-08
-5.06028e-09
1.97035e-06
-1.01405e-08
-4.80362e-09
1.97956e-06
-1.01082e-08
-4.52774e-09
-1.00203e-08
-4.26885e-09
1.74454e-06
-1.23298e-08
-5.47633e-09
1.75114e-06
-1.21817e-08
-5.12609e-09
1.75757e-06
-1.21478e-08
-4.8451e-09
1.76387e-06
-1.22263e-08
-4.63069e-09
1.77012e-06
-1.24584e-08
-4.47235e-09
1.7764e-06
-1.27922e-08
-4.31344e-09
-1.29341e-08
-4.10213e-09
1.4783e-06
-9.52239e-09
-5.35049e-09
1.48037e-06
-9.59246e-09
-5.06517e-09
1.48223e-06
-9.76057e-09
-4.89007e-09
1.4839e-06
-1.00314e-08
-4.83763e-09
1.48532e-06
-1.04108e-08
-4.94767e-09
1.4864e-06
-1.08245e-08
-5.17847e-09
-1.10444e-08
-5.22652e-09
1.11318e-06
-5.67993e-09
1.10861e-06
-5.49957e-09
1.10356e-06
-5.46723e-09
1.09796e-06
-5.62384e-09
1.09173e-06
-6.03033e-09
1.08481e-06
-6.64044e-09
-8.17097e-09
9.77884e-07
9.03403e-09
-7.71109e-09
9.71988e-07
8.82651e-09
-7.12229e-09
9.66288e-07
8.5584e-09
-6.37601e-09
9.60793e-07
8.18571e-09
-5.30115e-09
9.55578e-07
7.73359e-09
-3.88257e-09
7.67724e-09
-1.49629e-09
1.35595e-06
1.08625e-08
-6.96813e-09
1.35677e-06
1.04708e-08
-6.49207e-09
1.35781e-06
1.00777e-08
-6.02537e-09
1.3591e-06
9.64276e-09
-5.53815e-09
1.36064e-06
9.15071e-09
-4.91897e-09
8.79556e-09
-3.90338e-09
1.63569e-06
9.51209e-09
-8.35416e-09
1.64046e-06
9.0502e-09
-8.0239e-09
1.64537e-06
8.63059e-09
-7.81603e-09
1.65048e-06
8.20994e-09
-7.70283e-09
1.65574e-06
7.75252e-09
-7.53286e-09
7.33268e-09
-7.05374e-09
1.83624e-06
5.63378e-09
-9.9414e-09
1.84412e-06
5.32894e-09
-9.70526e-09
1.85194e-06
5.06305e-09
-9.60015e-09
1.85975e-06
4.80721e-09
-9.59916e-09
1.86755e-06
4.53255e-09
-9.5854e-09
4.27532e-09
-9.37114e-09
1.94166e-06
-8.89626e-12
-1.05494e-08
1.95144e-06
-1.26235e-11
-1.03191e-08
1.96098e-06
-1.19178e-11
-1.0189e-08
1.97035e-06
-5.7998e-12
-1.01419e-08
1.97955e-06
5.8404e-12
-1.01092e-08
1.85054e-11
-1.0019e-08
1.94175e-06
-5.78006e-09
-1.03476e-08
1.95155e-06
-5.54341e-09
-1.00185e-08
1.96112e-06
-5.35389e-09
-9.76059e-09
1.97051e-06
-5.18868e-09
-9.5463e-09
1.97971e-06
-4.99794e-09
-9.34361e-09
-4.76547e-09
-9.19947e-09
1.8282e-06
-1.03144e-08
-1.00411e-08
1.83624e-06
-9.94052e-09
-9.51051e-09
1.84413e-06
-9.70429e-09
-9.0485e-09
1.85194e-06
-9.59918e-09
-8.62868e-09
1.85975e-06
-9.59817e-09
-8.20761e-09
1.86756e-06
-9.58428e-09
-7.74935e-09
-9.36897e-09
-7.32788e-09
1.63046e-06
-1.16664e-08
-8.59532e-09
1.63486e-06
-1.14646e-08
-8.00862e-09
1.63925e-06
-1.14448e-08
-7.49611e-09
1.64369e-06
-1.16371e-08
-7.02438e-09
1.6482e-06
-1.20274e-08
-6.55682e-09
1.65277e-06
-1.24685e-08
-5.99934e-09
-1.23084e-08
-5.29832e-09
1.35409e-06
-9.51766e-09
-7.45596e-09
1.35399e-06
-9.50896e-09
-6.92012e-09
1.35374e-06
-9.62668e-09
-6.46426e-09
1.35326e-06
-9.91128e-09
-6.08669e-09
1.35251e-06
-1.04117e-08
-5.81029e-09
1.35136e-06
-1.10337e-08
-5.46026e-09
-1.08713e-08
-4.53518e-09
9.82391e-07
-8.4153e-09
9.75373e-07
-7.9912e-09
9.67952e-07
-7.67265e-09
9.59909e-07
-7.4922e-09
9.51002e-07
-7.53489e-09
9.41285e-07
-7.95814e-09
-9.15381e-09
7.29759e-07
7.371e-09
-6.9765e-09
7.22292e-07
7.06301e-09
-6.71795e-09
7.15765e-07
6.58394e-09
-6.4318e-09
7.10487e-07
5.76385e-09
-5.78703e-09
7.07098e-07
4.55698e-09
-5.05019e-09
2.20364e-09
-1.9058e-09
1.11822e-06
8.51687e-09
-5.88043e-09
1.11642e-06
8.00798e-09
-5.63988e-09
1.11502e-06
7.43506e-09
-5.47637e-09
1.11389e-06
6.74135e-09
-5.38422e-09
1.11271e-06
5.83185e-09
-5.00975e-09
4.74294e-09
-3.49514e-09
1.41592e-06
8.01011e-09
-9.13242e-09
1.41742e-06
7.49763e-09
-9.0192e-09
1.41912e-06
7.02594e-09
-9.1065e-09
1.42102e-06
6.55863e-09
-9.41494e-09
1.42301e-06
6.00185e-09
-9.6941e-09
5.30435e-09
-9.12648e-09
1.63486e-06
5.12763e-09
-1.14653e-08
1.63925e-06
4.84699e-09
-1.14459e-08
1.64368e-06
4.633e-09
-1.16383e-08
1.6482e-06
4.4753e-09
-1.20286e-08
1.65276e-06
4.31755e-09
-1.24693e-08
4.10977e-09
-1.23103e-08
1.75114e-06
1.65027e-10
-1.21827e-08
1.75757e-06
2.48229e-10
-1.21494e-08
1.76387e-06
3.7116e-10
-1.22283e-08
1.77013e-06
5.35767e-10
-1.24613e-08
1.7764e-06
7.25147e-10
-1.27959e-08
9.20335e-10
-1.29224e-08
1.75156e-06
-5.01316e-09
-1.18919e-08
1.75817e-06
-4.6697e-09
-1.17111e-08
1.76471e-06
-4.35092e-09
-1.15846e-08
1.77125e-06
-4.03271e-09
-1.15111e-08
1.77776e-06
-3.6601e-09
-1.14768e-08
-3.18364e-09
-1.15865e-08
1.631e-06
-8.81394e-09
-1.12924e-08
1.63569e-06
-8.35329e-09
-1.08612e-08
1.64047e-06
-8.02323e-09
-1.04697e-08
1.64538e-06
-7.81563e-09
-1.00767e-08
1.65048e-06
-7.70269e-09
-9.64172e-09
1.65576e-06
-7.53283e-09
-9.1491e-09
-7.05116e-09
-8.79085e-09
1.41464e-06
-9.41524e-09
-9.03635e-09
1.41592e-06
-9.13178e-09
-8.51529e-09
1.41743e-06
-9.01851e-09
-8.00679e-09
1.41913e-06
-9.10589e-09
-7.43408e-09
1.42102e-06
-9.41458e-09
-6.74046e-09
1.42302e-06
-9.6972e-09
-5.82995e-09
-9.12766e-09
-4.72843e-09
1.11943e-06
-7.87598e-09
-5.92031e-09
1.11659e-06
-7.78282e-09
-5.4304e-09
1.11384e-06
-7.80659e-09
-4.92064e-09
1.111e-06
-7.99387e-09
-4.35712e-09
1.10789e-06
-8.42341e-09
-3.69357e-09
1.10435e-06
-9.07068e-09
-2.54613e-09
-8.78612e-09
2.08096e-10
7.36511e-07
-7.11829e-09
7.27468e-07
-6.73073e-09
7.18334e-07
-6.34538e-09
7.08798e-07
-5.94986e-09
6.98374e-07
-5.53447e-09
6.86504e-07
-5.15851e-09
-4.9735e-09
4.22976e-07
2.8348e-09
-1.96494e-09
4.15641e-07
2.5327e-09
-1.91535e-09
4.09051e-07
2.04969e-09
-1.89112e-09
4.03995e-07
1.10336e-09
-1.83414e-09
4.01655e-07
-4.82517e-10
-2.22702e-09
-7.31627e-09
1.70149e-09
8.04943e-07
5.4313e-09
-3.09573e-09
7.99913e-07
4.92135e-09
-2.99861e-09
7.95101e-07
4.3579e-09
-2.97169e-09
7.9011e-07
3.69439e-09
-2.98429e-09
7.84507e-07
2.54401e-09
-2.43331e-09
-2.04345e-10
-1.02413e-09
1.11659e-06
6.92083e-09
-7.78326e-09
1.11384e-06
6.46532e-09
-7.8076e-09
1.111e-06
6.08802e-09
-7.99562e-09
1.10789e-06
5.81188e-09
-8.42603e-09
1.10435e-06
5.46004e-09
-9.07248e-09
4.53683e-09
-8.78846e-09
1.35398e-06
5.06612e-09
-9.50998e-09
1.35374e-06
4.8915e-09
-9.62835e-09
1.35326e-06
4.83953e-09
-9.9137e-09
1.35251e-06
4.95002e-09
-1.04149e-08
1.35136e-06
5.18191e-09
-1.10376e-08
5.23054e-09
-1.08746e-08
1.48037e-06
4.1263e-10
-9.59382e-09
1.48223e-06
6.40084e-10
-9.76278e-09
1.4839e-06
9.79899e-10
-1.00349e-08
1.48533e-06
1.47435e-09
-1.0416e-08
1.48641e-06
2.13919e-09
-1.08316e-08
2.87569e-09
-1.10381e-08
1.48125e-06
-4.5317e-09
-9.35354e-09
1.48359e-06
-4.02855e-09
-9.37963e-09
1.48588e-06
-3.46191e-09
-9.4339e-09
1.48814e-06
-2.78918e-09
-9.5076e-09
1.4904e-06
-1.96199e-09
-9.63484e-09
-9.37141e-10
-1.01475e-08
1.35534e-06
-7.49548e-09
-9.23522e-09
1.35595e-06
-6.96713e-09
-9.03373e-09
1.35677e-06
-6.4916e-09
-8.82638e-09
1.35782e-06
-6.02533e-09
-8.55857e-09
1.35911e-06
-5.53861e-09
-8.18665e-09
1.36066e-06
-4.91916e-09
-7.73584e-09
-3.89263e-09
-7.68125e-09
1.12045e-06
-6.2029e-09
-7.6343e-09
1.11822e-06
-5.87915e-09
-7.37041e-09
1.11642e-06
-5.63922e-09
-7.06259e-09
1.11502e-06
-5.47593e-09
-6.58381e-09
1.11389e-06
-5.38408e-09
-5.76454e-09
1.11271e-06
-5.0102e-09
-4.55824e-09
-3.48115e-09
-2.20173e-09
8.10326e-07
-3.24083e-09
-3.05206e-09
8.04946e-07
-3.0951e-09
-2.83407e-09
7.99916e-07
-2.99811e-09
-2.53221e-09
7.95104e-07
-2.97102e-09
-2.04925e-09
7.90113e-07
-2.9833e-09
-1.10306e-09
7.84507e-07
-2.43273e-09
4.82167e-10
-1.01536e-09
7.31899e-09
4.3031e-07
-1.85099e-09
4.22105e-07
-1.62059e-09
4.14122e-07
-1.36007e-09
4.06252e-07
-1.05109e-09
3.98354e-07
-6.19876e-10
3.90524e-07
2.3941e-10
5.24234e-09
1.51891e-07
1.62072e-09
1.48616e-07
1.36005e-09
1.45674e-07
1.05106e-09
1.4322e-07
6.19763e-10
1.41233e-07
-2.39847e-10
-5.24091e-09
4.22102e-07
6.73071e-09
4.14118e-07
6.34568e-09
4.06247e-07
5.9506e-09
3.98347e-07
5.5354e-09
3.90514e-07
5.15952e-09
4.97387e-09
7.27463e-07
7.99188e-09
7.18328e-07
7.67371e-09
7.08789e-07
7.49392e-09
6.98361e-07
7.53724e-09
6.86485e-07
7.96259e-09
9.15607e-09
9.75369e-07
5.50048e-09
9.67946e-07
5.46842e-09
9.599e-07
5.62524e-09
9.50991e-07
6.03154e-09
9.41272e-07
6.64339e-09
8.16759e-09
1.10861e-06
4.77958e-10
1.10356e-06
7.5653e-10
1.09795e-06
1.19222e-09
1.09171e-06
1.85391e-09
1.08478e-06
2.74335e-09
4.15809e-09
1.10971e-06
-4.72434e-09
1.10528e-06
-4.1917e-09
1.10056e-06
-3.51851e-09
1.09551e-06
-2.611e-09
1.08999e-06
-1.36601e-09
1.34211e-10
9.83933e-07
-8.27004e-09
9.77886e-07
-7.71142e-09
9.71991e-07
-7.12268e-09
9.66291e-07
-6.37666e-09
9.60796e-07
-5.30272e-09
9.5558e-07
-3.88586e-09
-1.50788e-09
7.37866e-07
-7.2825e-09
7.29761e-07
-6.97637e-09
7.22293e-07
-6.71766e-09
7.15764e-07
-6.43128e-09
7.10484e-07
-5.78635e-09
7.07088e-07
-5.04806e-09
-1.90606e-09
4.30824e-07
-2.04229e-09
4.22978e-07
-1.9647e-09
4.15644e-07
-1.9151e-09
4.09054e-07
-1.89072e-09
4.03998e-07
-1.83332e-09
4.01657e-07
-2.22473e-09
1.70653e-09
1.55477e-07
1.51892e-07
1.48617e-07
1.45675e-07
1.43222e-07
1.41237e-07
9.76598e-08
-2.41478e-08
4.28149e-08
8.73309e-08
-3.0353e-08
4.0682e-08
8.27545e-08
-3.44834e-08
3.90599e-08
-3.54358e-08
3.79184e-08
2.52808e-07
-5.91508e-08
3.48975e-08
2.47198e-07
-6.00445e-08
3.53024e-08
2.43915e-07
-6.36749e-08
3.24746e-08
3.11127e-08
4.6119e-07
2.46988e-08
4.62117e-07
2.68675e-08
2.67529e-08
2.93649e-07
-1.50541e-08
7.99202e-08
2.70087e-07
-1.56554e-08
7.98994e-08
2.53901e-07
-2.03047e-08
7.55497e-08
-2.41106e-08
5.59946e-07
-4.99134e-08
6.53931e-08
5.5983e-07
-4.69748e-08
6.67369e-08
5.56164e-07
-4.85203e-08
6.43564e-08
8.07619e-07
4.98526e-08
8.11287e-07
5.09416e-08
5.10718e-08
5.31341e-07
-9.02705e-09
1.04815e-07
5.10362e-07
-5.93687e-09
1.06814e-07
-8.05664e-09
1.04715e-07
8.27915e-07
-3.576e-08
8.87365e-08
8.30628e-07
-3.22557e-08
9.03426e-08
-3.19273e-08
8.93956e-08
1.0719e-06
7.00643e-08
1.07609e-06
7.03837e-08
7.04144e-08
7.31482e-07
-4.04222e-09
7.17994e-07
-1.02469e-09
-7.80458e-10
1.03726e-06
-2.09162e-08
1.04047e-06
-1.81926e-08
-1.68377e-08
1.27547e-06
1.27985e-06
)
;

boundaryField
{
    inlet
    {
        type            calculated;
        value           nonuniform List<scalar> 0();
    }
    ami1
    {
        type            cyclicAMI;
        value           nonuniform List<scalar> 
100
(
1.48176e-07
4.05363e-07
7.05298e-07
9.49532e-07
1.08385e-06
1.07775e-06
9.31413e-07
6.73555e-07
3.79307e-07
1.48186e-07
3.79282e-07
7.74925e-07
1.10976e-06
1.36249e-06
1.49277e-06
1.48687e-06
1.34921e-06
1.09927e-06
7.74938e-07
4.05378e-07
6.73524e-07
1.09927e-06
1.42452e-06
1.66107e-06
1.78425e-06
1.78249e-06
1.65687e-06
1.42451e-06
1.10977e-06
7.05313e-07
9.31391e-07
1.34922e-06
1.65688e-06
1.87521e-06
1.98868e-06
1.98849e-06
1.8752e-06
1.66107e-06
1.36249e-06
9.49548e-07
1.07775e-06
1.48686e-06
1.78249e-06
1.9885e-06
2.09572e-06
2.09572e-06
1.98868e-06
1.78425e-06
1.49276e-06
1.08389e-06
1.08385e-06
1.49276e-06
1.78425e-06
1.98868e-06
2.09573e-06
2.09573e-06
1.98851e-06
1.7825e-06
1.48686e-06
1.07778e-06
9.49535e-07
1.36248e-06
1.66107e-06
1.87521e-06
1.9885e-06
1.98869e-06
1.87522e-06
1.6569e-06
1.34923e-06
9.31397e-07
7.05304e-07
1.10976e-06
1.42452e-06
1.6569e-06
1.7825e-06
1.78425e-06
1.66109e-06
1.42452e-06
1.09926e-06
6.73537e-07
4.05364e-07
7.74924e-07
1.09927e-06
1.34923e-06
1.48688e-06
1.49277e-06
1.3625e-06
1.10978e-06
7.74931e-07
3.79293e-07
1.48175e-07
3.79275e-07
6.73514e-07
9.31386e-07
1.07775e-06
1.08387e-06
9.49541e-07
7.05285e-07
4.05364e-07
1.48186e-07
)
;
    }
    walls
    {
        type            calculated;
        value           nonuniform List<scalar> 
283
(
0
0
0
0
0
0
0
0
0
0
0
0
0
0
0
0
0
0
0
0
0
0
0
0
0
0
0
0
0
0
0
0
0
0
0
0
0
0
0
0
0
0
0
0
0
0
0
0
0
0
0
0
0
0
0
0
0
0
0
0
0
0
0
0
0
0
0
0
0
0
0
0
0
0
0
0
0
0
0
0
0
0
0
0
0
0
0
0
0
0
0
0
0
0
0
0
0
0
0
0
0
0
0
0
0
0
0
0
0
0
0
0
0
0
0
0
0
0
0
0
0
0
0
0
0
0
0
0
0
0
0
0
0
0
0
0
0
0
0
0
0
0
0
0
0
0
0
0
0
0
0
0
0
0
0
0
0
0
0
0
0
0
0
0
0
0
0
0
0
0
0
0
0
0
0
0
0
0
0
0
0
0
0
0
0
0
0
0
0
0
0
0
0
0
0
0
0
0
0
0
0
0
0
0
0
0
0
0
0
0
0
0
0
0
0
0
0
0
0
0
0
0
0
0
0
0
0
0
0
0
0
0
0
0
0
0
0
0
0
0
0
0
0
0
0
0
0
0
0
0
0
0
0
0
0
0
0
0
2.90979e-14
2.43942e-14
1.84387e-14
2.90979e-14
2.43942e-14
1.84387e-14
2.90979e-14
2.43942e-14
1.84387e-14
2.90979e-14
2.43942e-14
-2.90979e-14
-2.43942e-14
-1.84387e-14
-1.28555e-14
-2.90979e-14
-2.43942e-14
-1.84387e-14
-1.28555e-14
-2.90979e-14
-2.43942e-14
-1.84387e-14
-1.28555e-14
-2.90979e-14
-2.43942e-14
)
;
    }
    ami2
    {
        type            cyclicAMI;
        value           nonuniform List<scalar> 
12
(
-1.16327e-07
-2.52702e-07
-4.56572e-07
-3.157e-07
-5.55582e-07
-8.07015e-07
-5.47209e-07
-8.24526e-07
-1.07088e-06
-7.41787e-07
-1.03477e-06
-1.27297e-06
)
;
    }
    outlet
    {
        type            calculated;
        value           nonuniform List<scalar> 0();
    }
    procBoundary2to0
    {
        type            processor;
        value           nonuniform List<scalar> 
28
(
8.0272e-08
2.42274e-07
-6.49074e-08
-8.84673e-08
-8.78385e-08
4.60816e-07
-8.91269e-08
2.4353e-07
7.24002e-08
5.52125e-07
-5.09193e-08
6.19606e-08
-7.5671e-08
-7.47168e-08
8.13465e-07
-7.50174e-08
4.89253e-07
8.29459e-07
-5.69916e-08
-5.58844e-08
1.08019e-06
-5.5375e-08
7.02437e-07
1.04136e-06
-3.57719e-08
-3.47749e-08
1.28459e-06
-3.39484e-08
)
;
    }
    procBoundary2to1
    {
        type            processor;
        value           nonuniform List<scalar> 9(1.19162e-07 1.21327e-07 1.21052e-07 1.03118e-07 1.04296e-07 1.04565e-07 8.24194e-08 8.25849e-08 8.27848e-08);
    }
    procBoundary2to3
    {
        type            processor;
        value           nonuniform List<scalar> 
110
(
-1.55477e-07
-4.30822e-07
-7.37865e-07
-9.83931e-07
-1.11386e-06
-1.11318e-06
5.67875e-09
-9.89173e-07
-7.45684e-07
-4.38819e-07
-1.59371e-07
-4.30308e-07
-8.10324e-07
-1.12045e-06
-1.35534e-06
-1.47884e-06
-1.4783e-06
5.34936e-09
-1.35413e-06
-1.12251e-06
-8.16157e-07
-4.39117e-07
-7.36508e-07
-1.11943e-06
-1.41463e-06
-1.631e-06
-1.74483e-06
-1.74454e-06
5.47533e-09
-1.62598e-06
-1.41359e-06
-1.12315e-06
-7.46489e-07
-9.82387e-07
-1.35408e-06
-1.63045e-06
-1.8282e-06
-1.93163e-06
-1.93156e-06
5.98224e-09
-1.81991e-06
-1.62634e-06
-1.35492e-06
-9.90109e-07
-1.11318e-06
-1.4783e-06
-1.74454e-06
-1.93156e-06
-2.02889e-06
-2.02889e-06
6.31407e-09
-1.9211e-06
-1.73795e-06
-1.47634e-06
-1.11773e-06
-1.11386e-06
-1.47884e-06
-1.74483e-06
-1.93163e-06
-2.02889e-06
-2.02889e-06
6.37366e-09
-1.92105e-06
-1.73775e-06
-1.47602e-06
-1.11732e-06
-9.83931e-07
-1.35534e-06
-1.631e-06
-1.8282e-06
-1.93157e-06
-1.93164e-06
6.07767e-09
-1.81991e-06
-1.62598e-06
-1.35413e-06
-9.89173e-07
-7.37865e-07
-1.12045e-06
-1.41463e-06
-1.63045e-06
-1.74454e-06
-1.74483e-06
5.40149e-09
-1.62634e-06
-1.41359e-06
-1.12251e-06
-7.45684e-07
-4.30822e-07
-8.10324e-07
-1.11943e-06
-1.35408e-06
-1.4783e-06
-1.47884e-06
5.01354e-09
-1.35492e-06
-1.12315e-06
-8.16156e-07
-4.38818e-07
-1.55477e-07
-4.30308e-07
-7.36508e-07
-9.82388e-07
-1.11318e-06
-1.11386e-06
5.20975e-09
-9.90108e-07
-7.46488e-07
-4.39116e-07
-1.59371e-07
)
;
    }
}


// ************************************************************************* //
