/*--------------------------------*- C++ -*----------------------------------*\
| =========                 |                                                 |
| \\      /  F ield         | OpenFOAM: The Open Source CFD Toolbox           |
|  \\    /   O peration     | Version:  2212                                  |
|   \\  /    A nd           | Website:  www.openfoam.com                      |
|    \\/     M anipulation  |                                                 |
\*---------------------------------------------------------------------------*/
FoamFile
{
    version     2.0;
    format      ascii;
    arch        "LSB;label=32;scalar=64";
    class       surfaceVectorField;
    location    "3";
    object      Uf;
}
// * * * * * * * * * * * * * * * * * * * * * * * * * * * * * * * * * * * * * //

dimensions      [0 1 -1 0 0 0 0];

internalField   nonuniform List<vector> 
1769
(
(0.0454162 0.000136629 2.82842e-05)
(0.0541919 0.000273123 0.000134615)
(0.0541508 0.000200523 0.000172955)
(0.0444369 0.000159465 -4.49763e-06)
(0.0531016 0.00027803 0.000111004)
(0.0530312 0.000208831 0.000121463)
(0.0435572 0.000209242 -7.23649e-05)
(0.0521073 0.000301503 6.3344e-05)
(0.0519802 0.000237113 4.96658e-05)
(0.0428235 0.000277671 -0.00020471)
(0.0512379 0.000352988 -4.23514e-05)
(0.0509949 0.00029469 -6.10865e-05)
(0.0422293 8.9882e-05 -0.000750437)
(0.0506488 0.00049029 -0.000157214)
(0.0501481 0.000350211 -0.000247271)
(0.0492495 0.00022774 -0.000912094)
(0.0486563 0.000129263 -0.00101326)
(0.0659588 0.000609158 0.000337584)
(0.0734098 0.000880213 0.000605536)
(0.0758388 0.000491203 0.000250622)
(0.064815 0.000599804 0.000291489)
(0.072364 0.000847007 0.000584593)
(0.0749303 0.000483264 0.000204995)
(0.0637874 0.000585614 0.000182214)
(0.0714085 0.000820525 0.000535198)
(0.0740883 0.000489838 0.000123874)
(0.062999 0.000608865 4.07617e-05)
(0.0705884 0.000764421 0.000414829)
(0.0733295 0.000494871 -3.16842e-05)
(0.0626339 0.000554686 -0.000332615)
(0.0700475 0.000700865 0.000275937)
(0.0727493 0.00050261 -0.000292085)
(0.068937 0.000381924 -0.000195323)
(0.0718735 0.000159828 -0.00125439)
(0.0814489 0.00103944 0.000859092)
(0.0861661 0.000908567 0.000982906)
(0.0887234 0.000960508 0.000835289)
(0.0806155 0.00096915 0.000831517)
(0.0854425 0.000824428 0.000968931)
(0.0881717 0.000907701 0.00080405)
(0.0798868 0.000880717 0.000771464)
(0.0847698 0.000720949 0.000938139)
(0.0876818 0.000853666 0.000747309)
(0.0792977 0.000763186 0.000674094)
(0.0841691 0.000576183 0.000876171)
(0.0872698 0.000785971 0.00064301)
(0.0789192 0.00051487 0.000497524)
(0.0836761 0.000385156 0.000794456)
(0.0869606 0.000695995 0.000486737)
(0.0830816 5.43669e-05 0.000695984)
(0.0866407 0.000441528 0.000204861)
(0.0907047 0.00075301 0.00112717)
(0.0928337 0.000538899 0.00115791)
(0.0963045 0.000738986 0.00118052)
(0.0901578 0.000649463 0.0011147)
(0.0923709 0.000462566 0.00116205)
(0.0960343 0.000656043 0.00116458)
(0.089629 0.000515943 0.00109118)
(0.0919035 0.00036646 0.00116402)
(0.0957795 0.000560545 0.00114201)
(0.0891193 0.000330301 0.00105753)
(0.0914331 0.000237503 0.00116116)
(0.0955426 0.000440298 0.00110853)
(0.0886354 7.30063e-05 0.00106913)
(0.090958 6.02262e-05 0.00115996)
(0.0953258 0.000278193 0.00107068)
(0.0904742 -0.00016388 0.00124689)
(0.0951564 5.93113e-05 0.00109965)
(0.0946057 0.000204857 0.00119119)
(0.0947517 -6.68814e-05 0.00119702)
(0.0995247 0.000232711 0.00130952)
(0.0942278 0.000137555 0.00121072)
(0.0943641 -0.00010594 0.00122299)
(0.0994102 0.000176694 0.00131632)
(0.093825 4.52702e-05 0.00123441)
(0.0939432 -0.00016705 0.0012588)
(0.099281 0.000104862 0.00132798)
(0.093395 -8.10223e-05 0.0012649)
(0.0934864 -0.00025988 0.00130265)
(0.099137 8.32415e-06 0.00134375)
(0.0929237 -0.000244595 0.00133815)
(0.0929743 -0.000384703 0.00135367)
(0.0989744 -0.000117437 0.0013687)
(0.092409 -0.000583295 0.00143045)
(0.0988287 -0.000270209 0.0014496)
(0.0945116 -0.000372409 0.00122882)
(0.0927057 -0.00064412 0.0011994)
(0.0994635 -0.000348773 0.00133695)
(0.094081 -0.000404175 0.00127107)
(0.0921646 -0.000635698 0.00123146)
(0.099312 -0.000360304 0.00136016)
(0.0936035 -0.000465831 0.00132703)
(0.09158 -0.000652152 0.00128065)
(0.0991323 -0.000393693 0.00139671)
(0.0930716 -0.000561473 0.00139143)
(0.0909406 -0.00070152 0.00135189)
(0.0989218 -0.000454987 0.00144711)
(0.0924806 -0.00073156 0.00144598)
(0.0902101 -0.000777992 0.00144148)
(0.0986638 -0.000543875 0.00150079)
(0.0893502 -0.000993539 0.00145114)
(0.0984088 -0.000695007 0.00152138)
(0.0911226 -0.000904604 0.00117672)
(0.0868154 -0.00100271 0.0010251)
(0.0964951 -0.000850714 0.00123157)
(0.0904717 -0.000858163 0.00119867)
(0.085979 -0.000936245 0.00103885)
(0.096154 -0.000792736 0.00124013)
(0.0897833 -0.000832246 0.00123733)
(0.0851314 -0.000881984 0.00106691)
(0.0957944 -0.000749318 0.00126449)
(0.0890373 -0.000832675 0.00130097)
(0.0842506 -0.000843076 0.00111624)
(0.0954038 -0.000722341 0.00131016)
(0.0882113 -0.000858758 0.00139588)
(0.0833061 -0.000828647 0.00120118)
(0.0949717 -0.000719462 0.00138288)
(0.0873104 -0.000986487 0.00144137)
(0.0822379 -0.000858938 0.00133558)
(0.0944758 -0.000732837 0.00147026)
(0.080858 -0.00102907 0.00136346)
(0.093949 -0.000831214 0.00142962)
(0.0822025 -0.00108647 0.000917832)
(0.0744376 -0.000885938 0.000648271)
(0.0892323 -0.000989018 0.000903461)
(0.0811932 -0.00101533 0.000938188)
(0.0732669 -0.00082085 0.000655842)
(0.0885688 -0.000913916 0.00091118)
(0.0801738 -0.000951322 0.000977142)
(0.0721203 -0.000751072 0.00067624)
(0.0879142 -0.000843591 0.000935188)
(0.0791096 -0.000896305 0.00104635)
(0.0709786 -0.000672204 0.000715664)
(0.0872473 -0.000776784 0.00098288)
(0.0779464 -0.000868517 0.00116437)
(0.0698084 -0.000579222 0.000782792)
(0.0865395 -0.000713808 0.00106599)
(0.0766219 -0.000886003 0.00126304)
(0.0685773 -0.000481266 0.000878186)
(0.0857382 -0.000661593 0.00117846)
(0.0669041 -0.000378367 0.00106434)
(0.0848212 -0.000601183 0.0011526)
(0.0671025 -0.000559557 0.000395866)
(0.0553406 -0.000215071 0.000198951)
(0.0767734 -0.000456379 0.000331394)
(0.0658231 -0.000490198 0.000402772)
(0.0541513 -0.000172941 0.00020047)
(0.0757821 -0.000401727 0.000331019)
(0.0645783 -0.000398046 0.000421653)
(0.0530318 -0.00012146 0.000208778)
(0.0748331 -0.00032921 0.000346133)
(0.0633513 -0.000280669 0.000459519)
(0.051981 -4.96352e-05 0.00023705)
(0.0739125 -0.000232264 0.000382964)
(0.0621201 -0.000129333 0.00051061)
(0.050996 6.11509e-05 0.000294602)
(0.0729929 -9.94532e-05 0.000441436)
(0.0608999 7.89489e-05 0.000680526)
(0.0501497 0.000247407 0.000350011)
(0.0720551 0.000132666 0.000450577)
(0.048659 0.00101349 0.000128958)
(0.0710517 0.000601278 0.000421092)
(0.0464886 -5.67838e-05 0.000131109)
(0.0553649 -0.00015221 0.000276677)
(0.0454166 -2.82729e-05 0.00013657)
(0.0541923 -0.000134596 0.000273071)
(0.0444374 4.50451e-06 0.000159418)
(0.0531021 -0.00011098 0.000277973)
(0.043558 7.23893e-05 0.0002092)
(0.0521081 -6.32928e-05 0.000301445)
(0.0428245 0.00020475 0.000277616)
(0.0512389 4.24318e-05 0.000352949)
(0.0422309 0.000750554 8.97171e-05)
(0.0506502 0.000157317 0.000490233)
(0.0492515 0.000912387 0.000227415)
(0.0658225 0.000402847 0.000490257)
(0.0757817 0.000331058 0.00040179)
(0.0732664 0.000655908 0.000820942)
(0.0645775 0.000421766 0.000398143)
(0.0748325 0.000346168 0.000329262)
(0.0721196 0.000676361 0.000751234)
(0.0633501 0.00045969 0.000280825)
(0.0739117 0.000383027 0.000232349)
(0.0709776 0.000715859 0.000672458)
(0.0621184 0.000510944 0.000129621)
(0.0729918 0.000441563 9.95934e-05)
(0.069807 0.00078311 0.000579598)
(0.0608971 0.000680954 -7.85825e-05)
(0.0720536 0.000450882 -0.00013239)
(0.0685752 0.000878794 0.000481904)
(0.0710492 0.000421509 -0.00060088)
(0.0669002 0.00106499 0.000379086)
(0.0872209 0.000412709 0.00027471)
(0.0917913 0.000687512 0.000604706)
(0.0917407 0.00070464 0.000592688)
(0.0866759 0.000422479 0.000188603)
(0.0914101 0.000670621 0.000541073)
(0.0913292 0.000708352 0.00051687)
(0.0861544 0.000456328 6.57748e-05)
(0.0910615 0.000671743 0.000454127)
(0.0909336 0.000737718 0.000425803)
(0.0856136 0.000471948 -0.000154268)
(0.0907271 0.000694746 0.000327661)
(0.0905327 0.000797043 0.00031143)
(0.0850066 0.00034401 -0.000636859)
(0.0903723 0.000704062 0.000104881)
(0.0900897 0.000830294 0.000133199)
(0.090343 0.000608809 -0.00033509)
(0.0899889 0.000675476 -0.000225009)
(0.0966548 0.000839952 0.000874722)
(0.0994272 0.000757017 0.0010979)
(0.0996993 0.000972334 0.000978589)
(0.0964994 0.000805971 0.000810265)
(0.099362 0.000699876 0.00105325)
(0.0996558 0.000942116 0.000914557)
(0.0963784 0.000781248 0.000718804)
(0.0993236 0.000646121 0.00099691)
(0.0996382 0.000927482 0.000838621)
(0.0962806 0.000758025 0.000585054)
(0.0993088 0.000593468 0.000918905)
(0.0996433 0.000928416 0.000742989)
(0.0961784 0.000697993 0.000394971)
(0.0993064 0.00052801 0.000811297)
(0.0996596 0.00092512 0.000618437)
(0.0994578 0.000411492 0.000684969)
(0.0998551 0.00086721 0.000479976)
(0.10238 0.000647593 0.00130182)
(0.103571 0.000474545 0.00141649)
(0.104467 0.000738984 0.00134819)
(0.102442 0.000573389 0.00126738)
(0.103681 0.000410213 0.00139467)
(0.104642 0.000678386 0.00130349)
(0.102521 0.000493528 0.00122747)
(0.103796 0.000337405 0.0013744)
(0.104829 0.000620457 0.00125827)
(0.102619 0.000401349 0.00118036)
(0.10392 0.000250747 0.00135305)
(0.105031 0.000560361 0.00120778)
(0.102735 0.00028456 0.00114451)
(0.104051 0.000143777 0.00133219)
(0.105249 0.000489278 0.00115099)
(0.104261 8.51154e-06 0.00133989)
(0.10555 0.000392222 0.0011152)
(0.104923 0.000208004 0.00151188)
(0.104815 -5.32961e-05 0.00153313)
(0.10661 0.000257052 0.00152888)
(0.105089 0.000147614 0.001505)
(0.104968 -8.27868e-05 0.00153172)
(0.106896 0.000213718 0.00150712)
(0.105251 7.23488e-05 0.00150446)
(0.105112 -0.000126864 0.00154005)
(0.107176 0.000162984 0.00149266)
(0.105411 -2.19424e-05 0.00151108)
(0.105249 -0.00019102 0.00156168)
(0.107454 0.000101524 0.00148547)
(0.105571 -0.000134219 0.00153613)
(0.105377 -0.000277304 0.00159343)
(0.107734 2.67146e-05 0.00148386)
(0.105587 -0.000372933 0.00161671)
(0.108075 -5.7628e-05 0.00150118)
(0.104861 -0.000338389 0.00155297)
(0.103488 -0.00053958 0.00147103)
(0.106575 -0.000328523 0.00156373)
(0.104993 -0.000350286 0.00156677)
(0.10355 -0.000515516 0.0014823)
(0.106841 -0.00032444 0.00155955)
(0.105111 -0.000381623 0.00159727)
(0.103598 -0.000505826 0.00151398)
(0.107094 -0.000333226 0.00156939)
(0.105212 -0.000434132 0.00164403)
(0.10363 -0.000515462 0.00156904)
(0.107339 -0.000356644 0.00159861)
(0.105288 -0.000498642 0.00167401)
(0.103646 -0.000540352 0.00163234)
(0.107579 -0.00039207 0.00164052)
(0.103778 -0.000548624 0.00160989)
(0.107889 -0.000429781 0.00165531)
(0.10224 -0.000743473 0.00139729)
(0.0994485 -0.000806031 0.00119537)
(0.104249 -0.000808233 0.00144647)
(0.102232 -0.000686919 0.0014015)
(0.0993145 -0.000734189 0.00118662)
(0.104386 -0.0007452 0.00142714)
(0.102213 -0.000640804 0.00143021)
(0.0991845 -0.000669342 0.00119984)
(0.104516 -0.000692511 0.00143061)
(0.102177 -0.000608658 0.00148576)
(0.0990472 -0.000610218 0.00124067)
(0.104639 -0.000648883 0.001461)
(0.102121 -0.00059156 0.00155681)
(0.0988948 -0.000559248 0.00131267)
(0.104756 -0.000616905 0.00151616)
(0.102033 -0.000568049 0.00156858)
(0.0987141 -0.000497872 0.00138429)
(0.104869 -0.000590599 0.00157729)
(0.0987308 -0.000385509 0.00130417)
(0.105088 -0.00054807 0.00156132)
(0.0967598 -0.000825722 0.00100734)
(0.0921832 -0.000659832 0.000720329)
(0.0997352 -0.000970092 0.0011028)
(0.0965144 -0.00074829 0.00100807)
(0.091741 -0.000592555 0.000704547)
(0.099642 -0.000893449 0.001079)
(0.0962763 -0.000672462 0.00103368)
(0.0913296 -0.000516722 0.000708254)
(0.0995643 -0.000820153 0.00107791)
(0.0960307 -0.000594819 0.00109061)
(0.0909341 -0.000425601 0.000737582)
(0.0994933 -0.000745542 0.00110465)
(0.0957622 -0.000501747 0.00116292)
(0.0905332 -0.000311143 0.000796826)
(0.0994229 -0.000665799 0.00116274)
(0.0954565 -0.000359797 0.00114452)
(0.0900903 -0.000132743 0.000829899)
(0.0993388 -0.000563964 0.00122108)
(0.0899896 0.000225818 0.000674802)
(0.0994531 -0.000420438 0.00117139)
(0.0878043 -0.00033915 0.000423957)
(0.0768072 -0.000276374 0.000513454)
(0.0922151 -0.000656946 0.000719712)
(0.0872213 -0.000274606 0.000412606)
(0.0758392 -0.000250531 0.000491078)
(0.0917917 -0.000604533 0.000687376)
(0.0866764 -0.000188525 0.000422405)
(0.0749308 -0.000204899 0.00048315)
(0.0914105 -0.000540944 0.000670522)
(0.086155 -6.56783e-05 0.000456239)
(0.0740891 -0.000123749 0.000489713)
(0.0910619 -0.000453969 0.000671621)
(0.0856144 0.000154399 0.000471826)
(0.0733305 3.18402e-05 0.000494748)
(0.0907276 -0.000327451 0.000694587)
(0.0850075 0.00063717 0.000343707)
(0.0727506 0.000292322 0.000502452)
(0.090373 -0.000104608 0.000703845)
(0.0718751 0.0012548 0.000159492)
(0.0903437 0.000335575 0.000608375)
(0.0671827 -0.000354005 0.00062878)
(0.0745225 -0.000613628 0.000925989)
(0.0659594 -0.000337496 0.000609024)
(0.0734102 -0.000605476 0.000880135)
(0.0648158 -0.000291358 0.000599651)
(0.0723645 -0.000584475 0.000846895)
(0.0637884 -0.000182029 0.000585457)
(0.0714092 -0.000535014 0.000820372)
(0.0630004 -4.05262e-05 0.000608714)
(0.0705895 -0.000414539 0.000764231)
(0.0626359 0.000332909 0.000554499)
(0.070049 -0.000275547 0.000700643)
(0.0689388 0.000195782 0.000381712)
(0.0811926 0.000938292 0.00101551)
(0.0885684 0.000911206 0.000914032)
(0.0859786 0.00103894 0.000936454)
(0.080173 0.000977327 0.000951594)
(0.0879137 0.000935287 0.000843777)
(0.0851308 0.00106706 0.000882272)
(0.0791085 0.00104667 0.000896709)
(0.0872466 0.000983069 0.000777063)
(0.0842497 0.00111649 0.000843474)
(0.0779448 0.00116492 0.000869119)
(0.0865386 0.00106635 0.000714236)
(0.0833049 0.00120158 0.000829184)
(0.0766196 0.00126384 0.000886839)
(0.085737 0.00117914 0.000662277)
(0.0822362 0.00133624 0.000859637)
(0.084819 0.00115358 0.000602149)
(0.080855 0.00136433 0.00103002)
(0.0965142 0.00100814 0.000748422)
(0.0996417 0.00107907 0.000893586)
(0.0993143 0.00118667 0.000734326)
(0.096276 0.00103382 0.00067266)
(0.0995641 0.00107803 0.000820335)
(0.0991843 0.00119997 0.000669538)
(0.0960304 0.00109085 0.000595121)
(0.0994931 0.00110482 0.000745785)
(0.0990469 0.00124087 0.000610481)
(0.0957619 0.0011634 0.000502247)
(0.0994226 0.00116302 0.000666154)
(0.0988945 0.001313 0.00055963)
(0.0954561 0.00114526 0.000360571)
(0.0993387 0.00122155 0.000564518)
(0.0987138 0.00138486 0.000498451)
(0.0994531 0.00117199 0.00042126)
(0.0987308 0.00130489 0.000386269)
(0.103046 0.00107504 0.000961672)
(0.104823 0.000935838 0.00114673)
(0.104802 0.00122809 0.000881076)
(0.103155 0.00106605 0.000888339)
(0.105025 0.000901224 0.00108241)
(0.104993 0.00121038 0.000817117)
(0.103279 0.00107917 0.000809137)
(0.105237 0.000882495 0.00101734)
(0.105192 0.00121567 0.000755555)
(0.103417 0.00110086 0.000716863)
(0.105463 0.0008766 0.000947219)
(0.105402 0.00124071 0.00069209)
(0.103562 0.00109475 0.000608747)
(0.105705 0.000864854 0.0008651)
(0.105623 0.00126368 0.000617306)
(0.106056 0.000813782 0.000779313)
(0.105952 0.00124292 0.000529858)
(0.106934 0.000767204 0.00128021)
(0.107642 0.000540364 0.00139257)
(0.107991 0.000872863 0.00111723)
(0.107246 0.000724451 0.00122512)
(0.108003 0.000500455 0.00134634)
(0.10838 0.000831659 0.00106285)
(0.107567 0.000688468 0.00117039)
(0.108363 0.000463295 0.00130558)
(0.108769 0.000799722 0.00101304)
(0.1079 0.000652283 0.00111221)
(0.108727 0.000426085 0.00126713)
(0.109162 0.000773873 0.000962656)
(0.108245 0.00060413 0.00105539)
(0.109105 0.000382234 0.00122732)
(0.109569 0.000744762 0.000907928)
(0.109545 0.000325126 0.00119514)
(0.110041 0.000701686 0.000858887)
(0.10874 0.000262705 0.00146151)
(0.108523 -1.9948e-05 0.00149548)
(0.109467 0.000312396 0.00125306)
(0.10915 0.000230131 0.0014301)
(0.108932 -3.01156e-05 0.00146765)
(0.109955 0.000287583 0.00121356)
(0.109557 0.000194781 0.00140631)
(0.109332 -4.51564e-05 0.00145105)
(0.110431 0.000262395 0.00118275)
(0.109962 0.000154943 0.00138718)
(0.109729 -6.53129e-05 0.00144485)
(0.110901 0.000235158 0.00115732)
(0.110367 0.000110757 0.00137321)
(0.110131 -8.85081e-05 0.00144257)
(0.111375 0.000203899 0.00113341)
(0.110582 -0.000112442 0.00143829)
(0.111897 0.00017076 0.00111667)
(0.108714 -0.000310897 0.00150162)
(0.10761 -0.000550771 0.00144621)
(0.109454 -0.000330373 0.0012772)
(0.109113 -0.000302732 0.00148861)
(0.107954 -0.000516846 0.00142904)
(0.109936 -0.000314891 0.00124952)
(0.109504 -0.000302036 0.00148959)
(0.108293 -0.000490114 0.00143009)
(0.110405 -0.000304664 0.00123394)
(0.109893 -0.0003059 0.00150024)
(0.108634 -0.000469403 0.00144749)
(0.110867 -0.0002986 0.00122835)
(0.110282 -0.000311394 0.00150765)
(0.108981 -0.000448557 0.00146745)
(0.111331 -0.000293301 0.00122453)
(0.109389 -0.000423065 0.00146408)
(0.111841 -0.000289024 0.00121369)
(0.106591 -0.000803854 0.00140039)
(0.104618 -0.000951818 0.00126678)
(0.107584 -0.000907909 0.00121456)
(0.106879 -0.000744123 0.00137537)
(0.104802 -0.00088089 0.00122797)
(0.107969 -0.000845972 0.00117266)
(0.107166 -0.000692882 0.00137214)
(0.104993 -0.000816905 0.00121024)
(0.108346 -0.000792768 0.00114722)
(0.107456 -0.000647547 0.00138938)
(0.105192 -0.0007553 0.0012155)
(0.10872 -0.000746344 0.00113756)
(0.107751 -0.000603185 0.00141584)
(0.105402 -0.000691767 0.0012405)
(0.109097 -0.000702546 0.00114065)
(0.108049 -0.000553911 0.00142509)
(0.105623 -0.000616902 0.00126344)
(0.109482 -0.000655767 0.00114241)
(0.105952 -0.000529371 0.00124271)
(0.10993 -0.00060724 0.00111963)
(0.102952 -0.00103449 0.00110601)
(0.0997714 -0.00104083 0.00101884)
(0.104632 -0.00121578 0.000986572)
(0.103046 -0.000961479 0.00107491)
(0.0996995 -0.000978364 0.000972174)
(0.104823 -0.00114654 0.000935723)
(0.103155 -0.000888111 0.0010659)
(0.0996561 -0.000914332 0.000941971)
(0.105025 -0.0010822 0.000901103)
(0.103279 -0.000808845 0.00107899)
(0.0996385 -0.000838349 0.00092732)
(0.105237 -0.00101708 0.000882363)
(0.103417 -0.000716466 0.00110063)
(0.0996436 -0.000742637 0.000928221)
(0.105463 -0.000946886 0.000876453)
(0.103561 -0.000608163 0.00109447)
(0.0996598 -0.000617984 0.000924883)
(0.105705 -0.000864677 0.000864692)
(0.0998551 -0.000479303 0.000866915)
(0.106056 -0.000778743 0.00081365)
(0.096848 -0.000926286 0.000884262)
(0.0893259 -0.000857844 0.00101977)
(0.0995202 -0.00114111 0.000821408)
(0.096655 -0.000874509 0.000839786)
(0.0887237 -0.000835139 0.000960381)
(0.0994274 -0.00109769 0.000756859)
(0.0964997 -0.000810046 0.00080582)
(0.0881721 -0.00080385 0.000907566)
(0.0993623 -0.00105304 0.000699742)
(0.0963788 -0.000718528 0.000781079)
(0.0876823 -0.000747027 0.000853502)
(0.0993239 -0.000996641 0.000645976)
(0.096281 -0.000584706 0.000757829)
(0.0872705 -0.000642609 0.000785771)
(0.0993092 -0.000918539 0.000593294)
(0.0961788 -0.000394549 0.000697762)
(0.0869614 -0.000486208 0.000695772)
(0.0993067 -0.000810837 0.000527791)
(0.0866417 -0.000204337 0.000441313)
(0.0994581 -0.000684548 0.000411216)
(0.0823539 -0.00087286 0.00110768)
(0.086928 -0.000991722 0.000989447)
(0.0814493 -0.000858984 0.00103935)
(0.0861665 -0.000982828 0.000908525)
(0.080616 -0.000831334 0.000969024)
(0.085443 -0.000968783 0.000824358)
(0.0798876 -0.000771172 0.000880555)
(0.0847705 -0.000937889 0.000720843)
(0.0792987 -0.000673659 0.000763)
(0.08417 -0.000875774 0.000576048)
(0.0789207 -0.000496962 0.000514675)
(0.0836773 -0.000793885 0.000385018)
(0.083083 -0.000695289 5.43159e-05)
(0.0904713 0.00119881 0.000858457)
(0.0961537 0.00124021 0.000792934)
(0.0927054 0.0011995 0.000644378)
(0.0897827 0.00123754 0.000832638)
(0.095794 0.00126464 0.000749598)
(0.0921642 0.00123161 0.000636035)
(0.0890365 0.00130129 0.000833181)
(0.0954033 0.0013104 0.00072271)
(0.0915794 0.00128085 0.000652588)
(0.0882102 0.00139638 0.000859369)
(0.0949711 0.00138325 0.000719941)
(0.0909399 0.00135219 0.000702085)
(0.0873089 0.00144208 0.000987271)
(0.094475 0.00147084 0.00073342)
(0.0902091 0.00144191 0.000778708)
(0.0939481 0.00143041 0.000831973)
(0.0893489 0.00145162 0.000994427)
(0.102232 0.0014016 0.000687096)
(0.104385 0.00142722 0.000745354)
(0.103488 0.0014711 0.000539748)
(0.102213 0.0014304 0.000641054)
(0.104516 0.00143077 0.000692723)
(0.10355 0.00148245 0.000515751)
(0.102177 0.00148605 0.000608988)
(0.104639 0.00146123 0.000649152)
(0.103597 0.0015142 0.000506126)
(0.10212 0.00155723 0.000591994)
(0.104756 0.00151646 0.000617246)
(0.10363 0.00156935 0.00051584)
(0.102033 0.00156912 0.000568572)
(0.104869 0.00157768 0.00059102)
(0.103646 0.00163276 0.000540809)
(0.105088 0.00156166 0.000548499)
(0.103778 0.00161027 0.000549042)
(0.106879 0.0013755 0.000744309)
(0.107969 0.00117276 0.000846148)
(0.10761 0.00144632 0.00055094)
(0.107166 0.0013723 0.00069311)
(0.108346 0.00114734 0.000792982)
(0.107954 0.00142919 0.000517051)
(0.107456 0.00138958 0.000647822)
(0.10872 0.0011377 0.0007466)
(0.108293 0.00143028 0.000490358)
(0.107751 0.00141607 0.000603504)
(0.109097 0.0011408 0.000702847)
(0.108634 0.00144771 0.000469686)
(0.108049 0.00142526 0.000554228)
(0.109482 0.00114255 0.0006561)
(0.108981 0.00146769 0.000448861)
(0.109931 0.00111964 0.000607539)
(0.109389 0.0014642 0.000423311)
(0.109512 0.00094322 0.000900129)
(0.109855 0.000658482 0.000974287)
(0.109852 0.00100001 0.000639612)
(0.109982 0.000913261 0.000852065)
(0.110374 0.000631831 0.000927493)
(0.110371 0.00096535 0.00060429)
(0.110447 0.000891925 0.000807501)
(0.110882 0.000610583 0.000887918)
(0.110878 0.000940764 0.000573279)
(0.110913 0.000873721 0.000761618)
(0.111383 0.000592168 0.000851092)
(0.111379 0.000923278 0.000543228)
(0.111379 0.000850501 0.000716287)
(0.111889 0.000570759 0.000813504)
(0.111885 0.000906015 0.000510928)
(0.112445 0.000544254 0.00078059)
(0.112438 0.000883969 0.000480922)
(0.110734 0.000339566 0.00100314)
(0.110448 1.37583e-06 0.00103229)
(0.110882 0.000362076 0.000702185)
(0.111293 0.000322575 0.000965002)
(0.111014 1.87171e-06 0.000993989)
(0.111489 0.000345779 0.000672224)
(0.111838 0.000306026 0.000933408)
(0.111564 1.84256e-06 0.000964861)
(0.112075 0.000331183 0.000647279)
(0.112373 0.000288004 0.000905253)
(0.112103 1.21289e-06 0.000941661)
(0.112647 0.000316409 0.000624957)
(0.112898 0.000268504 0.000880553)
(0.112642 -8.89533e-08 0.000920199)
(0.113215 0.000297476 0.000601591)
(0.113226 -1.5303e-06 0.000901042)
(0.113834 0.000285165 0.000586033)
(0.110729 -0.000335274 0.00102314)
(0.109852 -0.000639427 0.000999908)
(0.11088 -0.000357384 0.000712917)
(0.111286 -0.000317508 0.000993848)
(0.110371 -0.000604067 0.000965232)
(0.111486 -0.000339194 0.000688014)
(0.11183 -0.000301555 0.000973114)
(0.110878 -0.000573015 0.000940637)
(0.112072 -0.000323183 0.000669209)
(0.112365 -0.000285912 0.000956607)
(0.111379 -0.000542922 0.00092315)
(0.112643 -0.000307854 0.000653692)
(0.112889 -0.000270446 0.000940687)
(0.111885 -0.000510591 0.000905911)
(0.11321 -0.000289738 0.000636184)
(0.112438 -0.000480586 0.000883955)
(0.113827 -0.000279122 0.000623807)
(0.109032 -0.000955069 0.000984072)
(0.107599 -0.00117912 0.000925397)
(0.109319 -0.00102981 0.00069204)
(0.109512 -0.000899925 0.000943115)
(0.107992 -0.00111704 0.00087275)
(0.109855 -0.000974102 0.00065838)
(0.109982 -0.000851823 0.000913152)
(0.10838 -0.00106263 0.000831542)
(0.110374 -0.000927269 0.000631728)
(0.110448 -0.000807219 0.000891819)
(0.108769 -0.00101278 0.000799602)
(0.110882 -0.000887656 0.000610488)
(0.110913 -0.000761303 0.000873639)
(0.109162 -0.000962339 0.00077376)
(0.111383 -0.000850796 0.000592092)
(0.111379 -0.000715972 0.000850505)
(0.109569 -0.00090757 0.00074467)
(0.111889 -0.000813191 0.00057074)
(0.110041 -0.000858516 0.000701681)
(0.112445 -0.00078031 0.000544379)
(0.106627 -0.0013398 0.000819542)
(0.104302 -0.00139723 0.000805452)
(0.10728 -0.00144819 0.000585159)
(0.106934 -0.00128 0.000767079)
(0.104467 -0.00134797 0.000738839)
(0.107642 -0.00139238 0.000540232)
(0.107246 -0.00122487 0.000724324)
(0.104642 -0.00130325 0.000678245)
(0.108003 -0.00134611 0.000500319)
(0.107567 -0.00117008 0.000688342)
(0.104829 -0.00125797 0.000620307)
(0.108363 -0.00130531 0.000463154)
(0.1079 -0.00111184 0.00065216)
(0.105031 -0.00120739 0.000560199)
(0.108727 -0.00126682 0.000425943)
(0.108245 -0.00105498 0.000604031)
(0.10525 -0.00115052 0.000489082)
(0.109105 -0.00122698 0.000382089)
(0.105551 -0.0011148 0.000391995)
(0.109545 -0.00119491 0.000325051)
(0.102335 -0.00133632 0.00072115)
(0.0965886 -0.0011958 0.000820098)
(0.103468 -0.00144418 0.000535396)
(0.102381 -0.0013016 0.000647435)
(0.0963047 -0.00118038 0.000738886)
(0.103572 -0.0014163 0.000474382)
(0.102442 -0.00126711 0.000573229)
(0.0960347 -0.00116437 0.000655938)
(0.103681 -0.00139443 0.000410043)
(0.102521 -0.0012271 0.000493346)
(0.09578 -0.00114168 0.00056042)
(0.103797 -0.00137407 0.000337213)
(0.102619 -0.00117987 0.000401118)
(0.0955432 -0.00110805 0.000440163)
(0.10392 -0.00135257 0.000250514)
(0.102735 -0.00114404 0.000284244)
(0.0953265 -0.00107002 0.000278062)
(0.104051 -0.0013316 0.000143408)
(0.0951572 -0.00109897 5.9285e-05)
(0.104262 -0.00134009 8.0068e-06)
(0.0912659 -0.00113392 0.000843729)
(0.0932913 -0.001155 0.00060831)
(0.0907051 -0.00112705 0.000752957)
(0.0928341 -0.00115781 0.000538837)
(0.0901584 -0.00111447 0.000649396)
(0.0923713 -0.00116187 0.000462492)
(0.0896297 -0.00109082 0.000515872)
(0.0919042 -0.00116371 0.000366373)
(0.0891203 -0.00105701 0.000330273)
(0.0914341 -0.00116063 0.000237433)
(0.0886367 -0.00106845 7.31656e-05)
(0.0909595 -0.00115916 6.02644e-05)
(0.0904759 -0.00124603 -0.000163647)
(0.0945113 0.00122893 0.000372703)
(0.0994633 0.00133704 0.000349003)
(0.0947515 0.00119707 6.71275e-05)
(0.0940807 0.00127121 0.000404552)
(0.0993117 0.00136028 0.000360598)
(0.0943638 0.00122307 0.000106258)
(0.093603 0.00132721 0.000466309)
(0.0991319 0.00139688 0.000394061)
(0.093943 0.00125889 0.000167453)
(0.093071 0.00139163 0.000562096)
(0.0989215 0.00144733 0.000455443)
(0.0934861 0.00130275 0.000260397)
(0.09248 0.00144614 0.000732325)
(0.0986633 0.00150107 0.000544443)
(0.0929739 0.00135377 0.000385361)
(0.0984084 0.00152152 0.000695595)
(0.0924087 0.00143046 0.000584089)
(0.104861 0.00155309 0.000338616)
(0.106575 0.00156384 0.000328713)
(0.104815 0.00153323 5.35016e-05)
(0.104993 0.00156694 0.000350566)
(0.106841 0.0015597 0.000324671)
(0.104968 0.00153185 8.3042e-05)
(0.105111 0.0015975 0.000381962)
(0.107094 0.0015696 0.000333503)
(0.105112 0.00154023 0.000127175)
(0.105212 0.00164433 0.000434521)
(0.107339 0.00159888 0.000356966)
(0.105249 0.00156192 0.000191388)
(0.105288 0.00167425 0.00049901)
(0.107578 0.00164084 0.000392411)
(0.105377 0.00159372 0.000277709)
(0.107889 0.00165548 0.000430048)
(0.105586 0.00161699 0.000373296)
(0.108714 0.00150175 0.000311089)
(0.109454 0.00127732 0.000330555)
(0.108523 0.00149561 2.01262e-05)
(0.109113 0.00148878 0.000302957)
(0.109936 0.00124966 0.000315109)
(0.108932 0.00146781 3.03279e-05)
(0.109504 0.0014898 0.000302292)
(0.110405 0.00123411 0.000304919)
(0.109332 0.00145125 4.5406e-05)
(0.109893 0.00150049 0.000306168)
(0.110867 0.00122855 0.000298889)
(0.109728 0.0014451 6.55941e-05)
(0.110282 0.00150786 0.000311627)
(0.111331 0.00122473 0.000293604)
(0.110131 0.00144285 8.88008e-05)
(0.111841 0.00121382 0.000289307)
(0.110582 0.00143859 0.000112704)
(0.110729 0.00102326 0.000335483)
(0.11088 0.000713028 0.000357578)
(0.110448 0.00103242 -1.19397e-06)
(0.111286 0.000993985 0.000317756)
(0.111486 0.000688134 0.000339429)
(0.111014 0.000994136 -1.65417e-06)
(0.11183 0.000973264 0.000301843)
(0.112072 0.000669336 0.000323463)
(0.111564 0.000965027 -1.60174e-06)
(0.112365 0.000956758 0.000286237)
(0.112643 0.000653812 0.000308179)
(0.112103 0.000941844 -9.061e-07)
(0.112889 0.000940811 0.000270803)
(0.11321 0.00063628 0.000290107)
(0.112642 0.000920381 4.35722e-07)
(0.113827 0.00062384 0.000279534)
(0.113226 0.000901183 1.91563e-06)
(0.111649 0.000368658 0.000361861)
(0.111325 2.75836e-06 0.000373294)
(0.111325 0.000373413 -2.56058e-06)
(0.112285 0.000354798 0.000345494)
(0.111973 3.90403e-06 0.000357116)
(0.111973 0.000357243 -3.66477e-06)
(0.112901 0.000342028 0.000330174)
(0.112597 5.18802e-06 0.000343066)
(0.112597 0.000343198 -4.90142e-06)
(0.113498 0.000326369 0.000312407)
(0.113203 6.45393e-06 0.000329034)
(0.113203 0.000329164 -6.11712e-06)
(0.114077 0.000314739 0.000299253)
(0.113798 7.50606e-06 0.000309665)
(0.113798 0.00030978 -7.11718e-06)
(0.11445 8.47524e-06 0.000304307)
(0.11445 0.000304359 -8.00835e-06)
(0.111649 -0.00036164 0.000368549)
(0.110882 -0.000701993 0.00036197)
(0.111325 -0.000373087 2.65057e-06)
(0.112285 -0.000345227 0.000354687)
(0.111489 -0.00067199 0.000345673)
(0.111973 -0.000356861 3.79193e-06)
(0.112901 -0.000329857 0.000341927)
(0.112076 -0.000646999 0.000331085)
(0.112597 -0.000342754 5.07934e-06)
(0.113498 -0.000312036 0.000326292)
(0.112648 -0.000624636 0.000316334)
(0.113203 -0.000328658 6.3622e-06)
(0.114077 -0.000298826 0.000314719)
(0.113215 -0.000601232 0.000297457)
(0.113798 -0.000309222 7.4424e-06)
(0.113834 -0.000585659 0.000285268)
(0.11445 -0.000303762 8.50448e-06)
(0.110157 -0.00105021 0.000358148)
(0.108965 -0.00130441 0.000338279)
(0.109862 -0.00108164 6.04869e-07)
(0.110734 -0.00100294 0.000339462)
(0.109467 -0.00125288 0.000312272)
(0.110448 -0.00103211 1.27053e-06)
(0.111293 -0.000964758 0.000322481)
(0.109955 -0.00121334 0.000287453)
(0.111015 -0.000993772 1.76845e-06)
(0.111838 -0.000933132 0.000305954)
(0.110432 -0.0011825 0.000262267)
(0.111564 -0.000964602 1.75849e-06)
(0.112373 -0.000904959 0.000287986)
(0.110901 -0.00115705 0.000235049)
(0.112103 -0.000941368 1.16891e-06)
(0.112898 -0.000880276 0.000268606)
(0.111375 -0.00113315 0.000203833)
(0.112642 -0.000919885 -3.51545e-08)
(0.111897 -0.00111659 0.000170838)
(0.113226 -0.000900763 -1.30888e-06)
(0.108323 -0.00150328 0.0002943)
(0.106319 -0.00156034 0.000296287)
(0.108105 -0.0015375 -1.32552e-05)
(0.10874 -0.00146131 0.000262555)
(0.106611 -0.00152869 0.000256896)
(0.108523 -0.00149532 -2.00951e-05)
(0.10915 -0.00142985 0.000229969)