/*--------------------------------*- C++ -*----------------------------------*\
| =========                 |                                                 |
| \\      /  F ield         | OpenFOAM: The Open Source CFD Toolbox           |
|  \\    /   O peration     | Version:  2212                                  |
|   \\  /    A nd           | Website:  www.openfoam.com                      |
|    \\/     M anipulation  |                                                 |
\*---------------------------------------------------------------------------*/
FoamFile
{
    version     2.0;
    format      ascii;
    arch        "LSB;label=32;scalar=64";
    class       surfaceVectorField;
    location    "2.15";
    object      Uf;
}
// * * * * * * * * * * * * * * * * * * * * * * * * * * * * * * * * * * * * * //

dimensions      [0 1 -1 0 0 0 0];

internalField   nonuniform List<vector> 
1800
(
(0.0993441 -0.00341903 -0.00341899)
(0.0973536 0.00106247 -0.00148427)
(0.0973536 -0.00148428 0.00106248)
(0.0834792 0.0019758 0.00197592)
(0.0930873 0.00326892 0.00253352)
(0.0930873 0.00253344 0.00326903)
(0.0745172 0.00195859 0.00195883)
(0.0848641 0.00163573 0.00179245)
(0.0848642 0.0017923 0.00163591)
(0.068548 0.00115884 0.00115931)
(0.0786282 0.00107329 0.0012216)
(0.0786283 0.00122127 0.00107364)
(0.0642364 0.00069656 0.000697379)
(0.0740533 0.000784905 0.000865527)
(0.0740534 0.000864966 0.000785613)
(0.0607573 0.000493957 0.0004956)
(0.0704429 0.00064982 0.000670017)
(0.0704432 0.000669071 0.000650952)
(0.0674923 0.000545359 0.000509983)
(0.0674928 0.000508071 0.000547666)
(0.0984572 0.00247639 0.00172993)
(0.0996871 0.000439208 0.00034549)
(0.100049 0.00105637 0.000750985)
(0.0958348 0.00314793 0.00243277)
(0.0978161 0.00273266 0.00228234)
(0.0982937 0.00280913 0.00216156)
(0.09145 0.00223012 0.00186951)
(0.0954959 0.0030015 0.00230327)
(0.096304 0.00244247 0.00199799)
(0.0875952 0.0016742 0.0015058)
(0.092619 0.00229899 0.00183904)
(0.0936669 0.00198039 0.00172731)
(0.0841476 0.00143934 0.00127625)
(0.0897671 0.00189124 0.00153607)
(0.0909047 0.00171912 0.0014984)
(0.0811877 0.0012642 0.00102977)
(0.0872317 0.00165535 0.00129539)
(0.0884346 0.00145356 0.00121283)
(0.0850058 0.0014901 0.00107839)
(0.0863051 0.00118182 0.000910485)
(0.0993753 0.00118207 0.00107259)
(0.099473 0.00034974 0.000307063)
(0.0997475 0.000610954 0.000779898)
(0.0984947 0.00229592 0.00203203)
(0.0990504 0.00157673 0.0017205)
(0.0995971 0.0020182 0.00200297)
(0.0971411 0.00247621 0.00204884)
(0.0983576 0.00213096 0.00216902)
(0.0992972 0.00246134 0.00210265)
(0.0954391 0.00224652 0.00176774)
(0.097193 0.00203554 0.00200265)
(0.0984881 0.00237413 0.00190301)
(0.09375 0.00201971 0.00152297)
(0.0959046 0.00185531 0.00175474)
(0.0974219 0.0021803 0.0016893)
(0.0921367 0.00186297 0.00134543)
(0.0946707 0.00173229 0.00154325)
(0.0963088 0.00198374 0.00150917)
(0.0934798 0.00165204 0.00138736)
(0.0952031 0.00180002 0.00134411)
(0.0996493 0.000650269 0.000931428)
(0.0994625 0.000129379 0.000192511)
(0.0997993 0.00037511 0.000741369)
(0.0990854 0.00127883 0.00182776)
(0.0992625 0.000636878 0.00137064)
(0.0998409 0.00115032 0.00181425)
(0.098449 0.00154063 0.00210321)
(0.0989128 0.000973415 0.00200366)
(0.0999046 0.00153638 0.00209025)
(0.0977071 0.00154673 0.00198917)
(0.0982947 0.00105004 0.00205082)
(0.0997671 0.00163154 0.00202328)
(0.0969384 0.00148002 0.0017765)
(0.0976567 0.00100756 0.00189995)
(0.0995089 0.00160942 0.00189619)
(0.0962058 0.00142728 0.0015827)
(0.0970634 0.000960274 0.00169886)
(0.0991984 0.00154739 0.00175251)
(0.0965034 0.000933676 0.00152152)
(0.0988527 0.00147443 0.00162709)
(0.0996725 0.000154085 0.000629514)
(0.0993801 1.35189e-08 5.89464e-05)
(0.0997132 0.000103933 0.000687959)
(0.099159 0.000353392 0.0015443)
(0.0992677 6.68583e-08 0.00120005)
(0.0998376 0.000341682 0.00162233)
(0.0986635 0.000457944 0.00194757)
(0.0989804 1.62804e-07 0.00188854)
(0.0999629 0.000485557 0.00199144)
(0.098212 0.000481199 0.00196074)
(0.0984745 3.01306e-07 0.00200656)
(0.0999916 0.000539789 0.00199674)
(0.0977757 0.000472264 0.001825)
(0.0979953 5.29696e-07 0.00191481)
(0.100009 0.0005467 0.00191132)
(0.0973615 0.000459343 0.00164148)
(0.0975703 9.46376e-07 0.00173494)
(0.100007 0.000534043 0.00180477)
(0.09718 1.70511e-06 0.00154759)
(0.0999799 0.000512441 0.00168358)
(0.0996725 -0.000154003 0.000629478)
(0.0994625 -0.000129351 0.000192489)
(0.0997132 -0.000103898 0.000687956)
(0.0991591 -0.000353171 0.00154428)
(0.0992625 -0.000636772 0.00137063)
(0.0998376 -0.000341543 0.00162232)
(0.0986636 -0.000457518 0.00194753)
(0.0989129 -0.000973214 0.0020036)
(0.099963 -0.00048528 0.00199145)
(0.0982122 -0.000480439 0.00196063)
(0.0982951 -0.00104969 0.00205069)
(0.0999918 -0.000539288 0.00199671)
(0.0977763 -0.000470893 0.00182475)
(0.0976575 -0.00100687 0.00189972)
(0.100009 -0.000545778 0.00191113)
(0.0973628 -0.000456842 0.00164105)
(0.097065 -0.00095895 0.00169845)
(0.100008 -0.000532366 0.00180437)
(0.0965062 -0.000931213 0.00152098)
(0.0999815 -0.000509494 0.00168297)
(0.0996493 -0.000650244 0.000931429)
(0.099473 -0.000349747 0.000307061)
(0.0997993 -0.000375107 0.000741371)
(0.0990855 -0.00127877 0.00182771)
(0.0990504 -0.00157676 0.00172047)
(0.0998409 -0.0011503 0.00181425)
(0.0984493 -0.00154051 0.00210306)
(0.0983578 -0.00213103 0.00216885)
(0.0999048 -0.00153634 0.00209016)
(0.0977079 -0.00154646 0.00198893)
(0.0971935 -0.00203566 0.00200237)
(0.0997676 -0.00163144 0.00202299)
(0.09694 -0.00147937 0.00177611)
(0.0959057 -0.00185538 0.00175431)
(0.0995099 -0.00160915 0.00189564)
(0.0962088 -0.00142601 0.00158218)
(0.0946728 -0.00173225 0.00154261)
(0.0992004 -0.00154682 0.00175167)
(0.0934836 -0.00165183 0.00138642)
(0.0988562 -0.00147334 0.00162589)
(0.0993753 -0.00118212 0.00107255)
(0.0996871 -0.000439229 0.00034548)
(0.0997475 -0.00061098 0.000779879)
(0.0984949 -0.00229605 0.00203188)
(0.0978162 -0.00273278 0.00228226)
(0.0995971 -0.0020183 0.00200286)
(0.0971415 -0.00247646 0.00204854)
(0.0954961 -0.0030017 0.00230307)
(0.0992974 -0.00246153 0.00210236)
(0.0954399 -0.00224693 0.00176728)
(0.0926194 -0.00229934 0.00183868)
(0.0984885 -0.00237449 0.00190251)
(0.0937515 -0.00202036 0.00152232)
(0.0897677 -0.0018919 0.00153556)
(0.0974228 -0.00218089 0.00168856)
(0.0921395 -0.00186395 0.00134442)
(0.0872329 -0.00165644 0.00129457)
(0.0963104 -0.00198471 0.00150811)
(0.0850081 -0.00149195 0.00107705)
(0.095206 -0.0018015 0.00134243)
(0.0984572 -0.00247646 0.00172988)
(0.0973536 -0.00106248 -0.00148428)
(0.100049 -0.00105639 0.000750963)
(0.0958349 -0.00314809 0.00243263)
(0.0930873 -0.00326902 0.00253344)
(0.0982937 -0.00280925 0.00216144)
(0.0914501 -0.00223039 0.00186923)
(0.0848641 -0.0016359 0.0017923)
(0.096304 -0.00244272 0.00199775)
(0.0875955 -0.00167474 0.00150536)
(0.0786283 -0.00107363 0.00122127)
(0.093667 -0.00198082 0.00172687)
(0.0841481 -0.00144028 0.00127553)
(0.0740534 -0.0007856 0.000864971)
(0.0909049 -0.0017199 0.0014977)
(0.0811886 -0.00126581 0.00102854)
(0.0704431 -0.000650937 0.000669079)
(0.0884349 -0.00145484 0.00121158)
(0.0674928 -0.000547646 0.000508084)
(0.0863057 -0.00118402 0.000908419)
(0.0993441 0.00341899 -0.00341903)
(0.0973536 0.00148427 0.00106247)
(0.0834792 -0.00197592 0.00197581)
(0.0930872 -0.00253352 0.00326893)
(0.0745172 -0.00195882 0.0019586)
(0.0848641 -0.00179245 0.00163573)
(0.068548 -0.00115931 0.00115885)
(0.0786282 -0.00122159 0.0010733)
(0.0642364 -0.000697368 0.00069657)
(0.0740533 -0.00086552 0.00078492)
(0.0607573 -0.000495584 0.000493973)
(0.0704429 -0.000670007 0.000649839)
(0.0674922 -0.000509968 0.000545384)
(0.0984572 0.00172988 0.00247646)
(0.100049 0.000750963 0.00105639)
(0.0996871 0.00034548 0.00043923)
(0.0958349 0.00243263 0.00314809)
(0.0982937 0.00216143 0.00280925)
(0.0978162 0.00228226 0.00273278)
(0.0914501 0.00186923 0.00223039)
(0.096304 0.00199774 0.00244272)
(0.0954961 0.00230307 0.0030017)
(0.0875955 0.00150536 0.00167475)
(0.093667 0.00172686 0.00198083)
(0.0926194 0.00183868 0.00229935)
(0.0841482 0.00127552 0.00144029)
(0.090905 0.0014977 0.00171991)
(0.0897678 0.00153555 0.00189191)
(0.0811886 0.00102853 0.00126582)
(0.088435 0.00121157 0.00145485)
(0.087233 0.00129457 0.00165645)
(0.0863058 0.000908403 0.00118403)
(0.0850082 0.00107704 0.00149196)
(0.10008 0.00135173 0.00135181)
(0.100186 0.000798737 0.000804969)
(0.100186 0.000804936 0.00079877)
(0.100264 0.00221719 0.00221741)
(0.10019 0.00231177 0.00207157)
(0.10019 0.00207142 0.0023119)
(0.0993829 0.00243553 0.00243596)
(0.100306 0.00263354 0.0024533)
(0.100307 0.00245293 0.00263382)
(0.0979841 0.00230988 0.00231059)
(0.099805 0.00256011 0.00245633)
(0.0998052 0.0024557 0.00256061)
(0.0964952 0.0020056 0.0020068)
(0.0988627 0.00236399 0.00228153)
(0.098863 0.00228058 0.00236479)
(0.095073 0.00159603 0.00159804)
(0.0978407 0.00204832 0.00196901)
(0.0978412 0.00196755 0.00204973)
(0.0968611 0.00169005 0.00160613)
(0.0968621 0.0016038 0.00169234)
(0.100171 0.00136864 0.00141649)
(0.100118 0.000577389 0.000811325)
(0.100102 0.00069974 0.000700716)
(0.100759 0.00219482 0.00214924)
(0.100478 0.00158281 0.00185884)
(0.100477 0.00182247 0.00186475)
(0.100996 0.00247679 0.00238827)
(0.101004 0.00205869 0.0022427)
(0.101024 0.00234666 0.00238317)
(0.100837 0.00247595 0.00238962)
(0.101292 0.00220337 0.00235246)
(0.101337 0.00250574 0.00254409)
(0.100457 0.00231107 0.00222549)
(0.101309 0.00216717 0.00232271)
(0.101408 0.00245017 0.00247287)
(0.0999666 0.00205574 0.00196917)
(0.101155 0.00201046 0.00217957)
(0.101301 0.00226397 0.00227127)
(0.100925 0.00179312 0.00196971)
(0.101098 0.00200796 0.00199999)
(0.100242 0.000820158 0.00125615)
(0.10009 0.000294343 0.000735366)
(0.100071 0.000415665 0.000602798)
(0.100828 0.00139054 0.0019394)
(0.100491 0.000792008 0.00168405)
(0.100492 0.00112439 0.00158705)
(0.101392 0.00166346 0.00218244)
(0.101086 0.00107777 0.00208346)
(0.101128 0.0015408 0.00209423)
(0.101815 0.00176113 0.00226159)
(0.101664 0.00120443 0.00217921)
(0.101767 0.00173268 0.00229449)
(0.102079 0.0017553 0.0022627)
(0.102121 0.00123992 0.00222243)
(0.10229 0.00178983 0.00236774)
(0.102213 0.00166803 0.00217776)
(0.10245 0.00120224 0.0022108)
(0.10271 0.00174369 0.00232265)
(0.102678 0.00111895 0.00212735)
(0.103035 0.0016259 0.00220319)
(0.100243 0.000267471 0.00116244)
(0.100087 2.58365e-08 0.000707031)
(0.100064 0.000135837 0.000537351)
(0.100782 0.000465866 0.00182628)
(0.100477 7.48661e-08 0.00161783)
(0.100463 0.00037097 0.00142419)
(0.101401 0.000575751 0.00207627)
(0.101066 1.30273e-07 0.00203472)
(0.101089 0.000525317 0.00193367)
(0.101987 0.000623322 0.00213427)
(0.101694 2.47478e-07 0.00211778)
(0.101797 0.000606141 0.0021288)
(0.102506 0.000631868 0.00216578)
(0.102269 4.73854e-07 0.00215059)
(0.102489 0.000639777 0.00221146)
(0.102933 0.000611589 0.00215827)
(0.102742 8.47111e-07 0.00218055)
(0.103119 0.000634973 0.00224245)
(0.103123 1.41776e-06 0.00213527)
(0.103686 0.000602248 0.00219818)
(0.100243 -0.000267376 0.00116243)
(0.10009 -0.000294316 0.000735358)
(0.100064 -0.000135797 0.000537337)
(0.100782 -0.000465671 0.00182628)
(0.100491 -0.000791933 0.00168403)
(0.100463 -0.000370857 0.00142416)
(0.101401 -0.000575402 0.00207624)
(0.101086 -0.00107763 0.00208339)
(0.101089 -0.000525118 0.00193362)
(0.101987 -0.000622662 0.0021341)
(0.101664 -0.00120417 0.00217893)
(0.101797 -0.000605787 0.00212867)
(0.102507 -0.000630644 0.00216536)
(0.102121 -0.00123942 0.00222179)
(0.102489 -0.000639114 0.00221113)
(0.102935 -0.00060948 0.00215755)
(0.102451 -0.00120136 0.00220981)
(0.103119 -0.000633801 0.00224186)
(0.10268 -0.00111743 0.00212584)
(0.103687 -0.000600258 0.00219722)
(0.100242 -0.000820159 0.00125613)
(0.100118 -0.000577413 0.0008113)
(0.100071 -0.000415675 0.000602766)
(0.100828 -0.00139054 0.00193931)
(0.100478 -0.00158287 0.00185873)
(0.100493 -0.00112442 0.00158696)
(0.101392 -0.00166343 0.00218213)
(0.101004 -0.0020588 0.00224242)
(0.101129 -0.00154085 0.002094)
(0.101816 -0.00176103 0.00226087)
(0.101292 -0.00220356 0.00235185)
(0.101768 -0.00173272 0.00229397)
(0.102081 -0.00175512 0.00226152)
(0.101309 -0.00216749 0.00232171)
(0.102291 -0.00178989 0.0023668)
(0.102216 -0.00166767 0.002176)
(0.101157 -0.002011 0.00217818)
(0.102712 -0.00174381 0.00232119)
(0.100927 -0.00179387 0.00196757)
(0.103037 -0.00162603 0.00220094)
(0.100171 -0.00136871 0.00141637)
(0.100186 -0.00079877 0.000804937)
(0.100102 -0.000699784 0.000700667)
(0.100759 -0.00219497 0.00214894)
(0.10019 -0.0023119 0.00207142)
(0.100477 -0.00182261 0.00186457)
(0.100996 -0.00247709 0.0023877)
(0.100307 -0.00263382 0.00245294)
(0.101024 -0.00234693 0.00238276)
(0.100838 -0.0024765 0.00238874)
(0.0998051 -0.00256061 0.00245571)
(0.101338 -0.00250624 0.00254341)
(0.100458 -0.002312 0.00222427)
(0.098863 -0.00236479 0.00228059)
(0.101409 -0.002451 0.00247185)
(0.0999682 -0.00205725 0.00196739)
(0.0978412 -0.00204972 0.00196757)
(0.101302 -0.00226532 0.0022698)
(0.0968621 -0.00169232 0.00160382)
(0.101099 -0.00201012 0.00199759)
(0.10008 -0.00135182 0.00135174)
(0.100049 -0.000750984 0.00105637)
(0.100186 -0.000804969 0.000798738)
(0.100264 -0.00221741 0.00221719)
(0.0982936 -0.00216156 0.00280913)
(0.10019 -0.00207157 0.00231177)
(0.0993829 -0.00243596 0.00243553)
(0.096304 -0.00199798 0.00244248)
(0.100306 -0.0024533 0.00263355)
(0.0979841 -0.00231059 0.00230989)
(0.0936669 -0.00172731 0.0019804)
(0.099805 -0.00245633 0.00256012)
(0.0964951 -0.00200679 0.00200562)
(0.0909047 -0.00149839 0.00171914)
(0.0988627 -0.00228152 0.00236401)
(0.095073 -0.00159802 0.00159604)
(0.0884345 -0.00121282 0.00145358)
(0.0978407 -0.001969 0.00204834)
(0.086305 -0.000910468 0.00118184)
(0.0968611 -0.00160611 0.00169008)
(0.0984572 -0.00172993 0.00247639)
(0.0996871 -0.000345491 0.000439211)
(0.0958348 -0.00243277 0.00314794)
(0.0978161 -0.00228233 0.00273266)
(0.09145 -0.0018695 0.00223013)
(0.0954959 -0.00230327 0.00300151)
(0.0875952 -0.0015058 0.00167422)
(0.092619 -0.00183904 0.00229901)
(0.0841476 -0.00127624 0.00143936)
(0.0897671 -0.00153607 0.00189126)
(0.0811876 -0.00102976 0.00126423)
(0.0872316 -0.00129538 0.00165538)
(0.0850058 -0.00107838 0.00149014)
(0.0993753 0.00107255 0.00118212)
(0.0997475 0.000779878 0.00061098)
(0.099473 0.00030706 0.000349748)
(0.0984949 0.00203188 0.00229606)
(0.0995971 0.00200286 0.0020183)
(0.0990504 0.00172047 0.00157676)
(0.0971415 0.00204854 0.00247646)
(0.0992974 0.00210235 0.00246153)
(0.0983578 0.00216885 0.00213103)
(0.0954399 0.00176728 0.00224693)
(0.0984885 0.0019025 0.00237449)
(0.0971935 0.00200237 0.00203566)
(0.0937515 0.00152231 0.00202036)
(0.0974228 0.00168855 0.00218089)
(0.0959057 0.00175431 0.00185538)
(0.0921395 0.00134441 0.00186396)
(0.0963105 0.0015081 0.00198472)
(0.0946728 0.0015426 0.00173225)
(0.0952061 0.00134241 0.00180151)
(0.0934836 0.00138641 0.00165184)
(0.100171 0.00141637 0.00136871)
(0.100102 0.000700666 0.000699784)
(0.100118 0.000811299 0.000577414)
(0.100759 0.00214893 0.00219497)
(0.100477 0.00186456 0.00182261)
(0.100478 0.00185873 0.00158287)
(0.100996 0.00238769 0.00247709)
(0.101024 0.00238275 0.00234693)
(0.101004 0.00224241 0.0020588)
(0.100838 0.00238873 0.0024765)
(0.101338 0.0025434 0.00250624)
(0.101292 0.00235185 0.00220356)
(0.100458 0.00222426 0.00231201)
(0.101409 0.00247184 0.00245101)
(0.101309 0.0023217 0.0021675)
(0.0999682 0.00196737 0.00205726)
(0.101302 0.00226978 0.00226532)
(0.101157 0.00217816 0.00201101)
(0.101099 0.00199757 0.00201013)
(0.100927 0.00196755 0.00179388)
(0.100222 0.00114317 0.00114329)
(0.100053 0.000517181 0.000591887)
(0.100053 0.000591834 0.000517227)
(0.100843 0.00192861 0.00192888)
(0.100491 0.00134928 0.00151839)
(0.100491 0.00151823 0.00134941)
(0.101463 0.00232598 0.00232647)
(0.101151 0.0018648 0.00207388)
(0.101151 0.00207354 0.00186506)
(0.101979 0.00244064 0.00244144)
(0.101822 0.00210645 0.00232354)
(0.101823 0.00232295 0.00210687)
(0.102354 0.00237723 0.0023785)
(0.102411 0.00214764 0.00237437)
(0.102411 0.00237341 0.00214834)
(0.10258 0.00220221 0.00220425)
(0.102888 0.0020651 0.00230086)
(0.102888 0.00229933 0.00206619)
(0.103249 0.00189002 0.00214162)
(0.103249 0.00213916 0.00189179)
(0.100228 0.000720244 0.000962253)
(0.100042 0.000263697 0.000509927)
(0.100041 0.000359878 0.000426904)
(0.10082 0.00126002 0.00165371)
(0.100464 0.000697367 0.00131041)
(0.100455 0.000958702 0.00112637)
(0.101546 0.00159016 0.00205809)
(0.101134 0.00099351 0.0018361)
(0.101118 0.00137168 0.00160019)
(0.102276 0.00174243 0.00224389)
(0.101911 0.00116031 0.00211141)
(0.101902 0.00160776 0.00186188)
(0.10297 0.00176208 0.00228711)
(0.102679 0.00122224 0.00222509)
(0.102692 0.00170341 0.00197622)
(0.1036 0.00168891 0.00223345)
(0.103413 0.00120369 0.0022343)
(0.103454 0.00169558 0.00198133)
(0.104092 0.00113153 0.00217154)
(0.104162 0.00162 0.00191676)
(0.100215 0.000240931 0.000856835)
(0.100039 1.755e-08 0.00047879)
(0.100035 0.000119321 0.000373928)
(0.100779 0.000427822 0.00149076)
(0.100448 4.19661e-08 0.00123484)
(0.100422 0.00032236 0.00100027)
(0.101525 0.000551196 0.00188688)
(0.101114 7.54702e-08 0.00174659)
(0.10107 0.000470479 0.00144545)
(0.102323 0.000618007 0.00208986)
(0.101909 1.39177e-07 0.00202701)
(0.101877 0.000562665 0.00170616)
(0.103129 0.000638635 0.00216995)
(0.102728 2.56548e-07 0.00215242)
(0.102739 0.000608405 0.00183754)
(0.103916 0.000621772 0.00217095)
(0.103529 4.27388e-07 0.00218696)
(0.103606 0.00061585 0.00188425)
(0.104298 7.19133e-07 0.0021541)
(0.104453 0.000594091 0.00186648)
(0.100215 -0.000240875 0.000856798)
(0.100042 -0.00026369 0.000509894)
(0.100035 -0.000119306 0.00037391)
(0.100779 -0.000427709 0.00149068)
(0.100464 -0.000697354 0.00131031)
(0.100422 -0.000322326 0.00100021)
(0.101525 -0.000550999 0.00188672)
(0.101134 -0.000993485 0.00183589)
(0.10107 -0.000470419 0.00144534)
(0.102324 -0.000617664 0.00208956)
(0.101911 -0.00116026 0.00211104)
(0.101877 -0.000562561 0.00170595)
(0.103129 -0.00063805 0.00216942)
(0.10268 -0.00122217 0.00222442)
(0.10274 -0.000608218 0.00183713)
(0.103917 -0.000620764 0.00217012)
(0.103414 -0.00120359 0.00223322)
(0.103607 -0.000615537 0.00188361)
(0.104093 -0.00113133 0.00216985)
(0.104454 -0.000593528 0.00186556)
(0.100228 -0.000720286 0.000962154)
(0.100053 -0.000517227 0.000591836)
(0.100041 -0.000359909 0.000426856)
(0.10082 -0.00126011 0.00165349)
(0.100491 -0.00134941 0.00151823)
(0.100455 -0.000958794 0.00112623)
(0.101546 -0.00159029 0.00205768)
(0.101151 -0.00186506 0.00207355)
(0.101118 -0.00137185 0.00159993)
(0.102277 -0.00174265 0.00224316)
(0.101823 -0.00210687 0.00232296)
(0.101902 -0.00160803 0.0018614)
(0.102971 -0.00176246 0.0022859)
(0.102411 -0.00214834 0.00237343)
(0.102692 -0.00170385 0.00197541)
(0.103601 -0.00168956 0.00223153)
(0.102888 -0.00206618 0.00229936)
(0.103454 -0.00169629 0.00198006)
(0.103249 -0.00189178 0.0021392)
(0.104163 -0.00162111 0.00191482)
(0.100222 -0.00114329 0.00114317)
(0.100102 -0.000700715 0.000699742)
(0.100053 -0.000591887 0.000517184)
(0.100843 -0.00192888 0.00192861)
(0.100477 -0.00186475 0.00182248)
(0.100491 -0.00151839 0.00134929)
(0.101463 -0.00232647 0.00232599)
(0.101024 -0.00238317 0.00234667)
(0.101151 -0.00207388 0.00186482)
(0.101979 -0.00244144 0.00244065)
(0.101337 -0.00254408 0.00250575)
(0.101822 -0.00232354 0.00210646)
(0.102354 -0.0023785 0.00237725)
(0.101408 -0.00247287 0.00245019)
(0.102411 -0.00237437 0.00214766)
(0.10258 -0.00220425 0.00220223)
(0.101301 -0.00227126 0.00226399)
(0.102888 -0.00230086 0.00206513)
(0.101098 -0.00199998 0.00200799)
(0.103248 -0.00214162 0.00189005)
(0.100171 -0.00141648 0.00136865)
(0.0997475 -0.000779898 0.000610957)
(0.100118 -0.000811325 0.000577392)
(0.100759 -0.00214924 0.00219483)
(0.0995971 -0.00200297 0.00201821)
(0.100478 -0.00185884 0.00158282)
(0.100996 -0.00238827 0.0024768)
(0.0992972 -0.00210265 0.00246135)
(0.101004 -0.0022427 0.0020587)
(0.100837 -0.00238961 0.00247597)
(0.0984881 -0.001903 0.00237414)
(0.101292 -0.00235246 0.00220338)
(0.100457 -0.00222548 0.00231109)
(0.0974219 -0.00168929 0.00218032)
(0.101309 -0.0023227 0.00216719)
(0.0999666 -0.00196916 0.00205576)
(0.0963088 -0.00150916 0.00198376)
(0.101155 -0.00217956 0.00201049)
(0.0952031 -0.0013441 0.00180006)
(0.100925 -0.0019697 0.00179316)
(0.0993753 -0.00107259 0.00118207)
(0.099473 -0.000307063 0.000349742)
(0.0984947 -0.00203203 0.00229593)
(0.0990504 -0.0017205 0.00157674)
(0.0971411 -0.00204884 0.00247623)
(0.0983576 -0.00216901 0.00213098)
(0.0954391 -0.00176773 0.00224654)
(0.097193 -0.00200265 0.00203557)
(0.0937499 -0.00152297 0.00201974)
(0.0959046 -0.00175473 0.00185534)
(0.0921367 -0.00134542 0.001863)
(0.0946707 -0.00154324 0.00173232)
(0.0934798 -0.00138735 0.00165209)
(0.0996493 0.000931428 0.000650244)
(0.0997993 0.00074137 0.000375107)
(0.0994625 0.00019249 0.000129351)
(0.0990855 0.00182771 0.00127877)
(0.0998409 0.00181424 0.0011503)
(0.0992625 0.00137063 0.00063677)
(0.0984493 0.00210306 0.00154051)
(0.0999048 0.00209016 0.00153634)
(0.0989129 0.00200359 0.000973211)
(0.0977079 0.00198892 0.00154645)
(0.0997676 0.00202299 0.00163144)
(0.0982951 0.00205069 0.00104969)
(0.09694 0.00177611 0.00147937)
(0.0995099 0.00189564 0.00160915)
(0.0976575 0.00189971 0.00100687)
(0.0962089 0.00158218 0.00142601)
(0.0992004 0.00175166 0.00154682)
(0.097065 0.00169844 0.000958943)
(0.0988562 0.00162588 0.00147334)
(0.0965062 0.00152097 0.000931206)
(0.100242 0.00125613 0.000820159)
(0.100071 0.000602764 0.000415675)
(0.10009 0.000735356 0.000294315)
(0.100828 0.00193931 0.00139054)
(0.100493 0.00158695 0.00112442)
(0.100491 0.00168403 0.000791932)
(0.101392 0.00218212 0.00166343)
(0.101129 0.00209399 0.00154085)
(0.101086 0.00208339 0.00107763)
(0.101816 0.00226086 0.00176103)
(0.101768 0.00229396 0.00173272)
(0.101664 0.00217892 0.00120417)
(0.102081 0.00226151 0.00175512)
(0.102291 0.00236678 0.00178989)
(0.102121 0.00222178 0.00123942)
(0.102216 0.00217598 0.00166767)
(0.102712 0.00232117 0.00174381)
(0.102451 0.0022098 0.00120135)
(0.103037 0.00220091 0.00162603)
(0.10268 0.00212582 0.00111743)
(0.100228 0.00096215 0.000720286)
(0.100041 0.000426853 0.000359909)
(0.100042 0.000509892 0.000263689)
(0.10082 0.00165348 0.00126011)
(0.100455 0.00112622 0.000958793)
(0.100464 0.0013103 0.000697353)
(0.101546 0.00205767 0.00159029)
(0.101118 0.00159991 0.00137185)
(0.101134 0.00183588 0.000993484)
(0.102277 0.00224314 0.00174265)
(0.101902 0.00186138 0.00160803)
(0.101911 0.00211102 0.00116026)
(0.102971 0.00228588 0.00176246)
(0.102692 0.00197539 0.00170385)
(0.10268 0.0022244 0.00122217)
(0.103601 0.0022315 0.00168956)
(0.103455 0.00198003 0.00169629)
(0.103414 0.0022332 0.00120359)
(0.104163 0.00191478 0.00162111)
(0.104093 0.00216982 0.00113133)
(0.10021 0.000595873 0.000595955)
(0.100034 0.000215898 0.000302554)
(0.100034 0.000302523 0.000215921)
(0.100751 0.00106546 0.00106563)
(0.100412 0.000582062 0.000819325)
(0.100412 0.000819232 0.000582131)
(0.101493 0.00138324 0.00138355)
(0.101053 0.000852012 0.0011987)
(0.101053 0.00119852 0.000852142)
(0.102327 0.00156272 0.00156323)
(0.101868 0.00102109 0.00143791)
(0.101868 0.0014376 0.0010213)
(0.103189 0.00163176 0.00163255)
(0.102754 0.00110612 0.00156268)
(0.102754 0.00156217 0.00110647)
(0.104034 0.00162311 0.00162431)
(0.103652 0.00112485 0.00159964)
(0.103652 0.00159887 0.0011254)
(0.104531 0.0011005 0.00157812)
(0.104531 0.00157699 0.00110133)
(0.100192 0.000200058 0.000525049)
(0.100031 1.24053e-09 0.000281394)
(0.100039 9.04459e-05 0.000188713)
(0.100705 0.000363555 0.000950941)
(0.100395 -3.31378e-09 0.000768666)
(0.10038 0.000272297 0.000512543)
(0.10144 0.00048014 0.0012513)
(0.101024 -8.8918e-09 0.00113313)
(0.100993 0.000410492 0.000763585)
(0.102302 0.000551267 0.0014356)
(0.101844 -1.54262e-08 0.00136931)
(0.101808 0.000502345 0.000929511)
(0.103222 0.00058401 0.00152828)
(0.102751 -2.58179e-08 0.0015016)
(0.102727 0.000554463 0.00102363)
(0.104155 0.000586981 0.00155241)
(0.103689 -4.25521e-08 0.0015545)
(0.103689 0.000574339 0.00106234)
(0.104618 -6.04191e-08 0.00154967)
(0.104654 0.000570674 0.00106096)
(0.100192 -0.000200067 0.000525011)
(0.100034 -0.000215921 0.000302526)
(0.100039 -9.04523e-05 0.000188698)
(0.100705 -0.000363577 0.000950857)
(0.100412 -0.000582132 0.00081924)
(0.10038 -0.000272323 0.0005125)
(0.10144 -0.00048018 0.00125114)
(0.101053 -0.000852144 0.00119853)
(0.100993 -0.000410542 0.000763501)
(0.102302 -0.000551331 0.00143531)
(0.101868 -0.0010213 0.00143762)
(0.101808 -0.000502424 0.000929362)
(0.103222 -0.000584115 0.00152783)
(0.102754 -0.00110647 0.0015622)
(0.102727 -0.000554588 0.00102339)
(0.104155 -0.000587145 0.00155175)
(0.103652 -0.00112541 0.0015989)
(0.10369 -0.000574533 0.00106196)
(0.104531 -0.00110134 0.00157703)
(0.104654 -0.000570959 0.00106041)
(0.10021 -0.000595955 0.000595879)
(0.100041 -0.000426904 0.000359881)
(0.100034 -0.000302554 0.000215902)
(0.100751 -0.00106563 0.00106547)
(0.100455 -0.00112637 0.00095871)
(0.100412 -0.000819326 0.000582071)
(0.101493 -0.00138355 0.00138326)
(0.101118 -0.00160019 0.0013717)
(0.101053 -0.0011987 0.000852026)
(0.102327 -0.00156323 0.00156275)
(0.101902 -0.00186188 0.00160778)
(0.101868 -0.00143791 0.00102111)
(0.103189 -0.00163255 0.00163179)
(0.102692 -0.00197622 0.00170343)
(0.102754 -0.00156268 0.00110615)
(0.104034 -0.00162431 0.00162314)
(0.103454 -0.00198133 0.00169561)
(0.103652 -0.00159964 0.00112489)
(0.104162 -0.00191676 0.00162004)
(0.104531 -0.00157812 0.00110054)
(0.100228 -0.000962254 0.000720249)
(0.100071 -0.000602798 0.000415668)
(0.100042 -0.000509927 0.0002637)
(0.10082 -0.00165371 0.00126003)
(0.100492 -0.00158705 0.0011244)
(0.100464 -0.00131041 0.000697375)
(0.101546 -0.0020581 0.00159017)
(0.101128 -0.00209422 0.00154081)
(0.101134 -0.0018361 0.000993523)
(0.102276 -0.00224389 0.00174245)
(0.101767 -0.00229449 0.0017327)
(0.101911 -0.00211141 0.00116033)
(0.10297 -0.00228711 0.00176211)
(0.10229 -0.00236774 0.00178985)
(0.102679 -0.00222509 0.00122226)
(0.1036 -0.00223345 0.00168895)
(0.10271 -0.00232264 0.00174372)
(0.103413 -0.0022343 0.00120372)
(0.103035 -0.00220318 0.00162594)
(0.104092 -0.00217153 0.00113157)
(0.100242 -0.00125615 0.000820163)
(0.0997993 -0.000741369 0.000375113)
(0.10009 -0.000735366 0.000294346)
(0.100828 -0.0019394 0.00139055)
(0.0998409 -0.00181425 0.00115033)
(0.100491 -0.00168405 0.000792017)
(0.101392 -0.00218244 0.00166348)
(0.0999046 -0.00209025 0.0015364)
(0.101086 -0.00208346 0.00107778)
(0.101815 -0.00226159 0.00176115)
(0.0997671 -0.00202328 0.00163156)
(0.101664 -0.00217921 0.00120445)
(0.102079 -0.0022627 0.00175533)
(0.0995089 -0.00189619 0.00160945)
(0.102121 -0.00222243 0.00123994)
(0.102213 -0.00217775 0.00166806)
(0.0991984 -0.0017525 0.00154743)
(0.10245 -0.0022108 0.00120227)
(0.0988527 -0.00162708 0.00147448)
(0.102678 -0.00212735 0.001119)
(0.0996493 -0.000931428 0.000650275)
(0.0994625 -0.000192512 0.000129381)
(0.0990854 -0.00182777 0.00127884)
(0.0992625 -0.00137065 0.000636888)
(0.098449 -0.00210321 0.00154065)
(0.0989128 -0.00200366 0.000973433)
(0.0977071 -0.00198917 0.00154676)
(0.0982947 -0.00205082 0.00105007)
(0.0969384 -0.00177649 0.00148006)
(0.0976567 -0.00189995 0.00100759)
(0.0962058 -0.00158269 0.00142733)
(0.0970634 -0.00169885 0.000960315)
(0.0965034 -0.00152152 0.000933728)
(0.0996725 0.000629477 0.000154001)
(0.0997132 0.000687955 0.000103897)
(0.0993801 5.89469e-05 -1.37699e-08)
(0.0991591 0.00154428 0.000353167)
(0.0998376 0.00162232 0.000341541)
(0.0992677 0.00120004 -6.95998e-08)
(0.0986636 0.00194752 0.000457512)
(0.099963 0.00199145 0.000485276)
(0.0989804 0.00188853 -1.69683e-07)
(0.0982123 0.00196062 0.000480432)
(0.0999918 0.0019967 0.000539283)
(0.0984745 0.00200655 -3.09816e-07)
(0.0977763 0.00182474 0.000470884)
(0.100009 0.00191112 0.000545772)
(0.0979953 0.00191481 -5.39994e-07)
(0.0973628 0.00164104 0.000456832)
(0.100008 0.00180436 0.000532359)
(0.0975704 0.00173493 -9.58678e-07)
(0.0999815 0.00168296 0.000509485)
(0.0971801 0.00154758 -1.71963e-06)
(0.100243 0.00116243 0.000267375)
(0.100064 0.000537336 0.000135797)
(0.100087 0.00070703 -2.65821e-08)
(0.100782 0.00182627 0.000465668)
(0.100463 0.00142415 0.000370856)
(0.100477 0.00161783 -7.76257e-08)
(0.101401 0.00207623 0.000575399)
(0.101089 0.00193361 0.000525115)
(0.101066 0.00203472 -1.34019e-07)
(0.101988 0.00213409 0.000622658)
(0.101797 0.00212866 0.000605784)
(0.101694 0.00211778 -2.52081e-07)
(0.102507 0.00216534 0.00063064)
(0.102489 0.00221111 0.000639111)
(0.102269 0.00215057 -4.79705e-07)
(0.102935 0.00215753 0.000609474)
(0.103119 0.00224184 0.000633796)
(0.102742 0.00218053 -8.54587e-07)
(0.103687 0.00219719 0.000600252)
(0.103123 0.00213524 -1.42712e-06)
(0.100215 0.000856794 0.000240874)
(0.100035 0.000373907 0.000119306)
(0.100039 0.000478788 -1.82835e-08)
(0.100779 0.00149067 0.000427707)
(0.100422 0.00100021 0.000322324)
(0.100448 0.00123484 -4.40894e-08)
(0.101525 0.00188671 0.000550997)
(0.10107 0.00144533 0.000470416)
(0.101114 0.00174658 -7.842e-08)
(0.102324 0.00208955 0.000617661)
(0.101877 0.00170593 0.000562558)
(0.101909 0.00202699 -1.42887e-07)
(0.103129 0.0021694 0.000638046)
(0.10274 0.00183711 0.000608214)
(0.102728 0.00215239 -2.61267e-07)
(0.103917 0.00217008 0.000620759)
(0.103607 0.00188358 0.000615532)
(0.103529 0.00218693 -4.33382e-07)
(0.104454 0.00186552 0.000593521)
(0.104298 0.00215407 -7.26833e-07)
(0.100192 0.000525005 0.000200066)
(0.100039 0.000188695 9.04516e-05)
(0.100031 0.000281391 -1.91157e-09)
(0.100705 0.000950845 0.000363575)
(0.10038 0.000512491 0.000272321)
(0.100395 0.000768657 1.24924e-09)
(0.10144 0.00125112 0.000480177)
(0.100993 0.000763486 0.000410539)
(0.101024 0.00113312 5.84368e-09)
(0.102302 0.00143529 0.000551327)
(0.101808 0.000929341 0.00050242)
(0.101844 0.00136929 1.15209e-08)
(0.103222 0.0015278 0.00058411)
(0.102727 0.00102336 0.000554583)
(0.102751 0.00150158 2.0842e-08)
(0.104155 0.00155172 0.000587139)
(0.10369 0.00106192 0.000574526)
(0.103689 0.00155446 3.62949e-08)
(0.104654 0.00106037 0.000570952)
(0.104618 0.00154962 5.26276e-08)
(0.100177 0.00016208 0.000162102)