/*--------------------------------*- C++ -*----------------------------------*\
| =========                 |                                                 |
| \\      /  F ield         | OpenFOAM: The Open Source CFD Toolbox           |
|  \\    /   O peration     | Version:  2212                                  |
|   \\  /    A nd           | Website:  www.openfoam.com                      |
|    \\/     M anipulation  |                                                 |
\*---------------------------------------------------------------------------*/
FoamFile
{
    version     2.0;
    format      ascii;
    arch        "LSB;label=32;scalar=64";
    class       volScalarField;
    location    "0.85";
    object      nut;
}
// * * * * * * * * * * * * * * * * * * * * * * * * * * * * * * * * * * * * * //

dimensions      [0 2 -1 0 0 0 0];

internalField   nonuniform List<scalar> 
682
(
1.72461e-05
1.69555e-05
1.66867e-05
1.64418e-05
1.62195e-05
1.60182e-05
1.58355e-05
1.56707e-05
1.55226e-05
1.53912e-05
1.5283e-05
1.64582e-05
1.61804e-05
1.59243e-05
1.5691e-05
1.54794e-05
1.52881e-05
1.51156e-05
1.49609e-05
1.48223e-05
1.47004e-05
1.4599e-05
1.44316e-05
1.41978e-05
1.39843e-05
1.37911e-05
1.36168e-05
1.34598e-05
1.33173e-05
1.3193e-05
1.30812e-05
1.2983e-05
1.28985e-05
1.163e-05
1.14558e-05
1.12924e-05
1.11429e-05
1.10087e-05
1.08913e-05
1.07758e-05
1.06631e-05
1.05757e-05
1.04959e-05
1.04216e-05
1.03413e-05
7.97362e-06
7.86605e-06
7.76858e-06
7.67905e-06
7.59884e-06
7.52676e-06
7.46065e-06
7.39919e-06
7.34426e-06
7.29604e-06
7.25457e-06
7.21335e-06
4.00179e-06
3.96436e-06
3.92969e-06
3.89735e-06
3.86741e-06
3.84009e-06
3.81522e-06
3.79223e-06
3.77133e-06
3.75195e-06
3.73523e-06
3.72112e-06
6.23081e-05
5.97641e-05
5.74297e-05
5.53049e-05
5.33692e-05
5.16072e-05
5.00059e-05
4.85552e-05
4.72217e-05
4.59672e-05
4.49951e-05
6.01123e-05
5.77583e-05
5.55821e-05
5.35855e-05
5.17518e-05
5.0072e-05
4.85531e-05
4.71611e-05
4.59215e-05
4.46223e-05
4.35878e-05
5.03218e-05
4.82976e-05
4.64042e-05
4.4722e-05
4.31053e-05
4.15753e-05
4.04303e-05
3.90532e-05
3.85246e-05
3.72641e-05
3.6161e-05
3.53344e-05
3.36563e-05
3.21726e-05
3.05245e-05
2.97013e-05
2.82279e-05
2.74059e-05
2.61515e-05
2.55352e-05
2.45645e-05
2.40603e-05
2.3169e-05
1.59309e-05
1.51979e-05
1.43891e-05
1.3738e-05
1.31465e-05
1.2632e-05
1.21521e-05
1.17513e-05
1.13882e-05
1.10417e-05
1.0789e-05
1.05812e-05
8.10925e-06
8.0186e-06
7.93146e-06
7.85005e-06
7.77247e-06
7.70296e-06
7.64049e-06
7.58416e-06
7.53396e-06
7.48888e-06
7.45035e-06
7.41354e-06
0.000109466
0.0001058
0.000102373
9.92003e-05
9.62877e-05
9.35899e-05
9.11077e-05
8.89028e-05
8.68393e-05
8.55126e-05
8.18848e-05
0.00010563
0.000102177
9.89532e-05
9.59847e-05
9.32118e-05
9.06326e-05
8.82837e-05
8.62183e-05
8.43819e-05
8.31674e-05
7.91642e-05
9.1291e-05
8.8203e-05
8.53738e-05
8.28722e-05
8.04016e-05
7.7975e-05
7.58689e-05
7.40239e-05
7.28893e-05
7.00803e-05
6.731e-05
6.91494e-05
6.65191e-05
6.38278e-05
6.15592e-05
5.9973e-05
5.73907e-05
5.46607e-05
5.32693e-05
5.12938e-05
5.02602e-05
4.86924e-05
4.69692e-05
3.44249e-05
3.35337e-05
3.16701e-05
3.07532e-05
2.92283e-05
2.84121e-05
2.71222e-05
2.64941e-05
2.54829e-05
2.49657e-05
2.41543e-05
2.3482e-05
1.19687e-05
1.18078e-05
1.16693e-05
1.15358e-05
1.13914e-05
1.12779e-05
1.11758e-05
1.10839e-05
1.10031e-05
1.09252e-05
1.08585e-05
1.07992e-05
0.000140054
0.000135846
0.000131898
0.000128221
0.000124811
0.000121655
0.000118743
0.000116072
0.000113606
0.000111528
0.000107834
0.000135162
0.000131177
0.000127445
0.000123987
0.000120794
0.000117845
0.000115123
0.000112656
0.000110376
0.000108446
0.000104883
0.000119021
0.000115378
0.000111984
0.000108846
0.000105896
0.000103142
0.000100644
9.85099e-05
9.64511e-05
9.45884e-05
9.12051e-05
9.34556e-05
9.0112e-05
8.69744e-05
8.40766e-05
8.14779e-05
7.89862e-05
7.65781e-05
7.44746e-05
7.31745e-05
7.10776e-05
6.85452e-05
6.59874e-05
5.02478e-05
4.80681e-05
4.60439e-05
4.41885e-05
4.242e-05
4.09995e-05
3.93683e-05
3.86081e-05
3.7199e-05
3.6613e-05
3.54071e-05
3.45142e-05
1.50156e-05
1.47785e-05
1.45597e-05
1.43586e-05
1.41758e-05
1.40098e-05
1.38626e-05
1.37272e-05
1.36063e-05
1.34957e-05
1.33961e-05
1.3292e-05
0.000151629
0.000147239
0.000143134
0.00013932
0.000135787
0.000132524
0.000129521
0.00012677
0.000124243
0.000122095
0.000118444
0.000134606
0.000130606
0.000126876
0.00012342
0.000120225
0.00011728
0.000114584
0.000112137
0.000109868
0.000108059
0.000104563
0.000107834
0.000104086
0.000100589
9.73525e-05
9.43779e-05
9.16434e-05
8.91401e-05
8.68592e-05
8.48424e-05
8.29165e-05
8.1875e-05
7.80251e-05
6.06137e-05
5.79784e-05
5.55741e-05
5.33895e-05
5.14065e-05
4.96161e-05
4.79933e-05
4.654e-05
4.52025e-05
4.4011e-05
4.26896e-05
4.23648e-05
1.69543e-05
1.66656e-05
1.63992e-05
1.61536e-05
1.59282e-05
1.5722e-05
1.55341e-05
1.53639e-05
1.52104e-05
1.50732e-05
1.49515e-05
1.48525e-05
0.000156994
0.00015249
0.000148282
0.000144373
0.000140754
0.000137411
0.000134333
0.000131506
0.000128914
0.000126658
0.000124039
0.000139827
0.000135737
0.000131926
0.000128395
0.000125137
0.000122137
0.000119384
0.000116874
0.000114574
0.00011272
0.000109268
0.000113169
0.00010934
0.000105771
0.000102468
9.94259e-05
9.664e-05
9.40682e-05
9.1714e-05
8.9586e-05
8.76171e-05
8.64235e-05
8.30227e-05
6.50978e-05
6.23516e-05
5.98628e-05
5.76028e-05
5.55434e-05
5.36691e-05
5.19648e-05
5.04189e-05
4.90179e-05
4.77339e-05
4.65096e-05
4.56364e-05
1.75557e-05
1.72392e-05
1.69474e-05
1.66805e-05
1.64374e-05
1.62166e-05
1.60163e-05
1.58346e-05
1.56706e-05
1.55232e-05
1.53926e-05
1.52855e-05
0.000151512
0.000147124
0.000143021
0.00013921
0.000135682
0.000132422
0.00012942
0.000126669
0.000124145
0.000122008
0.000118347
0.00013491
0.000130954
0.000127262
0.000123851
0.0001207
0.000117789
0.000115103
0.000112671
0.00011044
0.000108614
0.000105085
0.000109168
0.000105517
0.000102094
9.89139e-05
9.59966e-05
9.32683e-05
9.07413e-05
8.84406e-05
8.64125e-05
8.46191e-05
8.34323e-05
7.95716e-05
6.27193e-05
6.01777e-05
5.78392e-05
5.5685e-05
5.37152e-05
5.19058e-05
5.02513e-05
4.87457e-05
4.73689e-05
4.61411e-05
4.48439e-05
4.38083e-05
1.67541e-05
1.64512e-05
1.61731e-05
1.5919e-05
1.56877e-05
1.54777e-05
1.52876e-05
1.5116e-05
1.49618e-05
1.48236e-05
1.4702e-05
1.46012e-05
0.000134688
0.000130596
0.00012676
0.000123201
0.000119903
0.000116855
0.000114058
0.000111518
0.000109167
0.000107229
0.000103668
0.000118999
0.00011533
0.000111908
0.000108745
0.000105765
0.00010298
0.00010046
9.82949e-05
9.62844e-05
9.43756e-05
9.09655e-05
9.46074e-05
9.13356e-05
8.82473e-05
8.53967e-05
8.29171e-05
8.03988e-05
7.80467e-05
7.58217e-05
7.40333e-05
7.29211e-05
7.01821e-05
6.73617e-05
5.26563e-05
5.04569e-05
4.84283e-05
4.65258e-05
4.48523e-05
4.32366e-05
4.17633e-05
4.0513e-05
3.91351e-05
3.85907e-05
3.73774e-05
3.62904e-05
1.46782e-05
1.44248e-05
1.41925e-05
1.3981e-05
1.37892e-05
1.36162e-05
1.34598e-05
1.33179e-05
1.31934e-05
1.30813e-05
1.29836e-05
1.28994e-05
0.000104131
0.000100538
9.71866e-05
9.4132e-05
9.1305e-05
8.87049e-05
8.63383e-05
8.42585e-05
8.22929e-05
8.08957e-05
7.72827e-05
9.00648e-05
8.69036e-05
8.3974e-05
8.13798e-05
7.88287e-05
7.6416e-05
7.42411e-05
7.29789e-05
7.08399e-05
6.82743e-05
6.57144e-05
6.92038e-05
6.6441e-05
6.38604e-05
6.1388e-05
6.00325e-05
5.71354e-05
5.50376e-05
5.27125e-05
5.15929e-05
4.9989e-05
4.88447e-05
4.70276e-05
3.53673e-05
3.35732e-05
3.22489e-05
3.05475e-05
2.97449e-05
2.82435e-05
2.74489e-05
2.61885e-05
2.55957e-05
2.46013e-05
2.41288e-05
2.32527e-05
1.16284e-05
1.14531e-05
1.12899e-05
1.11416e-05
1.10081e-05
1.08911e-05
1.07766e-05
1.06641e-05
1.05769e-05
1.04971e-05
1.04239e-05
1.03437e-05
5.791e-05
5.54614e-05
5.32208e-05
5.11866e-05
4.93476e-05
4.76777e-05
4.6188e-05
4.47926e-05
4.35981e-05
4.22599e-05
4.18131e-05
4.7963e-05
4.59519e-05
4.4065e-05
4.23377e-05
4.08654e-05
3.92937e-05
3.84252e-05
3.70459e-05
3.64658e-05
3.5287e-05
3.43792e-05
3.47961e-05
3.31965e-05
3.18874e-05
3.03023e-05
2.94673e-05
2.80902e-05
2.73408e-05
2.62207e-05
2.56041e-05
2.48792e-05
2.42081e-05
2.35096e-05
1.59457e-05
1.51765e-05
1.43967e-05
1.37298e-05
1.31555e-05
1.26324e-05
1.21639e-05
1.17593e-05
1.14059e-05
1.10577e-05
1.08179e-05
1.06051e-05
7.97335e-06
7.8652e-06
7.76794e-06
7.67885e-06
7.59868e-06
7.52682e-06
7.46104e-06
7.39989e-06
7.3451e-06
7.29705e-06
7.2559e-06
7.21413e-06
1.66737e-05
1.64066e-05
1.61597e-05
1.59325e-05
1.57249e-05
1.5536e-05
1.53645e-05
1.52097e-05
1.50713e-05
1.49493e-05
1.485e-05
1.47822e-05
1.45624e-05
1.43602e-05
1.41763e-05
1.401e-05
1.38609e-05
1.37243e-05
1.36026e-05
1.34912e-05
1.33914e-05
1.32852e-05
1.19683e-05
1.18082e-05
1.16693e-05
1.15341e-05
1.139e-05
1.12772e-05
1.11738e-05
1.10819e-05
1.10009e-05
1.09229e-05
1.0856e-05
1.0797e-05
8.10875e-06
8.01809e-06
7.93092e-06
7.84976e-06
7.77181e-06
7.70263e-06
7.63996e-06
7.58394e-06
7.53366e-06
7.48883e-06
7.45042e-06
7.41358e-06
4.00159e-06
3.96408e-06
3.92954e-06
3.89723e-06
3.86727e-06
3.84004e-06
3.81523e-06
3.79233e-06
3.77153e-06
3.75224e-06
3.7355e-06
3.72129e-06
)
;

boundaryField
{
    inlet
    {
        type            calculated;
        value           nonuniform List<scalar> 0();
    }
    ami1
    {
        type            cyclicAMI;
        value           nonuniform List<scalar> 0();
    }
    walls
    {
        type            nutkWallFunction;
        blending        stepwise;
        value           uniform 0;
    }
    ami2
    {
        type            cyclicAMI;
        value           nonuniform List<scalar> 0();
    }
    outlet
    {
        type            calculated;
        value           nonuniform List<scalar> 0();
    }
    procBoundary9to0
    {
        type            processor;
        value           nonuniform List<scalar> 
40
(
1.75547e-05
1.67539e-05
1.46807e-05
1.46807e-05
1.18115e-05
8.06806e-06
4.0403e-06
6.54594e-05
6.30657e-05
5.28568e-05
5.28568e-05
3.72565e-05
1.68198e-05
8.2067e-06
0.000113762
0.000109724
9.49977e-05
9.49977e-05
7.24103e-05
3.6707e-05
1.21416e-05
0.000144844
0.000139738
0.000123271
0.000123271
9.72946e-05
5.29226e-05
1.5268e-05
0.000156596
0.000139224
0.000139224
0.000112141
6.38213e-05
1.72608e-05
0.000162088
0.000144548
0.000144548
0.000117568
6.84543e-05
1.78895e-05
)
;
    }
    procBoundary9to1
    {
        type            processor;
        value           nonuniform List<scalar> 
30
(
0.00015649
0.000139486
0.000139486
0.000113366
6.58367e-05
1.7077e-05
0.000139358
0.000123262
0.000123262
9.84327e-05
5.53206e-05
1.49505e-05
0.000108332
9.37896e-05
9.37896e-05
7.23859e-05
3.72479e-05
1.18114e-05
6.0934e-05
5.04734e-05
5.04734e-05
3.66181e-05
1.68252e-05
8.06815e-06
1.69543e-05
1.50156e-05
1.50156e-05
1.21417e-05
8.20675e-06
4.04032e-06
)
;
    }
    procBoundary9to7
    {
        type            processor;
        value           nonuniform List<scalar> 
59
(
1.52004e-05
1.4518e-05
1.28286e-05
1.02912e-05
7.1834e-06
3.70937e-06
4.29098e-05
4.11989e-05
3.41138e-05
2.19308e-05
1.01283e-05
7.39109e-06
7.70097e-05
7.45272e-05
6.3435e-05
4.40015e-05
2.22636e-05
1.0758e-05
0.00010218
9.89173e-05
8.56696e-05
6.21527e-05
3.26646e-05
1.32124e-05
0.000112323
9.86679e-05
7.35398e-05
4.00353e-05
1.47777e-05
0.000117912
0.000103214
7.79394e-05
4.33374e-05
1.51975e-05
0.000112316
9.91437e-05
7.49423e-05
4.13807e-05
1.45158e-05
9.80898e-05
8.54781e-05
6.34423e-05
3.42018e-05
1.28245e-05
7.29436e-05
6.18943e-05
4.3992e-05
2.1971e-05
1.02881e-05
3.97534e-05
3.25189e-05
2.22512e-05
1.01292e-05
7.18281e-06
1.47884e-05
1.31954e-05
1.07478e-05
7.38804e-06
3.70865e-06
)
;
    }
    procBoundary9to8
    {
        type            processor;
        value           nonuniform List<scalar> 
132
(
1.66747e-05
1.64073e-05
1.61604e-05
1.59336e-05
1.57266e-05
1.55378e-05
1.53668e-05
1.52126e-05
1.50747e-05
1.49528e-05
1.48524e-05
5.78674e-05
5.54168e-05
5.31773e-05
5.11404e-05
4.92916e-05
4.76212e-05
4.61022e-05
4.47198e-05
4.34861e-05
4.21639e-05
4.16749e-05
0.000104147
0.000100568
9.72325e-05
9.415e-05
9.13046e-05
8.86832e-05
8.63046e-05
8.42249e-05
8.22186e-05
8.10339e-05
7.69864e-05
0.000134788
0.00013073
0.000126927
0.000123388
0.000120104
0.000117067
0.000114281
0.000111741
0.000109393
0.000107399
0.000103801
0.000157092
0.000152545
0.00014829
0.00014433
0.000140657
0.000137258
0.000134123
0.000131238
0.000128586
0.000126258
0.000123602
0.000157092
0.000152545
0.00014829
0.00014433
0.000140657
0.000137258
0.000134123
0.000131238
0.000128586
0.000126258
0.000123602
0.000162613
0.000158008
0.00015371
0.000149718
0.000146023
0.000142614
0.00013948
0.000136607
0.000133982
0.000131685
0.000129115
0.000157007
0.000152531
0.000148356
0.000144481
0.000140899
0.000137599
0.000134571
0.000131802
0.000129274
0.00012709
0.000124582
0.00014003
0.000135881
0.000132002
0.000128408
0.000125093
0.000122047
0.000119258
0.000116714
0.000114382
0.000112499
0.000109013
0.000109487
0.000105861
0.000102487
9.94051e-05
9.65885e-05
9.40025e-05
9.16455e-05
8.94913e-05
8.74838e-05
8.622e-05
8.26186e-05
6.23652e-05
5.98516e-05
5.75601e-05
5.54752e-05
5.35837e-05
5.18704e-05
5.0321e-05
4.89212e-05
4.76429e-05
4.64831e-05
4.49637e-05
1.72444e-05
1.69527e-05
1.66852e-05
1.64413e-05
1.62196e-05
1.60189e-05
1.58368e-05
1.56726e-05
1.55252e-05
1.53945e-05
1.52875e-05
)
;
    }
}


// ************************************************************************* //
