/*--------------------------------*- C++ -*----------------------------------*\
| =========                 |                                                 |
| \\      /  F ield         | OpenFOAM: The Open Source CFD Toolbox           |
|  \\    /   O peration     | Version:  2212                                  |
|   \\  /    A nd           | Website:  www.openfoam.com                      |
|    \\/     M anipulation  |                                                 |
\*---------------------------------------------------------------------------*/
FoamFile
{
    version     2.0;
    format      ascii;
    arch        "LSB;label=32;scalar=64";
    class       surfaceScalarField;
    location    "0.85";
    object      phi;
}
// * * * * * * * * * * * * * * * * * * * * * * * * * * * * * * * * * * * * * //

dimensions      [0 3 -1 0 0 0 0];

oriented        oriented;

internalField   nonuniform List<scalar> 
1786
(
7.74492e-07
-1.18469e-07
5.00058e-09
7.7028e-07
-1.1824e-07
4.99099e-09
7.66067e-07
-1.18055e-07
4.89245e-09
7.61938e-07
-1.17907e-07
4.72807e-09
7.57957e-07
-1.17792e-07
4.51499e-09
7.54164e-07
-1.17702e-07
4.26941e-09
7.50581e-07
-1.1763e-07
4.00918e-09
7.47215e-07
-1.17579e-07
3.75269e-09
7.44061e-07
-1.17552e-07
3.51309e-09
7.41136e-07
-1.17551e-07
3.274e-09
-1.17578e-07
2.995e-09
7.12423e-07
-1.09626e-07
-3.46917e-09
7.07256e-07
-1.09376e-07
-3.69704e-09
7.02338e-07
-1.09176e-07
-3.96155e-09
6.97703e-07
-1.09021e-07
-4.25018e-09
6.93374e-07
-1.08909e-07
-4.55407e-09
6.89357e-07
-1.0882e-07
-4.86515e-09
6.85638e-07
-1.08737e-07
-5.17358e-09
6.82203e-07
-1.08682e-07
-5.46206e-09
6.79026e-07
-1.0866e-07
-5.71558e-09
6.76092e-07
-1.08651e-07
-5.96543e-09
-1.08671e-07
-6.2573e-09
5.75481e-07
-9.17065e-08
-1.22178e-08
5.7027e-07
-9.15704e-08
-1.25946e-08
5.65509e-07
-9.14555e-08
-1.29592e-08
5.61168e-07
-9.13614e-08
-1.33184e-08
5.57229e-07
-9.13091e-08
-1.36613e-08
5.53664e-07
-9.12615e-08
-1.39929e-08
5.5043e-07
-9.12137e-08
-1.42892e-08
5.47489e-07
-9.11593e-08
-1.45816e-08
5.44786e-07
-9.11079e-08
-1.48489e-08
5.42274e-07
-9.10729e-08
-1.50669e-08
-9.10469e-08
-1.53424e-08
4.00971e-07
-6.64869e-08
-2.06525e-08
3.96687e-07
-6.64021e-08
-2.10203e-08
3.92786e-07
-6.63397e-08
-2.133e-08
3.8925e-07
-6.6258e-08
-2.16617e-08
3.86073e-07
-6.61671e-08
-2.20164e-08
3.83195e-07
-6.61006e-08
-2.23304e-08
3.80573e-07
-6.60511e-08
-2.25885e-08
3.78169e-07
-6.60131e-08
-2.27971e-08
3.75982e-07
-6.59714e-08
-2.30004e-08
3.73987e-07
-6.5931e-08
-2.31821e-08
3.72144e-07
-6.58873e-08
-2.33425e-08
-6.58269e-08
-2.35858e-08
2.15258e-07
-3.49975e-08
-2.87825e-08
2.12812e-07
-3.49364e-08
-2.90195e-08
2.10561e-07
-3.48919e-08
-2.91968e-08
2.08489e-07
-3.48457e-08
-2.93397e-08
2.06599e-07
-3.48018e-08
-2.94758e-08
2.04881e-07
-3.47647e-08
-2.96174e-08
2.03305e-07
-3.47416e-08
-2.97339e-08
2.01846e-07
-3.47297e-08
-2.98241e-08
2.00512e-07
-3.4719e-08
-2.99179e-08
1.993e-07
-3.47099e-08
-3.00093e-08
1.98195e-07
-3.46973e-08
-3.0085e-08
-3.46551e-08
-3.02537e-08
7.23363e-08
-3.40105e-08
7.14361e-08
-3.40361e-08
7.06076e-08
-3.40633e-08
6.9856e-08
-3.40941e-08
6.91818e-08
-3.41275e-08
6.85761e-08
-3.4159e-08
6.8022e-08
-3.41876e-08
6.75107e-08
-3.42184e-08
6.70473e-08
-3.42555e-08
6.6631e-08
-3.42936e-08
6.62594e-08
-3.43257e-08
-3.43655e-08
1.20256e-06
-1.05508e-07
5.96371e-09
1.20363e-06
-1.05083e-07
5.89251e-09
1.20443e-06
-1.04732e-07
5.76766e-09
1.20502e-06
-1.04445e-07
5.59223e-09
1.20541e-06
-1.04209e-07
5.3751e-09
1.20565e-06
-1.04016e-07
5.12979e-09
1.20576e-06
-1.03865e-07
4.87701e-09
1.20576e-06
-1.03751e-07
4.63735e-09
1.20567e-06
-1.03674e-07
4.42468e-09
1.20553e-06
-1.03606e-07
4.16479e-09
-1.03507e-07
3.75727e-09
1.14834e-06
-9.86699e-08
-1.00964e-08
1.14809e-06
-9.81247e-08
-1.04026e-08
1.14779e-06
-9.76826e-08
-1.07176e-08
1.14747e-06
-9.73232e-08
-1.10465e-08
1.14712e-06
-9.70277e-08
-1.13876e-08
1.14675e-06
-9.67791e-08
-1.173e-08
1.14635e-06
-9.65936e-08
-1.20524e-08
1.14594e-06
-9.6449e-08
-1.23447e-08
1.14549e-06
-9.63444e-08
-1.25973e-08
1.14506e-06
-9.62358e-08
-1.29048e-08
-9.60327e-08
-1.33785e-08
1.0132e-06
-8.32851e-08
-2.57574e-08
1.01161e-06
-8.28619e-08
-2.62739e-08
1.01023e-06
-8.25102e-08
-2.67491e-08
1.00901e-06
-8.22197e-08
-2.72035e-08
1.00793e-06
-8.19605e-08
-2.76434e-08
1.00695e-06
-8.17357e-08
-2.80591e-08
1.00603e-06
-8.15686e-08
-2.83956e-08
1.00515e-06
-8.14128e-08
-2.87316e-08
1.00429e-06
-8.12895e-08
-2.90518e-08
1.00352e-06
-8.11912e-08
-2.93373e-08
-8.09581e-08
-2.9801e-08
8.09905e-07
-6.11515e-08
-3.99778e-08
8.07036e-07
-6.08185e-08
-4.06184e-08
8.04562e-07
-6.05768e-08
-4.11409e-08
8.02386e-07
-6.03777e-08
-4.16184e-08
8.00431e-07
-6.0176e-08
-4.21048e-08
7.98679e-07
-5.99696e-08
-4.2569e-08
7.97108e-07
-5.98019e-08
-4.29509e-08
7.95676e-07
-5.9677e-08
-4.3257e-08
7.94352e-07
-5.95399e-08
-4.35493e-08
7.93093e-07
-5.94131e-08
-4.37993e-08
7.91886e-07
-5.93146e-08
-4.40127e-08
-5.90808e-08
-4.43899e-08
5.39478e-07
-3.25343e-08
-5.35587e-08
5.36061e-07
-3.23732e-08
-5.40478e-08
5.32975e-07
-3.22395e-08
-5.44475e-08
5.30163e-07
-3.21111e-08
-5.4795e-08
5.2761e-07
-3.19794e-08
-5.51186e-08
5.25279e-07
-3.18516e-08
-5.54048e-08
5.23127e-07
-3.17503e-08
-5.56333e-08
5.21122e-07
-3.16731e-08
-5.58228e-08
5.19266e-07
-3.1593e-08
-5.60088e-08
5.17538e-07
-3.15156e-08
-5.61788e-08
5.15886e-07
-3.14511e-08
-5.62971e-08
-3.13087e-08
-5.65335e-08
2.28869e-07
-6.40475e-08
2.26575e-07
-6.41155e-08
2.24461e-07
-6.41895e-08
2.22527e-07
-6.42709e-08
2.20768e-07
-6.43478e-08
2.19173e-07
-6.44152e-08
2.17714e-07
-6.4479e-08
2.16375e-07
-6.45523e-08
2.15156e-07
-6.46297e-08
2.14054e-07
-6.47069e-08
2.1305e-07
-6.47738e-08
-6.4819e-08
1.49305e-06
-8.55397e-08
5.66581e-09
1.49641e-06
-8.52113e-08
5.46061e-09
1.49952e-06
-8.49287e-08
5.24756e-09
1.50238e-06
-8.46801e-08
5.02182e-09
1.50501e-06
-8.44627e-08
4.78518e-09
1.50742e-06
-8.42818e-08
4.54608e-09
1.50964e-06
-8.41376e-08
4.31572e-09
1.51168e-06
-8.40176e-08
4.10187e-09
1.51358e-06
-8.39128e-08
3.90402e-09
1.51536e-06
-8.38009e-08
3.6237e-09
-8.36651e-08
3.21902e-09
1.44569e-06
-8.13134e-08
-1.68004e-08
1.44807e-06
-8.07984e-08
-1.71876e-08
1.45033e-06
-8.03553e-08
-1.75535e-08
1.45246e-06
-7.99502e-08
-1.79113e-08
1.45446e-06
-7.95917e-08
-1.82596e-08
1.45634e-06
-7.93011e-08
-1.85853e-08
1.45811e-06
-7.90821e-08
-1.88796e-08
1.45978e-06
-7.88822e-08
-1.91484e-08
1.46136e-06
-7.86885e-08
-1.9403e-08
1.46289e-06
-7.8507e-08
-1.97294e-08
-7.82535e-08
-2.01808e-08
1.31724e-06
-6.97657e-08
-3.82928e-08
1.31833e-06
-6.93045e-08
-3.88668e-08
1.31951e-06
-6.88967e-08
-3.93832e-08
1.32071e-06
-6.84737e-08
-3.98803e-08
1.32191e-06
-6.80878e-08
-4.03446e-08
1.32308e-06
-6.77915e-08
-4.07428e-08
1.32424e-06
-6.75692e-08
-4.10636e-08
1.32536e-06
-6.7366e-08
-4.13754e-08
1.32648e-06
-6.71709e-08
-4.16847e-08
1.3276e-06
-6.69798e-08
-4.19826e-08
-6.66481e-08
-4.24147e-08
1.11338e-06
-5.23231e-08
-5.74342e-08
1.11312e-06
-5.19502e-08
-5.81717e-08
1.11308e-06
-5.16289e-08
-5.87807e-08
1.11321e-06
-5.13236e-08
-5.93167e-08
1.11349e-06
-5.10003e-08
-5.98569e-08
1.11386e-06
-5.06874e-08
-6.03462e-08
1.11427e-06
-5.0428e-08
-6.07242e-08
1.11466e-06
-5.02015e-08
-6.10148e-08
1.115e-06
-4.99748e-08
-6.12819e-08
1.11532e-06
-4.97565e-08
-6.15255e-08
1.11567e-06
-4.95858e-08
-6.17594e-08
-4.92823e-08
-6.21394e-08
8.31941e-07
-2.87362e-08
-7.52019e-08
8.30286e-07
-2.85458e-08
-7.57975e-08
8.28847e-07
-2.83519e-08
-7.62857e-08
8.27565e-07
-2.81408e-08
-7.66951e-08
8.26382e-07
-2.79122e-08
-7.70245e-08
8.25279e-07
-2.76881e-08
-7.73007e-08
8.24247e-07
-2.74904e-08
-7.75391e-08
8.23272e-07
-2.73029e-08
-7.7746e-08
8.22337e-07
-2.71144e-08
-7.79351e-08
8.21426e-07
-2.69296e-08
-7.80945e-08
8.20526e-07
-2.67732e-08
-7.82095e-08
-2.65822e-08
-7.84308e-08
4.42087e-07
-8.92614e-08
4.38782e-07
-8.93564e-08
4.35674e-07
-8.94341e-08
4.3276e-07
-8.94972e-08
4.30048e-07
-8.95479e-08
4.27534e-07
-8.95891e-08
4.25204e-07
-8.96399e-08
4.2305e-07
-8.97015e-08
4.21071e-07
-8.97652e-08
4.19251e-07
-8.98161e-08
4.1756e-07
-8.98558e-08
-8.98714e-08
1.69921e-06
-6.02791e-08
1.70388e-06
-6.0082e-08
1.70826e-06
-5.99057e-08
1.71237e-06
-5.97446e-08
1.71621e-06
-5.95988e-08
1.71981e-06
-5.94715e-08
1.72318e-06
-5.93614e-08
1.72635e-06
-5.92616e-08
1.72934e-06
-5.91688e-08
1.73209e-06
-5.90706e-08
-5.89524e-08
1.6557e-06
-5.83031e-08
-2.30774e-08
1.65977e-06
-5.79355e-08
-2.34017e-08
1.66361e-06
-5.76044e-08
-2.3702e-08
1.66724e-06
-5.72953e-08
-2.39851e-08
1.67064e-06
-5.70121e-08
-2.42514e-08
1.67385e-06
-5.67677e-08
-2.44963e-08
1.67688e-06
-5.65577e-08
-2.47189e-08
1.67976e-06
-5.63565e-08
-2.49257e-08
1.68248e-06
-5.61702e-08
-2.51232e-08
1.68501e-06
-5.59785e-08
-2.53576e-08
-5.57189e-08
-2.56634e-08
1.53068e-06
-5.07849e-08
-4.89822e-08
1.53374e-06
-5.04456e-08
-4.94197e-08
1.53669e-06
-5.0127e-08
-4.981e-08
1.5395e-06
-4.98099e-08
-5.01708e-08
1.54215e-06
-4.95115e-08
-5.04993e-08
1.54468e-06
-4.92549e-08
-5.07822e-08
1.54711e-06
-4.90343e-08
-5.10242e-08
1.54944e-06
-4.8804e-08
-5.12535e-08
1.55164e-06
-4.85866e-08
-5.14658e-08
1.55373e-06
-4.83716e-08
-5.1684e-08
-4.80409e-08
-5.19749e-08
1.32613e-06
-3.86629e-08
-7.1968e-08
1.32814e-06
-3.84579e-08
-7.25035e-08
1.33011e-06
-3.82451e-08
-7.29543e-08
1.33203e-06
-3.80222e-08
-7.33448e-08
1.33386e-06
-3.77919e-08
-7.37014e-08
1.33558e-06
-3.75653e-08
-7.40136e-08
1.33719e-06
-3.73292e-08
-7.4264e-08
1.33871e-06
-3.71043e-08
-7.44631e-08
1.34015e-06
-3.68614e-08
-7.46568e-08
1.34151e-06
-3.66378e-08
-7.48365e-08
1.34282e-06
-3.64399e-08
-7.5e-08
-3.61028e-08
-7.52286e-08
1.04288e-06
-2.19414e-08
-9.22508e-08
1.04316e-06
-2.18765e-08
-9.26582e-08
1.04338e-06
-2.1763e-08
-9.29813e-08
1.04351e-06
-2.16123e-08
-9.3241e-08
1.04357e-06
-2.14292e-08
-9.34483e-08
1.04355e-06
-2.12328e-08
-9.36093e-08
1.04345e-06
-2.10171e-08
-9.3749e-08
1.04326e-06
-2.0797e-08
-9.38645e-08
1.04299e-06
-2.05679e-08
-9.39586e-08
1.04265e-06
-2.03603e-08
-9.40322e-08
1.0423e-06
-2.01844e-08
-9.41154e-08
-1.99719e-08
-9.42773e-08
6.31077e-07
-1.07409e-07
6.27299e-07
-1.07455e-07
6.23587e-07
-1.07486e-07
6.19987e-07
-1.07509e-07
6.16541e-07
-1.07531e-07
6.13278e-07
-1.0756e-07
6.10217e-07
-1.07595e-07
6.07353e-07
-1.07635e-07
6.04685e-07
-1.07665e-07
6.02192e-07
-1.07683e-07
5.99858e-07
-1.07706e-07
-1.07718e-07
1.78265e-06
-3.18598e-08
-2.8368e-08
1.78782e-06
-3.16323e-08
-2.84873e-08
1.79269e-06
-3.14153e-08
-2.85974e-08
1.79726e-06
-3.12044e-08
-2.87e-08
1.80155e-06
-3.1001e-08
-2.87954e-08
1.80557e-06
-3.08099e-08
-2.88833e-08
1.80936e-06
-3.06319e-08
-2.8964e-08
1.81292e-06
-3.04646e-08
-2.90395e-08
1.81626e-06
-3.03047e-08
-2.91125e-08
1.81934e-06
-3.01073e-08
-2.9197e-08
-2.984e-08
-2.93028e-08
1.65807e-06
-2.86714e-08
-5.67963e-08
1.66242e-06
-2.84885e-08
-5.69208e-08
1.66652e-06
-2.82939e-08
-5.703e-08
1.67036e-06
-2.80856e-08
-5.71292e-08
1.67395e-06
-2.78689e-08
-5.7219e-08
1.67731e-06
-2.76539e-08
-5.72974e-08
1.68047e-06
-2.74462e-08
-5.73665e-08
1.68343e-06
-2.72528e-08
-5.74315e-08
1.68623e-06
-2.70738e-08
-5.74928e-08
1.68882e-06
-2.68246e-08
-5.75605e-08
-2.64578e-08
-5.76481e-08
1.45127e-06
-2.24555e-08
-8.21395e-08
1.45479e-06
-2.24717e-08
-8.22212e-08
1.45806e-06
-2.24323e-08
-8.2284e-08
1.4611e-06
-2.23368e-08
-8.23348e-08
1.46388e-06
-2.21936e-08
-8.23797e-08
1.46643e-06
-2.20125e-08
-8.2419e-08
1.46877e-06
-2.18034e-08
-8.24498e-08
1.47092e-06
-2.15843e-08
-8.24759e-08
1.47289e-06
-2.13789e-08
-8.25031e-08
1.47471e-06
-2.12031e-08
-8.25291e-08
1.47643e-06
-2.09764e-08
-8.25626e-08
-2.06048e-08
-8.26136e-08
1.16685e-06
-1.34578e-08
-1.03226e-07
1.16849e-06
-1.35924e-08
-1.03168e-07
1.1698e-06
-1.3617e-08
-1.03107e-07
1.17082e-06
-1.35559e-08
-1.03049e-07
1.17161e-06
-1.34277e-08
-1.02998e-07
1.17219e-06
-1.3249e-08
-1.02952e-07
1.17259e-06
-1.30375e-08
-1.02916e-07
1.17284e-06
-1.28099e-08
-1.02889e-07
1.17295e-06
-1.25866e-08
-1.02869e-07
1.17296e-06
-1.23832e-08
-1.02853e-07
1.17289e-06
-1.21739e-08
-1.02851e-07
-1.19252e-08
-1.02877e-07
7.49828e-07
-1.17696e-07
7.46351e-07
-1.1757e-07
7.42715e-07
-1.17467e-07
7.39033e-07
-1.17383e-07
7.35392e-07
-1.17318e-07
7.31856e-07
-1.17272e-07
7.28465e-07
-1.17243e-07
7.25244e-07
-1.17224e-07
7.22207e-07
-1.17214e-07
7.19353e-07
-1.17213e-07
7.16695e-07
-1.17222e-07
-1.17236e-07
1.82488e-06
-4.17165e-09
-3.16488e-08
1.83042e-06
-3.96438e-09
-3.15336e-08
1.83563e-06
-3.7605e-09
-3.14267e-08
1.84052e-06
-3.55767e-09
-3.13268e-08
1.8451e-06
-3.35745e-09
-3.12337e-08
1.8494e-06
-3.16419e-09
-3.11486e-08
1.85343e-06
-2.98173e-09
-3.10714e-08
1.85721e-06
-2.81155e-09
-3.10001e-08
1.86075e-06
-2.64837e-09
-3.09322e-08
1.864e-06
-2.44015e-09
-3.08547e-08
-2.15439e-09
-3.07593e-08
1.69922e-06
-5.66959e-09
-6.02774e-08
1.70389e-06
-5.47983e-09
-6.00738e-08
1.70826e-06
-5.27214e-09
-5.98912e-08
1.71235e-06
-5.04719e-09
-5.97255e-08
1.71616e-06
-4.80973e-09
-5.95771e-08
1.71972e-06
-4.56957e-09
-5.94487e-08
1.72304e-06
-4.33827e-09
-5.93389e-08
1.72617e-06
-4.12669e-09
-5.92403e-08
1.72911e-06
-3.93599e-09
-5.91491e-08
1.73183e-06
-3.6618e-09
-5.90529e-08
-3.24963e-09
-5.8939e-08
1.48945e-06
-5.97372e-09
-8.59295e-08
1.49307e-06
-5.96676e-09
-8.55447e-08
1.49642e-06
-5.89727e-09
-8.52127e-08
1.4995e-06
-5.76623e-09
-8.49252e-08
1.50233e-06
-5.58339e-09
-8.46726e-08
1.50492e-06
-5.36055e-09
-8.4453e-08
1.50728e-06
-5.11236e-09
-8.42709e-08
1.50945e-06
-4.8588e-09
-8.41265e-08
1.51145e-06
-4.62166e-09
-8.40082e-08
1.51331e-06
-4.41534e-09
-8.3906e-08
1.51505e-06
-4.16509e-09
-8.37958e-08
-3.75721e-09
-8.36603e-08
1.20124e-06
-4.87832e-09
-1.06037e-07
1.20259e-06
-4.9656e-09
-1.05524e-07
1.20363e-06
-4.94564e-09
-1.051e-07
1.20441e-06
-4.84195e-09
-1.0475e-07
1.20497e-06
-4.67506e-09
-1.04464e-07
1.20534e-06
-4.46175e-09
-1.04228e-07
1.20557e-06
-4.21863e-09
-1.04036e-07
1.20567e-06
-3.96304e-09
-1.03884e-07
1.20566e-06
-3.71258e-09
-1.03771e-07
1.20557e-06
-3.47985e-09
-1.03695e-07
1.20543e-06
-3.24872e-09
-1.03628e-07
-2.97343e-09
-1.03523e-07
7.78555e-07
-1.18759e-07
7.74493e-07
-1.18474e-07
7.70336e-07
-1.18255e-07
7.66189e-07
-1.18078e-07
7.62134e-07
-1.17938e-07
7.5823e-07
-1.1783e-07
7.54513e-07
-1.17745e-07
7.51002e-07
-1.17676e-07
7.477e-07
-1.17625e-07
7.44603e-07
-1.17595e-07
7.4172e-07
-1.17588e-07
-1.17608e-07
1.78265e-06
2.30826e-08
-3.18546e-08
1.78783e-06
2.33945e-08
-3.16116e-08
1.7927e-06
2.36883e-08
-3.13844e-08
1.79728e-06
2.39699e-08
-3.11677e-08
1.80157e-06
2.42373e-08
-3.09614e-08
1.8056e-06
2.44842e-08
-3.07693e-08
1.80939e-06
2.4708e-08
-3.05917e-08
1.81295e-06
2.4914e-08
-3.04251e-08
1.8163e-06
2.51092e-08
-3.0265e-08
1.81938e-06
2.53421e-08
-3.00714e-08
2.56492e-08
-2.98166e-08
1.65571e-06
1.67973e-08
-5.83004e-08
1.65978e-06
1.71733e-08
-5.79227e-08
1.66363e-06
1.75385e-08
-5.75844e-08
1.66724e-06
1.78998e-08
-5.72708e-08
1.67063e-06
1.82529e-08
-5.69855e-08
1.67383e-06
1.85828e-08
-5.67407e-08
1.67685e-06
1.88797e-08
-5.65314e-08
1.67971e-06
1.91469e-08
-5.6332e-08
1.68242e-06
1.93964e-08
-5.61464e-08
1.68494e-06
1.97164e-08
-5.59539e-08
2.01655e-08
-5.56962e-08
1.44322e-06
9.79377e-09
-8.19389e-08
1.4457e-06
1.00905e-08
-8.13183e-08
1.44807e-06
1.03971e-08
-8.07995e-08
1.45031e-06
1.07199e-08
-8.03518e-08
1.45242e-06
1.10585e-08
-7.99437e-08
1.4544e-06
1.14082e-08
-7.95838e-08
1.45625e-06
1.17558e-08
-7.92946e-08
1.458e-06
1.20811e-08
-7.90748e-08
1.45964e-06
1.23719e-08
-7.88791e-08
1.46121e-06
1.26189e-08
-7.86939e-08
1.46272e-06
1.2916e-08
-7.85095e-08
1.33855e-08
-7.82535e-08
1.14858e-06
3.31042e-09
-9.9372e-08
1.14834e-06
3.49654e-09
-9.86934e-08
1.14806e-06
3.72997e-09
-9.81527e-08
1.14775e-06
3.99663e-09
-9.77121e-08
1.14741e-06
4.28596e-09
-9.73504e-08
1.14705e-06
4.58921e-09
-9.70522e-08
1.14668e-06
4.89816e-09
-9.68036e-08
1.14628e-06
5.20326e-09
-9.66151e-08
1.14587e-06
5.48899e-09
-9.64705e-08
1.14542e-06
5.74058e-09
-9.63725e-08
1.14499e-06
5.98518e-09
-9.62676e-08
6.27415e-09
-9.60589e-08
7.17772e-07
-1.09943e-07
7.1243e-07
-1.09636e-07
7.07305e-07
-1.094e-07
7.02432e-07
-1.09208e-07
6.97839e-07
-1.09059e-07
6.93549e-07
-1.08951e-07
6.89567e-07
-1.08864e-07
6.85877e-07
-1.08783e-07
6.82467e-07
-1.08726e-07
6.79306e-07
-1.08694e-07
6.76381e-07
-1.08678e-07
-1.08691e-07
1.65805e-06
4.89845e-08
-2.86565e-08
1.66241e-06
4.94157e-08
-2.84579e-08
1.66651e-06
4.98033e-08
-2.82588e-08
1.67037e-06
5.01641e-08
-2.80511e-08
1.67398e-06
5.04937e-08
-2.78366e-08
1.67736e-06
5.07779e-08
-2.76247e-08
1.68055e-06
5.10205e-08
-2.74196e-08
1.68355e-06
5.12488e-08
-2.72267e-08
1.68637e-06
5.14606e-08
-2.70415e-08
1.68899e-06
5.16805e-08
-2.67909e-08
5.19729e-08
-2.64386e-08
1.53066e-06
3.82866e-08
-5.07712e-08
1.53372e-06
3.8857e-08
-5.04249e-08
1.53667e-06
3.93775e-08
-5.01062e-08
1.53948e-06
3.98801e-08
-4.97913e-08
1.54213e-06
4.03493e-08
-4.94945e-08
1.54466e-06
4.075e-08
-4.92424e-08
1.5471e-06
4.10744e-08
-4.90232e-08
1.54942e-06
4.13813e-08
-4.87913e-08
1.55163e-06
4.16816e-08
-4.85736e-08
1.55373e-06
4.19839e-08
-4.83577e-08
4.24134e-08
-4.80248e-08
1.31623e-06
2.5159e-08
-7.03301e-08
1.31721e-06
2.57454e-08
-6.97569e-08
1.3183e-06
2.62664e-08
-6.92997e-08
1.31947e-06
2.67508e-08
-6.88912e-08
1.32066e-06
2.72172e-08
-6.84696e-08
1.32184e-06
2.76685e-08
-6.80848e-08
1.323e-06
2.80912e-08
-6.78019e-08
1.32415e-06
2.84348e-08
-6.75772e-08
1.32525e-06
2.87642e-08
-6.7368e-08
1.32636e-06
2.90698e-08
-6.71891e-08
1.32747e-06
2.93504e-08
-6.69862e-08
2.98077e-08
-6.66495e-08
1.01504e-06
1.18253e-08
-8.38425e-08
1.01317e-06
1.22228e-08
-8.33027e-08
1.01157e-06
1.26027e-08
-8.28912e-08
1.01018e-06
1.29734e-08
-8.25431e-08
1.00896e-06
1.33369e-08
-8.22425e-08
1.00787e-06
1.3686e-08
-8.19819e-08
1.00689e-06
1.40193e-08
-8.17538e-08
1.00598e-06
1.43184e-08
-8.1585e-08
1.00509e-06
1.46086e-08
-8.1432e-08
1.00423e-06
1.48686e-08
-8.13112e-08
1.00344e-06
1.50853e-08
-8.12135e-08
1.53579e-08
-8.0982e-08
5.81229e-07
-9.18977e-08
5.75555e-07
-9.17388e-08
5.70369e-07
-9.16119e-08
5.65628e-07
-9.1494e-08
5.61303e-07
-9.13972e-08
5.57377e-07
-9.13379e-08
5.53818e-07
-9.12855e-08
5.50587e-07
-9.12346e-08
5.4765e-07
-9.11797e-08
5.44954e-07
-9.1129e-08
5.42452e-07
-9.10908e-08
-9.10595e-08
1.45475e-06
7.25113e-08
-2.245e-08
1.45803e-06
7.29586e-08
-2.24064e-08
1.46108e-06
7.33448e-08
-2.23149e-08
1.46389e-06
7.36986e-08
-2.21781e-08
1.46647e-06
7.40102e-08
-2.20021e-08
1.46884e-06
7.42583e-08
-2.17955e-08
1.47102e-06
7.44583e-08
-2.15778e-08
1.47302e-06
7.46546e-08
-2.13719e-08
1.47488e-06
7.48353e-08
-2.11928e-08
1.47662e-06
7.50002e-08
-2.09602e-08
7.52299e-08
-2.05906e-08
1.32812e-06
5.81817e-08
-3.84396e-08
1.33009e-06
5.87848e-08
-3.82272e-08
1.33202e-06
5.93227e-08
-3.8011e-08
1.33385e-06
5.98644e-08
-3.77895e-08
1.33558e-06
6.03562e-08
-3.75644e-08
1.3372e-06
6.07218e-08
-3.73256e-08
1.33872e-06
6.10189e-08
-3.71045e-08
1.34014e-06
6.12977e-08
-3.68614e-08
1.34152e-06
6.15245e-08
-3.66335e-08
1.34283e-06
6.17631e-08
-3.64341e-08
6.21426e-08
-3.60946e-08
1.11338e-06
3.99874e-08
-5.23347e-08
1.11312e-06
4.0631e-08
-5.19395e-08
1.11308e-06
4.11455e-08
-5.16222e-08
1.1132e-06
4.16272e-08
-5.13201e-08
1.11347e-06
4.21274e-08
-5.10004e-08
1.11384e-06
4.25946e-08
-5.06903e-08
1.11422e-06
4.29688e-08
-5.04349e-08
1.11459e-06
4.32824e-08
-5.02128e-08
1.11492e-06
4.35794e-08
-4.99733e-08
1.11521e-06
4.38181e-08
-4.97745e-08
1.11554e-06
4.40318e-08
-4.95894e-08
4.43987e-08
-4.92816e-08
8.09904e-07
2.06607e-08
-6.11516e-08
8.07045e-07
2.10198e-08
-6.08326e-08
8.04567e-07
2.13255e-08
-6.05934e-08
8.0238e-07
2.16645e-08
-6.03934e-08
8.00418e-07
2.20332e-08
-6.01855e-08
7.9866e-07
2.23513e-08
-5.99809e-08
7.97083e-07
2.26076e-08
-5.98153e-08
7.95645e-07
2.28205e-08
-5.96851e-08
7.94314e-07
2.3025e-08
-5.95469e-08
7.93049e-07
2.3198e-08
-5.94255e-08
7.91838e-07
2.33559e-08
-5.93272e-08
2.35926e-08
-5.90923e-08
4.01013e-07
-6.64876e-08
3.96719e-07
-6.6425e-08
3.92812e-07
-6.63794e-08
3.89279e-07
-6.62967e-08
3.8611e-07
-6.61946e-08
3.83245e-07
-6.61218e-08
3.80637e-07
-6.60692e-08
3.78248e-07
-6.60257e-08
3.76075e-07
-6.59813e-08
3.74087e-07
-6.59429e-08
3.72252e-07
-6.59e-08
-6.58407e-08
1.16845e-06
9.26691e-08
-1.36022e-08
1.16979e-06
9.2992e-08
-1.36332e-08
1.17084e-06
9.32472e-08
-1.35736e-08
1.17164e-06
9.34487e-08
-1.34456e-08
1.17223e-06
9.36081e-08
-1.32664e-08
1.17263e-06
9.37487e-08
-1.30525e-08
1.17289e-06
9.38618e-08
-1.28205e-08
1.173e-06
9.39559e-08
-1.25921e-08
1.17299e-06
9.40291e-08
-1.23847e-08
1.17292e-06
9.41146e-08
-1.21718e-08
9.42769e-08
-1.19229e-08
1.04316e-06
7.58193e-08
-2.18814e-08
1.04338e-06
7.63092e-08
-2.17693e-08
1.04352e-06
7.67135e-08
-2.16175e-08
1.04358e-06
7.70414e-08
-2.14371e-08
1.04354e-06
7.73158e-08
-2.12399e-08
1.04343e-06
7.75615e-08
-2.10219e-08
1.04322e-06
7.77593e-08
-2.07986e-08
1.04293e-06
7.7953e-08
-2.05664e-08
1.04258e-06
7.81057e-08
-2.03543e-08
1.04221e-06
7.8224e-08
-2.01791e-08
7.84425e-08
-1.99691e-08
8.31945e-07
5.35488e-08
-2.87475e-08
8.30299e-07
5.4064e-08
-2.85379e-08
8.28857e-07
5.44753e-08
-2.83465e-08
8.27562e-07
5.48263e-08
-2.8138e-08
8.26364e-07
5.51497e-08
-2.79108e-08
8.25246e-07
5.54337e-08
-2.76902e-08
8.24201e-07
5.56627e-08
-2.74911e-08
8.23205e-07
5.58473e-08
-2.73046e-08
8.22254e-07
5.60377e-08
-2.71065e-08
8.21321e-07
5.61961e-08
-2.69319e-08
8.20409e-07
5.63177e-08
-2.67713e-08
5.65544e-08
-2.6582e-08
5.39467e-07
2.87829e-08
-3.25334e-08
5.36036e-07
2.90277e-08
-3.23656e-08
5.32946e-07
2.92077e-08
-3.22355e-08
5.30141e-07
2.93514e-08
-3.21142e-08
5.27595e-07
2.94926e-08
-3.19822e-08
5.25271e-07
2.9633e-08
-3.18559e-08
5.23124e-07
2.9749e-08
-3.17544e-08
5.21126e-07
2.98375e-08
-3.16776e-08
5.19281e-07
2.9932e-08
-3.15953e-08
5.17557e-07
3.00166e-08
-3.15227e-08
5.15912e-07
3.00922e-08
-3.14566e-08
3.02612e-08
-3.13115e-08
2.15274e-07
-3.50004e-08
2.12827e-07
-3.495e-08
2.10569e-07
-3.49141e-08
2.08492e-07
-3.48683e-08
2.06608e-07
-3.48177e-08
2.04899e-07
-3.47793e-08
2.03332e-07
-3.47532e-08
2.01882e-07
-3.47389e-08
2.00559e-07
-3.47261e-08
1.99351e-07
-3.47176e-08
1.98247e-07
-3.4704e-08
-3.466e-08
7.46422e-07
1.07438e-07
7.42748e-07
1.07475e-07
7.39019e-07
1.07503e-07
7.35325e-07
1.07525e-07
7.31733e-07
1.0755e-07
7.28288e-07
1.07581e-07
7.25014e-07
1.07621e-07
7.2193e-07
1.07651e-07
7.19038e-07
1.07671e-07
7.16351e-07
1.07695e-07
1.07701e-07
6.27318e-07
8.93546e-08
6.23577e-07
8.9447e-08
6.19946e-07
8.95168e-08
6.16469e-07
8.95655e-08
6.13175e-07
8.96038e-08
6.10082e-07
8.96527e-08
6.07189e-07
8.97151e-08
6.04496e-07
8.97778e-08
6.01981e-07
8.98314e-08
5.99632e-07
8.98651e-08
8.98706e-08
4.42064e-07
6.40403e-08
4.38749e-07
6.41317e-08
4.35634e-07
6.42157e-08
4.32716e-07
6.42964e-08
4.30001e-07
6.437e-08
4.27481e-07
6.4434e-08
4.25146e-07
6.44966e-08
4.22989e-07
6.45677e-08
4.21012e-07
6.4648e-08
4.19191e-07
6.47201e-08
4.175e-07
6.47851e-08
6.4824e-08
2.28857e-07
3.40116e-08
2.26573e-07
3.40508e-08
2.24466e-07
3.40863e-08
2.22533e-07
3.4116e-08
2.20775e-07
3.41453e-08
2.19179e-07
3.41745e-08
2.1772e-07
3.42009e-08
2.16381e-07
3.42294e-08
2.15168e-07
3.42653e-08
2.14065e-07
3.43007e-08
2.13062e-07
3.4332e-08
3.43698e-08
7.23367e-08
7.14376e-08
7.06098e-08
6.98575e-08
6.91852e-08
6.85804e-08
6.80281e-08
6.75187e-08
6.70579e-08
6.6641e-08
6.6269e-08
)
;

boundaryField
{
    inlet
    {
        type            calculated;
        value           nonuniform List<scalar> 0();
    }
    ami1
    {
        type            cyclicAMI;
        value           nonuniform List<scalar> 0();
    }
    walls
    {
        type            calculated;
        value           nonuniform List<scalar> 
259
(
-1.84387e-14
-2.43942e-14
-2.90979e-14
-3.89809e-22
-6.40674e-15
-1.28555e-14
-1.84387e-14
-2.43942e-14
-2.90979e-14
-3.89809e-22
-6.40674e-15
-1.28555e-14
-1.84387e-14
-2.43942e-14
-2.90979e-14
-3.89809e-22
-6.40674e-15
-1.28555e-14
-1.84387e-14
-2.43942e-14
-2.90979e-14
-1.9051e-22
-6.40674e-15
-1.28555e-14
-1.84387e-14
-2.43942e-14
-2.90979e-14
-3.88258e-22
-6.40674e-15
-1.28555e-14
-1.84387e-14
-2.43942e-14
-2.90979e-14
-3.88258e-22
-6.40674e-15
-1.28555e-14
-1.84387e-14
-2.43942e-14
-2.90979e-14
-3.88258e-22
-6.40674e-15
-1.28555e-14
-1.84387e-14
-2.43942e-14
-2.90979e-14
-3.88258e-22
-6.40674e-15
-1.28555e-14
-1.84387e-14
-2.43942e-14
-2.90979e-14
-3.89809e-22
-6.40674e-15
-1.28555e-14
-1.84387e-14
-2.43942e-14
-2.90979e-14
-3.89809e-22
-6.40674e-15
-1.28555e-14
-1.84387e-14
-2.43942e-14
-2.90979e-14
-6.63812e-22
-6.40674e-15
-1.28555e-14
-1.84387e-14
-2.43942e-14
-2.90979e-14
2.90979e-14
2.43942e-14
1.84387e-14
1.28555e-14
6.40674e-15
-3.89809e-22
-6.40674e-15
-1.28555e-14
-1.84387e-14
-2.43942e-14
-2.90979e-14
2.90979e-14
2.43942e-14
1.84387e-14
1.28555e-14
6.40674e-15
-3.89809e-22
-6.40674e-15
-1.28555e-14
-1.84387e-14
-2.43942e-14
-2.90979e-14
2.90979e-14
2.43942e-14
1.84387e-14
1.28555e-14
6.40674e-15
-3.89809e-22
-6.40674e-15
-1.28555e-14
-1.84387e-14
-2.43942e-14
-2.90979e-14
2.90979e-14
2.43942e-14
1.84387e-14
1.28555e-14
6.40674e-15
-3.89809e-22
-6.40674e-15
-1.28555e-14
-1.84387e-14
-2.43942e-14
-2.90979e-14
2.90979e-14
2.43942e-14
1.84387e-14
1.28555e-14
6.40674e-15
-1.9051e-22
-6.40674e-15
-1.28555e-14
-1.84387e-14
-2.43942e-14
-2.90979e-14
2.90979e-14
2.43942e-14
1.84387e-14
1.28555e-14
6.40674e-15
-3.88258e-22
-6.40674e-15
-1.28555e-14
-1.84387e-14
-2.43942e-14
-2.90979e-14
2.90979e-14
2.43942e-14
1.84387e-14
1.28555e-14
6.40674e-15
-3.88258e-22
-6.40674e-15
-1.28555e-14
-1.84387e-14
-2.43942e-14
-2.90979e-14
2.90979e-14
2.43942e-14
1.84387e-14
1.28555e-14
6.40674e-15
-3.88258e-22
-6.40674e-15
-1.28555e-14
-1.84387e-14
-2.43942e-14
-2.90979e-14
2.90979e-14
2.43942e-14
1.84387e-14
1.28555e-14
6.40674e-15
-3.88258e-22
-6.40674e-15
-1.28555e-14
-1.84387e-14
-2.43942e-14
-2.90979e-14
2.90979e-14
2.43942e-14
1.84387e-14
1.28555e-14
6.40674e-15
-3.89809e-22
-6.40674e-15
-1.28555e-14
-1.84387e-14
-2.43942e-14
-2.90979e-14
2.90979e-14
2.43942e-14
1.84387e-14
1.28555e-14
6.40674e-15
-3.89809e-22
-6.40674e-15
-1.28555e-14
-1.84387e-14
-2.43942e-14
-2.90979e-14
2.90979e-14
2.43942e-14
1.84387e-14
1.28555e-14
6.40674e-15
-6.63812e-22
-6.40674e-15
-1.28555e-14
-1.84387e-14
-2.43942e-14
-2.90979e-14
1.84387e-14
2.43942e-14
2.90979e-14
6.40674e-15
1.28555e-14
1.84387e-14
2.43942e-14
2.90979e-14
6.40674e-15
1.28555e-14
1.84387e-14
2.43942e-14
2.90979e-14
6.40674e-15
1.28555e-14
1.84387e-14
2.43942e-14
2.90979e-14
6.40674e-15
1.28555e-14
1.84387e-14
2.43942e-14
2.90979e-14
6.40674e-15
1.28555e-14
1.84387e-14
2.43942e-14
2.90979e-14
6.40674e-15
1.28555e-14
1.84387e-14
2.43942e-14
2.90979e-14
6.40674e-15
1.28555e-14
1.84387e-14
2.43942e-14
2.90979e-14
6.40674e-15
1.28555e-14
1.84387e-14
2.43942e-14
2.90979e-14
6.40674e-15
1.28555e-14
1.84387e-14
2.43942e-14
2.90979e-14
6.40674e-15
1.28555e-14
1.84387e-14
2.43942e-14
2.90979e-14
6.40674e-15
1.28555e-14
1.84387e-14
2.43942e-14
2.90979e-14
)
;
    }
    ami2
    {
        type            cyclicAMI;
        value           nonuniform List<scalar> 0();
    }
    outlet
    {
        type            calculated;
        value           nonuniform List<scalar> 0();
    }
    procBoundary9to0
    {
        type            processor;
        value           nonuniform List<scalar> 
40
(
-7.78593e-07
-7.17796e-07
-5.81183e-07
9.1896e-08
-4.05727e-07
-2.17965e-07
-7.33233e-08
-1.20118e-06
-1.14855e-06
-1.01504e-06
8.38502e-08
-8.13278e-07
-5.43319e-07
-2.31366e-07
-1.48943e-06
-1.44322e-06
-1.31625e-06
7.0336e-08
-1.11394e-06
-8.33884e-07
-4.45609e-07
-1.69423e-06
-1.6514e-06
-1.52751e-06
5.11703e-08
-1.32411e-06
-1.04255e-06
-6.34871e-07
-1.77715e-06
-1.65344e-06
2.88539e-08
-1.4475e-06
-1.16488e-06
-7.52998e-07
-1.81899e-06
-1.69424e-06
5.84909e-09
-1.48554e-06
-1.19952e-06
-7.8237e-07
)
;
    }
    procBoundary9to1
    {
        type            processor;
        value           nonuniform List<scalar> 
30
(
-1.77715e-06
-1.65141e-06
-1.63958e-08
-1.44061e-06
-1.14876e-06
-7.23278e-07
-1.65343e-06
-1.5275e-06
-3.76277e-08
-1.31537e-06
-1.01724e-06
-5.87449e-07
-1.45124e-06
-1.32612e-06
-5.74339e-08
-1.11393e-06
-8.13268e-07
-4.05763e-07
-1.16681e-06
-1.04286e-06
-7.51849e-08
-8.33896e-07
-5.43319e-07
-2.17978e-07
-7.49921e-07
-6.31116e-07
-8.92467e-08
-4.45605e-07
-2.31362e-07
-7.33255e-08
)
;
    }
    procBoundary9to7
    {
        type            processor;
        value           nonuniform List<scalar> 
59
(
7.38503e-07
6.73442e-07
5.39993e-07
3.7051e-07
1.97277e-07
6.59698e-08
1.2054e-06
1.1447e-06
1.0029e-06
7.90813e-07
5.14394e-07
2.12195e-07
1.51695e-06
1.46428e-06
1.32861e-06
1.11605e-06
8.19723e-07
4.1603e-07
1.7345e-06
1.68726e-06
1.55561e-06
1.34397e-06
1.04201e-06
5.97733e-07
1.82205e-06
1.69111e-06
1.47796e-06
1.17281e-06
7.14287e-07
1.86686e-06
1.73421e-06
1.5166e-06
1.20529e-06
7.39118e-07
1.8221e-06
1.68719e-06
1.4641e-06
1.14464e-06
6.73738e-07
1.69129e-06
1.55562e-06
1.32847e-06
1.00282e-06
5.40179e-07
1.47817e-06
1.34399e-06
1.11592e-06
7.90755e-07
3.70626e-07
1.17285e-06
1.04192e-06
8.19598e-07
5.14425e-07
1.97328e-07
7.13928e-07
5.97493e-07
4.15965e-07
2.12204e-07
6.59788e-08
)
;
    }
    procBoundary9to8
    {
        type            processor;
        value           nonuniform List<scalar> 
132
(
1.17568e-07
1.17462e-07
1.17375e-07
1.17308e-07
1.17258e-07
1.17225e-07
1.17204e-07
1.17193e-07
1.17193e-07
1.17202e-07
1.17216e-07
1.03173e-07
1.03111e-07
1.03051e-07
1.02997e-07
1.02952e-07
1.02916e-07
1.02889e-07
1.02868e-07
1.02851e-07
1.0285e-07
1.02878e-07
8.22209e-08
8.22859e-08
8.23387e-08
8.2385e-08
8.24245e-08
8.24548e-08
8.2481e-08
8.25081e-08
8.25339e-08
8.25672e-08
8.26158e-08
5.67949e-08
5.69217e-08
5.7033e-08
5.71329e-08
5.72215e-08
5.7298e-08
5.73654e-08
5.74287e-08
5.74891e-08
5.75564e-08
5.76423e-08
4.17413e-09
3.95038e-09
3.73492e-09
3.52461e-09
3.31953e-09
3.12296e-09
2.93786e-09
2.76441e-09
2.59676e-09
2.38823e-09
2.11443e-09
3.16525e-08
3.15443e-08
3.1443e-08
3.13466e-08
3.12556e-08
3.1171e-08
3.10927e-08
3.10196e-08
3.09493e-08
3.0868e-08
3.07661e-08
1.55723e-09
1.46733e-09
1.38048e-09
1.29563e-09
1.21329e-09
1.13472e-09
1.06092e-09
9.9199e-10
9.25882e-10
8.48019e-10
7.49453e-10
-2.83775e-08
-2.84927e-08
-2.8601e-08
-2.87045e-08
-2.88027e-08
-2.88936e-08
-2.89767e-08