/*--------------------------------*- C++ -*----------------------------------*\
| =========                 |                                                 |
| \\      /  F ield         | OpenFOAM: The Open Source CFD Toolbox           |
|  \\    /   O peration     | Version:  2212                                  |
|   \\  /    A nd           | Website:  www.openfoam.com                      |
|    \\/     M anipulation  |                                                 |
\*---------------------------------------------------------------------------*/
FoamFile
{
    version     2.0;
    format      ascii;
    arch        "LSB;label=32;scalar=64";
    class       volScalarField;
    location    "1.15";
    object      epsilon;
}
// * * * * * * * * * * * * * * * * * * * * * * * * * * * * * * * * * * * * * //

dimensions      [0 2 -3 0 0 0 0];

internalField   nonuniform List<scalar> 
6840
(
90.5034
12.1248
4.38869
2.46659
1.63315
1.18307
0.902013
0.720663
0.594586
0.5025
0.432672
0.379279
0.336307
0.29986
0.27018
0.246142
0.226579
0.210955
0.200996
0.192225
58.5856
14.5696
6.08947
3.33295
2.08217
1.40267
0.998653
0.740287
0.565904
0.443929
0.356029
0.290943
0.241435
0.203041
0.173173
0.14995
0.131609
0.117133
0.106361
0.0991313
45.0226
13.4729
5.73075
3.07323
1.86023
1.227
0.873583
0.649788
0.497026
0.389503
0.311319
0.253016
0.209036
0.175295
0.148943
0.128074
0.111415
0.0980355
0.0873587
0.0793638
38.7028
13.0541
5.74337
3.08734
1.88067
1.22751
0.869486
0.645395
0.492606
0.384799
0.307051
0.24908
0.205026
0.171055
0.144495
0.12347
0.106633
0.0930135
0.0819196
0.0730574
36.0571
12.8529
5.76645
3.10212
1.89476
1.2267
0.866508
0.643993
0.492263
0.383982
0.305821
0.247952
0.203964
0.170007
0.143415
0.122321
0.105376
0.0916145
0.0804153
0.0721464
36.0571
12.8529
5.76645
3.10212
1.89476
1.22669
0.8665
0.643983
0.49225
0.383964
0.305795
0.247918
0.203917
0.16994
0.14332
0.122181
0.105172
0.0913195
0.0800006
0.0716694
38.7028
13.0541
5.74336
3.08733
1.88066
1.22749
0.869468
0.645373
0.492577
0.384761
0.306994
0.249004
0.204922
0.170908
0.144284
0.12316
0.106173
0.0923264
0.0809637
0.0724357
45.0226
13.4729
5.73075
3.07322
1.86022
1.22699
0.873567
0.649767
0.496998
0.389455
0.311258
0.252934
0.208923
0.175136
0.148708
0.127723
0.110882
0.097217
0.0861151
0.0777864
58.5856
14.5696
6.08947
3.33295
2.08217
1.40267
0.998648
0.740281
0.565896
0.443912
0.356003
0.290901
0.241367
0.202913
0.172989
0.149661
0.131108
0.116187
0.104538
0.0958662
90.5034
12.1248
4.38869
2.46659
1.63315
1.18307
0.902013
0.720663
0.594586
0.5025
0.432671
0.37928
0.336301
0.299866
0.270176
0.24614
0.226578
0.210954
0.200997
0.192209
58.5856
14.5696
6.08947
3.33295
2.08217
1.40267
0.998648
0.740281
0.565896
0.443912
0.356003
0.290901
0.241368
0.20291
0.17299
0.149662
0.131109
0.116187
0.104538
0.0958732
16.5373
9.49239
5.0127
2.8606
1.75746
1.14759
0.786932
0.562051
0.415368
0.315948
0.246333
0.196223
0.15922
0.131248
0.109775
0.0931928
0.0801437
0.0696291
0.0606374
0.0564919
13.6679
8.73671
5.07741
3.05388
1.92224
1.2661
0.869294
0.618637
0.453967
0.342044
0.263663
0.207328
0.165923
0.134872
0.111171
0.0927162
0.0781962
0.0666516
0.0571671
0.0502524
12.9054
8.33993
5.07879
3.15547
2.02775
1.35121
0.933544
0.666466
0.489556
0.368608
0.28362
0.222406
0.17735
0.143553
0.11777
0.0977976
0.0821132
0.0696459
0.059616
0.0513565
12.6882
8.1544
5.07113
3.20039
2.07939
1.39506
0.967834
0.692725
0.509642
0.384021
0.295509
0.231654
0.1846
0.149268
0.122291
0.101389
0.0849705
0.0719155
0.061424
0.0529551
12.6882
8.1544
5.07113
3.20038
2.07939
1.39506
0.96783
0.69272
0.509635
0.384013
0.295499
0.231641
0.184583
0.149248
0.122268
0.10136
0.0849351
0.0718751
0.0613801
0.0528983
12.9054
8.33993
5.07879
3.15547
2.02774
1.3512
0.933534
0.666455
0.489542
0.36859
0.283598
0.222378
0.177316
0.143513
0.117722
0.0977382
0.0820444
0.0695719
0.0595421
0.0513209
13.6679
8.73671
5.07741
3.05388
1.92223
1.26609
0.869288
0.61863
0.453958
0.342032
0.263648
0.207308
0.165899
0.134844
0.111134
0.0926725
0.07815
0.0666118
0.0571566
0.0497676
16.5373
9.49239
5.0127
2.8606
1.75746
1.14759
0.786932
0.562051
0.415368
0.315948
0.246333
0.196223
0.15922
0.131252
0.109771
0.0931911
0.0801427
0.0696285
0.0606364
0.0564913
58.5856
14.5696
6.08947
3.33295
2.08217
1.40267
0.998653
0.740287
0.565904
0.443929
0.356029
0.290943
0.241434
0.203042
0.173172
0.149949
0.131607
0.11713
0.106357
0.0991244
45.0226
13.4729
5.73075
3.07322
1.86022
1.22699
0.873567
0.649767
0.496998
0.389455
0.311257
0.252934
0.208922
0.175136
0.148709
0.127724
0.110883
0.0972168
0.0861146
0.0777855
13.6679
8.73671
5.07741
3.05388
1.92223
1.26609
0.869288
0.61863
0.453958
0.342032
0.263648
0.207308
0.165898
0.134841
0.111137
0.0926737
0.07815
0.0666111
0.0571563
0.0497674
11.8601
7.76395
4.99734
3.24076
2.14419
1.45499
1.0141
0.725637
0.532158
0.399152
0.305549
0.238226
0.18883
0.151922
0.123884
0.10225
0.0853347
0.0719452
0.0612075
0.0526265
11.6229
7.60535
5.01031
3.34209
2.26848
1.57142
1.11236
0.804591
0.594209
0.447523
0.343218
0.267642
0.21191
0.170132
0.138339
0.113802
0.094621
0.0794503
0.0673205
0.0575453
11.5726
7.56718
5.02065
3.38344
2.32103
1.62326
1.15828
0.843156
0.625692
0.47285
0.363486
0.283855
0.224908
0.180591
0.14679
0.120667
0.100225
0.0840457
0.0711051
0.0606427
11.5726
7.56718
5.02065
3.38344
2.32103
1.62326
1.15828
0.843153
0.625687
0.472845
0.363478
0.283846
0.224897
0.180579
0.146776
0.120648
0.100203
0.0840202
0.0710787
0.0606114
11.6229
7.60535
5.0103
3.34209
2.26848
1.57142
1.11236
0.804586
0.594202
0.447514
0.343206
0.267628
0.211893
0.170112
0.138313
0.11377
0.0945833
0.0794073
0.0672745
0.0574985
11.8601
7.76395
4.99734
3.24076
2.14419
1.45499
1.0141
0.725637
0.532158
0.399152
0.305549
0.238226
0.188831
0.151923
0.123882
0.102249
0.0853343
0.0719449
0.0612073
0.0526264
13.6679
8.73671
5.07741
3.05388
1.92224
1.2661
0.869294
0.618637
0.453967
0.342044
0.263663
0.207328
0.165922
0.134872
0.111171
0.0927156
0.0781955
0.0666509
0.0571661
0.0502524
45.0226
13.4729
5.73075
3.07323
1.86023
1.227
0.873583
0.649788
0.497026
0.389503
0.311318
0.253016
0.209035
0.175295
0.148944
0.128074
0.111414
0.0980348
0.0873578
0.0793632
38.7028
13.0541
5.74336
3.08733
1.88066
1.22749
0.869468
0.645373
0.492577
0.384761
0.306994
0.249004
0.204921
0.170908
0.144285
0.123161
0.106173
0.092326
0.0809628
0.0724325
12.9054
8.33993
5.07879
3.15547
2.02774
1.3512
0.933534
0.666455
0.489542
0.36859
0.283598
0.222378
0.177315
0.143511
0.117724
0.0977387
0.0820441
0.069571
0.0595408
0.0513204
11.6229
7.60535
5.0103
3.34209
2.26848
1.57142
1.11236
0.804586
0.594201
0.447514
0.343206
0.267628
0.211892
0.170111
0.138314
0.11377
0.0945832
0.0794068
0.0672737
0.0574969
11.4933
7.5119
5.02843
3.434
2.3892
1.6928
1.22111
0.896487
0.669456
0.508123
0.391657
0.306287
0.242786
0.19489
0.158284
0.129958
0.107784
0.0902363
0.0762025
0.0648262
11.4757
7.50136
5.04297
3.47002
2.43665
1.74299
1.26863
0.938712
0.705584
0.538336
0.416594
0.326729
0.259501
0.208559
0.169487
0.139172
0.115394
0.0965498
0.0814535
0.0691336
11.4757
7.50136
5.04297
3.47002
2.43665
1.74299
1.26863
0.938711
0.705582
0.538334
0.416592
0.326727
0.259498
0.208556
0.169484
0.139168
0.115389
0.0965442
0.0814486
0.069131
11.4933
7.5119
5.02843
3.434
2.3892
1.6928
1.22111
0.896487
0.669457
0.508123
0.391657
0.306287
0.242786
0.19489
0.158284
0.129958
0.107784
0.0902363
0.0762025
0.0648269
11.6229
7.60535
5.01031
3.34209
2.26848
1.57142
1.11236
0.804591
0.594209
0.447523
0.343218
0.267642
0.21191
0.170132
0.138339
0.113802
0.0946207
0.0794498
0.0673198
0.0575452
12.9054
8.33993
5.07879
3.15547
2.02775
1.35121
0.933544
0.666466
0.489556
0.368607
0.283619
0.222406
0.177349
0.143551
0.117771
0.0977982
0.0821133
0.0696458
0.0596158
0.0513565
38.7028
13.0541
5.74337
3.08734
1.88067
1.22751
0.869486
0.645395
0.492606
0.384799
0.307051
0.24908
0.205025
0.171054
0.144496
0.123471
0.106633
0.0930137
0.08192
0.0730611
36.0571
12.8529
5.76645
3.10212
1.89476
1.22669
0.8665
0.643983
0.49225
0.383964
0.305795
0.247918
0.203916
0.16994
0.14332
0.122181
0.105172
0.0913191
0.0799996
0.0716681
12.6882
8.1544
5.07113
3.20038
2.07939
1.39506
0.967829
0.69272
0.509635
0.384013
0.295499
0.231641
0.184582
0.149247
0.122268
0.101359
0.0849343
0.071874
0.0613786
0.0528966
11.5726
7.56718
5.02065
3.38344
2.32103
1.62326
1.15828
0.843153
0.625687
0.472845
0.363478
0.283846
0.224897
0.180578
0.146775
0.120648
0.100202
0.0840194
0.0710775
0.0606104
11.4757
7.50136
5.04297
3.47002
2.43665
1.74299
1.26863
0.938711
0.705582
0.538334
0.416592
0.326727
0.259498
0.208556
0.169483
0.139168
0.115389
0.0965438
0.0814483
0.0691307
11.4647
7.49683
5.0577
3.50272
2.48038
1.79068
1.31522
0.981305
0.742924
0.57021
0.44335
0.348968
0.277889
0.223737
0.182022
0.149547
0.124011
0.103735
0.0874599
0.074118
11.4647
7.49683
5.0577
3.50272
2.48038
1.79068
1.31522
0.981305
0.742924
0.57021
0.44335
0.348968
0.277889
0.223737
0.182022
0.149547
0.124011
0.103735
0.08746
0.0741181
11.4757
7.50136
5.04297
3.47002
2.43665
1.74299
1.26863
0.938712
0.705584
0.538336
0.416594
0.326729
0.2595
0.208559
0.169487
0.139172
0.115394
0.0965496
0.0814532
0.0691334
11.5726
7.56718
5.02065
3.38344
2.32103
1.62326
1.15828
0.843156
0.625691
0.47285
0.363485
0.283855
0.224907
0.18059
0.146791
0.120667
0.100225
0.0840452
0.0711043
0.0606422
12.6882
8.1544
5.07113
3.20039
2.07939
1.39506
0.967834
0.692725
0.509642
0.384021
0.295509
0.231654
0.184599
0.149266
0.122294
0.101391
0.0849712
0.0719159
0.0614243
0.0529556
36.0571
12.8529
5.76645
3.10212
1.89476
1.2267
0.866508
0.643993
0.492263
0.383982
0.30582
0.247952
0.203963
0.170005
0.143418
0.122322
0.105377
0.0916155
0.0804163
0.0721483
36.0571
12.8529
5.76645
3.10212
1.89476
1.2267
0.866508
0.643993
0.492263
0.383982
0.30582
0.247952
0.203964
0.170007
0.143415
0.122321
0.105376
0.0916145
0.080415
0.0721472
12.6882
8.1544
5.07113
3.20039
2.07939
1.39506
0.967834
0.692725
0.509642
0.384021
0.295509
0.231654
0.184599
0.149268
0.122291
0.101389
0.0849702
0.0719151
0.0614234
0.0529545
11.5726
7.56718
5.02065
3.38344
2.32103
1.62326
1.15828
0.843156
0.625692
0.47285
0.363486
0.283855
0.224908
0.180591
0.14679
0.120667
0.100225
0.0840454
0.0711048
0.0606426
11.4757
7.50136
5.04297
3.47002
2.43665
1.74299
1.26863
0.938712
0.705584
0.538336
0.416594
0.326729
0.259501
0.208559
0.169487
0.139172
0.115394
0.0965499
0.0814536
0.069134
11.4647
7.49683
5.0577
3.50272
2.48038
1.79068
1.31522
0.981305
0.742924
0.57021
0.44335
0.348968
0.277889
0.223737
0.182022
0.149547
0.124011
0.103735
0.0874601
0.0741183
11.4647
7.49683
5.0577
3.50272
2.48038
1.79068
1.31522
0.981305
0.742924
0.57021
0.44335
0.348968
0.277889
0.223737
0.182022
0.149547
0.124011
0.103735
0.0874601
0.0741181
11.4757
7.50136
5.04297
3.47002
2.43665
1.74299
1.26863
0.938711
0.705582
0.538334
0.416592
0.326727
0.259498
0.208556
0.169483
0.139168
0.115389
0.096544
0.0814486
0.0691312
11.5726
7.56718
5.02065
3.38344
2.32103
1.62326
1.15828
0.843153
0.625687
0.472845
0.363478
0.283846
0.224897
0.180578
0.146775
0.120648
0.100202
0.08402
0.0710786
0.0606119
12.6882
8.1544
5.07113
3.20038
2.07939
1.39506
0.96783
0.692719
0.509635
0.384013
0.295499
0.231641
0.184583
0.149247
0.122269
0.10136
0.0849354
0.0718753
0.0613804
0.0528987
36.0571
12.8529
5.76645
3.10212
1.89476
1.22669
0.8665
0.643983
0.49225
0.383964
0.305795
0.247917
0.203916
0.169939
0.143322
0.122183
0.105174
0.0913205
0.0800015
0.071671
38.7028
13.0541
5.74337
3.08734
1.88067
1.22751
0.869486
0.645395
0.492606
0.384799
0.307051
0.24908
0.205026
0.171055
0.144494
0.12347
0.106633
0.0930137
0.0819205
0.0730618
12.9054
8.33993
5.07879
3.15547
2.02775
1.35121
0.933544
0.666466
0.489556
0.368608
0.28362
0.222406
0.17735
0.143553
0.11777
0.0977978
0.0821136
0.0696465
0.0596168
0.0513575
11.6229
7.60535
5.01031
3.34209
2.26848
1.57143
1.11236
0.804591
0.594209
0.447523
0.343218
0.267643
0.21191
0.170133
0.138339
0.113802
0.0946216
0.0794511
0.0673216
0.0575472
11.4933
7.5119
5.02843
3.434
2.3892
1.6928
1.22111
0.896487
0.669457
0.508123
0.391657
0.306287
0.242786
0.19489
0.158284
0.129959
0.107785
0.090237
0.0762033
0.0648279
11.4757
7.50136
5.04297
3.47002
2.43665
1.74299
1.26863
0.938711
0.705582
0.538334
0.416592
0.326727
0.259498
0.208556
0.169484
0.139168
0.115389
0.0965442
0.0814488
0.0691312
11.4757
7.50136
5.04297
3.47002
2.43665
1.74299
1.26863
0.938712
0.705584
0.538336
0.416594
0.326729
0.259501
0.208559
0.169487
0.139172
0.115394
0.0965497
0.0814534
0.0691337
11.4933
7.5119
5.02843
3.434
2.3892
1.6928
1.22111
0.896487
0.669456
0.508123
0.391657
0.306287
0.242786
0.19489
0.158284
0.129958
0.107784
0.0902366
0.0762028
0.0648275
11.6229
7.60535
5.0103
3.34209
2.26848
1.57142
1.11236
0.804586
0.594201
0.447514
0.343206
0.267628
0.211893
0.170112
0.138313
0.11377
0.0945835
0.0794076
0.0672749
0.0574985
12.9054
8.33993
5.07879
3.15547
2.02774
1.3512
0.933535
0.666455
0.489542
0.36859
0.283598
0.222378
0.177316
0.143513
0.117722
0.0977382
0.0820443
0.0695718
0.0595419
0.0513215
38.7028
13.0541
5.74336
3.08733
1.88066
1.22749
0.869468
0.645373
0.492577
0.384761
0.306994
0.249004
0.204922
0.170908
0.144285
0.123161
0.106173
0.0923267
0.0809639
0.0724352
45.0226
13.4729
5.73075
3.07323
1.86023
1.227
0.873583
0.649788
0.497026
0.389503
0.311318
0.253016
0.209036
0.175295
0.148943
0.128074
0.111415
0.0980359
0.0873598
0.0793672
13.6679
8.73671
5.07741
3.05388
1.92224
1.2661
0.869294
0.618637
0.453967
0.342044
0.263664
0.207328
0.165923
0.134872
0.111171
0.0927169
0.0781973
0.0666534
0.0571687
0.0502556
11.8601
7.76395
4.99734
3.24076
2.14419
1.45499
1.0141
0.725637
0.532158
0.399152
0.30555
0.238227
0.188831
0.151922
0.123884
0.102251
0.0853359
0.0719468
0.0612095
0.0526288
11.6229
7.60535
5.0103
3.34209
2.26848
1.57142
1.11236
0.804586
0.594202
0.447514
0.343206
0.267628
0.211892
0.170112
0.138315
0.113771
0.0945839
0.0794078
0.0672749
0.0574981
11.5726
7.56718
5.02065
3.38344
2.32103
1.62326
1.15828
0.843153
0.625687
0.472845
0.363478
0.283846
0.224897
0.180578
0.146776
0.120648
0.100202
0.0840196
0.0710779
0.0606106
11.5726
7.56718
5.02065
3.38344
2.32103
1.62326
1.15828
0.843156
0.625692
0.47285
0.363486
0.283855
0.224908
0.18059
0.14679
0.120667
0.100224
0.084045
0.0711042
0.0606419
11.6229
7.60535
5.01031
3.34209
2.26848
1.57142
1.11236
0.804591
0.594209
0.447523
0.343218
0.267642
0.21191
0.170132
0.138339
0.113802
0.0946211
0.0794505
0.0673207
0.0575454
11.8601
7.76395
4.99734
3.24076
2.14419
1.45499
1.0141
0.725637
0.532158
0.399152
0.305549
0.238227
0.188831
0.151923
0.123882
0.10225
0.085335
0.071946
0.0612085
0.0526275
13.6679
8.73671
5.07741
3.05388
1.92223
1.26609
0.869288
0.618629
0.453958
0.342032
0.263648
0.207308
0.165898
0.134844
0.111134
0.0926725
0.0781498
0.0666115
0.0571563
0.0497682
45.0226
13.4729
5.73075
3.07322
1.86022
1.22699
0.873567
0.649767
0.496997
0.389455
0.311258
0.252934
0.208923
0.175136
0.148708
0.127723
0.110882
0.0972167
0.0861144
0.0777865
58.5856
14.5696
6.08947
3.33295
2.08217
1.40267
0.998653
0.740287
0.565904
0.443929
0.356029
0.290943
0.241435
0.203041
0.173172
0.149951
0.13161
0.117135
0.106364
0.0991339
16.5373
9.49239
5.0127
2.8606
1.75746
1.14759
0.786932
0.562051
0.415368
0.315948
0.246333
0.196223
0.15922
0.131248
0.109775
0.0931932
0.0801444
0.0696298
0.0606386
0.0564931
13.6679
8.73671
5.07741
3.05388
1.92223
1.26609
0.869288
0.61863
0.453958
0.342032
0.263648
0.207308
0.165898
0.134841
0.111137
0.0926739
0.0781502
0.0666113
0.0571566
0.0497676
12.9054
8.33993
5.07879
3.15547
2.02774
1.3512
0.933534
0.666455
0.489542
0.36859
0.283598
0.222378
0.177315
0.143511
0.117724
0.0977387
0.0820439
0.0695708
0.0595406
0.0513199
12.6882
8.1544
5.07113
3.20038
2.07939
1.39506
0.967829
0.692719
0.509634
0.384013
0.295499
0.231641
0.184582
0.149247
0.122268
0.101359
0.0849341
0.0718738
0.0613785
0.0528965
12.6882
8.1544
5.07113
3.20039
2.07939
1.39506
0.967834
0.692726
0.509642
0.384021
0.295509
0.231654
0.184599
0.149267
0.122291
0.101389
0.0849702
0.0719151
0.0614235
0.0529547
12.9054
8.33993
5.07879
3.15547
2.02775
1.35121
0.933544
0.666466
0.489556
0.368608
0.28362
0.222406
0.17735
0.143551
0.117771
0.0977984
0.0821139
0.0696467
0.0596169
0.0513576
13.6679
8.73671
5.07741
3.05388
1.92224
1.2661
0.869295
0.618637
0.453967
0.342044
0.263664
0.207328
0.165923
0.134873
0.111171
0.0927167
0.0781971
0.0666531
0.0571682
0.0502538
16.5373
9.49239
5.0127
2.8606
1.75746
1.14759
0.786933
0.56205
0.415368
0.315948
0.246333
0.196223
0.15922
0.131252
0.109771
0.0931913
0.0801432
0.0696287
0.0606374
0.0564919
58.5856
14.5696
6.08947
3.33295
2.08217
1.40267
0.998649
0.740281
0.565896
0.443912
0.356003
0.290901
0.241367
0.202913
0.172989
0.149661
0.131108
0.116187
0.10454
0.0958752
90.5034
12.1248
4.38869
2.46659
1.63315
1.18307
0.902013
0.720663
0.594586
0.5025
0.432671
0.379278
0.336306
0.29986
0.27018
0.246143
0.22658
0.210957
0.201
0.192226
58.5856
14.5696
6.08947
3.33295
2.08217
1.40267
0.998648
0.740281
0.565896
0.443912
0.356003
0.290901
0.241368
0.20291
0.172991
0.149663
0.131109
0.116187
0.104539
0.0958755
45.0226
13.4729
5.73075
3.07322
1.86022
1.22699
0.873567
0.649767
0.496997
0.389455
0.311257
0.252933
0.208922
0.175136
0.148709
0.127724
0.110882
0.0972159
0.0861133
0.0777843
38.7028
13.0541
5.74336
3.08733
1.88066
1.22749
0.869468
0.645373
0.492577
0.38476
0.306994
0.249004
0.204921
0.170908
0.144285
0.123161
0.106172
0.0923252
0.0809615
0.0724303
36.0571
12.8529
5.76645
3.10212
1.89476
1.22669
0.8665
0.643983
0.49225
0.383964
0.305795
0.247917
0.203916
0.16994
0.143319
0.122181
0.105172
0.0913189
0.0799992
0.0716679
36.0571
12.8529
5.76645
3.10212
1.89476
1.2267
0.866508
0.643993
0.492264
0.383982
0.30582
0.247952
0.203964
0.170006
0.143414
0.12232
0.105376
0.0916149
0.0804158
0.0721489
38.7028
13.0541
5.74337
3.08734
1.88067
1.22751
0.869486
0.645395
0.492607
0.384799
0.307051
0.24908
0.205026
0.171053
0.144496
0.123471
0.106634
0.0930146
0.0819216
0.0730644
45.0226
13.4729
5.73075
3.07323
1.86023
1.227
0.873583
0.649788
0.497026
0.389503
0.311319
0.253016
0.209036
0.175295
0.148944
0.128075
0.111415
0.0980364
0.0873602
0.0793663
58.5856
14.5696
6.08947
3.33295
2.08217
1.40267
0.998653
0.740287
0.565904
0.443929
0.35603
0.290943
0.241435
0.203042
0.173173
0.14995
0.13161
0.117135
0.106364
0.0991346
90.5034
12.1248
4.38869
2.46659
1.63315
1.18307
0.902014
0.720663
0.594585
0.5025
0.432671
0.37928
0.336301
0.299866
0.270176
0.246141
0.226579
0.210957
0.201003
0.192231
0.330933
0.266696
0.215101
0.187213
0.171354
0.161125
0.153766
0.147581
0.142362
0.137952
0.133983
0.130372
0.126752
0.123294
0.119998
0.116945
0.114029
0.111339
0.108817
0.106462
0.104206
0.102139
0.100294
0.0986564
0.0968968
0.0953318
0.0938465
0.0924416
0.0911461
0.0901276
0.0888045
0.0877041
0.0866712
0.0857732
0.0854041
0.0842088
0.0835561
0.0829357
0.082429
0.0817226
0.110839
0.0950156
0.0832173
0.0754996
0.0701796
0.0659849
0.062681
0.0597911
0.0572425
0.0550219
0.05299
0.0512129
0.0494959
0.0479154
0.0463516
0.0449151
0.0435826
0.0423701
0.0412479
0.0402171
0.0392405
0.0383485
0.037537
0.0368954
0.0362177
0.0355671
0.0349701
0.0344143
0.0338527
0.0334618
0.0329884
0.0325184
0.0321138
0.0317138
0.0315344
0.031226
0.0308889
0.0306319
0.0304225
0.0302086
0.0786305
0.070263
0.0635986
0.0583937
0.0538695
0.0500677
0.0468925
0.0442327
0.0419338
0.0399046
0.0381112
0.0365143
0.0351161
0.0338736
0.0325763
0.031425
0.0303943
0.0294581
0.028614
0.02782
0.0270432
0.0262994
0.0256404
0.0251273
0.0245899
0.0240809
0.0236102
0.023176
0.0227777
0.02249
0.02211
0.0217632
0.0214522
0.0212105
0.0211175
0.0208088
0.0205909
0.0203878
0.0202119
0.0200542
0.0778289
0.063996
0.0565647
0.051353
0.0471526
0.0436733
0.0407033
0.0381345
0.0358864
0.0339001
0.0321315
0.0305471
0.0291192
0.0278295
0.0266784
0.0256303
0.0246764
0.0238047
0.0230222
0.0222214
0.021491
0.0208573
0.0202164
0.0197271
0.0192334
0.0187654
0.01834
0.0179556
0.0175477
0.0172984
0.0170061
0.0167269
0.0164401
0.0162099
0.0159926
0.0158944
0.0157385
0.0155696
0.0154083
0.0152741
0.0720968
0.0613942
0.0542573
0.0488938
0.0445945
0.0410389
0.0380541
0.035499
0.0332555
0.0312665
0.0294922
0.0279023
0.026471
0.0251909
0.0240335
0.022985
0.0220385
0.0211817
0.0203955
0.0196796
0.0190194
0.0184439
0.0178226
0.0173345
0.0168493
0.0164028
0.0159946
0.0156301
0.0152388
0.0150182
0.0147558
0.014504
0.0142423
0.0140302
0.0138268
0.0137502
0.0135777
0.0134233
0.0132805
0.0131562
0.0675839
0.0596861
0.053414
0.0482987
0.0440439
0.0404465
0.0373765
0.0347363
0.0324207
0.030363
0.0285316
0.0268957
0.0254222
0.0241158
0.0229388
0.0218772
0.0209197
0.0200557
0.0192768
0.0185767
0.0179397
0.0173615
0.0168436
0.0163952
0.0158992
0.0154255
0.0150079
0.0146503
0.01427
0.0140632
0.0138187
0.0135485
0.0132868
0.0130589
0.0128606
0.0127065
0.0126418
0.012509
0.0123667
0.0122422
0.0679213
0.0609223
0.0548678
0.0496755
0.045222
0.0413895
0.0380885
0.0352409
0.0327634
0.0305982
0.0286978
0.0270212
0.0255314
0.0242175
0.0230404
0.0219821
0.0210291
0.0201702
0.0193947
0.0186994
0.0180715
0.0174993
0.0169752
0.0164988
0.0160027
0.0155422
0.015134
0.0147681
0.0143848
0.0141588
0.013896
0.0136147
0.0133463
0.0131209
0.0129299
0.0127943
0.0127253
0.0125592
0.0123999
0.0122654
0.0786446
0.0681263
0.0599541
0.0534742
0.0482026
0.0438396
0.0401646
0.037097
0.0345144
0.0323162
0.0304063
0.0287237
0.0272293
0.0259011
0.0247126
0.0236394
0.0226818
0.0218175
0.0210338
0.0203214
0.0196758
0.0190645
0.0184449
0.0179706
0.0174962
0.0170397
0.0166242
0.0162176
0.0158388
0.0155775
0.0152821
0.0149918
0.0147222
0.0144819
0.014269
0.0141049
0.0140431
0.0138333
0.0136487
0.0134894
0.0976064
0.0815312
0.0696091
0.0607745
0.0538182
0.0488953
0.0451685
0.0421245
0.0395573
0.0373553
0.0354241
0.0337407
0.0322456
0.0308724
0.0296694
0.0284351
0.0273574
0.0263906
0.0255246
0.0247141
0.0239707
0.0232874
0.0226022
0.0220667
0.0215261
0.0210106
0.0205327
0.0201014
0.0196932
0.0193839
0.0190503
0.0187173
0.0184068
0.0181405
0.0178969
0.0177068
0.0175817
0.0173798
0.0171782
0.0169978
0.135474
0.113255
0.0943461
0.0811912
0.072188
0.0660766
0.0617414
0.0582429
0.0553658
0.0529304
0.0507262
0.0489314
0.0470589
0.0452289
0.0436099
0.0420923
0.0407001
0.0394163
0.0382372
0.0371467
0.0361421
0.035242
0.0344254
0.0337367
0.0330344
0.0323723
0.031765
0.0312046
0.0306445
0.0302276
0.029749
0.0292898
0.0288884
0.0285287
0.0281533
0.0280713
0.0277736
0.0274442
0.0272076
0.0269745
0.331004
0.266757
0.21516
0.187341
0.171249
0.161198
0.153849
0.147644
0.142404
0.137972
0.133996
0.130405
0.126736
0.123268
0.119997
0.116932
0.114027
0.111326
0.108799
0.106449
0.104185
0.102139
0.100287
0.0986592
0.0968889
0.0953314
0.0938447
0.0924414
0.0911547
0.0901439
0.0888015
0.0877063
0.0866757
0.0857457
0.0849501
0.0846117
0.0836906
0.0829851
0.0824115
0.0816138
0.135498
0.113185
0.0942767
0.0811008
0.0721585
0.0660127
0.0616908
0.0582095
0.0553461
0.0529207
0.0507226
0.0489296
0.0470564
0.0452415
0.0436074
0.0421065
0.0407037
0.0394317
0.0382532
0.0371619
0.0361603
0.0352582
0.0344382
0.0337583
0.0330544
0.0323932
0.0317875
0.0312277
0.0306666
0.030258
0.0297776
0.0293182
0.0289177
0.0285513
0.0283586
0.0281099
0.0277275
0.0274438
0.0272319
0.0270195
0.061172
0.0518697
0.0446287
0.0390665
0.0351874
0.0322161
0.0299712
0.0280635
0.0264282
0.0250267
0.0237354
0.022631
0.0215277
0.0205802
0.0195939
0.0187913
0.0179834
0.0173038
0.0166531
0.016084
0.0155138
0.0149843
0.0145067
0.014278
0.0138989
0.0135291
0.0131826
0.0128883
0.0125976
0.0126371
0.0122963
0.0119233
0.0116574
0.011488
0.0117327
0.0113883
0.0110724
0.0108846
0.0107576
0.0106492
0.049068
0.0419302
0.0363424
0.0316399
0.0284238
0.0259146
0.0237709
0.0219455
0.0203915
0.0190291
0.0177761
0.0168029
0.0155811
0.0149551
0.0139864
0.0134635
0.0126856
0.0122473
0.0116367
0.0112455
0.0108269
0.0103383
0.0100112
0.00972957
0.00947946
0.00920245
0.00889148
0.00870637
0.00845021
0.00849078
0.00826725
0.00806152
0.00777014
0.00762669
0.00759132
0.00772335
0.0075069
0.00729933
0.00708633
0.00695363
0.0469156
0.040433
0.0352454
0.0310025
0.0273746
0.024367
0.0221904
0.0203587
0.0187533
0.0173434
0.0161009
0.0150097
0.0140393
0.0131688
0.0123886
0.0117
0.0110898
0.0105222
0.010068
0.00951968
0.00919648
0.00869049
0.0083987
0.00810207
0.00790336
0.00755862
0.00740427
0.00711872
0.00697457
0.00695936
0.00678402
0.00662708
0.00636338
0.00628254
0.00612661
0.00628925
0.00613218
0.00600905
0.00578329
0.00571931
0.0464563
0.0403861
0.0353324
0.0311386
0.0276379
0.0246874
0.0220059
0.0197926
0.0181782
0.0167578
0.0154954
0.0143782
0.0133899
0.0125008
0.0117083
0.0110009
0.0103687
0.00980219
0.00929451
0.0088366
0.00842854
0.00806462
0.00773829
0.00747829
0.00717285
0.00692266
0.00668373
0.00647699
0.00623203
0.00621621
0.00608151
0.00595111
0.00571737
0.00563479
0.00548812
0.00562867
0.00548977
0.00538109
0.00518195
0.00510783
0.0456377
0.0400496
0.0352302
0.0311264
0.027644
0.0247
0.0220647
0.0197382
0.0179213
0.0165189
0.0152554
0.0141277
0.0131242
0.0122239
0.0114206
0.0107049
0.0100664
0.0094956
0.00898473
0.00852677
0.00811674
0.0077519
0.007443
0.00718777
0.00689755
0.00662656
0.00639463
0.00620244
0.00596166
0.00594466
0.00580985
0.00565427
0.00549277
0.00537247
0.00524515
0.0053701
0.00526036
0.00505137
0.00499145
0.00480773
0.0465128
0.0404481
0.0353548
0.0310897
0.0274999
0.0244459
0.0217339
0.0195039
0.0178524
0.0164284
0.0151601
0.0140403
0.0130532
0.0121651
0.0113752
0.0106711
0.0100426
0.00948
0.00897684
0.00852594
0.00812124
0.00776149
0.00745091
0.00721634
0.00691024
0.00668014
0.00640628
0.00624505
0.00597477
0.00598979
0.00584553
0.00572477
0.00547361
0.00539255
0.00524306
0.00542318
0.00530229
0.00509114
0.00503313
0.00483823
0.0504079
0.0421331
0.0359116
0.0310817
0.0271181
0.0239081
0.0215411
0.0197056
0.018104
0.0167054
0.01548
0.0144068
0.0134604
0.0125988
0.0118292
0.0111353
0.0105197
0.00995454
0.00946311
0.00901335
0.0085938
0.00825013
0.00787498
0.00770093
0.00730557
0.00713279
0.00680586
0.00667546
0.0064283
0.00647424
0.0062776
0.00612756
0.00584288
0.00576484
0.00555929
0.00557137
0.0057541
0.00557897
0.00544034
0.00518912
0.0538328
0.0436379
0.0365837
0.0313099
0.0277415
0.0251579
0.0230023
0.0211752
0.0196076
0.0182482
0.0170591
0.0160287
0.0150558
0.0141865
0.0134348
0.0126321
0.0121119
0.0113493
0.0109605
0.0103581
0.0100423
0.00952992
0.0092109
0.00892834
0.00864958
0.00843491
0.008077
0.00793542
0.00765717
0.00771603
0.00747462
0.00728149
0.00697143
0.0068886
0.00667912
0.00669961
0.00689534
0.00665975
0.00647405
0.00624223
0.0611877
0.0518869
0.0446419
0.0391054
0.0350688
0.0322073
0.0299854
0.0280779
0.0264385
0.0250343
0.0237315
0.0226743
0.0215377
0.0205655
0.0196029
0.0187784
0.017984
0.0172983
0.0166476
0.0160843
0.0154918
0.0150049
0.0144919
0.014316
0.0138519
0.0135323
0.0131805
0.0128822
0.0125928
0.012633
0.0122905
0.0119141
0.0116525
0.0114621
0.0112662
0.0112681
0.0114755
0.0111288
0.0108239
0.010648
0.110856
0.0950641
0.0832535
0.075551
0.0701631
0.0660422
0.0627363
0.059831
0.0572704
0.0550399
0.0529954
0.0512336
0.0494987
0.0479166
0.0463556
0.0449167
0.0435826
0.042371
0.041241
0.0402187
0.0392347
0.0383509
0.0375398
0.0369016
0.0362249
0.035572
0.0349739
0.034418
0.0338555
0.0334723
0.0329959
0.0325206
0.0321093
0.0317465
0.0313716
0.031292
0.0310132
0.0306731
0.0304213
0.0301724
0.0975967
0.0814759
0.0695627
0.0607692
0.0537896
0.0488719
0.0451545
0.0421168
0.0395545
0.037356
0.0354266
0.0337491
0.032251
0.0308812
0.0296728
0.0284476
0.0273608
0.026406
0.025541
0.0247257
0.0239855
0.0233023
0.0226185
0.0220853
0.0215433
0.0210278
0.0205514
0.0201209
0.019715
0.0194111
0.0190752
0.0187398
0.0184283
0.0181591
0.0179216
0.0178079
0.0176921
0.0174208
0.0172002
0.017028
0.0538372
0.0436089
0.0364897
0.0313581
0.0277606
0.0251579
0.0229952
0.0211663
0.0196001
0.0182421
0.0170532
0.016031
0.015022
0.014262
0.0133271
0.0127677
0.0119159
0.0114844
0.0108366
0.0104007
0.0100518
0.00951941
0.0092083
0.00891072
0.00867063
0.00841165
0.00806058
0.00791413
0.007646
0.00771538
0.00746766
0.00726299
0.00695483
0.00683011
0.00681032
0.00696877
0.00674613
0.00648445
0.00628692
0.00616669
0.0455223
0.0396108
0.0344385
0.0301117
0.0264693
0.023522
0.0210896
0.0190557
0.017333
0.0158556
0.0145719
0.0134544
0.0124623
0.0115967
0.0108057
0.0101248
0.00940826
0.00883767
0.00840371
0.00801852
0.00761602
0.00722401
0.00688786
0.00661497
0.00635266
0.00615452
0.00587344
0.00572828
0.00551292
0.00554802
0.00539741
0.00525139
0.00500159
0.00491092
0.00477414
0.00493984
0.00481508
0.00470013
0.00446986
0.00439214
0.0478406
0.0414336
0.0360792
0.0315914
0.0278224
0.024652
0.022003
0.0197578
0.0178386
0.016186
0.0147542
0.0135032
0.0124174
0.0114523
0.0105973
0.00984087
0.00915925
0.00854883
0.00801492
0.00753428
0.0071153
0.00666227
0.00632143
0.00611684
0.00587001
0.00561753
0.00541852
0.00517189
0.00501168
0.00500003
0.00485308
0.00472045
0.00454646
0.00444019
0.00429627
0.00442294
0.00431636
0.00423052
0.00403202
0.00395636
0.0493662
0.0428955
0.0374499
0.0328575
0.028974
0.0256801
0.0228625
0.0204511
0.0184031
0.0166461
0.0151235
0.0137945
0.012644
0.0116235
0.0107221
0.00992363
0.00921348
0.00857952
0.00801303
0.00750624
0.00705329
0.00664672
0.00624904
0.00594004
0.00564865
0.00542748
0.00523082
0.00505006
0.00485589
0.00481822
0.00469123
0.00455328
0.00442498
0.00431666
0.00418602
0.00428528
0.00417432
0.00406669
0.00397151
0.00385065
0.050279
0.0436237
0.0380517
0.0333648
0.029405
0.0260458
0.0231727
0.0207023
0.0185904
0.0167875
0.015232
0.0138772
0.0127056
0.0116674
0.0107512
0.00994006
0.00921959
0.00857639
0.0080023
0.00749
0.00703033
0.00662473
0.00622677
0.00594623
0.00562652
0.00536465
0.00520304
0.00492233
0.00482458
0.00481263
0.00466252
0.00451925
0.00438647
0.00427971
0.0041693
0.00425941
0.00414641
0.00403733
0.003941
0.00382111
0.0501925
0.0433215
0.03765
0.0329239
0.0289568
0.0256065
0.0227564
0.0203298
0.0182684
0.0165026
0.0149794
0.0136565
0.0125158
0.0115036
0.0106103
0.00981989
0.00911624
0.00848938
0.00793068
0.00743216
0.00698213
0.00658612
0.00618945
0.00591389
0.00559451
0.00536484
0.00515712
0.0049975
0.00481121
0.0047903
0.00466619