/*--------------------------------*- C++ -*----------------------------------*\
| =========                 |                                                 |
| \\      /  F ield         | OpenFOAM: The Open Source CFD Toolbox           |
|  \\    /   O peration     | Version:  2212                                  |
|   \\  /    A nd           | Website:  www.openfoam.com                      |
|    \\/     M anipulation  |                                                 |
\*---------------------------------------------------------------------------*/
FoamFile
{
    version     2.0;
    format      ascii;
    arch        "LSB;label=32;scalar=64";
    class       volScalarField;
    location    "1.15";
    object      k;
}
// * * * * * * * * * * * * * * * * * * * * * * * * * * * * * * * * * * * * * //

dimensions      [0 2 -2 0 0 0 0];

internalField   nonuniform List<scalar> 
6840
(
0.213564
0.055916
0.0283994
0.0193412
0.0146928
0.0118511
0.0098907
0.00851608
0.00749136
0.00669639
0.00606067
0.00555117
0.00512348
0.00474616
0.00442735
0.0041604
0.00393649
0.00375245
0.00363083
0.0035186
0.264759
0.104702
0.0585298
0.0391631
0.0286199
0.0219935
0.0175361
0.0143634
0.0120084
0.0102141
0.00881686
0.00770658
0.0068054
0.0060633
0.00545295
0.00495379
0.004541
0.00420123
0.00393877
0.00375715
0.283364
0.126774
0.071702
0.0473282
0.0338664
0.0256617
0.020461
0.0167972
0.0140489
0.0119416
0.0102848
0.00895688
0.00788628
0.00701304
0.0062913
0.00568899
0.0051843
0.00476045
0.00440803
0.0041342
0.292299
0.141633
0.0819302
0.0541654
0.0389231
0.0292875
0.0232724
0.0190788
0.0159343
0.0135152
0.0116272
0.0101133
0.00888267
0.00787222
0.00703472
0.00633472
0.00574503
0.00524503
0.0048195
0.00446491
0.295943
0.148782
0.0871941
0.0576749
0.0415194
0.0310723
0.0246451
0.020221
0.016905
0.0143248
0.0123082
0.010702
0.00939561
0.00832155
0.0074296
0.00668214
0.00605016
0.0055117
0.00505324
0.00469829
0.295943
0.148782
0.0871941
0.0576749
0.0415193
0.0310722
0.0246449
0.0202208
0.0169046
0.0143244
0.0123075
0.010701
0.00939411
0.00831932
0.00742623
0.00667698
0.00604228
0.00549986
0.00503652
0.00468374
0.292299
0.141633
0.0819301
0.0541653
0.038923
0.0292873
0.0232721
0.0190783
0.0159337
0.0135143
0.0116257
0.0101112
0.00887956
0.00786756
0.00702768
0.00632383
0.00572805
0.00521851
0.00478078
0.00443467
0.283364
0.126774
0.071702
0.0473281
0.0338662
0.0256616
0.0204607
0.0167969
0.0140484
0.0119407
0.0102834
0.00895488
0.00788335
0.00700862
0.00628442
0.0056782
0.00516716
0.00473302
0.00436518
0.00407729
0.264759
0.104702
0.0585298
0.0391631
0.0286199
0.0219935
0.0175361
0.0143633
0.0120083
0.0102138
0.0088164
0.00770579
0.00680408
0.00606058
0.0054489
0.00494708
0.00452883
0.00417732
0.00389108
0.00366808
0.213564
0.055916
0.0283994
0.0193412
0.0146928
0.0118511
0.0098907
0.00851608
0.00749136
0.00669639
0.00606066
0.0055512
0.00512342
0.0047462
0.00442733
0.00416039
0.00393647
0.00375243
0.00363084
0.00351841
0.264759
0.104702
0.0585298
0.0391631
0.0286199
0.0219935
0.0175361
0.0143633
0.0120083
0.0102138
0.0088164
0.00770579
0.00680409
0.00606055
0.00544891
0.00494709
0.00452883
0.0041773
0.00389104
0.00366797
0.311746
0.197541
0.130357
0.0911457
0.0668023
0.0508111
0.0397945
0.0319122
0.0260944
0.0216875
0.0182768
0.0155889
0.0134414
0.0116986
0.0102679
0.00908066
0.00808614
0.00724637
0.00654839
0.00589509
0.31754
0.217754
0.151086
0.108549
0.0807157
0.0618727
0.0486775
0.039142
0.0320589
0.0266719
0.0224905
0.019188
0.0165399
0.0143881
0.0126194
0.0111519
0.00992406
0.0088887
0.0080144
0.00726814
0.319723
0.227073
0.162232
0.118772
0.0893612
0.0689929
0.0545308
0.0439847
0.0361001
0.0300752
0.0253828
0.0216661
0.018679
0.0162471
0.0142446
0.0125793
0.011182
0.01
0.00899263
0.00813013
0.320484
0.23086
0.167176
0.123531
0.0935159
0.0724825
0.0574407
0.0464213
0.0381538
0.0318172
0.0268709
0.0229466
0.0197879
0.0172126
0.0150891
0.0133206
0.0118338
0.010573
0.00949491
0.00856866
0.320484
0.23086
0.167176
0.123531
0.0935158
0.0724823
0.0574404
0.0464209
0.0381533
0.0318165
0.0268698
0.0229451
0.0197856
0.0172093
0.0150844
0.0133138
0.011824
0.0105589
0.00947482
0.00853622
0.319723
0.227073
0.162232
0.118772
0.0893609
0.0689925
0.0545302
0.0439839
0.036099
0.0300737
0.0253806
0.021663
0.0186744
0.0162405
0.0142351
0.0125653
0.0111614
0.00996983
0.00894884
0.00806338
0.31754
0.217754
0.151085
0.108549
0.0807155
0.0618724
0.0486771
0.0391414
0.0320581
0.0266707
0.0224889
0.0191856
0.0165365
0.0143832
0.0126122
0.0111413
0.00990809
0.00886421
0.00797591
0.0072153
0.311746
0.197541
0.130357
0.0911457
0.0668023
0.0508111
0.0397945
0.0319122
0.0260944
0.0216875
0.0182768
0.0155889
0.0134414
0.0116986
0.0102678
0.00908065
0.00808613
0.00724635
0.00654838
0.00589491
0.264759
0.104702
0.0585298
0.0391631
0.0286199
0.0219935
0.0175361
0.0143634
0.0120084
0.0102141
0.00881686
0.00770657
0.00680541
0.00606329
0.00545296
0.00495378
0.00454096
0.00420117
0.00393867
0.00375697
0.283364
0.126774
0.071702
0.0473281
0.0338662
0.0256616
0.0204607
0.0167969
0.0140484
0.0119407
0.0102834
0.00895487
0.00788333
0.00700864
0.00628444
0.00567821
0.00516716
0.00473301
0.00436515
0.00407724
0.31754
0.217754
0.151085
0.108549
0.0807155
0.0618724
0.0486771
0.0391414
0.0320581
0.0266707
0.0224889
0.0191856
0.0165364
0.0143832
0.0126122
0.0111413
0.00990808
0.00886418
0.00797585
0.00721512
0.322005
0.239026
0.177588
0.133616
0.102323
0.0798669
0.0635105
0.0513821
0.0422216
0.0351794
0.0296757
0.0253093
0.021798
0.0189396
0.0165868
0.0146307
0.0129899
0.0116021
0.0104176
0.00938341
0.323293
0.245617
0.187499
0.144537
0.112864
0.089404
0.0718634
0.0585866
0.0483998
0.0404745
0.0342251
0.0292339
0.0252
0.0219039
0.0191836
0.0169175
0.0150138
0.0134012
0.0120216
0.0108158
0.323714
0.247819
0.191099
0.14881
0.117249
0.0935708
0.0756573
0.0619606
0.0513627
0.0430613
0.0364792
0.0311995
0.0269177
0.0234095
0.0205077
0.0180863
0.0160489
0.0143201
0.0128377
0.011535
0.323714
0.247819
0.191099
0.14881
0.117249
0.0935707
0.0756572
0.0619603
0.0513624
0.0430608
0.0364786
0.0311987
0.0269165
0.0234079
0.0205055
0.0180832
0.0160446
0.0143141
0.0128277
0.0115054
0.323293
0.245617
0.187499
0.144536
0.112864
0.0894038
0.0718631
0.0585862
0.0483992
0.0404738
0.0342241
0.0292325
0.0251981
0.0219013
0.0191798
0.0169124
0.0150066
0.0133912
0.0120076
0.0107932
0.322005
0.239026
0.177588
0.133616
0.102323
0.0798669
0.0635105
0.0513821
0.0422216
0.0351794
0.0296757
0.0253093
0.021798
0.0189396
0.0165867
0.0146307
0.0129899
0.0116021
0.0104176
0.00938331
0.31754
0.217754
0.151086
0.108549
0.0807157
0.0618727
0.0486775
0.039142
0.0320589
0.0266719
0.0224905
0.019188
0.0165399
0.0143881
0.0126194
0.0111519
0.00992403
0.00888866
0.00801431
0.00726803
0.283364
0.126774
0.071702
0.0473282
0.0338664
0.0256617
0.020461
0.0167972
0.0140489
0.0119416
0.0102848
0.00895687
0.00788627
0.00701301
0.00629131
0.00568899
0.00518429
0.00476043
0.004408
0.00413416
0.292299
0.141633
0.0819301
0.0541653
0.038923
0.0292873
0.0232721
0.0190783
0.0159337
0.0135143
0.0116257
0.0101112
0.00887956
0.00786758
0.0070277
0.00632384
0.00572805
0.0052185
0.00478075
0.00443453
0.319723
0.227073
0.162232
0.118772
0.0893609
0.0689925
0.0545302
0.0439839
0.036099
0.0300737
0.0253806
0.0216629
0.0186744
0.0162405
0.0142352
0.0125653
0.0111614
0.00996976
0.00894872
0.00806332
0.323293
0.245617
0.187499
0.144536
0.112864
0.0894038
0.0718631
0.0585862
0.0483992
0.0404738
0.0342241
0.0292325
0.025198
0.0219013
0.0191799
0.0169124
0.0150066
0.0133912
0.0120074
0.0107929
0.324288
0.250862
0.19613
0.154888
0.123591
0.09968
0.0812741
0.0669838
0.0557848
0.0469224
0.0398396
0.0341237
0.0294675
0.0256402
0.0224672
0.0198154
0.0175817
0.0156851
0.0140574
0.0126271
0.32459
0.252403
0.19891
0.158543
0.12769
0.103871
0.0853201
0.0707499
0.0592099
0.0499927
0.0425684
0.0365384
0.0316005
0.027525
0.0241353
0.0212953
0.0188984
0.0168594
0.0151048
0.0135521
0.32459
0.252403
0.19891
0.158543
0.12769
0.103871
0.08532
0.0707498
0.0592098
0.0499926
0.0425683
0.0365381
0.0316002
0.0275246
0.0241348
0.0212945
0.0188973
0.0168579
0.0151018
0.0135422
0.324288
0.250862
0.19613
0.154888
0.123591
0.09968
0.0812741
0.0669838
0.0557848
0.0469224
0.0398396
0.0341237
0.0294675
0.0256402
0.0224672
0.0198154
0.0175817
0.0156852
0.0140574
0.0126273
0.323293
0.245617
0.187499
0.144537
0.112864
0.089404
0.0718634
0.0585866
0.0483998
0.0404745
0.0342251
0.0292339
0.0252
0.0219039
0.0191836
0.0169175
0.0150138
0.0134011
0.0120216
0.0108159
0.319723
0.227073
0.162232
0.118772
0.0893612
0.0689929
0.0545308
0.0439847
0.0361001
0.0300752
0.0253828
0.0216661
0.018679
0.016247
0.0142447
0.0125793
0.0111819
0.01
0.00899256
0.0081301
0.292299
0.141633
0.0819302
0.0541654
0.0389231
0.0292875
0.0232724
0.0190788
0.0159343
0.0135152
0.0116272
0.0101133
0.00888264
0.00787219
0.00703477
0.00633475
0.00574505
0.00524504
0.00481951
0.00446506
0.295943
0.148782
0.0871941
0.0576749
0.0415193
0.0310722
0.0246449
0.0202208
0.0169046
0.0143244
0.0123075
0.010701
0.00939411
0.00831932
0.00742623
0.00667698
0.00604228
0.00549985
0.00503649
0.0046837
0.320484
0.23086
0.167176
0.123531
0.0935158
0.0724823
0.0574404
0.0464209
0.0381533
0.0318165
0.0268698
0.022945
0.0197856
0.0172093
0.0150844
0.0133138
0.011824
0.0105589
0.00947474
0.00853602
0.323714
0.247819
0.191099
0.14881
0.117249
0.0935707
0.0756572
0.0619603
0.0513624
0.0430608
0.0364786
0.0311986
0.0269165
0.0234078
0.0205055
0.0180832
0.0160446
0.0143141
0.0128276
0.0115052
0.32459
0.252403
0.19891
0.158543
0.12769
0.103871
0.08532
0.0707498
0.0592098
0.0499926
0.0425682
0.0365381
0.0316002
0.0275246
0.0241348
0.0212945
0.0188973
0.0168579
0.0151018
0.0135422
0.324844
0.253685
0.20131
0.161836
0.131535
0.107943
0.0893701
0.0746126
0.0627921
0.0532535
0.0455014
0.0391575
0.0339304
0.0295946
0.0259744
0.0229318
0.0203578
0.0181633
0.016269
0.01458
0.324844
0.253685
0.20131
0.161836
0.131535
0.107943
0.0893701
0.0746126
0.0627921
0.0532535
0.0455014
0.0391575
0.0339304
0.0295946
0.0259744
0.0229318
0.0203578
0.0181634
0.0162691
0.01458
0.32459
0.252403
0.19891
0.158543
0.12769
0.103871
0.0853201
0.0707499
0.0592099
0.0499927
0.0425684
0.0365384
0.0316005
0.027525
0.0241353
0.0212953
0.0188984
0.0168594
0.0151048
0.0135521
0.323714
0.247819
0.191099
0.14881
0.117249
0.0935708
0.0756573
0.0619606
0.0513627
0.0430613
0.0364792
0.0311995
0.0269177
0.0234095
0.0205077
0.0180863
0.0160488
0.0143201
0.0128376
0.011535
0.320484
0.23086
0.167176
0.123531
0.0935159
0.0724825
0.0574407
0.0464213
0.0381538
0.0318172
0.0268708
0.0229466
0.0197878
0.0172125
0.0150892
0.0133206
0.0118338
0.0105729
0.00949486
0.00856864
0.295943
0.148782
0.0871941
0.0576749
0.0415194
0.0310723
0.0246451
0.020221
0.0169049
0.0143248
0.0123082
0.010702
0.00939557
0.0083215
0.00742969
0.00668221
0.00605021
0.00551174
0.00505329
0.00469841
0.295943
0.148782
0.0871941
0.0576749
0.0415194
0.0310723
0.0246451
0.020221
0.016905
0.0143248
0.0123082
0.010702
0.0093956
0.00832155
0.0074296
0.00668214
0.00605016
0.0055117
0.00505324
0.00469836
0.320484
0.23086
0.167176
0.123531
0.0935159
0.0724825
0.0574407
0.0464213
0.0381538
0.0318172
0.0268709
0.0229466
0.0197879
0.0172126
0.0150891
0.0133206
0.0118338
0.010573
0.00949492
0.00856877
0.323714
0.247819
0.191099
0.14881
0.117249
0.0935708
0.0756573
0.0619606
0.0513627
0.0430613
0.0364792
0.0311995
0.0269177
0.0234095
0.0205077
0.0180863
0.0160489
0.0143201
0.0128378
0.0115352
0.32459
0.252403
0.19891
0.158543
0.12769
0.103871
0.0853201
0.0707499
0.0592099
0.0499927
0.0425684
0.0365384
0.0316005
0.027525
0.0241353
0.0212953
0.0188984
0.0168594
0.0151048
0.0135522
0.324844
0.253685
0.20131
0.161836
0.131535
0.107943
0.0893701
0.0746126
0.0627921
0.0532535
0.0455014
0.0391575
0.0339304
0.0295946
0.0259744
0.0229318
0.0203578
0.0181633
0.0162691
0.0145801
0.324844
0.253685
0.20131
0.161836
0.131535
0.107943
0.0893701
0.0746126
0.0627921
0.0532535
0.0455014
0.0391575
0.0339304
0.0295946
0.0259744
0.0229318
0.0203578
0.0181634
0.0162691
0.01458
0.32459
0.252403
0.19891
0.158543
0.12769
0.103871
0.08532
0.0707498
0.0592098
0.0499926
0.0425682
0.0365381
0.0316002
0.0275245
0.0241348
0.0212945
0.0188973
0.0168579
0.0151018
0.0135422
0.323714
0.247819
0.191099
0.14881
0.117249
0.0935707
0.0756572
0.0619603
0.0513624
0.0430608
0.0364786
0.0311986
0.0269165
0.0234078
0.0205055
0.0180832
0.0160446
0.0143141
0.0128276
0.0115052
0.320484
0.23086
0.167176
0.123531
0.0935158
0.0724823
0.0574404
0.0464209
0.0381533
0.0318165
0.0268698
0.022945
0.0197856
0.0172093
0.0150845
0.0133138
0.011824
0.0105589
0.00947481
0.0085361
0.295943
0.148782
0.0871941
0.0576749
0.0415193
0.0310722
0.0246449
0.0202208
0.0169046
0.0143244
0.0123075
0.010701
0.00939408
0.00831928
0.00742631
0.00667704
0.00604233
0.00549991
0.00503657
0.00468383
0.292299
0.141633
0.0819302
0.0541654
0.0389231
0.0292875
0.0232724
0.0190788
0.0159343
0.0135152
0.0116272
0.0101133
0.00888267
0.00787222
0.00703471
0.00633472
0.00574503
0.00524504
0.00481954
0.00446511
0.319723
0.227073
0.162232
0.118772
0.0893612
0.0689929
0.0545308
0.0439847
0.0361001
0.0300752
0.0253828
0.0216661
0.018679
0.0162471
0.0142446
0.0125793
0.011182
0.0100001
0.00899272
0.00813038
0.323293
0.245617
0.187499
0.144537
0.112864
0.089404
0.0718634
0.0585866
0.0483997
0.0404745
0.0342251
0.0292339
0.0252
0.0219039
0.0191836
0.0169176
0.0150139
0.0134012
0.0120218
0.0108161
0.324288
0.250862
0.19613
0.154888
0.123591
0.09968
0.0812741
0.0669838
0.0557848
0.0469224
0.0398396
0.0341237
0.0294675
0.0256402
0.0224672
0.0198154
0.0175817
0.0156852
0.0140574
0.0126273
0.32459
0.252403
0.19891
0.158543
0.12769
0.103871
0.08532
0.0707498
0.0592098
0.0499926
0.0425682
0.0365381
0.0316002
0.0275246
0.0241348
0.0212945
0.0188973
0.0168579
0.0151018
0.0135422
0.32459
0.252403
0.19891
0.158543
0.12769
0.103871
0.0853201
0.0707499
0.0592099
0.0499927
0.0425684
0.0365384
0.0316005
0.027525
0.0241353
0.0212953
0.0188984
0.0168594
0.0151048
0.0135521
0.324288
0.250862
0.19613
0.154888
0.123591
0.09968
0.0812741
0.0669838
0.0557848
0.0469224
0.0398396
0.0341237
0.0294675
0.0256402
0.0224672
0.0198154
0.0175817
0.0156851
0.0140574
0.0126273
0.323293
0.245617
0.187499
0.144536
0.112864
0.0894038
0.0718631
0.0585862
0.0483992
0.0404738
0.0342241
0.0292325
0.0251981
0.0219013
0.0191798
0.0169123
0.0150066
0.0133912
0.0120075
0.010793
0.319723
0.227073
0.162232
0.118772
0.0893609
0.0689925
0.0545302
0.0439839
0.036099
0.0300737
0.0253806
0.0216629
0.0186744
0.0162405
0.0142351
0.0125653
0.0111614
0.00996981
0.00894879
0.00806348
0.292299
0.141633
0.0819301
0.0541653
0.038923
0.0292873
0.0232721
0.0190783
0.0159337
0.0135143
0.0116257
0.0101112
0.00887956
0.00786757
0.00702769
0.00632384
0.00572807
0.00521853
0.0047808
0.00443467
0.283364
0.126774
0.071702
0.0473282
0.0338663
0.0256617
0.020461
0.0167972
0.0140489
0.0119416
0.0102848
0.00895688
0.00788627
0.00701303
0.0062913
0.00568898
0.00518429
0.00476046
0.00440807
0.00413431
0.31754
0.217754
0.151086
0.108549
0.0807157
0.0618727
0.0486775
0.0391419
0.0320589
0.0266719
0.0224905
0.019188
0.0165399
0.0143881
0.0126194
0.0111519
0.00992409
0.00888876
0.0080145
0.00726833
0.322005
0.239026
0.177588
0.133616
0.102323
0.0798669
0.0635105
0.0513821
0.0422216
0.0351794
0.0296757
0.0253093
0.021798
0.0189396
0.0165868
0.0146307
0.01299
0.0116022
0.0104177
0.00938359
0.323293
0.245617
0.187499
0.144536
0.112864
0.0894038
0.0718631
0.0585862
0.0483992
0.0404738
0.0342241
0.0292325
0.025198
0.0219013
0.0191799
0.0169124
0.0150066
0.0133912
0.0120075
0.010793
0.323714
0.247819
0.191099
0.14881
0.117249
0.0935707
0.0756572
0.0619603
0.0513624
0.0430608
0.0364786
0.0311986
0.0269165
0.0234078
0.0205055
0.0180832
0.0160446
0.0143141
0.0128276
0.0115051
0.323714
0.247819
0.191099
0.14881
0.117249
0.0935708
0.0756573
0.0619606
0.0513627
0.0430613
0.0364792
0.0311995
0.0269177
0.0234095
0.0205077
0.0180863
0.0160488
0.0143201
0.0128376
0.011535
0.323293
0.245617
0.187499
0.144537
0.112864
0.089404
0.0718634
0.0585866
0.0483997
0.0404745
0.0342251
0.0292339
0.0252
0.0219039
0.0191835
0.0169175
0.0150138
0.0134012
0.0120217
0.010816
0.322005
0.239026
0.177588
0.133616
0.102323
0.0798669
0.0635105
0.051382
0.0422216
0.0351794
0.0296757
0.0253093
0.021798
0.0189396
0.0165867
0.0146307
0.0129899
0.0116021
0.0104176
0.00938352
0.31754
0.217754
0.151085
0.108549
0.0807155
0.0618724
0.0486771
0.0391414
0.0320581
0.0266707
0.0224889
0.0191856
0.0165365
0.0143832
0.0126122
0.0111413
0.00990809
0.00886421
0.00797589
0.00721523
0.283364
0.126774
0.071702
0.0473281
0.0338662
0.0256616
0.0204607
0.0167969
0.0140484
0.0119407
0.0102834
0.00895488
0.00788334
0.00700863
0.00628442
0.00567819
0.00516715
0.00473301
0.00436517
0.00407729
0.264759
0.104702
0.0585298
0.0391631
0.0286199
0.0219935
0.0175361
0.0143634
0.0120084
0.0102141
0.00881686
0.00770658
0.0068054
0.0060633
0.00545295
0.0049538
0.00454102
0.00420127
0.00393884
0.00375722
0.311746
0.197541
0.130357
0.0911457
0.0668023
0.0508111
0.0397945
0.0319122
0.0260943
0.0216875
0.0182768
0.0155889
0.0134414
0.0116986
0.0102679
0.00908069
0.00808618
0.00724644
0.00654849
0.00589522
0.31754
0.217754
0.151085
0.108549
0.0807155
0.0618724
0.0486771
0.0391414
0.0320581
0.0266707
0.0224889
0.0191856
0.0165364
0.0143832
0.0126123
0.0111413
0.0099081
0.00886422
0.00797589
0.00721524
0.319723
0.227073
0.162232
0.118772
0.0893609
0.0689925
0.0545302
0.0439839
0.036099
0.0300737
0.0253806
0.0216629
0.0186744
0.0162405
0.0142351
0.0125653
0.0111614
0.00996974
0.0089487
0.0080633
0.320484
0.23086
0.167176
0.123531
0.0935158
0.0724823
0.0574404
0.0464209
0.0381533
0.0318165
0.0268698
0.022945
0.0197856
0.0172093
0.0150844
0.0133137
0.0118239
0.0105588
0.00947471
0.00853592
0.320484
0.23086
0.167176
0.123531
0.0935159
0.0724825
0.0574407
0.0464213
0.0381538
0.0318172
0.0268709
0.0229466
0.0197878
0.0172125
0.0150891
0.0133206
0.0118337
0.0105729
0.00949483
0.00856864
0.319723
0.227073
0.162232
0.118772
0.0893612
0.0689929
0.0545308
0.0439847
0.0361001
0.0300752
0.0253828
0.0216661
0.018679
0.016247
0.0142446
0.0125793
0.011182
0.0100001
0.00899265
0.0081302
0.31754
0.217754
0.151086
0.108549
0.0807157
0.0618727
0.0486775
0.0391419
0.0320589
0.0266719
0.0224905
0.019188
0.0165399
0.0143881
0.0126194
0.0111519
0.00992407
0.00888872
0.00801441
0.00726823
0.311746
0.197541
0.130357
0.0911457
0.0668023
0.0508111
0.0397945
0.0319122
0.0260944
0.0216875
0.0182768
0.0155889
0.0134414
0.0116986
0.0102678
0.00908067
0.00808616
0.0072464
0.00654842
0.00589517
0.264759
0.104702
0.0585298
0.0391631
0.0286199
0.0219935
0.0175361
0.0143633
0.0120083
0.0102138
0.0088164
0.00770579
0.00680408
0.00606058
0.0054489
0.00494707
0.00452883
0.00417733
0.00389111
0.00366803
0.213564
0.055916
0.0283994
0.0193412
0.0146928
0.0118511
0.0098907
0.00851607
0.00749136
0.00669639
0.00606067
0.00555117
0.00512348
0.00474616
0.00442736
0.00416041
0.0039365
0.00375247
0.00363088
0.00351861
0.264759
0.104702
0.0585298
0.0391631
0.0286199
0.0219935
0.0175361
0.0143633
0.0120083
0.0102138
0.0088164
0.00770579
0.00680409
0.00606055
0.00544891
0.00494709
0.00452883
0.00417731
0.00389107
0.003668
0.283364
0.126774
0.071702
0.0473281
0.0338662
0.0256616
0.0204607
0.0167969
0.0140484
0.0119406
0.0102834
0.00895487
0.00788332
0.00700863
0.00628444
0.0056782
0.00516714
0.00473298
0.00436511
0.00407723
0.292299
0.141633
0.0819301
0.0541653
0.038923
0.0292873
0.0232721
0.0190783
0.0159337
0.0135143
0.0116257
0.0101112
0.00887956
0.00786757
0.00702768
0.00632382
0.00572803
0.00521847
0.00478071
0.00443447
0.295943
0.148782
0.0871941
0.0576749
0.0415193
0.0310722
0.0246449
0.0202208
0.0169046
0.0143244
0.0123075
0.010701
0.0093941
0.00831931
0.00742622
0.00667697
0.00604227
0.00549984
0.00503648
0.00468369
0.295943
0.148782
0.0871941
0.0576749
0.0415194
0.0310723
0.0246451
0.020221
0.016905
0.0143248
0.0123082
0.010702
0.0093956
0.00832155
0.00742959
0.00668214
0.00605017
0.00551172
0.00505327
0.00469843
0.292299
0.141633
0.0819302
0.0541654
0.0389231
0.0292875
0.0232724
0.0190788
0.0159343
0.0135152
0.0116272
0.0101133
0.00888265
0.00787218
0.00703476
0.00633475
0.00574507
0.00524507
0.00481958
0.0044652
0.283364
0.126774
0.071702
0.0473282
0.0338663
0.0256617
0.020461
0.0167972
0.0140489
0.0119416
0.0102848
0.00895688
0.00788627
0.00701302
0.00629132
0.00568901
0.00518431
0.00476047
0.00440807
0.00413424
0.264759
0.104702
0.0585298
0.0391631
0.0286199
0.0219935
0.0175361
0.0143634
0.0120084
0.0102141
0.00881686
0.00770657
0.00680541
0.00606329
0.00545298
0.00495381
0.00454102
0.00420127
0.00393886
0.00375723
0.213564
0.055916
0.0283994
0.0193412
0.0146928
0.0118511
0.0098907
0.00851608
0.00749136
0.00669639
0.00606066
0.0055512
0.00512342
0.0047462
0.00442733
0.0041604
0.00393649
0.00375248
0.00363093
0.00351871
0.00440306
0.0038273
0.00333185
0.00304624
0.00287776
0.00276497
0.00268161
0.00261029
0.00254904
0.00249674
0.00244898
0.00240496
0.00236042
0.00231717
0.00227569
0.00223674
0.0021992
0.00216413
0.00213092
0.00209958
0.00206923
0.00204098
0.00201548
0.0019926
0.00196798
0.00194588
0.00192465
0.00190446
0.00188565
0.00187047
0.00185089
0.0018345
0.00181895
0.00180544
0.00179941
0.00178113
0.00177098
0.00176092
0.00175289
0.00174184
0.00355631
0.00321555
0.00295272
0.0027718
0.00264338
0.00253888
0.00245431
0.00237881
0.00231076
0.00225074
0.00219529
0.00214587
0.00209801
0.00205285
0.00200815
0.00196598
0.00192693
0.00189058
0.00185683
0.00182535
0.00179511
0.00176722
0.0017414
0.00172041
0.00169885
0.0016777
0.00165802
0.00163955
0.00162087
0.00160722
0.00159148
0.00157547
0.00156139
0.00154739
0.00154033
0.00152983
0.0015181
0.00150861
0.00150079
0.00149278
0.0036899
0.00341339
0.00319118
0.00300844
0.00285072
0.00271621
0.00260101
0.00250204
0.00241475
0.00233618
0.0022657
0.00220152
0.00214536
0.00209441
0.00204061
0.00199164
0.00194784
0.00190723
0.00187028
0.00183507
0.00180034
0.00176644
0.00173607
0.00171139
0.00168658
0.00166268
0.00164013
0.00161904
0.00159945
0.00158464
0.00156606
0.00154916
0.00153369
0.00152095
0.00151487
0.00149947
0.00148806
0.00147794
0.00146858
0.00145983
0.00421224
0.00370216
0.00340426
0.00319171
0.00301526
0.00286513
0.00273378
0.00261751
0.00251356
0.00241985
0.00233484
0.00225729
0.0021861
0.002121
0.00206193
0.00200735
0.00195694
0.00191046
0.00186769
0.00182373
0.00178299
0.00174714
0.00171084
0.00168182
0.00165276
0.00162544
0.00159994
0.00157653
0.0015515
0.0015349
0.00151679
0.00149897
0.00148292
0.00146697
0.00145296
0.00144472
0.00143458
0.00142426
0.00141425
0.00140488
0.00431232
0.00388146
0.0035767
0.0033377
0.00313926
0.00297006
0.00282398
0.00269577
0.00258062
0.00247637
0.00238148
0.00229475
0.00221514
0.00214294
0.00207653
0.0020154
0.00195947
0.00190798
0.00186008
0.0018159
0.00177472
0.00173778
0.00169797
0.00166575
0.00163379
0.00160419
0.00157673
0.00155165
0.00152474
0.00150794
0.00148971
0.00147177
0.00145481
0.00143813
0.00142377
0.00141637
0.00140333
0.00139237
0.00138201
0.00137252
0.00422149
0.0038981
0.00362545
0.00339253
0.0031911
0.00301496
0.0028602
0.00272345
0.00260049
0.00248876
0.00238719
0.0022946
0.0022095
0.00213283
0.00206254
0.00199806
0.00193895
0.0018848
0.00183536
0.00179022
0.00174858
0.00171022
0.0016753
0.00164458
0.00161051
0.00157773
0.00154835
0.0015226
0.00149528
0.00147918
0.00146074
0.00144203
0.00142254
0.00140468
0.00138945
0.00137731
0.00137047
0.00136063
0.00135025
0.00134042
0.00416702
0.00387237
0.00361005
0.00337762
0.00317194
0.0029895
0.00282763
0.00268404
0.00255599
0.00244148
0.00233883
0.00224636
0.00216253
0.0020874
0.0020189
0.0019563
0.00189903
0.00184664
0.00179864
0.0017551
0.00171523
0.00167813
0.00164384
0.00161197
0.00157842
0.00154765
0.00151986
0.00149435
0.00146747
0.00145046
0.00143139
0.00141191
0.00139284
0.00137577
0.00136108
0.00135057
0.00134474
0.00133218
0.0013204
0.0013097
0.00425613
0.00386368
0.00354414
0.00328216
0.00306301
0.00287477
0.00271132
0.00257098
0.00244979
0.00234415
0.00225071
0.00216668
0.00209061
0.00202192
0.00195938
0.00190205
0.00185013
0.00180255
0.00175876
0.00171842
0.00168171
0.00164565
0.00160941
0.00158037
0.00155185
0.00152431
0.00149891
0.00147353
0.00144897
0.00143146
0.00141287
0.0013946
0.00137705
0.0013608
0.00134608
0.00133458
0.00132939
0.00131536
0.00130318
0.00129217
0.00423953
0.00375972
0.00338396
0.00309045
0.00285271
0.00267683
0.00253879
0.00242305
0.00232329
0.00223605
0.00215823
0.00208901
0.00202681
0.00196894
0.00191713
0.00186374
0.00181572
0.00177282
0.00173321
0.00169619
0.00166142
0.0016292
0.00159665
0.00156974
0.00154354
0.00151837
0.00149482
0.0014726
0.00145176
0.00143531
0.00141774
0.00140075
0.0013846
0.00136978
0.00135591
0.00134553
0.00133804
0.00132669
0.00131597
0.00130607
0.00407538
0.00362096
0.0032131
0.00291159
0.00269658
0.00254337
0.00243094
0.00233829
0.00226044
0.00219376
0.00213267
0.00208159
0.00202873
0.00197571
0.0019283
0.00188311
0.00184114
0.00180197
0.00176548
0.00173135
0.00169947
0.00167049
0.0016439
0.00162097
0.00159801
0.00157589
0.0015553
0.00153603
0.00151681
0.00150179
0.0014853
0.0014691
0.00145455
0.00144134
0.00142771
0.00142316
0.00141273
0.00140114
0.00139215
0.00138324
0.00440372
0.00382803
0.00333259
0.00304795
0.00287722
0.00276625
0.00268292
0.00261128
0.00254969
0.00249704
0.00244918
0.00240523
0.00236026
0.00231692
0.00227572
0.00223664
0.00219921
0.00216401
0.00213068
0.00209942
0.00206891
0.00204093
0.00201542
0.00199262
0.00196787
0.00194584
0.00192459
0.00190441
0.0018857
0.00187062
0.00185079
0.00183445
0.00181888
0.00180475
0.00179255
0.00178674
0.00177258
0.00176163
0.00175264
0.00174027
0.00407578
0.00361928
0.00321126
0.00290927
0.00269522
0.00254102
0.00242919
0.00233714
0.00225976
0.00219341
0.00213243
0.00208174
0.00202908
0.001976
0.00192832
0.00188333
0.00184132
0.00180227
0.00176597
0.00173183
0.00169994
0.00167104
0.00164428
0.00162162
0.00159861
0.00157652
0.00155598
0.00153675
0.00151751
0.00150279
0.00148623
0.00147003
0.00145554
0.00144216
0.00143411
0.00142511
0.00141199
0.0014011
0.00139288
0.00138466
0.00412363
0.00376132
0.00343514
0.0031896
0.00298999
0.00281024
0.00265149
0.00249799
0.00235938
0.00223759
0.00211703
0.0020141
0.00190507
0.00180098
0.00170862
0.00162396
0.00154836
0.00147867
0.00141536
0.00135601
0.00129335
0.00124014
0.00120051
0.00116239
0.00112324
0.00108646
0.00105231
0.00102036
0.000990727
0.000961587
0.000931611
0.000906587
0.00088406
0.000864337
0.000847465
0.000824656
0.000808949
0.000795648
0.00078444
0.000776384
0.00607159
0.00538472
0.00485168
0.00441579
0.0040715
0.0037755
0.00351477
0.00328297
0.00307462
0.00288617
0.00271655
0.00256174
0.00242383
0.00229436
0.00218048
0.00207201
0.00197688
0.00188655
0.00180555
0.00172821
0.00165444
0.00158828
0.00152234
0.00146525
0.00140961
0.00135693
0.00130812
0.00126168
0.00121457
0.00117386
0.00113384
0.00109749
0.00106279
0.00102946
0.000990738
0.000966208
0.000939804
0.000920504
0.000897544
0.000870607
0.00677959
0.00616245
0.00561637
0.00514209
0.00473195
0.00437576
0.00405986
0.00377854
0.00352673
0.00330043
0.00309699
0.00291364
0.00274709
0.00259666
0.00245991
0.00233505
0.00222077
0.00211623
0.00201965
0.00193215
0.00184918
0.00177523
0.00170113
0.00163736
0.00157498
0.0015192
0.00146413
0.00141367
0.00136104
0.00131574
0.00127123
0.00123039
0.00119205
0.00115339
0.00110986
0.00108283
0.00105217
0.00102875
0.00100324
0.000968578
0.00733427
0.00665209
0.00606013
0.00554524
0.00509559
0.00470068
0.00435538
0.00405219
0.00378013
0.00353477
0.00331338
0.00311321
0.0029332
0.00276904
0.0026198
0.00248387
0.00235977
0.00224616
0.00214197
0.00204581
0.00195847
0.00187021
0.00178881
0.00172274
0.00166209
0.00160361
0.00154661
0.00149015
0.00143467
0.00138863
0.0013428
0.00129971
0.00125826
0.00121596
0.00116845
0.00113812
0.00110466
0.00107668
0.00104895
0.00100967
0.00745457
0.00677959
0.00618399
0.00566125
0.00520278
0.00479933
0.004445
0.00413477
0.00385946
0.00361084
0.00338615
0.00318249
0.003
0.00283269
0.00268048
0.00254164
0.00241464
0.0022982
0.00219121
0.00209262
0.00200164
0.0019172
0.00183825
0.00175585
0.00168184
0.00162045
0.00156594
0.00151428
0.00146539
0.00142313
0.00137998
0.00133116
0.00128436
0.00123713
0.00118454
0.00115164
0.00111574
0.00108562
0.00105612
0.00101422
0.0073335
0.00662473
0.00601732
0.00549556
0.00504536
0.00465472
0.00431606
0.00402046
0.00375656
0.00351922
0.00330544
0.00311164
0.00293789
0.00277785
0.00263173
0.00249795
0.00237509
0.00226213
0.00215785
0.00206144
0.00197179
0.00188892
0.00180985
0.00173294
0.00166728
0.00160493
0.00154404
0.00148558
0.00142707
0.00137755
0.00132729
0.00128008
0.00123498
0.00118961
0.00113881
0.00110758
0.00107278
0.00104422
0.00101451
0.000972646
0.00667919
0.00600248
0.00544525
0.00498047
0.00458822
0.00425342
0.00396083
0.00370024
0.00346664
0.0032561
0.00306549
0.00289121
0.00273298
0.00258689
0.00245263
0.00232889
0.00221434
0.00210904
0.00201088
0.00192002
0.0018348
0.00175574
0.00167858
0.0016073
0.00154434
0.00148095
0.00142272
0.00136508
0.00130661
0.0012577
0.00120813
0.00116252
0.00111799
0.00107463
0.00103379
0.000986043
0.000961111
0.000933024
0.000907098
0.000871373
0.00552317
0.00496326
0.00452451
0.00417374
0.00387971
0.00362098
0.00338964
0.00318111
0.00299164
0.0028168
0.00265549
0.00250353
0.0023651
0.0022358
0.0021162
0.00200613
0.0019022
0.00181076
0.00172155
0.00164213
0.00156348
0.00149308
0.00142447
0.00136593
0.00131148
0.00125648
0.00120718
0.00115841
0.00110982
0.00106884
0.00102805
0.000990345
0.000954888
0.000922085
0.000886149
0.000858029
0.000838007
0.000815082
0.000794069
0.000777095
0.00412462
0.00376492
0.00343661
0.00319661
0.00300533
0.00282105
0.00265711
0.00250102
0.00236099
0.00223832
0.00211806
0.00201103
0.00190431
0.00180089
0.00170896
0.00162443
0.00154827
0.00147877
0.00141476
0.00135557
0.00129315
0.00123933
0.00120059
0.00116136
0.00112336
0.00108608
0.0010517
0.00101972
0.000990083
0.000960694
0.000930707
0.000905596
0.000882801
0.000862299
0.000844677
0.000829465
0.000815147
0.000796722
0.000784022
0.000775016
0.00355687
0.00321703
0.00295389
0.00277403
0.00264456
0.00254135
0.00245631