/*--------------------------------*- C++ -*----------------------------------*\
| =========                 |                                                 |
| \\      /  F ield         | OpenFOAM: The Open Source CFD Toolbox           |
|  \\    /   O peration     | Version:  2212                                  |
|   \\  /    A nd           | Website:  www.openfoam.com                      |
|    \\/     M anipulation  |                                                 |
\*---------------------------------------------------------------------------*/
FoamFile
{
    version     2.0;
    format      ascii;
    arch        "LSB;label=32;scalar=64";
    class       volScalarField;
    location    "1.15";
    object      nut;
}
// * * * * * * * * * * * * * * * * * * * * * * * * * * * * * * * * * * * * * //

dimensions      [0 2 -1 0 0 0 0];

internalField   nonuniform List<scalar> 
6840
(
4.5356e-05
2.3208e-05
1.65396e-05
1.36493e-05
1.18966e-05
1.06844e-05
9.76076e-06
9.0571e-06
8.49472e-06
8.03134e-06
7.64057e-06
7.31228e-06
7.02485e-06
6.76096e-06
6.52948e-06
6.32889e-06
6.15516e-06
6.00732e-06
5.90292e-06
5.79658e-06
0.000107685
6.77183e-05
5.06311e-05
4.14159e-05
3.54049e-05
3.10367e-05
2.77138e-05
2.50817e-05
2.29335e-05
2.11508e-05
1.9651e-05
1.8372e-05
1.72643e-05
1.62959e-05
1.54535e-05
1.47289e-05
1.41013e-05
1.35618e-05
1.31274e-05
1.28159e-05
0.000160509
0.00010736
8.07409e-05
6.55976e-05
5.54896e-05
4.83026e-05
4.31311e-05
3.90793e-05
3.57396e-05
3.29504e-05
3.05792e-05
2.8537e-05
2.67773e-05
2.52513e-05
2.39168e-05
2.27432e-05
2.1711e-05
2.08044e-05
2.00183e-05
1.93822e-05
0.000198681
0.0001383
0.000105187
8.55269e-05
7.25013e-05
6.28902e-05
5.60612e-05
5.07595e-05
4.63884e-05
4.27223e-05
3.96261e-05
3.69567e-05
3.46354e-05
3.26063e-05
3.08237e-05
2.92507e-05
2.78572e-05
2.66191e-05
2.55187e-05
2.45586e-05
0.000218609
0.000155003
0.000118661
9.65069e-05
8.18824e-05
7.08356e-05
6.30856e-05
5.71435e-05
5.22484e-05
4.80963e-05
4.45827e-05
4.15722e-05
3.89527e-05
3.66594e-05
3.46401e-05
3.2853e-05
3.12633e-05
2.98435e-05
2.85787e-05
2.75364e-05
0.000218609
0.000155003
0.000118661
9.65069e-05
8.18823e-05
7.08354e-05
6.30854e-05
5.71432e-05
5.22479e-05
4.80955e-05
4.45813e-05
4.15701e-05
3.89494e-05
3.66541e-05
3.46317e-05
3.28396e-05
3.12423e-05
2.98114e-05
2.85371e-05
2.75483e-05
0.000198681
0.0001383
0.000105187
8.55269e-05
7.25012e-05
6.289e-05
5.60608e-05
5.07589e-05
4.63874e-05
4.27208e-05
3.96235e-05
3.69526e-05
3.46288e-05
3.25957e-05
3.08069e-05
2.92234e-05
2.78127e-05
2.65467e-05
2.54068e-05
2.4435e-05
0.000160509
0.00010736
8.07408e-05
6.55975e-05
5.54895e-05
4.83025e-05
4.31309e-05
3.90788e-05
3.57388e-05
3.29489e-05
3.0577e-05
2.85335e-05
2.67718e-05
2.52425e-05
2.39023e-05
2.27193e-05
2.16712e-05
2.07385e-05
1.99145e-05
1.92346e-05
0.000107685
6.77183e-05
5.06311e-05
4.14159e-05
3.54049e-05
3.10367e-05
2.77137e-05
2.50816e-05
2.29334e-05
2.11505e-05
1.96504e-05
1.8371e-05
1.72625e-05
1.62915e-05
1.54469e-05
1.47174e-05
1.40794e-05
1.3517e-05
1.30349e-05
1.26315e-05
4.5356e-05
2.3208e-05
1.65396e-05
1.36493e-05
1.18966e-05
1.06844e-05
9.76076e-06
9.0571e-06
8.49472e-06
8.03135e-06
7.64056e-06
7.31232e-06
7.02482e-06
6.76096e-06
6.52948e-06
6.32889e-06
6.15516e-06
6.00732e-06
5.90294e-06
5.79645e-06
0.000107685
6.77183e-05
5.06311e-05
4.14159e-05
3.54049e-05
3.10367e-05
2.77137e-05
2.50816e-05
2.29334e-05
2.11505e-05
1.96504e-05
1.8371e-05
1.72625e-05
1.62916e-05
1.54468e-05
1.47173e-05
1.40794e-05
1.3517e-05
1.30347e-05
1.26298e-05
0.000528907
0.000369984
0.000305097
0.000261371
0.000228528
0.000202475
0.000181113
0.000163072
0.000147538
0.000133981
0.000122046
0.000111461
0.000102125
9.38468e-05
8.64369e-05
7.96334e-05
7.34269e-05
6.78723e-05
6.3646e-05
5.53652e-05
0.000663952
0.000488459
0.000404619
0.000347248
0.000305036
0.000272128
0.000245319
0.00022289
0.000203758
0.000187183
0.00017266
0.000159824
0.000148389
0.000138144
0.000128921
0.000120722
0.000113354
0.000106686
0.00010112
9.4609e-05
0.00071288
0.000556432
0.000466397
0.000402355
0.000354426
0.000317051
0.000286676
0.000261257
0.000239584
0.000220849
0.000204449
0.000189959
0.000177059
0.000165494
0.000155063
0.000145621
0.000137046
0.000129226
0.000122082
0.000115836
0.000728543
0.000588231
0.000496002
0.000429132
0.00037851
0.000338934
0.000306818
0.000279973
0.000257071
0.000237253
0.000219905
0.000204569
0.000190902
0.000178635
0.000167561
0.000157506
0.000148327
0.000139899
0.000132095
0.000124784
0.000728543
0.000588231
0.000496002
0.000429131
0.000378509
0.000338934
0.000306817
0.00027997
0.000257068
0.000237247
0.000219895
0.000204553
0.000190875
0.000178591
0.000167488
0.000157391
0.000148144
0.000139606
0.00013163
0.000123974
0.00071288
0.000556432
0.000466397
0.000402354
0.000354425
0.000317049
0.000286673
0.000261252
0.000239576
0.000220837
0.000204429
0.000189926
0.000177006
0.000165406
0.00015492
0.000145387
0.000136658
0.000128583
0.000121046
0.00011402
0.000663952
0.000488458
0.000404619
0.000347248
0.000305035
0.000272127
0.000245317
0.000222887
0.000203752
0.000187174
0.000172645
0.000159799
0.000148349
0.000138077
0.000128818
0.000120549
0.000113056
0.000106163
0.00010017
9.41468e-05
0.000528907
0.000369984
0.000305097
0.000261371
0.000228528
0.000202475
0.000181113
0.000163072
0.000147538
0.000133981
0.000122046
0.000111461
0.000102125
9.38438e-05
8.64391e-05
7.96347e-05
7.34277e-05
6.78727e-05
6.36467e-05
5.53625e-05
0.000107685
6.77183e-05
5.06311e-05
4.14159e-05
3.54049e-05
3.10367e-05
2.77138e-05
2.50817e-05
2.29335e-05
2.11508e-05
1.9651e-05
1.8372e-05
1.72644e-05
1.62957e-05
1.54536e-05
1.4729e-05
1.41013e-05
1.35617e-05
1.31273e-05
1.28156e-05
0.000160509
0.00010736
8.07408e-05
6.55975e-05
5.54895e-05
4.83025e-05
4.31309e-05
3.90788e-05
3.57388e-05
3.29489e-05
3.0577e-05
2.85335e-05
2.67718e-05
2.52426e-05
2.39022e-05
2.27192e-05
2.16712e-05
2.07385e-05
1.99143e-05
1.92343e-05
0.000663952
0.000488458
0.000404619
0.000347248
0.000305035
0.000272127
0.000245317
0.000222887
0.000203752
0.000187174
0.000172645
0.000159799
0.000148349
0.00013808
0.000128815
0.000120548
0.000113056
0.000106163
0.000100169
9.41422e-05
0.000786828
0.000662293
0.000567974
0.000495805
0.000439463
0.000394562
0.000357974
0.000327451
0.000301489
0.000279048
0.000259395
0.000241998
0.000226467
0.000212502
0.000199872
0.000188412
0.000177964
0.000168389
0.000159577
0.000150577
0.000809324
0.000713906
0.000631505
0.000562574
0.000505377
0.000457786
0.000417842
0.00038394
0.000354805
0.000329451
0.000307158
0.000287383
0.000269707
0.000253804
0.000239419
0.000226344
0.000214406
0.000203438
0.000193207
0.000182958
0.000814958
0.000730426
0.000654634
0.000589044
0.000533067
0.000485439
0.000444764
0.000409794
0.000379471
0.000352933
0.000329494
0.000308632
0.000289944
0.000273106
0.000257857
0.00024398
0.000231289
0.000219594
0.000208602
0.00019747
0.000814958
0.000730426
0.000654634
0.000589043
0.000533067
0.000485438
0.000444763
0.000409792
0.000379469
0.00035293
0.000329489
0.000308625
0.000289932
0.000273086
0.000257827
0.000243934
0.000231218
0.000219477
0.000208353
0.00019656
0.000809324
0.000713906
0.000631504
0.000562574
0.000505377
0.000457785
0.00041784
0.000383938
0.000354802
0.000329446
0.000307151
0.000287371
0.000269687
0.000253773
0.00023937
0.000226268
0.000214287
0.000203247
0.000192887
0.00018234
0.000786828
0.000662293
0.000567974
0.000495805
0.000439463
0.000394562
0.000357974
0.000327451
0.000301489
0.000279048
0.000259395
0.000241999
0.000226467
0.000212501
0.000199874
0.000188413
0.000177964
0.00016839
0.000159578
0.000150574
0.000663952
0.000488459
0.000404619
0.000347248
0.000305036
0.000272128
0.000245319
0.00022289
0.000203758
0.000187183
0.00017266
0.000159824
0.000148389
0.000138143
0.000128922
0.000120722
0.000113354
0.000106686
0.00010112
9.46061e-05
0.000160509
0.00010736
8.07409e-05
6.55976e-05
5.54896e-05
4.83026e-05
4.31311e-05
3.90793e-05
3.57396e-05
3.29504e-05
3.05792e-05
2.85369e-05
2.67772e-05
2.52513e-05
2.39168e-05
2.27432e-05
2.1711e-05
2.08044e-05
2.00182e-05
1.9382e-05
0.000198681
0.0001383
0.000105187
8.55269e-05
7.25012e-05
6.289e-05
5.60608e-05
5.07589e-05
4.63874e-05
4.27208e-05
3.96235e-05
3.69526e-05
3.46289e-05
3.25959e-05
3.08067e-05
2.92234e-05
2.78127e-05
2.65466e-05
2.54067e-05
2.44345e-05
0.00071288
0.000556432
0.000466397
0.000402354
0.000354425
0.000317049
0.000286673
0.000261252
0.000239576
0.000220837
0.000204429
0.000189927
0.000177007
0.000165409
0.000154918
0.000145386
0.000136657
0.000128583
0.000121046
0.00011402
0.000809324
0.000713906
0.000631504
0.000562574
0.000505377
0.000457785
0.00041784
0.000383938
0.000354802
0.000329446
0.000307151
0.000287371
0.000269688
0.000253774
0.000239369
0.000226267
0.000214286
0.000203246
0.000192884
0.000182337
0.000823497
0.000753987
0.000688491
0.000628748
0.000575387
0.000528266
0.000486845
0.000450441
0.000418362
0.000389972
0.000364725
0.000342159
0.000321889
0.000303596
0.000287015
0.000271921
0.000258113
0.000245379
0.00023339
0.00022136
0.000826292
0.000764347
0.000706102
0.000651936
0.00060223
0.000557103
0.000516428
0.000479912
0.000447181
0.000417832
0.000391476
0.00036775
0.000346332
0.00032694
0.000309323
0.000293263
0.000278553
0.000264958
0.000252093
0.000239093
0.000826292
0.000764347
0.000706102
0.000651936
0.00060223
0.000557103
0.000516428
0.000479912
0.00044718
0.000417832
0.000391474
0.000367748
0.000346329
0.000326934
0.000309315
0.000293251
0.000278534
0.000264925
0.000252009
0.000238754
0.000823497
0.000753987
0.000688491
0.000628748
0.000575387
0.000528266
0.000486845
0.000450441
0.000418362
0.000389972
0.000364725
0.000342159
0.000321889
0.000303596
0.000287015
0.000271922
0.000258114
0.00024538
0.000233392
0.000221363
0.000809324
0.000713906
0.000631505
0.000562574
0.000505377
0.000457786
0.000417842
0.00038394
0.000354805
0.000329451
0.000307158
0.000287383
0.000269707
0.000253805
0.000239418
0.000226344
0.000214406
0.000203438
0.000193207
0.00018296
0.00071288
0.000556432
0.000466397
0.000402355
0.000354426
0.000317051
0.000286676
0.000261257
0.000239584
0.000220849
0.000204449
0.000189959
0.000177059
0.000165495
0.000155063
0.000145621
0.000137045
0.000129225
0.000122081
0.000115835
0.000198681
0.0001383
0.000105187
8.55269e-05
7.25013e-05
6.28902e-05
5.60612e-05
5.07595e-05
4.63884e-05
4.27223e-05
3.96261e-05
3.69566e-05
3.46353e-05
3.26062e-05
3.08237e-05
2.92507e-05
2.78572e-05
2.66191e-05
2.55187e-05
2.4559e-05
0.000218609
0.000155003
0.000118661
9.65069e-05
8.18823e-05
7.08354e-05
6.30854e-05
5.71432e-05
5.22479e-05
4.80955e-05
4.45813e-05
4.15701e-05
3.89494e-05
3.66541e-05
3.46317e-05
3.28396e-05
3.12423e-05
2.98114e-05
2.85372e-05
2.75483e-05
0.000728543
0.000588231
0.000496002
0.000429131
0.000378509
0.000338934
0.000306817
0.00027997
0.000257068
0.000237247
0.000219895
0.000204553
0.000190876
0.000178592
0.000167489
0.000157391
0.000148145
0.000139607
0.000131631
0.000123973
0.000814958
0.000730426
0.000654634
0.000589043
0.000533067
0.000485438
0.000444763
0.000409792
0.000379469
0.00035293
0.000329489
0.000308625
0.000289932
0.000273087
0.000257827
0.000243935
0.000231219
0.000219478
0.000208353
0.000196556
0.000826292
0.000764347
0.000706102
0.000651936
0.00060223
0.000557103
0.000516428
0.000479912
0.00044718
0.000417832
0.000391474
0.000367748
0.000346329
0.000326935
0.000309315
0.000293251
0.000278534
0.000264925
0.00025201
0.000238754
0.000828382
0.0007726
0.000721138
0.00067296
0.000627782
0.00058562
0.000546547
0.000510579
0.000477648
0.000447614
0.000420286
0.000395445
0.000372862
0.000352314
0.000333587
0.000316476
0.000300775
0.000286226
0.000272368
0.000258127
0.000828382
0.0007726
0.000721138
0.00067296
0.000627782
0.00058562
0.000546547
0.000510579
0.000477648
0.000447614
0.000420286
0.000395445
0.000372862
0.000352314
0.000333587
0.000316476
0.000300775
0.000286227
0.00027237
0.000258127
0.000826292
0.000764347
0.000706102
0.000651936
0.00060223
0.000557103
0.000516428
0.000479912
0.000447181
0.000417832
0.000391476
0.00036775
0.000346333
0.00032694
0.000309323
0.000293263
0.000278553
0.000264958
0.000252094
0.000239094
0.000814958
0.000730426
0.000654634
0.000589044
0.000533067
0.000485439
0.000444764
0.000409794
0.000379471
0.000352933
0.000329494
0.000308632
0.000289944
0.000273107
0.000257857
0.00024398
0.000231289
0.000219594
0.000208601
0.000197471
0.000728543
0.000588231
0.000496002
0.000429132
0.00037851
0.000338934
0.000306818
0.000279973
0.000257071
0.000237253
0.000219904
0.000204568
0.000190901
0.000178637
0.000167561
0.000157505
0.000148327
0.000139897
0.000132093
0.000124783
0.000218609
0.000155003
0.000118661
9.65069e-05
8.18823e-05
7.08356e-05
6.30856e-05
5.71435e-05
5.22484e-05
4.80963e-05
4.45827e-05
4.15722e-05
3.89526e-05
3.66593e-05
3.46403e-05
3.28531e-05
3.12634e-05
2.98436e-05
2.85789e-05
2.7537e-05
0.000218609
0.000155003
0.000118661
9.65069e-05
8.18823e-05
7.08356e-05
6.30856e-05
5.71435e-05
5.22484e-05
4.80963e-05
4.45827e-05
4.15722e-05
3.89527e-05
3.66594e-05
3.46401e-05
3.2853e-05
3.12633e-05
2.98435e-05
2.85789e-05
2.75369e-05
0.000728543
0.000588231
0.000496002
0.000429132
0.00037851
0.000338934
0.000306818
0.000279973
0.000257071
0.000237253
0.000219905
0.000204569
0.000190902
0.000178635
0.000167561
0.000157506
0.000148328
0.000139899
0.000132096
0.000124789
0.000814958
0.000730426
0.000654634
0.000589044
0.000533067
0.000485439
0.000444764
0.000409794
0.000379471
0.000352933
0.000329494
0.000308632
0.000289944
0.000273106
0.000257857
0.00024398
0.00023129
0.000219596
0.000208605
0.000197475
0.000826292
0.000764347
0.000706102
0.000651936
0.00060223
0.000557103
0.000516428
0.000479912
0.000447181
0.000417832
0.000391476
0.00036775
0.000346332
0.00032694
0.000309323
0.000293263
0.000278553
0.000264958
0.000252095
0.000239095
0.000828382
0.0007726
0.000721138
0.00067296
0.000627782
0.00058562
0.000546547
0.000510579
0.000477648
0.000447614
0.000420286
0.000395445
0.000372862
0.000352314
0.000333587
0.000316476
0.000300775
0.000286226
0.000272369
0.000258128
0.000828382
0.0007726
0.000721138
0.00067296
0.000627782
0.00058562
0.000546547
0.000510579
0.000477648
0.000447614
0.000420286
0.000395445
0.000372862
0.000352314
0.000333587
0.000316476
0.000300775
0.000286226
0.00027237
0.000258126
0.000826292
0.000764347
0.000706102
0.000651936
0.00060223
0.000557103
0.000516428
0.000479912
0.00044718
0.000417832
0.000391474
0.000367748
0.000346329
0.000326934
0.000309315
0.000293251
0.000278534
0.000264924
0.000252008
0.000238751
0.000814958
0.000730426
0.000654634
0.000589043
0.000533067
0.000485438
0.000444763
0.000409792
0.000379469
0.00035293
0.000329489
0.000308625
0.000289932
0.000273087
0.000257827
0.000243935
0.000231218
0.000219476
0.000208351
0.000196551
0.000728543
0.000588231
0.000496002
0.000429131
0.000378509
0.000338934
0.000306817
0.00027997
0.000257067
0.000237247
0.000219895
0.000204553
0.000190875
0.000178592
0.00016749
0.000157392
0.000148144
0.000139605
0.00013163
0.00012397
0.000218609
0.000155003
0.000118661
9.65069e-05
8.18823e-05
7.08354e-05
6.30854e-05
5.71432e-05
5.22479e-05
4.80955e-05
4.45813e-05
4.15701e-05
3.89493e-05
3.66541e-05
3.46319e-05
3.28398e-05
3.12425e-05
2.98116e-05
2.85374e-05
2.75488e-05
0.000198681
0.0001383
0.000105187
8.55269e-05
7.25013e-05
6.28902e-05
5.60612e-05
5.07595e-05
4.63884e-05
4.27223e-05
3.96261e-05
3.69566e-05
3.46353e-05
3.26063e-05
3.08237e-05
2.92507e-05
2.78572e-05
2.66191e-05
2.55189e-05
2.45594e-05
0.00071288
0.000556432
0.000466397
0.000402355
0.000354426
0.000317051
0.000286676
0.000261257
0.000239584
0.000220849
0.000204449
0.000189959
0.000177059
0.000165494
0.000155063
0.000145621
0.000137045
0.000129226
0.000122083
0.000115841
0.000809324
0.000713906
0.000631505
0.000562574
0.000505377
0.000457786
0.000417842
0.00038394
0.000354805
0.000329451
0.000307158
0.000287382
0.000269706
0.000253804
0.000239418
0.000226343
0.000214406
0.000203438
0.000193208
0.000182961
0.000823497
0.000753987
0.000688491
0.000628748
0.000575387
0.000528266
0.000486845
0.000450441
0.000418362
0.000389972
0.000364725
0.000342158
0.000321888
0.000303596
0.000287015
0.000271921
0.000258113
0.000245378
0.000233389
0.000221362
0.000826292
0.000764347
0.000706102
0.000651936
0.00060223
0.000557103
0.000516428
0.000479912
0.00044718
0.000417832
0.000391474
0.000367748
0.000346329
0.000326934
0.000309315
0.000293251
0.000278534
0.000264925
0.000252009
0.000238752
0.000826292
0.000764347
0.000706102
0.000651936
0.00060223
0.000557103
0.000516428
0.000479912
0.000447181
0.000417832
0.000391476
0.00036775
0.000346332
0.00032694
0.000309323
0.000293263
0.000278553
0.000264958
0.000252094
0.000239092
0.000823497
0.000753987
0.000688491
0.000628748
0.000575387
0.000528266
0.000486845
0.000450441
0.000418362
0.000389972
0.000364725
0.000342158
0.000321888
0.000303596
0.000287015
0.000271921
0.000258113
0.000245378
0.000233389
0.000221362
0.000809324
0.000713906
0.000631504
0.000562574
0.000505377
0.000457785
0.00041784
0.000383938
0.000354802
0.000329446
0.000307151
0.000287371
0.000269687
0.000253773
0.000239369
0.000226267
0.000214286
0.000203244
0.000192883
0.000182336
0.00071288
0.000556432
0.000466397
0.000402354
0.000354425
0.000317049
0.000286673
0.000261252
0.000239576
0.000220837
0.000204429
0.000189926
0.000177006
0.000165406
0.000154921
0.000145387
0.000136658
0.000128583
0.000121046
0.000114022
0.000198681
0.0001383
0.000105187
8.55269e-05
7.25012e-05
6.289e-05
5.60608e-05
5.07589e-05
4.63874e-05
4.27208e-05
3.96235e-05
3.69526e-05
3.46288e-05
3.25957e-05
3.08069e-05
2.92235e-05
2.78128e-05
2.65467e-05
2.5407e-05
2.44352e-05
0.000160509
0.00010736
8.07409e-05
6.55976e-05
5.54896e-05
4.83026e-05
4.31311e-05
3.90793e-05
3.57396e-05
3.29504e-05
3.05792e-05
2.85369e-05
2.67772e-05
2.52513e-05
2.39168e-05
2.27432e-05
2.1711e-05
2.08044e-05
2.00183e-05
1.93824e-05
0.000663952
0.000488459
0.000404619
0.000347248
0.000305036
0.000272128
0.000245319
0.00022289
0.000203758
0.000187183
0.00017266
0.000159824
0.000148389
0.000138143
0.000128921
0.000120721
0.000113353
0.000106685
0.00010112
9.4608e-05
0.000786828
0.000662293
0.000567974
0.000495805
0.000439463
0.000394562
0.000357974
0.000327451
0.000301489
0.000279048
0.000259395
0.000241998
0.000226466
0.000212502
0.000199872
0.000188411
0.000177962
0.000168387
0.000159575
0.000150577
0.000809324
0.000713906
0.000631504
0.000562574
0.000505377
0.000457785
0.00041784
0.000383938
0.000354802
0.000329446
0.000307151
0.000287371
0.000269688
0.000253774
0.000239368
0.000226267
0.000214285
0.000203244
0.000192882
0.000182338
0.000814958
0.000730426
0.000654634
0.000589043
0.000533067
0.000485438
0.000444763
0.000409792
0.000379469
0.00035293
0.000329489
0.000308625
0.000289932
0.000273087
0.000257827
0.000243934
0.000231218
0.000219476
0.000208351
0.000196552
0.000814958
0.000730426
0.000654634
0.000589044
0.000533067
0.000485439
0.000444764
0.000409794
0.000379471
0.000352933
0.000329494
0.000308632
0.000289944
0.000273106
0.000257857
0.00024398
0.000231289
0.000219594
0.000208602
0.000197471
0.000809324
0.000713906
0.000631505
0.000562574
0.000505377
0.000457786
0.000417842
0.00038394
0.000354805
0.000329451
0.000307158
0.000287383
0.000269707
0.000253805
0.000239418
0.000226343
0.000214405
0.000203437
0.000193207
0.000182963
0.000786828
0.000662293
0.000567974
0.000495805
0.000439463
0.000394562
0.000357974
0.000327451
0.000301489
0.000279048
0.000259395
0.000241998
0.000226466
0.000212501
0.000199873
0.000188412
0.000177963
0.000168387
0.000159576
0.000150578
0.000663952
0.000488458
0.000404619
0.000347248
0.000305035
0.000272127
0.000245317
0.000222887
0.000203752
0.000187174
0.000172645
0.000159799
0.000148349
0.000138077
0.000128818
0.000120549
0.000113056
0.000106163
0.00010017
9.41438e-05
0.000160509
0.00010736
8.07408e-05
6.55975e-05
5.54895e-05
4.83025e-05
4.31308e-05
3.90789e-05
3.57388e-05
3.29489e-05
3.0577e-05
2.85335e-05
2.67718e-05
2.52425e-05
2.39023e-05
2.27193e-05
2.16712e-05
2.07384e-05
1.99145e-05
1.92345e-05
0.000107685
6.77183e-05
5.06311e-05
4.14159e-05
3.54049e-05
3.10367e-05
2.77138e-05
2.50817e-05
2.29335e-05
2.11508e-05
1.9651e-05
1.8372e-05
1.72643e-05
1.62959e-05
1.54535e-05
1.47289e-05
1.41013e-05
1.35619e-05
1.31276e-05
1.2816e-05
0.000528907
0.000369984
0.000305097
0.000261371
0.000228528
0.000202475
0.000181113
0.000163072
0.000147538
0.000133981
0.000122046
0.000111461
0.000102125
9.38467e-05
8.64369e-05
7.96335e-05
7.34271e-05
6.78729e-05
6.36467e-05
5.53666e-05
0.000663952
0.000488458
0.000404619
0.000347248
0.000305035
0.000272127
0.000245317
0.000222887
0.000203752
0.000187174
0.000172645
0.000159799
0.000148349
0.00013808
0.000128815
0.000120548
0.000113056
0.000106164
0.000100169
9.4145e-05
0.00071288
0.000556432
0.000466397
0.000402354
0.000354425
0.000317049
0.000286673
0.000261252
0.000239576
0.000220837
0.000204429
0.000189926
0.000177007
0.000165409
0.000154918
0.000145386
0.000136657
0.000128583
0.000121046
0.00011402
0.000728543
0.000588231
0.000496002
0.000429131
0.000378509
0.000338934
0.000306817
0.00027997
0.000257068
0.000237247
0.000219895
0.000204553
0.000190876
0.000178592
0.000167489
0.000157391
0.000148144
0.000139606
0.000131631
0.00012397
0.000728543
0.000588231
0.000496002
0.000429132
0.00037851
0.000338934
0.000306818
0.000279973
0.000257071
0.000237253
0.000219904
0.000204569
0.000190902
0.000178635
0.000167561
0.000157506
0.000148327
0.000139898
0.000132094
0.000124785
0.00071288
0.000556432
0.000466397
0.000402355
0.000354426
0.000317051
0.000286676
0.000261257
0.000239584
0.000220849
0.000204449
0.000189958
0.000177059
0.000165495
0.000155063
0.000145621
0.000137045
0.000129225
0.000122081
0.000115835
0.000663952
0.000488459
0.000404619
0.000347248
0.000305036
0.000272128
0.000245319
0.00022289
0.000203758
0.000187183
0.00017266
0.000159824
0.000148389
0.000138143
0.000128921
0.000120721
0.000113352
0.000106684
0.000101119
9.46087e-05
0.000528907
0.000369984
0.000305097
0.000261371
0.000228528
0.000202475
0.000181113
0.000163073
0.000147538
0.000133981
0.000122046
0.000111461
0.000102125
9.38438e-05
8.64391e-05
7.96347e-05
7.34278e-05
6.78733e-05
6.36465e-05
5.53668e-05
0.000107685
6.77183e-05
5.06311e-05
4.14159e-05
3.54048e-05
3.10367e-05
2.77137e-05
2.50816e-05
2.29334e-05
2.11505e-05
1.96504e-05
1.8371e-05
1.72625e-05
1.62915e-05
1.54469e-05
1.47174e-05
1.40794e-05
1.3517e-05
1.30349e-05
1.263e-05
4.5356e-05
2.3208e-05
1.65396e-05
1.36493e-05
1.18966e-05
1.06844e-05
9.76076e-06
9.0571e-06
8.49472e-06
8.03134e-06
7.64057e-06
7.31228e-06
7.02485e-06
6.76096e-06
6.52948e-06
6.32889e-06
6.15517e-06
6.00735e-06
5.90298e-06
5.7966e-06
0.000107685
6.77183e-05
5.06311e-05
4.14159e-05
3.54049e-05
3.10367e-05
2.77137e-05
2.50816e-05
2.29334e-05
2.11505e-05
1.96504e-05
1.8371e-05
1.72625e-05
1.62916e-05
1.54468e-05
1.47173e-05
1.40794e-05
1.35169e-05
1.30347e-05
1.26297e-05
0.000160509
0.00010736
8.07408e-05
6.55975e-05
5.54895e-05
4.83025e-05
4.31309e-05
3.90788e-05
3.57388e-05
3.29489e-05
3.0577e-05
2.85335e-05
2.67718e-05
2.52426e-05
2.39022e-05
2.27192e-05
2.16711e-05
2.07384e-05
1.99142e-05
1.92345e-05
0.000198681
0.0001383
0.000105187
8.55269e-05
7.25012e-05
6.289e-05
5.60608e-05
5.07589e-05
4.63874e-05
4.27207e-05
3.96234e-05
3.69526e-05
3.46289e-05
3.25958e-05
3.08067e-05
2.92233e-05
2.78127e-05
2.65466e-05
2.54067e-05
2.44347e-05
0.000218609
0.000155003
0.000118661
9.65069e-05
8.18823e-05
7.08354e-05
6.30854e-05
5.71432e-05
5.22479e-05
4.80955e-05
4.45813e-05
4.15701e-05
3.89494e-05
3.66541e-05
3.46316e-05
3.28396e-05
3.12423e-05
2.98114e-05
2.85372e-05
2.75482e-05
0.000218609
0.000155003
0.000118661
9.65069e-05
8.18823e-05
7.08356e-05
6.30856e-05
5.71435e-05
5.22484e-05
4.80963e-05
4.45827e-05
4.15722e-05
3.89527e-05
3.66594e-05
3.46401e-05
3.2853e-05
3.12633e-05
2.98436e-05
2.8579e-05
2.75371e-05
0.000198681
0.0001383
0.000105187
8.55269e-05
7.25013e-05
6.28902e-05
5.60612e-05
5.07595e-05
4.63884e-05
4.27223e-05
3.96261e-05
3.69566e-05
3.46353e-05
3.26062e-05
3.08237e-05
2.92507e-05
2.78573e-05
2.66192e-05
2.5519e-05
2.45594e-05
0.000160509
0.00010736
8.07409e-05
6.55976e-05
5.54896e-05
4.83026e-05
4.31311e-05
3.90793e-05
3.57396e-05
3.29504e-05
3.05792e-05
2.85369e-05
2.67772e-05
2.52513e-05
2.39168e-05
2.27432e-05
2.1711e-05
2.08044e-05
2.00183e-05
1.9382e-05
0.000107685
6.77183e-05
5.06311e-05
4.14159e-05
3.54049e-05
3.10367e-05
2.77138e-05
2.50817e-05
2.29335e-05
2.11508e-05
1.9651e-05
1.8372e-05
1.72644e-05
1.62957e-05
1.54536e-05
1.4729e-05
1.41013e-05
1.35618e-05
1.31276e-05
1.2816e-05
4.5356e-05
2.3208e-05
1.65396e-05
1.36493e-05
1.18966e-05
1.06844e-05
9.76076e-06
9.05711e-06
8.49472e-06
8.03135e-06
7.64056e-06
7.31232e-06
7.02482e-06
6.76097e-06
6.52948e-06
6.3289e-06
6.15518e-06
6.00737e-06
5.90304e-06
5.79677e-06
5.27244e-06
4.94324e-06
4.64483e-06
4.46103e-06
4.34967e-06
4.27034e-06
4.20896e-06
4.15518e-06
4.10772e-06
4.06688e-06
4.0287e-06
3.99276e-06
3.95611e-06
3.91935e-06
3.88416e-06
3.85027e-06
3.81731e-06
3.78583e-06
3.75562e-06
3.7266e-06
3.69802e-06
3.67055e-06
3.64523e-06
3.62207e-06
3.59729e-06
3.5747e-06
3.55245e-06
3.53118e-06
3.51098e-06
3.49372e-06
3.47192e-06
3.45349e-06
3.43565e-06
3.42024e-06
3.41213e-06
3.39059e-06
3.37824e-06
3.36496e-06
3.35486e-06
3.34131e-06
1.02696e-05
9.79396e-06
9.42914e-06
9.15844e-06
8.96086e-06
8.79187e-06
8.64903e-06
8.51778e-06
8.39524e-06
8.28622e-06
8.18523e-06
8.09224e-06
8.00366e-06
7.91559e-06
7.83012e-06
7.74477e-06
7.66765e-06
7.59228e-06
7.52293e-06
7.45628e-06
7.3908e-06
7.32953e-06
7.27076e-06
7.21997e-06
7.17188e-06
7.12232e-06
7.07501e-06
7.02999e-06
6.98465e-06
6.94775e-06
6.91006e-06
6.86966e-06
6.8324e-06
6.79508e-06
6.77156e-06
6.74549e-06
6.7149e-06
6.68684e-06
6.66329e-06
6.63903e-06
1.55841e-05
1.4924e-05
1.44111e-05
1.39495e-05
1.35771e-05
1.32621e-05
1.29845e-05
1.27376e-05
1.25147e-05
1.23093e-05
1.21226e-05
1.19461e-05
1.1796e-05
1.16548e-05
1.15043e-05
1.13603e-05
1.12346e-05
1.11134e-05
1.10021e-05
1.08941e-05
1.07869e-05
1.06781e-05
1.05792e-05
1.04905e-05
1.04111e-05
1.03321e-05
1.02541e-05
1.01793e-05
1.01082e-05
1.00489e-05
9.98324e-06
9.92466e-06
9.86839e-06
9.81563e-06
9.78031e-06
9.7246e-06
9.67853e-06
9.64248e-06
9.60353e-06
9.56402e-06
2.05177e-05
1.92753e-05
1.84393e-05
1.78535e-05
1.73535e-05
1.69167e-05
1.65249e-05
1.61697e-05
1.58449e-05
1.5546e-05
1.52695e-05
1.50124e-05
1.47707e-05
1.45485e-05
1.43427e-05
1.41493e-05
1.39674e-05
1.37993e-05
1.36366e-05
1.34707e-05
1.33133e-05
1.31717e-05
1.30304e-05
1.29045e-05
1.27823e-05
1.26715e-05
1.25618e-05
1.2458e-05
1.23459e-05
1.22574e-05
1.21756e-05
1.20896e-05
1.20386e-05
1.19483e-05
1.18804e-05
1.18186e-05
1.17687e-05
1.17258e-05
1.16827e-05
1.16296e-05
2.3214e-05
2.20854e-05
2.12202e-05
2.05062e-05
1.98891e-05
1.93453e-05
1.88609e-05
1.84243e-05
1.8023e-05
1.7652e-05
1.73072e-05
1.69853e-05
1.66831e-05
1.64065e-05
1.61474e-05
1.59045e-05
1.56797e-05
1.54679e-05
1.52676e-05
1.50804e-05
1.4904e-05
1.47359e-05
1.45589e-05
1.44063e-05
1.42578e-05
1.412e-05
1.39889e-05
1.38634e-05
1.37304e-05
1.36267e-05
1.35357e-05
1.34412e-05
1.33745e-05
1.3267e-05
1.31947e-05
1.31308e-05
1.30539e-05
1.29984e-05
1.29434e-05
1.28869e-05
2.37317e-05
2.29126e-05
2.21468e-05
2.14464e-05
2.08083e-05
2.02267e-05
1.96986e-05
1.92175e-05
1.87729e-05
1.83596e-05
1.79759e-05
1.76186e-05
1.72829e-05
1.69767e-05
1.66908e-05
1.64236e-05
1.6174e-05
1.59417e-05
1.57272e-05
1.55269e-05
1.53392e-05
1.5162e-05
1.49966e-05
1.48469e-05
1.46822e-05
1.45234e-05
1.43767e-05
1.42418e-05
1.41015e-05
1.40024e-05
1.3897e-05
1.38134e-05
1.37073e-05
1.35985e-05
1.35103e-05
1.34364e-05
1.33713e-05
1.332e-05
1.32683e-05
1.32087e-05
2.30085e-05
2.21523e-05
2.13772e-05
2.06691e-05
2.00236e-05
1.94334e-05
1.88928e-05
1.83981e-05
1.79461e-05
1.75329e-05
1.7155e-05
1.68073e-05
1.64852e-05
1.61928e-05
1.59215e-05
1.56691e-05
1.54342e-05
1.52158e-05
1.50124e-05
1.48258e-05
1.46518e-05
1.44835e-05
1.43266e-05
1.41743e-05
1.40119e-05
1.387e-05
1.37371e-05
1.36089e-05
1.34734e-05
1.3373e-05
1.32699e-05
1.3178e-05
1.30823e-05
1.29828e-05
1.28949e-05
1.2831e-05
1.27894e-05
1.27175e-05
1.26542e-05
1.25865e-05
2.07302e-05
1.97211e-05
1.88558e-05
1.81309e-05
1.75174e-05
1.69661e-05
1.64725e-05
1.60362e-05
1.56495e-05
1.53036e-05
1.4994e-05
1.47092e-05
1.44461e-05
1.42053e-05
1.39818e-05
1.37736e-05
1.35822e-05
1.34033e-05
1.32354e-05
1.30782e-05
1.29364e-05
1.27847e-05
1.26387e-05
1.25082e-05
1.2388e-05
1.22724e-05
1.21632e-05
1.20496e-05
1.193e-05
1.18387e-05
1.1756e-05
1.16758e-05
1.15923e-05
1.15082e-05
1.14285e-05
1.13648e-05
1.13263e-05
1.12565e-05
1.11985e-05
1.114e-05
1.6573e-05
1.56038e-05
1.48056e-05
1.41437e-05
1.36091e-05
1.31892e-05
1.28428e-05
1.25439e-05
1.22807e-05
1.20463e-05
1.18342e-05
1.16404e-05
1.14656e-05
1.13015e-05
1.11491e-05
1.09941e-05
1.08459e-05
1.07183e-05
1.05922e-05
1.04772e-05
1.03639e-05
1.02582e-05
1.01511e-05
1.00499e-05
9.96126e-06
9.87552e-06
9.79428e-06
9.70922e-06
9.63206e-06
9.56512e-06
9.49588e-06
9.43456e-06
9.37382e-06
9.30888e-06
9.24549e-06
9.2021e-06
9.16471e-06
9.11462e-06
9.07313e-06
9.03193e-06
1.10337e-05
1.04192e-05
9.84842e-06
9.39711e-06
9.06577e-06
8.81075e-06
8.61421e-06
8.44881e-06
8.30589e-06
8.18309e-06
8.0697e-06
7.96978e-06
7.87135e-06
7.76735e-06
7.6737e-06
7.58213e-06
7.49583e-06
7.41415e-06
7.33643e-06
7.26264e-06
7.19213e-06
7.12639e-06
7.06501e-06
7.00955e-06
6.95723e-06
6.9043e-06
6.85363e-06
6.80496e-06
6.75694e-06
6.71514e-06
6.67418e-06
6.63175e-06
6.5914e-06
6.55375e-06
6.51622e-06
6.49364e-06
6.46739e-06
6.43809e-06
6.41095e-06
6.38388e-06
5.27291e-06
4.94399e-06
4.64562e-06
4.46298e-06
4.3507e-06
4.27236e-06
4.21078e-06
4.15656e-06
4.10861e-06
4.06728e-06
4.02898e-06
3.99267e-06
3.95605e-06
3.91937e-06
3.88424e-06
3.85036e-06
3.81739e-06
3.78585e-06
3.75539e-06
3.72649e-06
3.69764e-06
3.67034e-06
3.64525e-06
3.62204e-06
3.59718e-06
3.57453e-06
3.5523e-06
3.531e-06
3.51083e-06
3.49365e-06
3.47166e-06
3.45322e-06
3.43523e-06
3.41873e-06
3.40426e-06
3.39574e-06
3.37893e-06
3.36567e-06
3.35458e-06
3.33973e-06
1.1034e-05
1.0416e-05
9.84439e-06
9.39261e-06
9.06034e-06