/*--------------------------------*- C++ -*----------------------------------*\
| =========                 |                                                 |
| \\      /  F ield         | OpenFOAM: The Open Source CFD Toolbox           |
|  \\    /   O peration     | Version:  2212                                  |
|   \\  /    A nd           | Website:  www.openfoam.com                      |
|    \\/     M anipulation  |                                                 |
\*---------------------------------------------------------------------------*/
FoamFile
{
    version     2.0;
    format      ascii;
    arch        "LSB;label=32;scalar=64";
    class       volScalarField;
    location    "1.15";
    object      p;
}
// * * * * * * * * * * * * * * * * * * * * * * * * * * * * * * * * * * * * * //

dimensions      [0 2 -2 0 0 0 0];

internalField   nonuniform List<scalar> 
6840
(
0.017809
0.0106946
0.00840318
0.00786535
0.00759099
0.00736877
0.00718213
0.00701568
0.00685451
0.00669504
0.00653737
0.00638127
0.00622544
0.00606881
0.00591146
0.00575269
0.00559248
0.0054252
0.00521536
0.00483032
0.0106302
0.00989638
0.00880348
0.0081375
0.00773488
0.00746111
0.00724987
0.00706352
0.00688892
0.00672127
0.00655802
0.00639724
0.00623695
0.0060759
0.00591378
0.00574938
0.0055775
0.0053834
0.0051259
0.00470907
0.0102819
0.00943043
0.00866616
0.008107
0.0077308
0.00746269
0.0072469
0.00705376
0.006875
0.0067059
0.00654143
0.00637925
0.00621853
0.00605829
0.00589675
0.00573134
0.00555764
0.00537018
0.00516411
0.00492523
0.00987266
0.00910993
0.00849115
0.0080398
0.00769579
0.00742669
0.00720695
0.00701793
0.00684975
0.00669176
0.00653519
0.00637847
0.00622202
0.00606596
0.00590982
0.00575284
0.00559424
0.0054341
0.00527422
0.00512114
0.00973847
0.00899728
0.00840909
0.00800096
0.00767898
0.00741222
0.0071906
0.00699983
0.00682886
0.00667184
0.00652145
0.00637075
0.00621882
0.0060673
0.00591768
0.00577099
0.00562861
0.00549068
0.00535663
0.00523219
0.00973849
0.0089973
0.00840913
0.00800102
0.00767908
0.00741237
0.00719085
0.00700025
0.00682957
0.006673
0.00652336
0.00637392
0.00622405
0.00607585
0.00593171
0.00579417
0.00566616
0.00555088
0.00545029
0.00536984
0.00987273
0.00911
0.00849124
0.00803993
0.00769599
0.00742702
0.00720752
0.00701892
0.00685142
0.00669451
0.00653972
0.00638586
0.00623406
0.00608563
0.0059424
0.00580751
0.00568579
0.00558466
0.00551873
0.00551245
0.010282
0.0094305
0.00866623
0.00810711
0.00773099
0.00746304
0.00724749
0.00705476
0.00687664
0.00670863
0.006546
0.00638674
0.0062307
0.00607816
0.00592946
0.00578554
0.00564852
0.00552352
0.00542716
0.00538455
0.0106303
0.00989641
0.00880352
0.00813755
0.00773498
0.00746128
0.00725016
0.00706403
0.00688979
0.00672274
0.00656044
0.00640124
0.00624381
0.00608789
0.00593417
0.00578313
0.00563294
0.00548123
0.00532522
0.0051492
0.017809
0.0106946
0.00840317
0.00786535
0.00759098
0.00736877
0.00718213
0.00701568
0.00685451
0.00669504
0.00653737
0.00638126
0.00622544
0.00606881
0.00591146
0.00575271
0.00559252
0.00542526
0.00521548
0.00483057
0.0106303
0.00989641
0.00880352
0.00813755
0.00773498
0.00746128
0.00725016
0.00706404
0.00688979
0.00672275
0.00656044
0.00640124
0.00624381
0.00608789
0.00593417
0.00578311
0.0056329
0.00548117
0.00532511
0.00514898
0.00991366
0.00988195
0.00915373
0.00844323
0.00799688
0.00768093
0.00742203
0.00719438
0.0069898
0.00680143
0.00662376
0.00645295
0.00628584
0.00612076
0.0059569
0.00579273
0.00562604
0.00545476
0.00529089
0.00519098
0.00898817
0.00911435
0.00881145
0.00839522
0.00802806
0.00770938
0.00743074
0.00719014
0.00697729
0.00678233
0.0065984
0.00642208
0.00625111
0.00608328
0.00591655
0.00574906
0.00557927
0.00540661
0.00523591
0.00508551
0.00856977
0.00861327
0.00844768
0.00818473
0.00790431
0.00763292
0.00738183
0.00715531
0.006952
0.00676494
0.0065871
0.00641531
0.00624813
0.00608402
0.0059215
0.00575942
0.00559721
0.00543531
0.00527571
0.00512236
0.00835382
0.00837564
0.00824843
0.0080309
0.00779845
0.00756927
0.00734642
0.00713322
0.00693241
0.00674504
0.00656858
0.00639968
0.00623669
0.00607794
0.00592234
0.00577049
0.00562286
0.00547947
0.00534139
0.00520793
0.00835387
0.00837569
0.0082485
0.00803102
0.00779863
0.00756952
0.0073468
0.0071338
0.00693329
0.00674649
0.00657102
0.00640376
0.0062432
0.00608783
0.00593718
0.005793
0.0056565
0.00552825
0.00540991
0.00529482
0.00856987
0.00861338
0.00844783
0.00818493
0.0079046
0.00763334
0.00738247
0.00715633
0.00695372
0.00676796
0.00659233
0.00642376
0.00626081
0.00610299
0.00595094
0.00580566
0.00566829
0.00554033
0.00542349
0.00531305
0.00898822
0.00911441
0.00881154
0.00839534
0.00802822
0.00770964
0.00743119
0.00719093
0.00697866
0.00678457
0.00660192
0.00642759
0.00625982
0.00609725
0.00593871
0.00578357
0.00563181
0.00548386
0.00534462
0.00522604
0.00991366
0.00988195
0.00915373
0.00844323
0.00799688
0.00768093
0.00742203
0.00719437
0.00698979
0.00680143
0.00662376
0.00645295
0.00628584
0.00612077
0.00595692
0.00579276
0.00562609
0.00545485
0.00529104
0.00519128
0.0106302
0.00989638
0.00880348
0.0081375
0.00773488
0.00746111
0.00724986
0.00706352
0.00688892
0.00672127
0.00655802
0.00639725
0.00623696
0.00607591
0.00591379
0.00574941
0.00557755
0.00538348
0.00512604
0.00470932
0.010282
0.0094305
0.00866624
0.00810711
0.00773099
0.00746304
0.00724749
0.00705476
0.00687664
0.00670863
0.006546
0.00638674
0.0062307
0.00607816
0.00592946
0.00578552
0.00564848
0.00552346
0.00542708
0.00538439
0.00898822
0.00911441
0.00881154
0.00839534
0.00802822
0.00770964
0.00743119
0.00719093
0.00697866
0.00678457
0.00660192
0.00642758
0.00625982
0.00609724
0.0059387
0.00578354
0.00563176
0.0054838
0.00534454
0.00522593
0.00841871
0.00851968
0.00840812
0.00818266
0.00792691
0.00766852
0.00741015
0.00716857
0.00695074
0.00675056
0.00656307
0.0063851
0.006214
0.00604775
0.00588505
0.00572478
0.00556618
0.00541019
0.00526119
0.00511787
0.00805069
0.00811875
0.00806636
0.00791936
0.00773446
0.00752932
0.00731865
0.00711172
0.00691054
0.006718
0.0065352
0.00636029
0.00619125
0.00602662
0.00586531
0.00570628
0.00554859
0.00539217
0.00523858
0.00508473
0.00786764
0.00793208
0.0079026
0.00777774
0.0076187
0.00744501
0.00725873
0.00707071
0.00688455
0.00670107
0.00652181
0.00634772
0.00617921
0.00601595
0.00585771
0.00570391
0.00555322
0.00540481
0.00525988
0.00511304
0.00786768
0.00793211
0.00790265
0.00777784
0.00761889
0.00744528
0.00725906
0.00707117
0.00688522
0.00670209
0.00652335
0.00635001
0.00618251
0.00602088
0.00586517
0.00571485
0.00556858
0.00542547
0.00528716
0.0051442
0.00805075
0.00811882
0.00806646
0.00791952
0.00773471
0.00752963
0.00731906
0.00711233
0.00691147
0.00671949
0.00653761
0.00636402
0.00619681
0.00603489
0.00587763
0.00572436
0.00557439
0.00542752
0.00528394
0.00513229
0.00841871
0.00851968
0.00840812
0.00818265
0.00792691
0.00766852
0.00741015
0.00716857
0.00695074
0.00675056
0.00656307
0.0063851
0.006214
0.00604776
0.00588507
0.0057248
0.00556619
0.00541019
0.00526116
0.00511776
0.00898817
0.00911435
0.00881145
0.00839522
0.00802806
0.00770938
0.00743074
0.00719014
0.00697729
0.00678233
0.0065984
0.00642208
0.00625111
0.00608329
0.00591657
0.00574908
0.00557931
0.00540665
0.00523597
0.00508556
0.0102819
0.00943043
0.00866615
0.008107
0.0077308
0.00746269
0.00724689
0.00705376
0.006875
0.0067059
0.00654143
0.00637925
0.00621853
0.0060583
0.00589676
0.00573136
0.00555768
0.00537023
0.00516419
0.00492534
0.00987273
0.00911
0.00849124
0.00803993
0.00769599
0.00742702
0.00720751
0.00701892
0.00685141
0.00669451
0.00653972
0.00638586
0.00623405
0.00608562
0.00594239
0.00580749
0.00568577
0.00558462
0.00551868
0.00551238
0.00856987
0.00861338
0.00844783
0.00818493
0.0079046
0.00763334
0.00738247
0.00715633
0.00695372
0.00676796
0.00659233
0.00642376
0.00626081
0.00610298
0.00595092
0.00580564
0.00566827
0.0055403
0.00542348
0.0053131
0.00805075
0.00811882
0.00806646
0.00791952
0.00773471
0.00752963
0.00731906
0.00711233
0.00691147
0.00671949
0.00653761
0.00636402
0.00619681
0.00603488
0.00587763
0.00572436
0.0055744
0.00542755
0.00528401
0.00513245
0.00775283
0.00781197
0.00780003
0.00770464
0.00756502
0.00739954
0.00721936
0.00703491
0.00685095
0.00667062
0.00649553
0.00632554
0.00616002
0.00599838
0.00584002
0.00568412
0.00552968
0.00537615
0.00522366
0.00506503
0.00760171
0.0076646
0.00766835
0.00759469
0.00747457
0.00732817
0.00716526
0.00699382
0.00681965
0.00664604
0.00647482
0.00630687
0.00614246
0.00598154
0.00582384
0.00566881
0.00551544
0.00536327
0.00521295
0.00505743
0.00760172
0.00766461
0.00766838
0.00759473
0.00747461
0.00732825
0.00716538
0.00699399
0.00681989
0.00664637
0.00647527
0.00630751
0.0061434
0.00598298
0.00582602
0.00567187
0.00551951
0.00536865
0.00522049
0.0050661
0.00775282
0.00781197
0.00780003
0.00770464
0.00756502
0.00739954
0.00721936
0.00703491
0.00685095
0.00667062
0.00649553
0.00632554
0.00616002
0.00599838
0.00584002
0.00568411
0.00552967
0.00537613
0.00522361
0.00506494
0.00805069
0.00811875
0.00806636
0.00791936
0.00773446
0.00752932
0.00731865
0.00711172
0.00691054
0.006718
0.0065352
0.00636029
0.00619125
0.00602663
0.00586531
0.00570628
0.00554858
0.00539216
0.00523854
0.00508462
0.00856977
0.00861327
0.00844768
0.00818472
0.00790431
0.00763292
0.00738183
0.00715531
0.006952
0.00676494
0.0065871
0.00641531
0.00624813
0.00608403
0.00592151
0.00575943
0.00559723
0.00543534
0.00527573
0.00512236
0.00987266
0.00910992
0.00849115
0.0080398
0.00769579
0.00742669
0.00720694
0.00701792
0.00684975
0.00669176
0.00653519
0.00637847
0.00622202
0.00606597
0.00590983
0.00575286
0.00559427
0.00543415
0.00527429
0.00512124
0.00973849
0.0089973
0.00840913
0.00800102
0.00767908
0.00741236
0.00719085
0.00700025
0.00682956
0.00667299
0.00652336
0.00637392
0.00622404
0.00607584
0.00593169
0.00579415
0.00566614
0.00555085
0.00545026
0.0053698
0.00835386
0.00837569
0.0082485
0.00803102
0.00779863
0.00756952
0.0073468
0.0071338
0.00693329
0.00674649
0.00657102
0.00640375
0.0062432
0.00608782
0.00593717
0.00579299
0.00565649
0.00552824
0.00540991
0.00529484
0.00786768
0.00793211
0.00790265
0.00777784
0.00761889
0.00744527
0.00725906
0.00707116
0.00688522
0.00670209
0.00652335
0.00635001
0.00618251
0.00602088
0.00586517
0.00571485
0.00556858
0.00542549
0.00528719
0.00514425
0.00760172
0.00766461
0.00766838
0.00759473
0.00747461
0.00732824
0.00716538
0.00699399
0.00681989
0.00664637
0.00647528
0.00630751
0.00614341
0.00598298
0.00582602
0.00567188
0.00551952
0.00536866
0.00522051
0.00506613
0.00745891
0.00752842
0.00755054
0.00749799
0.00739674
0.0072658
0.00711587
0.00695487
0.00678834
0.00661997
0.00645212
0.00628621
0.00612301
0.00596283
0.00580564
0.00565096
0.00549791
0.00534627
0.00519712
0.00504175
0.00745891
0.00752842
0.00755054
0.00749799
0.00739674
0.0072658
0.00711587
0.00695487
0.00678834
0.00661997
0.00645212
0.00628621
0.00612301
0.00596283
0.00580564
0.00565095
0.0054979
0.00534626
0.00519712
0.00504174
0.0076017
0.0076646
0.00766835
0.00759469
0.00747457
0.00732817
0.00716526
0.00699382
0.00681965
0.00664604
0.00647482
0.00630686
0.00614246
0.00598154
0.00582384
0.0056688
0.00551544
0.00536326
0.00521294
0.0050574
0.00786764
0.00793207
0.0079026
0.00777774
0.0076187
0.00744501
0.00725873
0.00707071
0.00688455
0.00670107
0.00652181
0.00634772
0.00617921
0.00601595
0.00585771
0.00570391
0.00555322
0.0054048
0.00525985
0.00511298
0.00835382
0.00837564
0.00824843
0.0080309
0.00779845
0.00756927
0.00734642
0.00713322
0.00693241
0.00674504
0.00656857
0.00639967
0.00623669
0.00607795
0.00592234
0.0057705
0.00562288
0.00547949
0.0053414
0.00520792
0.00973847
0.00899728
0.00840909
0.00800095
0.00767898
0.00741221
0.0071906
0.00699983
0.00682886
0.00667183
0.00652144
0.00637075
0.00621881
0.0060673
0.00591769
0.00577101
0.00562863
0.00549072
0.0053567
0.00523229
0.00973847
0.00899728
0.00840909
0.00800095
0.00767898
0.00741221
0.0071906
0.00699983
0.00682886
0.00667183
0.00652144
0.00637074
0.00621881
0.00606729
0.00591768
0.00577099
0.00562861
0.00549068
0.00535663
0.0052322
0.00835382
0.00837564
0.00824843
0.00803089
0.00779845
0.00756927
0.00734642
0.00713322
0.00693241
0.00674504
0.00656857
0.00639967
0.00623669
0.00607794
0.00592234
0.00577049
0.00562286
0.00547947
0.00534139
0.00520791
0.00786764
0.00793207
0.0079026
0.00777774
0.0076187
0.00744501
0.00725873
0.00707071
0.00688455
0.00670107
0.0065218
0.00634772
0.00617921
0.00601595
0.00585771
0.00570391
0.00555322
0.00540481
0.00525988
0.00511301
0.0076017
0.0076646
0.00766835
0.00759469
0.00747457
0.00732817
0.00716526
0.00699382
0.00681965
0.00664604
0.00647482
0.00630687
0.00614246
0.00598154
0.00582385
0.00566881
0.00551545
0.00536327
0.00521296
0.00505743
0.00745891
0.00752842
0.00755054
0.00749799
0.00739674
0.0072658
0.00711587
0.00695487
0.00678834
0.00661997
0.00645212
0.00628621
0.00612301
0.00596283
0.00580565
0.00565096
0.00549791
0.00534627
0.00519712
0.00504175
0.00745891
0.00752842
0.00755054
0.00749799
0.00739674
0.0072658
0.00711587
0.00695487
0.00678834
0.00661997
0.00645212
0.00628621
0.00612301
0.00596283
0.00580565
0.00565096
0.00549791
0.00534627
0.00519712
0.00504175
0.00760172
0.00766461
0.00766837
0.00759473
0.00747461
0.00732824
0.00716538
0.00699399
0.00681988
0.00664636
0.00647527
0.00630751
0.00614341
0.00598298
0.00582602
0.00567188
0.00551952
0.00536866
0.0052205
0.00506612
0.00786768
0.00793211
0.00790265
0.00777784
0.00761889
0.00744527
0.00725906
0.00707116
0.00688522
0.00670209
0.00652335
0.00635001
0.00618251
0.00602088
0.00586518
0.00571486
0.00556858
0.00542549
0.00528718
0.00514422
0.00835386
0.00837569
0.0082485
0.00803101
0.00779863
0.00756952
0.0073468
0.0071338
0.00693329
0.00674649
0.00657102
0.00640375
0.0062432
0.00608783
0.00593718
0.005793
0.00565651
0.00552826
0.00540994
0.00529485
0.00973848
0.0089973
0.00840913
0.00800102
0.00767908
0.00741236
0.00719085
0.00700024
0.00682956
0.00667299
0.00652336
0.00637392
0.00622405
0.00607584
0.00593171
0.00579418
0.00566617
0.0055509
0.00545034
0.00536992
0.00987266
0.00910992
0.00849114
0.0080398
0.00769579
0.00742669
0.00720694
0.00701792
0.00684974
0.00669176
0.00653519
0.00637847
0.00622202
0.00606596
0.00590982
0.00575284
0.00559426
0.00543412
0.00527426
0.00512121
0.00856977
0.00861327
0.00844768
0.00818472
0.00790431
0.00763292
0.00738183
0.00715531
0.006952
0.00676494
0.00658709
0.00641531
0.00624813
0.00608402
0.0059215
0.00575943
0.00559723
0.00543534
0.00527574
0.0051224
0.00805069
0.00811875
0.00806636
0.00791936
0.00773446
0.00752932
0.00731865
0.00711172
0.00691054
0.006718
0.0065352
0.00636029
0.00619125
0.00602663
0.00586531
0.00570629
0.0055486
0.00539219
0.0052386
0.00508473
0.00775282
0.00781197
0.00780003
0.00770464
0.00756502
0.00739954
0.00721936
0.00703491
0.00685095
0.00667062
0.00649553
0.00632554
0.00616003
0.00599839
0.00584002
0.00568413
0.0055297
0.00537617
0.00522368
0.00506504
0.00760172
0.00766461
0.00766837
0.00759473
0.00747461
0.00732824
0.00716538
0.00699399
0.00681989
0.00664637
0.00647528
0.00630751
0.00614341
0.00598299
0.00582603
0.00567189
0.00551953
0.00536867
0.00522052
0.00506613
0.0076017
0.0076646
0.00766835
0.00759469
0.00747457
0.00732817
0.00716526
0.00699382
0.00681965
0.00664604
0.00647482
0.00630687
0.00614247
0.00598154
0.00582385
0.00566882
0.00551546
0.00536329
0.00521298
0.00505745
0.00775282
0.00781197
0.00780003
0.00770464
0.00756502
0.00739954
0.00721936
0.00703491
0.00685095
0.00667062
0.00649553
0.00632554
0.00616003
0.00599839
0.00584003
0.00568413
0.0055297
0.00537618
0.0052237
0.00506507
0.00805075
0.00811881
0.00806645
0.00791952
0.0077347
0.00752963
0.00731905
0.00711233
0.00691147
0.00671948
0.0065376
0.00636402
0.00619681
0.00603489
0.00587764
0.00572437
0.00557442
0.00542757
0.00528404
0.00513249
0.00856987
0.00861338
0.00844783
0.00818493
0.0079046
0.00763333
0.00738246
0.00715633
0.00695372
0.00676796
0.00659232
0.00642376
0.00626081
0.00610299
0.00595093
0.00580566
0.00566829
0.00554034
0.00542352
0.00531315
0.00987273
0.00911
0.00849124
0.00803993
0.00769598
0.00742702
0.00720751
0.00701891
0.00685141
0.00669451
0.00653972
0.00638586
0.00623405
0.00608562
0.0059424
0.00580751
0.00568579
0.00558466
0.00551875
0.00551247
0.0102819
0.00943043
0.00866615
0.008107
0.00773079
0.00746268
0.00724689
0.00705376
0.006875
0.0067059
0.00654143
0.00637925
0.00621853
0.0060583
0.00589676
0.00573135
0.00555766
0.0053702
0.00516415
0.00492529
0.00898816
0.00911434
0.00881145
0.00839522
0.00802806
0.00770937
0.00743074
0.00719014
0.00697729
0.00678233
0.0065984
0.00642209
0.00625111
0.00608329
0.00591657
0.00574908
0.0055793
0.00540664
0.00523596
0.00508557
0.00841871
0.00851968
0.00840812
0.00818265
0.00792691
0.00766852
0.00741015
0.00716857
0.00695074
0.00675056
0.00656307
0.0063851
0.00621401
0.00604776
0.00588507
0.0057248
0.00556621
0.00541022
0.00526123
0.0051179
0.00805075
0.00811881
0.00806645
0.00791952
0.00773471
0.00752963
0.00731906
0.00711233
0.00691148
0.00671949
0.00653761
0.00636403
0.00619682
0.00603489
0.00587764
0.00572438
0.00557443
0.00542758
0.00528404
0.00513247
0.00786768
0.00793211
0.00790265
0.00777784
0.00761889
0.00744527
0.00725906
0.00707117
0.00688522
0.00670209
0.00652335
0.00635002
0.00618252
0.00602089
0.00586519
0.00571487
0.0055686
0.00542551
0.0052872
0.00514425
0.00786764
0.00793207
0.0079026
0.00777774
0.0076187
0.00744501
0.00725873
0.00707071
0.00688455
0.00670107
0.00652181
0.00634773
0.00617921
0.00601596
0.00585773
0.00570393
0.00555325
0.00540484
0.00525991
0.00511305
0.00805069
0.00811875
0.00806636
0.00791936
0.00773446
0.00752932
0.00731865
0.00711172
0.00691054
0.00671799
0.0065352
0.00636029
0.00619125
0.00602663
0.00586532
0.0057063
0.00554862
0.00539221
0.00523865
0.00508482
0.00841871
0.00851968
0.00840812
0.00818265
0.00792691
0.00766852
0.00741015
0.00716857
0.00695074
0.00675056
0.00656306
0.00638509
0.006214
0.00604775
0.00588507
0.0057248
0.0055662
0.00541021
0.00526123
0.00511792
0.00898822
0.00911441
0.00881154
0.00839534
0.00802822
0.00770963
0.00743118
0.00719092
0.00697865
0.00678456
0.00660192
0.00642758
0.00625982
0.00609724
0.0059387
0.00578355
0.00563178
0.00548382
0.00534456
0.00522597
0.010282
0.0094305
0.00866623
0.00810711
0.00773099
0.00746303
0.00724749
0.00705475
0.00687663
0.00670863
0.006546
0.00638674
0.0062307
0.00607816
0.00592946
0.00578553
0.0056485
0.00552348
0.00542711
0.00538444
0.0106302
0.00989638
0.00880348
0.00813749
0.00773488
0.00746111
0.00724986
0.00706352
0.00688892
0.00672127
0.00655802
0.00639725
0.00623695
0.00607591
0.00591379
0.00574939
0.00557752
0.00538342
0.00512593
0.00470912
0.00991366
0.00988195
0.00915373
0.00844323
0.00799688
0.00768093
0.00742203
0.00719437
0.00698979
0.00680143
0.00662376
0.00645295
0.00628584
0.00612077
0.00595692
0.00579275
0.00562606
0.00545479
0.00529094
0.00519104
0.00898822
0.00911441
0.00881154
0.00839534
0.00802822
0.00770964
0.00743119
0.00719093
0.00697866
0.00678457
0.00660193
0.00642759
0.00625983
0.00609725
0.00593872
0.00578357
0.0056318
0.00548385
0.0053446
0.00522601
0.00856987
0.00861338
0.00844783
0.00818493
0.0079046
0.00763334
0.00738247
0.00715633
0.00695372
0.00676796
0.00659233
0.00642377
0.00626082
0.006103
0.00595095
0.00580568
0.00566831
0.00554035
0.00542353
0.00531314
0.00835386
0.00837569
0.0082485
0.00803102
0.00779863
0.00756952
0.0073468
0.0071338
0.00693329
0.00674649
0.00657103
0.00640376
0.00624321
0.00608784
0.00593719
0.00579302
0.00565653
0.00552828
0.00540996
0.00529487
0.00835382
0.00837564
0.00824843
0.00803089
0.00779845
0.00756927
0.00734642
0.00713322
0.00693241
0.00674504
0.00656858
0.00639968
0.0062367
0.00607796
0.00592236
0.00577052
0.0056229
0.00547951
0.00534143
0.00520796
0.00856977
0.00861327
0.00844768
0.00818472
0.00790431
0.00763292
0.00738182
0.0071553
0.006952
0.00676494
0.00658709
0.00641531
0.00624813
0.00608403
0.00592151
0.00575944
0.00559724
0.00543535
0.00527576
0.00512242
0.00898816
0.00911434
0.00881145
0.00839522
0.00802805
0.00770937
0.00743073
0.00719013
0.00697728
0.00678232
0.0065984
0.00642208
0.00625111
0.00608328
0.00591657
0.00574907
0.00557929
0.00540662
0.00523592
0.00508551
0.00991366
0.00988195
0.00915373
0.00844322
0.00799687
0.00768092
0.00742203
0.00719437
0.00698979
0.00680142
0.00662375
0.00645295
0.00628584
0.00612076
0.0059569
0.00579273
0.00562604
0.00545476
0.00529087
0.00519092
0.0106303
0.00989641
0.00880351
0.00813755
0.00773498
0.00746127
0.00725015
0.00706403
0.00688978
0.00672274
0.00656044
0.00640123
0.0062438
0.00608788
0.00593415
0.00578311
0.0056329
0.00548117
0.00532509
0.00514894
0.017809
0.0106946
0.00840317
0.00786535
0.00759098
0.00736877
0.00718213
0.00701568
0.00685451
0.00669504
0.00653737
0.00638127
0.00622544
0.00606881
0.00591146
0.0057527
0.0055925
0.00542522
0.00521539
0.00483038
0.0106303
0.00989641
0.00880352
0.00813755
0.00773498
0.00746128
0.00725016
0.00706403
0.00688979
0.00672275
0.00656044
0.00640124
0.00624381
0.00608789
0.00593417
0.00578312
0.00563292
0.0054812
0.00532516
0.00514907
0.010282
0.0094305
0.00866623
0.00810711
0.00773099
0.00746304
0.00724749
0.00705476
0.00687664
0.00670864
0.00654601
0.00638675
0.00623071
0.00607817
0.00592947
0.00578555
0.00564851
0.00552351
0.00542716
0.00538453
0.00987273
0.00911
0.00849124
0.00803993
0.00769599
0.00742702
0.00720752
0.00701892
0.00685142
0.00669452
0.00653972
0.00638587
0.00623406
0.00608564
0.00594242
0.00580753
0.00568581
0.00558469
0.00551878
0.00551253
0.00973849
0.0089973
0.00840913
0.00800102
0.00767908
0.00741237
0.00719085
0.00700025
0.00682957
0.006673
0.00652337
0.00637393
0.00622406
0.00607586
0.00593172
0.00579419
0.00566619
0.00555093
0.00545037
0.00536996
0.00973846
0.00899727
0.00840909
0.00800095
0.00767898
0.00741221
0.0071906
0.00699983
0.00682886
0.00667184
0.00652145
0.00637075
0.00621882
0.00606731
0.0059177
0.00577102
0.00562865
0.00549074
0.00535672
0.00523233
0.00987266
0.00910992
0.00849114
0.0080398
0.00769578
0.00742668
0.00720694
0.00701792
0.00684974
0.00669176
0.00653519
0.00637847
0.00622203
0.00606597
0.00590983
0.00575286
0.00559428
0.00543415
0.00527429
0.00512123
0.0102819
0.00943043
0.00866615
0.00810699
0.00773079
0.00746268
0.00724689
0.00705376
0.00687499
0.00670589
0.00654143
0.00637925
0.00621853
0.00605829
0.00589676
0.00573135
0.00555766
0.00537019
0.00516412
0.00492521
0.0106302
0.00989638
0.00880347
0.00813749
0.00773487
0.0074611
0.00724986
0.00706351
0.00688891
0.00672126
0.00655802
0.00639724
0.00623695
0.0060759
0.00591377
0.00574938
0.00557751
0.0053834
0.00512588
0.00470902
0.017809
0.0106946
0.00840317
0.00786534
0.00759098
0.00736877
0.00718212
0.00701567
0.0068545
0.00669503
0.00653736
0.00638126
0.00622543
0.0060688
0.00591145
0.00575268
0.00559248
0.00542519
0.00521533
0.00483026
0.00549098
0.00483567
0.00446141
0.00433533
0.00423002
0.00410125
0.00396866
0.00383735
0.00370565
0.0035738
0.00344227
0.00331117
0.00318144
0.00305212
0.00292314
0.00279466
0.0026674
0.00254175
0.00241768
0.00229504
0.00217292
0.00205193
0.00193292
0.00181586
0.0016997
0.00158401
0.00146951
0.00135618
0.00124381
0.00113152
0.0010191
0.000907877
0.000798474
0.000690701
0.000583306
0.000475047
0.000367239
0.00026104
0.000156792
5.01976e-05
0.00541813
0.00489156
0.00453648
0.00439131
0.00426944
0.00413379
0.00399674
0.00386073
0.00372428
0.0035879
0.00345202
0.0033171
0.00318396
0.00305141
0.00291976
0.00278947
0.00266091
0.00253447
0.00240978
0.00228684
0.00216453
0.00204356
0.00192525
0.00180904
0.00169333
0.00157779
0.00146329
0.00135003
0.00123792
0.00112581
0.00101351
0.000902596
0.000793588
0.000686402
0.000579357
0.00047134
0.000364061
0.000258638
0.000154994
4.97867e-05
0.00507255
0.0048689
0.00462948
0.00444998
0.00430518
0.00416182
0.0040167
0.00387298
0.00373115
0.0035909
0.00345231
0.00331486
0.00317986
0.00304631
0.00291428
0.00278421
0.00265576
0.00252927
0.00240427
0.00228098
0.00215826
0.00203765
0.00191945
0.00180254
0.00168639
0.00157087
0.00145671
0.00134384
0.00123198
0.00111982
0.00100775
0.000897416
0.000789078
0.000682438
0.000575807
0.000467955
0.000361036
0.000256513
0.000153927
4.93848e-05
0.0049114
0.00481069
0.00465047
0.0044831
0.00433061
0.00418297
0.00403595
0.00389039
0.00374684
0.00360523
0.00346555
0.0033276
0.00319205
0.0030584
0.00292644
0.00279618
0.0026675
0.0025404
0.00241451
0.00229029
0.00216713
0.00204544
0.00192499
0.00180532
0.00168716
0.00157097
0.00145649
0.00134345
0.00123186
0.0011197
0.00100769
0.000897337
0.000789164
0.00068236
0.000575629
0.000467879
0.0003607
0.000255923
0.00015349
4.89392e-05
0.00484
0.0047661
0.00463445
0.00448123
0.00432798
0.00417726
0.00402905
0.00388392
0.00374146
0.00360088
0.00346234
0.00332616
0.00319183
0.00305937
0.00292847
0.00279897
0.00267088
0.00254416
0.00241872
0.00229468
0.0021722
0.00205108
0.00193066
0.00181092
0.00169273
0.00157658
0.00146204
0.00134871
0.00123682
0.00112515
0.00101336
0.000902802
0.000794181
0.000686845
0.000579587
0.000471111
0.0003629
0.000257293
0.000154117
4.87113e-05
0.00490815
0.00479318
0.00463766
0.00447558
0.00431827
0.00416547
0.00401637
0.00387189
0.00373174
0.00359415
0.00345799
0.00332326
0.00319011
0.00305853
0.00292834
0.00279944
0.00267183
0.00254553
0.00242059
0.00229703
0.00217487
0.00205416
0.0019348
0.00181596
0.00169755
0.00158056
0.00146531
0.00135148
0.0012395
0.00112819
0.00101673
0.000906606
0.000798112
0.00069062
0.000583288
0.00047468
0.000365969
0.000260042
0.000155983
4.91782e-05
0.00501367
0.00484355
0.00465165
0.00447325
0.00430943
0.00415423
0.00400459
0.00386069
0.00372161
0.00358527
0.00345059
0.00331736
0.00318555
0.00305468
0.00292501
0.00279687
0.00267006
0.00254453
0.0024203
0.00229733
0.00217566
0.00205538
0.00193637
0.00181755
0.00169952
0.00158308
0.00146831
0.00135495
0.0012431
0.00113156
0.00101959
0.000908694
0.000799727
0.000692179
0.000584983
0.00047669
0.000368054
0.000262093
0.000157586
5.01694e-05
0.00517691
0.00493526
0.00467518
0.00446593
0.00429095
0.00413313
0.00398494
0.00384324
0.00370599
0.00357174
0.00343935
0.00330826
0.00317769
0.00304734
0.00291805
0.0027906
0.00266457
0.00253987
0.00241635
0.00229391
0.0021728
0.00205284
0.00193424
0.00181613
0.0016997
0.00158498
0.00147132
0.00135873
0.00124675
0.00113454
0.00102214
0.000911074
0.000801883
0.000693898
0.000586893
0.000479722
0.000370893
0.000263638
0.000158534
5.1018e-05
0.00537386
0.00498954
0.00463653
0.00441091
0.00423928
0.00408687
0.00394572
0.00381188
0.00368187
0.00355324
0.00342506
0.00329692
0.00316919
0.00304275
0.00291678
0.00279102
0.00266512
0.00254057
0.00241735
0.00229497
0.00217369
0.00205346
0.00193472
0.00181675
0.0017009
0.00158643
0.00147303
0.00136034
0.00124799
0.00113535
0.00102263
0.000911411
0.000802011
0.000693878
0.000586668
0.000479406
0.000370459
0.00026271
0.000157239
5.0379e-05
0.0055335
0.00492196
0.00448405
0.00430711
0.00418922
0.00406265
0.00393466
0.00380935
0.0036841
0.00355803
0.00343152
0.00330444
0.00317812
0.00305296
0.00292772
0.00280173
0.0026755
0.00255052
0.00242687
0.0023043
0.00218267
0.00206156
0.00194198
0.00182378
0.00170701
0.00159142
0.00147673
0.00136317
0.00125066
0.0011381
0.00102516
0.000913498
0.000803618
0.000695107
0.000587735
0.000480611
0.000372302
0.000264452
0.000158467
5.10024e-05
0.00549071
0.00483533
0.00446083
0.00433458
0.00423003
0.00410203
0.00396947
0.00383789
0.00370597
0.00357403
0.00344266
0.00331134
0.00318113
0.00305186
0.00292302
0.00279484
0.00266751
0.00254185
0.00241775
0.00229492
0.00217321
0.00205226
0.00193314
0.00181582
0.00169961
0.00158426
0.00146969
0.00135628
0.00124389
0.00113166
0.00101928
0.000907992
0.000798451
0.000690344
0.000583144
0.000476401
0.000369156
0.000262057
0.000157084
4.99805e-05
0.00553359
0.00492208
0.00448451
0.00430798
0.00418935
0.00406184
0.00393385
0.00380883
0.00368379
0.00355783
0.00343116
0.00330427
0.00317837
0.00305304
0.00292766
0.00280135
0.00267521
0.00255031
0.00242665
0.00230439
0.00218229
0.00206115
0.00194163
0.00182369
0.00170701
0.00159117
0.00147664
0.0013632
0.00125075
0.00113811
0.00102514
0.0009136
0.000803928
0.000696083
0.000588063
0.000478722
0.00037027
0.000263635
0.000158294
5.11619e-05
0.00521429
0.00486397
0.00458078
0.00439796
0.00424782
0.00410546
0.00397069
0.0038401
0.00371007
0.00357959
0.00344905
0.00331843
0.00318893
0.00305952
0.0029307
0.00280251
0.0026755
0.00255024
0.00242615
0.00230373
0.0021812
0.00206064
0.00194177
0.0018238
0.001707
0.00159055
0.00147568
0.00136218
0.00124973
0.00113694
0.00102387
0.000912159
0.00080245
0.000695171
0.000587864
0.000478463
0.000369478
0.000262832
0.000158122
5.12789e-05
0.00503935
0.0048208
0.00460459
0.00441706
0.00425995
0.00411616
0.0039773
0.00384121
0.00370702
0.0035737
0.00344099
0.00330903
0.00317767
0.00304752
0.00291866
0.00279066
0.00266391
0.00253878
0.00241474
0.00229137
0.00216899
0.00204849
0.00192929
0.00181078
0.00169369
0.00157792
0.00146344
0.00135016
0.00123791
0.00112561
0.00101368
0.000902897
0.000793905
0.000686273
0.000579233
0.000471806
0.000364631
0.000259227
0.000156125
5.09095e-05
0.0048004
0.00464765
0.00453778
0.00440035
0.0042585
0.0041214
0.00398541
0.00384972
0.00371506
0.00358126
0.00344821
0.00331619
0.0031846
0.00305403
0.00292455
0.00279603
0.00266877
0.00254266
0.0024179
0.0022941
0.00217175
0.00205042
0.00193035
0.00181144
0.00169367
0.00157746
0.0014622
0.00134808
0.00123525
0.00112321
0.00101168
0.000901048
0.000791711
0.000683325
0.000576128
0.000469653
0.000363415
0.000258237
0.000154934
5.05854e-05
0.00480891
0.00466121
0.00454564
0.00441089
0.00426958
0.00413117
0.00399343
0.00385612
0.00371984
0.00358497
0.00345135
0.0033189
0.00318731
0.00305668
0.0029271
0.00279864
0.00267139
0.00254531
0.00242047
0.00229662
0.00217389
0.0020521
0.00193154
0.00181269
0.0016954
0.0015792
0.00146378
0.00134937
0.00123607
0.00112382
0.00101217
0.000901523
0.000791987
0.0006835
0.000576149
0.000469576
0.000363553
0.000258702
0.000155129
5.07536e-05
0.00489241
0.00473458
0.00459462
0.00444866
0.0043007
0.00415561
0.0040129
0.00387156
0.00373176
0.00359402
0.00345829
0.0033243
0.0031918
0.00306047
0.00293035
0.00280148
0.00267383
0.00254749
0.00242241
0.00229845
0.00217558
0.00205373