/*--------------------------------*- C++ -*----------------------------------*\
| =========                 |                                                 |
| \\      /  F ield         | OpenFOAM: The Open Source CFD Toolbox           |
|  \\    /   O peration     | Version:  2212                                  |
|   \\  /    A nd           | Website:  www.openfoam.com                      |
|    \\/     M anipulation  |                                                 |
\*---------------------------------------------------------------------------*/
FoamFile
{
    version     2.0;
    format      ascii;
    arch        "LSB;label=32;scalar=64";
    class       volVectorField;
    location    "1.15";
    object      U;
}
// * * * * * * * * * * * * * * * * * * * * * * * * * * * * * * * * * * * * * //

dimensions      [0 1 -1 0 0 0 0];

internalField   nonuniform List<vector> 
6840
(
(0.0956456 -0.00836005 -0.00836005)
(0.0904939 0.00152207 0.00152197)
(0.0790683 0.00242982 0.00242963)
(0.0713013 0.00148792 0.00148753)
(0.0661796 0.000830804 0.000830084)
(0.062323 0.000564149 0.00056298)
(0.0592214 0.000427391 0.000424857)
(0.0566857 0.000325779 0.000321442)
(0.0545512 0.000256068 0.000248967)
(0.0526996 0.000207614 0.000195971)
(0.051063 0.000174852 0.000155179)
(0.0496046 0.000154225 0.000121688)
(0.0482924 0.000141873 9.05888e-05)
(0.047099 0.000137179 5.76892e-05)
(0.0460165 0.000142143 1.82353e-05)
(0.0450547 0.000160862 -1.46445e-05)
(0.0442437 0.000203416 -0.000101108)
(0.0436933 0.000263819 -0.000270931)
(0.0438804 0.0002934 -0.000547697)
(0.0429501 -0.00148255 -0.00311064)
(0.0999088 0.00129701 0.000712546)
(0.0969669 0.00365597 0.00274719)
(0.0935346 0.00264034 0.00211801)
(0.0895894 0.00182065 0.00162034)
(0.0858324 0.00152922 0.00139022)
(0.0825905 0.00135195 0.00116056)
(0.079866 0.00118067 0.000896096)
(0.0775683 0.0010428 0.00069063)
(0.0755599 0.000946708 0.000558019)
(0.0737547 0.000872432 0.000475692)
(0.0721079 0.000804413 0.000424743)
(0.0705921 0.000738316 0.000391587)
(0.0691892 0.000681791 0.00037124)
(0.0678862 0.000640751 0.000362575)
(0.066681 0.000611193 0.000352064)
(0.065593 0.000590462 0.00031364)
(0.0646851 0.000556391 0.000236746)
(0.0641225 0.000464332 8.02191e-06)
(0.0644007 0.000374842 -0.000335086)
(0.0623012 -6.17695e-05 -0.000734195)
(0.099413 0.000345242 0.000270224)
(0.0988664 0.00201909 0.00187483)
(0.0979217 0.00257321 0.00218882)
(0.0963664 0.00238002 0.00190807)
(0.0946344 0.00211436 0.00162622)
(0.092974 0.0019272 0.00141801)
(0.0913672 0.0018021 0.00127022)
(0.0898592 0.00170645 0.00115841)
(0.0884636 0.00160654 0.00106733)
(0.087173 0.00149715 0.000994166)
(0.0859818 0.00138829 0.000944111)
(0.084878 0.00128649 0.000912895)
(0.0838469 0.00119067 0.000894871)
(0.0828824 0.00109559 0.000883863)
(0.0819884 0.000994616 0.000872555)
(0.0811873 0.00087485 0.00084543)
(0.0805262 0.000713938 0.000789122)
(0.0800683 0.000451 0.000633365)
(0.0799149 -9.90107e-05 0.000356129)
(0.0792578 -0.00154266 -0.000270357)
(0.0995405 0.000245026 0.000321896)
(0.0992577 0.00105553 0.00154091)
(0.0988491 0.00150216 0.00211438)
(0.0981253 0.00157911 0.00209151)
(0.0973379 0.00151417 0.00188601)
(0.0965868 0.00144515 0.00166574)
(0.0958685 0.00140783 0.00149794)
(0.0952028 0.00137506 0.00137152)
(0.0945775 0.00132657 0.00128475)
(0.0939377 0.00125105 0.00122901)
(0.0933178 0.00115436 0.00119117)
(0.0927178 0.00104714 0.00116698)
(0.0921317 0.000935811 0.0011542)
(0.091557 0.000819415 0.00114974)
(0.0909936 0.000690588 0.00114825)
(0.090443 0.000522494 0.00114253)
(0.0899116 0.000291861 0.00112575)
(0.0894088 -4.68012e-05 0.00109502)
(0.0889171 -0.000544854 0.00106439)
(0.0882949 -0.00129454 0.00109158)
(0.0993801 3.37505e-05 5.89337e-05)
(0.0992677 0.000274255 0.00119999)
(0.0989805 0.000432077 0.00188843)
(0.0984749 0.00048293 0.00200638)
(0.097996 0.000477894 0.00191451)
(0.0975718 0.0004638 0.00173447)
(0.0971825 0.000449743 0.00154692)
(0.0968334 0.000436948 0.00138802)
(0.0965342 0.000426973 0.0012692)
(0.0962811 0.00041277 0.00119822)
(0.0960089 0.000385182 0.00117048)
(0.0957185 0.000344315 0.00116794)
(0.0954086 0.000291485 0.00117675)
(0.0950669 0.000225189 0.00119455)
(0.0946863 0.000142539 0.00122589)
(0.0942591 2.72169e-05 0.0012747)
(0.0937773 -0.000144757 0.00134606)
(0.0932184 -0.000405954 0.00144186)
(0.0925375 -0.000788842 0.00156283)
(0.0917508 -0.00147016 0.00170967)
(0.0993802 -3.37902e-05 5.89937e-05)
(0.0992677 -0.000274457 0.00120004)
(0.0989804 -0.000432508 0.00188846)
(0.0984746 -0.000483682 0.00200645)
(0.0979955 -0.000479193 0.00191469)
(0.0975706 -0.000466093 0.00173485)
(0.0971804 -0.000453814 0.00154749)
(0.0968298 -0.000443942 0.001389)
(0.0965281 -0.000438842 0.00127104)
(0.0962706 -0.00043269 0.00120153)
(0.0959911 -0.000418362 0.00117613)
(0.0956881 -0.000399188 0.00117744)
(0.0953566 -0.000382168 0.00119297)
(0.0949778 -0.000375042 0.00122362)
(0.0945362 -0.00038964 0.00127974)
(0.0940094 -0.000433128 0.00136763)
(0.0933656 -0.000534844 0.00149941)
(0.0925623 -0.000686899 0.0016979)
(0.091522 -0.0010017 0.00197026)
(0.0904004 -0.00168742 0.00223912)
(0.0995405 -0.000245041 0.000321897)
(0.0992576 -0.00105561 0.00154092)
(0.0988488 -0.00150231 0.0021145)
(0.0981246 -0.00157937 0.00209172)
(0.0973364 -0.00151477 0.00188634)
(0.0965841 -0.00144635 0.00166625)
(0.0958637 -0.00140996 0.00149857)
(0.0951946 -0.00137857 0.00137258)
(0.0945632 -0.00133265 0.00128712)
(0.0939132 -0.00126079 0.00123421)
(0.0932764 -0.00116968 0.00120103)
(0.0926478 -0.00107146 0.0011853)
(0.0920137 -0.000976199 0.00118516)
(0.0913584 -0.000887451 0.00120241)
(0.0906602 -0.000802988 0.00124298)
(0.0898839 -0.00071781 0.00131885)
(0.0889723 -0.000636314 0.00145203)
(0.0878118 -0.000570605 0.00169483)
(0.0862689 -0.000512854 0.00203281)
(0.0844217 -0.000669681 0.00266283)
(0.099413 -0.000345222 0.000270232)
(0.0988664 -0.00201899 0.00187491)
(0.0979214 -0.00257302 0.00218906)
(0.0963657 -0.00237968 0.00190849)
(0.094633 -0.00211383 0.00162681)
(0.0929715 -0.00192632 0.00141886)
(0.0913626 -0.0018008 0.00127161)
(0.0898512 -0.00170433 0.00116075)
(0.0884498 -0.00160296 0.00107114)
(0.0871498 -0.0014912 0.00100049)
(0.0859427 -0.00137843 0.000954167)
(0.0848117 -0.00127056 0.000930398)
(0.0837356 -0.00116585 0.000925282)
(0.0826962 -0.00105826 0.00093618)
(0.0816767 -0.00094015 0.000964505)
(0.0806562 -0.000800657 0.0010164)
(0.0796011 -0.000627379 0.00110708)
(0.0784357 -0.000356241 0.00125745)
(0.0770625 0.000122891 0.00150278)
(0.0755822 0.00062133 0.00279382)
(0.0999088 -0.00129699 0.000712565)
(0.0969668 -0.00365581 0.00274729)
(0.0935345 -0.00264009 0.00211821)
(0.0895891 -0.00182021 0.00162073)
(0.0858319 -0.00152831 0.00139079)
(0.0825896 -0.00135054 0.0011616)
(0.0798642 -0.00117806 0.000897825)
(0.0775651 -0.0010383 0.000693408)
(0.0755542 -0.000938976 0.000562647)
(0.0737447 -0.000859144 0.000483485)
(0.0720898 -0.000781641 0.000439709)
(0.0705593 -0.000700514 0.000417425)
(0.0691314 -0.000620616 0.000407297)
(0.0677898 -0.000539569 0.00040467)
(0.0665214 -0.000438306 0.000413109)
(0.0653208 -0.00028811 0.000433397)
(0.0641925 -8.15438e-05 0.000471472)
(0.0631599 0.00026329 0.000491267)
(0.0623959 0.000975862 0.000440204)
(0.0611951 0.00329777 -0.000495017)
(0.0956456 0.00836005 -0.00836005)
(0.0904939 -0.00152198 0.00152207)
(0.0790683 -0.00242964 0.00242981)
(0.0713013 -0.00148754 0.00148791)
(0.0661796 -0.000830093 0.000830795)
(0.062323 -0.000562991 0.000564138)
(0.0592214 -0.000424874 0.000427374)
(0.0566857 -0.000321463 0.000325758)
(0.0545512 -0.000248991 0.000256043)
(0.0526996 -0.000195999 0.000207585)
(0.051063 -0.000155214 0.000174819)
(0.0496046 -0.000121724 0.000154181)
(0.0482924 -9.06239e-05 0.000141817)
(0.047099 -5.77385e-05 0.000137127)
(0.0460164 -1.82828e-05 0.000142092)
(0.0450546 1.45776e-05 0.000160811)
(0.0442434 0.000101032 0.00020337)
(0.0436929 0.000270824 0.000263815)
(0.0438794 0.000547616 0.00029349)
(0.0429481 0.00311024 -0.00148224)
(0.0999088 0.000712565 0.00129699)
(0.0969668 0.00274729 0.00365581)
(0.0935345 0.00211822 0.00264009)
(0.0895891 0.00162074 0.0018202)
(0.0858319 0.00139079 0.0015283)
(0.0825896 0.0011616 0.00135052)
(0.0798642 0.000897835 0.00117805)
(0.077565 0.00069342 0.00103828)
(0.0755541 0.000562661 0.000938947)
(0.0737447 0.000483503 0.000859108)
(0.0720898 0.000439732 0.000781597)
(0.0705593 0.000417455 0.00070046)
(0.0691314 0.000407325 0.000620554)
(0.0677898 0.000404699 0.000539501)
(0.0665214 0.000413144 0.000438209)
(0.0653209 0.000433417 0.00028797)
(0.0641928 0.000471443 8.13515e-05)
(0.0631604 0.000491153 -0.000263572)
(0.0623972 0.000439864 -0.000976399)
(0.0611974 -0.000495219 -0.0032984)
(0.100226 0.00072083 0.000720795)
(0.09996 0.00198279 0.00198264)
(0.0997823 0.00245203 0.00245166)
(0.0987882 0.00241995 0.00241931)
(0.0972756 0.00220135 0.00220033)
(0.0957748 0.00181242 0.00181062)
(0.0943929 0.00138391 0.00138098)
(0.0931641 0.00107264 0.0010677)
(0.0920772 0.000858247 0.000849791)
(0.0911155 0.000709012 0.000694446)
(0.0902637 0.000602447 0.000576339)
(0.0894982 0.00052591 0.000483132)
(0.0888006 0.000474803 0.000409737)
(0.0881722 0.000442437 0.000344704)
(0.0876133 0.000425075 0.000266587)
(0.0871252 0.000425052 0.000158472)
(0.0867112 0.00043835 -3.83347e-06)
(0.086362 0.000442765 -0.000281617)
(0.085941 0.000301574 -0.000828438)
(0.0857566 -0.000355351 -0.00185751)
(0.10014 0.000775031 0.000869223)
(0.100454 0.00196244 0.00196346)
(0.100911 0.00242759 0.00233426)
(0.100978 0.00252674 0.00244087)
(0.100694 0.00242655 0.00233621)
(0.100225 0.00219797 0.00211177)
(0.0997102 0.00191741 0.00182219)
(0.099186 0.00166683 0.00157369)
(0.0986929 0.00146451 0.0013868)
(0.0982486 0.00129907 0.00124522)
(0.0978605 0.00116303 0.001139)
(0.0975265 0.00105179 0.00105995)
(0.0972439 0.000960126 0.000997079)
(0.0970123 0.000882635 0.000940902)
(0.0968335 0.000812735 0.000884452)
(0.09671 0.000739909 0.000812353)
(0.0966416 0.000649804 0.000699622)
(0.0966185 0.000520823 0.00050996)
(0.0965761 0.000315169 0.000227506)
(0.0966857 -7.27912e-05 -0.000119826)
(0.100093 0.000445918 0.00076319)
(0.100504 0.00119446 0.00174899)
(0.101105 0.00158674 0.00212947)
(0.101635 0.00174028 0.00223445)
(0.10198 0.00178203 0.00228669)
(0.102173 0.00172865 0.00223547)
(0.102254 0.00160745 0.00211531)
(0.10228 0.0014592 0.00196383)
(0.102284 0.00130333 0.00180125)
(0.102279 0.00115338 0.00165156)
(0.102277 0.00102286 0.00154191)
(0.102285 0.000909635 0.00146381)
(0.102304 0.000807339 0.00140733)
(0.102337 0.00070788 0.00136618)
(0.102386 0.000601211 0.00133457)
(0.102455 0.000479057 0.00130577)
(0.10254 0.000327852 0.00127176)
(0.102639 0.000131378 0.00122695)
(0.102732 -0.000124995 0.00118007)
(0.102918 -0.000429575 0.00119909)
(0.100087 0.000144354 0.000707006)
(0.100477 0.000390395 0.00161776)
(0.101066 0.000540937 0.00203462)
(0.101694 0.000609844 0.00211756)
(0.102269 0.000635434 0.00215005)
(0.102742 0.000625778 0.00217965)
(0.103125 0.000593082 0.00213398)
(0.103429 0.000546452 0.00204433)
(0.103682 0.00049906 0.00193558)
(0.103901 0.00045275 0.00183081)
(0.104099 0.000403369 0.00173427)
(0.104288 0.000350557 0.00165071)
(0.10447 0.000296113 0.00159616)
(0.104638 0.000235721 0.00157304)
(0.104793 0.000161325 0.00157104)
(0.104938 6.78123e-05 0.00158648)
(0.105066 -5.56228e-05 0.00162553)
(0.105176 -0.000221482 0.00169406)
(0.105263 -0.000439862 0.00179191)
(0.105472 -0.000683235 0.00192196)
(0.100087 -0.000144421 0.000707013)
(0.100477 -0.000390595 0.00161777)
(0.101066 -0.000541286 0.00203461)
(0.101694 -0.000610458 0.00211765)
(0.102269 -0.000636572 0.00215039)
(0.102741 -0.000627786 0.00218028)
(0.103123 -0.000596392 0.00213499)
(0.103426 -0.000551914 0.0020459)
(0.103677 -0.000508356 0.00193798)
(0.103893 -0.00046877 0.00183474)
(0.104086 -0.000430426 0.00174065)
(0.104268 -0.000395243 0.0016619)
(0.104436 -0.000367313 0.00161626)
(0.104579 -0.000348034 0.00160706)
(0.1047 -0.000339779 0.00162456)
(0.104797 -0.000347338 0.00167485)
(0.104861 -0.000375514 0.00177414)
(0.104887 -0.000428541 0.00193438)
(0.104886 -0.000512017 0.00214524)
(0.105104 -0.000620616 0.002334)
(0.100093 -0.000445924 0.000763205)
(0.100504 -0.00119447 0.00174903)
(0.101105 -0.00158678 0.00212963)
(0.101634 -0.00174042 0.00223501)
(0.101979 -0.00178228 0.00228779)
(0.10217 -0.00172904 0.00223706)
(0.102251 -0.0016082 0.00211771)
(0.102273 -0.00146053 0.00196752)
(0.102273 -0.0013054 0.00180682)
(0.102262 -0.0011573 0.0016605)
(0.102249 -0.00102959 0.00155758)
(0.102238 -0.000920541 0.00149059)
(0.102226 -0.000822308 0.00145264)
(0.102211 -0.000730787 0.00144263)
(0.102189 -0.000640375 0.00146394)
(0.102151 -0.000548418 0.00152495)
(0.102087 -0.000449894 0.00164363)
(0.101991 -0.000337744 0.00184543)
(0.101886 -0.000205627 0.00213538)
(0.102066 -7.94337e-05 0.00242917)
(0.10014 -0.000774992 0.000869271)
(0.100454 -0.00196233 0.00196366)
(0.100911 -0.00242738 0.00233474)
(0.100978 -0.00252629 0.00244168)
(0.100693 -0.00242578 0.0023374)
(0.100224 -0.00219663 0.00211337)
(0.0997076 -0.00191531 0.0018247)
(0.0991813 -0.00166365 0.00157813)
(0.0986849 -0.00145903 0.0013944)
(0.0982347 -0.00128953 0.0012579)
(0.0978368 -0.00114764 0.00116032)
(0.0974867 -0.0010262 0.00109528)
(0.0971798 -0.000916908 0.00105511)
(0.096912 -0.000809452 0.001035)
(0.0966769 -0.000695554 0.00103788)
(0.0964676 -0.000563918 0.00106813)
(0.096276 -0.00039581 0.00113308)
(0.0960887 -0.000169389 0.00124473)
(0.0958959 0.000136989 0.00140307)
(0.0960552 0.000480596 0.00155108)
(0.100226 -0.000720795 0.00072083)
(0.09996 -0.00198264 0.00198279)
(0.0997823 -0.00245167 0.00245203)
(0.0987882 -0.00241931 0.00241995)
(0.0972756 -0.00220034 0.00220134)
(0.0957748 -0.00181063 0.00181241)
(0.0943929 -0.00138099 0.00138389)
(0.0931641 -0.00106772 0.00107262)
(0.0920772 -0.000849818 0.000858223)
(0.0911155 -0.000694478 0.000708983)
(0.0902637 -0.000576381 0.000602411)
(0.0894982 -0.000483182 0.000525867)
(0.0888006 -0.000409771 0.000474729)
(0.0881721 -0.000344774 0.000442389)
(0.0876132 -0.000266714 0.000425065)
(0.087125 -0.000158627 0.000425038)
(0.0867109 3.60661e-06 0.000438397)
(0.0863615 0.000281265 0.000442908)
(0.0859399 0.000827907 0.000301912)
(0.0857553 0.00185669 -0.00035519)
(0.0999088 -0.000712546 0.00129701)
(0.0969669 -0.00274719 0.00365596)
(0.0935346 -0.00211801 0.00264033)
(0.0895894 -0.00162034 0.00182064)
(0.0858324 -0.00139023 0.00152921)
(0.0825905 -0.00116057 0.00135194)
(0.079866 -0.000896105 0.00118065)
(0.0775683 -0.000690641 0.00104278)
(0.0755599 -0.000558032 0.000946679)
(0.0737547 -0.000475708 0.000872396)
(0.0721079 -0.000424763 0.000804368)
(0.0705921 -0.000391613 0.000738267)
(0.0691891 -0.00037127 0.000681728)
(0.0678861 -0.000362596 0.000640668)
(0.0666809 -0.000352093 0.000611105)
(0.0655929 -0.000313691 0.000590383)
(0.0646848 -0.000236828 0.000556336)
(0.064122 -8.13843e-06 0.000464322)
(0.0643996 0.000334868 0.000375009)
(0.0623001 0.000733769 -6.13423e-05)
(0.099413 0.000270232 0.000345222)
(0.0988664 0.00187492 0.00201899)
(0.0979214 0.00218907 0.00257301)
(0.0963657 0.00190849 0.00237967)
(0.094633 0.00162681 0.00211382)
(0.0929715 0.00141886 0.00192631)
(0.0913626 0.00127162 0.00180078)
(0.0898512 0.00116077 0.00170431)
(0.0884498 0.00107116 0.00160293)
(0.0871498 0.00100051 0.00149117)
(0.0859427 0.000954188 0.00137839)
(0.0848117 0.000930422 0.00127051)
(0.0837355 0.000925306 0.00116579)
(0.0826962 0.000936216 0.00105818)
(0.0816768 0.000964542 0.000940052)
(0.0806563 0.00101639 0.000800508)
(0.0796012 0.00110698 0.000627167)
(0.0784362 0.00125718 0.000355806)
(0.0770636 0.00150221 -0.0001237)
(0.0755838 0.00279303 -0.000622552)
(0.10014 0.000869272 0.000774991)
(0.100454 0.00196367 0.00196232)
(0.100911 0.00233475 0.00242737)
(0.100978 0.00244169 0.00252629)
(0.100693 0.00233741 0.00242577)
(0.100224 0.00211338 0.00219662)
(0.0997076 0.00182471 0.00191529)
(0.0991813 0.00157815 0.00166363)
(0.0986849 0.00139442 0.001459)
(0.0982347 0.00125792 0.00128949)
(0.0978368 0.00116035 0.0011476)
(0.0974867 0.00109531 0.00102615)
(0.0971799 0.00105516 0.000916854)
(0.096912 0.00103502 0.000809354)
(0.096677 0.00103787 0.000695407)
(0.0964677 0.00106809 0.000563725)
(0.0962761 0.00113294 0.000395511)
(0.0960889 0.00124439 0.000168898)
(0.095896 0.00140246 -0.000137728)
(0.0960551 0.00155096 -0.000480901)
(0.10006 0.000641429 0.000641363)
(0.100502 0.00164515 0.00164495)
(0.101149 0.00221263 0.00221223)
(0.101738 0.00244038 0.00243969)
(0.102205 0.00244262 0.0024415)
(0.102501 0.00231458 0.00231283)
(0.102645 0.00209429 0.00209139)
(0.102715 0.00187185 0.00186722)
(0.102741 0.00167571 0.00166814)
(0.102755 0.00151238 0.00149999)
(0.102776 0.00137881 0.00135864)
(0.102811 0.00127143 0.00123887)
(0.102868 0.00118721 0.0011349)
(0.102948 0.0011232 0.00103969)
(0.103052 0.00107693 0.000945208)
(0.103181 0.00104635 0.00084192)
(0.10333 0.00102945 0.000718859)
(0.103492 0.00102099 0.000565467)
(0.103662 0.00100381 0.000379463)
(0.103994 0.000967639 0.00023172)
(0.100046 0.000395724 0.000540217)
(0.10048 0.00104488 0.00138402)
(0.101154 0.0014754 0.00192282)
(0.101913 0.00170529 0.0021923)
(0.102632 0.0017802 0.00229365)
(0.103302 0.00174505 0.00227761)
(0.103895 0.0016346 0.00218467)
(0.104391 0.00149217 0.00205109)
(0.10482 0.00134603 0.00190287)
(0.105199 0.00121121 0.00176259)
(0.105545 0.00109242 0.00163871)
(0.10587 0.000989939 0.00153261)
(0.106185 0.000901077 0.00144297)
(0.106498 0.000822157 0.00136689)
(0.106813 0.000750325 0.00130028)
(0.107136 0.00068227 0.00123801)
(0.107467 0.000613102 0.00117618)
(0.107808 0.000537781 0.00111327)
(0.108165 0.00044856 0.00105367)
(0.108621 0.000342202 0.00103288)
(0.100039 0.000131311 0.000478756)
(0.100448 0.000350437 0.00123474)
(0.101114 0.000504973 0.00174642)
(0.101909 0.000597014 0.00202672)
(0.102729 0.000638297 0.00215193)
(0.103529 0.000637787 0.00218621)
(0.104298 0.00060374 0.00215299)
(0.105008 0.000557981 0.00207909)
(0.105644 0.000508045 0.00198057)
(0.106218 0.000458556 0.00187372)
(0.106741 0.000411955 0.00177051)
(0.107225 0.000368548 0.0016789)
(0.107677 0.000327391 0.00160486)
(0.108111 0.00028597 0.00155055)
(0.108533 0.000241668 0.00151479)
(0.108943 0.000191899 0.00149629)
(0.109343 0.000133526 0.00149618)
(0.109738 6.24644e-05 0.00151613)
(0.110144 -2.23943e-05 0.00155316)
(0.110636 -0.000106242 0.0016035)
(0.100039 -0.000131356 0.000478778)
(0.100448 -0.000350555 0.00123481)
(0.101114 -0.000505184 0.00174655)
(0.101909 -0.000597366 0.00202695)
(0.102728 -0.000638896 0.00215238)
(0.103529 -0.000638764 0.00218695)
(0.104297 -0.000605395 0.00215413)
(0.105006 -0.000560661 0.00208083)
(0.105641 -0.000512462 0.00198328)
(0.106213 -0.000465895 0.00187812)
(0.106733 -0.000423973 0.00177783)
(0.107212 -0.000387706 0.00169125)
(0.107659 -0.000356939 0.00162548)
(0.108085 -0.000330891 0.00158371)
(0.108494 -0.0003097 0.00156596)
(0.108886 -0.000295662 0.00157416)
(0.109263 -0.000288825 0.00161388)
(0.109633 -0.000288168 0.00168883)
(0.110021 -0.000290046 0.00178648)
(0.110529 -0.000289505 0.00187379)
(0.100046 -0.000395704 0.000540274)
(0.10048 -0.00104482 0.00138419)
(0.101154 -0.00147529 0.00192315)
(0.101913 -0.00170516 0.00219292)
(0.102631 -0.00177993 0.00229469)
(0.103301 -0.00174459 0.00227931)
(0.103893 -0.00163381 0.00218733)
(0.104388 -0.00149093 0.00205545)
(0.104815 -0.00134403 0.00190964)
(0.105191 -0.00120826 0.00177325)
(0.105532 -0.00108799 0.00165607)
(0.10585 -0.000983068 0.00156078)
(0.106154 -0.000889567 0.00148907)
(0.10645 -0.000803423 0.00144142)
(0.106742 -0.000722676 0.00141848)
(0.107032 -0.00064315 0.00142332)
(0.107323 -0.000560345 0.00146072)
(0.107622 -0.000470129 0.00153325)
(0.107953 -0.000373019 0.00162767)
(0.108417 -0.000293445 0.00170254)
(0.10006 -0.000641364 0.000641428)
(0.100502 -0.00164495 0.00164515)
(0.101149 -0.00221223 0.00221263)
(0.101738 -0.0024397 0.00244038)
(0.102205 -0.00244151 0.00244261)
(0.102501 -0.00231284 0.00231457)
(0.102645 -0.00209141 0.00209427)
(0.102715 -0.00186724 0.00187184)
(0.102741 -0.00166816 0.00167569)
(0.102755 -0.00150002 0.00151236)
(0.102776 -0.00135868 0.00137878)
(0.102811 -0.00123892 0.0012714)
(0.102868 -0.00113497 0.00118718)
(0.102948 -0.00103978 0.00112318)
(0.103052 -0.000945341 0.00107693)
(0.103181 -0.000842105 0.00104638)
(0.10333 -0.000719128 0.00102954)
(0.103492 -0.000565848 0.00102116)
(0.103663 -0.000379916 0.00100401)
(0.103995 -0.000231848 0.000967392)
(0.10014 -0.000869224 0.00077503)
(0.100454 -0.00196346 0.00196244)
(0.100911 -0.00233427 0.00242759)
(0.100978 -0.00244088 0.00252674)
(0.100694 -0.00233622 0.00242654)
(0.100225 -0.00211178 0.00219796)
(0.0997102 -0.0018222 0.0019174)
(0.099186 -0.00157371 0.00166681)
(0.0986929 -0.00138682 0.00146449)
(0.0982486 -0.00124525 0.00129904)
(0.0978605 -0.00113903 0.00116299)
(0.0975265 -0.00105999 0.00105175)
(0.0972439 -0.000997133 0.000960085)
(0.0970122 -0.000940984 0.000882598)
(0.0968334 -0.000884564 0.000812707)
(0.0967099 -0.000812513 0.000739906)
(0.0966415 -0.000699874 0.000649863)
(0.0966183 -0.000510368 0.000521004)
(0.096576 -0.000228089 0.000315491)
(0.0966858 0.000119192 -7.24669e-05)
(0.099413 -0.000270224 0.000345241)
(0.0988664 -0.00187484 0.00201908)
(0.0979217 -0.00218882 0.0025732)
(0.0963664 -0.00190808 0.00238001)
(0.0946344 -0.00162623 0.00211435)
(0.092974 -0.00141802 0.00192719)
(0.0913672 -0.00127023 0.00180208)
(0.0898592 -0.00115842 0.00170643)
(0.0884636 -0.00106735 0.00160652)
(0.087173 -0.000994183 0.00149712)
(0.0859818 -0.000944131 0.00138826)
(0.084878 -0.00091292 0.00128645)
(0.0838468 -0.000894904 0.00119063)
(0.0828823 -0.000883901 0.00109554)
(0.0819883 -0.000872602 0.000994558)
(0.0811871 -0.000845507 0.000874806)
(0.080526 -0.000789251 0.000713921)
(0.080068 -0.0006336 0.000451062)
(0.0799143 -0.000356539 -9.87843e-05)
(0.079257 0.00026953 -0.00154206)
(0.0995405 0.000321897 0.000245041)
(0.0992576 0.00154092 0.0010556)
(0.0988488 0.0021145 0.00150231)
(0.0981246 0.00209173 0.00157936)
(0.0973364 0.00188634 0.00151476)
(0.096584 0.00166626 0.00144634)
(0.0958637 0.00149857 0.00140994)
(0.0951946 0.00137258 0.00137855)
(0.0945632 0.00128713 0.00133263)
(0.0939132 0.00123422 0.00126076)
(0.0932764 0.00120104 0.00116964)
(0.0926478 0.00118531 0.0010714)
(0.0920137 0.00118517 0.000976128)
(0.0913584 0.00120242 0.000887363)
(0.0906602 0.00124298 0.000802874)
(0.0898839 0.0013188 0.000717644)
(0.0889724 0.00145191 0.000636065)
(0.087812 0.00169455 0.000570237)
(0.0862693 0.00203224 0.000512229)
(0.0844222 0.00266264 0.000669071)
(0.100093 0.000763206 0.000445924)
(0.100504 0.00174904 0.00119447)
(0.101105 0.00212963 0.00158678)
(0.101634 0.00223502 0.00174041)
(0.101979 0.00228779 0.00178227)
(0.10217 0.00223707 0.00172903)
(0.102251 0.00211773 0.00160818)
(0.102273 0.00196753 0.00146051)
(0.102273 0.00180683 0.00130537)
(0.102262 0.00166052 0.00115727)
(0.102249 0.0015576 0.00102954)
(0.102238 0.00149061 0.000920489)
(0.102226 0.00145266 0.000822243)
(0.102211 0.00144263 0.000730691)
(0.102189 0.00146391 0.000640241)
(0.102151 0.00152488 0.000548245)
(0.102087 0.00164348 0.000449653)
(0.101991 0.00184512 0.000337395)
(0.101886 0.00213481 0.000205131)
(0.102065 0.00242849 7.89318e-05)
(0.100046 0.000540275 0.000395703)
(0.10048 0.0013842 0.00104482)
(0.101154 0.00192316 0.00147529)
(0.101913 0.00219292 0.00170515)
(0.102631 0.0022947 0.00177993)
(0.103301 0.00227932 0.00174458)
(0.103893 0.00218734 0.0016338)
(0.104388 0.00205547 0.00149091)
(0.104815 0.00190966 0.00134401)
(0.105191 0.00177327 0.00120823)
(0.105532 0.00165609 0.00108795)
(0.10585 0.0015608 0.000983018)
(0.106154 0.00148909 0.000889503)
(0.10645 0.00144142 0.000803336)
(0.106742 0.00141847 0.000722563)
(0.107032 0.00142329 0.000643012)
(0.107323 0.00146066 0.000560181)
(0.107621 0.00153315 0.000469946)
(0.107953 0.00162758 0.000372868)
(0.108416 0.00170268 0.000293489)
(0.100036 0.000323166 0.000323121)
(0.100429 0.000868737 0.000868608)
(0.10108 0.00126251 0.00126227)
(0.101891 0.00150457 0.00150416)
(0.102756 0.00162189 0.00162123)
(0.103616 0.00164326 0.00164223)
(0.104446 0.00160547 0.00160392)
(0.105223 0.00152767 0.00152523)
(0.105938 0.00142893 0.00142515)
(0.106594 0.00132532 0.0013194)
(0.107198 0.0012276 0.00121825)
(0.107762 0.00114113 0.00112635)
(0.108293 0.001068 0.0010447)
(0.108801 0.00100878 0.000972409)
(0.109294 0.000963469 0.000907802)
(0.109777 0.000931799 0.000848813)
(0.110259 0.000913093 0.000793541)
(0.110747 0.00090464 0.000740866)
(0.111257 0.00089784 0.000692751)
(0.111841 0.000873544 0.0006665)
(0.100031 0.000107077 0.00028137)
(0.100395 0.000293049 0.000768595)
(0.101024 0.00043409 0.00113301)
(0.101844 0.000526248 0.0013691)
(0.102751 0.000576388 0.00150128)
(0.103689 0.000591817 0.00155403)
(0.104618 0.000582458 0.00154902)
(0.105516 0.000557856 0.00150807)
(0.106367 0.00052422 0.00144439)
(0.107164 0.000487085 0.00136823)
(0.107907 0.000450739 0.00128826)
(0.108601 0.00041759 0.0012111)
(0.109252 0.000388604 0.00114138)
(0.10987 0.000363541 0.00108209)
(0.110463 0.000340843 0.00103552)
(0.111039 0.000318948 0.00100257)
(0.111604 0.000297019 0.000982505)
(0.112166 0.000273835 0.000973459)
(0.112741 0.000248415 0.000972229)
(0.113372 0.000220877 0.000977897)
(0.100031 -0.00010708 0.000281391)
(0.100395 -0.000293051 0.000768659)
(0.101024 -0.000434087 0.00113313)
(0.101843 -0.000526241 0.00136933)
(0.102751 -0.00057637 0.00150167)
(0.103688 -0.000591771 0.00155462)
(0.104617 -0.00058238 0.00154986)
(0.105515 -0.000557812 0.00150932)
(0.106366 -0.000524299 0.0014463)
(0.107163 -0.000487364 0.00137122)
(0.107905 -0.000451233 0.00129295)
(0.108597 -0.000418174 0.00121845)
(0.109247 -0.000388915 0.00115283)
(0.109864 -0.000363137 0.00109987)
(0.110454 -0.000339901 0.00106303)
(0.111027 -0.000319211 0.00104389)
(0.111587 -0.000301227 0.00104229)
(0.112143 -0.000285854 0.00105512)
(0.112715 -0.000272665 0.00107442)
(0.113354 -0.000264132 0.00108313)
(0.100036 -0.000323122 0.000323165)
(0.100429 -0.000868611 0.000868734)
(0.10108 -0.00126228 0.00126251)
(0.101891 -0.00150417 0.00150456)
(0.102756 -0.00162124 0.00162189)
(0.103616 -0.00164224 0.00164325)
(0.104446 -0.00160393 0.00160546)
(0.105223 -0.00152525 0.00152765)
(0.105938 -0.00142517 0.00142892)
(0.106594 -0.00131943 0.0013253)
(0.107198 -0.00121828 0.00122758)
(0.107762 -0.00112639 0.0011411)
(0.108293 -0.00104475 0.00106798)
(0.108802 -0.000972481 0.00100876)
(0.109294 -0.000907888 0.000963442)
(0.109777 -0.000848911 0.000931765)
(0.110259 -0.000793648 0.000913044)
(0.110747 -0.000740969 0.000904558)
(0.111257 -0.000692815 0.000897682)
(0.111841 -0.000666463 0.00087323)
(0.100046 -0.000540218 0.000395723)
(0.10048 -0.00138402 0.00104488)
(0.101154 -0.00192282 0.00147539)
(0.101913 -0.00219231 0.00170529)
(0.102632 -0.00229366 0.00178019)
(0.103302 -0.00227762 0.00174504)
(0.103895 -0.00218468 0.00163458)
(0.104391 -0.00205111 0.00149215)
(0.10482 -0.0019029 0.00134602)
(0.105199 -0.00176261 0.00121119)
(0.105545 -0.00163874 0.0010924)
(0.10587 -0.00153265 0.00098991)
(0.106185 -0.00144303 0.000901046)
(0.106498 -0.00136697 0.000822128)
(0.106813 -0.00130038 0.000750301)
(0.107136 -0.00123816 0.000682251)
(0.107467 -0.00117638 0.000613085)
(0.107808 -0.00111354 0.000537757)
(0.108165 -0.00105399 0.000448491)
(0.108622 -0.00103318 0.000341975)
(0.100093 -0.000763191 0.000445917)
(0.100504 -0.00174899 0.00119445)
(0.101105 -0.00212947 0.00158673)
(0.101635 -0.00223446 0.00174028)
(0.10198 -0.0022867 0.00178202)
(0.102173 -0.00223547 0.00172864)
(0.102254 -0.00211532 0.00160743)
(0.10228 -0.00196384 0.00145918)
(0.102283 -0.00180127 0.00130331)
(0.102279 -0.00165158 0.00115336)
(0.102277 -0.00154194 0.00102284)
(0.102285 -0.00146385 0.000909605)
(0.102304 -0.00140738 0.000807308)
(0.102337 -0.00136624 0.00070785)
(0.102386 -0.00133465 0.000601184)
(0.102454 -0.00130591 0.000479039)
(0.10254 -0.00127198 0.000327854)
(0.102638 -0.0012273 0.000131414)
(0.102732 -0.00118058 -0.000124923)
(0.102918 -0.00119953 -0.000429591)
(0.0995405 -0.000321896 0.000245025)
(0.0992577 -0.00154091 0.00105553)
(0.0988491 -0.00211438 0.00150216)
(0.0981253 -0.00209152 0.0015791)
(0.0973378 -0.00188601 0.00151416)
(0.0965868 -0.00166575 0.00144514)
(0.0958685 -0.00149795 0.00140781)
(0.0952028 -0.00137153 0.00137505)
(0.0945774 -0.00128475 0.00132655)
(0.0939376 -0.00122902 0.00125103)
(0.0933177 -0.00119118 0.00115433)
(0.0927178 -0.001167 0.00104711)
(0.0921316 -0.00115422 0.000935773)
(0.0915569 -0.00114978 0.000819374)
(0.0909934 -0.0011483 0.000690545)
(0.0904428 -0.00114262 0.000522458)
(0.0899113 -0.0011259 0.000291839)
(0.0894083 -0.00109526 -4.67934e-05)
(0.0889164 -0.0010648 -0.000544795)
(0.0882939 -0.0010925 -0.00129432)
(0.0993802 5.89948e-05 3.37901e-05)
(0.0992677 0.00120004 0.000274456)
(0.0989804 0.00188846 0.000432506)
(0.0984746 0.00200645 0.000483679)
(0.0979955 0.0019147 0.000479187)
(0.0975706 0.00173485 0.000466085)
(0.0971804 0.00154749 0.000453803)
(0.0968298 0.001389 0.000443927)
(0.0965281 0.00127104 0.000438823)
(0.0962706 0.00120154 0.000432664)
(0.0959911 0.00117614 0.000418328)
(0.0956881 0.00117744 0.000399143)
(0.0953565 0.00119297 0.000382109)
(0.0949777 0.00122361 0.000374965)
(0.0945361 0.00127972 0.000389538)
(0.0940094 0.00136759 0.000432992)
(0.0933656 0.00149933 0.000534651)
(0.0925623 0.00169776 0.000686623)
(0.091522 0.00197001 0.00100131)
(0.0904005 0.00223868 0.0016868)
(0.100087 0.000707014 0.00014442)
(0.100477 0.00161777 0.000390593)
(0.101066 0.00203462 0.000541282)
(0.101694 0.00211765 0.000610452)
(0.102269 0.00215039 0.000636563)
(0.102741 0.00218029 0.000627774)
(0.103123 0.002135 0.000596376)
(0.103426 0.00204591 0.000551894)
(0.103677 0.00193799 0.000508332)
(0.103893 0.00183475 0.000468739)
(0.104086 0.00174066 0.000430387)
(0.104268 0.0016619 0.000395193)
(0.104436 0.00161626 0.000367251)
(0.104579 0.00160705 0.000347953)
(0.1047 0.00162454 0.000339675)
(0.104797 0.00167481 0.000347212)
(0.104861 0.00177406 0.000375366)
(0.104886 0.00193423 0.000428379)
(0.104886 0.00214495 0.000511876)
(0.105103 0.00233346 0.000620597)
(0.100039 0.000478779 0.000131355)