/*--------------------------------*- C++ -*----------------------------------*\
| =========                 |                                                 |
| \\      /  F ield         | OpenFOAM: The Open Source CFD Toolbox           |
|  \\    /   O peration     | Version:  2212                                  |
|   \\  /    A nd           | Website:  www.openfoam.com                      |
|    \\/     M anipulation  |                                                 |
\*---------------------------------------------------------------------------*/
FoamFile
{
    version     2.0;
    format      ascii;
    arch        "LSB;label=32;scalar=64";
    class       volScalarField;
    location    "2.35";
    object      epsilon;
}
// * * * * * * * * * * * * * * * * * * * * * * * * * * * * * * * * * * * * * //

dimensions      [0 2 -3 0 0 0 0];

internalField   nonuniform List<scalar> 
680
(
0.720677
0.594607
0.502531
0.432718
0.379342
0.336403
0.300038
0.740296
0.565918
0.443942
0.356043
0.290957
0.241453
0.20304
0.649779
0.497013
0.389478
0.311287
0.252974
0.208977
0.17521
0.645378
0.492584
0.38477
0.307008
0.249023
0.204948
0.170944
0.643978
0.492243
0.383956
0.305784
0.247904
0.203899
0.169918
0.643981
0.492248
0.383962
0.305794
0.247917
0.203919
0.169949
0.645386
0.492594
0.384783
0.307029
0.249051
0.20499
0.649786
0.497023
0.389495
0.311309
0.253004
0.20902
0.740299
0.56592
0.443948
0.356052
0.290972
0.241475
0.720677
0.594607
0.50253
0.432718
0.379339
0.336403
0.740299
0.565921
0.443949
0.356053
0.290973
0.241477
0.20309
0.562048
0.415366
0.315946
0.24633
0.19622
0.159216
0.131245
0.618629
0.453957
0.342031
0.263647
0.207307
0.165897
0.134839
0.666457
0.489543
0.368592
0.2836
0.222382
0.177321
0.14352
0.692723
0.509637
0.384016
0.295503
0.231647
0.184592
0.149262
0.692726
0.509643
0.384023
0.295512
0.231657
0.184604
0.149273
0.666464
0.489554
0.368606
0.283618
0.222403
0.177345
0.618633
0.453965
0.342042
0.26366
0.207324
0.165916
0.562047
0.415366
0.315946
0.24633
0.19622
0.159216
0.740296
0.565917
0.443941
0.356042
0.290956
0.241452
0.649786
0.497023
0.389495
0.311309
0.253004
0.209018
0.175273
0.618634
0.453965
0.342042
0.26366
0.207324
0.165917
0.134864
0.725634
0.532156
0.399149
0.305546
0.238222
0.188824
0.151913
0.804587
0.594203
0.447515
0.343208
0.26763
0.211895
0.170116
0.843156
0.62569
0.472848
0.363482
0.283851
0.224903
0.180587
0.843156
0.625692
0.472851
0.363486
0.283855
0.224908
0.180589
0.804588
0.594206
0.44752
0.343214
0.267637
0.211901
0.725634
0.532155
0.399149
0.305546
0.238222
0.188824
0.618629
0.453957
0.342031
0.263647
0.207308
0.165898
0.649778
0.497013
0.389477
0.311287
0.252973
0.208974
0.645386
0.492594
0.384783
0.307029
0.249051
0.204988
0.171006
0.666464
0.489554
0.368606
0.283618
0.222404
0.177348
0.143549
0.804589
0.594206
0.44752
0.343214
0.267637
0.211903
0.170122
0.896487
0.669456
0.508122
0.391656
0.306285
0.242784
0.194886
0.938712
0.705583
0.538335
0.416593
0.326728
0.259498
0.208556
0.938712
0.705584
0.538336
0.416594
0.326728
0.259499
0.208557
0.896486
0.669456
0.508122
0.391656
0.306285
0.242784
0.804587
0.594203
0.447515
0.343208
0.267631
0.211897
0.666457
0.489543
0.368592
0.283601
0.222383
0.177323
0.645378
0.492584
0.38477
0.307008
0.249023
0.204946
0.643982
0.492249
0.383962
0.305794
0.247917
0.203918
0.169948
0.692726
0.509643
0.384023
0.295512
0.231658
0.184605
0.149276
0.843157
0.625692
0.472851
0.363486
0.283856
0.224909
0.180591
0.938712
0.705584
0.538336
0.416594
0.326729
0.259499
0.208557
0.981305
0.742925
0.57021
0.44335
0.348968
0.277888
0.223735
0.981305
0.742924
0.57021
0.44335
0.348968
0.277888
0.223735
0.938712
0.705583
0.538335
0.416593
0.326728
0.259499
0.843156
0.62569
0.472848
0.363483
0.283852
0.224905
0.692723
0.509637
0.384016
0.295503
0.231647
0.184593
0.643978
0.492243
0.383956
0.305784
0.247904
0.203899
0.643978
0.492244
0.383956
0.305784
0.247904
0.203899
0.169917
0.692723
0.509638
0.384016
0.295504
0.231648
0.184592
0.149263
0.843156
0.62569
0.472848
0.363483
0.283852
0.224904
0.180587
0.938712
0.705584
0.538335
0.416593
0.326728
0.259498
0.208556
0.981305
0.742925
0.57021
0.44335
0.348968
0.277888
0.223735
0.981305
0.742924
0.57021
0.44335
0.348968
0.277888
0.223735
0.938712
0.705584
0.538336
0.416594
0.326728
0.259499
0.843156
0.625692
0.472851
0.363486
0.283855
0.224907
0.692726
0.509643
0.384023
0.295511
0.231657
0.184603
0.643982
0.492248
0.383962
0.305794
0.247918
0.20392
0.645378
0.492584
0.38477
0.307009
0.249024
0.204948
0.170944
0.666457
0.489543
0.368592
0.2836
0.222382
0.177321
0.14352
0.804587
0.594203
0.447515
0.343208
0.26763
0.211895
0.170115
0.896487
0.669456
0.508122
0.391656
0.306285
0.242783
0.194886
0.938712
0.705584
0.538336
0.416594
0.326728
0.259499
0.208557
1.26863
0.938712
0.705583
0.538335
0.416593
0.326728
0.259499
0.208557
1.22111
0.896487
0.669456
0.508122
0.391656
0.306285
0.242784
1.11236
0.804589
0.594206
0.44752
0.343214
0.267637
0.211901
0.933542
0.666465
0.489554
0.368606
0.283618
0.222403
0.177345
0.869479
0.645386
0.492594
0.384783
0.307029
0.249051
0.20499
0.649779
0.497013
0.389478
0.311288
0.252975
0.208977
0.175211
0.618629
0.453957
0.342031
0.263646
0.207307
0.165896
0.134838
0.725634
0.532155
0.399149
0.305545
0.238221
0.188823
0.151912
0.804588
0.594206
0.447519
0.343213
0.267637
0.211902
0.170121
0.843156
0.625692
0.472851
0.363486
0.283856
0.224908
0.180591
1.15828
0.843155
0.62569
0.472848
0.363483
0.283852
0.224904
0.180588
1.11236
0.804587
0.594202
0.447515
0.343208
0.267631
0.211897
1.0141
0.725634
0.532155
0.399149
0.305545
0.238221
0.188824
0.869291
0.618635
0.453965
0.342042
0.26366
0.207324
0.165916
0.873581
0.649786
0.497022
0.389495
0.311309
0.253004
0.20902
0.740297
0.565918
0.443942
0.356044
0.290958
0.241455
0.203042
0.562048
0.415366
0.315946
0.24633
0.196219
0.159215
0.131244
0.618633
0.453965
0.342042
0.26366
0.207324
0.165917
0.134863
0.666464
0.489554
0.368606
0.283618
0.222404
0.177348
0.143549
0.692726
0.509643
0.384023
0.295512
0.231658
0.184605
0.149277
0.967832
0.692722
0.509637
0.384016
0.295504
0.231648
0.184593
0.149264
0.933536
0.666456
0.489543
0.368592
0.2836
0.222382
0.177323
0.869287
0.618628
0.453957
0.342031
0.263646
0.207307
0.165896
0.78693
0.562048
0.415366
0.315946
0.24633
0.19622
0.159216
0.998662
0.740299
0.565921
0.443949
0.356053
0.290973
0.241477
0.720677
0.594607
0.502532
0.432719
0.379343
0.336405
0.30004
0.740299
0.565921
0.443949
0.356054
0.290974
0.241479
0.203093
0.649787
0.497023
0.389496
0.31131
0.253005
0.209019
0.175274
0.645386
0.492595
0.384784
0.307029
0.249051
0.204988
0.171006
0.643982
0.492249
0.383962
0.305794
0.247917
0.203918
0.169947
0.866496
0.643978
0.492244
0.383956
0.305784
0.247904
0.203898
0.169916
0.869472
0.645378
0.492585
0.384771
0.307009
0.249023
0.204947
0.873576
0.649779
0.497014
0.389478
0.311288
0.252974
0.208976
0.998661
0.740297
0.565918
0.443942
0.356043
0.290958
0.241455
0.902024
0.720677
0.594607
0.502531
0.432719
0.379341
0.336406
)
;

boundaryField
{
    inlet
    {
        type            fixedValue;
        value           nonuniform List<scalar> 0();
    }
    ami1
    {
        type            cyclicAMI;
        value           nonuniform List<scalar> 0();
    }
    walls
    {
        type            epsilonWallFunction;
        blending        stepwise;
        value           nonuniform List<scalar> 
271
(
0.869479
0.873581
0.998662
0.902024
0.720677
0.740296
0.649778
0.645378
0.643978
0.643982
0.645386
0.649786
0.740299
0.720677
0.594607
0.565917
0.497013
0.492584
0.492243
0.492248
0.492594
0.497022
0.565921
0.594607
0.50253
0.443941
0.389477
0.38477
0.383956
0.383962
0.384783
0.389495
0.443949
0.502531
0.432718
0.356042
0.311287
0.307008
0.305784
0.305794
0.307029
0.311309
0.356053
0.432719
0.379339
0.290956
0.252973
0.249023
0.247904
0.247918
0.249051
0.253004
0.290973
0.379341
0.336403
0.241452
0.208974
0.204946
0.203899
0.20392
0.20499
0.20902
0.241477
0.336406
0.720677
0.740296
0.649779
0.645378
0.643978
0.643981
0.645386
0.649786
0.740299
0.720677
0.594607
0.565918
0.497013
0.492584
0.492243
0.492248
0.492594
0.497023
0.56592
0.594607
0.502531
0.443942
0.389478
0.38477
0.383956
0.383962
0.384783
0.389495
0.443948
0.50253
0.432718
0.356043
0.311287
0.307008
0.305784
0.305794
0.307029
0.311309
0.356052
0.432718
0.379342
0.290957
0.252974
0.249023
0.247904
0.247917
0.249051
0.253004
0.290972
0.379339
0.336403
0.241453
0.208977
0.204948
0.203899
0.203919
0.20499
0.20902
0.241475
0.336403
0.300038
0.20304
0.17521
0.170944
0.169918
0.169949
0.720677
0.740299
0.649786
0.645386
0.643982
0.643978
0.645378
0.649779
0.740297
0.720677
0.594607
0.565921
0.497023
0.492594
0.492249
0.492244
0.492584
0.497013
0.565918
0.594607
0.502531
0.443949
0.389495
0.384783
0.383962
0.383956
0.38477
0.389478
0.443942
0.502532
0.432718
0.356053
0.311309
0.307029
0.305794
0.305784
0.307009
0.311288
0.356044
0.432719
0.379342
0.290973
0.253004
0.249051
0.247917
0.247904
0.249024
0.252975
0.290958
0.379343
0.336403
0.241477
0.209018
0.204988
0.203918
0.203899
0.204948
0.208977
0.241455
0.336405
0.300038
0.20309
0.175273
0.171006
0.169948
0.169917
0.170944
0.175211
0.203042
0.30004
0.866496
0.869472
0.873576
0.998661
0.902024
0.720677
0.740299
0.649787
0.645386
0.643982
0.643978
0.645378
0.649779
0.740297
0.720677
0.594607
0.565921
0.497023
0.492595
0.492249
0.492244
0.492585
0.497014
0.565918
0.594607
0.502532
0.443949
0.389496
0.384784
0.383962
0.383956
0.384771
0.389478
0.443942
0.502531
0.432719
0.356054
0.31131
0.307029
0.305794
0.305784
0.307009
0.311288
0.356043
0.432719
0.379343
0.290974
0.253005
0.249051
0.247917
0.247904
0.249023
0.252974
0.290958
0.379341
0.336405
0.241479
0.209019
0.204988
0.203918
0.203898
0.204947
0.208976
0.241455
0.336406
0.30004
0.203093
0.175274
0.171006
0.169947
0.169916
)
;
    }
    ami2
    {
        type            cyclicAMI;
        value           nonuniform List<scalar> 0();
    }
    outlet
    {
        type            zeroGradient;
    }
    procBoundary3to2
    {
        type            processor;
        value           nonuniform List<scalar> 
110
(
0.270452
0.17317
0.148813
0.144334
0.14329
0.143339
0.17101
0.17101
0.175275
0.203092
0.300035
0.173243
0.109752
0.111132
0.11774
0.122295
0.122305
0.143543
0.143543
0.134855
0.131236
0.203037
0.148914
0.111149
0.123869
0.13832
0.146789
0.14679
0.17012
0.17012
0.151911
0.134841
0.175206
0.144433
0.117759
0.138323
0.158279
0.169484
0.169483
0.194886
0.194886
0.170117
0.143526
0.17094
0.143338
0.122305
0.14679
0.169483
0.182018
0.182018
0.208556
0.208556
0.180589
0.149268
0.169917
0.14329
0.122295
0.146789
0.169484
0.182018
0.182018
0.208556
0.208556
0.18059
0.149276
0.16995
0.144334
0.11774
0.138321
0.158279
0.169483
0.169483
0.194886
0.194886
0.17012
0.143542
0.17101
0.148814
0.111132
0.123869
0.138322
0.14679
0.146789
0.170118
0.170118
0.151912
0.134855
0.175276
0.173171
0.109752
0.111149
0.117758
0.122305
0.122295
0.143527
0.143527
0.134841
0.131236
0.203093
0.270454
0.173245
0.148915
0.144433
0.143338
0.14329
0.17094
0.17094
0.175207
0.203039
0.300038
)
;
    }
    procBoundary3to4
    {
        type            processor;
        value           nonuniform List<scalar> 
109
(
0.902024
0.998661
0.873577
0.869473
0.866496
0.866499
0.869478
0.873581
0.998662
0.902024
0.998662
0.786931
0.869288
0.933536
0.967831
0.967834
0.933542
0.869292
0.786931
0.99866
0.873581
0.869292
1.0141
1.11236
1.15828
1.15828
1.11236
1.0141
0.869288
0.873576
0.869478
0.933542
1.11236
1.22111
1.26863
1.26863
1.22111
1.11236
0.933536
0.869473
0.866499
0.967834
1.15828
1.26863
1.31522
1.31522
1.26863
1.15828
0.967831
0.866496
0.866497
0.967831
1.15828
1.26863
1.31522
1.31522
1.31522
1.26863
1.26863
1.15828
1.15828
0.967834
0.967834
0.866499
0.866499
0.869473
0.933535
1.11236
1.22111
1.26863
1.26863
1.74299
1.6928
1.57142
1.35121
1.2275
0.873577
0.869287
1.0141
1.11236
1.15828
1.15828
1.62326
1.57142
1.45499
1.2661
1.227
0.998661
0.786931
0.869292
0.933542
0.967835
0.967835
1.39506
1.3512
1.26609
1.14759
1.40268
0.902024
0.998663
0.873581
0.869478
0.866499
0.866499
1.22669
1.2275
1.22699
1.40268
1.18308
)
;
    }
}


// ************************************************************************* //
