/*--------------------------------*- C++ -*----------------------------------*\
| =========                 |                                                 |
| \\      /  F ield         | OpenFOAM: The Open Source CFD Toolbox           |
|  \\    /   O peration     | Version:  2212                                  |
|   \\  /    A nd           | Website:  www.openfoam.com                      |
|    \\/     M anipulation  |                                                 |
\*---------------------------------------------------------------------------*/
FoamFile
{
    version     2.0;
    format      ascii;
    arch        "LSB;label=32;scalar=64";
    class       volScalarField;
    location    "1.3";
    object      nut;
}
// * * * * * * * * * * * * * * * * * * * * * * * * * * * * * * * * * * * * * //

dimensions      [0 2 -1 0 0 0 0];

internalField   nonuniform List<scalar> 
690
(
3.95696e-06
3.92179e-06
3.88701e-06
3.85338e-06
3.82076e-06
3.78926e-06
3.7588e-06
3.72974e-06
3.7007e-06
3.67244e-06
3.64562e-06
8.00573e-06
7.92308e-06
7.83542e-06
7.75425e-06
7.67354e-06
7.60048e-06
7.52877e-06
7.46165e-06
7.3967e-06
7.33223e-06
7.27259e-06
1.1802e-05
1.16657e-05
1.15125e-05
1.13752e-05
1.12423e-05
1.11238e-05
1.10086e-05
1.08969e-05
1.07946e-05
1.06788e-05
1.05765e-05
1.47994e-05
1.45743e-05
1.43651e-05
1.41683e-05
1.39836e-05
1.38122e-05
1.3647e-05
1.34733e-05
1.33194e-05
1.31709e-05
1.30298e-05
1.67229e-05
1.64398e-05
1.61751e-05
1.59284e-05
1.56998e-05
1.54839e-05
1.52797e-05
1.5087e-05
1.49086e-05
1.47352e-05
1.45555e-05
7.87508e-06
7.77332e-06
7.67791e-06
7.59018e-06
7.50266e-06
7.42347e-06
7.34524e-06
7.27234e-06
7.20279e-06
7.13533e-06
7.0739e-06
1.52501e-05
1.43848e-05
1.34958e-05
1.27928e-05
1.20782e-05
1.14962e-05
1.0908e-05
1.03927e-05
9.83167e-06
9.30754e-06
8.99003e-06
3.32665e-05
3.22867e-05
3.0262e-05
2.9271e-05
2.75223e-05
2.65981e-05
2.51402e-05
2.41665e-05
2.30716e-05
2.18443e-05
2.11132e-05
4.84249e-05
4.61324e-05
4.39948e-05
4.20081e-05
4.01004e-05
3.82815e-05
3.67975e-05
3.49116e-05
3.40471e-05
3.2261e-05
3.13357e-05
5.76355e-05
5.50287e-05
5.261e-05
5.0356e-05
4.82446e-05
4.62602e-05
4.43979e-05
4.26144e-05
4.09838e-05
3.90824e-05
3.72179e-05
1.14709e-05
1.13077e-05
1.11562e-05
1.10033e-05
1.08547e-05
1.07284e-05
1.06042e-05
1.04868e-05
1.03795e-05
1.02675e-05
1.01675e-05
3.35955e-05
3.20674e-05
3.0094e-05
2.9009e-05
2.71639e-05
2.63049e-05
2.46715e-05
2.35835e-05
2.24548e-05
2.09969e-05
2.02835e-05
6.68989e-05
6.40231e-05
6.11686e-05
5.85879e-05
5.61914e-05
5.43383e-05
5.14836e-05
4.89652e-05
4.66598e-05
4.4509e-05
4.27367e-05
9.03177e-05
8.6832e-05
8.35217e-05
8.0334e-05
7.73205e-05
7.44833e-05
7.16922e-05
6.89328e-05
6.62918e-05
6.38112e-05
6.21052e-05
0.000103577
9.98099e-05
9.62208e-05
9.27927e-05
8.95143e-05
8.63846e-05
8.33793e-05
8.04842e-05
7.7686e-05
7.4872e-05
7.24786e-05
1.44598e-05
1.4217e-05
1.39921e-05
1.37837e-05
1.35912e-05
1.34122e-05
1.3245e-05
1.3087e-05
1.29463e-05
1.27948e-05
1.26546e-05
5.00767e-05
4.79411e-05
4.5904e-05
4.40016e-05
4.21618e-05
4.04424e-05
3.87507e-05
3.7101e-05
3.56009e-05
3.39511e-05
3.26789e-05
9.1021e-05
8.77203e-05
8.45706e-05
8.15288e-05
7.86566e-05
7.59621e-05
7.32523e-05
7.05714e-05
6.79847e-05
6.53703e-05
6.33375e-05
0.000118735
0.000114808
0.000111051
0.000107433
0.000103962
0.000100629
9.73941e-05
9.42649e-05
9.12289e-05
8.82249e-05
8.57884e-05
0.000134045
0.000129781
0.000125702
0.000121792
0.000118037
0.000114423
0.000110935
0.000107556
0.000104279
0.000101023
9.82061e-05
1.65136e-05
1.62155e-05
1.59396e-05
1.56838e-05
1.54466e-05
1.52263e-05
1.50227e-05
1.4833e-05
1.46579e-05
1.44903e-05
1.43273e-05
5.9312e-05
5.69332e-05
5.47017e-05
5.25878e-05
5.05761e-05
4.86576e-05
4.68164e-05
4.50445e-05
4.33381e-05
4.16543e-05
3.99587e-05
0.000104575
0.000101006
9.75949e-05
9.43247e-05
9.11926e-05
8.81857e-05
8.52788e-05
8.24601e-05
7.9746e-05
7.7006e-05
7.47638e-05
0.000134249
0.000130062
0.000126062
0.000122236
0.000118574
0.00011506
0.000111672
0.000108381
0.000105186
0.000102012
9.92707e-05
0.000150793
0.000146226
0.00014187
0.000137706
0.000133714
0.000129877
0.000126179
0.0001226
0.00011913
0.000115718
0.000112672
0.000156173
0.000151469
0.000146984
0.000142693
0.000138579
0.00013462
0.0001308
0.000127101
0.000123508
0.000119971
0.000116794
1.73247e-05
1.70111e-05
1.67187e-05
1.64462e-05
1.61922e-05
1.59575e-05
1.57395e-05
1.55353e-05
1.53442e-05
1.5166e-05
1.49979e-05
6.13787e-05
5.87873e-05
5.63868e-05
5.41385e-05
5.20215e-05
5.002e-05
4.81199e-05
4.63046e-05
4.45743e-05
4.2875e-05
4.11398e-05
0.000108297
0.00010454
0.000100965
9.75569e-05
9.43014e-05
9.11935e-05
8.8213e-05
8.53336e-05
8.25592e-05
7.97758e-05
7.74193e-05
0.000139054
0.000134728
0.000130602
0.000126659
0.000122881
0.000119256
0.000115767
0.000112395
0.000109132
0.000105907
0.000103073
0.000156175
0.000151491
0.00014703
0.00014277
0.000138692
0.000134777
0.000131008
0.000127366
0.000123839
0.000120379
0.000117253
0.000161736
0.000156919
0.000152331
0.000147949
0.000143752
0.000139721
0.000135836
0.000132081
0.000128439
0.000124868
0.00012162
1.67246e-05
1.64415e-05
1.61767e-05
1.59301e-05
1.57013e-05
1.54854e-05
1.52814e-05
1.5089e-05
1.49103e-05
1.47382e-05
1.45591e-05
5.763e-05
5.5029e-05
5.26183e-05
5.03774e-05
4.82809e-05
4.63162e-05
4.44732e-05
4.27061e-05
4.11043e-05
3.92261e-05
3.73947e-05
0.000103562
9.98057e-05
9.62342e-05
9.28304e-05
8.95826e-05
8.64852e-05
8.3517e-05
8.0663e-05
7.79144e-05
7.5157e-05
7.28179e-05
0.000134018
0.000129767
0.000125708
0.000121824
0.000118102
0.000114529
0.000111087
0.000107762
0.000104543
0.000101362
9.8586e-05
0.00015077
0.000146206
0.000141857
0.000137702
0.000133723
0.000129902
0.000126224
0.000122669
0.000119227
0.000115848
0.000112827
0.000156163
0.000151469
0.000146997
0.000142724
0.000138631
0.000134698
0.000130909
0.000127245
0.000123694
0.000120206
0.000117063
1.48005e-05
1.45756e-05
1.43662e-05
1.41693e-05
1.39843e-05
1.3813e-05
1.36476e-05
1.3474e-05
1.33204e-05
1.31719e-05
1.30314e-05
1.28951e-05
4.84089e-05
4.61343e-05
4.39792e-05
4.2013e-05
4.0079e-05
3.83178e-05
3.67845e-05
3.49685e-05
3.40474e-05
3.22779e-05
3.1407e-05
2.98817e-05
9.03089e-05
8.68232e-05
8.35121e-05
8.03353e-05
7.73197e-05
7.45161e-05
7.17325e-05
6.89933e-05
6.6367e-05
6.38885e-05
6.22406e-05
0.000118727
0.000114798
0.000111042
0.000107428
0.000103968
0.000100646
9.74257e-05
9.4313e-05
9.12923e-05
8.83128e-05
8.58866e-05
0.00013425
0.00013006
0.000126056
0.000122226
0.000118562
0.000115046
0.000111658
0.000108368
0.000105172
0.000102002
9.92638e-05
0.000139073
0.000134734
0.000130591
0.000126626
0.000122825
0.000119173
0.000115654
0.000112249
0.000108952
0.000105685
0.000102829
1.1803e-05
1.16667e-05
1.15129e-05
1.13757e-05
1.12424e-05
1.11243e-05
1.10084e-05
1.08979e-05
1.0794e-05
1.06792e-05
1.05773e-05
1.04814e-05
3.32617e-05
3.22855e-05
3.02552e-05
2.92691e-05
2.75136e-05
2.66007e-05
2.51252e-05
2.42297e-05
2.29568e-05
2.19063e-05
2.11061e-05
2.01458e-05
6.69161e-05
6.4041e-05
6.11584e-05
5.86018e-05
5.61558e-05
5.43492e-05
5.14883e-05
4.89622e-05
4.67007e-05
4.44375e-05
4.28264e-05
9.10508e-05
8.77401e-05
8.45893e-05
8.15399e-05
7.86678e-05
7.59714e-05
7.32664e-05
7.0589e-05
6.80035e-05
6.53841e-05
6.33669e-05
0.000104603
0.000101031
9.76164e-05
9.43414e-05
9.12038e-05
8.81922e-05
8.52809e-05
8.24585e-05
7.97396e-05
7.69998e-05
7.47368e-05
0.000108331
0.000104564
0.000100977
9.75535e-05
9.42811e-05
9.11614e-05
8.81644e-05
8.52658e-05
8.24727e-05
7.96612e-05
7.72669e-05
8.00722e-06
7.92374e-06
7.83607e-06
7.75431e-06
7.67384e-06
7.60069e-06
7.52889e-06
7.46225e-06
7.39659e-06
7.33273e-06
7.27281e-06
7.21565e-06
1.52757e-05
1.43694e-05
1.35171e-05
1.27847e-05
1.20948e-05
1.15e-05
1.09166e-05
1.04031e-05
9.82906e-06
9.33152e-06
8.95183e-06
8.63746e-06
3.36449e-05
3.20924e-05
3.01266e-05
2.90186e-05
2.71771e-05
2.6317e-05
2.46982e-05
2.35856e-05
2.24802e-05
2.10358e-05
2.03042e-05
5.01164e-05
4.79742e-05
4.59333e-05
4.4028e-05
4.21867e-05
4.04685e-05
3.87808e-05
3.71376e-05
3.56405e-05
3.3992e-05
3.27336e-05
5.93243e-05
5.69477e-05
5.47179e-05
5.26055e-05
5.0595e-05
4.86775e-05
4.68371e-05
4.50683e-05
4.33675e-05
4.16886e-05
3.99971e-05
6.13743e-05
5.87846e-05
5.63839e-05
5.41338e-05
5.2014e-05
5.00088e-05
4.81047e-05
4.62842e-05
4.45481e-05
4.28427e-05
4.11051e-05
3.9576e-06
3.922e-06
3.88729e-06
3.85344e-06
3.82099e-06
3.78935e-06
3.75897e-06
3.72991e-06
3.70075e-06
3.6727e-06
3.64541e-06
3.61945e-06
7.8773e-06
7.77449e-06
7.67936e-06
7.59039e-06
7.50367e-06
7.42408e-06
7.34605e-06
7.27346e-06
7.20347e-06
7.13622e-06
7.07441e-06
7.0149e-06
1.14747e-05
1.13103e-05
1.11584e-05
1.1005e-05
1.08565e-05
1.07297e-05
1.06058e-05
1.04886e-05
1.0381e-05
1.02698e-05
1.01697e-05
1.44636e-05
1.422e-05
1.39946e-05
1.37858e-05
1.3593e-05
1.34138e-05
1.32467e-05
1.30889e-05
1.29481e-05
1.27973e-05
1.26574e-05
1.65151e-05
1.62167e-05
1.59406e-05
1.56846e-05
1.54473e-05
1.52271e-05
1.50235e-05
1.4834e-05
1.46591e-05
1.44917e-05
1.43292e-05
1.73248e-05
1.70109e-05
1.67184e-05
1.64458e-05
1.61918e-05
1.59571e-05
1.57391e-05
1.55352e-05
1.53443e-05
1.51662e-05
1.49987e-05
)
;

boundaryField
{
    inlet
    {
        type            calculated;
        value           nonuniform List<scalar> 0();
    }
    ami1
    {
        type            cyclicAMI;
        value           nonuniform List<scalar> 0();
    }
    walls
    {
        type            nutkWallFunction;
        blending        stepwise;
        value           uniform 0;
    }
    ami2
    {
        type            cyclicAMI;
        value           nonuniform List<scalar> 0();
    }
    outlet
    {
        type            calculated;
        value           nonuniform List<scalar> 0();
    }
    procBoundary8to0
    {
        type            processor;
        value           nonuniform List<scalar> 
29
(
3.99361e-06
8.10141e-06
1.19687e-05
1.50468e-05
1.70329e-05
7.97225e-06
1.63058e-05
3.57927e-05
5.09303e-05
6.03613e-05
1.16483e-05
3.57022e-05
7.0112e-05
9.39956e-05
0.000107542
1.47241e-05
5.24146e-05
9.45578e-05
0.000122891
0.000138562
1.68393e-05
6.18163e-05
0.000108363
0.0001387
0.00015564
0.000161161
0.000143659
0.000161153
0.000166848
)
;
    }
    procBoundary8to1
    {
        type            processor;
        value           nonuniform List<scalar> 
33
(
1.76673e-05
6.40926e-05
0.000112279
1.70343e-05
6.03526e-05
0.000107525
0.000138533
0.00015562
0.000161148
1.50483e-05
5.09114e-05
9.39846e-05
0.00012289
0.000138706
0.000143684
1.19701e-05
3.5786e-05
7.01318e-05
9.45926e-05
0.000108404
0.000112331
8.10279e-06
1.63215e-05
3.57529e-05
5.24591e-05
6.18209e-05
6.40631e-05
3.99422e-06
7.97427e-06
1.16533e-05
1.47293e-05
1.68412e-05
1.76674e-05
)
;
    }
    procBoundary8to7
    {
        type            processor;
        value           nonuniform List<scalar> 
68
(
3.61915e-06
7.21471e-06
1.04777e-05
1.2891e-05
1.43884e-05
7.01312e-06
8.57217e-06
1.99255e-05
2.94845e-05
3.58124e-05
1.00612e-05
1.89132e-05
4.07184e-05
5.85805e-05
6.94516e-05
1.25148e-05
3.06211e-05
6.11506e-05
8.23214e-05
9.45034e-05
1.41726e-05
3.79291e-05
7.16568e-05
9.56199e-05
0.000108741
0.000112768
1.48335e-05
3.89667e-05
7.41973e-05
9.93785e-05
0.000113292
0.000117531
1.43916e-05
1.43916e-05
3.59927e-05
3.59927e-05
6.98172e-05
9.49679e-05
0.000108961
0.000113075
1.27663e-05
2.87061e-05
5.8716e-05
5.8716e-05
8.24878e-05
9.56281e-05
9.909e-05
1.0394e-05
1.91594e-05
4.0637e-05
4.0637e-05
6.11975e-05
7.16536e-05
7.40357e-05
7.16142e-06
8.22753e-06
1.89657e-05
1.89657e-05
3.07634e-05
3.79608e-05
3.89222e-05
3.59385e-06
6.956e-06
1.00628e-05
1.00628e-05
1.25174e-05
1.41743e-05
1.48337e-05
)
;
    }
    procBoundary8to9
    {
        type            processor;
        value           nonuniform List<scalar> 
132
(
1.73237e-05
1.70096e-05
1.6717e-05
1.64443e-05
1.61902e-05
1.59554e-05
1.57372e-05
1.55329e-05
1.53416e-05
1.5163e-05
1.49956e-05
6.1364e-05
5.87689e-05
5.63601e-05
5.40997e-05
5.19679e-05
4.99488e-05
4.80297e-05
4.61928e-05
4.4438e-05
4.27162e-05
4.09571e-05
0.000108305
0.00010453
0.000100933
9.74974e-05
9.42078e-05
9.10671e-05
8.80456e-05
8.51162e-05
8.2289e-05
7.94488e-05
7.70637e-05
0.000139066
0.000134718
0.000130562
0.000126581
0.000122758
0.000119079
0.000115527
0.000112084
0.000108741
0.000105421
0.000102533
0.000139066
0.000134718
0.000130562
0.000126581
0.000122758
0.000119079
0.000115527
0.000112084
0.000108741
0.000105421
0.000102533
0.000150761
0.000146183
0.000141816
0.000137638
0.000133631
0.000129778
0.00012606
0.000122459
0.000118965
0.000115524
0.00011246
0.000156152
0.000151454
0.000146977
0.000142697
0.000138595
0.000134653
0.000130851
0.000127173
0.000123603
0.000120093
0.000116933
0.000150744
0.000146165
0.000141798
0.00013762
0.000133614
0.000129762
0.000126047
0.000122449
0.000118957
0.000115518
0.000112459
0.000134013
0.000129743
0.000125661
0.000121749
0.000117993
0.000114382
0.000110895
0.000107519
0.000104246
0.000100994
9.81842e-05
0.000103563
9.97943e-05
9.62065e-05
9.27811e-05
8.95103e-05
8.63881e-05
8.33886e-05
8.05047e-05
7.77179e-05
7.49219e-05
7.25115e-05
5.76146e-05
5.50113e-05
5.25984e-05
5.0349e-05
4.82471e-05
4.62708e-05
4.44121e-05
4.26485e-05
4.10067e-05
3.91457e-05
3.72351e-05
1.67228e-05
1.64394e-05
1.61746e-05
1.59279e-05
1.56994e-05
1.54837e-05
1.52797e-05
1.50874e-05
1.49096e-05
1.47365e-05
1.45572e-05
)
;
    }
}


// ************************************************************************* //
