/*--------------------------------*- C++ -*----------------------------------*\
| =========                 |                                                 |
| \\      /  F ield         | OpenFOAM: The Open Source CFD Toolbox           |
|  \\    /   O peration     | Version:  2212                                  |
|   \\  /    A nd           | Website:  www.openfoam.com                      |
|    \\/     M anipulation  |                                                 |
\*---------------------------------------------------------------------------*/
FoamFile
{
    version     2.0;
    format      ascii;
    arch        "LSB;label=32;scalar=64";
    class       surfaceVectorField;
    location    "0.1";
    object      Uf;
}
// * * * * * * * * * * * * * * * * * * * * * * * * * * * * * * * * * * * * * //

dimensions      [0 1 -1 0 0 0 0];

internalField   nonuniform List<vector> 
1755
(
(0.0512276 -7.83489e-08 6.93729e-08)
(0.0602828 -1.15332e-07 1.50223e-07)
(0.0599378 -6.83784e-10 1.56503e-07)
(0.0512283 -5.7113e-08 -7.48209e-08)
(0.0602869 -2.30313e-07 -1.04335e-07)
(0.0599421 -5.07642e-08 -2.78079e-08)
(0.051229 1.47061e-07 -1.35979e-07)
(0.0602884 -4.71477e-08 -1.31457e-07)
(0.0599436 3.04182e-08 -2.22055e-07)
(0.0512277 2.15333e-07 -3.72814e-07)
(0.0602884 5.38149e-07 1.56628e-07)
(0.0599435 3.44876e-07 -1.58405e-07)
(0.0602862 7.47257e-07 1.71681e-07)
(0.0599412 4.6581e-07 -4.00229e-07)
(0.0738778 -9.4588e-07 -5.26174e-07)
(0.0797423 -1.30772e-06 -6.89229e-07)
(0.0809147 1.05588e-07 3.59295e-07)
(0.0738809 -6.94446e-07 -5.11568e-07)
(0.0797458 -2.3579e-06 -1.68001e-06)
(0.0809166 2.00161e-07 1.27327e-07)
(0.0738818 6.49874e-07 4.30445e-07)
(0.0797466 -6.26677e-07 -5.47498e-07)
(0.0809165 8.25272e-08 -6.96936e-08)
(0.0738786 2.24686e-06 1.70118e-06)
(0.0797466 2.31672e-06 1.48599e-06)
(0.0809164 3.12852e-07 1.90775e-07)
(0.079745 4.34456e-06 2.87009e-06)
(0.0809162 1.38498e-08 -1.04599e-07)
(0.087047 -1.46829e-06 -1.19314e-06)
(0.0897307 -6.83602e-07 -4.06044e-07)
(0.0914173 -7.31344e-07 -5.94848e-07)
(0.0870465 -1.03951e-06 -1.06476e-06)
(0.0897304 -6.37429e-07 -8.23822e-07)
(0.0914167 -9.49951e-07 -1.22414e-06)
(0.0870464 5.00956e-07 1.93354e-07)
(0.08973 -1.01699e-07 -3.14441e-07)
(0.0914162 -1.25394e-07 -3.815e-07)
(0.0870474 1.67471e-06 1.11194e-06)
(0.0897301 2.73822e-07 2.64601e-07)
(0.0914162 9.65319e-07 9.22137e-07)
(0.0897309 -4.12066e-07 -1.27436e-08)
(0.0914169 1.76648e-06 1.72756e-06)
(0.0927848 -3.38005e-07 -1.92887e-07)
(0.0936155 -2.21492e-07 5.18807e-08)
(0.0963937 -2.18855e-07 -1.02633e-07)
(0.0927844 -1.28771e-07 -2.11363e-07)
(0.0936151 -1.0779e-07 -1.03148e-07)
(0.0963935 -2.60017e-08 -2.35896e-07)
(0.0927842 6.11927e-08 -9.64408e-08)
(0.0936149 2.22798e-07 -2.63548e-08)
(0.0963933 1.18303e-07 -1.32054e-07)
(0.0927842 -1.99109e-07 -2.6281e-07)
(0.093615 3.7959e-07 2.29206e-08)
(0.0963932 -3.85801e-08 -1.58057e-07)
(0.0927844 -7.33716e-07 -7.48642e-07)
(0.0936153 1.98188e-07 -1.86039e-07)
(0.0963934 -5.29808e-07 -6.62994e-07)
(0.0936149 -3.56405e-07 -6.42167e-07)
(0.0963928 -4.95292e-07 -8.3128e-07)
(0.094506 -3.96748e-08 1.37465e-07)
(0.0946659 8.83525e-08 2.01812e-07)
(0.0981423 -2.28447e-08 1.13349e-07)
(0.0945059 9.21792e-08 4.83971e-08)
(0.0946657 6.43775e-08 8.61701e-08)
(0.0981422 6.13186e-08 3.73546e-08)
(0.094506 2.58119e-07 1.96273e-08)
(0.0946657 7.84233e-08 3.18248e-08)
(0.0981422 1.88438e-07 9.88449e-09)
(0.0945062 3.07393e-07 -2.20024e-08)
(0.0946658 3.96754e-08 4.97988e-09)
(0.0981423 2.4604e-07 -2.08308e-08)
(0.0945064 8.64555e-08 -1.9859e-07)
(0.0946661 -9.48411e-08 -6.1309e-08)
(0.0981425 2.39712e-07 -8.76985e-08)
(0.0946661 -3.41204e-07 -2.53393e-07)
(0.0981425 5.5455e-08 -1.90835e-07)
(0.0948292 1.82608e-07 1.48752e-07)
(0.0944926 3.09441e-07 1.46313e-07)
(0.0985097 1.52785e-07 1.13294e-07)
(0.0948291 7.73271e-08 7.40224e-08)
(0.0944924 1.93511e-07 5.82728e-08)
(0.0985096 9.86145e-08 6.97212e-08)
(0.0948291 -5.86482e-08 3.03748e-08)
(0.0944924 -4.87615e-08 4.98776e-08)
(0.0985096 2.00983e-08 4.5072e-08)
(0.0948293 -1.95282e-07 -7.53637e-09)
(0.0944925 -2.55278e-07 8.31633e-08)
(0.0985097 -4.9319e-08 1.93541e-08)
(0.0948295 -3.18115e-07 -8.26439e-08)
(0.0944928 -3.45004e-07 1.1001e-07)
(0.0985099 -8.53275e-08 -3.5152e-08)
(0.0948295 -3.33892e-07 -2.17508e-07)
(0.0944929 -3.1995e-07 5.06648e-08)
(0.0985099 -9.96816e-08 -1.38422e-07)
(0.0944928 -1.54108e-07 -1.83727e-07)
(0.0941633 3.25223e-07 5.71593e-08)
(0.0929514 5.82123e-07 -8.42423e-08)
(0.0978441 2.51813e-07 6.3778e-08)
(0.0941631 6.82076e-08 3.45995e-08)
(0.0929512 3.60308e-07 -1.3164e-07)
(0.097844 9.89154e-08 2.79878e-08)
(0.0941632 -2.58733e-07 1.01143e-07)
(0.092951 -2.3066e-07 9.39284e-08)
(0.097844 -1.22749e-07 6.60255e-08)
(0.0941634 -4.37231e-07 1.96785e-07)
(0.092951 -6.4894e-07 3.38536e-07)
(0.0978442 -2.30917e-07 1.27051e-07)
(0.0941635 -3.90025e-07 2.37674e-07)
(0.0929512 -7.40164e-07 5.05875e-07)
(0.0978444 -1.53239e-07 1.62706e-07)
(0.0941636 -1.57754e-07 8.03891e-08)
(0.0929513 -4.53021e-07 3.9117e-07)
(0.0978444 3.73127e-08 9.86795e-08)
(0.092951 7.08017e-08 -1.58179e-07)
(0.0918213 6.61461e-07 -2.65183e-07)
(0.0884848 9.43308e-07 -4.27791e-07)
(0.0956469 4.37894e-07 -1.45474e-07)
(0.0918211 1.50801e-07 -7.41386e-08)
(0.0884846 8.92629e-07 -6.38614e-07)
(0.0956468 1.42856e-07 -1.91276e-07)
(0.0918208 -5.78457e-07 3.21698e-07)
(0.088484 -1.00832e-07 -7.46421e-08)
(0.0956466 -3.17181e-07 7.69707e-08)
(0.0918208 -1.06639e-06 6.40439e-07)
(0.0884834 -1.05078e-06 5.60661e-07)
(0.0956466 -5.94377e-07 3.61858e-07)
(0.0918209 -1.09556e-06 6.63819e-07)
(0.088483 -1.55291e-06 9.33323e-07)
(0.0956468 -5.86702e-07 5.16574e-07)
(0.0918208 -5.01459e-07 1.6721e-07)
(0.0884831 -5.90004e-07 2.68917e-07)
(0.095647 -2.9909e-07 2.67759e-07)
(0.0884811 7.76714e-07 -7.83173e-07)
(0.0956471 1.12509e-07 -3.66272e-07)
(0.085553 1.76999e-06 -8.80519e-07)
(0.0785983 1.45055e-06 -5.28233e-07)
(0.0903812 8.3422e-07 -4.57611e-07)
(0.0855524 1.32925e-06 -7.3296e-07)
(0.0786022 2.82604e-06 -1.16077e-06)
(0.0903806 1.21115e-06 -9.4595e-07)
(0.0855514 -2.82365e-07 1.21923e-07)
(0.0786031 1.44006e-06 -5.79931e-07)
(0.0903797 3.17164e-07 -4.00196e-07)
(0.0855504 -1.58094e-06 8.53502e-07)
(0.0786029 -4.8073e-07 2.75707e-07)
(0.0903789 -6.37108e-07 3.30061e-07)
(0.0855498 -8.03557e-07 5.02002e-07)
(0.0786026 -1.96378e-06 7.58834e-07)
(0.0903786 -9.977e-07 6.82504e-07)
(0.085549 1.38359e-06 -7.66948e-07)
(0.0785986 1.09112e-06 -8.23933e-07)
(0.0903794 1.02308e-06 -6.50093e-07)
(0.0903779 1.64727e-06 -1.23027e-06)
(0.0730153 9.58826e-07 -3.51715e-07)
(0.0599376 -3.58011e-08 5.84084e-08)
(0.0804338 -2.23654e-07 2.50804e-07)
(0.0730188 1.13648e-06 -4.64383e-07)
(0.0599422 1.51468e-07 -6.57183e-08)
(0.0804359 -7.97429e-08 4.17071e-09)
(0.0730209 5.35832e-07 -1.97449e-07)
(0.0599442 4.2576e-07 -1.30816e-07)
(0.080436 4.8794e-07 -3.31788e-07)
(0.0730203 -1.87349e-07 1.23788e-08)
(0.0599447 2.44503e-07 1.14213e-07)
(0.0804357 2.73588e-07 -5.75074e-08)
(0.0730179 5.29301e-07 -6.72825e-07)
(0.059945 2.7285e-07 1.16645e-07)
(0.080436 5.01208e-07 -1.9606e-07)
(0.05994 4.53677e-07 -9.95409e-08)
(0.0804335 7.43028e-07 -4.03338e-07)
(0.0512274 1.18788e-08 -3.92276e-08)
(0.0602825 -6.00434e-08 -3.89422e-08)
(0.0512285 1.92126e-07 -8.03461e-08)
(0.0602869 2.22914e-07 -2.04593e-07)
(0.0512302 2.21133e-07 1.08217e-07)
(0.0602889 3.76385e-07 -1.14942e-07)
(0.0512301 1.51088e-07 3.79418e-07)
(0.0602895 1.55877e-07 4.10449e-07)
(0.0512294 -7.53584e-08 6.2086e-07)
(0.0602899 1.77277e-07 7.52847e-07)
(0.0602849 4.13407e-07 4.9116e-07)
(0.0730154 -3.50305e-07 -7.79598e-07)
(0.080434 2.10431e-07 3.80475e-07)
(0.0785984 -5.68358e-07 -1.29613e-06)
(0.0730186 -2.38768e-07 -8.19908e-07)
(0.080436 9.57308e-08 3.14146e-07)
(0.0786022 -1.09202e-06 -2.59967e-06)
(0.0730193 4.32098e-07 1.08781e-07)
(0.0804359 5.73607e-08 -7.50971e-08)
(0.0786028 -1.08568e-07 -8.26083e-07)
(0.0730158 1.33867e-06 1.20445e-06)
(0.0804357 3.99405e-07 -8.05689e-08)
(0.0786021 1.49398e-06 2.1818e-06)
(0.0730101 3.48063e-07 -8.62586e-08)
(0.0804354 3.67122e-07 -6.99132e-07)
(0.0785997 2.6518e-06 3.92709e-06)
(0.0785903 -8.69585e-07 -2.12257e-06)
(0.0897771 1.9658e-06 2.4595e-06)
(0.0929138 6.80092e-07 9.57198e-07)
(0.0926832 7.64051e-07 9.68223e-07)
(0.0897738 1.63264e-06 1.98401e-06)
(0.0929112 1.42195e-06 1.77099e-06)
(0.0926806 1.50078e-06 1.80543e-06)
(0.0897726 -4.18971e-07 -5.42671e-07)
(0.0929096 4.87311e-07 5.76762e-07)
(0.0926791 4.79216e-07 5.38669e-07)
(0.0897751 -3.02869e-06 -3.69635e-06)
(0.0929096 -6.39228e-07 -7.84639e-07)
(0.0926792 -9.375e-07 -1.15962e-06)
(0.092912 -1.92128e-06 -2.16705e-06)
(0.0926822 -3.00346e-06 -3.67684e-06)
(0.0965491 5.16856e-08 1.2067e-07)
(0.0984273 7.31447e-08 1.02185e-08)
(0.098491 -2.8286e-09 1.45427e-07)
(0.0965486 2.19107e-07 2.56581e-07)
(0.0984268 5.86683e-07 2.62193e-07)
(0.0984905 2.83637e-07 5.72918e-07)
(0.0965483 3.36082e-07 4.1118e-07)
(0.0984265 3.3413e-07 1.95491e-07)
(0.0984904 2.1948e-07 3.5244e-07)
(0.0965484 9.1365e-07 1.17265e-06)
(0.0984263 -1.48047e-07 9.65984e-08)
(0.0984903 1.08373e-07 7.11609e-08)
(0.0965475 1.21444e-06 1.33336e-06)
(0.0984264 -6.61993e-08 4.22924e-07)
(0.0984902 5.14434e-07 5.50253e-07)
(0.0984262 6.83166e-07 3.38547e-07)
(0.09849 5.10149e-07 8.19272e-07)
(0.100491 1.3725e-07 -8.26561e-09)
(0.101325 -2.75531e-08 -3.66144e-08)
(0.101947 4.63646e-09 -4.69004e-08)
(0.100491 2.6727e-07 4.9801e-08)
(0.101325 1.90095e-07 4.39267e-08)
(0.101947 2.63943e-07 1.30785e-07)
(0.100491 2.90361e-08 -7.95798e-08)
(0.101325 2.29265e-07 4.37944e-08)
(0.101947 1.84136e-07 1.18576e-07)
(0.100491 -3.68207e-07 -4.64748e-07)
(0.101325 1.20424e-07 -9.34775e-08)
(0.101947 -1.22122e-07 -5.63178e-08)
(0.100491 -2.36432e-07 -5.2033e-07)
(0.101325 1.2259e-08 -3.64018e-07)
(0.101946 -4.09443e-07 -3.14897e-07)
(0.101325 1.70993e-07 -8.79614e-08)
(0.101946 -2.0777e-08 -1.275e-07)
(0.102205 8.51716e-08 3.05523e-08)
(0.102402 4.54989e-08 1.75894e-08)
(0.103558 2.91332e-08 -2.48543e-08)
(0.102205 1.61618e-07 4.04799e-08)
(0.102402 7.74035e-08 5.01135e-08)
(0.103558 1.15985e-07 2.91445e-08)
(0.102205 1.71706e-07 -2.81973e-09)
(0.102402 8.59161e-08 4.51153e-08)
(0.103558 1.31039e-07 2.10145e-08)
(0.102205 1.70931e-07 -6.03395e-08)
(0.102402 7.70413e-08 -1.34659e-08)
(0.103558 9.90078e-08 -4.96994e-08)
(0.102205 2.16376e-07 3.40939e-08)
(0.102402 9.64272e-08 -7.28432e-08)
(0.103558 9.41933e-08 -1.07886e-07)
(0.102402 2.04158e-07 1.14623e-08)
(0.103558 1.59273e-07 3.57855e-08)
(0.102602 6.1149e-08 4.05796e-08)
(0.102276 8.82268e-08 1.55005e-08)
(0.10396 4.11507e-08 -2.20682e-08)
(0.102602 3.72495e-08 6.00988e-08)
(0.102276 1.04168e-09 6.94261e-08)
(0.10396 3.00813e-08 2.63457e-08)
(0.102602 3.36757e-08 4.10171e-08)
(0.102276 -4.4404e-08 8.79031e-08)
(0.10396 2.79889e-08 3.23306e-08)
(0.102602 7.56337e-08 -1.51221e-08)
(0.102277 6.14426e-09 5.13537e-08)
(0.10396 5.50657e-08 -9.68283e-09)
(0.102602 1.57806e-07 -8.60242e-08)
(0.102277 1.55352e-07 -4.18734e-08)
(0.10396 1.24886e-07 -7.70478e-08)
(0.102277 3.03738e-07 -1.69189e-07)
(0.10396 2.03904e-07 -1.35139e-07)
(0.101956 5.91909e-09 4.29769e-08)
(0.100947 1.16069e-07 -2.54437e-08)
(0.103369 4.25196e-08 -2.75407e-08)
(0.101957 -1.08561e-07 9.51904e-08)
(0.100947 -1.82425e-07 8.75328e-08)
(0.103369 -7.66678e-08 4.86027e-08)
(0.101957 -8.64563e-08 9.68336e-08)
(0.100947 -2.77622e-07 1.53835e-07)
(0.103369 -9.3027e-08 7.26455e-08)
(0.101957 9.47118e-08 2.47953e-08)
(0.100948 -1.15304e-07 1.14748e-07)
(0.103369 2.08407e-08 2.23742e-08)
(0.101957 3.40737e-07 -1.22284e-07)
(0.100948 2.96958e-07 -1.01681e-07)
(0.103369 2.42481e-07 -1.00949e-07)
(0.100948 7.22041e-07 -4.43712e-07)
(0.103369 4.11803e-07 -2.5257e-07)
(0.0999906 -1.5674e-07 2.17854e-08)
(0.0979279 -1.2083e-07 3.24271e-08)
(0.101601 1.77204e-08 -5.07148e-08)
(0.0999907 -4.16552e-07 1.46551e-07)
(0.0979272 -7.44883e-07 2.55955e-07)
(0.101601 -3.31628e-07 1.36053e-07)
(0.0999908 -3.38118e-07 1.70695e-07)
(0.0979269 -5.7655e-07 2.36149e-07)
(0.101601 -3.45481e-07 1.83484e-07)
(0.0999911 2.03693e-08 -9.19465e-09)
(0.0979268 -1.68703e-07 9.33733e-08)
(0.101602 -1.05705e-07 6.10943e-08)
(0.0999915 4.56722e-07 -4.10257e-07)
(0.0979269 6.71263e-07 -4.91547e-07)
(0.101602 3.30121e-07 -2.8818e-07)
(0.0999917 4.83076e-07 -6.46825e-07)
(0.097928 1.44099e-06 -1.49781e-06)
(0.101602 6.24385e-07 -6.93381e-07)
(0.0979286 3.45668e-07 -7.22816e-07)
(0.0960507 -1.61425e-07 1.96031e-07)
(0.092683 -8.50983e-07 7.97285e-07)
(0.0982279 -7.27214e-08 1.73884e-07)
(0.09605 -2.87778e-07 2.68807e-07)
(0.0926802 -1.63719e-06 1.48126e-06)
(0.0982273 -4.66762e-07 6.13189e-07)
(0.0960492 -1.73285e-07 1.33089e-07)
(0.0926783 -4.5459e-07 5.10889e-07)
(0.098227 -3.49558e-07 4.22707e-07)
(0.0960493 2.79619e-07 -3.51135e-07)
(0.0926775 1.72541e-07 -2.46829e-08)
(0.0982269 -9.1411e-08 8.60605e-08)
(0.0960499 1.3938e-06 -1.50267e-06)
(0.0926779 1.49216e-06 -1.23411e-06)
(0.0982269 5.1072e-07 -6.21023e-07)
(0.0960509 1.46118e-06 -1.5541e-06)
(0.0926805 8.2142e-07 -8.82334e-07)
(0.0982278 1.27655e-06 -1.3295e-06)
(0.0926777 -8.87124e-07 7.93381e-07)
(0.0897768 -2.28172e-06 1.97516e-06)
(0.0809144 -2.15275e-07 1.65761e-07)
(0.0929136 -8.39627e-07 7.17507e-07)
(0.0897734 -1.81265e-06 1.6477e-06)
(0.0809164 1.15392e-07 1.84605e-07)
(0.0929108 -1.60413e-06 1.42402e-06)
(0.0897713 -1.27461e-07 3.41051e-07)
(0.0809164 5.59588e-07 -8.23876e-08)
(0.092909 -4.19846e-07 5.31705e-07)
(0.089771 1.46459e-06 -9.0317e-07)
(0.0809162 3.54263e-07 3.04444e-07)
(0.0929082 1.85885e-07 1.8658e-07)
(0.0897729 1.27763e-06 -7.45781e-07)
(0.0809166 5.84808e-07 2.96653e-07)
(0.0929084 1.3184e-06 -6.43975e-07)
(0.0897721 -1.14944e-06 1.21973e-06)
(0.0809142 9.21218e-07 9.3547e-08)
(0.0929108 9.92906e-08 4.09547e-07)
(0.0929072 -1.19139e-06 1.25069e-06)
(0.0738775 6.79054e-07 -8.95081e-07)
(0.0797419 8.21343e-07 -1.25697e-06)
(0.073881 8.64656e-07 -8.10442e-07)
(0.0797456 1.86832e-06 -2.38387e-06)
(0.073883 4.12291e-07 1.03542e-07)
(0.0797466 1.10181e-06 -9.94318e-07)
(0.0738826 -1.1406e-08 1.15007e-06)
(0.0797467 -8.07796e-08 8.92377e-07)
(0.0738804 7.06362e-07 8.14981e-07)
(0.0797469 -9.2198e-07 2.51172e-06)
(0.0797433 9.42469e-07 3.29628e-07)
(0.0855531 -8.6841e-07 -1.62379e-06)
(0.0903813 -4.55301e-07 -7.31619e-07)
(0.0884848 -4.86255e-07 -8.39409e-07)
(0.0855525 -4.90609e-07 -1.0442e-06)
(0.0903808 -8.50021e-07 -1.0657e-06)
(0.0884847 -6.25392e-07 -7.782e-07)
(0.0855514 9.16367e-07 1.0658e-06)
(0.0903801 2.89397e-08 -3.51292e-08)
(0.0884841 1.87319e-07 3.14993e-07)
(0.0855505 2.22061e-06 2.9202e-06)
(0.0903797 1.33824e-06 1.28192e-06)
(0.0884836 1.26274e-06 1.57755e-06)
(0.08555 1.39843e-06 1.59633e-06)
(0.0903801 1.78806e-06 1.58578e-06)
(0.0884837 1.88675e-06 2.35737e-06)
(0.0855483 -1.34707e-06 -2.27055e-06)
(0.0903808 -7.90607e-07 -1.15655e-06)
(0.0884831 3.99374e-07 7.98979e-07)
(0.0884818 -1.64722e-06 -1.66988e-06)
(0.096051 1.80725e-07 2.11337e-07)
(0.098228 1.49691e-07 8.89422e-08)
(0.097928 -1.25299e-08 1.25918e-07)
(0.0960506 2.56453e-07 2.84752e-07)
(0.0982275 5.49439e-07 4.57713e-07)
(0.0979275 2.19162e-07 6.96836e-07)
(0.0960505 -1.90219e-08 -8.74058e-08)
(0.0982275 2.39336e-07 2.3793e-07)
(0.0979274 1.83762e-07 3.51946e-07)
(0.0960516 -7.57393e-07 -1.00158e-06)
(0.0982276 -5.02232e-07 -3.49052e-07)
(0.0979276 -1.16901e-07 -5.34793e-07)
(0.0960528 -1.77527e-06 -1.95045e-06)
(0.0982282 -1.46606e-06 -1.18648e-06)
(0.0979284 -7.4661e-07 -1.60089e-06)
(0.0982297 -1.2088e-06 -1.17109e-06)
(0.0979301 -1.10575e-06 -9.47386e-07)
(0.100662 1.86669e-07 2.22026e-07)
(0.102049 5.92101e-08 1.3759e-09)
(0.101964 7.1467e-09 2.56554e-09)
(0.100663 2.37832e-07 3.11759e-07)
(0.102049 2.98642e-07 2.58761e-07)
(0.101965 1.88772e-07 3.10936e-07)
(0.100663 -1.90742e-08 6.17329e-08)
(0.102049 1.7468e-07 1.78549e-07)
(0.101965 8.639e-08 2.01512e-07)
(0.100663 -3.00801e-07 -1.84861e-07)
(0.102049 -1.19047e-07 -5.13851e-08)
(0.101965 -1.81495e-07 -9.3218e-08)
(0.100662 -2.83802e-07 -1.22233e-07)
(0.102049 -2.71731e-07 -1.58479e-07)
(0.101965 -3.72087e-07 -2.26455e-07)
(0.102049 -2.53853e-07 -5.32368e-08)
(0.101964 -2.448e-07 -1.62665e-07)
(0.103542 1.27079e-07 1.96131e-08)
(0.104268 3.27135e-08 -7.75297e-08)
(0.104486 3.0765e-08 -9.39022e-08)
(0.103543 1.71241e-07 1.01564e-07)
(0.104269 1.29209e-07 4.04147e-08)
(0.104486 1.39035e-07 5.50458e-08)
(0.103543 2.80397e-08 5.24218e-08)
(0.104269 9.99181e-08 4.80475e-08)
(0.104486 8.55016e-08 5.75804e-08)
(0.103543 -1.61667e-07 -3.96932e-08)
(0.104269 -2.0503e-08 -2.64847e-08)
(0.104486 -7.07586e-08 -4.15633e-08)
(0.103542 -2.01197e-07 -7.80283e-08)
(0.104269 -1.23095e-07 -9.92483e-08)
(0.104486 -1.94416e-07 -1.28006e-07)
(0.104268 -5.63458e-08 -8.64294e-08)
(0.104486 -1.45105e-07 -7.50144e-08)
(0.105026 5.94845e-08 -5.327e-08)
(0.105226 1.72265e-08 -9.16779e-08)
(0.105821 2.91239e-08 -1.28762e-07)
(0.105027 8.26145e-08 -1.03775e-08)
(0.105227 4.44038e-08 -2.13066e-08)
(0.105821 6.69693e-08 -4.17743e-08)
(0.105027 5.36263e-08 -3.23494e-08)
(0.105227 5.14742e-08 -9.74495e-09)
(0.105821 5.71908e-08 -2.19347e-08)
(0.105027 1.56424e-08 -8.82805e-08)
(0.105227 5.21056e-08 -5.36281e-08)
(0.105821 1.6224e-08 -5.56662e-08)
(0.105026 2.93068e-08 -1.07786e-07)
(0.105227 7.98198e-08 -1.14153e-07)
(0.105821 -1.07068e-08 -8.8517e-08)
(0.105227 1.47318e-07 -1.29216e-07)
(0.105821 1.93743e-08 -5.47603e-08)
(0.105429 9.91318e-09 -5.86957e-08)
(0.105164 -8.26512e-10 -8.09251e-08)
(0.106202 7.20398e-09 -1.2241e-07)
(0.10543 2.17135e-08 -1.95825e-08)
(0.105164 -2.38283e-08 -1.29836e-08)
(0.106202 1.2817e-08 -5.19103e-08)
(0.10543 5.10338e-08 -3.08702e-08)
(0.105164 -1.34082e-09 -3.98254e-10)
(0.106202 2.78855e-08 -3.28229e-08)
(0.10543 1.06191e-07 -8.08458e-08)
(0.105164 7.90433e-08 -5.07327e-08)
(0.106202 5.93978e-08 -6.06841e-08)
(0.10543 1.72669e-07 -1.39212e-07)
(0.105164 1.95357e-07 -1.41617e-07)
(0.106202 1.07911e-07 -1.09955e-07)
(0.105164 2.69659e-07 -2.19856e-07)
(0.106202 1.49017e-07 -1.4171e-07)
(0.104903 -4.00752e-08 -3.57872e-08)
(0.104119 -1.39172e-08 -5.73074e-08)
(0.105742 -5.20967e-09 -8.94668e-08)
(0.104903 -5.59677e-08 5.34601e-09)
(0.104119 -1.42537e-07 4.64472e-08)
(0.105742 -4.81819e-08 -2.04291e-08)
(0.104903 2.11781e-08 -2.07343e-08)
(0.104119 -1.14008e-07 5.14197e-08)
(0.105742 -2.13385e-08 -1.4313e-08)
(0.104903 1.72148e-07 -1.10982e-07)
(0.104119 6.12599e-08 -5.14549e-08)
(0.105742 7.62517e-08 -7.65683e-08)
(0.104903 3.09645e-07 -2.20403e-07)
(0.104119 3.11253e-07 -2.35183e-07)
(0.105742 2.03803e-07 -1.72568e-07)
(0.104119 4.46252e-07 -3.79594e-07)
(0.103367 -1.46352e-07 2.33403e-08)
(0.101965 -7.16622e-08 1.32542e-08)
(0.104396 -1.79032e-08 -4.92671e-08)
(0.103368 -2.3149e-07 9.03552e-08)
(0.101965 -3.90117e-07 2.43621e-07)
(0.104396 -1.72745e-07 6.70829e-08)
(0.103368 -8.94819e-08 1.96557e-08)
(0.101965 -3.10667e-07 2.06519e-07)
(0.104396 -1.42367e-07 5.2729e-08)
(0.103368 1.99149e-07 -1.74304e-07)
(0.101965 -6.44778e-09 9.40873e-09)
(0.104396 3.29367e-08 -8.73693e-08)
(0.103368 4.51418e-07 -3.90658e-07)
(0.101965 4.0733e-07 -2.9359e-07)
(0.104396 2.7691e-07 -3.00031e-07)
(0.101965 5.98031e-07 -4.39142e-07)
(0.104396 3.96492e-07 -4.24894e-07)
(0.100662 -2.56655e-07 2.23039e-07)
(0.0984909 -1.04238e-07 2.66608e-08)
(0.102049 -2.19474e-08 4.6058e-08)
(0.100663 -3.88282e-07 3.46057e-07)
(0.0984903 -5.53546e-07 3.56174e-07)
(0.102049 -2.91049e-07 3.35722e-07)
(0.100663 -2.04287e-07 1.88899e-07)
(0.09849 -3.65519e-07 3.45844e-07)
(0.102049 -2.4118e-07 2.67075e-07)
(0.100663 1.08444e-07 -1.06992e-07)
(0.0984899 -1.09826e-07 2.51019e-07)
(0.102049 -3.26972e-08 -1.47288e-08)
(0.100663 3.15445e-07 -3.30716e-07)
(0.0984898 2.65919e-07 2.14623e-08)
(0.102049 2.52896e-07 -4.03567e-07)
(0.0984904 1.7305e-07 -4.00764e-08)
(0.102049 3.49296e-07 -5.72226e-07)
(0.0965489 -3.40017e-08 1.16005e-07)
(0.091417 7.17369e-07 -6.75289e-07)
(0.0984273 7.91672e-08 1.16865e-07)
(0.0965482 -1.28478e-07 3.03666e-07)
(0.0914163 1.35848e-06 -8.93455e-07)
(0.0984266 -1.91438e-07 7.05229e-07)
(0.0965474 -1.02442e-07 3.74705e-07)
(0.0914156 7.19346e-07 -7.95438e-08)
(0.0984262 -1.58251e-07 6.00855e-07)
(0.0965473 1.14014e-08 3.58866e-07)
(0.0914151 -1.20058e-07 7.58433e-07)
(0.098426 -8.56156e-08 3.38304e-07)
(0.0965474 1.99698e-07 2.69375e-07)
(0.0914151 -6.59564e-07 1.20815e-06)
(0.0984259 1.47867e-07 -8.16614e-08)
(0.0965475 2.29592e-07 2.05881e-07)
(0.0914161 5.88408e-07 -4.17751e-09)
(0.0984265 3.00055e-07 -2.24018e-08)
(0.0870466 1.3098e-06 -1.40832e-06)
(0.0897303 5.79614e-07 -6.4144e-07)
(0.0870461 1.26638e-06 -9.88614e-07)
(0.0897302 9.56277e-07 -5.41321e-07)
(0.0870455 2.83397e-07 3.8928e-07)
(0.0897297 4.67241e-07 1.90724e-07)
(0.0870453 -6.14046e-07 1.48884e-06)
(0.0897295 -8.15226e-08 7.52932e-07)
(0.0870459 -1.31231e-07 8.61889e-07)
(0.0897298 -3.95517e-07 8.85818e-07)
(0.0897303 6.16801e-07 -3.34384e-07)
(0.0918213 -3.27205e-07 -5.93749e-07)
(0.0956469 -2.06813e-07 -4.02791e-07)
(0.0929513 -2.14737e-07 -4.75454e-07)
(0.0918211 -5.1193e-08 -9.82694e-08)
(0.0956468 -1.96712e-07 -1.4668e-07)
(0.0929511 -1.9453e-07 -3.37533e-07)
(0.091821 4.83213e-07 6.75407e-07)
(0.0956468 1.69703e-07 2.68444e-07)
(0.092951 1.1811e-07 2.17587e-07)
(0.0918213 8.97389e-07 1.20649e-06)
(0.0956469 5.87632e-07 5.04288e-07)
(0.0929512 4.70347e-07 6.02868e-07)
(0.0918221 7.54191e-07 1.00693e-06)
(0.0956473 7.74875e-07 5.36451e-07)
(0.0929515 6.40915e-07 6.30503e-07)
(0.0918224 -9.04866e-08 3.02983e-08)
(0.0956476 4.19964e-07 4.48576e-07)
(0.0929517 2.82251e-07 -1.65304e-07)
(0.095648 -6.50123e-07 -1.05937e-07)
(0.0999906 -4.31058e-08 9.27055e-08)
(0.101601 -9.45556e-08 -8.87787e-08)
(0.100947 -1.06582e-07 -1.46323e-07)
(0.0999908 8.06902e-08 2.58093e-07)
(0.101601 6.0927e-08 2.35891e-07)
(0.100947 8.92618e-09 1.13592e-07)
(0.0999911 1.02887e-07 7.75327e-09)
(0.101601 6.39226e-08 1.72877e-07)
(0.100948 7.51524e-08 1.08661e-07)
(0.0999914 1.11259e-08 -3.95017e-07)
(0.101602 -1.15991e-07 -1.65618e-07)
(0.100948 2.72361e-08 -1.64578e-07)
(0.0999914 4.34875e-08 -2.12243e-07)
(0.101602 -3.57105e-07 -4.38999e-07)
(0.100948 -1.29898e-07 -4.71603e-07)
(0.0999914 -5.56006e-08 3.59498e-07)
(0.101602 -1.96421e-07 2.76394e-08)
(0.100948 -1.86937e-07 -2.45982e-07)
(0.103367 3.21534e-10 4.95553e-08)
(0.104395 -1.52919e-08 -8.93279e-08)
(0.104118 -6.02491e-08 -7.80563e-08)
(0.103368 2.6497e-08 1.41406e-07)
(0.104395 6.74866e-08 8.73642e-08)
(0.104119 1.04972e-08 8.07246e-08)
(0.103368 -7.95942e-08 2.16415e-08)
(0.104396 2.96413e-08 7.32733e-08)
(0.104119 -1.75588e-08 8.04879e-08)
(0.103368 -2.51021e-07 -1.34662e-07)
(0.104396 -9.90969e-08 -5.49792e-08)
(0.104119 -1.39249e-07 -2.73817e-08)
(0.103367 -3.26547e-07 -1.21142e-07)
(0.104395 -2.06103e-07 -1.31679e-07)
(0.104119 -2.68263e-07 -8.00105e-08)
(0.104395 -1.81062e-07 -3.6601e-08)
(0.10549 3.99902e-08 -5.75738e-08)
(0.106066 2.09619e-08 -1.3721e-07)
(0.106049 -2.70758e-09 -1.03381e-07)
(0.10549 4.94733e-08 1.06425e-08)
(0.106066 5.37811e-08 -3.36521e-08)
(0.106049 3.42202e-08 -6.43554e-09)
(0.10549 -1.45823e-08 -9.81447e-09)
(0.106066 3.25754e-08 -1.0946e-08)
(0.106049 4.29228e-09 1.77285e-08)
(0.10549 -1.01483e-07 -6.03033e-08)
(0.106066 -2.8713e-08 -4.67289e-08)
(0.106049 -7.43676e-08 -1.25405e-08)
(0.10549 -1.36161e-07 -6.19659e-08)
(0.106066 -8.31605e-08 -7.93716e-08)
(0.106049 -1.39878e-07 -3.41748e-08)
(0.106065 -8.03768e-08 -4.88119e-08)
(0.106662 3.56946e-08 -1.14162e-07)
(0.106839 1.52321e-08 -1.52994e-07)
(0.107117 2.06482e-08 -1.35044e-07)
(0.106662 4.04113e-08 -5.58676e-08)
(0.106839 2.7579e-08 -7.50189e-08)
(0.107117 3.44323e-08 -5.79457e-08)
(0.106662 1.89485e-08 -4.85887e-08)
(0.106839 2.89919e-08 -4.92108e-08)
(0.107117 1.97585e-08 -2.61387e-08)
(0.106662 -1.03207e-08 -6.61611e-08)
(0.106839 2.48693e-08 -6.6532e-08)
(0.107117 -1.30565e-08 -3.16395e-08)
(0.106662 -2.05004e-08 -6.55206e-08)
(0.106839 2.54959e-08 -9.45186e-08)
(0.107117 -3.8521e-08 -4.19783e-08)
(0.106839 3.75112e-08 -8.85328e-08)
(0.107017 9.74078e-09 -1.13514e-07)
(0.106822 2.73312e-09 -1.27362e-07)
(0.107447 1.28108e-08 -1.2591e-07)
(0.107017 1.90766e-08 -6.80707e-08)
(0.106822 -4.39584e-09 -6.39747e-08)
(0.107447 1.30033e-08 -6.68347e-08)
(0.107017 3.6194e-08 -6.71246e-08)
(0.106822 1.48069e-08 -5.23574e-08)
(0.107447 1.7536e-08 -4.35311e-08)
(0.107017 6.03623e-08 -9.51539e-08)
(0.106822 5.84251e-08 -8.84849e-08)
(0.107447 2.81287e-08 -5.3351e-08)
(0.107017 8.24082e-08 -1.18053e-07)
(0.106822 1.082e-07 -1.39058e-07)
(0.107447 4.28216e-08 -7.34577e-08)
(0.10663 -1.21e-08 -7.81026e-08)
(0.10605 3.09562e-09 -8.23569e-08)
(0.1071 1.11314e-08 -8.48909e-08)
(0.10663 -1.12264e-08 -4.86006e-08)
(0.10605 -4.87965e-08 -1.30948e-08)
(0.1071 -1.2579e-08 -4.06175e-08)
(0.10663 3.44497e-08 -7.38872e-08)
(0.10605 -3.01638e-08 -2.21146e-08)
(0.1071 -2.17715e-10 -3.69151e-08)
(0.10663 1.05017e-07 -1.32245e-07)
(0.10605 5.39635e-08 -1.03487e-07)
(0.1071 4.41907e-08 -7.10373e-08)
(0.10605 1.59753e-07 -2.09398e-07)
(0.1071 9.35692e-08 -1.13193e-07)
(0.10549 -3.8487e-08 -1.86594e-08)
(0.104486 2.15534e-08 -2.58885e-08)
(0.106066 2.2012e-08 -4.49079e-08)
(0.105491 -7.56357e-08 1.19086e-08)
(0.104486 -1.12494e-07 1.16608e-07)
(0.106066 -4.96634e-08 6.71245e-09)
(0.105491 -1.85567e-08 -5.24719e-08)
(0.104486 -1.10683e-07 8.88962e-08)
(0.106066 -4.89187e-08 -5.84808e-09)
(0.105491 1.00813e-07 -1.8009e-07)
(0.104486 -1.75056e-09 -6.77065e-08)
(0.106066 1.50045e-08 -7.86488e-08)
(0.105491 2.03788e-07 -2.7992e-07)
(0.104486 1.59147e-07 -2.7298e-07)
(0.106066 1.04847e-07 -1.68595e-07)
(0.104486 2.48058e-07 -3.31466e-07)
(0.103543 -3.52998e-08 1.05446e-07)
(0.101947 1.08688e-07 -8.78879e-09)
(0.104269 6.66204e-08 -5.53355e-09)
(0.103543 -1.17418e-07 1.88006e-07)
(0.101947 -8.20484e-08 3.03086e-07)
(0.104269 -5.00081e-08 1.19796e-07)
(0.103543 -6.72981e-08 6.97716e-08)
(0.101947 -1.21409e-07 3.15864e-07)
(0.104269 -6.99216e-08 1.11053e-07)
(0.103543 7.05688e-08 -1.61214e-07)
(0.101947 -6.02931e-08 1.44395e-07)
(0.104269 -1.26329e-08 -8.72956e-09)
(0.103543 1.98278e-07 -3.23157e-07)
(0.101947 8.56183e-08 -1.02734e-07)
(0.104269 8.28179e-08 -1.59548e-07)
(0.101947 2.17099e-07 -1.4724e-07)
(0.100491 9.85114e-08 1.83084e-07)
(0.0963936 2.72602e-07 -2.13695e-07)
(0.101325 1.68163e-07 -4.80417e-08)
(0.100491 -2.48754e-08 4.17037e-07)
(0.0963934 3.86605e-07 2.94894e-08)
(0.101325 6.41069e-08 2.07557e-07)
(0.100491 -7.87971e-08 3.74641e-07)
(0.0963934 2.1933e-07 2.98307e-07)
(0.101325 -1.93481e-08 2.99708e-07)
(0.100491 -4.84201e-08 1.8726e-07)
(0.0963935 2.40302e-08 4.07675e-07)
(0.101325 -8.80227e-08 2.39104e-07)
(0.100491 1.01092e-07 5.61051e-08)
(0.0963936 -5.94514e-08 3.16732e-07)
(0.101325 -1.57e-07 1.12855e-07)
(0.0963938 2.42645e-07 4.23327e-08)
(0.0927845 4.1202e-07 -3.21011e-07)
(0.0936151 2.30332e-07 -2.94795e-07)
(0.0927844 3.91846e-07 -3.68519e-08)
(0.093615 3.53445e-07 -1.54655e-07)
(0.0927844 1.76146e-07 3.47477e-07)
(0.093615 2.56993e-07 2.02757e-07)
(0.0927847 7.33773e-09 5.16493e-07)
(0.0936152 1.45091e-07 4.05757e-07)
(0.0927851 1.1871e-07 2.84294e-07)
(0.0936155 1.00733e-07 3.43978e-07)
(0.093616 3.08082e-07 -1.48574e-07)
(0.0941631 -7.63397e-08 -2.57529e-07)
(0.0978439 -6.03631e-08 -1.95706e-07)
(0.0944924 -6.29549e-08 -1.79674e-07)
(0.094163 -2.69295e-08 -6.22182e-08)
(0.0978438 -4.98596e-08 -1.04215e-07)
(0.0944923 -5.02277e-08 -1.94681e-07)
(0.0941631 9.88979e-08 2.46338e-07)
(0.0978439 3.78908e-08 7.74395e-08)
(0.0944924 4.11794e-09 5.40649e-08)
(0.0941632 2.12416e-07 3.66175e-07)
(0.097844 1.22177e-07 1.51224e-07)
(0.0944925 7.83211e-08 3.46894e-07)
(0.0941632 1.89786e-07 9.05436e-08)
(0.0978441 1.00704e-07 3.00243e-08)
(0.0944925 1.20827e-07 4.89637e-07)
(0.0978441 -1.23974e-07 -2.38618e-07)
(0.0944925 4.92825e-08 2.36301e-07)
(0.101956 -5.25523e-08 -3.41669e-08)
(0.103369 -8.92908e-08 -9.12215e-08)
(0.102276 -9.62122e-08 -7.68303e-08)
(0.101956 3.22627e-09 3.82249e-08)
(0.103369 -2.34528e-08 3.76051e-08)
(0.102276 -4.82759e-08 -5.77534e-09)
(0.101956 -2.85795e-09 -4.59848e-08)
(0.103369 -1.1276e-08 4.18987e-08)
(0.102276 -2.2835e-08 9.43201e-09)
(0.101957 -1.17305e-07 -2.41302e-07)
(0.103369 -7.37302e-08 -7.63543e-08)
(0.102276 -4.57794e-08 -5.70606e-08)
(0.101957 -3.67457e-07 -3.49128e-07)
(0.103369 -2.07371e-07 -2.10066e-07)
(0.102276 -1.43592e-07 -1.43738e-07)
(0.102276 -3.75688e-07 -1.1818e-07)
(0.104903 -5.14918e-08 -1.72247e-08)
(0.105742 -4.51785e-08 -7.9206e-08)
(0.105164 -7.36183e-08 -4.30305e-08)
(0.104903 -3.51224e-08 4.22216e-08)
(0.105742 -9.58987e-09 1.55051e-08)
(0.105164 -3.87361e-08 3.25142e-08)
(0.104903 -7.70017e-08 1.54998e-08)
(0.105742 -3.06719e-08 3.29546e-08)
(0.105164 -4.9346e-08 4.33025e-08)
(0.104903 -1.53773e-07 -3.45991e-08)
(0.105742 -1.03452e-07 -7.10524e-09)
(0.105164 -9.86678e-08 4.08385e-10)
(0.105741 -1.79825e-07 -3.14361e-08)
(0.106629 -9.53263e-09 -4.84905e-08)
(0.1071 -2.19562e-09 -9.96682e-08)
(0.106822 -2.53916e-08 -4.32429e-08)
(0.106629 -1.22337e-08 3.98091e-09)
(0.1071 1.04958e-08 -2.61027e-08)
(0.106822 -1.14656e-08 1.98706e-08)
(0.106629 -5.60431e-08 1.02751e-08)
(0.1071 -1.14014e-08 3.31574e-09)
(0.106822 -3.73403e-08 4.49493e-08)
(0.106629 -1.12334e-07 -5.53552e-10)
(0.1071 -5.83483e-08 -2.36128e-09)
(0.106822 -8.4812e-08 3.44051e-08)
(0.1071 -9.47365e-08 -4.89469e-09)
(0.107587 1.907e-08 -7.76671e-08)
(0.107738 1.6959e-08 -1.07418e-07)
(0.107738 1.70068e-08 -6.08012e-08)
(0.107587 1.32817e-08 -2.70864e-08)
(0.107738 1.74625e-08 -4.79826e-08)
(0.107738 1.57724e-08 -5.0742e-09)
(0.107587 -1.2697e-08 -9.6142e-09)
(0.107738 6.07602e-09 -1.93552e-08)
(0.107738 -6.84257e-09 2.34466e-08)
(0.107587 -4.17358e-08 -7.09168e-09)
(0.107738 -1.07279e-08 -1.74134e-08)
(0.107738 -3.79908e-08 2.62666e-08)
(0.107738 -2.15046e-08 -1.69448e-08)
(0.107891 1.60751e-08 -7.76524e-08)
(0.107738 2.09363e-08 -8.20041e-08)
(0.108031 2.38308e-08 -4.77011e-08)
(0.107891 1.11723e-08 -4.02215e-08)
(0.107738 5.93949e-09 -4.0389e-08)
(0.108031 1.05383e-08 -1.14167e-08)
(0.107891 8.83561e-09 -2.71768e-08)
(0.107738 4.2354e-09 -2.45707e-08)
(0.108031 1.13009e-09 8.54209e-09)
(0.107891 9.45185e-09 -2.74146e-08)
(0.107738 1.50025e-08 -3.20891e-08)
(0.108031 -2.03632e-09 1.12237e-08)