/*--------------------------------*- C++ -*----------------------------------*\
| =========                 |                                                 |
| \\      /  F ield         | OpenFOAM: The Open Source CFD Toolbox           |
|  \\    /   O peration     | Version:  2212                                  |
|   \\  /    A nd           | Website:  www.openfoam.com                      |
|    \\/     M anipulation  |                                                 |
\*---------------------------------------------------------------------------*/
FoamFile
{
    version     2.0;
    format      ascii;
    arch        "LSB;label=32;scalar=64";
    class       surfaceVectorField;
    location    "2.5";
    object      Uf;
}
// * * * * * * * * * * * * * * * * * * * * * * * * * * * * * * * * * * * * * //

dimensions      [0 1 -1 0 0 0 0];

internalField   nonuniform List<vector> 
1755
(
(0.0229035 -2.76269e-05 1.94548e-05)
(0.0293364 -9.81453e-05 -8.02147e-06)
(0.0283776 -1.8865e-05 4.18081e-05)
(0.0226815 -2.62951e-05 1.84767e-05)
(0.0290596 -9.56272e-05 -8.05998e-06)
(0.0281188 -1.77422e-05 4.09532e-05)
(0.0224667 -2.52255e-05 1.66339e-05)
(0.0287899 -9.26084e-05 -9.14943e-06)
(0.0278677 -1.70481e-05 3.91293e-05)
(0.0222549 -2.47935e-05 1.42395e-05)
(0.0285277 -8.9396e-05 -1.1126e-05)
(0.0276236 -1.81075e-05 3.6211e-05)
(0.0282637 -8.65851e-05 -1.30431e-05)
(0.0273759 -2.01563e-05 3.28359e-05)
(0.03864 -0.000179329 -5.12847e-05)
(0.0455182 -0.000242375 -0.000157186)
(0.0520351 -0.000194861 -2.02605e-05)
(0.0382915 -0.000175523 -5.1124e-05)
(0.0451081 -0.000238235 -0.000153077)
(0.0516565 -0.000190625 -2.01054e-05)
(0.0379503 -0.000170538 -5.20813e-05)
(0.0447059 -0.000230179 -0.000148383)
(0.0512843 -0.00018749 -2.14343e-05)
(0.0376156 -0.000164169 -5.33091e-05)
(0.0443093 -0.000220283 -0.000142751)
(0.0509131 -0.000185495 -2.46121e-05)
(0.0439222 -0.000206281 -0.000137086)
(0.0505483 -0.000188908 -2.84463e-05)
(0.0536169 -0.000310933 -0.000285672)
(0.0580179 -0.000418146 -0.000441035)
(0.0704328 -0.000397567 -0.000297292)
(0.0531383 -0.000305574 -0.000275124)
(0.0574856 -0.000408143 -0.00042397)
(0.0700462 -0.000396618 -0.000291864)
(0.0526696 -0.000295187 -0.000261484)
(0.0569705 -0.000384172 -0.000396795)
(0.0696647 -0.000395409 -0.00028521)
(0.0522133 -0.000279232 -0.000246566)
(0.0564642 -0.000355449 -0.000368927)
(0.0692773 -0.000394403 -0.000278069)
(0.0559856 -0.000328849 -0.000347462)
(0.0689028 -0.000391016 -0.000270667)
(0.0624581 -0.000530338 -0.000599277)
(0.0651182 -0.000560015 -0.00069687)
(0.0799378 -0.000594238 -0.000608422)
(0.0618786 -0.000496683 -0.0005653)
(0.0645079 -0.000542267 -0.000675318)
(0.0795476 -0.000585435 -0.000594208)
(0.0613249 -0.000449532 -0.000522988)
(0.0639226 -0.00051266 -0.000642926)
(0.0791652 -0.000560572 -0.000568516)
(0.0607954 -0.000407155 -0.000487759)
(0.0633497 -0.00047985 -0.00061176)
(0.0787851 -0.000535895 -0.00054455)
(0.0602817 -0.000376635 -0.000464035)
(0.0628054 -0.000451647 -0.0005882)
(0.0784158 -0.000519166 -0.000527663)
(0.0622711 -0.000431894 -0.000571067)
(0.0780491 -0.000501098 -0.000510792)
(0.0673411 -0.000601622 -0.000764518)
(0.0680181 -0.000593307 -0.000751162)
(0.0845616 -0.000697251 -0.000766228)
(0.06672 -0.00058306 -0.000747972)
(0.0674149 -0.000568889 -0.000738733)
(0.0841709 -0.000686403 -0.000755707)
(0.0661164 -0.000562423 -0.000730893)
(0.0668308 -0.00054069 -0.000728416)
(0.083789 -0.000672607 -0.000742325)
(0.0655283 -0.000540001 -0.00071439)
(0.0662528 -0.000512936 -0.000719234)
(0.0834104 -0.000657631 -0.000729713)
(0.0649528 -0.00052018 -0.000699157)
(0.0656902 -0.000486648 -0.000706393)
(0.0830383 -0.000643817 -0.000718338)
(0.0651368 -0.000467713 -0.000692453)
(0.0826731 -0.000628795 -0.00070319)
(0.0681019 -0.000555941 -0.000727721)
(0.0667786 -0.000490524 -0.000660298)
(0.0851913 -0.000669056 -0.000752228)
(0.067535 -0.000527257 -0.000717934)
(0.0662451 -0.000461447 -0.000647929)
(0.084849 -0.000651854 -0.000743727)
(0.0669776 -0.000498681 -0.000711068)
(0.0657221 -0.000434413 -0.000638203)
(0.0845111 -0.000632001 -0.000736587)
(0.0664259 -0.000471519 -0.000702625)
(0.0652021 -0.000412871 -0.000627697)
(0.0841754 -0.000612108 -0.000730208)
(0.0658795 -0.00044639 -0.000690895)
(0.064691 -0.00039268 -0.000611136)
(0.0838414 -0.000592699 -0.000722424)
(0.0653435 -0.000422564 -0.000675752)
(0.0641867 -0.000366619 -0.000582758)
(0.0835141 -0.000572613 -0.000709977)
(0.0636926 -0.000334993 -0.000545909)
(0.0649552 -0.000390318 -0.000588352)
(0.0618623 -0.000290288 -0.000451809)
(0.0824122 -0.000500042 -0.000647729)
(0.0644654 -0.000362682 -0.000576234)
(0.0614079 -0.000269151 -0.000439172)
(0.0821219 -0.000477403 -0.000635577)
(0.0639817 -0.000340618 -0.00056458)
(0.0609616 -0.000251816 -0.000430455)
(0.081835 -0.000456899 -0.000626782)
(0.0635016 -0.000323616 -0.000547978)
(0.0605129 -0.000239054 -0.000420519)
(0.0815481 -0.000441019 -0.000620479)
(0.0630251 -0.000302488 -0.000514973)
(0.0600791 -0.000229016 -0.000406973)
(0.081263 -0.000428019 -0.000613142)
(0.0625635 -0.00027115 -0.000463264)
(0.0596447 -0.000214302 -0.000381386)
(0.0809813 -0.000406645 -0.000588414)
(0.059219 -0.000196157 -0.000349792)
(0.058535 -0.000184769 -0.000303833)
(0.0536849 -0.000146323 -0.000254791)
(0.0765685 -0.000258678 -0.000478909)
(0.058124 -0.000173298 -0.00029457)
(0.0532857 -0.000139301 -0.0002452)
(0.0762977 -0.000245331 -0.000468736)
(0.0577166 -0.000164265 -0.000287957)
(0.0528953 -0.000133244 -0.000239235)
(0.0760291 -0.000233626 -0.00046138)
(0.057311 -0.000157673 -0.000281179)
(0.0525005 -0.000127268 -0.000235046)
(0.075754 -0.000224871 -0.000461015)
(0.0569066 -0.000153862 -0.000273722)
(0.0521214 -0.000123377 -0.000230219)
(0.0754845 -0.000218545 -0.00046371)
(0.0565079 -0.000152728 -0.000265242)
(0.0517402 -0.000122317 -0.000221418)
(0.0752099 -0.000211915 -0.000460501)
(0.0513631 -0.000124167 -0.000207672)
(0.0749307 -0.000205326 -0.000455393)
(0.049043 -9.63776e-05 -0.000215209)
(0.0421482 -6.44227e-05 -0.000145455)
(0.0667207 -8.51705e-05 -0.000398337)
(0.0486651 -9.38557e-05 -0.000209148)
(0.0418062 -6.32469e-05 -0.000140922)
(0.066393 -8.20697e-05 -0.000391972)
(0.0482927 -9.09039e-05 -0.000204878)
(0.0414733 -6.18033e-05 -0.000137078)
(0.0660712 -7.89945e-05 -0.000384976)
(0.0479222 -8.77584e-05 -0.000201932)
(0.0411409 -5.8974e-05 -0.000136422)
(0.0657419 -7.55591e-05 -0.000384536)
(0.0475525 -8.58789e-05 -0.000196438)
(0.0408138 -5.62885e-05 -0.000136611)
(0.0654217 -7.28864e-05 -0.000387447)
(0.0471942 -8.61358e-05 -0.000184649)
(0.0404905 -5.48682e-05 -0.000131088)
(0.0650978 -7.08276e-05 -0.0003774)
(0.0647739 -6.97732e-05 -0.000364407)
(0.0362959 -5.91084e-05 -4.83207e-05)
(0.0284042 -4.40822e-05 -1.87793e-05)
(0.0507349 -1.98671e-05 -0.000157847)
(0.0359932 -5.83096e-05 -4.64367e-05)
(0.0281443 -4.37781e-05 -1.74689e-05)
(0.0503804 -2.03351e-05 -0.000153057)
(0.0356982 -5.62013e-05 -4.68925e-05)
(0.0278933 -4.23966e-05 -1.65898e-05)
(0.0500343 -1.96646e-05 -0.000149258)
(0.0354027 -5.30122e-05 -5.01227e-05)
(0.0276461 -3.94428e-05 -1.81691e-05)
(0.0496854 -1.70974e-05 -0.000151855)
(0.0351029 -4.98324e-05 -5.14338e-05)
(0.027398 -3.60033e-05 -2.08735e-05)
(0.0493422 -1.35714e-05 -0.000158317)
(0.0271555 -3.29551e-05 -2.06509e-05)
(0.0490005 -1.06536e-05 -0.000154422)
(0.0229257 -2.18882e-05 -2.78921e-05)
(0.0293646 4.69328e-06 -9.90079e-05)
(0.0227029 -2.13265e-05 -2.65455e-05)
(0.0290869 4.08673e-06 -9.69195e-05)
(0.0224875 -1.96047e-05 -2.56087e-05)
(0.0288172 4.81692e-06 -9.41129e-05)
(0.0222733 -1.70423e-05 -2.5423e-05)
(0.0285519 7.01757e-06 -9.12091e-05)
(0.0220578 -1.45286e-05 -2.46802e-05)
(0.0282885 9.63823e-06 -8.82107e-05)
(0.0280329 1.12578e-05 -8.31038e-05)
(0.036264 -4.87667e-05 5.65446e-05)
(0.0506988 -0.000157991 1.60123e-05)
(0.0421137 -0.000145154 6.25074e-05)
(0.0359623 -4.72184e-05 5.51719e-05)
(0.0503453 -0.00015318 1.57243e-05)
(0.0417731 -0.000141107 6.08142e-05)
(0.0356675 -4.74431e-05 5.27411e-05)
(0.0499991 -0.00014985 1.43344e-05)
(0.0414403 -0.000137566 5.87951e-05)
(0.035375 -4.88604e-05 4.97094e-05)
(0.0496531 -0.000149621 1.18683e-05)
(0.0411104 -0.00013668 5.56227e-05)
(0.035084 -4.89214e-05 4.67204e-05)
(0.0493111 -0.000155826 8.38976e-06)
(0.0407849 -0.000131966 5.42274e-05)
(0.0404687 -0.000123747 5.34407e-05)
(0.068468 -0.000304129 -3.23493e-05)
(0.0785013 -0.000457817 -0.000179083)
(0.0772688 -0.000490065 6.10373e-07)
(0.0680599 -0.000297749 -3.23315e-05)
(0.0781532 -0.000452217 -0.000176773)
(0.0769274 -0.000482114 -1.171e-06)
(0.0676534 -0.000293458 -3.36241e-05)
(0.0778082 -0.000449319 -0.000175097)
(0.0765906 -0.000474459 -3.53046e-06)
(0.0672487 -0.000297169 -3.67889e-05)
(0.0774517 -0.000448304 -0.000175088)
(0.0762432 -0.000470435 -5.65249e-06)
(0.0771044 -0.000457144 -0.000177684)
(0.0759073 -0.000474788 -7.67176e-06)
(0.0897612 -0.000581549 -0.000363248)
(0.0944491 -0.000650559 -0.000512181)
(0.0976793 -0.000786358 -0.000322584)
(0.089485 -0.000580221 -0.000358811)
(0.0942274 -0.000651414 -0.000507617)
(0.0975537 -0.000784388 -0.00032103)
(0.0892043 -0.000582879 -0.000354846)
(0.0939993 -0.000649542 -0.000499411)
(0.0974211 -0.000783436 -0.000318565)
(0.0889144 -0.000591141 -0.000352571)
(0.0937569 -0.000651874 -0.000493484)
(0.0972774 -0.000788587 -0.000316105)
(0.0886135 -0.0005961 -0.000350036)
(0.0935081 -0.000659554 -0.000489654)
(0.0971269 -0.000798267 -0.000315033)
(0.0932481 -0.000654072 -0.000479154)
(0.0969671 -0.000793144 -0.000312547)
(0.0993708 -0.000732069 -0.000668944)
(0.101398 -0.000787922 -0.000745304)
(0.106726 -0.000884911 -0.000644676)
(0.099201 -0.000730315 -0.000661397)
(0.101255 -0.000787432 -0.000741111)
(0.106719 -0.000887465 -0.000641439)
(0.0990181 -0.000725772 -0.000651882)
(0.101102 -0.000779592 -0.000731293)
(0.106701 -0.000882568 -0.000633109)
(0.09882 -0.000725732 -0.000644811)
(0.100941 -0.000774139 -0.000723627)
(0.106676 -0.000884213 -0.000626564)
(0.0986106 -0.000720645 -0.000633444)
(0.100765 -0.000773314 -0.000716983)
(0.106637 -0.000890481 -0.000621692)
(0.100589 -0.00075927 -0.000697591)
(0.106593 -0.000880968 -0.000608882)
(0.10339 -0.000850219 -0.000819312)
(0.10366 -0.000838953 -0.000830959)
(0.110506 -0.000929848 -0.000827274)
(0.103266 -0.000844634 -0.000812238)
(0.103557 -0.000833461 -0.000825091)
(0.110548 -0.000931196 -0.000825051)
(0.103134 -0.000837035 -0.000803589)
(0.103446 -0.000823685 -0.000815414)
(0.110582 -0.00092953 -0.000819935)
(0.102996 -0.000831096 -0.000796079)
(0.103335 -0.000813615 -0.000806296)
(0.110616 -0.000927613 -0.000814739)
(0.102854 -0.000819947 -0.000782026)
(0.103215 -0.000804969 -0.000798481)
(0.11064 -0.000926999 -0.000809004)
(0.103099 -0.000785279 -0.000779456)
(0.110666 -0.000914079 -0.000791932)
(0.103832 -0.000824798 -0.000834938)
(0.102747 -0.000736051 -0.0007998)
(0.111031 -0.000838188 -0.00089)
(0.103743 -0.000815315 -0.000826294)
(0.102673 -0.00072438 -0.000788058)
(0.111102 -0.000834309 -0.000884931)
(0.103651 -0.000802671 -0.000816378)
(0.102596 -0.000710074 -0.000777554)
(0.11117 -0.000828146 -0.000879124)
(0.103558 -0.000788938 -0.000807554)
(0.102518 -0.000696148 -0.000773315)
(0.111238 -0.000820114 -0.00087372)
(0.103464 -0.000771795 -0.000794711)
(0.102433 -0.000683013 -0.000772112)
(0.111304 -0.000810504 -0.000868619)
(0.102352 -0.000664169 -0.000757101)
(0.111371 -0.000793275 -0.000852283)
(0.101608 -0.000632276 -0.000757659)
(0.0991576 -0.000494048 -0.000729115)
(0.109166 -0.000602269 -0.000874431)
(0.101545 -0.000614969 -0.000744807)
(0.0990736 -0.000477057 -0.000717884)
(0.109253 -0.00058965 -0.000866135)
(0.101479 -0.000599784 -0.000739628)
(0.0989863 -0.000460826 -0.00070831)
(0.109338 -0.000576898 -0.000860451)
(0.10141 -0.000587303 -0.000742217)
(0.0988946 -0.000449564 -0.000712213)
(0.109422 -0.000565687 -0.000862424)
(0.101338 -0.000571283 -0.00073971)
(0.0987941 -0.000439039 -0.00072244)
(0.109501 -0.000553498 -0.000866221)
(0.0986923 -0.000420582 -0.000721108)
(0.109579 -0.000534445 -0.000855707)
(0.096753 -0.000341632 -0.000695725)
(0.0918034 -0.000206621 -0.00067598)
(0.10491 -0.000262713 -0.000849465)
(0.0966458 -0.000327262 -0.000686123)
(0.0916161 -0.000197981 -0.000666894)
(0.104951 -0.000250316 -0.000844073)
(0.0965327 -0.000315469 -0.000684943)
(0.0914278 -0.000189304 -0.000656388)
(0.104987 -0.000238044 -0.000840379)
(0.0964112 -0.000306975 -0.000695395)
(0.0912294 -0.000183423 -0.000659303)
(0.105019 -0.000228689 -0.000850014)
(0.096281 -0.000297381 -0.000703124)
(0.0910288 -0.000179014 -0.000669193)
(0.10504 -0.000220716 -0.000863772)
(0.0961437 -0.000283946 -0.000702551)
(0.0908213 -0.000172735 -0.000663116)
(0.105058 -0.000210277 -0.000860974)
(0.0906043 -0.000163999 -0.000658458)
(0.0871214 -8.09033e-05 -0.000643193)
(0.0772985 -6.36542e-06 -0.000490326)
(0.0962783 5.04751e-05 -0.000817442)
(0.0868604 -7.66118e-05 -0.000634173)
(0.0769558 -5.5314e-06 -0.00048203)
(0.0961591 5.39518e-05 -0.000814486)
(0.0865963 -7.23725e-05 -0.000629225)
(0.0766181 -3.82236e-06 -0.000473785)
(0.0960348 5.77508e-05 -0.000809502)
(0.086326 -6.88339e-05 -0.0006336)
(0.0762689 -1.46417e-06 -0.000473917)
(0.0958999 6.17284e-05 -0.000813547)
(0.0860494 -6.5799e-05 -0.000632001)
(0.0759291 8.92684e-07 -0.000479738)
(0.0957614 6.48758e-05 -0.000821263)
(0.0857691 -6.29048e-05 -0.000623167)
(0.0755829 2.72158e-06 -0.000468484)
(0.0956156 6.60675e-05 -0.000808899)
(0.0752354 4.39686e-06 -0.000462943)
(0.0685083 2.59851e-05 -0.00030453)
(0.0520734 1.46514e-05 -0.000195581)
(0.0785302 0.000172258 -0.000458517)
(0.0680996 2.51278e-05 -0.000297578)
(0.0516942 1.37029e-05 -0.000191862)
(0.0781813 0.000169387 -0.000453421)
(0.0676928 2.61507e-05 -0.000295552)
(0.051322 1.4447e-05 -0.000188455)
(0.0778359 0.000167072 -0.000449984)
(0.0672856 2.93828e-05 -0.000300003)
(0.0509478 1.79278e-05 -0.000188877)
(0.0774783 0.000167526 -0.000453075)
(0.066877 3.30023e-05 -0.000299634)
(0.0505833 2.25905e-05 -0.000191642)
(0.0771278 0.000169711 -0.000459321)
(0.0664756 3.66266e-05 -0.000295657)
(0.0502233 2.54351e-05 -0.000184834)
(0.0767712 0.000169659 -0.000450448)
(0.0764099 0.000170024 -0.00044404)
(0.0386763 4.58396e-05 -0.000181274)
(0.0455574 0.00015129 -0.000244329)
(0.038327 4.50689e-05 -0.000178068)
(0.0451469 0.000146625 -0.000241036)
(0.0379852 4.6057e-05 -0.000173336)
(0.044745 0.000142024 -0.000233524)
(0.0376483 4.81043e-05 -0.000167705)
(0.0443455 0.000137084 -0.000223162)
(0.0373138 4.95238e-05 -0.000159877)
(0.0439608 0.000132195 -0.000211914)
(0.0435859 0.000126896 -0.000197894)
(0.0490071 -0.000214418 9.47497e-05)
(0.0666927 -0.000398074 8.18331e-05)
(0.0536473 -0.000252993 0.000145601)
(0.0486301 -0.000209401 9.13824e-05)
(0.066367 -0.000392574 7.81571e-05)
(0.0532505 -0.000245064 0.000137479)
(0.048258 -0.000205461 8.78236e-05)
(0.0660464 -0.0003858 7.44176e-05)
(0.0528615 -0.000239901 0.000130415)
(0.0478893 -0.000200018 8.49625e-05)
(0.0657184 -0.000384071 7.08624e-05)
(0.0524683 -0.000234868 0.000124266)
(0.0475252 -0.000189373 8.39501e-05)
(0.0654025 -0.000380495 6.84046e-05)
(0.0520934 -0.000226805 0.000120603)
(0.0471734 -0.000177808 8.36605e-05)
(0.0650785 -0.000370801 6.66052e-05)
(0.051713 -0.000213389 0.000120199)
(0.0513483 -0.000202682 0.000120748)
(0.0871059 -0.000643699 7.46682e-05)
(0.0962738 -0.000818642 -5.66784e-05)
(0.0917975 -0.000672969 0.000200088)
(0.0868463 -0.000634518 6.99828e-05)
(0.0961558 -0.000814679 -6.04928e-05)
(0.0916135 -0.000666821 0.000192023)
(0.0865844 -0.000628246 6.56791e-05)
(0.0960326 -0.00080877 -6.44538e-05)
(0.0914267 -0.000657071 0.000183707)
(0.0863162 -0.000628049 6.22271e-05)
(0.0958991 -0.00081052 -6.85402e-05)
(0.0912307 -0.00065785 0.000178426)
(0.0860411 -0.000627952 5.93985e-05)
(0.0957617 -0.000815266 -7.16148e-05)
(0.091031 -0.000662048 0.000172869)
(0.0956158 -0.000810219 -7.28952e-05)
(0.0908247 -0.000661442 0.000165327)
(0.106405 -0.000959127 -0.00022988)
(0.110388 -0.000971089 -0.000390185)
(0.10996 -0.000959861 -4.93749e-05)
(0.106438 -0.000959798 -0.000232501)
(0.110488 -0.000973314 -0.000391468)
(0.110076 -0.000959612 -5.60214e-05)
(0.106461 -0.00096518 -0.000235002)
(0.110578 -0.000974602 -0.000390853)
(0.110184 -0.000960622 -6.25055e-05)
(0.106473 -0.000975721 -0.000237227)
(0.110663 -0.000985135 -0.000391339)
(0.110288 -0.000969978 -6.80143e-05)
(0.106476 -0.000977042 -0.000238009)
(0.110734 -0.000997969 -0.000391765)
(0.110379 -0.000982125 -7.28267e-05)
(0.110802 -0.000991802 -0.000387046)
(0.110469 -0.000975804 -7.83617e-05)
(0.114785 -0.000997831 -0.000558143)
(0.116397 -0.000978013 -0.000661269)
(0.117985 -0.000946572 -0.000370393)
(0.114947 -0.000999641 -0.000556602)
(0.116587 -0.000983217 -0.000661872)
(0.118223 -0.000951917 -0.000373615)
(0.115101 -0.00100447 -0.000554646)
(0.116772 -0.000985215 -0.000660725)
(0.118456 -0.000954822 -0.000374766)
(0.115248 -0.00101623 -0.000553805)
(0.116955 -0.000992831 -0.000659174)
(0.118688 -0.00096548 -0.000376831)
(0.115391 -0.00102007 -0.000549379)
(0.117129 -0.00100273 -0.000657249)
(0.118913 -0.000978238 -0.000378989)
(0.1173 -0.000997027 -0.000648074)
(0.119133 -0.000972163 -0.00037626)
(0.118274 -0.000962163 -0.000769828)
(0.118468 -0.000876667 -0.000824703)
(0.121433 -0.000863027 -0.000602642)
(0.118491 -0.000968386 -0.000770417)
(0.118698 -0.000880388 -0.000824432)
(0.121719 -0.000868891 -0.000604323)
(0.118703 -0.000973362 -0.000769585)
(0.118925 -0.000883525 -0.000824433)
(0.122003 -0.00087365 -0.000605557)
(0.118911 -0.000978128 -0.000767439)
(0.119151 -0.00088579 -0.000823074)
(0.122286 -0.000879427 -0.000606246)
(0.11912 -0.000977938 -0.000761002)
(0.119375 -0.000887177 -0.000821446)
(0.122567 -0.000885356 -0.000606073)
(0.119596 -0.000878363 -0.000810937)
(0.122845 -0.00087954 -0.000598567)
(0.118896 -0.000798268 -0.000876881)
(0.118051 -0.000660061 -0.000900839)
(0.122166 -0.000663852 -0.000750602)
(0.119138 -0.000798885 -0.000875996)
(0.118297 -0.000657187 -0.000899205)
(0.122471 -0.000664379 -0.000749471)
(0.119378 -0.000798507 -0.000876015)
(0.11854 -0.000653966 -0.000899594)
(0.122776 -0.000664887 -0.000749416)
(0.119617 -0.000796083 -0.000876074)
(0.118783 -0.000648302 -0.000902966)
(0.123081 -0.00066472 -0.000750556)
(0.119859 -0.000788752 -0.000870411)
(0.119026 -0.000640864 -0.000906849)
(0.123388 -0.000662646 -0.000750186)
(0.119266 -0.000628525 -0.000897006)
(0.123692 -0.000652976 -0.000738655)
(0.117464 -0.000515112 -0.000927455)
(0.115529 -0.000325397 -0.000948129)
(0.120895 -0.000360595 -0.000849257)
(0.11771 -0.000507894 -0.000927535)
(0.115754 -0.000316025 -0.000946438)
(0.1212 -0.000354049 -0.000848623)
(0.117954 -0.000500238 -0.00093062)
(0.115974 -0.000307376 -0.000947761)
(0.121505 -0.000348148 -0.000849892)
(0.118198 -0.000491129 -0.000936565)
(0.116194 -0.000298877 -0.000958467)
(0.12181 -0.000342376 -0.00085612)
(0.118446 -0.000478543 -0.00093637)
(0.116407 -0.000289988 -0.000971008)
(0.122115 -0.000334936 -0.000859607)
(0.116618 -0.000277211 -0.000964161)
(0.1139 -0.000137225 -0.000963807)
(0.109947 4.31661e-05 -0.000957665)
(0.117513 1.55703e-05 -0.000929796)
(0.114098 -0.000126399 -0.000963459)
(0.110065 5.07184e-05 -0.000957928)
(0.117771 2.4447e-05 -0.000930949)
(0.11429 -0.000117221 -0.000972033)
(0.110173 5.73991e-05 -0.000960672)
(0.118023 3.23924e-05 -0.000934898)
(0.114479 -0.000109995 -0.000988135)
(0.110277 6.18808e-05 -0.000973411)
(0.118276 3.82523e-05 -0.000948963)
(0.114664 -0.000102086 -0.000992779)
(0.110369 6.54352e-05 -0.000987354)
(0.118522 4.24981e-05 -0.000963727)
(0.110457 6.94539e-05 -0.000977702)
(0.118764 4.68106e-05 -0.000957008)
(0.106395 0.00022347 -0.000957953)
(0.0976829 0.00031548 -0.000786067)
(0.110378 0.000384206 -0.000969952)
(0.106428 0.000226149 -0.000960155)
(0.0975566 0.000313595 -0.000785215)
(0.110477 0.000385701 -0.000973987)
(0.106451 0.000228525 -0.00096726)
(0.0974236 0.000311076 -0.000785101)
(0.110567 0.000384825 -0.00097593)
(0.106463 0.000230359 -0.000978851)
(0.0972792 0.00030917 -0.000792952)
(0.110652 0.000385188 -0.00098785)
(0.106468 0.000230285 -0.000978643)
(0.0971284 0.000307507 -0.000801578)
(0.110725 0.000384737 -0.000999191)
(0.0969707 0.000303718 -0.000792692)
(0.110792 0.00037812 -0.000989488)
(0.089776 0.00035527 -0.000583178)
(0.0704628 0.000289627 -0.000399523)
(0.0944602 0.000505192 -0.000653353)
(0.089499 0.000350518 -0.000582453)
(0.0700758 0.000283887 -0.000399084)
(0.094238 0.000500165 -0.000654733)
(0.0892172 0.000346667 -0.000586361)
(0.0696942 0.000277491 -0.000398006)
(0.0940095 0.000491347 -0.000652403)
(0.0889266 0.000344504 -0.000595002)
(0.0693058 0.000271029 -0.000397953)
(0.0937669 0.000485218 -0.000656508)
(0.088627 0.00034112 -0.000596979)
(0.0689307 0.000264511 -0.00039581)
(0.0935177 0.000480694 -0.000661458)
(0.0883211 0.000335479 -0.000590316)
(0.0685559 0.000255573 -0.000383264)
(0.0932603 0.000468986 -0.000651005)
(0.0536595 0.000278473 -0.000314337)
(0.0580643 0.000433026 -0.000421571)
(0.0531808 0.000268291 -0.000309269)
(0.0575333 0.000417313 -0.000412771)
(0.0527122 0.000255445 -0.000298855)
(0.0570185 0.000391627 -0.000389486)
(0.0522549 0.000241329 -0.000283827)
(0.0565111 0.000363733 -0.00036015)
(0.0518086 0.000227984 -0.000265802)
(0.0560332 0.000342175 -0.000334538)
(0.0555646 0.000326081 -0.000311614)
(0.0585001 -0.000302981 0.000183661)
(0.0765513 -0.000475972 0.000255644)
(0.0618304 -0.000452642 0.000288429)
(0.0580901 -0.000294169 0.000171661)
(0.0762842 -0.000468689 0.000242682)
(0.0613784 -0.000438778 0.000267651)
(0.0576845 -0.000287406 0.000161851)
(0.0760174 -0.000461954 0.000230484)
(0.0609344 -0.000429364 0.000249879)
(0.057282 -0.000279311 0.000154838)
(0.075745 -0.000460169 0.000221137)
(0.0604893 -0.00041785 0.000236362)
(0.0568818 -0.000269383 0.00015094)
(0.0754763 -0.00045894 0.000214052)
(0.0600585 -0.000403181 0.000225726)
(0.0564858 -0.000259765 0.000149124)
(0.075204 -0.000453755 0.00020655)
(0.0596257 -0.0003769 0.000210115)
(0.0749268 -0.000450597 0.000198897)
(0.0967619 -0.000691389 0.000335849)
(0.104921 -0.000846244 0.000256215)
(0.0991672 -0.000722203 0.00048814)
(0.0966572 -0.000686258 0.000322533)
(0.104963 -0.00084449 0.000244677)
(0.0990863 -0.000715767 0.000473345)
(0.0965457 -0.000685867 0.000311138)
(0.104999 -0.000841282 0.000233131)
(0.0989998 -0.000708901 0.000458098)
(0.0964248 -0.000692997 0.000302087)
(0.105031 -0.000848449 0.000224071)
(0.0989091 -0.000711952 0.000445709)
(0.096295 -0.000697446 0.00029095)
(0.105052 -0.000857754 0.000215157)
(0.0988093 -0.000716486 0.000433146)
(0.096159 -0.000697436 0.000275901)
(0.105073 -0.000856238 0.000202932)
(0.098709 -0.000715322 0.000412944)
(0.113914 -0.000967117 0.000131641)
(0.117526 -0.000931136 -2.12074e-05)
(0.115543 -0.000948495 0.000319248)
(0.11411 -0.000966503 0.000121491)
(0.117782 -0.000933375 -2.90907e-05)
(0.115765 -0.000948512 0.00031047)
(0.114301 -0.000970899 0.000112288)
(0.118034 -0.000936351 -3.64743e-05)
(0.115984 -0.000948861 0.000302145)
(0.11449 -0.000981731 0.000104108)
(0.118286 -0.000946537 -4.28327e-05)
(0.116204 -0.000956057 0.00029388)
(0.114676 -0.000985913 9.46378e-05)
(0.118533 -0.000959388 -4.89661e-05)
(0.116418 -0.000962156 0.000282993)
(0.118776 -0.00095424 -5.57931e-05)
(0.121639 -0.000907531 -0.000184688)
(0.123154 -0.000841436 -0.000306801)
(0.123042 -0.000845545 1.50964e-06)
(0.121955 -0.000913212 -0.000189855)
(0.123491 -0.000845807 -0.000310979)
(0.123382 -0.000848395 -3.32401e-06)
(0.122267 -0.00092149 -0.00019462)
(0.123827 -0.000850437 -0.000315278)
(0.123722 -0.000852457 -7.20564e-06)
(0.122579 -0.000932719 -0.000199418)
(0.124163 -0.000859648 -0.000319337)
(0.124063 -0.000860054 -1.19491e-05)
(0.122892 -0.000935281 -0.000203276)
(0.124498 -0.000869451 -0.00032279)
(0.124402 -0.000864608 -1.98394e-05)
(0.124829 -0.000862486 -0.000321781)
(0.125069 -0.000774316 -0.000439711)
(0.125316 -0.000650831 -0.000533963)
(0.126456 -0.000670135 -0.000264474)
(0.125428 -0.000778768 -0.000442213)
(0.125682 -0.000653529 -0.000534577)
(0.126839 -0.000672919 -0.000266906)
(0.125786 -0.000784705 -0.000445506)
(0.126047 -0.000656482 -0.000536306)
(0.127222 -0.000676464 -0.000269882)
(0.126145 -0.000791893 -0.000448531)
(0.126414 -0.000661307 -0.000539779)
(0.127607 -0.000681978 -0.000273575)
(0.126505 -0.000791954 -0.000447132)
(0.126782 -0.000664594 -0.000540832)
(0.127991 -0.00068548 -0.000277631)
(0.127145 -0.000656454 -0.000531966)
(0.125933 -0.00053133 -0.000627989)
(0.1252 -0.000367437 -0.000702697)
(0.127376 -0.0003995 -0.000482106)
(0.126306 -0.000532063 -0.000628135)
(0.125569 -0.000365213 -0.000702856)
(0.127772 -0.000399672 -0.000482209)
(0.12668 -0.000533577 -0.000630253)
(0.125938 -0.000363542 -0.000704659)
(0.128167 -0.000400499 -0.000483542)
(0.127055 -0.000534423 -0.000631772)
(0.12631 -0.000362688 -0.000709623)
(0.128566 -0.000402057 -0.000486515)
(0.127432 -0.000529786 -0.000625108)
(0.126682 -0.00035983 -0.000708335)
(0.128964 -0.000401456 -0.000486339)
(0.124842 -0.000199548 -0.000779582)
(0.123035 -6.81886e-06 -0.000844615)
(0.126338 -6.37067e-05 -0.000673292)
(0.125208 -0.00019512 -0.000781258)
(0.123377 -1.77982e-06 -0.000847794)
(0.126724 -6.02532e-05 -0.000674319)
(0.125574 -0.000191257 -0.00078578)
(0.123716 2.62532e-06 -0.000852035)
(0.127111 -5.72939e-05 -0.000676987)
(0.125943 -0.000186421 -0.000788174)
(0.124057 7.35809e-06 -0.000861707)
(0.127501 -5.44956e-05 -0.000682377)
(0.124397 1.25628e-05 -0.000867169)
(0.12789 -5.12975e-05 -0.000681115)
(0.12163 0.000180031 -0.000907149)
(0.117974 0.000365657 -0.000946091)
(0.123144 0.000302899 -0.000840884)
(0.121945 0.000185578 -0.000913276)
(0.118212 0.00036919 -0.000952961)
(0.123481 0.000307144 -0.000845758)
(0.122257 0.000190381 -0.000922203)
(0.118446 0.000369797 -0.000955822)
(0.123817 0.000311307 -0.000851116)
(0.122569 0.000193937 -0.000933458)
(0.118678 0.000371287 -0.000967187)
(0.124153 0.000314544 -0.000861108)
(0.122884 0.00019534 -0.000935165)
(0.118903 0.000371631 -0.00097763)
(0.124487 0.0003134 -0.000867154)
(0.119123 0.000366436 -0.000968994)
(0.114774 0.000553062 -0.00099821)
(0.106724 0.000639092 -0.000886571)
(0.116385 0.000656567 -0.000977384)
(0.114936 0.000551217 -0.00100129)
(0.106716 0.000635625 -0.000890678)
(0.116575 0.000656718 -0.000984335)
(0.11509 0.000548799 -0.00100676)
(0.1067 0.000626471 -0.000885949)
(0.11676 0.000654294 -0.000986355)
(0.115238 0.000547288 -0.00101738)
(0.106675 0.000619466 -0.000888407)
(0.116943 0.000653738 -0.000995553)
(0.115383 0.000541064 -0.00101734)
(0.106637 0.000613169 -0.000891645)
(0.117117 0.000648932 -0.00100078)
(0.106593 0.000598671 -0.000878295)
(0.0993767 0.000662693 -0.000736394)
(0.0799677 0.000600784 -0.000597543)
(0.101402 0.000741124 -0.000792708)
(0.0992072 0.000654045 -0.000734748)
(0.0795791 0.00058756 -0.000590236)
(0.101259 0.000733511 -0.0007909)
(0.099025 0.000643497 -0.000730328)
(0.0791966 0.000562422 -0.000566023)
(0.101107 0.000721513 -0.000781937)
(0.0988276 0.000635213 -0.00072919)
(0.0788163 0.000537783 -0.000541261)
(0.100946 0.000713986 -0.000777887)
(0.0986195 0.00062214 -0.000720705)
(0.0784482 0.000519641 -0.000523268)
(0.100774 0.000704391 -0.000773624)
(0.0780822 0.000500468 -0.000503143)
(0.0625099 0.000591902 -0.000534784)
(0.0651722 0.000687465 -0.000561188)
(0.0619318 0.000560422 -0.000503138)
(0.0645663 0.000668341 -0.000544795)
(0.0613783 0.00051873 -0.000456205)
(0.0639797 0.000637681 -0.00051693)
(0.0608481 0.000482457 -0.000413186)
(0.0634069 0.000605565 -0.000485183)
(0.0603346 0.000457048 -0.000382718)
(0.0628641 0.000581253 -0.000457933)
(0.0623298 0.00056172 -0.000439289)
(0.0649322 -0.000589611 0.000388133)
(0.0824051 -0.000647 0.000496498)
(0.0667644 -0.000662034 0.000487335)
(0.0644433 -0.000575161 0.00036084)
(0.0821165 -0.00063442 0.000474824)
(0.0662334 -0.000647452 0.000459003)
(0.0639617 -0.000561221 0.000338463)
(0.0818308 -0.000625281 0.000454918)
(0.0657113 -0.000635425 0.000432304)
(0.063485 -0.000543296 0.000320447)
(0.0815459 -0.000616764 0.000438484)
(0.0651965 -0.000622655 0.000409364)
(0.0630127 -0.000511033 0.000297889)
(0.0812638 -0.00060684 0.000423673)
(0.0646862 -0.000605859 0.00038696)
(0.0809831 -0.000583968 0.000400695)
(0.0641884 -0.000579449 0.000359723)
(0.101622 -0.000753585 0.000627836)
(0.109177 -0.000870255 0.000596184)
(0.102758 -0.000795642 0.000731428)
(0.10156 -0.000743829 0.00061258)
(0.109265 -0.000864431 0.000584934)
(0.102684 -0.000785689 0.000720378)
(0.101494 -0.00073869 0.000597907)
(0.10935 -0.000860393 0.000573376)
(0.102608 -0.000776801 0.000706997)
(0.101426 -0.000737127 0.000583728)
(0.109433 -0.000860824 0.00056235)
(0.102528 -0.000768205 0.000691947)
(0.101357 -0.00073248 0.000565369)
(0.109514 -0.000857916 0.000547634)
(0.102446 -0.000763677 0.000677362)
(0.102361 -0.00075355 0.000658669)
(0.117472 -0.0009264 0.000509086)
(0.120901 -0.000848619 0.000354776)
(0.118059 -0.000898723 0.000653583)
(0.117719 -0.000927351 0.000502273)
(0.121206 -0.000849236 0.000348744)
(0.118303 -0.000898551 0.00065087)
(0.117963 -0.000930156 0.000495279)
(0.12151 -0.000850685 0.00034322)
(0.118546 -0.000899226 0.000648172)
(0.118207 -0.000931522 0.000485263)
(0.121815 -0.000855332 0.000337348)
(0.118788 -0.000898246 0.000641523)
(0.122119 -0.000852999 0.000326598)
(0.124845 -0.000780339 0.000194254)
(0.126341 -0.000673777 5.89908e-05)
(0.1252 -0.000703223 0.000361706)
(0.12521 -0.000782102 0.000190004)
(0.126727 -0.000674653 5.5438e-05)
(0.125569 -0.000703177 0.000359796)
(0.125577 -0.000785658 0.000185846)
(0.127114 -0.000677375 5.24742e-05)
(0.125939 -0.000705129 0.000358757)
(0.125945 -0.000785716 0.00017875)
(0.127503 -0.000681491 4.854e-05)
(0.12631 -0.000704757 0.000353699)
(0.127891 -0.000678914 4.1645e-05)
(0.128279 -0.000564317 -8.45919e-05)
(0.128564 -0.000413723 -0.000207745)
(0.128563 -0.000447432 8.789e-05)
(0.128687 -0.000565805 -8.70693e-05)
(0.128978 -0.00041393 -0.000209143)
(0.128977 -0.000447658 8.68735e-05)
(0.129097 -0.000568615 -9.0113e-05)
(0.129392 -0.000415221 -0.000210991)
(0.129392 -0.000449048 8.57351e-05)
(0.129508 -0.000569721 -9.40703e-05)
(0.129808 -0.000417119 -0.000213779)