/*--------------------------------*- C++ -*----------------------------------*\
| =========                 |                                                 |
| \\      /  F ield         | OpenFOAM: The Open Source CFD Toolbox           |
|  \\    /   O peration     | Version:  2212                                  |
|   \\  /    A nd           | Website:  www.openfoam.com                      |
|    \\/     M anipulation  |                                                 |
\*---------------------------------------------------------------------------*/
FoamFile
{
    version     2.0;
    format      ascii;
    arch        "LSB;label=32;scalar=64";
    class       volVectorField;
    location    "2.8";
    object      U;
}
// * * * * * * * * * * * * * * * * * * * * * * * * * * * * * * * * * * * * * //

dimensions      [0 1 -1 0 0 0 0];

internalField   nonuniform List<vector> 
690
(
(0.0896942 -0.00179955 -0.00166129)
(0.0891157 -0.00225926 -0.00182602)
(0.0884431 -0.0024823 -0.00167388)
(0.104183 -0.0020657 -0.00082249)
(0.104402 -0.00235364 -0.000957052)
(0.104585 -0.00251708 -0.00101087)
(0.109691 -0.00183859 -0.000339766)
(0.110131 -0.00203308 -0.000352021)
(0.110533 -0.00216879 -0.000368734)
(0.0860068 -0.000861207 -0.00131106)
(0.0859579 -0.00107487 -0.00143458)
(0.0860116 -0.00126075 -0.00138094)
(0.0859211 -0.00140519 -0.00122946)
(0.0856625 -0.00150485 -0.00104612)
(0.0852564 -0.00155914 -0.000845298)
(0.084737 -0.00157902 -0.0006468)
(0.0841264 -0.00157667 -0.000459623)
(0.0834327 -0.00156279 -0.000280792)
(0.0826764 -0.00154008 -0.000115808)
(0.0818805 -0.0015091 1.79741e-05)
(0.0810608 -0.00147127 0.000125567)
(0.103458 -0.00134291 -0.000507734)
(0.103648 -0.00150023 -0.000714494)
(0.103867 -0.00160793 -0.000825376)
(0.104129 -0.0016801 -0.000854767)
(0.104386 -0.00173271 -0.000823676)
(0.104607 -0.00177191 -0.000738813)
(0.104781 -0.00180154 -0.000632872)
(0.104903 -0.00180349 -0.000514959)
(0.104983 -0.00177425 -0.000390615)
(0.105032 -0.00173377 -0.000266892)
(0.105052 -0.00169319 -0.000146586)
(0.10505 -0.00165101 -3.44108e-05)
(0.10994 -0.00133521 2.53561e-05)
(0.110333 -0.00138624 -5.24489e-05)
(0.110718 -0.0014438 -0.000108721)
(0.111149 -0.00149106 -0.000137406)
(0.111599 -0.00152725 -0.000141913)
(0.112038 -0.00155455 -0.000125912)
(0.11246 -0.00156938 -9.36088e-05)
(0.11286 -0.0015714 -5.11687e-05)
(0.113238 -0.00156102 -3.02971e-06)
(0.113594 -0.00154091 4.8159e-05)
(0.113928 -0.00151501 0.000100253)
(0.114246 -0.00148606 0.000151428)
(0.0800932 0.000270875 -0.000861493)
(0.0803825 4.02915e-05 -0.000845507)
(0.0809653 -0.000153752 -0.000827775)
(0.0814356 -0.000335949 -0.000787516)
(0.0817193 -0.000513413 -0.000690438)
(0.0818409 -0.000671769 -0.000556061)
(0.0818278 -0.000807634 -0.000407395)
(0.0816793 -0.00092089 -0.000263062)
(0.0814018 -0.00101396 -0.000131495)
(0.0810187 -0.00108736 -1.39631e-05)
(0.0805443 -0.00114003 8.80262e-05)
(0.0799943 -0.00117122 0.000174394)
(0.100366 -0.000395476 5.27431e-05)
(0.100683 -0.000534742 -8.09525e-05)
(0.101034 -0.000631755 -0.00017936)
(0.101469 -0.000710605 -0.000244851)
(0.101917 -0.000798084 -0.000273457)
(0.102332 -0.000893646 -0.000264303)
(0.102706 -0.000988819 -0.000231744)
(0.103042 -0.00106111 -0.000192767)
(0.103337 -0.00111462 -0.000143922)
(0.10359 -0.00115969 -8.23063e-05)
(0.103802 -0.001197 -1.30303e-05)
(0.103975 -0.00122557 5.79714e-05)
(0.10849 -0.000731382 0.000576536)
(0.108864 -0.000670263 0.000535344)
(0.109249 -0.000662593 0.000508436)
(0.109709 -0.000681228 0.000478024)
(0.110199 -0.000716582 0.000444696)
(0.110684 -0.00076341 0.000414267)
(0.111157 -0.000815723 0.000390047)
(0.111617 -0.000866801 0.000374271)
(0.112061 -0.000912991 0.000368665)
(0.112486 -0.000953644 0.000372343)
(0.112891 -0.000988779 0.000382811)
(0.113278 -0.0010185 0.000397684)
(0.112523 -0.000628863 0.000828053)
(0.113002 -0.000600563 0.000796171)
(0.113463 -0.000579082 0.000798648)
(0.113971 -0.000564824 0.000800483)
(0.114501 -0.000557121 0.000790874)
(0.115031 -0.000555685 0.000771559)
(0.115554 -0.000559253 0.000746319)
(0.116067 -0.000565372 0.000717843)
(0.116568 -0.000572587 0.000689399)
(0.117055 -0.000580785 0.000663159)
(0.117529 -0.000589759 0.000640005)
(0.117989 -0.000598949 0.000620065)
(0.114406 -0.0002969 0.000783584)
(0.114965 -0.000289232 0.000776383)
(0.115492 -0.000279698 0.000783471)
(0.116052 -0.00026988 0.000790114)
(0.116626 -0.00026124 0.000791026)
(0.117195 -0.000253427 0.000784513)
(0.117756 -0.000246817 0.000771927)
(0.118309 -0.000241158 0.000754244)
(0.11885 -0.000236405 0.000732901)
(0.119378 -0.000232715 0.000709523)
(0.119892 -0.000230033 0.000685557)
(0.120393 -0.000228035 0.0006618)
(0.114944 0.000197187 0.000546014)
(0.115536 0.0001981 0.000559655)
(0.116084 0.000195945 0.000559586)
(0.116659 0.000192547 0.000553016)
(0.117246 0.000190598 0.000548449)
(0.117827 0.000189828 0.000545587)
(0.118402 0.000188385 0.000539726)
(0.11897 0.000186323 0.000531409)
(0.119529 0.000183771 0.000521239)
(0.120075 0.000180929 0.000509944)
(0.120609 0.000178006 0.000498262)
(0.12113 0.000175138 0.000486697)
(0.114406 0.000783095 0.000296921)
(0.114966 0.000775749 0.000289254)
(0.115492 0.000782745 0.000279761)
(0.116052 0.000789339 0.00026996)
(0.116626 0.000790298 0.000261264)
(0.117195 0.000783932 0.000253343)
(0.117756 0.000771574 0.000246573)
(0.118309 0.000754163 0.00024072)
(0.118849 0.000733093 0.00023577)
(0.119377 0.000709959 0.000231895)
(0.119891 0.000686174 0.000229042)
(0.120392 0.000662431 0.000226869)
(0.112697 0.00138033 0.000176369)
(0.113216 0.00142696 0.000139156)
(0.113704 0.00147901 0.000132193)
(0.114237 0.00151047 0.000127111)
(0.114776 0.00151707 0.000115235)
(0.115297 0.00150373 9.77305e-05)
(0.115796 0.00147031 7.72809e-05)
(0.116276 0.00142396 5.69085e-05)
(0.116737 0.00136857 3.82729e-05)
(0.11718 0.00130873 2.2493e-05)
(0.117607 0.00124866 9.88905e-06)
(0.118022 0.00119143 5.25582e-07)
(0.109692 0.00183749 0.000341098)
(0.110131 0.00203296 0.000353696)
(0.110533 0.00216921 0.000370623)
(0.110963 0.00223428 0.000359522)
(0.111372 0.00224588 0.000317876)
(0.111735 0.00221811 0.000254624)
(0.112051 0.00215806 0.000178433)
(0.112332 0.00207935 0.000104516)
(0.112585 0.00199085 3.48665e-05)
(0.11282 0.00189449 -2.68677e-05)
(0.113043 0.00179975 -8.08479e-05)
(0.104187 0.00206099 0.000824146)
(0.104406 0.0023547 0.000958201)
(0.104589 0.00252092 0.00101181)
(0.104712 0.00258231 0.000975289)
(0.104741 0.00257488 0.000867804)
(0.104672 0.00252674 0.000717467)
(0.104526 0.00243144 0.000548133)
(0.104328 0.00231628 0.000381519)
(0.104106 0.00217711 0.000230281)
(0.103876 0.00204314 9.66084e-05)
(0.103648 0.00192155 -1.97092e-05)
(0.0896856 0.00179989 0.00166195)
(0.0891082 0.00225851 0.00182637)
(0.0884365 0.00248071 0.00167485)
(0.0875005 0.00250191 0.00142972)
(0.0863595 0.00242646 0.00114351)
(0.0851 0.00231171 0.000856617)
(0.0837968 0.00218735 0.000599785)
(0.0824846 0.00206242 0.000355989)
(0.0811896 0.00193565 0.000151102)
(0.0799416 0.00180825 -1.22059e-05)
(0.0787612 0.00168635 -0.000129699)
(0.0722771 0.00181845 -0.00027269)
(0.073334 0.00147727 -7.95806e-05)
(0.074312 0.00100775 -7.31671e-05)
(0.0749889 0.000601293 -0.000129191)
(0.0753867 0.000252991 -0.000133127)
(0.0756061 -3.46798e-05 -9.89188e-05)
(0.0756678 -0.000267292 -4.97515e-05)
(0.0755887 -0.00045205 1.52136e-06)
(0.0753882 -0.000595791 5.01633e-05)
(0.0750841 -0.000707448 9.90574e-05)
(0.0746943 -0.00079609 0.000148755)
(0.0742326 -0.000864765 0.000196157)
(0.0965107 0.00043546 0.000817755)
(0.0968599 0.000390874 0.000999085)
(0.0972236 0.000286657 0.000973685)
(0.0976333 0.000161767 0.000830447)
(0.098034 8.56321e-06 0.000685767)
(0.0984053 -0.000142735 0.000558099)
(0.0987593 -0.000279337 0.000451539)
(0.0990904 -0.0004052 0.000377522)
(0.0993903 -0.00051778 0.00033292)
(0.0996569 -0.000615638 0.00030865)
(0.099888 -0.000699151 0.000299159)
(0.100085 -0.000768303 0.00029842)
(0.106155 -0.000218783 0.00141972)
(0.10646 -0.000127749 0.00148862)
(0.106784 -6.74639e-05 0.00151599)
(0.107197 -4.67577e-05 0.00146929)
(0.107621 -6.38968e-05 0.00137465)
(0.108025 -0.000108578 0.00125775)
(0.108413 -0.000169912 0.00114298)
(0.108791 -0.000240677 0.00103926)
(0.10916 -0.000314767 0.000952061)
(0.109523 -0.000387901 0.00088131)
(0.109878 -0.000457226 0.000824873)
(0.110224 -0.000520636 0.000779242)
(0.110466 -0.000331736 0.00157955)
(0.110973 -0.000304929 0.00163755)
(0.111434 -0.00026772 0.00169389)
(0.111949 -0.000226319 0.00170499)
(0.112461 -0.000190141 0.00167246)
(0.11294 -0.000163344 0.00160863)
(0.113389 -0.000149608 0.00152468)
(0.113814 -0.000145719 0.00143228)
(0.114224 -0.000150382 0.00133994)
(0.11462 -0.000162579 0.00125395)
(0.115006 -0.000180087 0.00117518)
(0.115384 -0.00020072 0.00110414)
(0.112697 -0.00017677 0.00138065)
(0.113216 -0.00013967 0.00142733)
(0.113704 -0.000132569 0.00147958)
(0.114236 -0.000127319 0.00151137)
(0.114776 -0.000115339 0.00151819)
(0.115297 -9.78071e-05 0.00150485)
(0.115796 -7.73894e-05 0.00147126)
(0.116276 -5.70729e-05 0.00142463)
(0.116737 -3.85257e-05 0.00136901)
(0.11718 -2.28629e-05 0.00130898)
(0.117608 -1.04483e-05 0.00124876)
(0.118024 -1.12615e-06 0.00119115)
(0.113351 0.000231224 0.00102958)
(0.113839 0.000232771 0.0010379)
(0.114307 0.000218584 0.00105185)
(0.114814 0.000204629 0.00106442)
(0.115343 0.000196107 0.00107247)
(0.115872 0.000192988 0.00107486)
(0.116395 0.000194546 0.00107159)
(0.116909 0.000199251 0.00106216)
(0.11741 0.00020594 0.00104665)
(0.117896 0.000214189 0.00102685)
(0.118366 0.000223535 0.00100507)
(0.118823 0.000233457 0.00098296)
(0.112523 0.000827187 0.000628813)
(0.113002 0.000794964 0.000600533)
(0.113464 0.000797372 0.000579186)
(0.113971 0.000799231 0.000565032)
(0.114502 0.000789757 0.00055734)
(0.115032 0.000770724 0.000555803)
(0.115554 0.000745862 0.000559156)
(0.116067 0.000717796 0.000564963)
(0.116568 0.000689732 0.000571825)
(0.117055 0.000663768 0.000579669)
(0.117528 0.000640683 0.000588297)
(0.117989 0.000620943 0.000597259)
(0.110467 0.0015787 0.000331456)
(0.110974 0.00163627 0.000304578)
(0.111435 0.00169246 0.000267561)
(0.111951 0.00170344 0.000226389)
(0.112462 0.00167098 0.000190411)
(0.112942 0.00160742 0.000163718)
(0.11339 0.00152386 0.000149986)
(0.113816 0.00143194 0.000145937)
(0.114225 0.00134003 0.000150333)
(0.11462 0.00125425 0.000162167)
(0.115006 0.00117502 0.00017901)
(0.115384 0.00110415 0.000199172)
(0.107366 0.00220622 0.000471376)
(0.107812 0.00251508 0.000418823)
(0.108215 0.00267166 0.000353781)
(0.108626 0.00267952 0.000258379)
(0.108964 0.00260015 0.000155547)
(0.109211 0.00246616 5.94887e-05)
(0.109395 0.00229898 -1.95323e-05)
(0.109548 0.00212823 -7.63383e-05)
(0.109682 0.00197093 -0.00011348)
(0.109813 0.00182169 -0.000128146)
(0.109953 0.00168627 -0.000134595)
(0.101699 0.00262153 0.0010492)
(0.102139 0.00318349 0.000987728)
(0.102342 0.0033461 0.000843477)
(0.102292 0.00325066 0.000652787)
(0.102007 0.00306974 0.000446631)
(0.101564 0.00281649 0.00024714)
(0.101063 0.0025389 7.30639e-05)
(0.100561 0.00227438 -6.25167e-05)
(0.10008 0.0020447 -0.000159136)
(0.0996439 0.00184848 -0.000226187)
(0.0992592 0.00168347 -0.000272348)
(0.0896872 0.00268317 0.00198267)
(0.0881479 0.00349378 0.00194444)
(0.08629 0.00350561 0.00160472)
(0.0840296 0.00325518 0.00118529)
(0.0816539 0.00295386 0.000752587)
(0.0793697 0.00263737 0.000407641)
(0.0772649 0.00233428 0.000154822)
(0.0753641 0.00205807 -2.35501e-05)
(0.0736733 0.00181672 -0.000148454)
(0.0721788 0.00161782 -0.000230225)
(0.0708602 0.00145993 -0.000263069)
(0.0640978 0.00255568 0.000510643)
(0.0653313 0.00210459 0.000806524)
(0.0660107 0.00161692 0.000427577)
(0.0660272 0.00107176 0.000233599)
(0.0657944 0.000593539 0.000223833)
(0.0655417 0.000230722 0.000242817)
(0.065278 -2.93448e-05 0.000254877)
(0.0649715 -0.000213673 0.000260484)
(0.064619 -0.000346922 0.000264825)
(0.064224 -0.000445527 0.000275221)
(0.0637984 -0.000518848 0.000287902)
(0.0633312 -0.000575288 0.000307524)
(0.0924986 0.000517353 0.00198714)
(0.0925459 0.000482498 0.00229202)
(0.0925344 0.00052943 0.0021009)
(0.0924257 0.000529155 0.00176104)
(0.0922871 0.000445857 0.00145587)
(0.0921981 0.000314173 0.00121048)
(0.0921633 0.000173815 0.00102212)
(0.0921657 3.96353e-05 0.000879896)
(0.0921881 -7.99003e-05 0.000773427)
(0.0922189 -0.000184941 0.000695093)
(0.0922506 -0.000272864 0.00063409)
(0.0922712 -0.000348186 0.000591167)
(0.102183 -0.000185312 0.00237102)
(0.102705 -0.000170763 0.00268351)
(0.10303 -4.0161e-05 0.00269838)
(0.103296 0.000103619 0.00254089)
(0.103451 0.000196603 0.00231753)
(0.103526 0.000231939 0.00207726)
(0.103573 0.000220845 0.00185047)
(0.103626 0.000179224 0.00165572)
(0.103697 0.000120072 0.00149142)
(0.103792 5.14438e-05 0.00135904)
(0.10391 -1.84417e-05 0.00125256)
(0.104049 -8.35106e-05 0.00116143)
(0.107365 -0.000472214 0.00220711)
(0.10781 -0.000419998 0.00251629)
(0.108212 -0.000354721 0.00267282)
(0.108622 -0.000258892 0.00268093)
(0.10896 -0.000155466 0.00260162)
(0.109206 -5.88205e-05 0.00246757)
(0.10939 2.05695e-05 0.0023002)
(0.109542 7.75138e-05 0.00212886)
(0.109677 0.000114565 0.00197105)
(0.109807 0.000128943 0.00182151)
(0.109947 0.000133717 0.0016876)
(0.1101 0.000130851 0.00156887)
(0.109692 -0.000341899 0.00183771)
(0.110131 -0.000354725 0.00203289)
(0.110533 -0.000371562 0.00216943)
(0.110963 -0.000360313 0.00223509)
(0.111372 -0.000318484 0.00224722)
(0.111734 -0.000255027 0.00221971)
(0.112051 -0.000178575 0.00215963)
(0.112331 -0.000104468 0.00208076)
(0.112585 -3.46662e-05 0.00199215)
(0.11282 2.7147e-05 0.00189562)
(0.113043 8.07884e-05 0.00180081)
(0.113261 0.000126609 0.00171122)
(0.10994 2.45149e-05 0.00133461)
(0.110333 -5.39149e-05 0.00138583)
(0.110719 -0.000110838 0.00144405)
(0.111151 -0.000139851 0.00149201)
(0.1116 -0.000144149 0.00152861)
(0.11204 -0.0001274 0.0015559)
(0.112462 -9.41077e-05 0.00157034)
(0.112863 -5.07869e-05 0.00157178)
(0.113241 -1.94678e-06 0.00156075)
(0.113596 4.96745e-05 0.00154)
(0.113931 0.000101885 0.00151354)
(0.114249 0.000153016 0.00148422)
(0.108491 0.000576125 0.000731605)
(0.108865 0.000534253 0.000670511)
(0.10925 0.000506833 0.000662851)
(0.109709 0.000476122 0.000681504)
(0.1102 0.000442913 0.000716887)
(0.110686 0.000413029 0.000763698)
(0.111159 0.000389495 0.000815836)
(0.111619 0.000374293 0.000866562)
(0.112063 0.000369162 0.000912394)
(0.112487 0.000373148 0.000952736)
(0.112892 0.000383334 0.000987557)
(0.113279 0.000398156 0.00101705)
(0.106156 0.00141852 0.000218751)
(0.106462 0.0014865 0.000127771)
(0.106786 0.00151426 6.82436e-05)
(0.107199 0.00146761 4.773e-05)
(0.107624 0.00137324 6.4851e-05)
(0.108028 0.00125693 0.000109336)
(0.108416 0.00114275 0.000170367)
(0.108794 0.00103956 0.000240796)
(0.109164 0.000952838 0.000314558)
(0.109526 0.000882333 0.000387361)
(0.109881 0.00082389 0.00045589)
(0.110226 0.00077702 0.000518528)
(0.102185 0.00236944 0.000184671)
(0.102709 0.00268167 0.000170159)
(0.103036 0.00269807 4.08434e-05)
(0.103303 0.00254054 -0.000102635)
(0.10346 0.00231736 -0.000195324)
(0.103536 0.00207775 -0.000230282)
(0.103584 0.00185149 -0.000219184)
(0.103637 0.0016569 -0.000177814)
(0.103708 0.00149271 -0.000119003)
(0.103804 0.00136197 -5.01056e-05)
(0.103921 0.00125037 1.69732e-05)
(0.0951021 0.00328715 0.000940738)
(0.0959417 0.00397087 0.000762923)
(0.0960553 0.00377354 0.000397119)
(0.0955895 0.00327434 6.30206e-05)
(0.0948297 0.00273265 -0.000169628)
(0.0940239 0.00225614 -0.000314129)
(0.0932733 0.00186973 -0.00037733)
(0.092609 0.00157375 -0.000376305)
(0.092043 0.00135693 -0.00035518)
(0.0915729 0.00120143 -0.000313232)
(0.0911724 0.00107632 -0.000265827)
(0.0841587 0.0036213 0.00189693)
(0.080514 0.00431157 0.00162561)
(0.0766396 0.00380359 0.000962467)
(0.0726729 0.00316903 0.000382564)
(0.0692619 0.0025854 5.26908e-05)
(0.0665347 0.00209121 -0.00010201)
(0.0643805 0.00171028 -0.000181763)
(0.0626787 0.00140214 -0.00021229)
(0.0613118 0.00115521 -0.000210555)
(0.0601716 0.000988568 -0.000193858)
(0.0591955 0.000893525 -0.000163246)
(0.0556353 0.000975526 0.00334741)
(0.0530922 0.000649192 0.00266892)
(0.0514402 0.000885223 0.000957424)
(0.050299 0.000840299 4.46453e-05)
(0.0496284 0.000590106 -2.40809e-05)
(0.0491869 0.000336987 -1.26968e-06)
(0.0487605 0.000159141 1.25534e-05)
(0.0483048 4.12146e-05 2.26573e-05)
(0.0478409 -4.13059e-05 3.66259e-05)
(0.0473731 -0.000101224 5.72352e-05)
(0.0468758 -0.000143436 7.96967e-05)
(0.046408 -0.000174241 0.000109231)
(0.0817922 -0.000641867 0.00441492)
(0.0829844 -0.000452613 0.00432085)
(0.0824801 1.97148e-05 0.00330285)
(0.0811886 0.000346491 0.00222044)
(0.0799618 0.000463501 0.00153004)
(0.0790176 0.000450421 0.00109147)
(0.0782974 0.000395056 0.000809083)
(0.0777091 0.000304833 0.000641423)
(0.0771962 0.000209005 0.000542347)
(0.0767275 0.000132951 0.00046152)
(0.0762979 6.7129e-05 0.000411152)
(0.075869 2.50286e-05 0.000350958)
(0.0951015 -0.000941231 0.00328892)
(0.0959381 -0.000763568 0.00397254)
(0.0960472 -0.000397311 0.00377452)
(0.0955765 -6.34444e-05 0.00327586)
(0.0948121 0.000169803 0.00273346)
(0.0940038 0.00031476 0.00225603)
(0.0932525 0.000378052 0.00186947)
(0.0925887 0.0003772 0.00157288)
(0.0920255 0.000356208 0.00135506)
(0.0915541 0.00031571 0.00119542)
(0.0911643 0.000265772 0.00107965)
(0.09083 0.00021889 0.000982137)
(0.101698 -0.0010494 0.00262024)
(0.102137 -0.000988581 0.00318173)
(0.102339 -0.000844766 0.00334588)
(0.102286 -0.000653901 0.00325148)
(0.101998 -0.000446988 0.00307117)
(0.101553 -0.000246739 0.00281835)
(0.101049 -7.21168e-05 0.00254069)
(0.100545 6.38007e-05 0.00227592)
(0.100063 0.000160586 0.00204589)
(0.0996267 0.00022827 0.00184858)
(0.0992433 0.000272552 0.00168605)
(0.0989134 0.00029664 0.00154614)
(0.104188 -0.000825023 0.00205903)
(0.104409 -0.000959862 0.00235138)
(0.104592 -0.00101345 0.0025202)
(0.104715 -0.000976793 0.00258372)
(0.104742 -0.000869051 0.00257769)
(0.104672 -0.000718485 0.00252953)
(0.104524 -0.000548927 0.00243339)
(0.104325 -0.000381824 0.00231836)
(0.104102 -0.000229996 0.00217924)
(0.103871 -9.57384e-05 0.00204525)
(0.103643 2.0327e-05 0.00192395)
(0.103428 0.000118473 0.00181078)
(0.10346 -0.000508395 0.00134046)
(0.103651 -0.000715336 0.00149786)
(0.103871 -0.000826475 0.00160703)
(0.104133 -0.000856188 0.00168101)
(0.10439 -0.000825531 0.00173421)
(0.104611 -0.000740533 0.00177353)
(0.104785 -0.000634429 0.00180296)
(0.104907 -0.000515673 0.00180476)
(0.104987 -0.000390286 0.0017753)
(0.105036 -0.000265712 0.00173431)
(0.105056 -0.000144919 0.00169318)
(0.105054 -3.26485e-05 0.00165027)
(0.100367 5.30549e-05 0.000395912)
(0.100684 -8.06989e-05 0.000534995)
(0.101036 -0.000179916 0.000631491)
(0.101471 -0.000246078 0.000710259)
(0.101919 -0.000274926 0.000797808)
(0.102335 -0.000265625 0.000893386)
(0.102709 -0.000232743 0.000988588)
(0.103045 -0.000193374 0.00106085)
(0.10334 -0.000144044 0.00111439)
(0.103594 -8.19961e-05 0.00115948)
(0.103806 -1.29603e-05 0.00119696)
(0.103978 5.75346e-05 0.00122564)
(0.0965115 0.000818317 -0.000434665)
(0.0968606 0.00099964 -0.000390078)
(0.097225 0.000973628 -0.000286128)
(0.0976356 0.00082998 -0.000161322)
(0.0980369 0.000685013 -8.41954e-06)
(0.0984085 0.000557251 0.000142374)
(0.0987626 0.000450907 0.000278777)
(0.0990936 0.000377138 0.000404593)
(0.0993933 0.000332811 0.000517225)
(0.0996603 0.000309665 0.000615241)
(0.0998919 0.00029864 0.000699203)
(0.10009 0.00029556 0.000768598)
(0.0924992 0.00198772 -0.000517119)
(0.0925463 0.00229345 -0.00048216)
(0.0925361 0.00210288 -0.000528788)
(0.0924291 0.00176274 -0.000528757)
(0.0922919 0.00145787 -0.000445154)
(0.092203 0.00121288 -0.000313019)
(0.0921673 0.00102387 -0.000172683)
(0.0921687 0.000880538 -3.91153e-05)
(0.0921892 0.000774147 8.05485e-05)
(0.0922221 0.000696834 0.000185947)
(0.0922472 0.000631262 0.000271123)
(0.0817905 0.00441487 0.000641953)
(0.0829789 0.00432142 0.000452731)
(0.0824744 0.00330338 -1.98796e-05)
(0.0811812 0.00222077 -0.000347103)
(0.0799518 0.00153084 -0.000463873)
(0.0790062 0.00109375 -0.000450164)
(0.0782834 0.000811586 -0.000394242)
(0.0776934 0.000643082 -0.00030399)
(0.0771796 0.000538886 -0.000210165)
(0.0767132 0.000479221 -0.000124479)
(0.0762658 0.000399634 -7.14207e-05)
(0.0693731 0.0034801 0.000903323)
(0.0627626 0.00369188 0.000698449)
(0.0575774 0.00295422 0.00029535)
(0.0534094 0.00210978 1.4634e-05)
(0.0506695 0.00128198 -0.000138561)
(0.0489729 0.000831481 -0.000152186)
(0.0477659 0.000640362 -0.000111932)
(0.046782 0.00053833 -7.32645e-05)
(0.0459638 0.000452098 -4.6878e-05)
(0.0452402 0.000378893 -3.08696e-05)
(0.0446287 0.000324317 -2.13719e-05)
(0.0481962 -0.000525863 0.00335497)
(0.0393677 0.000253775 0.00146364)
(0.0354887 0.000484804 0.000284927)
(0.0332099 0.000398536 0.000122423)
(0.0319559 0.000263605 9.95529e-05)
(0.0312063 0.000153493 7.97196e-05)
(0.0306082 8.11466e-05 6.05463e-05)
(0.0300644 3.67825e-05 4.73483e-05)
(0.0295774 9.6766e-06 3.91794e-05)
(0.0291394 -7.74213e-06 3.52188e-05)
(0.0287156 -1.83427e-05 3.62969e-05)
(0.0283286 -2.3067e-05 3.96428e-05)
(0.0693755 -0.000903124 0.00347987)
(0.062767 -0.000698266 0.00369141)
(0.0575847 -0.000295456 0.0029532)
(0.0534208 -1.53108e-05 0.00210991)
(0.0506849 0.000137472 0.0012824)
(0.0489906 0.000150586 0.000832317)
(0.0477823 0.000110203 0.000641378)
(0.0467976 7.22878e-05 0.000538879)
(0.0459732 4.69737e-05 0.000452694)
(0.0452669 3.123e-05 0.000379121)
(0.0446091 2.31408e-05 0.000321818)
(0.0440328 1.97315e-05 0.000278984)
(0.0841605 -0.00189565 0.00361926)
(0.0805209 -0.00162364 0.00430699)
(0.0766501 -0.000960352 0.00379806)
(0.0726891 -0.000380975 0.00316354)
(0.0692836 -5.26567e-05 0.00258215)
(0.0665596 0.000101323 0.00209142)
(0.0644076 0.000180402 0.00171246)
(0.0627063 0.000210923 0.00140532)
(0.0613379 0.000210051 0.00115809)
(0.0601978 0.000191368 0.000995018)
(0.0592126 0.000165872 0.000890298)
(0.0583364 0.000134304 0.00083373)
(0.089687 -0.00198108 0.00268174)
(0.0881476 -0.00194242 0.00349052)
(0.0862895 -0.00160287 0.00350175)
(0.0840294 -0.00118391 0.00325127)
(0.0816533 -0.000751855 0.0029509)
(0.0793687 -0.000407169 0.00263631)
(0.0772637 -0.00015442 0.00233488)
(0.075363 2.3736e-05 0.00205983)
(0.073672 0.000148536 0.00181916)
(0.0721772 0.000229848 0.00162146)
(0.0708562 0.000264571 0.00146126)
(0.0696866 0.000278085 0.00133579)
(0.0896848 -0.00166154 0.00180052)
(0.0891047 -0.00182627 0.00225917)
(0.088432 -0.00167504 0.00248079)
(0.0874956 -0.00143004 0.00250104)
(0.0863539 -0.0011439 0.00242544)
(0.0850945 -0.00085695 0.00231131)
(0.0837905 -0.000599909 0.00218782)
(0.0824775 -0.000355855 0.00206372)
(0.0811815 -0.000150792 0.00193773)
(0.0799323 1.25246e-05 0.00181119)
(0.0787501 0.000130557 0.00168959)
(0.0776399 0.000221478 0.00157744)
(0.0860039 -0.00131316 0.000863204)
(0.0859553 -0.00143622 0.00107623)
(0.0860089 -0.00138136 0.00126052)
(0.0859188 -0.00122888 0.00140336)
(0.0856604 -0.00104505 0.00150211)
(0.0852551 -0.00084501 0.00155669)
(0.084737 -0.00064742 0.00157829)
(0.0841277 -0.000460574 0.00157744)
(0.0834348 -0.000281064 0.00156422)
(0.0826785 -0.000114965 0.00154161)
(0.0818819 1.97707e-05 0.00151044)
(0.0810615 0.000128099 0.00147221)
(0.0800935 -0.000863115 -0.000269862)
(0.0803841 -0.000847067 -3.94811e-05)
(0.0809677 -0.000828415 0.00015385)
(0.0814383 -0.000787149 0.000335224)
(0.0817222 -0.000689721 0.00051223)
(0.0818438 -0.000555651 0.000670553)
(0.0818308 -0.000407594 0.000806722)
(0.0816826 -0.000263528 0.00092049)
(0.0814053 -0.000131666 0.00101409)
(0.0810219 -1.35127e-05 0.00108795)
(0.0805469 8.96144e-05 0.00114105)
(0.0799969 0.000177105 0.00117265)
(0.072277 -0.000272438 -0.00181781)
(0.0733348 -7.92185e-05 -0.00147699)
(0.0743135 -7.28433e-05 -0.00100779)
(0.0749909 -0.000128819 -0.000601539)
(0.0753892 -0.000133045 -0.000253528)
(0.0756087 -9.95253e-05 3.37838e-05)
(0.0756706 -5.09658e-05 0.000266155)
(0.0755918 1.90353e-07 0.000451006)
(0.0753916 4.91537e-05 0.000595121)
(0.0750871 9.90415e-05 0.000707307)
(0.0746974 0.0001521 0.000797478)
(0.0742354 0.000203252 0.000867579)
(0.0640964 0.000511849 -0.00255573)
(0.0653293 0.000808405 -0.00210479)
(0.066009 0.000430054 -0.00161678)
(0.0660251 0.000236211 -0.00107121)
(0.0657918 0.000225368 -0.000593522)
(0.0655402 0.000242371 -0.000231723)
(0.0652778 0.000252976 2.77946e-05)
(0.0649725 0.000258318 0.000212222)
(0.06462 0.000263796 0.00034605)
(0.0642262 0.000270999 0.000444162)
(0.0637974 0.000293758 0.000522301)
(0.0556317 0.00334786 -0.000975897)
(0.0530868 0.00266971 -0.000649758)
(0.0514324 0.000959096 -0.000885531)
(0.0502884 4.6447e-05 -0.000840539)
(0.0496153 -2.24157e-05 -0.000590718)
(0.0491728 -2.11227e-07 -0.000337822)
(0.0487481 1.28974e-05 -0.000159854)
(0.0482933 2.23787e-05 -4.16445e-05)
(0.0478352 3.60617e-05 4.081e-05)
(0.0473513 5.41183e-05 0.000100586)
(0.0468957 8.26921e-05 0.000146057)
(0.0481948 0.00335519 0.000525742)
(0.0393656 0.00146385 -0.000253969)
(0.0354852 0.000285632 -0.000485158)
(0.0332045 0.000122871 -0.000398994)
(0.0319493 0.000100102 -0.000264242)
(0.0311993 8.02153e-05 -0.000154216)
(0.0306025 6.07716e-05 -8.18292e-05)
(0.030059 4.73624e-05 -3.71417e-05)
(0.0295772 3.88679e-05 -9.78122e-06)
(0.029126 3.54829e-05 8.31848e-06)
(0.0287249 3.52367e-05 1.88063e-05)
)
;

boundaryField
{
    inlet
    {
        type            fixedValue;
        value           nonuniform List<vector> 0();
    }
    ami1
    {
        type            cyclicAMI;
        value           nonuniform List<vector> 0();
    }
    walls
    {
        type            noSlip;
    }
    ami2
    {
        type            cyclicAMI;
        value           nonuniform List<vector> 
61
(
(0.0900526 -0.00154732 -0.00135522)
(0.104061 -0.00189575 -0.000722566)
(0.109386 -0.00176234 -0.000320352)
(0.0860842 -0.000735382 -0.00114826)
(0.103327 -0.0012525 -0.000386994)
(0.109675 -0.00131592 7.54773e-05)
(0.0800125 0.000282647 -0.000740476)
(0.100114 -0.000339557 0.000145564)
(0.108216 -0.00076731 0.000611073)
(0.112215 -0.00064383 0.000861612)
(0.114037 -0.000300911 0.00080233)
(0.114557 0.000204475 0.00053671)
(0.114038 0.000801915 0.000300943)
(0.112329 0.00136913 0.000197165)
(0.109387 0.00176126 0.000321547)
(0.104064 0.00189165 0.000723944)
(0.0900477 0.00154762 0.00135559)
(0.071488 0.00150842 -0.000127235)
(0.0962872 0.000422895 0.000734651)
(0.105945 -0.000260275 0.00139802)
(0.110059 -0.000350727 0.00158755)
(0.112329 -0.000197436 0.00136941)
(0.113051 0.000229464 0.00102461)
(0.112215 0.000860961 0.000643825)
(0.11006 0.00158697 0.000350573)
(0.107048 0.00207879 0.000487343)
(0.101426 0.00230662 0.000992225)
(0.0906967 0.00219021 0.00164219)
(0.0629885 0.00243574 9.85687e-05)
(0.0926073 0.000550242 0.00162885)
(0.101743 -0.00019298 0.00219753)
(0.107047 -0.000487823 0.00207929)
(0.109387 -0.000322079 0.00176145)
(0.109675 7.4751e-05 0.00131552)
(0.108217 0.000610828 0.000767563)
(0.105946 0.0013974 0.000260422)
(0.101744 0.00219685 0.000192774)
(0.0945676 0.00273498 0.00086536)
(0.0867115 0.00282026 0.00166423)
(0.0586544 0.00151876 0.00194688)
(0.0807522 -0.000468765 0.00343659)
(0.0945674 -0.000865425 0.00273571)
(0.101425 -0.000992297 0.00230597)
(0.104064 -0.00072444 0.00189082)
(0.103329 -0.000387552 0.00125092)
(0.100115 0.00014568 0.000339973)
(0.0962878 0.00073505 -0.000422218)
(0.0926076 0.00162939 -0.0005499)
(0.0807506 0.00343669 0.000468909)
(0.0761317 0.00293099 0.000862935)
(0.0601703 -3.88269e-05 0.00272322)
(0.0761336 -0.000862629 0.00293068)
(0.0867128 -0.00166328 0.00281906)
(0.0906965 -0.00164109 0.00218961)
(0.090047 -0.00135515 0.00154823)
(0.0860819 -0.00114969 0.000736973)
(0.0800124 -0.000741789 -0.000281819)
(0.0714878 -0.0001271 -0.00150788)
(0.0629874 9.93319e-05 -0.00243567)
(0.0586517 0.00194728 -0.00151895)
(0.0601686 0.00272343 3.87927e-05)
)
;
    }
    outlet
    {
        type            zeroGradient;
    }
    procBoundary1to0
    {
        type            processor;
        value           nonuniform List<vector> 
138
(
(0.0875044 -0.0025049 -0.00142815)
(0.0875044 -0.0025049 -0.00142815)
(0.0863623 -0.00243018 -0.00114149)
(0.0851013 -0.00231325 -0.000853795)
(0.0837961 -0.00218664 -0.00059628)
(0.0824814 -0.00206052 -0.000352842)
(0.0811838 -0.00193398 -0.000149188)
(0.0799343 -0.00180804 1.23319e-05)
(0.0787522 -0.00168757 0.000129159)
(0.0776421 -0.00157683 0.000219024)
(0.104709 -0.00257824 -0.000973767)
(0.104709 -0.00257824 -0.000973767)
(0.104739 -0.00257257 -0.000865429)
(0.10467 -0.00252535 -0.000715567)
(0.104522 -0.00243047 -0.000547581)
(0.104324 -0.00231541 -0.0003824)
(0.104101 -0.00217687 -0.0002322)
(0.10387 -0.00204405 -9.89064e-05)
(0.103642 -0.00192403 1.69623e-05)
(0.103426 -0.00181201 0.00011545)
(0.112698 -0.00138034 -0.000175122)
(0.113217 -0.00142618 -0.000137794)
(0.110963 -0.0022333 -0.000357581)
(0.113705 -0.00147764 -0.00013087)
(0.110963 -0.0022333 -0.000357581)
(0.111371 -0.0022446 -0.000316449)
(0.111733 -0.00221734 -0.000254366)
(0.112049 -0.00215805 -0.000179529)
(0.11233 -0.00208036 -0.000106527)
(0.112583 -0.00199275 -3.73502e-05)
(0.112818 -0.00189725 2.42587e-05)
(0.113041 -0.00180321 7.81517e-05)
(0.113258 -0.00171392 0.000124569)
(0.11335 -0.00102971 0.00023222)
(0.113838 -0.00103785 0.000234095)
(0.114307 -0.0010514 0.000220069)
(0.114814 -0.00106364 0.00020607)
(0.115342 -0.00107163 0.000197302)
(0.115871 -0.00107429 0.000193766)
(0.116394 -0.0010715 0.000194833)
(0.116908 -0.00106265 0.000199066)
(0.117409 -0.0010477 0.000205371)
(0.117895 -0.00102841 0.000213361)
(0.118365 -0.00100702 0.000222585)
(0.118822 -0.000985106 0.000232435)
(0.11335 -0.00102971 0.00023222)
(0.113838 -0.00103785 0.000234095)
(0.114307 -0.0010514 0.000220069)
(0.114814 -0.00106364 0.00020607)
(0.115342 -0.00107163 0.000197302)
(0.115871 -0.00107429 0.000193766)
(0.116394 -0.0010715 0.000194833)
(0.116908 -0.00106265 0.000199066)
(0.117409 -0.0010477 0.000205371)
(0.117895 -0.00102841 0.000213361)
(0.118365 -0.00100702 0.000222585)
(0.118822 -0.000985106 0.000232435)
(0.114944 -0.000545767 0.000197845)
(0.115536 -0.000559283 0.000198873)
(0.116084 -0.000559109 0.000196771)