/*--------------------------------*- C++ -*----------------------------------*\
| =========                 |                                                 |
| \\      /  F ield         | OpenFOAM: The Open Source CFD Toolbox           |
|  \\    /   O peration     | Version:  2212                                  |
|   \\  /    A nd           | Website:  www.openfoam.com                      |
|    \\/     M anipulation  |                                                 |
\*---------------------------------------------------------------------------*/
FoamFile
{
    version     2.0;
    format      ascii;
    arch        "LSB;label=32;scalar=64";
    class       volScalarField;
    location    "2.2";
    object      nut;
}
// * * * * * * * * * * * * * * * * * * * * * * * * * * * * * * * * * * * * * //

dimensions      [0 2 -1 0 0 0 0];

internalField   nonuniform List<scalar> 
680
(
6.53256e-06
6.33408e-06
6.16363e-06
6.02207e-06
5.9393e-06
5.85316e-06
1.54527e-05
1.47275e-05
1.40977e-05
1.35528e-05
1.3114e-05
1.2807e-05
2.39077e-05
2.27288e-05
2.16882e-05
2.07676e-05
1.9961e-05
1.92674e-05
3.08087e-05
2.92269e-05
2.78192e-05
2.65591e-05
2.54342e-05
2.45553e-05
3.46267e-05
3.2831e-05
3.12275e-05
2.97852e-05
2.84823e-05
2.73379e-05
3.46327e-05
3.28405e-05
3.12429e-05
2.98105e-05
2.85301e-05
2.7504e-05
3.26035e-05
3.08192e-05
2.92435e-05
2.78458e-05
2.66022e-05
2.54986e-05
2.459e-05
2.52507e-05
2.39157e-05
2.27417e-05
2.17087e-05
2.0801e-05
2.00115e-05
1.93572e-05
1.62972e-05
1.54562e-05
1.47328e-05
1.41065e-05
1.35695e-05
1.31454e-05
1.28541e-05
6.76269e-06
6.53263e-06
6.33405e-06
6.16356e-06
6.02201e-06
5.93925e-06
5.85309e-06
1.54561e-05
1.47328e-05
1.41068e-05
1.35697e-05
1.31456e-05
1.28544e-05
8.64787e-05
7.96894e-05
7.35106e-05
6.79653e-05
6.37675e-05
5.53064e-05
0.000128843
0.000120597
0.000113152
0.000106314
0.000100367
9.43615e-05
0.000154904
0.000145383
0.000136671
0.00012863
0.000121153
0.000114031
0.000167435
0.00015732
0.000148043
0.000139455
0.000131396
0.000123425
0.000167522
0.000157442
0.000148227
0.000139746
0.000131862
0.000124378
0.000165501
0.000155062
0.000145612
0.000137026
0.00012919
0.000122034
0.000115851
0.000138168
0.000128948
0.000120752
0.0001134
0.000106726
0.00010109
9.4655e-05
9.38697e-05
8.64724e-05
7.96846e-05
7.35059e-05
6.79604e-05
6.37616e-05
5.52983e-05
1.6295e-05
1.54529e-05
1.47276e-05
1.40975e-05
1.35527e-05
1.31139e-05
1.28069e-05
2.39159e-05
2.27417e-05
2.17089e-05
2.08012e-05
2.00117e-05
1.93578e-05
0.000128959
0.000120759
0.000113405
0.000106728
0.000101102
9.46822e-05
0.000199913
0.000188469
0.000178047
0.000168498
0.000159673
0.000149948
0.000239369
0.000226275
0.000214304
0.000203278
0.000192933
0.000182308
0.000257805
0.000243909
0.000231188
0.000219448
0.000208403
0.00019732
0.000257856
0.000243976
0.00023128
0.00021958
0.000208575
0.000197379
0.000253828
0.000239447
0.000226382
0.000214457
0.000203506
0.000193301
0.00018306
0.000212527
0.000199911
0.000188466
0.000178042
0.00016849
0.000159664
0.000149932
0.000138093
0.000128846
0.000120598
0.000113151
0.000106311
0.000100364
9.43533e-05
2.52457e-05
2.39078e-05
2.27291e-05
2.16883e-05
2.07676e-05
1.99609e-05
1.92684e-05
3.08194e-05
2.92437e-05
2.7846e-05
2.66024e-05
2.54988e-05
2.45902e-05
0.000155072
0.000145618
0.000137029
0.000129191
0.000122034
0.000115853
0.000239453
0.000226386
0.00021446
0.00020351
0.000193306
0.000183062
0.000287033
0.000271947
0.000258148
0.000245424
0.000233435
0.000221315
0.000309322
0.000293262
0.00027855
0.000264951
0.000252063
0.000238929
0.000309336
0.000293279
0.000278572
0.000264972
0.000252035
0.000238533
0.000303608
0.000287032
0.000271945
0.000258146
0.000245421
0.000233431
0.000221315
0.000253772
0.000239373
0.000226276
0.000214301
0.000203271
0.000192925
0.000182305
0.000165394
0.000154914
0.000145388
0.000136673
0.000128631
0.000121154
0.000114034
3.25968e-05
3.08088e-05
2.9227e-05
2.78193e-05
2.65593e-05
2.54344e-05
2.45557e-05
3.46326e-05
3.28404e-05
3.12429e-05
2.98104e-05
2.85299e-05
2.75039e-05
0.000167522
0.00015744
0.000148224
0.000139739
0.000131854
0.000124367
0.000257857
0.000243975
0.000231278
0.000219576
0.000208569
0.000197369
0.000309336
0.000293279
0.000278572
0.000264972
0.000252033
0.000238524
0.000333603
0.000316498
0.000300807
0.000286276
0.000272482
0.000258594
0.000333602
0.000316497
0.000300806
0.000286276
0.000272481
0.0002586
0.000326939
0.000309322
0.000293261
0.000278549
0.000264948
0.00025206
0.000238934
0.000273072
0.000257808
0.000243909
0.000231186
0.000219445
0.0002084
0.000197319
0.000178555
0.000167442
0.000157324
0.000148045
0.000139457
0.000131398
0.000123429
3.66509e-05
3.46265e-05
3.2831e-05
3.12276e-05
2.97853e-05
2.84826e-05
2.73381e-05
3.46267e-05
3.2831e-05
3.12275e-05
2.97851e-05
2.84821e-05
2.73385e-05
0.000167435
0.000157318
0.000148038
0.000139448
0.000131385
0.000123408
0.000257805
0.000243907
0.000231184
0.000219442
0.000208393
0.000197306
0.000309322
0.000293261
0.000278549
0.000264949
0.000252059
0.000238924
0.000333603
0.000316498
0.000300807
0.000286276
0.000272481
0.000258597
0.000333603
0.000316498
0.000300807
0.000286276
0.000272481
0.000258602
0.000326949
0.000309335
0.000293279
0.000278572
0.000264972
0.000252035
0.000238534
0.000273106
0.000257854
0.000243974
0.00023128
0.000219581
0.000208578
0.000197384
0.000178611
0.000167518
0.00015744
0.000148227
0.000139747
0.000131865
0.000124378
3.66545e-05
3.46323e-05
3.28402e-05
3.12428e-05
2.98104e-05
2.85301e-05
2.75044e-05
3.08087e-05
2.92269e-05
2.78192e-05
2.65591e-05
2.54342e-05
2.45555e-05
0.000154904
0.000145382
0.000136669
0.000128627
0.000121147
0.000114023
0.000239368
0.000226274
0.000214303
0.000203275
0.000192929
0.000182311
0.000287033
0.000271947
0.000258149
0.000245426
0.000233437
0.000221324
0.000309337
0.00029328
0.000278574
0.000264974
0.000252037
0.000238535
0.000309322
0.000293262
0.00027855
0.00026495
0.000252061
0.000238933
0.000303609
0.000287033
0.000271947
0.000258148
0.000245424
0.000233434
0.000221316
0.000253828
0.000239448
0.000226384
0.000214461
0.000203513
0.000193312
0.000183071
0.000165501
0.000155062
0.000145612
0.000137026
0.000129192
0.000122037
0.000115854
3.26035e-05
3.08192e-05
2.92434e-05
2.78458e-05
2.66022e-05
2.54984e-05
2.45878e-05
2.39078e-05
2.27289e-05
2.16882e-05
2.07677e-05
1.99612e-05
1.92681e-05
0.000128843
0.000120599
0.000113156
0.000106322
0.000100368
9.43762e-05
0.000199914
0.000188472
0.000178052
0.000168506
0.000159688
0.00014998
0.000239454
0.000226389
0.000214466
0.000203519
0.000193321
0.000183086
0.000257858
0.000243978
0.000231283
0.000219583
0.000208581
0.000197384
0.000257806
0.000243909
0.000231186
0.000219444
0.000208397
0.00019731
0.000253772
0.000239374
0.000226277
0.000214303
0.000203274
0.000192925
0.0001823
0.000212528
0.000199913
0.00018847
0.000178048
0.0001685
0.000159676
0.000149956
0.000138168
0.000128949
0.000120753
0.000113402
0.000106728
0.000101095
9.46883e-05
2.52507e-05
2.39158e-05
2.27417e-05
2.17087e-05
2.0801e-05
2.00116e-05
1.93575e-05
1.54528e-05
1.47276e-05
1.40978e-05
1.3553e-05
1.31144e-05
1.28077e-05
8.64796e-05
7.96912e-05
7.35136e-05
6.79697e-05
6.37754e-05
5.53196e-05
0.000128961
0.000120761
0.000113408
0.000106733
0.000101111
9.46911e-05
0.000155074
0.00014562
0.000137031
0.000129195
0.000122039
0.000115859
0.000167523
0.000157441
0.000148225
0.000139741
0.000131857
0.000124369
0.000167435
0.000157319
0.000148039
0.000139449
0.000131386
0.000123411
0.000165393
0.000154913
0.000145388
0.000136673
0.00012863
0.000121151
0.000114028
0.000138094
0.000128849
0.000120603
0.000113159
0.000106324
0.00010037
9.43763e-05
9.38705e-05
8.64739e-05
7.9687e-05
7.35096e-05
6.79657e-05
6.37702e-05
5.53151e-05
1.62973e-05
1.54562e-05
1.47328e-05
1.41067e-05
1.35697e-05
1.31457e-05
1.28545e-05
6.53257e-06
6.33411e-06
6.16366e-06
6.02213e-06
5.93934e-06
5.85334e-06
1.54562e-05
1.47329e-05
1.41069e-05
1.357e-05
1.3146e-05
1.2855e-05
2.3916e-05
2.27418e-05
2.1709e-05
2.08014e-05
2.0012e-05
1.9358e-05
3.08194e-05
2.92437e-05
2.78461e-05
2.66025e-05
2.54988e-05
2.45904e-05
3.46326e-05
3.28404e-05
3.12428e-05
2.98104e-05
2.85298e-05
2.75036e-05
3.46266e-05
3.28309e-05
3.12274e-05
2.9785e-05
2.8482e-05
2.73376e-05
3.25969e-05
3.08088e-05
2.9227e-05
2.78193e-05
2.65592e-05
2.54343e-05
2.45555e-05
2.52457e-05
2.39078e-05
2.27291e-05
2.16884e-05
2.07678e-05
1.99613e-05
1.92681e-05
1.62951e-05
1.54529e-05
1.47277e-05
1.40977e-05
1.3553e-05
1.31144e-05
1.28076e-05
6.76272e-06
6.53266e-06
6.3341e-06
6.16363e-06
6.02212e-06
5.93934e-06
5.85331e-06
5.74946e-06
5.29234e-06
4.88385e-06
4.62603e-06
1.13696e-05
1.06108e-05
1.003e-05
9.58364e-06
1.6406e-05
1.55746e-05
1.48846e-05
1.12381e-05
1.04936e-05
9.86722e-06
9.38129e-06
2.46001e-05
2.42428e-05
2.33928e-05
2.28847e-05
4.92291e-05
5.2354e-05
5.10158e-05
1.57894e-05
1.50399e-05
1.4434e-05
5.68438e-05
5.63905e-05
5.31626e-05
0.000111741
0.00010504
9.97408e-05
1.98129e-05
1.90288e-05
1.83477e-05
9.0729e-05
8.41206e-05
7.97256e-05
0.000147402
0.000140867
0.000134678
)
;

boundaryField
{
    inlet
    {
        type            calculated;
        value           nonuniform List<scalar> 0();
    }
    ami1
    {
        type            cyclicAMI;
        value           nonuniform List<scalar> 
100
(
1.42962e-05
1.6154e-05
1.93776e-05
2.66495e-05
2.64534e-05
2.97674e-05
2.57602e-05
2.09041e-05
1.8444e-05
1.42971e-05
1.84437e-05
4.54469e-05
9.13307e-05
0.000107252
0.000118213
0.000117573
0.000109846
9.02967e-05
4.54509e-05
1.61544e-05
2.09042e-05
9.03049e-05
0.000139747
0.000174654
0.000190645
0.00018976
0.000176503
0.00013978
9.13219e-05
1.93777e-05
2.57617e-05
0.000109846
0.000176476
0.000213835
0.000231099
0.000230012
0.000213779
0.00017465
0.000107213
2.66523e-05
2.97754e-05
0.000117556
0.000189722
0.000230018
0.000250652
0.000250644
0.00023104
0.000190652
0.00011822
2.64887e-05
2.64705e-05
0.000118194
0.000190622
0.000231094
0.000250647
0.000250653
0.000230018
0.000189742
0.000117688
2.98416e-05
2.66665e-05
0.000107258
0.000174621
0.000213835
0.000230028
0.00023108
0.000213835
0.000176483
0.000109908
2.57895e-05
1.93806e-05
9.1328e-05
0.000139706
0.000176448
0.000189758
0.000190639
0.000174646
0.000139756
9.03179e-05
2.09055e-05
1.61545e-05
4.54381e-05
9.03243e-05
0.000109862
0.000117583
0.000118217
0.000107263
9.13654e-05
4.54523e-05
1.84442e-05
1.42966e-05
1.8445e-05
2.09048e-05
2.57628e-05
2.97716e-05
2.64623e-05
2.66537e-05
1.93789e-05
1.61546e-05
1.42965e-05
)
;
    }
    walls
    {
        type            nutkWallFunction;
        blending        stepwise;
        value           uniform 0;
    }
    ami2
    {
        type            cyclicAMI;
        value           nonuniform List<scalar> 
12
(
1.59142e-05
1.93907e-05
2.14875e-05
1.71109e-05
2.55309e-05
5.2941e-05
1.71769e-05
6.28803e-05
0.000116874
2.37517e-05
9.58764e-05
0.000151142
)
;
    }
    outlet
    {
        type            calculated;
        value           nonuniform List<scalar> 0();
    }
    procBoundary2to0
    {
        type            processor;
        value           nonuniform List<scalar> 
28
(
4.46844e-06
9.26811e-06
1.43326e-05
2.00082e-05
1.92975e-05
1.43326e-05
1.86592e-05
9.05394e-06
1.39003e-05
2.29256e-05
5.03745e-05
5.34852e-05
8.27542e-05
7.92922e-05
5.03745e-05
7.58278e-05
1.39003e-05
5.34852e-05
0.000142373
0.000137526
9.59701e-05
0.000132237
1.77261e-05
7.5822e-05
0.000188314
0.000179618
0.000129155
0.000171794
)
;
    }
    procBoundary2to1
    {
        type            processor;
        value           nonuniform List<scalar> 9(2.31832e-05 2.18901e-05 2.10281e-05 0.000105996 9.94143e-05 9.40687e-05 0.00017018 0.000161933 0.000154588);
    }
    procBoundary2to3
    {
        type            processor;
        value           nonuniform List<scalar> 
110
(
6.76278e-06
1.62953e-05
2.52458e-05
3.2597e-05
3.66509e-05
3.66545e-05
3.66545e-05
3.46334e-05
2.67768e-05
1.72654e-05
7.0257e-06
1.62973e-05
9.38634e-05
0.000138097
0.000165404
0.000178563
0.000178613
0.000178613
0.000177058
0.000148398
0.000102135
1.72646e-05
2.52506e-05
0.000138157
0.000212527
0.000253776
0.000273075
0.000273107
0.000273107
0.00026972
0.000226481
0.000148358
2.67737e-05
3.26033e-05
0.000165491
0.000253824
0.000303608
0.000326939
0.000326948
0.000326948
0.000321896
0.000269687
0.000177002
3.46295e-05
3.66543e-05
0.000178607
0.000273104
0.000326948
0.000352325
0.000352324
0.000352324
0.000346332
0.000289923
0.000190855
3.89473e-05
3.66509e-05
0.000178561
0.000273074
0.000326939
0.000352325
0.000352325
0.000352325
0.000346338
0.000289944
0.000190885
3.89494e-05
3.2597e-05
0.000165404
0.000253777
0.000303609
0.000326948
0.000326939
0.000326939
0.000321897
0.00026972
0.000177058
3.46334e-05
2.52459e-05
0.000138099
0.000212529
0.000253826
0.000273105
0.000273072
0.000273072
0.000269688
0.000226483
0.000148398
2.67768e-05
1.62953e-05
9.38648e-05
0.000138159
0.000165492
0.000178607
0.000178558
0.000178558
0.000177002
0.000148361
0.000102136
1.72655e-05
6.7628e-06
1.62974e-05
2.52506e-05
3.26033e-05
3.66543e-05
3.66508e-05
3.66508e-05
3.46295e-05
2.67738e-05
1.72646e-05
7.02572e-06
)
;
    }
}


// ************************************************************************* //
