/*--------------------------------*- C++ -*----------------------------------*\
| =========                 |                                                 |
| \\      /  F ield         | OpenFOAM: The Open Source CFD Toolbox           |
|  \\    /   O peration     | Version:  2212                                  |
|   \\  /    A nd           | Website:  www.openfoam.com                      |
|    \\/     M anipulation  |                                                 |
\*---------------------------------------------------------------------------*/
FoamFile
{
    version     2.0;
    format      ascii;
    arch        "LSB;label=32;scalar=64";
    class       volScalarField;
    location    "2.75";
    object      p;
}
// * * * * * * * * * * * * * * * * * * * * * * * * * * * * * * * * * * * * * //

dimensions      [0 2 -2 0 0 0 0];

internalField   nonuniform List<scalar> 
690
(
0.0032288
0.0030963
0.0029657
0.00283702
0.00270957
0.00258359
0.00245889
0.00233576
0.00221277
0.00209129
0.0019722
0.00323032
0.0030946
0.00296164
0.00283136
0.00270281
0.0025761
0.00245094
0.00232754
0.00220459
0.00208366
0.00196558
0.00322405
0.00308913
0.00295654
0.00282629
0.00269768
0.00257081
0.00244536
0.00232161
0.00219831
0.00207714
0.00195822
0.00323555
0.00310115
0.00296876
0.00283834
0.00270951
0.00258219
0.00245607
0.00233136
0.00220715
0.00208352
0.00196137
0.00323466
0.00310178
0.00297062
0.00284098
0.00271273
0.00258579
0.00246005
0.00233551
0.0022122
0.0020901
0.00196907
0.00322697
0.00309879
0.0029711
0.00284411
0.00271765
0.00259231
0.002468
0.00234501
0.00222195
0.00209992
0.00198002
0.00323542
0.00310413
0.00297412
0.00284559
0.00271838
0.00259267
0.00246807
0.0023451
0.00222209
0.00210059
0.00198073
0.00322181
0.00309219
0.00296317
0.00283474
0.0027076
0.00258187
0.00245736
0.0023338
0.00221121
0.00208949
0.00196837
0.00322978
0.00309931
0.00296965
0.00284089
0.00271343
0.00258715
0.00246211
0.00233796
0.0022153
0.00209333
0.00197194
0.00323293
0.00310218
0.00297247
0.00284389
0.00271652
0.00259032
0.00246532
0.00234133
0.00221851
0.00209653
0.00197557
0.00321516
0.00308706
0.00295979
0.00283294
0.00270684
0.00258188
0.00245783
0.00233503
0.0022124
0.00209142
0.00197207
0.0032178
0.00308687
0.00295745
0.0028295
0.00270308
0.00257804
0.00245429
0.00233141
0.00220973
0.0020894
0.00196964
0.00319153
0.00306271
0.00293457
0.00280725
0.00268102
0.00255568
0.00243155
0.00230827
0.00218736
0.00206706
0.00194715
0.00319142
0.00306178
0.0029332
0.00280566
0.00267925
0.00255378
0.00242946
0.00230629
0.00218505
0.00206476
0.0019452
0.00319037
0.00306026
0.00293144
0.00280372
0.00267722
0.00255188
0.00242768
0.00230458
0.00218262
0.00206167
0.00194195
0.00322062
0.00308907
0.00295964
0.00283211
0.00270593
0.00258087
0.0024568
0.00233377
0.00221167
0.00209087
0.00197112
0.00322661
0.00309441
0.00296391
0.00283544
0.0027085
0.00258263
0.00245796
0.00233438
0.00221232
0.00209106
0.00197061
0.0031926
0.0030617
0.00293223
0.00280416
0.00267733
0.00255153
0.00242689
0.00230365
0.00218215
0.00206157
0.00194205
0.00318401
0.00305343
0.00292426
0.00279637
0.00266978
0.00254442
0.00242024
0.00229732
0.00217582
0.00205551
0.00193624
0.00317742
0.00304699
0.00291797
0.00279021
0.00266374
0.00253854
0.00241455
0.00229173
0.00217006
0.00204952
0.00193002
0.00322842
0.00309693
0.002967
0.00283861
0.0027115
0.0025856
0.00246084
0.00233722
0.0022147
0.00209331
0.00197303
0.00323711
0.00310435
0.00297328
0.00284386
0.00271589
0.00258925
0.00246394
0.00233992
0.00221714
0.0020953
0.00197442
0.00319557
0.00306406
0.00293401
0.00280539
0.00267815
0.00255218
0.00242751
0.0023041
0.00218191
0.00206082
0.0019408
0.00318017
0.00304927
0.00291986
0.00279188
0.00266523
0.00253987
0.00241572
0.00229275
0.00217097
0.00205033
0.00193069
0.00317046
0.00303969
0.00291052
0.00278276
0.0026563
0.0025311
0.00240711
0.00228429
0.00216259
0.00204199
0.00192236
0.00316874
0.00303791
0.00290867
0.00278086
0.00265439
0.0025292
0.00240524
0.00228244
0.00216076
0.00204017
0.00192054
0.00323294
0.00310093
0.00297041
0.00284123
0.00271334
0.00258677
0.00246146
0.00233737
0.00221446
0.00209274
0.00197226
0.00323771
0.00310606
0.00297561
0.00284646
0.00271863
0.00259208
0.00246686
0.0023428
0.00221979
0.00209772
0.00197667
0.0031942
0.00306338
0.00293378
0.00280535
0.00267832
0.00255266
0.00242822
0.00230489
0.00218267
0.00206152
0.00194128
0.00317813
0.00304746
0.00291823
0.00279031
0.00266372
0.00253843
0.00241437
0.00229147
0.0021697
0.00204905
0.00192938
0.00316873
0.00303791
0.00290867
0.00278087
0.00265441
0.00252923
0.00240527
0.00228247
0.00216079
0.0020402
0.00192056
0.00316559
0.00303498
0.00290587
0.00277814
0.00265172
0.00252657
0.00240264
0.00227988
0.00215823
0.00203767
0.00191805
0.00323456
0.00310171
0.00297056
0.0028409
0.00271264
0.00258569
0.00245995
0.00233542
0.00221212
0.00209004
0.00196898
0.00323289
0.00310211
0.0029724
0.00284383
0.00271646
0.00259024
0.00246521
0.00234119
0.00221832
0.00209624
0.00197527
0.00319035
0.0030602
0.00293136
0.00280366
0.00267717
0.00255183
0.00242762
0.00230449
0.00218249
0.00206148
0.00194173
0.00317739
0.00304697
0.00291795
0.0027902
0.00266375
0.00253856
0.00241456
0.00229173
0.00217005
0.0020495
0.00193
0.00317046
0.0030397
0.00291053
0.00278277
0.00265632
0.00253113
0.00240714
0.00228431
0.0021626
0.00204199
0.00192236
0.00316873
0.00303791
0.00290867
0.00278086
0.00265439
0.0025292
0.00240524
0.00228244
0.00216076
0.00204016
0.00192052
0.00323543
0.00310111
0.00296874
0.00283828
0.00270941
0.00258204
0.00245593
0.00233125
0.00220709
0.00208358
0.00196128
0.00184108
0.00322976
0.0030992
0.00296951
0.00284077
0.00271331
0.00258703
0.00246198
0.00233787
0.00221506
0.00209284
0.00197172
0.00185199
0.00319147
0.0030617
0.00293307
0.00280555
0.00267916
0.00255372
0.00242938
0.00230616
0.0021848
0.00206431
0.00194488
0.00318404
0.00305342
0.00292423
0.00279635
0.00266977
0.00254441
0.00242023
0.00229729
0.00217574
0.00205538
0.00193614
0.00318018
0.00304927
0.00291985
0.00279186
0.00266521
0.00253985
0.00241569
0.00229272
0.00217092
0.00205026
0.00193062
0.00317817
0.00304749
0.00291823
0.00279028
0.00266368
0.00253838
0.00241431
0.0022914
0.00216962
0.00204896
0.00192928
0.00322396
0.00308924
0.00295669
0.00282636
0.00269768
0.00257072
0.00244522
0.00232133
0.00219824
0.00207737
0.00195784
0.00183948
0.00322182
0.00309214
0.00296311
0.00283468
0.00270751
0.00258174
0.00245721
0.00233369
0.002211
0.0020892
0.00196843
0.00184893
0.00319166
0.00306264
0.00293446
0.00280717
0.00268095
0.00255562
0.00243148
0.00230824
0.00218707
0.00206648
0.00194694
0.0031926
0.00306167
0.00293219
0.00280413
0.00267732
0.00255152
0.00242688
0.00230363
0.00218206
0.00206141
0.00194193
0.00319552
0.00306404
0.00293399
0.00280536
0.00267812
0.00255214
0.00242747
0.00230404
0.00218184
0.00206071
0.00194067
0.00319419
0.00306339
0.00293378
0.00280534
0.00267828
0.0025526
0.00242814
0.0023048
0.00218256
0.00206138
0.00194113
0.00323005
0.00309462
0.00296177
0.00283142
0.0027028
0.00257598
0.00245076
0.00232726
0.00220441
0.00208374
0.0019648
0.00184683
0.00323513
0.00310403
0.00297409
0.00284551
0.00271824
0.00259247
0.00246783
0.00234473
0.00222186
0.00210062
0.00198035
0.00186108
0.0032178
0.00308686
0.00295742
0.00282946
0.00270298
0.0025779
0.0024541
0.00233116
0.00220942
0.00208903
0.00196944
0.00322645
0.00309428
0.00296382
0.00283538
0.00270842
0.00258251
0.00245782
0.00233418
0.0022121
0.00209082
0.00197029
0.00323696
0.00310423
0.00297319
0.00284375
0.00271577
0.00258911
0.00246379
0.00233976
0.00221695
0.00209509
0.00197414
0.00323764
0.00310602
0.00297557
0.00284641
0.00271855
0.00259198
0.00246673
0.00234265
0.0022196
0.0020975
0.00197641
0.00322846
0.00309621
0.00296571
0.00283697
0.00270948
0.00258341
0.00245867
0.00233546
0.00221255
0.00209126
0.00197146
0.00185287
0.00322655
0.00309859
0.00297101
0.00284398
0.00271749
0.00259209
0.00246775
0.0023447
0.0022217
0.0020998
0.00197921
0.0018601
0.00321511
0.00308705
0.00295975
0.00283283
0.00270669
0.0025817
0.0024576
0.0023348
0.00221215
0.00209108
0.00197167
0.00322057
0.00308905
0.00295959
0.00283202
0.00270581
0.00258072
0.00245663
0.00233355
0.0022114
0.00209053
0.00197077
0.00322839
0.00309688
0.00296691
0.00283849
0.00271136
0.00258545
0.00246066
0.00233701
0.00221447
0.00209304
0.00197272
0.00323295
0.00310091
0.00297037
0.00284117
0.00271325
0.00258664
0.00246132
0.0023372
0.00221427
0.00209252
0.001972
)
;

boundaryField
{
    inlet
    {
        type            zeroGradient;
    }
    ami1
    {
        type            cyclicAMI;
        value           nonuniform List<scalar> 0();
    }
    walls
    {
        type            zeroGradient;
    }
    ami2
    {
        type            cyclicAMI;
        value           nonuniform List<scalar> 0();
    }
    outlet
    {
        type            fixedValue;
        value           nonuniform List<scalar> 0();
    }
    procBoundary8to0
    {
        type            processor;
        value           nonuniform List<scalar> 
29
(
0.00335851
0.00336403
0.00335979
0.00337157
0.00336928
0.00335205
0.00336565
0.00335383
0.00336177
0.00336485
0.0033425
0.00335096
0.003324
0.0033233
0.00332207
0.00335242
0.00336139
0.00332613
0.00331656
0.00330944
0.00336108
0.00337188
0.0033289
0.00331275
0.00330288
0.00330112
0.00331034
0.00330111
0.00329771
)
;
    }
    procBoundary8to1
    {
        type            processor;
        value           nonuniform List<scalar> 
33
(
0.0033665
0.00337068
0.00332656
0.00336917
0.00336481
0.00332205
0.00330941
0.00330288
0.0033011
0.00337143
0.00336176
0.00332334
0.00331656
0.00331273
0.00331035
0.00335963
0.00335378
0.00332406
0.00332605
0.00332878
0.0033265
0.00336387
0.00336537
0.00335081
0.00336115
0.00337172
0.0033706
0.00335833
0.00335181
0.00334251
0.00335235
0.00336106
0.00336654
)
;
    }
    procBoundary8to7
    {
        type            processor;
        value           nonuniform List<scalar> 
68
(
0.00185333
0.00184733
0.00183991
0.00184123
0.00184896
0.00186055
0.00186155
0.00184919
0.00185228
0.00185597
0.00185356
0.00185121
0.00182896
0.00182654
0.00182336
0.00185239
0.00185096
0.00182373
0.00181774
0.00181148
0.00185351
0.00185446
0.00182203
0.00181204
0.00180372
0.0018019
0.00185282
0.00185678
0.00182219
0.00181071
0.0018019
0.00179943
0.00184879
0.00184879
0.00185565
0.00185565
0.00182318
0.00181146
0.00180371
0.00180187
0.00172242
0.00173398
0.00182623
0.00182623
0.00181765
0.00181197
0.0018106
0.0017217
0.00173106
0.00182863
0.00182863
0.00182358
0.00182189
0.00182203
0.00172871
0.00174214
0.00185067
0.00185067
0.00185056
0.00185416
0.00185649
0.00173438
0.00174122
0.00185316
0.00185316
0.00185194
0.00185316
0.0018525
)
;
    }
    procBoundary8to9
    {
        type            processor;
        value           nonuniform List<scalar> 
132
(
0.00323302
0.00310101
0.00297051
0.00284134
0.00271344
0.00258685
0.00246152
0.00233742
0.00221451
0.00209278
0.00197231
0.00323775
0.00310611
0.00297566
0.00284651
0.00271867
0.00259214
0.00246693
0.00234288
0.00221989
0.00209786
0.00197683
0.00319426
0.00306347
0.00293387
0.00280542
0.00267837
0.00255272
0.00242828
0.00230498
0.00218277
0.00206162
0.00194141
0.00317819
0.00304752
0.00291828
0.00279033
0.00266373
0.00253843
0.00241437
0.00229147
0.0021697
0.00204906
0.00192939
0.00317819
0.00304752
0.00291828
0.00279033
0.00266373
0.00253843
0.00241437
0.00229147
0.0021697
0.00204906
0.00192939
0.00317049
0.00303973
0.00291055
0.00278277
0.00265631
0.00253112
0.00240713
0.00228431
0.00216261
0.00204201
0.00192238
0.00316873
0.00303791
0.00290867
0.00278086
0.00265439
0.00252921
0.00240525
0.00228245
0.00216077
0.00204018
0.00192055
0.00317048
0.00303971
0.00291052
0.00278275
0.00265629
0.00253109
0.0024071
0.00228428
0.00216257
0.00204197
0.00192234
0.00317751
0.00304704
0.00291795
0.00279016
0.0026637
0.0025385
0.0024145
0.00229167
0.00216998
0.00204945
0.00192994
0.00319048
0.00306031
0.00293138
0.00280363
0.00267712
0.00255178
0.00242752
0.00230442
0.00218234
0.00206139
0.00194159
0.00323291
0.00310215
0.0029724
0.00284381
0.00271642
0.0025902
0.00246508
0.00234114
0.00221811
0.00209599
0.00197494
0.00323448
0.00310162
0.00297052
0.00284087
0.00271258
0.00258559
0.00245985
0.00233527
0.00221201
0.00208989
0.00196882
)
;
    }
}


// ************************************************************************* //
