/*--------------------------------*- C++ -*----------------------------------*\
| =========                 |                                                 |
| \\      /  F ield         | OpenFOAM: The Open Source CFD Toolbox           |
|  \\    /   O peration     | Version:  2212                                  |
|   \\  /    A nd           | Website:  www.openfoam.com                      |
|    \\/     M anipulation  |                                                 |
\*---------------------------------------------------------------------------*/
FoamFile
{
    version     2.0;
    format      ascii;
    arch        "LSB;label=32;scalar=64";
    class       volVectorField;
    location    "2.75";
    object      U;
}
// * * * * * * * * * * * * * * * * * * * * * * * * * * * * * * * * * * * * * //

dimensions      [0 1 -1 0 0 0 0];

internalField   nonuniform List<vector> 
690
(
(0.0278535 -4.7258e-05 -1.35566e-05)
(0.0274752 -5.20096e-05 -8.38708e-06)
(0.0271068 -5.29862e-05 -2.57363e-06)
(0.0267453 -5.08466e-05 1.33124e-06)
(0.0264028 -4.93758e-05 3.55325e-06)
(0.0260695 -4.79942e-05 5.06707e-06)
(0.0257549 -4.63828e-05 6.23067e-06)
(0.0254506 -4.41464e-05 7.33024e-06)
(0.025157 -4.32571e-05 7.51774e-06)
(0.0248711 -4.17317e-05 6.39677e-06)
(0.0246004 -3.95251e-05 4.98432e-06)
(0.0457828 -0.000148066 -0.000180952)
(0.0452887 -0.000165285 -0.000188706)
(0.0448147 -0.000174365 -0.000189803)
(0.0443368 -0.000181194 -0.000189341)
(0.043883 -0.000185056 -0.000187076)
(0.0434325 -0.000185636 -0.00018286)
(0.0430023 -0.000186786 -0.000177941)
(0.0425735 -0.000187014 -0.000171028)
(0.0421466 -0.000189684 -0.000164801)
(0.0417303 -0.000188036 -0.000155293)
(0.0413262 -0.000180676 -0.000140848)
(0.0628 -0.000352538 -0.000576814)
(0.0622714 -0.000354507 -0.000596795)
(0.0617552 -0.000348814 -0.000604523)
(0.0612023 -0.000345444 -0.000608178)
(0.0606653 -0.000343518 -0.000608096)
(0.0601024 -0.00034199 -0.000604478)
(0.0595526 -0.000343031 -0.000597728)
(0.0589876 -0.000347663 -0.000589131)
(0.0584165 -0.000350604 -0.000576404)
(0.0578625 -0.000324452 -0.000534833)
(0.0573124 -0.000285306 -0.000476697)
(0.0735901 -0.000282859 -0.000847662)
(0.0730235 -0.000317566 -0.000875494)
(0.0724176 -0.000341886 -0.000890079)
(0.0717789 -0.000361046 -0.00089708)
(0.0711182 -0.000376806 -0.000898583)
(0.0704414 -0.000389781 -0.000895528)
(0.0697518 -0.000399431 -0.000887577)
(0.0690646 -0.000408389 -0.000877115)
(0.0683667 -0.000411957 -0.00086338)
(0.0676918 -0.000410688 -0.000844217)
(0.067019 -0.000409693 -0.000822405)
(0.0792115 -0.000309512 -0.00110542)
(0.0785875 -0.000363555 -0.00111335)
(0.077928 -0.000403167 -0.001113)
(0.077244 -0.000433887 -0.00110694)
(0.0765427 -0.000457836 -0.00109671)
(0.0758302 -0.000475841 -0.00108325)
(0.0751122 -0.000488076 -0.0010678)
(0.0743934 -0.00049605 -0.00105195)
(0.0736771 -0.000498168 -0.00103653)
(0.0729621 -0.000493208 -0.00102081)
(0.0722485 -0.000482574 -0.00100421)
(0.0433248 -0.000242419 4.31854e-05)
(0.0427483 -0.000208893 4.48084e-05)
(0.042205 -0.000178374 4.88901e-05)
(0.0416685 -0.000156086 5.14792e-05)
(0.0411666 -0.000138568 5.27462e-05)
(0.040675 -0.000123228 5.28229e-05)
(0.0402163 -0.000111067 5.16431e-05)
(0.0397698 -9.90703e-05 4.95768e-05)
(0.0393466 -9.01633e-05 4.69379e-05)
(0.0389473 -8.19843e-05 4.3994e-05)
(0.0385735 -7.88751e-05 3.83657e-05)
(0.0755869 -0.000338138 1.57145e-05)
(0.0751592 -0.000351838 -2.62392e-05)
(0.0747602 -0.000351271 -5.1929e-05)
(0.0743291 -0.000339082 -6.63071e-05)
(0.0739349 -0.000326413 -7.58636e-05)
(0.0735094 -0.00031301 -8.15397e-05)
(0.0731125 -0.000298161 -8.40833e-05)
(0.0726978 -0.000277427 -8.28431e-05)
(0.0722894 -0.000270326 -8.53274e-05)
(0.0718854 -0.00028209 -9.40965e-05)
(0.0714586 -0.000284029 -9.90262e-05)
(0.0924333 -0.000612406 -0.000353355)
(0.0924179 -0.00058529 -0.000407337)
(0.0923709 -0.000561376 -0.00044757)
(0.0923209 -0.000538503 -0.000476426)
(0.0922431 -0.000522431 -0.0004993)
(0.0921593 -0.000508153 -0.000515139)
(0.092048 -0.00050064 -0.000528586)
(0.0919303 -0.000486617 -0.000532404)
(0.0917947 -0.000488364 -0.000540272)
(0.091649 -0.00048987 -0.000542287)
(0.091475 -0.00048759 -0.000536552)
(0.10027 -0.000389479 -0.000756323)
(0.100395 -0.000402726 -0.000808232)
(0.100482 -0.00041756 -0.000845634)
(0.100544 -0.000430937 -0.000872774)
(0.100574 -0.000444473 -0.000892478)
(0.100583 -0.000456955 -0.000904958)
(0.100567 -0.000472765 -0.000915397)
(0.100531 -0.000482972 -0.000916923)
(0.100484 -0.000497093 -0.000918672)
(0.10041 -0.000508115 -0.000913433)
(0.10033 -0.000510654 -0.000899255)
(0.104019 -0.000206679 -0.00116311)
(0.104132 -0.000271516 -0.00118051)
(0.104212 -0.000330193 -0.00118982)
(0.104264 -0.000381098 -0.00119178)
(0.104291 -0.000424803 -0.00118829)
(0.104296 -0.000462087 -0.00118095)
(0.104283 -0.000493737 -0.00117066)
(0.104254 -0.000519465 -0.00115882)
(0.104214 -0.000540097 -0.00114314)
(0.104161 -0.000554152 -0.00112161)
(0.104102 -0.000564533 -0.00110068)
(0.0574491 -0.000731333 0.000150275)
(0.0567036 -0.00060967 0.000125003)
(0.0560426 -0.000527612 0.000102832)
(0.0553969 -0.00047963 8.54964e-05)
(0.0548208 -0.000447684 7.38143e-05)
(0.0542419 -0.000421164 6.53526e-05)
(0.0537197 -0.000398893 5.76042e-05)
(0.0531977 -0.000379453 4.95474e-05)
(0.0527099 -0.000358502 4.43557e-05)
(0.0522463 -0.000334176 4.28958e-05)
(0.0517946 -0.00031553 4.05505e-05)
(0.0907454 -0.000922312 0.000203173)
(0.0904937 -0.000885398 0.000155475)
(0.0902584 -0.000840341 0.000117098)
(0.0900577 -0.000804425 8.48865e-05)
(0.0898603 -0.000771247 5.89706e-05)
(0.0896868 -0.000740046 3.76565e-05)
(0.0895056 -0.000715761 1.90933e-05)
(0.0893347 -0.000683854 5.19242e-06)
(0.0891586 -0.000671807 -9.66127e-06)
(0.0889798 -0.000654325 -2.17054e-05)
(0.088791 -0.000636117 -3.22707e-05)
(0.104386 -0.00112881 -8.9393e-05)
(0.104532 -0.00106702 -0.000148856)
(0.104679 -0.00101619 -0.000201474)
(0.104841 -0.000976765 -0.000247077)
(0.104993 -0.000944679 -0.000285381)
(0.105155 -0.000916039 -0.000316459)
(0.105307 -0.000887426 -0.000340526)
(0.105464 -0.000862774 -0.000359969)
(0.105615 -0.000851233 -0.000378683)
(0.105757 -0.000844045 -0.000394033)
(0.105895 -0.000842018 -0.000406587)
(0.110651 -0.000816444 -0.000507969)
(0.110965 -0.000788631 -0.000561523)
(0.111271 -0.000768747 -0.000607295)
(0.111569 -0.000754371 -0.000645352)
(0.111855 -0.000744441 -0.000676859)
(0.112131 -0.00073745 -0.000702541)
(0.112398 -0.000732464 -0.000723145)
(0.112653 -0.000728033 -0.000738767)
(0.112902 -0.000727866 -0.000750792)
(0.113137 -0.000731249 -0.000759872)
(0.113367 -0.000738802 -0.000767598)
(0.113644 -0.000489127 -0.000966072)
(0.113995 -0.000507858 -0.000988236)
(0.114332 -0.000527899 -0.0010048)
(0.114654 -0.000547001 -0.00101663)
(0.114962 -0.000565041 -0.00102438)
(0.115258 -0.000581626 -0.00102877)
(0.115543 -0.000596628 -0.00103048)
(0.115817 -0.000610017 -0.00102977)
(0.116082 -0.000622824 -0.00102626)
(0.116339 -0.000635101 -0.00102041)
(0.116588 -0.000646568 -0.00101226)
(0.0685493 -0.00118357 0.000331962)
(0.0676204 -0.00108633 0.000322755)
(0.0667739 -0.0010032 0.000307826)
(0.065992 -0.000936641 0.000291539)
(0.0652688 -0.000881655 0.000275566)
(0.0645902 -0.000833899 0.000260609)
(0.0639527 -0.000791781 0.000247145)
(0.0633451 -0.000755737 0.000234076)
(0.0627655 -0.000718766 0.000223531)
(0.0622107 -0.00068346 0.000213442)
(0.0616713 -0.000653677 0.000202911)
(0.098702 -0.00140704 0.000342454)
(0.098466 -0.00130628 0.000349188)
(0.0982663 -0.0012163 0.000348704)
(0.098105 -0.00113851 0.000343866)
(0.0979628 -0.00107167 0.000335649)
(0.09785 -0.00101519 0.000324953)
(0.0977491 -0.000968813 0.000312976)
(0.0976651 -0.000929971 0.000301217)
(0.0975883 -0.000897607 0.000288989)
(0.0975177 -0.000864142 0.000275873)
(0.0974574 -0.000835441 0.000262233)
(0.110366 -0.00147329 0.000159632)
(0.110532 -0.00138494 0.000144444)
(0.110713 -0.00130844 0.000126061)
(0.110906 -0.00124276 0.000106556)
(0.111109 -0.00118731 8.73586e-05)
(0.111321 -0.00114064 6.95285e-05)
(0.111538 -0.00110013 5.3493e-05)
(0.111761 -0.00106464 3.93918e-05)
(0.111988 -0.00103605 2.50101e-05)
(0.112216 -0.00101241 1.07704e-05)
(0.112446 -0.000990721 -2.54514e-06)
(0.11583 -0.00107925 -0.00017446)
(0.116189 -0.00102369 -0.000198141)
(0.116545 -0.000976844 -0.000221249)
(0.116899 -0.000937249 -0.000242805)
(0.11725 -0.000903853 -0.00026239)
(0.117599 -0.000875481 -0.000279739)
(0.117943 -0.000851223 -0.000294861)
(0.118285 -0.000830766 -0.00030786)
(0.118623 -0.000814883 -0.00031966)
(0.118957 -0.000803203 -0.000330512)
(0.119289 -0.000794489 -0.000340048)
(0.118465 -0.000649424 -0.000558024)
(0.118897 -0.000634288 -0.0005682)
(0.11932 -0.000622453 -0.00057715)
(0.119734 -0.000613218 -0.000584549)
(0.120139 -0.00060607 -0.000590388)
(0.120535 -0.000600538 -0.00059476)
(0.120925 -0.000596245 -0.000597799)
(0.121308 -0.000593047 -0.000599614)
(0.121684 -0.000591117 -0.000600254)
(0.122055 -0.000590655 -0.000600045)
(0.122421 -0.000591228 -0.000598851)
(0.076441 -0.00140419 0.000336515)
(0.0754976 -0.0013191 0.000376933)
(0.0746049 -0.00124619 0.000404932)
(0.0737591 -0.00118525 0.000422682)
(0.0729565 -0.0011337 0.000432163)
(0.0721938 -0.00108769 0.000435702)
(0.0714653 -0.00104747 0.000433683)
(0.0707667 -0.0010115 0.000427646)
(0.0700943 -0.000977831 0.000419303)
(0.0694459 -0.000946589 0.000408502)
(0.0688185 -0.000916633 0.00039603)
(0.103148 -0.00165154 0.000238324)
(0.102975 -0.00155683 0.000305988)
(0.10282 -0.00147022 0.000358956)
(0.102683 -0.0013924 0.000401535)
(0.102561 -0.00132372 0.000436209)
(0.102456 -0.00126195 0.000460518)
(0.102364 -0.00121143 0.000474728)
(0.102283 -0.0011666 0.000483914)
(0.102213 -0.00112602 0.000488863)
(0.10215 -0.0010885 0.000489922)
(0.102096 -0.00105233 0.0004874)
(0.113481 -0.00159872 0.000205905)
(0.113693 -0.00152159 0.000237139)
(0.113909 -0.00145166 0.000261288)
(0.114129 -0.00138891 0.000280453)
(0.114353 -0.00133314 0.000295195)
(0.114581 -0.00128436 0.000305975)
(0.114813 -0.00124136 0.000314035)
(0.115048 -0.00120333 0.000319616)
(0.115286 -0.00117008 0.000322141)
(0.115526 -0.00114103 0.000322214)
(0.115768 -0.00111422 0.00031991)
(0.118461 -0.00113782 4.48137e-05)
(0.118855 -0.00108835 4.87547e-05)
(0.119243 -0.00104357 5.0628e-05)
(0.119626 -0.00100323 5.10019e-05)
(0.120005 -0.000967146 5.0282e-05)
(0.12038 -0.000935053 4.87533e-05)
(0.120751 -0.000906649 4.6694e-05)
(0.12112 -0.000881702 4.41992e-05)
(0.121486 -0.000860148 4.10678e-05)
(0.12185 -0.000841967 3.73052e-05)
(0.122211 -0.000826058 3.3059e-05)
(0.120908 -0.000653375 -0.000194088)
(0.121382 -0.000629317 -0.000193276)
(0.121845 -0.000608615 -0.000193419)
(0.122299 -0.000590795 -0.000194065)
(0.122745 -0.000575397 -0.000194904)
(0.123183 -0.000562075 -0.000195781)
(0.123614 -0.000550555 -0.00019661)
(0.124039 -0.00054066 -0.000197371)
(0.124458 -0.000532323 -0.000198086)
(0.124872 -0.000525606 -0.000198847)
(0.125282 -0.000519979 -0.000199555)
(0.121658 -0.000195008 -0.00046341)
(0.12215 -0.000191609 -0.000452861)
(0.12263 -0.000188396 -0.000442837)
(0.1231 -0.00018541 -0.000433379)
(0.123561 -0.000182678 -0.000424604)
(0.124014 -0.000180209 -0.000416588)
(0.124459 -0.000177992 -0.000409328)
(0.124897 -0.000176018 -0.000402808)
(0.125329 -0.00017429 -0.000397008)
(0.125756 -0.000172851 -0.000392021)
(0.126178 -0.000171553 -0.000387476)
(0.0800289 -0.00134668 0.000278488)
(0.0792447 -0.00130692 0.000347336)
(0.0784628 -0.00126713 0.000391458)
(0.0776876 -0.0012292 0.00042476)
(0.0769221 -0.00119428 0.00045022)
(0.0761687 -0.00116234 0.000468753)
(0.0754286 -0.00113246 0.000480766)
(0.074703 -0.00110414 0.000486866)
(0.0739921 -0.00107759 0.000488523)
(0.0732947 -0.00105249 0.000486614)
(0.0726119 -0.0010292 0.000481187)
(0.104892 -0.00153062 0.000127103)
(0.104874 -0.00148447 0.000218383)
(0.104843 -0.0014382 0.000295834)
(0.104803 -0.0013983 0.000359653)
(0.104754 -0.00136118 0.000412528)
(0.104699 -0.00132289 0.000455807)
(0.104642 -0.00128673 0.000490529)
(0.104582 -0.00125287 0.000518027)
(0.104522 -0.00122092 0.000539837)
(0.104461 -0.00119082 0.000559077)
(0.104401 -0.00115786 0.000569347)
(0.114513 -0.00139242 0.000258131)
(0.114809 -0.0013621 0.000304451)
(0.115093 -0.00133128 0.00034615)
(0.115369 -0.00129953 0.00038195)
(0.11564 -0.00126994 0.00041231)
(0.115905 -0.00124213 0.000438232)
(0.116165 -0.00121603 0.000460119)
(0.11642 -0.00119165 0.000478327)
(0.116673 -0.00116866 0.000493193)
(0.116922 -0.00114735 0.000505289)
(0.117168 -0.00112587 0.000514778)
(0.119275 -0.000929585 0.000283647)
(0.119705 -0.000909207 0.000292966)
(0.120125 -0.000889333 0.000301581)
(0.120536 -0.000869577 0.000309851)
(0.120938 -0.00085065 0.000316915)
(0.121333 -0.000832872 0.000322726)
(0.121723 -0.000816299 0.000327402)
(0.122106 -0.000800917 0.000331071)
(0.122484 -0.000786688 0.00033385)
(0.122859 -0.000773744 0.000335976)
(0.123229 -0.000761187 0.000337403)
(0.121659 -0.000463596 0.000194099)
(0.12215 -0.000452804 0.000190987)
(0.122631 -0.000442603 0.000188014)
(0.123101 -0.000433028 0.000185237)
(0.123562 -0.000424174 0.000182695)
(0.124015 -0.000416096 0.000180398)
(0.12446 -0.000408783 0.000178327)
(0.124898 -0.000402219 0.000176462)
(0.12533 -0.000396393 0.000174795)
(0.125757 -0.000391367 0.000173357)
(0.126179 -0.000386792 0.000172021)
(0.122388 -1.94897e-07 -5.11911e-07)
(0.122898 -1.10544e-07 -4.96063e-07)
(0.123397 -4.98194e-08 -4.66405e-07)
(0.123885 -9.2909e-09 -4.29447e-07)
(0.124364 2.0915e-08 -3.95797e-07)
(0.124833 4.68129e-08 -3.71899e-07)
(0.125295 6.65982e-08 -3.63751e-07)
(0.125748 7.53213e-08 -3.76818e-07)
(0.126196 6.63048e-08 -4.13503e-07)
(0.126637 3.79341e-08 -4.79126e-07)
(0.127073 -1.78918e-08 -5.76591e-07)
(0.0792055 -0.00110789 0.000305042)
(0.0785814 -0.00111568 0.000360511)
(0.077922 -0.00111513 0.000401301)
(0.0772378 -0.00110888 0.000432781)
(0.0765364 -0.00109854 0.000457146)
(0.0758235 -0.0010851 0.000475274)
(0.0751049 -0.00106987 0.000487647)
(0.0743854 -0.00105435 0.000495846)
(0.0736685 -0.00103936 0.000498395)
(0.0729532 -0.00102425 0.000494212)
(0.0722397 -0.00100785 0.00048333)
(0.104018 -0.00116471 0.00020352)
(0.104131 -0.00118158 0.00026867)
(0.104211 -0.00119064 0.000327779)
(0.104264 -0.00119245 0.000379222)
(0.10429 -0.00118886 0.000423457)
(0.104296 -0.00118146 0.000461274)
(0.104283 -0.00117121 0.000493388)
(0.104255 -0.00115938 0.000519522)
(0.104216 -0.00114406 0.000540281)
(0.104163 -0.00112299 0.000553922)
(0.104106 -0.00110125 0.000563668)
(0.113646 -0.00096693 0.000487764)
(0.113998 -0.000988631 0.000506974)
(0.114334 -0.00100486 0.000527345)
(0.114656 -0.00101647 0.000546794)
(0.114964 -0.00102402 0.000565217)
(0.11526 -0.00102825 0.000582194)
(0.115545 -0.00102983 0.000597491)
(0.11582 -0.00102904 0.000611029)
(0.116085 -0.00102557 0.000623723)
(0.116342 -0.00101963 0.000635379)
(0.116591 -0.00101149 0.000646593)
(0.118468 -0.000558692 0.000648411)
(0.1189 -0.000568558 0.000633837)
(0.119323 -0.000577237 0.000622406)
(0.119736 -0.000584432 0.000613514)
(0.120141 -0.000590117 0.00060667)
(0.120538 -0.000594367 0.000601409)
(0.120927 -0.000597301 0.000597313)
(0.12131 -0.000599017 0.000594197)
(0.121686 -0.000599578 0.000592186)
(0.122057 -0.000599248 0.000591448)
(0.122422 -0.000598015 0.00059185)
(0.12091 -0.000194296 0.000652281)
(0.121384 -0.000193419 0.000628638)
(0.121847 -0.00019351 0.000608267)
(0.122301 -0.000194135 0.000590726)
(0.122747 -0.000194983 0.000575578)
(0.123185 -0.000195886 0.000562478)
(0.123616 -0.000196745 0.000551131)
(0.124041 -0.000197536 0.000541341)
(0.12446 -0.000198282 0.000533028)
(0.124874 -0.000199061 0.000526243)
(0.125283 -0.000199821 0.00052053)
(0.121659 0.000194645 0.00046241)
(0.122151 0.00019145 0.00045186)
(0.122631 0.000188346 0.000441866)
(0.123101 0.00018541 0.000432459)
(0.123562 0.000182714 0.00042373)
(0.124015 0.000180284 0.000415732)
(0.12446 0.000178103 0.00040845)
(0.124899 0.000176152 0.000401859)
(0.125331 0.000174414 0.000395939)
(0.125757 0.000172933 0.000390765)
(0.126179 0.00017154 0.000385973)
(0.0735882 -0.000848631 0.000277697)
(0.0730222 -0.000876518 0.000314549)
(0.0724175 -0.000891081 0.000340457)
(0.0717793 -0.000897976 0.000360304)
(0.07112 -0.000899405 0.00037625)
(0.0704428 -0.000896289 0.000389153)
(0.0697546 -0.000888512 0.000398727)
(0.0690661 -0.000878314 0.000407222)
(0.0683676 -0.00086564 0.000412374)
(0.0676921 -0.000848087 0.000413767)
(0.0670152 -0.000825768 0.000410483)
(0.0663698 -0.000803211 0.00040828)
(0.100272 -0.000756504 0.000386474)
(0.100398 -0.000807819 0.000399822)
(0.100485 -0.000845125 0.000415145)
(0.100548 -0.000872457 0.000429183)
(0.100577 -0.000892028 0.000442952)
(0.100587 -0.000904948 0.000456141)
(0.10057 -0.000915328 0.000472087)
(0.100535 -0.00091657 0.000482194)
(0.100487 -0.000919433 0.000497339)
(0.100416 -0.000912834 0.000506223)
(0.100339 -0.000898836 0.000509485)
(0.100241 -0.000880934 0.000508757)
(0.110656 -0.000508783 0.000816278)
(0.110971 -0.00056172 0.000788592)
(0.111277 -0.000607048 0.000768671)
(0.111574 -0.000644861 0.000754453)
(0.111859 -0.00067619 0.000744742)
(0.112135 -0.000701853 0.0007381)
(0.112401 -0.00072246 0.000733418)
(0.112657 -0.000738141 0.000729287)
(0.112905 -0.000750109 0.000728684)
(0.11314 -0.000758784 0.000730798)
(0.11337 -0.000766506 0.000738282)
(0.115836 -0.00017558 0.00107877)
(0.116194 -0.000198987 0.00102371)
(0.116551 -0.000221777 0.000977164)
(0.116904 -0.000243101 0.000937839)
(0.117255 -0.000262533 0.00090471)
(0.117603 -0.000279795 0.000876593)
(0.117947 -0.000294822 0.000852504)
(0.118288 -0.000307686 0.00083209)
(0.118626 -0.000319231 0.000815924)
(0.118959 -0.000329656 0.000803653)
(0.11929 -0.000339117 0.000794726)
(0.118465 4.44303e-05 0.00113647)
(0.118859 4.82969e-05 0.00108751)
(0.119247 5.01371e-05 0.00104315)
(0.11963 5.04624e-05 0.00100315)
(0.120009 4.96841e-05 0.000967366)
(0.120384 4.81009e-05 0.000935506)
(0.120755 4.60163e-05 0.000907251)
(0.121124 4.3546e-05 0.000882349)
(0.121489 4.05078e-05 0.000860691)
(0.121853 3.68952e-05 0.000842273)
(0.122213 3.27043e-05 0.000826113)
(0.119277 0.000284336 0.00092798)
(0.119707 0.000293493 0.000907935)
(0.120127 0.000301834 0.000888377)
(0.120538 0.00030978 0.000868903)
(0.12094 0.000316591 0.000850166)
(0.121336 0.000322206 0.000832498)
(0.121725 0.000326736 0.000815952)
(0.122108 0.000330318 0.000800518)
(0.122487 0.000333051 0.000786132)
(0.122861 0.000335224 0.000772961)
(0.123231 0.000336645 0.000760051)
(0.0628016 -0.000575726 0.000344858)
(0.0622735 -0.000596739 0.000349811)
(0.0617581 -0.000604967 0.000346558)
(0.0612052 -0.000608601 0.000344154)
(0.0606689 -0.000608456 0.000342514)
(0.0601055 -0.000604849 0.000341066)
(0.0595572 -0.000598161 0.000341909)
(0.0589899 -0.000589367 0.000345771)
(0.0584255 -0.000578455 0.000350911)
(0.0578634 -0.000538936 0.000326977)
(0.0573078 -0.000479223 0.000284212)
(0.0567898 -0.000438339 0.000265383)
(0.0924343 -0.000355068 0.000611327)
(0.0924181 -0.000407553 0.000582221)
(0.0923717 -0.000447266 0.000557967)
(0.0923212 -0.000476095 0.000535466)
(0.0922439 -0.000499049 0.000519862)
(0.0921596 -0.000515284 0.000506393)
(0.0920484 -0.00052854 0.000498623)
(0.0919304 -0.000534954 0.000489196)
(0.0917911 -0.000541255 0.00048823)
(0.0916495 -0.000538558 0.000481483)
(0.09148 -0.000538238 0.000488721)
(0.0912938 -0.000528392 0.000484917)
(0.104391 -9.15977e-05 0.00113108)
(0.104537 -0.000150229 0.00106837)
(0.104683 -0.000202005 0.00101646)
(0.104845 -0.000247159 0.000976682)
(0.104996 -0.000285304 0.000944703)
(0.105156 -0.000316344 0.000916286)
(0.105307 -0.000340387 0.000887783)
(0.105464 -0.000360168 0.000863871)
(0.105613 -0.000378533 0.000851674)
(0.105756 -0.000392787 0.00084235)
(0.105895 -0.00040639 0.000842486)
(0.110374 0.000157605 0.00147339)
(0.11054 0.000142515 0.00138514)
(0.11072 0.000124465 0.0013087)
(0.110913 0.000105235 0.00124315)
(0.111115 8.62139e-05 0.00118785)
(0.111326 6.85117e-05 0.00114131)
(0.111542 5.26043e-05 0.00110084)
(0.111764 3.86121e-05 0.00106537)
(0.111989 2.47654e-05 0.00103639)
(0.112216 1.1423e-05 0.00101197)
(0.112446 -1.88001e-06 0.000990477)
(0.113487 0.000205331 0.00159714)
(0.1137 0.000236248 0.00152037)
(0.113916 0.000260246 0.00145073)
(0.114136 0.000279279 0.00138828)
(0.11436 0.000293925 0.00133277)
(0.114587 0.000304636 0.00128417)
(0.114819 0.000312685 0.00124126)
(0.115053 0.000318332 0.00120325)
(0.115291 0.000321073 0.00116988)
(0.11553 0.000321497 0.00114059)
(0.115772 0.000319391 0.00111357)
(0.114516 0.000259057 0.00139057)
(0.114813 0.000305204 0.00136048)
(0.115097 0.00034653 0.00132994)
(0.115374 0.000381904 0.00129851)
(0.115645 0.000411912 0.00126906)
(0.11591 0.00043759 0.00124134)
(0.11617 0.000459272 0.00121526)
(0.116426 0.000477413 0.00119082)
(0.116677 0.000492178 0.00116766)
(0.116927 0.00050436 0.00114607)
(0.117173 0.000513815 0.00112413)
(0.0457936 -0.000181793 0.000143649)
(0.0453025 -0.000189992 0.000162001)
(0.0448282 -0.000191186 0.000171948)
(0.0443524 -0.000190592 0.000179267)
(0.0438983 -0.000188254 0.000183584)
(0.0434483 -0.000184017 0.000184613)
(0.0430181 -0.000179101 0.000186021)
(0.0425884 -0.000172427 0.00018703)
(0.0421619 -0.0001661 0.000189378)
(0.0417472 -0.000156208 0.000186474)
(0.0413343 -0.000141619 0.000178989)
(0.0409479 -0.000127592 0.000172143)
(0.0755856 1.20853e-05 0.000343414)
(0.0751563 -2.80906e-05 0.000351873)
(0.0747594 -5.31856e-05 0.000349379)
(0.0743293 -6.76799e-05 0.000337577)
(0.0739374 -7.71129e-05 0.000324878)
(0.0735128 -8.28617e-05 0.000311876)
(0.0731185 -8.53773e-05 0.000297191)
(0.0727035 -8.45006e-05 0.000277565)
(0.0723002 -8.67223e-05 0.000270107)
(0.0718941 -9.29897e-05 0.000275658)
(0.0714669 -0.000102907 0.000290835)
(0.0710492 -0.000105701 0.000289339)
(0.0907432 0.000202069 0.000924145)
(0.0904905 0.000154605 0.000886064)
(0.0902549 0.000116194 0.000841365)
(0.0900526 8.40943e-05 0.00080541)
(0.089855 5.83232e-05 0.000772061)
(0.0896805 3.72863e-05 0.000740373)
(0.0894998 1.88477e-05 0.000716262)
(0.0893281 5.45299e-06 0.000683116)
(0.0891541 -9.47516e-06 0.000671299)
(0.0889748 -2.19817e-05 0.000655182)
(0.0887902 -3.20636e-05 0.000635044)
(0.0987066 0.000342078 0.0014042)
(0.0984707 0.000348439 0.00130434)
(0.0982703 0.000347738 0.00121524)
(0.0981083 0.000342821 0.00113792)
(0.0979652 0.000334629 0.00107126)
(0.0978515 0.00032409 0.00101479)
(0.0977499 0.000312375 0.000968441)
(0.0976649 0.000300978 0.000929495)
(0.0975878 0.000289116 0.00089732)
(0.0975167 0.000276355 0.000864825)
(0.0974563 0.000262811 0.000834867)
(0.103155 0.000239049 0.00164831)
(0.102982 0.000306224 0.00155397)
(0.102828 0.00035884 0.00146778)
(0.10269 0.000401383 0.00139028)
(0.102569 0.000435633 0.00132177)
(0.102463 0.000459637 0.00126011)
(0.10237 0.000473817 0.00120971)
(0.102289 0.000483243 0.00116495)
(0.102218 0.000488451 0.00112448)
(0.102155 0.000489806 0.00108722)
(0.102101 0.000487626 0.00105089)
(0.104897 0.000128466 0.00152846)
(0.10488 0.000219733 0.00148234)
(0.10485 0.000296986 0.00143634)
(0.104809 0.000360575 0.00139662)
(0.104761 0.000413135 0.00135961)
(0.104706 0.00045616 0.00132124)
(0.104649 0.000490576 0.00128499)
(0.10459 0.000518081 0.00125098)
(0.104529 0.000539699 0.00121897)
(0.104468 0.000558804 0.00118878)
(0.104408 0.000568977 0.00115555)
(0.0278624 -1.42418e-05 4.65813e-05)
(0.0274871 -9.23466e-06 5.11001e-05)
(0.0271207 -3.53718e-06 5.24196e-05)
(0.0267611 4.12158e-07 5.04213e-05)
(0.0264191 2.75278e-06 4.90018e-05)
(0.0260864 4.41561e-06 4.76947e-05)
(0.0257719 5.70752e-06 4.61585e-05)
(0.025467 6.93432e-06 4.41201e-05)
(0.0251727 7.17362e-06 4.31089e-05)
(0.0248885 6.10079e-06 4.11421e-05)
(0.0246142 4.60294e-06 3.96892e-05)
(0.0243575 4.33651e-06 3.7991e-05)
(0.0433386 4.40784e-05 0.000242346)
(0.0427663 4.51828e-05 0.000209224)
(0.042224 4.8554e-05 0.000178922)
(0.0416909 5.0855e-05 0.000156564)
(0.0411897 5.21564e-05 0.000138985)
(0.0406998 5.25071e-05 0.000123634)
(0.0402417 5.15543e-05 0.000111405)
(0.0397954 4.98108e-05 9.94615e-05)
(0.0393722 4.67857e-05 9.06423e-05)
(0.0389746 4.30823e-05 8.23129e-05)
(0.0385922 3.87132e-05 7.79216e-05)
(0.0382334 3.36583e-05 7.59024e-05)
(0.0574613 0.000155136 0.000724976)
(0.0567177 0.000128401 0.000607317)
(0.0560592 0.000104779 0.000527014)
(0.0554161 8.66785e-05 0.000479267)
(0.0548419 7.46647e-05 0.000447312)
(0.0542649 6.61702e-05 0.0004209)
(0.0537437 5.84166e-05 0.00039879)
(0.0532237 5.04212e-05 0.000379535)
(0.0527351 4.45975e-05 0.000359392)
(0.0522728 4.18199e-05 0.000336612)
(0.05182 4.10565e-05 0.00031514)
(0.0685483 0.000335675 0.0011762)
(0.0676221 0.000325907 0.00107982)
(0.0667788 0.000310369 0.000997517)
(0.066 0.000293612 0.000931595)
(0.0652797 0.000277284 0.000877199)
(0.0646036 0.000262087 0.000830139)
(0.0639682 0.000248501 0.000788719)
(0.0633625 0.000235256 0.000753613)
(0.0627845 0.000224451 0.000717655)
(0.0622311 0.000214093 0.000683226)
(0.061694 0.000203596 0.000653633)
(0.0764381 0.00033957 0.00140087)
(0.075495 0.000379314 0.0013152)
(0.0746032 0.000406869 0.00124187)
(0.0737587 0.000424351 0.00118066)
(0.0729577 0.000433604 0.00112904)
(0.0721969 0.000436931 0.00108316)
(0.0714701 0.000434788 0.00104329)
(0.0707733 0.000428747 0.0010078)
(0.0701027 0.000420508 0.000974533)
(0.0694561 0.000409901 0.000943565)
(0.0688306 0.000397633 0.000914094)
(0.0800278 0.000281144 0.00134639)
(0.0792426 0.000349154 0.00130591)
(0.0784602 0.000393085 0.00126541)
(0.077685 0.000426338 0.00122689)
(0.0769198 0.000451657 0.00119155)
(0.0761671 0.000470009 0.00115932)
(0.0754279 0.000481924 0.0011293)
(0.0747032 0.000487883 0.00110091)
(0.0739934 0.000489729 0.00107438)
(0.0732972 0.000487997 0.00104929)
(0.0726159 0.000482869 0.0010261)
)
;

boundaryField
{
    inlet
    {
        type            fixedValue;
        value           nonuniform List<vector> 0();
    }
    ami1
    {
        type            cyclicAMI;
        value           nonuniform List<vector> 0();
    }
    walls
    {
        type            noSlip;
    }
    ami2
    {
        type            cyclicAMI;
        value           nonuniform List<vector> 0();
    }
    outlet
    {
        type            zeroGradient;
    }
    procBoundary8to0
    {
        type            processor;
        value           nonuniform List<vector> 
29
(
(0.0282564 -4.33719e-05 -1.50783e-05)
(0.0463157 -0.000117081 -0.000162023)
(0.0632905 -0.000324882 -0.00053318)
(0.074108 -0.000234337 -0.000798914)
(0.0797868 -0.000230331 -0.00108471)
(0.0439473 -0.000281395 4.5686e-05)
(0.0759989 -0.000391225 4.75921e-05)
(0.0924408 -0.000658618 -0.000292445)
(0.100113 -0.000386892 -0.000693202)
(0.103868 -0.000138762 -0.00113818)
(0.0582746 -0.000813428 0.000186369)
(0.0910328 -0.0010017 0.000248778)
(0.104255 -0.00121217 -2.74198e-05)
(0.110326 -0.00085724 -0.000447102)
(0.113274 -0.000473227 -0.000937782)
(0.0695866 -0.00128502 0.000333156)
(0.0989828 -0.00152795 0.00032276)
(0.110215 -0.00158072 0.000168608)
(0.115468 -0.00114539 -0.000151232)
(0.118022 -0.000668343 -0.000547109)
(0.077445 -0.00150239 0.000277957)
(0.103338 -0.00175699 0.000152908)
(0.113269 -0.0016828 0.000166382)
(0.11806 -0.00119228 3.8406e-05)
(0.120424 -0.000678791 -0.000195326)
(0.121154 -0.000198512 -0.000474346)
(0.118834 -0.000950669 0.000273864)
(0.121155 -0.000474799 0.000197292)
(0.121865 -2.88295e-07 -5.11561e-07)
)
;
    }
    procBoundary8to1
    {
        type            processor;
        value           nonuniform List<vector> 
33
(
(0.0808085 -0.00138464 0.000178877)
(0.104893 -0.00157408 2.24828e-05)
(0.114205 -0.00142159 0.000207914)
(0.0797807 -0.00108739 0.000224379)
(0.103868 -0.00114021 0.000135033)
(0.113276 -0.000939162 0.000471082)
(0.118024 -0.000548057 0.000666593)
(0.120425 -0.000195547 0.000677167)
(0.121155 0.000197897 0.000473379)
(0.074104 -0.000800208 0.000228833)
(0.100116 -0.000694173 0.00038337)
(0.110332 -0.000448398 0.000856018)
(0.115473 -0.000152358 0.00114391)
(0.118063 3.8234e-05 0.0011903)
(0.118835 0.000274606 0.000948743)
(0.0632869 -0.000532083 0.000317329)
(0.0924435 -0.0002944 0.000657435)
(0.104262 -2.94953e-05 0.00121327)
(0.110222 0.000167275 0.00157975)
(0.113274 0.000166423 0.00168064)
(0.114208 0.000208899 0.00141956)
(0.0463206 -0.000162239 0.000112836)
(0.0759968 4.44629e-05 0.000395922)
(0.0910321 0.000247863 0.001003)
(0.0989871 0.000322944 0.00152473)
(0.103344 0.000154345 0.00175382)
(0.104898 2.38954e-05 0.00157228)
(0.0282614 -1.52638e-05 4.25088e-05)
(0.0439539 4.6272e-05 0.000281246)
(0.058281 0.000191117 0.000805372)
(0.069583 0.000336841 0.00127834)
(0.0774422 0.000281711 0.00150004)
(0.0808089 0.000181784 0.001385)
)
;
    }
    procBoundary8to7
    {
        type            processor;
        value           nonuniform List<vector> 
68
(
(0.024339 -3.77813e-05 4.50706e-06)
(0.0409188 -0.000171956 -0.000126458)
(0.0567855 -0.000267097 -0.000436393)
(0.0663718 -0.000409292 -0.000800413)
(0.0715447 -0.000469889 -0.000986371)
(0.0381948 -7.57586e-05 3.36179e-05)
(0.0710433 -0.000286364 -0.00010329)
(0.091296 -0.000483001 -0.000526309)
(0.100234 -0.000510924 -0.000882072)
(0.104031 -0.000576639 -0.00108512)
(0.0513626 -0.000298656 3.86878e-05)
(0.0886117 -0.000623473 -4.29023e-05)
(0.106018 -0.00084069 -0.000415423)
(0.113579 -0.00074113 -0.00076805)
(0.116828 -0.000657483 -0.00100282)
(0.0611577 -0.000621269 0.000192281)
(0.0973976 -0.000806526 0.000247005)
(0.112672 -0.000975706 -1.62979e-05)
(0.119615 -0.000788283 -0.00034793)
(0.122783 -0.000592673 -0.000597224)
(0.0682113 -0.000885264 0.000381959)
(0.102046 -0.00101857 0.000482196)
(0.11601 -0.00109061 0.000315223)
(0.12257 -0.000812752 2.8771e-05)
(0.125688 -0.000515563 -0.000200293)
(0.126596 -0.000170483 -0.000383594)
(0.071939 -0.0010046 0.000471864)
(0.104342 -0.00112218 0.000573936)
(0.117413 -0.001105 0.000521782)
(0.123596 -0.000749595 0.000338356)
(0.126596 -0.000382838 0.000170848)
(0.127505 -1.03495e-07 -7.11619e-07)
(0.0715347 -0.000989898 0.000469783)
(0.0715347 -0.000989898 0.000469783)
(0.104037 -0.00108598 0.000575873)
(0.104037 -0.00108598 0.000575873)
(0.116832 -0.00100207 0.000657255)