/*--------------------------------*- C++ -*----------------------------------*\
| =========                 |                                                 |
| \\      /  F ield         | OpenFOAM: The Open Source CFD Toolbox           |
|  \\    /   O peration     | Version:  2212                                  |
|   \\  /    A nd           | Website:  www.openfoam.com                      |
|    \\/     M anipulation  |                                                 |
\*---------------------------------------------------------------------------*/
FoamFile
{
    version     2.0;
    format      ascii;
    arch        "LSB;label=32;scalar=64";
    class       volScalarField;
    location    "2.7";
    object      nut;
}
// * * * * * * * * * * * * * * * * * * * * * * * * * * * * * * * * * * * * * //

dimensions      [0 2 -1 0 0 0 0];

internalField   nonuniform List<scalar> 
690
(
2.29534e-05
2.21392e-05
2.13764e-05
0.000105074
9.86252e-05
9.29922e-05
0.000168857
0.000160855
0.000153504
2.37558e-05
2.293e-05
2.21583e-05
2.14438e-05
2.07968e-05
2.02094e-05
1.96777e-05
1.91976e-05
1.87543e-05
1.83402e-05
1.79549e-05
1.75962e-05
0.000110056
0.000103642
9.78931e-05
9.26411e-05
8.79535e-05
8.37144e-05
8.03185e-05
7.78377e-05
7.44412e-05
7.06154e-05
6.72289e-05
6.41668e-05
0.000176967
0.000168377
0.00016058
0.000153444
0.000146896
0.000140878
0.000135375
0.000130349
0.000125589
0.000121019
0.000116667
0.000112538
2.32458e-05
2.20994e-05
2.121e-05
2.04915e-05
1.98708e-05
1.93205e-05
1.88368e-05
1.84005e-05
1.79977e-05
1.7625e-05
1.72795e-05
1.69574e-05
0.000104828
9.86723e-05
9.33636e-05
8.85178e-05
8.40623e-05
8.00225e-05
7.72512e-05
7.39489e-05
6.99397e-05
6.63226e-05
6.30499e-05
6.00607e-05
0.00016949
0.000161618
0.000154328
0.00014758
0.000141315
0.000135514
0.000130194
0.000125205
0.000120414
0.000115865
0.000111554
0.000107464
0.000211725
0.000202221
0.000193544
0.000185568
0.000178209
0.000171387
0.000165048
0.000159144
0.000153623
0.00014842
0.000143497
0.000138833
0.00023376
0.000224172
0.00021519
0.000206783
0.000198921
0.000191569
0.000184692
0.000178253
0.000172216
0.000166541
0.000161196
0.000156147
0.000241807
0.000231837
0.000222555
0.000213894
0.000205802
0.000198237
0.000191157
0.000184526
0.000178306
0.000172462
0.000166959
0.000161766
0.000233755
0.00022416
0.000215179
0.000206777
0.000198921
0.000191574
0.000184701
0.000178265
0.000172229
0.000166556
0.000161213
0.000156167
0.000208999
0.000200623
0.000192564
0.000184944
0.000177799
0.000171125
0.000164897
0.000159075
0.000153612
0.00014847
0.000143614
0.000139033
0.000168783
0.000160823
0.000153461
0.000146736
0.000140586
0.000134962
0.000129858
0.000125125
0.000120632
0.00011636
0.000112281
0.000103912
9.80137e-05
9.25794e-05
8.78106e-05
8.35227e-05
7.9719e-05
7.71065e-05
7.44714e-05
7.09285e-05
6.75563e-05
6.4522e-05
2.29363e-05
2.21197e-05
2.13662e-05
2.06719e-05
2.00328e-05
1.9442e-05
1.89015e-05
1.84041e-05
1.79453e-05
1.75247e-05
1.71391e-05
2.0706e-05
1.92924e-05
1.84246e-05
1.78235e-05
1.73176e-05
1.68794e-05
1.64862e-05
1.61288e-05
1.58027e-05
1.55036e-05
1.52278e-05
1.49719e-05
8.82667e-05
8.20686e-05
7.88322e-05
7.53838e-05
7.22894e-05
6.9323e-05
6.5518e-05
6.1823e-05
5.8481e-05
5.54251e-05
5.26265e-05
5.00502e-05
0.000151718
0.000142863
0.000135611
0.000129361
0.000123789
0.000118672
0.000113848
0.000109284
0.000104962
0.000100855
9.69312e-05
9.32061e-05
0.000186499
0.000178884
0.000171529
0.000164596
0.000158127
0.000152105
0.000146469
0.00014117
0.00013617
0.000131439
0.000126949
0.00012268
0.000209004
0.000200628
0.00019256
0.000184935
0.000177788
0.000171112
0.00016488
0.000159053
0.000153585
0.000148437
0.000143578
0.000138978
0.000219484
0.00020948
0.000200452
0.000192204
0.000184607
0.000177571
0.000171038
0.000164955
0.000159268
0.000153928
0.000148895
0.000144135
0.000211731
0.000202165
0.000193503
0.00018555
0.000178208
0.000171395
0.000165064
0.000159161
0.00015364
0.000148438
0.000143519
0.000138859
0.000186489
0.000178878
0.000171567
0.000164642
0.000158171
0.000152143
0.000146503
0.000141203
0.000136206
0.000131479
0.000126993
0.000122735
0.000142776
0.000137789
0.000132502
0.000127348
0.000122414
0.00011776
0.000113374
0.000109139
0.00010505
0.000101119
9.73698e-05
8.01747e-05
7.83938e-05
7.57956e-05
7.33473e-05
7.06534e-05
6.81465e-05
6.5412e-05
6.22452e-05
5.93271e-05
5.66167e-05
5.40726e-05
2.06676e-05
1.9664e-05
1.88441e-05
1.81547e-05
1.75516e-05
1.6995e-05
1.64936e-05
1.6041e-05
1.56395e-05
1.52825e-05
1.49631e-05
1.55659e-05
1.48859e-05
1.43615e-05
1.39371e-05
1.35687e-05
1.32405e-05
1.29507e-05
1.2696e-05
1.24715e-05
1.22676e-05
1.20841e-05
1.19113e-05
6.68131e-05
5.9419e-05
5.64247e-05
5.39788e-05
5.09069e-05
4.78469e-05
4.5159e-05
4.26885e-05
4.03998e-05
3.82291e-05
3.63193e-05
3.43565e-05
0.000110329
0.000105477
0.000100847
9.66001e-05
9.26526e-05
8.87959e-05
8.51092e-05
8.15515e-05
7.81103e-05
7.47788e-05
7.15665e-05
6.84921e-05
0.000142838
0.000137915
0.000132542
0.000127375
0.000122426
0.000117762
0.000113364
0.000109114
0.000105012
0.000101071
9.73177e-05
9.3744e-05
0.000168924
0.000160919
0.000153543
0.000146809
0.000140644
0.000135007
0.000129871
0.000125114
0.000120602
0.000116311
0.00011222
0.000108317
0.000176974
0.000168354
0.000160553
0.000153436
0.000146899
0.000140876
0.000135369
0.000130341
0.00012557
0.000120985
0.000116629
0.000112499
0.000169537
0.000161672
0.000154388
0.000147625
0.000141344
0.00013553
0.000130222
0.000125215
0.000120404
0.00011585
0.000111543
0.000107452
0.000151769
0.000142635
0.000135511
0.00012932
0.000123779
0.000118679
0.000113847
0.000109274
0.000104957
0.000100858
9.69484e-05
9.31957e-05
0.000110334
0.000105095
0.000100678
9.65008e-05
9.25656e-05
8.87341e-05
8.50727e-05
8.15358e-05
7.81091e-05
7.47853e-05
7.1601e-05
5.09138e-05
5.18287e-05
5.1391e-05
4.99842e-05
4.82487e-05
4.61585e-05
4.41287e-05
4.21136e-05
4.01078e-05
3.80891e-05
3.61579e-05
1.65638e-05
1.55887e-05
1.48212e-05
1.41691e-05
1.36212e-05
1.32029e-05
1.28316e-05
1.25145e-05
1.22451e-05
1.20108e-05
1.1798e-05
1.03015e-05
9.80792e-06
9.42762e-06
9.17161e-06
8.95963e-06
8.77111e-06
8.60774e-06
8.47736e-06
8.35516e-06
8.24855e-06
8.14487e-06
8.05788e-06
2.48931e-05
2.38973e-05
2.37325e-05
2.34428e-05
2.2607e-05
2.13859e-05
2.02701e-05
1.92943e-05
1.82902e-05
1.72865e-05
1.62536e-05
1.5614e-05
5.09254e-05
5.20805e-05
5.15774e-05
5.02236e-05
4.85146e-05
4.64148e-05
4.43659e-05
4.23121e-05
4.02709e-05
3.82052e-05
3.62426e-05
3.43525e-05
8.01616e-05
7.82463e-05
7.56231e-05
7.32808e-05
7.06028e-05
6.8146e-05
6.54201e-05
6.2257e-05
5.93396e-05
5.66218e-05
5.40797e-05
5.16809e-05
0.00010398
9.76096e-05
9.22486e-05
8.76188e-05
8.34373e-05
7.97504e-05
7.70757e-05
7.44366e-05
7.08976e-05
6.75195e-05
6.44975e-05
6.1728e-05
0.000109927
0.000103506
9.77666e-05
9.26361e-05
8.79874e-05
8.37348e-05
8.03259e-05
7.78194e-05
7.44286e-05
7.05944e-05
6.71991e-05
6.413e-05
0.000104836
9.87216e-05
9.34027e-05
8.85501e-05
8.40882e-05
8.00391e-05
7.72605e-05
7.39416e-05
6.99272e-05
6.63055e-05
6.30305e-05
6.00361e-05
8.82474e-05
8.20462e-05
7.8817e-05
7.53819e-05
7.2306e-05
6.93273e-05
6.55175e-05
6.18272e-05
5.84875e-05
5.54325e-05
5.26395e-05
5.00183e-05
6.67897e-05
5.93781e-05
5.64082e-05
5.39424e-05
5.08536e-05
4.78362e-05
4.51756e-05
4.27186e-05
4.0435e-05
3.82979e-05
3.63606e-05
2.48731e-05
2.38872e-05
2.37225e-05
2.34532e-05
2.26522e-05
2.14352e-05
2.03114e-05
1.93262e-05
1.83441e-05
1.73112e-05
1.65367e-05
1.10703e-05
1.04524e-05
9.8758e-06
9.4328e-06
9.08245e-06
8.80816e-06
8.58803e-06
8.41637e-06
8.27408e-06
8.14911e-06
8.04266e-06
5.31798e-06
4.97157e-06
4.6574e-06
4.46833e-06
4.34309e-06
4.25562e-06
4.18842e-06
4.13286e-06
4.08534e-06
4.04477e-06
4.00581e-06
3.97033e-06
1.10707e-05
1.04512e-05
9.87517e-06
9.43443e-06
9.08131e-06
8.80595e-06
8.58451e-06
8.41401e-06
8.27051e-06
8.14725e-06
8.02735e-06
7.92868e-06
1.65629e-05
1.5593e-05
1.48266e-05
1.4175e-05
1.36341e-05
1.32185e-05
1.2843e-05
1.25229e-05
1.22504e-05
1.20149e-05
1.18002e-05
1.16038e-05
2.06677e-05
1.96593e-05
1.88356e-05
1.81476e-05
1.75496e-05
1.69955e-05
1.64949e-05
1.60423e-05
1.564e-05
1.52821e-05
1.49629e-05
1.46746e-05
2.29355e-05
2.21107e-05
2.13533e-05
2.06604e-05
2.00245e-05
1.94386e-05
1.89002e-05
1.84036e-05
1.79452e-05
1.75247e-05
1.71397e-05
1.67865e-05
2.37535e-05
2.29243e-05
2.21521e-05
2.14451e-05
2.08023e-05
2.02169e-05
1.96858e-05
1.92045e-05
1.87602e-05
1.8345e-05
1.79585e-05
1.75986e-05
2.32463e-05
2.20967e-05
2.12077e-05
2.04907e-05
1.98715e-05
1.93223e-05
1.88392e-05
1.84027e-05
1.79997e-05
1.76268e-05
1.72808e-05
1.69582e-05
2.07055e-05
1.92899e-05
1.84259e-05
1.78254e-05
1.73198e-05
1.68815e-05
1.64883e-05
1.61311e-05
1.58052e-05
1.55061e-05
1.52301e-05
1.49733e-05
1.55643e-05
1.48847e-05
1.43637e-05
1.39394e-05
1.35695e-05
1.32419e-05
1.29538e-05
1.26995e-05
1.24746e-05
1.2271e-05
1.20861e-05
1.03011e-05
9.81047e-06
9.43046e-06
9.17357e-06
8.96477e-06
8.7777e-06
8.6148e-06
8.48203e-06
8.3604e-06
8.25135e-06
8.15792e-06
5.31868e-06
4.9723e-06
4.65849e-06
4.47005e-06
4.34633e-06
4.25934e-06
4.19179e-06
4.13589e-06
4.08817e-06
4.04701e-06
4.00987e-06
)
;

boundaryField
{
    inlet
    {
        type            calculated;
        value           nonuniform List<scalar> 0();
    }
    ami1
    {
        type            cyclicAMI;
        value           nonuniform List<scalar> 0();
    }
    walls
    {
        type            nutkWallFunction;
        blending        stepwise;
        value           uniform 0;
    }
    ami2
    {
        type            cyclicAMI;
        value           nonuniform List<scalar> 
61
(
2.36824e-05
0.000109808
0.000173564
2.75618e-05
0.000113963
0.00018144
3.00248e-05
0.000111191
0.000173783
0.000217074
0.000238706
0.00024733
0.000238702
0.000213403
0.000173534
0.000109237
2.36743e-05
2.70086e-05
9.27277e-05
0.000157954
0.000190537
0.000213407
0.000225001
0.000217079
0.000190528
0.000145947
8.79052e-05
2.38787e-05
1.61588e-05
7.53927e-05
0.000113329
0.00014598
0.000173603
0.000181445
0.000173807
0.000157975
0.000113325
5.66866e-05
2.20511e-05
1.35706e-05
2.47775e-05
5.66942e-05
8.78977e-05
0.000109266
0.000113903
0.000111195
9.27185e-05
7.53806e-05
2.47669e-05
1.82813e-05
1.33102e-05
1.8282e-05
2.20507e-05
2.38785e-05
2.36736e-05
2.75611e-05
3.00252e-05
2.7008e-05
1.61577e-05
1.35701e-05
1.33102e-05
)
;
    }
    outlet
    {
        type            calculated;
        value           nonuniform List<scalar> 0();
    }
    procBoundary1to0
    {
        type            processor;
        value           nonuniform List<scalar> 
138
(
2.06504e-05
2.06504e-05
2.00192e-05
1.9432e-05
1.88938e-05
1.83985e-05
1.79416e-05
1.75227e-05
1.71389e-05
1.67868e-05
8.7683e-05
8.7683e-05
8.34337e-05
7.96473e-05
7.71056e-05
7.44829e-05
7.0927e-05
6.75516e-05
6.4535e-05
6.17698e-05
0.00020915
0.000200667
0.000146888
0.000192563
0.000146888
0.000140651
0.000134998
0.000129874
0.000125131
0.000120631
0.000116352
0.000112267
0.000108367
0.000219447
0.000209451
0.000200431
0.000192188
0.000184596
0.000177567
0.000171038
0.000164957
0.000159272
0.000153934
0.0001489
0.000144137
0.000219447
0.000209451
0.000200431
0.000192188
0.000184596
0.000177567
0.000171038
0.000164957
0.000159272
0.000153934
0.0001489
0.000144137
0.000241788
0.000231813
0.000222539
0.000213884
0.000205796
0.000198231
0.000191152
0.00018452
0.0001783
0.000172456
0.000166954
0.00016176
0.000248539
0.00023891
0.00022969
0.000220955
0.000212726
0.000204995
0.000197739
0.00019093
0.000184535
0.000178524
0.000172863
0.00016752
0.000241788
0.000231807
0.000222526
0.000213873
0.00020579
0.000198231
0.000191158
0.00018453
0.000178313
0.00017247
0.000166969
0.000161777
0.000219419
0.000209404
0.000200389
0.000192162
0.000184585
0.000177568
0.000171047
0.000164973
0.000159293
0.000153957
0.000148926
0.000144181
0.000177166
0.000168553
0.000160661
0.000153472
0.000146902
0.000140878
0.000135377
0.000130363
0.000125604
0.000121031
0.000116683
0.000109976
0.000103502
9.77388e-05
9.25969e-05
8.79455e-05
8.3723e-05
8.03071e-05
7.78428e-05
7.44628e-05
7.06381e-05
6.72327e-05
2.37475e-05
2.29187e-05
2.21474e-05
2.14407e-05
2.07975e-05
2.02118e-05
1.96802e-05
1.91997e-05
1.87564e-05
1.8342e-05
1.7955e-05
)
;
    }
    procBoundary1to2
    {
        type            processor;
        value           nonuniform List<scalar> 9(2.06663e-05 1.96537e-05 1.88374e-05 8.01675e-05 7.8222e-05 7.55387e-05 0.000142929 0.000137594 0.000132263);
    }
    procBoundary1to8
    {
        type            processor;
        value           nonuniform List<scalar> 
33
(
1.72595e-05
6.14093e-05
0.000108678
1.66533e-05
5.72663e-05
0.00010362
0.000134417
0.000151367
0.000156842
1.47292e-05
4.75214e-05
8.95927e-05
0.000118629
0.000134643
0.000139648
1.17591e-05
3.27789e-05
6.53219e-05
9.02951e-05
0.000104658
0.00010867
7.95838e-06
1.40917e-05
3.22131e-05
4.92578e-05
5.91535e-05
6.13499e-05
3.93052e-06
7.80901e-06
1.14141e-05
1.44049e-05
1.64572e-05
1.72593e-05
)
;
    }
    procBoundary1to9
    {
        type            processor;
        value           nonuniform List<scalar> 
30
(
0.000151378
0.000134675
0.000108454
0.000108454
6.17929e-05
1.6783e-05
0.00013446
0.000118699
9.38136e-05
9.38136e-05
5.16301e-05
1.46741e-05
0.000103663
8.96876e-05
6.839e-05
6.839e-05
3.40233e-05
1.15972e-05
5.72499e-05
4.7532e-05
3.41206e-05
3.41206e-05
1.50331e-05
7.91294e-06
1.66529e-05
1.47305e-05
1.19122e-05
1.19122e-05
8.04722e-06
3.96914e-06
)
;
    }
}


// ************************************************************************* //
