/*--------------------------------*- C++ -*----------------------------------*\
| =========                 |                                                 |
| \\      /  F ield         | OpenFOAM: The Open Source CFD Toolbox           |
|  \\    /   O peration     | Version:  2212                                  |
|   \\  /    A nd           | Website:  www.openfoam.com                      |
|    \\/     M anipulation  |                                                 |
\*---------------------------------------------------------------------------*/
FoamFile
{
    version     2.0;
    format      ascii;
    arch        "LSB;label=32;scalar=64";
    class       volScalarField;
    location    "2.4";
    object      epsilon;
}
// * * * * * * * * * * * * * * * * * * * * * * * * * * * * * * * * * * * * * //

dimensions      [0 2 -3 0 0 0 0];

internalField   nonuniform List<scalar> 
6840
(
90.5034
12.1248
4.3887
2.46659
1.63316
1.18308
0.902025
0.720679
0.59461
0.502535
0.432723
0.379346
0.336412
0.30005
0.27047
0.246575
0.227178
0.211915
0.202955
0.195569
58.5856
14.5696
6.08947
3.33296
2.08218
1.40268
0.998664
0.7403
0.565922
0.443948
0.356051
0.290969
0.24147
0.203066
0.173205
0.149984
0.131611
0.117048
0.106195
0.0993657
45.0226
13.4729
5.73075
3.07323
1.86023
1.227
0.87358
0.649783
0.497018
0.389485
0.311297
0.252986
0.208993
0.175231
0.148843
0.12793
0.111205
0.097718
0.0868394
0.0785342
38.7028
13.0541
5.74336
3.08733
1.88066
1.2275
0.869476
0.645381
0.492588
0.384775
0.307015
0.249032
0.20496
0.17096
0.144356
0.123272
0.106347
0.0926016
0.0813822
0.072995
36.0571
12.8529
5.76645
3.10211
1.89475
1.22669
0.866497
0.643978
0.492244
0.383957
0.305785
0.247905
0.2039
0.169919
0.143291
0.122141
0.105114
0.0912282
0.079838
0.071249
36.0571
12.8529
5.76645
3.10211
1.89475
1.22669
0.866497
0.643979
0.492246
0.383958
0.305788
0.247909
0.203908
0.169934
0.143316
0.122172
0.105156
0.0912855
0.0799115
0.0712846
38.7028
13.0541
5.74336
3.08733
1.88066
1.2275
0.869476
0.645383
0.492591
0.384778
0.307021
0.249041
0.204976
0.170991
0.144402
0.123332
0.10643
0.0927225
0.0815627
0.0733573
45.0226
13.4729
5.73075
3.07323
1.86023
1.227
0.87358
0.649785
0.497021
0.38949
0.311304
0.252996
0.209009
0.17526
0.148889
0.12799
0.111289
0.0978436
0.0870302
0.0787293
58.5856
14.5696
6.08947
3.33296
2.08218
1.40268
0.998663
0.740301
0.565923
0.44395
0.356054
0.290974
0.241477
0.203091
0.173238
0.150024
0.131668
0.117139
0.10636
0.0995102
90.5034
12.1248
4.3887
2.46659
1.63316
1.18308
0.902025
0.720679
0.594609
0.502534
0.432723
0.379344
0.336411
0.300048
0.270468
0.246571
0.227172
0.211908
0.202946
0.195555
58.5856
14.5696
6.08947
3.33296
2.08218
1.40268
0.998664
0.740301
0.565923
0.443951
0.356055
0.290975
0.241479
0.203089
0.17324
0.150028
0.131673
0.117144
0.106367
0.0995194
16.5373
9.49239
5.0127
2.8606
1.75746
1.14759
0.786931
0.562048
0.415366
0.315946
0.24633
0.19622
0.159216
0.131245
0.109752
0.0931736
0.0801243
0.0696343
0.0606191
0.0562527
13.6679
8.73671
5.07741
3.05388
1.92223
1.26609
0.869288
0.618629
0.453957
0.342031
0.263647
0.207307
0.165897
0.134839
0.111132
0.0926691
0.0781387
0.0666052
0.0571708
0.0497629
12.9054
8.33993
5.07879
3.15547
2.02774
1.3512
0.933536
0.666457
0.489543
0.368592
0.2836
0.222382
0.177321
0.14352
0.11774
0.0977522
0.0820563
0.0695816
0.0595496
0.0513675
12.6882
8.1544
5.07113
3.20038
2.07939
1.39506
0.967831
0.692723
0.509637
0.384016
0.295503
0.231647
0.184592
0.149262
0.122295
0.101385
0.0849635
0.0719095
0.0614253
0.0529682
12.6882
8.1544
5.07113
3.20038
2.07939
1.39506
0.967834
0.692726
0.509643
0.384023
0.295512
0.231657
0.184604
0.149273
0.122305
0.101404
0.0849888
0.0719389
0.0614548
0.0530002
12.9054
8.33993
5.07879
3.15547
2.02775
1.35121
0.933542
0.666464
0.489554
0.368606
0.283618
0.222403
0.177345
0.143543
0.117765
0.0977935
0.082109
0.0696431
0.0596139
0.0513604
13.6679
8.73671
5.07741
3.05388
1.92224
1.2661
0.869292
0.618633
0.453965
0.342042
0.26366
0.207324
0.165916
0.134855
0.111158
0.0927038
0.078179
0.0666463
0.057194
0.0501926
16.5373
9.49239
5.0127
2.8606
1.75746
1.14759
0.786931
0.562047
0.415366
0.315946
0.24633
0.19622
0.159216
0.131236
0.10976
0.0931766
0.0801259
0.0696354
0.0606199
0.0562568
58.5856
14.5696
6.08947
3.33296
2.08218
1.40268
0.998663
0.740299
0.565922
0.443947
0.35605
0.290967
0.241468
0.203063
0.173204
0.149982
0.131607
0.117043
0.106188
0.0993568
45.0226
13.4729
5.73075
3.07323
1.86023
1.227
0.87358
0.649785
0.497021
0.389491
0.311304
0.252996
0.209007
0.175257
0.148892
0.127994
0.111292
0.0978466
0.0870343
0.0787355
13.6679
8.73671
5.07741
3.05388
1.92224
1.2661
0.869292
0.618634
0.453965
0.342042
0.26366
0.207324
0.165917
0.134864
0.111149
0.0927011
0.0781785
0.0666477
0.0571909
0.050184
11.8601
7.76395
4.99734
3.24076
2.14419
1.45499
1.0141
0.725634
0.532156
0.399149
0.305546
0.238222
0.188824
0.151913
0.123869
0.102235
0.0853171
0.0719261
0.0611842
0.0526144
11.6229
7.60535
5.0103
3.34209
2.26848
1.57142
1.11236
0.804587
0.594203
0.447515
0.343208
0.26763
0.211895
0.170116
0.13832
0.113775
0.0945876
0.0794103
0.0672738
0.0574924
11.5726
7.56718
5.02065
3.38344
2.32103
1.62326
1.15828
0.843156
0.62569
0.472848
0.363482
0.283851
0.224903
0.180587
0.146789
0.120661
0.100216
0.0840342
0.0710911
0.0606085
11.5726
7.56718
5.02065
3.38344
2.32103
1.62326
1.15828
0.843156
0.625692
0.472851
0.363486
0.283855
0.224908
0.180589
0.14679
0.120667
0.100224
0.0840448
0.0711042
0.0606438
11.6229
7.60535
5.0103
3.34209
2.26848
1.57142
1.11236
0.804588
0.594206
0.44752
0.343214
0.267637
0.211901
0.17012
0.138326
0.113787
0.0946041
0.0794307
0.0672998
0.0575622
11.8601
7.76395
4.99734
3.24076
2.14419
1.45499
1.0141
0.725634
0.532155
0.399149
0.305546
0.238222
0.188824
0.151911
0.123871
0.102236
0.0853182
0.0719276
0.0611857
0.0526192
13.6679
8.73671
5.07741
3.05388
1.92223
1.26609
0.869288
0.618629
0.453957
0.342031
0.263647
0.207308
0.165898
0.134841
0.11113
0.0926689
0.0781393
0.0666062
0.0571717
0.0497655
45.0226
13.4729
5.73075
3.07323
1.86023
1.227
0.87358
0.649782
0.497018
0.389485
0.311296
0.252985
0.20899
0.175227
0.148846
0.127932
0.111206
0.0977183
0.0868391
0.0785335
38.7028
13.0541
5.74336
3.08733
1.88066
1.2275
0.869476
0.645383
0.492591
0.384778
0.307021
0.249041
0.204974
0.170987
0.144405
0.123335
0.106432
0.092724
0.0815638
0.0733588
12.9054
8.33993
5.07879
3.15547
2.02775
1.35121
0.933542
0.666464
0.489554
0.368606
0.283618
0.222404
0.177348
0.143549
0.117759
0.0977915
0.0821091
0.0696443
0.0596159
0.0513624
11.6229
7.60535
5.01031
3.34209
2.26848
1.57142
1.11236
0.804589
0.594206
0.44752
0.343214
0.267637
0.211903
0.170122
0.138323
0.113786
0.0946036
0.0794305
0.0672997
0.0575614
11.4933
7.5119
5.02843
3.434
2.3892
1.6928
1.22111
0.896487
0.669456
0.508122
0.391656
0.306285
0.242784
0.194886
0.158279
0.129952
0.107776
0.0902254
0.0761875
0.064808
11.4757
7.50136
5.04297
3.47002
2.43665
1.74299
1.26863
0.938712
0.705583
0.538335
0.416593
0.326728
0.259498
0.208556
0.169484
0.139167
0.115387
0.0965403
0.0814421
0.0691208
11.4757
7.50136
5.04297
3.47002
2.43665
1.74299
1.26863
0.938712
0.705584
0.538336
0.416594
0.326728
0.259499
0.208557
0.169483
0.139167
0.115388
0.0965414
0.0814421
0.0691033
11.4933
7.5119
5.02843
3.434
2.3892
1.6928
1.22111
0.896486
0.669456
0.508122
0.391656
0.306285
0.242784
0.194886
0.158279
0.129952
0.107776
0.0902263
0.0761889
0.0648095
11.6229
7.60535
5.0103
3.34209
2.26848
1.57142
1.11236
0.804587
0.594203
0.447515
0.343208
0.267631
0.211897
0.170117
0.138318
0.113775
0.0945885
0.0794119
0.0672758
0.0574949
12.9054
8.33993
5.07879
3.15547
2.02774
1.3512
0.933536
0.666457
0.489543
0.368592
0.283601
0.222383
0.177323
0.143526
0.117733
0.0977496
0.0820553
0.0695812
0.0595493
0.0513667
38.7028
13.0541
5.74336
3.08733
1.88066
1.2275
0.869476
0.645381
0.492587
0.384775
0.307015
0.249032
0.204958
0.170956
0.144358
0.123274
0.106349
0.0926033
0.081384
0.0729984
36.0571
12.8529
5.76645
3.10211
1.89475
1.22669
0.866497
0.64398
0.492246
0.383958
0.305788
0.247909
0.203907
0.169932
0.143316
0.122172
0.105155
0.0912843
0.07991
0.0712837
12.6882
8.1544
5.07113
3.20038
2.07939
1.39506
0.967834
0.692726
0.509643
0.384023
0.295512
0.231658
0.184605
0.149276
0.122305
0.101405
0.0849907
0.0719419
0.0614586
0.0530047
11.5726
7.56718
5.02065
3.38344
2.32103
1.62326
1.15828
0.843157
0.625692
0.472851
0.363486
0.283856
0.224909
0.180591
0.14679
0.120667
0.100226
0.0840466
0.0711063
0.0606455
11.4757
7.50136
5.04297
3.47002
2.43665
1.74299
1.26863
0.938712
0.705584
0.538336
0.416594
0.326729
0.259499
0.208557
0.169483
0.139168
0.115388
0.0965418
0.0814425
0.0691042
11.4647
7.49683
5.0577
3.50272
2.48038
1.79068
1.31522
0.981305
0.742925
0.57021
0.44335
0.348968
0.277888
0.223735
0.182018
0.149543
0.124005
0.103725
0.0874412
0.0740569
11.4647
7.49683
5.0577
3.50272
2.48038
1.79068
1.31522
0.981305
0.742924
0.57021
0.44335
0.348968
0.277888
0.223735
0.182018
0.149543
0.124005
0.103725
0.0874413
0.0740563
11.4757
7.50136
5.04297
3.47002
2.43665
1.74299
1.26863
0.938712
0.705583
0.538335
0.416593
0.326728
0.259499
0.208556
0.169483
0.139167
0.115387
0.096541
0.0814431
0.0691208
11.5726
7.56718
5.02065
3.38344
2.32103
1.62326
1.15828
0.843156
0.62569
0.472848
0.363483
0.283852
0.224905
0.180589
0.146786
0.12066
0.100216
0.0840354
0.0710927
0.0606113
12.6882
8.1544
5.07113
3.20038
2.07939
1.39506
0.967831
0.692723
0.509637
0.384016
0.295503
0.231647
0.184593
0.149268
0.122289
0.101383
0.0849622
0.0719086
0.0614244
0.0529672
36.0571
12.8529
5.76645
3.10211
1.89475
1.22669
0.866497
0.643978
0.492244
0.383957
0.305785
0.247905
0.2039
0.169917
0.143292
0.122142
0.105115
0.0912292
0.0798395
0.071252
36.0571
12.8529
5.76645
3.10211
1.89475
1.22669
0.866497
0.643978
0.492244
0.383957
0.305785
0.247905
0.2039
0.169918
0.143291
0.122141
0.105113
0.0912267
0.0798359
0.0712471
12.6882
8.1544
5.07113
3.20038
2.07939
1.39506
0.967831
0.692723
0.509638
0.384016
0.295504
0.231648
0.184592
0.149263
0.122295
0.101386
0.0849651
0.0719118
0.0614281
0.0529715
11.5726
7.56718
5.02065
3.38344
2.32103
1.62326
1.15828
0.843156
0.62569
0.472848
0.363483
0.283852
0.224904
0.180587
0.146789
0.120662
0.100217
0.084036
0.0710934
0.0606108
11.4757
7.50136
5.04297
3.47002
2.43665
1.74299
1.26863
0.938712
0.705584
0.538335
0.416593
0.326728
0.259498
0.208556
0.169484
0.139167
0.115387
0.0965409
0.0814432
0.0691218
11.4647
7.49683
5.0577
3.50272
2.48038
1.79068
1.31522
0.981305
0.742925
0.57021
0.44335
0.348968
0.277888
0.223735
0.182018
0.149543
0.124005
0.103725
0.0874411
0.0740566
11.4647
7.49683
5.0577
3.50272
2.48038
1.79068
1.31522
0.981305
0.742924
0.57021
0.44335
0.348968
0.277888
0.223735
0.182018
0.149543
0.124005
0.103725
0.0874411
0.0740554
11.4757
7.50136
5.04297
3.47002
2.43665
1.74299
1.26863
0.938712
0.705584
0.538336
0.416594
0.326728
0.259499
0.208556
0.169484
0.139167
0.115388
0.0965414
0.0814421
0.0691026
11.5726
7.56718
5.02065
3.38344
2.32103
1.62326
1.15828
0.843156
0.625692
0.472851
0.363486
0.283855
0.224907
0.18059
0.146791
0.120667
0.100225
0.0840449
0.0711041
0.0606428
12.6882
8.1544
5.07113
3.20038
2.07939
1.39506
0.967834
0.692726
0.509643
0.384023
0.295511
0.231657
0.184603
0.149276
0.122305
0.101404
0.0849886
0.0719386
0.0614545
0.0529998
36.0571
12.8529
5.76645
3.10211
1.89475
1.22669
0.866497
0.64398
0.492246
0.383958
0.305788
0.24791
0.203909
0.169934
0.143313
0.12217
0.105154
0.0912844
0.0799112
0.0712872
38.7028
13.0541
5.74336
3.08733
1.88066
1.2275
0.869476
0.645381
0.492588
0.384775
0.307015
0.249032
0.20496
0.17096
0.144356
0.123272
0.106347
0.0926011
0.0813814
0.0729947
12.9054
8.33993
5.07879
3.15547
2.02774
1.3512
0.933535
0.666457
0.489543
0.368592
0.2836
0.222382
0.177321
0.14352
0.11774
0.0977525
0.0820564
0.0695814
0.0595495
0.0513662
11.6229
7.60535
5.0103
3.34209
2.26848
1.57142
1.11236
0.804587
0.594203
0.447515
0.343208
0.26763
0.211895
0.170115
0.138321
0.113776
0.0945877
0.0794101
0.0672734
0.0574902
11.4933
7.5119
5.02843
3.434
2.3892
1.6928
1.22111
0.896487
0.669456
0.508122
0.391656
0.306285
0.242783
0.194886
0.158279
0.129952
0.107775
0.0902248
0.0761867
0.0648065
11.4757
7.50136
5.04297
3.47002
2.43665
1.74299
1.26863
0.938712
0.705584
0.538336
0.416594
0.326728
0.259499
0.208557
0.169483
0.139167
0.115388
0.0965411
0.0814415
0.0691022
11.4757
7.50136
5.04297
3.47002
2.43665
1.74299
1.26863
0.938712
0.705583
0.538335
0.416593
0.326728
0.259499
0.208557
0.169483
0.139167
0.115387
0.0965409
0.0814431
0.0691201
11.4933
7.5119
5.02843
3.434
2.3892
1.6928
1.22111
0.896487
0.669456
0.508122
0.391656
0.306285
0.242784
0.194886
0.158279
0.129952
0.107776
0.0902256
0.076188
0.0648079
11.6229
7.60535
5.0103
3.34209
2.26848
1.57142
1.11236
0.804589
0.594206
0.44752
0.343214
0.267637
0.211901
0.17012
0.138326
0.113787
0.0946029
0.0794291
0.0672976
0.0575588
12.9054
8.33993
5.07879
3.15547
2.02775
1.35121
0.933542
0.666465
0.489554
0.368606
0.283618
0.222403
0.177345
0.143542
0.117766
0.0977936
0.0821091
0.0696431
0.0596139
0.0513597
38.7028
13.0541
5.74336
3.08733
1.88066
1.2275
0.869477
0.645383
0.49259
0.384778
0.307021
0.249041
0.204976
0.170991
0.144401
0.123331
0.10643
0.0927221
0.081563
0.0733613
45.0226
13.4729
5.73075
3.07323
1.86023
1.227
0.87358
0.649783
0.497018
0.389485
0.311297
0.252987
0.208993
0.175232
0.148844
0.127931
0.111206
0.0977195
0.086841
0.0785366
13.6679
8.73671
5.07741
3.05388
1.92223
1.26609
0.869287
0.618629
0.453957
0.342031
0.263646
0.207307
0.165896
0.134838
0.111132
0.0926681
0.0781362
0.0666006
0.0571701
0.0497556
11.8601
7.76395
4.99734
3.24076
2.14419
1.45499
1.0141
0.725634
0.532155
0.399149
0.305545
0.238221
0.188823
0.151912
0.123869
0.102234
0.0853148
0.0719229
0.0611793
0.052605
11.6229
7.60535
5.0103
3.34209
2.26848
1.57142
1.11236
0.804588
0.594206
0.447519
0.343213
0.267637
0.211902
0.170121
0.138322
0.113785
0.0946017
0.0794279
0.0672961
0.0575571
11.5726
7.56718
5.02065
3.38344
2.32103
1.62326
1.15828
0.843156
0.625692
0.472851
0.363486
0.283856
0.224908
0.180591
0.14679
0.120666
0.100224
0.0840452
0.0711046
0.0606436
11.5726
7.56718
5.02065
3.38344
2.32103
1.62326
1.15828
0.843155
0.62569
0.472848
0.363483
0.283852
0.224904
0.180588
0.146789
0.120661
0.100217
0.0840362
0.0710938
0.0606109
11.6229
7.60535
5.0103
3.34209
2.26848
1.57142
1.11236
0.804587
0.594202
0.447515
0.343208
0.267631
0.211897
0.170118
0.138318
0.113775
0.094588
0.0794112
0.0672751
0.0574932
11.8601
7.76395
4.99734
3.24076
2.14419
1.45499
1.0141
0.725634
0.532155
0.399149
0.305545
0.238221
0.188824
0.151912
0.12387
0.102235
0.0853162
0.0719249
0.0611825
0.0526108
13.6679
8.73671
5.07741
3.05388
1.92224
1.2661
0.869291
0.618635
0.453965
0.342042
0.26366
0.207324
0.165916
0.134855
0.111157
0.0927037
0.0781789
0.0666462
0.0571936
0.0501791
45.0226
13.4729
5.73075
3.07323
1.86023
1.227
0.873581
0.649785
0.49702
0.38949
0.311303
0.252996
0.209009
0.17526
0.148889
0.12799
0.11129
0.0978443
0.0870329
0.0787439
58.5856
14.5696
6.08947
3.33296
2.08218
1.40268
0.998664
0.7403
0.565923
0.443949
0.356052
0.29097
0.241471
0.203068
0.173206
0.149986
0.131614
0.117052
0.1062
0.0993734
16.5373
9.49239
5.0127
2.8606
1.75746
1.14759
0.786931
0.562048
0.415366
0.315946
0.24633
0.196219
0.159215
0.131244
0.109752
0.0931725
0.0801226
0.0696324
0.0606152
0.0562454
13.6679
8.73671
5.07741
3.05388
1.92224
1.2661
0.869292
0.618633
0.453965
0.342042
0.26366
0.207324
0.165917
0.134863
0.111149
0.0927003
0.0781776
0.0666466
0.0571894
0.0501837
12.9054
8.33993
5.07879
3.15547
2.02775
1.35121
0.933542
0.666464
0.489554
0.368606
0.283618
0.222404
0.177348
0.143549
0.117758
0.0977912
0.0821089
0.0696442
0.0596157
0.0513625
12.6882
8.1544
5.07113
3.20038
2.07939
1.39506
0.967835
0.692726
0.509643
0.384023
0.295512
0.231658
0.184605
0.149277
0.122305
0.101405
0.0849909
0.0719421
0.061459
0.0530049
12.6882
8.1544
5.07113
3.20038
2.07939
1.39506
0.967832
0.692722
0.509637
0.384016
0.295504
0.231648
0.184593
0.149264
0.122295
0.101386
0.0849652
0.0719117
0.061428
0.0529709
12.9054
8.33993
5.07879
3.15547
2.02774
1.3512
0.933536
0.666456
0.489543
0.368592
0.2836
0.222382
0.177323
0.143527
0.117734
0.0977497
0.082055
0.0695806
0.0595488
0.0513656
13.6679
8.73671
5.07741
3.05388
1.92223
1.26609
0.869287
0.618628
0.453957
0.342031
0.263646
0.207307
0.165896
0.134841
0.111129
0.0926664
0.0781355
0.0666003
0.0571698
0.049755
16.5373
9.49239
5.0127
2.8606
1.75746
1.14759
0.78693
0.562048
0.415366
0.315946
0.24633
0.19622
0.159216
0.131236
0.109759
0.0931758
0.0801247
0.0696341
0.0606168
0.0562453
58.5856
14.5696
6.08947
3.33296
2.08218
1.40268
0.998664
0.740301
0.565923
0.443951
0.356055
0.290975
0.241478
0.203092
0.173239
0.150027
0.131672
0.117144
0.106368
0.0995245
90.5034
12.1248
4.3887
2.46659
1.63316
1.18308
0.902026
0.720679
0.59461
0.502535
0.432724
0.379346
0.336413
0.300052
0.270472
0.246578
0.227182
0.21192
0.20296
0.195581
58.5856
14.5696
6.08947
3.33296
2.08218
1.40268
0.998664
0.740301
0.565924
0.443952
0.356056
0.290976
0.241481
0.203091
0.173243
0.150032
0.131677
0.117151
0.106375
0.0995301
45.0226
13.4729
5.73075
3.07323
1.86023
1.227
0.87358
0.649785
0.497021
0.389491
0.311304
0.252997
0.209008
0.175258
0.148893
0.127995
0.111294
0.0978485
0.0870365
0.0787383
38.7028
13.0541
5.74336
3.08733
1.88066
1.2275
0.869476
0.645384
0.492591
0.384779
0.307022
0.249041
0.204974
0.170987
0.144406
0.123335
0.106433
0.0927242
0.0815639
0.0733581
36.0571
12.8529
5.76645
3.10211
1.89475
1.22669
0.866497
0.64398
0.492246
0.383959
0.305788
0.247909
0.203907
0.169932
0.143316
0.122171
0.105155
0.0912835
0.0799086
0.0712815
36.0571
12.8529
5.76645
3.10211
1.89475
1.22669
0.866497
0.643978
0.492245
0.383957
0.305785
0.247905
0.203899
0.169917
0.143291
0.12214
0.105113
0.0912263
0.0798354
0.0712459
38.7028
13.0541
5.74336
3.08733
1.88066
1.2275
0.869475
0.645381
0.492588
0.384776
0.307016
0.249032
0.204958
0.170956
0.144358
0.123274
0.106349
0.0926027
0.0813828
0.0729959
45.0226
13.4729
5.73075
3.07323
1.86023
1.227
0.873579
0.649783
0.497019
0.389486
0.311297
0.252987
0.208992
0.175228
0.148847
0.127934
0.111209
0.0977221
0.0868434
0.0785382
58.5856
14.5696
6.08947
3.33296
2.08218
1.40268
0.998664
0.7403
0.565923
0.443949
0.356051
0.290969
0.241471
0.203065
0.173207
0.149986
0.131613
0.117051
0.106199
0.0993727
90.5034
12.1248
4.3887
2.46659
1.63316
1.18308
0.902025
0.720679
0.59461
0.502535
0.432725
0.379345
0.336413
0.300051
0.270472
0.246576
0.227179
0.211918
0.202959
0.195577
0.386943
0.303049
0.237059
0.201572
0.180869
0.167819
0.158225
0.150533
0.144387
0.139235
0.13482
0.130802
0.127025
0.123417
0.119983
0.116923
0.113941
0.111245
0.108662
0.106248
0.103953
0.10177
0.0997564
0.0978723
0.0959873
0.0942002
0.0924551
0.0907804
0.0891204
0.087558
0.0860132
0.0845373
0.0831106
0.081705
0.0803956
0.0791186
0.0779259
0.0767345
0.0757291
0.0739783
0.13671
0.113676
0.0951358
0.0829604
0.0751114
0.0694105
0.0649402
0.0612994
0.0583268
0.0557876
0.0535082
0.0514901
0.0497315
0.0480075
0.0463586
0.0448961
0.0435284
0.0422944
0.0411531
0.0400801
0.0390769
0.0381358
0.0372652
0.0364728
0.0357174
0.0349918
0.0342936
0.0336183
0.0329647
0.0323321
0.0317221
0.0311315
0.0305609
0.0300188
0.0294894
0.0289967
0.0285178
0.0280546
0.0276184
0.0271279
0.0892627
0.0775763
0.0679753
0.0614104
0.0561118
0.0518458
0.0482599
0.0452451
0.0426635
0.0404394
0.0385131
0.0368232
0.0354179
0.0339662
0.0326487
0.0314975
0.0304258
0.0294829
0.0285861
0.0277359
0.0269319
0.0261293
0.0254044
0.0247503
0.0241609
0.023596
0.0230534
0.0225336
0.0220365
0.0215581
0.0210986
0.0206599
0.0202388
0.0198386
0.0194519
0.0190953
0.018749
0.0184166
0.0181004
0.0177752
0.0701977
0.0632527
0.0573138
0.0523009
0.0480516
0.0444187
0.0412879
0.0385771
0.0362144
0.0341403
0.0323063
0.0306814
0.0292578
0.0279515
0.0267622
0.0256832
0.0246908
0.0238365
0.0229703
0.0221289
0.0213918
0.0207179
0.0200796
0.0194836
0.0189271
0.0184056
0.0179222
0.0174599
0.01703
0.0166166
0.0162183
0.0158378
0.0154722
0.0151399
0.0148183
0.0145196
0.014227
0.013955
0.0136933
0.0134277
0.0720621
0.0609143
0.053918
0.0486376
0.0443879
0.0408785
0.0379159
0.0353629
0.0331273
0.0311531
0.0293988
0.0278363
0.0264505
0.0251732
0.0240182
0.0229692
0.0220256
0.0211624
0.0203675
0.0196385
0.0189693
0.018362
0.0177263
0.0171518
0.0166223
0.0161309
0.0156732
0.015244
0.0148471
0.01447
0.0141099
0.0137623
0.0134382
0.0131369
0.0128382
0.0125602
0.0122949
0.0120489
0.0118186
0.0116035
0.070417
0.0598417
0.0529128
0.0475295
0.0432072
0.0396529
0.0366787
0.0341485
0.0319346
0.0299709
0.0282224
0.0266619
0.0252682
0.0240059
0.0228665
0.0218359
0.0209003
0.020048
0.0192722
0.0185709
0.0179263
0.017335
0.016776
0.0162974
0.0157749
0.0152658
0.0148055
0.0143867
0.0140091
0.0136549
0.0133231
0.0130153
0.0126986
0.0124174
0.0120886
0.0118552
0.0115823
0.0113656
0.011152
0.0109504
0.0710132
0.060286
0.0532316
0.0479347
0.0436322
0.0400537
0.0370356
0.0344479
0.0321789
0.0301757
0.0284016
0.026829
0.0254324
0.0241697
0.0230311
0.0220005
0.0210654
0.0202171
0.0194452
0.0187453
0.0181121
0.0175304
0.0169737
0.0164749
0.0159743
0.0154751
0.0150227
0.0146163
0.0142409
0.013886
0.0135484
0.0132347
0.0129111
0.0126242
0.0123308
0.0120829
0.0118373
0.0116066
0.0113834
0.0111718
0.0701911
0.0629009
0.0563913
0.0509156
0.0463123
0.0424725
0.0392407
0.036477
0.0340959
0.0320249
0.0302085
0.0286113
0.0271959
0.0259106
0.0247535
0.0237015
0.0227509
0.0218961
0.0211165
0.0204006
0.0197478
0.0191393
0.0185165
0.0179874
0.0174795
0.017011
0.0165625
0.0161507
0.0157421
0.0153442
0.0149727
0.0146325
0.0143226
0.0140228
0.0137326
0.0134517
0.0131759
0.0129139
0.0126637
0.0124246
0.0907085
0.0771113
0.0662989
0.0585306
0.0527187
0.0482169
0.0446266
0.0416845
0.0392182
0.0370981
0.0352397
0.0336457
0.0322004
0.030866
0.0296986
0.0284846
0.0274151
0.0264419
0.0255851
0.0247709
0.0240334
0.0233435
0.0226754
0.0220858
0.0215143
0.0209843
0.02048
0.0200085
0.0195572
0.0191381
0.0187374
0.0183548
0.0179858
0.0176343
0.0172977
0.0169727
0.0166521
0.0163416
0.016052
0.0157686
0.140559
0.116424
0.0953809
0.0810742
0.0719885
0.065871
0.0613223
0.0577717
0.0549774
0.0525815
0.0504753
0.0487008
0.0468486
0.0451008
0.0435013
0.0420082
0.0406265
0.0393571
0.0381942
0.037118
0.0361302
0.0352277
0.0344053
0.0336767
0.0329548
0.0322668
0.031605
0.0309715
0.03036
0.0297791
0.029214
0.0286684
0.0281424
0.0276359
0.0271422
0.0266727
0.0262411
0.0258249
0.0254385
0.0250054
0.386958
0.30306
0.237091
0.201414
0.180395
0.167215
0.157617
0.150028
0.144022
0.13911
0.134767
0.130973
0.12716
0.123557
0.120154
0.117037
0.114067
0.111327
0.108728
0.106323
0.103984
0.101824
0.0997812
0.0979346
0.0960485
0.094297
0.0925583
0.0908932
0.0892307
0.0876522
0.086098
0.0846131
0.0831669
0.0817525
0.0803961
0.0790951
0.0779661
0.0767813
0.0757844
0.0740095
0.140563
0.116418
0.0953307
0.0810858
0.0720894
0.0661424
0.0616124
0.0580006
0.055147
0.0526772
0.0505242
0.0486662
0.0467709
0.0450259
0.0434092
0.0419499
0.0405578
0.0393156
0.0381582
0.037091
0.0361154
0.0352154
0.0343955
0.0336641
0.0329365
0.03224
0.0315722
0.0309352
0.0303224
0.029746
0.0291852
0.0286441
0.0281207
0.0276222
0.0271494
0.026692
0.0262469
0.0258176
0.0254248
0.0249895
0.0642674
0.0533093
0.046794
0.0413438
0.0368999
0.0337503
0.0314989
0.0293856
0.0275109
0.0258831
0.0244908
0.0232102
0.0221123
0.0210052
0.0201896
0.0191986
0.0184596
0.0176468
0.0169788
0.0163328
0.0157266
0.0151651
0.0146202
0.0141466
0.0137397
0.0133581
0.0130085
0.0126391
0.0123755
0.0119722
0.0117141
0.0114756
0.0112151
0.0110404
0.0106158
0.0104935
0.0103386
0.0101655
0.0100118
0.00983565
0.054364
0.0432676
0.0374319
0.0325944
0.0293882
0.0266915
0.024422
0.0224825
0.0208242
0.0193851
0.0181478
0.0168926
0.0161059
0.0149363
0.0143285
0.0134173
0.0129244
0.0121973
0.0117729
0.0112079
0.0107632
0.0104064
0.0099047
0.00964021
0.00922134
0.00896602
0.00867894
0.00836011
0.00815083
0.00787173
0.00767819
0.00746896
0.0073129
0.00706474
0.00688449
0.00671079
0.00660362
0.00640997
0.00626019
0.00603088
0.0499064
0.0418847
0.0360659
0.0314336
0.0278179
0.024938
0.0226878
0.0207356
0.0190446
0.017571
0.0162799
0.015133
0.0141061
0.013221
0.0124316
0.0117189
0.0110919
0.0105288
0.00998838
0.00957123
0.00903409
0.00872638
0.0082379
0.00803136
0.00761863
0.00741182
0.00707705
0.00690057
0.00662244
0.00646886
0.00624473
0.00606274
0.00594199
0.00570805
0.00557819
0.00548812
0.00538234
0.00519478
0.00508023
0.00485501
0.0459722
0.0403568
0.0354839
0.0313522
0.0278729
0.0247595
0.0221365
0.020057
0.0184004
0.0169258
0.015619
0.014458
0.0134212
0.0125153
0.011709
0.0109883
0.0103426
0.00976247
0.00923861
0.00876556
0.00833635
0.00794707
0.00759788
0.00727261
0.00698546
0.00669001
0.00645136
0.00618645
0.0059775
0.00579924
0.00562519
0.00542967
0.00531752
0.00510346
0.00498619
0.00491434
0.0048028
0.00464788
0.00452687
0.00432664
0.0457488
0.0402095
0.0353823
0.0312651
0.0277755
0.0247853
0.0221316
0.0197782
0.0180302
0.0166143
0.0153268
0.0141702
0.0131412
0.0122198
0.0114025
0.0106747
0.0100242
0.00944094
0.00891665
0.00844407
0.00801743
0.00763181
0.00728856
0.00698146
0.00667862
0.00639963
0.00615184
0.0059076
0.00570066
0.00551826
0.00533738
0.00518493
0.00504472
0.00487974
0.00474715
0.00466837
0.00454586
0.00442651
0.00424745
0.00410097
0.0461755
0.0403467
0.0353571
0.0311308
0.0275832
0.0245392
0.0218289
0.0195763
0.0179352
0.0165133
0.0152314
0.0140849
0.0130657
0.0121674
0.0113668
0.0106509
0.0100093
0.00943303
0.0089134
0.00844495
0.00802122
0.00763783
0.00729573
0.00698671
0.00669893
0.00641611
0.00618756
0.00589382
0.00571211
0.00546242
0.0053223
0.00517711
0.00503536
0.00484144
0.00470907
0.00462682
0.00450471
0.00437898
0.00421991
0.00405945
0.0454597
0.0400694
0.0350329
0.0307412
0.0272221
0.0240246
0.021646
0.0198586
0.0182582
0.016842
0.0155905
0.0144756
0.0134872
0.0126303
0.0118581
0.0111599
0.0105246
0.00995484
0.00942581
0.00895686
0.0085252
0.00813611
0.00780661
0.00740443
0.00716837
0.00679646
0.00661322
0.0062949
0.0061179
0.0058413
0.00570723
0.00554595
0.00540566
0.00515379
0.00501323
0.00486204
0.00476294
0.00463941
0.00449085
0.00430393
0.0508035
0.0417226
0.0364471
0.0314569
0.0280514
0.025559
0.0234001
0.0215453
0.019921
0.0185063
0.0172619
0.0161552
0.0151991
0.014325
0.0135347
0.0128539
0.0121045
0.0116113
0.0108997
0.0105189
0.00994127
0.00961386
0.00910747
0.00881794
0.00849227
0.00812897
0.00792486
0.0075758
0.00739602
0.00706816
0.00690283
0.0067129
0.00655314
0.00629732
0.00613734
0.00599854
0.00576905
0.00565703
0.00549935
0.00533019
0.0641935
0.053362
0.0467729
0.0415562
0.0372636
0.0340672
0.0314018
0.0292911
0.0273327
0.025735
0.0243542
0.0230529
0.0220617
0.0209799
0.0201084
0.019184
0.0183889
0.0176187
0.0169471
0.0163052
0.0157258
0.0151387
0.0146442
0.0141249
0.0137515
0.0133402
0.0130212
0.0126406
0.0123745
0.0119717
0.0117095
0.0114686
0.011221
0.0109722
0.0107305
0.0106117
0.0101856
0.0100951
0.00996412
0.00979159
0.136709
0.113619
0.0952532
0.0827816
0.074678
0.0690343
0.0646327
0.061071
0.0581358
0.0556768
0.0533798
0.0515388
0.049759
0.0480476
0.0464051
0.0449323
0.0435591
0.0423218
0.0411635
0.0400997
0.039082
0.0381457
0.0372722
0.0364897
0.0357402
0.0350228
0.034332
0.0336606
0.0330092
0.0323748
0.0317618
0.0311682
0.0305952
0.0300455
0.0295167
0.0290061
0.0285301
0.0280749
0.0276404
0.0271487
0.090712
0.0771084
0.0663623
0.0583186
0.0526157
0.0482112
0.0446672
0.041735
0.0392617
0.0371254
0.0352508
0.0336151
0.0321742
0.0308429
0.029658
0.0284578
0.0273651
0.0264243
0.0255521
0.024751
0.0240185
0.0233219
0.0226595
0.0220669
0.0214993
0.0209673
0.0204614
0.0199886
0.019537
0.0191202
0.0187218
0.0183419
0.0179759
0.0176275
0.0172931
0.0169733
0.0166607
0.016354
0.0160637
0.0157786
0.0507893
0.0418735
0.0366667
0.0313335
0.0280422
0.0255784
0.0234433
0.021592
0.0199711
0.0185539
0.0173238
0.016194
0.0152507
0.0143105
0.0136283
0.0127798
0.0122516
0.0114611
0.0110374
0.0104234
0.00999277
0.0096488
0.00911905
0.00886408
0.0084332
0.00815479
0.00793105
0.00758189
0.007401
0.00706955
0.00690849
0.00671933
0.00656299
0.00631225
0.00616504
0.00593912
0.00581721
0.00566299
0.00550759
0.00535754
0.0457519
0.0395513
0.034445
0.0300837
0.0265606
0.0236697
0.021255
0.0192162
0.0174765
0.015977
0.014678
0.013542
0.0125223
0.011627
0.0108522
0.0101146
0.00948298
0.00882954
0.00836152
0.00793383
0.00753895
0.00718102
0.00678394
0.00650158
0.00618079
0.00587395
0.00567131
0.00539346
0.00521258
0.00500535
0.00486682
0.00470594
0.004591
0.00437906
0.00426111
0.0041973
0.00411053
0.00394406
0.00384659
0.00364477
0.0477987
0.0414094
0.0360657
0.0315865
0.0278396
0.0246975
0.0220544
0.0198058
0.0178793
0.0162179
0.0147771
0.0135207
0.0124111
0.0114401
0.0105795
0.00981414
0.00913085
0.00851191
0.00796034
0.00747232
0.00702538
0.00663868
0.00620258
0.00587048
0.00561421
0.00538048
0.00512368
0.0049203
0.00469436
0.00452085
0.00434081
0.00421813
0.00411127
0.00392891
0.0038112
0.00377584
0.00366827
0.00355818
0.00344379
0.00330586
0.0500841
0.0432591
0.0376371
0.0329589
0.0290346
0.0257079
0.0228806
0.0204742
0.0184249
0.0166595
0.0151283
0.0137926
0.01262
0.0115924
0.010684
0.00987814
0.00916066
0.00851897
0.00794381
0.00742691
0.00696068
0.00654521
0.00614586
0.00581821
0.00550531
0.00521579
0.00490476
0.00469764
0.0045326
0.00439203
0.00423233
0.00408516
0.00394858
0.00382732
0.00370733
0.00367444
0.00356079
0.00344639
0.00333292
0.00322414
0.0503283
0.0437272
0.0381488
0.0334419
0.0294637
0.0260841
0.0231958
0.0207182
0.0186066
0.0167994
0.0152368
0.0138754
0.0126809
0.0116358
0.0107122
0.0098933
0.00916437
0.00851284
0.00792963
0.00740656
0.00693567
0.00651454
0.00611829
0.0057924
0.00547566
0.00518162
0.00491742
0.00466712
0.00442807
0.00433109
0.00418108
0.00403983
0.00390558
0.00378694
0.00367067
0.00364891
0.00353294
0.00341732
0.00330164
0.00318887
0.049362
0.0429535
0.0375097
0.0328894
0.0289701
0.025636
0.0227906
0.020363
0.0182976
0.0165259
0.0149964
0.0136673
0.0124975
0.0114813
0.0105824
0.00978423
0.00907411
0.00843829
0.00786872
0.00735722
0.00689655
0.00648238
0.0060944
0.00576839
0.00545152
0.00516587
0.0049088
0.00463407
0.00446034
0.00432812