/*--------------------------------*- C++ -*----------------------------------*\
| =========                 |                                                 |
| \\      /  F ield         | OpenFOAM: The Open Source CFD Toolbox           |
|  \\    /   O peration     | Version:  2212                                  |
|   \\  /    A nd           | Website:  www.openfoam.com                      |
|    \\/     M anipulation  |                                                 |
\*---------------------------------------------------------------------------*/
FoamFile
{
    version     2.0;
    format      ascii;
    arch        "LSB;label=32;scalar=64";
    class       volScalarField;
    location    "2.4";
    object      k;
}
// * * * * * * * * * * * * * * * * * * * * * * * * * * * * * * * * * * * * * //

dimensions      [0 2 -2 0 0 0 0];

internalField   nonuniform List<scalar> 
6840
(
0.213564
0.055916
0.0283994
0.0193412
0.0146928
0.0118512
0.0098908
0.00851622
0.00749159
0.00669674
0.00606122
0.00555192
0.00512469
0.00474843
0.00443102
0.00416608
0.0039446
0.00376607
0.0036587
0.00357001
0.264759
0.104702
0.0585298
0.0391631
0.02862
0.0219936
0.0175363
0.0143636
0.0120087
0.0102144
0.00881729
0.00770713
0.00680624
0.00606408
0.00545408
0.00495519
0.00454209
0.0042011
0.0039385
0.00376775
0.283364
0.126774
0.071702
0.0473282
0.0338664
0.0256617
0.0204609
0.0167972
0.0140488
0.0119413
0.0102844
0.0089563
0.00788537
0.00701157
0.00628886
0.00568529
0.00517869
0.00475165
0.00439355
0.00411512
0.292299
0.141633
0.0819302
0.0541654
0.0389231
0.0292874
0.0232722
0.0190785
0.0159339
0.0135147
0.0116263
0.0101121
0.00888085
0.00786944
0.0070304
0.00632825
0.00573527
0.0052304
0.00479965
0.00446351
0.295943
0.148782
0.0871941
0.0576749
0.0415193
0.0310721
0.0246449
0.0202207
0.0169045
0.0143242
0.0123072
0.0107006
0.00939353
0.00831852
0.00742508
0.00667527
0.00603967
0.00549557
0.00502869
0.00466416
0.295943
0.148782
0.0871941
0.0576749
0.0415193
0.0310721
0.0246448
0.0202207
0.0169045
0.0143242
0.0123072
0.0107006
0.00939358
0.00831873
0.00742551
0.00667574
0.00604022
0.00549619
0.00502885
0.00465808
0.292299
0.141633
0.0819301
0.0541654
0.038923
0.0292874
0.0232722
0.0190785
0.0159339
0.0135146
0.0116263
0.0101121
0.00888094
0.00786982
0.00703106
0.00632901
0.00573626
0.00523178
0.00480213
0.00447488
0.283364
0.126774
0.071702
0.0473282
0.0338663
0.0256617
0.0204609
0.0167972
0.0140488
0.0119413
0.0102843
0.00895628
0.00788542
0.00701183
0.00628936
0.0056859
0.00517947
0.00475275
0.0043945
0.00410894
0.264759
0.104702
0.0585298
0.0391631
0.02862
0.0219936
0.0175363
0.0143636
0.0120087
0.0102144
0.00881729
0.00770714
0.00680622
0.0060643
0.00545436
0.00495543
0.00454226
0.00420117
0.00393821
0.00376656
0.213564
0.055916
0.0283994
0.0193412
0.0146928
0.0118512
0.0098908
0.00851622
0.00749158
0.00669673
0.00606122
0.0055519
0.00512467
0.00474842
0.00443098
0.00416603
0.00394453
0.00376598
0.00365859
0.0035698
0.264759
0.104702
0.0585298
0.0391631
0.02862
0.0219936
0.0175363
0.0143636
0.0120087
0.0102144
0.0088173
0.00770716
0.00680628
0.00606424
0.00545442
0.00495552
0.00454238
0.0042013
0.00393838
0.00376681
0.311746
0.197541
0.130357
0.0911458
0.0668024
0.0508113
0.0397947
0.0319125
0.0260948
0.0216881
0.0182777
0.01559
0.0134431
0.011701
0.0102714
0.00908575
0.00809295
0.00725652
0.00656043
0.00588784
0.31754
0.217754
0.151086
0.108549
0.0807157
0.0618727
0.0486774
0.0391419
0.0320588
0.0266717
0.0224903
0.0191875
0.0165391
0.0143869
0.0126173
0.0111489
0.00991968
0.00888201
0.00800221
0.00725259
0.319723
0.227073
0.162232
0.118772
0.089361
0.0689927
0.0545305
0.0439842
0.0360995
0.0300743
0.0253815
0.0216642
0.0186763
0.016243
0.0142386
0.0125706
0.0111695
0.00998222
0.00896764
0.00809355
0.320484
0.23086
0.167176
0.123531
0.0935158
0.0724823
0.0574404
0.0464208
0.0381531
0.0318162
0.0268694
0.0229445
0.0197848
0.0172082
0.0150829
0.0133115
0.0118206
0.0105539
0.00946792
0.00852151
0.320484
0.23086
0.167176
0.123531
0.0935158
0.0724823
0.0574404
0.0464208
0.0381531
0.0318162
0.0268694
0.0229446
0.0197849
0.0172086
0.0150836
0.0133123
0.0118215
0.010555
0.00946897
0.00852405
0.319723
0.227073
0.162232
0.118772
0.089361
0.0689927
0.0545304
0.0439843
0.0360995
0.0300743
0.0253815
0.0216643
0.0186765
0.0162437
0.0142397
0.0125719
0.0111711
0.00998439
0.00897022
0.00809801
0.31754
0.217754
0.151086
0.108549
0.0807156
0.0618727
0.0486774
0.0391419
0.0320588
0.0266717
0.0224902
0.0191875
0.0165392
0.0143872
0.012618
0.0111497
0.00992068
0.00888348
0.00800551
0.00725521
0.311746
0.197541
0.130357
0.0911458
0.0668024
0.0508113
0.0397947
0.0319125
0.0260948
0.0216881
0.0182776
0.01559
0.013443
0.011701
0.0102714
0.0090856
0.00809273
0.00725624
0.00656006
0.00588726
0.264759
0.104702
0.0585298
0.0391631
0.02862
0.0219936
0.0175363
0.0143636
0.0120087
0.0102144
0.00881727
0.00770711
0.00680621
0.00606402
0.00545405
0.00495514
0.004542
0.00420097
0.00393832
0.00376747
0.283364
0.126774
0.071702
0.0473282
0.0338663
0.0256617
0.0204609
0.0167972
0.0140488
0.0119413
0.0102843
0.00895628
0.00788538
0.00701175
0.00628945
0.005686
0.00517957
0.00475284
0.00439464
0.00410913
0.31754
0.217754
0.151086
0.108549
0.0807156
0.0618727
0.0486774
0.0391419
0.0320588
0.0266717
0.0224903
0.0191875
0.0165392
0.0143871
0.0126181
0.0111499
0.00992088
0.00888369
0.00800578
0.00725569
0.322005
0.239026
0.177588
0.133616
0.102323
0.079867
0.0635107
0.0513823
0.0422219
0.0351798
0.0296763
0.0253101
0.0217991
0.018941
0.0165887
0.0146335
0.0129938
0.0116072
0.0104226
0.0093669
0.323293
0.245617
0.187499
0.144537
0.112864
0.0894039
0.0718633
0.0585865
0.0483996
0.0404743
0.0342248
0.0292334
0.0251993
0.0219029
0.019182
0.0169155
0.015011
0.0133972
0.0120162
0.0108097
0.323714
0.247819
0.191099
0.14881
0.117249
0.0935707
0.0756572
0.0619603
0.0513624
0.0430608
0.0364786
0.0311987
0.0269165
0.0234079
0.0205055
0.0180832
0.0160446
0.0143142
0.0128294
0.0115215
0.323714
0.247819
0.191099
0.14881
0.117249
0.0935707
0.0756572
0.0619604
0.0513624
0.0430608
0.0364787
0.0311987
0.0269167
0.0234082
0.0205059
0.0180838
0.0160453
0.0143152
0.0128313
0.0115273
0.323293
0.245617
0.187499
0.144537
0.112864
0.0894039
0.0718633
0.0585865
0.0483996
0.0404744
0.0342249
0.0292335
0.0251995
0.0219033
0.0191827
0.0169162
0.015012
0.0133986
0.0120182
0.0108122
0.322005
0.239026
0.177588
0.133616
0.102323
0.079867
0.0635107
0.0513823
0.0422219
0.0351798
0.0296762
0.0253101
0.021799
0.018941
0.0165887
0.0146334
0.0129936
0.011607
0.0104224
0.00936656
0.31754
0.217754
0.151086
0.108549
0.0807157
0.0618727
0.0486774
0.0391419
0.0320588
0.0266717
0.0224902
0.0191874
0.016539
0.0143866
0.0126173
0.0111489
0.00991963
0.00888187
0.008002
0.00725215
0.283364
0.126774
0.071702
0.0473282
0.0338663
0.0256617
0.0204609
0.0167972
0.0140488
0.0119413
0.0102844
0.00895627
0.0078853
0.00701146
0.00628892
0.00568535
0.00517872
0.00475165
0.00439352
0.00411502
0.292299
0.141633
0.0819301
0.0541654
0.038923
0.0292874
0.0232722
0.0190785
0.0159339
0.0135147
0.0116263
0.0101121
0.00888088
0.0078697
0.00703116
0.00632911
0.00573634
0.00523184
0.00480217
0.00447493
0.319723
0.227073
0.162232
0.118772
0.089361
0.0689927
0.0545305
0.0439843
0.0360995
0.0300743
0.0253815
0.0216643
0.0186764
0.0162435
0.0142398
0.012572
0.0111712
0.00998448
0.00897027
0.00809801
0.323293
0.245617
0.187499
0.144537
0.112864
0.0894039
0.0718633
0.0585865
0.0483996
0.0404744
0.0342249
0.0292335
0.0251995
0.0219033
0.0191827
0.0169163
0.015012
0.0133987
0.0120183
0.0108123
0.324288
0.250862
0.19613
0.154888
0.123591
0.09968
0.0812742
0.0669838
0.0557849
0.0469225
0.0398397
0.034124
0.0294678
0.0256406
0.0224678
0.0198161
0.0175827
0.0156863
0.0140581
0.0126241
0.32459
0.252403
0.19891
0.158543
0.12769
0.103871
0.08532
0.0707498
0.0592098
0.0499926
0.0425683
0.0365382
0.0316003
0.0275247
0.024135
0.0212948
0.0188976
0.0168581
0.0151011
0.0135349
0.32459
0.252403
0.19891
0.158543
0.12769
0.103871
0.08532
0.0707498
0.0592098
0.0499926
0.0425683
0.0365382
0.0316003
0.0275248
0.0241351
0.0212949
0.0188979
0.0168585
0.0151022
0.0135407
0.324288
0.250862
0.19613
0.154888
0.123591
0.09968
0.0812741
0.0669838
0.0557849
0.0469225
0.0398397
0.034124
0.0294678
0.0256406
0.0224678
0.0198161
0.0175827
0.0156862
0.014058
0.012624
0.323293
0.245617
0.187499
0.144537
0.112864
0.0894039
0.0718633
0.0585865
0.0483996
0.0404743
0.0342248
0.0292334
0.0251992
0.0219028
0.019182
0.0169154
0.0150109
0.0133971
0.012016
0.0108096
0.319723
0.227073
0.162232
0.118772
0.089361
0.0689927
0.0545305
0.0439842
0.0360995
0.0300743
0.0253815
0.0216642
0.0186762
0.0162428
0.0142386
0.0125707
0.0111695
0.0099822
0.00896755
0.00809348
0.292299
0.141633
0.0819301
0.0541654
0.0389231
0.0292874
0.0232722
0.0190785
0.0159339
0.0135147
0.0116263
0.0101121
0.00888079
0.00786931
0.0070305
0.00632833
0.00573534
0.00523046
0.00479972
0.00446364
0.295943
0.148782
0.0871941
0.0576749
0.0415193
0.0310721
0.0246448
0.0202207
0.0169045
0.0143242
0.0123072
0.0107006
0.00939357
0.00831867
0.00742549
0.00667571
0.00604019
0.00549614
0.00502877
0.00465786
0.320484
0.23086
0.167176
0.123531
0.0935158
0.0724823
0.0574404
0.0464208
0.0381531
0.0318162
0.0268694
0.0229446
0.0197849
0.0172085
0.0150835
0.0133122
0.0118214
0.0105549
0.00946878
0.00852368
0.323714
0.247819
0.191099
0.14881
0.117249
0.0935707
0.0756572
0.0619604
0.0513625
0.0430609
0.0364787
0.0311988
0.0269167
0.0234081
0.0205059
0.0180837
0.0160452
0.0143151
0.0128312
0.0115272
0.32459
0.252403
0.19891
0.158543
0.12769
0.103871
0.08532
0.0707498
0.0592099
0.0499926
0.0425683
0.0365382
0.0316003
0.0275248
0.0241351
0.0212949
0.0188979
0.0168585
0.0151022
0.0135407
0.324844
0.253685
0.20131
0.161836
0.131535
0.107943
0.08937
0.0746125
0.062792
0.0532534
0.0455014
0.0391574
0.0339304
0.0295946
0.0259744
0.022932
0.0203581
0.018164
0.016271
0.0145894
0.324844
0.253685
0.20131
0.161836
0.131535
0.107943
0.08937
0.0746125
0.062792
0.0532534
0.0455014
0.0391574
0.0339304
0.0295946
0.0259744
0.022932
0.0203581
0.018164
0.016271
0.0145894
0.32459
0.252403
0.19891
0.158543
0.12769
0.103871
0.08532
0.0707498
0.0592098
0.0499926
0.0425683
0.0365382
0.0316003
0.0275247
0.0241349
0.0212947
0.0188976
0.0168581
0.0151011
0.0135349
0.323714
0.247819
0.191099
0.14881
0.117249
0.0935706
0.0756572
0.0619603
0.0513624
0.0430608
0.0364786
0.0311986
0.0269165
0.0234078
0.0205055
0.0180832
0.0160445
0.0143141
0.0128294
0.0115214
0.320484
0.23086
0.167176
0.123531
0.0935158
0.0724823
0.0574403
0.0464208
0.0381531
0.0318162
0.0268694
0.0229445
0.0197848
0.0172081
0.0150829
0.0133115
0.0118206
0.010554
0.00946794
0.00852156
0.295943
0.148782
0.0871941
0.0576749
0.0415193
0.0310721
0.0246449
0.0202207
0.0169045
0.0143242
0.0123072
0.0107006
0.00939352
0.00831847
0.00742511
0.0066753
0.00603971
0.00549561
0.00502876
0.0046643
0.295943
0.148782
0.0871941
0.0576749
0.0415193
0.0310721
0.0246449
0.0202207
0.0169045
0.0143242
0.0123072
0.0107006
0.00939353
0.00831851
0.00742508
0.00667525
0.00603964
0.00549551
0.0050286
0.00466407
0.320484
0.23086
0.167176
0.123531
0.0935158
0.0724823
0.0574404
0.0464208
0.0381531
0.0318162
0.0268694
0.0229445
0.0197848
0.0172082
0.0150829
0.0133114
0.0118205
0.0105538
0.00946767
0.00852108
0.323714
0.247819
0.191099
0.14881
0.117249
0.0935707
0.0756572
0.0619603
0.0513624
0.0430608
0.0364786
0.0311987
0.0269165
0.0234079
0.0205055
0.0180832
0.0160445
0.0143141
0.0128293
0.0115213
0.32459
0.252403
0.19891
0.158543
0.12769
0.103871
0.08532
0.0707498
0.0592098
0.0499926
0.0425683
0.0365382
0.0316003
0.0275247
0.024135
0.0212948
0.0188976
0.0168581
0.0151011
0.0135349
0.324844
0.253685
0.20131
0.161836
0.131535
0.107943
0.08937
0.0746125
0.062792
0.0532534
0.0455014
0.0391574
0.0339304
0.0295946
0.0259745
0.022932
0.0203581
0.018164
0.0162711
0.0145894
0.324844
0.253685
0.20131
0.161836
0.131535
0.107943
0.08937
0.0746125
0.062792
0.0532534
0.0455014
0.0391574
0.0339304
0.0295946
0.0259744
0.022932
0.0203581
0.018164
0.016271
0.0145894
0.32459
0.252403
0.19891
0.158543
0.12769
0.103871
0.08532
0.0707498
0.0592099
0.0499926
0.0425683
0.0365382
0.0316004
0.0275248
0.0241351
0.0212949
0.0188978
0.0168585
0.0151023
0.0135408
0.323714
0.247819
0.191099
0.14881
0.117249
0.0935707
0.0756572
0.0619604
0.0513624
0.0430609
0.0364787
0.0311988
0.0269167
0.0234082
0.0205059
0.0180837
0.0160452
0.0143152
0.0128313
0.0115274
0.320484
0.23086
0.167176
0.123531
0.0935158
0.0724823
0.0574404
0.0464208
0.0381531
0.0318162
0.0268694
0.0229446
0.019785
0.0172086
0.0150834
0.0133121
0.0118214
0.010555
0.00946897
0.00852402
0.295943
0.148782
0.0871941
0.0576749
0.0415193
0.0310721
0.0246448
0.0202207
0.0169045
0.0143242
0.0123072
0.0107006
0.00939362
0.00831874
0.00742541
0.00667566
0.00604016
0.00549616
0.00502883
0.00465798
0.292299
0.141633
0.0819302
0.0541654
0.0389231
0.0292874
0.0232723
0.0190785
0.0159339
0.0135147
0.0116263
0.0101121
0.00888086
0.00786944
0.00703041
0.00632825
0.00573527
0.00523038
0.00479963
0.00446349
0.319723
0.227073
0.162232
0.118772
0.0893611
0.0689927
0.0545305
0.0439842
0.0360995
0.0300743
0.0253815
0.0216643
0.0186763
0.016243
0.0142386
0.0125706
0.0111695
0.00998215
0.00896754
0.00809344
0.323293
0.245617
0.187499
0.144537
0.112864
0.0894039
0.0718633
0.0585865
0.0483996
0.0404743
0.0342248
0.0292334
0.0251993
0.0219029
0.019182
0.0169155
0.0150109
0.0133972
0.0120162
0.0108098
0.324288
0.250862
0.19613
0.154888
0.123591
0.09968
0.0812742
0.0669839
0.0557849
0.0469225
0.0398397
0.034124
0.0294678
0.0256406
0.0224678
0.0198162
0.0175827
0.0156863
0.0140582
0.0126243
0.32459
0.252403
0.19891
0.158543
0.12769
0.103871
0.08532
0.0707498
0.0592099
0.0499926
0.0425683
0.0365382
0.0316004
0.0275248
0.0241351
0.021295
0.0188979
0.0168586
0.0151023
0.0135408
0.32459
0.252403
0.19891
0.158543
0.12769
0.103871
0.08532
0.0707498
0.0592098
0.0499926
0.0425683
0.0365382
0.0316003
0.0275247
0.024135
0.0212948
0.0188976
0.0168581
0.0151011
0.0135348
0.324288
0.250862
0.19613
0.154888
0.123591
0.09968
0.0812742
0.0669838
0.0557849
0.0469225
0.0398397
0.034124
0.0294678
0.0256406
0.0224678
0.0198161
0.0175827
0.0156863
0.0140581
0.0126241
0.323293
0.245617
0.187499
0.144537
0.112864
0.0894039
0.0718633
0.0585865
0.0483996
0.0404744
0.0342249
0.0292335
0.0251995
0.0219033
0.0191827
0.0169163
0.015012
0.0133987
0.0120183
0.0108124
0.319723
0.227073
0.162232
0.118772
0.089361
0.0689927
0.0545305
0.0439843
0.0360995
0.0300743
0.0253815
0.0216643
0.0186765
0.0162437
0.0142397
0.0125719
0.0111712
0.00998446
0.00897036
0.00809812
0.292299
0.141633
0.0819301
0.0541654
0.038923
0.0292874
0.0232722
0.0190785
0.0159339
0.0135146
0.0116263
0.0101121
0.00888095
0.00786982
0.00703104
0.006329
0.00573625
0.00523177
0.00480215
0.00447503
0.283364
0.126774
0.071702
0.0473282
0.0338664
0.0256617
0.020461
0.0167972
0.0140488
0.0119414
0.0102844
0.00895631
0.00788538
0.00701159
0.00628888
0.00568531
0.00517872
0.0047517
0.00439361
0.00411529
0.31754
0.217754
0.151086
0.108549
0.0807157
0.0618727
0.0486774
0.0391419
0.0320588
0.0266717
0.0224903
0.0191875
0.0165391
0.0143869
0.0126173
0.011149
0.00991974
0.00888213
0.00800235
0.00725299
0.322005
0.239026
0.177588
0.133616
0.102323
0.079867
0.0635107
0.0513823
0.0422219
0.0351798
0.0296763
0.0253101
0.0217991
0.0189411
0.0165887
0.0146335
0.0129938
0.0116073
0.0104228
0.00936732
0.323293
0.245617
0.187499
0.144537
0.112864
0.0894039
0.0718633
0.0585865
0.0483996
0.0404744
0.0342249
0.0292336
0.0251995
0.0219033
0.0191828
0.0169164
0.0150121
0.0133988
0.0120185
0.0108126
0.323714
0.247819
0.191099
0.14881
0.117249
0.0935707
0.0756572
0.0619604
0.0513625
0.0430609
0.0364787
0.0311988
0.0269167
0.0234082
0.0205059
0.0180838
0.0160453
0.0143153
0.0128313
0.0115274
0.323714
0.247819
0.191099
0.14881
0.117249
0.0935707
0.0756572
0.0619603
0.0513624
0.0430608
0.0364786
0.0311987
0.0269165
0.0234079
0.0205055
0.0180832
0.0160445
0.0143141
0.0128294
0.0115213
0.323293
0.245617
0.187499
0.144537
0.112864
0.0894039
0.0718633
0.0585865
0.0483996
0.0404743
0.0342248
0.0292334
0.0251992
0.0219028
0.0191821
0.0169155
0.0150109
0.0133972
0.0120161
0.0108095
0.322005
0.239026
0.177588
0.133616
0.102323
0.079867
0.0635107
0.0513823
0.0422219
0.0351798
0.0296763
0.0253101
0.0217991
0.018941
0.0165887
0.0146335
0.0129938
0.0116072
0.0104226
0.00936689
0.31754
0.217754
0.151086
0.108549
0.0807156
0.0618727
0.0486774
0.0391419
0.0320588
0.0266717
0.0224903
0.0191875
0.0165392
0.0143873
0.012618
0.0111498
0.00992077
0.00888363
0.00800571
0.00725559
0.283364
0.126774
0.071702
0.0473282
0.0338663
0.0256617
0.0204609
0.0167972
0.0140488
0.0119413
0.0102843
0.00895628
0.00788543
0.00701184
0.00628937
0.0056859
0.00517948
0.00475277
0.0043946
0.00410943
0.264759
0.104702
0.0585298
0.0391631
0.02862
0.0219936
0.0175363
0.0143636
0.0120087
0.0102144
0.0088173
0.00770715
0.00680626
0.00606411
0.00545411
0.00495524
0.00454215
0.0042012
0.00393862
0.00376796
0.311746
0.197541
0.130357
0.0911458
0.0668024
0.0508113
0.0397947
0.0319125
0.0260948
0.0216881
0.0182777
0.0155901
0.0134431
0.0117011
0.0102715
0.00908586
0.00809311
0.00725677
0.00656077
0.0058885
0.31754
0.217754
0.151086
0.108549
0.0807156
0.0618727
0.0486774
0.0391419
0.0320588
0.0266717
0.0224903
0.0191875
0.0165392
0.0143872
0.0126182
0.01115
0.00992102
0.00888389
0.00800608
0.00725619
0.319723
0.227073
0.162232
0.118772
0.089361
0.0689927
0.0545305
0.0439843
0.0360995
0.0300743
0.0253815
0.0216643
0.0186765
0.0162436
0.0142398
0.0125721
0.0111713
0.00998461
0.00897047
0.00809832
0.320484
0.23086
0.167176
0.123531
0.0935158
0.0724823
0.0574404
0.0464208
0.0381531
0.0318162
0.0268695
0.0229446
0.0197849
0.0172085
0.0150835
0.0133122
0.0118214
0.0105549
0.00946885
0.00852379
0.320484
0.23086
0.167176
0.123531
0.0935158
0.0724823
0.0574403
0.0464208
0.0381531
0.0318162
0.0268694
0.0229445
0.0197848
0.0172081
0.0150828
0.0133114
0.0118205
0.0105538
0.00946773
0.0085211
0.319723
0.227073
0.162232
0.118772
0.089361
0.0689927
0.0545304
0.0439843
0.0360995
0.0300743
0.0253815
0.0216642
0.0186762
0.0162429
0.0142386
0.0125707
0.0111695
0.0099822
0.00896754
0.0080933
0.31754
0.217754
0.151086
0.108549
0.0807157
0.0618727
0.0486774
0.0391419
0.0320588
0.0266717
0.0224903
0.0191875
0.0165391
0.0143867
0.0126174
0.0111491
0.0099198
0.00888215
0.00800232
0.00725272
0.311746
0.197541
0.130357
0.0911458
0.0668024
0.0508113
0.0397947
0.0319125
0.0260948
0.0216881
0.0182777
0.01559
0.0134431
0.0117011
0.0102715
0.00908574
0.00809295
0.00725656
0.00656046
0.00588798
0.264759
0.104702
0.0585298
0.0391631
0.02862
0.0219936
0.0175363
0.0143636
0.0120087
0.0102144
0.0088173
0.00770716
0.00680626
0.00606433
0.0054544
0.00495548
0.00454235
0.0042013
0.00393842
0.00376696
0.213564
0.055916
0.0283994
0.0193412
0.0146928
0.0118512
0.0098908
0.00851622
0.00749159
0.00669674
0.00606123
0.00555192
0.00512471
0.00474845
0.00443104
0.00416611
0.00394465
0.00376613
0.00365877
0.00357017
0.264759
0.104702
0.0585298
0.0391631
0.02862
0.0219936
0.0175363
0.0143636
0.0120087
0.0102144
0.00881732
0.00770718
0.00680631
0.00606429
0.00545447
0.0049556
0.00454248
0.00420145
0.0039386
0.00376709
0.283364
0.126774
0.071702
0.0473282
0.0338663
0.0256617
0.0204609
0.0167972
0.0140488
0.0119413
0.0102844
0.0089563
0.00788541
0.00701178
0.00628949
0.00568605
0.00517962
0.0047529
0.00439471
0.00410923
0.292299
0.141633
0.0819301
0.0541654
0.038923
0.0292874
0.0232722
0.0190785
0.0159339
0.0135147
0.0116263
0.0101121
0.00888089
0.00786971
0.00703119
0.00632912
0.00573635
0.00523184
0.00480217
0.0044749
0.295943
0.148782
0.0871941
0.0576749
0.0415193
0.0310721
0.0246448
0.0202207
0.0169045
0.0143242
0.0123072
0.0107006
0.00939356
0.00831866
0.00742549
0.0066757
0.00604017
0.00549611
0.00502871
0.00465776
0.295943
0.148782
0.0871941
0.0576749
0.0415193
0.0310721
0.0246449
0.0202207
0.0169045
0.0143242
0.0123072
0.0107006
0.00939352
0.00831847
0.00742505
0.00667523
0.00603962
0.00549549
0.00502859
0.00466404
0.292299
0.141633
0.0819301
0.0541654
0.0389231
0.0292874
0.0232722
0.0190785
0.015934
0.0135147
0.0116263
0.0101121
0.00888081
0.00786932
0.00703049
0.00632832
0.00573534
0.00523045
0.00479969
0.00446356
0.283364
0.126774
0.071702
0.0473282
0.0338664
0.0256617
0.0204609
0.0167972
0.0140488
0.0119414
0.0102844
0.0089563
0.00788534
0.00701149
0.00628896
0.00568541
0.00517881
0.00475179
0.00439369
0.00411533
0.264759
0.104702
0.0585298
0.0391631
0.02862
0.0219936
0.0175363
0.0143636
0.0120087
0.0102144
0.00881729
0.00770714
0.00680626
0.00606407
0.00545412
0.00495523
0.00454213
0.00420117
0.0039386
0.00376793
0.213564
0.055916
0.0283994
0.0193412
0.0146928
0.0118512
0.0098908
0.00851622
0.00749159
0.00669674
0.00606123
0.00555191
0.0051247
0.00474845
0.00443103
0.00416609
0.00394462
0.0037661
0.00365876
0.00357011
0.00496265
0.00421704
0.00357919
0.00321219
0.0029879
0.0028425
0.00273251
0.00264316
0.0025706
0.0025093
0.00245631
0.00240744
0.00236107
0.0023162
0.00227305
0.00223429
0.0021962
0.00216148
0.00212806
0.00209647
0.00206637
0.00203765
0.00201103
0.00198595
0.00196057
0.00193639
0.0019126
0.00188963
0.00186669
0.00184498
0.00182331
0.0018025
0.00178224
0.00176215
0.00174327
0.00172482
0.00170742
0.00168994
0.00167507
0.0016491
0.00410223
0.00363039
0.00322911
0.00294666
0.00275991
0.00262003
0.00250704
0.00241349
0.00233526
0.00226727
0.00220559
0.00215035
0.00210138
0.00205279
0.00200569
0.00196344
0.00192352
0.00188709
0.00185316
0.0018209
0.0017905
0.00176188
0.00173521
0.00171084
0.00168735
0.0016646
0.00164254
0.00162108
0.00160013
0.00157976
0.00155992
0.00154059
0.00152179
0.00150381
0.00148616
0.00146958
0.0014534
0.00143764
0.0014227
0.00140581
0.00395215
0.00361239
0.00331629
0.0031009
0.00292269
0.0027738
0.00264539
0.00253454
0.00243769
0.00235269
0.00227778
0.00221106
0.00215448
0.00209587
0.00204159
0.00199357
0.00194834
0.00190797
0.0018693
0.00183225
0.00179661
0.0017609
0.00172823
0.00169873
0.00167177
0.00164569
0.00162047
0.00159613
0.00157267
0.00154997
0.00152795
0.00150677
0.00148634
0.00146673
0.00144772
0.00143003
0.00141281
0.00139612
0.0013802
0.00136371
0.00392594
0.00365765
0.00342313
0.0032205
0.00304416
0.00288946
0.00275276
0.00263156
0.00252352
0.0024267
0.0023394
0.00226063
0.00219026
0.00212491
0.00206453
0.00200891
0.00195707
0.00191157
0.00186554
0.00181974
0.0017791
0.00174163
0.00170574
0.00167198
0.0016401
0.00160994
0.00158174
0.00155454
0.00152897
0.00150428
0.0014803
0.00145688
0.00143489
0.00141379
0.00139438
0.001375
0.00135707
0.00133953
0.00132293
0.00130577
0.00431878
0.00385835
0.00355421
0.00331842
0.00312233
0.00295566
0.00281125
0.00268377
0.00256948
0.00246646
0.00237311
0.00228837
0.00221182
0.00214018
0.00207435
0.00201363
0.00195813
0.00190674
0.00185878
0.00181425
0.0017728
0.00173497
0.00169477
0.00165808
0.00162385
0.00159178
0.0015616
0.00153307
0.00150638
0.00148094
0.00145637
0.00143238
0.00141006
0.00138846
0.00136833
0.00134793
0.00132926
0.00131135
0.00129469
0.001279
0.00436122
0.00391153
0.00360238
0.00335314
0.00314622
0.00297094
0.00282018
0.0026887
0.0025711
0.00246445
0.00236751
0.00227927
0.00219898
0.00212509
0.00205726
0.00199492
0.00193749
0.00188445
0.0018355
0.00179072
0.00174906
0.00171045
0.0016735
0.00164168
0.0016065
0.00157184
0.00154017
0.00151108
0.00148454
0.0014596
0.00143597
0.00141361
0.00139192
0.00136782
0.0013496
0.00132691
0.00131
0.00129251
0.00127613
0.00126071
0.00425235
0.00383175
0.00353115
0.0032933
0.00309298
0.00292097
0.00277176
0.00264054
0.00252279
0.00241659
0.00232061
0.00223388
0.0021555
0.00208348
0.00201746
0.00195677
0.00190089
0.00184949
0.00180209
0.00175858
0.00171877
0.00168178
0.00164601
0.00161363
0.00158088
0.0015479
0.00151767
0.00149031
0.0014647
0.00144049
0.0014172
0.00139516
0.00137341
0.00135113
0.00133242
0.00131337
0.00129598
0.00127907
0.00126266
0.00124701
0.00394777
0.00366741
0.00340901
0.00318179
0.00298486
0.00281561
0.00266935
0.00254127
0.0024285
0.00232848
0.00223918
0.00215931
0.00208737
0.00202103
0.00196036
0.00190438
0.00185312
0.00180635
0.00176317
0.00172305
0.00168611
0.00165121
0.00161518
0.00158438
0.00155453
0.00152677
0.00149997
0.0014752
0.00145026
0.00142597
0.00140312
0.00138196
0.00136253
0.00134351
0.001325
0.00130695
0.00128913
0.00127205
0.0012556
0.00123975
0.00407349
0.00365077
0.00330059
0.00302525
0.00281807
0.00265355
0.0025186
0.00240532
0.00230848
0.00222385
0.00214876
0.00208298
0.00202285
0.00196676
0.00191663
0.00186406
0.00181715
0.00177387
0.00173527
0.00169823
0.00166434
0.00163236
0.00160111
0.0015733
0.00154627
0.00152101
0.00149677
0.00147391
0.00145185
0.00143128
0.00141141
0.00139226
0.00137364
0.00135577
0.00133852
0.00132174
0.00130516
0.00128894
0.00127361
0.00125849
0.00422576
0.00372571
0.00326285
0.00292209
0.00269616
0.00253966
0.00241995
0.002325
0.00224833
0.00218173
0.00212307
0.00207171
0.00201943
0.0019693
0.00192248
0.00187822
0.00183679
0.00179828
0.00176272
0.00172943
0.0016987
0.0016705
0.00164466
0.00162164
0.00159861
0.00157652
0.00155513
0.0015345
0.00151444
0.00149531
0.00147646
0.00145814
0.00144034
0.00142306
0.00140611
0.00138976
0.00137469
0.00136007
0.00134637
0.00133096
0.00496281
0.0042172
0.00357965
0.00321079
0.00298261
0.00283587
0.00272603
0.00263781
0.00256676
0.00250799
0.00245573
0.00240968
0.00236292
0.00231829
0.00227562
0.00223618
0.00219824
0.00216297
0.00212927
0.0020978
0.00206705
0.00203856
0.00201148
0.00198687
0.00196146
0.00193777
0.0019141
0.0018913
0.00186836
0.00184648
0.0018247
0.00180377
0.00178325
0.00176304
0.00174352
0.0017246
0.00170813
0.00169075
0.00167604
0.00164976
0.00422592
0.00372561
0.00326156
0.00292178
0.0026985
0.0025463
0.00242687
0.00233041
0.00225235
0.00218405
0.00212445
0.00207074
0.00201728
0.00196686
0.00191933
0.00187597
0.00183419
0.00179648
0.00176113
0.00172816
0.00169786
0.00166983
0.00164414
0.00162112
0.00159795
0.00157559
0.00155398
0.00153322
0.00151308
0.00149405
0.00147531
0.00145711
0.00143938
0.00142237
0.00140608
0.00139025
0.00137476
0.0013597
0.00134576
0.00133023
0.00423734
0.00380674
0.00342771
0.00314648
0.00295713
0.00277492
0.00259173
0.0024323
0.00229524
0.00217272
0.00205781
0.00195509
0.00185074
0.00175779
0.00166308
0.00158687
0.00150996
0.00144656
0.00138712
0.00132906
0.00127626
0.00122946
0.00119335
0.00116119
0.00112701
0.00109394
0.00106156
0.00103195
0.00100207
0.00097748
0.000951855
0.000926476
0.000901807
0.000877225
0.000859294
0.000839
0.000817904
0.000797665
0.000778141
0.000760236
0.00553125
0.0050544
0.00462613
0.00426568
0.00394871
0.00367119
0.00342582
0.00320637
0.00300821
0.00282908
0.00266534
0.00251964
0.00238382
0.00226669
0.00215104
0.00205257
0.00195536
0.00187189
0.0017912
0.0017165
0.00164824
0.00157965
0.00152104
0.00146381
0.00141317
0.00136353
0.00131655
0.00127489
0.00123318
0.00119626
0.0011593
0.00112505
0.0010902
0.00105858
0.00103003
0.00100148
0.000972057
0.0009456
0.000919168
0.000887009
0.00684477
0.00612311
0.0055454
0.00506759
0.00466137
0.00430987
0.00399987
0.00372481
0.00347927
0.00325952
0.00306185
0.00288343
0.00272281
0.00257666
0.00244313
0.00232136
0.00220953
0.00210682
0.00201368
0.00192475
0.00184705
0.00177039
0.00170286
0.00163636
0.00157857
0.00152161
0.00147156
0.0014212
0.0013762
0.00133115
0.00128925
0.00125026
0.00121077
0.00117576
0.00114249
0.00110822
0.00107379
0.00104292
0.00101197
0.00097509
0.00726913
0.00662485
0.00604287
0.00552963
0.00507923
0.00468594
0.00434183
0.00403782
0.00376561
0.0035211
0.00330123
0.00310316
0.00292457
0.00276261
0.00261528
0.00248092
0.00235813
0.00224564
0.00214252
0.00204715
0.00196067
0.00187546
0.0017946
0.00172662
0.00166457
0.00160705
0.00155183
0.00149788
0.00144795
0.00140033
0.00135488
0.00131396
0.00127281
0.00123477
0.00119801
0.00116004
0.00112249
0.00108775
0.00105325
0.00101202
0.0075777
0.00685752
0.00623714
0.0057
0.00523256
0.00482336
0.00446512
0.00415244
0.0038741
0.00362299
0.00339647
0.00319188
0.00300787
0.00284047
0.00268829
0.0025495
0.0024226
0.00230627
0.00219942
0.00210098
0.00201034
0.00192609
0.00184863
0.00177183
0.00169679
0.00162964
0.0015742
0.00152381
0.00147599
0.00143015
0.00138565
0.00134579
0.00130287
0.00125944
0.00121906
0.00117745
0.00113822
0.00110024
0.00106451
0.001021
0.0072396
0.00660362
0.00602988
0.00552299
0.00507811
0.00468846
0.00434889
0.00405186
0.00378565
0.00354558
0.00332901
0.00313283
0.00295813
0.00279689
0.00264974
0.00251502
0.00239145
0.00227777
0.00217309
0.00207646
0.00198702
0.00190444
0.00182643
0.00175534
0.00168655
0.00162313
0.00156212
0.00150799
0.00145502
0.00140761
0.0013605
0.00131538
0.00127067
0.00122916
0.00118977
0.00114916
0.00111033
0.00107253
0.001036
0.000991314
0.00683226
0.00612759
0.00554631
0.00506067
0.00464963
0.00430198
0.00400061
0.00373251
0.0034925
0.00327696
0.00308207
0.00290608
0.00274967
0.0026023
0.00246694
0.00234199
0.00222714
0.00212069
0.00202297
0.00193229
0.00184802
0.00177072
0.00169423
0.00162942
0.00156373
0.00150612
0.00144795
0.00139673
0.0013448
0.00130019
0.00125474
0.00121056
0.00116572
0.00112661
0.00108866
0.00105226
0.00101426
0.000976346
0.000940316
0.000898228
0.00547442
0.00502517
0.00458156
0.00421266
0.00390144
0.00362861
0.00338762
0.00317083
0.00297484
0.00279735
0.002632
0.00248988
0.00235272
0.00222559
0.00210762
0.00199594
0.00189692
0.00180006
0.00171799
0.00163642
0.00156473
0.00149487
0.00143119
0.00137839
0.0013245
0.00127764
0.00122933
0.00118793
0.00114458
0.00110946
0.0010731
0.00103762
0.00100121
0.000969715
0.000939693
0.00090954
0.000879952
0.000848948
0.000821845
0.000799358
0.00423714
0.00380495
0.00343626
0.00313835
0.00293615
0.00275006
0.00257321
0.00242096
0.00228767
0.00217067
0.00205318
0.00196406
0.00186106
0.00176588
0.00167241
0.00159246
0.00151726
0.00145151
0.00139086
0.00133405
0.00127782
0.00123114
0.00119328
0.00116245
0.00112794
0.00109607
0.00106376
0.00103447
0.00100477
0.000980101
0.000954439
0.000928962
0.000903876
0.000880513
0.000858388
0.000835087
0.000819204
0.000800406
0.000781555
0.000764023
0.00410226
0.00362907
0.00323177
0.00294278
0.00274915
0.00261064
0.00249955
0.00240806
0.00233077
0.00226464
0.00220221