/*--------------------------------*- C++ -*----------------------------------*\
| =========                 |                                                 |
| \\      /  F ield         | OpenFOAM: The Open Source CFD Toolbox           |
|  \\    /   O peration     | Version:  2212                                  |
|   \\  /    A nd           | Website:  www.openfoam.com                      |
|    \\/     M anipulation  |                                                 |
\*---------------------------------------------------------------------------*/
FoamFile
{
    version     2.0;
    format      ascii;
    arch        "LSB;label=32;scalar=64";
    class       volScalarField;
    location    "2.4";
    object      nut;
}
// * * * * * * * * * * * * * * * * * * * * * * * * * * * * * * * * * * * * * //

dimensions      [0 2 -1 0 0 0 0];

internalField   nonuniform List<scalar> 
6840
(
4.5356e-05
2.3208e-05
1.65396e-05
1.36494e-05
1.18966e-05
1.06844e-05
9.76082e-06
9.05721e-06
8.4949e-06
8.03162e-06
7.64105e-06
7.31296e-06
7.02598e-06
6.76315e-06
6.53325e-06
6.33502e-06
6.1643e-06
6.02363e-06
5.93603e-06
5.86516e-06
0.000107685
6.77183e-05
5.06311e-05
4.14159e-05
3.54049e-05
3.10368e-05
2.77139e-05
2.50819e-05
2.29339e-05
2.11513e-05
1.96517e-05
1.83731e-05
1.72661e-05
1.6298e-05
1.5457e-05
1.4734e-05
1.41079e-05
1.35708e-05
1.31462e-05
1.28579e-05
0.000160509
0.00010736
8.07409e-05
6.55976e-05
5.54897e-05
4.83027e-05
4.31312e-05
3.90793e-05
3.57396e-05
3.29502e-05
3.0579e-05
2.85366e-05
2.67766e-05
2.525e-05
2.39143e-05
2.27392e-05
2.17049e-05
2.07949e-05
2.00058e-05
1.94066e-05
0.000198681
0.0001383
0.000105187
8.55269e-05
7.25013e-05
6.28902e-05
5.60611e-05
5.07592e-05
4.6388e-05
4.27216e-05
3.96249e-05
3.69548e-05
3.46324e-05
3.26014e-05
3.08155e-05
2.92379e-05
2.78372e-05
2.65885e-05
2.54761e-05
2.45642e-05
0.000218609
0.000155003
0.000118661
9.65068e-05
8.18823e-05
7.08354e-05
6.30853e-05
5.7143e-05
5.22476e-05
4.80951e-05
4.45806e-05
4.15691e-05
3.89478e-05
3.66517e-05
3.46278e-05
3.28336e-05
3.12326e-05
2.97946e-05
2.85065e-05
2.74796e-05
0.000218609
0.000155003
0.000118661
9.65068e-05
8.18822e-05
7.08353e-05
6.30852e-05
5.71429e-05
5.22474e-05
4.80948e-05
4.45801e-05
4.15683e-05
3.89467e-05
3.66503e-05
3.46258e-05
3.28298e-05
3.12258e-05
2.97827e-05
2.8482e-05
2.73943e-05
0.000198681
0.0001383
0.000105187
8.55269e-05
7.25012e-05
6.289e-05
5.60609e-05
5.0759e-05
4.63876e-05
4.2721e-05
3.96239e-05
3.69534e-05
3.46304e-05
3.25987e-05
3.08113e-05
2.92307e-05
2.7825e-05
2.65679e-05
2.5446e-05
2.45675e-05
0.000160509
0.00010736
8.07409e-05
6.55976e-05
5.54896e-05
4.83026e-05
4.3131e-05
3.90792e-05
3.57393e-05
3.29497e-05
3.05782e-05
2.85354e-05
2.67749e-05
2.52477e-05
2.39108e-05
2.27333e-05
2.1695e-05
2.07778e-05
1.99706e-05
1.93003e-05
0.000107685
6.77183e-05
5.06311e-05
4.14159e-05
3.54049e-05
3.10368e-05
2.77139e-05
2.50819e-05
2.29339e-05
2.11512e-05
1.96515e-05
1.83728e-05
1.72655e-05
1.62972e-05
1.54557e-05
1.47314e-05
1.41029e-05
1.35607e-05
1.31238e-05
1.28311e-05
4.5356e-05
2.3208e-05
1.65396e-05
1.36494e-05
1.18966e-05
1.06844e-05
9.76082e-06
9.05721e-06
8.4949e-06
8.03161e-06
7.64104e-06
7.31295e-06
7.02595e-06
6.76315e-06
6.53322e-06
6.33497e-06
6.16423e-06
6.02355e-06
5.93594e-06
5.86491e-06
0.000107685
6.77183e-05
5.06311e-05
4.14159e-05
3.54049e-05
3.10368e-05
2.77139e-05
2.50819e-05
2.29339e-05
2.11513e-05
1.96515e-05
1.83728e-05
1.72656e-05
1.62971e-05
1.54558e-05
1.47316e-05
1.41031e-05
1.35609e-05
1.31242e-05
1.28316e-05
0.000528907
0.000369984
0.000305097
0.000261372
0.000228529
0.000202477
0.000181116
0.000163077
0.000147543
0.00013399
0.000122058
0.000111479
0.000102154
9.38875e-05
8.65148e-05
7.97392e-05
7.35685e-05
6.80574e-05
6.38996e-05
5.54641e-05
0.000663952
0.000488459
0.000404619
0.000347249
0.000305037
0.000272129
0.000245321
0.000222892
0.000203761
0.000187188
0.000172667
0.000159832
0.000148398
0.000138152
0.000128924
0.000120718
0.000113337
0.0001066
0.000100807
9.51313e-05
0.00071288
0.000556432
0.000466397
0.000402355
0.000354426
0.000317051
0.000286675
0.000261255
0.000239581
0.000220845
0.000204442
0.000189946
0.000177036
0.000165449
0.000154971
0.000145488
0.000136835
0.000128885
0.00012154
0.000114771
0.000728543
0.000588231
0.000496002
0.000429131
0.000378509
0.000338933
0.000306815
0.000279967
0.000257064
0.000237241
0.000219885
0.000204537
0.000190851
0.000178553
0.000167418
0.000157297
0.000148009
0.000139407
0.000131342
0.000123385
0.000728543
0.000588231
0.000496001
0.000429131
0.000378508
0.000338932
0.000306814
0.000279966
0.000257061
0.000237237
0.00021988
0.00020453
0.000190841
0.000178547
0.00016742
0.000157286
0.000147987
0.000139378
0.000131308
0.000123383
0.00071288
0.000556432
0.000466397
0.000402354
0.000354425
0.000317049
0.000286673
0.000261253
0.000239577
0.000220837
0.00020443
0.000189929
0.000177017
0.000165437
0.000154962
0.000145457
0.000136788
0.000128827
0.000121479
0.000114913
0.000663952
0.000488459
0.000404619
0.000347248
0.000305036
0.000272128
0.000245319
0.000222891
0.000203758
0.000187182
0.000172658
0.000159819
0.000148382
0.000138143
0.000128909
0.000120691
0.000113301
0.000106569
0.000100849
9.4385e-05
0.000528907
0.000369984
0.000305097
0.000261372
0.000228529
0.000202477
0.000181116
0.000163077
0.000147543
0.00013399
0.000122058
0.000111478
0.000102152
9.38938e-05
8.65079e-05
7.97339e-05
7.35631e-05
6.80513e-05
6.38914e-05
5.54489e-05
0.000107685
6.77183e-05
5.06311e-05
4.14159e-05
3.54049e-05
3.10368e-05
2.77139e-05
2.50819e-05
2.29339e-05
2.11513e-05
1.96517e-05
1.83731e-05
1.7266e-05
1.62979e-05
1.5457e-05
1.47338e-05
1.41077e-05
1.35705e-05
1.31458e-05
1.28571e-05
0.000160509
0.00010736
8.07409e-05
6.55976e-05
5.54896e-05
4.83026e-05
4.3131e-05
3.90792e-05
3.57393e-05
3.29497e-05
3.05782e-05
2.85354e-05
2.67748e-05
2.52476e-05
2.3911e-05
2.27336e-05
2.16952e-05
2.0778e-05
1.99709e-05
1.93007e-05
0.000663952
0.000488459
0.000404619
0.000347248
0.000305036
0.000272128
0.000245319
0.000222891
0.000203758
0.000187182
0.000172658
0.000159819
0.000148381
0.000138132
0.000128921
0.000120698
0.000113307
0.000106572
0.000100861
9.44136e-05
0.000786828
0.000662293
0.000567975
0.000495806
0.000439464
0.000394563
0.000357976
0.000327455
0.000301495
0.000279058
0.000259409
0.000242019
0.000226497
0.000212547
0.000199943
0.000188511
0.000178105
0.000168582
0.000159793
0.000150082
0.000809324
0.000713906
0.000631505
0.000562574
0.000505378
0.000457786
0.000417842
0.000383941
0.000354806
0.000329453
0.000307161
0.000287387
0.000269711
0.000253805
0.000239412
0.00022634
0.0002144
0.00020342
0.000193166
0.000182921
0.000814958
0.000730426
0.000654634
0.000589043
0.000533067
0.000485438
0.000444762
0.000409791
0.000379467
0.000352927
0.000329485
0.00030862
0.000289925
0.000273075
0.000257804
0.000243909
0.000231186
0.000219442
0.000208374
0.000197118
0.000814958
0.000730426
0.000654634
0.000589043
0.000533066
0.000485437
0.000444762
0.000409791
0.000379466
0.000352926
0.000329483
0.000308617
0.000289922
0.000273077
0.000257813
0.000243911
0.000231186
0.000219445
0.000208395
0.000197204
0.000809324
0.000713906
0.000631505
0.000562574
0.000505377
0.000457786
0.000417842
0.000383941
0.000354805
0.000329451
0.000307158
0.000287381
0.000269707
0.000253809
0.000239418
0.000226337
0.000214391
0.000203409
0.000193154
0.00018278
0.000786828
0.000662293
0.000567975
0.000495806
0.000439464
0.000394563
0.000357976
0.000327455
0.000301495
0.000279057
0.000259408
0.000242018
0.000226495
0.000212548
0.000199939
0.000188507
0.0001781
0.000168573
0.000159782
0.000150058
0.000663952
0.000488459
0.000404619
0.000347249
0.000305037
0.000272129
0.000245321
0.000222892
0.000203761
0.000187188
0.000172666
0.000159831
0.000148395
0.000138147
0.000128927
0.000120719
0.000113335
0.000106595
0.000100799
9.51149e-05
0.000160509
0.00010736
8.07409e-05
6.55976e-05
5.54897e-05
4.83027e-05
4.31312e-05
3.90793e-05
3.57396e-05
3.29502e-05
3.0579e-05
2.85366e-05
2.67764e-05
2.52498e-05
2.39144e-05
2.27393e-05
2.17049e-05
2.07949e-05
2.00057e-05
1.94058e-05
0.000198681
0.0001383
0.000105187
8.55269e-05
7.25012e-05
6.289e-05
5.60609e-05
5.0759e-05
4.63876e-05
4.2721e-05
3.96239e-05
3.69534e-05
3.46302e-05
3.25984e-05
3.08116e-05
2.92309e-05
2.78252e-05
2.6568e-05
2.54461e-05
2.45675e-05
0.00071288
0.000556432
0.000466397
0.000402355
0.000354425
0.000317049
0.000286673
0.000261253
0.000239577
0.000220837
0.00020443
0.000189928
0.000177012
0.000165426
0.000154973
0.000145463
0.00013679
0.000128827
0.000121476
0.000114909
0.000809324
0.000713906
0.000631505
0.000562574
0.000505377
0.000457786
0.000417842
0.000383941
0.000354805
0.000329451
0.000307158
0.000287381
0.000269704
0.000253805
0.000239425
0.000226342
0.000214395
0.000203413
0.000193159
0.000182788
0.000823497
0.000753987
0.000688491
0.000628748
0.000575387
0.000528266
0.000486846
0.000450442
0.000418363
0.000389975
0.000364729
0.000342165
0.000321898
0.000303611
0.000287039
0.000271956
0.000258162
0.000245444
0.000233459
0.000221318
0.000826292
0.000764347
0.000706102
0.000651936
0.00060223
0.000557103
0.000516427
0.000479911
0.000447179
0.000417831
0.000391474
0.000367748
0.00034633
0.000326937
0.00030932
0.00029326
0.000278549
0.000264943
0.000252007
0.00023853
0.000826292
0.000764347
0.000706102
0.000651936
0.00060223
0.000557103
0.000516427
0.000479911
0.000447179
0.000417831
0.000391473
0.000367747
0.00034633
0.000326938
0.000309324
0.000293263
0.000278553
0.000264952
0.000252044
0.000238796
0.000823497
0.000753987
0.000688491
0.000628748
0.000575387
0.000528266
0.000486845
0.000450442
0.000418363
0.000389975
0.000364729
0.000342164
0.000321898
0.000303612
0.000287038
0.000271954
0.00025816
0.000245439
0.000233451
0.00022131
0.000809324
0.000713906
0.000631505
0.000562574
0.000505378
0.000457786
0.000417842
0.000383941
0.000354806
0.000329453
0.000307161
0.000287385
0.000269706
0.000253801
0.000239416
0.00022634
0.000214396
0.000203412
0.000193154
0.000182907
0.00071288
0.000556432
0.000466397
0.000402355
0.000354426
0.000317051
0.000286675
0.000261255
0.000239581
0.000220845
0.000204441
0.000189945
0.000177032
0.000165438
0.000154982
0.000145494
0.000136838
0.000128885
0.000121538
0.000114771
0.000198681
0.0001383
0.000105187
8.55269e-05
7.25013e-05
6.28902e-05
5.60611e-05
5.07592e-05
4.63879e-05
4.27216e-05
3.96249e-05
3.69548e-05
3.46323e-05
3.26011e-05
3.08157e-05
2.92381e-05
2.78374e-05
2.65886e-05
2.54763e-05
2.45645e-05
0.000218609
0.000155003
0.000118661
9.65068e-05
8.18822e-05
7.08353e-05
6.30852e-05
5.71429e-05
5.22474e-05
4.80948e-05
4.45801e-05
4.15683e-05
3.89467e-05
3.66501e-05
3.46257e-05
3.28297e-05
3.12257e-05
2.97826e-05
2.84816e-05
2.73921e-05
0.000728543
0.000588231
0.000496001
0.000429131
0.000378508
0.000338932
0.000306814
0.000279966
0.000257061
0.000237237
0.000219879
0.000204529
0.000190839
0.000178541
0.000167419
0.000157283
0.000147982
0.000139369
0.000131295
0.000123363
0.000814958
0.000730426
0.000654634
0.000589043
0.000533066
0.000485437
0.000444762
0.000409791
0.000379466
0.000352926
0.000329483
0.000308616
0.000289921
0.000273074
0.000257813
0.00024391
0.000231183
0.000219439
0.000208386
0.000197192
0.000826292
0.000764347
0.000706102
0.000651936
0.00060223
0.000557103
0.000516427
0.000479911
0.000447179
0.000417831
0.000391473
0.000367747
0.00034633
0.000326938
0.000309324
0.000293263
0.000278552
0.000264951
0.000252042
0.000238792
0.000828382
0.0007726
0.000721137
0.00067296
0.000627781
0.000585619
0.000546546
0.000510578
0.000477647
0.000447613
0.000420285
0.000395444
0.000372863
0.000352318
0.000333595
0.00031649
0.000300801
0.000286274
0.000272494
0.000258672
0.000828382
0.0007726
0.000721137
0.00067296
0.000627781
0.000585619
0.000546546
0.000510578
0.000477647
0.000447613
0.000420285
0.000395444
0.000372863
0.000352318
0.000333595
0.00031649
0.0003008
0.000286273
0.000272492
0.000258674
0.000826292
0.000764347
0.000706102
0.000651936
0.00060223
0.000557103
0.000516427
0.000479911
0.000447179
0.000417831
0.000391474
0.000367747
0.000346329
0.000326937
0.00030932
0.000293259
0.000278546
0.000264939
0.000252002
0.000238529
0.000814958
0.000730426
0.000654634
0.000589043
0.000533067
0.000485438
0.000444762
0.000409791
0.000379467
0.000352927
0.000329485
0.000308619
0.000289922
0.000273071
0.000257807
0.000243908
0.000231183
0.000219437
0.000208366
0.000197107
0.000728543
0.000588231
0.000496002
0.000429131
0.000378509
0.000338933
0.000306815
0.000279967
0.000257064
0.000237241
0.000219885
0.000204537
0.000190849
0.000178544
0.000167426
0.000157302
0.000148011
0.000139409
0.000131345
0.000123388
0.000218609
0.000155003
0.000118661
9.65068e-05
8.18823e-05
7.08354e-05
6.30853e-05
5.7143e-05
5.22476e-05
4.80951e-05
4.45806e-05
4.15691e-05
3.89478e-05
3.66515e-05
3.4628e-05
3.28337e-05
3.12327e-05
2.97948e-05
2.85067e-05
2.748e-05
0.000218609
0.000155003
0.000118661
9.65068e-05
8.18823e-05
7.08354e-05
6.30853e-05
5.7143e-05
5.22476e-05
4.80951e-05
4.45806e-05
4.15691e-05
3.89478e-05
3.66516e-05
3.46278e-05
3.28335e-05
3.12325e-05
2.97945e-05
2.85062e-05
2.74793e-05
0.000728543
0.000588231
0.000496002
0.000429131
0.000378509
0.000338933
0.000306815
0.000279967
0.000257064
0.000237241
0.000219885
0.000204537
0.00019085
0.000178551
0.000167417
0.000157295
0.000148004
0.000139399
0.000131329
0.000123364
0.000814958
0.000730426
0.000654634
0.000589043
0.000533067
0.000485438
0.000444762
0.000409791
0.000379467
0.000352927
0.000329485
0.000308619
0.000289924
0.000273073
0.000257803
0.000243906
0.000231181
0.000219434
0.000208361
0.000197103
0.000826292
0.000764347
0.000706102
0.000651936
0.00060223
0.000557103
0.000516427
0.000479911
0.00044718
0.000417831
0.000391474
0.000367748
0.00034633
0.000326937
0.00030932
0.000293259
0.000278547
0.00026494
0.000252002
0.000238527
0.000828382
0.0007726
0.000721137
0.00067296
0.000627781
0.000585619
0.000546546
0.000510578
0.000477647
0.000447613
0.000420285
0.000395445
0.000372863
0.000352318
0.000333596
0.000316491
0.000300801
0.000286275
0.000272495
0.000258674
0.000828382
0.0007726
0.000721137
0.00067296
0.000627781
0.000585619
0.000546546
0.000510578
0.000477647
0.000447613
0.000420285
0.000395444
0.000372863
0.000352318
0.000333595
0.00031649
0.000300801
0.000286274
0.000272494
0.000258677
0.000826292
0.000764347
0.000706102
0.000651936
0.00060223
0.000557103
0.000516427
0.000479911
0.000447179
0.000417831
0.000391474
0.000367747
0.000346331
0.00032694
0.000309323
0.000293263
0.000278553
0.000264952
0.000252045
0.000238801
0.000814958
0.000730426
0.000654634
0.000589043
0.000533066
0.000485437
0.000444762
0.000409791
0.000379466
0.000352926
0.000329483
0.000308617
0.000289924
0.000273076
0.00025781
0.000243909
0.000231185
0.000219444
0.000208395
0.000197209
0.000728543
0.000588231
0.000496001
0.000429131
0.000378508
0.000338932
0.000306815
0.000279966
0.000257061
0.000237237
0.00021988
0.00020453
0.000190843
0.000178543
0.000167416
0.000157283
0.000147986
0.000139378
0.000131309
0.000123384
0.000218609
0.000155003
0.000118661
9.65068e-05
8.18822e-05
7.08353e-05
6.30852e-05
5.71429e-05
5.22474e-05
4.80948e-05
4.45801e-05
4.15684e-05
3.89468e-05
3.66502e-05
3.46256e-05
3.28297e-05
3.12257e-05
2.97827e-05
2.84819e-05
2.73921e-05
0.000198681
0.0001383
0.000105187
8.55269e-05
7.25013e-05
6.28902e-05
5.60611e-05
5.07592e-05
4.6388e-05
4.27216e-05
3.96249e-05
3.69549e-05
3.46324e-05
3.26014e-05
3.08155e-05
2.92379e-05
2.78372e-05
2.65884e-05
2.54761e-05
2.45641e-05
0.00071288
0.000556432
0.000466397
0.000402355
0.000354426
0.000317051
0.000286675
0.000261255
0.000239581
0.000220845
0.000204442
0.000189946
0.000177036
0.00016545
0.000154971
0.000145487
0.000136834
0.000128884
0.000121538
0.000114771
0.000809324
0.000713906
0.000631505
0.000562574
0.000505378
0.000457786
0.000417842
0.000383941
0.000354806
0.000329453
0.000307162
0.000287387
0.000269711
0.000253806
0.000239412
0.000226339
0.000214399
0.00020342
0.000193167
0.00018293
0.000823497
0.000753987
0.000688491
0.000628748
0.000575387
0.000528266
0.000486846
0.000450442
0.000418363
0.000389975
0.000364729
0.000342165
0.000321899
0.000303612
0.000287039
0.000271957
0.000258164
0.000245447
0.000233464
0.000221329
0.000826292
0.000764347
0.000706102
0.000651936
0.00060223
0.000557103
0.000516427
0.000479911
0.00044718
0.000417831
0.000391474
0.000367748
0.00034633
0.000326939
0.000309325
0.000293265
0.000278554
0.000264954
0.000252047
0.000238803
0.000826292
0.000764347
0.000706102
0.000651936
0.00060223
0.000557103
0.000516427
0.000479911
0.00044718
0.000417831
0.000391474
0.000367748
0.00034633
0.000326937
0.00030932
0.00029326
0.000278548
0.000264941
0.000252002
0.000238531
0.000823497
0.000753987
0.000688491
0.000628748
0.000575387
0.000528266
0.000486846
0.000450442
0.000418363
0.000389975
0.000364729
0.000342165
0.000321898
0.000303612
0.000287039
0.000271956
0.000258162
0.000245443
0.000233457
0.000221318
0.000809324
0.000713906
0.000631505
0.000562574
0.000505377
0.000457786
0.000417842
0.00038394
0.000354805
0.000329451
0.000307158
0.000287382
0.000269708
0.000253809
0.000239419
0.00022634
0.000214395
0.000203417
0.000193166
0.0001828
0.00071288
0.000556432
0.000466397
0.000402355
0.000354425
0.000317049
0.000286673
0.000261252
0.000239576
0.000220837
0.00020443
0.000189929
0.000177017
0.000165437
0.000154962
0.000145457
0.000136788
0.000128829
0.000121483
0.000114918
0.000198681
0.0001383
0.000105187
8.55269e-05
7.25012e-05
6.289e-05
5.60609e-05
5.0759e-05
4.63876e-05
4.2721e-05
3.96239e-05
3.69534e-05
3.46304e-05
3.25987e-05
3.08113e-05
2.92307e-05
2.7825e-05
2.65679e-05
2.54461e-05
2.45678e-05
0.000160509
0.00010736
8.07409e-05
6.55976e-05
5.54897e-05
4.83027e-05
4.31312e-05
3.90793e-05
3.57396e-05
3.29502e-05
3.0579e-05
2.85366e-05
2.67766e-05
2.525e-05
2.39143e-05
2.27393e-05
2.17049e-05
2.0795e-05
2.0006e-05
1.94075e-05
0.000663952
0.000488459
0.000404619
0.000347249
0.000305037
0.00027213
0.000245321
0.000222893
0.000203762
0.000187188
0.000172667
0.000159833
0.0001484
0.000138154
0.000128924
0.000120721
0.000113342
0.00010661
0.000100811
9.51558e-05
0.000786828
0.000662293
0.000567975
0.000495806
0.000439464
0.000394563
0.000357977
0.000327455
0.000301495
0.000279058
0.00025941
0.00024202
0.000226499
0.00021255
0.000199943
0.000188514
0.000178112
0.000168593
0.000159812
0.000150122
0.000809324
0.000713906
0.000631505
0.000562574
0.000505377
0.000457786
0.000417842
0.000383941
0.000354805
0.000329451
0.000307158
0.000287382
0.000269706
0.000253807
0.000239426
0.000226346
0.000214401
0.000203423
0.000193175
0.000182812
0.000814958
0.000730426
0.000654634
0.000589043
0.000533066
0.000485437
0.000444762
0.000409791
0.000379467
0.000352926
0.000329483
0.000308617
0.000289921
0.000273075
0.000257814
0.000243913
0.000231188
0.000219446
0.000208395
0.000197206
0.000814958
0.000730426
0.000654634
0.000589043
0.000533067
0.000485438
0.000444762
0.000409791
0.000379467
0.000352927
0.000329485
0.000308619
0.000289923
0.000273071
0.000257804
0.000243907
0.000231183
0.000219436
0.000208363
0.000197103
0.000809324
0.000713906
0.000631505
0.000562574
0.000505378
0.000457786
0.000417842
0.000383941
0.000354806
0.000329453
0.000307161
0.000287386
0.000269708
0.000253801
0.000239417
0.000226342
0.000214399
0.000203416
0.000193159
0.000182912
0.000786828
0.000662293
0.000567975
0.000495806
0.000439464
0.000394563
0.000357977
0.000327455
0.000301495
0.000279058
0.000259409
0.000242019
0.000226497
0.000212548
0.000199941
0.000188511
0.000178107
0.000168584
0.000159798
0.000150093
0.000663952
0.000488459
0.000404619
0.000347248
0.000305036
0.000272128
0.00024532
0.00022289
0.000203758
0.000187182
0.000172658
0.000159819
0.000148383
0.000138144
0.00012891
0.000120692
0.000113304
0.000106573
0.000100854
9.44204e-05
0.000160509
0.00010736
8.07409e-05
6.55976e-05
5.54896e-05
4.83026e-05
4.31311e-05
3.90792e-05
3.57393e-05
3.29497e-05
3.05782e-05
2.85354e-05
2.67749e-05
2.52478e-05
2.39108e-05
2.27334e-05
2.16951e-05
2.07779e-05
1.99709e-05
1.93014e-05
0.000107685
6.77183e-05
5.06311e-05
4.14159e-05
3.54049e-05
3.10368e-05
2.77139e-05
2.50819e-05
2.29339e-05
2.11514e-05
1.96517e-05
1.83731e-05
1.72661e-05
1.6298e-05
1.54571e-05
1.4734e-05
1.4108e-05
1.3571e-05
1.31464e-05
1.28584e-05
0.000528907
0.000369984
0.000305097
0.000261372
0.000228529
0.000202477
0.000181116
0.000163077
0.000147544
0.00013399
0.000122058
0.00011148
0.000102155
9.38892e-05
8.65163e-05
7.97418e-05
7.35729e-05
6.8064e-05
6.39103e-05
5.54837e-05
0.000663952
0.000488459
0.000404619
0.000347248
0.000305036
0.000272128
0.000245319
0.000222891
0.000203758
0.000187183
0.000172658
0.00015982
0.000148382
0.000138134
0.000128923
0.000120701
0.000113311
0.000106579
0.000100871
9.44271e-05
0.00071288
0.000556432
0.000466397
0.000402355
0.000354425
0.000317049
0.000286673
0.000261253
0.000239577
0.000220837
0.00020443
0.000189929
0.000177013
0.000165427
0.000154975
0.000145465
0.000136793
0.000128831
0.000121482
0.000114918
0.000728543
0.000588231
0.000496001
0.000429131
0.000378508
0.000338932
0.000306814
0.000279966
0.000257061
0.000237237
0.00021988
0.000204529
0.000190839
0.00017854
0.000167419
0.000157284
0.000147983
0.00013937
0.000131296
0.000123365
0.000728543
0.000588231
0.000496002
0.000429131
0.000378509
0.000338933
0.000306815
0.000279968
0.000257064
0.000237241
0.000219885
0.000204537
0.00019085
0.000178547
0.000167416
0.000157294
0.000148004
0.0001394
0.000131331
0.000123366
0.00071288
0.000556432
0.000466397
0.000402355
0.000354426
0.000317051
0.000286675
0.000261256
0.000239582
0.000220845
0.000204442
0.000189946
0.000177033
0.000165437
0.000154981
0.000145494
0.000136838
0.000128886
0.000121539
0.000114768
0.000663952
0.000488459
0.000404619
0.000347249
0.000305037
0.000272129
0.000245321
0.000222893
0.000203762
0.000187189
0.000172667
0.000159833
0.000148398
0.000138148
0.00012893
0.000120725
0.000113344
0.000106611
0.000100811
9.51497e-05
0.000528907
0.000369984
0.000305097
0.000261372
0.000228529
0.000202477
0.000181116
0.000163076
0.000147543
0.00013399
0.000122058
0.000111479
0.000102153
9.38949e-05
8.65099e-05
7.97371e-05
7.3568e-05
6.80586e-05
6.39026e-05
5.54739e-05
0.000107685
6.77183e-05
5.06311e-05
4.14159e-05
3.54049e-05
3.10368e-05
2.77139e-05
2.50819e-05
2.29339e-05
2.11513e-05
1.96515e-05
1.83728e-05
1.72656e-05
1.62972e-05
1.54558e-05
1.47315e-05
1.4103e-05
1.35609e-05
1.31242e-05
1.2832e-05
4.5356e-05
2.3208e-05
1.65396e-05
1.36494e-05
1.18966e-05
1.06844e-05
9.76083e-06
9.05721e-06
8.4949e-06
8.03162e-06
7.64105e-06
7.31296e-06
7.02599e-06
6.76317e-06
6.53327e-06
6.33505e-06
6.16434e-06
6.02369e-06
5.93612e-06
5.86535e-06
0.000107685
6.77183e-05
5.06311e-05
4.14159e-05
3.54049e-05
3.10368e-05
2.77139e-05
2.50819e-05
2.29339e-05
2.11513e-05
1.96516e-05
1.83728e-05
1.72656e-05
1.62971e-05
1.54559e-05
1.47317e-05
1.41032e-05
1.35611e-05
1.31246e-05
1.28322e-05
0.000160509
0.00010736
8.07409e-05
6.55976e-05
5.54896e-05
4.83026e-05
4.3131e-05
3.90792e-05
3.57393e-05
3.29497e-05
3.05782e-05
2.85354e-05
2.67748e-05
2.52476e-05
2.39111e-05
2.27337e-05
2.16953e-05
2.07781e-05
1.99711e-05
1.93009e-05
0.000198681
0.0001383
0.000105187
8.55269e-05
7.25012e-05
6.289e-05
5.60609e-05
5.0759e-05
4.63876e-05
4.2721e-05
3.9624e-05
3.69534e-05
3.46303e-05
3.25984e-05
3.08116e-05
2.92309e-05
2.78252e-05
2.6568e-05
2.5446e-05
2.45674e-05
0.000218609
0.000155003
0.000118661
9.65068e-05
8.18822e-05
7.08353e-05
6.30852e-05
5.71429e-05
5.22474e-05
4.80948e-05
4.45801e-05
4.15683e-05
3.89467e-05
3.66501e-05
3.46257e-05
3.28297e-05
3.12257e-05
2.97825e-05
2.84815e-05
2.73918e-05
0.000218609
0.000155003
0.000118661
9.65068e-05
8.18823e-05
7.08354e-05
6.30853e-05
5.7143e-05
5.22476e-05
4.80951e-05
4.45806e-05
4.15691e-05
3.89478e-05
3.66516e-05
3.46277e-05
3.28335e-05
3.12325e-05
2.97945e-05
2.85062e-05
2.74794e-05
0.000198681
0.0001383
0.000105187
8.55269e-05
7.25013e-05
6.28902e-05
5.60611e-05
5.07593e-05
4.6388e-05
4.27217e-05
3.9625e-05
3.69549e-05
3.46323e-05
3.26011e-05
3.08157e-05
2.92381e-05
2.78374e-05
2.65887e-05
2.54763e-05
2.45644e-05
0.000160509
0.00010736
8.07409e-05
6.55976e-05
5.54897e-05
4.83027e-05
4.31312e-05
3.90794e-05
3.57396e-05
3.29503e-05
3.0579e-05
2.85366e-05
2.67765e-05
2.52499e-05
2.39145e-05
2.27395e-05
2.17051e-05
2.07952e-05
2.00062e-05
1.94076e-05
0.000107685
6.77183e-05
5.06311e-05
4.14159e-05
3.54049e-05
3.10368e-05
2.77139e-05
2.50819e-05
2.29339e-05
2.11514e-05
1.96517e-05
1.83731e-05
1.72661e-05
1.6298e-05
1.54571e-05
1.4734e-05
1.41079e-05
1.35709e-05
1.31464e-05
1.28582e-05
4.5356e-05
2.3208e-05
1.65396e-05
1.36494e-05
1.18966e-05
1.06844e-05
9.76082e-06
9.05721e-06
8.4949e-06
8.03162e-06
7.64105e-06
7.31296e-06
7.02597e-06
6.76318e-06
6.53326e-06
6.33502e-06
6.16431e-06
6.02366e-06
5.9361e-06
5.86527e-06
5.72826e-06
5.28135e-06
4.86357e-06
4.60699e-06
4.44234e-06
4.33314e-06
4.2471e-06
4.17693e-06
4.11894e-06
4.07005e-06
4.02768e-06
3.98785e-06
3.94976e-06
3.91218e-06
3.87564e-06
3.84257e-06
3.80982e-06
3.77978e-06
3.75087e-06
3.72305e-06
3.69676e-06
3.67183e-06
3.64869e-06
3.62676e-06
3.60407e-06
3.58242e-06
3.56092e-06
3.54002e-06
3.51892e-06
3.4989e-06
3.47855e-06
3.45894e-06
3.43968e-06
3.4204e-06
3.40204e-06
3.38417e-06
3.36699e-06
3.3496e-06
3.33462e-06
3.3085e-06
1.10785e-05
1.04347e-05
9.86424e-06
9.4196e-06
9.12695e-06
8.9008e-06
8.71067e-06
8.55216e-06
8.41484e-06
8.29296e-06
8.18219e-06
8.08238e-06
7.99136e-06
7.89991e-06
7.80983e-06
7.72807e-06
7.65005e-06
7.57787e-06
7.51043e-06
7.44536e-06
7.38367e-06
7.32591e-06
7.27183e-06
7.22254e-06
7.17423e-06
7.12678e-06
7.0805e-06
7.03516e-06
6.99045e-06
6.9469e-06
6.90377e-06
6.86147e-06
6.82006e-06
6.78007e-06
6.7407e-06
6.70313e-06
6.66646e-06
6.6304e-06
6.59586e-06
6.5566e-06
1.57485e-05
1.51392e-05
1.45612e-05
1.40921e-05
1.37011e-05
1.33561e-05
1.30507e-05
1.27782e-05
1.25355e-05
1.23188e-05
1.21243e-05
1.19487e-05
1.17952e-05
1.16393e-05
1.14898e-05
1.13561e-05
1.12287e-05
1.11125e-05
1.10013e-05
1.08935e-05
1.07865e-05
1.06803e-05
1.05812e-05
1.04932e-05
1.04108e-05
1.033e-05
1.02515e-05
1.01753e-05
1.01013e-05
1.00295e-05
9.95883e-06
9.89028e-06
9.82414e-06
9.75957e-06
9.69727e-06
9.63843e-06
9.58148e-06
9.52528e-06
9.47184e-06
9.41603e-06
1.97609e-05
1.90357e-05
1.84005e-05
1.78476e-05
1.73568e-05
1.69165e-05
1.65179e-05
1.61562e-05
1.58262e-05
1.55241e-05
1.52463e-05
1.49908e-05
1.47568e-05
1.45385e-05
1.43338e-05
1.41421e-05
1.39611e-05
1.37968e-05
1.36359e-05
1.34679e-05
1.33167e-05
1.31768e-05
1.3041e-05
1.29132e-05
1.27908e-05
1.26739e-05
1.25638e-05
1.24567e-05
1.23545e-05
1.22562e-05
1.21601e-05
1.20613e-05
1.19765e-05
1.1882e-05
1.18088e-05
1.17191e-05
1.16502e-05
1.15723e-05
1.15028e-05
1.14281e-05
2.32947e-05
2.19952e-05
2.1086e-05
2.03767e-05
1.97668e-05
1.92335e-05
1.87594e-05
1.8331e-05
1.79369e-05
1.75748e-05
1.72404e-05
1.6931e-05
1.66459e-05
1.63759e-05
1.61238e-05
1.58876e-05
1.56674e-05
1.54619e-05
1.52672e-05
1.50844e-05
1.49112e-05
1.47538e-05
1.4583e-05
1.44259e-05
1.42773e-05
1.41368e-05
1.40031e-05
1.38762e-05
1.37552e-05
1.3641e-05
1.3529e-05
1.34173e-05
1.33161e-05
1.32073e-05
1.31257e-05
1.3019e-05
1.2934e-05
1.2845e-05
1.27646e-05
1.2688e-05
2.43098e-05
2.30109e-05
2.2073e-05
2.12903e-05
2.06189e-05
2.00334e-05
1.95156e-05
1.90526e-05
1.86302e-05
1.82383e-05
1.78744e-05
1.75365e-05
1.72231e-05
1.69308e-05
1.66579e-05
1.64029e-05
1.61648e-05
1.59419e-05
1.57332e-05
1.55404e-05
1.53591e-05
1.51893e-05
1.50248e-05
1.48834e-05
1.47245e-05
1.45659e-05
1.44196e-05
1.42843e-05
1.41583e-05
1.40417e-05
1.39293e-05
1.3818e-05
1.37313e-05
1.35603e-05
1.35606e-05
1.33666e-05
1.3335e-05
1.32286e-05
1.31425e-05
1.3063e-05
2.29172e-05
2.1919e-05
2.10817e-05
2.03637e-05
1.97329e-05
1.91714e-05
1.86695e-05
1.82165e-05
1.78006e-05
1.74177e-05
1.70649e-05
1.67401e-05
1.64419e-05
1.6164e-05
1.59052e-05
1.56635e-05
1.54378e-05
1.52274e-05
1.50309e-05
1.48482e-05
1.46794e-05
1.45207e-05
1.43658e-05
1.42242e-05
1.40806e-05
1.39346e-05
1.3799e-05
1.36761e-05
1.35582e-05
1.34489e-05
1.33418e-05
1.32366e-05
1.31487e-05
1.30146e-05
1.29578e-05
1.28483e-05
1.27698e-05
1.26861e-05
1.2605e-05
1.25274e-05
1.99832e-05
1.92445e-05
1.85475e-05
1.78951e-05
1.73139e-05
1.67989e-05
1.63425e-05
1.5934e-05
1.55674e-05
1.52371e-05
1.49379e-05
1.46668e-05
1.44191e-05
1.41876e-05
1.39726e-05
1.37713e-05
1.35848e-05
1.34116e-05
1.32497e-05
1.30977e-05
1.29568e-05
1.28209e-05
1.26801e-05
1.256e-05
1.24426e-05
1.23327e-05
1.22259e-05
1.21271e-05
1.20246e-05
1.19266e-05
1.1834e-05
1.17467e-05
1.16657e-05
1.15848e-05
1.15059e-05
1.14283e-05
1.13516e-05
1.1277e-05
1.12043e-05
1.11334e-05
1.64637e-05
1.55558e-05
1.47883e-05
1.40729e-05
1.35576e-05
1.31431e-05
1.27929e-05
1.24915e-05
1.22294e-05
1.19978e-05
1.1792e-05
1.1606e-05
1.14369e-05
1.12788e-05
1.11323e-05
1.09787e-05
1.08401e-05
1.07101e-05
1.05923e-05
1.04783e-05
1.03732e-05
1.02733e-05
1.01748e-05
1.00868e-05
1.0002e-05
9.92227e-06
9.84508e-06
9.77171e-06
9.70013e-06
9.63374e-06
9.56834e-06
9.50457e-06
9.44191e-06
9.38111e-06
9.32185e-06
9.26366e-06
9.2067e-06
9.14981e-06
9.09463e-06
9.03964e-06
1.14339e-05
1.07305e-05
1.00456e-05
9.47865e-06
9.08802e-06
8.8125e-06
8.5948e-06
8.42117e-06
8.27519e-06
8.14727e-06
8.037e-06
7.93168e-06
7.83438e-06
7.73893e-06
7.64648e-06
7.55793e-06
7.474e-06
7.39493e-06
7.32169e-06
7.25214e-06
7.18799e-06
7.12934e-06
7.07568e-06
7.02784e-06
6.97929e-06
6.93242e-06
6.88681e-06
6.84253e-06
6.79904e-06
6.75763e-06
6.71581e-06
6.67476e-06
6.63452e-06
6.59503e-06
6.55593e-06
6.51708e-06
6.48145e-06
6.44648e-06
6.41325e-06
6.37584e-06
5.72841e-06
5.28156e-06
4.86418e-06
4.60657e-06
4.43822e-06
4.32853e-06
4.24327e-06
4.17403e-06
4.11704e-06
4.06943e-06
4.02737e-06
3.99007e-06
3.95178e-06
3.9148e-06
3.87885e-06
3.8453e-06
3.8127e-06
3.78216e-06
3.75286e-06
3.72514e-06
3.6981e-06
3.67316e-06
3.64944e-06
3.6278e-06
3.60504e-06
3.58385e-06
3.5625e-06
3.54187e-06
3.52088e-06
3.50083e-06
3.48042e-06
3.46073e-06
3.44125e-06
3.42189e-06
3.40298e-06
3.38433e-06
3.36806e-06
3.35077e-06
3.33604e-06
3.30975e-06
1.14345e-05
1.07304e-05
1.0043e-05
9.47531e-06
9.09111e-06
8.82231e-06
8.60335e-06