/*--------------------------------*- C++ -*----------------------------------*\
| =========                 |                                                 |
| \\      /  F ield         | OpenFOAM: The Open Source CFD Toolbox           |
|  \\    /   O peration     | Version:  2212                                  |
|   \\  /    A nd           | Website:  www.openfoam.com                      |
|    \\/     M anipulation  |                                                 |
\*---------------------------------------------------------------------------*/
FoamFile
{
    version     2.0;
    format      ascii;
    arch        "LSB;label=32;scalar=64";
    class       volScalarField;
    location    "2.4";
    object      p;
}
// * * * * * * * * * * * * * * * * * * * * * * * * * * * * * * * * * * * * * //

dimensions      [0 2 -2 0 0 0 0];

internalField   nonuniform List<scalar> 
6840
(
0.0178886
0.0107742
0.00848273
0.00794489
0.0076705
0.00744824
0.0072615
0.00709493
0.00693356
0.00677377
0.00661561
0.0064588
0.00630197
0.00614315
0.00598247
0.00581879
0.0056488
0.00546694
0.00521199
0.00473695
0.0107098
0.00997595
0.00888304
0.00821705
0.00781442
0.00754061
0.00732932
0.00714293
0.00696825
0.00680047
0.00663702
0.00647601
0.00631557
0.0061542
0.00599137
0.00582516
0.00565076
0.0054557
0.00519953
0.00477952
0.0103615
0.00951003
0.00874575
0.0081866
0.00781041
0.00754235
0.00732664
0.00713362
0.00695504
0.00678625
0.00662229
0.00646088
0.00630135
0.00614313
0.00598486
0.00582461
0.00565913
0.00548391
0.00529846
0.00509991
0.0099523
0.00918956
0.00857079
0.00811947
0.0077755
0.00750649
0.0072869
0.00709816
0.00693042
0.00677312
0.00661765
0.00646267
0.006309
0.00615736
0.00600848
0.00586349
0.00572382
0.00559194
0.00547429
0.00538482
0.00981812
0.00907693
0.00848876
0.00808065
0.00775874
0.00749207
0.00727062
0.00708013
0.00690965
0.0067534
0.0066043
0.0064557
0.00630713
0.00616104
0.00602078
0.00588997
0.00577323
0.00567611
0.00561121
0.00559647
0.00981813
0.00907694
0.00848877
0.00808067
0.00775877
0.00749211
0.00727069
0.00708025
0.00690982
0.00675369
0.00660476
0.00645646
0.0063084
0.0061632
0.00602449
0.00589653
0.00578505
0.00569826
0.00565293
0.00567855
0.00995232
0.00918959
0.00857082
0.00811951
0.00777557
0.00750659
0.00728707
0.00709842
0.00693084
0.00677379
0.00661874
0.00646444
0.00631192
0.0061622
0.00601657
0.00587715
0.00574717
0.0056324
0.00554707
0.00551202
0.0103616
0.00951006
0.00874579
0.00818664
0.00781048
0.00754246
0.0073268
0.00713389
0.00695548
0.00678694
0.00662339
0.00646266
0.00630424
0.00614786
0.00599263
0.00583745
0.00568064
0.00552026
0.00536348
0.0052209
0.0107098
0.00997597
0.00888307
0.00821709
0.00781447
0.00754068
0.00732943
0.00714311
0.00696854
0.00680094
0.00663777
0.00647722
0.00631751
0.00615732
0.00599645
0.00583344
0.00566464
0.00548074
0.00524639
0.00486799
0.0178886
0.0107742
0.00848275
0.00794491
0.00767051
0.00744825
0.00726151
0.00709495
0.00693358
0.00677379
0.00661563
0.00645883
0.006302
0.0061432
0.00598254
0.00581887
0.00564888
0.00546703
0.00521211
0.00473708
0.0107098
0.00997597
0.00888306
0.00821708
0.00781447
0.00754068
0.00732943
0.00714311
0.00696853
0.00680093
0.00663776
0.0064772
0.00631749
0.00615727
0.00599637
0.00583337
0.00566456
0.00548065
0.00524627
0.00486784
0.00999321
0.0099615
0.00923326
0.00852273
0.00807633
0.0077603
0.00750128
0.00727343
0.00706854
0.00687966
0.00670118
0.00652922
0.00636029
0.00619212
0.00602339
0.005852
0.00567306
0.00548132
0.00529029
0.00517728
0.00906774
0.00919392
0.00889101
0.00847477
0.00810759
0.0077889
0.00751026
0.00726964
0.00705679
0.00686178
0.00667775
0.00650127
0.00633011
0.00616211
0.00599496
0.00582665
0.00565513
0.00547867
0.00530206
0.00514314
0.00864939
0.0086929
0.00852732
0.00826439
0.007984
0.00771267
0.00746168
0.00723533
0.00703235
0.00684584
0.0066688
0.00649818
0.00633256
0.00617083
0.00601216
0.00585616
0.00570282
0.00555334
0.00541155
0.00528238
0.00843346
0.00845529
0.0083281
0.00811061
0.00787823
0.00764914
0.00742644
0.00721349
0.00701307
0.0068264
0.00665103
0.00648401
0.00632375
0.00616873
0.00601909
0.00587713
0.00574394
0.00561955
0.00550862
0.00541967
0.00843348
0.00845531
0.00832812
0.00811063
0.00787826
0.00764919
0.00742652
0.0072136
0.00701325
0.00682668
0.00665146
0.00648467
0.00632479
0.00617039
0.0060216
0.00588085
0.00574932
0.00562703
0.00551734
0.00542117
0.00864942
0.00869293
0.00852736
0.00826444
0.00798407
0.00771277
0.00746184
0.00723558
0.00703275
0.00684646
0.00666974
0.00649965
0.00633491
0.00617454
0.00601785
0.00586468
0.00571543
0.00557168
0.00543836
0.00531607
0.00906776
0.00919394
0.00889104
0.00847481
0.00810764
0.00778898
0.00751038
0.00726983
0.00705708
0.00686224
0.00667847
0.0065024
0.00633187
0.00616478
0.00599896
0.00583241
0.00566306
0.00548831
0.00530942
0.005131
0.00999322
0.00996151
0.00923328
0.00852274
0.00807635
0.00776031
0.00750129
0.00727345
0.00706856
0.00687968
0.0067012
0.00652925
0.00636033
0.00619217
0.00602346
0.00585207
0.00567315
0.00548142
0.0052904
0.00517738
0.0107098
0.00997597
0.00888306
0.00821707
0.00781444
0.00754063
0.00732934
0.00714295
0.00696827
0.0068005
0.00663705
0.00647604
0.00631561
0.00615425
0.00599144
0.00582523
0.00565084
0.00545579
0.00519963
0.00477962
0.0103616
0.00951006
0.00874579
0.00818664
0.00781048
0.00754246
0.0073268
0.00713389
0.00695547
0.00678693
0.00662338
0.00646264
0.00630421
0.00614781
0.00599256
0.00583739
0.00568057
0.00552015
0.00536333
0.00522069
0.00906775
0.00919393
0.00889104
0.0084748
0.00810763
0.00778898
0.00751037
0.00726982
0.00705707
0.00686222
0.00667845
0.00650237
0.00633183
0.00616474
0.00599891
0.00583235
0.00566299
0.00548824
0.00530934
0.0051309
0.00849826
0.00859923
0.00848766
0.00826216
0.00800638
0.00774794
0.00748948
0.00724773
0.00702964
0.00682906
0.00664099
0.00646215
0.0062897
0.00612113
0.00595483
0.0057895
0.0056244
0.00546171
0.00530865
0.0051648
0.0081303
0.00819836
0.00814598
0.007999
0.00781412
0.00760899
0.00739832
0.00719142
0.00699026
0.00679776
0.00661505
0.00644024
0.00627131
0.00610689
0.00594593
0.00578736
0.00563023
0.00547445
0.00532112
0.00516465
0.00794729
0.00801172
0.00798226
0.00785743
0.00769846
0.00752485
0.00733866
0.00715077
0.0069648
0.00678159
0.00660266
0.00642903
0.00626115
0.0060994
0.00594406
0.00579422
0.00564755
0.00550319
0.00536288
0.00521887
0.0079473
0.00801173
0.00798227
0.00785745
0.00769848
0.00752488
0.0073387
0.00715084
0.0069649
0.00678173
0.00660287
0.00642935
0.00626161
0.00610003
0.00594483
0.00579501
0.00564804
0.00550253
0.00535838
0.00520494
0.00813032
0.00819838
0.008146
0.00799903
0.00781416
0.00760904
0.0073984
0.00719154
0.00699045
0.00679805
0.00661548
0.00644089
0.00627228
0.00610831
0.00594793
0.00579006
0.00563373
0.00547852
0.00532453
0.00516324
0.00849827
0.00859924
0.00848767
0.00826217
0.00800639
0.00774796
0.00748949
0.00724774
0.00702966
0.00682908
0.00664101
0.00646217
0.00628973
0.00612116
0.00595487
0.00578954
0.00562445
0.00546175
0.00530869
0.00516487
0.00906775
0.00919393
0.00889103
0.00847479
0.00810761
0.00778892
0.00751028
0.00726966
0.00705681
0.0068618
0.00667777
0.0065013
0.00633015
0.00616214
0.005995
0.00582671
0.0056552
0.00547874
0.00530214
0.00514321
0.0103616
0.00951005
0.00874577
0.00818661
0.00781043
0.00754237
0.00732665
0.00713364
0.00695507
0.00678627
0.00662231
0.00646091
0.00630138
0.00614316
0.0059849
0.00582466
0.00565918
0.00548397
0.00529851
0.00509994
0.00995232
0.00918959
0.00857082
0.00811951
0.00777556
0.00750659
0.00728706
0.00709841
0.00693083
0.00677378
0.00661872
0.00646442
0.00631189
0.00616216
0.0060165
0.00587708
0.00574708
0.00563228
0.00554689
0.00551175
0.00864942
0.00869292
0.00852736
0.00826443
0.00798407
0.00771276
0.00746183
0.00723557
0.00703274
0.00684644
0.00666972
0.00649963
0.00633487
0.0061745
0.00601781
0.00586462
0.00571536
0.0055716
0.00543828
0.005316
0.00813031
0.00819837
0.008146
0.00799902
0.00781415
0.00760903
0.00739839
0.00719153
0.00699044
0.00679803
0.00661546
0.00644087
0.00627225
0.00610829
0.0059479
0.00579002
0.00563368
0.00547848
0.0053245
0.00516322
0.00783242
0.00789156
0.00787962
0.00778423
0.00764461
0.00747912
0.00729892
0.00711443
0.00693042
0.00674998
0.00657476
0.00640454
0.00623868
0.00607654
0.00591754
0.00576078
0.00560529
0.00545086
0.00529842
0.00513863
0.00768134
0.00774423
0.00774799
0.00767435
0.00755425
0.0074079
0.00724505
0.00707369
0.0068996
0.00672609
0.00655499
0.00638719
0.00622306
0.00606265
0.00590583
0.00575183
0.00559955
0.00544899
0.00530176
0.00514785
0.00768135
0.00774424
0.007748
0.00767436
0.00755426
0.00740791
0.00724507
0.00707371
0.00689963
0.00672612
0.00655503
0.00638725
0.00622312
0.00606269
0.00590578
0.00575161
0.00559895
0.00544761
0.00529871
0.00514225
0.00783243
0.00789157
0.00787963
0.00778424
0.00764462
0.00747913
0.00729893
0.00711444
0.00693043
0.00674999
0.00657477
0.00640455
0.0062387
0.00607656
0.00591756
0.00576081
0.00560532
0.0054509
0.00529846
0.00513868
0.00813031
0.00819837
0.00814599
0.00799901
0.00781413
0.007609
0.00739833
0.00719143
0.00699028
0.00679778
0.00661506
0.00644026
0.00627133
0.00610692
0.00594597
0.00578739
0.00563027
0.0054745
0.00532117
0.0051647
0.00864941
0.00869291
0.00852734
0.0082644
0.00798402
0.00771268
0.0074617
0.00723535
0.00703237
0.00684586
0.00666882
0.0064982
0.00633259
0.00617086
0.0060122
0.0058562
0.00570286
0.00555339
0.0054116
0.00528243
0.00995231
0.00918958
0.00857081
0.00811949
0.00777552
0.00750651
0.00728692
0.00709818
0.00693044
0.00677313
0.00661767
0.00646269
0.00630902
0.00615737
0.00600849
0.00586351
0.00572384
0.00559194
0.00547427
0.00538477
0.00981813
0.00907694
0.00848877
0.00808067
0.00775876
0.00749211
0.00727069
0.00708024
0.00690981
0.00675367
0.00660475
0.00645643
0.00630836
0.00616315
0.00602443
0.00589646
0.00578495
0.00569813
0.00565273
0.00567822
0.00843348
0.0084553
0.00832812
0.00811063
0.00787826
0.00764918
0.00742651
0.00721359
0.00701324
0.00682666
0.00665144
0.00648464
0.00632476
0.00617035
0.00602156
0.0058808
0.00574926
0.00562697
0.0055173
0.00542124
0.00794729
0.00801173
0.00798227
0.00785744
0.00769848
0.00752487
0.00733869
0.00715083
0.00696488
0.00678172
0.00660286
0.00642933
0.00626159
0.0061
0.00594481
0.00579498
0.00564801
0.00550251
0.00535839
0.00520502
0.00768134
0.00774423
0.00774799
0.00767435
0.00755425
0.0074079
0.00724506
0.0070737
0.00689962
0.00672611
0.00655502
0.00638723
0.0062231
0.00606267
0.00590577
0.00575159
0.00559893
0.00544759
0.00529871
0.00514227
0.00753857
0.00760808
0.00763021
0.00757767
0.00747644
0.00734553
0.00719565
0.0070347
0.00686824
0.00669995
0.00653219
0.00636639
0.00620333
0.00604334
0.00588637
0.00573163
0.00557794
0.0054247
0.00527224
0.00511022
0.00753857
0.00760808
0.00763021
0.00757767
0.00747644
0.00734554
0.00719565
0.00703471
0.00686825
0.00669995
0.00653219
0.0063664
0.00620334
0.00604335
0.00588638
0.00573164
0.00557795
0.00542471
0.00527224
0.00511022
0.00768135
0.00774424
0.007748
0.00767436
0.00755426
0.00740791
0.00724506
0.0070737
0.00689961
0.0067261
0.006555
0.0063872
0.00622307
0.00606267
0.00590585
0.00575185
0.00559957
0.00544902
0.0053018
0.00514789
0.0079473
0.00801173
0.00798227
0.00785744
0.00769848
0.00752487
0.00733867
0.00715078
0.00696481
0.0067816
0.00660267
0.00642905
0.00626116
0.00609943
0.00594409
0.00579425
0.00564759
0.00550324
0.00536295
0.00521897
0.00843348
0.00845531
0.00832812
0.00811063
0.00787825
0.00764916
0.00742646
0.0072135
0.00701309
0.00682641
0.00665104
0.00648402
0.00632376
0.00616875
0.00601911
0.00587715
0.00574396
0.00561958
0.00550869
0.00541981
0.00981813
0.00907695
0.00848877
0.00808067
0.00775875
0.00749208
0.00727064
0.00708015
0.00690966
0.00675341
0.00660431
0.00645571
0.00630713
0.00616105
0.00602077
0.00588996
0.0057732
0.00567606
0.00561113
0.00559635
0.00981812
0.00907693
0.00848876
0.00808065
0.00775874
0.00749206
0.00727062
0.00708013
0.00690963
0.00675338
0.00660428
0.00645567
0.00630709
0.006161
0.00602072
0.00588989
0.00577313
0.00567597
0.005611
0.00559614
0.00843346
0.00845529
0.0083281
0.00811061
0.00787823
0.00764914
0.00742644
0.00721348
0.00701306
0.00682638
0.00665101
0.00648398
0.00632371
0.00616869
0.00601904
0.00587708
0.00574387
0.00561948
0.00550856
0.00541969
0.00794729
0.00801172
0.00798226
0.00785743
0.00769846
0.00752485
0.00733866
0.00715077
0.00696479
0.00678158
0.00660264
0.00642901
0.00626113
0.00609938
0.00594404
0.00579419
0.00564752
0.00550317
0.00536288
0.00521892
0.00768134
0.00774423
0.00774799
0.00767435
0.00755425
0.0074079
0.00724505
0.00707369
0.0068996
0.00672608
0.00655498
0.00638718
0.00622305
0.00606264
0.00590581
0.00575182
0.00559953
0.00544898
0.00530176
0.00514785
0.00753857
0.00760808
0.00763021
0.00757767
0.00747644
0.00734553
0.00719565
0.0070347
0.00686824
0.00669995
0.00653219
0.00636639
0.00620333
0.00604334
0.00588637
0.00573163
0.00557794
0.00542471
0.00527224
0.00511023
0.00753858
0.00760809
0.00763021
0.00757767
0.00747644
0.00734554
0.00719565
0.00703471
0.00686825
0.00669995
0.00653219
0.0063664
0.00620334
0.00604335
0.00588638
0.00573164
0.00557795
0.00542472
0.00527226
0.00511024
0.00768135
0.00774424
0.007748
0.00767436
0.00755426
0.00740791
0.00724507
0.00707371
0.00689963
0.00672612
0.00655503
0.00638725
0.00622312
0.00606269
0.00590579
0.00575162
0.00559896
0.00544763
0.00529876
0.00514231
0.00794731
0.00801174
0.00798228
0.00785746
0.00769849
0.00752489
0.00733871
0.00715084
0.0069649
0.00678174
0.00660288
0.00642936
0.00626162
0.00610004
0.00594484
0.00579503
0.00564807
0.00550259
0.00535849
0.00520515
0.00843349
0.00845532
0.00832813
0.00811065
0.00787827
0.0076492
0.00742653
0.00721361
0.00701326
0.00682668
0.00665147
0.00648467
0.00632479
0.00617039
0.00602159
0.00588085
0.00574932
0.00562705
0.00551743
0.00542148
0.00981814
0.00907695
0.00848879
0.00808069
0.00775878
0.00749212
0.00727071
0.00708026
0.00690983
0.0067537
0.00660477
0.00645646
0.00630839
0.00616319
0.00602447
0.00589649
0.00578498
0.00569816
0.00565276
0.00567825
0.0099523
0.00918956
0.00857079
0.00811947
0.0077755
0.00750649
0.0072869
0.00709815
0.00693041
0.0067731
0.00661763
0.00646264
0.00630896
0.00615731
0.00600842
0.00586342
0.00572372
0.0055918
0.00547409
0.00538452
0.0086494
0.0086929
0.00852733
0.00826439
0.007984
0.00771267
0.00746168
0.00723532
0.00703235
0.00684583
0.00666878
0.00649816
0.00633253
0.00617079
0.00601212
0.00585611
0.00570276
0.00555328
0.00541148
0.00528234
0.0081303
0.00819836
0.00814599
0.007999
0.00781412
0.00760899
0.00739832
0.00719142
0.00699026
0.00679776
0.00661504
0.00644023
0.00627129
0.00610687
0.00594591
0.00578734
0.00563021
0.00547442
0.00532108
0.00516456
0.00783242
0.00789157
0.00787963
0.00778423
0.00764462
0.00747913
0.00729892
0.00711443
0.00693042
0.00674998
0.00657476
0.00640454
0.00623868
0.00607654
0.00591753
0.00576078
0.00560529
0.00545085
0.0052984
0.00513859
0.00768135
0.00774424
0.007748
0.00767436
0.00755426
0.00740791
0.00724507
0.0070737
0.00689962
0.00672612
0.00655503
0.00638724
0.00622311
0.00606268
0.00590577
0.0057516
0.00559894
0.00544761
0.00529873
0.00514229
0.00768135
0.00774424
0.007748
0.00767436
0.00755426
0.0074079
0.00724506
0.0070737
0.00689961
0.00672609
0.00655499
0.0063872
0.00622306
0.00606266
0.00590583
0.00575184
0.00559956
0.00544901
0.00530179
0.0051479
0.00783243
0.00789157
0.00787963
0.00778424
0.00764462
0.00747913
0.00729893
0.00711444
0.00693043
0.00674999
0.00657477
0.00640455
0.00623869
0.00607655
0.00591755
0.0057608
0.00560532
0.00545089
0.00529846
0.00513868
0.00813032
0.00819839
0.00814601
0.00799903
0.00781416
0.00760905
0.00739841
0.00719155
0.00699045
0.00679805
0.00661548
0.00644089
0.00627227
0.0061083
0.00594792
0.00579005
0.00563373
0.00547854
0.00532462
0.00516342
0.00864943
0.00869294
0.00852737
0.00826444
0.00798408
0.00771278
0.00746185
0.00723559
0.00703276
0.00684646
0.00666975
0.00649965
0.0063349
0.00617452
0.00601782
0.00586465
0.00571539
0.00557165
0.00543841
0.00531632
0.00995233
0.0091896
0.00857084
0.00811953
0.00777558
0.0075066
0.00728708
0.00709843
0.00693085
0.0067738
0.00661874
0.00646444
0.00631191
0.00616219
0.00601653
0.00587709
0.00574706
0.00563223
0.00554678
0.00551153
0.0103616
0.00951004
0.00874576
0.0081866
0.00781041
0.00754235
0.00732663
0.00713362
0.00695504
0.00678624
0.00662227
0.00646086
0.00630132
0.00614309
0.00598481
0.00582456
0.00565906
0.00548383
0.00529836
0.00509979
0.00906774
0.00919392
0.00889102
0.00847478
0.00810759
0.00778891
0.00751026
0.00726964
0.00705679
0.00686177
0.00667774
0.00650126
0.0063301
0.00616209
0.00599494
0.00582663
0.00565511
0.00547867
0.00530207
0.00514315
0.00849827
0.00859924
0.00848767
0.00826217
0.00800639
0.00774795
0.00748948
0.00724773
0.00702964
0.00682906
0.00664099
0.00646215
0.0062897
0.00612113
0.00595483
0.0057895
0.00562441
0.00546172
0.00530867
0.00516478
0.00813032
0.00819838
0.00814601
0.00799903
0.00781416
0.00760904
0.0073984
0.00719154
0.00699044
0.00679804
0.00661547
0.00644087
0.00627226
0.00610829
0.00594791
0.00579003
0.00563369
0.00547848
0.00532449
0.00516314
0.0079473
0.00801174
0.00798228
0.00785745
0.00769849
0.00752488
0.00733871
0.00715084
0.0069649
0.00678173
0.00660287
0.00642935
0.00626161
0.00610002
0.00594483
0.005795
0.00564803
0.00550254
0.00535841
0.00520504
0.0079473
0.00801173
0.00798227
0.00785744
0.00769847
0.00752486
0.00733867
0.00715078
0.00696481
0.0067816
0.00660266
0.00642903
0.00626115
0.0060994
0.00594407
0.00579422
0.00564755
0.0055032
0.00536292
0.00521899
0.00813031
0.00819837
0.00814599
0.00799901
0.00781413
0.007609
0.00739833
0.00719143
0.00699027
0.00679777
0.00661506
0.00644025
0.00627131
0.0061069
0.00594594
0.00578736
0.00563023
0.00547445
0.00532113
0.00516468
0.00849827
0.00859924
0.00848767
0.00826217
0.00800639
0.00774796
0.00748949
0.00724774
0.00702966
0.00682907
0.006641
0.00646216
0.00628972
0.00612114
0.00595484
0.00578951
0.00562442
0.00546172
0.00530868
0.00516488
0.00906777
0.00919395
0.00889105
0.00847481
0.00810765
0.00778899
0.00751039
0.00726983
0.00705709
0.00686224
0.00667846
0.00650239
0.00633185
0.00616475
0.00599892
0.00583236
0.00566299
0.00548823
0.00530933
0.0051309
0.0103616
0.00951007
0.0087458
0.00818665
0.00781049
0.00754247
0.00732682
0.0071339
0.00695549
0.00678695
0.00662339
0.00646266
0.00630423
0.00614785
0.0059926
0.00583739
0.00568054
0.00552008
0.00536315
0.00522027
0.0107098
0.00997596
0.00888305
0.00821706
0.00781443
0.00754061
0.00732932
0.00714293
0.00696824
0.00680047
0.00663701
0.00647599
0.00631555
0.00615418
0.00599135
0.00582513
0.00565073
0.00545567
0.00519951
0.00477955
0.00999322
0.00996151
0.00923327
0.00852274
0.00807634
0.0077603
0.00750128
0.00727344
0.00706854
0.00687966
0.00670117
0.00652922
0.00636028
0.00619211
0.00602339
0.00585199
0.00567306
0.00548135
0.00529037
0.00517744
0.00906777
0.00919395
0.00889105
0.00847481
0.00810765
0.00778899
0.00751038
0.00726983
0.00705708
0.00686223
0.00667845
0.00650238
0.00633184
0.00616474
0.00599892
0.00583236
0.00566301
0.00548828
0.0053094
0.00513097
0.00864943
0.00869294
0.00852737
0.00826445
0.00798408
0.00771278
0.00746185
0.00723558
0.00703275
0.00684645
0.00666974
0.00649964
0.00633489
0.00617452
0.00601782
0.00586464
0.00571539
0.00557163
0.00543831
0.00531601
0.00843349
0.00845532
0.00832813
0.00811065
0.00787827
0.0076492
0.00742653
0.00721361
0.00701326
0.00682668
0.00665146
0.00648466
0.00632478
0.00617038
0.00602158
0.00588082
0.00574929
0.005627
0.00551732
0.00542123
0.00843348
0.00845531
0.00832812
0.00811063
0.00787824
0.00764915
0.00742646
0.0072135
0.00701308
0.0068264
0.00665103
0.00648401
0.00632374
0.00616873
0.00601908
0.00587711
0.0057439
0.00561951
0.00550858
0.00541969
0.00864941
0.00869291
0.00852734
0.0082644
0.00798402
0.00771268
0.0074617
0.00723535
0.00703237
0.00684585
0.00666881
0.00649819
0.00633256
0.00617082
0.00601216
0.00585614
0.00570279
0.00555329
0.00541149
0.00528234
0.00906775
0.00919393
0.00889103
0.00847479
0.00810761
0.00778892
0.00751027
0.00726965
0.00705681
0.00686179
0.00667776
0.00650128
0.00633013
0.00616211
0.00599495
0.00582665
0.00565512
0.00547865
0.00530202
0.00514306
0.00999323
0.00996152
0.00923328
0.00852275
0.00807635
0.00776031
0.00750129
0.00727345
0.00706856
0.00687967
0.00670119
0.00652924
0.0063603
0.00619213
0.00602341
0.005852
0.00567305
0.00548131
0.00529025
0.0051772
0.0107098
0.00997598
0.00888308
0.0082171
0.00781448
0.00754069
0.00732944
0.00714312
0.00696855
0.00680095
0.00663777
0.00647721
0.0063175
0.00615729
0.00599641
0.00583338
0.00566455
0.00548061
0.00524617
0.00486765
0.0178886
0.0107742
0.00848274
0.0079449
0.00767051
0.00744825
0.0072615
0.00709494
0.00693356
0.00677377
0.0066156
0.00645879
0.00630196
0.00614314
0.00598245
0.00581878
0.00564878
0.00546693
0.00521202
0.00473701
0.0107098
0.00997598
0.00888308
0.0082171
0.00781448
0.00754069
0.00732944
0.00714311
0.00696854
0.00680094
0.00663776
0.0064772
0.00631749
0.00615727
0.00599637
0.00583337
0.00566457
0.00548067
0.00524633
0.00486801
0.0103616
0.00951007
0.0087458
0.00818666
0.0078105
0.00754247
0.00732681
0.0071339
0.00695548
0.00678694
0.00662339
0.00646265
0.00630422
0.00614782
0.00599257
0.0058374
0.00568059
0.00552019
0.00536341
0.00522085
0.00995234
0.0091896
0.00857084
0.00811953
0.00777558
0.00750661
0.00728708
0.00709843
0.00693085
0.0067738
0.00661874
0.00646444
0.0063119
0.00616217
0.00601652
0.0058771
0.00574711
0.00563232
0.00554696
0.00551186
0.00981814
0.00907696
0.00848879
0.00808069
0.00775878
0.00749212
0.00727071
0.00708026
0.00690983
0.00675369
0.00660477
0.00645646
0.00630839
0.00616318
0.00602446
0.00589649
0.00578499
0.00569817
0.00565278
0.00567829
0.00981813
0.00907694
0.00848877
0.00808067
0.00775875
0.00749208
0.00727064
0.00708015
0.00690966
0.00675341
0.0066043
0.0064557
0.00630712
0.00616103
0.00602075
0.00588993
0.00577317
0.005676
0.00561103
0.00559618
0.00995231
0.00918958
0.00857081
0.00811949
0.00777552
0.0075065
0.00728692
0.00709817
0.00693043
0.00677312
0.00661766
0.00646267
0.006309
0.00615734
0.00600845
0.00586345
0.00572376
0.00559182
0.0054741
0.00538451
0.0103616
0.00951005
0.00874577
0.00818661
0.00781043
0.00754236
0.00732665
0.00713364
0.00695506
0.00678626
0.0066223
0.00646089
0.00630135
0.00614312
0.00598484
0.00582458
0.00565908
0.00548383
0.00529832
0.00509968
0.0107098
0.00997597
0.00888306
0.00821707
0.00781444
0.00754062
0.00732933
0.00714294
0.00696826
0.00680049
0.00663703
0.00647602
0.00631557
0.0061542
0.00599138
0.00582515
0.00565073
0.00545566
0.00519946
0.00477943
0.0178886
0.0107742
0.00848275
0.00794491
0.00767052
0.00744826
0.00726151
0.00709495
0.00693358
0.00677379
0.00661562
0.00645881
0.00630198
0.00614316
0.00598249
0.0058188
0.00564878
0.0054669
0.00521193
0.00473686
0.0056779
0.00495643
0.00445016
0.00434318
0.00425038
0.00412196
0.00399088
0.00386109
0.00373145
0.00360237
0.00347343
0.00334501
0.00321724
0.00309075
0.00296401
0.00283715
0.0027111
0.00258577
0.0024622
0.00233934
0.00221765
0.00209656
0.00197643
0.00185784
0.00174023
0.00162385
0.00150787
0.00139267
0.00127822
0.0011647
0.00105259
0.00094089
0.000829185
0.000717435
0.000606883
0.000497565
0.000387855
0.000277082
0.000167961
5.15474e-05
0.00571391
0.00502924
0.00454493
0.00436627
0.00424835
0.00411977
0.00398983
0.00386025
0.00373025
0.00360041
0.00347045
0.00334086
0.00321162
0.00308338
0.00295543
0.0028278
0.00270136
0.00257589
0.00245228
0.00232955
0.002208
0.00208752
0.00196849
0.00185082
0.00173377
0.00161748
0.00150145
0.00138626
0.00127192
0.0011586
0.00104674
0.000935456
0.000824214
0.000712819
0.000602646
0.000493787
0.000384398
0.000274183
0.000165149
5.07196e-05
0.0054146
0.00504327
0.00469697
0.00447519
0.00431029
0.00416021
0.00401684
0.00387853
0.003743
0.00360891
0.00347547
0.0033431
0.00321137
0.00308118
0.00295244
0.00282463
0.00269801
0.00257245
0.0024485
0.00232529
0.00220349
0.00208263
0.00196321
0.00184503
0.00172755
0.00161114
0.00149508
0.00138003
0.00126604
0.00115311
0.00104142
0.000930708
0.000819932
0.000709235
0.000599804
0.000491119
0.000381793
0.000271871
0.000163511
4.99089e-05
0.00510218
0.00495199
0.00474208
0.00454597
0.00437477
0.00421626
0.00406438
0.00391747
0.00377472
0.00363507
0.00349786
0.00336292
0.00322978
0.00309834
0.00296831
0.00283953
0.00271201
0.00258562
0.00246057
0.00233626
0.00221302
0.00209027
0.00196834
0.00184798
0.00172914
0.00161177
0.00149552
0.00138043
0.00126634
0.00115317
0.00104052
0.000928967
0.000817754
0.000707212
0.000598234
0.000489664
0.000380444
0.000271093
0.000163196
4.95967e-05
0.00493779
0.00487697
0.0047381
0.00456543
0.00439615
0.00423506
0.00408108
0.00393253
0.0037881
0.00364654
0.00350751
0.00337169
0.00323831
0.00310659
0.00297627
0.00284729
0.00271961
0.00259315
0.00246788
0.00234372
0.0022208
0.00209898
0.00197787
0.00185759
0.00173842
0.00162055
0.00150398
0.00138862
0.00127444
0.00116081
0.00104711
0.000934032
0.000821861
0.000710888
0.000601498
0.000492234
0.0003822
0.000272149
0.000163721
4.97704e-05
0.00489723
0.00484388
0.0047267
0.0045643
0.00439739
0.00423619
0.00408133
0.00393244
0.00378863
0.00364814
0.00351017
0.00337499
0.00324175
0.00311005
0.00297978
0.00285086
0.00272323
0.00259685
0.00247166
0.00234762
0.00222475
0.00210302
0.00198246
0.00186291
0.00174399
0.00162562
0.00150816
0.00139217
0.00127773
0.00116427
0.00105143
0.000939456
0.000828184
0.000717574
0.000607632
0.000497436
0.000386422
0.000275012
0.000165401
5.06809e-05
0.00495858
0.00488004
0.00472208
0.00454768
0.00438086
0.00422168
0.00406861
0.0039221
0.00378063
0.0036424
0.00350649
0.00337229
0.00323958
0.00310839
0.00297855
0.00284995
0.0027226
0.00259644
0.00247145
0.00234763
0.00222489
0.00210331
0.00198274
0.0018632
0.00174446
0.00162633
0.00150886
0.00139293
0.00127859
0.00116547
0.00105345
0.000941701
0.00082988
0.000718886
0.000609318
0.00049971
0.000389346
0.000278343
0.000168134
5.23645e-05
0.00513576
0.00495942
0.00473014
0.00452986
0.00435681
0.00419811
0.00404822
0.0039053
0.00376672
0.00363091
0.00349681
0.00336376
0.00323199
0.00310131
0.00297177
0.00284353
0.00271668
0.00259101
0.0024665
0.00234316
0.00222086
0.00209979
0.00197934
0.00186021
0.00174232
0.00162589
0.00151043
0.00139555
0.0012816
0.00116867
0.00105693
0.00094517
0.000832873
0.00072142
0.000611789
0.000502449
0.000392451
0.000281259
0.000170109
5.35812e-05
0.00541911
0.00504644
0.00469467
0.00446698
0.00429914
0.00414822
0.00400723
0.0038729
0.00374111
0.00361008
0.0034792
0.00334926
0.00322135
0.00309458
0.002968
0.00284113
0.00271503
0.00258963
0.00246537
0.0023424
0.00222016
0.00209896
0.00197854
0.00185982
0.00174221
0.00162645
0.00151155
0.00139677
0.00128249
0.00116907
0.00105707
0.000945238
0.00083295
0.000721135
0.000610898
0.000500842
0.000390642
0.000279756
0.000168457
5.28017e-05
0.00568167
0.00502946
0.00456243
0.00438807
0.00426342
0.00412447
0.00398984
0.0038604
0.00373191
0.0036039
0.00347546
0.00334812
0.00322318
0.00309879
0.0029736
0.00284738
0.00272152
0.00259636
0.00247235
0.00234958
0.00222736
0.00210565
0.00198463
0.00186538
0.00174766
0.00163107
0.00151524
0.00139994
0.00128527
0.00117154
0.00105932
0.000947396
0.000835133
0.000723148
0.000612555
0.000501923
0.000391403
0.000280836
0.000169818
5.35074e-05
0.00567776
0.00495621
0.00445073
0.00434548
0.00425143
0.00412073
0.00398876
0.00385965
0.00373054
0.00360192
0.00347272
0.00334433
0.00321759
0.00309112
0.00296441
0.00283744
0.00271131
0.0025861
0.00246214
0.00233946
0.00221746
0.0020963
0.00197623
0.00185776
0.00174054
0.00162406
0.00150825
0.001393
0.00127849
0.00116493
0.00105283
0.000941216
0.000829424
0.000717871
0.000607681
0.000497476
0.000387431
0.000277174
0.000167912
5.1434e-05
0.00568188
0.00502974
0.00456145
0.00438586
0.00426222
0.00412534
0.00399179
0.00386185
0.00373292
0.00360453
0.00347638
0.00334898
0.00322303
0.0030986
0.00297327
0.00284709
0.0027212
0.00259588
0.00247225
0.0023493
0.00222743
0.00210574
0.00198465
0.00186521
0.00174722
0.00163079
0.00151486
0.00139961
0.00128498
0.00117123
0.00105895
0.000946942
0.000834792
0.000722575
0.000611572
0.000501853
0.000391778
0.000280661
0.00016972
5.3548e-05
0.00545893
0.00502579
0.00466754
0.00445034
0.00428949
0.00414154
0.0040017
0.00386846
0.00373798
0.00360858
0.00347954
0.00335135
0.00322353
0.00309683
0.00297044
0.00284431
0.00271869
0.0025939
0.00247067
0.0023479
0.0022268
0.00210581
0.00198552
0.00186643
0.0017482
0.00163165
0.00151524
0.00139966
0.00128501
0.00117132
0.00105893
0.000946957
0.00083468
0.000722613
0.000611799
0.000501891
0.000391844
0.00028089
0.000170778
5.40571e-05
0.00519979
0.00494831
0.00471151
0.0045017
0.00432448
0.00416445
0.00401521
0.00387476
0.00373929
0.00360618
0.00347463
0.00334403
0.00321481
0.0030868
0.00295985
0.00283389
0.00270854
0.00258436
0.00246121
0.00233872
0.00221704
0.00209604
0.00197596
0.00185691
0.00173876
0.00162194
0.00150617
0.0013912
0.00127731
0.00116436
0.00105169
0.000939621
0.000827688
0.000716718
0.00060726
0.000497576
0.000387041
0.000276438
0.000167436
5.25773e-05
0.0050472
0.00487124
0.00469113
0.00450577
0.00433584
0.00418031
0.00403304
0.00389136
0.00375353
0.00361851
0.00348581
0.00335431
0.00322425
0.00309534
0.00296748
0.00284072
0.00271491
0.00259022
0.00246632
0.00234354
0.00222139
0.00209999
0.00197934
0.00186006
0.00174209
0.00162473
0.00150857
0.0013933
0.00127893
0.00116521
0.00105166
0.000938557
0.00082637
0.000715441
0.000605648
0.000495651
0.000385305
0.000275281
0.000166451
5.29861e-05
0.00482345
0.00469985
0.00459915
0.00446052
0.00431325
0.00417144
0.00403178
0.00389348
0.00375693
0.0036225
0.00348994
0.00335885
0.00322883
0.00309984
0.00297196
0.00284516
0.00271936
0.00259458
0.00247071
0.00234788
0.00222574
0.00210423
0.0019837
0.00186441
0.00174613
0.00162853
0.00151215
0.00139707
0.00128278
0.00116877
0.00105506
0.000941822
0.000829712
0.00071846
0.000607502
0.000496309
0.000384931
0.000274186
0.000165048
5.31781e-05
0.00480448
0.00467038
0.00458247
0.00445628
0.00431383
0.00417445
0.00403663
0.00389881
0.00376197
0.00362728
0.00349463
0.00336309
0.00323265
0.00310334
0.00297518
0.00284811
0.00272204
0.00259698
0.002473
0.00235001
0.00222784