/*--------------------------------*- C++ -*----------------------------------*\
| =========                 |                                                 |
| \\      /  F ield         | OpenFOAM: The Open Source CFD Toolbox           |
|  \\    /   O peration     | Version:  2212                                  |
|   \\  /    A nd           | Website:  www.openfoam.com                      |
|    \\/     M anipulation  |                                                 |
\*---------------------------------------------------------------------------*/
FoamFile
{
    version     2.0;
    format      ascii;
    arch        "LSB;label=32;scalar=64";
    class       surfaceScalarField;
    location    "2.4";
    object      phi;
}
// * * * * * * * * * * * * * * * * * * * * * * * * * * * * * * * * * * * * * //

dimensions      [0 3 -1 0 0 0 0];

oriented        oriented;

internalField   nonuniform List<scalar> 
19019
(
3.3225e-07
1.09686e-09
1.09677e-09
2.79191e-07
2.65295e-08
2.65294e-08
2.49218e-07
1.49864e-08
1.4986e-08
2.29255e-07
9.98187e-09
9.98139e-09
2.14836e-07
7.20978e-09
7.20905e-09
2.03201e-07
5.81793e-09
5.8168e-09
1.93775e-07
4.71434e-09
4.71243e-09
1.86008e-07
3.88467e-09
3.88141e-09
1.79362e-07
3.32582e-09
3.32037e-09
1.73537e-07
2.91719e-09
2.90826e-09
1.68369e-07
2.59117e-09
2.57661e-09
1.63755e-07
2.31869e-09
2.29487e-09
1.59614e-07
2.09007e-09
2.0516e-09
1.55872e-07
1.90139e-09
1.84027e-09
1.52547e-07
1.71289e-09
1.61154e-09
1.49701e-07
1.50801e-09
1.33796e-09
1.47471e-07
1.26999e-09
9.59666e-10
1.47153e-07
4.3886e-10
-1.20757e-10
1.51071e-07
-1.34206e-09
-2.5764e-09
-1.97898e-08
-2.42062e-08
6.3138e-07
3.58751e-09
7.40287e-09
6.14564e-07
2.26454e-08
2.07002e-08
5.86446e-07
2.43751e-08
1.8729e-08
5.61728e-07
1.88531e-08
1.58466e-08
5.39623e-07
1.55662e-08
1.37489e-08
5.20646e-07
1.35045e-08
1.12904e-08
5.04706e-07
1.19422e-08
8.71164e-09
4.90964e-07
1.07836e-08
6.84334e-09
4.78761e-07
9.9203e-09
5.60879e-09
4.67708e-07
9.1936e-09
4.77615e-09
4.57579e-07
8.54155e-09
4.17845e-09
4.48244e-07
7.9335e-09
3.72027e-09
4.39617e-07
7.34428e-09
3.37258e-09
4.31638e-07
6.75978e-09
3.12115e-09
4.24354e-07
6.1177e-09
2.87838e-09
4.17921e-07
5.34179e-09
2.59974e-09
4.12929e-07
4.15739e-09
2.10475e-09
4.11309e-07
1.5334e-09
5.25348e-10
4.1776e-07
-3.82662e-09
-3.96717e-09
-2.06147e-08
-2.22804e-08
8.90375e-07
2.85246e-09
6.33234e-09
8.82486e-07
1.34078e-08
1.71258e-08
8.7036e-07
1.78655e-08
1.86359e-08
8.55114e-07
1.6952e-08
1.71471e-08
8.39986e-07
1.53344e-08
1.53604e-08
8.25539e-07
1.41601e-08
1.37907e-08
8.11775e-07
1.33624e-08
1.23441e-08
7.98788e-07
1.26461e-08
1.11247e-08
7.86726e-07
1.18383e-08
1.01434e-08
7.75603e-07
1.09611e-08
9.35554e-09
7.65282e-07
1.01007e-08
8.76148e-09
7.5562e-07
9.26401e-09
8.33152e-09
7.46504e-07
8.43903e-09
8.02162e-09
7.37901e-07
7.58497e-09
7.77748e-09
7.29842e-07
6.60717e-09
7.56982e-09
7.2253e-07
5.33682e-09
7.31632e-09
7.16341e-07
3.48248e-09
6.86409e-09
7.11447e-07
5.56535e-10
5.87087e-09
7.08162e-07
-4.62829e-09
4.08631e-09
-1.28116e-08
-8.76352e-11
1.07432e-06
1.06465e-09
5.56888e-09
1.06824e-06
5.58593e-09
1.39002e-08
1.06138e-06
8.46281e-09
1.62618e-08
1.05338e-06
9.0378e-09
1.59092e-08
1.0451e-06
8.61439e-09
1.50032e-08
1.03721e-06
8.11458e-09
1.39355e-08
1.02981e-06
7.77639e-09
1.29811e-08
1.0228e-06
7.53716e-09
1.21218e-08
1.01594e-06
7.34055e-09
1.13573e-08
1.00915e-06
7.03569e-09
1.07145e-08
1.00246e-06
6.56277e-09
1.02351e-08
9.9581e-07
6.00858e-09
9.90103e-09
9.89138e-07
5.42304e-09
9.6886e-09
9.82326e-07
4.79611e-09
9.59998e-09
9.75223e-07
4.08191e-09
9.62865e-09
9.67644e-07
3.13098e-09
9.78449e-09
9.59292e-07
1.73954e-09
1.00946e-08
9.49512e-07
-2.88141e-10
1.06251e-08
9.37321e-07
-3.84027e-09
1.14026e-08
-7.79293e-09
1.35269e-08
1.16914e-06
-5.22507e-14
4.90655e-09
1.16312e-06
-2.26354e-13
1.16084e-08
1.15731e-06
-4.31823e-13
1.42757e-08
1.15201e-06
-6.68596e-13
1.43345e-08
1.1469e-06
-1.01911e-12
1.37328e-08
1.14204e-06
-1.54271e-12
1.29742e-08
1.13771e-06
-2.29587e-12
1.21086e-08
1.13393e-06
-3.46128e-12
1.13215e-08
1.1306e-06
-5.24861e-12
1.06735e-08
1.12741e-06
-8.09664e-12
1.02308e-08
1.12402e-06
-1.28032e-11
9.96333e-09
1.12025e-06
-2.06772e-11
9.80463e-09
1.11593e-06
-3.41727e-11
9.77917e-09
1.11084e-06
-5.6179e-11
9.93689e-09
1.10471e-06
-9.87382e-11
1.03093e-08
1.09702e-06
-1.76797e-10
1.09963e-08
1.0869e-06
-3.23268e-10
1.21903e-08
1.07315e-06
-6.27042e-10
1.40888e-08
1.05402e-06
-1.25301e-09
1.654e-08
-2.34198e-09
2.30279e-08
1.16914e-06
-1.06476e-09
4.90656e-09
1.16312e-06
-5.58629e-09
1.16085e-08
1.15731e-06
-8.46348e-09
1.42758e-08
1.15201e-06
-9.03886e-09
1.43346e-08
1.14689e-06
-8.61601e-09
1.3733e-08
1.14203e-06
-8.11696e-09
1.29744e-08
1.1377e-06
-7.77988e-09
1.21088e-08
1.13392e-06
-7.54235e-09
1.13218e-08
1.13059e-06
-7.34814e-09
1.06738e-08
1.1274e-06
-7.04723e-09
1.02311e-08
1.124e-06
-6.58088e-09
9.96359e-09
1.12021e-06
-6.03789e-09
9.80545e-09
1.11587e-06
-5.47111e-09
9.78121e-09
1.11075e-06
-4.87317e-09
9.94102e-09
1.10454e-06
-4.21398e-09
1.03234e-08
1.09667e-06
-3.35015e-09
1.10402e-08
1.08615e-06
-2.11295e-09
1.23059e-08
1.07149e-06
-3.63927e-10
1.43992e-08
1.05024e-06
2.53339e-09
1.74604e-08
6.404e-09
2.55192e-08
1.07432e-06
-2.85249e-09
5.5689e-09
1.06824e-06
-1.34079e-08
1.39003e-08
1.06138e-06
-1.78658e-08
1.6262e-08
1.05338e-06
-1.69524e-08
1.59094e-08
1.0451e-06
-1.53351e-08
1.50034e-08
1.0372e-06
-1.41609e-08
1.39358e-08
1.02981e-06
-1.33634e-08
1.29816e-08
1.02279e-06
-1.26475e-08
1.21226e-08
1.01592e-06
-1.184e-08
1.13582e-08
1.00912e-06
-1.09632e-08
1.07157e-08
1.00241e-06
-1.01037e-08
1.02371e-08
9.95735e-07
-9.26861e-09
9.90453e-09
9.89014e-07
-8.44626e-09
9.69585e-09
9.82119e-07
-7.59599e-09
9.61748e-09
9.74861e-07
-6.6254e-09
9.66951e-09
9.66994e-07
-5.35766e-09
9.87534e-09
9.58107e-07
-3.51594e-09
1.02894e-08
9.4732e-07
-6.1266e-10
1.1036e-08
9.33188e-07
4.38018e-09
1.22855e-08
1.3401e-08
1.45113e-08
8.90375e-07
-3.58749e-09
6.33236e-09
8.82486e-07
-2.26453e-08
1.71258e-08
8.70359e-07
-2.4375e-08
1.86359e-08
8.55113e-07
-1.88529e-08
1.71471e-08
8.39983e-07
-1.55658e-08
1.53605e-08
8.25535e-07
-1.35039e-08
1.37909e-08
8.11768e-07
-1.19411e-08
1.23444e-08
7.98777e-07
-1.07815e-08
1.11251e-08
7.8671e-07
-9.91677e-09
1.0144e-08
7.75578e-07
-9.18781e-09
9.35672e-09
7.65243e-07
-8.53223e-09
8.76382e-09
7.55556e-07
-7.91824e-09
8.33627e-09
7.46397e-07
-7.31905e-09
8.0318e-09
7.37719e-07
-6.71932e-09
7.80091e-09
7.29523e-07
-6.05018e-09
7.62095e-09
7.21968e-07
-5.22698e-09
7.42476e-09
7.15359e-07
-4.00082e-09
7.0933e-09
7.09646e-07
-1.24821e-09
6.34864e-09
7.04547e-07
4.39454e-09
5.08489e-09
2.36704e-08
6.79405e-10
6.3138e-07
-1.0968e-09
7.40288e-09
6.14564e-07
-2.65294e-08
2.07003e-08
5.86446e-07
-1.49861e-08
1.87291e-08
5.61728e-07
-9.98146e-09
1.58467e-08
5.39622e-07
-7.20913e-09
1.3749e-08
5.20644e-07
-5.81688e-09
1.12908e-08
5.04703e-07
-4.71251e-09
8.71219e-09
4.90959e-07
-3.88149e-09
6.84409e-09
4.78753e-07
-3.32046e-09
5.6099e-09
4.67696e-07
-2.90836e-09
4.77777e-09
4.5756e-07
-2.57671e-09
4.1804e-09
4.48214e-07
-2.29497e-09
3.72269e-09
4.39567e-07
-2.05179e-09
3.37953e-09
4.31548e-07
-1.84035e-09
3.14033e-09
4.24194e-07
-1.61136e-09
2.91506e-09
4.17634e-07
-1.33791e-09
2.67096e-09
4.12362e-07
-9.59713e-10
2.23091e-09
4.10296e-07
1.20759e-10
6.96623e-10
4.15921e-07
2.57635e-09
-3.80669e-09
2.42076e-08
-2.34097e-08
3.3225e-07
1.09683e-09
2.79191e-07
2.65295e-08
2.49218e-07
1.49863e-08
2.29255e-07
9.98183e-09
2.14836e-07
7.20973e-09
2.03201e-07
5.8179e-09
1.93774e-07
4.71431e-09
1.86008e-07
3.88465e-09
1.79362e-07
3.32581e-09
1.73536e-07
2.91718e-09
1.68368e-07
2.59116e-09
1.63755e-07
2.31868e-09
1.59613e-07
2.09019e-09
1.55871e-07
1.90167e-09
1.52546e-07
1.71331e-09
1.497e-07
1.50864e-09
1.47469e-07
1.27068e-09
1.4715e-07
4.39781e-10
1.51068e-07
-1.34125e-09
-1.97872e-08
6.3138e-07
7.40288e-09
3.58746e-09
6.14564e-07
2.07003e-08
2.26452e-08
5.86446e-07
1.87291e-08
2.43749e-08
5.61728e-07
1.58467e-08
1.88528e-08
5.39622e-07
1.3749e-08
1.55657e-08
5.20644e-07
1.12907e-08
1.35038e-08
5.04704e-07
8.71213e-09
1.1941e-08
4.9096e-07
6.84402e-09
1.07814e-08
4.78753e-07
5.6098e-09
9.91663e-09
4.67696e-07
4.77764e-09
9.18764e-09
4.57561e-07
4.18027e-09
8.53202e-09
4.48215e-07
3.72251e-09
7.91798e-09
4.39569e-07
3.37899e-09
7.31883e-09
4.3155e-07
3.13975e-09
6.71888e-09
4.24197e-07
2.91487e-09
6.04953e-09
4.17639e-07
2.67037e-09
5.22616e-09
4.12368e-07
2.23003e-09
3.99976e-09
4.10305e-07
6.95545e-10
1.24697e-09
4.15932e-07
-3.80778e-09
-4.39586e-09
-2.34101e-08
-2.36695e-08
9.23617e-07
7.03377e-09
7.03373e-09
9.25318e-07
1.98493e-08
1.98493e-08
9.17185e-07
2.27958e-08
2.27956e-08
9.04277e-07
2.23006e-08
2.23004e-08
8.90538e-07
2.06187e-08
2.06185e-08
8.77417e-07
1.78514e-08
1.78509e-08
8.65454e-07
1.46939e-08
1.46932e-08
8.54786e-07
1.2178e-08
1.21767e-08
8.45364e-07
1.03212e-08
1.03191e-08
8.37049e-07
8.93604e-09
8.93294e-09
8.29663e-07
7.87453e-09
7.87009e-09
8.23031e-07
7.04058e-09
7.03427e-09
8.17073e-07
6.35955e-09
6.34978e-09
8.11843e-07
5.75307e-09
5.73777e-09
8.07429e-07
5.11559e-09
5.09222e-09
8.04002e-07
4.36547e-09
4.33178e-09
8.01771e-07
3.29968e-09
3.26564e-09
8.00077e-07
1.45702e-09
1.45809e-09
7.9586e-07
-1.82181e-09
-1.73632e-09
-7.73912e-09
-7.25216e-09
1.1589e-06
5.28113e-09
6.10243e-09
1.1657e-06
1.39979e-08
1.61823e-08
1.16845e-06
1.79764e-08
2.07055e-08
1.16661e-06
1.91764e-08
2.21031e-08
1.16222e-06
1.88724e-08
2.15041e-08
1.15655e-06
1.75391e-08
1.97685e-08
1.15049e-06
1.56741e-08
1.74233e-08
1.1446e-06
1.38663e-08
1.53266e-08
1.13919e-06
1.22501e-08
1.36258e-08
1.13439e-06
1.0828e-08
1.22637e-08
1.13021e-06
9.63243e-09
1.11826e-08
1.12663e-06
8.62547e-09
1.033e-08
1.12363e-06
7.73238e-09
9.64633e-09
1.12123e-06
6.87077e-09
9.05897e-09
1.11946e-06
5.94197e-09
8.51767e-09
1.11835e-06
4.84715e-09
7.93668e-09
1.11792e-06
3.40907e-09
7.19038e-09
1.11772e-06
1.41163e-09
6.11573e-09
1.11687e-06
-1.42236e-09
4.53312e-09
-5.19827e-09
2.71771e-09
1.32763e-06
2.718e-09
4.93103e-09
1.33539e-06
7.12015e-09
1.30088e-08
1.34286e-06
9.55214e-09
1.72156e-08
1.34847e-06
1.05759e-08
1.88997e-08
1.35198e-06
1.08717e-08
1.95031e-08
1.35376e-06
1.05747e-08
1.91191e-08
1.35442e-06
9.88228e-09
1.81077e-08
1.35456e-06
9.0302e-09
1.68235e-08
1.35451e-06
8.16777e-09
1.54842e-08
1.35443e-06
7.35166e-09
1.42678e-08
1.35439e-06
6.60427e-09
1.3307e-08
1.35442e-06
5.92076e-09
1.25724e-08
1.35454e-06
5.27407e-09
1.20275e-08
1.35474e-06
4.62822e-09
1.16453e-08
1.355e-06
3.90601e-09
1.14063e-08
1.35527e-06
3.05539e-09
1.13078e-08
1.35543e-06
1.97044e-09
1.13692e-08
1.35528e-06
5.62414e-10
1.16281e-08
1.35437e-06
-1.25357e-09
1.21418e-08
-3.11404e-09
1.32948e-08
1.41518e-06
-7.6883e-14
4.19285e-09
1.42279e-06
-2.13115e-13
1.1116e-08
1.43152e-06
-3.55092e-13
1.50988e-08
1.4398e-06
-5.45239e-13
1.66304e-08
1.44713e-06
-8.18147e-13
1.72786e-08
1.45316e-06
-1.18877e-12
1.75162e-08
1.45799e-06
-1.72552e-12
1.71638e-08
1.46189e-06
-2.56173e-12
1.64549e-08
1.46515e-06
-3.77343e-12
1.55804e-08
1.46802e-06
-5.43602e-12
1.47216e-08
1.47065e-06
-7.74621e-12
1.39456e-08
1.47307e-06
-1.12805e-11
1.33129e-08
1.47522e-06
-1.78016e-11
1.29199e-08
1.47704e-06
-2.84282e-11
1.27721e-08
1.47848e-06
-4.47439e-11
1.28226e-08
1.47944e-06
-6.86126e-11
1.31657e-08
1.47978e-06
-1.02432e-10
1.39151e-08
1.4794e-06
-1.41687e-10
1.51749e-08
1.47793e-06
-1.53573e-10
1.69133e-08
8.44621e-11
1.90657e-08
1.41518e-06
-2.7181e-09
4.19289e-09
1.42279e-06
-7.12044e-09
1.1116e-08
1.43152e-06
-9.55264e-09
1.50989e-08
1.4398e-06
-1.05767e-08
1.66305e-08
1.44712e-06
-1.0873e-08
1.72788e-08
1.45316e-06
-1.05765e-08
1.75164e-08
1.45799e-06
-9.88474e-09
1.7164e-08
1.46188e-06
-9.03383e-09
1.64552e-08
1.46515e-06
-8.17313e-09
1.5581e-08
1.46801e-06
-7.3593e-09
1.47226e-08
1.47063e-06
-6.61533e-09
1.39467e-08
1.47305e-06
-5.93766e-09
1.33142e-08
1.47519e-06
-5.30262e-09
1.29224e-08
1.477e-06
-4.6764e-09
1.27787e-08
1.47843e-06
-3.98101e-09
1.28378e-08
1.47937e-06
-3.17139e-09
1.31961e-08
1.47975e-06
-2.14821e-09
1.39741e-08
1.47954e-06
-8.23895e-10
1.52891e-08
1.47885e-06
8.96497e-10
1.71018e-08
2.96427e-09
1.89423e-08
1.32762e-06
-5.28115e-09
4.93108e-09
1.33539e-06
-1.3998e-08
1.30089e-08
1.34286e-06
-1.79765e-08
1.72158e-08
1.34847e-06
-1.91767e-08
1.89e-08
1.35197e-06
-1.88727e-08
1.95034e-08
1.35375e-06
-1.75395e-08
1.91194e-08
1.35442e-06
-1.56745e-08
1.81082e-08
1.35455e-06
-1.38667e-08
1.68242e-08
1.3545e-06
-1.22506e-08
1.54856e-08
1.35441e-06
-1.08288e-08
1.42701e-08
1.35436e-06
-9.63403e-09
1.33106e-08
1.35437e-06
-8.62909e-09
1.25783e-08
1.35447e-06
-7.74037e-09
1.20385e-08
1.35463e-06
-6.88583e-09
1.16657e-08
1.35484e-06
-5.96398e-09
1.14425e-08
1.35506e-06
-4.88225e-09
1.13704e-08
1.35519e-06
-3.46041e-09
1.14727e-08
1.35509e-06
-1.47443e-09
1.17812e-08
1.35454e-06
1.43762e-09
1.22916e-08
5.77627e-09
1.27129e-08
1.1589e-06
-7.03374e-09
6.10248e-09
1.1657e-06
-1.98493e-08
1.61824e-08
1.16845e-06
-2.27957e-08
2.07055e-08
1.16661e-06
-2.23004e-08
2.21032e-08
1.16222e-06
-2.06185e-08
2.15043e-08
1.15655e-06
-1.78509e-08
1.97689e-08
1.15049e-06
-1.46932e-08
1.74239e-08
1.1446e-06
-1.21767e-08
1.53275e-08
1.13918e-06
-1.03192e-08
1.36272e-08
1.13438e-06
-8.933e-09
1.22659e-08
1.13019e-06
-7.87018e-09
1.11862e-08
1.12659e-06
-7.03445e-09
1.03363e-08
1.12358e-06
-6.35049e-09
9.65826e-09
1.12115e-06
-5.73776e-09
9.08032e-09
1.11934e-06
-5.09146e-09
8.55453e-09
1.11822e-06
-4.33204e-09
7.99928e-09
1.11784e-06
-3.26644e-09
7.28271e-09
1.11795e-06
-1.45904e-09
6.22487e-09
1.11822e-06
1.73577e-09
4.51579e-09
7.24996e-09
1.95651e-09
9.23617e-07
-7.40287e-09
7.03377e-09
9.25318e-07
-2.07002e-08
1.98494e-08
9.17185e-07
-1.8729e-08
2.27958e-08
9.04277e-07
-1.58466e-08
2.23006e-08
8.90538e-07
-1.37488e-08
2.06188e-08
8.77417e-07
-1.12904e-08
1.78515e-08
8.65453e-07
-8.71161e-09
1.46941e-08
8.54786e-07
-6.84331e-09
1.21782e-08
8.45364e-07
-5.60876e-09
1.03214e-08
8.37048e-07
-4.7761e-09
8.93632e-09
8.29662e-07
-4.17837e-09
7.87487e-09
8.23029e-07
-3.72016e-09
7.04096e-09
8.17071e-07
-3.37272e-09
6.36039e-09
8.1184e-07
-3.12125e-09
5.75401e-09
8.07426e-07
-2.87809e-09
5.11635e-09
8.03998e-07
-2.59974e-09
4.36667e-09
8.01766e-07
-2.10477e-09
3.30095e-09
8.00071e-07
-5.25266e-10
1.45829e-09
7.95853e-07
3.96756e-09
-1.8209e-09
2.22799e-08
-7.73607e-09
6.3138e-07
3.5875e-09
6.14564e-07
2.26454e-08
5.86446e-07
2.43751e-08
5.61728e-07
1.88532e-08
5.39623e-07
1.55662e-08
5.20646e-07
1.35046e-08
5.04706e-07
1.19423e-08
4.90964e-07
1.07837e-08
4.7876e-07
9.92049e-09
4.67707e-07
9.19386e-09
4.57578e-07
8.54186e-09
4.48243e-07
7.93387e-09
4.39616e-07
7.34459e-09
4.31635e-07
6.76086e-09
4.24351e-07
6.11959e-09
4.17916e-07
5.34376e-09
4.12922e-07
4.15956e-09
4.11301e-07
1.53596e-09
4.1775e-07
-3.82335e-09
-2.06099e-08
8.90375e-07
6.33236e-09
2.85247e-09
8.82486e-07
1.71258e-08
1.34078e-08
8.7036e-07
1.86359e-08
1.78657e-08
8.55113e-07
1.71471e-08
1.69523e-08
8.39983e-07
1.53605e-08
1.53349e-08
8.25535e-07
1.37908e-08
1.41607e-08
8.11769e-07
1.23444e-08
1.33633e-08
7.98778e-07
1.1125e-08
1.26474e-08
7.86711e-07
1.01439e-08
1.18398e-08
7.75579e-07
9.35655e-09
1.0963e-08
7.65244e-07
8.76358e-09
1.01034e-08
7.55558e-07
8.33587e-09
9.26827e-09
7.46399e-07
8.03119e-09
8.44586e-09
7.37723e-07
7.80029e-09
7.59527e-09
7.29528e-07
7.62005e-09
6.62432e-09
7.21974e-07
7.42324e-09
5.35637e-09
7.15368e-07
7.09105e-09
3.51444e-09
7.09659e-07
6.3455e-09
6.10725e-10
7.04565e-07
5.0806e-09
-4.38284e-09
6.73596e-10
-1.34021e-08
1.1589e-06
6.10247e-09
5.28113e-09
1.1657e-06
1.61824e-08
1.3998e-08
1.16845e-06
2.07055e-08
1.79765e-08
1.16661e-06
2.21032e-08
1.91766e-08
1.16222e-06
2.15042e-08
1.88726e-08
1.15655e-06
1.97688e-08
1.75395e-08
1.15049e-06
1.74237e-08
1.56744e-08
1.1446e-06
1.53273e-08
1.38667e-08
1.13918e-06
1.36269e-08
1.22505e-08
1.13438e-06
1.22656e-08
1.08287e-08
1.13019e-06
1.11857e-08
9.63379e-09
1.1266e-06
1.03356e-08
8.62866e-09
1.12358e-06
9.65712e-09
7.73961e-09
1.12115e-06
9.07958e-09
6.88566e-09
1.11935e-06
8.55395e-09
5.96411e-09
1.11822e-06
7.99785e-09
4.88151e-09
1.11784e-06
7.28062e-09
3.4589e-09
1.11795e-06
6.22258e-09
1.47241e-09
1.11822e-06
4.51364e-09
-1.4402e-09
1.95244e-09
-5.78065e-09
1.37712e-06
4.57703e-09
4.57702e-09
1.38565e-06
1.19162e-08
1.19162e-08
1.39417e-06
1.64452e-08
1.64452e-08
1.40126e-06
1.85575e-08
1.85576e-08
1.40642e-06
1.89257e-08
1.89259e-08
1.40953e-06
1.82156e-08
1.82158e-08
1.41096e-06
1.67054e-08
1.67057e-08
1.41156e-06
1.5026e-08
1.50264e-08
1.41187e-06
1.34724e-08
1.3473e-08
1.41216e-06
1.21199e-08
1.21207e-08
1.41261e-06
1.09571e-08
1.09584e-08
1.41335e-06
9.96314e-09
9.9652e-09
1.41445e-06
9.0996e-09
9.10319e-09
1.41595e-06
8.31567e-09
8.322e-09
1.41788e-06
7.5672e-09
7.57731e-09
1.42022e-06
6.78852e-09
6.80569e-09
1.42285e-06
5.9044e-09
5.93742e-09
1.4254e-06
4.85563e-09
4.92655e-09
1.427e-06
3.64443e-09
3.80403e-09
2.62744e-09
2.98461e-09
1.53312e-06
2.36575e-09
3.64918e-09
1.54218e-06
6.23808e-09
9.6335e-09
1.55328e-06
8.87206e-09
1.36912e-08
1.56445e-06
1.03451e-08
1.59361e-08
1.57507e-06
1.08966e-08
1.69112e-08
1.58471e-06
1.07501e-08
1.69453e-08
1.59301e-06
1.01366e-08
1.63774e-08
1.60009e-06
9.32076e-09
1.54487e-08
1.60625e-06
8.44358e-09
1.43496e-08
1.61177e-06
7.61381e-09
1.32602e-08
1.61688e-06
6.8742e-09
1.22783e-08
1.62176e-06
6.22251e-09
1.14315e-08
1.62653e-06
5.63188e-09
1.07224e-08
1.63129e-06
5.06614e-09
1.0138e-08
1.6361e-06
4.50067e-09
9.66309e-09
1.64101e-06
3.90219e-09
9.28379e-09
1.64606e-06
3.23407e-09
8.99403e-09
1.65128e-06
2.46424e-09
8.79401e-09
1.6568e-06
1.58759e-09
8.68297e-09
7.50345e-10
8.79479e-09
1.61424e-06
-5.91165e-14
3.09281e-09
1.62332e-06
-1.48759e-13
8.27396e-09
1.63533e-06
-2.40994e-13
1.19571e-08
1.64819e-06
-3.6208e-13
1.41147e-08
1.66117e-06
-5.25178e-13
1.52011e-08
1.67385e-06
-7.59496e-13
1.5585e-08
1.68572e-06
-1.07134e-12
1.54337e-08
1.69653e-06
-1.54595e-12
1.49654e-08
1.70626e-06
-2.19025e-12
1.42975e-08
1.71506e-06
-3.0401e-12
1.3534e-08
1.72312e-06
-4.21907e-12
1.27679e-08
1.73059e-06
-6.01753e-12
1.20721e-08
1.73765e-06
-8.94724e-12
1.15022e-08
1.74441e-06
-1.32357e-11
1.10924e-08
1.75088e-06
-1.685e-11
1.08663e-08
1.75713e-06
-1.84214e-11
1.0838e-08
1.76326e-06
-1.38375e-11
1.1029e-08
1.76944e-06
8.21601e-12
1.14529e-08
1.77581e-06
7.79703e-11
1.20528e-08
2.53241e-10
1.27116e-08
1.61424e-06
-2.36583e-09
3.09284e-09
1.62332e-06
-6.23827e-09
8.27401e-09
1.63533e-06
-8.87239e-09
1.19572e-08
1.64819e-06
-1.03456e-08
1.41148e-08
1.66117e-06
-1.08974e-08
1.52011e-08
1.67385e-06
-1.07512e-08
1.55849e-08
1.68572e-06
-1.01382e-08
1.54337e-08
1.69653e-06
-9.32312e-09
1.49654e-08
1.70626e-06
-8.44705e-09
1.42976e-08
1.71506e-06
-7.61877e-09
1.35342e-08
1.72312e-06
-6.88131e-09
1.27681e-08
1.73059e-06
-6.23306e-09
1.20721e-08
1.73765e-06
-5.64853e-09
1.15017e-08
1.74441e-06
-5.09273e-09
1.10915e-08
1.75091e-06
-4.53942e-09
1.08642e-08
1.75721e-06
-3.95693e-09
1.08323e-08
1.76347e-06
-3.30948e-09
1.10137e-08
1.76991e-06
-2.56266e-09
1.14126e-08
1.77685e-06
-1.70538e-09
1.19481e-08
-8.20759e-10
1.24385e-08
1.53312e-06
-4.57703e-09
3.64921e-09
1.54218e-06
-1.19162e-08
9.63356e-09
1.55327e-06
-1.64453e-08
1.36913e-08
1.56445e-06
-1.85576e-08
1.59361e-08
1.57507e-06
-1.89259e-08
1.69112e-08
1.58471e-06
-1.82158e-08
1.69453e-08
1.59301e-06
-1.67058e-08
1.63774e-08
1.60009e-06
-1.50265e-08
1.54487e-08
1.60625e-06
-1.3473e-08
1.43498e-08
1.61176e-06
-1.21209e-08
1.32606e-08
1.61687e-06
-1.09585e-08
1.22789e-08
1.62175e-06
-9.96542e-09
1.14322e-08
1.62652e-06
-9.10353e-09
1.0723e-08
1.63128e-06
-8.32231e-09
1.01379e-08
1.6361e-06
-7.57769e-09
9.66135e-09
1.64104e-06
-6.80636e-09
9.27724e-09
1.64617e-06
-5.93842e-09
8.97385e-09
1.65158e-06
-4.92796e-09
8.73455e-09
1.65745e-06
-3.8062e-09
8.51579e-09
-2.98933e-09
8.28792e-09
1.37712e-06
-6.10244e-09
4.57704e-09
1.38565e-06
-1.61824e-08
1.19162e-08
1.39417e-06
-2.07055e-08
1.64453e-08
1.40126e-06
-2.21031e-08
1.85576e-08
1.40642e-06
-2.15041e-08
1.89259e-08
1.40953e-06
-1.97685e-08
1.82158e-08
1.41096e-06
-1.74233e-08
1.67057e-08
1.41156e-06
-1.53266e-08
1.50264e-08
1.41187e-06
-1.36258e-08
1.34728e-08
1.41216e-06
-1.22638e-08
1.21205e-08
1.41261e-06
-1.11827e-08
1.09578e-08
1.41335e-06
-1.033e-08
9.96406e-09
1.41445e-06
-9.64636e-09
9.10076e-09
1.41595e-06
-9.05921e-09
8.31693e-09
1.41788e-06
-8.51814e-09
7.56855e-09
1.42022e-06
-7.93712e-09
6.79013e-09
1.42284e-06
-7.19078e-09
5.9062e-09
1.4254e-06
-6.11615e-09
4.8574e-09
1.427e-06
-4.53363e-09
3.6461e-09
-2.72103e-09
2.63034e-09
1.1589e-06
-6.33235e-09
5.28114e-09
1.1657e-06
-1.71258e-08
1.3998e-08
1.16845e-06
-1.86359e-08
1.79765e-08
1.16661e-06
-1.71471e-08
1.91766e-08
1.16222e-06
-1.53604e-08
1.88725e-08
1.15655e-06
-1.37907e-08
1.75393e-08
1.15049e-06
-1.23441e-08
1.56743e-08
1.1446e-06
-1.11247e-08
1.38666e-08
1.13919e-06
-1.01434e-08
1.22505e-08
1.13439e-06
-9.35554e-09
1.08286e-08
1.13021e-06
-8.76147e-09
9.63309e-09
1.12663e-06
-8.33142e-09
8.62621e-09
1.12363e-06
-8.02136e-09
7.73326e-09
1.12123e-06
-7.77759e-09
6.87216e-09
1.11945e-06
-7.57049e-09
5.94385e-09
1.11835e-06
-7.31681e-09
4.84909e-09
1.11791e-06
-6.86428e-09
3.41105e-09
1.11771e-06
-5.87073e-09
1.41355e-09
1.11686e-06
-4.08568e-09
-1.42057e-09
8.67449e-11
-5.19514e-09
8.90375e-07
2.85246e-09
8.82486e-07
1.34078e-08
8.7036e-07
1.78656e-08
8.55114e-07
1.69521e-08
8.39985e-07
1.53346e-08
8.25539e-07
1.41603e-08
8.11774e-07
1.33626e-08
7.98787e-07
1.26465e-08
7.86725e-07
1.18387e-08
7.75602e-07
1.09617e-08
7.65281e-07
1.01014e-08
7.55619e-07
9.26487e-09
7.46502e-07
8.44005e-09
7.37898e-07
7.58641e-09
7.29838e-07
6.60923e-09
7.22526e-07
5.33949e-09
7.16335e-07
3.48579e-09
7.1144e-07
5.60031e-10
7.08154e-07
-4.62328e-09
-1.28057e-08
1.07432e-06
5.5689e-09
1.06473e-09
1.06824e-06
1.39003e-08
5.58623e-09
1.06138e-06
1.62619e-08
8.46338e-09
1.05338e-06
1.59094e-08
9.03875e-09
1.0451e-06
1.50034e-08
8.61587e-09
1.03721e-06
1.39357e-08
8.1168e-09
1.02981e-06
1.29815e-08
7.7797e-09
1.02279e-06
1.21225e-08
7.54214e-09
1.01592e-06
1.1358e-08
7.34789e-09
1.00912e-06
1.07155e-08
7.04694e-09
1.00241e-06
1.02368e-08
6.58055e-09
9.95737e-07
9.9041e-09
6.03751e-09
9.89017e-07
9.69518e-09
5.47062e-09
9.82123e-07
9.61661e-09
4.87235e-09
9.74866e-07
9.66825e-09
4.21276e-09
9.67001e-07
9.87339e-09
3.34868e-09
9.58117e-07
1.02864e-08
2.11129e-09
9.47334e-07
1.10315e-08
3.62045e-10
9.33209e-07
1.22784e-08
-2.53584e-09
1.45024e-08
-6.40453e-09
1.32762e-06
4.93107e-09
2.71809e-09
1.33539e-06
1.30088e-08
7.12041e-09
1.34286e-06
1.72157e-08
9.55261e-09
1.34847e-06
1.88999e-08
1.05767e-08
1.35197e-06
1.95033e-08
1.08729e-08
1.35375e-06
1.91192e-08
1.05764e-08
1.35442e-06
1.8108e-08
9.88464e-09
1.35455e-06
1.6824e-08
9.0337e-09
1.3545e-06
1.54852e-08
8.17296e-09
1.35441e-06
1.42697e-08
7.35907e-09
1.35436e-06
1.331e-08
6.61501e-09
1.35438e-06
1.25774e-08
5.93718e-09
1.35447e-06
1.20373e-08
5.30193e-09
1.35463e-06
1.16647e-08
4.6759e-09
1.35484e-06
1.14414e-08
3.98051e-09
1.35506e-06
1.13683e-08
3.1703e-09
1.35519e-06
1.14697e-08
2.14644e-09
1.3551e-06
1.17773e-08
8.21292e-10
1.35455e-06
1.22866e-08
-9.00493e-10
1.2707e-08
-2.97043e-09
1.53312e-06
3.6492e-09
2.36581e-09
1.54218e-06
9.63351e-09
6.23825e-09
1.55328e-06
1.36912e-08
8.87237e-09
1.56445e-06
1.5936e-08
1.03456e-08
1.57507e-06
1.6911e-08
1.08974e-08
1.58471e-06
1.6945e-08
1.07512e-08
1.59301e-06
1.63771e-08
1.01382e-08
1.60009e-06
1.54483e-08
9.32305e-09
1.60625e-06
1.43492e-08
8.44694e-09
1.61176e-06
1.32599e-08
7.61861e-09
1.61687e-06
1.22781e-08
6.88108e-09
1.62175e-06
1.14311e-08
6.23271e-09
1.62652e-06
1.07218e-08
5.64806e-09
1.63128e-06
1.01365e-08
5.09226e-09
1.6361e-06
9.65983e-09
4.53884e-09
1.64104e-06
9.27528e-09
3.95596e-09
1.64617e-06
8.97149e-09
3.308e-09
1.65158e-06
8.73193e-09
2.56048e-09
1.65746e-06
8.51309e-09
1.70207e-09
8.28525e-09
8.15346e-10
1.68027e-06
1.89085e-09
1.89088e-09
1.68934e-06
5.09882e-09
5.09893e-09
1.7018e-06
7.46335e-09
7.46357e-09
1.71578e-06
8.94463e-09
8.94498e-09
1.73022e-06
9.69076e-09
9.6913e-09
1.74439e-06
9.85778e-09
9.85858e-09
1.75785e-06
9.64788e-09
9.64902e-09
1.77036e-06
9.19288e-09
9.19446e-09
1.78185e-06
8.60445e-09
8.6066e-09
1.79241e-06
7.97579e-09
7.97876e-09
1.80222e-06
7.37118e-09
7.37544e-09
1.81144e-06
6.82129e-09
6.82775e-09
1.8202e-06
6.33406e-09
6.34434e-09
1.82865e-06
5.90306e-09
5.91956e-09
1.83692e-06
5.51358e-09
5.5388e-09
1.84513e-06
5.15561e-09
5.19315e-09
1.8534e-06
4.82022e-09
4.87655e-09
1.86185e-06
4.49515e-09
4.5829e-09
1.87057e-06
4.16655e-09
4.30924e-09
3.8788e-09
4.11422e-09
1.7569e-06
-3.43612e-14
1.61311e-09
1.76589e-06
-8.9671e-14
4.38387e-09
1.77878e-06
-1.49287e-13
6.53142e-09
1.79389e-06
-2.29963e-13
7.95063e-09
1.81002e-06
-3.46977e-13
8.75524e-09
1.82638e-06
-5.13971e-13
9.08536e-09
1.84239e-06
-7.42495e-13
9.07217e-09
1.85772e-06
-1.02295e-12
8.83678e-09
1.87215e-06
-1.38112e-12
8.4644e-09
1.88564e-06
-1.87749e-12
8.02155e-09
1.89823e-06
-2.63316e-12
7.56035e-09
1.91e-06
-3.8518e-12
7.1195e-09
1.92112e-06
-5.8066e-12
6.72662e-09
1.93172e-06
-8.56623e-12
6.40221e-09
1.94195e-06
-1.1254e-11
6.16541e-09
1.95193e-06
-1.30406e-11
6.02386e-09
1.96181e-06
-1.29141e-11
5.97977e-09
1.97174e-06
-9.04062e-12
6.03079e-09
1.98179e-06
2.85836e-12
6.16315e-09
2.48883e-11
6.32345e-09
1.7569e-06
-1.8909e-09
1.61312e-09
1.76589e-06
-5.09895e-09
4.38387e-09
1.77878e-06
-7.46358e-09
6.5314e-09
1.79389e-06
-8.94499e-09
7.95055e-09
1.81002e-06
-9.69131e-09
8.75511e-09
1.82638e-06
-9.8586e-09
9.08515e-09
1.84239e-06
-9.64905e-09
9.07188e-09
1.85772e-06
-9.19451e-09
8.83639e-09
1.87215e-06
-8.60668e-09
8.46385e-09
1.88564e-06
-7.97888e-09
8.02073e-09
1.89823e-06
-7.37562e-09
7.55908e-09
1.91001e-06
-6.82802e-09
7.11742e-09
1.92112e-06
-6.34473e-09
6.72303e-09
1.93173e-06
-5.9201e-09
6.39583e-09
1.94197e-06
-5.53954e-09
6.15408e-09
1.95198e-06
-5.19415e-09
6.00398e-09
1.96191e-06
-4.87791e-09
5.94495e-09
1.97193e-06
-4.58481e-09
5.96956e-09
1.98214e-06
-4.31191e-09
6.05554e-09
-4.11773e-09
6.14886e-09
1.68027e-06
-3.64919e-09
1.89088e-09
1.68934e-06
-9.63352e-09
5.0989e-09
1.7018e-06
-1.36912e-08
7.46348e-09
1.71578e-06
-1.59361e-08
8.94482e-09
1.73022e-06
-1.69112e-08
9.69102e-09
1.74439e-06
-1.69453e-08
9.85812e-09
1.75785e-06
-1.63774e-08
9.64831e-09
1.77036e-06
-1.54487e-08
9.19342e-09
1.78185e-06
-1.43497e-08
8.60512e-09
1.79241e-06
-1.32603e-08
7.97663e-09
1.80222e-06
-1.22784e-08
7.3722e-09
1.81143e-06
-1.14316e-08
6.82253e-09
1.8202e-06
-1.07226e-08
6.33555e-09
1.82865e-06
-1.01384e-08
5.90481e-09
1.83692e-06
-9.66366e-09
5.51561e-09
1.84513e-06
-9.28439e-09
5.15796e-09
1.8534e-06
-8.99473e-09
4.82285e-09
1.86184e-06
-8.79494e-09
4.49797e-09
1.87056e-06
-8.6844e-09
4.16937e-09
-8.79748e-09
3.88108e-09
1.53312e-06
-4.93104e-09
2.36577e-09
1.54218e-06
-1.30088e-08
6.23814e-09
1.55328e-06
-1.72156e-08
8.87218e-09
1.56445e-06
-1.88997e-08
1.03453e-08
1.57507e-06
-1.95031e-08
1.08968e-08
1.58471e-06
-1.91191e-08
1.07504e-08
1.59301e-06
-1.81077e-08
1.0137e-08
1.60009e-06
-1.68235e-08
9.32127e-09
1.60625e-06
-1.54843e-08
8.44422e-09
1.61177e-06
-1.42679e-08
7.61461e-09
1.61688e-06
-1.33071e-08
6.87519e-09
1.62176e-06
-1.25724e-08
6.22371e-09
1.62653e-06
-1.20274e-08
5.63334e-09
1.63129e-06
-1.16456e-08
5.06794e-09
1.6361e-06
-1.14068e-08
4.50276e-09
1.64101e-06
-1.13079e-08
3.90445e-09
1.64605e-06
-1.13689e-08
3.23648e-09
1.65127e-06
-1.16273e-08
2.46662e-09
1.65678e-06
-1.21405e-08
1.5897e-09
-1.32927e-08
7.52093e-10
1.32763e-06
-5.56889e-09
2.71802e-09
1.33539e-06
-1.39002e-08
7.12021e-09
1.34286e-06
-1.62619e-08
9.55224e-09
1.34847e-06
-1.59092e-08
1.0576e-08
1.35198e-06
-1.50032e-08
1.0872e-08
1.35376e-06
-1.39355e-08
1.0575e-08
1.35442e-06
-1.29811e-08
9.88265e-09
1.35456e-06
-1.21219e-08
9.03067e-09
1.35451e-06
-1.13573e-08
8.16837e-09
1.35443e-06
-1.07145e-08
7.35242e-09
1.35439e-06
-1.02352e-08
6.60524e-09
1.35442e-06
-9.90103e-09
5.92195e-09
1.35454e-06
-9.68848e-09
5.27547e-09
1.35474e-06
-9.59996e-09
4.63017e-09
1.35499e-06
-9.62867e-09
3.90854e-09
1.35526e-06
-9.78413e-09
3.05813e-09
1.35542e-06
-1.00937e-08
1.97341e-09
1.35527e-06
-1.06231e-08
5.65376e-10
1.35436e-06
-1.13991e-08
-1.25115e-09
-1.35198e-08
-3.11331e-09
1.07432e-06
1.06466e-09
1.06824e-06
5.58596e-09
1.06138e-06
8.46288e-09
1.05338e-06
9.03792e-09
1.0451e-06
8.61457e-09
1.03721e-06
8.11482e-09
1.02981e-06
7.77672e-09
1.0228e-06
7.5376e-09
1.01594e-06
7.34112e-09
1.00915e-06
7.03643e-09
1.00245e-06
6.56373e-09
9.95809e-07
6.0098e-09
9.89136e-07
5.42454e-09
9.82324e-07
4.79792e-09
9.7522e-07
4.08418e-09
9.67642e-07
3.13401e-09
9.5929e-07
1.74342e-09
9.4951e-07
-2.82984e-10
9.37322e-07
-3.83438e-09
-7.78468e-09
1.16914e-06
4.90657e-09
4.34865e-14
1.16312e-06
1.16085e-08
1.74328e-13
1.15731e-06
1.42758e-08
3.23608e-13
1.15201e-06
1.43346e-08
5.48694e-13
1.14689e-06
1.3733e-08
8.77896e-13
1.14204e-06
1.29743e-08
1.37564e-12
1.1377e-06
1.21087e-08
2.09762e-12
1.13392e-06
1.13217e-08
3.22581e-12
1.13059e-06
1.06737e-08
4.96617e-12
1.1274e-06
1.02308e-08
7.76927e-12
1.124e-06
9.96328e-09
1.24332e-11
1.12022e-06
9.80504e-09
2.02268e-11
1.11587e-06
9.78057e-09
3.36314e-11
1.11075e-06
9.94002e-09
5.54933e-11
1.10454e-06
1.0322e-08
9.78117e-11
1.09668e-06
1.10379e-08
1.75729e-10
1.08616e-06
1.23024e-08
3.22149e-10
1.07151e-06
1.43935e-08
6.25874e-10
1.05027e-06
1.74506e-08
1.25216e-09
2.55112e-08
2.34152e-09
1.41518e-06
4.19288e-09
6.00448e-14
1.42279e-06
1.1116e-08
1.69148e-13
1.43152e-06
1.50988e-08
3.10745e-13
1.4398e-06
1.66304e-08
4.96795e-13
1.44712e-06
1.72786e-08
7.56591e-13
1.45316e-06
1.75162e-08
1.10666e-12
1.45799e-06
1.71637e-08
1.61732e-12
1.46188e-06
1.64549e-08
2.42055e-12
1.46515e-06
1.55806e-08
3.58924e-12
1.46801e-06
1.47221e-08
5.19139e-12
1.47063e-06
1.3946e-08
7.4192e-12
1.47305e-06
1.33133e-08
1.08403e-11
1.4752e-06
1.29211e-08
1.72286e-11
1.47701e-06
1.27772e-08
2.77957e-11
1.47843e-06
1.28361e-08
4.40261e-11
1.47938e-06
1.31936e-08
6.76657e-11
1.47975e-06
1.39705e-08
1.01224e-10
1.47954e-06
1.52843e-08
1.40256e-10
1.47885e-06
1.7096e-08
1.51976e-10
1.89387e-08
-8.59686e-11
1.61424e-06
3.09282e-09
4.09541e-14
1.62332e-06
8.27395e-09
1.20494e-13
1.63533e-06
1.19571e-08
2.20055e-13