/*--------------------------------*- C++ -*----------------------------------*\
| =========                 |                                                 |
| \\      /  F ield         | OpenFOAM: The Open Source CFD Toolbox           |
|  \\    /   O peration     | Version:  2212                                  |
|   \\  /    A nd           | Website:  www.openfoam.com                      |
|    \\/     M anipulation  |                                                 |
\*---------------------------------------------------------------------------*/
FoamFile
{
    version     2.0;
    format      ascii;
    arch        "LSB;label=32;scalar=64";
    class       volVectorField;
    location    "2.4";
    object      U;
}
// * * * * * * * * * * * * * * * * * * * * * * * * * * * * * * * * * * * * * //

dimensions      [0 1 -1 0 0 0 0];

internalField   nonuniform List<vector> 
6840
(
(0.0956456 -0.00836005 -0.00836005)
(0.090494 0.00152202 0.00152201)
(0.0790685 0.0024297 0.00242967)
(0.0713015 0.00148772 0.00148767)
(0.0661801 0.000830428 0.000830385)
(0.0623238 0.000563458 0.000563399)
(0.0592227 0.000425978 0.000425976)
(0.0566879 0.000323328 0.000323418)
(0.0545547 0.000252032 0.000252194)
(0.0527053 0.000201029 0.000201288)
(0.0510717 0.000163813 0.000164381)
(0.0496176 0.000136073 0.000137183)
(0.0483143 0.000113445 0.000114713)
(0.0471358 9.34978e-05 9.4233e-05)
(0.0460799 7.33586e-05 7.35595e-05)
(0.0451531 5.14733e-05 5.00653e-05)
(0.0443843 4.49471e-05 1.79325e-05)
(0.0439607 -3.06e-05 -5.91378e-05)
(0.0444143 -0.00015061 -0.000216582)
(0.0431408 -0.00232722 -0.00240271)
(0.0999088 0.001297 0.000712558)
(0.0969669 0.00365585 0.00274724)
(0.0935347 0.00264017 0.00211813)
(0.0895896 0.0018203 0.00162052)
(0.0858329 0.00152851 0.00139052)
(0.0825913 0.00135081 0.00116121)
(0.0798672 0.00117879 0.000897152)
(0.0775701 0.00103958 0.000692387)
(0.0755628 0.000941242 0.000560936)
(0.0737592 0.000863255 0.000480666)
(0.0721142 0.000789001 0.000434296)
(0.0706005 0.000712972 0.000407618)
(0.0692021 0.00063858 0.000392584)
(0.0679071 0.000571744 0.000387401)
(0.066718 0.000499616 0.000388935)
(0.0656449 0.000413884 0.000394092)
(0.0647377 0.00027799 0.000381712)
(0.0641853 2.56569e-06 0.000245751)
(0.0644444 -0.00053822 -5.02668e-05)
(0.0629531 -0.00216636 -0.00131659)
(0.099413 0.000345213 0.000270231)
(0.0988664 0.00201894 0.0018749)
(0.0979216 0.00257292 0.002189)
(0.0963663 0.00237949 0.00190836)
(0.0946342 0.00211348 0.00162664)
(0.0929734 0.00192575 0.00141872)
(0.091366 0.00179967 0.00127138)
(0.089857 0.00170244 0.00116033)
(0.0884597 0.00159993 0.00107043)
(0.0871664 0.00148634 0.000999271)
(0.0859705 0.00137068 0.000952239)
(0.0848585 0.00125824 0.000926439)
(0.0838135 0.00114596 0.000917445)
(0.082826 0.00102485 0.000920427)
(0.081895 0.000883688 0.000932158)
(0.0810311 0.000704997 0.000945201)
(0.0802671 0.000454177 0.000947658)
(0.0796362 -5.41594e-07 0.000905845)
(0.0791799 -0.000802406 0.000813374)
(0.0781784 -0.0025102 0.000475189)
(0.0995405 0.000245006 0.000321899)
(0.0992576 0.00105544 0.00154094)
(0.098849 0.00150196 0.0021145)
(0.0981249 0.00157877 0.00209173)
(0.097337 0.00151371 0.0018864)
(0.0965851 0.00144447 0.00166637)
(0.0958655 0.00140674 0.00149888)
(0.0951975 0.00137327 0.00137306)
(0.0945683 0.00132389 0.00128752)
(0.093922 0.00124648 0.00123445)
(0.0932915 0.00114689 0.00119993)
(0.0926739 0.00103469 0.00118235)
(0.0920588 0.000915996 0.00117939)
(0.0914359 0.000788035 0.00119254)
(0.0907938 0.000640062 0.00122143)
(0.090117 0.000447719 0.00126874)
(0.0893847 0.000166013 0.00134206)
(0.0885541 -0.000258968 0.00145898)
(0.0875443 -0.000943197 0.00163048)
(0.0863593 -0.00188886 0.00207461)
(0.0993801 3.37538e-05 5.89249e-05)
(0.0992677 0.000274273 0.00120001)
(0.0989804 0.000432135 0.0018885)
(0.0984745 0.000483052 0.00200656)
(0.0979952 0.000478136 0.00191487)
(0.09757 0.000464295 0.00173508)
(0.0971792 0.000450726 0.00154786)
(0.0968277 0.000438741 0.00138959)
(0.0965245 0.000430123 0.00127196)
(0.0962646 0.00041807 0.00120301)
(0.0959811 0.000393969 0.00117863)
(0.0956718 0.000358623 0.00118167)
(0.0953296 0.00031475 0.00120044)
(0.0949321 0.0002645 0.00123789)
(0.0944612 0.000208963 0.00130481)
(0.0938839 0.000130723 0.00141212)
(0.0931465 1.28971e-05 0.00158968)
(0.0921339 -0.000172536 0.00185915)
(0.0907843 -0.000508007 0.00216429)
(0.0894759 -0.000839683 0.00340642)
(0.0993801 -3.37655e-05 5.89405e-05)
(0.0992677 -0.000274332 0.00120003)
(0.0989803 -0.000432247 0.00188851)
(0.0984744 -0.000483229 0.00200657)
(0.0979951 -0.000478407 0.00191488)
(0.0975698 -0.000464703 0.00173508)
(0.097179 -0.000451326 0.00154787)
(0.0968273 -0.000439638 0.0013896)
(0.0965239 -0.000431482 0.00127194)
(0.0962637 -0.000420168 0.00120291)
(0.0959796 -0.000397253 0.00117842)
(0.0956694 -0.00036388 0.00118136)
(0.0953257 -0.000323375 0.00119999)
(0.0949257 -0.000278457 0.00123685)
(0.0944499 -0.000233225 0.00130339)
(0.0938623 -0.000173519 0.00141215)
(0.0931004 -9.00775e-05 0.00159457)
(0.0920432 2.8479e-05 0.0018829)
(0.0905602 0.000224841 0.00228306)
(0.0888886 0.000235705 0.00350378)
(0.0995405 -0.000245014 0.000321901)
(0.0992576 -0.00105547 0.00154094)
(0.0988489 -0.00150204 0.00211451)
(0.0981248 -0.00157889 0.00209175)
(0.0973368 -0.00151388 0.0018864)
(0.0965847 -0.00144471 0.00166638)
(0.0958649 -0.00140708 0.00149892)
(0.0951966 -0.00137377 0.00137313)
(0.0945669 -0.00132455 0.00128758)
(0.0939197 -0.00124745 0.00123442)
(0.093288 -0.00114842 0.00119976)
(0.0926683 -0.00103721 0.00118194)
(0.0920497 -0.000920086 0.00117882)
(0.0914209 -0.000794473 0.00119239)
(0.0907681 -0.000651045 0.00122232)
(0.0900711 -0.000464116 0.00127245)
(0.0893008 -0.000192012 0.00135255)
(0.0883969 0.000218465 0.00148807)
(0.0872765 0.000854207 0.00171755)
(0.0861748 0.00183986 0.00219926)
(0.099413 -0.000345214 0.000270232)
(0.0988664 -0.00201894 0.0018749)
(0.0979216 -0.00257292 0.002189)
(0.0963661 -0.0023795 0.00190835)
(0.0946339 -0.00211349 0.00162664)
(0.0929731 -0.00192575 0.00141871)
(0.0913654 -0.00179966 0.00127138)
(0.0898561 -0.00170241 0.00116032)
(0.0884583 -0.00159984 0.00107042)
(0.0871641 -0.00148617 0.000999277)
(0.0859669 -0.00137038 0.000952317)
(0.0848528 -0.00125772 0.000926576)
(0.0838041 -0.00114498 0.000917681)
(0.0828103 -0.0010229 0.000921315)
(0.0818678 -0.000879704 0.000934867)
(0.0809831 -0.000696416 0.000951435)
(0.0801825 -0.000439143 0.000963506)
(0.0794799 2.56007e-05 0.000944215)
(0.0788982 0.000824006 0.000900529)
(0.0779598 0.00273836 0.000437567)
(0.0999088 -0.001297 0.000712557)
(0.0969669 -0.00365583 0.00274724)
(0.0935347 -0.00264013 0.00211814)
(0.0895895 -0.00182023 0.00162052)
(0.0858327 -0.0015284 0.00139051)
(0.0825911 -0.00135062 0.00116121)
(0.0798668 -0.0011784 0.000897182)
(0.0775694 -0.00103887 0.000692402)
(0.0755618 -0.000940046 0.000560927)
(0.0737576 -0.000861314 0.000480596)
(0.0721117 -0.000785854 0.000433998)
(0.0705967 -0.000707885 0.000406823)
(0.0691959 -0.000630279 0.000391803)
(0.0678966 -0.000558219 0.000387922)
(0.0666991 -0.000476884 0.000390717)
(0.0656107 -0.000376162 0.000397602)
(0.0646731 -0.000225048 0.00038226)
(0.0640583 0.000104111 0.00023305)
(0.0642406 0.000777581 -0.000115317)
(0.0632232 0.00316268 -0.002214)
(0.0956456 0.00836005 -0.00836005)
(0.090494 -0.00152201 0.00152202)
(0.0790685 -0.00242967 0.0024297)
(0.0713015 -0.00148768 0.00148772)
(0.0661801 -0.000830389 0.000830424)
(0.0623238 -0.000563405 0.000563456)
(0.0592227 -0.000425982 0.000425976)
(0.0566878 -0.000323424 0.000323327)
(0.0545546 -0.000252199 0.000252032)
(0.0527052 -0.000201293 0.000201031)
(0.0510716 -0.000164386 0.000163816)
(0.0496175 -0.000137184 0.000136072)
(0.0483141 -0.000114729 0.000113468)
(0.0471356 -9.42126e-05 9.35214e-05)
(0.0460795 -7.34912e-05 7.3385e-05)
(0.0451527 -5.00119e-05 5.15397e-05)
(0.0443838 -1.79096e-05 4.50046e-05)
(0.0439599 5.9198e-05 -3.05133e-05)
(0.0444133 0.000216652 -0.000150528)
(0.0431395 0.00240294 -0.00232685)
(0.0999088 0.000712556 0.00129699)
(0.0969669 0.00274724 0.00365582)
(0.0935347 0.00211813 0.00264011)
(0.0895896 0.00162052 0.00182021)
(0.0858328 0.00139051 0.00152838)
(0.0825911 0.0011612 0.0013506)
(0.0798668 0.000897175 0.00117838)
(0.0775695 0.000692395 0.00103885)
(0.0755618 0.000560917 0.000940019)
(0.0737577 0.000480584 0.000861283)
(0.0721118 0.000433986 0.000785818)
(0.0705969 0.000406807 0.000707841)
(0.0691962 0.000391788 0.000630226)
(0.0678968 0.000387867 0.000558149)
(0.0666996 0.000390644 0.000476858)
(0.0656114 0.000397523 0.000376138)
(0.064674 0.000382162 0.000225012)
(0.0640595 0.000232929 -0.000104138)
(0.0642421 -0.000115494 -0.000777573)
(0.0632251 -0.00221392 -0.00316227)
(0.100226 0.000720804 0.000720799)
(0.0999601 0.00198268 0.00198267)
(0.0997825 0.00245176 0.00245174)
(0.0987886 0.00241948 0.00241944)
(0.0972763 0.00220065 0.00220059)
(0.0957759 0.0018115 0.00181138)
(0.0943949 0.00138246 0.00138229)
(0.0931675 0.00106996 0.00106968)
(0.0920829 0.000853581 0.000853136)
(0.091125 0.000701069 0.000700388)
(0.0902794 0.000588378 0.000587399)
(0.0895245 0.000502793 0.000501239)
(0.0888407 0.00043844 0.000435482)
(0.0882321 0.000388785 0.000383019)
(0.087709 0.000337408 0.000327496)
(0.0872808 0.000279926 0.000262371)
(0.0869678 0.000198264 0.000171984)
(0.08676 2.23958e-05 -1.69715e-05)
(0.086464 -0.000434685 -0.000493913)
(0.0865453 -0.00174185 -0.00179857)
(0.10014 0.000774988 0.000869247)
(0.100454 0.00196229 0.00196355)
(0.100911 0.0024273 0.00233449)
(0.100979 0.00252621 0.00244127)
(0.100694 0.00242571 0.00233686)
(0.100225 0.00219656 0.00211272)
(0.0997104 0.0019151 0.00182369)
(0.0991862 0.00166313 0.0015763)
(0.0986932 0.0014583 0.00139124)
(0.0982486 0.00128868 0.00125262)
(0.0978602 0.00114673 0.0011515)
(0.0975251 0.00102576 0.00108071)
(0.097241 0.000917911 0.00103142)
(0.0970073 0.000812063 0.0009937)
(0.0968261 0.000698486 0.000965477)
(0.0967009 0.000561225 0.000937868)
(0.0966353 0.000373939 0.000895613)
(0.0966152 0.000102328 0.000821)
(0.0965782 -0.000300383 0.000689557)
(0.0966884 -0.000888579 0.00045968)
(0.100093 0.00044588 0.000763204)
(0.100504 0.00119433 0.00174903)
(0.101105 0.00158651 0.00212959)
(0.101635 0.00173995 0.00223483)
(0.101979 0.0017815 0.00228751)
(0.102172 0.00172778 0.00223674)
(0.102253 0.0016061 0.00211728)
(0.102277 0.00145702 0.00196687)
(0.102279 0.00129967 0.0018059)
(0.102271 0.00114783 0.00165907)
(0.102264 0.00101359 0.00155478)
(0.102263 0.000895609 0.00148543)
(0.102268 0.000783838 0.00144324)
(0.102281 0.00067076 0.00142514)
(0.102298 0.000541912 0.00143036)
(0.102319 0.000388248 0.00146093)
(0.102337 0.000189056 0.00152373)
(0.10234 -7.84816e-05 0.00162827)
(0.102311 -0.000430044 0.00178784)
(0.102438 -0.000791447 0.00206232)
(0.100087 0.000144359 0.000707014)
(0.100477 0.000390409 0.00161778)
(0.101066 0.00054096 0.00203464)
(0.101694 0.000609914 0.00211771)
(0.102268 0.000635625 0.0021506)
(0.102741 0.000626186 0.00218071)
(0.103123 0.000593787 0.00213563)
(0.103426 0.000547667 0.00204696)
(0.103676 0.00050128 0.00193984)
(0.103892 0.000456799 0.00183791)
(0.104083 0.000410015 0.00174552)
(0.104263 0.000361629 0.00166977)
(0.104427 0.000313698 0.00162969)
(0.104566 0.000263401 0.00162827)
(0.104682 0.0002063 0.00165571)
(0.104771 0.000139072 0.00172962)
(0.104818 5.26781e-05 0.00186893)
(0.104813 -6.08763e-05 0.00209635)
(0.104758 -0.000205464 0.00241374)
(0.105013 -0.000339157 0.00280271)
(0.100087 -0.000144377 0.000707017)
(0.100477 -0.000390461 0.00161779)
(0.101065 -0.000541047 0.00203466)
(0.101694 -0.000610049 0.00211773)
(0.102268 -0.000635828 0.00215062)
(0.102741 -0.000626479 0.00218073)
(0.103123 -0.000594213 0.00213564)
(0.103425 -0.000548295 0.00204696)
(0.103676 -0.000502196 0.00193987)
(0.103891 -0.000458106 0.00183794)
(0.104082 -0.000411865 0.00174553)
(0.104262 -0.000364325 0.00166977)
(0.104425 -0.000317949 0.00162979)
(0.104563 -0.000270154 0.0016289)
(0.104678 -0.000217002 0.00165781)
(0.104766 -0.000155618 0.00173473)
(0.104814 -7.76539e-05 0.00188077)
(0.104815 2.574e-05 0.00212398)
(0.104788 0.00016279 0.00246991)
(0.105075 0.000333094 0.00283448)
(0.100093 -0.000445888 0.000763207)
(0.100504 -0.00119435 0.00174904)
(0.101105 -0.00158655 0.0021296)
(0.101635 -0.00174002 0.00223486)
(0.101979 -0.0017816 0.00228754)
(0.102171 -0.00172793 0.00223675)
(0.102252 -0.00160629 0.0021173)
(0.102276 -0.00145729 0.00196691)
(0.102278 -0.00130007 0.00180598)
(0.10227 -0.00114839 0.00165924)
(0.102262 -0.00101441 0.00155506)
(0.10226 -0.000896936 0.00148596)
(0.102264 -0.000786289 0.00144435)
(0.102274 -0.000675179 0.00142751)
(0.102288 -0.00054827 0.00143536)
(0.102305 -0.000397533 0.00147123)
(0.102319 -0.000202484 0.00154389)
(0.102319 6.08721e-05 0.00166483)
(0.102311 0.00041404 0.00183969)
(0.102527 0.000835796 0.00200484)
(0.10014 -0.000774986 0.000869252)
(0.100454 -0.00196229 0.00196356)
(0.100911 -0.0024273 0.00233449)
(0.100978 -0.0025262 0.00244128)
(0.100694 -0.00242569 0.00233688)
(0.100225 -0.00219653 0.00211277)
(0.0997101 -0.00191504 0.00182378)
(0.0991858 -0.001663 0.00157643)
(0.0986926 -0.00145808 0.00139141)
(0.0982476 -0.00128838 0.00125291)
(0.0978587 -0.00114632 0.00115198)
(0.0975228 -0.00102531 0.00108162)
(0.0972374 -0.000917461 0.00103332)
(0.0970017 -0.000811537 0.000997573)
(0.0968178 -0.000697489 0.000973056)
(0.0966898 -0.000559992 0.000952695)
(0.0966244 -0.000372277 0.00092189)
(0.0966171 -0.000102198 0.000865104)
(0.0966368 0.000299296 0.000747169)
(0.0967947 0.000870423 0.000466748)
(0.100226 -0.000720799 0.000720804)
(0.0999601 -0.00198267 0.00198268)
(0.0997825 -0.00245174 0.00245177)
(0.0987886 -0.00241944 0.00241948)
(0.0972763 -0.00220059 0.00220066)
(0.0957759 -0.00181138 0.0018115)
(0.0943949 -0.00138228 0.00138247)
(0.0931674 -0.00106968 0.00106998)
(0.0920829 -0.000853134 0.000853598)
(0.0911249 -0.000700384 0.000701089)
(0.0902792 -0.000587392 0.000588401)
(0.0895243 -0.00050123 0.000502823)
(0.0888404 -0.000435552 0.000438561)
(0.0882318 -0.000383001 0.000388851)
(0.0877087 -0.00032733 0.000337362)
(0.0872804 -0.000262306 0.000279995)
(0.0869673 -0.000171946 0.000198368)
(0.0867594 1.70171e-05 2.24986e-05)
(0.0864633 0.00049402 -0.000434664)
(0.0865444 0.00179849 -0.00174173)
(0.0999088 -0.000712558 0.001297)
(0.0969669 -0.00274724 0.00365584)
(0.0935347 -0.00211813 0.00264016)
(0.0895896 -0.00162052 0.0018203)
(0.0858328 -0.00139052 0.00152851)
(0.0825913 -0.0011612 0.00135081)
(0.0798671 -0.000897144 0.00117879)
(0.07757 -0.000692377 0.00103958)
(0.0755627 -0.000560925 0.000941249)
(0.0737591 -0.000480654 0.000863268)
(0.0721141 -0.000434278 0.000789017)
(0.0706004 -0.000407598 0.000712994)
(0.0692018 -0.000392551 0.000638605)
(0.0679069 -0.000387406 0.000571867)
(0.0667174 -0.000388962 0.000499809)
(0.0656443 -0.000394091 0.000414094)
(0.0647368 -0.000381679 0.000278221)
(0.0641842 -0.000245687 2.83349e-06)
(0.0644432 5.03253e-05 -0.000537912)
(0.0629507 0.00131644 -0.00216558)
(0.099413 0.000270233 0.00034521)
(0.0988664 0.0018749 0.00201893)
(0.0979216 0.002189 0.0025729)
(0.0963661 0.00190835 0.00237949)
(0.094634 0.00162664 0.00211348)
(0.0929731 0.0014187 0.00192573)
(0.0913655 0.00127137 0.00179964)
(0.0898562 0.00116032 0.00170239)
(0.0884584 0.00107042 0.00159982)
(0.0871642 0.000999267 0.00148614)
(0.085967 0.000952304 0.00137034)
(0.0848529 0.000926552 0.00125767)
(0.0838043 0.000917653 0.00114494)
(0.0828105 0.000921247 0.00102285)
(0.0818683 0.000934734 0.000879605)
(0.0809837 0.000951257 0.000696292)
(0.0801834 0.000963267 0.000438987)
(0.079481 0.000943847 -2.5785e-05)
(0.0788999 0.000899934 -0.000824201)
(0.0779623 0.000436849 -0.0027383)
(0.10014 0.000869252 0.000774984)
(0.100454 0.00196356 0.00196229)
(0.100911 0.00233449 0.00242729)
(0.100978 0.00244127 0.0025262)
(0.100694 0.00233687 0.00242569)
(0.100225 0.00211277 0.00219653)
(0.0997102 0.00182377 0.00191503)
(0.0991858 0.00157641 0.00166299)
(0.0986926 0.00139139 0.00145807)
(0.0982477 0.00125288 0.00128836)
(0.0978588 0.00115193 0.0011463)
(0.0975229 0.00108154 0.00102528)
(0.0972376 0.00103318 0.000917383)
(0.097002 0.000997532 0.000811552)
(0.0968181 0.000973045 0.000697553)
(0.0966901 0.000952535 0.000559945)
(0.0966247 0.000921614 0.000372142)
(0.0966175 0.000864792 0.00010204)
(0.0966372 0.000746876 -0.000299435)
(0.096795 0.000466127 -0.000870802)
(0.10006 0.000641375 0.00064137)
(0.100502 0.00164497 0.00164497)
(0.101149 0.00221226 0.00221226)
(0.101738 0.00243974 0.00243974)
(0.102205 0.00244173 0.00244173)
(0.102502 0.00231332 0.00231331)
(0.102647 0.00209217 0.00209216)
(0.102717 0.00186847 0.00186842)
(0.102745 0.00167023 0.00167016)
(0.102761 0.00150353 0.00150342)
(0.102785 0.00136466 0.00136448)
(0.102827 0.00124887 0.00124859)
(0.102893 0.00115117 0.00115069)
(0.102987 0.00106523 0.00106442)
(0.103111 0.000983955 0.000982702)
(0.103266 0.000898537 0.000896987)
(0.103448 0.000797578 0.000796887)
(0.103642 0.000666296 0.000670952)
(0.10383 0.000490766 0.000514281)
(0.104149 0.000325434 0.000412537)
(0.100046 0.000395671 0.000540235)
(0.10048 0.00104473 0.00138407)
(0.101154 0.00147512 0.00192294)
(0.101913 0.00170486 0.00219255)
(0.102632 0.00177948 0.00229412)
(0.103302 0.00174394 0.00227843)
(0.103894 0.00163284 0.002186)
(0.104391 0.00148942 0.00205336)
(0.104819 0.00134165 0.00190646)
(0.105198 0.00120444 0.0017683)
(0.105543 0.00108183 0.00164837)
(0.105867 0.000973565 0.00154839)
(0.10618 0.000875296 0.00146874)
(0.106491 0.000781893 0.00140744)
(0.106802 0.00068972 0.00136277)
(0.107119 0.000591456 0.00133396)
(0.107444 0.000479749 0.00132214)
(0.107778 0.000349143 0.0013298)
(0.108135 0.000200813 0.00135847)
(0.108602 5.45398e-05 0.00143157)
(0.100039 0.000131305 0.000478767)
(0.100448 0.000350419 0.00123478)
(0.101114 0.000504944 0.0017465)
(0.101909 0.00059697 0.0020269)
(0.102728 0.000638265 0.00215229)
(0.103529 0.000637762 0.00218685)
(0.104297 0.000603763 0.00215406)
(0.105006 0.000558056 0.00208082)
(0.105641 0.000508289 0.00198341)
(0.106214 0.000459195 0.00187853)
(0.106735 0.000413288 0.00177874)
(0.107214 0.000370975 0.00169307)
(0.107662 0.000331213 0.00162873)
(0.108091 0.000291269 0.00158864)
(0.108502 0.000249992 0.00157374)
(0.108896 0.00020671 0.00158761)
(0.109277 0.00015815 0.00163853)
(0.109655 0.000102234 0.00173299)
(0.110055 4.25207e-05 0.001863)
(0.110581 -3.44206e-06 0.0020146)
(0.100039 -0.000131318 0.00047877)
(0.100448 -0.000350452 0.00123479)
(0.101114 -0.000505 0.00174651)
(0.101909 -0.000597057 0.00202691)
(0.102728 -0.000638392 0.0021523)
(0.103529 -0.000637944 0.00218686)
(0.104297 -0.000604015 0.00215407)
(0.105006 -0.000558417 0.00208084)
(0.105641 -0.000508797 0.00198345)
(0.106213 -0.000459895 0.00187859)
(0.106734 -0.000414251 0.00177881)
(0.107214 -0.00037234 0.00169313)
(0.107662 -0.000333256 0.00162878)
(0.108091 -0.000294359 0.00158884)
(0.108503 -0.000254068 0.00157428)
(0.108899 -0.000211528 0.00158863)
(0.109285 -0.000162758 0.00164003)
(0.109674 -0.00010359 0.00173419)
(0.110097 -3.26739e-05 0.00186097)
(0.110642 4.31389e-05 0.00199403)
(0.100046 -0.000395675 0.00054024)
(0.10048 -0.00104474 0.00138408)
(0.101154 -0.00147515 0.00192295)
(0.101913 -0.00170489 0.00219256)
(0.102632 -0.00177954 0.00229414)
(0.103302 -0.00174403 0.00227844)
(0.103894 -0.00163298 0.00218602)
(0.104391 -0.00148961 0.00205339)
(0.104819 -0.00134194 0.00190653)
(0.105198 -0.00120486 0.00176844)
(0.105542 -0.00108245 0.0016486)
(0.105866 -0.00097453 0.00154875)
(0.106179 -0.000876908 0.00146932)
(0.10649 -0.000784567 0.00140834)
(0.106802 -0.000693795 0.00136422)
(0.10712 -0.000597661 0.00133602)
(0.107447 -0.0004894 0.00132432)
(0.10779 -0.000364565 0.00132942)
(0.108165 -0.000225836 0.00134695)
(0.108648 -8.89696e-05 0.0013681)
(0.10006 -0.000641371 0.000641375)
(0.100502 -0.00164497 0.00164498)
(0.101149 -0.00221226 0.00221227)
(0.101738 -0.00243974 0.00243975)
(0.102205 -0.00244173 0.00244175)
(0.102502 -0.00231331 0.00231334)
(0.102647 -0.00209215 0.0020922)
(0.102717 -0.00186842 0.00186851)
(0.102744 -0.00167016 0.00167028)
(0.102761 -0.00150342 0.0015036)
(0.102785 -0.00136449 0.00136474)
(0.102827 -0.0012486 0.00124897)
(0.102893 -0.0011507 0.00115131)
(0.102986 -0.00106443 0.00106537)
(0.103111 -0.000982713 0.000984097)
(0.103266 -0.000897021 0.000898716)
(0.103448 -0.000796948 0.000797787)
(0.103642 -0.000671049 0.000666516)
(0.103829 -0.000514439 0.000490985)
(0.104149 -0.000412958 0.000325829)
(0.10014 -0.000869248 0.000774988)
(0.100454 -0.00196355 0.0019623)
(0.100911 -0.00233449 0.00242731)
(0.100979 -0.00244126 0.00252623)
(0.100694 -0.00233685 0.00242573)
(0.100225 -0.00211271 0.00219659)
(0.0997104 -0.00182369 0.00191513)
(0.0991862 -0.00157629 0.00166317)
(0.0986932 -0.00139123 0.00145834)
(0.0982485 -0.00125261 0.00128874)
(0.0978601 -0.00115149 0.0011468)
(0.0975249 -0.00108068 0.00102584)
(0.0972408 -0.00103137 0.000918001)
(0.0970071 -0.000993691 0.000812232)
(0.0968258 -0.000965522 0.000698726)
(0.0967006 -0.000937861 0.00056146)
(0.0966349 -0.000895548 0.000374167)
(0.0966147 -0.000820884 0.000102561)
(0.0965776 -0.000689388 -0.000300131)
(0.0966875 -0.000459959 -0.000887915)
(0.099413 -0.000270232 0.000345212)
(0.0988664 -0.0018749 0.00201894)
(0.0979216 -0.002189 0.00257292)
(0.0963662 -0.00190835 0.0023795)
(0.0946341 -0.00162664 0.00211349)
(0.0929734 -0.00141871 0.00192577)
(0.091366 -0.00127138 0.00179969)
(0.089857 -0.00116032 0.00170247)
(0.0884597 -0.00107042 0.00159997)
(0.0871663 -0.00099926 0.0014864)
(0.0859704 -0.000952225 0.00137076)
(0.0848583 -0.000926415 0.00125833)
(0.0838132 -0.000917396 0.00114606)
(0.0828256 -0.000920398 0.00102502)
(0.0818947 -0.00093218 0.000883982)
(0.0810306 -0.000945216 0.000705357)
(0.0802665 -0.000947622 0.000454631)
(0.0796354 -0.000905745 2.79035e-08)
(0.0791792 -0.000813174 -0.000801662)
(0.0781773 -0.000474877 -0.00250924)
(0.0995405 0.000321901 0.000245011)
(0.0992576 0.00154095 0.00105546)
(0.0988489 0.00211451 0.00150202)
(0.0981248 0.00209174 0.00157888)
(0.0973368 0.0018864 0.00151386)
(0.0965847 0.00166638 0.00144469)
(0.0958649 0.00149891 0.00140706)
(0.0951967 0.00137312 0.00137374)
(0.0945669 0.00128757 0.00132452)
(0.0939198 0.00123441 0.00124741)
(0.0932881 0.00119974 0.00114837)
(0.0926685 0.00118191 0.00103716)
(0.09205 0.00117878 0.000920024)
(0.0914211 0.0011923 0.000794369)
(0.0907685 0.00122216 0.000650892)
(0.0900717 0.00127222 0.000463933)
(0.0893016 0.00135222 0.000191824)
(0.088398 0.00148755 -0.000218666)
(0.0872781 0.00171674 -0.000854479)
(0.0861771 0.00219835 -0.00183992)
(0.100093 0.000763207 0.000445885)
(0.100504 0.00174903 0.00119435)
(0.101105 0.00212959 0.00158655)
(0.101635 0.00223485 0.00174002)
(0.101979 0.00228753 0.0017816)
(0.102172 0.00223674 0.00172792)
(0.102253 0.00211728 0.00160628)
(0.102276 0.00196689 0.00145728)
(0.102278 0.00180595 0.00130005)
(0.10227 0.0016592 0.00114836)
(0.102262 0.001555 0.00101437)
(0.10226 0.00148587 0.000896881)
(0.102264 0.00144422 0.000786207)
(0.102274 0.00142741 0.00067514)
(0.102288 0.00143524 0.000548245)
(0.102305 0.00147097 0.000397431)
(0.102319 0.00154348 0.000202298)
(0.10232 0.00166423 -6.11577e-05)
(0.102311 0.00183885 -0.000414479)
(0.102528 0.00200384 -0.000836455)
(0.100046 0.000540239 0.000395674)
(0.10048 0.00138408 0.00104474)
(0.101154 0.00192294 0.00147515)
(0.101913 0.00219255 0.00170489)
(0.102632 0.00229412 0.00177954)
(0.103302 0.00227842 0.00174403)
(0.103894 0.00218599 0.00163297)
(0.104391 0.00205335 0.0014896)
(0.104819 0.00190648 0.00134193)
(0.105198 0.00176837 0.00120485)
(0.105542 0.00164851 0.00108243)
(0.105866 0.00154863 0.0009745)
(0.10618 0.00146917 0.000876866)
(0.10649 0.00140819 0.000784531)
(0.106802 0.00136405 0.000693749)
(0.10712 0.00133579 0.000597568)
(0.107447 0.00132403 0.000489249)
(0.10779 0.00132907 0.000364331)
(0.108165 0.00134656 0.000225455)
(0.108648 0.00136763 8.82572e-05)
(0.100036 0.000323119 0.000323119)
(0.100429 0.000868601 0.000868609)
(0.10108 0.00126226 0.00126228)
(0.101891 0.00150416 0.00150419)
(0.102756 0.00162123 0.00162128)
(0.103616 0.00164227 0.00164234)
(0.104446 0.00160402 0.00160412)
(0.105224 0.00152546 0.0015256)
(0.105939 0.00142556 0.00142575)
(0.106595 0.00132015 0.00132041)
(0.1072 0.0012196 0.00121998)
(0.107765 0.00112874 0.00112933)
(0.108299 0.00104879 0.00104975)
(0.108811 0.000979104 0.000980692)
(0.109308 0.000918177 0.000920812)
(0.109798 0.000864041 0.000868476)
(0.110287 0.000814615 0.000822278)
(0.110783 0.000767306 0.000781089)
(0.111305 0.000719581 0.000745156)
(0.111913 0.000677688 0.000725749)
(0.100031 0.00010706 0.000281371)
(0.100395 0.000292999 0.000768603)
(0.101024 0.000434 0.00113303)
(0.101843 0.000526104 0.00136916)
(0.102751 0.000576165 0.00150141)
(0.103688 0.000591474 0.00155425)
(0.104617 0.000581947 0.00154937)
(0.105515 0.000557137 0.00150864)
(0.106366 0.00052324 0.00144535)
(0.107163 0.000485741 0.00136982)
(0.107905 0.00044883 0.0012909)
(0.108598 0.000414716 0.00121549)
(0.109249 0.000384028 0.0011487)
(0.109866 0.000356076 0.00109463)
(0.110458 0.000328918 0.00105736)
(0.111033 0.000302291 0.00103823)
(0.111596 0.000276218 0.00103699)
(0.112158 0.000250736 0.0010522)
(0.11274 0.000225695 0.00108065)
(0.113398 0.00020535 0.00111592)
(0.100031 -0.000107068 0.000281372)
(0.100395 -0.00029302 0.000768604)
(0.101024 -0.000434035 0.00113303)
(0.101843 -0.000526157 0.00136916)
(0.102751 -0.000576244 0.0015014)
(0.103688 -0.000591592 0.00155423)
(0.104617 -0.000582117 0.00154934)
(0.105515 -0.00055737 0.00150861)
(0.106366 -0.000523553 0.0014453)
(0.107163 -0.000486163 0.00136976)
(0.107905 -0.00044942 0.0012908)
(0.108598 -0.000415582 0.00121532)
(0.109249 -0.000385354 0.0011484)
(0.109866 -0.000358087 0.00109405)
(0.110459 -0.000331665 0.00105624)
(0.111034 -0.000305692 0.00103604)
(0.1116 -0.000280073 0.00103275)
(0.112166 -0.000254665 0.00104402)
(0.112754 -0.000228827 0.00106468)
(0.113415 -0.000206756 0.00108578)
(0.100036 -0.000323121 0.000323121)
(0.100429 -0.000868611 0.000868609)
(0.10108 -0.00126228 0.00126228)
(0.101891 -0.00150419 0.00150418)
(0.102756 -0.00162128 0.00162125)
(0.103616 -0.00164234 0.00164231)
(0.104446 -0.00160412 0.00160407)
(0.105224 -0.0015256 0.00152552)
(0.105939 -0.00142576 0.00142563)
(0.106595 -0.00132042 0.00132024)
(0.1072 -0.00122 0.00121971)
(0.107765 -0.00112935 0.00112888)
(0.108299 -0.00104978 0.00104896)
(0.108811 -0.000980741 0.000979289)
(0.109308 -0.000920883 0.000918385)
(0.109797 -0.000868573 0.000864283)
(0.110286 -0.000822412 0.000814885)
(0.110782 -0.000781281 0.000767584)
(0.111305 -0.000745437 0.000719839)
(0.111913 -0.000726125 0.000677862)
(0.100046 -0.000540236 0.000395673)
(0.10048 -0.00138408 0.00104473)
(0.101154 -0.00192294 0.00147513)
(0.101913 -0.00219255 0.00170488)
(0.102632 -0.00229412 0.0017795)
(0.103302 -0.00227843 0.00174398)
(0.103894 -0.002186 0.00163289)
(0.104391 -0.00205336 0.00148947)
(0.104819 -0.00190646 0.00134172)
(0.105198 -0.00176829 0.00120453)
(0.105542 -0.00164837 0.00108194)
(0.105867 -0.00154838 0.000973697)
(0.10618 -0.00146873 0.000875458)
(0.10649 -0.00140746 0.000782084)
(0.106802 -0.0013628 0.000689932)
(0.107119 -0.00133398 0.000591682)
(0.107443 -0.00132215 0.000479986)
(0.107777 -0.00132982 0.000349366)
(0.108134 -0.00135854 0.000201007)
(0.108601 -0.00143186 5.47624e-05)
(0.100093 -0.000763205 0.000445881)
(0.100504 -0.00174903 0.00119434)
(0.101105 -0.00212958 0.00158652)
(0.101635 -0.00223483 0.00173997)
(0.101979 -0.00228751 0.00178152)
(0.102172 -0.00223673 0.00172781)
(0.102253 -0.00211727 0.00160614)
(0.102277 -0.00196686 0.00145708)
(0.102279 -0.00180589 0.00129974)
(0.102271 -0.00165906 0.00114792)
(0.102264 -0.00155476 0.0010137)
(0.102263 -0.0014854 0.000895743)
(0.102268 -0.00144318 0.000783993)
(0.10228 -0.00142514 0.000670982)
(0.102298 -0.00143038 0.000542202)
(0.102319 -0.00146085 0.000388556)
(0.102336 -0.00152355 0.00018939)
(0.102339 -0.00162796 -7.81398e-05)
(0.10231 -0.00178736 -0.000429735)
(0.102437 -0.00206141 -0.000791261)
(0.0995405 -0.0003219 0.000245006)
(0.0992576 -0.00154094 0.00105544)
(0.098849 -0.0021145 0.00150197)
(0.0981249 -0.00209173 0.00157879)
(0.097337 -0.00188639 0.00151373)
(0.0965851 -0.00166637 0.0014445)
(0.0958654 -0.00149887 0.00140678)
(0.0951975 -0.00137306 0.00137333)
(0.0945683 -0.00128752 0.00132397)
(0.0939219 -0.00123444 0.00124658)
(0.0932914 -0.00119993 0.00114702)
(0.0926738 -0.00118234 0.00103485)
(0.0920586 -0.00117937 0.000916192)
(0.0914356 -0.0011925 0.000788286)
(0.0907936 -0.00122137 0.000640384)
(0.0901167 -0.00126864 0.00044815)
(0.0893844 -0.00134188 0.000166562)
(0.0885539 -0.00145864 -0.000258236)
(0.0875442 -0.0016299 -0.000942294)
(0.0863597 -0.00207354 -0.00188774)
(0.0993801 5.89401e-05 3.37633e-05)
(0.0992677 0.00120002 0.000274324)
(0.0989803 0.00188851 0.000432232)
(0.0984744 0.00200656 0.000483212)
(0.0979951 0.00191487 0.000478388)
(0.0975698 0.00173507 0.00046468)
(0.097179 0.00154786 0.000451299)
(0.0968273 0.00138959 0.000439605)
(0.096524 0.00127192 0.000431444)
(0.0962638 0.0012029 0.000420125)
(0.0959797 0.0011784 0.000397204)
(0.0956696 0.00118133 0.000363824)
(0.0953259 0.00119994 0.000323308)
(0.094926 0.00123675 0.000278356)
(0.0944502 0.00130322 0.000233077)
(0.0938628 0.00141189 0.000173346)
(0.0931011 0.00159416 8.99003e-05)
(0.0920442 0.00188223 -2.86536e-05)
(0.0905617 0.00228175 -0.000224997)
(0.0888899 0.00350393 -0.000235848)
(0.100087 0.000707016 0.000144374)
(0.100477 0.00161779 0.000390455)
(0.101065 0.00203465 0.000541042)
(0.101694 0.00211772 0.000610044)
(0.102268 0.00215061 0.00063582)
(0.102741 0.00218071 0.000626469)
(0.103123 0.00213562 0.0005942)
(0.103425 0.00204693 0.000548278)
(0.103676 0.00193983 0.000502172)
(0.103891 0.00183789 0.000458074)
(0.104082 0.00174546 0.000411822)
(0.104262 0.00166967 0.000364268)
(0.104425 0.00162964 0.000317872)
(0.104564 0.00162873 0.000270076)
(0.104679 0.00165759 0.000216914)
(0.104767 0.00173439 0.000155489)
(0.104814 0.00188025 7.74704e-05)
(0.104815 0.0021232 -2.59945e-05)
(0.104788 0.00246884 -0.000163159)
(0.105074 0.0028336 -0.000333621)