/*--------------------------------*- C++ -*----------------------------------*\
| =========                 |                                                 |
| \\      /  F ield         | OpenFOAM: The Open Source CFD Toolbox           |
|  \\    /   O peration     | Version:  2212                                  |
|   \\  /    A nd           | Website:  www.openfoam.com                      |
|    \\/     M anipulation  |                                                 |
\*---------------------------------------------------------------------------*/
FoamFile
{
    version     2.0;
    format      ascii;
    arch        "LSB;label=32;scalar=64";
    class       surfaceVectorField;
    location    "2.4";
    object      Uf;
}
// * * * * * * * * * * * * * * * * * * * * * * * * * * * * * * * * * * * * * //

dimensions      [0 1 -1 0 0 0 0];

internalField   nonuniform List<vector> 
19019
(
(0.0993441 -0.00341901 -0.00341902)
(0.0973536 0.00106248 -0.00148428)
(0.0973536 -0.00148428 0.00106247)
(0.0834792 0.00197586 0.00197584)
(0.0930873 0.00326898 0.00253348)
(0.0930873 0.00253348 0.00326895)
(0.0745174 0.00195871 0.00195867)
(0.0848642 0.00163583 0.00179236)
(0.0848642 0.00179237 0.00163577)
(0.0685483 0.00115907 0.00115903)
(0.0786285 0.00107348 0.0012214)
(0.0786284 0.0012214 0.00107339)
(0.0642369 0.000696943 0.000696892)
(0.0740538 0.000785265 0.000865226)
(0.0740537 0.000865218 0.000785139)
(0.0607581 0.000494718 0.000494687)
(0.0704438 0.000650385 0.00066955)
(0.0704437 0.000669536 0.000650191)
(0.0579394 0.000374653 0.000374697)
(0.0674937 0.000546536 0.000509092)
(0.0674936 0.000509023 0.000546235)
(0.0556173 0.00028768 0.000287806)
(0.0650541 0.000468459 0.000388474)
(0.0650539 0.000388285 0.000467984)
(0.0536301 0.000226531 0.000226741)
(0.0629714 0.000414503 0.000309562)
(0.062971 0.00030923 0.000413721)
(0.0518883 0.000182421 0.000182834)
(0.0611403 0.000371533 0.000257889)
(0.0611397 0.000257329 0.000370262)
(0.0503431 0.000149943 0.000150782)
(0.0595022 0.000332506 0.000224793)
(0.0595012 0.00022372 0.000330527)
(0.0489636 0.000124759 0.000125948)
(0.0580242 0.00029592 0.000203931)
(0.0580227 0.000201943 0.000292819)
(0.0477252 0.000103472 0.000104473)
(0.0566828 0.00026287 0.000190461)
(0.0566804 0.000187786 0.000257547)
(0.0466064 8.34282e-05 8.38962e-05)
(0.0554576 0.00023409 0.000181918)
(0.0554535 0.000179146 0.00022477)
(0.0456123 6.24159e-05 6.18124e-05)
(0.0543483 0.000203647 0.000176284)
(0.0543409 0.000172726 0.000187586)
(0.0447613 4.82102e-05 3.39989e-05)
(0.0533629 0.00016947 0.000172023)
(0.0533495 0.000167381 0.000141748)
(0.0440946 7.17354e-06 -2.06026e-05)
(0.0525387 0.000133414 0.000160818)
(0.0525132 0.000165144 7.53575e-05)
(0.0439994 -9.0605e-05 -0.00013786)
(0.0520635 2.67538e-05 8.87289e-05)
(0.0520131 8.01171e-05 -6.83642e-05)
(0.045171 -0.00123891 -0.00130965)
(0.0524391 -0.000191586 -8.32373e-05)
(0.0523581 -0.000110434 -0.0003966)
(0.0510784 -0.00236003 -0.00202433)
(0.0511874 -0.0024094 -0.00292563)
(0.0984572 0.00247642 0.0017299)
(0.0996871 0.00043922 0.000345484)
(0.100049 0.00105638 0.00075097)
(0.0958349 0.00314801 0.00243269)
(0.0978162 0.00273271 0.00228229)
(0.0982937 0.00280916 0.00216146)
(0.0914502 0.00223024 0.00186933)
(0.0954961 0.00300156 0.00230316)
(0.0963041 0.00244255 0.00199781)
(0.0875957 0.00167441 0.00150552)
(0.0926195 0.00229909 0.00183883)
(0.0936672 0.00198052 0.00172697)
(0.0841486 0.00143966 0.00127587)
(0.0897679 0.00189138 0.00153578)
(0.0909053 0.00171938 0.00149792)
(0.0811894 0.0012648 0.00102918)
(0.0872331 0.00165551 0.00129501)
(0.0884356 0.00145408 0.00121215)
(0.0787038 0.00110918 0.00079477)
(0.0850083 0.0014904 0.00107779)
(0.0863068 0.0011828 0.000909407)
(0.0765608 0.000990411 0.000626661)
(0.0830636 0.00136881 0.000914476)
(0.0844839 0.000981733 0.000691998)
(0.0746578 0.000902249 0.000520801)
(0.081329 0.00127395 0.000803694)
(0.0828856 0.000842987 0.000550841)
(0.0729343 0.000826128 0.000457481)
(0.0797536 0.00118643 0.000730002)
(0.0814569 0.000740833 0.000459286)
(0.0713548 0.000750987 0.000420957)
(0.0783094 0.0010994 0.000685582)
(0.0801662 0.000655961 0.000398476)
(0.0698991 0.000675776 0.000400101)
(0.0769753 0.00101162 0.000661073)
(0.0789889 0.000580341 0.000356352)
(0.0685538 0.000605162 0.000389993)
(0.0757348 0.000921848 0.00064935)
(0.0779072 0.000514324 0.00032806)
(0.0673095 0.00053568 0.000388168)
(0.0745773 0.000829092 0.000647169)
(0.0769165 0.00045891 0.000310865)
(0.0661737 0.00045675 0.000391514)
(0.0735036 0.000724171 0.000652507)
(0.0760226 0.000400001 0.00029656)
(0.0651704 0.000345937 0.000387902)
(0.0725241 0.000596556 0.000661064)
(0.0752354 0.000331101 0.000280692)
(0.0643919 0.000140278 0.000313732)
(0.0716809 0.000409143 0.000655264)
(0.0745915 0.00022439 0.000245826)
(0.0641393 -0.000267827 9.77421e-05)
(0.0710934 2.93825e-05 0.000551928)
(0.0741919 -6.27408e-06 8.78551e-05)
(0.0651454 -0.00135229 -0.00068343)
(0.0710327 -0.000732689 0.00030596)
(0.0742049 -0.000559658 -0.000405187)
(0.0697603 -0.00299589 -0.000780201)
(0.0734107 -0.00242523 -0.00258103)
(0.0993753 0.00118208 0.00107256)
(0.099473 0.000349736 0.000307059)
(0.0997475 0.00061096 0.000779884)
(0.0984949 0.00229593 0.00203195)
(0.0990504 0.0015767 0.00172047)
(0.0995971 0.00201821 0.0020029)
(0.0971414 0.0024762 0.00204868)
(0.0983578 0.00213087 0.00216892)
(0.0992974 0.00246133 0.00210247)
(0.0954398 0.00224649 0.0017675)
(0.0971934 0.00203537 0.00200249)
(0.0984885 0.00237412 0.00190271)
(0.0937513 0.00201962 0.00152268)
(0.0959055 0.00185495 0.00175454)
(0.0974228 0.0021803 0.0016889)
(0.092139 0.00186271 0.00134505)
(0.0946722 0.00173161 0.00154302)
(0.0963103 0.00198372 0.00150868)
(0.0906027 0.00175105 0.00121586)
(0.0934823 0.00165079 0.0013871)
(0.0952056 0.00179987 0.00134339)
(0.0891532 0.00165118 0.00111538)
(0.092369 0.00157348 0.00126666)
(0.0941498 0.00164172 0.00120497)
(0.087807 0.00154313 0.00103485)
(0.0913329 0.00147582 0.00117393)
(0.0931686 0.00149983 0.00109783)
(0.0865656 0.00142851 0.000975755)
(0.0903439 0.00136161 0.001107)
(0.0922658 0.00136678 0.00101737)
(0.0854137 0.00131446 0.000939339)
(0.089414 0.00124419 0.00106359)
(0.0914415 0.00124417 0.000963179)
(0.0843353 0.0012021 0.000921942)
(0.0885345 0.00112545 0.0010401)
(0.0906869 0.00113191 0.000930789)
(0.0833178 0.0010854 0.000918936)
(0.0876917 0.00100459 0.0010326)
(0.089992 0.00102507 0.000914975)
(0.0823576 0.000954267 0.000926292)
(0.0868757 0.00087595 0.00103932)
(0.0893514 0.000914191 0.000910276)
(0.0814581 0.000794342 0.00093868)
(0.0860806 0.000726064 0.00105778)
(0.0887654 0.000789095 0.000915224)
(0.0806421 0.000579587 0.00094643)
(0.0853047 0.000530682 0.00108446)
(0.0882414 0.000633141 0.000922206)
(0.0799513 0.000226818 0.000926752)
(0.0845556 0.000247304 0.00111587)
(0.0877988 0.000415339 0.000917111)
(0.079405 -0.000401474 0.00085961)
(0.0838307 -0.00019565 0.00114818)
(0.0874489 4.87259e-05 0.000873457)
(0.0790384 -0.0016563 0.000644281)
(0.0831142 -0.000972587 0.00117249)
(0.0871856 -0.00056406 0.000781681)
(0.0820263 -0.0022037 0.00123094)
(0.0866956 -0.00175567 0.000496817)
(0.0996493 0.000650221 0.000931417)
(0.0994625 0.000129351 0.000192488)
(0.0997993 0.000375092 0.000741365)
(0.0990855 0.0012787 0.00182772)
(0.0992625 0.000636764 0.00137061)
(0.0998409 0.00115024 0.00181423)
(0.0984492 0.00154037 0.00210311)
(0.0989129 0.000973182 0.00200359)
(0.0999048 0.00153621 0.00209018)
(0.0977077 0.00154624 0.00198906)
(0.0982949 0.00104964 0.00205075)
(0.0997674 0.00163123 0.00202311)
(0.0969393 0.00147909 0.00177638)
(0.0976571 0.00100683 0.00189988)
(0.0995096 0.00160885 0.00189595)
(0.0962075 0.0014256 0.00158262)
(0.0970641 0.000958971 0.00169878)
(0.0991996 0.00154638 0.00175221)
(0.0955216 0.00139 0.00143597)
(0.0965045 0.000931375 0.0015215)
(0.0988547 0.00147267 0.00162675)
(0.0948711 0.00134858 0.00133029)
(0.0959905 0.000913664 0.00138052)
(0.0985106 0.0013897 0.00151661)
(0.0942348 0.00128518 0.00126098)
(0.0955198 0.000897221 0.00128089)
(0.0981768 0.00129428 0.00142227)
(0.0936051 0.00119669 0.00121719)
(0.0950615 0.000860719 0.00122115)
(0.0978293 0.00118584 0.00134773)
(0.0929839 0.00109079 0.00119114)
(0.0945998 0.000796779 0.00119144)
(0.0974905 0.00107291 0.00129758)
(0.0923675 0.000975346 0.00118087)
(0.0941321 0.000718728 0.00118351)
(0.0971615 0.000960151 0.0012684)
(0.0917485 0.000852016 0.00118597)
(0.0936497 0.00063443 0.0011909)
(0.0968369 0.00084637 0.00125697)
(0.0911167 0.000714049 0.00120698)
(0.0931365 0.000542219 0.00121563)
(0.0965111 0.000726884 0.00126441)
(0.0904578 0.000543891 0.00124508)
(0.0925777 0.000434998 0.00126252)
(0.0961776 0.00058949 0.00129183)
(0.0897549 0.000306866 0.0013054)
(0.0919492 0.000290702 0.00133816)
(0.0958275 0.000417319 0.00134353)
(0.0889802 -4.64776e-05 0.00140052)
(0.0912145 7.81546e-05 0.00146095)
(0.0954461 0.00017713 0.00142905)
(0.088073 -0.000601083 0.00154473)
(0.0902953 -0.000232959 0.00165176)
(0.0950056 -0.000170039 0.00156454)
(0.0869422 -0.00141603 0.00185254)
(0.0891203 -0.000766362 0.00188608)
(0.0944549 -0.000692649 0.00176547)
(0.0878752 -0.00142614 0.00271688)
(0.0938842 -0.00135562 0.00218484)
(0.0996725 0.000154014 0.000629467)
(0.0993801 -7.34269e-09 5.89327e-05)
(0.0997132 0.000103902 0.000687947)
(0.0991591 0.000353204 0.00154426)
(0.0992677 -3.18091e-08 0.00120002)
(0.0998376 0.000341557 0.00162229)
(0.0986635 0.000457593 0.00194753)
(0.0989803 -6.06834e-08 0.00188851)
(0.099963 0.000485313 0.0019914)
(0.098212 0.000480594 0.00196071)
(0.0984745 -9.39566e-08 0.00200656)
(0.0999917 0.000539367 0.0019967)
(0.0977758 0.000471215 0.00182497)
(0.0979951 -1.43214e-07 0.00191487)
(0.100009 0.000545963 0.00191127)
(0.0973616 0.000457511 0.00164147)
(0.0975699 -2.16795e-07 0.00173508)
(0.100007 0.000532767 0.00180474)
(0.0969924 0.000444733 0.00146873)
(0.0971791 -3.22634e-07 0.00154786)
(0.09998 0.000510275 0.00168361)
(0.0966701 0.000434432 0.00133078)
(0.0968275 -4.86408e-07 0.0013896)
(0.0999369 0.000483078 0.00157383)
(0.0963864 0.000424096 0.00123748)
(0.0965242 -7.37577e-07 0.00127195)
(0.0998948 0.000457913 0.00148362)
(0.0961147 0.000406019 0.00119082)
(0.0962642 -1.13781e-06 0.00120296)
(0.0998588 0.000431879 0.00142247)
(0.0958259 0.000376296 0.00118015)
(0.0959804 -1.79921e-06 0.00117852)
(0.0997992 0.000398231 0.00138653)
(0.095504 0.000336686 0.00119106)
(0.0956706 -2.90573e-06 0.00118152)
(0.0997203 0.000357515 0.00136636)
(0.0951356 0.000289625 0.00121917)
(0.0953276 -4.80223e-06 0.00120022)
(0.0996165 0.000312169 0.00136528)
(0.0947021 0.000236732 0.00127135)
(0.0949289 -7.89473e-06 0.00123737)
(0.0994719 0.000262229 0.00139036)
(0.0941796 0.000169843 0.00135847)
(0.0944555 -1.38755e-05 0.0013041)
(0.0992776 0.000206369 0.00144614)
(0.0935241 7.18099e-05 0.0015009)
(0.0938731 -2.48449e-05 0.00141214)
(0.0990143 0.000133853 0.00154731)
(0.0926607 -7.98193e-05 0.00172441)
(0.0931234 -4.54284e-05 0.00159213)
(0.0986468 3.16732e-05 0.00172181)
(0.0914885 -0.000340271 0.00201172)
(0.0920886 -8.81171e-05 0.00187102)
(0.098109 -0.000118376 0.0019986)
(0.0898578 -0.000673845 0.00278535)
(0.0906722 -0.000176083 0.00222368)
(0.0973694 -0.000361155 0.00235869)
(0.0891822 -0.000329115 0.0034551)
(0.0967974 -0.000594507 0.00328901)
(0.0996725 -0.000154049 0.000629483)
(0.0994625 -0.000129364 0.000192497)
(0.0997132 -0.000103916 0.000687948)
(0.099159 -0.000353289 0.00154427)
(0.0992625 -0.000636813 0.00137062)
(0.0998376 -0.000341612 0.0016223)
(0.0986635 -0.000457738 0.00194754)
(0.0989128 -0.000973275 0.00200361)
(0.0999629 -0.000485413 0.00199141)
(0.098212 -0.000480818 0.00196072)
(0.0982949 -0.00104979 0.00205076)
(0.0999916 -0.000539525 0.00199671)
(0.0977756 -0.000471555 0.00182498)
(0.097657 -0.00100706 0.00189989)
(0.100009 -0.000546202 0.00191128)
(0.0973614 -0.000458015 0.00164147)
(0.0970639 -0.00095931 0.00169878)
(0.100007 -0.000533121 0.00180474)
(0.0969921 -0.000445482 0.00146873)
(0.0965041 -0.000931869 0.00152153)
(0.0999798 -0.000510793 0.00168361)
(0.0966696 -0.00043556 0.00133077)
(0.0959898 -0.000914398 0.00138056)
(0.0999366 -0.000483848 0.00157383)
(0.0963856 -0.000425825 0.00123742)
(0.0955188 -0.0008983 0.00128092)
(0.0998943 -0.000459062 0.0014836)
(0.0961135 -0.000408711 0.00119067)
(0.0950598 -0.000862369 0.00122111)
(0.099858 -0.000433604 0.00142241)
(0.095824 -0.000380566 0.00117989)
(0.0945972 -0.000799379 0.00119128)
(0.0997979 -0.000400838 0.00138642)
(0.0955011 -0.000343627 0.00119068)
(0.0941281 -0.000722942 0.0011832)
(0.0997184 -0.000361568 0.00136625)
(0.0951307 -0.000300916 0.00121842)
(0.0936432 -0.000641331 0.00119045)
(0.0996136 -0.000318739 0.00136521)
(0.0946939 -0.000255841 0.00127012)
(0.0931257 -0.000553256 0.00121515)
(0.0994674 -0.000272804 0.00139036)
(0.0941646 -0.000203372 0.00135777)
(0.092559 -0.000453826 0.00126245)
(0.0992699 -0.000224284 0.00144713)
(0.0934939 -0.000131798 0.00150336)
(0.0919152 -0.000321688 0.00134027)
(0.0990007 -0.000164395 0.00155181)
(0.0925974 -3.07992e-05 0.00173874)
(0.091149 -0.000130445 0.00146888)
(0.0986203 -8.45446e-05 0.00173521)
(0.0913474 0.00012666 0.00208298)
(0.0901705 0.000143103 0.00167814)
(0.0980618 2.4917e-05 0.00203728)
(0.0895361 0.000230273 0.00289342)
(0.0888737 0.000591918 0.00198753)
(0.0972651 0.000189574 0.00247928)
(0.0874948 0.00123937 0.0028129)
(0.0965162 0.000257417 0.00362248)
(0.0996493 -0.000650243 0.000931423)
(0.099473 -0.000349739 0.000307061)
(0.0997993 -0.0003751 0.000741366)
(0.0990854 -0.00127875 0.00182773)
(0.0990504 -0.00157671 0.00172048)
(0.0998409 -0.00115027 0.00181423)
(0.0984492 -0.00154047 0.00210313)
(0.0983577 -0.00213091 0.00216892)
(0.0999047 -0.00153627 0.00209019)
(0.0977075 -0.00154639 0.00198907)
(0.0971933 -0.00203544 0.0020025)
(0.0997673 -0.00163133 0.00202312)
(0.0969391 -0.0014793 0.00177639)
(0.0959052 -0.00185504 0.00175454)
(0.0995094 -0.00160899 0.00189596)
(0.096207 -0.0014259 0.00158265)
(0.0946718 -0.00173172 0.00154302)
(0.0991993 -0.00154657 0.00175222)
(0.0955208 -0.00139042 0.00143602)
(0.0934818 -0.00165093 0.00138711)
(0.0988542 -0.00147294 0.00162677)
(0.0948699 -0.00134916 0.00133035)
(0.092368 -0.00157368 0.00126668)
(0.0985099 -0.00139009 0.00151665)
(0.094233 -0.001286 0.001261)
(0.0913315 -0.00147607 0.00117395)
(0.0981757 -0.00129482 0.00142231)
(0.0936023 -0.00119793 0.00121709)
(0.0903417 -0.00136193 0.00110698)
(0.0978274 -0.00118661 0.00134778)
(0.0929795 -0.00109281 0.00119085)
(0.0894104 -0.00124464 0.00106353)
(0.0974876 -0.00107412 0.00129766)
(0.0923605 -0.000978647 0.00118038)
(0.0885289 -0.00112618 0.00103994)
(0.097157 -0.000962133 0.00126857)
(0.0917371 -0.00085728 0.00118561)
(0.0876825 -0.00100571 0.00103239)
(0.09683 -0.000849737 0.00125745)
(0.0910975 -0.000722759 0.00120736)
(0.0868603 -0.000877517 0.00103962)
(0.0965 -0.000732471 0.00126599)
(0.0904243 -0.000557581 0.00124738)
(0.0860541 -0.000728369 0.00105946)
(0.0961593 -0.000598572 0.0012962)
(0.0896945 -0.000328064 0.0013125)
(0.0852577 -0.000532629 0.0010892)
(0.0957964 -0.000431067 0.00135433)
(0.0888703 1.32261e-05 0.00142031)
(0.0844714 -0.000249188 0.00112862)
(0.0953931 -0.000198848 0.00145351)
(0.0878697 0.000536336 0.00160281)
(0.083674 0.000195234 0.00118088)
(0.0949125 0.000136665 0.00161829)
(0.0865588 0.00134703 0.00195841)
(0.082839 0.000956001 0.00125626)
(0.0943124 0.000629956 0.00188246)
(0.0818238 0.00230078 0.00126982)
(0.0938276 0.00133352 0.00232338)
(0.0993753 -0.00118208 0.00107257)
(0.0996871 -0.000439216 0.000345483)
(0.0997475 -0.000610959 0.000779887)
(0.0984948 -0.00229593 0.00203195)
(0.0978162 -0.0027327 0.0022823)
(0.0995971 -0.00201821 0.0020029)
(0.0971414 -0.00247621 0.00204868)
(0.0954961 -0.00300154 0.00230316)
(0.0992973 -0.00246132 0.00210247)
(0.0954397 -0.0022465 0.0017675)
(0.0926194 -0.00229905 0.00183882)
(0.0984885 -0.00237412 0.00190272)
(0.093751 -0.00201962 0.00152267)
(0.0897678 -0.00189133 0.00153578)
(0.0974226 -0.0021803 0.00168892)
(0.0921385 -0.0018627 0.00134504)
(0.0872329 -0.00165542 0.001295)
(0.09631 -0.00198371 0.00150871)
(0.090602 -0.00175103 0.00121585)
(0.0850078 -0.0014902 0.00107782)
(0.0952052 -0.00179984 0.00134345)
(0.089152 -0.00165113 0.00111537)
(0.0830628 -0.00136847 0.000914508)
(0.0941491 -0.00164164 0.00120505)
(0.0878052 -0.001543 0.00103485)
(0.0813278 -0.00127336 0.000803734)
(0.0931675 -0.0014997 0.00109796)
(0.0865627 -0.00142827 0.000975797)
(0.0797517 -0.00118548 0.000730046)
(0.0922641 -0.00136658 0.00101761)
(0.0854092 -0.00131405 0.000939447)
(0.0783064 -0.0010979 0.0006856)
(0.0914388 -0.00124387 0.00096362)
(0.0843281 -0.00120135 0.000922128)
(0.0769706 -0.00100923 0.000660949)
(0.0906828 -0.00113152 0.00093162)
(0.0833058 -0.00108394 0.000919498)
(0.0757272 -0.000917787 0.000649401)
(0.0899853 -0.00102454 0.000916669)
(0.0823373 -0.000951304 0.000928091)
(0.0745645 -0.000822132 0.000648397)
(0.0893403 -0.000913344 0.000914065)
(0.0814225 -0.00078806 0.000943151)
(0.073481 -0.000712142 0.000655612)
(0.0887469 -0.000787433 0.000923437)
(0.0805793 -0.00056778 0.000957471)
(0.0724837 -0.000575725 0.000667304)
(0.0882104 -0.000630009 0.000939511)
(0.0798417 -0.000206771 0.000953861)
(0.0716074 -0.000380106 0.000665378)
(0.0877481 -0.000410902 0.000953054)
(0.0792041 0.000424803 0.000922372)
(0.0709533 2.29923e-05 0.000569037)
(0.0873654 -4.4561e-05 0.000946901)
(0.078635 0.00178118 0.000669048)
(0.070794 0.000831451 0.000325897)
(0.0870605 0.000553612 0.000929619)
(0.0698119 0.00333279 -0.00116943)
(0.0866265 0.00182591 0.000633193)
(0.0984572 -0.00247641 0.0017299)
(0.0973536 -0.00106247 -0.00148428)
(0.100049 -0.00105638 0.000750973)
(0.0958349 -0.00314798 0.00243269)
(0.0930873 -0.00326896 0.00253348)
(0.0982937 -0.00280915 0.00216148)
(0.0914502 -0.00223018 0.00186933)
(0.0848642 -0.00163578 0.00179237)
(0.0963041 -0.00244252 0.00199783)
(0.0875956 -0.00167431 0.00150552)
(0.0786284 -0.0010734 0.00122141)
(0.0936672 -0.00198047 0.00172701)
(0.0841485 -0.00143951 0.00127586)
(0.0740537 -0.000785152 0.000865219)
(0.0909053 -0.0017193 0.00149798)
(0.0811891 -0.00126451 0.0010292)
(0.0704437 -0.000650204 0.000669538)
(0.0884355 -0.00145395 0.00121226)
(0.0787033 -0.00110863 0.000794792)
(0.0674935 -0.000546248 0.000509026)
(0.0863066 -0.00118254 0.000909604)
(0.07656 -0.000989457 0.000626664)
(0.0650538 -0.000467997 0.000388288)
(0.0844835 -0.000981284 0.000692311)
(0.0746566 -0.00090068 0.000520761)
(0.0629709 -0.000413735 0.000309234)
(0.082885 -0.000842248 0.000551335)
(0.0729323 -0.000823584 0.000457297)
(0.0611397 -0.000370276 0.000257334)
(0.081456 -0.000739657 0.000460049)
(0.0713517 -0.00074687 0.00042041)
(0.0595011 -0.000330543 0.000223724)
(0.0801648 -0.000654121 0.000399575)
(0.0698943 -0.000669082 0.000399313)
(0.0580226 -0.000292833 0.000201947)
(0.0789867 -0.000577404 0.000357994)
(0.0685459 -0.000594249 0.000389862)
(0.0566802 -0.000257572 0.000187802)
(0.0779037 -0.000509398 0.000331282)
(0.0672954 -0.000517551 0.00038932)
(0.0554532 -0.000224769 0.000179173)
(0.0769105 -0.000450448 0.000317575)
(0.0661486 -0.000426523 0.00039416)
(0.0543405 -0.000187534 0.000172759)
(0.0760119 -0.000385713 0.000308587)
(0.0651257 -0.000300605 0.000389931)
(0.053349 -0.000141705 0.00016744)
(0.0752162 -0.000307347 0.000302345)
(0.0643036 -6.04681e-05 0.000307655)
(0.0525125 -7.53319e-05 0.000165203)
(0.0745554 -0.000192601 0.000279806)
(0.0639815 0.000440846 5.88664e-05)
(0.0520121 6.84147e-05 8.02029e-05)
(0.0741209 6.51068e-05 0.000140657)
(0.0648586 0.00197013 -0.00116466)
(0.0523569 0.000396658 -0.000110321)
(0.0740912 0.000681807 -0.000327199)
(0.0511858 0.00292597 -0.00240924)
(0.0735607 0.00281123 -0.00259993)
(0.0993441 0.00341902 -0.00341902)
(0.0973536 0.00148428 0.00106247)
(0.0834792 -0.00197584 0.00197586)
(0.0930873 -0.00253348 0.00326898)
(0.0745174 -0.00195867 0.00195871)
(0.0848642 -0.00179236 0.00163582)
(0.0685482 -0.00115903 0.00115907)
(0.0786284 -0.00122139 0.00107347)
(0.0642369 -0.000696897 0.00069694)
(0.0740538 -0.000865224 0.000785257)
(0.0607581 -0.000494693 0.000494716)
(0.0704437 -0.000669548 0.00065038)
(0.0579394 -0.000374703 0.000374651)
(0.0674937 -0.00050909 0.000546532)
(0.0556173 -0.000287811 0.000287679)
(0.0650541 -0.000388471 0.000468456)
(0.05363 -0.000226746 0.000226531)
(0.0629713 -0.000309558 0.000414502)
(0.0518882 -0.00018284 0.000182423)
(0.0611403 -0.000257884 0.000371534)
(0.0503429 -0.000150785 0.000149944)
(0.0595021 -0.000224786 0.000332509)
(0.0489634 -0.000125956 0.00012477)
(0.058024 -0.000203921 0.000295924)
(0.0477249 -0.000104471 0.000103495)
(0.0566825 -0.000190457 0.000262893)
(0.0466061 -8.38519e-05 8.34532e-05)
(0.0554574 -0.000181905 0.000234149)
(0.045612 -6.17516e-05 6.24623e-05)
(0.0543479 -0.000176253 0.000203739)
(0.0447608 -3.39608e-05 4.82721e-05)
(0.0533624 -0.000171994 0.0001696)
(0.0440939 2.06442e-05 7.24564e-06)
(0.052538 -0.000160796 0.00013355)
(0.0439986 0.000137925 -9.05207e-05)
(0.0520626 -8.86852e-05 2.69441e-05)
(0.0451699 0.00130979 -0.00123869)
(0.0524381 8.32983e-05 -0.000191406)
(0.0510766 0.00202441 -0.00235952)
(0.0984572 0.0017299 0.00247641)
(0.100049 0.000750974 0.00105637)
(0.0996871 0.000345482 0.000439212)
(0.0958349 0.00243269 0.00314797)
(0.0982937 0.00216148 0.00280915)
(0.0978162 0.0022823 0.00273269)
(0.0914502 0.00186932 0.00223016)
(0.0963041 0.00199783 0.00244252)
(0.0954961 0.00230316 0.00300153)
(0.0875956 0.00150551 0.0016743)
(0.0936672 0.00172701 0.00198047)
(0.0926194 0.00183882 0.00229904)
(0.0841485 0.00127586 0.00143949)
(0.0909053 0.00149798 0.00171929)
(0.0897678 0.00153577 0.00189131)
(0.0811891 0.00102919 0.00126449)
(0.0884355 0.00121226 0.00145394)
(0.0872329 0.001295 0.0016554)
(0.0787033 0.000794785 0.00110861)
(0.0863066 0.000909598 0.00118253)
(0.0850079 0.00107782 0.00149019)
(0.0765601 0.000626656 0.000989433)
(0.0844835 0.000692303 0.000981273)
(0.0830629 0.000914504 0.00136845)
(0.0746567 0.00052075 0.000900651)
(0.0828851 0.000551325 0.000842236)
(0.0813279 0.000803728 0.00127334)
(0.0729324 0.000457285 0.000823551)
(0.0814561 0.000460035 0.000739642)
(0.0797518 0.000730038 0.00118546)
(0.0713519 0.000420397 0.000746829)
(0.0801649 0.000399561 0.000654105)
(0.0783065 0.00068559 0.00109787)
(0.0698945 0.000399298 0.000669033)
(0.0789868 0.000357973 0.000577384)
(0.0769708 0.000660933 0.00100919)
(0.0685462 0.000389827 0.000594187)
(0.077904 0.00033122 0.000509337)
(0.0757275 0.000649387 0.000917758)
(0.0672958 0.000389255 0.000517503)
(0.0769108 0.000317497 0.000450409)
(0.0745647 0.000648342 0.000822084)
(0.0661492 0.000394084 0.000426498)
(0.0760123 0.000308536 0.000385759)
(0.0734815 0.00065551 0.000712077)
(0.0651264 0.000389843 0.000300575)
(0.0752167 0.000302247 0.000307352)
(0.0724844 0.000667176 0.000575644)
(0.0643046 0.000307545 6.0437e-05)
(0.0745561 0.000279672 0.000192584)
(0.0716082 0.000665211 0.000380002)
(0.0639828 5.87175e-05 -0.000440856)
(0.0741218 0.00014049 -6.51246e-05)
(0.0709544 0.000568802 -2.3099e-05)
(0.0648603 -0.00116471 -0.00196992)
(0.0740923 -0.000327383 -0.000681788)
(0.0707956 0.000325538 -0.000831523)
(0.0735622 -0.00260006 -0.00281109)
(0.0698141 -0.00116971 -0.00333254)
(0.10008 0.00135174 0.00135173)
(0.100186 0.000798747 0.000804943)
(0.100186 0.000804947 0.000798741)
(0.100264 0.00221722 0.0022172)
(0.10019 0.00231178 0.00207144)
(0.10019 0.00207144 0.00231177)
(0.0993831 0.00243562 0.00243559)
(0.100307 0.00263357 0.00245301)
(0.100307 0.00245302 0.00263355)
(0.0979845 0.00231006 0.00231001)
(0.0998053 0.00256018 0.00245586)
(0.0998053 0.00245588 0.00256015)
(0.0964957 0.00200608 0.00200599)
(0.0988632 0.00236415 0.00228087)
(0.0988632 0.00228091 0.0023641)
(0.095074 0.00159698 0.00159683)
(0.0978416 0.00204874 0.00196815)
(0.0978415 0.00196823 0.00204865)
(0.0937777 0.00122621 0.00122598)
(0.0968628 0.00169076 0.00160481)
(0.0968626 0.00160494 0.00169062)
(0.0926218 0.000961772 0.000961408)
(0.0959618 0.00140367 0.00132171)
(0.0959616 0.0013219 0.00140342)
(0.0916009 0.000777325 0.000776762)
(0.0951519 0.00118999 0.00111901)
(0.0951516 0.00111931 0.0011896)
(0.0906999 0.000644723 0.000643893)
(0.0944323 0.00102916 0.000972717)
(0.0944319 0.00097318 0.00102858)
(0.0898995 0.000545585 0.000544319)
(0.0937989 0.000904452 0.000865691)
(0.0937983 0.000866378 0.000903604)
(0.0891809 0.000470616 0.00046836)
(0.0932389 0.000804818 0.000787353)
(0.0932379 0.000788511 0.000803559)
(0.0885353 0.000413612 0.000409251)
(0.0927407 0.000721649 0.000729638)
(0.0927391 0.000731962 0.000719547)
(0.0879686 0.000363096 0.000355258)
(0.0923062 0.000645917 0.000684022)
(0.0923037 0.000688804 0.000642296)
(0.0874903 0.000308667 0.000294933)
(0.0919418 0.000564907 0.000640955)
(0.091938 0.000649718 0.000558954)
(0.0871189 0.000239095 0.000217177)
(0.0916543 0.000468853 0.000592806)
(0.0916492 0.000609122 0.00045921)
(0.0868772 0.00011033 7.75061e-05)
(0.0914561 0.000332722 0.000523199)
(0.0914512 0.000549984 0.000320008)
(0.0866936 -0.000206145 -0.000255442)
(0.0913355 0.000102651 0.000384516)
(0.0913365 0.00042845 9.01381e-05)
(0.0862367 -0.00108827 -0.00114624)
(0.0911597 -0.000289885 7.93143e-05)
(0.0911871 0.000144843 -0.000296254)
(0.0912544 -0.000950781 -0.000636237)
(0.0913039 -0.000580527 -0.000895477)
(0.100171 0.00136864 0.0014164)
(0.100118 0.000577382 0.000811299)
(0.100102 0.000699744 0.00070067)
(0.100759 0.0021948 0.00214902)
(0.100478 0.00158277 0.00185874)
(0.100477 0.00182247 0.00186459)
(0.100996 0.00247676 0.00238788)
(0.101004 0.00205859 0.00224248)
(0.101024 0.00234664 0.00238283)
(0.100838 0.00247596 0.00238906)
(0.101292 0.00220322 0.00235205)
(0.101338 0.00250573 0.00254354)
(0.100458 0.00231114 0.00222479)
(0.101309 0.00216696 0.00232213)
(0.101409 0.00245028 0.00247214)
(0.0999682 0.00205583 0.00196821)
(0.101157 0.00201014 0.00217886)
(0.101302 0.00226421 0.00227029)
(0.0994445 0.00178912 0.0017)
(0.100927 0.00179252 0.0019687)
(0.101099 0.00200832 0.00199843)
(0.0989353 0.00156072 0.00148377)
(0.100665 0.00158137 0.0017662)
(0.100856 0.00176878 0.00175752)
(0.0984676 0.00137349 0.00132193)
(0.100409 0.00139149 0.00159127)
(0.100609 0.00156656 0.00156367)
(0.0980527 0.00121771 0.00120206)
(0.100173 0.00122263 0.00144733)
(0.100383 0.00139793 0.00140975)
(0.0976915 0.00108624 0.00111611)
(0.0999671 0.00107758 0.00134348)
(0.10019 0.00125708 0.00128896)
(0.0973817 0.000971837 0.00105607)
(0.0997919 0.000952479 0.00127238)
(0.100033 0.00113824 0.00119524)
(0.0971226 0.000864987 0.00101256)
(0.0996464 0.000838573 0.00122573)
(0.0999139 0.00103494 0.00112168)
(0.0969152 0.000755274 0.000979588)
(0.0995304 0.000725799 0.00119678)
(0.0998351 0.000938314 0.00106005)
(0.0967619 0.000629856 0.000951672)
(0.0994441 0.000600949 0.00118384)
(0.0997984 0.00083974 0.00100513)
(0.0966666 0.000467582 0.000916741)
(0.099389 0.000451154 0.00118323)
(0.099806 0.000726525 0.000947659)
(0.096629 0.000238134 0.000858307)
(0.0993632 0.000252977 0.00119031)
(0.0998573 0.000579302 0.000874192)
(0.0966117 -9.90271e-05 0.000755279)
(0.0993541 -2.23309e-05 0.0012004)
(0.0999386 0.000372484 0.000767373)
(0.0965385 -0.000594481 0.000574619)
(0.099321 -0.000411418 0.00120624)
(0.100008 7.42055e-05 0.000608816)
(0.0994395 -0.00092925 0.00121083)
(0.100217 -0.000314666 0.000436197)
(0.100242 0.000820106 0.00125612)
(0.10009 0.000294306 0.000735346)
(0.100071 0.000415642 0.000602761)
(0.100828 0.00139042 0.00193931)
(0.100491 0.000791896 0.00168399)
(0.100492 0.00112432 0.00158694)
(0.101392 0.00166323 0.00218221)
(0.101086 0.00107756 0.00208336)
(0.101128 0.00154065 0.00209402)
(0.101816 0.00176072 0.00226117)
(0.101664 0.00120407 0.00217899)
(0.101767 0.00173242 0.0022941)
(0.10208 0.00175464 0.00226213)
(0.102121 0.0012393 0.0022221)
(0.102291 0.00178941 0.00236714)
(0.102215 0.00166694 0.00217701)
(0.102451 0.00120121 0.00221042)
(0.102711 0.00174306 0.00232182)
(0.102265 0.00153156 0.00204207)
(0.102679 0.00111726 0.00212687)
(0.103037 0.00162489 0.00220202)
(0.102275 0.00137835 0.00188638)
(0.102839 0.0010155 0.00200643)
(0.103286 0.0014773 0.0020496)
(0.102272 0.00122375 0.00173249)
(0.102963 0.000913578 0.00187193)
(0.103492 0.00132397 0.00189059)
(0.102266 0.00108071 0.00160692)
(0.103065 0.000816904 0.00174731)
(0.103668 0.001179 0.00174682)
(0.102263 0.000954598 0.0015201)
(0.103155 0.000727008 0.00164898)
(0.103829 0.00105028 0.00163492)
(0.102265 0.000839723 0.00146434)
(0.103243 0.000643287 0.00157651)
(0.103983 0.000936959 0.00155108)
(0.102274 0.000727299 0.00143419)
(0.103326 0.000561718 0.00153527)
(0.104136 0.000831677 0.00149137)
(0.102289 0.000606336 0.00142775)
(0.1034 0.00047757 0.00152518)
(0.104291 0.000728026 0.00145293)
(0.102309 0.00046508 0.00144565)
(0.103466 0.000381128 0.00154105)
(0.104449 0.000616685 0.00143431)
(0.102329 0.000288652 0.00149233)
(0.10352 0.000264716 0.0015924)
(0.104611 0.000489419 0.00143607)
(0.102341 5.52871e-05 0.001576)
(0.103552 0.000113291 0.00169203)
(0.104775 0.000331905 0.00146246)
(0.10233 -0.000254263 0.00170805)
(0.103551 -8.62303e-05 0.00185612)
(0.104936 0.000129671 0.00152011)
(0.102261 -0.000610745 0.00192508)
(0.10351 -0.00034567 0.00209219)
(0.105091 -0.000124826 0.00161747)
(0.103699 -0.000618952 0.00242072)
(0.105381 -0.000383068 0.00179966)
(0.100243 0.000267384 0.0011624)
(0.100087 -9.99138e-09 0.000707015)
(0.100064 0.000135796 0.000537321)
(0.100782 0.000465685 0.00182621)
(0.100477 -2.76955e-08 0.00161778)
(0.100463 0.000370853 0.00142412)
(0.101401 0.000575437 0.00207618)
(0.101065 -4.61462e-08 0.00203465)
(0.101089 0.00052511 0.00193356)
(0.101987 0.000622769 0.00213415)
(0.101694 -7.08568e-08 0.00211772)
(0.101797 0.000605791 0.00212864)
(0.102506 0.000630905 0.00216565)
(0.102268 -1.06323e-07 0.00215061)
(0.102489 0.000639178 0.00221123)
(0.102934 0.000609986 0.00215817)
(0.102741 -1.54488e-07 0.00218072)
(0.103119 0.000633973 0.00224218)
(0.103276 0.000570727 0.0020913)
(0.103123 -2.24241e-07 0.00213564)
(0.103686 0.00060061 0.00219785)
(0.103552 0.000524473 0.0019934)
(0.103425 -3.32912e-07 0.00204696)
(0.104183 0.000554357 0.0021079)
(0.103783 0.00047904 0.00188888)
(0.103676 -4.90378e-07 0.00193986)