/*--------------------------------*- C++ -*----------------------------------*\
| =========                 |                                                 |
| \\      /  F ield         | OpenFOAM: The Open Source CFD Toolbox           |
|  \\    /   O peration     | Version:  2212                                  |
|   \\  /    A nd           | Website:  www.openfoam.com                      |
|    \\/     M anipulation  |                                                 |
\*---------------------------------------------------------------------------*/
FoamFile
{
    version     2.0;
    format      ascii;
    arch        "LSB;label=32;scalar=64";
    class       volScalarField;
    location    "1.3";
    object      k;
}
// * * * * * * * * * * * * * * * * * * * * * * * * * * * * * * * * * * * * * //

dimensions      [0 2 -2 0 0 0 0];

internalField   nonuniform List<scalar> 
6840
(
0.213564
0.055916
0.0283994
0.0193412
0.0146927
0.0118511
0.00989064
0.00851599
0.00749122
0.00669617
0.00606034
0.0055506
0.00512257
0.00474457
0.00442472
0.00415605
0.00392916
0.00373814
0.00359832
0.00344203
0.264759
0.104702
0.0585298
0.0391631
0.0286199
0.0219934
0.0175361
0.0143633
0.0120083
0.0102139
0.00881653
0.00770609
0.00680465
0.00606236
0.00545148
0.00495145
0.00453711
0.00419362
0.00392173
0.00372106
0.283364
0.126774
0.071702
0.0473282
0.0338663
0.0256617
0.0204609
0.0167972
0.0140488
0.0119416
0.0102847
0.00895674
0.00788607
0.00701273
0.00629087
0.00568823
0.00518292
0.00475787
0.00440231
0.00411836
0.292299
0.141633
0.0819302
0.0541654
0.0389231
0.0292875
0.0232724
0.0190788
0.0159344
0.0135153
0.0116273
0.0101135
0.00888294
0.00787265
0.00703539
0.00633563
0.00574627
0.00524663
0.00482152
0.00446569
0.295943
0.148782
0.0871941
0.057675
0.0415194
0.0310723
0.0246452
0.0202211
0.0169051
0.0143251
0.0123086
0.0107026
0.0093965
0.00832289
0.0074316
0.00668502
0.00605433
0.00551773
0.00506138
0.00470331
0.295943
0.148782
0.0871941
0.0576749
0.0415194
0.0310722
0.024645
0.0202209
0.0169048
0.0143247
0.012308
0.0107016
0.00939509
0.00832076
0.00742841
0.00668034
0.00604747
0.00550791
0.00504898
0.00470242
0.292299
0.141633
0.0819301
0.0541653
0.038923
0.0292873
0.0232721
0.0190784
0.0159337
0.0135144
0.0116259
0.0101115
0.00887988
0.00786802
0.00702848
0.00632518
0.00573039
0.00522268
0.00478872
0.00446022
0.283364
0.126774
0.0717019
0.0473281
0.0338662
0.0256615
0.0204607
0.0167968
0.0140483
0.0119406
0.0102833
0.00895472
0.00788308
0.00700817
0.00628374
0.00567709
0.00516531
0.00472968
0.00435792
0.00405219
0.264759
0.104702
0.0585298
0.039163
0.0286199
0.0219934
0.017536
0.0143632
0.0120081
0.0102136
0.00881607
0.00770529
0.00680333
0.00605935
0.00544698
0.00494397
0.00452355
0.00416757
0.00387091
0.00362986
0.213564
0.055916
0.0283994
0.0193412
0.0146927
0.0118511
0.00989064
0.00851599
0.00749122
0.00669618
0.00606032
0.00555064
0.00512253
0.00474461
0.00442471
0.00415605
0.00392917
0.00373816
0.00359836
0.00344212
0.264759
0.104702
0.0585298
0.039163
0.0286199
0.0219934
0.017536
0.0143632
0.0120081
0.0102136
0.00881606
0.00770529
0.00680331
0.00605939
0.00544694
0.00494394
0.00452351
0.0041675
0.0038708
0.00362968
0.311746
0.197541
0.130357
0.0911456
0.0668022
0.0508111
0.0397944
0.031912
0.0260941
0.0216872
0.0182764
0.0155883
0.0134406
0.0116976
0.0102661
0.00907809
0.00808227
0.00723979
0.00653628
0.00591022
0.31754
0.217754
0.151085
0.108549
0.0807156
0.0618726
0.0486774
0.0391418
0.0320588
0.0266717
0.0224903
0.0191877
0.0165395
0.0143876
0.0126187
0.0111509
0.00992246
0.00888592
0.00800894
0.0072666
0.319723
0.227073
0.162232
0.118772
0.0893612
0.0689929
0.0545308
0.0439847
0.0361002
0.0300753
0.025383
0.0216664
0.0186795
0.0162478
0.0142457
0.0125807
0.0111839
0.0100026
0.00899588
0.00813437
0.320484
0.23086
0.167176
0.123531
0.093516
0.0724826
0.0574408
0.0464215
0.0381541
0.0318177
0.0268715
0.0229475
0.0197892
0.0172146
0.0150921
0.0133247
0.0118395
0.010581
0.00950613
0.00858348
0.320484
0.23086
0.167176
0.123531
0.0935159
0.0724824
0.0574406
0.0464211
0.0381536
0.0318169
0.0268704
0.022946
0.0197871
0.0172114
0.0150875
0.0133182
0.0118305
0.0105684
0.00948869
0.00856091
0.319723
0.227073
0.162232
0.118772
0.0893609
0.0689925
0.0545302
0.043984
0.0360991
0.0300738
0.0253808
0.0216633
0.0186749
0.0162412
0.0142362
0.012567
0.011164
0.00997386
0.00895424
0.00806394
0.31754
0.217754
0.151085
0.108549
0.0807154
0.0618724
0.048677
0.0391413
0.0320579
0.0266705
0.0224886
0.0191852
0.0165359
0.0143824
0.0126111
0.0111397
0.00990569
0.00886036
0.00796959
0.0071779
0.311746
0.197541
0.130357
0.0911456
0.0668022
0.0508111
0.0397944
0.031912
0.0260941
0.0216872
0.0182764
0.0155883
0.0134406
0.0116975
0.0102661
0.00907814
0.00808233
0.00723986
0.00653642
0.00591055
0.264759
0.104702
0.0585298
0.0391631
0.0286199
0.0219934
0.0175361
0.0143633
0.0120083
0.0102139
0.00881654
0.00770608
0.00680466
0.00606233
0.00545151
0.00495146
0.00453711
0.00419362
0.0039217
0.00372097
0.283364
0.126774
0.0717019
0.0473281
0.0338662
0.0256615
0.0204607
0.0167968
0.0140483
0.0119406
0.0102833
0.00895472
0.00788309
0.00700822
0.00628371
0.00567707
0.0051653
0.00472967
0.00435789
0.00405211
0.31754
0.217754
0.151085
0.108549
0.0807154
0.0618724
0.048677
0.0391413
0.0320579
0.0266705
0.0224886
0.0191852
0.0165359
0.0143825
0.0126111
0.0111397
0.00990564
0.0088603
0.00796946
0.00717763
0.322005
0.239026
0.177588
0.133616
0.102323
0.0798668
0.0635104
0.0513819
0.0422214
0.0351791
0.0296753
0.0253088
0.0217974
0.0189387
0.0165856
0.014629
0.0129877
0.011599
0.0104136
0.00938453
0.323293
0.245617
0.187499
0.144537
0.112864
0.0894039
0.0718633
0.0585866
0.0483997
0.0404745
0.034225
0.0292338
0.0251998
0.0219038
0.0191834
0.0169173
0.0150135
0.0134009
0.0120222
0.0108233
0.323714
0.247819
0.191099
0.14881
0.117249
0.0935708
0.0756574
0.0619607
0.0513629
0.0430614
0.0364795
0.0311998
0.0269182
0.0234101
0.0205086
0.0180876
0.0160506
0.0143227
0.0128423
0.0115485
0.323714
0.247819
0.191099
0.14881
0.117249
0.0935707
0.0756572
0.0619604
0.0513625
0.043061
0.0364789
0.031199
0.026917
0.0234085
0.0205063
0.0180845
0.0160463
0.0143166
0.0128321
0.0115207
0.323293
0.245617
0.187499
0.144536
0.112864
0.0894038
0.0718631
0.0585862
0.0483992
0.0404738
0.034224
0.0292324
0.0251979
0.021901
0.0191795
0.0169119
0.015006
0.0133902
0.0120042
0.0107708
0.322005
0.239026
0.177588
0.133616
0.102323
0.0798668
0.0635104
0.0513819
0.0422214
0.0351791
0.0296753
0.0253088
0.0217974
0.0189387
0.0165855
0.014629
0.0129877
0.011599
0.0104138
0.00938483
0.31754
0.217754
0.151085
0.108549
0.0807156
0.0618726
0.0486774
0.0391418
0.0320588
0.0266717
0.0224903
0.0191877
0.0165395
0.0143876
0.0126186
0.0111508
0.00992246
0.00888594
0.00800901
0.00726665
0.283364
0.126774
0.071702
0.0473282
0.0338663
0.0256617
0.0204609
0.0167972
0.0140488
0.0119416
0.0102847
0.00895673
0.00788607
0.00701272
0.00629085
0.00568821
0.00518291
0.00475786
0.00440228
0.00411827
0.292299
0.141633
0.0819301
0.0541653
0.038923
0.0292873
0.0232721
0.0190784
0.0159337
0.0135144
0.0116259
0.0101115
0.0088799
0.00786807
0.00702843
0.00632515
0.00573036
0.00522266
0.00478868
0.00446012
0.319723
0.227073
0.162232
0.118772
0.0893609
0.0689925
0.0545302
0.043984
0.0360991
0.0300738
0.0253808
0.0216633
0.0186749
0.0162412
0.0142362
0.012567
0.0111639
0.0099738
0.00895418
0.00806355
0.323293
0.245617
0.187499
0.144536
0.112864
0.0894038
0.0718631
0.0585862
0.0483992
0.0404738
0.034224
0.0292324
0.0251979
0.021901
0.0191795
0.0169119
0.015006
0.0133902
0.0120041
0.0107706
0.324288
0.250862
0.19613
0.154888
0.123591
0.09968
0.0812741
0.0669838
0.0557848
0.0469223
0.0398395
0.0341236
0.0294674
0.02564
0.0224669
0.0198149
0.0175811
0.0156843
0.0140557
0.0126205
0.32459
0.252403
0.19891
0.158543
0.12769
0.103871
0.0853201
0.0707499
0.05921
0.0499927
0.0425685
0.0365384
0.0316006
0.0275251
0.0241354
0.0212954
0.0188985
0.0168597
0.015106
0.0135592
0.32459
0.252403
0.19891
0.158543
0.12769
0.103871
0.08532
0.0707499
0.0592099
0.0499926
0.0425683
0.0365382
0.0316003
0.0275246
0.0241348
0.0212946
0.0188974
0.0168579
0.015102
0.0135441
0.324288
0.250862
0.19613
0.154888
0.123591
0.09968
0.0812741
0.0669838
0.0557848
0.0469223
0.0398395
0.0341236
0.0294674
0.02564
0.0224669
0.0198149
0.0175812
0.0156843
0.0140558
0.0126206
0.323293
0.245617
0.187499
0.144537
0.112864
0.0894039
0.0718633
0.0585866
0.0483997
0.0404745
0.034225
0.0292338
0.0251998
0.0219038
0.0191833
0.0169173
0.0150135
0.0134009
0.0120223
0.0108234
0.319723
0.227073
0.162232
0.118772
0.0893612
0.0689929
0.0545308
0.0439847
0.0361002
0.0300753
0.025383
0.0216664
0.0186795
0.0162478
0.0142457
0.0125807
0.0111839
0.0100026
0.00899581
0.00813432
0.292299
0.141633
0.0819302
0.0541654
0.0389231
0.0292875
0.0232724
0.0190788
0.0159344
0.0135153
0.0116273
0.0101135
0.00888292
0.00787264
0.00703539
0.00633562
0.00574626
0.00524661
0.00482149
0.00446565
0.295943
0.148782
0.0871941
0.0576749
0.0415194
0.0310722
0.024645
0.0202209
0.0169048
0.0143247
0.012308
0.0107016
0.00939509
0.00832078
0.00742842
0.00668034
0.00604747
0.00550791
0.00504898
0.00470247
0.320484
0.23086
0.167176
0.123531
0.0935159
0.0724824
0.0574406
0.0464211
0.0381536
0.0318169
0.0268704
0.022946
0.0197871
0.0172114
0.0150875
0.0133182
0.0118305
0.0105684
0.00948871
0.00856101
0.323714
0.247819
0.191099
0.14881
0.117249
0.0935707
0.0756572
0.0619604
0.0513625
0.043061
0.0364789
0.031199
0.026917
0.0234085
0.0205063
0.0180845
0.0160463
0.0143167
0.0128322
0.0115208
0.32459
0.252403
0.19891
0.158543
0.12769
0.103871
0.08532
0.0707499
0.0592099
0.0499926
0.0425683
0.0365382
0.0316003
0.0275246
0.0241348
0.0212946
0.0188974
0.0168579
0.015102
0.0135441
0.324844
0.253685
0.20131
0.161836
0.131535
0.107943
0.0893701
0.0746126
0.0627921
0.0532535
0.0455015
0.0391575
0.0339304
0.0295946
0.0259743
0.0229316
0.0203573
0.0181623
0.016266
0.0145688
0.324844
0.253685
0.20131
0.161836
0.131535
0.107943
0.0893701
0.0746126
0.0627921
0.0532535
0.0455015
0.0391575
0.0339304
0.0295946
0.0259743
0.0229316
0.0203573
0.0181623
0.0162661
0.0145688
0.32459
0.252403
0.19891
0.158543
0.12769
0.103871
0.0853201
0.0707499
0.05921
0.0499927
0.0425685
0.0365384
0.0316006
0.0275251
0.0241354
0.0212954
0.0188985
0.0168597
0.0151061
0.0135594
0.323714
0.247819
0.191099
0.14881
0.117249
0.0935708
0.0756574
0.0619607
0.0513629
0.0430614
0.0364795
0.0311998
0.0269181
0.0234101
0.0205086
0.0180876
0.0160506
0.0143227
0.0128423
0.0115486
0.320484
0.23086
0.167176
0.123531
0.093516
0.0724826
0.0574408
0.0464215
0.0381541
0.0318176
0.0268715
0.0229475
0.0197892
0.0172146
0.0150922
0.0133247
0.0118396
0.010581
0.00950603
0.00858344
0.295943
0.148782
0.0871941
0.057675
0.0415194
0.0310723
0.0246452
0.0202211
0.0169051
0.0143251
0.0123086
0.0107026
0.00939647
0.00832286
0.00743165
0.00668506
0.00605436
0.00551776
0.00506139
0.00470338
0.295943
0.148782
0.0871941
0.057675
0.0415194
0.0310723
0.0246452
0.0202211
0.0169051
0.0143251
0.0123086
0.0107026
0.0093965
0.00832289
0.0074316
0.00668502
0.00605434
0.00551775
0.00506141
0.00470341
0.320484
0.23086
0.167176
0.123531
0.093516
0.0724826
0.0574408
0.0464215
0.0381541
0.0318176
0.0268715
0.0229475
0.0197892
0.0172146
0.0150921
0.0133247
0.0118396
0.0105811
0.00950621
0.00858369
0.323714
0.247819
0.191099
0.14881
0.117249
0.0935708
0.0756574
0.0619607
0.0513629
0.0430614
0.0364795
0.0311998
0.0269182
0.0234101
0.0205086
0.0180876
0.0160506
0.0143227
0.0128423
0.0115487
0.32459
0.252403
0.19891
0.158543
0.12769
0.103871
0.0853201
0.0707499
0.05921
0.0499927
0.0425685
0.0365384
0.0316006
0.0275251
0.0241354
0.0212954
0.0188985
0.0168597
0.015106
0.0135595
0.324844
0.253685
0.20131
0.161836
0.131535
0.107943
0.0893701
0.0746126
0.0627921
0.0532535
0.0455015
0.0391575
0.0339304
0.0295946
0.0259743
0.0229316
0.0203573
0.0181623
0.0162661
0.0145689
0.324844
0.253685
0.20131
0.161836
0.131535
0.107943
0.0893701
0.0746126
0.0627921
0.0532535
0.0455015
0.0391575
0.0339304
0.0295946
0.0259743
0.0229316
0.0203573
0.0181623
0.0162661
0.0145688
0.32459
0.252403
0.19891
0.158543
0.12769
0.103871
0.08532
0.0707499
0.0592099
0.0499926
0.0425683
0.0365382
0.0316003
0.0275246
0.0241348
0.0212946
0.0188974
0.0168579
0.015102
0.013544
0.323714
0.247819
0.191099
0.14881
0.117249
0.0935707
0.0756572
0.0619604
0.0513625
0.043061
0.0364789
0.031199
0.0269169
0.0234085
0.0205064
0.0180845
0.0160463
0.0143166
0.0128321
0.0115206
0.320484
0.23086
0.167176
0.123531
0.0935159
0.0724824
0.0574406
0.0464211
0.0381536
0.0318169
0.0268704
0.022946
0.019787
0.0172114
0.0150876
0.0133183
0.0118305
0.0105684
0.00948859
0.00856087
0.295943
0.148782
0.0871941
0.0576749
0.0415194
0.0310722
0.024645
0.0202209
0.0169048
0.0143247
0.012308
0.0107016
0.00939505
0.00832073
0.00742851
0.00668041
0.00604753
0.00550796
0.00504902
0.00470249
0.292299
0.141633
0.0819302
0.0541654
0.0389231
0.0292875
0.0232724
0.0190788
0.0159344
0.0135153
0.0116273
0.0101135
0.00888293
0.00787264
0.00703538
0.00633562
0.00574627
0.00524664
0.00482155
0.00446577
0.319723
0.227073
0.162232
0.118772
0.0893612
0.0689929
0.0545308
0.0439847
0.0361002
0.0300753
0.025383
0.0216664
0.0186795
0.0162478
0.0142457
0.0125807
0.0111839
0.0100027
0.00899596
0.00813455
0.323293
0.245617
0.187499
0.144537
0.112864
0.0894039
0.0718633
0.0585866
0.0483997
0.0404745
0.034225
0.0292338
0.0251998
0.0219038
0.0191834
0.0169173
0.0150135
0.0134009
0.0120222
0.0108234
0.324288
0.250862
0.19613
0.154888
0.123591
0.09968
0.0812741
0.0669838
0.0557847
0.0469223
0.0398395
0.0341236
0.0294673
0.02564
0.0224669
0.0198149
0.0175811
0.0156843
0.0140557
0.0126206
0.32459
0.252403
0.19891
0.158543
0.12769
0.103871
0.08532
0.0707499
0.0592099
0.0499926
0.0425683
0.0365382
0.0316003
0.0275246
0.0241348
0.0212946
0.0188974
0.0168579
0.0151021
0.0135441
0.32459
0.252403
0.19891
0.158543
0.12769
0.103871
0.0853201
0.0707499
0.05921
0.0499927
0.0425685
0.0365384
0.0316006
0.0275251
0.0241354
0.0212954
0.0188985
0.0168597
0.015106
0.0135592
0.324288
0.250862
0.19613
0.154888
0.123591
0.09968
0.0812741
0.0669838
0.0557847
0.0469223
0.0398395
0.0341236
0.0294674
0.02564
0.0224669
0.0198149
0.0175811
0.0156843
0.0140557
0.0126205
0.323293
0.245617
0.187499
0.144536
0.112864
0.0894038
0.0718631
0.0585862
0.0483992
0.0404737
0.034224
0.0292324
0.0251979
0.021901
0.0191795
0.0169119
0.015006
0.0133902
0.0120041
0.0107706
0.319723
0.227073
0.162232
0.118772
0.0893609
0.0689925
0.0545302
0.043984
0.0360991
0.0300738
0.0253808
0.0216633
0.0186749
0.0162412
0.0142362
0.012567
0.011164
0.00997383
0.00895422
0.00806361
0.292299
0.141633
0.0819301
0.0541653
0.038923
0.0292873
0.0232721
0.0190784
0.0159337
0.0135144
0.0116259
0.0101115
0.00887987
0.00786802
0.00702849
0.0063252
0.00573041
0.00522271
0.00478874
0.00446025
0.283364
0.126774
0.071702
0.0473282
0.0338663
0.0256617
0.0204609
0.0167972
0.0140488
0.0119416
0.0102847
0.00895673
0.00788606
0.00701272
0.00629086
0.00568822
0.00518291
0.00475786
0.00440233
0.00411843
0.31754
0.217754
0.151085
0.108549
0.0807156
0.0618726
0.0486774
0.0391418
0.0320587
0.0266717
0.0224903
0.0191876
0.0165395
0.0143876
0.0126187
0.0111509
0.00992246
0.00888592
0.008009
0.00726663
0.322005
0.239026
0.177588
0.133616
0.102323
0.0798668
0.0635104
0.0513819
0.0422214
0.0351791
0.0296753
0.0253088
0.0217973
0.0189387
0.0165855
0.014629
0.0129877
0.011599
0.0104136
0.00938461
0.323293
0.245617
0.187499
0.144536
0.112864
0.0894038
0.0718631
0.0585862
0.0483992
0.0404737
0.034224
0.0292323
0.0251978
0.021901
0.0191795
0.0169119
0.015006
0.0133902
0.0120041
0.0107706
0.323714
0.247819
0.191099
0.14881
0.117249
0.0935707
0.0756572
0.0619604
0.0513625
0.043061
0.0364789
0.031199
0.026917
0.0234085
0.0205063
0.0180844
0.0160463
0.0143166
0.0128321
0.0115205
0.323714
0.247819
0.191099
0.14881
0.117249
0.0935708
0.0756574
0.0619607
0.0513629
0.0430614
0.0364795
0.0311998
0.0269181
0.0234101
0.0205086
0.0180875
0.0160506
0.0143226
0.0128422
0.0115485
0.323293
0.245617
0.187499
0.144537
0.112864
0.0894039
0.0718633
0.0585866
0.0483997
0.0404745
0.034225
0.0292338
0.0251998
0.0219037
0.0191833
0.0169173
0.0150135
0.0134009
0.0120222
0.0108233
0.322005
0.239026
0.177588
0.133616
0.102323
0.0798668
0.0635104
0.0513819
0.0422214
0.0351791
0.0296753
0.0253088
0.0217974
0.0189387
0.0165855
0.014629
0.0129876
0.0115989
0.0104136
0.00938461
0.31754
0.217754
0.151085
0.108549
0.0807154
0.0618723
0.048677
0.0391413
0.0320579
0.0266705
0.0224886
0.0191852
0.0165359
0.0143824
0.0126111
0.0111397
0.00990566
0.00886032
0.00796954
0.00717778
0.283364
0.126774
0.0717019
0.0473281
0.0338662
0.0256615
0.0204607
0.0167968
0.0140483
0.0119406
0.0102833
0.00895471
0.00788307
0.00700817
0.00628374
0.00567709
0.00516532
0.00472969
0.00435794
0.00405224
0.264759
0.104702
0.0585298
0.039163
0.0286199
0.0219934
0.0175361
0.0143633
0.0120083
0.0102139
0.00881653
0.00770608
0.00680465
0.00606235
0.00545148
0.00495145
0.00453712
0.00419366
0.0039218
0.00372115
0.311746
0.197541
0.130357
0.0911456
0.0668022
0.050811
0.0397944
0.031912
0.0260941
0.0216872
0.0182764
0.0155883
0.0134406
0.0116976
0.0102661
0.00907808
0.00808226
0.00723979
0.0065363
0.00591029
0.31754
0.217754
0.151085
0.108549
0.0807154
0.0618723
0.048677
0.0391413
0.0320579
0.0266705
0.0224886
0.0191852
0.0165359
0.0143824
0.0126111
0.0111396
0.00990561
0.00886026
0.00796944
0.0071776
0.319723
0.227073
0.162232
0.118772
0.0893609
0.0689925
0.0545302
0.043984
0.0360991
0.0300738
0.0253808
0.0216633
0.0186749
0.0162412
0.0142361
0.0125669
0.0111639
0.00997373
0.00895412
0.00806341
0.320484
0.23086
0.167176
0.123531
0.0935159
0.0724824
0.0574406
0.0464211
0.0381536
0.0318169
0.0268704
0.022946
0.019787
0.0172114
0.0150874
0.0133182
0.0118304
0.0105683
0.00948852
0.00856075
0.320484
0.23086
0.167176
0.123531
0.093516
0.0724826
0.0574408
0.0464215
0.0381541
0.0318176
0.0268715
0.0229475
0.0197892
0.0172146
0.015092
0.0133247
0.0118395
0.010581
0.00950607
0.00858354
0.319723
0.227073
0.162232
0.118772
0.0893612
0.0689929
0.0545308
0.0439847
0.0361002
0.0300753
0.025383
0.0216664
0.0186795
0.0162478
0.0142457
0.0125807
0.0111839
0.0100026
0.00899589
0.00813443
0.31754
0.217754
0.151085
0.108549
0.0807156
0.0618726
0.0486774
0.0391418
0.0320587
0.0266717
0.0224903
0.0191876
0.0165395
0.0143876
0.0126186
0.0111508
0.00992244
0.0088859
0.008009
0.00726667
0.311746
0.197541
0.130357
0.0911456
0.0668022
0.0508111
0.0397944
0.031912
0.0260941
0.0216872
0.0182764
0.0155883
0.0134406
0.0116975
0.0102661
0.00907811
0.0080823
0.00723983
0.00653637
0.00591041
0.264759
0.104702
0.0585298
0.039163
0.0286199
0.0219934
0.017536
0.0143632
0.0120081
0.0102136
0.00881607
0.00770528
0.00680332
0.00605934
0.00544698
0.00494396
0.00452354
0.00416757
0.00387091
0.00362983
0.213564
0.055916
0.0283994
0.0193412
0.0146927
0.0118511
0.00989064
0.00851599
0.00749122
0.00669617
0.00606034
0.0055506
0.00512256
0.00474456
0.00442471
0.00415604
0.00392915
0.00373815
0.00359836
0.00344205
0.264759
0.104702
0.0585298
0.039163
0.0286199
0.0219934
0.017536
0.0143632
0.0120081
0.0102136
0.00881606
0.00770528
0.0068033
0.00605938
0.00544693
0.00494392
0.00452348
0.00416747
0.00387076
0.00362968
0.283364
0.126774
0.0717019
0.0473281
0.0338662
0.0256615
0.0204607
0.0167968
0.0140483
0.0119406
0.0102833
0.00895471
0.00788308
0.00700821
0.0062837
0.00567704
0.00516526
0.00472963
0.00435784
0.00405199
0.292299
0.141633
0.0819301
0.0541653
0.038923
0.0292873
0.0232721
0.0190783
0.0159337
0.0135144
0.0116259
0.0101115
0.00887989
0.00786806
0.00702841
0.00632513
0.00573034
0.00522263
0.00478864
0.00446006
0.295943
0.148782
0.0871941
0.0576749
0.0415194
0.0310722
0.024645
0.0202209
0.0169048
0.0143247
0.012308
0.0107016
0.00939509
0.00832078
0.0074284
0.00668033
0.00604747
0.00550791
0.00504898
0.00470248
0.295943
0.148782
0.0871941
0.057675
0.0415194
0.0310723
0.0246452
0.0202211
0.0169051
0.0143251
0.0123086
0.0107026
0.0093965
0.00832289
0.00743159
0.00668502
0.00605434
0.00551776
0.00506143
0.00470343
0.292299
0.141633
0.0819302
0.0541654
0.0389231
0.0292875
0.0232724
0.0190788
0.0159344
0.0135153
0.0116273
0.0101135
0.00888293
0.00787264
0.00703539
0.00633563
0.00574627
0.00524665
0.00482156
0.00446565
0.283364
0.126774
0.071702
0.0473282
0.0338663
0.0256617
0.0204609
0.0167972
0.0140488
0.0119416
0.0102847
0.00895673
0.00788607
0.00701272
0.00629085
0.00568821
0.00518291
0.00475786
0.00440232
0.0041184
0.264759
0.104702
0.0585298
0.039163
0.0286199
0.0219934
0.0175361
0.0143633
0.0120083
0.0102139
0.00881653
0.00770608
0.00680466
0.00606233
0.00545151
0.00495147
0.00453713
0.00419368
0.00392183
0.00372119
0.213564
0.055916
0.0283994
0.0193412
0.0146927
0.0118511
0.00989064
0.00851599
0.00749122
0.00669618
0.00606032
0.00555063
0.00512252
0.0047446
0.0044247
0.00415605
0.00392918
0.00373819
0.00359845
0.00344217
0.00393592
0.00352415
0.00317394
0.00296481
0.002834
0.00274223
0.00266809
0.00260153
0.00254218
0.00249169
0.00244599
0.00240236
0.002359
0.00231625
0.00227556
0.00223591
0.00219849
0.00216229
0.00212807
0.00209561
0.00206341
0.00203274
0.002004
0.00197668
0.00195006
0.00192456
0.00189951
0.00187485
0.00185143
0.0018296
0.00180661
0.00178562
0.00176473
0.00174536
0.00173046
0.00170954
0.00169529
0.00168006
0.00166776
0.00164971
0.00336782
0.0031053
0.00289433
0.00274558
0.00263142
0.00253938
0.00245782
0.00238254
0.00231199
0.00225065
0.00219602
0.00214578
0.00209768
0.00205348
0.00200901
0.0019665
0.0019267
0.00188971
0.00185479
0.00182224
0.00179065
0.00176051
0.00173243
0.00170676
0.00168255
0.00165902
0.00163638
0.0016145
0.00159269
0.00157311
0.00155323
0.0015338
0.0015157
0.0014977
0.00148375
0.00146882
0.00145353
0.00144004
0.00142796
0.00141458
0.00393904
0.00347487
0.00319831
0.00300716
0.00285063
0.00271885
0.00260629
0.00250827
0.00242108
0.00234168
0.00226958
0.00220471
0.00214588
0.00209628
0.00204219
0.00199275
0.00194754
0.00190637
0.00186773
0.00183091
0.00179571
0.00175926
0.00172613
0.00169627
0.00166963
0.00164339
0.00161808
0.00159383
0.00157086
0.00154971
0.00152757
0.00150677
0.00148735
0.00147017
0.00145695
0.00143919
0.00142322
0.00140812
0.00139407
0.00138093
0.004089
0.00371112
0.0034337
0.00321564
0.00303545
0.00288255
0.00274891
0.00263066
0.00252487
0.0024295
0.002343
0.00226394
0.00219083
0.00212502
0.00206493
0.00200925
0.00195763
0.00191032
0.00186551
0.00181949
0.00177787
0.00173967
0.00170247
0.00166856
0.00163654
0.00160654
0.00157849
0.00155196
0.00152546
0.00150159
0.00147785
0.00145572
0.00143533
0.00141663
0.00139991
0.00138556
0.00136957
0.00135413
0.00133981
0.00132659
0.00417704
0.00385667
0.00358877
0.00336151
0.0031661
0.00299632
0.00284787
0.00271662
0.00259844
0.00249142
0.00239398
0.00230475
0.00222239
0.00214852
0.00208056
0.00201802
0.0019611
0.00190806
0.00185862
0.00181267
0.00177046
0.00173047
0.00168897
0.0016521
0.00161765
0.00158562
0.00155562
0.00152767
0.00149966
0.00147561
0.00145144
0.00142929
0.00140822
0.00138868
0.0013712
0.00135774
0.00133958
0.00132318
0.00130796
0.00129428
0.00419178
0.00390818
0.00365336
0.00342648
0.00322556
0.00304718
0.00288914
0.00274851
0.00262162
0.00250626
0.00240141
0.00230581
0.00221788
0.00213904
0.00206684
0.00200064
0.00193988
0.00188437
0.00183373
0.00178697
0.00174375
0.00170387
0.0016663
0.00163159
0.00159513
0.00156046
0.00152869
0.00150024
0.00147186
0.00144877
0.00142555
0.00140265
0.00137894
0.00135854
0.00133977
0.00132365
0.00131017
0.00129402
0.00127879
0.00126487
0.00428834
0.00395559
0.00367179
0.00342514
0.00320996
0.00302032
0.00285289
0.00270464
0.00257259
0.00245465
0.0023491
0.00225412
0.00216807
0.00209107
0.00202103
0.00195713
0.00189873
0.00184526
0.00179642
0.00175168
0.00171082
0.0016721
0.00163497
0.00160102
0.00156533
0.00153209
0.00150165
0.0014738
0.00144592
0.00142192
0.00139829
0.0013743
0.00135204
0.00133184
0.00131369
0.00129769
0.00128468
0.00126715
0.00125082
0.00123584
0.00427281
0.00388068
0.00355809
0.00329231
0.00307289
0.00288287
0.00271995
0.0025795
0.00245724
0.00234973
0.00225508
0.00217005
0.00209285
0.00202328
0.00196002
0.00190211
0.00184955
0.00180117
0.00175667
0.00171525
0.0016784
0.00163968
0.00160354
0.00157059
0.00153927
0.00150959
0.00148151
0.00145445
0.00142665
0.0014015
0.00137908
0.00135761
0.00133654
0.00131644
0.00129726
0.00128021
0.0012663
0.00124825
0.00123181
0.00121661
0.00411866
0.00368736
0.00333766
0.00305019
0.00284227
0.00267866
0.00254282
0.00242757
0.00232704
0.00223873
0.00216035
0.00209026
0.00202751
0.00196944
0.00191775
0.00186379
0.00181545
0.00177188
0.00173198
0.00169384
0.0016587
0.00162443
0.00159225
0.00156093
0.00153138
0.00150385
0.0014776
0.00145281
0.00142922
0.00140707
0.00138512
0.00136404
0.00134393
0.00132447
0.00130582
0.00129024
0.00127649
0.00126049
0.00124567
0.0012319
0.00384209
0.00345601
0.00311085
0.00285209
0.0026681
0.00253535
0.00242975
0.00233845
0.00225866
0.00219155
0.0021319
0.00208065
0.00202961
0.00197608
0.00192823
0.00188329
0.00184099
0.00180165
0.00176449
0.00172976
0.00169667
0.00166581
0.00163721
0.0016106
0.00158515
0.0015608
0.0015374
0.00151483
0.00149233
0.00147143
0.00145082
0.00143117
0.0014126
0.00139484
0.001377
0.00136341
0.00134864
0.0013339
0.00132154
0.00130749
0.00393619
0.00352436
0.00317461
0.00296578
0.00283481
0.00274526
0.00267156
0.00260442
0.00254407
0.00249255
0.00244658
0.00240265
0.00235856
0.00231543
0.00227456
0.00223535
0.00219788
0.00216191
0.00212784
0.00209524
0.00206325
0.00203233
0.00200387
0.00197638
0.00194993
0.00192436
0.00189937
0.00187477
0.00185138
0.00182952
0.00180645
0.00178551
0.00176475
0.00174504
0.00172724
0.00171356
0.00169527
0.00168006
0.0016669
0.00164767
0.00384252
0.00345482
0.00310874
0.00285109
0.00266744
0.0025321
0.00242556
0.00233519
0.00225638
0.00219024
0.00213113
0.00208004
0.00202943
0.00197691
0.00192946
0.00188413
0.00184184
0.00180232
0.00176501
0.00173028
0.00169714
0.00166623
0.00163772
0.00161111
0.0015857
0.0015613
0.00153793
0.00151537
0.00149285
0.00147209
0.0014515
0.00143186
0.00141327
0.00139507
0.00137896
0.0013646
0.00134871
0.00133473
0.00132281
0.00130931
0.00430329
0.00385238
0.00352471
0.00327279
0.00305094
0.00287087
0.00269661
0.00252944
0.00237618
0.00225044
0.00213101
0.00202287
0.00191304
0.00181063
0.00171667
0.00163196
0.00155402
0.00148427
0.0014187
0.00135946
0.00129753
0.00124039
0.00119651
0.00115347
0.00111218
0.00107301
0.00103607
0.00100119
0.000967955
0.000929121
0.000894737
0.000865504
0.0008388
0.000814021
0.000784728
0.0007592
0.000738434
0.000721204
0.000707148
0.000696505
0.00598132
0.00537671
0.00487682
0.0044627
0.00411122
0.0038073
0.00354038
0.00330374
0.00309171
0.00290052
0.00272736
0.00257286
0.00242613
0.0023019
0.00218341
0.00207877
0.00197891
0.00189109
0.00180682
0.00173007
0.001657
0.00158589
0.00152376
0.00146038
0.00140344
0.00134839
0.0012966
0.00124825
0.00120394
0.00115471
0.00110635
0.00106376
0.00102264
0.000987009
0.000951957
0.000909119
0.000871172
0.000837733
0.000803909
0.000773482
0.00690118
0.00621897
0.0056454
0.00515828
0.00474202
0.0043826
0.00406478
0.00378218
0.00352942
0.00330238
0.00309844
0.00291449
0.00274797
0.00259704
0.00245987
0.00233483
0.0022202
0.00211494
0.00201909
0.0019285
0.00184806
0.00176972
0.00169829
0.00162795
0.00156626
0.00150648
0.00145298
0.00139812
0.00135045
0.00129876
0.00124791
0.00120119
0.00115528
0.00111488
0.00107537
0.00102952
0.00098762
0.000951867
0.000914871
0.000870327
0.00728716
0.00662279
0.00603888
0.00552838
0.00508138
0.0046893
0.00434575
0.00404337
0.00377173
0.00352685
0.00330614
0.00310647
0.00292727
0.00276343
0.0026145
0.00247878
0.0023548
0.00224122
0.00213697
0.0020405
0.00195271
0.00186392
0.00178072
0.00171123
0.00164834
0.00158945
0.00153268
0.00147474
0.00142124
0.00136783
0.00131796
0.00126958
0.00122131
0.00117694
0.00113365
0.0010846
0.0010401
0.000999583
0.000955631
0.000911311
0.00745297
0.00676952
0.00617216
0.00564923
0.0051908
0.0047875
0.0044343
0.00412435
0.00384864
0.00360002
0.00337564
0.00317255
0.00299049
0.00282391
0.00267237
0.0025341
0.0024076
0.00229153
0.00218478
0.00208617
0.00199511
0.00191004
0.00183065
0.00174691
0.00166957
0.00160569
0.0015495
0.00149635
0.00144531
0.00139459
0.00134837
0.00129688
0.00124427
0.00119498
0.00114736
0.00109503
0.00104878
0.00100334
0.000962122
0.000909705
0.00728511
0.00659595
0.00599969
0.00548377
0.00503627
0.00464786
0.00431007
0.004014
0.00374933
0.00351153
0.00329756
0.00310405
0.00292962
0.00277021
0.00262484
0.00249178
0.00236962
0.00225702
0.00215303
0.00205657
0.00196708
0.00188314
0.00180533
0.00172564
0.00165768
0.00159203
0.00152746
0.00146844
0.00141231
0.00135305
0.00129799
0.00124489
0.00119171
0.00114357
0.00109666
0.00104245
0.000994395
0.000947061
0.000904515
0.000849776
0.00671071
0.00603368
0.0054708
0.005
0.00460402
0.00426689
0.00397191
0.00370882
0.00347293
0.00326039
0.00306827
0.00289295
0.00273236
0.00258605
0.00245167
0.00232781
0.00221368
0.00210789
0.00201018
0.00191861
0.00183345
0.00175287
0.00167817
0.00160475
0.00153447
0.0014704
0.00140612
0.00134837
0.00129194
0.00123124
0.00117308
0.00111943
0.00106569
0.00101829
0.00097063
0.000922345
0.000872087
0.000825738
0.000787773
0.000740284
0.00569361
0.00507774
0.00460934
0.00424144
0.00393613
0.00367058
0.00343271
0.0032135
0.00301638
0.00283608
0.0026714
0.00251596
0.00237395
0.0022432
0.00212255
0.00200998
0.00190839
0.0018124
0.00172635
0.00164297
0.00156746
0.00149196
0.00142772
0.00136214
0.00130082
0.00124576
0.00119031
0.00114154
0.00109421
0.00104156
0.000991271
0.000946873
0.000904583
0.000863091
0.000821442
0.000787154
0.000750946
0.00071636
0.000687985
0.000662618
0.00430457
0.00385543
0.0035252
0.00327481
0.00307029
0.00288498
0.00270865
0.00253668
0.00238042
0.0022526
0.00213325
0.00202553
0.00191334
0.00180882
0.0017146
0.00163014
0.00155286
0.00148297
0.00141805
0.00135921
0.00129689
0.00124058
0.00119629
0.00115319
0.00111126
0.00107262
0.00103552
0.00100068
0.000967495
0.000928647
0.000894465
0.000865215
0.00083847
0.000813978
0.000791631
0.000768333
0.000738942
0.000717239
0.000703166
0.000693284
0.00336802
0.00310676
0.00289585
0.00274697
0.00263504
0.00254368