/*--------------------------------*- C++ -*----------------------------------*\
| =========                 |                                                 |
| \\      /  F ield         | OpenFOAM: The Open Source CFD Toolbox           |
|  \\    /   O peration     | Version:  2212                                  |
|   \\  /    A nd           | Website:  www.openfoam.com                      |
|    \\/     M anipulation  |                                                 |
\*---------------------------------------------------------------------------*/
FoamFile
{
    version     2.0;
    format      ascii;
    arch        "LSB;label=32;scalar=64";
    class       volScalarField;
    location    "1.3";
    object      nut;
}
// * * * * * * * * * * * * * * * * * * * * * * * * * * * * * * * * * * * * * //

dimensions      [0 2 -1 0 0 0 0];

internalField   nonuniform List<scalar> 
6840
(
4.5356e-05
2.3208e-05
1.65396e-05
1.36493e-05
1.18966e-05
1.06844e-05
9.76074e-06
9.05706e-06
8.49466e-06
8.03123e-06
7.64039e-06
7.31195e-06
7.02424e-06
6.7599e-06
6.52767e-06
6.3258e-06
6.14973e-06
5.99612e-06
5.87424e-06
5.73278e-06
0.000107685
6.77183e-05
5.06311e-05
4.14159e-05
3.54048e-05
3.10367e-05
2.77137e-05
2.50816e-05
2.29334e-05
2.11507e-05
1.96507e-05
1.83715e-05
1.72635e-05
1.62947e-05
1.54514e-05
1.47254e-05
1.40948e-05
1.35473e-05
1.30915e-05
1.27368e-05
0.000160509
0.00010736
8.07409e-05
6.55976e-05
5.54896e-05
4.83026e-05
4.31311e-05
3.90792e-05
3.57395e-05
3.29502e-05
3.05789e-05
2.85366e-05
2.67766e-05
2.52503e-05
2.3915e-05
2.27402e-05
2.17055e-05
2.0794e-05
1.99955e-05
1.93156e-05
0.000198681
0.0001383
0.000105187
8.55269e-05
7.25013e-05
6.28902e-05
5.60612e-05
5.07595e-05
4.63884e-05
4.27223e-05
3.96261e-05
3.69567e-05
3.46354e-05
3.26064e-05
3.08239e-05
2.92508e-05
2.7857e-05
2.66181e-05
2.55154e-05
2.45484e-05
0.000218609
0.000155003
0.000118661
9.65069e-05
8.18824e-05
7.08356e-05
6.30857e-05
5.71436e-05
5.22486e-05
4.80966e-05
4.45832e-05
4.15731e-05
3.89541e-05
3.66617e-05
3.4644e-05
3.28586e-05
3.12717e-05
2.98561e-05
2.85973e-05
2.75442e-05
0.000218609
0.000155003
0.000118661
9.65069e-05
8.18823e-05
7.08355e-05
6.30855e-05
5.71434e-05
5.22482e-05
4.8096e-05
4.45822e-05
4.15715e-05
3.89516e-05
3.66576e-05
3.46374e-05
3.28487e-05
3.12567e-05
2.98341e-05
2.85706e-05
2.75749e-05
0.000198681
0.0001383
0.000105187
8.55269e-05
7.25012e-05
6.289e-05
5.60609e-05
5.0759e-05
4.63876e-05
4.2721e-05
3.96239e-05
3.69533e-05
3.463e-05
3.25978e-05
3.08103e-05
2.92295e-05
2.78235e-05
2.65666e-05
2.54483e-05
2.45989e-05
0.000160509
0.00010736
8.07408e-05
6.55975e-05
5.54895e-05
4.83025e-05
4.31309e-05
3.90788e-05
3.57389e-05
3.2949e-05
3.05771e-05
2.85337e-05
2.6772e-05
2.52426e-05
2.39026e-05
2.27197e-05
2.16715e-05
2.07369e-05
1.99035e-05
1.91953e-05
0.000107685
6.77183e-05
5.06311e-05
4.14159e-05
3.54048e-05
3.10367e-05
2.77137e-05
2.50816e-05
2.29333e-05
2.11504e-05
1.96502e-05
1.83706e-05
1.7262e-05
1.62905e-05
1.54454e-05
1.47146e-05
1.40742e-05
1.35064e-05
1.30105e-05
1.25921e-05
4.5356e-05
2.3208e-05
1.65396e-05
1.36493e-05
1.18966e-05
1.06844e-05
9.76074e-06
9.05707e-06
8.49466e-06
8.03123e-06
7.64038e-06
7.31198e-06
7.02423e-06
6.75988e-06
6.52769e-06
6.32583e-06
6.14976e-06
5.99615e-06
5.87426e-06
5.73298e-06
0.000107685
6.77183e-05
5.06311e-05
4.14159e-05
3.54048e-05
3.10367e-05
2.77137e-05
2.50816e-05
2.29333e-05
2.11504e-05
1.96502e-05
1.83706e-05
1.72619e-05
1.62909e-05
1.54451e-05
1.47144e-05
1.40741e-05
1.35062e-05
1.30104e-05
1.25918e-05
0.000528907
0.000369984
0.000305097
0.000261371
0.000228528
0.000202475
0.000181113
0.000163072
0.000147537
0.000133981
0.000122045
0.00011146
0.000102124
9.38458e-05
8.64292e-05
7.96256e-05
7.34128e-05
6.77958e-05
6.35658e-05
5.61109e-05
0.000663952
0.000488458
0.000404619
0.000347248
0.000305036
0.000272128
0.000245319
0.00022289
0.000203758
0.000187183
0.00017266
0.000159823
0.000148388
0.000138141
0.000128915
0.00012071
0.000113332
0.000106629
0.00010099
9.4983e-05
0.00071288
0.000556432
0.000466397
0.000402355
0.000354426
0.000317051
0.000286676
0.000261257
0.000239584
0.00022085
0.000204451
0.000189963
0.000177066
0.000165506
0.000155082
0.000145649
0.000137085
0.000129283
0.000122164
0.00011599
0.000728543
0.000588231
0.000496002
0.000429132
0.00037851
0.000338935
0.000306819
0.000279974
0.000257074
0.000237257
0.000219911
0.000204579
0.000190919
0.000178665
0.000167611
0.00015758
0.000148441
0.000140073
0.000132361
0.0001252
0.000728543
0.000588231
0.000496002
0.000429131
0.000378509
0.000338934
0.000306818
0.000279972
0.00025707
0.000237252
0.000219902
0.000204565
0.000190896
0.000178625
0.000167546
0.000157481
0.000148287
0.000139835
0.000131997
0.000124694
0.00071288
0.000556432
0.000466397
0.000402355
0.000354425
0.000317049
0.000286673
0.000261253
0.000239578
0.000220839
0.000204433
0.000189933
0.000177017
0.000165425
0.000154952
0.000145439
0.000136743
0.000128729
0.000121268
0.000114324
0.000663952
0.000488458
0.000404619
0.000347248
0.000305035
0.000272127
0.000245317
0.000222886
0.000203752
0.000187174
0.000172646
0.0001598
0.000148349
0.000138075
0.000128817
0.000120545
0.000113046
0.000106132
0.000100122
9.33826e-05
0.000528907
0.000369984
0.000305097
0.000261371
0.000228528
0.000202475
0.000181113
0.000163072
0.000147537
0.000133981
0.000122045
0.00011146
0.000102125
9.38402e-05
8.6434e-05
7.96285e-05
7.34148e-05
6.77976e-05
6.35691e-05
5.61171e-05
0.000107685
6.77183e-05
5.06311e-05
4.14159e-05
3.54048e-05
3.10367e-05
2.77137e-05
2.50816e-05
2.29334e-05
2.11507e-05
1.96507e-05
1.83715e-05
1.72636e-05
1.62944e-05
1.54516e-05
1.47255e-05
1.40948e-05
1.35474e-05
1.30915e-05
1.2737e-05
0.000160509
0.00010736
8.07408e-05
6.55975e-05
5.54895e-05
4.83025e-05
4.31309e-05
3.90788e-05
3.57389e-05
3.2949e-05
3.05771e-05
2.85337e-05
2.6772e-05
2.52429e-05
2.39024e-05
2.27196e-05
2.16715e-05
2.07369e-05
1.99035e-05
1.91953e-05
0.000663952
0.000488458
0.000404619
0.000347248
0.000305035
0.000272127
0.000245317
0.000222886
0.000203752
0.000187174
0.000172646
0.0001598
0.000148351
0.000138081
0.000128812
0.000120542
0.000113046
0.000106134
0.000100117
9.33771e-05
0.000786827
0.000662293
0.000567974
0.000495805
0.000439463
0.000394562
0.000357974
0.00032745
0.000301488
0.000279047
0.000259393
0.000241995
0.000226462
0.000212494
0.000199857
0.000188391
0.000177931
0.000168337
0.000159514
0.00015073
0.000809324
0.000713906
0.000631505
0.000562574
0.000505377
0.000457786
0.000417841
0.00038394
0.000354805
0.000329451
0.000307158
0.000287382
0.000269705
0.000253803
0.000239415
0.00022634
0.000214402
0.000203437
0.00019324
0.000183287
0.000814958
0.000730426
0.000654634
0.000589044
0.000533067
0.000485439
0.000444764
0.000409794
0.000379472
0.000352934
0.000329496
0.000308636
0.000289949
0.000273115
0.000257872
0.000244002
0.000231323
0.000219652
0.000208728
0.000197954
0.000814958
0.000730426
0.000654634
0.000589044
0.000533067
0.000485438
0.000444763
0.000409793
0.00037947
0.000352932
0.000329492
0.000308629
0.000289939
0.000273097
0.000257844
0.000243961
0.000231259
0.000219542
0.000208484
0.000197049
0.000809324
0.000713906
0.000631504
0.000562574
0.000505377
0.000457785
0.00041784
0.000383938
0.000354802
0.000329446
0.000307151
0.000287371
0.000269687
0.000253772
0.000239371
0.00022627
0.000214289
0.000203243
0.000192812
0.000181613
0.000786827
0.000662293
0.000567974
0.000495805
0.000439463
0.000394562
0.000357974
0.00032745
0.000301488
0.000279047
0.000259393
0.000241995
0.000226461
0.000212491
0.00019986
0.000188392
0.000177933
0.000168339
0.000159517
0.00015073
0.000663952
0.000488458
0.000404619
0.000347248
0.000305036
0.000272128
0.000245319
0.00022289
0.000203758
0.000187183
0.00017266
0.000159823
0.000148388
0.000138139
0.000128917
0.000120712
0.000113334
0.000106632
0.000100994
9.49753e-05
0.000160509
0.00010736
8.07409e-05
6.55976e-05
5.54896e-05
4.83026e-05
4.31311e-05
3.90792e-05
3.57395e-05
3.29502e-05
3.05789e-05
2.85366e-05
2.67766e-05
2.52502e-05
2.39151e-05
2.27402e-05
2.17055e-05
2.0794e-05
1.99955e-05
1.9315e-05
0.000198681
0.0001383
0.000105187
8.55269e-05
7.25012e-05
6.289e-05
5.60609e-05
5.0759e-05
4.63876e-05
4.2721e-05
3.9624e-05
3.69534e-05
3.46301e-05
3.25979e-05
3.08101e-05
2.92294e-05
2.78235e-05
2.65666e-05
2.54483e-05
2.45988e-05
0.00071288
0.000556432
0.000466397
0.000402355
0.000354425
0.000317049
0.000286673
0.000261253
0.000239578
0.00022084
0.000204434
0.000189934
0.000177019
0.000165427
0.000154949
0.000145438
0.000136744
0.000128731
0.000121271
0.000114322
0.000809324
0.000713906
0.000631504
0.000562574
0.000505377
0.000457785
0.00041784
0.000383938
0.000354802
0.000329446
0.000307151
0.000287371
0.000269689
0.000253774
0.000239369
0.000226269
0.000214289
0.000203244
0.000192815
0.000181616
0.000823497
0.000753987
0.000688491
0.000628748
0.000575387
0.000528266
0.000486845
0.000450441
0.000418361
0.000389972
0.000364725
0.000342158
0.000321888
0.000303594
0.000287011
0.000271917
0.000258107
0.000245368
0.000233356
0.000221178
0.000826292
0.000764347
0.000706102
0.000651937
0.00060223
0.000557104
0.000516428
0.000479912
0.000447181
0.000417833
0.000391476
0.000367751
0.000346334
0.000326941
0.000309326
0.000293266
0.000278557
0.000264969
0.000252137
0.000239268
0.000826292
0.000764347
0.000706102
0.000651936
0.00060223
0.000557103
0.000516428
0.000479912
0.000447181
0.000417832
0.000391475
0.000367749
0.000346331
0.000326936
0.000309318
0.000293255
0.000278539
0.000264933
0.000252027
0.000238836
0.000823497
0.000753987
0.000688491
0.000628748
0.000575387
0.000528266
0.000486845
0.000450441
0.000418361
0.000389972
0.000364725
0.000342158
0.000321887
0.000303593
0.000287012
0.000271917
0.000258108
0.000245369
0.000233358
0.000221175
0.000809324
0.000713906
0.000631505
0.000562574
0.000505377
0.000457786
0.000417841
0.00038394
0.000354805
0.000329451
0.000307158
0.000287382
0.000269705
0.000253802
0.000239416
0.000226341
0.000214403
0.000203439
0.000193244
0.000183286
0.00071288
0.000556432
0.000466397
0.000402355
0.000354426
0.000317051
0.000286676
0.000261257
0.000239584
0.00022085
0.000204451
0.000189963
0.000177067
0.000165507
0.000155081
0.000145648
0.000137085
0.000129283
0.000122163
0.000115989
0.000198681
0.0001383
0.000105187
8.55269e-05
7.25013e-05
6.28902e-05
5.60612e-05
5.07595e-05
4.63883e-05
4.27223e-05
3.96261e-05
3.69566e-05
3.46354e-05
3.26064e-05
3.08238e-05
2.92507e-05
2.78569e-05
2.6618e-05
2.55153e-05
2.4548e-05
0.000218609
0.000155003
0.000118661
9.65069e-05
8.18823e-05
7.08355e-05
6.30855e-05
5.71434e-05
5.22482e-05
4.8096e-05
4.45822e-05
4.15715e-05
3.89516e-05
3.66576e-05
3.46374e-05
3.28487e-05
3.12567e-05
2.98341e-05
2.85706e-05
2.75753e-05
0.000728543
0.000588231
0.000496002
0.000429131
0.000378509
0.000338934
0.000306818
0.000279972
0.00025707
0.000237252
0.000219902
0.000204565
0.000190896
0.000178627
0.000167547
0.000157482
0.000148289
0.000139838
0.000132002
0.000124703
0.000814958
0.000730426
0.000654634
0.000589044
0.000533067
0.000485438
0.000444763
0.000409793
0.00037947
0.000352932
0.000329492
0.000308629
0.000289939
0.000273098
0.000257845
0.000243962
0.000231261
0.000219546
0.000208491
0.000197058
0.000826292
0.000764347
0.000706102
0.000651936
0.00060223
0.000557103
0.000516428
0.000479912
0.000447181
0.000417832
0.000391475
0.000367749
0.000346331
0.000326937
0.000309318
0.000293255
0.00027854
0.000264934
0.000252028
0.000238836
0.000828382
0.0007726
0.000721138
0.00067296
0.000627782
0.00058562
0.000546547
0.000510579
0.000477648
0.000447615
0.000420287
0.000395445
0.000372863
0.000352314
0.000333586
0.000316473
0.000300768
0.000286204
0.000272291
0.000257811
0.000828382
0.0007726
0.000721138
0.00067296
0.000627782
0.00058562
0.000546547
0.000510579
0.000477648
0.000447615
0.000420287
0.000395445
0.000372863
0.000352314
0.000333586
0.000316473
0.000300768
0.000286205
0.000272291
0.000257809
0.000826292
0.000764347
0.000706102
0.000651937
0.00060223
0.000557104
0.000516428
0.000479912
0.000447181
0.000417833
0.000391476
0.000367751
0.000346334
0.000326942
0.000309326
0.000293266
0.000278558
0.000264971
0.000252141
0.000239273
0.000814958
0.000730426
0.000654634
0.000589044
0.000533067
0.000485439
0.000444764
0.000409794
0.000379472
0.000352934
0.000329496
0.000308636
0.00028995
0.000273116
0.000257871
0.000244002
0.000231324
0.000219653
0.000208731
0.000197957
0.000728543
0.000588231
0.000496002
0.000429132
0.00037851
0.000338935
0.000306819
0.000279974
0.000257073
0.000237257
0.000219911
0.000204579
0.000190919
0.000178668
0.000167608
0.000157578
0.000148439
0.000140071
0.000132357
0.000125198
0.000218609
0.000155003
0.000118661
9.65069e-05
8.18824e-05
7.08356e-05
6.30856e-05
5.71436e-05
5.22486e-05
4.80966e-05
4.45832e-05
4.15731e-05
3.89541e-05
3.66618e-05
3.46439e-05
3.28586e-05
3.12717e-05
2.98561e-05
2.85974e-05
2.75454e-05
0.000218609
0.000155003
0.000118661
9.65069e-05
8.18824e-05
7.08356e-05
6.30856e-05
5.71436e-05
5.22486e-05
4.80966e-05
4.45832e-05
4.15731e-05
3.89541e-05
3.66617e-05
3.4644e-05
3.28586e-05
3.12717e-05
2.98561e-05
2.85975e-05
2.75453e-05
0.000728543
0.000588231
0.000496002
0.000429132
0.00037851
0.000338935
0.000306819
0.000279974
0.000257073
0.000237257
0.000219911
0.000204579
0.000190919
0.000178665
0.000167611
0.00015758
0.000148441
0.000140074
0.000132363
0.000125205
0.000814958
0.000730426
0.000654634
0.000589044
0.000533067
0.000485439
0.000444764
0.000409794
0.000379472
0.000352934
0.000329496
0.000308635
0.000289949
0.000273115
0.000257872
0.000244002
0.000231323
0.000219652
0.00020873
0.000197958
0.000826292
0.000764347
0.000706102
0.000651937
0.00060223
0.000557104
0.000516428
0.000479912
0.000447181
0.000417833
0.000391476
0.000367751
0.000346333
0.000326941
0.000309325
0.000293266
0.000278557
0.000264969
0.000252137
0.000239273
0.000828382
0.0007726
0.000721138
0.00067296
0.000627782
0.00058562
0.000546547
0.000510579
0.000477648
0.000447615
0.000420287
0.000395445
0.000372863
0.000352314
0.000333586
0.000316473
0.000300768
0.000286205
0.000272292
0.000257811
0.000828382
0.0007726
0.000721138
0.00067296
0.000627782
0.00058562
0.000546547
0.000510579
0.000477648
0.000447615
0.000420287
0.000395445
0.000372863
0.000352314
0.000333586
0.000316473
0.000300768
0.000286205
0.000272291
0.000257809
0.000826292
0.000764347
0.000706102
0.000651936
0.00060223
0.000557103
0.000516428
0.000479912
0.000447181
0.000417832
0.000391475
0.000367749
0.00034633
0.000326936
0.000309318
0.000293255
0.00027854
0.000264933
0.000252028
0.000238832
0.000814958
0.000730426
0.000654634
0.000589044
0.000533067
0.000485438
0.000444763
0.000409793
0.00037947
0.000352932
0.000329492
0.000308629
0.000289939
0.000273098
0.000257844
0.000243961
0.000231259
0.000219543
0.000208484
0.00019705
0.000728543
0.000588231
0.000496002
0.000429131
0.000378509
0.000338934
0.000306818
0.000279972
0.00025707
0.000237252
0.000219902
0.000204565
0.000190895
0.000178628
0.000167546
0.00015748
0.000148286
0.000139833
0.000131994
0.000124692
0.000218609
0.000155003
0.000118661
9.65069e-05
8.18823e-05
7.08355e-05
6.30855e-05
5.71434e-05
5.22482e-05
4.8096e-05
4.45822e-05
4.15714e-05
3.89515e-05
3.66576e-05
3.46375e-05
3.28488e-05
3.12568e-05
2.98342e-05
2.85706e-05
2.7575e-05
0.000198681
0.0001383
0.000105187
8.55269e-05
7.25013e-05
6.28902e-05
5.60612e-05
5.07595e-05
4.63883e-05
4.27222e-05
3.96261e-05
3.69566e-05
3.46353e-05
3.26063e-05
3.08239e-05
2.92508e-05
2.7857e-05
2.6618e-05
2.55155e-05
2.45484e-05
0.00071288
0.000556432
0.000466397
0.000402355
0.000354426
0.000317051
0.000286676
0.000261257
0.000239584
0.00022085
0.000204451
0.000189962
0.000177066
0.000165506
0.000155082
0.000145648
0.000137084
0.000129281
0.000122163
0.000115991
0.000809324
0.000713906
0.000631505
0.000562574
0.000505377
0.000457786
0.000417841
0.00038394
0.000354804
0.00032945
0.000307157
0.000287381
0.000269705
0.000253802
0.000239415
0.000226339
0.000214401
0.000203435
0.000193236
0.000183282
0.000823497
0.000753987
0.000688491
0.000628748
0.000575387
0.000528266
0.000486845
0.000450441
0.000418361
0.000389972
0.000364724
0.000342158
0.000321887
0.000303594
0.000287011
0.000271916
0.000258106
0.000245366
0.000233354
0.000221172
0.000826292
0.000764347
0.000706102
0.000651936
0.00060223
0.000557103
0.000516428
0.000479912
0.000447181
0.000417832
0.000391475
0.000367749
0.000346331
0.000326936
0.000309318
0.000293255
0.00027854
0.000264933
0.000252029
0.000238837
0.000826292
0.000764347
0.000706102
0.000651937
0.00060223
0.000557104
0.000516428
0.000479912
0.000447181
0.000417833
0.000391476
0.000367751
0.000346333
0.000326941
0.000309325
0.000293266
0.000278558
0.00026497
0.000252138
0.000239268
0.000823497
0.000753987
0.000688491
0.000628748
0.000575387
0.000528266
0.000486845
0.000450441
0.000418361
0.000389972
0.000364725
0.000342158
0.000321887
0.000303593
0.000287012
0.000271917
0.000258106
0.000245367
0.000233354
0.00022117
0.000809324
0.000713906
0.000631504
0.000562574
0.000505377
0.000457785
0.00041784
0.000383938
0.000354802
0.000329446
0.000307151
0.000287371
0.000269687
0.000253772
0.00023937
0.000226269
0.000214288
0.00020324
0.000192808
0.000181606
0.00071288
0.000556432
0.000466397
0.000402355
0.000354425
0.000317049
0.000286673
0.000261253
0.000239578
0.000220839
0.000204433
0.000189933
0.000177017
0.000165425
0.000154952
0.000145439
0.000136743
0.000128729
0.000121267
0.000114315
0.000198681
0.0001383
0.000105187
8.55269e-05
7.25012e-05
6.289e-05
5.60609e-05
5.0759e-05
4.63876e-05
4.2721e-05
3.96239e-05
3.69533e-05
3.463e-05
3.25977e-05
3.08103e-05
2.92295e-05
2.78235e-05
2.65666e-05
2.54482e-05
2.45988e-05
0.000160509
0.00010736
8.07409e-05
6.55976e-05
5.54896e-05
4.83026e-05
4.31311e-05
3.90792e-05
3.57394e-05
3.29502e-05
3.05789e-05
2.85365e-05
2.67766e-05
2.52502e-05
2.3915e-05
2.27401e-05
2.17054e-05
2.07939e-05
1.99954e-05
1.93154e-05
0.000663952
0.000488458
0.000404619
0.000347248
0.000305036
0.000272128
0.000245319
0.00022289
0.000203758
0.000187182
0.000172659
0.000159823
0.000148387
0.000138141
0.000128915
0.000120709
0.000113329
0.000106625
0.000100991
9.49756e-05
0.000786827
0.000662293
0.000567974
0.000495805
0.000439463
0.000394562
0.000357973
0.00032745
0.000301488
0.000279047
0.000259393
0.000241995
0.000226461
0.000212493
0.000199856
0.000188389
0.000177928
0.000168332
0.000159506
0.000150721
0.000809324
0.000713906
0.000631504
0.000562574
0.000505377
0.000457785
0.00041784
0.000383938
0.000354802
0.000329446
0.000307151
0.000287371
0.000269688
0.000253774
0.000239368
0.000226268
0.000214287
0.000203241
0.00019281
0.000181609
0.000814958
0.000730426
0.000654634
0.000589044
0.000533067
0.000485438
0.000444763
0.000409793
0.00037947
0.000352932
0.000329492
0.000308629
0.000289939
0.000273098
0.000257844
0.000243961
0.00023126
0.000219544
0.000208487
0.000197051
0.000814958
0.000730426
0.000654634
0.000589044
0.000533067
0.000485439
0.000444764
0.000409794
0.000379472
0.000352934
0.000329496
0.000308635
0.000289949
0.000273115
0.000257872
0.000244002
0.000231323
0.000219652
0.00020873
0.000197956
0.000809324
0.000713906
0.000631505
0.000562574
0.000505377
0.000457786
0.000417841
0.00038394
0.000354805
0.000329451
0.000307157
0.000287381
0.000269705
0.000253802
0.000239415
0.00022634
0.000214401
0.000203436
0.000193238
0.000183286
0.000786827
0.000662293
0.000567974
0.000495805
0.000439463
0.000394561
0.000357973
0.00032745
0.000301488
0.000279047
0.000259393
0.000241995
0.00022646
0.00021249
0.000199859
0.000188391
0.00017793
0.000168334
0.000159509
0.000150725
0.000663952
0.000488458
0.000404619
0.000347248
0.000305035
0.000272127
0.000245317
0.000222887
0.000203752
0.000187174
0.000172645
0.0001598
0.000148349
0.000138075
0.000128816
0.000120544
0.000113046
0.000106132
0.000100121
9.33754e-05
0.000160509
0.00010736
8.07408e-05
6.55975e-05
5.54895e-05
4.83025e-05
4.31308e-05
3.90789e-05
3.57389e-05
3.2949e-05
3.05771e-05
2.85336e-05
2.67719e-05
2.52426e-05
2.39026e-05
2.27197e-05
2.16715e-05
2.07368e-05
1.99035e-05
1.91954e-05
0.000107685
6.77183e-05
5.06311e-05
4.14159e-05
3.54048e-05
3.10367e-05
2.77137e-05
2.50816e-05
2.29334e-05
2.11507e-05
1.96507e-05
1.83715e-05
1.72635e-05
1.62947e-05
1.54514e-05
1.47254e-05
1.40948e-05
1.35474e-05
1.30915e-05
1.27369e-05
0.000528907
0.000369984
0.000305097
0.000261371
0.000228528
0.000202475
0.000181113
0.000163072
0.000147537
0.000133981
0.000122045
0.000111459
0.000102124
9.38456e-05
8.64289e-05
7.96252e-05
7.34121e-05
6.77954e-05
6.35648e-05
5.6109e-05
0.000663952
0.000488458
0.000404619
0.000347248
0.000305035
0.000272127
0.000245317
0.000222886
0.000203752
0.000187174
0.000172646
0.0001598
0.00014835
0.00013808
0.000128812
0.000120542
0.000113045
0.000106133
0.000100116
9.33761e-05
0.00071288
0.000556432
0.000466397
0.000402355
0.000354425
0.000317049
0.000286673
0.000261253
0.000239578
0.000220839
0.000204434
0.000189934
0.000177019
0.000165427
0.000154949
0.000145438
0.000136743
0.00012873
0.00012127
0.000114318
0.000728543
0.000588231
0.000496002
0.000429131
0.000378509
0.000338934
0.000306818
0.000279972
0.00025707
0.000237252
0.000219902
0.000204565
0.000190896
0.000178627
0.000167547
0.000157481
0.000148288
0.000139836
0.000131998
0.000124696
0.000728543
0.000588231
0.000496002
0.000429132
0.00037851
0.000338935
0.000306819
0.000279974
0.000257073
0.000237257
0.000219911
0.000204579
0.000190919
0.000178665
0.000167611
0.000157579
0.00014844
0.000140072
0.000132359
0.000125201
0.00071288
0.000556432
0.000466397
0.000402355
0.000354426
0.000317051
0.000286676
0.000261257
0.000239584
0.00022085
0.000204451
0.000189962
0.000177066
0.000165507
0.000155081
0.000145647
0.000137083
0.00012928
0.000122161
0.000115988
0.000663952
0.000488458
0.000404619
0.000347248
0.000305036
0.000272128
0.000245319
0.00022289
0.000203758
0.000187182
0.000172659
0.000159823
0.000148387
0.000138139
0.000128916
0.000120709
0.00011333
0.000106625
0.000100992
9.49785e-05
0.000528907
0.000369984
0.000305097
0.000261371
0.000228528
0.000202475
0.000181113
0.000163072
0.000147537
0.000133981
0.000122045
0.00011146
0.000102124
9.38399e-05
8.64337e-05
7.9628e-05
7.3414e-05
6.77971e-05
6.35672e-05
5.61124e-05
0.000107685
6.77183e-05
5.06311e-05
4.14159e-05
3.54048e-05
3.10367e-05
2.77137e-05
2.50816e-05
2.29333e-05
2.11504e-05
1.96502e-05
1.83706e-05
1.7262e-05
1.62905e-05
1.54453e-05
1.47146e-05
1.40742e-05
1.35063e-05
1.30103e-05
1.2592e-05
4.5356e-05
2.3208e-05
1.65396e-05
1.36493e-05
1.18966e-05
1.06844e-05
9.76074e-06
9.05706e-06
8.49466e-06
8.03123e-06
7.64039e-06
7.31195e-06
7.02423e-06
6.7599e-06
6.52766e-06
6.32579e-06
6.14972e-06
5.99611e-06
5.87425e-06
5.73283e-06
0.000107685
6.77183e-05
5.06311e-05
4.14159e-05
3.54048e-05
3.10367e-05
2.77137e-05
2.50816e-05
2.29333e-05
2.11504e-05
1.96502e-05
1.83706e-05
1.72619e-05
1.62909e-05
1.54451e-05
1.47144e-05
1.4074e-05
1.35061e-05
1.30102e-05
1.25915e-05
0.000160509
0.00010736
8.07408e-05
6.55975e-05
5.54895e-05
4.83025e-05
4.31309e-05
3.90788e-05
3.57389e-05
3.2949e-05
3.05771e-05
2.85337e-05
2.6772e-05
2.52428e-05
2.39024e-05
2.27195e-05
2.16714e-05
2.07368e-05
1.99033e-05
1.91945e-05
0.000198681
0.0001383
0.000105187
8.55269e-05
7.25012e-05
6.289e-05
5.60609e-05
5.0759e-05
4.63875e-05
4.2721e-05
3.96239e-05
3.69533e-05
3.46301e-05
3.25979e-05
3.08101e-05
2.92293e-05
2.78234e-05
2.65665e-05
2.5448e-05
2.45985e-05
0.000218609
0.000155003
0.000118661
9.65069e-05
8.18823e-05
7.08355e-05
6.30855e-05
5.71434e-05
5.22482e-05
4.8096e-05
4.45822e-05
4.15715e-05
3.89516e-05
3.66576e-05
3.46374e-05
3.28487e-05
3.12567e-05
2.98341e-05
2.85706e-05
2.75752e-05
0.000218609
0.000155003
0.000118661
9.65069e-05
8.18824e-05
7.08356e-05
6.30857e-05
5.71436e-05
5.22486e-05
4.80966e-05
4.45832e-05
4.15731e-05
3.89541e-05
3.66617e-05
3.46439e-05
3.28586e-05
3.12717e-05
2.98562e-05
2.85975e-05
2.7545e-05
0.000198681
0.0001383
0.000105187
8.55269e-05
7.25013e-05
6.28902e-05
5.60612e-05
5.07595e-05
4.63883e-05
4.27222e-05
3.96261e-05
3.69566e-05
3.46354e-05
3.26064e-05
3.08238e-05
2.92507e-05
2.7857e-05
2.6618e-05
2.55155e-05
2.45481e-05
0.000160509
0.00010736
8.07409e-05
6.55976e-05
5.54896e-05
4.83026e-05
4.31311e-05
3.90792e-05
3.57395e-05
3.29502e-05
3.05789e-05
2.85365e-05
2.67766e-05
2.52502e-05
2.3915e-05
2.27401e-05
2.17054e-05
2.07938e-05
1.99954e-05
1.93156e-05
0.000107685
6.77183e-05
5.06311e-05
4.14159e-05
3.54048e-05
3.10367e-05
2.77137e-05
2.50816e-05
2.29334e-05
2.11507e-05
1.96507e-05
1.83715e-05
1.72636e-05
1.62944e-05
1.54516e-05
1.47255e-05
1.40948e-05
1.35474e-05
1.30914e-05
1.27368e-05
4.5356e-05
2.3208e-05
1.65396e-05
1.36493e-05
1.18966e-05
1.06844e-05
9.76073e-06
9.05707e-06
8.49466e-06
8.03123e-06
7.64038e-06
7.31198e-06
7.02423e-06
6.75988e-06
6.52769e-06
6.32583e-06
6.14977e-06
5.99617e-06
5.87434e-06
5.73282e-06
4.97026e-06
4.73932e-06
4.54156e-06
4.41207e-06
4.32373e-06
4.26102e-06
4.2064e-06
4.15485e-06
4.10721e-06
4.06637e-06
4.02916e-06
3.99361e-06
3.95696e-06
3.92179e-06
3.88701e-06
3.85338e-06
3.82076e-06
3.78926e-06
3.7588e-06
3.72974e-06
3.7007e-06
3.67244e-06
3.64562e-06
3.61915e-06
3.59401e-06
3.5692e-06
3.54464e-06
3.51991e-06
3.49585e-06
3.47218e-06
3.44891e-06
3.42681e-06
3.40458e-06
3.3832e-06
3.36378e-06
3.34262e-06
3.32622e-06
3.30882e-06
3.29462e-06
3.27261e-06
1.00692e-05
9.69942e-06
9.38514e-06
9.15656e-06
8.96499e-06
8.81705e-06
8.67713e-06
8.54223e-06
8.41121e-06
8.29683e-06
8.19414e-06
8.10141e-06
8.00573e-06
7.92308e-06
7.83542e-06
7.75425e-06
7.67354e-06
7.60048e-06
7.52877e-06
7.46165e-06
7.3967e-06
7.33223e-06
7.27259e-06
7.21471e-06
7.16171e-06
7.10947e-06
7.05831e-06
7.00814e-06
6.9579e-06
6.90925e-06
6.86133e-06
6.81479e-06
6.7701e-06
6.72545e-06
6.68626e-06
6.64762e-06
6.60876e-06
6.57315e-06
6.54026e-06
6.50222e-06
1.62334e-05
1.50841e-05
1.4384e-05
1.39548e-05
1.36009e-05
1.32899e-05
1.30158e-05
1.27701e-05
1.25464e-05
1.23378e-05
1.21433e-05
1.19687e-05
1.1802e-05
1.16657e-05
1.15125e-05
1.13752e-05
1.12423e-05
1.11238e-05
1.10086e-05
1.08969e-05
1.07946e-05
1.06788e-05
1.05765e-05
1.04777e-05
1.0394e-05
1.03093e-05
1.02263e-05
1.01449e-05
1.00675e-05
9.99131e-06
9.91419e-06
9.84107e-06
9.77046e-06
9.70559e-06
9.64949e-06
9.58689e-06
9.52605e-06
9.46816e-06
9.41227e-06
9.35767e-06
2.0078e-05
1.9223e-05
1.85401e-05
1.79479e-05
1.744e-05
1.69945e-05
1.65937e-05
1.62303e-05
1.58978e-05
1.5592e-05
1.53096e-05
1.50468e-05
1.47994e-05
1.45743e-05
1.43651e-05
1.41683e-05
1.39836e-05
1.38122e-05
1.3647e-05
1.34733e-05
1.33194e-05
1.31709e-05
1.30298e-05
1.2891e-05
1.27641e-05
1.26419e-05
1.25275e-05
1.24172e-05
1.23075e-05
1.2202e-05
1.2095e-05
1.19958e-05
1.19027e-05
1.18149e-05
1.17371e-05
1.16641e-05
1.1587e-05
1.15122e-05
1.14421e-05
1.13728e-05
2.27107e-05
2.19474e-05
2.12317e-05
2.05759e-05
1.99798e-05
1.94412e-05
1.89524e-05
1.85069e-05
1.80959e-05
1.77158e-05
1.73627e-05
1.70329e-05
1.67229e-05
1.64398e-05
1.61751e-05
1.59284e-05
1.56998e-05
1.54839e-05
1.52797e-05
1.5087e-05
1.49086e-05
1.47352e-05
1.45555e-05
1.43884e-05
1.42326e-05
1.40878e-05
1.39493e-05
1.38186e-05
1.36899e-05
1.35684e-05
1.34443e-05
1.33342e-05
1.32224e-05
1.31217e-05
1.30279e-05
1.29482e-05
1.28531e-05
1.27635e-05
1.26792e-05
1.25996e-05
2.3799e-05
2.3008e-05
2.22601e-05
2.15637e-05
2.09223e-05
2.03339e-05
1.97979e-05
1.93055e-05
1.88491e-05
1.84255e-05
1.80323e-05
1.76664e-05
1.73237e-05
1.70096e-05
1.6717e-05
1.64443e-05
1.61902e-05
1.59554e-05
1.57372e-05
1.55329e-05
1.53416e-05
1.5163e-05
1.49956e-05
1.48294e-05
1.46555e-05
1.44939e-05
1.4342e-05
1.42037e-05
1.40676e-05
1.39441e-05
1.38202e-05
1.371e-05
1.35682e-05
1.3469e-05
1.33608e-05
1.32681e-05
1.31853e-05
1.30939e-05
1.30033e-05
1.29204e-05
2.33331e-05
2.23637e-05
2.15269e-05
2.07835e-05
2.01132e-05
1.95071e-05
1.89556e-05
1.84531e-05
1.79943e-05
1.75748e-05
1.71905e-05
1.68373e-05
1.65114e-05
1.6213e-05
1.5937e-05
1.5681e-05
1.54438e-05
1.52234e-05
1.50198e-05
1.48301e-05
1.46549e-05
1.44867e-05
1.43236e-05
1.41681e-05
1.40058e-05
1.38563e-05
1.37127e-05
1.35816e-05
1.34512e-05
1.33255e-05
1.32054e-05
1.30851e-05
1.297e-05
1.28592e-05
1.27657e-05
1.26707e-05
1.25916e-05
1.24964e-05
1.24033e-05
1.23174e-05
2.06486e-05
1.9664e-05
1.88326e-05
1.81303e-05
1.75052e-05
1.69573e-05
1.64776e-05
1.60504e-05
1.56678e-05
1.53217e-05
1.50088e-05
1.47227e-05
1.44577e-05
1.42143e-05
1.39895e-05
1.37804e-05
1.35883e-05
1.34085e-05
1.32416e-05
1.30839e-05
1.29427e-05
1.27912e-05
1.26498e-05
1.25165e-05
1.23869e-05
1.22668e-05
1.21455e-05
1.20348e-05
1.19112e-05
1.17927e-05
1.16901e-05
1.15943e-05
1.14959e-05
1.13997e-05
1.13074e-05
1.12208e-05
1.11417e-05
1.10521e-05
1.0969e-05
1.08916e-05
1.62035e-05
1.53709e-05
1.465e-05
1.40097e-05
1.3564e-05
1.31723e-05
1.28393e-05
1.25505e-05
1.22902e-05
1.20552e-05
1.18418e-05
1.16475e-05
1.14717e-05
1.13054e-05
1.11576e-05
1.09962e-05
1.08563e-05
1.07212e-05
1.06032e-05
1.04829e-05
1.0376e-05
1.02655e-05
1.01649e-05
1.00618e-05
9.9617e-06
9.87094e-06
9.77996e-06
9.69358e-06
9.61109e-06
9.52831e-06
9.44783e-06
9.37106e-06
9.29483e-06
9.21755e-06
9.14494e-06
9.07905e-06
9.01982e-06
8.9554e-06
8.89509e-06
8.83816e-06
1.06556e-05
1.0156e-05
9.67618e-06
9.29009e-06
9.00485e-06
8.79032e-06
8.61441e-06
8.45338e-06
8.30656e-06
8.18254e-06
8.0696e-06
7.97367e-06
7.87922e-06
7.7735e-06
7.67675e-06
7.58687e-06
7.5012e-06
7.42069e-06
7.34384e-06
7.2712e-06
7.2015e-06
7.13485e-06
7.07278e-06
7.01232e-06
6.95491e-06
6.89989e-06
6.84553e-06
6.79273e-06
6.73942e-06
6.68625e-06
6.63555e-06
6.58725e-06
6.54011e-06
6.49447e-06
6.44898e-06
6.40391e-06
6.3641e-06
6.32683e-06
6.29289e-06
6.25258e-06
4.97018e-06
4.73922e-06
4.54202e-06
4.41193e-06
4.32463e-06
4.26288e-06
4.20913e-06
4.1574e-06
4.10904e-06
4.06744e-06
4.02977e-06
3.99415e-06
3.95722e-06
3.92109e-06
3.88606e-06
3.85255e-06
3.82004e-06
3.78865e-06
3.75847e-06
3.72944e-06
3.70052e-06
3.67208e-06
3.64516e-06
3.61867e-06
3.59367e-06
3.56893e-06
3.54436e-06
3.51971e-06
3.4957e-06
3.47202e-06
3.44876e-06
3.42667e-06
3.4046e-06
3.38316e-06
3.36304e-06
3.34539e-06
3.32549e-06
3.3084e-06
3.29329e-06
3.2703e-06
1.06557e-05
1.01549e-05
9.67276e-06
9.28986e-06
9.00095e-06
8.78714e-06
8.60727e-06