/*--------------------------------*- C++ -*----------------------------------*\
| =========                 |                                                 |
| \\      /  F ield         | OpenFOAM: The Open Source CFD Toolbox           |
|  \\    /   O peration     | Version:  2212                                  |
|   \\  /    A nd           | Website:  www.openfoam.com                      |
|    \\/     M anipulation  |                                                 |
\*---------------------------------------------------------------------------*/
FoamFile
{
    version     2.0;
    format      ascii;
    arch        "LSB;label=32;scalar=64";
    class       volScalarField;
    location    "1.3";
    object      p;
}
// * * * * * * * * * * * * * * * * * * * * * * * * * * * * * * * * * * * * * //

dimensions      [0 2 -2 0 0 0 0];

internalField   nonuniform List<scalar> 
6840
(
0.017832
0.0107176
0.00842616
0.00788833
0.00761398
0.00739179
0.0072052
0.00703882
0.00687774
0.00671842
0.00656099
0.00640528
0.00625023
0.00609484
0.00593915
0.00578333
0.0056281
0.00547173
0.00529861
0.00501286
0.0106532
0.00991936
0.00882647
0.00816049
0.0077579
0.00748416
0.00727297
0.00708671
0.00691223
0.00674479
0.00658187
0.00642164
0.00626234
0.00610289
0.005943
0.00578231
0.00561713
0.00543664
0.00521021
0.00487735
0.0103049
0.00945341
0.00868914
0.00812999
0.00775381
0.00748572
0.00726995
0.00707687
0.00689818
0.0067292
0.00656496
0.00640312
0.00624292
0.00608359
0.00592364
0.00576083
0.00559185
0.00541206
0.0052181
0.00500479
0.00989562
0.00913289
0.00851412
0.00806277
0.00771876
0.00744966
0.00722991
0.00704087
0.00687266
0.00671462
0.00655797
0.00640112
0.0062445
0.00608824
0.00593183
0.00577458
0.00561577
0.00545531
0.00529507
0.00513634
0.00976141
0.00902023
0.00843204
0.0080239
0.00770191
0.00743511
0.00721346
0.0070226
0.00685148
0.0066942
0.0065434
0.00639202
0.00623904
0.00608591
0.00593368
0.00578286
0.00563389
0.00548692
0.00534067
0.00519896
0.00976143
0.00902024
0.00843207
0.00802395
0.00770199
0.00743523
0.00721365
0.00702292
0.00685203
0.0066951
0.00654486
0.00639442
0.00624295
0.0060922
0.00594365
0.00579863
0.00565842
0.00552375
0.00539166
0.00526432
0.00989568
0.00913295
0.00851419
0.00806288
0.00771892
0.00744992
0.00723036
0.00704167
0.00687401
0.00671686
0.00656165
0.00640708
0.00625409
0.00610364
0.00595676
0.00581513
0.00568121
0.00555753
0.00544589
0.005351
0.010305
0.00945346
0.0086892
0.00813008
0.00775396
0.007486
0.00727044
0.00707769
0.00689954
0.0067315
0.00656883
0.00640949
0.00625331
0.00610063
0.00595195
0.00580833
0.00567244
0.00554774
0.00544475
0.00538127
0.0106532
0.00991938
0.0088265
0.00816054
0.00775797
0.00748429
0.0072732
0.00708711
0.00691293
0.00674599
0.00658385
0.00642492
0.00626801
0.00611294
0.00596065
0.00581267
0.00566867
0.00552894
0.00540108
0.00531823
0.017832
0.0107176
0.00842616
0.00788834
0.00761399
0.0073918
0.0072052
0.00703882
0.00687774
0.00671843
0.00656099
0.00640529
0.00625024
0.00609484
0.00593915
0.00578335
0.00562812
0.00547176
0.00529866
0.00501295
0.0106532
0.00991938
0.00882649
0.00816053
0.00775797
0.00748429
0.0072732
0.00708711
0.00691293
0.00674599
0.00658385
0.00642492
0.00626801
0.00611296
0.00596067
0.00581268
0.00566867
0.00552894
0.00540107
0.00531817
0.00993664
0.00990494
0.00917672
0.00846624
0.00801991
0.007704
0.00744517
0.0072176
0.00701317
0.00682505
0.00664775
0.00647759
0.00631166
0.00614838
0.00598727
0.00582754
0.0056687
0.00550981
0.00535874
0.00523429
0.00901115
0.00913734
0.00883445
0.00841824
0.0080511
0.00773245
0.00745386
0.00721336
0.00700065
0.00680592
0.00662236
0.00644661
0.00627657
0.00611014
0.00594559
0.00578128
0.00561611
0.00544961
0.00528334
0.00512906
0.00859275
0.00863625
0.00847067
0.00820772
0.00792732
0.00765594
0.00740486
0.00717837
0.0069751
0.00678808
0.00661032
0.00643864
0.0062717
0.00610809
0.00594636
0.00578559
0.00562531
0.00546627
0.00531089
0.00516415
0.00837677
0.0083986
0.00827138
0.00805384
0.00782139
0.00759219
0.0073693
0.00715605
0.00695514
0.00676758
0.0065908
0.00642135
0.00625764
0.00609808
0.00594117
0.00578718
0.0056366
0.00548971
0.0053481
0.00521202
0.00837681
0.00839864
0.00827144
0.00805395
0.00782154
0.0075924
0.00736962
0.00715652
0.00695583
0.00676872
0.00659276
0.00642463
0.0062628
0.00610605
0.00595311
0.00580448
0.00566157
0.00552511
0.00539552
0.00526718
0.00859283
0.00863634
0.00847079
0.00820789
0.00792757
0.00765629
0.00740539
0.0071792
0.00697649
0.00679061
0.00661488
0.0064461
0.00628275
0.00612437
0.00597143
0.00582465
0.00568504
0.0055546
0.0054363
0.00532558
0.0090112
0.00913739
0.00883453
0.00841834
0.00805124
0.00773267
0.00745425
0.00721404
0.00700185
0.00680792
0.00662552
0.0064516
0.00628453
0.00612313
0.00596679
0.00581548
0.00567047
0.00553428
0.00541314
0.00532577
0.00993664
0.00990494
0.00917673
0.00846624
0.00801991
0.007704
0.00744517
0.0072176
0.00701318
0.00682505
0.00664776
0.0064776
0.00631168
0.00614839
0.00598728
0.00582755
0.00566873
0.00550985
0.00535882
0.00523442
0.0106532
0.00991937
0.00882647
0.0081605
0.0077579
0.00748417
0.00727298
0.00708672
0.00691224
0.00674481
0.00658189
0.00642166
0.00626236
0.00610291
0.00594302
0.00578234
0.00561717
0.0054367
0.00521032
0.00487755
0.010305
0.00945346
0.0086892
0.00813008
0.00775396
0.007486
0.00727044
0.00707769
0.00689954
0.0067315
0.00656883
0.00640949
0.00625332
0.00610065
0.00595197
0.00580834
0.00567245
0.00554775
0.00544475
0.00538123
0.00901119
0.00913739
0.00883453
0.00841834
0.00805123
0.00773267
0.00745425
0.00721404
0.00700185
0.00680792
0.00662552
0.0064516
0.00628453
0.00612313
0.00596678
0.00581547
0.00567047
0.00553426
0.00541313
0.00532578
0.00844169
0.00854266
0.00843111
0.00820566
0.00794994
0.00769157
0.00743325
0.00719176
0.00697406
0.00677408
0.00658688
0.00640938
0.00623902
0.00607384
0.00591264
0.0057544
0.00559832
0.00544426
0.00529163
0.00513735
0.00807366
0.00814172
0.00808933
0.00794235
0.00775747
0.00755235
0.0073417
0.00713481
0.00693371
0.00674128
0.00655866
0.00638401
0.00621535
0.0060512
0.0058905
0.00573221
0.0055753
0.00541889
0.00526177
0.00510153
0.00789059
0.00795502
0.00792555
0.00780068
0.00764164
0.00746793
0.00728163
0.00709357
0.00690738
0.00672386
0.00654457
0.0063705
0.00620202
0.0060385
0.00587938
0.00572439
0.00557256
0.00542274
0.00527502
0.00512569
0.00789062
0.00795505
0.00792559
0.00780077
0.0076418
0.00746817
0.00728191
0.00709395
0.00690793
0.00672471
0.00654587
0.00637242
0.00620476
0.00604255
0.00588548
0.00573305
0.00558445
0.00543978
0.00530053
0.00515852
0.00807372
0.00814178
0.00808942
0.00794249
0.00775769
0.00755262
0.00734205
0.00713533
0.0069345
0.00674256
0.00656077
0.00638731
0.00622027
0.00605856
0.00590146
0.00574796
0.00559805
0.00545317
0.00531429
0.00517164
0.00844169
0.00854267
0.00843111
0.00820566
0.00794994
0.00769158
0.00743325
0.00719176
0.00697407
0.00677409
0.00658689
0.00640939
0.00623903
0.00607386
0.00591266
0.00575441
0.00559833
0.00544427
0.00529162
0.00513729
0.00901116
0.00913734
0.00883446
0.00841825
0.0080511
0.00773245
0.00745387
0.00721337
0.00700066
0.00680593
0.00662237
0.00644663
0.00627658
0.00611017
0.00594563
0.00578131
0.00561615
0.00544966
0.00528339
0.00512911
0.0103049
0.00945341
0.00868915
0.00813
0.00775381
0.00748572
0.00726996
0.00707688
0.00689819
0.00672922
0.00656498
0.00640314
0.00624295
0.00608361
0.00592367
0.00576087
0.00559191
0.00541213
0.0052182
0.00500492
0.00989568
0.00913295
0.00851419
0.00806288
0.00771892
0.00744992
0.00723036
0.00704167
0.00687402
0.00671686
0.00656165
0.00640709
0.0062541
0.00610366
0.00595678
0.00581514
0.00568122
0.00555754
0.00544591
0.00535103
0.00859283
0.00863634
0.00847079
0.00820789
0.00792757
0.00765629
0.00740539
0.0071792
0.00697649
0.00679062
0.00661489
0.00644611
0.00628276
0.00612437
0.00597143
0.00582466
0.00568505
0.00555461
0.00543631
0.00532561
0.00807371
0.00814178
0.00808942
0.00794249
0.00775769
0.00755262
0.00734205
0.00713533
0.0069345
0.00674256
0.00656077
0.00638731
0.00622027
0.00605856
0.00590146
0.00574797
0.00559806
0.00545319
0.00531431
0.00517168
0.00777579
0.00783493
0.007823
0.00772762
0.007588
0.00742253
0.00724238
0.00705795
0.00687404
0.00669377
0.00651878
0.00634893
0.00618362
0.00602225
0.00586426
0.00570894
0.00555562
0.00540381
0.00525394
0.00510008
0.00762466
0.00768755
0.00769131
0.00761765
0.00749752
0.00735111
0.00718819
0.00701673
0.00684255
0.00666894
0.00649775
0.00632985
0.00616551
0.00600463
0.00584687
0.00569186
0.00553884
0.00538724
0.00523743
0.00508358
0.00762467
0.00768757
0.00769133
0.00761768
0.00749756
0.00735118
0.0071883
0.00701688
0.00684275
0.00666922
0.00649813
0.00633037
0.00616627
0.00600578
0.00584866
0.00569437
0.00554214
0.00539168
0.00524411
0.00509205
0.00777579
0.00783494
0.007823
0.00772762
0.00758801
0.00742254
0.00724238
0.00705795
0.00687404
0.00669378
0.00651878
0.00634893
0.00618362
0.00602226
0.00586427
0.00570894
0.00555562
0.00540381
0.00525393
0.00510006
0.00807366
0.00814173
0.00808934
0.00794235
0.00775748
0.00755236
0.00734171
0.00713482
0.00693372
0.00674129
0.00655867
0.00638403
0.00621536
0.00605123
0.00589052
0.00573224
0.00557533
0.00541892
0.00526179
0.00510155
0.00859275
0.00863626
0.00847068
0.00820773
0.00792732
0.00765595
0.00740487
0.00717838
0.00697511
0.00678809
0.00661034
0.00643867
0.00627173
0.00610812
0.0059464
0.00578563
0.00562536
0.00546632
0.00531093
0.00516417
0.00989563
0.0091329
0.00851412
0.00806278
0.00771877
0.00744967
0.00722992
0.00704088
0.00687267
0.00671464
0.006558
0.00640115
0.00624453
0.00608827
0.00593187
0.00577463
0.00561582
0.00545537
0.00529514
0.00513641
0.00976143
0.00902024
0.00843207
0.00802395
0.00770199
0.00743523
0.00721365
0.00702293
0.00685203
0.0066951
0.00654487
0.00639443
0.00624296
0.00609221
0.00594366
0.00579865
0.00565843
0.00552376
0.00539167
0.00526433
0.00837681
0.00839864
0.00827144
0.00805395
0.00782154
0.0075924
0.00736962
0.00715653
0.00695583
0.00676873
0.00659277
0.00642464
0.00626282
0.00610606
0.00595312
0.00580449
0.00566158
0.00552513
0.00539552
0.00526717
0.00789062
0.00795505
0.00792559
0.00780077
0.0076418
0.00746817
0.00728192
0.00709396
0.00690793
0.00672471
0.00654587
0.00637243
0.00620477
0.00604256
0.00588549
0.00573306
0.00558448
0.00543981
0.00530056
0.00515855
0.00762467
0.00768757
0.00769133
0.00761768
0.00749756
0.00735118
0.0071883
0.00701688
0.00684275
0.00666922
0.00649813
0.00633037
0.00616627
0.00600578
0.00584866
0.00569438
0.00554216
0.0053917
0.00524414
0.00509208
0.00748186
0.00755137
0.00757349
0.00752094
0.00741968
0.00728873
0.00713879
0.00697778
0.00681125
0.00664289
0.00647506
0.0063092
0.00614606
0.00598595
0.00582888
0.00567455
0.00552237
0.00537247
0.0052265
0.00507648
0.00748186
0.00755137
0.00757349
0.00752094
0.00741968
0.00728873
0.0071388
0.00697778
0.00681125
0.00664289
0.00647506
0.0063092
0.00614606
0.00598595
0.00582888
0.00567455
0.00552237
0.00537247
0.0052265
0.00507647
0.00762466
0.00768755
0.00769131
0.00761766
0.00749752
0.00735112
0.0071882
0.00701674
0.00684256
0.00666895
0.00649776
0.00632986
0.00616552
0.00600464
0.00584689
0.00569188
0.00553885
0.00538726
0.00523745
0.00508359
0.00789059
0.00795503
0.00792556
0.00780069
0.00764165
0.00746794
0.00728164
0.00709358
0.00690739
0.00672387
0.00654459
0.00637052
0.00620204
0.00603852
0.00587941
0.00572443
0.0055726
0.00542278
0.00527508
0.00512576
0.00837678
0.0083986
0.00827139
0.00805385
0.0078214
0.0075922
0.00736931
0.00715606
0.00695515
0.0067676
0.00659082
0.00642137
0.00625767
0.00609811
0.00594122
0.00578723
0.00563666
0.00548978
0.00534816
0.00521208
0.00976142
0.00902023
0.00843205
0.00802391
0.00770192
0.00743512
0.00721347
0.00702261
0.00685149
0.00669422
0.00654342
0.00639205
0.00623907
0.00608595
0.00593372
0.00578291
0.00563395
0.00548699
0.00534075
0.00519907
0.00976141
0.00902023
0.00843204
0.0080239
0.00770191
0.00743511
0.00721346
0.0070226
0.00685148
0.00669421
0.0065434
0.00639203
0.00623905
0.00608593
0.00593369
0.00578287
0.0056339
0.00548692
0.00534067
0.00519895
0.00837677
0.0083986
0.00827138
0.00805385
0.00782139
0.00759219
0.00736931
0.00715605
0.00695514
0.00676759
0.00659081
0.00642136
0.00625765
0.00609809
0.00594119
0.0057872
0.00563662
0.00548974
0.00534812
0.00521204
0.00789059
0.00795502
0.00792555
0.00780068
0.00764164
0.00746793
0.00728163
0.00709358
0.00690738
0.00672386
0.00654458
0.00637051
0.00620203
0.00603851
0.0058794
0.00572441
0.00557259
0.00542277
0.00527506
0.00512574
0.00762466
0.00768755
0.00769131
0.00761765
0.00749752
0.00735111
0.00718819
0.00701674
0.00684255
0.00666895
0.00649775
0.00632985
0.00616552
0.00600463
0.00584688
0.00569187
0.00553885
0.00538725
0.00523745
0.00508359
0.00748186
0.00755137
0.00757349
0.00752094
0.00741968
0.00728873
0.00713879
0.00697778
0.00681125
0.00664289
0.00647506
0.0063092
0.00614606
0.00598596
0.00582888
0.00567455
0.00552237
0.00537248
0.0052265
0.00507648
0.00748186
0.00755137
0.00757349
0.00752094
0.00741968
0.00728873
0.0071388
0.00697778
0.00681125
0.00664289
0.00647506
0.0063092
0.00614607
0.00598596
0.00582889
0.00567455
0.00552237
0.00537248
0.00522651
0.00507648
0.00762468
0.00768757
0.00769133
0.00761768
0.00749756
0.00735118
0.0071883
0.00701689
0.00684276
0.00666923
0.00649814
0.00633038
0.00616628
0.00600579
0.00584867
0.00569439
0.00554216
0.0053917
0.00524413
0.00509207
0.00789062
0.00795505
0.00792559
0.00780078
0.00764181
0.00746817
0.00728192
0.00709396
0.00690794
0.00672472
0.00654588
0.00637244
0.00620479
0.00604257
0.0058855
0.00573308
0.00558449
0.00543982
0.00530057
0.00515855
0.00837682
0.00839865
0.00827145
0.00805395
0.00782155
0.00759241
0.00736963
0.00715653
0.00695584
0.00676874
0.00659278
0.00642465
0.00626283
0.00610608
0.00595315
0.00580452
0.00566162
0.00552517
0.00539557
0.00526721
0.00976143
0.00902025
0.00843208
0.00802396
0.00770199
0.00743524
0.00721366
0.00702294
0.00685204
0.00669512
0.00654488
0.00639445
0.00624298
0.00609224
0.0059437
0.00579869
0.00565849
0.00552384
0.00539178
0.00526448
0.00989562
0.00913289
0.00851412
0.00806277
0.00771876
0.00744966
0.00722991
0.00704087
0.00687266
0.00671463
0.00655798
0.00640113
0.00624451
0.00608825
0.00593185
0.00577459
0.00561579
0.00545533
0.0052951
0.00513637
0.00859274
0.00863625
0.00847067
0.00820772
0.00792732
0.00765594
0.00740486
0.00717837
0.0069751
0.00678808
0.00661033
0.00643865
0.00627172
0.0061081
0.00594637
0.00578561
0.00562534
0.0054663
0.00531093
0.0051642
0.00807366
0.00814172
0.00808933
0.00794235
0.00775747
0.00755235
0.0073417
0.00713481
0.00693371
0.00674129
0.00655867
0.00638402
0.00621536
0.00605122
0.00589051
0.00573223
0.00557533
0.00541893
0.00526181
0.00510158
0.00777579
0.00783493
0.007823
0.00772762
0.007588
0.00742254
0.00724238
0.00705795
0.00687404
0.00669377
0.00651878
0.00634894
0.00618363
0.00602226
0.00586427
0.00570895
0.00555564
0.00540382
0.00525395
0.00510009
0.00762467
0.00768757
0.00769133
0.00761768
0.00749756
0.00735118
0.0071883
0.00701689
0.00684276
0.00666922
0.00649813
0.00633038
0.00616628
0.00600579
0.00584867
0.00569439
0.00554216
0.0053917
0.00524414
0.00509209
0.00762466
0.00768755
0.00769131
0.00761765
0.00749752
0.00735111
0.00718819
0.00701674
0.00684256
0.00666895
0.00649776
0.00632985
0.00616552
0.00600464
0.00584689
0.00569188
0.00553886
0.00538727
0.00523747
0.00508363
0.00777579
0.00783494
0.007823
0.00772762
0.00758801
0.00742254
0.00724238
0.00705795
0.00687404
0.00669378
0.00651878
0.00634894
0.00618363
0.00602227
0.00586427
0.00570896
0.00555564
0.00540383
0.00525397
0.00510012
0.00807372
0.00814178
0.00808942
0.0079425
0.00775769
0.00755263
0.00734206
0.00713533
0.0069345
0.00674257
0.00656078
0.00638732
0.00622028
0.00605858
0.00590148
0.00574798
0.00559808
0.00545321
0.00531435
0.00517171
0.00859284
0.00863635
0.0084708
0.0082079
0.00792757
0.0076563
0.0074054
0.00717921
0.0069765
0.00679062
0.0066149
0.00644612
0.00628277
0.00612439
0.00597146
0.00582469
0.00568509
0.00555466
0.00543637
0.00532567
0.00989569
0.00913296
0.0085142
0.00806288
0.00771893
0.00744993
0.00723037
0.00704168
0.00687402
0.00671687
0.00656166
0.0064071
0.00625412
0.00610368
0.00595681
0.00581518
0.00568127
0.00555762
0.00544601
0.00535116
0.0103049
0.00945341
0.00868914
0.00812999
0.0077538
0.00748572
0.00726996
0.00707687
0.00689818
0.00672921
0.00656497
0.00640313
0.00624293
0.0060836
0.00592366
0.00576085
0.00559188
0.00541208
0.00521813
0.00500483
0.00901115
0.00913733
0.00883445
0.00841824
0.0080511
0.00773245
0.00745387
0.00721336
0.00700066
0.00680593
0.00662236
0.00644662
0.00627658
0.00611016
0.00594561
0.0057813
0.00561614
0.00544965
0.00528338
0.00512911
0.00844168
0.00854266
0.00843111
0.00820566
0.00794994
0.00769157
0.00743325
0.00719176
0.00697406
0.00677409
0.00658689
0.00640939
0.00623903
0.00607386
0.00591266
0.00575442
0.00559835
0.00544429
0.00529167
0.00513739
0.00807371
0.00814178
0.00808942
0.00794249
0.00775769
0.00755262
0.00734205
0.00713533
0.0069345
0.00674256
0.00656078
0.00638732
0.00622028
0.00605857
0.00590148
0.00574798
0.00559808
0.00545321
0.00531433
0.00517168
0.00789062
0.00795505
0.00792559
0.00780077
0.00764181
0.00746817
0.00728192
0.00709396
0.00690793
0.00672471
0.00654588
0.00637243
0.00620478
0.00604257
0.0058855
0.00573307
0.00558449
0.00543983
0.00530058
0.00515856
0.00789059
0.00795502
0.00792555
0.00780069
0.00764164
0.00746793
0.00728163
0.00709358
0.00690738
0.00672386
0.00654458
0.00637051
0.00620203
0.00603852
0.00587941
0.00572443
0.00557261
0.00542281
0.00527513
0.00512586
0.00807366
0.00814172
0.00808934
0.00794235
0.00775748
0.00755236
0.0073417
0.00713481
0.00693371
0.00674129
0.00655867
0.00638402
0.00621536
0.00605122
0.00589052
0.00573224
0.00557534
0.00541895
0.00526187
0.00510171
0.00844169
0.00854267
0.00843112
0.00820567
0.00794994
0.00769158
0.00743325
0.00719176
0.00697407
0.00677409
0.00658689
0.00640939
0.00623903
0.00607386
0.00591266
0.00575442
0.00559834
0.00544429
0.00529168
0.00513743
0.0090112
0.0091374
0.00883454
0.00841835
0.00805124
0.00773267
0.00745425
0.00721404
0.00700186
0.00680793
0.00662553
0.00645161
0.00628454
0.00612315
0.00596681
0.0058155
0.0056705
0.00553431
0.00541318
0.00532583
0.010305
0.00945347
0.00868921
0.00813009
0.00775396
0.00748601
0.00727045
0.0070777
0.00689955
0.00673151
0.00656884
0.0064095
0.00625333
0.00610066
0.00595198
0.00580837
0.00567249
0.0055478
0.00544482
0.00538133
0.0106532
0.00991936
0.00882647
0.00816049
0.00775789
0.00748416
0.00727297
0.00708671
0.00691224
0.0067448
0.00658188
0.00642165
0.00626235
0.00610291
0.00594302
0.00578233
0.00561715
0.00543667
0.00521026
0.00487741
0.00993664
0.00990494
0.00917672
0.00846623
0.00801991
0.007704
0.00744517
0.0072176
0.00701317
0.00682505
0.00664775
0.0064776
0.00631167
0.00614839
0.00598729
0.00582756
0.00566874
0.00550985
0.0053588
0.00523438
0.00901119
0.00913739
0.00883453
0.00841834
0.00805123
0.00773267
0.00745425
0.00721404
0.00700185
0.00680792
0.00662553
0.00645161
0.00628454
0.00612314
0.0059668
0.0058155
0.00567051
0.00553431
0.00541319
0.00532583
0.00859283
0.00863634
0.00847079
0.00820789
0.00792756
0.00765629
0.00740539
0.0071792
0.00697649
0.00679062
0.00661489
0.00644611
0.00628277
0.00612439
0.00597145
0.00582469
0.00568509
0.00555465
0.00543636
0.00532563
0.00837681
0.00839864
0.00827144
0.00805395
0.00782154
0.0075924
0.00736962
0.00715653
0.00695583
0.00676873
0.00659277
0.00642464
0.00626282
0.00610607
0.00595313
0.00580451
0.00566161
0.00552516
0.00539556
0.00526719
0.00837677
0.0083986
0.00827139
0.00805385
0.00782139
0.00759219
0.00736931
0.00715605
0.00695514
0.00676758
0.00659081
0.00642136
0.00625765
0.0060981
0.0059412
0.0057872
0.00563664
0.00548976
0.00534815
0.0052121
0.00859275
0.00863625
0.00847067
0.00820772
0.00792732
0.00765594
0.00740486
0.00717837
0.0069751
0.00678808
0.00661032
0.00643865
0.00627172
0.0061081
0.00594637
0.0057856
0.00562532
0.00546628
0.00531091
0.00516418
0.00901115
0.00913734
0.00883446
0.00841824
0.0080511
0.00773245
0.00745387
0.00721336
0.00700066
0.00680593
0.00662236
0.00644662
0.00627657
0.00611016
0.00594561
0.00578129
0.00561612
0.00544961
0.00528332
0.00512902
0.00993664
0.00990494
0.00917673
0.00846624
0.00801991
0.007704
0.00744517
0.0072176
0.00701318
0.00682506
0.00664776
0.0064776
0.00631168
0.00614839
0.00598728
0.00582755
0.00566872
0.00550982
0.00535875
0.00523427
0.0106532
0.00991939
0.0088265
0.00816054
0.00775798
0.0074843
0.0072732
0.00708712
0.00691293
0.006746
0.00658386
0.00642493
0.00626802
0.00611296
0.00596067
0.0058127
0.00566869
0.00552897
0.00540109
0.00531819
0.017832
0.0107176
0.00842615
0.00788833
0.00761398
0.00739179
0.0072052
0.00703882
0.00687774
0.00671842
0.00656099
0.00640529
0.00625024
0.00609485
0.00593916
0.00578335
0.00562813
0.00547176
0.00529866
0.00501296
0.0106532
0.00991938
0.00882649
0.00816053
0.00775797
0.00748429
0.0072732
0.00708711
0.00691293
0.00674599
0.00658385
0.00642492
0.00626801
0.00611296
0.00596068
0.0058127
0.00566869
0.00552899
0.00540114
0.00531828
0.010305
0.00945346
0.0086892
0.00813008
0.00775396
0.007486
0.00727044
0.00707769
0.00689954
0.0067315
0.00656883
0.00640949
0.00625333
0.00610066
0.00595198
0.00580836
0.00567249
0.0055478
0.00544485
0.0053814
0.00989568
0.00913295
0.00851419
0.00806288
0.00771892
0.00744992
0.00723036
0.00704167
0.00687401
0.00671686
0.00656165
0.00640709
0.00625411
0.00610367
0.0059568
0.00581517
0.00568126
0.00555761
0.00544601
0.00535118
0.00976143
0.00902024
0.00843207
0.00802395
0.00770199
0.00743523
0.00721365
0.00702293
0.00685203
0.0066951
0.00654487
0.00639443
0.00624297
0.00609222
0.00594368
0.00579867
0.00565847
0.00552381
0.00539175
0.00526445
0.00976141
0.00902023
0.00843204
0.0080239
0.00770191
0.00743511
0.00721346
0.0070226
0.00685148
0.00669421
0.0065434
0.00639203
0.00623905
0.00608593
0.00593369
0.00578288
0.00563391
0.00548694
0.00534068
0.00519897
0.00989562
0.00913289
0.00851412
0.00806277
0.00771876
0.00744966
0.00722991
0.00704087
0.00687266
0.00671463
0.00655798
0.00640113
0.00624451
0.00608825
0.00593184
0.00577458
0.00561576
0.00545528
0.005295
0.00513617
0.0103049
0.00945341
0.00868914
0.00813
0.00775381
0.00748572
0.00726996
0.00707687
0.00689818
0.00672921
0.00656496
0.00640312
0.00624293
0.00608359
0.00592365
0.00576084
0.00559185
0.00541203
0.00521804
0.00500467
0.0106532
0.00991937
0.00882647
0.0081605
0.0077579
0.00748416
0.00727297
0.00708671
0.00691224
0.0067448
0.00658188
0.00642165
0.00626235
0.0061029
0.005943
0.00578232
0.00561714
0.00543663
0.00521018
0.00487729
0.017832
0.0107176
0.00842616
0.00788834
0.00761399
0.0073918
0.0072052
0.00703882
0.00687774
0.00671843
0.00656099
0.00640529
0.00625024
0.00609484
0.00593915
0.00578335
0.00562812
0.00547173
0.0052986
0.00501285
0.00541527
0.00485638
0.00454969
0.00441987
0.00430508
0.00417415
0.00403961
0.00390556
0.00377113
0.00363665
0.00350304
0.0033705
0.00323869
0.00310796
0.00297803
0.00284858
0.00272002
0.00259313
0.00246791
0.00234403
0.0022216
0.00209943
0.00197913
0.00186062
0.0017424
0.00162496
0.00150838
0.00139306
0.00127989
0.00116694
0.00105234
0.000938258
0.000825689
0.000715114
0.000605904
0.000495352
0.000383702
0.000272643
0.000163972
5.12286e-05
0.00524544
0.00486786
0.00460998
0.00447606
0.00435016
0.0042105
0.00406919
0.0039289
0.0037888
0.00364935
0.00351138
0.00337522
0.00323996
0.003106
0.00297348
0.00284224
0.00271266
0.00258497
0.0024593
0.00233501
0.00221241
0.00209062
0.00197108
0.00185331
0.00173528
0.00161772
0.00150104
0.0013857
0.00127257
0.00115978
0.00104552
0.000931962
0.000819979
0.000709904
0.0006011
0.000490929
0.000379822
0.000269797
0.000161706
5.06669e-05
0.00508672
0.00490327
0.00468491
0.00451708
0.00437132
0.00422437
0.00407648
0.00393057
0.00378705
0.00364557
0.00350585
0.00336846
0.0032318
0.003097
0.00296459
0.00283386
0.00270494
0.0025776
0.00245209
0.00232755
0.00220474
0.00208284
0.00196304
0.00184475
0.00172667
0.00160945
0.00149304
0.00137798
0.00126501
0.00115252
0.00103903
0.000926564
0.000815314
0.000705388
0.000597297
0.000487939
0.000377033
0.000267692
0.000160466
4.9886e-05
0.00492196
0.00481934
0.00466858
0.00451785
0.00437336
0.00422911
0.00408403
0.00393961
0.0037967
0.00365536
0.00351585
0.00337822
0.00324248
0.00310833
0.00297607
0.00284551
0.00271643
0.0025887
0.00246256
0.00233729
0.00221341
0.00209025
0.00196784
0.0018468
0.00172718
0.00160918
0.00149279
0.00137762
0.00126431
0.0011522
0.00103888
0.000926113
0.000814383
0.000704429
0.000596333
0.000487126
0.00037668
0.000267643
0.000160612
4.95518e-05
0.00494208
0.00482563
0.00467471
0.00451837
0.00436699
0.00421877
0.00407245
0.0039289
0.00378801
0.00364884
0.00351124
0.00337553
0.00324142
0.00310878
0.00297765
0.00284796
0.00271954
0.00259232
0.00246639
0.00234173
0.0022185
0.00209639
0.00197486
0.001854
0.00173415
0.00161597
0.00149966
0.0013847
0.00127106
0.00115806
0.00104432
0.000930626
0.000817945
0.000707511
0.000599102
0.000489782
0.000379198
0.000269573
0.000161737
4.96397e-05
0.00499936
0.00484704
0.00467973
0.00451582
0.00435968
0.00420923
0.004063
0.00392064
0.00378143
0.00364417
0.00350814
0.00337327
0.00323979
0.00310812
0.00297762
0.00284834
0.00272036
0.00259365
0.00246823
0.00234409
0.00222121
0.00209958
0.00197923
0.00185943
0.00173955
0.00162063
0.00150354
0.00138827
0.00127465
0.00116178
0.00104885
0.000936153
0.000824206
0.000713775
0.000604849
0.000494881
0.000383612
0.000272448
0.000163567
5.08639e-05
0.00509295
0.00490244
0.00469969
0.00452077
0.00435842
0.00420453
0.00405669
0.00391372
0.00377456
0.00363761
0.00350235
0.00336836
0.00323567
0.00310434
0.00297438
0.00284595
0.00271882
0.00259275
0.00246787
0.00234424
0.00222182
0.00210061
0.0019806
0.00186101
0.0017412
0.00162283
0.0015062
0.00139135
0.00127848
0.00116562
0.00105221
0.000939386
0.000827321
0.00071709
0.000608707
0.000498873
0.000387357
0.000275508
0.000165873
5.23595e-05
0.00520619
0.00497126
0.00471956
0.00451644
0.00434472
0.00418804
0.00404026
0.00389862
0.00376116
0.00362635
0.00349306
0.00336095
0.00322971
0.00309868
0.00296864
0.00284051
0.002714
0.00258862
0.00246441
0.00234129
0.00221917
0.00209824
0.00197843
0.00186015
0.0017425
0.00162602
0.00151039
0.00139591
0.00128349
0.00117032
0.00105586
0.000942514
0.000830516
0.000720143
0.000611394
0.000502113
0.000390776
0.000277711
0.000166825
5.30033e-05
0.00534919
0.00501161
0.00468652
0.00446913
0.00430065
0.00414902
0.00400701
0.00387177
0.00374045
0.00361073
0.0034813
0.00335213
0.00322307
0.00309539
0.00296906
0.00284211
0.0027158
0.0025903
0.00246609
0.00234297
0.00222064
0.00209936
0.00197947
0.00186168
0.00174449
0.00162851
0.00151275
0.00139781
0.00128495
0.00117145
0.00105646
0.000942501
0.000829982
0.000719128
0.000609773
0.000499995
0.000388557
0.000275623
0.000164814
5.21701e-05
0.00545183
0.0049471
0.00455513
0.00437949
0.00425869
0.00413355
0.00400592
0.00387874
0.0037508
0.00362183
0.00349271
0.0033643
0.00323616
0.0031092
0.00298307
0.00285568
0.00272839
0.00260213
0.00247735
0.00235393
0.00223134
0.00210916
0.00198855
0.0018699
0.00175143
0.00163379
0.00151724
0.00140176
0.00128853
0.00117514
0.00105989
0.000945218
0.000832123
0.000720715
0.000611111
0.000501896
0.000390718
0.000277476
0.000166064
5.26752e-05
0.00541524
0.00485631
0.00454922
0.00441871
0.00430445
0.00417474
0.0040405
0.0039063
0.00377161
0.00363682
0.00350293
0.00337053
0.00323894
0.00310812
0.00297811
0.00284854
0.00272006
0.00259305
0.00246776
0.00234399
0.00222123
0.00209925
0.00197935
0.00186121
0.00174288
0.00162522
0.0015087
0.00139322
0.00127994
0.00116688
0.00105223
0.000938128
0.000825536
0.000714604
0.000605392
0.000496684
0.000386158
0.000273693
0.00016408
5.11641e-05
0.00545176
0.00494703
0.00455556
0.00438082
0.00425941
0.00413291
0.00400496
0.00387792
0.00375025
0.00362158
0.00349268
0.00336412
0.00323576
0.00310893
0.00298279
0.00285554
0.00272817
0.00260202
0.00247741
0.00235382
0.00223158
0.00210919
0.00198822
0.00186917
0.00175079
0.00163346
0.00151691
0.00140165
0.00128857
0.00117534
0.00106016
0.000945518
0.000832528
0.000721702
0.000611974
0.000500517
0.00038804
0.00027615
0.000165686
5.25547e-05
0.00513107
0.00484633
0.00461875
0.00445844
0.00431548
0.00417718
0.00404287
0.00391044
0.00377796
0.00364517
0.00351244
0.0033807
0.00324872
0.00311767
0.00298741
0.00285797
0.00272967
0.00260302
0.00247819
0.00235401
0.00223174
0.00210949
0.00198883
0.00186977
0.00175099
0.00163328
0.00151598
0.00140024
0.00128721
0.00117409
0.00105882
0.000944081
0.000830758
0.000719585
0.000611065
0.000500551
0.000387516
0.000275615
0.000165972
5.27347e-05
0.00500243
0.00480577
0.00463507
0.00447067
0.00432144
0.00418051
0.00404183
0.00390485
0.00376945
0.00363479
0.00350063
0.00336711
0.00323475
0.00310357
0.00297353
0.00284464
0.00271675
0.00259053
0.0024658
0.00234151
0.00221812
0.00209598
0.00197491
0.00185503
0.00173638
0.00161909
0.00150275
0.00138717
0.00127314
0.00115993
0.0010461
0.000932803
0.000820111
0.000708771
0.000599891
0.000490622
0.000379947
0.000270378
0.000162953
5.17944e-05
0.00491573
0.0047537
0.00461222
0.00446792
0.00432654
0.00418742
0.00404915
0.0039121
0.00377624
0.00364119
0.00350701
0.00337348
0.00324153
0.00311039
0.00297996
0.00285055
0.00272221
0.00259529
0.0024695
0.00234504
0.00222129
0.00209863
0.00197718
0.00185692
0.00173771
0.00161953
0.00150273
0.00138651
0.00127121
0.00115702
0.00104322
0.000929705
0.000816867
0.000705404
0.000595252
0.000485629
0.000376512
0.000268106
0.00016093
5.16212e-05
0.00491424
0.0047633
0.00462914
0.00448714
0.0043429
0.00420027
0.00405941
0.00392002
0.00378197
0.00364553
0.00351052
0.00337674
0.00324419
0.00311294
0.00298264
0.00285344
0.00272535
0.00259845
0.0024726
0.00234798
0.00222414
0.00210104
0.00197928
0.00185885
0.0017397
0.0016219
0.00150504
0.0013888
0.00127318
0.00115809
0.00104393
0.000930534
0.000818251
0.000706693
0.000595551
0.00048498
0.00037513
0.000266271
0.000159343
5.15223e-05
0.00497271
0.00481244
0.0046669
0.00451815
0.00436894
0.00422228
0.00407793
0.00393518
0.00379402
0.00365511
0.00351832
0.00338317
0.00324936
0.00311702
0.002986
0.00285622
0.00272769
0.00260045
0.00247442
0.0023496
0.0022258